/*--------------------------------*- C++ -*----------------------------------*\
| =========                 |                                                 |
| \\      /  F ield         | OpenFOAM: The Open Source CFD Toolbox           |
|  \\    /   O peration     | Version:  2206                                  |
|   \\  /    A nd           | Website:  www.openfoam.com                      |
|    \\/     M anipulation  |                                                 |
\*---------------------------------------------------------------------------*/
FoamFile
{
    version     2.0;
    format      ascii;
    arch        "LSB;label=64;scalar=64";
    class       volScalarField;
    location    "1.8/water";
    object      alphat.gas;
}
// * * * * * * * * * * * * * * * * * * * * * * * * * * * * * * * * * * * * * //

dimensions      [1 -1 -1 0 0 0 0];

internalField   nonuniform List<scalar> 
23300
(
1.49602044993e-07
1.41569858106e-07
1.47414602117e-07
1.61526410568e-07
1.80018368101e-07
2.01174057396e-07
2.24216999865e-07
2.48797194842e-07
2.74798679383e-07
3.02292613265e-07
3.31572283316e-07
3.631582445e-07
3.98336290473e-07
4.42480950509e-07
5.10636641481e-07
6.53337631216e-07
1.03679310089e-06
1.97733885322e-06
3.45290392454e-06
4.70814432862e-06
5.17093465702e-06
5.22659320778e-06
5.20093253359e-06
5.2005362211e-06
5.24055279626e-06
5.3100330106e-06
5.39531793312e-06
5.48656210595e-06
5.57826615977e-06
5.66829027031e-06
5.75659603393e-06
5.8443399954e-06
5.93318524386e-06
6.02495578593e-06
6.1213867802e-06
6.22407201015e-06
6.33440192186e-06
6.45361549081e-06
6.58279581463e-06
6.72294462815e-06
6.87498636337e-06
7.03984033631e-06
7.21842293719e-06
7.41171928077e-06
7.62079418207e-06
7.84688648157e-06
8.09147724349e-06
8.35577906996e-06
8.64026648028e-06
8.94615038983e-06
9.27498218862e-06
9.62859379302e-06
1.00090495049e-05
1.04186926368e-05
1.08601340859e-05
1.13363187592e-05
1.1850525217e-05
1.2406445709e-05
1.30081939846e-05
1.36603994249e-05
1.43682210808e-05
1.51374551589e-05
1.59745491471e-05
1.68867152067e-05
1.78819265182e-05
1.89690116788e-05
2.01575882019e-05
2.14580729168e-05
2.28814478345e-05
2.44390342271e-05
2.61418595833e-05
2.7999864676e-05
3.00203917005e-05
3.22061572511e-05
3.4551912029e-05
3.7039811266e-05
3.96321266937e-05
4.22605056955e-05
4.48085659466e-05
4.70844043721e-05
4.87784107471e-05
4.94290009313e-05
4.86459100934e-05
4.66935853912e-05
4.40121017128e-05
4.09449940125e-05
3.77314191562e-05
3.45304301166e-05
3.1443292824e-05
2.85308840726e-05
2.58260289442e-05
2.3342587856e-05
2.10816488263e-05
1.90361358164e-05
1.71938631732e-05
1.55398698838e-05
1.40578818291e-05
1.27314501347e-05
1.15445704684e-05
1.04821706787e-05
9.53028786002e-06
8.67621632307e-06
7.90847502422e-06
7.21679681225e-06
6.59201502266e-06
6.02599069675e-06
5.51148174267e-06
5.04205677464e-06
4.6119889336e-06
4.21625352436e-06
3.85080403613e-06
3.51209729238e-06
3.19570762715e-06
2.89807987481e-06
2.61643999142e-06
2.34889116432e-06
2.09464362064e-06
1.85432914944e-06
1.6302343823e-06
1.42617926503e-06
1.24669769748e-06
1.09544982832e-06
9.73433846463e-07
8.78087235514e-07
8.03964904635e-07
7.44549073421e-07
6.94027537043e-07
6.48207169263e-07
6.04528698727e-07
5.61623546855e-07
5.1882649834e-07
4.7582810053e-07
4.32474548267e-07
3.88665420866e-07
3.44322933728e-07
2.99512576877e-07
2.55175654921e-07
2.16367296191e-07
2.00695009356e-07
2.12249102853e-07
1.29302498519e-07
1.26123341946e-07
1.2503023805e-07
1.266819716e-07
1.31211647778e-07
1.38754508693e-07
1.49574992657e-07
1.64112793847e-07
1.8304599058e-07
2.07427695875e-07
2.39070012471e-07
2.81854143469e-07
3.434459985e-07
4.49026312084e-07
6.55962710373e-07
1.0524388802e-06
1.69275471566e-06
2.529051781e-06
3.42168543027e-06
4.17384982688e-06
4.71428493629e-06
5.08609122897e-06
5.35766838914e-06
5.57826614364e-06
5.77469974451e-06
5.95902359238e-06
6.13586538205e-06
6.30701285566e-06
6.47363477015e-06
6.6370939805e-06
6.79906152428e-06
6.96139238965e-06
7.12594852332e-06
7.2944739197e-06
7.46851512644e-06
7.6494019222e-06
7.83825048114e-06
8.03599719206e-06
8.24343106977e-06
8.46123939745e-06
8.69004198939e-06
8.93043328156e-06
9.18301169206e-06
9.44841674088e-06
9.72735358092e-06
1.00206231069e-05
1.03291353692e-05
1.06526007935e-05
1.09914983498e-05
1.13465229142e-05
1.17185712206e-05
1.21087199804e-05
1.2518208421e-05
1.2948443301e-05
1.34010019315e-05
1.38776502061e-05
1.43803535987e-05
1.49113004919e-05
1.54729159319e-05
1.60678860374e-05
1.66991695446e-05
1.7370016969e-05
1.80839705116e-05
1.88448647109e-05
1.96567950346e-05
2.05240723742e-05
2.14511204714e-05
2.24423287778e-05
2.35018002679e-05
2.46329942839e-05
2.58381747942e-05
2.71176421491e-05
2.8468618908e-05
2.98837439377e-05
3.13490087008e-05
3.28410824989e-05
3.4323855606e-05
3.57442433168e-05
3.70274311204e-05
3.80728927815e-05
3.87552297499e-05
3.89412217017e-05
3.85447692188e-05
3.76020317829e-05
3.62279947358e-05
3.45544110461e-05
3.26994258448e-05
3.07575373331e-05
2.8799266932e-05
2.6874606058e-05
2.50172463638e-05
2.3248501278e-05
2.15804976909e-05
2.00187069849e-05
1.85638651756e-05
1.72134582378e-05
1.59628255253e-05
1.48060006421e-05
1.37363126111e-05
1.27468271309e-05
1.18306397904e-05
1.09810776356e-05
1.01918151638e-05
9.45694293643e-06
8.77098974635e-06
8.12892180806e-06
7.52611444152e-06
6.95830345904e-06
6.42149107424e-06
5.9117479992e-06
5.42467521752e-06
4.95826794889e-06
4.51177367158e-06
4.08271917979e-06
3.66923532974e-06
3.27015476896e-06
2.88515593156e-06
2.51497447598e-06
2.16164310786e-06
1.82866794228e-06
1.52101694774e-06
1.24480884264e-06
1.00657041657e-06
8.11743699679e-07
6.62252758707e-07
5.54313657906e-07
4.78862615146e-07
4.24958728334e-07
3.83383177835e-07
3.48100134674e-07
3.15838877262e-07
2.85086033846e-07
2.55266132071e-07
2.26272040403e-07
1.98262294608e-07
1.7166867616e-07
1.47686575351e-07
1.3004500609e-07
1.16315394601e-07
1.23272938584e-07
8.93891312818e-08
9.5817181358e-08
1.06113387541e-07
1.19388416982e-07
1.3544143869e-07
1.54445968113e-07
1.76904445223e-07
2.03739796231e-07
2.36550361979e-07
2.78341297769e-07
3.36466087732e-07
4.27405470836e-07
5.91378710768e-07
8.87512302601e-07
1.34608961476e-06
1.94092499538e-06
2.63447882234e-06
3.35810046068e-06
4.06305182249e-06
4.69948068636e-06
5.24342845018e-06
5.6992582574e-06
6.08575079013e-06
6.42352247952e-06
6.72916593985e-06
7.01411389841e-06
7.28567291892e-06
7.54851240615e-06
7.80582973464e-06
8.06004382147e-06
8.31312728274e-06
8.566736791e-06
8.82225353034e-06
9.08080095572e-06
9.34326377499e-06
9.61031825252e-06
9.88246858771e-06
1.0160088042e-05
1.04434575282e-05
1.07328019986e-05
1.10283200105e-05
1.1330208892e-05
1.16386821545e-05
1.1953981746e-05
1.22763813783e-05
1.26061824322e-05
1.29436965515e-05
1.32886359338e-05
1.36416761566e-05
1.40034174841e-05
1.4374485119e-05
1.4755567625e-05
1.51474314714e-05
1.55509299138e-05
1.59670088944e-05
1.63967137949e-05
1.68411947175e-05
1.73017121563e-05
1.77796399449e-05
1.82764666126e-05
1.87937913619e-05
1.9333314823e-05
1.98968195392e-05
2.04861387003e-05
2.11031058379e-05
2.17494813057e-05
2.24268445282e-05
2.31364435038e-05
2.38789845609e-05
2.46543472021e-05
2.54611987826e-05
2.62964871098e-05
2.71547820567e-05
2.80274520835e-05
2.89016724857e-05
2.9759309912e-05
3.05757853438e-05
3.13191453307e-05
3.19497599433e-05
3.24214202357e-05
3.2685100825e-05
3.26971349347e-05
3.24324112195e-05
3.18974296999e-05
3.1127399737e-05
3.01707149619e-05
2.90780981161e-05
2.78959195115e-05
2.66632641516e-05
2.54113318993e-05
2.41640051135e-05
2.29388706806e-05
2.17483218284e-05
2.06005860644e-05
1.95006212069e-05
1.84508757406e-05
1.74519174579e-05
1.65029459708e-05
1.56022001776e-05
1.4747277311e-05
1.39353759309e-05
1.3163477811e-05
1.24284794095e-05
1.17272837578e-05
1.10568595171e-05
1.0414272013e-05
9.79668569426e-06
9.20133001859e-06
8.62540613343e-06
8.06588637132e-06
7.5191249631e-06
6.98020491917e-06
6.45001919682e-06
5.92725334415e-06
5.41082334296e-06
4.90002986609e-06
4.39473395737e-06
3.89556536949e-06
3.40416301527e-06
2.92342456798e-06
2.45773192607e-06
2.01314883037e-06
1.59767675637e-06
1.2217135475e-06
8.98425302923e-07
6.41809544144e-07
4.59146658671e-07
3.42833383409e-07
2.73496850418e-07
2.3122281558e-07
2.02284954615e-07
1.79301386046e-07
1.59020791874e-07
1.40348819605e-07
1.23205340714e-07
1.08083555041e-07
9.63681430785e-08
9.05083515014e-08
7.92008999088e-08
1.37730841702e-07
7.79287919969e-08
8.70569642094e-08
1.00801567651e-07
1.17938249427e-07
1.38344235004e-07
1.62405458542e-07
1.91031175439e-07
2.26080975629e-07
2.7180804846e-07
3.40352073901e-07
4.69332727398e-07
7.13829825059e-07
1.11225215286e-06
1.64546350161e-06
2.27144722942e-06
2.9343798248e-06
3.62319568815e-06
4.31252917197e-06
4.97722020412e-06
5.59616773232e-06
6.15860705331e-06
6.66496271574e-06
7.12308405109e-06
7.54361579117e-06
7.93676580212e-06
8.31080269332e-06
8.67180315105e-06
9.02401110745e-06
9.37033855664e-06
9.71278651565e-06
1.00527338764e-05
1.03911212795e-05
1.07285685519e-05
1.1065458019e-05
1.14019989144e-05
1.17382820133e-05
1.20743247479e-05
1.2410108909e-05
1.27456089784e-05
1.30808133408e-05
1.34157371191e-05
1.37504294372e-05
1.40849740892e-05
1.44194865916e-05
1.47541071423e-05
1.50889928417e-05
1.5424306886e-05
1.57604030826e-05
1.60980560662e-05
1.64378809419e-05
1.67804222418e-05
1.7126204036e-05
1.74757566091e-05
1.78296319844e-05
1.81884124729e-05
1.85527161544e-05
1.89231991921e-05
1.93005563792e-05
1.96855185662e-05
2.00788472887e-05
2.04813246197e-05
2.08937377031e-05
2.13168553175e-05
2.17513948887e-05
2.21979763367e-05
2.26570598415e-05
2.3128862611e-05
2.36132501422e-05
2.4109595561e-05
2.46166010685e-05
2.51320743946e-05
2.565265538e-05
2.61734907863e-05
2.66878652974e-05
2.71868120472e-05
2.76587535353e-05
2.80892606703e-05
2.84610680632e-05
2.87545377622e-05
2.89488113683e-05
2.90238812105e-05
2.89636439743e-05
2.87594479902e-05
2.84126033858e-05
2.79350118852e-05
2.73459682045e-05
2.66669212558e-05
2.59192991314e-05
2.51228204755e-05
2.42946598705e-05
2.34491770602e-05
2.25979769744e-05
2.17501411891e-05
2.09125341691e-05
2.00901298486e-05
1.92863298218e-05
1.85032564752e-05
1.77420136497e-05
1.70029112028e-05
1.62856540504e-05
1.55894975611e-05
1.49133727917e-05
1.42559848877e-05
1.36158877715e-05
1.29915371267e-05
1.23813217545e-05
1.17835704983e-05
1.11965263564e-05
1.06182712658e-05
1.00465711828e-05
9.47859130546e-06
8.91038607052e-06
8.34107458941e-06
7.76992342028e-06
7.1962572757e-06
6.61958674003e-06
6.03975240363e-06
5.45708278726e-06
4.87256908737e-06
4.28805246836e-06
3.70642089704e-06
3.13184255872e-06
2.57015290215e-06
2.0296645248e-06
1.52279644046e-06
1.06869051205e-06
6.94845280603e-07
4.27773666858e-07
2.68064759022e-07
1.85194710163e-07
1.43693030488e-07
1.20609150155e-07
1.0491816334e-07
9.23571799762e-08
8.17648970663e-08
7.33661953736e-08
6.86267155627e-08
6.77740067395e-08
6.67782381918e-08
1.68735295157e-07
7.88827255813e-08
9.05269519151e-08
1.08076677482e-07
1.29988779525e-07
1.56288135888e-07
1.87798217917e-07
2.26619830336e-07
2.78639300129e-07
3.63448783198e-07
5.46346863415e-07
8.89332844669e-07
1.3921491955e-06
1.984517098e-06
2.62401971213e-06
3.2993199358e-06
3.9926662067e-06
4.69037251607e-06
5.37794996316e-06
6.04181455102e-06
6.67152443052e-06
7.26187295188e-06
7.81315308764e-06
8.32968201046e-06
8.81769950788e-06
9.28359691018e-06
9.73285863299e-06
1.01696689174e-05
1.05969501301e-05
1.10165922545e-05
1.14297194621e-05
1.18369211548e-05
1.2238432245e-05
1.26342661345e-05
1.30243131633e-05
1.34084112431e-05
1.37863969907e-05
1.41581391912e-05
1.45235600047e-05
1.48826442851e-05
1.52354418176e-05
1.55820623364e-05
1.59226675814e-05
1.62574597697e-05
1.65866705544e-05
1.69105501472e-05
1.72293603058e-05
1.75433676849e-05
1.78534594808e-05
1.81604675484e-05
1.84650314981e-05
1.87676723572e-05
1.90688402899e-05
1.93689432958e-05
1.96683655317e-05
1.99674778192e-05
2.02666441912e-05
2.05662243628e-05
2.08665740507e-05
2.11680420146e-05
2.14709647329e-05
2.17756571092e-05
2.20823994367e-05
2.23914187011e-05
2.27028638525e-05
2.30167728393e-05
2.33330305052e-05
2.36513149541e-05
2.39710311967e-05
2.4291229893e-05
2.46105104278e-05
2.49269075214e-05
2.52377631402e-05
2.55395878483e-05
2.58279217528e-05
2.60972127479e-05
2.63407417594e-05
2.65506376626e-05
2.67180380698e-05
2.6833457897e-05
2.68874185968e-05
2.68713496591e-05
2.67786857055e-05
2.66059354638e-05
2.6353349764e-05
2.60248651332e-05
2.56278301487e-05
2.51723076502e-05
2.46681136423e-05
2.41248872441e-05
2.35515701581e-05
2.29561265304e-05
2.23454154639e-05
2.17251741642e-05
2.11000679792e-05
2.0473779937e-05
1.98491203093e-05
1.92281423711e-05
1.8612256537e-05
1.80023370032e-05
1.73988182404e-05
1.68017795066e-05
1.62110172078e-05
1.56261049203e-05
1.50464413334e-05
1.44712856931e-05
1.3899779574e-05
1.33309522203e-05
1.27637043443e-05
1.21967627745e-05
1.16285969999e-05
1.10572946575e-05
1.04804113017e-05
9.89520896935e-06
9.30217892098e-06
8.7007383795e-06
8.09047341641e-06
7.47120651722e-06
6.843080186e-06
6.20665512483e-06
5.56301929829e-06
4.91390832582e-06
4.2618564513e-06
3.61044945553e-06
2.96485412064e-06
2.33299137221e-06
1.72806456362e-06
1.17351219458e-06
7.09454729783e-07
3.83560805781e-07
2.0388853431e-07
1.23196253531e-07
8.93740191863e-08
7.35804492964e-08
6.42520779679e-08
5.77300581e-08
5.352560785e-08
5.29870968023e-08
5.27667238148e-08
6.79766886771e-08
2.0364021764e-07
8.3373698199e-08
9.77245078462e-08
1.19758750414e-07
1.48142215692e-07
1.84327264137e-07
2.32487090561e-07
3.03779660683e-07
4.33785205229e-07
7.14362883236e-07
1.18732004472e-06
1.74231067468e-06
2.35524733342e-06
3.01290497669e-06
3.69949838822e-06
4.40384151576e-06
5.11524362034e-06
5.82375594084e-06
6.51997825629e-06
7.19577443742e-06
7.84526554795e-06
8.46559665965e-06
9.05694452117e-06
9.62176418088e-06
1.01636861909e-05
1.06865023796e-05
1.11934880992e-05
1.16870953787e-05
1.21689282195e-05
1.2639873078e-05
1.31002863786e-05
1.35501770951e-05
1.39893607239e-05
1.44175755707e-05
1.48345663582e-05
1.52401377973e-05
1.56341865363e-05
1.6016714002e-05
1.63878275499e-05
1.67477311462e-05
1.70967117097e-05
1.74351210009e-05
1.77633578876e-05
1.80818499119e-05
1.83910383847e-05
1.86913657737e-05
1.89832685163e-05
1.92671703983e-05
1.95442363702e-05
1.98153499446e-05
2.00811762488e-05
2.03422325626e-05
2.05989352928e-05
2.08516292966e-05
2.11006076232e-05
2.13461235178e-05
2.15883985236e-05
2.18276263581e-05
2.20639748026e-05
2.22975845364e-05
2.252856628e-05
2.27569948589e-05
2.29829009958e-05
2.32062593304e-05
2.34269730942e-05
2.3644853957e-05
2.38595972577e-05
2.40707513354e-05
2.4277681255e-05
2.44795262188e-05
2.46751516094e-05
2.48630962986e-05
2.50415179588e-05
2.52081399425e-05
2.53602065086e-05
2.54944556818e-05
2.56071235283e-05
2.56939966498e-05
2.575053227e-05
2.57720624559e-05
2.57540902681e-05
2.56926652512e-05
2.55847956098e-05
2.54288171547e-05
2.52246189041e-05
2.49736516367e-05
2.46787365335e-05
2.43436014635e-05
2.39737206097e-05
2.35738194235e-05
2.31484908511e-05
2.27020050472e-05
2.22381986604e-05
2.17604293816e-05
2.12715580014e-05
2.07739599221e-05
2.02695546218e-05
1.97598439734e-05
1.92459563171e-05
1.8728691784e-05
1.82085667645e-05
1.76858552607e-05
1.71606262545e-05
1.66327760174e-05
1.61020549825e-05
1.55680881357e-05
1.50303879001e-05
1.44883575715e-05
1.39412826697e-05
1.33883065328e-05
1.28283858766e-05
1.22602214792e-05
1.16821523663e-05
1.10919636719e-05
1.04898562492e-05
9.87543491149e-06
9.24840535474e-06
8.60862436117e-06
7.9561581904e-06
7.29134593552e-06
6.61486741563e-06
5.92781904456e-06
5.23181088375e-06
4.52912536479e-06
3.82303542206e-06
3.11850234338e-06
2.42374471966e-06
1.75378128053e-06
1.13809002513e-06
6.31985288316e-07
2.99834482553e-07
1.39092233611e-07
7.81167215948e-08
5.66185377529e-08
4.81011369656e-08
4.39995489804e-08
4.24625947285e-08
4.44135193564e-08
4.2505063844e-08
7.65202520217e-08
2.39245446184e-07
8.91144078661e-08
1.06394998721e-07
1.34438221333e-07
1.75131249591e-07
2.38176180198e-07
3.47634045549e-07
5.60131672195e-07
9.87409766185e-07
1.52914768419e-06
2.11829610874e-06
2.75202431224e-06
3.42094612858e-06
4.11655345321e-06
4.83009343924e-06
5.55341503087e-06
6.27876549442e-06
6.998891497e-06
7.70723498575e-06
8.39835104833e-06
9.06837488736e-06
9.71530724152e-06
1.03389321896e-05
1.09403707496e-05
1.15214519671e-05
1.20841173256e-05
1.26300052404e-05
1.31602522222e-05
1.36754747823e-05
1.4175860064e-05
1.46613034233e-05
1.5131545947e-05
1.55862914866e-05
1.60252918275e-05
1.64484031922e-05
1.68556151595e-05
1.72470606346e-05
1.762300927e-05
1.79838524523e-05
1.83300808417e-05
1.86622608531e-05
1.89810093561e-05
1.9286971373e-05
1.95807989583e-05
1.98631352736e-05
2.01346017464e-05
2.03957910682e-05
2.06472606827e-05
2.08902559891e-05
2.11257191056e-05
2.13543483796e-05
2.15766731326e-05
2.17931030301e-05
2.20039589542e-05
2.22094941549e-05
2.2409907612e-05
2.26053536409e-05
2.27959473276e-05
2.29817682246e-05
2.31628612536e-05
2.33392364564e-05
2.35108663171e-05
2.36776818085e-05
2.38395658656e-05
2.39963451396e-05
2.41477788513e-05
2.42935454651e-05
2.44332262652e-05
2.45662866422e-05
2.46920546755e-05
2.48096982417e-05
2.49182011286e-05
2.50163403329e-05
2.51026665231e-05
2.51754915588e-05
2.52328872784e-05
2.52727017014e-05
2.52925988211e-05
2.52901286752e-05
2.52628316471e-05
2.52083770078e-05
2.51247270781e-05
2.50103087357e-05
2.48641628849e-05
2.46860394756e-05
2.4476413885e-05
2.42364234686e-05
2.39677421582e-05
2.36724782238e-05
2.33529676734e-05
2.30121754274e-05
2.26523166218e-05
2.22755066429e-05
2.18836581254e-05
2.14784445656e-05
2.10612949745e-05
2.06334008226e-05
2.01957229112e-05
1.97490072822e-05
1.92938029399e-05
1.88304816678e-05
1.83592577189e-05
1.78802063114e-05
1.73932801584e-05
1.6898323828e-05
1.63950848607e-05
1.5883221105e-05
1.53623029793e-05
1.48318093113e-05
1.42911144724e-05
1.37394638036e-05
1.31759323294e-05
1.25993568754e-05
1.20082180354e-05
1.14024629097e-05
1.07817863329e-05
1.01459618652e-05
9.49487012532e-06
8.82853929542e-06
8.14719026893e-06
7.45128528694e-06
6.74158385128e-06
6.01921585707e-06
5.28579749231e-06
4.5436481829e-06
3.79623980809e-06
3.04917583151e-06
2.31240901803e-06
1.60543606451e-06
9.690943782e-07
4.79206195838e-07
1.98753376979e-07
8.58336858847e-08
5.02448631498e-08
3.98030029631e-08
3.6767721282e-08
3.68320318747e-08
3.99877350494e-08
3.61819118211e-08
8.94496207729e-08
2.7442433e-07
9.52454471532e-08
1.16782900297e-07
1.58719558028e-07
2.40210174621e-07
4.06437775691e-07
7.4455551601e-07
1.27044102791e-06
1.86993665597e-06
2.4947040347e-06
3.14830006184e-06
3.82912779695e-06
4.53273668965e-06
5.25366230398e-06
5.98595891879e-06
6.72360845836e-06
7.46072965603e-06
8.19178769775e-06
8.91182875454e-06
9.61674752903e-06
1.03035253017e-05
1.09703383267e-05
1.16164681322e-05
1.22420242961e-05
1.28475740055e-05
1.34337909186e-05
1.40012087748e-05
1.45501042327e-05
1.50804932838e-05
1.55921975045e-05
1.60849418813e-05
1.65584503377e-05
1.70125247922e-05
1.74470976571e-05
1.78622612942e-05
1.82582747094e-05
1.86355559744e-05
1.89946620107e-05
1.93362636746e-05
1.96611163271e-05
1.99700319993e-05
2.02638516416e-05
2.05434219652e-05
2.08095743614e-05
2.10631096508e-05
2.13047859184e-05
2.15353121375e-05
2.17553424236e-05
2.19660831034e-05
2.21685472334e-05
2.23634796755e-05
2.25514387776e-05
2.27328500463e-05
2.29080394971e-05
2.30772564345e-05
2.32406880899e-05
2.33984704946e-05
2.35506951905e-05
2.36974143461e-05
2.3838643229e-05
2.39743618414e-05
2.4104514492e-05
2.42290086464e-05
2.43477118392e-05
2.44604477112e-05
2.4566990088e-05
2.46670560295e-05
2.47602970074e-05
2.48462891599e-05
2.49245221548e-05
2.49943878256e-05
2.50551686673e-05
2.51060278204e-05
2.51460014126e-05
2.5173995619e-05
2.51887902508e-05
2.5189051982e-05
2.51733595321e-05
2.51402436129e-05
2.50882424074e-05
2.50159719899e-05
2.49222068399e-05
2.48059624368e-05
2.46665673003e-05
2.45037117585e-05
2.4317462918e-05
2.41082440955e-05
2.38767849666e-05
2.36240545646e-05
2.33511840635e-05
2.30594048839e-05
2.27500147097e-05
2.24245589586e-05
2.20840715689e-05
2.17295262196e-05
2.13617529506e-05
2.0981454928e-05
2.05891960487e-05
2.01854119194e-05
1.97704130374e-05
1.93443939943e-05
1.89074445662e-05
1.8459558893e-05
1.80006442926e-05
1.75305296014e-05
1.70489716273e-05
1.65556598492e-05
1.60502184815e-05
1.55322052408e-05
1.50011053636e-05
1.4456319167e-05
1.38971399798e-05
1.33227171269e-05
1.27319930726e-05
1.21247918705e-05
1.15008659778e-05
1.08600209621e-05
1.02021405403e-05
9.52722083391e-06
8.83540746895e-06
8.12703536496e-06
7.40267571719e-06
6.66319871004e-06
5.90987017423e-06
5.14452060267e-06
4.36987048885e-06
3.59019876827e-06
2.81279689619e-06
2.05133045278e-06
1.33404234019e-06
7.21866764017e-07
3.08330068761e-07
1.15662357929e-07
5.3162366183e-08
3.69798329956e-08
3.36381866165e-08
3.44578737707e-08
3.77327234381e-08
3.32574395164e-08
1.05310348131e-07
3.08753881796e-07
1.02039628548e-07
1.35460972893e-07
2.28827949716e-07
4.63389733763e-07
9.09490992014e-07
1.51926622575e-06
2.17724102138e-06
2.840334605e-06
3.51894945162e-06
4.21565709352e-06
4.9297118929e-06
5.65851683732e-06
6.39842474308e-06
7.14515856332e-06
7.89413424859e-06
8.64072222885e-06
9.38047995154e-06
1.01093691419e-05
1.08239507236e-05
1.15215297134e-05
1.22002065144e-05
1.2858812231e-05
1.34967399134e-05
1.4113726794e-05
1.47096485659e-05
1.5284376293e-05
1.58377098286e-05
1.63693810424e-05
1.68790989826e-05
1.73666141706e-05
1.78317781806e-05
1.82745901815e-05
1.86952222495e-05
1.90940276212e-05
1.94715314312e-05
1.98284119151e-05
2.01654726408e-05
2.04836131345e-05
2.07837971498e-05
2.10670242673e-05
2.13343026075e-05
2.15866268984e-05
2.18249588199e-05
2.20502130868e-05
2.22632459775e-05
2.24648489744e-05
2.26557426452e-05
2.28370231571e-05
2.30097911439e-05
2.3174855305e-05
2.3332819759e-05
2.34841438283e-05
2.36291790498e-05
2.37681939275e-05
2.3901389805e-05
2.40289127646e-05
2.41508612686e-05
2.42672922204e-05
2.43782244065e-05
2.44836412355e-05
2.45834915689e-05
2.46776901014e-05
2.47661160959e-05
2.48486116527e-05
2.49249784412e-05
2.49949739334e-05
2.50583062707e-05
2.51146287794e-05
2.51635335518e-05
2.52045452066e-05
2.52371146218e-05
2.52606139857e-05
2.5274333424e-05
2.52774808921e-05
2.52691860614e-05
2.52485101581e-05
2.5214462608e-05
2.51660260725e-05
2.51021897065e-05
2.50219902869e-05
2.49245580973e-05
2.48091635934e-05
2.46752581604e-05
2.45225030393e-05
2.43507807875e-05
2.41601882289e-05
2.3951012216e-05
2.37236939952e-05
2.34787878492e-05
2.3216920883e-05
2.29387596732e-05
2.26449654502e-05
2.23360717651e-05
2.20130417565e-05
2.16762643139e-05
2.1326133607e-05
2.09629490976e-05
2.05869364519e-05
2.01982291358e-05
1.97968750759e-05
1.9382849835e-05
1.89560578757e-05
1.85163381947e-05
1.80634709443e-05
1.75971814515e-05
1.71171440148e-05
1.66229846547e-05
1.61142821663e-05
1.55905668474e-05
1.50513164884e-05
1.4495948034e-05
1.39238019198e-05
1.33341117093e-05
1.27264468125e-05
1.21007918823e-05
1.14569478457e-05
1.07947820451e-05
1.01142572235e-05
9.41546347258e-06
8.69865290772e-06
7.96428153917e-06
7.21306596934e-06
6.44606895326e-06
5.66484104593e-06
4.87167548214e-06
4.07009931544e-06
3.2658848745e-06
2.46929205404e-06
1.70047883785e-06
1.00325935317e-06
4.67124225695e-07
1.72509555272e-07
6.58794310979e-08
3.82414026124e-08
3.29522905865e-08
3.38114746977e-08
3.63619569553e-08
3.30502272972e-08
1.23318523077e-07
3.42099992301e-07
1.13354862126e-07
1.95162564182e-07
4.67836812708e-07
1.00777531067e-06
1.69483294899e-06
2.41671659825e-06
3.12564372012e-06
3.83731699962e-06
4.55736137957e-06
5.28764064407e-06
6.02801643766e-06
6.77700879622e-06
7.53216374905e-06
8.29033570039e-06
9.04794868209e-06
9.80124213378e-06
1.05464953777e-05
1.12802270852e-05
1.19993579772e-05
1.27013234652e-05
1.33841158994e-05
1.40462524586e-05
1.46866789805e-05
1.53046448878e-05
1.58995833217e-05
1.64710279634e-05
1.70185737008e-05
1.75418793406e-05
1.80406939974e-05
1.85148945541e-05
1.8964517364e-05
1.93897803213e-05
1.97910885945e-05
2.01690286341e-05
2.05243492099e-05
2.08579367992e-05
2.11707847942e-05
2.14639632571e-05
2.17385876311e-05
2.19957917168e-05
2.22367021723e-05
2.24624186098e-05
2.26739958435e-05
2.28724315759e-05
2.30586558963e-05
2.32335254432e-05
2.33978186756e-05
2.35524483639e-05
2.36986296557e-05
2.38372550616e-05
2.39689890064e-05
2.40943371618e-05
2.42136887906e-05
2.43273440043e-05
2.44355309816e-05
2.45384187942e-05
2.4636125763e-05
2.47287261415e-05
2.48162541182e-05
2.48987071388e-05
2.49760473605e-05
2.50482027802e-05
2.51150668451e-05
2.51764978079e-05
2.52323167448e-05
2.5282305351e-05
2.53262026114e-05
2.53637014159e-05
2.53944444477e-05
2.54180204589e-05
2.5433960541e-05
2.54417356302e-05
2.54407551645e-05
2.54303683031e-05
2.54098678892e-05
2.5378498642e-05
2.5335469736e-05
2.52799728852e-05
2.52112053282e-05
2.51283975485e-05
2.50308433286e-05
2.49179299271e-05
2.47891641094e-05
2.46441909811e-05
2.44828020933e-05
2.43049324136e-05
2.41106463798e-05
2.39001163695e-05
2.36735962796e-05
2.34313945898e-05
2.3173847787e-05
2.29012932851e-05
2.26140477994e-05
2.23124387895e-05
2.19966410823e-05
2.16670174962e-05
2.13237656103e-05
2.09669418901e-05
2.05965572275e-05
2.0212546701e-05
1.98148014796e-05
1.94031517886e-05
1.89773733334e-05
1.85371976297e-05
1.80823114563e-05
1.76123605986e-05
1.71269544312e-05
1.66256683399e-05
1.61080452342e-05
1.55735965011e-05
1.50218012224e-05
1.44521029008e-05
1.38639033697e-05
1.32565578948e-05
1.26302815424e-05
1.19848471468e-05
1.13201041194e-05
1.06359908681e-05
9.93255966761e-06
9.21000782989e-06
8.46871643587e-06
7.70930258676e-06
6.93269638908e-06
6.1402628737e-06
5.33400925803e-06
4.51696120177e-06
3.69389466909e-06
2.87287590219e-06
2.06882982026e-06
1.31270884543e-06
6.74342542532e-07
2.63138696705e-07
9.08102734151e-08
4.30539414666e-08
3.36160047322e-08
3.3900724016e-08
3.5234048978e-08
3.49793297472e-08
1.43009203074e-07
3.7444593916e-07
1.47518779511e-07
3.93417994383e-07
9.92908756931e-07
1.76266622508e-06
2.55477527724e-06
3.32017189033e-06
4.07608524637e-06
4.82981805947e-06
5.58521552491e-06
6.34412523966e-06
7.10698293752e-06
7.87310572722e-06
8.64089513542e-06
9.40803407649e-06
1.0171697697e-05
1.09287723565e-05
1.1676064457e-05
1.24104874705e-05
1.31292122654e-05
1.38297728557e-05
1.45101163241e-05
1.51685999292e-05
1.58039431202e-05
1.64151588116e-05
1.70014835227e-05
1.75623276679e-05
1.80972494306e-05
1.86059535625e-05
1.90883026084e-05
1.95443345947e-05
1.99742749731e-05
2.03785420186e-05
2.07577399004e-05
2.11126442408e-05
2.14441781554e-05
2.17533854569e-05
2.20413995442e-05
2.23094141447e-05
2.25586536519e-05
2.279034807e-05
2.3005709455e-05
2.32059138354e-05
2.33920850226e-05
2.35652837658e-05
2.37264990198e-05
2.38766452274e-05
2.40165635849e-05
2.4147031215e-05
2.42692637542e-05
2.43842706681e-05
2.44927959692e-05
2.45954036816e-05
2.46925283849e-05
2.47845069117e-05
2.48715979512e-05
2.49539962231e-05
2.50318416581e-05
2.51052266571e-05
2.51742005213e-05
2.52387731534e-05
2.52989168684e-05
2.53545679321e-05
2.54056266392e-05
2.54519572662e-05
2.54933868015e-05
2.55297036398e-05
2.55606553003e-05
2.55859462999e-05
2.56052354366e-05
2.5618133629e-05
2.56242017869e-05
2.56229499253e-05
2.56138372126e-05
2.5596274242e-05
2.55696273575e-05
2.55332262964e-05
2.54863748753e-05
2.54283656174e-05
2.53584974376e-05
2.52760963525e-05
2.51805371431e-05
2.50712646986e-05
2.4947811944e-05
2.48098127644e-05
2.46570074392e-05
2.44892406835e-05
2.43064520601e-05
2.41086611257e-05
2.38959486723e-05
2.36684370203e-05
2.34262701652e-05
2.31695960966e-05
2.28985524277e-05
2.26132549201e-05
2.23137783895e-05
2.20001872348e-05
2.16724614422e-05
2.13304791502e-05
2.09743971039e-05
2.06040390808e-05
2.02192147813e-05
1.98197014189e-05
1.94052192481e-05
1.89754619214e-05
1.85300823847e-05
1.80686970824e-05
1.75908961152e-05
1.70962438866e-05
1.65842812013e-05
1.60545290826e-05
1.55064906114e-05
1.49396508325e-05
1.43534730376e-05
1.3747388427e-05
1.31215331115e-05
1.24757051909e-05
1.18097621848e-05
1.11236349094e-05
1.04173541625e-05
9.69108231753e-06
8.94515029064e-06
8.18010571953e-06
7.39678200352e-06
6.59640366366e-06
5.78075716049e-06
4.95248502112e-06
4.11562755746e-06
3.27670183133e-06
2.4470744334e-06
1.64885679912e-06
9.31195837734e-07
3.98825260656e-07
1.33939344865e-07
5.21933978886e-08
3.51675551201e-08
3.42394130664e-08
3.4181914131e-08
3.86813760869e-08
1.64072854166e-07
4.05813191296e-07
2.64086983982e-07
8.31577032443e-07
1.68524055975e-06
2.55563168409e-06
3.3942332717e-06
4.20809377118e-06
5.00807329214e-06
5.79996854175e-06
6.5872708795e-06
7.37198988872e-06
8.15500221654e-06
8.9362132596e-06
9.71467335552e-06
1.04887131312e-05
1.12561109645e-05
1.20142838076e-05
1.27604788615e-05
1.34919508226e-05
1.42061074051e-05
1.49006167865e-05
1.55734685804e-05
1.6222993527e-05
1.68478470527e-05
1.74469749415e-05
1.80195727155e-05
1.8565054646e-05
1.90830338541e-05
1.95733169747e-05
2.00359044951e-05
2.04709950776e-05
2.08789845806e-05
2.12604609971e-05
2.16161900461e-05
2.19470962942e-05
2.2254237151e-05
2.25387758982e-05
2.28019515295e-05
2.30450511463e-05
2.32693821613e-05
2.3476249126e-05
2.36669318334e-05
2.38426686452e-05
2.40046413558e-05
2.41539650341e-05
2.42916793858e-05
2.44187449827e-05
2.4536040504e-05
2.46443606325e-05
2.47447546968e-05
2.48383666957e-05
2.49260340882e-05
2.50083877021e-05
2.50859111113e-05
2.51589781858e-05
2.5227876219e-05
2.52928221475e-05
2.53539729569e-05
2.54114337449e-05
2.54652627009e-05
2.55154752338e-05
2.5562046132e-05
2.56049114585e-05
2.56439690026e-05
2.56790786977e-05
2.57100618915e-05
2.57367007252e-05
2.57587366425e-05
2.5775869221e-05
2.57877545113e-05
2.57940040732e-05
2.57941840651e-05
2.57878156049e-05
2.57743759081e-05
2.57533014336e-05
2.57239926073e-05
2.56858212622e-05
2.56381402182e-05
2.55802957977e-05
2.5511642198e-05
2.5431557829e-05
2.53394617318e-05
2.52348294175e-05
2.51172056908e-05
2.49862137382e-05
2.48415585684e-05
2.46830252431e-05