/*--------------------------------*- C++ -*----------------------------------*\
| =========                 |                                                 |
| \\      /  F ield         | OpenFOAM: The Open Source CFD Toolbox           |
|  \\    /   O peration     | Version:  2206                                  |
|   \\  /    A nd           | Website:  www.openfoam.com                      |
|    \\/     M anipulation  |                                                 |
\*---------------------------------------------------------------------------*/
FoamFile
{
    version     2.0;
    format      ascii;
    arch        "LSB;label=64;scalar=64";
    class       volScalarField;
    location    "1.8/water";
    object      p;
}
// * * * * * * * * * * * * * * * * * * * * * * * * * * * * * * * * * * * * * //

dimensions      [1 -1 -2 0 0 0 0];

internalField   nonuniform List<scalar> 
23300
(
100744.512712
100744.508289
100744.501334
100744.49085
100744.477202
100744.460897
100744.442479
100744.422431
100744.401159
100744.378925
100744.355852
100744.331883
100744.306886
100744.280668
100744.252977
100744.223099
100744.188016
100744.142044
100744.084091
100744.021627
100743.961571
100743.903875
100743.845424
100743.784369
100743.720218
100743.653007
100743.583002
100743.510562
100743.436092
100743.360008
100743.282746
100743.204731
100743.126395
100743.048148
100742.970388
100742.893479
100742.817762
100742.743531
100742.67105
100742.600528
100742.532144
100742.466022
100742.402254
100742.340883
100742.281923
100742.225345
100742.171063
100742.11891
100742.068727
100742.020373
100741.973679
100741.928445
100741.88445
100741.841454
100741.799197
100741.757412
100741.715817
100741.674128
100741.632054
100741.589308
100741.545601
100741.500657
100741.454202
100741.405983
100741.355752
100741.303288
100741.24838
100741.190847
100741.130523
100741.067276
100741.000994
100740.931606
100740.859074
100740.783426
100740.704755
100740.623268
100740.539311
100740.453421
100740.366335
100740.278907
100740.191653
100740.104568
100740.017885
100739.932426
100739.848669
100739.766223
100739.684172
100739.60166
100739.518055
100739.432972
100739.346225
100739.257796
100739.167786
100739.076391
100738.98387
100738.890537
100738.796736
100738.702847
100738.609268
100738.51642
100738.424733
100738.334655
100738.246638
100738.161141
100738.07862
100737.999528
100737.924303
100737.853371
100737.787121
100737.725909
100737.670033
100737.619743
100737.575193
100737.536449
100737.503478
100737.476132
100737.454104
100737.436919
100737.423913
100737.414275
100737.407118
100737.401624
100737.397176
100737.39345
100737.390374
100737.388
100737.386356
100737.385386
100737.384953
100737.384908
100737.385121
100737.385511
100737.386028
100737.386641
100737.387326
100737.388071
100737.38889
100737.389837
100737.390971
100737.391993
100736.433171
100736.428913
100736.422014
100736.411512
100736.397908
100736.381749
100736.363617
100736.34406
100736.323549
100736.302433
100736.280938
100736.259122
100736.237036
100736.2147
100736.191575
100736.165753
100736.133542
100736.091643
100736.040337
100735.985675
100735.932958
100735.881449
100735.828365
100735.771777
100735.71099
100735.646039
100735.577272
100735.505134
100735.430091
100735.352607
100735.273144
100735.192163
100735.110123
100735.027475
100734.944653
100734.862066
100734.780094
100734.699073
100734.6193
100734.541025
100734.464452
100734.389738
100734.316996
100734.246297
100734.17767
100734.11111
100734.046541
100733.98385
100733.922929
100733.863646
100733.80585
100733.749375
100733.694035
100733.639636
100733.585971
100733.532831
100733.479998
100733.427259
100733.374401
100733.321222
100733.267527
100733.21314
100733.157897
100733.101663
100733.04432
100732.985784
100732.925994
100732.864928
100732.80259
100732.739019
100732.674281
100732.608472
100732.541703
100732.474099
100732.405773
100732.336819
100732.267256
100732.196989
100732.125676
100732.05256
100731.976233
100731.894928
100731.808151
100731.716817
100731.622469
100731.526849
100731.431078
100731.335797
100731.241343
100731.14788
100731.055468
100730.964119
100730.873817
100730.784547
100730.6963
100730.609094
100730.522971
100730.43801
100730.354327
100730.272079
100730.191457
100730.112695
100730.03605
100729.961813
100729.89029
100729.821806
100729.75669
100729.695273
100729.637878
100729.584821
100729.536397
100729.492783
100729.454046
100729.42027
100729.391494
100729.367671
100729.348632
100729.334071
100729.323518
100729.316351
100729.311821
100729.309153
100729.307641
100729.306755
100729.306188
100729.305852
100729.30578
100729.305997
100729.306448
100729.307042
100729.307706
100729.308411
100729.309155
100729.309945
100729.310778
100729.311644
100729.312539
100729.31352
100729.314723
100729.315722
100728.358136
100728.353738
100728.346523
100728.335665
100728.321703
100728.305256
100728.286989
100728.267549
100728.247528
100728.22742
100728.207428
100728.187663
100728.168095
100728.147856
100728.125053
100728.098365
100728.065142
100728.023784
100727.976068
100727.925413
100727.874736
100727.824047
100727.77177
100727.716396
100727.657073
100727.593556
100727.525984
100727.454685
100727.38008
100727.302619
100727.222771
100727.141009
100727.057802
100726.97361
100726.888879
100726.804025
100726.719439
100726.635471
100726.552433
100726.470594
100726.390183
100726.311384
100726.23434
100726.159155
100726.0859
100726.01461
100725.945238
100725.87771
100725.811966
100725.747926
100725.685489
100725.624543
100725.564956
100725.506592
100725.449301
100725.392932
100725.337327
100725.282333
100725.227796
100725.173571
100725.11952
100725.06552
100725.011455
100724.957234
100724.902775
100724.848022
100724.79293
100724.737476
100724.681646
100724.625441
100724.568857
100724.511891
100724.454509
100724.396651
100724.338188
100724.278913
100724.21849
100724.156419
100724.091963
100724.024095
100723.951497
100723.872795
100723.787555
100723.696627
100723.601041
100723.501948
100723.400635
100723.298164
100723.195364
100723.092884
100722.99122
100722.890753
100722.791765
100722.694472
100722.599033
100722.505577
100722.414205
100722.32502
100722.23812
100722.153617
100722.071637
100721.992327
100721.91585
100721.84239
100721.772145
100721.705326
100721.642152
100721.582844
100721.527619
100721.476687
100721.430236
100721.388443
100721.351311
100721.318788
100721.290897
100721.267584
100721.248704
100721.234017
100721.223168
100721.2157
100721.211075
100721.20873
100721.20814
100721.208877
100721.210597
100721.212989
100721.215739
100721.21857
100721.221243
100721.223585
100721.225545
100721.227181
100721.22859
100721.229859
100721.231037
100721.232138
100721.233167
100721.234243
100721.235476
100721.23631
100720.287761
100720.283216
100720.275555
100720.264141
100720.249558
100720.23251
100720.213783
100720.194161
100720.174424
100720.155264
100720.136813
100720.118475
100720.099691
100720.079822
100720.056808
100720.029448
100719.997037
100719.958118
100719.913795
100719.866142
100719.816688
100719.76575
100719.712674
100719.656552
100719.596725
100719.532908
100719.465126
100719.393602
100719.318676
100719.240746
100719.160246
100719.077626
100718.993338
100718.907829
100718.821536
100718.734869
100718.648219
100718.561938
100718.476348
100718.391731
100718.308333
100718.226362
100718.14599
100718.067351
100717.990548
100717.915652
100717.842652
100717.771504
100717.702181
100717.634646
100717.568842
100717.504697
100717.442124
100717.381025
100717.321292
100717.262812
100717.205463
100717.149127
100717.093682
100717.03901
100716.984997
100716.931538
100716.878532
100716.825891
100716.773533
100716.72139
100716.669393
100716.617488
100716.565612
100716.513703
100716.461678
100716.409438
100716.356838
100716.303686
100716.249713
100716.194563
100716.137758
100716.078686
100716.016566
100715.95047
100715.879374
100715.802379
100715.718974
100715.629665
100715.535498
100715.437276
100715.335871
100715.23227
100715.127394
100715.022046
100714.916904
100714.812543
100714.709429
100714.607951
100714.508417
100714.411082
100714.316151
100714.223802
100714.134186
100714.047446
100713.963717
100713.883138
100713.805848
100713.731995
100713.661727
100713.595203
100713.532576
100713.474004
100713.419633
100713.369603
100713.324029
100713.283074
100713.246712
100713.214804
100713.187339
100713.164249
100713.1454
100713.130584
100713.119518
100713.111845
100713.107154
100713.105014
100713.105007
100713.106771
100713.110001
100713.114412
100713.119611
100713.125025
100713.130051
100713.134268
100713.137562
100713.140088
100713.142091
100713.143769
100713.145234
100713.146538
100713.147716
100713.14891
100713.150079
100713.150675
100712.22367
100712.218861
100712.210568
100712.198333
100712.182828
100712.164888
100712.145505
100712.125804
100712.106922
100712.088688
100712.071229
100712.053867
100712.035293
100712.015091
100711.991877
100711.963815
100711.930709
100711.892438
100711.84945
100711.802799
100711.753419
100711.701603
100711.647079
100711.58935
100711.528002
100711.462834
100711.393869
100711.32129
100711.24539
100711.166527
100711.085098
100711.001519
100710.916215
100710.829608
100710.742112
100710.654121
100710.566012
100710.478129
100710.390793
100710.304288
100710.218867
100710.13475
100710.052126
100709.971149
100709.891943
100709.814605
100709.739152
100709.665563
100709.593824
100709.523929
100709.455851
100709.389549
100709.324966
100709.262032
100709.200664
100709.140775
100709.082265
100709.025033
100708.968973
100708.913981
100708.859947
100708.806771
100708.754349
100708.702584
100708.65138
100708.600645
100708.550282
100708.500198
100708.450286
100708.40043
100708.350488
100708.300293
100708.249633
100708.198247
100708.145801
100708.09189
100708.036007
100707.977551
100707.915819
100707.85004
100707.77944
100707.703383
100707.621531
100707.533985
100707.441381
100707.344783
100707.244967
100707.142546
100707.038322
100706.933078
100706.827537
100706.72233
100706.618002
100706.515031
100706.413814
100706.314695
100706.217959
100706.123857
100706.032596
100705.944368
100705.85934
100705.777669
100705.699503
100705.624986
100705.554252
100705.487439
100705.424672
100705.366076
100705.311762
100705.261831
100705.216366
100705.175449
100705.139112
100705.107236
100705.079709
100705.056468
100705.037392
100705.022304
100705.010971
100705.003108
100704.998385
100704.996453
100704.99696
100704.999575
100705.00399
100705.0099
100705.01693
100705.024486
100705.031711
100705.0378
100705.042403
100705.045716
100705.048178
100705.050145
100705.051815
100705.053276
100705.054597
100705.055889
100705.056937
100705.057301
100704.168048
100704.162849
100704.153685
100704.140331
100704.123654
100704.104837
100704.085269
100704.066297
100704.0492
100704.032288
100704.015359
100703.998673
100703.979878
100703.957733
100703.931949
100703.901974
100703.867348
100703.828002
100703.784286
100703.736811
100703.686138
100703.6325
100703.575799
100703.515779
100703.452215
100703.385007
100703.31421
100703.240004
100703.162662
100703.082512
100702.999921
100702.915273
100702.828963
100702.741381
100702.652914
100702.56393
100702.474785
100702.385806
100702.297303
100702.20955
100702.1228
100702.037274
100701.953166
100701.870638
100701.78983
100701.710848
100701.633745
100701.558509
100701.485122
100701.413598
100701.343934
100701.276108
100701.210085
100701.145812
100701.083225
100701.022251
100700.962802
100700.904791
100700.848116
100700.792678
100700.738368
100700.685083
100700.632709
100700.58114
100700.53026
100700.479957
100700.430108
100700.380589
100700.331258
100700.281962
100700.232519
100700.182725
100700.132329
100700.081042
100700.028512
100699.974328
100699.918008
100699.859006
100699.796715
100699.730515
100699.659814
100699.584158
100699.503312
100699.41734
100699.326635
100699.23165
100699.133554
100699.033024
100698.930394
100698.826578
100698.722129
100698.617676
100698.513795
100698.410984
100698.309681
100698.210276
100698.113104
100698.018462
100697.926605
100697.83776
100697.752127
100697.669889
100697.591207
100697.516237
100697.445115
100697.377972
100697.314927
100697.256089
100697.201552
100697.151401
100697.105697
100697.06449
100697.027859
100696.995696
100696.967832
100696.944204
100696.924704
100696.90918
100696.897435
100696.889235
100696.884309
100696.882367
100696.883109
100696.886239
100696.891459
100696.898457
100696.906857
100696.916096
100696.925262
100696.933249
100696.939313
100696.943497
100696.946405
100696.948617
100696.950451
100696.952041
100696.953491
100696.954856
100696.955774
100696.955947
100696.123114
100696.117415
100696.107191
100696.092621
100696.075001
100696.056023
100696.038501
100696.021912
100696.005401
100695.990064
100695.973463
100695.954513
100695.932813
100695.907759
100695.878863
100695.845776
100695.808293
100695.766403
100695.720352
100695.670539
100695.617333
100695.560917
100695.50129
100695.438343
100695.371985
100695.302199
100695.22908
100695.152811
100695.073654
100694.991912
100694.907927
100694.822049
100694.734642
100694.646062
100694.556667
100694.466794
100694.376774
100694.286911
100694.197497
100694.108793
100694.021043
100693.934461
100693.849241
100693.765548
100693.683525
100693.603288
100693.524927
100693.448434
100693.373769
100693.300964
100693.23003
100693.16096
100693.093732
100693.028307
100692.964632
100692.902645
100692.842267
100692.783415
100692.725992
100692.6699
100692.615028
100692.561266
100692.508494
100692.456594
100692.405435
100692.354887
100692.304807
100692.255048
100692.205444
100692.155818
100692.105964
100692.055656
100692.004629
100691.952583
100691.89917
100691.844
100691.786627
100691.726571
100691.663322
100691.596377
100691.525285
100691.449713
100691.369499
100691.284705
100691.195589
100691.102598
100691.006421
100690.907599
100690.806979
100690.70507
100690.602263
100690.499366
100690.396797
100690.295064
100690.194626
100690.095884
100689.999198
100689.90489
100689.813245
100689.724516
100689.638925
100689.556676
100689.477946
100689.402901
100689.331684
100689.264429
100689.201254
100689.142262
100689.087542
100689.037168
100688.991192
100688.949651
100688.912665
100688.880145
100688.851873
100688.82779
100688.807795
100688.791756
100688.7795
100688.770827
100688.765509
100688.7633
100688.76394
100688.767165
100688.772702
100688.780256
100688.789472
100688.799849
100688.810547
100688.820317
100688.828024
100688.833348
100688.836872
100688.839403
100688.841437
100688.843179
100688.844769
100688.846207
100688.847021
100688.847044
100688.091147
100688.084888
100688.073578
100688.058133
100688.041271
100688.024963
100688.0092
100687.994298
100687.978659
100687.961604
100687.942427
100687.920439
100687.895117
100687.866106
100687.833127
100687.79597
100687.754549
100687.708924
100687.659305
100687.605982
100687.549227
100687.489207
100687.425978
100687.359532
100687.28987
100687.217037
100687.141162
100687.06243
100686.981094
100686.897433
100686.811761
100686.724396
100686.635672
100686.545908
100686.455432
100686.36455
100686.273566
100686.182759
100686.092402
100686.002737
100685.913999
100685.826392
100685.740105
100685.655301
100685.572125
100685.490695
100685.411154
100685.333485
100685.257623
100685.183606
100685.111458
100685.041182
100684.972766
100684.906183
100684.841387
100684.778323
100684.716919
100684.657095
100684.598757
100684.541807
100684.48613
100684.431614
100684.37813
100684.325551
100684.273733
100684.222535
100684.171797
100684.121356
100684.071029
100684.020623
100683.969918
100683.918679
100683.866633
100683.813486
100683.758899
100683.70251
100683.643916
100683.582698
100683.518427
100683.450698
100683.379161
100683.30357
100683.223816
100683.139959
100683.05222
100682.960976
100682.866691
100682.769943
100682.67135
100682.571328
100682.470615
100682.369588
100682.268624
100682.168484
100682.069449
100681.971925
100681.876298
100681.782902
100681.692034
100681.60396
100681.518919
100681.437129
100681.358778
100681.284039
100681.213065
100681.145992
100681.082937
100681.024005
100680.96928
100680.918832
100680.872707
100680.830933
100680.79366
100680.760841
100680.732216
100680.707721
100680.687261
100680.670713
100680.657923
100680.648717
100680.642892
100680.640234
100680.640513
100680.643492
100680.64892
100680.656524
100680.665981
100680.676858
100680.688462
100680.699624
100680.708942
100680.715649
100680.720054
100680.723072
100680.725402
100680.727359
100680.729128
100680.730659
100680.731414
100680.731324
100680.074364
100680.067506
100680.0556
100680.041162
100680.0265
100680.012296
100679.997741
100679.981935
100679.964551
100679.944833
100679.922165
100679.896111
100679.866343
100679.832617
100679.79478
100679.752755
100679.706556
100679.656296
100679.602182
100679.544459
100679.483361
100679.419056
100679.351647
100679.281191
100679.207757
100679.131436
100679.052378
100678.970771
100678.886854
100678.800885
100678.71315
100678.623935
100678.533542
100678.442259
100678.350381
100678.258186
100678.16595
100678.073929
100677.982376
100677.891518
100677.801574
100677.712741
100677.625201
100677.539112
100677.454621
100677.371844
100677.290985
100677.212021
100677.134852
100677.059521
100676.986058
100676.914473
100676.844765
100676.776912
100676.710877
100676.646612
100676.584047
100676.523109
100676.463702
100676.405729
100676.349076
100676.293623
100676.239237
100676.185782
100676.133108
100676.08106
100676.029468
100675.978158
100675.926933
100675.875591
100675.823903
100675.771628
100675.718494
100675.664212
100675.608463
100675.550908
100675.491184
100675.428929
100675.363778
100675.295404
100675.223529
100675.147973
100675.068662
100674.985661
100674.89916
100674.809471
100674.716999
100674.622216
100674.525607
100674.427741
100674.329195
100674.230124
100674.131295
100674.033111
100673.935629
100673.839614
100673.745422
100673.653315
100673.563605
100673.476575
100673.392466
100673.311504
100673.233884
100673.159786
100673.089365
100673.022761
100672.960093
100672.901465
100672.846958
100672.796639
100672.750552
100672.70872
100672.671259
100672.638214
100672.609361
100672.584561
100672.563721
100672.546728
100672.533443
100672.523704
100672.517331
100672.51413
100672.513891
100672.516396
100672.521414
100672.528688
100672.537924
100672.548743
100672.560592
100672.572525
100672.583132
100672.591252
100672.596756
100672.600442
100672.603177
100672.60542
100672.607412
100672.609065
100672.609805
100672.609632
100672.074618
100672.067376
100672.055746
100672.042842
100672.029604
100672.015526
100671.99968
100671.981966
100671.961665
100671.938261
100671.911329
100671.880545
100671.845699
100671.806661
100671.763386
100671.715894
100671.664285
100671.608719
100671.54942
100671.486625
100671.420564
100671.351416
100671.279325
100671.204397
100671.126747
100671.046498
100670.963816
100670.878888
100670.79194
100670.703208
100670.612951
100670.521427
100670.428906
100670.335647
100670.241918
100670.147967
100670.054048
100669.960396
100669.867244
100669.774804
100669.683286
100669.592873
100669.503745
100669.416058
100669.329954
100669.245551
100669.163066
100669.082534
100669.003856
100668.927015
100668.852049
100668.778979
100668.707809
100668.638526
100668.571101
100668.505488
100668.441625
100668.379439
100668.318839
100668.259726
100668.201983
100668.145491
100668.090109
100668.035697
100667.982096
100667.929142
100667.876658
100667.824458
100667.772337
100667.720085
100667.667468
100667.61424
100667.560134
100667.504868
100667.448138
100667.38963
100667.329018
100667.265982
100667.200213
100667.13144
100667.059443
100666.984086
100666.905322
100666.823218
100666.737941
100666.649764
100666.559032
100666.466154
100666.371578
100666.275775
100666.179193
100666.082309
100665.985721
100665.88959
100665.79427
100665.700296
100665.607785
100665.517127
100665.42887
100665.343192
100665.260308
100665.180466
100665.103871
100665.030696
100664.961101
100664.895228
100664.833195
100664.775104
100664.721036
100664.671056
100664.625204
100664.583508
100664.545972
100664.512796
100664.483866
100664.458886
100664.437775
100664.420427
100664.406712
100664.396481
100664.389566
100664.385787
100664.38495
100664.386849
100664.391265
100664.397958
100664.406651
100664.417009
100664.428578
100664.440644
100664.452013
100664.461332
100664.468001
100664.472489
100664.475713
100664.478289
100664.480528
100664.482323
100664.483083
100664.482848
100664.092673
100664.085092
100664.073722
100664.061084
100664.046996
100664.031033
100664.012994
100663.99218
100663.968104
100663.940339
100663.908563
100663.872549
100663.832173
100663.787393
100663.738253
100663.684852
100663.62736
100663.565987
100663.500982
100663.432597
100663.361074
100663.286613
100663.209392
100663.129555
100663.047252
100662.962628
100662.87586
100662.787129
100662.696652
100662.604642
100662.511337
100662.416966
100662.321776
100662.225997
100662.129872
100662.033627
100661.937495
100661.841692
100661.746435
100661.651925
100661.558359
100661.465916
100661.374771
100661.285076
100661.196978
100661.110604
100661.026083
100660.943609
100660.86316
100660.784554
100660.707847
100660.633071
100660.560236
100660.489339
100660.420354
100660.353243
100660.287949
100660.2244
100660.162508
100660.102173
100660.04328
100659.985703
100659.929301
100659.873926
100659.819413
100659.765593
100659.712276
100659.659271
100659.606366
100659.553342
100659.499962
100659.445978
100659.391125
100659.335129
100659.277701
100659.218548
100659.157372
100659.093891
100659.027838
100658.958985
100658.887155
100658.812243
100658.734223
100658.653162
100658.569211
100658.48261
100658.393663
100658.302735
100658.210222
100658.116547
100658.022142
100657.927449
100657.832878
100657.738832
100657.645785
100657.554051
100657.463659
100657.375137
100657.288818
100657.204683
100657.123169
100657.044714
100656.969408
100656.897402
100656.828873
100656.763968
100656.702798
100656.64546
100656.592037
100656.542587
100656.497146
100656.455733
100656.418333
100656.385204
100656.356301
100656.331248
100656.309969
100656.292359
100656.278291
100656.267625
100656.2602
100656.255847
100656.254381
100656.255607
100656.259312
100656.265267
100656.273212
100656.282842
100656.293774
100656.305468
100656.317025
100656.327152
100656.334884
100656.340234
100656.34399
100656.346911
100656.349394
100656.351332
100656.352129
100656.351842
100656.127078
100656.119028
100656.106385
100656.091739
100656.075446
100656.056743
100656.035344
100656.010637
100655.982162
100655.949544
100655.912522
100655.870927
100655.824702
100655.773875
100655.718556
100655.658916
100655.595183
100655.527615
100655.456495
100655.382099
100655.304692
100655.224501
100655.141733
100655.056563
100654.969166
100654.879704
100654.78836
100654.695313
100654.600766
100654.504917
100654.407984
100654.310173
100654.211708
100654.112799
100654.013667
100653.914519
100653.815572
100653.717026
100653.619086
100653.521942
100653.425785
100653.330786
100653.237119
100653.144934
100653.054379
100652.965579
100652.878656
100652.793919
100652.711327
100652.630636
100652.551904
100652.475164
100652.400435
100652.327719
100652.256996
100652.188234
100652.121379
100652.056363
100651.9931
100651.93149
100651.871417
100651.812752
100651.755351
100651.699059
100651.643708
100651.589118
100651.535096
100651.48144
100651.427932
100651.374347
100651.320443
100651.265971
100651.210667
100651.154265
100651.096486
100651.037055
100650.9757
100650.912165
100650.846215
100650.777658
100650.706345
100650.632196
100650.555197
100650.475414
100650.392987
100650.30813
100650.221116
100650.132269
100650.041949
100649.950543
100649.858448
100649.766066
100649.673794
100649.582023
100649.491119
100649.401416
100649.313248
100649.227054
100649.14296
100649.060966
100648.981555
100648.904974
100648.831165
100648.760467
100648.693224
100648.629524
100648.56943
100648.513051
100648.460471
100648.411745
100648.3669
100648.325953
100648.288886
100648.255914
100648.227093
100648.202086
100648.18075
100648.162976
100648.148639
100648.137605
100648.129719
100648.124819
100648.122726
100648.123251
100648.12619
100648.131322
100648.138398
100648.147138
100648.157208
100648.168185
100648.179431
100648.189896
100648.198443
100648.204636
100648.208943
100648.21219
100648.214888
100648.216948
100648.217782
100648.217446
100648.174616
100648.166056
100648.149409
100648.131646
100648.112009
100648.089867
100648.064512
100648.035433
100648.002187
100647.964421
100647.921906
100647.874511
100647.82223
100647.76514
100647.703414
100647.63728
100647.567022
100647.492942
100647.415365
100647.334595
100647.250927
100647.164614
100647.075893
100646.984962
100646.892018
100646.797234
100646.7008
100646.602889
100646.503698
100646.403408
100646.302223
100646.200331
100646.09794
100645.995239
100645.892436
100645.789723
100645.687304
100645.585367
100645.48411
100645.383714
100645.284366
100645.186235
100645.089492
100644.994287
100644.900769
100644.809065
100644.71928
100644.631829
100644.546698
100644.463589
100644.382527
100644.303548
100644.226679
100644.151926
100644.079279
100644.008708
100643.940166
100643.873586
100643.808884
100643.745962
100643.6847
100643.62497
100643.566622
100643.509498
100643.453421
100643.398207
100643.343653
100643.289551
100643.235674
100643.181792
100643.127658
100643.073022
100643.017619
100642.961188
100642.903459
100642.844171
100642.78307
100642.719922
100642.654516
100642.586683
100642.516299
100642.443297
100642.367672
100642.289489
100642.208876
100642.126027
100642.041186
100641.954651
100641.866745
100641.777825
100641.688257
100641.598416
100641.508673
100641.419396
100641.330934
100641.243624
100641.157791
100641.073732
100640.991701
100640.911967
100640.834887
100640.760497
100640.688796
100640.620118
100640.554678
100640.492438
100640.433564
100640.378298
100640.326774
100640.278967
100640.2349
100640.194605
100640.15808
100640.125299
100640.09656
100640.071768
100640.050492
100640.032653
100640.018134
100640.006804
100639.998515
100639.993108
100639.99041
100639.990238
100639.992393
100639.996662
100640.002807
100640.010568
100640.019647
100640.029697
100640.040262
100640.050595
100640.059613
100640.066536
100640.0714
100640.074944
100640.077807
100640.079957
100640.080811
100640.080422
100640.230063
100640.221114
100640.199843
100640.178104
100640.154588
100640.128302
100640.098601
100640.064883
100640.026681
100639.98363
100639.935505
100639.882198
100639.823734
100639.760237
100639.691931
100639.619097
100639.542072
100639.461205
100639.376862
100639.289382
100639.199093
100639.106274
100639.011189
100638.914058
100638.815094
100638.71448
100638.612412
100638.509059
100638.404612
100638.299243
100638.193143
100638.086488
100637.979472
100637.872273
100637.765088
100637.658098
100637.551501
100637.445475
100637.340217
100637.235901
100637.132716
100637.030828
100636.930411
100636.831619
100636.734607
100636.639507
100636.546455
100636.455622
100636.36734
100636.281518
100636.197819
100636.116314
100636.037044
100635.960024
100635.885254
100635.812709
100635.742347
100635.674105
100635.607903
100635.543641
100635.4812
100635.420448
100635.361231
100635.303387
100635.246731
100635.191073
100635.136202
100635.081902
100635.027938
100634.974074
100634.920056
100634.865631
100634.810535
100634.754506
100634.697283
100634.638613
100634.578255
100634.51599
100634.451625
100634.385009
100634.316029
100634.244631
100634.170812
100634.094635
100634.016216
100633.935731
100633.853403
100633.7695
100633.68432
100633.598191
100633.511449
100633.424446
100633.337531
100633.251049
100633.165334
100633.080711
100632.997483
100632.915943
100632.836353
100632.758972
100632.684024
100632.611697
100632.542183
100632.475748
100632.412412
100632.352159
100632.29513
100632.241538
100632.191378
100632.144633
100632.101426
100632.061929
100632.026056
100631.993719
100631.965269
100631.940702
100631.919557
100631.901732
100631.887104
100631.875544
100631.866908
100631.86104
100631.857771
100631.856924
100631.858303
100631.861702
100631.866896
100631.873639
100631.881663
100631.890672
100631.900322
100631.91012
100631.919212
100631.926655
100631.932058
100631.935881
100631.938855
100631.941049
100631.941897
100631.941447
100632.286858
100632.279726
100632.254675
100632.228472
100632.200532
100632.169903
100632.135744
100632.097362
100632.054215
100632.005896
100631.952169
100631.89293
100631.828233
100631.758238
100631.68322
100631.603509
100631.519499
100631.431587
100631.340184
100631.245665
100631.148393
100631.048675
100630.946801
100630.843006
100630.737522
100630.630541
100630.52226
100630.412851
100630.3025
100630.191371
100630.07965
100629.967503
100629.855119
100629.742667
100629.630339
100629.518311
100629.406776
100629.295911
100629.185911
100629.076952
100628.969222
100628.862892
100628.758139
100628.655121
100628.553998
100628.454909
100628.357995
100628.263372
100628.171555
100628.082498
100627.995754
100627.911371
100627.829391
100627.74984
100627.672721
100627.598019
100627.525695
100627.455691
100627.387927
100627.322304
100627.258703
100627.196988
100627.137003
100627.078578
100627.021523
100626.965638
100626.910707
100626.856502
100626.802783
100626.749302
100626.695802
100626.642023
100626.587697
100626.532565
100626.476365
100626.418851
100626.359788
100626.298969
100626.236212
100626.171373
100626.10435
100626.035092
100625.963596
100625.88992
100625.814167
100625.736498
100625.657114
100625.576259
100625.494207
100625.411257
100625.327724
100625.243934
100625.160213
100625.076888
100624.994276
100624.912686
100624.83241
100624.753729
100624.676898
100624.602162
100624.52974
100624.459831
100624.39262
100624.32827
100624.266905
100624.208645
100624.153651
100624.101992
100624.053585
100624.008415
100623.966656
100623.928331
100623.893309
100623.861616
100623.83341
100623.809011
100623.78815
100623.770435
100623.755779
100623.744065
100623.735146
100623.728869
100623.725074
100623.723586
100623.724215
100623.726763
100623.731013
100623.736736
100623.743686
100623.751604
100623.760215
100623.769188
100623.777958
100623.785627
100623.791491