/*--------------------------------*- C++ -*----------------------------------*\
| =========                 |                                                 |
| \\      /  F ield         | OpenFOAM: The Open Source CFD Toolbox           |
|  \\    /   O peration     | Version:  2206                                  |
|   \\  /    A nd           | Website:  www.openfoam.com                      |
|    \\/     M anipulation  |                                                 |
\*---------------------------------------------------------------------------*/
FoamFile
{
    version     2.0;
    format      ascii;
    arch        "LSB;label=64;scalar=64";
    class       surfaceScalarField;
    location    "1.8/water";
    object      phi;
}
// * * * * * * * * * * * * * * * * * * * * * * * * * * * * * * * * * * * * * //

dimensions      [0 3 -1 0 0 0 0];

oriented        oriented;

internalField   nonuniform List<scalar> 
46280
(
1.59663209515e-09
-1.5966247973e-09
3.15910716696e-09
-1.56248628777e-09
4.64256763307e-09
-1.48344205725e-09
5.98838010554e-09
-1.34582600338e-09
7.16220684467e-09
-1.17380450819e-09
8.14639207998e-09
-9.84200523751e-10
8.93554718392e-09
-7.89124061877e-10
9.53383616605e-09
-5.98305026585e-10
9.95363134893e-09
-4.19760455588e-10
1.0212482892e-08
-2.58869852699e-10
1.03281553089e-08
-1.15637366426e-10
1.03060900568e-08
2.20447528352e-11
1.01249385102e-08
1.81186037069e-10
9.72288983659e-09
4.02027183636e-10
8.97355393209e-09
7.49370622519e-10
7.6929679581e-09
1.28056495525e-09
5.79070834227e-09
1.90229540256e-09
3.4831007527e-09
2.30758795422e-09
1.06035248319e-09
2.42278542073e-09
-1.41326381865e-09
2.47359818647e-09
-4.01051052402e-09
2.59728522979e-09
-6.78299276275e-09
2.77246546949e-09
-9.71282093055e-09
2.92986796164e-09
-1.27453863595e-08
3.03254978376e-09
-1.58214588327e-08
3.07611329215e-09
-1.88910761232e-08
3.06960264893e-09
-2.19153920625e-08
3.02435752466e-09
-2.48651337687e-08
2.94972800082e-09
-2.77175658548e-08
2.85247419103e-09
-3.04548578137e-08
2.73727921149e-09
-3.30623517245e-08
2.60753630129e-09
-3.55281950117e-08
2.46583155976e-09
-3.78424897924e-08
2.31433722227e-09
-3.99974269034e-08
2.15492652392e-09
-4.19867039366e-08
1.98931928639e-09
-4.38057658539e-08
1.81905259919e-09
-4.54512775354e-08
1.64555349147e-09
-4.69213631255e-08
1.47007768325e-09
-4.82150942443e-08
1.29377221533e-09
-4.93327157606e-08
1.11761513913e-09
-5.02751575261e-08
9.42481864901e-10
-5.10442527303e-08
7.69090462642e-10
-5.16422839007e-08
5.98069987046e-10
-5.20721950345e-08
4.29908096765e-10
-5.23371751731e-08
2.65017389802e-10
-5.24408653965e-08
1.03688909075e-10
-5.23870770297e-08
-5.37529638586e-11
-5.21799753786e-08
-2.07101301101e-10
-5.18237902496e-08
-3.56151847515e-10
-5.13230561303e-08
-5.00732228532e-10
-5.06824442137e-08
-6.40581000269e-10
-4.99069964026e-08
-7.75444546726e-10
-4.90019260653e-08
-9.05041983603e-10
-4.79728090348e-08
-1.02911258975e-09
-4.68254167876e-08
-1.1473666055e-09
-4.55658853787e-08
-1.25952600121e-09
-4.42005828986e-08
-1.36527965103e-09
-4.2736253083e-08
-1.46432366052e-09
-4.11799104205e-08
-1.55632270808e-09
-3.95389533957e-08
-1.64095033444e-09
-3.7821080074e-08
-1.71785627129e-09
-3.60343664211e-08
-1.78670664252e-09
-3.41871952402e-08
-1.84715705095e-09
-3.22882952778e-08
-1.89889284741e-09
-3.03466761112e-08
-1.941607972e-09
-2.83716233731e-08
-1.97504576397e-09
-2.63726312668e-08
-1.99898388121e-09
-2.43593482492e-08
-2.0132764751e-09
-2.234149721e-08
-2.01784583936e-09
-2.03287643523e-08
-2.01272711631e-09
-1.8330694531e-08
-1.99806772124e-09
-1.63565137636e-08
-1.97417627266e-09
-1.4414983364e-08
-1.9415314578e-09
-1.25141428149e-08
-1.90083781059e-09
-1.06610989111e-08
-1.85304812171e-09
-8.8616611619e-09
-1.79943735736e-09
-7.11999994137e-09
-1.74166852892e-09
-5.43804294581e-09
-1.68195966339e-09
-3.81470010007e-09
-1.62335310639e-09
-2.24444943782e-09
-1.57025709975e-09
-7.15314930898e-10
-1.52914748037e-09
7.92772252272e-10
-1.50809778729e-09
2.30579003763e-09
-1.5130330845e-09
3.84791164976e-09
-1.54213628851e-09
5.43580769738e-09
-1.58791309897e-09
7.07904600185e-09
-1.6432564651e-09
8.78157889196e-09
-1.70255098736e-09
1.05430822091e-08
-1.76152411208e-09
1.23598763491e-08
-1.81681263352e-09
1.42255764084e-08
-1.86572263975e-09
1.61316030965e-08
-1.90604510969e-09
1.8067566801e-08
-1.93598738236e-09
2.00216575789e-08
-1.9541088663e-09
2.1980947254e-08
-1.95931395861e-09
2.39317421317e-08
-1.95081253894e-09
2.58598284046e-08
-1.92811085426e-09
2.77507696723e-08
-1.89095852237e-09
2.95900665401e-08
-1.83932157576e-09
3.13633661119e-08
-1.77331650461e-09
3.30565165389e-08
-1.69317519198e-09
3.46556791395e-08
-1.59917932386e-09
3.61472840268e-08
-1.491629698e-09
3.75180586906e-08
-1.37079128974e-09
3.87549086749e-08
-1.23687486585e-09
3.98448917529e-08
-1.08999970235e-09
4.07750621392e-08
-9.30195369811e-10
4.15324386099e-08
-7.57393160759e-10
4.21038773102e-08
-5.71463811333e-10
4.24761151294e-08
-3.72254609622e-10
4.26357616395e-08
-1.59671749654e-10
4.25697430732e-08
6.60016731139e-11
4.22654756032e-08
3.04242122463e-10
4.17100644683e-08
5.55394158181e-10
4.08907263516e-08
8.19312713366e-10
3.97958369465e-08
1.09487237627e-09
3.84162963059e-08
1.37951526712e-09
3.67477405335e-08
1.66853872749e-09
3.4793741972e-08
1.95397334667e-09
3.25705062646e-08
2.22321867654e-09
3.01124552785e-08
2.45802607955e-09
2.7477172611e-08
2.63526565829e-09
2.4745987643e-08
2.73116052159e-09
2.20168729378e-08
2.72909769793e-09
1.93892343988e-08
2.62761466829e-09
1.6945766407e-08
2.44345092852e-09
1.47384816622e-08
2.20726152196e-09
1.27842410961e-08
1.95422334445e-09
1.10698937527e-08
1.71432474558e-09
9.56350127432e-09
1.50637488291e-09
8.22652064834e-09
1.33695855919e-09
7.02307323345e-09
1.203429232e-09
5.92440889598e-09
1.09864281387e-09
4.90933325919e-09
1.0150568687e-09
3.96229459199e-09
9.47017761177e-10
3.07103485404e-09
8.91240239386e-10
2.22589683593e-09
8.45118047402e-10
1.42624459759e-09
7.99634138762e-10
7.08190447373e-10
7.1803686012e-10
1.90249406803e-10
5.17923703128e-10
1.90244712529e-10
1.93561308532e-09
-3.53223035483e-09
3.85429143436e-09
-3.48116689088e-09
5.65803935904e-09
-3.28717725113e-09
7.30794009226e-09
-2.9957312432e-09
8.76945059742e-09
-2.63529997295e-09
1.0015542447e-08
-2.23029792405e-09
1.10268923713e-08
-1.80045555682e-09
1.17911122919e-08
-1.36253120921e-09
1.23015504273e-08
-9.30179006498e-10
1.25515096243e-08
-5.08836476365e-10
1.25204222472e-08
-8.4530483617e-11
1.21509785964e-08
3.91479818768e-10
1.13573608049e-08
9.74823148636e-10
1.00328707266e-08
1.72650877966e-09
8.12672200205e-09
2.65553940328e-09
5.78420974877e-09
3.6230699787e-09
3.23979147292e-09
4.4467351821e-09
5.73573426384e-10
4.97380056518e-09
-2.2304112334e-09
5.22679321599e-09
-5.1426553688e-09
5.38583865849e-09
-8.12705874584e-09
5.58171320646e-09
-1.11542815658e-08
5.79968613931e-09
-1.42094394469e-08
5.9850516782e-09
-1.72774151777e-08
6.10052458644e-09
-2.03361460808e-08
6.13487099015e-09
-2.33599435201e-08
6.09340017208e-09
-2.63231792191e-08
5.98762075958e-09
-2.9202819936e-08
5.82936968684e-09
-3.19789821174e-08
5.62866444038e-09
-3.46351224728e-08
5.39342136388e-09
-3.71574582609e-08
5.1299005337e-09
-3.95348159168e-08
4.84319183034e-09
-4.17580769814e-08
4.5376269403e-09
-4.38201477256e-08
4.21700072141e-09
-4.57155265239e-08
3.88472680799e-09
-4.74403468514e-08
3.5438772528e-09
-4.89919960227e-08
3.19723128683e-09
-5.03691749903e-08
2.84726188041e-09
-5.15715397435e-08
2.49616533345e-09
-5.25997652569e-08
2.14584680383e-09
-5.34552123304e-08
1.79795685232e-09
-5.41400009065e-08
1.45388611297e-09
-5.46567129899e-08
1.11480935639e-09
-5.50084829556e-08
7.81686041198e-10
-5.5198747474e-08
4.55308367943e-10
-5.52313605812e-08
1.36310836419e-10
-5.51102834402e-08
-1.74804671333e-10
-5.48397259222e-08
-4.77649275642e-10
-5.44240447649e-08
-7.71808821522e-10
-5.3867885334e-08
-1.05688155676e-09
-5.31759958318e-08
-1.33244777201e-09
-5.23533493373e-08
-1.59808056118e-09
-5.14050445383e-08
-1.85332569039e-09
-5.03364294193e-08
-2.09771704263e-09
-4.91530227583e-08
-2.33075395997e-09
-4.7860622427e-08
-2.55191566495e-09
-4.64652423057e-08
-2.76064237186e-09
-4.49732028493e-08
-2.95635262766e-09
-4.33910801085e-08
-3.13843004367e-09
-4.17257759164e-08
-3.30624437966e-09
-3.99844745082e-08
-3.45914433854e-09
-3.81746886972e-08
-3.5964828083e-09
-3.6304218321e-08
-3.71761621032e-09
-3.43811675674e-08
-3.82193461653e-09
-3.24138979453e-08
-3.9088685654e-09
-3.04110103073e-08
-3.97792526095e-09
-2.8381283157e-08
-4.02870428003e-09
-2.63336109737e-08
-4.06094158642e-09
-2.42769163304e-08
-4.07453612655e-09
-2.22200336735e-08
-4.06960406018e-09
-2.01715805162e-08
-4.04651907236e-09
-1.81397725548e-08
-4.0059802344e-09
-1.61322350106e-08
-3.94906990338e-09
-1.41557310202e-08
-3.87733992345e-09
-1.22158887222e-08
-3.79289416755e-09
-1.03168187941e-08
-3.69850801072e-09
-8.46072512966e-09
-3.59776890121e-09
-6.64739328985e-09
-3.49529539969e-09
-4.8737235822e-09
-3.39703256401e-09
-3.13338591402e-09
-3.31060235479e-09
-1.41726489058e-09
-3.24528124297e-09
2.85111646497e-10
-3.21048578999e-09
1.98403290478e-09
-3.21196976088e-09
3.69075611698e-09
-3.24887454544e-09
5.41689070791e-09
-3.31406521208e-09
7.17101104202e-09
-3.39739473284e-09
8.95813537866e-09
-3.48969424028e-09
1.07796841174e-08
-3.58309283803e-09
1.26339869912e-08
-3.67113515662e-09
1.45167919369e-08
-3.7485488664e-09
1.64217802123e-08
-3.81105326919e-09
1.83409829892e-08
-3.85521215946e-09
2.02651801638e-08
-3.87832585721e-09
2.21842078303e-08
-3.87836396745e-09
2.40872690607e-08
-3.85389337367e-09
2.59631542589e-08
-3.80401852462e-09
2.78004763333e-08
-3.72829996288e-09
2.95878104231e-08
-3.62667817419e-09
3.13138544591e-08
-3.49937970844e-09
3.29674929404e-08
-3.34683620313e-09
3.45378895883e-08
-3.16959501977e-09
3.60144871996e-08
-2.96824988936e-09
3.73870463196e-08
-2.74336942129e-09
3.86455977478e-08
-2.49544897285e-09
3.97804431045e-08
-2.22486411235e-09
4.07820746646e-08
-1.93184975448e-09
4.16411477532e-08
-1.61648539727e-09
4.23483716655e-08
-1.27871072435e-09
4.28944558757e-08
-9.18358089244e-10
4.32700129997e-08
-5.35252055025e-10
4.34653782886e-08
-1.29383000217e-10
4.34712831867e-08
2.98313885996e-10
4.32795510387e-08
7.47106833624e-10
4.28821186444e-08
1.21672166326e-09
4.22714758679e-08
1.70549563623e-09
4.14409253907e-08
2.21004227475e-09
4.03849907208e-08
2.72445388806e-09
3.90997664077e-08
3.23917427672e-09
3.75833020441e-08
3.73966359298e-09
3.58361590065e-08
4.20514594572e-09
3.38633812489e-08
4.6080240708e-09
3.16797710531e-08
4.91474787291e-09
2.93195183122e-08
5.08933121194e-09
2.68455287534e-08
5.10158179482e-09
2.43477196869e-08
4.94124087683e-09
2.19230669825e-08
4.63189224631e-09
1.9646372245e-08
4.23089900032e-09
1.75512198614e-08
3.80945554791e-09
1.56321077692e-08
3.425467744e-09
1.38606325936e-08
3.10841241619e-09
1.22023679898e-08
2.86167429808e-09
1.06268049895e-08
2.67418468556e-09
9.11004975976e-09
2.5317922095e-09
7.63333887311e-09
2.42370798182e-09
6.18071952009e-09
2.34383928633e-09
4.73894473413e-09
2.28687266987e-09
3.30573622491e-09
2.23282421689e-09
1.91894460861e-09
2.10481102252e-09
7.09007585908e-10
1.72784334709e-09
8.99247616488e-10
1.87403092691e-09
-5.40624965166e-09
3.68588959787e-09
-5.29302433731e-09
5.38868281705e-09
-4.9899556311e-09
6.94103653372e-09
-4.54808697914e-09
8.30959781874e-09
-4.00384608587e-09
9.46362249303e-09
-3.38432716867e-09
1.03754943229e-08
-2.71231217199e-09
1.10195162998e-08
-2.00655995787e-09
1.1368452692e-08
-1.2790997687e-09
1.13813014143e-08
-5.21693710381e-10
1.09576500109e-08
3.39136279875e-10
9.97106783679e-09
1.37805313718e-09
8.33885292973e-09
2.60705396761e-09
6.12031978621e-09
3.94503394634e-09
3.49334191226e-09
5.28253464112e-09
6.95542072895e-10
6.4208636491e-09
-2.11925122715e-09
7.26154776614e-09
-4.95309216487e-09
7.8076374663e-09
-7.88103428275e-09
8.15475652796e-09
-1.09027723762e-08
8.4075746719e-09
-1.39516885483e-08
8.63065220468e-09
-1.69809542539e-08
8.8289513861e-09
-1.99713342482e-08
8.97545578023e-09
-2.29157924189e-08
9.04498355882e-09
-2.58075557857e-08
9.02665942884e-09
-2.86362838898e-08
8.92213009739e-09
-3.13885345857e-08
8.73989723339e-09
-3.40498542672e-08
8.49069204409e-09
-3.66061540679e-08
8.18499052242e-09
-3.90448252913e-08
7.83209605107e-09
-4.13549385268e-08
7.44004038299e-09
-4.35275125654e-08
7.01577008323e-09
-4.55552378026e-08
6.56537897318e-09
-4.74325123963e-08
6.09428029205e-09
-4.91550813936e-08
5.60732263554e-09
-5.07200479238e-08
5.10884952985e-09
-5.21255288057e-08
4.60273888488e-09
-5.33706823589e-08
4.09242197081e-09
-5.44553987771e-08
3.58090819255e-09
-5.53803491654e-08
3.0708045147e-09
-5.6146713865e-08
2.56434754958e-09
-5.67562514668e-08
2.06343181804e-09
-5.72110658251e-08
1.56964910015e-09
-5.75136923248e-08
1.08432139399e-09
-5.76669013618e-08
6.08542007482e-10
-5.76737841582e-08
1.43203173013e-10
-5.75375797923e-08
-3.10985407607e-10
-5.72617822294e-08
-7.5343673654e-10
-5.68500003998e-08
-1.18356819854e-09
-5.63060615391e-08
-1.60080991528e-09
-5.56339002785e-08
-2.00458795246e-09
-5.48376569717e-08
-2.39431314552e-09
-5.39215962211e-08
-2.76936690395e-09
-5.28902058293e-08
-3.12909667332e-09
-5.17481346269e-08
-3.47280730946e-09
-5.05002789477e-08
-3.79976071824e-09
-4.91517328315e-08
-4.10917243056e-09
-4.7707858663e-08
-4.40021647136e-09
-4.61742464426e-08
-4.67202808677e-09
-4.45567663926e-08
-4.92371455527e-09
-4.28615337104e-08
-5.15436478966e-09
-4.10949403126e-08
-5.36306692778e-09
-3.92636203662e-08
-5.54892592962e-09
-3.73744571073e-08
-5.71108933578e-09
-3.54345429079e-08
-5.84877460764e-09
-3.34511554503e-08
-5.96130508552e-09
-3.14317042688e-08
-6.04814946156e-09
-2.93836687629e-08
-6.10897057e-09
-2.731452119e-08
-6.14367997928e-09
-2.52316172002e-08
-6.15250290519e-09
-2.3142083325e-08
-6.13605166115e-09
-2.10526494673e-08
-6.09541065071e-09
-1.89694881955e-08
-6.0322324917e-09
-1.68979808564e-08
-5.94884591396e-09
-1.48425032596e-08
-5.84837583989e-09
-1.28061383567e-08
-5.73487412774e-09
-1.0790451827e-08
-5.61346240605e-09
-8.79527530085e-09
-5.49047624751e-09
-6.81874419607e-09
-5.37357363757e-09
-4.85769693074e-09
-5.27165751903e-09
-2.90873913191e-09
-5.19425194202e-09
-9.69477430148e-10
-5.14975910317e-09
9.60672031894e-10
-5.14213471649e-09
2.88204740024e-09
-5.17026490321e-09
4.79740466049e-09
-5.22943996205e-09
6.71071073889e-09
-5.31071848716e-09
8.62449461905e-09
-5.40349691247e-09
1.05396755196e-08
-5.49829330266e-09
1.2455244345e-08
-5.58672345201e-09
1.43684729408e-08
-5.66179820101e-09
1.6275133805e-08
-5.71773382198e-09
1.81697692733e-08
-5.74986901257e-09
2.00459762719e-08
-5.75455248568e-09
2.18966325137e-08
-5.72904189689e-09
2.37141277125e-08
-5.67140801674e-09
2.54905233529e-08
-5.58043597066e-09
2.72177233933e-08
-5.45551924042e-09
2.8887573053e-08
-5.29654967953e-09
3.04919790473e-08
-5.10380477521e-09
3.20229607514e-08
-4.87783978964e-09
3.34727323828e-08
-4.61938563257e-09
3.48337196382e-08
-4.32925909633e-09
3.60986151024e-08
-4.00828385674e-09
3.72603717156e-08
-3.65722765852e-09
3.8312241683e-08
-3.27675311284e-09
3.92477573071e-08
-2.86738761699e-09
4.00607634442e-08
-2.42951068032e-09
4.07453973821e-08
-1.96336709705e-09
4.12961310767e-08
-1.46911106345e-09
4.17077575712e-08
-9.46901180571e-10
4.19754506393e-08
-3.97095474165e-10
4.20943514789e-08
1.79390242953e-10
4.20605417765e-08
7.80897036636e-10
4.18709501949e-08
1.40629032281e-09
4.15230507662e-08
2.05337551472e-09
4.10146652858e-08
2.71840478943e-09
4.03437453239e-08
3.39535430017e-09
3.95078130166e-08
4.07508367847e-09
3.85030875051e-08
4.7443696051e-09
3.7323249911e-08
5.38496080757e-09
3.5958366116e-08
5.97288845344e-09
3.43947942979e-08
6.4782972339e-09
3.26180788627e-08
6.86602733515e-09
3.06224250265e-08
7.09721352956e-09
2.84299307301e-08
7.13371595857e-09
2.61095525572e-08
6.95224870743e-09
2.37678551065e-08
6.57257726858e-09
2.1502481457e-08
6.07480783722e-09
1.93594945348e-08
5.56843535992e-09
1.73334827174e-08
5.13440310101e-09
1.5395241919e-08
4.79989548458e-09
1.35147232567e-08
4.55468245448e-09
1.16694634942e-08
4.37703203974e-09
9.84385693505e-09
4.24929386634e-09
8.02622767138e-09
4.16144836434e-09
6.20831800836e-09
4.10476221041e-09
4.39264602676e-09
4.0484777268e-09
2.61446869952e-09
3.88297101463e-09
1.01803263634e-09
3.3242620995e-09
1.91727560497e-09
1.65222826939e-09
-7.05846259196e-09
3.24777934489e-09
-6.88857151198e-09
4.73893538717e-09
-6.48109435561e-09
6.08370404822e-09
-5.89285538468e-09
7.24259579432e-09
-5.16272196744e-09
8.17636459844e-09
-4.31810069298e-09
8.84512800912e-09
-3.38106066026e-09
9.20137519893e-09
-2.3628152021e-09
9.17697780693e-09
-1.25468902489e-09
8.606586475e-09
4.86879432021e-11
7.32354665386e-09
1.62218954023e-09
5.30735688698e-09
3.39423289152e-09
2.70875186713e-09
5.20567340845e-09
-1.68840398284e-10
6.8226174956e-09
-3.05212330147e-09
8.16583382262e-09
-5.85213520421e-09
9.22086901146e-09
-8.61845782896e-09
1.00278888896e-08
-1.14192967119e-08
1.06084721594e-08
-1.42799744225e-08
1.10154548559e-08
-1.71832933124e-08
1.13108914692e-08
-2.00875872042e-08
1.15349684686e-08
-2.2954850804e-08
1.169621458e-08
-2.57635633102e-08
1.17841920027e-08
-2.85044241111e-08
1.17858452557e-08
-3.11723630659e-08
1.16946230746e-08
-3.37620611844e-08
1.15118301308e-08
-3.62663942633e-08
1.12442556939e-08
-3.86770334781e-08
1.09013340201e-08
-4.09851671904e-08
1.04931500791e-08
-4.31824638139e-08
1.00293961886e-08
-4.52613730405e-08
9.51897573736e-09
-4.72155299754e-08
8.96993124718e-09
-4.90396233224e-08
8.38949856641e-09
-5.07295204146e-08
7.78418231956e-09
-5.22819937454e-08
7.1598221814e-09
-5.36947782682e-08
6.52163970149e-09
-5.4966289651e-08
5.87427629539e-09
-5.60956857277e-08
5.22182441342e-09
-5.70826137505e-08
4.56786189816e-09
-5.79272893328e-08
3.91548717614e-09
-5.86302773434e-08
3.26736072911e-09
-5.91925849531e-08
2.62574720754e-09
-5.96154730227e-08
1.99256166705e-09
-5.99005565968e-08
1.36941342574e-09
-6.00496413575e-08
7.57650431935e-10
-6.00648260462e-08
1.58396935472e-10
-5.99483769021e-08
-4.27411897502e-10
-5.97027935874e-08
-9.99010481277e-10
-5.9330700364e-08
-1.55563997407e-09
-5.88349403011e-08
-2.09656007283e-09
-5.82184804231e-08
-2.62102777315e-09
-5.74845023244e-08
-3.12828117871e-09
-5.66363257708e-08
-3.61752495276e-09
-5.56774906471e-08
-4.08792174715e-09
-5.46116963321e-08
-4.53858480146e-09
-5.34428711978e-08
-4.96857598569e-09
-5.2175123465e-08
-5.37690512315e-09
-5.08127956459e-08
-5.76253476284e-09
-4.93604238863e-08
-6.12438666354e-09
-4.78227755605e-08
-6.46135383583e-09
-4.62048141042e-08
-6.772314977e-09
-4.45117177878e-08
-7.05615481646e-09
-4.27488464869e-08
-7.31178792532e-09
-4.09217390373e-08
-7.53818911233e-09
-3.90360775926e-08
-7.73442876628e-09
-3.70976601833e-08
-7.89971573097e-09
-3.51123575392e-08
-8.0334469162e-09
-3.30860569352e-08
-8.13526551145e-09
-3.10246060532e-08
-8.20512787539e-09
-2.89337246064e-08
-8.24338003548e-09
-2.68189309724e-08
-8.25084465062e-09
-2.46854211285e-08
-8.22891782902e-09
-2.25379790557e-08
-8.17967641118e-09
-2.03808328958e-08
-8.10599142592e-09
-1.82175682335e-08
-8.01164498271e-09
-1.60510062034e-08
-7.90143796653e-09
-1.38832011691e-08
-7.78127467606e-09
-1.17154955425e-08
-7.65818662621e-09
-9.5488484388e-09
-7.54023079451e-09
-7.38439212056e-09
-7.43612192721e-09
-5.22426780165e-09
-7.35438904059e-09
-3.07218068243e-09
-7.30185774424e-09
-9.32497314884e-10
-7.28183325606e-09
1.18941879624e-09
-7.29219565797e-09
3.28741683991e-09
-7.32745501417e-09
5.35894783099e-09
-7.3822666203e-09
7.4036709733e-09
-7.44823826341e-09
9.42042766977e-09
-7.51506892129e-09
1.14078625656e-08
-7.57417719406e-09
1.33639002605e-08
-7.61785595365e-09
1.52857713911e-08
-7.63962402134e-09
1.71700682465e-08
-7.63418657447e-09
1.90128329207e-08
-7.59733620005e-09
2.08096633438e-08
-7.52589335732e-09
2.25558296937e-08
-7.41759326187e-09
2.42463514928e-08
-7.27097896118e-09
2.58760995126e-08
-7.08528599126e-09
2.74398473625e-08
-6.86031880081e-09
2.89323531528e-08
-6.59632917096e-09
3.03483922137e-08
-6.29390019396e-09
3.16828267028e-08
-5.9538386696e-09
3.29306261745e-08
-5.57708001286e-09
3.4086929881e-08
-5.16460612694e-09
3.51470598903e-08
-4.71737925793e-09
3.61065803303e-08
-4.23629219826e-09
3.69613085971e-08
-3.72213766015e-09
3.77073773443e-08
-3.17559819957e-09
3.83412508816e-08
-2.59726261914e-09
3.88597957809e-08
-1.98767487782e-09
3.92603023941e-08
-1.34742998276e-09
3.95405108115e-08
-6.77322937276e-10
3.96983194438e-08
2.15592473899e-11
3.97321871377e-08
7.47010200827e-10
3.96416206648e-08
1.49683431234e-09
3.94263921925e-08
2.26858479131e-09
3.90864287785e-08
3.05834567053e-09
3.86214626226e-08
3.86030124994e-09
3.80303980415e-08
4.66612576867e-09
3.73104364048e-08
5.46431206695e-09
3.64558590365e-08
6.23951582613e-09
3.54567162797e-08
6.97201208806e-09
3.42976666583e-08
7.6373247336e-09
3.29576675056e-08
8.20600742739e-09
3.14113120114e-08
8.64354720032e-09
2.96343875262e-08
8.9106214301e-09
2.76215291948e-08
8.96508555045e-09
2.54199012737e-08
8.77418617658e-09
2.31405749063e-08
8.35411304407e-09
2.08998461043e-08
7.80914501247e-09
1.87494654861e-08
7.28476277588e-09
1.66800886146e-08
6.86925294211e-09
1.46630637239e-08
6.5716865219e-09
1.2674690097e-08
6.365385916e-09
1.0699853373e-08
6.22411022034e-09
8.72867083492e-09
6.13261075214e-09
6.75483543045e-09
6.0785777067e-09
4.78219302391e-09
6.02110192901e-09
2.85158297078e-09
5.81356383271e-09
1.12975221759e-09
5.04607569368e-09
3.04702322857e-09
1.4043589165e-09
-8.46280334789e-09
2.75659561611e-09
-8.24080190418e-09
4.00349191226e-09
-7.72797107626e-09
5.09369847998e-09
-6.98306122686e-09
5.97429942835e-09
-6.04330560035e-09
6.5860327472e-09
-4.9298381079e-09
6.85518647681e-09
-3.65020040974e-09
6.66900247933e-09
-2.17663950746e-09
5.82644207185e-09
-4.12115645869e-10
4.04959396525e-09
1.82552525015e-09
1.51770464515e-09
4.15409123901e-09
-1.35385086255e-09
6.26577762006e-09
-4.22270608125e-09
8.07454207365e-09
-7.00098356142e-09
9.60088569177e-09
-9.709433329e-09
1.08742991106e-08
-1.23871605942e-08
1.18985893164e-08
-1.50521473549e-08
1.26928935879e-08
-1.77304821729e-08
1.32868024821e-08
-2.04328155646e-08
1.37178084406e-08
-2.31457293118e-08
1.40238028922e-08
-2.58415859347e-08
1.42308471297e-08
-2.84937287977e-08
1.43483568526e-08
-3.10839042656e-08
1.43743908966e-08
-3.36021937535e-08
1.43041354767e-08
-3.60431735457e-08
1.41356272811e-08
-3.84028609318e-08
1.38715192748e-08
-4.06769048089e-08
1.35183246579e-08
-4.2860415268e-08
1.3084847069e-08
-4.49480365738e-08
1.25807968996e-08
-4.693452679e-08
1.20158897228e-08
-4.88148982978e-08
1.13993729884e-08
-5.05847875048e-08
1.07398244484e-08
-5.22403571246e-08
1.00450939847e-08
-5.37784758725e-08
9.32230572163e-09
-5.51965111554e-08
8.57788315614e-09
-5.64924457198e-08
7.81757957616e-09
-5.76646561679e-08
7.04651217074e-09
-5.87120235662e-08
6.26919777738e-09
-5.96337300326e-08
5.48959336429e-09
-6.04293754178e-08
4.71113917152e-09
-6.10987965327e-08
3.93680625194e-09
-6.16421869268e-08
3.16914484512e-09
-6.20599361401e-08
2.41033454226e-09
-6.23527470435e-08
1.66223218603e-09
-6.2521492808e-08
9.26418963726e-10
-6.25673314972e-08
2.04244041403e-10
-6.24915913094e-08
-5.03130379509e-10
-6.22958514818e-08
-1.19474144979e-09
-6.19818200485e-08
-1.8696509485e-09
-6.15514314622e-08
-2.52693951603e-09
-6.10067575228e-08
-3.16568267765e-09
-6.03500946298e-08
-3.78493481849e-09
-5.9583886743e-08
-4.38371537975e-09
-5.87107993052e-08
-4.96099999382e-09
-5.77336546729e-08
-5.51571366862e-09
-5.66554925053e-08
-6.04672918625e-09
-5.54795157469e-08
-6.55286790051e-09
-5.42091361007e-08
-7.03290581714e-09
-5.28479282242e-08
-7.48558240688e-09
-5.13996591555e-08
-7.90961482457e-09
-4.98682484174e-08
-8.30371547632e-09
-4.82577804131e-08
-8.66661538267e-09
-4.65724681259e-08
-8.99709190635e-09
-4.48166476033e-08
-9.29400296807e-09
-4.29947430466e-08
-9.55632699358e-09
-4.11112428126e-08
-9.78321021531e-09
-3.91706642253e-08
-9.97402121128e-09
-3.71775115421e-08
-1.01284135394e-08
-3.51362403882e-08
-1.02463968616e-08
-3.30512008207e-08
-1.03284162667e-08
-3.09266052375e-08
-1.03754403011e-08
-2.8766466028e-08
-1.03890552983e-08
-2.65745797859e-08
-1.03715650771e-08
-2.43544827557e-08
-1.0326088644e-08
-2.2109483377e-08
-1.02566492526e-08
-1.98426876818e-08
-1.01682361627e-08
-1.75571523707e-08
-1.00668174301e-08
-1.52560846586e-08
-9.95925955476e-09
-1.29432298825e-08
-9.85309558477e-09
-1.06233108098e-08
-9.75604923827e-09
-8.30248124115e-09
-9.6752310782e-09
-5.98833795711e-09
-9.61601234462e-09
-3.68941153458e-09
-9.58077429289e-09
-1.41336564318e-09
-9.56825567919e-09
8.32590616899e-10
-9.5734275527e-09
3.03863206083e-09
-9.58832448506e-09
5.19839661849e-09
-9.60802021133e-09
7.30990411105e-09
-9.62659451067e-09
9.37042078225e-09
-9.63471187611e-09
1.13777621283e-08
-9.62521651288e-09
1.33298043972e-08
-9.59168455761e-09
1.52242792965e-08
-9.52868136944e-09
1.70588251304e-08
-9.43190033126e-09
1.88309414876e-08
-9.29802999917e-09
2.05379839195e-08
-9.12465391188e-09
2.21771719241e-08
-8.9101874694e-09
2.37456260386e-08
-8.65375822136e-09
2.52403687873e-08
-8.35508219389e-09
2.66583714797e-08
-8.01434990649e-09
2.79965631678e-08
-7.63211265132e-09
2.92518847635e-08
-7.20917829272e-09
3.04213030804e-08
-6.74651924223e-09
3.15018710959e-08
-6.2451922173e-09
3.24907442202e-08
-5.70627347147e-09
3.33852446758e-08
-5.13081083168e-09
3.41828800093e-08
-4.51979429045e-09
3.48814106813e-08
-3.8741471898e-09
3.54788695521e-08
-3.19474300803e-09
3.59736288163e-08
-2.48245261001e-09
3.63644061901e-08
-1.73822908257e-09
3.66502964202e-08
-9.63231768295e-10
3.68308646677e-08
-1.59030898907e-10
3.6905858821e-08
6.71997350942e-10
3.68755866067e-08
1.52708451178e-09
3.67407200555e-08
2.4034325897e-09
3.6501924116e-08
3.29711954326e-09
3.61595290111e-08
4.20267758183e-09
3.57129887738e-08
5.11264396704e-09
3.51602021379e-08
6.0170799385e-09
3.44965958245e-08
6.90310021032e-09
3.37141399724e-08
7.7544491953e-09
3.28003202027e-08
8.55112275916e-09
3.17373398382e-08
9.26896906574e-09
3.050174501e-08
9.87912052815e-09
2.90652151598e-08
1.03471325586e-08
2.7398040536e-08
1.06322389729e-08
2.54836323077e-08
1.06885756557e-08
2.33590115858e-08
1.04787128568e-08
2.11410853138e-08
1.00270523809e-08
1.89537692348e-08
9.47205815051e-09
1.68420264786e-08
8.98097648095e-09
1.47906571023e-08
8.62303547048e-09
1.27739547015e-08
8.3820688e-09
1.07737311731e-08
8.22431347585e-09
8.77848162745e-09
8.12784055376e-09
6.78136060924e-09
8.07567901271e-09
4.78690273256e-09
8.01554170517e-09
2.84340718589e-09
7.75704242167e-09
1.13789270119e-09
6.75157322615e-09
4.18491139943e-09
1.16154714303e-09
-9.62433071652e-09
2.26627161978e-09
-9.34551933515e-09
3.24834948632e-09
-8.71002831719e-09
4.03393169522e-09
-7.76864103092e-09
4.53296840763e-09
-6.54232490928e-09
4.63036335505e-09
-5.0272373885e-09
4.1860589642e-09
-3.20588106825e-09
2.83295658063e-09
-8.23545969777e-10
4.3277801573e-10
1.98807486868e-09
-2.4067319311e-09
4.66502431332e-09
-5.22504214541e-09
6.97241318861e-09
-7.95064537178e-09
8.99136963147e-09
-1.06121274271e-08
1.07360369631e-08
-1.32254989214e-08
1.22142474723e-08
-1.57940195742e-08
1.34428347341e-08
-1.83343101471e-08
1.44388725585e-08
-2.08634142755e-08
1.52220151885e-08
-2.33927775622e-08
1.58161609535e-08
-2.59236701212e-08
1.62487208048e-08
-2.84452985051e-08
1.65454286722e-08
-3.09392225651e-08
1.67247928956e-08
-3.33869634611e-08
1.67960969036e-08
-3.57745150295e-08
1.67619655908e-08
-3.80931863427e-08
1.66228072842e-08
-4.03378115403e-08
1.63802765995e-08
-4.25050134687e-08
1.6038722722e-08
-4.45917323972e-08
1.56050683646e-08
-4.65948582416e-08
1.50879752525e-08
-4.85109713444e-08
1.44969351723e-08
-5.03366505594e-08
1.38415719783e-08
-5.20684541726e-08
1.31312019481e-08
-5.3703221049e-08
1.23745950055e-08
-5.52379661486e-08
1.15798644205e-08
-5.66700839619e-08
1.07544278279e-08
-5.79971816485e-08
9.9050059979e-09
-5.92172378456e-08
9.03764066887e-09
-6.03284247309e-08
8.1577238654e-09
-6.13292556729e-08
7.2700342086e-09
-6.22184172489e-08
6.37877923963e-09
-6.29949134427e-08
5.48764143505e-09
-6.36579112007e-08
4.59982763503e-09
-6.42068789547e-08
3.71811923663e-09
-6.4641444613e-08
2.84492300439e-09
-6.4961524885e-08
1.98231964955e-09
-6.51671950887e-08
1.13211101146e-09
-6.52588086204e-08
2.95865272004e-10
-6.52368840593e-08
-5.25034209484e-10
-6.51022283189e-08
-1.329389096e-09
-6.48557673797e-08
-2.11609244563e-09
-6.44986536153e-08
-2.88404494846e-09
-6.40321826008e-08
-3.63213570648e-09
-6.34578786971e-08
-4.35923032561e-09
-6.27774181568e-08
-5.06415953278e-09
-6.19926985417e-08
-5.74571131784e-09
-6.11057723262e-08
-6.40262520396e-09
-6.01189019072e-08
-7.03359157886e-09
-5.90345028981e-08
-7.63725401466e-09
-5.78551842714e-08
-8.21221682814e-09
-5.65836996675e-08
-8.75705595395e-09
-5.52229722979e-08
-9.27033512271e-09
-5.3776052704e-08
-9.7506258859e-09
-5.22461284718e-08
-1.01965332115e-08
-5.06364873076e-08
-1.06067257856e-08
-4.89505122998e-08
-1.09799723646e-08
-4.71916500182e-08
-1.13151839182e-08
-4.53633932349e-08
-1.16114623146e-08
-4.34692552747e-08
-1.18681557854e-08
-4.15127442155e-08
-1.20849210047e-08
-3.9497347469e-08
-1.22617922545e-08
-3.74265053562e-08
-1.23992560767e-08
-3.53036149159e-08
-1.2498331501e-08
-3.31320177603e-08
-1.25606516888e-08
-3.0915040825e-08
-1.25885449711e-08
-2.86560247564e-08
-1.25851057736e-08
-2.63584319857e-08
-1.25542472561e-08
-2.40259559368e-08
-1.25007154186e-08
-2.16627373493e-08
-1.24300435677e-08
-1.92735935523e-08
-1.2348409018e-08
-1.6864345994e-08
-1.22623529914e-08
-1.44420879514e-08
-1.21783156287e-08
-1.20153584404e-08
-1.21019726055e-08
-9.59395838263e-09
-1.20374234589e-08
-7.18831354595e-09
-1.19864330382e-08
-4.80861459303e-09
-1.19479681789e-08
-2.46376155684e-09
-1.19182959913e-08
-1.60100087925e-10
-1.18920015773e-08
2.09274189784e-09
-1.18608786388e-08
4.28472297943e-09
-1.18185927847e-08
6.41256820629e-09
-1.17625741651e-08
8.47417359534e-09
-1.1686840191e-08
1.04668315326e-08
-1.15843598625e-08