/*--------------------------------*- C++ -*----------------------------------*\
| =========                 |                                                 |
| \\      /  F ield         | OpenFOAM: The Open Source CFD Toolbox           |
|  \\    /   O peration     | Version:  2212                                  |
|   \\  /    A nd           | Website:  www.openfoam.com                      |
|    \\/     M anipulation  |                                                 |
\*---------------------------------------------------------------------------*/
FoamFile
{
    version     2.0;
    format      ascii;
    arch        "LSB;label=64;scalar=64";
    class       volScalarField;
    location    "1150";
    object      Gch4;
}
// * * * * * * * * * * * * * * * * * * * * * * * * * * * * * * * * * * * * * //

dimensions      [1 -3 0 0 0 0 0];

internalField   nonuniform List<scalar> 
1024
(
1.94453
1.94439
1.94406
1.94344
1.94247
1.94107
1.93921
1.9369
1.93424
1.93138
1.92849
1.92581
1.92366
1.92246
1.92244
1.92361
1.92589
1.92882
1.93199
1.93526
1.93854
1.94174
1.94476
1.9475
1.94984
1.95175
1.95322
1.95427
1.95499
1.95544
1.95568
1.95578
1.94451
1.94437
1.94402
1.94339
1.9424
1.94097
1.93907
1.93674
1.93405
1.93115
1.92824
1.92554
1.92337
1.92218
1.92218
1.92337
1.92566
1.92861
1.93179
1.93507
1.93836
1.94158
1.94461
1.94737
1.94974
1.95167
1.95315
1.95423
1.95496
1.95541
1.95566
1.95576
1.94445
1.94431
1.94394
1.94329
1.94225
1.94077
1.93881
1.9364
1.93364
1.93068
1.92769
1.9249
1.92267
1.92148
1.92154
1.9228
1.92516
1.92815
1.93137
1.93468
1.93799
1.94123
1.9443
1.94709
1.94951
1.95149
1.95302
1.95413
1.95488
1.95535
1.95561
1.95571
1.94436
1.94421
1.94382
1.94313
1.94203
1.94047
1.93841
1.9359
1.93303
1.92992
1.92676
1.92379
1.92141
1.92021
1.92039
1.92179
1.92428
1.92739
1.93069
1.93406
1.93742
1.9407
1.94382
1.94667
1.94916
1.95121
1.95281
1.95397
1.95476
1.95525
1.95552
1.95563
1.94423
1.94407
1.94366
1.94292
1.94176
1.9401
1.93792
1.93526
1.93221
1.92887
1.9254
1.92208
1.91943
1.91819
1.91855
1.92021
1.92296
1.92628
1.92974
1.93323
1.93666
1.94001
1.94319
1.94612
1.94869
1.95084
1.95252
1.95375
1.95459
1.95511
1.9554
1.95551
1.94408
1.9439
1.94348
1.9427
1.94146
1.9397
1.93738
1.93453
1.9312
1.92749
1.92353
1.91966
1.91658
1.91526
1.91586
1.91792
1.92109
1.92478
1.92851
1.93219
1.93577
1.93921
1.94248
1.94549
1.94816
1.95041
1.95218
1.95349
1.95438
1.95494
1.95524
1.95536
1.94391
1.94373
1.94329
1.94247
1.94117
1.93931
1.93683
1.93373
1.93003
1.92578
1.92111
1.91646
1.91278
1.91131
1.9122
1.91481
1.9186
1.92283
1.92701
1.93101
1.9348
1.93839
1.94176
1.94487
1.94764
1.94997
1.95183
1.95321
1.95415
1.95474
1.95506
1.95519
1.94375
1.94357
1.94311
1.94227
1.94093
1.93897
1.93632
1.93292
1.92873
1.92376
1.91813
1.91246
1.90802
1.90631
1.90752
1.91081
1.91543
1.92044
1.92526
1.92973
1.93386
1.93766
1.94117
1.94438
1.94722
1.94963
1.95154
1.95297
1.95394
1.95455
1.95488
1.95501
1.94363
1.94345
1.94299
1.94213
1.94076
1.93872
1.93588
1.93213
1.92734
1.92144
1.9146
1.90766
1.90231
1.9003
1.90184
1.90593
1.91157
1.91762
1.92331
1.92847
1.93307
1.93717
1.94086
1.94416
1.94705
1.94948
1.9514
1.95283
1.9538
1.95441
1.95474
1.95487
1.94355
1.94337
1.94291
1.94206
1.94067
1.93856
1.93553
1.93137
1.92584
1.91879
1.91045
1.902
1.89564
1.89331
1.8952
1.90015
1.90698
1.91431
1.92118
1.92727
1.93252
1.93705
1.94096
1.94434
1.94723
1.94962
1.95148
1.95285
1.95378
1.95436
1.95468
1.9548
1.94351
1.94333
1.94289
1.94205
1.94065
1.93847
1.93522
1.93057
1.92414
1.91566
1.90549
1.89532
1.88788
1.88526
1.88749
1.89326
1.90134
1.91019
1.91856
1.92594
1.93214
1.93727
1.9415
1.94498
1.94783
1.9501
1.95183
1.95306
1.95389
1.9544
1.95467
1.95477
1.94339
1.94322
1.94279
1.94197
1.94056
1.93829
1.93478
1.92951
1.92191
1.91164
1.8993
1.88722
1.8787
1.8758
1.87821
1.88451
1.89359
1.90401
1.91424
1.92341
1.93108
1.93722
1.94204
1.94577
1.94861
1.95073
1.95225
1.95327
1.9539
1.95425
1.95441
1.95446
1.94283
1.94269
1.9423
1.9415
1.94006
1.93762
1.93368
1.92754
1.91841
1.90592
1.89112
1.87711
1.86755
1.86419
1.8662
1.87208
1.8812
1.89257
1.90458
1.91602
1.92601
1.93409
1.94031
1.94489
1.94811
1.95025
1.95154
1.95222
1.95247
1.95247
1.95236
1.95227
1.94101
1.9409
1.94056
1.93978
1.93824
1.93547
1.93082
1.92338
1.91225
1.89721
1.87995
1.86424
1.85365
1.8492
1.84941
1.85286
1.85967
1.86972
1.88181
1.89467
1.90709
1.91813
1.92723
1.93422
1.93913
1.94212
1.94359
1.94397
1.94368
1.94312
1.94257
1.94225
1.93647
1.93641
1.93612
1.93531
1.93353
1.93016
1.92435
1.91507
1.90151
1.88395
1.86482
1.84799
1.83626
1.82949
1.82575
1.82391
1.82463
1.8288
1.83615
1.84588
1.85703
1.86862
1.87973
1.88969
1.89791
1.90398
1.9079
1.90994
1.91057
1.91038
1.90993
1.90959
1.92762
1.92759
1.92728
1.92631
1.9241
1.91986
1.91263
1.90144
1.88591
1.86699
1.84734
1.83012
1.81688
1.80678
1.79808
1.78978
1.78247
1.77731
1.77486
1.77509
1.77784
1.78285
1.78971
1.79782
1.80651
1.81503
1.82267
1.82883
1.83317
1.83576
1.83698
1.83736
1.9162
1.91619
1.9159
1.91492
1.91263
1.90824
1.90086
1.88975
1.87479
1.85691
1.8381
1.82067
1.80597
1.79372
1.78286
1.7725
1.76264
1.75335
1.74468
1.73688
1.73044
1.72583
1.72344
1.72345
1.72578
1.73004
1.73554
1.74135
1.74656
1.75048
1.75287
1.75387
1.90597
1.90597
1.90575
1.90492
1.90293
1.89907
1.89255
1.88274
1.86953
1.85358
1.83637
1.81979
1.80532
1.79342
1.78382
1.77602
1.76962
1.76319
1.75555
1.74667
1.73715
1.7278
1.71942
1.71263
1.70784
1.7052
1.70456
1.70549
1.7073
1.70925
1.71074
1.71149
1.89819
1.8982
1.89804
1.89739
1.89579
1.89264
1.88725
1.87905
1.86784
1.85404
1.83874
1.82354
1.80994
1.79889
1.79066
1.7851
1.78164
1.77803
1.77225
1.76384
1.75331
1.74165
1.73
1.71945
1.71078
1.70435
1.70018
1.69797
1.69723
1.69735
1.69777
1.69807
1.89247
1.89248
1.89237
1.89187
1.89063
1.88814
1.88382
1.87714
1.86785
1.85618
1.84292
1.82935
1.81689
1.80662
1.79913
1.79447
1.792
1.78942
1.78464
1.77687
1.76622
1.7534
1.73956
1.7261
1.71429
1.70494
1.69835
1.69429
1.69224
1.69153
1.6915
1.69163
1.8882
1.88822
1.88815
1.8878
1.88687
1.88493
1.88151
1.87614
1.86856
1.85886
1.84761
1.83578
1.82456
1.81498
1.80769
1.80281
1.79975
1.79661
1.7917
1.7842
1.7739
1.76111
1.74661
1.73169
1.71777
1.70608
1.69728
1.69146
1.68821
1.68681
1.68648
1.68653
1.88453
1.8846
1.88464
1.88448
1.88387
1.88245
1.87979
1.87552
1.86938
1.86141
1.85197
1.84176
1.83169
1.82259
1.81504
1.80912
1.80444
1.79977
1.79397
1.78627
1.7763
1.76403
1.7499
1.73481
1.72003
1.70689
1.69644
1.6891
1.6847
1.6826
1.68196
1.68194
1.8804
1.88056
1.88082
1.88099
1.88082
1.87996
1.87803
1.87469
1.86972
1.86311
1.85507
1.84609
1.83678
1.82777
1.8195
1.81201
1.80523
1.79873
1.79182
1.78379
1.77416
1.76268
1.74947
1.7351
1.72053
1.70694
1.6955
1.687
1.68158
1.6788
1.67783
1.67773
1.8746
1.87494
1.87555
1.87622
1.87664
1.87644
1.87521
1.87261
1.86845
1.86268
1.85543
1.84703
1.83791
1.82853
1.81922
1.81005
1.80128
1.7932
1.78544
1.7773
1.7682
1.75775
1.74584
1.73274
1.71912
1.70593
1.69424
1.68504
1.6788
1.67538
1.67406
1.67386
1.86605
1.86664
1.8677
1.86895
1.87001
1.87042
1.86971
1.86754
1.86369
1.85813
1.85099
1.84253
1.83312
1.82313
1.81286
1.80237
1.79224
1.78325
1.77518
1.76729
1.759
1.74982
1.73949
1.72804
1.71589
1.70371
1.69243
1.68304
1.67628
1.67231
1.67064
1.67034
1.85392
1.8548
1.85631
1.85802
1.85945
1.86009
1.85946
1.85719
1.8531
1.84723
1.83975
1.83096
1.8212
1.81082
1.80008
1.78906
1.77851
1.76942
1.76164
1.75442
1.74717
1.73941
1.73081
1.72126
1.71092
1.70022
1.68989
1.68084
1.67391
1.66955
1.66757
1.66714
1.83772
1.83889
1.84063
1.84233
1.84347
1.84364
1.84244
1.83955
1.8349
1.82858
1.82082
1.81194
1.80226
1.7921
1.78169
1.77109
1.76109
1.75266
1.74568
1.73943
1.73339
1.72711
1.72026
1.71266
1.70432
1.69544
1.6865
1.67825
1.67156
1.66705
1.66482
1.66426
1.81716
1.81849
1.81997
1.82086
1.82086
1.81983
1.81758
1.81392
1.80883
1.80243
1.79493
1.7866
1.77773
1.76857
1.7593
1.74998
1.74129
1.73409
1.72826
1.72318
1.7184
1.71356
1.70837
1.70264
1.69629
1.68938
1.68216
1.67514
1.66909
1.66472
1.66237
1.66169
1.79189
1.79309
1.79353
1.79281
1.79112
1.78869
1.78548
1.78143
1.77648
1.77068
1.76417
1.75712
1.74977
1.74229
1.7348
1.72735
1.72047
1.71483
1.71033
1.70649
1.70295
1.69944
1.69575
1.6917
1.6872
1.68222
1.67685
1.67137
1.66635
1.66247
1.66018
1.65943
1.76122
1.7617
1.76041
1.75796
1.75499
1.75179
1.7484
1.74471
1.74064
1.73612
1.73121
1.72602
1.72066
1.71527
1.70991
1.70463
1.69978
1.69584
1.69272
1.69009
1.68771
1.6854
1.68299
1.68038
1.67748
1.67425
1.67069
1.66691
1.66324
1.66017
1.6582
1.65746
1.72386
1.72298
1.7204
1.71752
1.71469
1.71201
1.70946
1.70693
1.70431
1.70153
1.69857
1.69547
1.69231
1.68914
1.68601
1.68294
1.68013
1.67786
1.67606
1.67457
1.67323
1.67195
1.67063
1.66921
1.66764
1.66589
1.66394
1.66182
1.65965
1.65772
1.65634
1.65576
1.67821
1.67751
1.67617
1.6749
1.67375
1.6727
1.67176
1.67087
1.66998
1.66905
1.66808
1.66707
1.66604
1.66501
1.664
1.663
1.6621
1.66137
1.6608
1.66032
1.65989
1.65949
1.65908
1.65864
1.65815
1.65761
1.65701
1.65635
1.65566
1.65501
1.65451
1.65427
)
;

boundaryField
{
    movingWall
    {
        type            fixedValue;
        value           uniform 1.6535;
    }
    fixedWalls
    {
        type            zeroGradient;
    }
    floor
    {
        type            zeroGradient;
    }
    frontAndBack
    {
        type            empty;
    }
}


// ************************************************************************* //
