/*--------------------------------*- C++ -*----------------------------------*\
| =========                 |                                                 |
| \\      /  F ield         | OpenFOAM: The Open Source CFD Toolbox           |
|  \\    /   O peration     | Version:  2212                                  |
|   \\  /    A nd           | Website:  www.openfoam.com                      |
|    \\/     M anipulation  |                                                 |
\*---------------------------------------------------------------------------*/
FoamFile
{
    version     2.0;
    format      ascii;
    arch        "LSB;label=64;scalar=64";
    class       volScalarField;
    location    "1150";
    object      Gco2;
}
// * * * * * * * * * * * * * * * * * * * * * * * * * * * * * * * * * * * * * //

dimensions      [1 -3 0 0 0 0 0];

internalField   nonuniform List<scalar> 
1024
(
0.0605993
0.0605773
0.0605234
0.0604256
0.0602712
0.0600488
0.0597528
0.0593864
0.0589637
0.0585072
0.0580473
0.0576209
0.057278
0.0570855
0.0570807
0.0572645
0.0576242
0.0580883
0.05859
0.059108
0.0596277
0.0601351
0.0606139
0.0610465
0.061418
0.06172
0.0619517
0.0621191
0.0622324
0.0623029
0.0623415
0.0623572
0.0605955
0.060573
0.0605179
0.0604179
0.06026
0.060033
0.0597317
0.05936
0.0589324
0.0584718
0.0580079
0.0575777
0.0572321
0.0570405
0.0570389
0.0572261
0.0575888
0.0580553
0.058559
0.0590786
0.0595999
0.0601091
0.0605903
0.0610261
0.0614013
0.061707
0.061942
0.0621121
0.0622273
0.0622989
0.0623381
0.0623541
0.0605866
0.0605632
0.0605057
0.0604014
0.0602367
0.0600007
0.059689
0.0593064
0.058868
0.0583962
0.0579199
0.0574763
0.0571204
0.0569296
0.0569372
0.0571351
0.0575077
0.057982
0.0584917
0.0590159
0.0595409
0.0600541
0.0605403
0.0609826
0.0613653
0.0616787
0.0619208
0.0620965
0.0622156
0.0622897
0.0623302
0.0623467
0.0605718
0.0605472
0.0604865
0.0603761
0.060202
0.0599535
0.0596266
0.0592271
0.0587699
0.0582761
0.0577727
0.0572989
0.0569191
0.0567271
0.0567527
0.0569738
0.0573684
0.0578607
0.0583838
0.0589177
0.05945
0.0599698
0.0604637
0.0609155
0.0613093
0.0616343
0.0618869
0.0620711
0.0621962
0.0622742
0.0623167
0.0623339
0.0605514
0.0605254
0.0604609
0.0603436
0.0601586
0.0598949
0.0595488
0.0591259
0.0586395
0.0581076
0.0575553
0.0570262
0.0566025
0.0564047
0.056459
0.0567211
0.0571568
0.0576832
0.058232
0.0587843
0.0593297
0.0598598
0.0603641
0.0608279
0.0612357
0.0615753
0.0618412
0.0620362
0.0621691
0.0622519
0.0622969
0.0623152
0.0605267
0.0604993
0.0604314
0.0603072
0.0601111
0.0598311
0.0594624
0.0590085
0.0584793
0.0578878
0.0572572
0.0566407
0.0561482
0.0559364
0.0560299
0.056355
0.0568578
0.0574417
0.0580348
0.058619
0.0591863
0.0597323
0.0602501
0.0607279
0.0611511
0.0615065
0.0617871
0.061994
0.0621355
0.0622237
0.0622716
0.0622909
0.0605002
0.0604718
0.060401
0.0602712
0.0600652
0.0597689
0.0593746
0.0588816
0.0582932
0.0576159
0.0568719
0.0561307
0.0555424
0.0553052
0.055445
0.0558569
0.056458
0.0571302
0.0577931
0.0584285
0.059031
0.0596008
0.060136
0.0606291
0.0610673
0.0614376
0.0617317
0.0619497
0.0620991
0.0621922
0.0622428
0.0622631
0.0604754
0.0604463
0.0603738
0.0602402
0.0600264
0.059715
0.0592931
0.0587521
0.0580864
0.0572936
0.0563974
0.0554923
0.0547821
0.0545063
0.0546962
0.0552166
0.0559493
0.0567462
0.0575115
0.0582237
0.0588793
0.0594837
0.0600415
0.0605504
0.0610012
0.0613824
0.0616859
0.0619112
0.0620658
0.0621622
0.0622144
0.0622354
0.0604557
0.0604264
0.0603533
0.0602181
0.0599992
0.0596746
0.0592234
0.0586261
0.0578638
0.0569236
0.0558333
0.0547255
0.0538704
0.0535456
0.0537869
0.0544332
0.0553292
0.0562909
0.0571977
0.0580189
0.0587506
0.0594036
0.0599898
0.0605141
0.0609727
0.0613577
0.0616629
0.0618888
0.0620435
0.0621399
0.0621921
0.0622131
0.0604437
0.0604146
0.060342
0.060207
0.0599855
0.0596494
0.0591676
0.0585051
0.0576251
0.0565014
0.0551716
0.0538231
0.0528052
0.0524279
0.0527225
0.0535053
0.0545897
0.0557574
0.0568514
0.0578225
0.0586605
0.0593807
0.0600031
0.0605417
0.061001
0.0613795
0.0616754
0.0618924
0.06204
0.0621316
0.0621813
0.0622013
0.0604369
0.0604085
0.0603375
0.0602041
0.0599815
0.0596345
0.0591187
0.0583788
0.0573538
0.056002
0.0543809
0.0527556
0.0515641
0.0511385
0.0514854
0.0523991
0.0536812
0.0550914
0.0564264
0.0576037
0.0585942
0.0594121
0.0600858
0.060641
0.0610942
0.0614545
0.0617285
0.061925
0.0620561
0.0621361
0.0621786
0.0621953
0.0604176
0.0603911
0.0603232
0.0601925
0.0599684
0.0596071
0.0590475
0.0582086
0.0569986
0.0553604
0.0533916
0.0514616
0.050095
0.0496224
0.0499969
0.0509916
0.0524331
0.0540946
0.0557263
0.0571924
0.0584179
0.0593989
0.0601679
0.0607626
0.0612157
0.0615527
0.0617935
0.0619556
0.0620559
0.0621108
0.0621357
0.0621435
0.0603296
0.0603069
0.0602446
0.0601173
0.0598876
0.0595
0.058873
0.0578947
0.0564407
0.0544483
0.0520862
0.0498456
0.0483105
0.0477624
0.0480699
0.0489956
0.050442
0.0522542
0.0541707
0.0559999
0.057597
0.0588901
0.0598847
0.060617
0.0611309
0.0614712
0.061678
0.0617859
0.0618251
0.0618235
0.0618057
0.061791
0.0600401
0.0600236
0.0599694
0.0598443
0.0595985
0.0591586
0.0584174
0.0572324
0.0554585
0.0530585
0.0503031
0.0477875
0.0460864
0.0453608
0.0453773
0.0459135
0.0469892
0.0485883
0.050517
0.0525723
0.0545587
0.0563258
0.0577824
0.0589025
0.0596871
0.0601663
0.0604006
0.0604608
0.0604147
0.0603236
0.0602362
0.0601849
0.0593194
0.0593106
0.0592643
0.0591342
0.0588511
0.0583149
0.057389
0.0559099
0.0537472
0.0509448
0.0478859
0.0451904
0.0433037
0.0422057
0.0415921
0.0412788
0.0413782
0.0420307
0.0431977
0.0447492
0.0465313
0.0483859
0.050164
0.0517599
0.0530772
0.0540513
0.0546794
0.0550062
0.0551077
0.0550779
0.0550045
0.0549505
0.0579154
0.0579101
0.0578608
0.0577056
0.0573529
0.0566768
0.055523
0.0537392
0.0512611
0.0482394
0.0450968
0.042338
0.0402103
0.0385815
0.0371736
0.0358269
0.0346356
0.0337872
0.0333768
0.0333973
0.0338271
0.0346226
0.0357172
0.037017
0.0384104
0.0397782
0.0410059
0.0419955
0.0426932
0.0431088
0.0433057
0.0433663
0.0561014
0.0560992
0.0560528
0.0558955
0.0555302
0.05483
0.0536524
0.0518803
0.0494931
0.0466372
0.0436305
0.0408411
0.038483
0.0365149
0.0347648
0.0330908
0.0314897
0.0299749
0.0285575
0.0272787
0.0262196
0.0254604
0.0250615
0.0250521
0.0254206
0.0261049
0.0269898
0.0279258
0.0287646
0.0293973
0.029783
0.0299452
0.0544781
0.0544786
0.0544424
0.0543092
0.0539913
0.0533746
0.052334
0.0507696
0.0486618
0.0461153
0.0433665
0.0407165
0.0384008
0.036495
0.0349538
0.0336984
0.032658
0.0316052
0.0303498
0.0288879
0.0273225
0.0257868
0.0244086
0.0232924
0.0225056
0.0220717
0.0219658
0.0221154
0.02241
0.0227275
0.0229701
0.023091
0.0532451
0.0532465
0.0532198
0.0531155
0.0528602
0.0523569
0.0514967
0.0501882
0.0484002
0.0461981
0.0437574
0.0413301
0.039159
0.0373934
0.0360782
0.0351883
0.0346269
0.0340329
0.0330802
0.0316961
0.0299644
0.0280463
0.0261312
0.0243967
0.0229707
0.0219155
0.0212315
0.0208703
0.0207502
0.0207722
0.020842
0.0208924
0.052341
0.0523424
0.0523227
0.052243
0.052044
0.0516456
0.0509551
0.0498894
0.048409
0.0465482
0.044434
0.0422703
0.0402824
0.0386463
0.0374536
0.0367108
0.0363141
0.0358898
0.0351009
0.0338228
0.0320735
0.0299678
0.0276938
0.0254816
0.0235399
0.0220043
0.0209203
0.0202542
0.0199191
0.0198045
0.0198012
0.0198241
0.0516657
0.0516687
0.0516573
0.0516004
0.05145
0.0511402
0.0505932
0.0497363
0.0485281
0.0469832
0.0451901
0.0433052
0.0415172
0.0399924
0.0388331
0.038056
0.0375656
0.0370521
0.036246
0.0350135
0.0333233
0.0312235
0.0288438
0.0263926
0.0241064
0.0221839
0.0207382
0.0197827
0.019249
0.0190205
0.0189673
0.0189771
0.0510841
0.0510942
0.0511001
0.051075
0.0509768
0.0507488
0.050325
0.0496433
0.0486656
0.0473954
0.0458914
0.0442656
0.042661
0.0412125
0.0400093
0.0390644
0.0383114
0.037552
0.0366031
0.0353409
0.0337063
0.0316958
0.0293772
0.0268996
0.0244711
0.0223128
0.0205943
0.0193879
0.018665
0.0183214
0.0182169
0.0182147
0.0504229
0.0504497
0.0504906
0.0505188
0.050492
0.0503551
0.0500475
0.0495148
0.0487228
0.0476685
0.0463881
0.044956
0.0434717
0.0420342
0.040712
0.0395121
0.0384186
0.0373624
0.0362356
0.0349231
0.0333468
0.0314653
0.029299
0.0269413
0.0245488
0.0223164
0.0204368
0.019039
0.0181482
0.0176911
0.0175319
0.0175161
0.0494889
0.0495444
0.0496424
0.0497512
0.0498211
0.0497901
0.0495949
0.0491819
0.0485182
0.0475968
0.0464397
0.045097
0.0436383
0.0421362
0.040644
0.0391679
0.0377511
0.03644
0.0351768
0.0338472
0.0323605
0.0306501
0.0286974
0.0265486
0.0243135
0.0221462
0.0202255
0.0187118
0.0176868
0.0171241
0.0169077
0.0168761
0.0481038
0.0481997
0.0483719
0.0485763
0.0487494
0.0488172
0.048707
0.0483603
0.0477446
0.0468544
0.0457098
0.0443536
0.0428432
0.0412383
0.0395852
0.0378931
0.0362551
0.0347962
0.0334831
0.0321978
0.0308437
0.0293421
0.0276494
0.0257734
0.0237784
0.0217783
0.0199247
0.0183803
0.017268
0.0166154
0.0163417
0.016292
0.0461347
0.0462786
0.0465238
0.0468027
0.0470359
0.047142
0.0470435
0.0466792
0.0460226
0.0450783
0.043875
0.0424596
0.0408883
0.0392152
0.0374828
0.0357025
0.0339949
0.0325208
0.0312552
0.0300787
0.028896
0.027628
0.0262201
0.0246549
0.0229584
0.0212026
0.0195052
0.0180154
0.0168749
0.0161585
0.0158322
0.0157619
0.0435014
0.0436917
0.0439753
0.0442518
0.0444383
0.0444675
0.0442755
0.0438104
0.0430596
0.0420395
0.0407872
0.0393532
0.0377917
0.0361513
0.0344689
0.032755
0.031134
0.0297674
0.028632
0.0276152
0.0266295
0.0256036
0.0244833
0.0232388
0.0218704
0.020413
0.0189447
0.0175883
0.0164861
0.0157442
0.0153765
0.0152846
0.0401566
0.040374
0.0406147
0.0407595
0.0407597
0.040594
0.0402303
0.0396377
0.0388149
0.037779
0.0365649
0.0352177
0.0337838
0.032303
0.0308044
0.0292958
0.0278874
0.02672
0.0257717
0.024945
0.024166
0.0233758
0.0225274
0.0215895
0.020549
0.0194147
0.0182276
0.0170735
0.0160773
0.0153587
0.0149707
0.0148592
0.0360437
0.0362388
0.0363116
0.0361936
0.0359198
0.0355241
0.0350045
0.0343467
0.0335451
0.0326051
0.031549
0.0304088
0.0292187
0.0280072
0.0267957
0.0255891
0.0244742
0.0235603
0.022829
0.0222038
0.0216274
0.0210554
0.0204514
0.0197888
0.0190513
0.0182344
0.017352
0.0164519
0.0156257
0.0149854
0.0146084
0.0144844
0.0310499
0.0311279
0.0309184
0.0305183
0.0300351
0.0295158
0.0289638
0.0283654
0.0277041
0.0269716
0.0261756
0.0253335
0.0244663
0.0235925
0.0227261
0.02187
0.0210847
0.0204454
0.0199387
0.0195113
0.019124
0.0187462
0.0183532
0.0179261
0.0174516
0.0169217
0.0163366
0.0157153
0.0151102
0.0146052
0.0142799
0.014158
0.0249637
0.0248208
0.0244003
0.0239315
0.0234715
0.0230354
0.0226195
0.0222085
0.0217835
0.0213315
0.0208513
0.0203497
0.0198371
0.0193237
0.0188171
0.0183193
0.0178646
0.0174958
0.0172051
0.0169621
0.0167444
0.0165348
0.0163193
0.0160873
0.0158307
0.0155438
0.0152236
0.0148744
0.0145179
0.0141985
0.0139723
0.0138754
0.0175271
0.0174131
0.0171945
0.0169874
0.0167994
0.0166299
0.016476
0.016331
0.0161863
0.016036
0.0158782
0.0157143
0.0155476
0.0153811
0.0152172
0.0150565
0.0149101
0.0147916
0.0146984
0.0146209
0.0145518
0.0144857
0.0144184
0.0143462
0.0142669
0.0141784
0.0140795
0.0139707
0.013857
0.0137503
0.0136684
0.0136287
)
;

boundaryField
{
    movingWall
    {
        type            fixedValue;
        value           uniform 0.0135;
    }
    fixedWalls
    {
        type            zeroGradient;
    }
    floor
    {
        type            zeroGradient;
    }
    frontAndBack
    {
        type            empty;
    }
}


// ************************************************************************* //
