/*--------------------------------*- C++ -*----------------------------------*\
| =========                 |                                                 |
| \\      /  F ield         | OpenFOAM: The Open Source CFD Toolbox           |
|  \\    /   O peration     | Version:  2212                                  |
|   \\  /    A nd           | Website:  www.openfoam.com                      |
|    \\/     M anipulation  |                                                 |
\*---------------------------------------------------------------------------*/
FoamFile
{
    version     2.0;
    format      ascii;
    arch        "LSB;label=64;scalar=64";
    class       volScalarField;
    location    "1150";
    object      Sch4;
}
// * * * * * * * * * * * * * * * * * * * * * * * * * * * * * * * * * * * * * //

dimensions      [1 -3 0 0 0 0 0];

internalField   nonuniform List<scalar> 
1024
(
0.0339621
0.0339722
0.0339967
0.0340413
0.0341117
0.034213
0.0343479
0.034515
0.0347077
0.0349158
0.0351255
0.0353199
0.0354764
0.0355642
0.0355665
0.0354829
0.0353191
0.0351078
0.0348792
0.0346432
0.0344065
0.0341753
0.0339572
0.0337602
0.033591
0.0334534
0.0333479
0.0332716
0.0332201
0.0331879
0.0331704
0.0331632
0.0339639
0.0339741
0.0339992
0.0340448
0.0341168
0.0342202
0.0343576
0.034527
0.0347219
0.0349319
0.0351434
0.0353396
0.0354973
0.0355848
0.0355856
0.0355004
0.0353353
0.0351228
0.0348934
0.0346566
0.0344192
0.0341872
0.033968
0.0337695
0.0335986
0.0334594
0.0333523
0.0332748
0.0332224
0.0331898
0.0331719
0.0331646
0.0339679
0.0339786
0.0340048
0.0340523
0.0341274
0.0342349
0.034377
0.0345515
0.0347513
0.0349664
0.0351836
0.0353859
0.0355482
0.0356353
0.035632
0.0355419
0.0353723
0.0351562
0.0349241
0.0346852
0.034446
0.0342123
0.0339908
0.0337893
0.033615
0.0334722
0.033362
0.033282
0.0332277
0.033194
0.0331755
0.033168
0.0339746
0.0339859
0.0340135
0.0340639
0.0341432
0.0342565
0.0344055
0.0345876
0.034796
0.0350212
0.0352507
0.0354668
0.03564
0.0357277
0.0357162
0.0356156
0.0354358
0.0352116
0.0349733
0.03473
0.0344875
0.0342507
0.0340257
0.0338199
0.0336405
0.0334925
0.0333774
0.0332935
0.0332365
0.0332011
0.0331817
0.0331738
0.0339839
0.0339958
0.0340252
0.0340787
0.034163
0.0342832
0.0344409
0.0346337
0.0348555
0.035098
0.0353499
0.0355911
0.0357845
0.0358748
0.0358502
0.0357309
0.0355324
0.0352926
0.0350426
0.0347909
0.0345424
0.0343008
0.0340711
0.0338598
0.033674
0.0335194
0.0333983
0.0333094
0.0332489
0.0332112
0.0331907
0.0331824
0.0339952
0.0340077
0.0340387
0.0340953
0.0341846
0.0343123
0.0344804
0.0346873
0.0349285
0.0351982
0.0354858
0.035767
0.0359917
0.0360884
0.036046
0.0358979
0.0356689
0.0354028
0.0351326
0.0348663
0.0346078
0.034359
0.0341231
0.0339054
0.0337126
0.0335507
0.0334229
0.0333287
0.0332642
0.0332241
0.0332022
0.0331934
0.0340073
0.0340202
0.0340525
0.0341117
0.0342056
0.0343406
0.0345204
0.0347451
0.0350134
0.0353222
0.0356615
0.0359996
0.036268
0.0363764
0.0363128
0.0361252
0.0358514
0.0355451
0.0352429
0.0349533
0.0346787
0.034419
0.0341751
0.0339505
0.0337508
0.0335821
0.0334482
0.0333489
0.0332808
0.0332384
0.0332154
0.0332061
0.0340186
0.0340319
0.0340649
0.0341258
0.0342233
0.0343652
0.0345575
0.0348042
0.0351077
0.0354692
0.0358779
0.0362908
0.0366148
0.0367408
0.0366546
0.0364175
0.0360836
0.0357204
0.0353715
0.0350469
0.034748
0.0344725
0.0342183
0.0339864
0.033781
0.0336073
0.0334691
0.0333664
0.033296
0.0332521
0.0332283
0.0332188
0.0340276
0.0340409
0.0340742
0.0341359
0.0342357
0.0343836
0.0345893
0.0348616
0.0352092
0.0356379
0.0361352
0.0366405
0.0370308
0.0371792
0.0370696
0.0367752
0.0363669
0.0359285
0.035515
0.0351405
0.0348069
0.0345092
0.034242
0.034003
0.033794
0.0336186
0.0334796
0.0333767
0.0333062
0.0332623
0.0332385
0.0332289
0.034033
0.0340463
0.0340794
0.034141
0.0342419
0.0343951
0.0346148
0.0349168
0.0353181
0.0358305
0.036437
0.0370522
0.0375168
0.0376893
0.0375554
0.0371989
0.0367047
0.0361723
0.0356734
0.0352305
0.0348483
0.0345199
0.0342361
0.0339906
0.0337812
0.0336088
0.0334739
0.0333751
0.0333078
0.0332661
0.0332435
0.0332344
0.0340361
0.0340491
0.0340815
0.0341423
0.0342437
0.0344019
0.0346371
0.0349745
0.0354418
0.0360583
0.0367977
0.0375392
0.0380831
0.0382778
0.0381203
0.0377041
0.0371198
0.0364768
0.0358679
0.0353308
0.034879
0.0345059
0.0341987
0.0339455
0.0337389
0.0335747
0.0334498
0.0333603
0.0333006
0.0332641
0.0332448
0.0332371
0.0340449
0.034057
0.034088
0.0341475
0.0342497
0.0344144
0.0346695
0.0350521
0.0356038
0.0363509
0.037249
0.0381296
0.0387535
0.0389699
0.0387999
0.038347
0.03769
0.0369324
0.0361881
0.0355192
0.03496
0.0345125
0.0341616
0.0338904
0.0336838
0.0335301
0.0334203
0.0333465
0.0333008
0.0332758
0.0332645
0.0332609
0.034085
0.0340953
0.0341238
0.0341818
0.0342865
0.0344632
0.0347491
0.0351952
0.0358583
0.036767
0.0378445
0.038867
0.039568
0.039819
0.0396798
0.0392585
0.0385994
0.037773
0.0368988
0.0360641
0.0353353
0.0347453
0.0342914
0.0339573
0.0337228
0.0335676
0.0334733
0.0334242
0.0334064
0.0334071
0.0334152
0.033422
0.0342169
0.0342244
0.0342492
0.0343062
0.0344183
0.0346189
0.0349568
0.0354972
0.0363062
0.0374009
0.038658
0.039806
0.040583
0.0409152
0.040909
0.0406656
0.0401758
0.0394468
0.0385671
0.0376293
0.0367228
0.0359163
0.0352515
0.0347403
0.0343823
0.0341636
0.0340567
0.0340292
0.0340503
0.0340919
0.0341318
0.0341553
0.0345453
0.0345493
0.0345705
0.0346298
0.0347589
0.0350035
0.0354257
0.0361002
0.0370866
0.038365
0.0397607
0.040991
0.0418529
0.0423552
0.0426365
0.0427809
0.0427369
0.0424403
0.0419085
0.0412009
0.0403878
0.0395414
0.0387298
0.0380013
0.0374
0.0369553
0.0366685
0.0365193
0.036473
0.0364866
0.0365201
0.0365447
0.0351852
0.0351876
0.0352101
0.0352809
0.0354419
0.0357502
0.0362764
0.03709
0.0382204
0.0395989
0.0410329
0.0422923
0.043264
0.0440084
0.0446522
0.0452683
0.0458138
0.0462027
0.0463916
0.0463835
0.0461882
0.0458257
0.0453263
0.0447331
0.0440969
0.0434723
0.0429117
0.0424597
0.042141
0.0419512
0.0418612
0.0418335
0.0360119
0.0360129
0.0360341
0.0361059
0.0362726
0.036592
0.0371291
0.0379374
0.0390263
0.0403292
0.0417011
0.0429742
0.0440508
0.0449497
0.0457493
0.0465147
0.0472472
0.0479408
0.0485902
0.0491763
0.0496619
0.0500102
0.0501936
0.0501987
0.0500308
0.0497184
0.0493142
0.0488866
0.0485032
0.0482141
0.0480378
0.0479636
0.0367516
0.0367514
0.036768
0.0368288
0.0369739
0.0372552
0.0377298
0.0384434
0.0394049
0.0405665
0.0418205
0.0430297
0.0440865
0.0449565
0.0456602
0.0462338
0.0467098
0.0471923
0.047768
0.0484383
0.0491562
0.0498603
0.0504923
0.0510041
0.0513648
0.0515637
0.0516124
0.0515441
0.0514092
0.0512639
0.0511529
0.0510976
0.0373133
0.0373127
0.037325
0.0373726
0.0374891
0.0377188
0.0381112
0.038708
0.0395235
0.040528
0.0416413
0.0427486
0.043739
0.0445446
0.0451447
0.0455508
0.0458076
0.04608
0.0465171
0.0471519
0.047946
0.0488256
0.0497038
0.0504991
0.051153
0.0516367
0.0519502
0.0521157
0.0521706
0.0521604
0.0521283
0.0521052
0.0377251
0.0377245
0.0377335
0.03777
0.0378608
0.0380427
0.0383576
0.0388437
0.0395189
0.0403676
0.0413319
0.0423187
0.0432253
0.0439715
0.0445153
0.0448541
0.0450352
0.0452298
0.0455918
0.0461779
0.0469799
0.0479454
0.048988
0.0500023
0.0508926
0.0515967
0.0520937
0.0523991
0.0525526
0.052605
0.0526064
0.0525958
0.0380326
0.0380312
0.0380365
0.0380625
0.0381312
0.0382726
0.0385222
0.038913
0.0394641
0.0401686
0.0409863
0.0418459
0.0426612
0.0433565
0.043885
0.0442393
0.0444632
0.0446984
0.045068
0.045633
0.0464078
0.0473704
0.0484614
0.0495851
0.0506334
0.0515149
0.0521777
0.0526159
0.0528605
0.0529651
0.0529894
0.0529849
0.0382976
0.038293
0.0382903
0.0383018
0.0383467
0.0384507
0.0386441
0.038955
0.0394009
0.0399802
0.040666
0.0414073
0.042139
0.0427995
0.0433481
0.0437792
0.0441232
0.0444708
0.0449055
0.045484
0.0462331
0.0471546
0.0482174
0.0493532
0.0504666
0.0514562
0.0522442
0.0527973
0.0531288
0.0532863
0.053334
0.053335
0.0385993
0.0385871
0.0385684
0.0385555
0.0385676
0.0386301
0.0387704
0.0390134
0.0393745
0.0398553
0.0404393
0.0410924
0.0417693
0.0424251
0.0430283
0.0435761
0.0440759
0.0445592
0.0450751
0.0456764
0.0463986
0.0472609
0.0482538
0.0493345
0.0504313
0.0514548
0.0523167
0.0529577
0.0533661
0.0535757
0.0536486
0.0536558
0.0390261
0.0390007
0.0389559
0.0389061
0.0388741
0.038888
0.038977
0.0391653
0.039468
0.0398883
0.0404162
0.0410288
0.0416945
0.0423801
0.0430613
0.0437356
0.0443833
0.0449832
0.0455614
0.0461703
0.0468514
0.0476351
0.04853
0.0495149
0.0505395
0.0515332
0.0524139
0.053108
0.053578
0.053836
0.0539353
0.0539497
0.0396595
0.0396156
0.0395369
0.0394433
0.039364
0.0393328
0.0393829
0.039541
0.039822
0.0402283
0.0407508
0.04137
0.0420597
0.0427926
0.0435478
0.0443211
0.0450701
0.0457375
0.0463386
0.0469271
0.0475473
0.0482352
0.0490109
0.0498707
0.0507852
0.0517021
0.0525521
0.0532602
0.0537703
0.0540696
0.0541951
0.0542179
0.0405605
0.0404946
0.0403824
0.0402547
0.0401479
0.0400992
0.040144
0.0403103
0.0406101
0.0410415
0.0415912
0.0422378
0.0429557
0.0437202
0.0445119
0.0453258
0.0461067
0.0467811
0.0473603
0.0478989
0.0484405
0.0490214
0.0496665
0.0503838
0.0511614
0.0519663
0.0527446
0.0534278
0.0539508
0.0542794
0.0544291
0.0544612
0.0417655
0.0416784
0.0415486
0.0414221
0.0413366
0.0413231
0.0414108
0.0416233
0.0419664
0.0424327
0.0430051
0.0436606
0.0443743
0.0451241
0.0458933
0.0466769
0.0474183
0.0480435
0.0485631
0.0490285
0.0494799
0.0499498
0.050463
0.0510333
0.0516605
0.0523286
0.0530019
0.0536239
0.0541294
0.0544696
0.0546383
0.0546804
0.0432965
0.043197
0.0430868
0.0430205
0.0430203
0.0430961
0.0432624
0.0435334
0.0439096
0.0443833
0.0449385
0.0455545
0.04621
0.0468871
0.0475723
0.0482622
0.0489064
0.0494404
0.0498744
0.0502527
0.0506094
0.0509713
0.05136
0.0517898
0.0522667
0.0527866
0.0533309
0.0538601
0.054317
0.0546466
0.0548246
0.0548757
0.0451792
0.0450898
0.0450565
0.0451105
0.0452358
0.0454169
0.0456546
0.0459556
0.0463222
0.0467522
0.0472352
0.0477566
0.0483009
0.0488549
0.0494089
0.0499607
0.0504707
0.0508887
0.0512234
0.0515095
0.0517734
0.0520353
0.052312
0.0526156
0.0529536
0.0533281
0.0537326
0.0541454
0.0545243
0.054818
0.054991
0.0550478
0.0474652
0.0474296
0.0475254
0.0477086
0.0479298
0.0481674
0.0484201
0.0486939
0.0489965
0.0493315
0.0496956
0.0500808
0.0504774
0.050877
0.0512733
0.0516648
0.052024
0.0523164
0.0525483
0.0527439
0.0529212
0.0530942
0.0532742
0.0534699
0.0536874
0.0539303
0.0541985
0.0544834
0.0547609
0.0549926
0.0551418
0.0551977
0.0502516
0.050317
0.0505095
0.0507241
0.0509347
0.0511343
0.0513247
0.0515127
0.0517072
0.051914
0.0521337
0.0523631
0.0525976
0.0528324
0.053064
0.0532917
0.0534997
0.0536684
0.0538014
0.0539126
0.0540123
0.0541083
0.0542069
0.0543132
0.0544308
0.0545623
0.0547092
0.0548692
0.0550327
0.0551793
0.0552831
0.0553275
0.0536562
0.0537084
0.0538085
0.0539033
0.0539894
0.054067
0.0541374
0.0542038
0.05427
0.0543388
0.054411
0.0544859
0.0545622
0.0546383
0.0547133
0.0547867
0.0548537
0.0549079
0.0549506
0.0549861
0.0550177
0.0550479
0.0550788
0.0551118
0.0551482
0.0551888
0.0552341
0.055284
0.0553361
0.0553851
0.0554226
0.0554409
)
;

boundaryField
{
    movingWall
    {
        type            fixedValue;
        value           uniform 0.0555;
    }
    fixedWalls
    {
        type            zeroGradient;
    }
    floor
    {
        type            zeroGradient;
    }
    frontAndBack
    {
        type            empty;
    }
}


// ************************************************************************* //
