/*--------------------------------*- C++ -*----------------------------------*\
| =========                 |                                                 |
| \\      /  F ield         | OpenFOAM: The Open Source CFD Toolbox           |
|  \\    /   O peration     | Version:  2212                                  |
|   \\  /    A nd           | Website:  www.openfoam.com                      |
|    \\/     M anipulation  |                                                 |
\*---------------------------------------------------------------------------*/
FoamFile
{
    version     2.0;
    format      ascii;
    arch        "LSB;label=64;scalar=64";
    class       volScalarField;
    location    "1150";
    object      SIC;
}
// * * * * * * * * * * * * * * * * * * * * * * * * * * * * * * * * * * * * * //

dimensions      [1 -3 0 0 0 0 0];

internalField   nonuniform List<scalar> 
1024
(
0.0910444
0.0910463
0.0910509
0.0910593
0.0910726
0.0910917
0.0911171
0.0911485
0.0911848
0.091224
0.0912635
0.0913001
0.0913295
0.0913461
0.0913465
0.0913308
0.0912999
0.0912601
0.0912171
0.0911726
0.0911281
0.0910845
0.0910435
0.0910064
0.0909745
0.0909486
0.0909287
0.0909144
0.0909047
0.0908986
0.0908953
0.090894
0.0910447
0.0910467
0.0910514
0.09106
0.0910735
0.091093
0.0911189
0.0911508
0.0911875
0.091227
0.0912668
0.0913038
0.0913335
0.0913499
0.0913501
0.0913341
0.091303
0.091263
0.0912198
0.0911752
0.0911305
0.0910868
0.0910455
0.0910081
0.0909759
0.0909497
0.0909296
0.090915
0.0909051
0.090899
0.0908956
0.0908942
0.0910455
0.0910475
0.0910524
0.0910614
0.0910755
0.0910958
0.0911225
0.0911554
0.091193
0.0912335
0.0912744
0.0913125
0.0913431
0.0913595
0.0913588
0.0913419
0.0913099
0.0912692
0.0912255
0.0911806
0.0911355
0.0910915
0.0910498
0.0910119
0.090979
0.0909522
0.0909314
0.0909163
0.0909061
0.0908998
0.0908963
0.0908949
0.0910468
0.0910489
0.0910541
0.0910636
0.0910785
0.0910998
0.0911279
0.0911622
0.0912014
0.0912438
0.091287
0.0913277
0.0913604
0.0913769
0.0913747
0.0913557
0.0913219
0.0912797
0.0912348
0.091189
0.0911433
0.0910987
0.0910564
0.0910176
0.0909838
0.090956
0.0909343
0.0909185
0.0909078
0.0909011
0.0908974
0.090896
0.0910485
0.0910508
0.0910563
0.0910664
0.0910822
0.0911049
0.0911346
0.0911709
0.0912126
0.0912583
0.0913057
0.0913511
0.0913876
0.0914046
0.0913999
0.0913775
0.0913401
0.0912949
0.0912478
0.0912004
0.0911537
0.0911082
0.0910649
0.0910251
0.0909902
0.090961
0.0909382
0.0909215
0.0909101
0.090903
0.0908991
0.0908976
0.0910506
0.091053
0.0910588
0.0910695
0.0910863
0.0911103
0.091142
0.091181
0.0912264
0.0912772
0.0913313
0.0913843
0.0914266
0.0914448
0.0914368
0.0914089
0.0913658
0.0913157
0.0912648
0.0912147
0.091166
0.0911191
0.0910747
0.0910337
0.0909974
0.0909669
0.0909429
0.0909251
0.090913
0.0909054
0.0909013
0.0908997
0.0910529
0.0910554
0.0910614
0.0910726
0.0910903
0.0911157
0.0911495
0.0911919
0.0912424
0.0913005
0.0913644
0.0914281
0.0914786
0.091499
0.091487
0.0914517
0.0914001
0.0913425
0.0912856
0.091231
0.0911793
0.0911304
0.0910845
0.0910422
0.0910046
0.0909728
0.0909476
0.0909289
0.0909161
0.0909081
0.0909038
0.0909021
0.091055
0.0910575
0.0910638
0.0910752
0.0910936
0.0911203
0.0911565
0.091203
0.0912601
0.0913282
0.0914052
0.0914829
0.0915439
0.0915676
0.0915514
0.0915068
0.0914439
0.0913755
0.0913098
0.0912487
0.0911924
0.0911405
0.0910926
0.091049
0.0910103
0.0909776
0.0909516
0.0909322
0.090919
0.0909107
0.0909062
0.0909044
0.0910567
0.0910593
0.0910655
0.0910771
0.0910959
0.0911238
0.0911625
0.0912138
0.0912792
0.09136
0.0914536
0.0915488
0.0916222
0.0916502
0.0916295
0.0915741
0.0914972
0.0914147
0.0913368
0.0912663
0.0912035
0.0911474
0.0910971
0.0910521
0.0910127
0.0909797
0.0909535
0.0909342
0.0909209
0.0909126
0.0909081
0.0909063
0.0910578
0.0910603
0.0910665
0.0910781
0.0910971
0.0911259
0.0911673
0.0912242
0.0912997
0.0913962
0.0915104
0.0916263
0.0917137
0.0917462
0.091721
0.0916539
0.0915608
0.0914606
0.0913666
0.0912832
0.0912113
0.0911494
0.091096
0.0910498
0.0910103
0.0909779
0.0909525
0.0909339
0.0909212
0.0909133
0.0909091
0.0909074
0.0910584
0.0910608
0.0910669
0.0910783
0.0910974
0.0911272
0.0911715
0.091235
0.091323
0.0914391
0.0915784
0.091718
0.0918204
0.091857
0.0918274
0.091749
0.091639
0.0915179
0.0914033
0.0913021
0.091217
0.0911468
0.0910889
0.0910413
0.0910024
0.0909714
0.0909479
0.0909311
0.0909198
0.090913
0.0909093
0.0909079
0.09106
0.0910623
0.0910681
0.0910793
0.0910986
0.0911296
0.0911776
0.0912497
0.0913535
0.0914942
0.0916633
0.0918291
0.0919466
0.0919874
0.0919554
0.0918701
0.0917464
0.0916037
0.0914635
0.0913376
0.0912323
0.091148
0.091082
0.0910309
0.090992
0.0909631
0.0909424
0.0909285
0.0909199
0.0909152
0.090913
0.0909124
0.0910676
0.0910695
0.0910749
0.0910858
0.0911055
0.0911388
0.0911926
0.0912766
0.0914015
0.0915726
0.0917755
0.091968
0.0921
0.0921473
0.092121
0.0920417
0.0919176
0.091762
0.0915974
0.0914402
0.091303
0.0911919
0.0911064
0.0910435
0.0909993
0.0909701
0.0909524
0.0909431
0.0909397
0.0909399
0.0909414
0.0909427
0.0910924
0.0910938
0.0910985
0.0911092
0.0911303
0.0911681
0.0912317
0.0913335
0.0914858
0.0916919
0.0919286
0.0921448
0.0922911
0.0923537
0.0923525
0.0923067
0.0922145
0.0920772
0.0919115
0.0917349
0.0915642
0.0914124
0.0912872
0.0911909
0.0911235
0.0910823
0.0910622
0.091057
0.091061
0.0910688
0.0910764
0.0910808
0.0911542
0.091155
0.091159
0.0911701
0.0911945
0.0912405
0.09132
0.091447
0.0916328
0.0918735
0.0921363
0.092368
0.0925302
0.0926248
0.0926778
0.092705
0.0926967
0.0926409
0.0925407
0.0924075
0.0922544
0.092095
0.0919422
0.091805
0.0916918
0.091608
0.091554
0.0915259
0.0915172
0.0915198
0.0915261
0.0915307
0.0912747
0.0912752
0.0912794
0.0912927
0.091323
0.0913811
0.0914802
0.0916334
0.0918462
0.0921058
0.0923758
0.092613
0.092796
0.0929361
0.0930574
0.0931734
0.0932761
0.0933493
0.0933849
0.0933834
0.0933466
0.0932783
0.0931843
0.0930726
0.0929528
0.0928352
0.0927296
0.0926445
0.0925845
0.0925488
0.0925318
0.0925266
0.0914304
0.0914306
0.0914346
0.0914481
0.0914795
0.0915396
0.0916408
0.091793
0.091998
0.0922433
0.0925017
0.0927414
0.0929441
0.0931134
0.093264
0.0934081
0.093546
0.0936766
0.0937989
0.0939092
0.0940007
0.0940663
0.0941008
0.0941018
0.0940702
0.0940113
0.0939352
0.0938547
0.0937825
0.0937281
0.0936949
0.0936809
0.0915697
0.0915696
0.0915728
0.0915842
0.0916115
0.0916645
0.0917539
0.0918882
0.0920693
0.092288
0.0925242
0.0927518
0.0929508
0.0931147
0.0932472
0.0933552
0.0934448
0.0935357
0.0936441
0.0937703
0.0939055
0.0940381
0.094157
0.0942534
0.0943213
0.0943588
0.094368
0.0943551
0.0943297
0.0943023
0.0942814
0.094271
0.0916754
0.0916753
0.0916776
0.0916866
0.0917085
0.0917518
0.0918257
0.0919381
0.0920916
0.0922808
0.0924904
0.0926989
0.0928854
0.0930371
0.0931501
0.0932266
0.0932749
0.0933262
0.0934085
0.0935281
0.0936776
0.0938432
0.0940086
0.0941583
0.0942815
0.0943725
0.0944316
0.0944627
0.0944731
0.0944712
0.0944651
0.0944608
0.091753
0.0917529
0.0917546
0.0917614
0.0917785
0.0918128
0.0918721
0.0919636
0.0920908
0.0922506
0.0924321
0.092618
0.0927887
0.0929292
0.0930316
0.0930954
0.0931295
0.0931661
0.0932343
0.0933447
0.0934957
0.0936775
0.0938738
0.0940648
0.0942324
0.094365
0.0944586
0.0945161
0.094545
0.0945549
0.0945551
0.0945531
0.0918109
0.0918106
0.0918116
0.0918165
0.0918295
0.0918561
0.0919031
0.0919767
0.0920804
0.0922131
0.0923671
0.0925289
0.0926825
0.0928134
0.0929129
0.0929796
0.0930218
0.0930661
0.0931357
0.0932421
0.0933879
0.0935692
0.0937746
0.0939862
0.0941836
0.0943496
0.0944744
0.0945569
0.094603
0.0946227
0.0946273
0.0946264
0.0918608
0.0918599
0.0918594
0.0918616
0.09187
0.0918896
0.091926
0.0919846
0.0920685
0.0921776
0.0923068
0.0924463
0.0925841
0.0927085
0.0928118
0.092893
0.0929578
0.0930232
0.0931051
0.093214
0.093355
0.0935286
0.0937287
0.0939426
0.0941522
0.0943385
0.0944869
0.0945911
0.0946535
0.0946831
0.0946921
0.0946923
0.0919176
0.0919153
0.0919118
0.0919093
0.0919116
0.0919234
0.0919498
0.0919956
0.0920636
0.0921541
0.0922641
0.092387
0.0925145
0.092638
0.0927516
0.0928547
0.0929488
0.0930398
0.093137
0.0932502
0.0933862
0.0935486
0.0937355
0.093939
0.0941456
0.0943383
0.0945006
0.0946213
0.0946982
0.0947377
0.0947514
0.0947527
0.091998
0.0919932
0.0919847
0.0919754
0.0919693
0.091972
0.0919887
0.0920242
0.0920812
0.0921603
0.0922597
0.0923751
0.0925004
0.0926295
0.0927578
0.0928848
0.0930067
0.0931197
0.0932286
0.0933432
0.0934715
0.0936191
0.0937876
0.093973
0.0941659
0.094353
0.0945189
0.0946496
0.0947381
0.0947867
0.0948054
0.0948081
0.0921172
0.092109
0.0920941
0.0920765
0.0920616
0.0920557
0.0920651
0.0920949
0.0921478
0.0922243
0.0923227
0.0924393
0.0925692
0.0927072
0.0928494
0.092995
0.0931361
0.0932617
0.0933749
0.0934857
0.0936025
0.093732
0.0938781
0.09404
0.0942122
0.0943849
0.0945449
0.0946783
0.0947743
0.0948307
0.0948543
0.0948586
0.0922869
0.0922745
0.0922533
0.0922293
0.0922092
0.0922
0.0922085
0.0922398
0.0922962
0.0923775
0.092481
0.0926027
0.0927379
0.0928819
0.0930309
0.0931842
0.0933312
0.0934582
0.0935673
0.0936687
0.0937707
0.0938801
0.0940015
0.0941366
0.094283
0.0944346
0.0945812
0.0947098
0.0948083
0.0948702
0.0948983
0.0949044
0.0925138
0.0924974
0.092473
0.0924491
0.092433
0.0924305
0.092447
0.092487
0.0925516
0.0926394
0.0927472
0.0928706
0.093005
0.0931462
0.093291
0.0934386
0.0935782
0.0936959
0.0937938
0.0938814
0.0939664
0.0940549
0.0941515
0.0942589
0.094377
0.0945028
0.0946296
0.0947467
0.0948419
0.094906
0.0949377
0.0949457
0.0928021
0.0927833
0.0927626
0.0927501
0.0927501
0.0927643
0.0927957
0.0928467
0.0929175
0.0930067
0.0931113
0.0932273
0.0933507
0.0934782
0.0936072
0.0937371
0.0938584
0.093959
0.0940407
0.0941119
0.0941791
0.0942473
0.0943204
0.0944014
0.0944912
0.0945891
0.0946916
0.0947912
0.0948772
0.0949393
0.0949728
0.0949824
0.0931566
0.0931398
0.0931335
0.0931437
0.0931673
0.0932013
0.0932461
0.0933028
0.0933718
0.0934528
0.0935437
0.0936419
0.0937444
0.0938487
0.093953
0.0940569
0.094153
0.0942317
0.0942947
0.0943486
0.0943983
0.0944476
0.0944997
0.0945569
0.0946205
0.094691
0.0947672
0.0948449
0.0949163
0.0949716
0.0950041
0.0950149
0.0935871
0.0935803
0.0935984
0.0936329
0.0936745
0.0937193
0.0937668
0.0938184
0.0938754
0.0939385
0.094007
0.0940796
0.0941542
0.0942295
0.0943041
0.0943778
0.0944455
0.0945005
0.0945442
0.094581
0.0946144
0.094647
0.0946809
0.0947177
0.0947587
0.0948044
0.0948549
0.0949086
0.0949608
0.0950045
0.0950326
0.0950431
0.0941117
0.094124
0.0941603
0.0942007
0.0942403
0.0942779
0.0943138
0.0943492
0.0943858
0.0944248
0.0944661
0.0945093
0.0945535
0.0945977
0.0946413
0.0946842
0.0947233
0.0947551
0.0947802
0.0948011
0.0948199
0.0948379
0.0948565
0.0948765
0.0948987
0.0949234
0.0949511
0.0949812
0.095012
0.0950396
0.0950592
0.0950675
0.0947528
0.0947626
0.0947815
0.0947993
0.0948155
0.0948302
0.0948434
0.0948559
0.0948684
0.0948813
0.0948949
0.094909
0.0949234
0.0949377
0.0949519
0.0949657
0.0949783
0.0949885
0.0949965
0.0950032
0.0950092
0.0950149
0.0950207
0.0950269
0.0950338
0.0950414
0.0950499
0.0950593
0.0950691
0.0950784
0.0950854
0.0950889
)
;

boundaryField
{
    movingWall
    {
        type            fixedValue;
        value           uniform 0.0951;
    }
    fixedWalls
    {
        type            zeroGradient;
    }
    floor
    {
        type            zeroGradient;
    }
    frontAndBack
    {
        type            empty;
    }
}


// ************************************************************************* //
