/*--------------------------------*- C++ -*----------------------------------*\
| =========                 |                                                 |
| \\      /  F ield         | OpenFOAM: The Open Source CFD Toolbox           |
|  \\    /   O peration     | Version:  2212                                  |
|   \\  /    A nd           | Website:  www.openfoam.com                      |
|    \\/     M anipulation  |                                                 |
\*---------------------------------------------------------------------------*/
FoamFile
{
    version     2.0;
    format      ascii;
    arch        "LSB;label=64;scalar=64";
    class       volScalarField;
    location    "1150";
    object      T;
}
// * * * * * * * * * * * * * * * * * * * * * * * * * * * * * * * * * * * * * //

dimensions      [0 0 0 1 0 0 0];

internalField   nonuniform List<scalar> 
1024
(
309.997
309.997
309.996
309.996
309.995
309.995
309.994
309.993
309.991
309.99
309.989
309.987
309.986
309.987
309.988
309.99
309.991
309.992
309.992
309.993
309.994
309.994
309.995
309.995
309.996
309.996
309.997
309.997
309.997
309.997
309.997
309.997
309.989
309.989
309.989
309.987
309.985
309.983
309.98
309.977
309.973
309.969
309.965
309.961
309.958
309.959
309.963
309.967
309.971
309.974
309.976
309.978
309.98
309.982
309.983
309.985
309.986
309.988
309.989
309.99
309.991
309.992
309.992
309.992
309.982
309.981
309.98
309.978
309.974
309.97
309.964
309.959
309.953
309.946
309.939
309.932
309.927
309.93
309.936
309.942
309.948
309.953
309.958
309.961
309.965
309.968
309.971
309.973
309.976
309.978
309.981
309.983
309.984
309.985
309.986
309.986
309.973
309.972
309.971
309.967
309.962
309.955
309.948
309.939
309.931
309.921
309.911
309.903
309.897
309.9
309.907
309.916
309.924
309.931
309.937
309.943
309.947
309.952
309.956
309.96
309.964
309.968
309.971
309.974
309.977
309.978
309.979
309.979
309.964
309.964
309.961
309.956
309.949
309.94
309.93
309.92
309.909
309.897
309.887
309.877
309.871
309.873
309.881
309.89
309.899
309.907
309.915
309.922
309.929
309.935
309.94
309.946
309.951
309.956
309.961
309.965
309.969
309.971
309.972
309.972
309.956
309.955
309.952
309.946
309.937
309.926
309.914
309.902
309.89
309.878
309.867
309.858
309.852
309.853
309.859
309.867
309.876
309.885
309.893
309.902
309.909
309.916
309.923
309.93
309.937
309.944
309.95
309.956
309.96
309.963
309.964
309.964
309.948
309.947
309.943
309.937
309.927
309.914
309.901
309.887
309.875
309.864
309.854
309.846
309.84
309.84
309.844
309.85
309.857
309.865
309.874
309.882
309.891
309.899
309.907
309.915
309.923
309.931
309.939
309.946
309.951
309.955
309.956
309.957
309.94
309.939
309.936
309.929
309.918
309.905
309.891
309.878
309.866
309.856
309.847
309.839
309.833
309.832
309.835
309.84
309.845
309.851
309.858
309.866
309.874
309.883
309.891
309.9
309.91
309.919
309.928
309.937
309.943
309.947
309.949
309.949
309.934
309.933
309.93
309.923
309.912
309.899
309.886
309.873
309.862
309.853
309.844
309.835
309.83
309.829
309.831
309.834
309.838
309.843
309.848
309.854
309.862
309.87
309.879
309.888
309.898
309.909
309.919
309.928
309.935
309.94
309.941
309.942
309.928
309.928
309.925
309.919
309.909
309.897
309.884
309.872
309.862
309.852
309.842
309.832
309.827
309.827
309.829
309.832
309.836
309.84
309.843
309.848
309.854
309.861
309.87
309.88
309.89
309.902
309.913
309.922
309.929
309.933
309.935
309.935
309.924
309.923
309.921
309.916
309.908
309.897
309.885
309.874
309.864
309.853
309.84
309.83
309.825
309.826
309.828
309.832
309.836
309.84
309.843
309.846
309.851
309.858
309.866
309.875
309.886
309.898
309.909
309.918
309.924
309.928
309.929
309.93
309.92
309.92
309.918
309.914
309.908
309.899
309.889
309.878
309.867
309.853
309.837
309.827
309.824
309.825
309.828
309.832
309.837
309.842
309.847
309.85
309.853
309.859
309.867
309.877
309.887
309.898
309.908
309.915
309.92
309.923
309.924
309.924
309.916
309.916
309.915
309.912
309.908
309.901
309.892
309.881
309.868
309.851
309.833
309.823
309.821
309.823
309.826
309.831
309.836
309.843
309.85
309.856
309.861
309.867
309.874
309.882
309.891
309.9
309.908
309.913
309.917
309.918
309.919
309.919
309.909
309.91
309.91
309.908
309.905
309.9
309.891
309.88
309.864
309.843
309.826
309.818
309.817
309.819
309.821
309.825
309.83
309.837
309.845
309.855
309.864
309.873
309.881
309.888
309.895
309.901
309.906
309.91
309.911
309.912
309.912
309.912
309.898
309.899
309.899
309.899
309.898
309.893
309.883
309.868
309.848
309.827
309.815
309.811
309.81
309.81
309.81
309.81
309.812
309.816
309.822
309.829
309.838
309.848
309.86
309.872
309.883
309.891
309.895
309.897
309.898
309.898
309.898
309.897
309.879
309.88
309.882
309.883
309.882
309.877
309.865
309.847
309.826
309.808
309.798
309.794
309.791
309.79
309.789
309.788
309.787
309.787
309.789
309.791
309.793
309.797
309.801
309.806
309.813
309.822
309.833
309.843
309.85
309.854
309.856
309.856
309.859
309.861
309.863
309.865
309.865
309.86
309.849
309.832
309.814
309.8
309.791
309.785
309.781
309.777
309.774
309.772
309.772
309.772
309.772
309.773
309.775
309.776
309.778
309.779
309.781
309.782
309.784
309.787
309.79
309.793
309.795
309.796
309.843
309.845
309.847
309.85
309.85
309.847
309.838
309.824
309.809
309.796
309.787
309.781
309.776
309.772
309.769
309.766
309.765
309.765
309.766
309.768
309.769
309.771
309.773
309.775
309.776
309.777
309.778
309.778
309.778
309.779
309.779
309.779
309.831
309.832
309.835
309.837
309.839
309.837
309.831
309.82
309.807
309.795
309.787
309.78
309.775
309.77
309.766
309.763
309.761
309.76
309.762
309.764
309.766
309.769
309.771
309.773
309.775
309.776
309.777
309.778
309.778
309.778
309.778
309.778
309.821
309.823
309.825
309.828
309.829
309.829
309.824
309.816
309.806
309.796
309.787
309.781
309.775
309.77
309.766
309.762
309.759
309.758
309.759
309.761
309.763
309.766
309.769
309.772
309.774
309.776
309.778
309.778
309.779
309.779
309.779
309.779
309.814
309.815
309.817
309.82
309.822
309.822
309.819
309.813
309.805
309.796
309.788
309.782
309.776
309.771
309.767
309.763
309.761
309.759
309.759
309.76
309.762
309.765
309.768
309.771
309.774
309.776
309.778
309.779
309.779
309.779
309.779
309.779
309.809
309.81
309.812
309.814
309.816
309.816
309.815
309.81
309.804
309.796
309.789
309.783
309.778
309.773
309.769
309.766
309.763
309.762
309.761
309.762
309.763
309.765
309.767
309.77
309.773
309.776
309.778
309.779
309.78
309.78
309.78
309.78
309.805
309.806
309.807
309.809
309.811
309.812
309.811
309.808
309.803
309.796
309.79
309.785
309.78
309.775
309.771
309.768
309.766
309.765
309.764
309.764
309.765
309.766
309.768
309.771
309.773
309.776
309.778
309.779
309.78
309.78
309.78
309.78
309.802
309.803
309.804
309.806
309.807
309.808
309.808
309.805
309.801
309.796
309.791
309.786
309.781
309.777
309.774
309.771
309.769
309.768
309.767
309.767
309.768
309.768
309.77
309.772
309.774
309.776
309.778
309.779
309.78
309.781
309.781
309.781
309.8
309.801
309.802
309.803
309.805
309.805
309.805
309.803
309.8
309.796
309.791
309.787
309.783
309.78
309.777
309.774
309.772
309.771
309.77
309.77
309.77
309.771
309.772
309.773
309.775
309.776
309.778
309.779
309.78
309.781
309.781
309.781
309.799
309.799
309.8
309.801
309.802
309.803
309.803
309.801
309.799
309.795
309.792
309.788
309.785
309.782
309.779
309.777
309.775
309.774
309.774
309.773
309.773
309.774
309.774
309.775
309.776
309.777
309.779
309.78
309.781
309.781
309.781
309.781
309.798
309.798
309.799
309.8
309.801
309.801
309.801
309.8
309.798
309.795
309.792
309.789
309.786
309.784
309.782
309.78
309.778
309.777
309.777
309.776
309.776
309.776
309.777
309.777
309.778
309.778
309.779
309.78
309.781
309.781
309.782
309.782
309.797
309.798
309.798
309.799
309.799
309.8
309.799
309.798
309.797
309.795
309.792
309.79
309.788
309.786
309.784
309.782
309.781
309.78
309.78
309.779
309.779
309.779
309.779
309.779
309.779
309.78
309.78
309.781
309.781
309.782
309.782
309.782
309.797
309.797
309.797
309.798
309.798
309.798
309.798
309.797
309.796
309.794
309.793
309.791
309.79
309.788
309.786
309.785
309.784
309.783
309.782
309.782
309.781
309.781
309.781
309.781
309.781
309.781
309.781
309.781
309.782
309.782
309.782
309.782
309.796
309.797
309.797
309.797
309.797
309.797
309.797
309.796
309.796
309.795
309.794
309.792
309.791
309.79
309.788
309.787
309.786
309.785
309.784
309.784
309.783
309.783
309.782
309.782
309.782
309.782
309.782
309.782
309.782
309.782
309.782
309.782
309.796
309.796
309.796
309.796
309.797
309.797
309.796
309.796
309.796
309.795
309.794
309.793
309.792
309.791
309.79
309.789
309.787
309.786
309.785
309.785
309.784
309.784
309.783
309.783
309.783
309.783
309.782
309.782
309.782
309.782
309.782
309.782
309.796
309.796
309.796
309.796
309.796
309.796
309.796
309.796
309.796
309.795
309.795
309.794
309.793
309.792
309.791
309.789
309.788
309.787
309.786
309.785
309.785
309.784
309.784
309.784
309.783
309.783
309.783
309.783
309.783
309.782
309.782
309.782
)
;

boundaryField
{
    movingWall
    {
        type            zeroGradient;
    }
    fixedWalls
    {
        type            zeroGradient;
    }
    floor
    {
        type            fixedValue;
        value           uniform 310;
    }
    frontAndBack
    {
        type            empty;
    }
}


// ************************************************************************* //
