/*--------------------------------*- C++ -*----------------------------------*\
| =========                 |                                                 |
| \\      /  F ield         | OpenFOAM: The Open Source CFD Toolbox           |
|  \\    /   O peration     | Version:  2206                                  |
|   \\  /    A nd           | Website:  www.openfoam.com                      |
|    \\/     M anipulation  |                                                 |
\*---------------------------------------------------------------------------*/
FoamFile
{
    version     2.0;
    format      ascii;
    arch        "LSB;label=64;scalar=64";
    class       volScalarField;
    location    "5";
    object      Gch4_0;
}
// * * * * * * * * * * * * * * * * * * * * * * * * * * * * * * * * * * * * * //

dimensions      [0 0 0 0 0 0 0];

internalField   nonuniform List<scalar> 
1024
(
3.97899e-17
4.48438e-17
6.06403e-17
9.19181e-17
1.46451e-16
2.35726e-16
3.75172e-16
5.8323e-16
8.78329e-16
1.27318e-15
1.76709e-15
2.33939e-15
2.94849e-15
3.53881e-15
4.04768e-15
4.38969e-15
4.41457e-15
4.12022e-15
3.6527e-15
3.09272e-15
2.50111e-15
1.93321e-15
1.43213e-15
1.02153e-15
7.05706e-16
4.75392e-16
3.14914e-16
2.07717e-16
1.39484e-16
9.92568e-17
7.94484e-17
7.54339e-17
5.55787e-17
6.24753e-17
8.40564e-17
1.26656e-16
2.00597e-16
3.21013e-16
5.08048e-16
7.8549e-16
1.17669e-15
1.69706e-15
2.34428e-15
3.0901e-15
3.87986e-15
4.64193e-15
5.29677e-15
5.73644e-15
5.76952e-15
5.39256e-15
4.79117e-15
4.06763e-15
3.29951e-15
2.55853e-15
1.9016e-15
1.36085e-15
9.43176e-16
6.3743e-16
4.23659e-16
2.8044e-16
1.89056e-16
1.35072e-16
1.0843e-16
1.02949e-16
1.0633e-16
1.1905e-16
1.5894e-16
2.373e-16
3.72365e-16
5.90535e-16
9.26428e-16
1.42015e-15
2.10992e-15
3.0191e-15
4.1398e-15
5.42018e-15
6.76524e-15
8.0543e-15
9.15642e-15
9.89526e-15
9.95391e-15
9.32457e-15
8.31305e-15
7.08736e-15
5.77614e-15
4.50142e-15
3.36277e-15
2.41888e-15
1.68506e-15
1.14468e-15
7.64821e-16
5.0915e-16
3.45379e-16
2.48314e-16
2.00223e-16
1.90086e-16
2.37684e-16
2.65035e-16
3.51038e-16
5.19146e-16
8.06794e-16
1.26748e-15
1.97025e-15
2.99344e-15
4.40925e-15
6.25768e-15
8.51495e-15
1.10708e-14
1.37335e-14
1.62673e-14
1.84223e-14
1.98648e-14
1.9986e-14
1.87664e-14
1.67903e-14
1.43777e-14
1.17757e-14
9.22523e-15
6.9289e-15
5.01111e-15
3.50981e-15
2.39726e-15
1.61078e-15
1.07882e-15
7.36654e-16
5.33117e-16
4.31838e-16
4.09938e-16
5.80239e-16
6.44378e-16
8.46677e-16
1.24014e-15
1.90849e-15
2.96975e-15
4.57381e-15
6.88704e-15
1.00571e-14
1.41563e-14
1.91152e-14
2.46793e-14
3.04277e-14
3.58586e-14
4.04541e-14
4.35265e-14
4.38e-14
4.12244e-14
3.7017e-14
3.18402e-14
2.62105e-14
2.06452e-14
1.55928e-14
1.13404e-14
7.98743e-15
5.48637e-15
3.70795e-15
2.49892e-15
1.71787e-15
1.25149e-15
1.01841e-15
9.6685e-16
1.53086e-15
1.69297e-15
2.20612e-15
3.19918e-15
4.8734e-15
7.50872e-15
1.14545e-14
1.70892e-14
2.47349e-14
3.45236e-14
4.62497e-14
5.92826e-14
7.26296e-14
8.51459e-14
9.56821e-14
1.0272e-13
1.03387e-13
9.75464e-14
8.79244e-14
7.59891e-14
6.28931e-14
4.98273e-14
3.78588e-14
2.76997e-14
1.9627e-14
1.35625e-14
9.22305e-15
6.25672e-15
4.33143e-15
3.17717e-15
2.59779e-15
2.46718e-15
4.40137e-15
4.84631e-15
6.26066e-15
8.98369e-15
1.35394e-14
2.06459e-14
3.11828e-14
4.60779e-14
6.60803e-14
9.14236e-14
1.21469e-13
1.54527e-13
1.88066e-13
2.19269e-13
2.45397e-13
2.62843e-13
2.64608e-13
2.50311e-13
2.26542e-13
1.968e-13
1.63847e-13
1.30634e-13
9.99054e-14
7.35769e-14
5.24741e-14
3.64971e-14
2.49855e-14
1.7069e-14
1.19045e-14
8.79483e-15
7.22723e-15
6.86852e-15
1.39763e-14
1.53194e-14
1.96101e-14
2.78281e-14
4.14685e-14
6.25493e-14
9.34911e-14
1.3677e-13
1.9426e-13
2.66301e-13
3.50767e-13
4.42697e-13
5.35026e-13
6.20207e-13
6.91152e-13
7.38524e-13
7.43667e-13
7.05429e-13
6.41247e-13
5.6018e-13
4.69394e-13
3.76855e-13
2.90283e-13
2.15326e-13
1.54666e-13
1.08341e-13
7.47079e-14
5.14246e-14
3.61495e-14
2.69088e-14
2.22306e-14
2.11481e-14
4.97456e-14
5.42671e-14
6.87995e-14
9.64871e-14
1.4207e-13
2.1184e-13
3.13173e-13
4.53344e-13
6.37418e-13
8.65386e-13
1.12952e-12
1.41364e-12
1.69592e-12
1.95404e-12
2.16784e-12
2.31068e-12
2.32739e-12
2.21417e-12
2.02218e-12
1.77724e-12
1.49971e-12
1.21327e-12
9.41957e-13
7.0428e-13
5.0986e-13
3.59947e-13
2.50176e-13
1.73626e-13
1.23091e-13
9.23642e-14
7.67419e-14
7.30986e-14
2.0145e-13
2.18666e-13
2.74408e-13
3.80041e-13
5.52485e-13
8.13783e-13
1.18912e-12
1.70227e-12
2.368e-12
3.18219e-12
4.11355e-12
5.10284e-12
6.07424e-12
6.95407e-12
7.67881e-12
8.16354e-12
8.22481e-12
7.84875e-12
7.20417e-12
6.37294e-12
5.41903e-12
4.42084e-12
3.46224e-12
2.6114e-12
1.90698e-12
1.35794e-12
9.52081e-13
6.66717e-13
4.77033e-13
3.61049e-13
3.01823e-13
2.87948e-13
9.41872e-13
1.01701e-12
1.26249e-12
1.72516e-12
2.47382e-12
3.59631e-12
5.19003e-12
7.34215e-12
1.00981e-11
1.34235e-11
1.7175e-11
2.11054e-11
2.49159e-11
2.83324e-11
3.11305e-11
3.30048e-11
3.32612e-11
3.18428e-11
2.93837e-11
2.61761e-11
2.24438e-11
1.84784e-11
1.46113e-11
1.11281e-11
8.20517e-12
5.89916e-12
4.17626e-12
2.95368e-12
2.13472e-12
1.63086e-12
1.37239e-12
1.31175e-12
5.15536e-12
5.53595e-12
6.79299e-12
9.14926e-12
1.2927e-11
1.85284e-11
2.63841e-11
3.68534e-11
5.00744e-11
6.57941e-11
8.32608e-11
1.01286e-10
1.18522e-10
1.33809e-10
1.46255e-10
1.54608e-10
1.55844e-10
1.49701e-10
1.3892e-10
1.24687e-10
1.07876e-10
8.97136e-11
7.16959e-11
5.51975e-11
4.11408e-11
2.98982e-11
2.13968e-11
1.53011e-11
1.11822e-11
8.63041e-12
7.31509e-12
7.00698e-12
3.34562e-11
3.57169e-11
4.32874e-11
5.73998e-11
7.98088e-11
1.12649e-10
1.58108e-10
2.17837e-10
2.92126e-10
3.7904e-10
4.74007e-10
5.70401e-10
6.61203e-10
7.40809e-10
8.05227e-10
8.4855e-10
8.55474e-10
8.24609e-10
7.6976e-10
6.96433e-10
6.08423e-10
5.11581e-10
4.13667e-10
3.22338e-10
2.43179e-10
1.78879e-10
1.29588e-10
9.38262e-11
6.94213e-11
5.41828e-11
4.62873e-11
4.44465e-11
2.60277e-10
2.76162e-10
3.30293e-10
4.3066e-10
5.88443e-10
8.16823e-10
1.12854e-09
1.53182e-09
2.02504e-09
2.59184e-09
3.19976e-09
3.80568e-09
4.36726e-09
4.85355e-09
5.24455e-09
5.50806e-09
5.55332e-09
5.37194e-09
5.04554e-09
4.60357e-09
4.06401e-09
3.45836e-09
2.83297e-09
2.23745e-09
1.71117e-09
1.27609e-09
9.37336e-10
6.88225e-10
5.16291e-10
4.07971e-10
3.51528e-10
3.38475e-10
2.4493e-09
2.58213e-09
3.04506e-09
3.899e-09
5.22743e-09
7.1248e-09
9.67498e-09
1.29182e-08
1.68112e-08
2.11962e-08
2.58033e-08
3.03043e-08
3.44029e-08
3.79054e-08
4.0702e-08
4.25897e-08
4.29348e-08
4.16801e-08
3.9396e-08
3.6264e-08
3.23722e-08
2.79088e-08
2.31918e-08
1.85947e-08
1.44419e-08
1.09392e-08
8.16277e-09
6.08923e-09
4.63933e-09
3.71649e-09
3.23255e-09
3.122e-09
2.80636e-08
2.93901e-08
3.41472e-08
4.28793e-08
5.6312e-08
7.522e-08
1.00203e-07
1.3137e-07
1.68001e-07
2.08343e-07
2.49761e-07
2.89337e-07
3.24686e-07
3.54462e-07
3.78048e-07
3.93969e-07
3.97016e-07
3.86755e-07
3.67915e-07
3.41782e-07
3.08721e-07
2.69929e-07
2.27876e-07
1.85814e-07
1.46858e-07
1.13237e-07
8.60336e-08
6.535e-08
5.06674e-08
4.12107e-08
3.62162e-08
3.50946e-08
3.67844e-07
3.82671e-07
4.37764e-07
5.38392e-07
6.91309e-07
9.03094e-07
1.1776e-06
1.51269e-06
1.89722e-06
2.31005e-06
2.72305e-06
3.10804e-06
3.44465e-06
3.72364e-06
3.94247e-06
4.08972e-06
4.11831e-06
4.02502e-06
3.85336e-06
3.61316e-06
3.30402e-06
2.93263e-06
2.5188e-06
2.09279e-06
1.68698e-06
1.32742e-06
1.02954e-06
7.98299e-07
6.31264e-07
5.22207e-07
4.64158e-07
4.51439e-07
4.34872e-06
4.49486e-06
5.06183e-06
6.09231e-06
7.63779e-06
9.74081e-06
1.24099e-05
1.55909e-05
1.91463e-05
2.28583e-05
2.64683e-05
2.97453e-05
3.25458e-05
3.48271e-05
3.65964e-05
3.77798e-05
3.80057e-05
3.72565e-05
3.5885e-05
3.39553e-05
3.14341e-05
2.83345e-05
2.47815e-05
2.10098e-05
1.73048e-05
1.39253e-05
1.10503e-05
8.76591e-06
7.08302e-06
5.96738e-06
5.36857e-06
5.24163e-06
3.89695e-05
4.00353e-05
4.43944e-05
5.22825e-05
6.39547e-05
7.95478e-05
9.89029e-05
0.000121393
0.00014584
0.000170623
0.000194029
0.000214707
0.000231979
0.000245809
0.000256415
0.000263462
0.000264766
0.000260273
0.000252117
0.00024061
0.000225383
0.000206257
0.000183715
0.000159025
0.00013398
0.000110415
8.97856e-05
7.29723e-05
6.03164e-05
5.17847e-05
4.71634e-05
4.62218e-05
0.00026774
0.000273543
0.000298843
0.000344458
0.000411046
0.000498327
0.000604187
0.000723969
0.000850429
0.000974776
0.00108873
0.00118669
0.0012667
0.00132969
0.00137748
0.00140902
0.00141461
0.00139422
0.00135762
0.00130593
0.00123685
0.00114842
0.00104141
0.000920506
0.00079377
0.000670593
0.000559426
0.00046631
0.00039456
0.000345299
0.000318349
0.000313108
0.00142425
0.00144799
0.00155976
0.00176072
0.00205018
0.00242234
0.00286311
0.00334834
0.0038454
0.00431906
0.00474013
0.00509245
0.00537403
0.0055923
0.00575621
0.00586363
0.00588174
0.005811
0.00568545
0.00550839
0.00526996
0.0049598
0.00457537
0.00412798
0.00364349
0.00315676
0.0027033
0.00231228
0.0020033
0.00178692
0.00166725
0.00164519
0.00594355
0.00601712
0.00639725
0.00707967
0.00805008
0.00927415
0.0106895
0.0122046
0.0137097
0.0150991
0.0162977
0.0172747
0.0180398
0.0186245
0.0190596
0.0193431
0.0193883
0.0191978
0.0188634
0.0183928
0.017756
0.0169169
0.0158552
0.0145859
0.0131683
0.011697
0.0102814
0.00902334
0.00800232
0.00727179
0.0068628
0.00679184
0.0197864
0.0199612
0.0209711
0.0227847
0.025334
0.0284914
0.0320566
0.0357673
0.0393412
0.0425386
0.0452172
0.0473481
0.0489865
0.050223
0.0511362
0.0517282
0.0518174
0.051411
0.0507053
0.0497146
0.0483699
0.0465812
0.0442801
0.0414654
0.0382338
0.0347773
0.0313467
0.0282036
0.0255807
0.0236601
0.0225698
0.0223923
0.0536229
0.0539455
0.0560795
0.0599241
0.065278
0.0717975
0.0789902
0.0862702
0.0930702
0.0989711
0.103781
0.107524
0.110356
0.112471
0.114024
0.115026
0.115169
0.114467
0.113258
0.111566
0.109265
0.106185
0.102172
0.0971754
0.0913083
0.0848699
0.0782996
0.0721038
0.0667853
0.0627924
0.0604876
0.0601344
0.121071
0.121537
0.125201
0.131853
0.141056
0.15209
0.163988
0.175698
0.186314
0.195265
0.202382
0.207814
0.211871
0.214876
0.217071
0.218484
0.218676
0.217667
0.215944
0.213537
0.210262
0.205859
0.200075
0.192779
0.184073
0.174337
0.164185
0.154375
0.145723
0.139051
0.135117
0.134541
0.233464
0.233993
0.239231
0.248871
0.262157
0.277843
0.294364
0.310174
0.3241
0.335536
0.344435
0.351121
0.356063
0.359699
0.362346
0.364048
0.364268
0.363034
0.360937
0.358014
0.354035
0.348674
0.341591
0.332584
0.32173
0.309463
0.296516
0.283801
0.272337
0.263247
0.257734
0.256935
0.394267
0.394725
0.401136
0.413163
0.42967
0.448812
0.468462
0.486746
0.502423
0.515006
0.524624
0.531763
0.536998
0.540832
0.543617
0.545406
0.54563
0.544313
0.542089
0.538991
0.534777
0.529088
0.521548
0.511909
0.500239
0.487014
0.473049
0.459304
0.446777
0.436596
0.430192
0.429223
0.597178
0.597465
0.604398
0.617624
0.635576
0.655902
0.676187
0.694553
0.709935
0.722052
0.73119
0.737911
0.742812
0.746392
0.748988
0.750656
0.750859
0.749619
0.747529
0.744624
0.740672
0.735333
0.728238
0.71914
0.708101
0.695624
0.682577
0.669937
0.658545
0.649195
0.64307
0.642048
0.828777
0.828933
0.835749
0.848685
0.865785
0.884554
0.902751
0.918836
0.932058
0.942331
0.950004
0.955613
0.95969
0.962661
0.964815
0.966199
0.966366
0.96533
0.963586
0.961164
0.957872
0.953422
0.947499
0.939883
0.930627
0.920201
0.90946
0.899377
0.890678
0.88375
0.87912
0.87827
1.07311
1.07336
1.07945
1.09042
1.1043
1.11902
1.13294
1.14502
1.15483
1.16238
1.16799
1.17207
1.17503
1.17719
1.17875
1.17976
1.17988
1.17912
1.17785
1.17609
1.1737
1.17046
1.16614
1.16058
1.15381
1.14619
1.13843
1.1314
1.12576
1.12174
1.11927
1.1189
1.3154
1.31595
1.32043
1.32772
1.33651
1.34559
1.35403
1.36128
1.36713
1.3716
1.37492
1.37733
1.37907
1.38034
1.38126
1.38185
1.38193
1.38148
1.38073
1.37969
1.37828
1.37637
1.37382
1.37054
1.36652
1.362
1.35741
1.35334
1.35031
1.34852
1.34785
1.3481
1.54381
1.54415
1.54582
1.54833
1.55128
1.55429
1.55706
1.55943
1.56134
1.56279
1.56387
1.56465
1.56522
1.56563
1.56593
1.56612
1.56615
1.566
1.56576
1.56542
1.56496
1.56434
1.56351
1.56244
1.56113
1.55965
1.55815
1.55682
1.55586
1.55538
1.55535
1.5556
)
;

boundaryField
{
    movingWall
    {
        type            fixedValue;
        value           uniform 1.6535;
    }
    fixedWalls
    {
        type            zeroGradient;
    }
    frontAndBack
    {
        type            empty;
    }
}


// ************************************************************************* //
