/*--------------------------------*- C++ -*----------------------------------*\
| =========                 |                                                 |
| \\      /  F ield         | OpenFOAM: The Open Source CFD Toolbox           |
|  \\    /   O peration     | Version:  2206                                  |
|   \\  /    A nd           | Website:  www.openfoam.com                      |
|    \\/     M anipulation  |                                                 |
\*---------------------------------------------------------------------------*/
FoamFile
{
    version     2.0;
    format      ascii;
    arch        "LSB;label=64;scalar=64";
    class       volScalarField;
    location    "5";
    object      p;
}
// * * * * * * * * * * * * * * * * * * * * * * * * * * * * * * * * * * * * * //

dimensions      [0 2 -2 0 0 0 0];

internalField   nonuniform List<scalar> 
1024
(
4.21977e-12
-4.2718e-09
-9.2204e-09
-1.08557e-08
-5.52646e-09
1.04354e-08
4.13937e-08
9.31271e-08
1.73376e-07
2.92259e-07
4.62636e-07
7.00308e-07
1.02377e-06
1.45313e-06
2.00701e-06
2.69793e-06
3.46267e-06
4.15587e-06
4.71307e-06
5.14593e-06
5.47259e-06
5.71294e-06
5.88542e-06
6.00588e-06
6.08726e-06
6.13977e-06
6.17124e-06
6.18752e-06
6.19302e-06
6.19145e-06
6.18651e-06
6.18222e-06
4.28415e-09
2.61341e-12
-4.18728e-09
-4.85993e-09
1.06651e-09
1.72484e-08
4.82083e-08
9.98276e-08
1.79875e-07
2.98463e-07
4.68427e-07
7.05537e-07
1.02825e-06
1.45664e-06
2.00931e-06
2.69875e-06
3.46187e-06
4.15358e-06
4.70956e-06
5.14145e-06
5.46736e-06
5.70714e-06
5.87921e-06
5.99937e-06
6.08055e-06
6.13295e-06
6.16442e-06
6.18091e-06
6.187e-06
6.1864e-06
6.18223e-06
6.17793e-06
9.24025e-09
4.18437e-09
-1.93907e-11
-1.39323e-10
6.28445e-09
2.27211e-08
5.37446e-08
1.05306e-07
1.85203e-07
3.03551e-07
4.73172e-07
7.09812e-07
1.03191e-06
1.4595e-06
2.01116e-06
2.69939e-06
3.4612e-06
4.1517e-06
4.70668e-06
5.13779e-06
5.46308e-06
5.7024e-06
5.87413e-06
5.99405e-06
6.07508e-06
6.12743e-06
6.15896e-06
6.17571e-06
6.1823e-06
6.18225e-06
6.17806e-06
6.17299e-06
1.09137e-08
4.86006e-09
5.75001e-11
-8.75205e-11
6.53649e-09
2.31583e-08
5.4292e-08
1.05898e-07
1.85796e-07
3.04113e-07
4.73679e-07
7.10246e-07
1.03225e-06
1.45973e-06
2.01128e-06
2.69939e-06
3.46109e-06
4.1515e-06
4.70638e-06
5.13741e-06
5.46264e-06
5.70191e-06
5.8736e-06
5.99351e-06
6.07455e-06
6.12694e-06
6.15859e-06
6.17552e-06
6.18231e-06
6.18224e-06
6.17745e-06
6.17138e-06
5.67526e-09
-1.0454e-09
-6.42157e-09
-6.82415e-09
-2.15215e-10
1.64923e-08
4.77451e-08
9.9494e-08
1.79574e-07
2.9814e-07
4.68057e-07
7.05114e-07
1.02779e-06
1.45617e-06
2.00888e-06
2.69846e-06
3.4618e-06
4.1537e-06
4.70981e-06
5.14179e-06
5.46775e-06
5.70755e-06
5.87963e-06
5.99981e-06
6.08106e-06
6.13361e-06
6.16538e-06
6.1824e-06
6.18918e-06
6.18885e-06
6.18348e-06
6.17674e-06
-1.01558e-08
-1.72185e-08
-2.29708e-08
-2.36262e-08
-1.70936e-08
-3.26148e-10
3.1098e-08
8.31381e-08
1.63662e-07
2.82879e-07
4.53726e-07
6.92081e-07
1.01652e-06
1.44723e-06
2.00292e-06
2.69622e-06
3.46365e-06
4.15934e-06
4.71852e-06
5.15292e-06
5.48073e-06
5.72191e-06
5.89498e-06
6.01586e-06
6.09758e-06
6.15045e-06
6.18241e-06
6.1995e-06
6.2062e-06
6.20562e-06
6.19988e-06
6.19279e-06
-4.10595e-08
-4.83199e-08
-5.43207e-08
-5.51677e-08
-4.86862e-08
-3.18088e-08
-8.98397e-11
5.24774e-08
1.33833e-07
2.54286e-07
4.26904e-07
6.6772e-07
9.95492e-07
1.43057e-06
1.99187e-06
2.6921e-06
3.46716e-06
4.16987e-06
4.7348e-06
5.17372e-06
5.50501e-06
5.74877e-06
5.92371e-06
6.0459e-06
6.1285e-06
6.18193e-06
6.2142e-06
6.23142e-06
6.23808e-06
6.23731e-06
6.23132e-06
6.22404e-06
-9.31851e-08
-1.00631e-07
-1.06846e-07
-1.07837e-07
-1.01344e-07
-8.42453e-08
-5.20245e-08
1.42488e-09
8.41741e-08
2.06703e-07
3.82292e-07
6.27233e-07
9.60573e-07
1.40295e-06
1.97357e-06
2.68531e-06
3.47302e-06
4.18737e-06
4.76184e-06
5.20829e-06
5.54536e-06
5.79343e-06
5.97148e-06
6.09586e-06
6.17994e-06
6.2343e-06
6.26711e-06
6.28457e-06
6.29125e-06
6.29034e-06
6.28414e-06
6.27667e-06
-1.75211e-07
-1.82897e-07
-1.89356e-07
-1.90467e-07
-1.8388e-07
-1.66385e-07
-1.33348e-07
-7.84958e-08
6.45596e-09
1.32259e-07
3.12531e-07
5.6396e-07
9.06041e-07
1.35986e-06
1.94506e-06
2.67474e-06
3.48218e-06
4.21469e-06
4.80404e-06
5.26228e-06
5.60842e-06
5.86325e-06
6.0462e-06
6.17402e-06
6.26042e-06
6.31626e-06
6.34995e-06
6.36783e-06
6.37463e-06
6.37361e-06
6.36716e-06
6.35945e-06
-2.99388e-07
-3.07415e-07
-3.14192e-07
-3.15419e-07
-3.08631e-07
-2.9049e-07
-2.56177e-07
-1.99169e-07
-1.10854e-07
1.99345e-08
2.07322e-07
4.68594e-07
8.23906e-07
1.29501e-06
1.90218e-06
2.65886e-06
3.49596e-06
4.25577e-06
4.86756e-06
5.3436e-06
5.70345e-06
5.96853e-06
6.15892e-06
6.29197e-06
6.38191e-06
6.44004e-06
6.47508e-06
6.49366e-06
6.50068e-06
6.49955e-06
6.49279e-06
6.48473e-06
-4.83119e-07
-4.91637e-07
-4.9885e-07
-5.00204e-07
-4.93072e-07
-4.73928e-07
-4.37679e-07
-3.7743e-07
-2.84081e-07
-1.45855e-07
5.2123e-08
3.28012e-07
7.02927e-07
1.19959e-06
1.83912e-06
2.63549e-06
3.51618e-06
4.31615e-06
4.96099e-06
5.46334e-06
5.8435e-06
6.12381e-06
6.32528e-06
6.46614e-06
6.56138e-06
6.62294e-06
6.66003e-06
6.67969e-06
6.6871e-06
6.68586e-06
6.67866e-06
6.67011e-06
-7.51472e-07
-7.60697e-07
-7.68528e-07
-7.70031e-07
-7.62356e-07
-7.41696e-07
-7.02552e-07
-6.37482e-07
-5.36676e-07
-3.87462e-07
-1.73883e-07
1.23477e-07
5.27097e-07
1.06105e-06
1.74764e-06
2.60154e-06
3.54538e-06
4.40356e-06
5.09649e-06
5.63727e-06
6.0472e-06
6.34991e-06
6.56773e-06
6.72014e-06
6.82325e-06
6.88991e-06
6.93009e-06
6.95137e-06
6.95938e-06
6.95802e-06
6.95021e-06
6.94094e-06
-1.14133e-06
-1.15158e-06
-1.1603e-06
-1.16199e-06
-1.15348e-06
-1.13053e-06
-1.08707e-06
-1.01484e-06
-9.02995e-07
-7.37567e-07
-5.01042e-07
-1.72225e-07
2.73263e-07
8.6134e-07
1.61588e-06
2.55255e-06
3.58709e-06
4.52903e-06
5.29148e-06
5.8881e-06
6.34155e-06
6.67715e-06
6.91908e-06
7.08859e-06
7.20339e-06
7.27766e-06
7.32245e-06
7.34619e-06
7.35514e-06
7.35363e-06
7.34493e-06
7.33463e-06
-1.70831e-06
-1.72008e-06
-1.73009e-06
-1.73203e-06
-1.72223e-06
-1.69585e-06
-1.64591e-06
-1.56296e-06
-1.43463e-06
-1.24509e-06
-9.7458e-07
-5.99429e-07
-9.26733e-08
5.7404e-07
1.42659e-06
2.48192e-06
3.64623e-06
4.70838e-06
5.57121e-06
6.24915e-06
6.76647e-06
7.15069e-06
7.42847e-06
7.62356e-06
7.75589e-06
7.84162e-06
7.89337e-06
7.92084e-06
7.93122e-06
7.92953e-06
7.91955e-06
7.9077e-06
-2.53973e-06
-2.5538e-06
-2.56576e-06
-2.56804e-06
-2.55623e-06
-2.52452e-06
-2.46459e-06
-2.36519e-06
-2.21169e-06
-1.98552e-06
-1.66377e-06
-1.21936e-06
-6.21949e-07
1.59839e-07
1.15426e-06
2.37983e-06
3.72966e-06
4.96441e-06
5.97283e-06
6.77012e-06
7.38233e-06
7.8396e-06
8.17178e-06
8.40595e-06
8.56528e-06
8.66873e-06
8.73131e-06
8.76461e-06
8.77727e-06
8.77535e-06
8.76342e-06
8.74924e-06
-3.77686e-06
-3.79458e-06
-3.80959e-06
-3.81231e-06
-3.79716e-06
-3.75682e-06
-3.68083e-06
-3.55518e-06
-3.36184e-06
-3.07822e-06
-2.677e-06
-2.1266e-06
-1.39259e-06
-4.40284e-07
7.60934e-07
2.23143e-06
3.84667e-06
5.32996e-06
6.55104e-06
7.52581e-06
8.28174e-06
8.85157e-06
9.26882e-06
9.5649e-06
9.76741e-06
9.89945e-06
9.97965e-06
1.00225e-05
1.0039e-05
1.00368e-05
1.00219e-05
1.0004e-05
-5.53363e-06
-5.55709e-06
-5.57683e-06
-5.58012e-06
-5.55954e-06
-5.50539e-06
-5.40393e-06
-5.237e-06
-4.98161e-06
-4.60967e-06
-4.08828e-06
-3.38086e-06
-2.44921e-06
-1.25654e-06
2.28837e-07
2.02888e-06
3.99801e-06
5.81585e-06
7.32964e-06
8.55552e-06
9.52066e-06
1.02587e-05
1.0806e-05
1.11986e-05
1.14694e-05
1.16471e-05
1.17557e-05
1.18142e-05
1.18371e-05
1.18347e-05
1.18151e-05
1.17913e-05
-7.72777e-06
-7.75967e-06
-7.78631e-06
-7.79027e-06
-7.76142e-06
-7.6866e-06
-7.54743e-06
-7.3201e-06
-6.97538e-06
-6.47894e-06
-5.79263e-06
-4.87663e-06
-3.69216e-06
-2.20414e-06
-3.83162e-07
1.79366e-06
4.16155e-06
6.3614e-06
8.22051e-06
9.75522e-06
1.09891e-05
1.19524e-05
1.26804e-05
1.3211e-05
1.35819e-05
1.3828e-05
1.39796e-05
1.4062e-05
1.40948e-05
1.40925e-05
1.40659e-05
1.40334e-05
-1.02179e-05
-1.02617e-05
-1.02979e-05
-1.03025e-05
-1.02613e-05
-1.01565e-05
-9.96353e-06
-9.65175e-06
-9.18521e-06
-8.5243e-06
-7.62838e-06
-6.45892e-06
-4.98219e-06
-3.17027e-06
-9.99311e-07
1.55465e-06
4.31419e-06
6.89478e-06
9.11189e-06
1.09837e-05
1.25278e-05
1.37657e-05
1.47253e-05
1.54407e-05
1.59506e-05
1.62943e-05
1.65088e-05
1.66267e-05
1.66748e-05
1.66729e-05
1.66367e-05
1.65918e-05
-1.29897e-05
-1.30507e-05
-1.31005e-05
-1.31051e-05
-1.30449e-05
-1.28954e-05
-1.26243e-05
-1.21932e-05
-1.15603e-05
-1.06839e-05
-9.52639e-06
-8.05737e-06
-6.25501e-06
-4.10328e-06
-1.58554e-06
1.32518e-06
4.44698e-06
7.38479e-06
9.95234e-06
1.21735e-05
1.40603e-05
1.56216e-05
1.68711e-05
1.78311e-05
1.85338e-05
1.90182e-05
1.93263e-05
1.94985e-05
1.95706e-05
1.95704e-05
1.95205e-05
1.94575e-05
-1.60457e-05
-1.6132e-05
-1.62014e-05
-1.62045e-05
-1.61134e-05
-1.58948e-05
-1.55073e-05
-1.49055e-05
-1.40457e-05
-1.28906e-05
-1.14141e-05
-9.60247e-06
-7.45156e-06
-4.95931e-06
-2.11466e-06
1.11605e-06
4.55475e-06
7.80901e-06
1.07005e-05
1.32644e-05
1.5511e-05
1.74375e-05
1.90386e-05
2.03161e-05
2.12851e-05
2.19746e-05
2.24253e-05
2.26836e-05
2.27955e-05
2.27998e-05
2.27298e-05
2.26395e-05
-1.94042e-05
-1.95295e-05
-1.96274e-05
-1.96245e-05
-1.94808e-05
-1.91522e-05
-1.85888e-05
-1.77429e-05
-1.65773e-05
-1.50705e-05
-1.32184e-05
-1.10311e-05
-8.52412e-06
-5.70697e-06
-2.5692e-06
9.34347e-07
4.63619e-06
8.15565e-06
1.13295e-05
1.421e-05
1.68133e-05
1.91302e-05
2.11384e-05
2.2814e-05
2.41433e-05
2.51308e-05
2.58021e-05
2.62011e-05
2.6382e-05
2.63976e-05
2.62976e-05
2.61644e-05
-2.31081e-05
-2.32953e-05
-2.3435e-05
-2.34144e-05
-2.31769e-05
-2.26687e-05
-2.18381e-05
-2.06472e-05
-1.90805e-05
-1.71463e-05
-1.48717e-05
-1.22928e-05
-9.44087e-06
-6.32958e-06
-2.94195e-06
7.8318e-07
4.693e-06
8.42303e-06
1.18288e-05
1.49835e-05
1.79168e-05
2.06243e-05
2.30758e-05
2.52253e-05
2.70242e-05
2.84358e-05
2.94488e-05
3.00838e-05
3.03908e-05
3.04349e-05
3.02893e-05
3.00856e-05
-2.7238e-05
-2.75266e-05
-2.77258e-05
-2.76563e-05
-2.72449e-05
-2.64403e-05
-2.52081e-05
-2.35431e-05
-2.14712e-05
-1.90429e-05
-1.6319e-05
-1.33551e-05
-1.01877e-05
-6.82444e-06
-3.23443e-06
6.62255e-07
4.72875e-06
8.61724e-06
1.22019e-05
1.55778e-05
1.87943e-05
2.18628e-05
2.47608e-05
2.7436e-05
2.98119e-05
3.18033e-05
3.33361e-05
3.4371e-05
3.49191e-05
3.5037e-05
3.48244e-05
3.44994e-05
-3.19449e-05
-3.2401e-05
-3.26728e-05
-3.2473e-05
-3.17329e-05
-3.0443e-05
-2.86249e-05
-2.63359e-05
-2.36612e-05
-2.06955e-05
-1.75237e-05
-1.42052e-05
-1.07669e-05
-7.19982e-06
-3.45428e-06
5.6893e-07
4.74781e-06
8.74899e-06
1.24627e-05
1.60037e-05
1.94427e-05
2.2815e-05
2.61222e-05
2.93291e-05
3.23583e-05
3.5091e-05
3.73807e-05
3.90839e-05
4.01035e-05
4.0419e-05
4.01247e-05
3.95872e-05
-3.75395e-05
-3.82502e-05
-3.85584e-05
-3.80242e-05
-3.66703e-05
-3.46123e-05
-3.19793e-05
-2.89157e-05
-2.55673e-05
-2.20574e-05
-1.84708e-05
-1.48485e-05
-1.11926e-05
-7.47074e-06
-3.61227e-06
4.99408e-07
4.75457e-06
8.83088e-06
1.26307e-05
1.6284e-05
1.98807e-05
2.34812e-05
2.71212e-05
3.08061e-05
3.44961e-05
3.8088e-05
4.13977e-05
4.4165e-05
4.60949e-05
4.69325e-05
4.6623e-05
4.57464e-05
-4.47358e-05
-4.57104e-05
-4.581e-05
-4.44731e-05
-4.20236e-05
-3.88149e-05
-3.51171e-05
-3.11586e-05
-2.71162e-05
-2.31017e-05
-1.91637e-05
-1.53026e-05
-1.14853e-05
-7.65446e-06
-3.71952e-06
4.49937e-07
4.75326e-06
8.87556e-06
1.27272e-05
1.64482e-05
2.01429e-05
2.38916e-05
2.77643e-05
3.18167e-05
3.60817e-05
4.05392e-05
4.50675e-05
4.93782e-05
5.29589e-05
5.50902e-05
5.51855e-05
5.39686e-05
-5.51948e-05
-5.59511e-05
-5.49729e-05
-5.18683e-05
-4.75865e-05
-4.27714e-05
-3.77983e-05
-3.29122e-05
-2.82386e-05
-2.3814e-05
-1.96156e-05
-1.55894e-05
-1.16659e-05
-7.76666e-06
-3.78546e-06
4.17716e-07
4.74796e-06
8.89483e-06
1.27732e-05
1.6528e-05
2.02731e-05
2.41002e-05
2.81052e-05
3.23884e-05
3.70659e-05
4.22509e-05
4.80162e-05
5.4273e-05
6.05136e-05
6.54628e-05
6.73711e-05
6.65962e-05
-7.19274e-05
-7.05581e-05
-6.6265e-05
-5.97157e-05
-5.26758e-05
-4.58976e-05
-3.96481e-05
-3.39932e-05
-2.88729e-05
-2.41918e-05
-1.98447e-05
-1.57304e-05
-1.17528e-05
-7.8201e-06
-3.81733e-06
4.00726e-07
4.7422e-06
8.89835e-06
1.27858e-05
1.65523e-05
2.03142e-05
2.41693e-05
2.82272e-05
3.26177e-05
3.75259e-05
4.32056e-05
5.00191e-05
5.83514e-05
6.82158e-05
7.82205e-05
8.50391e-05
8.74412e-05
-0.000100246
-9.06735e-05
-7.8166e-05
-6.60756e-05
-5.57976e-05
-4.73232e-05
-4.02827e-05
-3.42795e-05
-2.90091e-05
-2.42603e-05
-1.98807e-05
-1.57499e-05
-1.17637e-05
-7.82652e-06
-3.8218e-06
3.96714e-07
4.73758e-06
8.89216e-06
1.27769e-05
1.65397e-05
2.02967e-05
2.41464e-05
2.82022e-05
3.2606e-05
3.75797e-05
4.34908e-05
5.09803e-05
6.10786e-05
7.49255e-05
9.23173e-05
0.000109815
0.000122833
-0.000162471
-0.000117426
-8.61849e-05
-6.76286e-05
-5.53561e-05
-4.65296e-05
-3.96543e-05
-3.38625e-05
-2.87455e-05
-2.40939e-05
-1.97744e-05
-1.56815e-05
-1.17199e-05
-7.79941e-06
-3.80674e-06
4.02007e-07
4.73388e-06
8.87917e-06
1.2753e-05
1.65016e-05
2.02386e-05
2.406e-05
2.80744e-05
3.24202e-05
3.73181e-05
4.31638e-05
5.07423e-05
6.16222e-05
7.84488e-05
0.000104581
0.000144598
0.000198722
-0.000286791
-0.000150195
-8.90509e-05
-6.53673e-05
-5.26957e-05
-4.46056e-05
-3.8496e-05
-3.31922e-05
-2.83514e-05
-2.38548e-05
-1.96255e-05
-1.55873e-05
-1.16603e-05
-7.76265e-06
-3.78594e-06
4.10322e-07
4.73105e-06
8.86523e-06
1.27264e-05
1.64584e-05
2.0172e-05
2.39591e-05
2.79209e-05
3.21836e-05
3.69441e-05
4.25592e-05
4.9789e-05
6.04283e-05
7.85223e-05
0.000112622
0.000186833
0.000334993
)
;

boundaryField
{
    movingWall
    {
        type            zeroGradient;
    }
    fixedWalls
    {
        type            zeroGradient;
    }
    frontAndBack
    {
        type            empty;
    }
}


// ************************************************************************* //
