/*--------------------------------*- C++ -*----------------------------------*\
| =========                 |                                                 |
| \\      /  F ield         | OpenFOAM: The Open Source CFD Toolbox           |
|  \\    /   O peration     | Version:  2212                                  |
|   \\  /    A nd           | Website:  www.openfoam.com                      |
|    \\/     M anipulation  |                                                 |
\*---------------------------------------------------------------------------*/
FoamFile
{
    version     2.0;
    format      ascii;
    arch        "LSB;label=64;scalar=64";
    class       volScalarField::Internal;
    location    "40";
    object      dGch4;
}
// * * * * * * * * * * * * * * * * * * * * * * * * * * * * * * * * * * * * * //

dimensions      [1 -3 -1 0 0 0 0];

value           nonuniform List<scalar> 
1024
(
0.00134239
0.00134239
0.00134238
0.00134237
0.00134237
0.00134236
0.00134235
0.00134235
0.00134234
0.00134231
0.00134227
0.00134226
0.00134225
0.00134225
0.00134224
0.00134224
0.00134226
0.00134227
0.00134229
0.00134231
0.00134233
0.00134234
0.00134235
0.00134236
0.00134236
0.00134236
0.00134236
0.00134238
0.00134239
0.00134241
0.00134242
0.00134243
0.00134238
0.00134238
0.00134238
0.00134237
0.00134236
0.00134235
0.00134235
0.00134235
0.00134234
0.00134231
0.00134227
0.00134226
0.00134225
0.00134225
0.00134224
0.00134224
0.00134226
0.00134227
0.00134229
0.00134231
0.00134233
0.00134234
0.00134235
0.00134236
0.00134236
0.00134236
0.00134236
0.00134238
0.00134239
0.00134241
0.00134242
0.00134242
0.00134238
0.00134237
0.00134237
0.00134236
0.00134235
0.00134235
0.00134234
0.00134235
0.00134234
0.0013423
0.00134227
0.00134226
0.00134225
0.00134225
0.00134224
0.00134224
0.00134226
0.00134227
0.00134229
0.00134231
0.00134233
0.00134235
0.00134236
0.00134237
0.00134236
0.00134236
0.00134236
0.00134237
0.00134239
0.0013424
0.00134241
0.00134241
0.00134236
0.00134235
0.00134235
0.00134234
0.00134234
0.00134233
0.00134234
0.00134234
0.00134233
0.0013423
0.00134227
0.00134226
0.00134225
0.00134225
0.00134224
0.00134224
0.00134226
0.00134227
0.00134229
0.00134231
0.00134234
0.00134237
0.00134238
0.00134238
0.00134237
0.00134237
0.00134237
0.00134237
0.00134238
0.00134239
0.0013424
0.0013424
0.00134233
0.00134233
0.00134232
0.00134232
0.00134232
0.00134232
0.00134233
0.00134233
0.00134233
0.00134229
0.00134227
0.00134226
0.00134226
0.00134225
0.00134225
0.00134224
0.00134226
0.00134228
0.00134229
0.00134232
0.00134236
0.0013424
0.00134241
0.00134241
0.00134239
0.00134238
0.00134237
0.00134237
0.00134238
0.00134239
0.00134239
0.00134239
0.00134231
0.00134231
0.0013423
0.0013423
0.0013423
0.00134231
0.00134232
0.00134233
0.00134232
0.00134229
0.00134226
0.00134226
0.00134226
0.00134225
0.00134225
0.00134224
0.00134226
0.00134228
0.00134229
0.00134233
0.00134238
0.00134244
0.00134246
0.00134245
0.00134241
0.00134239
0.00134238
0.00134237
0.00134237
0.00134238
0.00134238
0.00134238
0.00134229
0.00134229
0.00134229
0.00134229
0.00134229
0.0013423
0.00134231
0.00134232
0.00134231
0.00134228
0.00134227
0.00134226
0.00134226
0.00134226
0.00134225
0.00134224
0.00134227
0.00134228
0.0013423
0.00134234
0.00134243
0.0013425
0.00134252
0.0013425
0.00134245
0.00134242
0.00134239
0.00134238
0.00134237
0.00134237
0.00134238
0.00134238
0.00134228
0.00134228
0.00134228
0.00134229
0.00134229
0.0013423
0.00134231
0.00134231
0.0013423
0.00134228
0.00134227
0.00134227
0.00134227
0.00134226
0.00134225
0.00134224
0.00134227
0.00134229
0.00134231
0.00134237
0.0013425
0.0013426
0.00134262
0.00134258
0.0013425
0.00134245
0.00134241
0.00134238
0.00134237
0.00134237
0.00134237
0.00134237
0.00134228
0.00134228
0.00134228
0.00134229
0.00134229
0.0013423
0.0013423
0.0013423
0.00134229
0.00134228
0.00134227
0.00134227
0.00134227
0.00134226
0.00134225
0.00134225
0.00134228
0.0013423
0.00134233
0.00134244
0.00134262
0.00134276
0.00134276
0.00134267
0.00134256
0.00134248
0.00134242
0.00134239
0.00134238
0.00134237
0.00134237
0.00134237
0.00134228
0.00134228
0.00134228
0.00134229
0.00134229
0.0013423
0.0013423
0.00134229
0.00134229
0.00134228
0.00134228
0.00134228
0.00134228
0.00134227
0.00134226
0.00134225
0.00134229
0.00134232
0.00134239
0.00134258
0.00134285
0.00134302
0.00134296
0.00134278
0.00134261
0.0013425
0.00134243
0.00134239
0.00134238
0.00134237
0.00134236
0.00134236
0.00134228
0.00134228
0.00134228
0.00134229
0.00134229
0.00134229
0.0013423
0.00134229
0.00134229
0.00134228
0.00134228
0.00134228
0.00134228
0.00134227
0.00134227
0.00134226
0.00134231
0.00134238
0.00134253
0.00134285
0.00134325
0.00134342
0.00134324
0.00134291
0.00134265
0.0013425
0.00134242
0.00134239
0.00134237
0.00134236
0.00134236
0.00134236
0.00134228
0.00134228
0.00134228
0.00134229
0.00134229
0.00134229
0.0013423
0.00134229
0.00134229
0.00134229
0.00134229
0.00134229
0.00134229
0.00134228
0.00134227
0.00134228
0.00134235
0.0013425
0.00134281
0.00134336
0.00134393
0.00134407
0.00134367
0.00134309
0.00134269
0.00134249
0.00134241
0.00134237
0.00134236
0.00134235
0.00134236
0.00134236
0.00134228
0.00134228
0.00134228
0.00134229
0.00134229
0.00134229
0.0013423
0.0013423
0.0013423
0.00134229
0.00134229
0.00134229
0.00134229
0.00134228
0.00134228
0.0013423
0.00134243
0.00134274
0.00134335
0.00134429
0.00134514
0.00134528
0.00134462
0.00134369
0.00134299
0.00134261
0.00134245
0.00134239
0.00134239
0.00134242
0.00134246
0.00134248
0.00134228
0.00134228
0.00134228
0.00134228
0.00134229
0.00134229
0.0013423
0.00134231
0.0013423
0.0013423
0.0013423
0.0013423
0.00134229
0.00134229
0.00134229
0.00134235
0.0013426
0.00134322
0.00134439
0.00134601
0.00134742
0.00134783
0.0013471
0.0013458
0.0013446
0.00134376
0.00134332
0.00134315
0.00134316
0.00134327
0.00134339
0.00134346
0.00134228
0.00134228
0.00134228
0.00134228
0.00134228
0.00134229
0.0013423
0.0013423
0.0013423
0.0013423
0.0013423
0.00134229
0.00134229
0.00134229
0.00134232
0.00134244
0.00134292
0.00134414
0.00134633
0.00134922
0.00135185
0.00135325
0.00135313
0.00135193
0.00135035
0.0013489
0.00134788
0.0013473
0.00134709
0.00134709
0.00134718
0.00134725
0.00134227
0.00134227
0.00134227
0.00134228
0.00134228
0.00134228
0.00134229
0.00134229
0.0013423
0.0013423
0.00134229
0.00134229
0.00134228
0.0013423
0.00134236
0.00134262
0.00134355
0.00134585
0.00134983
0.00135496
0.00135987
0.00136335
0.00136496
0.00136493
0.00136381
0.00136216
0.00136047
0.00135907
0.00135809
0.0013575
0.00135721
0.00135711
0.00134228
0.00134228
0.00134228
0.00134228
0.00134228
0.00134228
0.00134229
0.0013423
0.00134231
0.00134229
0.00134229
0.00134229
0.0013423
0.00134235
0.00134249
0.00134297
0.00134458
0.00134845
0.00135488
0.00136283
0.00137048
0.0013765
0.00138048
0.00138252
0.00138295
0.00138215
0.00138058
0.00137873
0.001377
0.00137567
0.00137484
0.00137448
0.00134234
0.00134234
0.00134234
0.00134233
0.00134233
0.00134233
0.00134233
0.00134234
0.00134234
0.00134234
0.00134235
0.00134237
0.00134242
0.00134251
0.00134274
0.00134343
0.00134559
0.0013506
0.00135859
0.00136809
0.00137704
0.00138442
0.00139013
0.00139426
0.00139685
0.00139797
0.00139782
0.0013968
0.00139536
0.00139398
0.00139297
0.00139248
0.00134249
0.00134249
0.00134248
0.00134247
0.00134246
0.00134245
0.00134245
0.00134246
0.00134247
0.00134248
0.00134252
0.00134259
0.00134269
0.00134285
0.00134315
0.00134392
0.00134617
0.00135122
0.00135906
0.0013682
0.00137682
0.00138434
0.00139101
0.00139686
0.00140163
0.001405
0.00140686
0.0014074
0.00140701
0.0014062
0.00140542
0.00140498
0.00134284
0.00134283
0.00134281
0.00134278
0.00134276
0.00134274
0.00134273
0.00134274
0.00134277
0.00134283
0.00134293
0.00134308
0.00134328
0.00134355
0.00134393
0.00134469
0.00134666
0.00135099
0.00135765
0.00136543
0.00137304
0.00138033
0.00138769
0.00139508
0.0014019
0.00140744
0.00141129
0.00141343
0.00141417
0.00141402
0.00141356
0.00141321
0.00134351
0.00134349
0.00134345
0.00134341
0.00134336
0.00134332
0.00134331
0.00134334
0.00134343
0.00134357
0.0013438
0.00134411
0.00134449
0.00134493
0.00134544
0.00134617
0.00134774
0.00135108
0.0013563
0.00136256
0.00136907
0.00137597
0.00138375
0.0013923
0.00140082
0.0014083
0.00141399
0.00141764
0.00141944
0.00141993
0.00141975
0.00141948
0.00134471
0.00134467
0.0013446
0.00134451
0.00134442
0.00134437
0.00134438
0.00134447
0.00134468
0.001345
0.00134545
0.00134603
0.00134669
0.00134741
0.00134813
0.0013489
0.00135011
0.00135253
0.00135645
0.00136144
0.00136707
0.00137353
0.00138131
0.00139034
0.00139987
0.00140873
0.00141593
0.00142094
0.00142378
0.0014249
0.00142501
0.0014248
0.00134665
0.00134658
0.00134645
0.0013463
0.00134618
0.00134613
0.00134621
0.00134645
0.00134688
0.0013475
0.00134831
0.00134927
0.00135033
0.00135141
0.00135243
0.00135336
0.00135438
0.00135609
0.00135898
0.00136301
0.00136795
0.00137397
0.00138141
0.00139027
0.00139995
0.00140943
0.0014176
0.00142369
0.00142746
0.00142922
0.00142964
0.0014295
0.00134957
0.00134945
0.00134925
0.00134904
0.00134889
0.0013489
0.00134914
0.00134966
0.00135046
0.00135151
0.0013528
0.00135424
0.00135576
0.00135726
0.00135864
0.00135983
0.00136083
0.0013621
0.00136424
0.00136748
0.00137176
0.00137719
0.00138402
0.00139224
0.00140142
0.00141076
0.00141928
0.00142607
0.00143062
0.001433
0.00143375
0.00143371
0.00135373
0.00135354
0.00135325
0.00135298
0.00135288
0.00135307
0.00135363
0.00135457
0.00135588
0.00135748
0.0013593
0.00136124
0.00136321
0.00136512
0.00136684
0.00136831
0.00136943
0.00137047
0.00137207
0.00137463
0.00137818
0.00138283
0.00138875
0.00139597
0.00140421
0.00141288
0.00142119
0.00142825
0.00143337
0.00143631
0.00143741
0.00143748
0.00135938
0.00135909
0.00135871
0.00135846
0.00135854
0.00135909
0.00136014
0.00136165
0.00136354
0.0013657
0.00136801
0.00137038
0.00137271
0.00137491
0.00137688
0.00137856
0.00137981
0.00138076
0.00138198
0.00138393
0.00138672
0.00139045
0.00139528
0.00140127
0.00140827
0.0014159
0.00142355
0.00143046
0.00143584
0.00143922
0.00144068
0.00144088
0.00136677
0.00136637
0.00136596
0.00136588
0.00136635
0.00136745
0.00136912
0.00137124
0.00137367
0.00137626
0.00137891
0.00138152
0.00138402
0.00138633
0.00138839
0.00139015
0.00139146
0.00139236
0.0013933
0.00139472
0.00139678
0.0013996
0.0014033
0.00140798
0.00141358
0.00141991
0.00142655
0.00143289
0.0014382
0.00144182
0.00144358
0.00144394
0.00137619
0.00137571
0.00137542
0.00137576
0.00137683
0.00137859
0.00138085
0.00138344
0.00138619
0.00138897
0.00139169
0.00139429
0.00139671
0.00139892
0.00140087
0.00140254
0.00140379
0.00140461
0.00140533
0.00140633
0.00140778
0.00140977
0.00141244
0.00141586
0.00142006
0.00142495
0.00143032
0.00143576
0.00144062
0.00144422
0.00144617
0.00144668
0.00138799
0.00138753
0.00138766
0.00138865
0.0013904
0.00139267
0.00139526
0.00139797
0.00140069
0.00140332
0.00140581
0.00140811
0.00141023
0.00141212
0.00141378
0.0014152
0.00141627
0.00141696
0.00141749
0.00141817
0.00141912
0.00142045
0.00142224
0.00142457
0.00142748
0.00143097
0.00143495
0.0014392
0.00144327
0.00144654
0.00144851
0.00144913
0.00140265
0.00140248
0.00140333
0.00140496
0.00140706
0.0014094
0.00141182
0.0014142
0.00141648
0.0014186
0.00142056
0.00142235
0.00142395
0.00142537
0.00142661
0.00142766
0.00142846
0.00142896
0.00142933
0.00142975
0.00143034
0.00143115
0.00143225
0.0014337
0.00143552
0.00143776
0.00144038
0.00144331
0.0014463
0.00144892
0.00145066
0.00145131
0.0014209
0.00142136
0.00142272
0.00142436
0.0014261
0.00142786
0.00142956
0.00143117
0.00143265
0.00143401
0.00143524
0.00143634
0.00143732
0.00143818
0.00143892
0.00143955
0.00144002
0.00144032
0.00144053
0.00144076
0.00144107
0.00144149
0.00144207
0.00144283
0.0014438
0.00144499
0.00144641
0.00144805
0.00144982
0.00145148
0.00145272
0.00145326
0.00144358
0.00144393
0.00144461
0.0014453
0.00144598
0.00144663
0.00144724
0.00144781
0.00144832
0.00144878
0.00144919
0.00144956
0.00144988
0.00145016
0.00145041
0.00145061
0.00145077
0.00145087
0.00145093
0.001451
0.0014511
0.00145123
0.0014514
0.00145163
0.00145193
0.00145229
0.00145273
0.00145324
0.0014538
0.00145436
0.00145481
0.00145503
)
;


// ************************************************************************* //
