/*--------------------------------*- C++ -*----------------------------------*\
| =========                 |                                                 |
| \\      /  F ield         | OpenFOAM: The Open Source CFD Toolbox           |
|  \\    /   O peration     | Version:  2212                                  |
|   \\  /    A nd           | Website:  www.openfoam.com                      |
|    \\/     M anipulation  |                                                 |
\*---------------------------------------------------------------------------*/
FoamFile
{
    version     2.0;
    format      ascii;
    arch        "LSB;label=64;scalar=64";
    class       volScalarField::Internal;
    location    "40";
    object      dGco2;
}
// * * * * * * * * * * * * * * * * * * * * * * * * * * * * * * * * * * * * * //

dimensions      [1 -3 -1 0 0 0 0];

value           nonuniform List<scalar> 
1024
(
0.000225732
0.000225733
0.000225733
0.000225731
0.00022573
0.000225728
0.000225727
0.000225726
0.000225725
0.000225718
0.000225712
0.000225709
0.000225708
0.000225707
0.000225706
0.000225705
0.000225708
0.000225711
0.000225714
0.000225718
0.000225721
0.000225724
0.000225725
0.000225727
0.000225727
0.000225728
0.000225729
0.000225731
0.000225734
0.000225737
0.00022574
0.000225741
0.000225732
0.000225732
0.000225732
0.00022573
0.000225729
0.000225727
0.000225727
0.000225726
0.000225724
0.000225718
0.000225711
0.000225709
0.000225708
0.000225707
0.000225706
0.000225705
0.000225708
0.000225711
0.000225714
0.000225718
0.000225722
0.000225725
0.000225726
0.000225727
0.000225727
0.000225728
0.000225729
0.00022573
0.000225734
0.000225737
0.00022574
0.00022574
0.000225731
0.00022573
0.000225729
0.000225728
0.000225727
0.000225726
0.000225725
0.000225726
0.000225724
0.000225718
0.000225711
0.000225709
0.000225708
0.000225707
0.000225706
0.000225705
0.000225709
0.000225711
0.000225715
0.000225718
0.000225723
0.000225726
0.000225728
0.000225729
0.000225728
0.000225728
0.000225728
0.00022573
0.000225733
0.000225736
0.000225738
0.000225738
0.000225727
0.000225727
0.000225726
0.000225724
0.000225724
0.000225723
0.000225724
0.000225725
0.000225723
0.000225717
0.000225711
0.000225709
0.000225708
0.000225707
0.000225706
0.000225705
0.000225709
0.000225712
0.000225715
0.000225719
0.000225725
0.00022573
0.000225731
0.000225732
0.00022573
0.000225729
0.000225729
0.00022573
0.000225732
0.000225734
0.000225736
0.000225736
0.000225723
0.000225722
0.000225721
0.00022572
0.00022572
0.000225721
0.000225722
0.000225724
0.000225722
0.000225716
0.00022571
0.000225709
0.000225709
0.000225708
0.000225706
0.000225705
0.000225709
0.000225712
0.000225715
0.00022572
0.000225728
0.000225735
0.000225737
0.000225736
0.000225733
0.000225731
0.00022573
0.00022573
0.000225731
0.000225733
0.000225734
0.000225734
0.000225718
0.000225718
0.000225717
0.000225717
0.000225717
0.000225718
0.00022572
0.000225722
0.000225721
0.000225715
0.00022571
0.000225709
0.000225709
0.000225708
0.000225707
0.000225705
0.00022571
0.000225712
0.000225715
0.000225722
0.000225733
0.000225742
0.000225746
0.000225744
0.000225738
0.000225734
0.000225731
0.00022573
0.00022573
0.000225732
0.000225732
0.000225732
0.000225715
0.000225714
0.000225714
0.000225714
0.000225715
0.000225717
0.000225719
0.00022572
0.000225719
0.000225714
0.00022571
0.00022571
0.00022571
0.000225708
0.000225707
0.000225705
0.00022571
0.000225713
0.000225716
0.000225724
0.00022574
0.000225755
0.000225759
0.000225755
0.000225745
0.000225739
0.000225734
0.000225731
0.00022573
0.000225731
0.000225731
0.000225731
0.000225713
0.000225713
0.000225713
0.000225714
0.000225715
0.000225716
0.000225718
0.000225718
0.000225717
0.000225713
0.000225711
0.000225711
0.00022571
0.000225709
0.000225708
0.000225706
0.000225711
0.000225714
0.000225718
0.00022573
0.000225754
0.000225774
0.000225777
0.000225769
0.000225754
0.000225744
0.000225737
0.000225732
0.000225731
0.00022573
0.00022573
0.00022573
0.000225713
0.000225713
0.000225713
0.000225714
0.000225715
0.000225716
0.000225717
0.000225717
0.000225716
0.000225712
0.000225711
0.000225712
0.000225711
0.00022571
0.000225708
0.000225707
0.000225712
0.000225716
0.000225722
0.000225743
0.000225778
0.000225804
0.000225804
0.000225786
0.000225765
0.00022575
0.00022574
0.000225734
0.000225731
0.00022573
0.000225729
0.000225729
0.000225713
0.000225713
0.000225713
0.000225714
0.000225715
0.000225716
0.000225716
0.000225715
0.000225715
0.000225712
0.000225712
0.000225713
0.000225712
0.000225711
0.000225709
0.000225708
0.000225714
0.000225721
0.000225733
0.000225769
0.00022582
0.000225852
0.000225841
0.000225808
0.000225775
0.000225754
0.000225741
0.000225734
0.000225731
0.000225729
0.000225728
0.000225728
0.000225713
0.000225713
0.000225713
0.000225714
0.000225715
0.000225715
0.000225716
0.000225715
0.000225715
0.000225713
0.000225713
0.000225714
0.000225713
0.000225712
0.00022571
0.000225709
0.000225718
0.000225732
0.000225759
0.00022582
0.000225895
0.000225927
0.000225893
0.000225831
0.000225782
0.000225754
0.00022574
0.000225733
0.00022573
0.000225728
0.000225728
0.000225727
0.000225713
0.000225713
0.000225713
0.000225714
0.000225714
0.000225715
0.000225716
0.000225715
0.000225715
0.000225714
0.000225714
0.000225715
0.000225714
0.000225713
0.000225712
0.000225712
0.000225726
0.000225755
0.000225812
0.000225916
0.000226023
0.00022605
0.000225975
0.000225866
0.000225791
0.000225753
0.000225737
0.000225731
0.000225728
0.000225727
0.000225727
0.000225727
0.000225713
0.000225713
0.000225713
0.000225713
0.000225714
0.000225715
0.000225716
0.000225717
0.000225716
0.000225715
0.000225715
0.000225715
0.000225715
0.000225714
0.000225713
0.000225717
0.000225741
0.0002258
0.000225915
0.000226091
0.000226251
0.000226277
0.000226153
0.000225978
0.000225847
0.000225775
0.000225744
0.000225733
0.000225733
0.000225738
0.000225745
0.000225751
0.000225712
0.000225712
0.000225713
0.000225713
0.000225714
0.000225715
0.000225716
0.000225717
0.000225716
0.000225716
0.000225716
0.000225716
0.000225715
0.000225714
0.000225716
0.000225726
0.000225772
0.00022589
0.00022611
0.000226415
0.000226681
0.000226758
0.00022662
0.000226375
0.000226149
0.000225992
0.000225908
0.000225877
0.000225879
0.000225899
0.000225921
0.000225936
0.000225712
0.000225712
0.000225712
0.000225713
0.000225714
0.000225714
0.000225716
0.000225717
0.000225717
0.000225717
0.000225716
0.000225715
0.000225715
0.000225715
0.00022572
0.000225743
0.000225834
0.000226064
0.000226475
0.000227019
0.000227515
0.000227779
0.000227756
0.00022753
0.000227233
0.00022696
0.000226767
0.000226659
0.000226618
0.000226619
0.000226636
0.000226649
0.000225711
0.000225711
0.000225712
0.000225712
0.000225713
0.000225713
0.000225714
0.000225715
0.000225715
0.000225716
0.000225715
0.000225714
0.000225714
0.000225716
0.000225728
0.000225777
0.000225952
0.000226385
0.000227135
0.0002281
0.000229024
0.00022968
0.000229983
0.000229978
0.000229766
0.000229456
0.000229139
0.000228875
0.000228689
0.000228578
0.000228524
0.000228506
0.000225713
0.000225713
0.000225713
0.000225713
0.000225713
0.000225713
0.000225715
0.000225717
0.000225718
0.000225715
0.000225714
0.000225715
0.000225718
0.000225726
0.000225752
0.000225843
0.000226147
0.000226875
0.000228085
0.000229583
0.000231023
0.000232156
0.000232905
0.00023329
0.000233371
0.00023322
0.000232925
0.000232576
0.000232251
0.000232
0.000231844
0.000231776
0.000225724
0.000225724
0.000225723
0.000225723
0.000225722
0.000225722
0.000225723
0.000225724
0.000225724
0.000225724
0.000225726
0.000225731
0.000225739
0.000225757
0.000225799
0.000225929
0.000226337
0.00022728
0.000228784
0.000230572
0.000232258
0.000233648
0.000234723
0.000235501
0.000235988
0.000236198
0.000236172
0.000235978
0.000235708
0.000235447
0.000235258
0.000235166
0.000225753
0.000225752
0.000225751
0.000225749
0.000225747
0.000225746
0.000225745
0.000225746
0.000225748
0.000225751
0.000225759
0.000225771
0.00022579
0.00022582
0.000225876
0.000226022
0.000226446
0.000227397
0.000228873
0.000230593
0.000232216
0.000233633
0.000234888
0.000235991
0.000236888
0.000237522
0.000237874
0.000237975
0.000237902
0.000237749
0.000237603
0.00023752
0.000225817
0.000225815
0.000225812
0.000225808
0.000225803
0.000225799
0.000225798
0.0002258
0.000225806
0.000225817
0.000225836
0.000225864
0.000225902
0.000225952
0.000226024
0.000226166
0.000226538
0.000227352
0.000228606
0.000230071
0.000231505
0.000232877
0.000234264
0.000235656
0.00023694
0.000237983
0.000238708
0.00023911
0.000239249
0.000239222
0.000239134
0.000239069
0.000225945
0.000225941
0.000225934
0.000225924
0.000225915
0.000225908
0.000225907
0.000225913
0.000225929
0.000225957
0.000225999
0.000226057
0.000226129
0.000226212
0.000226308
0.000226445
0.00022674
0.00022737
0.000228352
0.00022953
0.000230757
0.000232057
0.000233522
0.000235131
0.000236736
0.000238144
0.000239215
0.000239902
0.000240242
0.000240334
0.0002403
0.000240248
0.00022617
0.000226163
0.000226149
0.000226132
0.000226116
0.000226106
0.000226108
0.000226126
0.000226164
0.000226225
0.000226311
0.000226419
0.000226544
0.000226678
0.000226814
0.00022696
0.000227188
0.000227643
0.000228381
0.000229321
0.00023038
0.000231598
0.000233062
0.000234763
0.000236556
0.000238226
0.000239581
0.000240524
0.000241059
0.000241271
0.00024129
0.00024125
0.000226535
0.000226522
0.000226498
0.00022647
0.000226447
0.000226437
0.000226452
0.000226497
0.000226578
0.000226696
0.000226848
0.000227028
0.000227228
0.000227431
0.000227623
0.000227799
0.000227991
0.000228313
0.000228858
0.000229615
0.000230546
0.00023168
0.000233081
0.000234749
0.000236572
0.000238357
0.000239895
0.000241041
0.000241752
0.000242084
0.000242161
0.000242136
0.000227086
0.000227063
0.000227025
0.000226985
0.000226958
0.00022696
0.000227005
0.000227102
0.000227253
0.000227452
0.000227693
0.000227964
0.00022825
0.000228533
0.000228793
0.000229016
0.000229206
0.000229445
0.000229848
0.000230458
0.000231264
0.000232287
0.000233572
0.00023512
0.000236848
0.000238607
0.000240211
0.00024149
0.000242348
0.000242795
0.000242936
0.000242928
0.000227869
0.000227833
0.000227777
0.000227727
0.000227709
0.000227745
0.00022785
0.000228028
0.000228274
0.000228575
0.000228917
0.000229283
0.000229655
0.000230013
0.000230338
0.000230614
0.000230825
0.000231021
0.000231323
0.000231804
0.000232473
0.000233348
0.000234462
0.000235823
0.000237374
0.000239007
0.000240571
0.000241901
0.000242865
0.000243418
0.000243626
0.000243639
0.000228932
0.000228878
0.000228806
0.000228759
0.000228775
0.000228878
0.000229075
0.000229361
0.000229717
0.000230123
0.000230559
0.000231004
0.000231442
0.000231856
0.000232228
0.000232545
0.00023278
0.000232959
0.000233189
0.000233555
0.00023408
0.000234783
0.000235692
0.000236821
0.000238139
0.000239576
0.000241016
0.000242316
0.00024333
0.000243967
0.00024424
0.000244279
0.000230324
0.000230249
0.000230172
0.000230157
0.000230246
0.000230452
0.000230767
0.000231167
0.000231624
0.000232112
0.000232611
0.000233102
0.000233572
0.000234007
0.000234394
0.000234726
0.000234973
0.000235142
0.000235319
0.000235587
0.000235976
0.000236505
0.000237203
0.000238084
0.000239139
0.00024033
0.00024158
0.000242775
0.000243774
0.000244457
0.000244787
0.000244854
0.000232098
0.000232007
0.000231953
0.000232016
0.000232219
0.000232549
0.000232975
0.000233463
0.000233981
0.000234504
0.000235017
0.000235506
0.000235962
0.000236378
0.000236745
0.00023706
0.000237295
0.000237449
0.000237585
0.000237774
0.000238046
0.000238422
0.000238923
0.000239568
0.000240358
0.00024128
0.000242291
0.000243315
0.00024423
0.000244909
0.000245276
0.000245371
0.000234319
0.000234233
0.000234257
0.000234444
0.000234773
0.000235202
0.000235689
0.0002362
0.000236711
0.000237206
0.000237674
0.000238109
0.000238507
0.000238864
0.000239177
0.000239444
0.000239645
0.000239774
0.000239875
0.000240002
0.000240182
0.000240432
0.000240769
0.000241208
0.000241757
0.000242414
0.000243163
0.000243963
0.000244729
0.000245346
0.000245716
0.000245832
0.00023708
0.000237048
0.000237207
0.000237514
0.000237911
0.000238352
0.000238807
0.000239256
0.000239684
0.000240084
0.000240453
0.000240789
0.000241091
0.000241359
0.000241592
0.00024179
0.000241939
0.000242035
0.000242104
0.000242184
0.000242293
0.000242447
0.000242654
0.000242926
0.000243271
0.000243691
0.000244185
0.000244736
0.0002453
0.000245793
0.000246121
0.000246243
0.000240516
0.000240602
0.00024086
0.000241168
0.000241496
0.000241827
0.000242148
0.000242451
0.00024273
0.000242986
0.000243216
0.000243424
0.000243608
0.00024377
0.000243909
0.000244028
0.000244117
0.000244174
0.000244214
0.000244256
0.000244314
0.000244394
0.000244503
0.000244646
0.000244828
0.000245053
0.000245321
0.000245629
0.000245962
0.000246275
0.000246508
0.00024661
0.000244787
0.000244853
0.000244982
0.000245112
0.000245239
0.000245362
0.000245477
0.000245583
0.000245679
0.000245766
0.000245844
0.000245913
0.000245974
0.000246027
0.000246073
0.000246111
0.000246141
0.000246159
0.000246172
0.000246185
0.000246203
0.000246227
0.00024626
0.000246304
0.00024636
0.000246428
0.00024651
0.000246606
0.000246712
0.000246817
0.000246902
0.000246944
)
;


// ************************************************************************* //
