/*--------------------------------*- C++ -*----------------------------------*\
| =========                 |                                                 |
| \\      /  F ield         | OpenFOAM: The Open Source CFD Toolbox           |
|  \\    /   O peration     | Version:  2212                                  |
|   \\  /    A nd           | Website:  www.openfoam.com                      |
|    \\/     M anipulation  |                                                 |
\*---------------------------------------------------------------------------*/
FoamFile
{
    version     2.0;
    format      ascii;
    arch        "LSB;label=64;scalar=64";
    class       volScalarField;
    location    "40";
    object      Gco2;
}
// * * * * * * * * * * * * * * * * * * * * * * * * * * * * * * * * * * * * * //

dimensions      [1 -3 0 0 0 0 0];

internalField   nonuniform List<scalar> 
1024
(
0.0229347
0.0229346
0.022935
0.0229357
0.0229365
0.0229372
0.0229376
0.0229377
0.0229385
0.0229412
0.0229441
0.0229454
0.0229458
0.0229461
0.0229465
0.0229471
0.0229455
0.0229441
0.0229428
0.0229411
0.0229395
0.0229384
0.0229377
0.022937
0.022937
0.0229366
0.0229363
0.0229354
0.022934
0.0229327
0.0229318
0.0229314
0.0229348
0.0229349
0.0229354
0.0229361
0.0229368
0.0229375
0.0229378
0.0229378
0.0229386
0.0229414
0.0229442
0.0229454
0.0229458
0.0229461
0.0229465
0.0229471
0.0229455
0.0229441
0.0229427
0.022941
0.0229393
0.022938
0.0229373
0.0229367
0.0229369
0.0229365
0.0229363
0.0229354
0.0229341
0.0229328
0.022932
0.0229318
0.0229356
0.0229359
0.0229364
0.022937
0.0229377
0.0229381
0.0229382
0.022938
0.0229388
0.0229416
0.0229444
0.0229455
0.0229457
0.0229461
0.0229465
0.022947
0.0229454
0.022944
0.0229426
0.0229408
0.0229388
0.0229372
0.0229364
0.022936
0.0229365
0.0229363
0.0229363
0.0229356
0.0229345
0.0229333
0.0229326
0.0229325
0.0229372
0.0229375
0.022938
0.0229385
0.0229389
0.0229391
0.0229389
0.0229385
0.0229392
0.022942
0.0229446
0.0229454
0.0229456
0.022946
0.0229465
0.022947
0.0229453
0.0229439
0.0229425
0.0229404
0.0229378
0.0229356
0.0229348
0.0229347
0.0229357
0.0229359
0.0229362
0.0229358
0.0229349
0.022934
0.0229334
0.0229333
0.0229392
0.0229395
0.0229399
0.0229402
0.0229403
0.0229402
0.0229397
0.022939
0.0229397
0.0229424
0.0229447
0.0229454
0.0229455
0.0229459
0.0229464
0.022947
0.0229451
0.0229439
0.0229424
0.02294
0.0229364
0.0229332
0.0229321
0.0229324
0.0229342
0.022935
0.0229358
0.0229359
0.0229353
0.0229346
0.0229342
0.0229341
0.0229411
0.0229414
0.0229416
0.0229417
0.0229416
0.0229412
0.0229404
0.0229397
0.0229403
0.0229429
0.0229448
0.0229452
0.0229453
0.0229458
0.0229463
0.0229469
0.0229449
0.0229437
0.0229422
0.0229393
0.0229342
0.0229296
0.0229281
0.022929
0.0229319
0.0229335
0.022935
0.0229356
0.0229355
0.0229352
0.0229349
0.0229349
0.0229425
0.0229427
0.0229427
0.0229426
0.0229423
0.0229418
0.0229409
0.0229404
0.022941
0.0229434
0.0229448
0.0229449
0.022945
0.0229455
0.0229462
0.0229467
0.0229446
0.0229435
0.022942
0.022938
0.0229307
0.022924
0.0229223
0.0229242
0.0229286
0.0229315
0.0229339
0.0229352
0.0229356
0.0229356
0.0229355
0.0229355
0.0229432
0.0229433
0.0229432
0.022943
0.0229426
0.022942
0.0229413
0.0229412
0.0229418
0.0229438
0.0229446
0.0229445
0.0229447
0.0229452
0.0229459
0.0229465
0.0229442
0.022943
0.0229412
0.0229352
0.0229244
0.0229152
0.0229137
0.0229177
0.0229243
0.0229289
0.0229324
0.0229345
0.0229354
0.0229358
0.0229359
0.0229359
0.0229434
0.0229434
0.0229432
0.022943
0.0229426
0.0229421
0.0229416
0.0229421
0.0229424
0.0229439
0.0229443
0.0229441
0.0229443
0.0229449
0.0229456
0.0229462
0.0229437
0.0229419
0.0229392
0.0229294
0.0229133
0.0229013
0.0229015
0.0229094
0.0229193
0.0229263
0.022931
0.0229338
0.0229352
0.0229359
0.0229362
0.0229363
0.0229433
0.0229433
0.0229432
0.0229429
0.0229426
0.0229422
0.022942
0.0229427
0.0229427
0.0229438
0.0229438
0.0229436
0.0229438
0.0229444
0.0229452
0.0229457
0.0229428
0.0229396
0.0229339
0.0229173
0.0228935
0.0228791
0.0228844
0.0228997
0.0229147
0.0229244
0.0229303
0.0229336
0.0229352
0.0229361
0.0229364
0.0229365
0.0229433
0.0229433
0.0229431
0.0229429
0.0229427
0.0229423
0.0229422
0.0229427
0.0229427
0.0229435
0.0229433
0.0229431
0.0229434
0.022944
0.0229446
0.0229449
0.022941
0.0229345
0.0229219
0.0228935
0.0228589
0.0228445
0.0228609
0.0228894
0.0229118
0.0229246
0.022931
0.022934
0.0229356
0.0229363
0.0229367
0.0229368
0.0229433
0.0229433
0.0229432
0.022943
0.0229427
0.0229424
0.0229421
0.0229423
0.0229424
0.022943
0.0229429
0.0229427
0.022943
0.0229435
0.022944
0.0229435
0.0229374
0.0229239
0.0228972
0.022849
0.0227998
0.0227886
0.0228245
0.0228742
0.0229083
0.0229253
0.0229324
0.0229353
0.0229366
0.0229372
0.0229372
0.022937
0.0229434
0.0229433
0.0229432
0.022943
0.0229428
0.0229424
0.022942
0.0229418
0.022942
0.0229425
0.0229424
0.0229424
0.0229427
0.0229432
0.0229432
0.0229413
0.0229301
0.0229027
0.0228495
0.022768
0.0226958
0.0226861
0.0227456
0.0228263
0.0228849
0.0229166
0.0229302
0.0229348
0.022935
0.0229328
0.0229297
0.0229273
0.0229435
0.0229435
0.0229434
0.0229432
0.0229429
0.0229425
0.022942
0.0229414
0.0229417
0.022942
0.022942
0.0229422
0.0229426
0.0229429
0.0229421
0.0229371
0.0229157
0.0228612
0.0227599
0.0226202
0.0225007
0.0224699
0.0225378
0.022652
0.0227547
0.0228249
0.0228616
0.0228747
0.0228732
0.0228642
0.022854
0.0228475
0.0229437
0.0229437
0.0229436
0.0229434
0.0229431
0.0229427
0.0229421
0.0229414
0.0229416
0.0229417
0.0229419
0.0229423
0.0229427
0.0229427
0.0229404
0.0229294
0.0228875
0.0227819
0.0225934
0.0223467
0.0221247
0.0220116
0.0220296
0.0221378
0.0222747
0.0223982
0.0224845
0.0225315
0.022548
0.0225462
0.0225379
0.0225316
0.0229441
0.0229441
0.022944
0.0229438
0.0229435
0.0229432
0.0229427
0.0229423
0.0229422
0.0229422
0.0229424
0.0229429
0.0229431
0.0229422
0.0229366
0.0229139
0.0228341
0.0226367
0.0222965
0.0218627
0.0214514
0.0211642
0.0210364
0.0210462
0.0211457
0.021287
0.0214289
0.0215454
0.0216266
0.0216745
0.0216975
0.0217049
0.0229435
0.0229436
0.0229436
0.0229436
0.0229435
0.0229432
0.0229427
0.0229416
0.0229414
0.0229426
0.022943
0.0229427
0.0229414
0.0229377
0.0229259
0.0228846
0.0227471
0.0224183
0.0218754
0.0212077
0.0205708
0.0200729
0.0197462
0.0195802
0.0195481
0.0196169
0.0197482
0.0199025
0.0200458
0.0201559
0.0202243
0.0202539
0.0229384
0.0229385
0.0229387
0.022939
0.0229392
0.0229393
0.0229392
0.0229388
0.0229386
0.0229386
0.0229378
0.0229357
0.0229318
0.0229241
0.0229051
0.0228468
0.0226636
0.0222415
0.0215721
0.0207806
0.020038
0.0194276
0.0189557
0.0186139
0.0183994
0.0183067
0.0183182
0.0184029
0.0185215
0.0186359
0.0187189
0.0187593
0.0229258
0.0229261
0.0229268
0.0229276
0.0229284
0.0229291
0.0229294
0.022929
0.0229283
0.0229268
0.0229236
0.0229181
0.0229096
0.0228962
0.0228709
0.0228058
0.0226167
0.0221937
0.0215398
0.0207815
0.0200682
0.0194453
0.0188926
0.0184059
0.0180092
0.0177287
0.0175728
0.017527
0.0175585
0.0176255
0.0176895
0.0177258
0.0228973
0.0228981
0.0228996
0.0229016
0.0229037
0.0229054
0.0229061
0.0229053
0.0229028
0.022898
0.0228897
0.0228773
0.0228603
0.0228381
0.0228059
0.0227423
0.0225771
0.0222159
0.0216622
0.0210175
0.0203875
0.0197838
0.0191717
0.0185565
0.017989
0.0175276
0.017207
0.0170291
0.0169675
0.0169789
0.0170172
0.0170458
0.022841
0.0228428
0.022846
0.0228501
0.0228543
0.0228574
0.0228583
0.0228557
0.0228487
0.0228366
0.0228178
0.0227922
0.0227603
0.0227233
0.0226805
0.0226192
0.0224883
0.0222096
0.0217764
0.0212579
0.0207186
0.0201461
0.0194991
0.0187879
0.0180792
0.0174572
0.016984
0.0166808
0.0165304
0.0164895
0.0165045
0.0165271
0.0227415
0.0227448
0.0227509
0.0227585
0.0227657
0.0227703
0.0227698
0.0227619
0.022745
0.0227184
0.0226808
0.022633
0.0225773
0.0225176
0.0224573
0.0223922
0.0222909
0.0220892
0.0217639
0.0213499
0.0208837
0.0203467
0.0197003
0.0189492
0.0181575
0.0174208
0.016823
0.0164071
0.0161712
0.0160776
0.016069
0.0160862
0.0225803
0.0225863
0.0225969
0.0226094
0.0226199
0.0226242
0.0226181
0.0225982
0.0225627
0.0225113
0.0224442
0.0223643
0.0222759
0.0221855
0.0221
0.0220218
0.0219365
0.0217935
0.0215529
0.0212189
0.0208089
0.0203086
0.0196899
0.0189536
0.0181494
0.0173624
0.0166844
0.0161794
0.015866
0.0157197
0.0156855
0.0156966
0.0223375
0.0223476
0.0223645
0.0223825
0.0223947
0.0223939
0.0223742
0.0223318
0.0222657
0.0221781
0.0220717
0.0219517
0.021825
0.0216994
0.0215839
0.0214845
0.0214001
0.021294
0.0211157
0.0208463
0.0204909
0.0200394
0.0194723
0.0187895
0.0180275
0.0172521
0.0165453
0.0159819
0.015604
0.0154066
0.0153446
0.0153482
0.0219922
0.0220082
0.0220327
0.022055
0.0220634
0.0220479
0.022002
0.0219239
0.0218157
0.0216831
0.021532
0.0213703
0.0212057
0.0210467
0.0209024
0.0207798
0.0206861
0.0205985
0.0204647
0.0202521
0.0199567
0.0195708
0.0190792
0.0184792
0.0177953
0.0170758
0.0163869
0.0158008
0.0153762
0.0151326
0.0150412
0.0150354
0.0215231
0.0215471
0.0215789
0.0215998
0.0215932
0.0215483
0.0214616
0.0213361
0.0211792
0.0210004
0.020808
0.0206111
0.0204172
0.0202339
0.0200691
0.0199284
0.0198237
0.019744
0.0196418
0.0194798
0.0192479
0.0189381
0.0185371
0.0180395
0.0174584
0.0168254
0.0161911
0.0156184
0.0151718
0.0148915
0.014771
0.014754
0.0209091
0.0209421
0.0209765
0.0209833
0.0209444
0.0208539
0.0207156
0.0205398
0.0203383
0.0201229
0.0199027
0.0196857
0.019478
0.0192855
0.0191137
0.0189665
0.0188568
0.0187817
0.0187028
0.0185841
0.0184125
0.0181789
0.0178715
0.0174832
0.0170182
0.0164934
0.0159428
0.0154166
0.0149768
0.0146761
0.0145304
0.014501
0.0201266
0.020167
0.0201908
0.0201634
0.0200741
0.019929
0.0197415
0.0195269
0.0192987
0.0190678
0.0188414
0.0186255
0.0184239
0.01824
0.0180773
0.0179379
0.0178333
0.017765
0.0177043
0.0176207
0.0175005
0.0173348
0.0171136
0.0168294
0.0164812
0.0160751
0.0156297
0.0151792
0.0147761
0.0144773
0.0143155
0.0142738
0.0191471
0.0191854
0.0191749
0.0190928
0.018948
0.0187593
0.0185448
0.0183195
0.0180942
0.017876
0.0176694
0.0174774
0.0173017
0.0171437
0.0170053
0.0168869
0.0167977
0.0167405
0.0166954
0.0166391
0.0165597
0.0164494
0.0163006
0.0161071
0.0158655
0.0155761
0.0152461
0.0148939
0.0145565
0.014285
0.0141219
0.0140708
0.0179301
0.0179441
0.017874
0.0177387
0.0175644
0.0173702
0.0171695
0.0169719
0.0167833
0.0166067
0.0164439
0.0162957
0.0161623
0.0160437
0.0159407
0.015853
0.0157868
0.0157445
0.0157137
0.0156784
0.0156298
0.0155623
0.0154708
0.0153507
0.015199
0.0150138
0.0147964
0.0145535
0.0143053
0.0140884
0.0139438
0.0138902
0.0164151
0.0163773
0.0162637
0.016128
0.0159835
0.0158378
0.0156964
0.0155631
0.01544
0.0153273
0.0152254
0.0151341
0.0150528
0.0149812
0.0149194
0.014867
0.0148274
0.0148021
0.0147845
0.0147655
0.01474
0.0147046
0.0146567
0.0145936
0.0145134
0.0144145
0.0142965
0.0141606
0.0140143
0.0138761
0.0137735
0.0137289
0.0145327
0.0145037
0.0144468
0.0143897
0.0143337
0.0142796
0.0142288
0.0141821
0.0141397
0.0141014
0.0140672
0.0140367
0.0140099
0.0139863
0.0139661
0.0139489
0.013936
0.0139278
0.0139221
0.0139162
0.0139084
0.0138976
0.013883
0.0138638
0.0138393
0.0138091
0.0137728
0.0137307
0.0136842
0.013638
0.0136006
0.0135819
)
;

boundaryField
{
    movingWall
    {
        type            fixedValue;
        value           uniform 0.0135;
    }
    fixedWalls
    {
        type            zeroGradient;
    }
    floor
    {
        type            zeroGradient;
    }
    frontAndBack
    {
        type            empty;
    }
}


// ************************************************************************* //
