/*--------------------------------*- C++ -*----------------------------------*\
| =========                 |                                                 |
| \\      /  F ield         | OpenFOAM: The Open Source CFD Toolbox           |
|  \\    /   O peration     | Version:  2212                                  |
|   \\  /    A nd           | Website:  www.openfoam.com                      |
|    \\/     M anipulation  |                                                 |
\*---------------------------------------------------------------------------*/
FoamFile
{
    version     2.0;
    format      ascii;
    arch        "LSB;label=64;scalar=64";
    class       volScalarField;
    location    "40";
    object      p;
}
// * * * * * * * * * * * * * * * * * * * * * * * * * * * * * * * * * * * * * //

dimensions      [0 2 -2 0 0 0 0];

internalField   nonuniform List<scalar> 
1024
(
0
2.08288e-05
6.91164e-05
0.0001062
7.57543e-05
-4.40079e-05
-0.000214844
-0.000362111
-0.000416439
-0.000412722
-0.000313461
-6.78916e-05
0.000191218
0.000269422
0.000196478
0.000110532
1.28897e-05
-0.000123034
9.64794e-05
0.000777977
0.00167205
0.00226418
0.00239745
0.002274
0.00205393
0.00185553
0.00171495
0.00162689
0.00157733
0.00155604
0.00155856
0.00157385
-0.0929417
-0.0929252
-0.0928915
-0.0928701
-0.0929026
-0.0930076
-0.0931496
-0.093262
-0.0932746
-0.0932445
-0.093161
-0.0929348
-0.0926901
-0.0926085
-0.0926679
-0.0927463
-0.0928375
-0.0929677
-0.0927712
-0.0921344
-0.0912937
-0.0907486
-0.0906181
-0.0907172
-0.0909146
-0.0910899
-0.0912094
-0.0912764
-0.0913046
-0.0913069
-0.0912909
-0.0912682
-0.199854
-0.199838
-0.199821
-0.199821
-0.199863
-0.199953
-0.200053
-0.200104
-0.200039
-0.199951
-0.199885
-0.199683
-0.199459
-0.19937
-0.199403
-0.199466
-0.199545
-0.199675
-0.199538
-0.198989
-0.198244
-0.197772
-0.197645
-0.197715
-0.197878
-0.198015
-0.198098
-0.198129
-0.198122
-0.198093
-0.198053
-0.198019
-0.322811
-0.322795
-0.322789
-0.322811
-0.322869
-0.32295
-0.323006
-0.322979
-0.322808
-0.322641
-0.32258
-0.322401
-0.322199
-0.322094
-0.322089
-0.322125
-0.322185
-0.322322
-0.322289
-0.321859
-0.321244
-0.320853
-0.320733
-0.320787
-0.320912
-0.321007
-0.321048
-0.321037
-0.320989
-0.320924
-0.320858
-0.320811
-0.464169
-0.464153
-0.464155
-0.464196
-0.464271
-0.464345
-0.464366
-0.46426
-0.463962
-0.463722
-0.463645
-0.463484
-0.463299
-0.463171
-0.463116
-0.463113
-0.463143
-0.463288
-0.463387
-0.463085
-0.462629
-0.462322
-0.462224
-0.462277
-0.462374
-0.462432
-0.462434
-0.462386
-0.462304
-0.462209
-0.462126
-0.462072
-0.626612
-0.626598
-0.62661
-0.626668
-0.626756
-0.626822
-0.626812
-0.626623
-0.62622
-0.625937
-0.62583
-0.62568
-0.625503
-0.625341
-0.625229
-0.625176
-0.625163
-0.625297
-0.625524
-0.625345
-0.625076
-0.624862
-0.624814
-0.624881
-0.624963
-0.624995
-0.624969
-0.624895
-0.624792
-0.624684
-0.624596
-0.624543
-0.813205
-0.813199
-0.813225
-0.813302
-0.8134
-0.813461
-0.813389
-0.813127
-0.812702
-0.812413
-0.812283
-0.812137
-0.811952
-0.81175
-0.81158
-0.81147
-0.811404
-0.811488
-0.81178
-0.811765
-0.81167
-0.811578
-0.811609
-0.811712
-0.811795
-0.811814
-0.811771
-0.811683
-0.811574
-0.811468
-0.811386
-0.81134
-1.02746
-1.02746
-1.0275
-1.02758
-1.02765
-1.0277
-1.0276
-1.02733
-1.02698
-1.02674
-1.02661
-1.02646
-1.02625
-1.026
-1.02578
-1.02561
-1.02549
-1.02549
-1.02575
-1.02594
-1.02599
-1.02605
-1.02619
-1.02636
-1.02646
-1.02648
-1.02643
-1.02634
-1.02623
-1.02613
-1.02606
-1.02602
-1.27342
-1.27343
-1.27346
-1.27352
-1.27357
-1.27356
-1.27349
-1.27335
-1.27318
-1.27306
-1.27296
-1.27279
-1.27253
-1.27224
-1.27197
-1.27175
-1.27159
-1.2715
-1.27167
-1.27199
-1.2722
-1.27242
-1.27269
-1.27294
-1.27308
-1.27311
-1.27306
-1.27297
-1.27286
-1.27276
-1.2727
-1.27267
-1.55583
-1.55584
-1.55586
-1.55587
-1.55589
-1.55591
-1.55595
-1.55601
-1.55607
-1.5561
-1.55604
-1.55585
-1.55553
-1.55518
-1.55487
-1.55463
-1.55444
-1.55432
-1.55443
-1.55476
-1.55507
-1.55542
-1.55581
-1.55615
-1.55634
-1.55638
-1.55633
-1.55622
-1.55609
-1.55598
-1.55593
-1.55591
-1.88032
-1.88032
-1.88033
-1.88033
-1.88034
-1.8804
-1.88055
-1.8808
-1.88108
-1.88128
-1.88128
-1.88105
-1.88066
-1.88025
-1.87992
-1.87967
-1.87949
-1.87938
-1.87947
-1.87973
-1.88006
-1.88046
-1.88091
-1.88128
-1.88147
-1.8815
-1.88142
-1.8813
-1.88116
-1.88105
-1.88101
-1.88101
-2.2533
-2.2533
-2.25331
-2.25331
-2.25332
-2.25341
-2.25361
-2.25395
-2.2544
-2.25476
-2.25483
-2.25457
-2.25412
-2.25367
-2.25334
-2.2531
-2.25294
-2.25286
-2.25292
-2.2531
-2.25337
-2.25372
-2.2541
-2.25438
-2.25451
-2.25449
-2.25439
-2.25426
-2.25415
-2.25408
-2.25405
-2.25406
-2.68198
-2.68198
-2.68199
-2.682
-2.68202
-2.68209
-2.68227
-2.68258
-2.68302
-2.68345
-2.68363
-2.68344
-2.68301
-2.68257
-2.68226
-2.68206
-2.68194
-2.68188
-2.6819
-2.682
-2.68217
-2.68237
-2.68255
-2.68265
-2.68265
-2.6826
-2.6825
-2.68241
-2.68235
-2.68231
-2.68231
-2.68233
-3.17451
-3.17452
-3.17453
-3.17454
-3.17456
-3.1746
-3.1747
-3.17488
-3.17517
-3.17552
-3.17575
-3.17573
-3.17544
-3.17514
-3.17493
-3.1748
-3.17471
-3.17466
-3.17466
-3.17469
-3.17474
-3.17477
-3.17476
-3.17469
-3.1746
-3.17451
-3.17443
-3.17438
-3.17435
-3.17435
-3.17436
-3.17437
-3.74032
-3.74032
-3.74033
-3.74033
-3.74034
-3.74035
-3.74037
-3.74042
-3.74053
-3.74071
-3.7409
-3.74099
-3.74098
-3.7409
-3.74083
-3.74078
-3.74075
-3.74072
-3.7407
-3.74068
-3.74066
-3.7406
-3.7405
-3.74035
-3.74021
-3.7401
-3.74003
-3.74001
-3.74001
-3.74001
-3.74002
-3.74003
-4.39036
-4.39036
-4.39036
-4.39036
-4.39035
-4.39034
-4.39032
-4.39031
-4.39032
-4.39039
-4.39052
-4.39068
-4.39081
-4.3909
-4.39094
-4.39096
-4.39097
-4.39097
-4.39095
-4.39093
-4.39088
-4.39081
-4.3907
-4.39058
-4.39046
-4.39037
-4.39031
-4.39029
-4.39028
-4.39029
-4.3903
-4.3903
-5.08559
-5.08559
-5.08559
-5.08558
-5.08557
-5.08556
-5.08554
-5.08551
-5.0855
-5.08554
-5.08564
-5.08578
-5.08594
-5.08605
-5.08614
-5.0862
-5.08624
-5.08626
-5.08627
-5.08626
-5.08623
-5.08617
-5.08609
-5.086
-5.08592
-5.08586
-5.08582
-5.0858
-5.08579
-5.0858
-5.0858
-5.08581
-5.73597
-5.73597
-5.73596
-5.73596
-5.73596
-5.73595
-5.73593
-5.73592
-5.73592
-5.73595
-5.73602
-5.73611
-5.73623
-5.73633
-5.73642
-5.7365
-5.73656
-5.7366
-5.73664
-5.73666
-5.73666
-5.73662
-5.73656
-5.73649
-5.73642
-5.73637
-5.73633
-5.73631
-5.73631
-5.73631
-5.73631
-5.73632
-6.30219
-6.30219
-6.30219
-6.30219
-6.30219
-6.30219
-6.30219
-6.30218
-6.30219
-6.30221
-6.30226
-6.30232
-6.3024
-6.30249
-6.30257
-6.30265
-6.30271
-6.30278
-6.30284
-6.30289
-6.30292
-6.30291
-6.30286
-6.3028
-6.30274
-6.30268
-6.30264
-6.30261
-6.3026
-6.3026
-6.30261
-6.30262
-6.79513
-6.79513
-6.79513
-6.79513
-6.79513
-6.79513
-6.79513
-6.79514
-6.79514
-6.79516
-6.79519
-6.79524
-6.7953
-6.79537
-6.79545
-6.79552
-6.79559
-6.79566
-6.79574
-6.79581
-6.79586
-6.79586
-6.79584
-6.79579
-6.79573
-6.79567
-6.79562
-6.79558
-6.79557
-6.79557
-6.79557
-6.79558
-7.22426
-7.22426
-7.22426
-7.22426
-7.22426
-7.22426
-7.22426
-7.22427
-7.22427
-7.22429
-7.22431
-7.22435
-7.2244
-7.22446
-7.22452
-7.2246
-7.22467
-7.22474
-7.22482
-7.22489
-7.22494
-7.22496
-7.22494
-7.22491
-7.22486
-7.2248
-7.22474
-7.2247
-7.22468
-7.22468
-7.22468
-7.22469
-7.59783
-7.59783
-7.59783
-7.59783
-7.59783
-7.59783
-7.59783
-7.59784
-7.59784
-7.59785
-7.59787
-7.5979
-7.59795
-7.598
-7.59806
-7.59813
-7.5982
-7.59827
-7.59834
-7.59841
-7.59845
-7.59847
-7.59846
-7.59843
-7.59839
-7.59833
-7.59827
-7.59823
-7.5982
-7.59819
-7.59819
-7.5982
-7.92304
-7.92304
-7.92304
-7.92304
-7.92304
-7.92304
-7.92304
-7.92305
-7.92305
-7.92306
-7.92307
-7.9231
-7.92314
-7.92319
-7.92324
-7.92331
-7.92337
-7.92344
-7.92351
-7.92357
-7.92361
-7.92361
-7.9236
-7.92357
-7.92353
-7.92347
-7.9234
-7.92334
-7.9233
-7.92328
-7.92328
-7.92329
-8.20616
-8.20616
-8.20616
-8.20616
-8.20616
-8.20616
-8.20615
-8.20615
-8.20615
-8.20616
-8.20617
-8.2062
-8.20623
-8.20628
-8.20633
-8.20639
-8.20646
-8.20652
-8.20659
-8.20664
-8.20667
-8.20668
-8.20665
-8.20661
-8.20656
-8.20648
-8.2064
-8.20631
-8.20624
-8.20621
-8.2062
-8.20621
-8.45262
-8.45263
-8.45263
-8.45263
-8.45262
-8.45262
-8.45261
-8.45261
-8.45261
-8.45261
-8.45262
-8.45265
-8.45268
-8.45272
-8.45277
-8.45283
-8.4529
-8.45296
-8.45302
-8.45307
-8.4531
-8.4531
-8.45307
-8.45301
-8.45293
-8.45283
-8.45271
-8.45259
-8.45248
-8.45241
-8.45239
-8.45239
-8.66719
-8.6672
-8.6672
-8.66719
-8.66719
-8.66718
-8.66717
-8.66716
-8.66716
-8.66716
-8.66717
-8.66719
-8.66722
-8.66726
-8.66731
-8.66737
-8.66743
-8.66749
-8.66755
-8.6676
-8.66763
-8.66762
-8.66758
-8.66751
-8.66739
-8.66725
-8.66708
-8.6669
-8.66673
-8.66661
-8.66656
-8.66655
-8.854
-8.854
-8.854
-8.85399
-8.85398
-8.85396
-8.85395
-8.85393
-8.85393
-8.85393
-8.85394
-8.85396
-8.85399
-8.85403
-8.85408
-8.85414
-8.8542
-8.85426
-8.85432
-8.85437
-8.85439
-8.85438
-8.85433
-8.85423
-8.85408
-8.85388
-8.85364
-8.85339
-8.85315
-8.85294
-8.85283
-8.85279
-9.01665
-9.01665
-9.01664
-9.01662
-9.01659
-9.01657
-9.01654
-9.01653
-9.01652
-9.01652
-9.01653
-9.01655
-9.01658
-9.01662
-9.01667
-9.01673
-9.01679
-9.01685
-9.01691
-9.01695
-9.01697
-9.01696
-9.01689
-9.01677
-9.01659
-9.01634
-9.01602
-9.01567
-9.01532
-9.01501
-9.0148
-9.0147
-9.1583
-9.15828
-9.15825
-9.1582
-9.15816
-9.15812
-9.15809
-9.15807
-9.15806
-9.15806
-9.15807
-9.15809
-9.15812
-9.15816
-9.15821
-9.15827
-9.15833
-9.15839
-9.15845
-9.1585
-9.15851
-9.15849
-9.15841
-9.15828
-9.15806
-9.15776
-9.15738
-9.15693
-9.15644
-9.15597
-9.15561
-9.15537
-9.28171
-9.28164
-9.28154
-9.28145
-9.28138
-9.28133
-9.2813
-9.28128
-9.28127
-9.28127
-9.28128
-9.28131
-9.28134
-9.28138
-9.28143
-9.28149
-9.28155
-9.28161
-9.28167
-9.28171
-9.28173
-9.2817
-9.28162
-9.28147
-9.28123
-9.28089
-9.28045
-9.27992
-9.27929
-9.27861
-9.27797
-9.27741
-9.38947
-9.38908
-9.38884
-9.3887
-9.38863
-9.38857
-9.38854
-9.38853
-9.38852
-9.38853
-9.38854
-9.38857
-9.3886
-9.38865
-9.3887
-9.38876
-9.38882
-9.38888
-9.38894
-9.38898
-9.389
-9.38897
-9.38888
-9.38872
-9.38847
-9.38812
-9.38765
-9.38705
-9.38631
-9.38539
-9.38427
-9.38301
-9.48387
-9.48263
-9.48217
-9.48203
-9.48196
-9.48192
-9.4819
-9.48189
-9.48189
-9.4819
-9.48192
-9.48195
-9.48198
-9.48203
-9.48208
-9.48214
-9.4822
-9.48226
-9.48232
-9.48237
-9.48238
-9.48235
-9.48226
-9.4821
-9.48185
-9.48149
-9.48101
-9.48039
-9.47957
-9.47847
-9.47685
-9.47459
)
;

boundaryField
{
    movingWall
    {
        type            calculated;
        value           nonuniform List<scalar> 
32
(
-9.52733
-9.52609
-9.52563
-9.5255
-9.52543
-9.52538
-9.52536
-9.52535
-9.52535
-9.52536
-9.52538
-9.52541
-9.52544
-9.52549
-9.52554
-9.5256
-9.52566
-9.52573
-9.52578
-9.52583
-9.52584
-9.52581
-9.52572
-9.52556
-9.52531
-9.52495
-9.52447
-9.52385
-9.52303
-9.52193
-9.52031
-9.51805
)
;
    }
    fixedWalls
    {
        type            calculated;
        value           nonuniform List<scalar> 
64
(
6.93889e-18
-0.0929417
-0.199854
-0.322811
-0.464169
-0.626612
-0.813205
-1.02746
-1.27342
-1.55583
-1.88032
-2.2533
-2.68198
-3.17451
-3.74032
-4.39036
-5.08559
-5.73597
-6.30219
-6.79513
-7.22426
-7.59783
-7.92304
-8.20616
-8.45262
-8.66719
-8.854
-9.01665
-9.1583
-9.28171
-9.38947
-9.48387
0.00157385
-0.0912682
-0.198019
-0.320811
-0.462072
-0.624543
-0.81134
-1.02602
-1.27267
-1.55591
-1.88101
-2.25406
-2.68233
-3.17437
-3.74003
-4.3903
-5.08581
-5.73632
-6.30262
-6.79558
-7.22469
-7.5982
-7.92329
-8.20621
-8.45239
-8.66655
-8.85279
-9.0147
-9.15537
-9.27741
-9.38301
-9.47459
)
;
    }
    floor
    {
        type            calculated;
        value           nonuniform List<scalar> 
32
(
0.0432185
0.0432411
0.0432934
0.0433339
0.0433035
0.0431805
0.0430046
0.0428522
0.0427919
0.0427901
0.0428902
0.0431383
0.0433997
0.0434771
0.0434017
0.0433144
0.0432158
0.0430798
0.0433037
0.0439927
0.0448965
0.0454972
0.045632
0.0455047
0.0452802
0.0450776
0.0449337
0.0448425
0.0447897
0.0447654
0.0447655
0.0447797
)
;
    }
    frontAndBack
    {
        type            empty;
    }
}


// ************************************************************************* //
