/*--------------------------------*- C++ -*----------------------------------*\
| =========                 |                                                 |
| \\      /  F ield         | OpenFOAM: The Open Source CFD Toolbox           |
|  \\    /   O peration     | Version:  2212                                  |
|   \\  /    A nd           | Website:  www.openfoam.com                      |
|    \\/     M anipulation  |                                                 |
\*---------------------------------------------------------------------------*/
FoamFile
{
    version     2.0;
    format      ascii;
    arch        "LSB;label=64;scalar=64";
    class       volVectorField;
    location    "40";
    object      U;
}
// * * * * * * * * * * * * * * * * * * * * * * * * * * * * * * * * * * * * * //

dimensions      [0 1 -1 0 0 0 0];

internalField   nonuniform List<vector> 
1024
(
(-0.000249052 0.000237508 0)
(-0.000673824 0.000143725 0)
(-8.77881e-05 -0.000205015 0)
(0.00204809 -0.000467799 0)
(0.00486724 -0.000391953 0)
(0.00701824 -0.000102998 0)
(0.00753618 0.000151167 0)
(0.00614212 0.000306754 0)
(0.00321152 0.000288822 0)
(-0.00176212 0.000303546 0)
(-0.00558105 0.000201235 0)
(-0.00672006 -1.09035e-06 0)
(-0.00533664 -0.000128225 0)
(-0.00253043 -9.40171e-05 0)
(-0.000859043 -2.10507e-05 0)
(-0.000484558 -8.09955e-06 0)
(-0.000108613 1.51021e-05 0)
(-0.00273407 0.000166821 0)
(-0.00892673 0.000292515 0)
(-0.0131757 0.000211251 0)
(-0.0122555 -0.000116943 0)
(-0.00649741 -0.000443521 0)
(0.00127676 -0.000425108 0)
(0.00577725 -0.000219889 0)
(0.00789887 -1.89309e-05 0)
(0.00826391 0.000103075 0)
(0.00766223 0.000175705 0)
(0.00646349 0.000230692 0)
(0.00487685 0.000283699 0)
(0.00302367 0.00033308 0)
(0.00124175 0.000290731 0)
(0.00010725 8.50232e-05 0)
(-0.000198224 0.00068373 0)
(-0.000215203 -5.642e-05 0)
(0.00173264 -0.00205788 0)
(0.00591206 -0.00338624 0)
(0.0109404 -0.00301295 0)
(0.0150786 -0.00143719 0)
(0.0166803 0.000374229 0)
(0.0144015 0.00187793 0)
(0.00807135 0.00279042 0)
(-0.00502574 0.00290788 0)
(-0.0139242 0.00156472 0)
(-0.0162783 -7.50256e-06 0)
(-0.0133844 -0.000915356 0)
(-0.00747098 -0.000807642 0)
(-0.00345326 -0.000288487 0)
(-0.00228719 -9.92049e-05 0)
(-0.00144257 0.000250303 0)
(-0.00787223 0.0014068 0)
(-0.0210894 0.00190681 0)
(-0.0280254 0.000721458 0)
(-0.0235954 -0.0016528 0)
(-0.0111352 -0.00375063 0)
(0.00422614 -0.00358681 0)
(0.0126621 -0.00216969 0)
(0.0173489 -0.000869406 0)
(0.0188675 0.000161462 0)
(0.0182225 0.000976818 0)
(0.0160083 0.00172569 0)
(0.0126048 0.0024679 0)
(0.00832296 0.00308351 0)
(0.00388813 0.00299269 0)
(0.000528676 0.0014404 0)
(6.00838e-06 0.000570771 0)
(0.00106166 -0.00156954 0)
(0.00415902 -0.00534055 0)
(0.00889793 -0.00749693 0)
(0.0140538 -0.00664613 0)
(0.0183257 -0.00357456 0)
(0.0203047 0.000349404 0)
(0.0176727 0.00420511 0)
(0.00948777 0.00730669 0)
(-0.00925985 0.00760009 0)
(-0.0200388 0.00380887 0)
(-0.0227421 -4.26651e-05 0)
(-0.0191007 -0.00218417 0)
(-0.012107 -0.00201366 0)
(-0.00673769 -0.000826385 0)
(-0.00469088 -0.00029186 0)
(-0.00347067 0.000704282 0)
(-0.0116538 0.00345019 0)
(-0.0271043 0.00409254 0)
(-0.0328706 0.000704714 0)
(-0.0236784 -0.00481322 0)
(-0.00825361 -0.0089053 0)
(0.00765719 -0.00808624 0)
(0.0163336 -0.00517157 0)
(0.0218063 -0.00253464 0)
(0.0241228 -0.000225632 0)
(0.0237981 0.00186253 0)
(0.0213804 0.00394252 0)
(0.0172336 0.00608734 0)
(0.0117319 0.00797211 0)
(0.00575935 0.00827463 0)
(0.000868935 0.00462079 0)
(0.000179964 -0.000456666 0)
(0.00213815 -0.00471029 0)
(0.00590849 -0.00986499 0)
(0.0105985 -0.0121602 0)
(0.0150818 -0.0104163 0)
(0.0184141 -0.00570583 0)
(0.0195966 0.00055703 0)
(0.0161352 0.00751184 0)
(0.00613178 0.0137114 0)
(-0.0145471 0.0136848 0)
(-0.0244084 0.00652049 0)
(-0.0267341 -0.000164974 0)
(-0.0228856 -0.00376178 0)
(-0.0161286 -0.00355542 0)
(-0.0102948 -0.00164575 0)
(-0.00735177 -0.000626911 0)
(-0.00548298 0.00124362 0)
(-0.0127747 0.00587178 0)
(-0.0271407 0.00637218 0)
(-0.0298577 -0.000191478 0)
(-0.0162888 -0.0093865 0)
(-0.00114666 -0.0144711 0)
(0.010811 -0.0126662 0)
(0.0185238 -0.00848827 0)
(0.0234145 -0.00452017 0)
(0.0255577 -0.000827378 0)
(0.0252639 0.00283132 0)
(0.0228249 0.00669843 0)
(0.0185021 0.0108036 0)
(0.0126455 0.0145069 0)
(0.00619824 0.0154847 0)
(0.000900423 0.0091123 0)
(0.000282758 -0.00232823 0)
(0.00271515 -0.00925415 0)
(0.00666768 -0.0153187 0)
(0.0109949 -0.0169697 0)
(0.0145411 -0.0137157 0)
(0.0165189 -0.00705129 0)
(0.0159128 0.00179974 0)
(0.0105781 0.0123795 0)
(-0.00216358 0.0218123 0)
(-0.0199085 0.0200384 0)
(-0.0276521 0.00920791 0)
(-0.0291007 -0.00042503 0)
(-0.0253853 -0.00543586 0)
(-0.0194431 -0.00523817 0)
(-0.0136961 -0.00272012 0)
(-0.00994579 -0.00117129 0)
(-0.00701925 0.00155635 0)
(-0.0111682 0.00807742 0)
(-0.0226044 0.00826195 0)
(-0.0212777 -0.0022708 0)
(-0.00578324 -0.0148091 0)
(0.00598126 -0.0193042 0)
(0.0142943 -0.0166712 0)
(0.0204538 -0.0115375 0)
(0.0241079 -0.00625322 0)
(0.0253658 -0.00115748 0)
(0.0245443 0.00415064 0)
(0.0218595 0.0100015 0)
(0.017487 0.0163557 0)
(0.0117257 0.0221235 0)
(0.00551837 0.0237017 0)
(0.00068474 0.0140234 0)
(0.000348633 -0.00482926 0)
(0.00290707 -0.0147561 0)
(0.00658712 -0.0212981 0)
(0.010185 -0.0216109 0)
(0.0125439 -0.0162062 0)
(0.0129357 -0.00706901 0)
(0.00960785 0.00496564 0)
(0.000812116 0.020101 0)
(-0.012542 0.030392 0)
(-0.0250201 0.0256072 0)
(-0.0301808 0.0114289 0)
(-0.0305287 -0.000874887 0)
(-0.0270604 -0.00709335 0)
(-0.0220001 -0.00697127 0)
(-0.0165742 -0.00403815 0)
(-0.0122302 -0.00200202 0)
(-0.00817043 0.0013223 0)
(-0.00791288 0.00949381 0)
(-0.0154309 0.00942562 0)
(-0.00934949 -0.00533194 0)
(0.00453221 -0.0199837 0)
(0.0115599 -0.0230688 0)
(0.0177536 -0.0200894 0)
(0.0223467 -0.0140756 0)
(0.0246914 -0.007402 0)
(0.0248594 -0.000803673 0)
(0.0231718 0.00621489 0)
(0.0199716 0.0140698 0)
(0.0154706 0.0226863 0)
(0.00995557 0.0304124 0)
(0.00433918 0.0321397 0)
(0.000400907 0.0185908 0)
(0.000405961 -0.00782994 0)
(0.00277133 -0.0206414 0)
(0.00569473 -0.0270896 0)
(0.00806766 -0.0254152 0)
(0.00885293 -0.0173303 0)
(0.00707147 -0.00512464 0)
(-0.001123 0.0130772 0)
(-0.0118981 0.0305071 0)
(-0.0217149 0.0374585 0)
(-0.0294115 0.029675 0)
(-0.0320533 0.0128323 0)
(-0.0313384 -0.00158536 0)
(-0.028056 -0.00872732 0)
(-0.0236767 -0.00875319 0)
(-0.0186255 -0.0055892 0)
(-0.0140117 -0.00314779 0)
(-0.00931672 0.000336264 0)
(-0.0048091 0.00964634 0)
(-0.00759409 0.00969099 0)
(0.00385392 -0.0102022 0)
(0.0115647 -0.0231045 0)
(0.0161536 -0.0261564 0)
(0.0206167 -0.0229979 0)
(0.0238301 -0.0160238 0)
(0.0250619 -0.00782174 0)
(0.0242644 0.000510253 0)
(0.0216989 0.00935382 0)
(0.0178871 0.0191687 0)
(0.0131824 0.0298528 0)
(0.00794096 0.0391068 0)
(0.00306318 0.0402178 0)
(0.000158203 0.0223525 0)
(0.000395614 -0.0108998 0)
(0.00209576 -0.0257677 0)
(0.00368537 -0.0312507 0)
(0.00415689 -0.0266258 0)
(0.00261147 -0.0146004 0)
(-0.00441965 0.00575138 0)
(-0.0136742 0.0254026 0)
(-0.0218256 0.0389113 0)
(-0.0282819 0.0424826 0)
(-0.0323494 0.032023 0)
(-0.033027 0.0132635 0)
(-0.0314843 -0.00261995 0)
(-0.0282756 -0.0104278 0)
(-0.0242958 -0.0106379 0)
(-0.0195956 -0.00734473 0)
(-0.0150453 -0.00455286 0)
(-0.0104271 -0.00128758 0)
(-0.00350362 0.00812243 0)
(0.000399777 0.00736641 0)
(0.0121554 -0.0137968 0)
(0.0160991 -0.0253292 0)
(0.0190627 -0.0286296 0)
(0.0220993 -0.0253726 0)
(0.0241699 -0.017363 0)
(0.0245755 -0.00747718 0)
(0.0230129 0.00288978 0)
(0.0197298 0.013735 0)
(0.0153946 0.0254797 0)
(0.0105336 0.0379122 0)
(0.00566847 0.0479595 0)
(0.00172946 0.0473882 0)
(-3.80274e-05 0.0249916 0)
(0.000221408 -0.0129451 0)
(0.000733546 -0.0282185 0)
(0.000551773 -0.0314844 0)
(-0.00126465 -0.0220417 0)
(-0.00626758 -0.00310864 0)
(-0.0138269 0.0184023 0)
(-0.020556 0.0347397 0)
(-0.0266769 0.0453482 0)
(-0.0309677 0.0457516 0)
(-0.033 0.0329603 0)
(-0.0326485 0.0128458 0)
(-0.0306611 -0.00401157 0)
(-0.0274869 -0.0123536 0)
(-0.0237002 -0.0127116 0)
(-0.0193165 -0.00927412 0)
(-0.0150454 -0.00611969 0)
(-0.0108916 -0.00315526 0)
(-0.00411634 0.00480519 0)
(0.006851 0.00278642 0)
(0.0153253 -0.0164095 0)
(0.0176004 -0.0270475 0)
(0.0193588 -0.030588 0)
(0.0212239 -0.0272769 0)
(0.022354 -0.018179 0)
(0.0222217 -0.00642295 0)
(0.0199337 0.00623704 0)
(0.0160208 0.0192959 0)
(0.011346 0.0329616 0)
(0.00662758 0.0466799 0)
(0.00263532 0.0563193 0)
(0.000209774 0.0525541 0)
(-0.000206888 0.0259756 0)
(-5.37019e-05 -0.012804 0)
(-0.00081109 -0.0262751 0)
(-0.00265673 -0.0260463 0)
(-0.00582796 -0.0128909 0)
(-0.010314 0.00785384 0)
(-0.0150186 0.0274058 0)
(-0.0203294 0.0425158 0)
(-0.0253266 0.0507905 0)
(-0.0289002 0.0483155 0)
(-0.03056 0.0333462 0)
(-0.0303065 0.0120085 0)
(-0.0283569 -0.00575401 0)
(-0.0253696 -0.0146516 0)
(-0.0217938 -0.0150409 0)
(-0.0177809 -0.0113507 0)
(-0.0138775 -0.00780257 0)
(-0.0101092 -0.0051471 0)
(-0.00437292 -0.000430708 0)
(0.00849706 -0.00414365 0)
(0.0141157 -0.0187057 0)
(0.015492 -0.0283282 0)
(0.0162512 -0.0320552 0)
(0.0169495 -0.0286643 0)
(0.0171315 -0.0184609 0)
(0.0166116 -0.00472041 0)
(0.0129286 0.010834 0)
(0.00844571 0.0264332 0)
(0.00415705 0.041656 0)
(0.000719571 0.0553669 0)
(-0.00113502 0.061855 0)
(-0.00135058 0.053577 0)
(-0.000372533 0.0248849 0)
(-0.000195776 -0.0104822 0)
(-0.00148128 -0.0209243 0)
(-0.00351402 -0.0189835 0)
(-0.00579423 -0.00553643 0)
(-0.0078269 0.0145836 0)
(-0.0102739 0.0342992 0)
(-0.0137701 0.0494204 0)
(-0.0178911 0.0563888 0)
(-0.0216343 0.0516451 0)
(-0.0242001 0.0344907 0)
(-0.0251145 0.0114787 0)
(-0.0238147 -0.00770505 0)
(-0.0214839 -0.0172673 0)
(-0.0184928 -0.0175253 0)
(-0.0151506 -0.0134499 0)
(-0.0118289 -0.00951736 0)
(-0.00847784 -0.00706457 0)
(-0.00369682 -0.00516663 0)
(0.00530637 -0.00903132 0)
(0.00932886 -0.0203253 0)
(0.00988849 -0.028985 0)
(0.00936125 -0.0326015 0)
(0.00840096 -0.028717 0)
(0.00708973 -0.016882 0)
(0.00479237 0.00112179 0)
(0.000707828 0.0200968 0)
(-0.00233467 0.0355101 0)
(-0.00449029 0.048951 0)
(-0.00522667 0.058959 0)
(-0.0044127 0.0607892 0)
(-0.00254879 0.0489774 0)
(-0.000463973 0.0210352 0)
(-0.000153902 -0.00752742 0)
(-0.0011955 -0.0152625 0)
(-0.00260251 -0.0134642 0)
(-0.00359983 -0.00208078 0)
(-0.00364144 0.0162628 0)
(-0.00343883 0.0368868 0)
(-0.00417095 0.0540698 0)
(-0.00635751 0.0622281 0)
(-0.00956144 0.0570943 0)
(-0.0130092 0.0382192 0)
(-0.0155591 0.0125534 0)
(-0.0159924 -0.0091279 0)
(-0.0152069 -0.0195644 0)
(-0.0136292 -0.0196679 0)
(-0.0116053 -0.015197 0)
(-0.00937611 -0.0110039 0)
(-0.00700619 -0.00875315 0)
(-0.00372517 -0.0085156 0)
(0.000901906 -0.0122958 0)
(0.0028587 -0.0210076 0)
(0.00180478 -0.0282964 0)
(-0.000810308 -0.0309191 0)
(-0.00396804 -0.0252383 0)
(-0.00697833 -0.0106729 0)
(-0.00958785 0.00811893 0)
(-0.0105734 0.0246084 0)
(-0.0111591 0.0383358 0)
(-0.0106951 0.049026 0)
(-0.0089368 0.0548138 0)
(-0.00609056 0.052342 0)
(-0.00291055 0.0387564 0)
(-0.000410013 0.0150107 0)
(-6.08937e-05 -0.00538883 0)
(-0.000678756 -0.0110848 0)
(-0.00152087 -0.0100391 0)
(-0.00189712 -0.00172449 0)
(-0.0011178 0.0132924 0)
(0.000940256 0.0334857 0)
(0.00316658 0.0533311 0)
(0.00409185 0.0645911 0)
(0.00345131 0.0623908 0)
(0.00133611 0.0453656 0)
(-0.000813517 0.018463 0)
(-0.00368909 -0.00745902 0)
(-0.00598528 -0.0199674 0)
(-0.00707208 -0.0204468 0)
(-0.00728293 -0.0159228 0)
(-0.00679359 -0.011764 0)
(-0.00602171 -0.00976404 0)
(-0.00478099 -0.0102754 0)
(-0.00350101 -0.0138204 0)
(-0.00416366 -0.0200338 0)
(-0.00722408 -0.025102 0)
(-0.0115612 -0.0259306 0)
(-0.015645 -0.0199186 0)
(-0.0180643 -0.00716027 0)
(-0.0182565 0.00876839 0)
(-0.017011 0.0234258 0)
(-0.0153218 0.0349236 0)
(-0.0128337 0.0422136 0)
(-0.00953415 0.0438675 0)
(-0.00578572 0.0382398 0)
(-0.00238773 0.0252518 0)
(-0.000264179 0.00850972 0)
(-2.57618e-05 -0.00404449 0)
(-0.000473577 -0.00800723 0)
(-0.00118239 -0.00741009 0)
(-0.00167606 -0.00195409 0)
(-0.00122242 0.0087268 0)
(0.000931581 0.0253989 0)
(0.00485275 0.0458357 0)
(0.00859058 0.0601454 0)
(0.0110337 0.0613601 0)
(0.0120081 0.0472341 0)
(0.0125548 0.0228598 0)
(0.0106896 -0.00131636 0)
(0.00551323 -0.0157688 0)
(0.000810284 -0.0183661 0)
(-0.00250033 -0.0148193 0)
(-0.00429559 -0.0112237 0)
(-0.00539593 -0.00958065 0)
(-0.00624726 -0.0102014 0)
(-0.00743652 -0.0129279 0)
(-0.00997177 -0.0169253 0)
(-0.0138989 -0.02005 0)
(-0.0182052 -0.0201881 0)
(-0.0214345 -0.015766 0)
(-0.0224858 -0.00680202 0)
(-0.0211845 0.0050653 0)
(-0.0182766 0.0168136 0)
(-0.014864 0.0256685 0)
(-0.0111531 0.030035 0)
(-0.00735373 0.0290274 0)
(-0.00386417 0.022639 0)
(-0.00131058 0.0129008 0)
(-9.77666e-05 0.0036331 0)
(-5.16848e-05 -0.00250682 0)
(-0.000543015 -0.0043118 0)
(-0.00136786 -0.00347265 0)
(-0.00222231 -9.87678e-05 0)
(-0.00255019 0.00616863 0)
(-0.001612 0.0167057 0)
(0.00161621 0.0329575 0)
(0.00675006 0.0491267 0)
(0.0115598 0.0533327 0)
(0.0154728 0.0424508 0)
(0.0181812 0.0220604 0)
(0.0182027 0.00240401 0)
(0.01373 -0.00957539 0)
(0.00727698 -0.0128473 0)
(0.00175196 -0.0113237 0)
(-0.00226944 -0.00899356 0)
(-0.00501833 -0.007903 0)
(-0.00757547 -0.00839354 0)
(-0.0102578 -0.0102396 0)
(-0.0133995 -0.0127776 0)
(-0.0167313 -0.0148659 0)
(-0.0195547 -0.0153342 0)
(-0.0210943 -0.0133813 0)
(-0.0208262 -0.00890448 0)
(-0.0187238 -0.00228932 0)
(-0.015397 0.00574859 0)
(-0.0113928 0.0122 0)
(-0.00748334 0.0152435 0)
(-0.00414407 0.0144335 0)
(-0.0017218 0.0105761 0)
(-0.000405901 0.00567942 0)
(5.66788e-06 0.00154341 0)
(-6.15831e-05 -0.000587706 0)
(-0.000483454 -2.54349e-05 0)
(-0.00117102 0.00152111 0)
(-0.00198689 0.00371804 0)
(-0.00265222 0.00693082 0)
(-0.00270975 0.0121893 0)
(-0.00145722 0.0209019 0)
(0.00259461 0.0335596 0)
(0.00814264 0.0389372 0)
(0.0133388 0.031718 0)
(0.0168724 0.0175964 0)
(0.0171127 0.00492754 0)
(0.0139741 -0.00274464 0)
(0.0087396 -0.00579625 0)
(0.00344379 -0.00599986 0)
(-0.00114329 -0.00529951 0)
(-0.00490589 -0.0048333 0)
(-0.00857655 -0.00518813 0)
(-0.0120444 -0.00651802 0)
(-0.0151673 -0.00864694 0)
(-0.0175843 -0.0109989 0)
(-0.0189283 -0.0128067 0)
(-0.0189756 -0.0134343 0)
(-0.017704 -0.0126038 0)
(-0.0152706 -0.0103654 0)
(-0.0119916 -0.00697374 0)
(-0.0084279 -0.00274673 0)
(-0.00511956 0.00103972 0)
(-0.00254691 0.00320239 0)
(-0.000933715 0.00357959 0)
(-0.000185876 0.0027102 0)
(9.33687e-06 0.00111747 0)
(-3.92333e-05 0.000836844 0)
(-0.000266536 0.00287304 0)
(-0.000617156 0.00493943 0)
(-0.00104796 0.00689464 0)
(-0.00145801 0.0089025 0)
(-0.00165276 0.0114245 0)
(-0.00128593 0.0152148 0)
(0.000815186 0.0211941 0)
(0.00493023 0.0248274 0)
(0.00919991 0.0212486 0)
(0.011919 0.0138245 0)
(0.0121168 0.00709111 0)
(0.0100362 0.00265648 0)
(0.00669975 0.000145638 0)
(0.00293207 -0.000916118 0)
(-0.000983617 -0.000975036 0)
(-0.00484921 -0.000643344 0)
(-0.00897502 -0.000782948 0)
(-0.0127885 -0.00222404 0)
(-0.0158034 -0.00492219 0)
(-0.0177564 -0.00849562 0)
(-0.0185318 -0.0123248 0)
(-0.0181275 -0.015639 0)
(-0.0166431 -0.0178589 0)
(-0.0142927 -0.0186076 0)
(-0.0113785 -0.017663 0)
(-0.00824804 -0.015015 0)
(-0.0052847 -0.0110293 0)
(-0.00286649 -0.00655618 0)
(-0.00122795 -0.00271119 0)
(-0.000349739 -0.000316154 0)
(-2.07731e-05 0.000398701 0)
(-1.34006e-05 0.00142278 0)
(-8.20784e-05 0.00395792 0)
(-0.000176696 0.00618685 0)
(-0.000284869 0.00807383 0)
(-0.00037466 0.00970462 0)
(-0.000370689 0.0112655 0)
(-0.000102836 0.0130365 0)
(0.000930084 0.0152783 0)
(0.00314058 0.0167378 0)
(0.00567427 0.0152653 0)
(0.0072979 0.0118777 0)
(0.0075141 0.008362 0)
(0.00648946 0.0054854 0)
(0.00460994 0.0034913 0)
(0.00216935 0.00245281 0)
(-0.000694819 0.00239981 0)
(-0.00383781 0.00299975 0)
(-0.00741733 0.0033182 0)
(-0.0110206 0.00201481 0)
(-0.0141322 -0.00149861 0)
(-0.0160808 -0.00644672 0)
(-0.0170194 -0.0120522 0)
(-0.0170515 -0.0175866 0)
(-0.0161836 -0.0223682 0)
(-0.014486 -0.0258139 0)
(-0.0121132 -0.0273436 0)
(-0.00931044 -0.0264341 0)
(-0.00640355 -0.0228753 0)
(-0.00376787 -0.0171348 0)
(-0.00175392 -0.0105675 0)
(-0.000544308 -0.00487571 0)
(-3.71478e-05 -0.00104195 0)
(-1.23855e-06 0.00152153 0)
(1.64903e-06 0.00407929 0)
(1.66833e-05 0.00627382 0)
(4.59867e-05 0.00809352 0)
(9.82384e-05 0.00957676 0)
(0.000204342 0.0107945 0)
(0.000442151 0.0118321 0)
(0.00099551 0.0127388 0)
(0.00205853 0.0131761 0)
(0.00334489 0.0124544 0)
(0.00426253 0.0107747 0)
(0.00452235 0.00876172 0)
(0.00411476 0.00684457 0)
(0.00313184 0.00532173 0)
(0.00168015 0.00446123 0)
(-0.000117164 0.00451897 0)
(-0.00210223 0.00535856 0)
(-0.00439612 0.00609119 0)
(-0.00691329 0.00516056 0)
(-0.00948625 0.00169727 0)
(-0.0118078 -0.00406505 0)
(-0.0131315 -0.0107425 0)
(-0.0139702 -0.01764 0)
(-0.0141623 -0.024222 0)
(-0.0135691 -0.0299195 0)
(-0.0121554 -0.0339722 0)
(-0.0100216 -0.0354458 0)
(-0.00741033 -0.0335057 0)
(-0.00469362 -0.0278845 0)
(-0.00233779 -0.0194845 0)
(-0.000765344 -0.0104662 0)
(-5.66737e-05 -0.0029082 0)
(2.34913e-06 0.00147843 0)
(2.02342e-05 0.0039538 0)
(5.026e-05 0.00609289 0)
(8.96151e-05 0.00787477 0)
(0.0001399 0.00930017 0)
(0.000218008 0.010384 0)
(0.000365364 0.0111483 0)
(0.00065845 0.0116042 0)
(0.00117694 0.0116655 0)
(0.00183376 0.0111439 0)
(0.00238424 0.0100896 0)
(0.00265721 0.00874467 0)
(0.00258151 0.00735631 0)
(0.00215128 0.00617873 0)
(0.00142456 0.00548694 0)
(0.000526602 0.00557922 0)
(-0.000310637 0.00649488 0)
(-0.00115425 0.00745384 0)
(-0.0021768 0.00700418 0)
(-0.00347907 0.00411466 0)
(-0.00541164 -0.00148382 0)
(-0.00721445 -0.00847761 0)
(-0.0088897 -0.0158416 0)
(-0.0103 -0.0234084 0)
(-0.0110552 -0.0307867 0)
(-0.0109073 -0.0371782 0)
(-0.00979317 -0.0413339 0)
(-0.00783979 -0.0418443 0)
(-0.00536418 -0.0375972 0)
(-0.00287556 -0.0285757 0)
(-0.00100151 -0.0167106 0)
(-8.11103e-05 -0.00511964 0)
(1.82522e-06 0.00143742 0)
(5.281e-06 0.00387774 0)
(-3.00851e-07 0.00601809 0)
(-1.93757e-05 0.00781084 0)
(-4.67715e-05 0.00922202 0)
(-6.26151e-05 0.0102359 0)
(-3.21571e-05 0.0108575 0)
(9.07936e-05 0.0111063 0)
(0.000352573 0.0109863 0)
(0.000728854 0.010478 0)
(0.00111419 0.00962901 0)
(0.00140936 0.00856795 0)
(0.00154155 0.00745026 0)
(0.00148231 0.00647267 0)
(0.00127899 0.00586466 0)
(0.00107872 0.00589421 0)
(0.00115865 0.00670498 0)
(0.00149229 0.00763467 0)
(0.00179762 0.00742155 0)
(0.00179008 0.00521793 0)
(0.00148235 0.000903805 0)
(-0.000479658 -0.00566214 0)
(-0.00279534 -0.0126918 0)
(-0.00529098 -0.0204705 0)
(-0.00737894 -0.0288699 0)
(-0.00860243 -0.0371874 0)
(-0.00871816 -0.043981 0)
(-0.00770046 -0.0473827 0)
(-0.00575257 -0.0454758 0)
(-0.00334751 -0.0370856 0)
(-0.00124983 -0.0232096 0)
(-0.000108965 -0.00757421 0)
(-1.20895e-06 0.00145125 0)
(-3.24335e-05 0.00395752 0)
(-0.000108758 0.00617338 0)
(-0.000230839 0.00801471 0)
(-0.000378964 0.00941772 0)
(-0.00051785 0.0103549 0)
(-0.000603694 0.0108398 0)
(-0.000592922 0.0109179 0)
(-0.000452715 0.0106459 0)
(-0.000187542 0.0100741 0)
(0.000153861 0.00926624 0)
(0.000505574 0.00831256 0)
(0.000805487 0.00732448 0)
(0.00102603 0.00644763 0)
(0.00121452 0.00585625 0)
(0.00153862 0.0057728 0)
(0.00231559 0.00635891 0)
(0.00350603 0.00708861 0)
(0.00470247 0.00684442 0)
(0.00551376 0.00489703 0)
(0.00584244 0.00141122 0)
(0.00487102 -0.00323519 0)
(0.00279626 -0.00886952 0)
(-0.000150125 -0.01623 0)
(-0.00319428 -0.0250418 0)
(-0.00564025 -0.0347094 0)
(-0.00702524 -0.0437867 0)
(-0.00711443 -0.0501427 0)
(-0.00592374 -0.0512008 0)
(-0.00380129 -0.0445803 0)
(-0.00155029 -0.0297501 0)
(-0.000146027 -0.010241 0)
(-7.19026e-06 0.00154509 0)
(-9.66539e-05 0.00424155 0)
(-0.000282793 0.00660872 0)
(-0.00055128 0.00851506 0)
(-0.000852066 0.00987856 0)
(-0.00112334 0.0106868 0)
(-0.00130692 0.0109888 0)
(-0.0013577 0.0108706 0)
(-0.00125011 0.0104282 0)
(-0.000987305 0.00975115 0)
(-0.000603625 0.00891582 0)
(-0.000150477 0.00799627 0)
(0.000323196 0.00706841 0)
(0.000791022 0.00623632 0)
(0.00130194 0.0056257 0)
(0.00203948 0.00540405 0)
(0.00333908 0.00572148 0)
(0.00512838 0.00620582 0)
(0.00690523 0.00593245 0)
(0.00817075 0.00430201 0)
(0.00866029 0.00148874 0)
(0.00800506 -0.0022189 0)
(0.00634467 -0.00671237 0)
(0.00391747 -0.0124646 0)
(0.000928212 -0.0203166 0)
(-0.00226756 -0.0306563 0)
(-0.00478333 -0.0413937 0)
(-0.00607803 -0.0504143 0)
(-0.00586263 -0.0547145 0)
(-0.00424825 -0.0508091 0)
(-0.00195398 -0.0362357 0)
(-0.00020682 -0.013189 0)
(-1.82692e-05 0.00174772 0)
(-0.000204549 0.00478428 0)
(-0.000556536 0.00736743 0)
(-0.00102156 0.00931581 0)
(-0.00149731 0.0105625 0)
(-0.00188865 0.0111529 0)
(-0.00212661 0.0112012 0)
(-0.00217102 0.010845 0)
(-0.00200931 0.0102133 0)
(-0.00165488 0.00941419 0)
(-0.00114335 0.00852634 0)
(-0.000521911 0.00760982 0)
(0.000169564 0.00671503 0)
(0.00091328 0.00590015 0)
(0.00174986 0.00526203 0)
(0.0028615 0.00490612 0)
(0.00455867 0.00496294 0)
(0.00674051 0.00521424 0)
(0.00888147 0.00495088 0)
(0.0104153 0.003689 0)
(0.0110035 0.00154785 0)
(0.0104562 -0.00130629 0)
(0.00901868 -0.00500314 0)
(0.00695054 -0.00998124 0)
(0.00443399 -0.0167675 0)
(0.00147607 -0.0258606 0)
(-0.00183425 -0.0374322 0)
(-0.00436869 -0.0485117 0)
(-0.00538536 -0.0559897 0)
(-0.00459389 -0.055506 0)
(-0.00248185 -0.0424977 0)
(-0.000314564 -0.0165442 0)
(-3.99169e-05 0.0021075 0)
(-0.000392301 0.00566539 0)
(-0.000990482 0.00849522 0)
(-0.00170201 0.0103975 0)
(-0.00234953 0.0113954 0)
(-0.00281027 0.011652 0)
(-0.00301993 0.0113714 0)
(-0.00295741 0.0107422 0)
(-0.00263257 0.00991368 0)
(-0.00207606 0.00899514 0)
(-0.00132894 0.00805469 0)
(-0.000432201 0.00713421 0)
(0.000587266 0.00625332 0)
(0.0017028 0.00545281 0)
(0.00294184 0.00479821 0)
(0.00446753 0.00433794 0)
(0.00651048 0.00418099 0)
(0.00893705 0.00423753 0)
(0.0112902 0.00400061 0)
(0.0130127 0.00308375 0)
(0.0137593 0.00152429 0)
(0.0134087 -0.000645713 0)
(0.0122618 -0.00367404 0)
(0.0104898 -0.00798344 0)
(0.00821309 -0.0140269 0)
(0.00542743 -0.0221172 0)
(0.00207358 -0.0323517 0)
(-0.0016112 -0.0446434 0)
(-0.00414673 -0.0549166 0)
(-0.00461923 -0.0582923 0)
(-0.00308748 -0.0481747 0)
(-0.000498604 -0.0204176 0)
(-8.58907e-05 0.00271436 0)
(-0.000729113 0.00700046 0)
(-0.00167245 0.0100235 0)
(-0.00265076 0.0116929 0)
(-0.00340685 0.0122554 0)
(-0.00381909 0.0120524 0)
(-0.003856 0.0113826 0)
(-0.00353356 0.0104673 0)
(-0.00289059 0.00945339 0)
(-0.00197475 0.00843267 0)
(-0.000825224 0.00745081 0)
(0.000532861 0.00651581 0)
(0.002049 0.00565272 0)
(0.00368557 0.0048838 0)
(0.0054701 0.00423296 0)
(0.00753007 0.00371443 0)
(0.00995676 0.00341672 0)
(0.0125659 0.00333247 0)
(0.0150404 0.00311859 0)
(0.0169204 0.00247567 0)
(0.0178939 0.00137508 0)
(0.01787 -0.000263075 0)
(0.0170874 -0.00272455 0)
(0.0155948 -0.00637582 0)
(0.0134002 -0.0116035 0)
(0.0104731 -0.0187007 0)
(0.00682481 -0.0278312 0)
(0.00256876 -0.0389683 0)
(-0.0017061 -0.0513118 0)
(-0.00398056 -0.0586819 0)
(-0.0036198 -0.0526992 0)
(-0.000780702 -0.0248058 0)
(-0.000189291 0.00373418 0)
(-0.00133352 0.00892891 0)
(-0.0026964 0.0119186 0)
(-0.00386474 0.0130443 0)
(-0.00454648 0.0129506 0)
(-0.00467992 0.012183 0)
(-0.00430224 0.0111008 0)
(-0.00348075 0.00991778 0)
(-0.00227996 0.00875055 0)
(-0.000758898 0.00765108 0)
(0.00107752 0.00661948 0)
(0.00310474 0.00570847 0)
(0.00530815 0.0048916 0)
(0.00766343 0.00416946 0)
(0.0101689 0.00355015 0)
(0.012909 0.00302774 0)
(0.0158024 0.00267161 0)
(0.0186058 0.00251007 0)
(0.0211637 0.00231525 0)
(0.0231679 0.00186525 0)
(0.0243677 0.00109567 0)
(0.0247115 -0.000135305 0)
(0.0242543 -0.00208699 0)
(0.0229442 -0.00505247 0)
(0.0206876 -0.00935539 0)
(0.0174088 -0.015288 0)
(0.013131 -0.0231162 0)
(0.00802596 -0.0330948 0)
(0.00245952 -0.0450692 0)
(-0.00217577 -0.0561321 0)
(-0.00378158 -0.0553601 0)
(-0.00114217 -0.0295177 0)
(-0.000411833 0.00544639 0)
(-0.00235682 0.0115421 0)
(-0.00406711 0.013977 0)
(-0.00512328 0.0141391 0)
(-0.0053286 0.0131936 0)
(-0.00476979 0.0118209 0)
(-0.0035784 0.0103624 0)
(-0.00187738 0.00896298 0)
(0.000268617 0.00766752 0)
(0.00276025 0.00652709 0)
(0.00548132 0.0055393 0)
(0.00840982 0.00468812 0)
(0.0115049 0.00394411 0)
(0.0147323 0.00329821 0)
(0.0180603 0.00274786 0)
(0.0215282 0.00227808 0)
(0.0248935 0.00193941 0)
(0.0278811 0.00176228 0)
(0.0304805 0.00159366 0)
(0.0325334 0.0012771 0)
(0.033865 0.000737805 0)
(0.0344619 -0.000167035 0)
(0.0341665 -0.00163602 0)
(0.032868 -0.0038919 0)
(0.0304035 -0.00719433 0)
(0.0266444 -0.0118239 0)
(0.0215738 -0.018121 0)
(0.0153416 -0.0265559 0)
(0.00834451 -0.0375884 0)
(0.00154182 -0.0501387 0)
(-0.00309296 -0.0553983 0)
(-0.00148549 -0.0342349 0)
(-0.00082465 0.00832868 0)
(-0.00383849 0.014711 0)
(-0.00539974 0.0156449 0)
(-0.00557601 0.0144253 0)
(-0.00451609 0.0125786 0)
(-0.00257484 0.0106727 0)
(7.03681e-05 0.00890866 0)
(0.00321246 0.00739015 0)
(0.00662677 0.00612636 0)
(0.0102934 0.00506934 0)
(0.0141188 0.00418571 0)
(0.0180675 0.00344848 0)
(0.0220849 0.00282658 0)
(0.02612 0.00230319 0)
(0.0301219 0.00186783 0)
(0.0340978 0.00150332 0)
(0.0377121 0.00124063 0)
(0.0407195 0.00109591 0)
(0.043222 0.00096778 0)
(0.0451691 0.000754094 0)
(0.0464543 0.00038741 0)
(0.0470537 -0.000235352 0)
(0.0467006 -0.00124535 0)
(0.0452527 -0.00280164 0)
(0.0425082 -0.00509442 0)
(0.0382847 -0.00836255 0)
(0.0324806 -0.0129642 0)
(0.0251372 -0.0194988 0)
(0.0165546 -0.0288519 0)
(0.00753342 -0.04136 0)
(-0.000718405 -0.051891 0)
(-0.00150832 -0.0383468 0)
(-0.00155299 0.0132562 0)
(-0.00521791 0.01772 0)
(-0.00497051 0.0158587 0)
(-0.00260813 0.0131153 0)
(0.00112452 0.0105032 0)
(0.00539243 0.00834928 0)
(0.00998671 0.00661686 0)
(0.0147665 0.00524665 0)
(0.0195963 0.00416445 0)
(0.0244321 0.00330431 0)
(0.0292025 0.00262131 0)
(0.0338662 0.00207874 0)
(0.038379 0.00164395 0)
(0.0426997 0.00129509 0)
(0.0467916 0.00101664 0)
(0.0506632 0.000793062 0)
(0.0540017 0.000637231 0)
(0.0566553 0.000550295 0)
(0.0587837 0.000472235 0)
(0.0603877 0.000346138 0)
(0.0614013 0.000124956 0)
(0.0617436 -0.000245677 0)
(0.0611728 -0.000839745 0)
(0.0595307 -0.00175725 0)
(0.0566032 -0.00311651 0)
(0.0521714 -0.00508563 0)
(0.046034 -0.0079671 0)
(0.0380298 -0.012359 0)
(0.0281458 -0.0193593 0)
(0.0167499 -0.0303497 0)
(0.00451639 -0.0437099 0)
(-0.00015168 -0.0397941 0)
(-0.00119407 0.0183511 0)
(-0.00279009 0.0183888 0)
(0.0038341 0.0129122 0)
(0.0112166 0.00950543 0)
(0.0183509 0.00702997 0)
(0.0250609 0.00515878 0)
(0.0313971 0.00377361 0)
(0.0373225 0.00276677 0)
(0.0428095 0.00203681 0)
(0.0478714 0.00150534 0)
(0.0525148 0.00111922 0)
(0.0567594 0.000837982 0)
(0.0606252 0.000630546 0)
(0.0641297 0.000475948 0)
(0.0672886 0.000359891 0)
(0.0701407 0.000272153 0)
(0.0725016 0.000214559 0)
(0.074325 0.00018253 0)
(0.0757457 0.000149906 0)
(0.0767618 9.3826e-05 0)
(0.0773221 -6.86364e-06 0)
(0.077296 -0.000171722 0)
(0.0765385 -0.000433538 0)
(0.0748946 -0.000839637 0)
(0.072169 -0.00144424 0)
(0.0681477 -0.00233423 0)
(0.0625725 -0.00369722 0)
(0.0550733 -0.00597024 0)
(0.0450961 -0.0101032 0)
(0.0319434 -0.0177822 0)
(0.0156648 -0.0298933 0)
(0.0063529 -0.0335441 0)
(0.020792 0.0113509 0)
(0.0272275 0.00931522 0)
(0.0404104 0.00547341 0)
(0.0512172 0.00333366 0)
(0.0593281 0.00207824 0)
(0.0656622 0.00127704 0)
(0.070737 0.000772056 0)
(0.0748266 0.000464812 0)
(0.078143 0.000281841 0)
(0.0808638 0.000173559 0)
(0.0831232 0.000109891 0)
(0.0850249 7.21647e-05 0)
(0.0866452 4.90079e-05 0)
(0.0880369 3.42076e-05 0)
(0.0892367 2.42341e-05 0)
(0.09028 1.74119e-05 0)
(0.0911251 1.37941e-05 0)
(0.0917741 1.1919e-05 0)
(0.0922655 8.07595e-06 0)
(0.0925768 -3.10439e-07 0)
(0.0926631 -1.5795e-05 0)
(0.0924518 -4.04928e-05 0)
(0.0918734 -8.0023e-05 0)
(0.0908298 -0.00014254 0)
(0.0892031 -0.000236195 0)
(0.086858 -0.000376079 0)
(0.0835899 -0.000602243 0)
(0.0789859 -0.00102326 0)
(0.0721274 -0.00191611 0)
(0.0610425 -0.00402612 0)
(0.0433615 -0.00922439 0)
(0.0286148 -0.0145573 0)
)
;

boundaryField
{
    movingWall
    {
        type            fixedValue;
        value           uniform (0.1 0 0);
    }
    fixedWalls
    {
        type            noSlip;
    }
    floor
    {
        type            noSlip;
    }
    frontAndBack
    {
        type            empty;
    }
}


// ************************************************************************* //
