/*--------------------------------*- C++ -*----------------------------------*\
| =========                 |                                                 |
| \\      /  F ield         | OpenFOAM: The Open Source CFD Toolbox           |
|  \\    /   O peration     | Version:  2206                                  |
|   \\  /    A nd           | Website:  www.openfoam.com                      |
|    \\/     M anipulation  |                                                 |
\*---------------------------------------------------------------------------*/
FoamFile
{
    version     2.0;
    format      ascii;
    arch        "LSB;label=64;scalar=64";
    class       volScalarField;
    location    "3.6/water";
    object      alpha.gas_0;
}
// * * * * * * * * * * * * * * * * * * * * * * * * * * * * * * * * * * * * * //

dimensions      [0 0 0 0 0 0 0];

internalField   nonuniform List<scalar> 
23300
(
1e-15
1e-15
1e-15
1e-15
1e-15
1e-15
1e-15
1e-15
1e-15
1e-15
1e-15
1e-15
1e-15
1e-15
1e-15
1e-15
1e-15
1e-15
1e-15
1e-15
1e-15
1e-15
1e-15
1e-15
1e-15
1e-15
1e-15
1e-15
1e-15
1e-15
1e-15
1e-15
1e-15
1e-15
1e-15
1e-15
1e-15
1e-15
1e-15
1e-15
1e-15
1e-15
1e-15
1e-15
1e-15
1e-15
1e-15
1e-15
1e-15
1e-15
1e-15
1e-15
1e-15
1e-15
1e-15
1e-15
1e-15
1e-15
1e-15
1e-15
1e-15
1e-15
1e-15
1e-15
1e-15
1e-15
1e-15
1e-15
1e-15
1e-15
1e-15
1e-15
1e-15
1e-15
1e-15
1e-15
1e-15
1e-15
1e-15
1e-15
1e-15
1e-15
1e-15
1e-15
1e-15
1e-15
1e-15
1e-15
1e-15
1e-15
1e-15
1e-15
1e-15
1e-15
1e-15
1e-15
1e-15
1e-15
1e-15
1e-15
1e-15
1e-15
1e-15
1e-15
1e-15
1e-15
1e-15
1e-15
1e-15
1e-15
1e-15
1e-15
1e-15
1e-15
1e-15
1e-15
1e-15
1e-15
1e-15
1e-15
1e-15
1e-15
1e-15
1e-15
1e-15
1e-15
1e-15
1e-15
1e-15
1e-15
1e-15
1e-15
1e-15
1e-15
1e-15
1e-15
1e-15
1e-15
1e-15
1e-15
1e-15
1e-15
1e-15
1e-15
1e-15
1e-15
1e-15
1e-15
1e-15
1e-15
1e-15
1e-15
1e-15
1e-15
1e-15
1e-15
1e-15
1e-15
1e-15
1e-15
1e-15
1e-15
1e-15
1e-15
1e-15
1e-15
1e-15
1e-15
1e-15
1e-15
1e-15
1e-15
1e-15
1e-15
1e-15
1e-15
1e-15
1e-15
1e-15
1e-15
1e-15
1e-15
1e-15
1e-15
1e-15
1e-15
1e-15
1e-15
1e-15
1e-15
1e-15
1e-15
1e-15
1e-15
1e-15
1e-15
1e-15
1e-15
1e-15
1e-15
1e-15
1e-15
1e-15
1e-15
1e-15
1e-15
1e-15
1e-15
1e-15
1e-15
1e-15
1e-15
1e-15
1e-15
1e-15
1e-15
1e-15
1e-15
1e-15
1e-15
1e-15
1e-15
1e-15
1e-15
1e-15
1e-15
1e-15
1e-15
1e-15
1e-15
1e-15
1e-15
1e-15
1e-15
1e-15
1e-15
1e-15
1e-15
1e-15
1e-15
1e-15
1e-15
1e-15
1e-15
1e-15
1e-15
1e-15
1e-15
1e-15
1e-15
1e-15
1e-15
1e-15
1e-15
1e-15
1e-15
1e-15
1e-15
1e-15
1e-15
1e-15
1e-15
1e-15
1e-15
1e-15
1e-15
1e-15
1e-15
1e-15
1e-15
1e-15
1e-15
1e-15
1e-15
1e-15
1e-15
1e-15
1e-15
1e-15
1e-15
1e-15
1e-15
1e-15
1e-15
1e-15
1e-15
1e-15
1e-15
1e-15
1e-15
1e-15
1e-15
1e-15
1e-15
1e-15
1e-15
1e-15
1e-15
1e-15
1e-15
1e-15
1e-15
1e-15
1e-15
1e-15
1e-15
1e-15
1e-15
1e-15
1e-15
1e-15
1e-15
1e-15
1e-15
1e-15
1e-15
1e-15
1e-15
1e-15
1e-15
1e-15
1e-15
1e-15
1e-15
1e-15
1e-15
1e-15
1e-15
1e-15
1e-15
1e-15
1e-15
1e-15
1e-15
1e-15
1e-15
1e-15
1e-15
1e-15
1e-15
1e-15
1e-15
1e-15
1e-15
1e-15
1e-15
1e-15
1e-15
1e-15
1e-15
1e-15
1e-15
1e-15
1e-15
1e-15
1e-15
1e-15
1e-15
1e-15
1e-15
1e-15
1e-15
1e-15
1e-15
1e-15
1e-15
1e-15
1e-15
1e-15
1e-15
1e-15
1e-15
1e-15
1e-15
1e-15
1e-15
1e-15
1e-15
1e-15
1e-15
1e-15
1e-15
1e-15
1e-15
1e-15
1e-15
1e-15
1e-15
1e-15
1e-15
1e-15
1e-15
1e-15
1e-15
1e-15
1e-15
1e-15
1e-15
1e-15
1e-15
1e-15
1e-15
1e-15
1e-15
1e-15
1e-15
1e-15
1e-15
1e-15
1e-15
1e-15
1e-15
1e-15
1e-15
1e-15
1e-15
1e-15
1e-15
1e-15
1e-15
1e-15
1e-15
1e-15
1e-15
1e-15
1e-15
1e-15
1e-15
1e-15
1e-15
1e-15
1e-15
1e-15
1e-15
1e-15
1e-15
1e-15
1e-15
1e-15
1e-15
1e-15
1e-15
1e-15
1e-15
1e-15
1e-15
1e-15
1e-15
1e-15
1e-15
1e-15
1e-15
1e-15
1e-15
1e-15
1e-15
1e-15
1e-15
1e-15
1e-15
1e-15
1e-15
1e-15
1e-15
1e-15
1e-15
1e-15
1e-15
1e-15
1e-15
1e-15
1e-15
1e-15
1e-15
1e-15
1e-15
1e-15
1e-15
1e-15
1e-15
1e-15
1e-15
1e-15
1e-15
1e-15
1e-15
1e-15
1e-15
1e-15
1e-15
1e-15
1e-15
1e-15
1e-15
1e-15
1e-15
1e-15
1e-15
1e-15
1e-15
1e-15
1e-15
1e-15
1e-15
1e-15
1e-15
1e-15
1e-15
1e-15
1e-15
1e-15
1e-15
1e-15
1e-15
1e-15
1e-15
1e-15
1e-15
1e-15
1e-15
1e-15
1e-15
1e-15
1e-15
1e-15
1e-15
1e-15
1e-15
1e-15
1e-15
1e-15
1e-15
1e-15
1e-15
1e-15
1e-15
1e-15
1e-15
1e-15
1e-15
1e-15
1e-15
1e-15
1e-15
1e-15
1e-15
1e-15
1e-15
1e-15
1e-15
1e-15
1e-15
1e-15
1e-15
1e-15
1e-15
1e-15
1e-15
1e-15
1e-15
1.01220663212e-15
1e-15
1e-15
1e-15
1e-15
1e-15
1e-15
1e-15
1e-15
1e-15
1e-15
1e-15
1e-15
1e-15
1e-15
1e-15
1e-15
1e-15
1e-15
1e-15
1e-15
1e-15
1e-15
1e-15
1e-15
1e-15
1e-15
1e-15
1e-15
1e-15
1e-15
1e-15
1e-15
1e-15
1e-15
1e-15
1e-15
1e-15
1e-15
1e-15
1e-15
1e-15
1e-15
1e-15
1e-15
1e-15
1e-15
1e-15
1e-15
1e-15
1e-15
1e-15
1e-15
1e-15
1e-15
1e-15
1e-15
1e-15
1e-15
1e-15
1e-15
1e-15
1e-15
1e-15
1e-15
1e-15
1e-15
1e-15
1e-15
1e-15
1e-15
1e-15
1e-15
1e-15
1e-15
1e-15
1e-15
1e-15
1e-15
1e-15
1e-15
1e-15
1e-15
1e-15
1e-15
1e-15
1e-15
1e-15
1e-15
1e-15
1e-15
1e-15
1e-15
1e-15
1e-15
1e-15
1e-15
1e-15
1e-15
1e-15
1e-15
1e-15
1e-15
1e-15
1e-15
1e-15
1e-15
1e-15
1e-15
1e-15
1e-15
1e-15
1e-15
1e-15
1e-15
1e-15
1e-15
1e-15
1e-15
1e-15
1e-15
1e-15
1e-15
1e-15
1e-15
1e-15
1e-15
1e-15
1e-15
1e-15
1e-15
1e-15
1.01593037143e-15
1.02783828274e-15
1.02893613676e-15
1.02783828274e-15
1e-15
1e-15
1.01500621563e-15
1e-15
1.01713348932e-15
1e-15
1e-15
1e-15
1e-15
1e-15
1e-15
1e-15
1e-15
1e-15
1e-15
1e-15
1e-15
1e-15
1e-15
1e-15
1e-15
1e-15
1e-15
1e-15
1e-15
1e-15
1e-15
1e-15
1e-15
1e-15
1e-15
1e-15
1e-15
1e-15
1e-15
1e-15
1e-15
1e-15
1e-15
1e-15
1e-15
1e-15
1e-15
1e-15
1e-15
1e-15
1e-15
1e-15
1e-15
1e-15
1e-15
1e-15
1e-15
1e-15
1e-15
1e-15
1e-15
1e-15
1e-15
1e-15
1e-15
1e-15
1e-15
1e-15
1e-15
1e-15
1e-15
1e-15
1e-15
1e-15
1e-15
1e-15
1e-15
1e-15
1e-15
1e-15
1e-15
1e-15
1e-15
1e-15
1e-15
1e-15
1e-15
1e-15
1e-15
1e-15
1e-15
1e-15
1e-15
1e-15
1e-15
1e-15
1e-15
1e-15
1e-15
1e-15
1e-15
1e-15
1e-15
1e-15
1e-15
1e-15
1e-15
1e-15
1e-15
1e-15
1e-15
1e-15
1e-15
1e-15
1e-15
1e-15
1e-15
1e-15
1e-15
1e-15
1e-15
1e-15
1e-15
1e-15
1e-15
1e-15
1e-15
1e-15
1e-15
1e-15
1e-15
1e-15
1e-15
1e-15
1e-15
1e-15
1e-15
1e-15
1e-15
1e-15
1.02783828015e-15
1.02934835845e-15
1.02783828274e-15
1.02916220963e-15
1e-15
1e-15
1.01298708452e-15
1e-15
1.01220663212e-15
1e-15
1e-15
1e-15
1e-15
1e-15
1e-15
1.00000026355e-15
1.0000667102e-15
1.00011721292e-15
1.0001597184e-15
1.00017113991e-15
1.00017235283e-15
1.00014095091e-15
1.00009689677e-15
1.00002979069e-15
1e-15
1e-15
1e-15
1e-15
1e-15
1e-15
1e-15
1e-15
1e-15
1e-15
1e-15
1e-15
1e-15
1e-15
1e-15
1e-15
1e-15
1e-15
1e-15
1.0000003186e-15
1.00003994874e-15
1.00008847215e-15
1.00014083666e-15
1.00102919601e-15
1.00153326605e-15
1.00157605836e-15
1.00153326605e-15
1.00157933162e-15
1.00153326605e-15
1.00157957864e-15
1.00153326605e-15
1.00156553824e-15
1.00153326605e-15
1.00127611437e-15
1.00042037349e-15
1.0003531976e-15
1.00035089519e-15
1.00033870877e-15
1.00032907628e-15
1.00031315631e-15
1.00029860786e-15
1.00027818851e-15
1.00025896335e-15
1.00023908625e-15
1.00022732733e-15
1.00019762155e-15
1.0001654477e-15
1.00012474823e-15
1.00008286981e-15
1.00003528684e-15
1e-15
1e-15
1e-15
1e-15
1e-15
1e-15
1e-15
1e-15
1e-15
1e-15
1e-15
1e-15
1e-15
1e-15
1e-15
1e-15
1e-15
1e-15
1e-15
1e-15
1e-15
1e-15
1e-15
1e-15
1e-15
1e-15
1e-15
1e-15
1e-15
1e-15
1e-15
1.0000291215e-15
1.00010392712e-15
1.00016454978e-15
1.00021247311e-15
1.00024501329e-15
1.00027796689e-15
1.00030342847e-15
1.00032285969e-15
1.00033558119e-15
1.00034417698e-15
1.00034729754e-15
1.00034687907e-15
1.00034161409e-15
1.00033322113e-15
1.00031949819e-15
1.00029860274e-15
1.00027379644e-15
1.00024914711e-15
1.00022444656e-15
1.00019627898e-15
1.000162672e-15
1.00012578444e-15
1.00008953131e-15
1.00005777718e-15
1.00003096442e-15
1.00001120261e-15
1.00000059451e-15
1.00000213223e-15
1.00001813479e-15
1.00005334898e-15
1.00011253196e-15
1.00019853482e-15
1.00029474534e-15
1.00040193644e-15
1.00052030752e-15
1.02912290838e-15
1.02783828274e-15
1.02933334838e-15
1.02783828274e-15
1.00106761379e-15
1.00015512147e-15
1.01499068954e-15
1e-15
1.01659469592e-15
1e-15
1e-15
1e-15
1e-15
1e-15
1.00002473033e-15
1.00016771551e-15
1.00031740767e-15
1.00042367216e-15
1.00051020128e-15
1.00053458915e-15
1.00053615661e-15
1.00047134626e-15
1.00037961485e-15
1.00023159572e-15
1.00008453244e-15
1e-15
1e-15
1e-15
1e-15
1e-15
1e-15
1e-15
1e-15
1e-15
1e-15
1e-15
1e-15
1e-15
1e-15
1e-15
1e-15
1e-15
1.00000151478e-15
1.00009368431e-15
1.00017704174e-15
1.0002744093e-15
1.00132348008e-15
1.00153326605e-15
1.00158363611e-15
1.00153326605e-15
1.00158732711e-15
1.00153326605e-15
1.00158822049e-15
1.00153326605e-15
1.00158244171e-15
1.00153326605e-15
1.00157170389e-15
1.00153326605e-15
1.0015530514e-15
1.00070190416e-15
1.0007052372e-15
1.00067402036e-15
1.00064386029e-15
1.00059869965e-15
1.00055153357e-15
1.00048939043e-15
1.000426198e-15
1.00035623865e-15
1.00030176663e-15
1.00025042823e-15
1.00020656515e-15
1.00015801184e-15
1.00011090432e-15
1.00006340535e-15
1.00000369681e-15
1e-15
1e-15
1e-15
1e-15
1e-15
1e-15
1e-15
1e-15
1e-15
1e-15
1e-15
1e-15
1e-15
1e-15
1e-15
1e-15
1e-15
1e-15
1e-15
1e-15
1e-15
1e-15
1e-15
1e-15
1e-15
1e-15
1e-15
1e-15
1e-15
1.00003767444e-15
1.00017631265e-15
1.00027147295e-15
1.00035140544e-15
1.00042146568e-15
1.00049853415e-15
1.00058104575e-15
1.00064810433e-15
1.00070144387e-15
1.00073891521e-15
1.00076502563e-15
1.00077733649e-15
1.00077945131e-15
1.00077043195e-15
1.0007526998e-15
1.00072501609e-15
1.00068201673e-15
1.00062801196e-15
1.00057640519e-15
1.00052737007e-15
1.00047752202e-15
1.00042585024e-15
1.00037806501e-15
1.00033073709e-15
1.00028765675e-15
1.00025077844e-15
1.00022335709e-15
1.00021036022e-15
1.0002153411e-15
1.00024297397e-15
1.00029906132e-15
1.00038908311e-15
1.00052420553e-15
1.0007193287e-15
1.00096934262e-15
1.00127753606e-15
1.02783828274e-15
1.02928902924e-15
1.02783828274e-15
1.02910252254e-15
1.0025921406e-15
1.00082004987e-15
1.01298708452e-15
1e-15
1.01220663212e-15
1e-15
1e-15
1e-15
1e-15
1.00010339609e-15
1.00041281416e-15
1.00066769275e-15
1.00087720983e-15
1.00098865666e-15
1.00110707936e-15
1.00114117008e-15
1.00113455829e-15
1.00103808353e-15
1.00089728066e-15
1.00066803125e-15
1.00039534309e-15
1.00010857987e-15
1e-15
1e-15
1e-15
1e-15
1e-15
1e-15
1e-15
1e-15
1e-15
1e-15
1e-15
1e-15
1e-15
1e-15
1e-15
1.00004257007e-15
1.00010536106e-15
1.00017601739e-15
1.0002527116e-15
1.00054430401e-15
1.00153326605e-15
1.00157129823e-15
1.00153326605e-15
1.00157505462e-15
1.00153326605e-15
1.00157592628e-15
1.00153326605e-15
1.00157771211e-15
1.00153326605e-15
1.00156084224e-15
1.00153326605e-15
1.00155757766e-15
1.00153326605e-15
1.00115339275e-15
1.00092394074e-15
1.00087798627e-15
1.00081516334e-15
1.00073713434e-15
1.00066003308e-15
1.00057093346e-15
1.00048483993e-15
1.00038100986e-15
1.00025628598e-15
1.00018236923e-15
1.00013776868e-15
1.00009104914e-15
1.00004450133e-15
1e-15
1e-15
1e-15
1e-15
1e-15
1e-15
1e-15
1e-15
1e-15
1e-15
1e-15
1e-15
1e-15
1e-15
1e-15
1e-15
1e-15
1e-15
1e-15
1e-15
1e-15
1e-15
1e-15
1e-15
1e-15
1e-15
1e-15
1e-15
1e-15
1e-15
1e-15
1.00009572318e-15
1.00018442901e-15
1.00027459333e-15
1.00037270042e-15
1.00050170213e-15
1.00065842562e-15
1.00080332006e-15
1.00091762496e-15
1.00100870024e-15
1.00107451971e-15
1.00112182201e-15
1.00114763415e-15
1.00115672636e-15
1.00114813163e-15
1.00112493757e-15
1.00108594852e-15
1.00102081794e-15
1.00093411338e-15
1.0008528963e-15
1.00076547525e-15
1.00067767788e-15
1.00059099627e-15
1.00052624639e-15
1.00047343942e-15
1.00042976982e-15
1.00039414699e-15
1.00037020706e-15
1.00036176162e-15
1.00037172315e-15
1.00040575779e-15
1.00047133468e-15
1.00057962733e-15
1.00078823752e-15
1.00112220386e-15
1.00153419861e-15
1.00205589575e-15
1.02910998524e-15
1.02783828274e-15
1.02926387616e-15
1.02783828274e-15
1.00417369336e-15
1.0015202426e-15
1.01442733405e-15
1e-15
1.015786186e-15
1e-15
1e-15
1e-15
1e-15
1.0003271328e-15
1.00067869426e-15
1.00101345276e-15
1.00136954272e-15
1.00159569004e-15
1.00171915746e-15
1.00177029815e-15
1.00176371537e-15
1.00163036599e-15
1.00144008451e-15
1.00115196283e-15
1.00082459516e-15
1.00041646254e-15
1.00004218364e-15
1e-15
1e-15
1e-15
1e-15
1e-15
1e-15
1e-15
1e-15
1e-15
1e-15
1e-15
1e-15
1e-15
1.00004094985e-15
1.00009890676e-15
1.00015127679e-15
1.00021368928e-15
1.00041073142e-15
1.00135620169e-15
1.00156229609e-15
1.00153326605e-15
1.00156576912e-15
1.00153326605e-15
1.00156687121e-15
1.00153326605e-15
1.00156693126e-15
1.00153326605e-15
1.001561412e-15
1.00153326605e-15
1.00155070519e-15
1.00153326605e-15
1.00154724749e-15
1.00153326605e-15
1.00113169861e-15
1.00104744563e-15
1.0009753375e-15
1.00089061354e-15
1.00080537609e-15
1.00067856363e-15
1.00053131121e-15
1.00035142666e-15
1.0001799307e-15
1.00007380568e-15
1.00002994804e-15
1e-15
1e-15
1e-15
1e-15
1e-15
1e-15
1e-15
1e-15
1e-15
1e-15
1e-15
1e-15
1e-15
1e-15
1e-15
1e-15
1e-15
1e-15
1e-15
1e-15
1e-15
1e-15
1e-15
1e-15
1e-15
1e-15
1e-15
1e-15
1e-15
1e-15
1e-15
1e-15
1e-15
1.00009039077e-15
1.00017300712e-15
1.00025817287e-15
1.00040187364e-15
1.00062295065e-15
1.00086471686e-15
1.00106571022e-15
1.00122285813e-15
1.00134859267e-15
1.00144153105e-15
1.00151021375e-15
1.00155173827e-15
1.00157161142e-15
1.00156778171e-15
1.001545133e-15
1.0014998871e-15
1.00142157383e-15
1.00130888822e-15
1.00120074077e-15
1.00107756414e-15
1.00094539891e-15
1.00080856708e-15
1.00070139549e-15
1.00062306418e-15
1.00056573056e-15
1.00052156322e-15
1.0004950546e-15
1.00048781624e-15
1.00050474475e-15
1.00055179286e-15
1.00063985562e-15
1.00079424198e-15
1.00112417549e-15
1.00160702351e-15
1.0021632198e-15
1.00283611356e-15
1.02783828274e-15
1.02922143773e-15
1.02783828274e-15
1.02903410574e-15
1.00573549023e-15
1.0022184456e-15
1.01298708452e-15
1e-15
1.01220663212e-15
1e-15
1e-15
1e-15
1e-15
1.00027070261e-15
1.00062504108e-15
1.00097726947e-15
1.00137292911e-15
1.00171473296e-15
1.00199669271e-15
1.00208882497e-15
1.00210062664e-15
1.00195479731e-15
1.00171918472e-15
1.00138372937e-15
1.00104560078e-15
1.00066828139e-15
1.0002475095e-15
1e-15
1e-15
1e-15
1e-15
1e-15
1e-15
1e-15
1e-15
1e-15
1e-15
1e-15
1e-15
1.00000994043e-15
1.00007891993e-15
1.00012214249e-15
1.00017210405e-15
1.00028724082e-15
1.00071406303e-15
1.00155136299e-15
1.00153326605e-15
1.00155516454e-15
1.00153326605e-15
1.00155642929e-15
1.00153326605e-15
1.00155593843e-15
1.00153326605e-15
1.0015573808e-15
1.00153326605e-15
1.00154354864e-15
1.00153326605e-15
1.00154147602e-15
1.00153326605e-15
1.00153759083e-15
1.00141297205e-15
1.00126174734e-15
1.00115353612e-15
1.00100218933e-15
1.00083606038e-15
1.00066456393e-15
1.00048777515e-15
1.00026641455e-15
1.00006325432e-15
1e-15
1e-15
1e-15
1e-15
1e-15
1e-15
1e-15
1e-15
1e-15
1e-15
1e-15
1e-15
1e-15
1e-15
1e-15
1e-15
1e-15
1e-15
1e-15
1e-15
1e-15
1e-15
1e-15
1e-15
1e-15
1e-15
1e-15
1e-15
1e-15
1e-15
1e-15
1e-15
1e-15
1e-15
1.00000444247e-15
1.00007779054e-15
1.00015652032e-15
1.00025801543e-15
1.00050774642e-15
1.0008452512e-15
1.00114622235e-15
1.0013912593e-15
1.00158730617e-15
1.00174636464e-15
1.00186647082e-15
1.0019574909e-15
1.00201647599e-15
1.00204973276e-15
1.00205368758e-15
1.00203561873e-15
1.00198984041e-15
1.00190766924e-15
1.00177617188e-15
1.00164553468e-15
1.00150351876e-15
1.00134399651e-15
1.00116851052e-15
1.00100603127e-15
1.00087560579e-15
1.00077855426e-15
1.00070545206e-15
1.00066603294e-15
1.00065664171e-15
1.00068261825e-15
1.0007513912e-15
1.00088676963e-15
1.00113438143e-15
1.00159693349e-15
1.00219552485e-15
1.00286759423e-15
1.00591579087e-15
1.02909014361e-15
1.02783828274e-15
1.02919333442e-15
1.02783828274e-15
1.00725748687e-15
1.00288255149e-15
1.01403557285e-15
1e-15
1.01497455244e-15
1e-15
1e-15
1e-15
1e-15
1.000049935e-15
1.00043429134e-15
1.00081073067e-15
1.00125899765e-15
1.00166636092e-15
1.00200757711e-15
1.00217028715e-15
1.00222134578e-15
1.00208108163e-15
1.00182669654e-15
1.00146239338e-15
1.00111982606e-15
1.00077705415e-15
1.00043132817e-15
1.00000020889e-15
1e-15
1e-15
1e-15
1e-15
1e-15
1e-15
1e-15
1e-15
1e-15
1e-15
1e-15
1.0000578509e-15
1.00010038582e-15
1.00013571409e-15
1.00018991495e-15
1.00044775715e-15
1.00106627746e-15
1.00153326605e-15
1.00154831343e-15
1.00153326605e-15
1.00154949487e-15
1.00153326605e-15
1.00154932164e-15
1.00153326605e-15
1.00154799162e-15
1.00153326605e-15
1.00154580311e-15
1.00153326605e-15
1.00153788893e-15
1.00153326605e-15
1.00153629146e-15
1.00153326605e-15
1.00147849664e-15
1.001296414e-15
1.0011446019e-15
1.00096651234e-15
1.00077753083e-15
1.00056841683e-15
1.0003276354e-15
1.00008133584e-15
1e-15
1e-15
1e-15
1e-15
1e-15
1e-15
1e-15
1e-15
1e-15
1e-15
1e-15
1e-15
1e-15
1e-15
1e-15
1e-15
1e-15
1e-15
1e-15
1e-15
1e-15
1e-15
1e-15
1e-15
1e-15
1e-15
1e-15
1e-15
1e-15
1e-15
1e-15
1e-15
1e-15
1e-15
1e-15
1.00000082645e-15
1.00008278117e-15
1.00015460273e-15
1.00030246195e-15
1.00070869332e-15
1.00111688756e-15
1.00144919335e-15
1.00173568618e-15
1.00197200392e-15
1.00216697772e-15
1.00231706567e-15
1.00243312243e-15
1.00251143755e-15
1.00255958675e-15
1.00257282944e-15
1.00256045071e-15
1.00251741712e-15
1.00243819093e-15
1.00229377195e-15
1.00214145792e-15
1.00199095048e-15
1.00182409788e-15
1.00163811085e-15
1.00144375898e-15
1.00126061841e-15
1.00110817674e-15
1.00098969026e-15
1.00092718456e-15
1.00091151951e-15
1.00094689611e-15
1.00104352136e-15
1.00124612393e-15
1.00160808666e-15
1.00216221591e-15
1.00283986254e-15
1.00360433239e-15
1.02843506744e-15
1.02783828274e-15
1.02915238941e-15
1.02783828274e-15
1.02896849233e-15
1.00867883725e-15
1.00343223522e-15
1.01298708452e-15
1e-15
1.01220663212e-15
1e-15
1e-15
1e-15
1e-15
1e-15
1.00012210226e-15
1.00053165762e-15
1.00107718041e-15
1.00157197587e-15
1.00199418631e-15
1.00221687453e-15
1.00233441802e-15
1.00217502183e-15
1.0019132188e-15
1.00152369532e-15
1.00117258142e-15
1.00084491728e-15
1.00055400272e-15
1.00018452775e-15
1e-15
1e-15
1e-15
1e-15
1e-15
1e-15
1e-15
1e-15
1e-15
1e-15
1.00003915304e-15
1.00008341955e-15
1.0001154635e-15
1.00014461171e-15
1.00022580918e-15
1.00067376072e-15
1.0013551676e-15
1.00154132901e-15
1.00153326605e-15
1.00154230298e-15
1.00153326605e-15
1.00154236121e-15
1.00153326605e-15
1.00154156703e-15
1.00153326605e-15
1.00154184793e-15
1.00153326605e-15
1.00153466164e-15
1.00153326605e-15
1.00153420578e-15
1.00153326605e-15
1.00152482743e-15
1.00142097618e-15
1.00123664629e-15
1.00104958908e-15
1.00083391962e-15
1.00059652021e-15
1.00030859395e-15
1.00005924574e-15
1e-15
1e-15
1e-15
1e-15
1e-15
1e-15
1e-15
1e-15
1e-15
1e-15
1e-15
1e-15
1e-15
1e-15
1e-15
1e-15
1e-15
1e-15
1e-15
1e-15
1e-15
1e-15
1e-15
1e-15
1e-15
1e-15
1e-15
1e-15
1e-15
1e-15
1e-15
1e-15
1e-15
1e-15
1e-15
1e-15
1.00001785761e-15
1.00009246309e-15
1.00013663383e-15
1.00044323451e-15
1.00092321479e-15
1.00135044971e-15
1.00173070626e-15
1.00206559994e-15
1.00234540511e-15
1.00258072051e-15
1.00276471718e-15
1.00290895485e-15
1.00300868123e-15
1.0030732575e-15
1.00309685048e-15
1.00309055784e-15
1.00305140577e-15
1.00298076463e-15
1.00282770907e-15
1.00264898774e-15
1.0024903976e-15
1.00231929476e-15
1.00213245785e-15
1.00193300853e-15
1.00172676908e-15
1.00153758688e-15
1.00138186288e-15
1.00129288455e-15
1.00126589522e-15
1.0013096115e-15
1.00143669815e-15
1.00170362855e-15
1.00214882943e-15
1.00275362011e-15
1.00349797554e-15
1.00437586171e-15
1.02783828274e-15
1.02903837471e-15
1.02783828274e-15
1.02912394158e-15
1.02783828274e-15
1.0099865837e-15
1.0038483523e-15
1.01376459647e-15
1e-15
1.01418822321e-15
1e-15
1e-15
1e-15
1e-15
1e-15
1e-15
1.0002000659e-15
1.00091518568e-15
1.00155139233e-15
1.00202650433e-15
1.00232427505e-15
1.00255927496e-15
1.00234233787e-15
1.00206291915e-15
1.0016312905e-15
1.00124760106e-15
1.00091848089e-15
1.00065938931e-15
1.00035430386e-15
1.00000248935e-15
1e-15
1e-15
1e-15
1e-15
1e-15
1e-15
1e-15
1e-15
1.00000523385e-15
1.00007091711e-15
1.00009746317e-15
1.00012434613e-15
1.00015032479e-15
1.0002991877e-15
1.00087006607e-15
1.00147754063e-15
1.00153326605e-15
1.00153811479e-15
1.00153326605e-15
1.00153821793e-15
1.00153326605e-15
1.00153782825e-15
1.00153326605e-15
1.00153700265e-15
1.00153326605e-15
1.00153734784e-15
1.00153207755e-15
1.00149586612e-15
1.00146396176e-15
1.00142946128e-15
1.00136808821e-15
1.00125745226e-15
1.00106634873e-15
1.00082927658e-15
1.00054724092e-15
1.00022604372e-15
1.00000334983e-15
1e-15
1e-15
1e-15
1e-15
1e-15
1e-15
1e-15
1e-15
1e-15
1e-15
1e-15
1e-15
1e-15
1e-15
1e-15
1e-15
1e-15
1e-15
1e-15
1e-15
1e-15
1e-15
1e-15
1e-15
1e-15
1e-15
1e-15
1e-15
1e-15
1e-15
1e-15
1e-15
1e-15
1e-15
1e-15
1e-15
1e-15
1.0000188875e-15
1.00008669072e-15
1.00015817179e-15
1.000558181e-15
1.00106866553e-15
1.00156225364e-15
1.00198189229e-15
1.00237158765e-15
1.00270447983e-15
1.00298141921e-15
1.00320039325e-15
1.00337483815e-15
1.00349772018e-15
1.00358002192e-15
1.00361507632e-15
1.00361504179e-15
1.0035804053e-15
1.00351868129e-15
1.00336249918e-15
1.0031563297e-15
1.00298360535e-15
1.00280308512e-15
1.00260873526e-15
1.00240680701e-15
1.00220082711e-15
1.0020069041e-15
1.00184091342e-15
1.00173486907e-15
1.00169793224e-15
1.00174930415e-15
1.00190430387e-15
1.00221229452e-15
1.0026922091e-15
1.00333300864e-15
1.00414520314e-15
1.00515874582e-15
1.02867398759e-15
1.02783828274e-15
1.02908670497e-15
1.02783828274e-15
1.028907174e-15
1.01114682921e-15
1.00409397177e-15
1.01298708452e-15
1e-15
1.01220663212e-15
1e-15
1e-15
1e-15
1e-15
1e-15
1e-15
1e-15
1.00074492861e-15
1.00151176515e-15
1.00216676403e-15
1.00256554299e-15
1.00288542328e-15
1.00265191994e-15
1.00234998862e-15
1.00184839034e-15
1.00137929198e-15
1.00101499999e-15
1.00077539249e-15
1.0005070995e-15
1.00018320084e-15
1e-15
1e-15
1e-15
1e-15
1e-15
1e-15
1e-15
1.00002035155e-15
1.0000612598e-15
1.00008870663e-15
1.00010612008e-15
1.00012837458e-15
1.00015445407e-15
1.00040813328e-15
1.00099828891e-15
1.00146354134e-15
1.00153460117e-15
1.00153326605e-15
1.00153467952e-15
1.00153326605e-15
1.00153458807e-15
1.00153326605e-15
1.00153433749e-15
1.00153326605e-15
1.00153400725e-15
1.00153326605e-15
1.0014043116e-15
1.0012937853e-15
1.00123883719e-15
1.00118071396e-15
1.00109997224e-15
1.00099126695e-15
1.00076342711e-15
1.00043635187e-15
1.00011117718e-15
1e-15
1e-15
1e-15
1e-15
1e-15
1e-15
1e-15
1e-15
1e-15
1e-15
1e-15
1e-15
1e-15
1e-15
1e-15
1e-15
1e-15
1e-15
1e-15
1e-15
1e-15
1e-15
1e-15
1e-15
1e-15
1e-15
1e-15
1e-15
1e-15
1e-15
1e-15
1e-15
1e-15
1e-15
1e-15
1e-15
1e-15
1e-15
1e-15
1.00001723999e-15
1.00009925088e-15
1.00015635862e-15
1.00062239858e-15
1.0011767592e-15
1.00170996886e-15
1.0022456986e-15
1.00269425719e-15
1.00305356262e-15
1.00337438209e-15
1.00363384159e-15
1.00383702441e-15
1.00398238385e-15
1.00408300789e-15
1.00413040432e-15
1.0041372178e-15
1.00410657125e-15
1.0040453959e-15
1.00390056038e-15
1.00367507601e-15
1.00347083869e-15
1.00327575574e-15
1.00306550441e-15
1.00285025531e-15
1.0026447578e-15
1.00245881934e-15
1.00230163533e-15
1.00219510662e-15
1.00215918889e-15
1.00221791009e-15
1.00239132113e-15
1.00271451786e-15
1.00320218696e-15
1.00388313842e-15
1.0047692742e-15
1.00591133539e-15
1.02783828274e-15
1.02897767061e-15
1.02783828274e-15
1.02905962347e-15
1.02783828274e-15
1.01216703846e-15
1.00427608714e-15
1.01358669477e-15
1e-15
1.01346255428e-15
1e-15
1e-15
1e-15
1e-15
1e-15
1e-15
1e-15
1.00050138933e-15
1.00140097796e-15
1.00215826048e-15
1.00269642507e-15
1.00302977003e-15
1.0029964957e-15
1.00274332452e-15
1.00219700134e-15
1.00160297532e-15
1.00115201232e-15
1.00091296978e-15
1.00066527851e-15
1.00040626548e-15
1.00009774607e-15
1.00003947669e-15
1.00000223264e-15
1e-15
1e-15
1.00001726273e-15
1.00002716837e-15
1.00006727226e-15
1.00008149093e-15
1.00009991578e-15
1.00011124781e-15
1.00012684396e-15
1.00015070435e-15
1.00043599269e-15
1.0009936883e-15
1.00138089295e-15
1.00146223256e-15
1.00146671297e-15
1.0014581631e-15
1.00145505225e-15
1.00143684172e-15
1.0014227992e-15
1.00140102376e-15
1.0013960829e-15
1.00140252363e-15
1.00141295025e-15
1.00117563926e-15
1.00099257242e-15
1.00094711584e-15
1.00088785042e-15
1.00079627929e-15
1.00061203338e-15
1.00027514684e-15
1.00001290595e-15
1e-15
1e-15
1e-15
1e-15
1e-15
1e-15
1e-15
1e-15
1e-15
1e-15
1e-15
1e-15
1e-15
1e-15
1e-15
1e-15
1e-15
1e-15
1e-15
1e-15
1e-15
1e-15
1e-15
1e-15
1e-15
1e-15
1e-15
1e-15
1e-15
1e-15
1e-15
1e-15
1e-15
1e-15
1e-15
1e-15
1e-15
1e-15
1e-15
1e-15
1.00001969862e-15
1.0001002409e-15
1.00017497819e-15
1.0006877261e-15
1.00127110993e-15
1.00189613454e-15
1.0025102015e-15
1.00297698967e-15
1.00344373111e-15
1.00380059037e-15
1.00407229855e-15
1.00430646429e-15
1.00447993873e-15
1.00459748754e-15
1.00465665782e-15
1.00467113686e-15
1.00464407562e-15
1.00458435488e-15
1.00445683959e-15
1.00421535992e-15
1.00396711157e-15
1.00375469291e-15
1.00352405705e-15
1.00328631605e-15
1.00306915648e-15
1.00288179776e-15
1.00273076611e-15
1.00263016991e-15
1.00260337584e-15
1.00266851263e-15
1.00285087767e-15
1.00317910139e-15
1.00367834384e-15
1.00441188171e-15
1.00537670485e-15
1.00662461687e-15
1.02865495592e-15
1.02783828274e-15
1.02902483293e-15
1.02783828274e-15
1.02885143336e-15
1.01303985468e-15
1.00429061288e-15
1.01298708452e-15
1e-15
1.01220663212e-15
1e-15
1e-15
1e-15
1e-15
1e-15
1e-15
1e-15
1.00004617591e-15
1.00115394267e-15
1.00204494429e-15
1.00265451234e-15
1.00302729245e-15
1.00317944883e-15
1.00305226236e-15
1.00257716143e-15
1.00192311301e-15
1.00135209491e-15
1.00107846846e-15
1.00084081109e-15
1.00061442914e-15
1.00030232384e-15
1.00013503574e-15
1.00010141024e-15
1.00008789661e-15
1.00008076129e-15
1.00008397044e-15
1.0000867667e-15
1.00009491281e-15
1.000095852e-15
1.00010486471e-15
1.00010925277e-15
1.00012063951e-15
1.00013828438e-15
1.00041473068e-15
1.00093600479e-15
1.00120617455e-15
1.00124199055e-15
1.00124181779e-15
1.00122192139e-15
1.00120982934e-15
1.00117784562e-15
1.0011525831e-15
1.00111779081e-15
1.00110629602e-15
1.00112212054e-15
1.00115273628e-15
1.00093395574e-15
1.00073470635e-15
1.0006377377e-15
1.00055529225e-15
1.00035353711e-15
1.00009004542e-15
1e-15
1e-15
1e-15
1e-15
1e-15
1e-15
1e-15
1e-15
1e-15
1e-15
1e-15
1e-15
1e-15
1e-15
1e-15
1e-15
1e-15
1e-15
1e-15
1e-15
1e-15
1e-15
1e-15
1e-15
1e-15
1e-15
1e-15
1e-15
1e-15
1e-15
1e-15
1e-15
1e-15
1e-15
1e-15
1e-15
1e-15
1e-15
1e-15
1e-15
1e-15
1e-15
1.00002181682e-15
1.00010251427e-15
1.00018963229e-15
1.00076319483e-15
1.00145113473e-15
1.0021520166e-15
1.00277264142e-15
1.0033023892e-15
1.00383166887e-15
1.00419804768e-15
1.00456252079e-15
1.00481920034e-15
1.00499335565e-15
1.005130717e-15
1.00520880375e-15
1.00523047678e-15
1.00520616342e-15
1.00514947441e-15
1.00504168871e-15
1.00478772653e-15
1.00449158383e-15
1.00426220867e-15
1.00401206456e-15
1.00375105817e-15
1.00351157834e-15
1.00330672202e-15
1.00314629593e-15
1.00304288284e-15
1.00302152276e-15
1.00309136927e-15
1.00328018994e-15
1.00362047215e-15
1.00415143424e-15
1.0049465586e-15
1.00598498163e-15
1.00731593624e-15
1.02783828274e-15
1.02891978345e-15
1.02783828274e-15
1.02900000303e-15
1.02783828274e-15
1.01379758062e-15
1.00425862785e-15
1.01346981447e-15
1e-15
1.0128502261e-15
1e-15
1e-15
1e-15
1e-15
1e-15
1e-15
1e-15
1e-15
1.0007000466e-15
1.00177832483e-15
1.00253239826e-15
1.00300266729e-15
1.00324981302e-15
1.00322837052e-15
1.00288184794e-15
1.00229316899e-15
1.00163147198e-15
1.00128272864e-15
1.00104407624e-15
1.00081801471e-15
1.0005448217e-15
1.00028374066e-15
1.00017141868e-15
1.00015557082e-15
1.00013891424e-15
1.00013081959e-15
1.00012098641e-15
1.00011866316e-15
1.00010982751e-15
1.00010847143e-15
1.00010328927e-15
1.00010934307e-15
1.00011469705e-15
1.00031807841e-15
1.00079256993e-15
1.00095123608e-15
1.00094833575e-15
1.00093840404e-15
1.00091050609e-15
1.00089136099e-15
1.00085557419e-15
1.00082749723e-15
1.000791074e-15
1.0007777313e-15
1.00079734362e-15
1.00082948683e-15
1.00069623617e-15
1.00040952554e-15
1.00013559393e-15
1.00005454131e-15
1e-15
1e-15
1e-15
1e-15
1e-15
1e-15
1e-15
1e-15
1e-15
1e-15
1e-15
1e-15
1e-15
1e-15
1e-15
1e-15
1e-15
1e-15
1e-15
1e-15
1e-15
1e-15
1e-15
1e-15
1e-15
1e-15
1e-15
1e-15
1e-15
1e-15
1e-15
1e-15
1e-15
1e-15
1e-15
1e-15
1e-15
1e-15
1e-15
1e-15
1e-15
1e-15
1e-15
1e-15
1.00001980615e-15
1.00010094451e-15
1.00019567224e-15
1.00088805394e-15
1.00167918481e-15
1.00243187087e-15
1.00310225789e-15
1.00368671739e-15
1.00419862027e-15
1.00461488618e-15
1.00503723084e-15
1.00529979141e-15
1.00555503734e-15
1.00570612011e-15
1.00577542648e-15
1.00580702897e-15
1.00579219186e-15
1.00573871143e-15
1.00562966765e-15
1.00539352803e-15
1.00507759801e-15
1.00480772301e-15
1.00454380596e-15
1.00426690277e-15
1.00400293741e-15
1.00377061103e-15
1.00358620301e-15
1.00346645758e-15
1.00344103598e-15
1.00351363141e-15
1.00371091052e-15
1.00407527532e-15
1.00465520493e-15
1.00550792867e-15
1.00660274524e-15
1.00799933248e-15
1.02863098295e-15
1.02783828274e-15
1.02896701917e-15
1.02783828274e-15
1.02880185843e-15
1.01444664343e-15
1.00418614886e-15
1.01298708452e-15
1e-15
1.01220588676e-15
1e-15
1e-15
1e-15
1e-15
1e-15
1e-15
1e-15
1e-15
1e-15
1.00135516268e-15
1.0023413536e-15
1.00298491694e-15
1.00331587004e-15
1.0033755069e-15
1.00313895171e-15
1.0026736289e-15
1.00199480048e-15
1.0015459241e-15
1.00128429604e-15
1.00104099424e-15
1.0007702474e-15
1.00049413856e-15
1.00027019726e-15
1.00022395124e-15
1.00019245136e-15
1.00017424826e-15
1.00015392684e-15
1.00014162401e-15
1.00012337332e-15
1.00011260672e-15
1.00009747724e-15
1.00009373972e-15
1.0000865075e-15
1.00017696647e-15
1.0005362288e-15
1.00061428192e-15
1.0005807661e-15
1.00056085287e-15
1.00052396655e-15
1.0004984643e-15
1.00045641733e-15
1.00042414575e-15
1.00038440759e-15
1.00037075096e-15
1.00039174166e-15
1.00041915797e-15
1.00037970969e-15
1.00005669549e-15
1e-15
1e-15
1e-15
1e-15
1e-15
1e-15
1e-15
1e-15
1e-15
1e-15
1e-15
1e-15
1e-15
1e-15
1e-15
1e-15
1e-15
1e-15
1e-15
1e-15
1e-15
1e-15
1e-15
1e-15
1e-15
1e-15
1e-15
1e-15
1e-15
1e-15
1e-15
1e-15
1e-15
1e-15
1e-15
1e-15
1e-15
1e-15
1e-15
1e-15
1e-15
1e-15
1e-15
1e-15
1e-15
1e-15
1.00001232509e-15
1.00009434815e-15
1.00020440172e-15
1.00105296399e-15
1.00191582349e-15
1.00271065453e-15
1.00342988614e-15
1.00407166092e-15
1.00461112886e-15
1.00507841738e-15
1.00547316374e-15