/*--------------------------------*- C++ -*----------------------------------*\
| =========                 |                                                 |
| \\      /  F ield         | OpenFOAM: The Open Source CFD Toolbox           |
|  \\    /   O peration     | Version:  2206                                  |
|   \\  /    A nd           | Website:  www.openfoam.com                      |
|    \\/     M anipulation  |                                                 |
\*---------------------------------------------------------------------------*/
FoamFile
{
    version     2.0;
    format      ascii;
    arch        "LSB;label=64;scalar=64";
    class       volScalarField;
    location    "3.6/water";
    object      km;
}
// * * * * * * * * * * * * * * * * * * * * * * * * * * * * * * * * * * * * * //

dimensions      [0 2 -2 0 0 0 0];

internalField   nonuniform List<scalar> 
23300
(
0.00146344603213
0.00146385819034
0.00146466812346
0.00146586184802
0.0014674294881
0.00146936223959
0.00147165075634
0.00147428337766
0.00147724564989
0.00148051912211
0.00148408160517
0.00148790653117
0.00149196416788
0.00149622189071
0.0015006467149
0.00150520675071
0.00150987512522
0.00151463234608
0.00151947091654
0.00152439740403
0.00152943610724
0.00153462888179
0.00154003591626
0.00154573174599
0.00155180235195
0.00155833767834
0.00156542656556
0.00157314833952
0.00158156872974
0.00159073371002
0.00160066893884
0.00161137736788
0.00162284244623
0.00163502867056
0.00164788689928
0.00166135589397
0.00167536778639
0.00168984904099
0.00170472491669
0.00171991922801
0.00173535751962
0.00175096566925
0.00176667188603
0.0017824042874
0.0017980916119
0.00181367138521
0.00182908416295
0.00184426896682
0.00185916618999
0.00187371643279
0.00188786211411
0.00190154595822
0.00191471232104
0.00192730581761
0.00193927260528
0.00195055927261
0.00196111414258
0.00197088644356
0.00197982764591
0.0019878909018
0.00199503240974
0.00200121109081
0.00200638996007
0.0020105359877
0.00201362143512
0.0020156238261
0.00201652718002
0.00201632199325
0.0020150062764
0.0020125854257
0.00200907295236
0.0020044901122
0.00199886620779
0.00199223784729
0.00198464871474
0.00197614836964
0.00196679146295
0.00195663613847
0.00194574290685
0.00193417301973
0.00192198751135
0.00190924597444
0.00189600567143
0.00188231920723
0.00186822937085
0.00185375508762
0.00183885931102
0.0018234207251
0.00180733431494
0.00179053357577
0.0017729794026
0.0017546515804
0.00173554374537
0.00171565990794
0.00169501245567
0.00167362063598
0.00165150988501
0.00162871112822
0.00160526052509
0.00158119887334
0.00155657127767
0.00153142638958
0.00150581590666
0.00147979367769
0.00145341512498
0.00142673634336
0.00139981357913
0.00137270246121
0.00134545766505
0.00131813240102
0.00129077836967
0.00126344559297
0.00123618270648
0.00120903929925
0.00118206666465
0.00115531713895
0.00112884547609
0.00110271012609
0.00107697479135
0.00105170973024
0.00102699303368
0.00100291130514
0.00097955983557
0.00095704171624
0.000935465968686
0.00091494434725
0.000895587146035
0.000877498142224
0.000860769431731
0.000845476718097
0.000831675902003
0.000819401353501
0.000808666095721
0.000799463512255
0.0007917699456
0.000785547179505
0.000780743813626
0.00077729473713
0.000775118963918
0.000774118456519
0.00146434661479
0.00146474156783
0.00146552877462
0.0014667024443
0.00146825481458
0.00147017592079
0.00147245300273
0.00147506928454
0.00147800335157
0.00148122804653
0.00148471035051
0.00148841093163
0.00149228508628
0.001496283521
0.00150035489926
0.00150444827742
0.0015085174137
0.00151252460567
0.001516445974
0.00152027530326
0.00152402833966
0.00152774428671
0.00153148671745
0.00153534071759
0.001539409262
0.00154380609222
0.00154864901401
0.00155405119857
0.00156011484168
0.0015669244596
0.00157454390731
0.00158301362349
0.00159235165311
0.00160255430583
0.00161359973941
0.00162545015718
0.00163805600871
0.0016513580675
0.00166529099183
0.00167978451476
0.00169476598916
0.00171016065769
0.00172589335358
0.00174188820325
0.00175806999376
0.00177435752782
0.00179066947752
0.00180692606582
0.0018230494315
0.00183896273529
0.00185459073325
0.00186985904885
0.00188469477952
0.00189902593826
0.00191278212989
0.00192589419214
0.00193829496303
0.00194991912666
0.00196070407412
0.00197058994105
0.00197952054979
0.00198744360932
0.00199431170969
0.00200008263533
0.00200472036089
0.00200819540506
0.00201048575115
0.00201157714328
0.00201146383031
0.00201014868557
0.00200764365532
0.00200396957259
0.00199915618594
0.00199324154094
0.00198627147741
0.00197829848195
0.00196938059852
0.00195957975446
0.0019489601768
0.00193758636848
0.00192552123216
0.00191282370603
0.00189954599939
0.00188572910072
0.00187139586531
0.00185654100957
0.00184112979001
0.00182510355663
0.00180839462353
0.00179094973725
0.00177273253727
0.00175372196402
0.00173390997321
0.00171329926052
0.00169190166009
0.00166973690645
0.00164683197056
0.00162322046812
0.00159894231866
0.00157404321539
0.00154857417755
0.0015225908361
0.00149615278737
0.00146932271131
0.00144216560529
0.00141474784868
0.00138713644374
0.00135939816046
0.00133159891782
0.00130380314259
0.00127607342031
0.0012484701964
0.00122105183206
0.00119387544283
0.0011669976152
0.00114047397827
0.00111436002461
0.00108871198905
0.00106358791662
0.00103904864295
0.00101515874381
0.000991987146526
0.000969607391832
0.000948097246544
0.000927537671715
0.000908010983554
0.000889598387962
0.000872377011797
0.000856416869467
0.000841778121406
0.00082850910339
0.000816645351426
0.000806209725103
0.000797213375769
0.000789657118339
0.000783532482696
0.000778821539564
0.000775494279798
0.000773501878616
0.000772762281695
0.00146621858923
0.00146663699354
0.00146747389093
0.00146872515201
0.0014703827404
0.00147243472684
0.00147486497336
0.00147765201808
0.00148076847132
0.00148417998868
0.00148784525196
0.00149171577208
0.00149573712885
0.00149985023758
0.00150399436002
0.00150811015298
0.00151214443941
0.00151605455928
0.00151981385796
0.00152341570528
0.00152687757252
0.00153024232208
0.00153357856594
0.00153697744738
0.00154054844926
0.00154441209067
0.00154869291199
0.00155351091145
0.00155897512313
0.0015651771982
0.0015721883319
0.00158005669917
0.00158880820413
0.00159844716372
0.00160895947568
0.0016203147845
0.00163247027125
0.0016453727775
0.00165896207014
0.00167317221838
0.00168793399139
0.00170317545772
0.0017188236755
0.00173480481099
0.0017510454569
0.00176746083614
0.0017839628372
0.00180046590508
0.00181688692112
0.00183314423891
0.00184915795589
0.00186484925999
0.00188014085453
0.00189495652315
0.00190922167339
0.00192286310354
0.0019358096575
0.00194799218219
0.0019593442854
0.00196980246582
0.00197930695735
0.00198780200205
0.00199523675105
0.00200156563392
0.00200674926673
0.00201075484975
0.0020135570097
0.00201513813378
0.00201548904937
0.00201460918152
0.00201250695494
0.00200919964895
0.0020047133973
0.00199908261161
0.00199234945735
0.00198456272974
0.00197577671182
0.00196604943784
0.00195544091695
0.00194401081408
0.00193181609337
0.00191890811314
0.00190532951938
0.00189111038825
0.00187626419578
0.00186078431834
0.00184464575639
0.00182782886585
0.00181029505731
0.00179201102873
0.0017729528076
0.00175310684037
0.00173246981949
0.00171104783099
0.00168885560257
0.00166591573555
0.00164225822732
0.00161791992781
0.00159294414173
0.00156738003536
0.00154128209935
0.00151470938507
0.00148772479836
0.00146039420326
0.0014327856255
0.00140496832634
0.00137701202896
0.00134898608112
0.00132095882328
0.00129299695824
0.00126516517455
0.00123752583079
0.00121013893341
0.00118306227638
0.00115635210706
0.0011300630032
0.00110424846493
0.00107896156122
0.00105425573393
0.0010301855387
0.00100680737076
0.000984179938091
0.000962364487398
0.000941424563245
0.000921425330761
0.000902432357936
0.000884510028481
0.000867719698204
0.000852117951603
0.00083775523144
0.00082467520521
0.00081291501722
0.000802506478238
0.000793477945644
0.000785856469027
0.000779669445519
0.000774944603585
0.000771706216347
0.000769964056308
0.000769688626239
0.00146960857248
0.00147008338519
0.00147103288579
0.00147245203406
0.00147433079551
0.0014766540113
0.00147940118506
0.00148254539559
0.00148605279487
0.00148988172656
0.00149398300665
0.00149830013001
0.00150277101694
0.00150732983257
0.00151191054285
0.00151645041519
0.00152089505625
0.00152520278587
0.00152934982618
0.00153333374433
0.00153717667457
0.00154092566363
0.00154465206111
0.00154844758052
0.00155241965365
0.00155668415464
0.00156135874108
0.00156655505759
0.00157237317162
0.00157889613304
0.0015861876487
0.00159429015245
0.00160322580675
0.00161299730601
0.00162359083715
0.00163497803091
0.001647119342
0.00165996588509
0.0016734623116
0.00168754798426
0.00170215910439
0.00171722922725
0.00173269078047
0.0017484751371
0.00176451370818
0.00178072793399
0.00179703053498
0.00181333683179
0.00182956461102
0.00184563319189
0.001861463629
0.00187697808554
0.00189210020958
0.00190675473165
0.00192086797032
0.00193436762479
0.00194718339089
0.00195924692864
0.00197049257311
0.00198085745481
0.00199028228609
0.00199871160437
0.00200609460513
0.00201238546517
0.00201754417786
0.00202153689629
0.00202433670672
0.00202592391098
0.00202628665321
0.00202542104139
0.0020233315237
0.00202003073401
0.00201553950145
0.00200988629614
0.00200310675103
0.00199524258773
0.00198634054428
0.00197645069557
0.00196562474233
0.00195391373651
0.00194136581686
0.00192802351389
0.00191392123772
0.00189908271098
0.00188351925446
0.00186722921622
0.00185019978103
0.00183242739544
0.00181390711651
0.00179462586373
0.0017745760763
0.00175375682418
0.00173217438643
0.00170984226037
0.00168678112193
0.0016630185222
0.00163858866909
0.00161353198341
0.00158789472065
0.00156172835648
0.00153508902809
0.0015080367604
0.00148063477113
0.00145294860753
0.00142504540101
0.00139699300976
0.00136885932214
0.00134071150561
0.00131261545735
0.0012846352543
0.00125683283842
0.00122926774451
0.00120199707919
0.00117507536993
0.0011485552658
0.00112248764401
0.00109692211798
0.0010719075704
0.00104749281328
0.00102372717469
0.00100066106632
0.000978346323214
0.000956836340456
0.000936185826736
0.000916450233903
0.000897684797886
0.000879943383239
0.00086327726479
0.000847734204255
0.00083335809864
0.000820189569955
0.000808267677748
0.000797632868424
0.000788331010162
0.000780418197756
0.000773965652982
0.000769063501478
0.00076582099957
0.000764359165661
0.000764786704077
0.00147488483656
0.00147544785078
0.00147657169922
0.00147824842715
0.00148046408975
0.00148319846348
0.00148642486685
0.0014901091059
0.00149420914799
0.00149867451878
0.00150344704266
0.0015084615733
0.00151364838079
0.00151893556784
0.00152425315965
0.001529536924
0.0015347334668
0.0015398043026
0.00154473038935
0.00154951459258
0.00155418372637
0.00155878768118
0.00156339774607
0.00156810195494
0.00157300018343
0.0015781971628
0.00158379656134
0.00158989430688
0.00159657426567
0.00160390405371
0.00161193372226
0.0016206945898
0.00163020061866
0.00164044933743
0.00165142461292
0.00166309830285
0.00167543318306
0.00168838436692
0.00170190172082
0.00171593068962
0.00173041406932
0.00174529229116
0.00176050469382
0.0017759894457
0.00179168444268
0.00180752283345
0.00182342163168
0.0018393001958
0.00185508012135
0.00187068437195
0.00188603749219
0.00190106502979
0.00191569391257
0.00192985207861
0.00194346897138
0.00195647534666
0.00196880386457
0.0019803890502
0.00199116796387
0.00200108029077
0.00201006906837
0.00201808087526
0.00202506658822
0.00203098163154
0.00203578672549
0.00203944814451
0.00204193840377
0.00204323645909
0.00204332826136
0.00204220681439
0.00203987251056
0.00203633294865
0.00203160295056
0.00202570403178
0.00201866399404
0.00201051594494
0.00200129737851
0.00199104868152
0.00197981168844
0.00196762773408
0.00195453585156
0.00194057068839
0.00192576086687
0.00191012754336
0.00189368400399
0.00187643612945
0.00185838426132
0.00183952585112
0.0018198899445
0.00179948417237
0.00177831823033
0.00175640593513
0.00173376587832
0.00171042169036
0.00168640234425
0.00166174212161
0.00163648058827
0.00161066225675
0.00158433627692
0.00155755586338
0.0015303777858
0.0015028616499
0.00147506927771
0.00144706393263
0.00141890967957
0.0013906706426
0.00136241043137
0.00133419151473
0.0013060747923
0.00127811915685
0.00125038127529
0.00122291539207
0.00119577335327
0.00116900432081
0.00114265555828
0.00111677272688
0.00109140036805
0.00106658237979
0.00104236258875
0.00101878522876
0.000995895384402
0.000973739207834
0.000952363946827
0.00093181762984
0.000912148489615
0.000893404091604
0.000875630384726
0.000858870838038
0.000843166051039
0.000828554162183
0.000815072502828
0.00080276081563
0.000791666376546
0.000781851223767
0.000773401714646
0.000766440550467
0.000761141272834
0.000757744436952
0.000756572711686
0.000758037152519
0.00148232614561
0.00148300747875
0.00148436499645
0.00148638607539
0.00148905073221
0.00149233134979
0.00149619255509
0.00150059025826
0.00150547163921
0.00151077495063
0.00151643086987
0.0015223639007
0.00152849548293
0.00153474703457
0.00154104453474
0.00154732253799
0.00155352914524
0.00155962953756
0.00156560962516
0.00157147732383
0.00157726328277
0.00158301874133
0.00158881283654
0.00159472735397
0.00160085175175
0.00160727664494
0.0016140888049
0.0016213657153
0.00162917257856
0.00163755939661
0.00164656067855
0.00165619500702
0.0016664667868
0.00167736726168
0.00168887710635
0.00170096776378
0.00171360393026
0.00172674453461
0.00174034469027
0.0017543561322
0.00176872861691
0.00178340992389
0.00179834685897
0.00181348499014
0.00182876937787
0.00184414795119
0.0018595436803
0.00187488150975
0.00189008823869
0.00190509173928
0.00191982122467
0.00193420673601
0.00194817954288
0.00196167180631
0.00197461707429
0.00198695009789
0.00199860740483
0.00200952724645
0.00201965022999
0.00202891937023
0.00203728075853
0.00204468368978
0.00205108134263
0.00205643094702
0.00206069444325
0.0020638386472
0.00206583584578
0.00206666390602
0.0020663067524
0.0020647543539
0.00206200301588
0.00205805516835
0.00205291939483
0.00204660993892
0.00203914639159
0.00203055284339
0.00202085717743
0.00201008984662
0.00199828280699
0.00198546803343
0.00197167631604
0.00195693587245
0.0019412715179
0.00192470402175
0.001907250347
0.0018889242741
0.00186973773168
0.00184970195996
0.00182883959174
0.00180719931496
0.00178480715159
0.0017616921284
0.00173788633112
0.00171342505156
0.0016883470774
0.00166269472212
0.00163651388558
0.0016098537874
0.00158276673599
0.00155530763175
0.00152753355165
0.00149950313181
0.00147127606824
0.00144291247034
0.00141447236231
0.00138601508533
0.00135759887226
0.00132928036563
0.00130111432698
0.00127315332499
0.00124544762592
0.00121804508737
0.0011909912496
0.0011643289713
0.00113809925333
0.00111234175813
0.00108709528425
0.00106239820479
0.00103828897161
0.0010148065029
0.000991990516531
0.000969881628878
0.000948521267355
0.000927951260724
0.00090821320525
0.000889347595308
0.000871392955203
0.00085438516183
0.000838357379966
0.000823340999547
0.000809368142559
0.000796476285574
0.000784715741908
0.000774160910687
0.000764926726124
0.000757192532577
0.000751236972485
0.00074748897125
0.000746600327058
0.000749543046832
0.00149209887024
0.00149292748849
0.00149457574259
0.00149702467841
0.00150024602935
0.00150420210594
0.00150884586734
0.00151412017463
0.00151995821077
0.00152628388457
0.00153301395973
0.00154006024236
0.00154733350747
0.00155474718178
0.00156222236764
0.00156969193854
0.00157710522825
0.00158443085472
0.00159165933123
0.00159880304849
0.00160589565773
0.00161298869297
0.00162014796812
0.00162744786077
0.00163496639775
0.0016427792985
0.00165095593722
0.00165955510555
0.00166862328733
0.00167819291094
0.00168828299766
0.0016988993851
0.00171003681809
0.00172168004457
0.00173380625586
0.00174638613485
0.00175938594926
0.00177276812027
0.00178649275206
0.00180051769213
0.00181479957837
0.00182929354708
0.00184395395482
0.00185873384559
0.00187358528884
0.00188847152626
0.00190332398088
0.0019180741248
0.00193265455177
0.00194699855106
0.00196104049641
0.00197471539524
0.00198795931118
0.00200070904749
0.00201290264249
0.00202447918592
0.00203537937547
0.00204554544361
0.00205492175456
0.00206345481415
0.00207109388454
0.00207779104842
0.0020835018181
0.00208818522327
0.00209180438827
0.00209432660856
0.00209572386432
0.00209597284488
0.0020950553592
0.00209295826039
0.00208967370577
0.00208519892732
0.00207953628875
0.00207269284696
0.00206468015844
0.00205551359355
0.00204521187698
0.00203379617348
0.00202128943395
0.0020077153936
0.00199309795019
0.00197746039233
0.00196082520372
0.00194321393924
0.00192464778507
0.00190514814982
0.00188473760982
0.00186344041444
0.00184128300193
0.00181831352512
0.00179459781095
0.00177017958072
0.00174510477846
0.00171942104966
0.00169317785885
0.00166642641233
0.00163921972536
0.00161161237613
0.00158366033574
0.0015554205496
0.00152695063046
0.00149830836122
0.00146955133681
0.00144073646502
0.00141191962662
0.00138315523555
0.00135449597309
0.00132599245733
0.00129769309603
0.0012696439037
0.00124188850563
0.00121446812713
0.00118742176155
0.00116078577953
0.00113459460617
0.00110888158894
0.00108367946383
0.00105902075798
0.00103493823008
0.00101146517123
0.000988635632318
0.00096648440693
0.000945046826083
0.000924358242587
0.00090445331384
0.000885365085665
0.00086712412403
0.000849757900662
0.000833290881434
0.000817745772027
0.000803146626969
0.000789524653168
0.000776928003033
0.000765437510273
0.000755191767148
0.000746427497807
0.000739545930815
0.000735223635274
0.00073459659413
0.000739555897179
0.00150426467839
0.00150526876758
0.00150726323318
0.00151022107288
0.00151410333716
0.00151885936164
0.00152442713263
0.00153073290991
0.00153769229047
0.00154521137784
0.00155318986025
0.00156152414311
0.00157011215771
0.00157885770094
0.00158767584939
0.00159649702667
0.00160527127524
0.00161397022902
0.00162258857937
0.0016311427042
0.00163966871678
0.00164821791595
0.00165685237794
0.00166563887571
0.00167464410926
0.0016839293311
0.0016935472435
0.00170353887696
0.00171393302066
0.00172474551544
0.00173598074175
0.00174763242001
0.00175968601779
0.00177211992286
0.00178490777315
0.00179801926023
0.00181142189669
0.00182508122337
0.0018389619736
0.00185302779262
0.00186724198
0.00188156695154
0.00189596479442
0.00191039672964
0.0019248238212
0.00193920795021
0.00195350850835
0.00196766104857
0.00198160324954
0.00199527369077
0.00200861197598
0.00202155819751
0.00203405333014
0.00204603890675
0.00205745750596
0.00206825255818
0.00207836888444
0.00208775259781
0.00209635166757
0.00210411588621
0.00211099743606
0.00211695089398
0.00212193377961
0.00212590657127
0.00212883321557
0.00213068112767
0.00213142164039
0.00213102996017
0.00212948553062
0.002126771913
0.00212287703586
0.00211779296761
0.00211151602367
0.00210404640284
0.0020953881331
0.00208554856397
0.00207453816545
0.00206236992118
0.00204905906804
0.00203462252854
0.00201907878304
0.00200244757738
0.00198475017673
0.00196600955362
0.00194625109453
0.00192550309859
0.00190379745065
0.00188116968255
0.00185765884544
0.00183330691156
0.0018081834718
0.00178237204714
0.00175593194771
0.0017289233874
0.00170140685993
0.00167344298063
0.00164509248392
0.00161641595808
0.00158747370054
0.00155832536166
0.00152902973741
0.0014996443861
0.00147022540796
0.00144082709065
0.00141150172663
0.00138229932955
0.00135326752588
0.00132445137289
0.00129589335216
0.00126763331209
0.00123970858327
0.00121215406195
0.00118500245815
0.00115828399489
0.00113202656592
0.00110625718724
0.00108100244808
0.00105628887704
0.00103214331972
0.00100859315488
0.000985666418783
0.000963391675505
0.00094179769592
0.0009209128332
0.000900764209658
0.000881376724111
0.000862772127961
0.000844968381628
0.00082797975601
0.000811818188387
0.000796496733559
0.000782036245111
0.000768477214177
0.00075590001001
0.000744459558324
0.000734445867321
0.000726392575108
0.000721276145204
0.000720882931885
0.00072846651835
0.00151879682405
0.00152000429677
0.00152239983897
0.00152594658711
0.00153059237642
0.0015362704279
0.00154290018897
0.00155038750064
0.00155862646943
0.00156750164651
0.00157689224705
0.00158667634772
0.00159673667557
0.00160696561244
0.00161727094405
0.00162757979592
0.00163784235911
0.00164803288787
0.00165814993222
0.00166821357414
0.00167826216282
0.0016883466527
0.00169852547742
0.001708858177
0.00171940081821
0.00173020118838
0.00174129657007
0.00175271162694
0.00176445887139
0.00177653887244
0.00178894249159
0.0018016521928
0.00181464474864
0.00182789249627
0.00184136560016
0.00185503265702
0.00186886219998
0.0018828225922
0.00189688287642
0.00191101218024
0.00192518017588
0.00193935628233
0.00195350999634
0.00196761012588
0.00198162515316
0.00199552247988
0.0020092839183
0.00202285094888
0.00203616691539
0.00204917588895
0.00206182276427
0.00207405270147
0.00208581151449
0.00209704534111
0.00210770112531
0.00211772640819
0.00212706984998
0.00213568110293
0.00214351134645
0.00215051321251
0.00215664131224
0.00216185218783
0.00216610481293
0.00216936054898
0.0021715836052
0.00217274098009
0.00217280286837
0.00217174257
0.00216953683166
0.00216616570684
0.0021616128201
0.00215586516413
0.00214891327853
0.00214075097756
0.00213137544694
0.00212078691636
0.00210898870699
0.00209598690456
0.0020817904424
0.00206641088999
0.00204986271001
0.0020321633076
0.00201333357953
0.00199339826837
0.00197238671466
0.00195033324424
0.00192727765175
0.00190326500887
0.00187834529189
0.00185257226736
0.00182600262017
0.00179871958867
0.00177082710268
0.00174239737643
0.00171350194023
0.00168421096255
0.00165459337545
0.00162471642522
0.00159464549595
0.00156444379933
0.00153417225045
0.00150388917879
0.00147365022393
0.00144350810494
0.00141351257642
0.00138371028397
0.00135414479898
0.00132485657216
0.00129588305683
0.00126725876736
0.00123901549783
0.00121118249177
0.00118378676311
0.00115685311372
0.00113040322486
0.00110445797221
0.00107903787678
0.0010541634446
0.00102985548745
0.00100613525916
0.000983024483584
0.000960545119792
0.000938718932815
0.000917566765061
0.000897107625389
0.000877357606066
0.000858328870108
0.000840028917137
0.000822460596232
0.000805623414439
0.000789517097062
0.00077414882094
0.000759546688246
0.000745784091408
0.00073302409536
0.000721602197862
0.000712185635277
0.000706089105736
0.00070590801189
0.000716754697652
0.00153559828647
0.00153703739054
0.00153988947695
0.00154410589035
0.00154961852998
0.00155634117968
0.0015641709352
0.00157298910668
0.0015826641639
0.00159305511812
0.00160401708329
0.00161540671839
0.00162708906239
0.00163894321695
0.00165086837642
0.00166278752387
0.00167465048734
0.00168643384137
0.00169813982426
0.00170979214225
0.0017214314069
0.00173310840692
0.00174487833014
0.00175679414585
0.00176890223764
0.0017812381365
0.00179382511047
0.00180667295673
0.00181977940278
0.00183313112345
0.00184670665095
0.00186047814154
0.00187441437019
0.0018884820764
0.00190264819747
0.00191688031358
0.00193114794127
0.00194542215265
0.0019596761518
0.00197388438665
0.00198802274276
0.00200206747674
0.00201599530567
0.00202978238406
0.00204340440451
0.00205683554822
0.00207007843156
0.00208308210633
0.00209579614409
0.00210817022976
0.00212015446943
0.0021316989069
0.00214275394675
0.00215327002701
0.00216319810001
0.002172489405
0.00218109597461
0.00218897047821
0.00219606673277
0.00220233959044
0.00220774543481
0.00221224208932
0.0022157892849
0.00221834857162
0.00221988374926
0.00222036076993
0.00221974812718
0.00221801674132
0.0022151403052
0.00221109514771
0.0022058605373
0.00219941852368
0.00219175420569
0.00218285556014
0.00217271369181
0.00216132267568
0.00214867982859
0.00213478561902
0.00211964403008
0.00210326261839
0.00208565305046
0.00206683137537
0.00204681875142
0.00202564186926
0.00200333369158
0.00197993372335
0.00195548835142
0.001930050503
0.00190367917541
0.00187643825912
0.0018483953213
0.00181962021275
0.00179019870334
0.00176026058108
0.00172988707314
0.00169915752537
0.00166814947896
0.00163693755079
0.00160559303812
0.00157418367758
0.00154277360978
0.00151142316135
0.00148018882917
0.00144912314118
0.00141827471919
0.00138768824367
0.00135740460556
0.00132746097245
0.00129789102318
0.00126872510717
0.00123999055521
0.00121171192656
0.00118391139271
0.00115660905671
0.00112982128628
0.00110356311749
0.00107784919289
0.0010526940747
0.00102811251482
0.00100411952014
0.000980730295084
0.000957959914521
0.000935822800062
0.000914331899886
0.000893497688764
0.000873326995658
0.000853821891083
0.000834978832018
0.000816788526465
0.000799237088662
0.000782309528684
0.000765997242767
0.000750312662469
0.000735317102123
0.000721174218335
0.000708255424888
0.00069735541572
0.000690148706343
0.00069017542462
0.000704913822061
0.00155451863095
0.00155621864113
0.0015595846951
0.00156455427608
0.00157104045962
0.00157893400081
0.00158810555748
0.00159840753233
0.00160967828557
0.00162174701335
0.00163444087685
0.00164759182497
0.00166104458721
0.00167466304126
0.00168833646373
0.00170198287802
0.00171555131001
0.00172902046995
0.00174239626535
0.00175570612568
0.00176899314361
0.00178230830901
0.00179570412536
0.0018092277775
0.00182291698811
0.00183679626023
0.00185087622824
0.00186515327312
0.00187961177577
0.0018942258602
0.00190896292216
0.00192378581165
0.00193865610844
0.0019535355622
0.00196838832426
0.00198318126098
0.00199788507567
0.00201247368279
0.0020269245443
0.0020412175085
0.0020553347614
0.00206925950691
0.00208297584332
0.00209646752903
0.00210971793813
0.00212270899747
0.00213544968239
0.00214791331593
0.00216005424186
0.00217182698864
0.00218318634618
0.00219408679389
0.00220448288585
0.00221432888986
0.00222357925356
0.00223218835108
0.00224011097459
0.00224730214872
0.0022537176235
0.00225931373006
0.00226404785785
0.00226787833078
0.00227076485824
0.00227266841835
0.00227355167972
0.00227337888552
0.00227211624832
0.00226973183433
0.00226619593755
0.00226148096809
0.0022555618156
0.00224841575097
0.00224002279439
0.00223036564776
0.00221943009151
0.00220720497728
0.00219368269083
0.00217885924911
0.00216273487748
0.00214531425789
0.00212660725283
0.00210662930678
0.00208540226453
0.00206295479967
0.00203932311075
0.00201455107788
0.00198869048564
0.001961800567
0.0019339474952
0.00190520320835
0.0018756442754
0.00184535035882
0.00181440306371
0.00178288036075
0.00175094061527
0.00171866839457
0.00168615106083
0.00165347163731
0.00162070809599
0.00158793370358
0.00155521701301
0.00152262169198
0.0014902065702
0.00145802555566
0.00142612776806
0.00139455757549
0.00136335482793
0.00133255500436
0.00130218953159
0.00127228602232
0.00124286866225
0.00121395852567
0.00118557402778
0.00115773131857
0.00113044286334
0.00110371827012
0.00107756660162
0.0010519966597
0.0010270172119
0.00100263699843
0.000978864605882
0.000955708066383
0.000933174259299
0.000911268019249
0.00088999106514
0.000869340752603
0.000849308869052
0.000829880654623
0.000811034496963
0.00079274287799
0.000774975675153
0.000757707676275
0.000740933971819
0.0007247005449
0.000709165717341
0.000694727283932
0.000682296472269
0.000673913502555
0.000674166986668
0.000693377676627
0.00157536789088
0.00157735985292
0.00158130074352
0.00158711194463
0.00159468455488
0.00160388245066
0.00161454542096
0.00162649216945
0.00163952611351
0.00165344199116
0.0016680348032
0.00168310823605
0.00169848389386
0.00171400837068
0.00172955966325
0.00174505004905
0.00176042740269
0.00177567251792
0.00179079511296
0.0018058266098
0.00182081296322
0.00183580586668
0.00185085579417
0.00186600497339
0.00188128347533
0.00189670594363
0.00191227166904
0.00192796496664
0.00194375822268
0.00195961430287
0.00197549065872
0.00199134189378
0.00200712331261
0.0020227924542
0.00203831133916
0.00205364666681
0.00206877079023
0.00208366086246
0.00209829895475
0.00211267063611
0.0021267647047
0.00214057164185
0.00215408333712
0.00216729176162
0.00218018901232
0.0021927666108
0.00220501637544
0.00221696179324
0.00222855927437
0.00223976688944
0.00225054337658
0.00226084708102
0.00227063615302
0.00227986810249
0.00228850023822
0.00229648938617
0.00230379237083
0.00231036580518
0.00231616657441
0.00232115166796
0.0023252786502
0.0023285055165
0.00233079114405
0.00233209516273
0.00233237838752
0.00233160270275
0.00232973148376
0.00232672949931
0.00232256333398
0.00231720131799
0.0023106139653
0.00230277394457
0.00229365655174
0.00228323974177
0.00227150465958
0.00225843575888
0.0022440214204
0.00222825418728
0.00221113149621
0.00219265604478
0.0021728366286
0.00215168859946
0.00212923471458
0.00210550552987
0.00208054003765
0.00205438572037
0.00202709868297
0.00199874310932
0.00196939072245
0.00193911961356
0.00190801314097
0.00187615833678
0.00184364445387
0.00181056083845
0.00177699674985
0.00174308642617
0.00170894907747
0.00167467662086
0.00164035343217
0.00160605924409
0.0015718682735
0.00153784894362
0.00150406396737
0.00147057029004
0.00143741927001
0.00140465675285
0.00137232334968
0.00134045462763
0.00130908147839
0.001278230405
0.00124792396012
0.00121818110937
0.00118901773356
0.00116044707982
0.00113247938764
0.00110511941458
0.00107837109222
0.00105223777405
0.00102672243443
0.00100182764031
0.000977555379521
0.000953906610037
0.000930880611991
0.00090847404913
0.000886679851941
0.000865485918762
0.000844873840113
0.000824817812722
0.000805284172009
0.000786232116209
0.000767616757067
0.000749396497088
0.000731548806585
0.000714102839004
0.000697207587481
0.000681278943471
0.000667331627144
0.00065776528772
0.000658286798339
0.000682471825235
0.00159792647612
0.00160024402084
0.00160482565541
0.00161157420732
0.00162035537569
0.00163100188653
0.00164331777749
0.00165708279438
0.0016720600136
0.00168800454619
0.00170467458584
0.00172184161185
0.00173930101315
0.00175687988253
0.00177444352499
0.00179189773463
0.00180918900738
0.00182630033977
0.00184324559605
0.00186006065175
0.00187679487209
0.00189350128198
0.00191022905281
0.00192701629736
0.0019438864065
0.00196084525555
0.0019778819831
0.00199497009097
0.00201207124779
0.00202913831909