/*--------------------------------*- C++ -*----------------------------------*\
| =========                 |                                                 |
| \\      /  F ield         | OpenFOAM: The Open Source CFD Toolbox           |
|  \\    /   O peration     | Version:  2206                                  |
|   \\  /    A nd           | Website:  www.openfoam.com                      |
|    \\/     M anipulation  |                                                 |
\*---------------------------------------------------------------------------*/
FoamFile
{
    version     2.0;
    format      ascii;
    arch        "LSB;label=64;scalar=64";
    class       volScalarField;
    location    "3.6/water";
    object      nut.gas;
}
// * * * * * * * * * * * * * * * * * * * * * * * * * * * * * * * * * * * * * //

dimensions      [0 2 -1 0 0 0 0];

internalField   nonuniform List<scalar> 
23300
(
0.000131583398819
0.000129237823181
0.000126068177446
0.000122117966824
0.0001175805703
0.00011261534358
0.000107350709214
0.000101896551282
9.63468070381e-05
9.0785986449e-05
8.52871218151e-05
7.99152329045e-05
7.47242306927e-05
6.97593500353e-05
6.50548362868e-05
6.06363040448e-05
5.65195987819e-05
5.27132992201e-05
4.92184290225e-05
4.60309064503e-05
4.314161971e-05
4.05385631337e-05
3.82069228818e-05
3.61307643015e-05
3.4292975528e-05
3.26765191892e-05
3.12642292918e-05
3.00397246414e-05
2.89871132597e-05
2.80916729263e-05
2.73395103851e-05
2.67180819653e-05
2.62158282557e-05
2.58225774697e-05
2.55291628548e-05
2.53277400601e-05
2.52113962417e-05
2.517441194e-05
2.52118756027e-05
2.53199193083e-05
2.54953539613e-05
2.57359068539e-05
2.60398989762e-05
2.64065271743e-05
2.6835643738e-05
2.73268522153e-05
2.78800464112e-05
2.8495994772e-05
2.91759059949e-05
2.99216354949e-05
3.07353806663e-05
3.16199461012e-05
3.25784644907e-05
3.3614684293e-05
3.47326967754e-05
3.59372399504e-05
3.72334230467e-05
3.86270447342e-05
4.0124306351e-05
4.17321416289e-05
4.34579064353e-05
4.53097136515e-05
4.72960805531e-05
4.94262557476e-05
5.17097945586e-05
5.41568537335e-05
5.67776491612e-05
5.95826769835e-05
6.25819850676e-05
6.57852544082e-05
6.9200784589e-05
7.2835335375e-05
7.66926862656e-05
8.07730960952e-05
8.50712519688e-05
8.95751574124e-05
9.42632247698e-05
9.91022791012e-05
0.000104043250227
0.000109017224027
0.00011392747658
0.00011863901312
0.000122958530399
0.000126604160227
0.00012916026089
0.000130062657905
0.000128957443736
0.000126256383919
0.00012246591246
0.000117967371125
0.000113035027868
0.000107868012527
0.000102611553576
9.7372656468e-05
9.22295571222e-05
8.72395631886e-05
8.24434895365e-05
7.7869886405e-05
7.35372033862e-05
6.94563342995e-05
6.56318281103e-05
6.20636402348e-05
5.87479159399e-05
5.56782715375e-05
5.28463157766e-05
5.02425819529e-05
4.78568523766e-05
4.56788218597e-05
4.36982808943e-05
4.19055896198e-05
4.02917820781e-05
3.88489382808e-05
3.75703002268e-05
3.64501990233e-05
3.54841346014e-05
3.46693046329e-05
3.40046510467e-05
3.34911104554e-05
3.31317253726e-05
3.29319203908e-05
3.28996333177e-05
3.30455497266e-05
3.33831336875e-05
3.39286396792e-05
3.47007774013e-05
3.5720149349e-05
3.70081134614e-05
3.85851706724e-05
4.04685964829e-05
4.26695500155e-05
4.51896655969e-05
4.80177481433e-05
5.11270779387e-05
5.44743145612e-05
5.80004308717e-05
6.16332314976e-05
6.52877022189e-05
6.885418297e-05
7.21523962575e-05
7.48136166033e-05
0.000113161823083
0.000112063222128
0.000110125990094
0.000107500708056
0.000104323370566
0.000100713869084
9.67774811505e-05
9.26075311419e-05
8.82872616762e-05
8.3891345765e-05
7.94862973592e-05
7.51308137623e-05
7.08755395542e-05
6.67631518746e-05
6.2828286368e-05
5.90979132669e-05
5.55917054025e-05
5.23227729622e-05
4.929836057e-05
4.65207507132e-05
4.39880491524e-05
4.1695041847e-05
3.96338837979e-05
3.77947892172e-05
3.61665529961e-05
3.47370585556e-05
3.3493647089e-05
3.24234827415e-05
3.1513811718e-05
3.07522250067e-05
3.01268343372e-05
2.96264500111e-05
2.92406808157e-05
2.89600320635e-05
2.87759343846e-05
2.86807727515e-05
2.86678596306e-05
2.87314165941e-05
2.88665158035e-05
2.90690399347e-05
2.93356159889e-05
2.96635754636e-05
3.00508973352e-05
3.04961774252e-05
3.09985709567e-05
3.15571242759e-05
3.21711730828e-05
3.28406283186e-05
3.35658862317e-05
3.43477809411e-05
3.51875360139e-05
3.60867494346e-05
3.70473682431e-05
3.80716892437e-05
3.91623439448e-05
4.0322305878e-05
4.15548784114e-05
4.2863702449e-05
4.42527405202e-05
4.57262779903e-05
4.72888948271e-05
4.89454504173e-05
5.0701030134e-05
5.25608985061e-05
5.45304009206e-05
5.66148618457e-05
5.88194122942e-05
6.11487986059e-05
6.36070931127e-05
6.61973639429e-05
6.89212089512e-05
7.17782175445e-05
7.47652466759e-05
7.78755843493e-05
8.10978678199e-05
8.44148460056e-05
8.78018348818e-05
9.12249686901e-05
9.4639044805e-05
9.79850041134e-05
0.000101186674037
0.000104146709591
0.000106741663533
0.000108818196529
0.00011019698895
0.000110701955114
0.000110240895276
0.00010887993709
0.000106769448264
0.000104076548855
0.000100955414237
9.75374387828e-05
9.39301290591e-05
9.0219620118e-05
8.64741376081e-05
8.2747409186e-05
7.90814599367e-05
7.55088623199e-05
7.20544306763e-05
6.87365975276e-05
6.55684972553e-05
6.25589141489e-05
5.9713072219e-05
5.70333525331e-05
5.45198994884e-05
5.2171169971e-05
4.99843933555e-05
4.79559834539e-05
4.60818812989e-05
4.43578628739e-05
4.27797993424e-05
4.13438985925e-05
4.00469191055e-05
3.88862150383e-05
3.78597884087e-05
3.69666469592e-05
3.62069453223e-05
3.55821173669e-05
3.5094988825e-05
3.47498679338e-05
3.4552587256e-05
3.45104750778e-05
3.46322103089e-05
3.49275179964e-05
3.5406641763e-05
3.60795409876e-05
3.69547594019e-05
3.80379554445e-05
3.93301316649e-05
4.08257058154e-05
4.25106840578e-05
4.43613704796e-05
4.63442208976e-05
4.84176560468e-05
5.05368396129e-05
5.26626723152e-05
5.47767873341e-05
5.69066662454e-05
5.91750664476e-05
6.19128724568e-05
9.98330142515e-05
9.92042309824e-05
9.79576877524e-05
9.61678648551e-05
9.39128223516e-05
9.12700140861e-05
8.83143119091e-05
8.51170594687e-05
8.17455192784e-05
7.82624270515e-05
7.47254987963e-05
7.1186947939e-05
6.76930462764e-05
6.42838340865e-05
6.09930035031e-05
5.78479928042e-05
5.48702625547e-05
5.20757292191e-05
4.94753014496e-05
4.70754747023e-05
4.48789384352e-05
4.28851629471e-05
4.10909457099e-05
3.9490904706e-05
3.80779216413e-05
3.68435355617e-05
3.57782999106e-05
3.48721037163e-05
3.41144681192e-05
3.34948114873e-05
3.3002689222e-05
3.26279958093e-05
3.23611346958e-05
3.2193144067e-05
3.21157886942e-05
3.21216099e-05
3.22039489684e-05
3.23569388607e-05
3.25754818359e-05
3.28552076824e-05
3.3192429212e-05
3.35840870524e-05
3.40276966311e-05
3.4521284003e-05
3.50633183047e-05
3.56527042251e-05
3.62884230192e-05
3.69698879664e-05
3.76969064439e-05
3.8469636964e-05
3.92885570605e-05
4.01544329051e-05
4.10682994838e-05
4.2031440347e-05
4.30453746609e-05
4.41118411355e-05
4.52327861044e-05
4.64103458773e-05
4.76468298957e-05
4.89446950319e-05
5.03065164592e-05
5.17349453248e-05
5.32326571892e-05
5.48022810346e-05
5.64463109794e-05
5.81669898123e-05
5.99661643388e-05
6.18451008261e-05
6.380425818e-05
6.58430063841e-05
6.79592855395e-05
7.01491929786e-05
7.24064927497e-05
7.47220379458e-05
7.70831043267e-05
7.94726376851e-05
8.18684300658e-05
8.42422550898e-05
8.65590096644e-05
8.87759333575e-05
9.08420015384e-05
9.26976615776e-05
9.42752542951e-05
9.55009076375e-05
9.62995314583e-05
9.66059871564e-05
9.63838506982e-05
9.56409935169e-05
9.44223003808e-05
9.27930943386e-05
9.0825828983e-05
8.85914838595e-05
8.61550565958e-05
8.35738364303e-05
8.08972397542e-05
7.81673568493e-05
7.54197170184e-05
7.2684050396e-05
6.99849745962e-05
6.73426051574e-05
6.47731073739e-05
6.22892054999e-05
5.99006590341e-05
5.76147079562e-05
5.54364878781e-05
5.33694121989e-05
5.14155222041e-05
4.95758034992e-05
4.78504721656e-05
4.62392308847e-05
4.4741499586e-05
4.33566208143e-05
4.20840443647e-05
4.0923533226e-05
3.98751769771e-05
3.89395789702e-05
3.81179722599e-05
3.74123047647e-05
3.68252884397e-05
3.63603985691e-05
3.60218057374e-05
3.58142145095e-05
3.57425798235e-05
3.58116670986e-05
3.60254255886e-05
3.63861523856e-05
3.68934470989e-05
3.75429924741e-05
3.83252518521e-05
3.92242462781e-05
4.02166633292e-05
4.12716482945e-05
4.23517349387e-05
4.341548511e-05
4.44225131513e-05
4.53415748615e-05
4.61619649147e-05
4.69072526196e-05
4.76561722667e-05
4.84479335035e-05
9.1247549074e-05
9.07649654113e-05
8.98156552072e-05
8.84362908691e-05
8.66745375238e-05
8.45837439487e-05
8.22195654197e-05
7.96377531535e-05
7.68926323557e-05
7.40359815773e-05
7.11161741221e-05
6.81775147223e-05
6.52597624004e-05
6.23978312713e-05
5.96216748291e-05
5.69563310786e-05
5.44221133115e-05
5.20349023432e-05
4.98065144183e-05
4.7745098141e-05
4.58555439498e-05
4.41398735837e-05
4.25976121599e-05
4.12261272029e-05
4.00209522337e-05
3.89760872935e-05
3.80842973004e-05
3.73373971376e-05
3.67265383952e-05
3.62424782489e-05
3.5875839057e-05
3.56173347298e-05
3.54579724303e-05
3.53892082807e-05
3.54030711029e-05
3.54922387815e-05
3.5650087075e-05
3.58706997704e-05
3.61488625555e-05
3.64800304047e-05
3.68602899384e-05
3.72863048979e-05
3.77552632349e-05
3.82648116097e-05
3.88129939384e-05
3.93987432043e-05
4.00208926282e-05
4.06786115818e-05
4.13713817468e-05
4.20989632627e-05
4.2861368824e-05
4.36588343413e-05
4.44917989342e-05
4.53608815403e-05
4.62668651315e-05
4.72106761694e-05
4.81933692778e-05
4.92161053729e-05
5.02801322745e-05
5.13867565405e-05
5.2537314498e-05
5.37331315091e-05
5.4975476268e-05
5.62654992406e-05
5.76041607638e-05
5.89921378117e-05
6.04297136401e-05
6.19166391469e-05
6.34519689617e-05
6.50338610602e-05
6.6659342119e-05
6.83240280486e-05
7.002180257e-05
7.17444465667e-05
7.34812265192e-05
7.52184459277e-05
7.69389854629e-05
7.86218633551e-05
8.02418792641e-05
8.17694222044e-05
8.3170563688e-05
8.4407586007e-05
8.54401533768e-05
8.62273928187e-05
8.67312160579e-05
8.69211017512e-05
8.6779700372e-05
8.63067774887e-05
8.55190115152e-05
8.44451216887e-05
8.31206915206e-05
8.1583933034e-05
7.98727446804e-05
7.80229776578e-05
7.60675800377e-05
7.40362741632e-05
7.19555208408e-05
6.98486197949e-05
6.77358755325e-05
6.5634793603e-05
6.35602972582e-05
6.1524955234e-05
5.95392188276e-05
5.76116605867e-05
5.57492129315e-05
5.39573997621e-05
5.22405606458e-05
5.06020624605e-05
4.90444996287e-05
4.75698791898e-05
4.61797921987e-05
4.48755673176e-05
4.36584064802e-05
4.25296668163e-05
4.14908700789e-05
4.05437250892e-05
3.96901984425e-05
3.89325488711e-05
3.8273316921e-05
3.77152544831e-05
3.7261178708e-05
3.69137288469e-05
3.66750061121e-05
3.65460756578e-05
3.65263190165e-05
3.66126370055e-05
3.67985284598e-05
3.70731020861e-05
3.74201244772e-05
3.78172573006e-05
3.82356913973e-05
3.86404324211e-05
3.89915299792e-05
3.92465622628e-05
3.93646790833e-05
3.93123624764e-05
3.90703874037e-05
3.86398644173e-05
3.80604232343e-05
3.73130874861e-05
8.46369341632e-05
8.42552149153e-05
8.35039600719e-05
8.24068296275e-05
8.09961808201e-05
7.93103651493e-05
7.73913170672e-05
7.528256969e-05
7.30276718049e-05
7.06689363734e-05
6.82464782548e-05
6.5797493605e-05
6.33557644741e-05
6.0951353967e-05
5.86104781589e-05
5.63555138354e-05
5.42051213594e-05
5.217443623e-05
5.02753105568e-05
4.85165650151e-05
4.69042466165e-05
4.5441868624e-05
4.41306454413e-05
4.29697122499e-05
4.19563522838e-05
4.10862243339e-05
4.03536116366e-05
3.975167729e-05
3.92727385963e-05
3.89085357769e-05
3.8650500926e-05
3.84899989824e-05
3.84185476375e-05
3.8427991887e-05
3.85106466689e-05
3.86593902394e-05
3.88677282159e-05
3.91298159739e-05
3.94404623398e-05
3.97951037629e-05
4.01897713996e-05
4.06210393531e-05
4.1085974324e-05
4.15820739609e-05
4.21072137038e-05
4.26604010455e-05
4.32404882982e-05
4.38465900864e-05
4.44780641725e-05
4.51344828505e-05
4.5815611521e-05
4.65213823555e-05
4.72518760445e-05
4.80072991464e-05
4.87879685044e-05
4.95942906806e-05
5.04267467561e-05
5.12858710547e-05
5.21722331573e-05
5.30864123585e-05
5.40289729918e-05
5.50004302657e-05
5.60012140875e-05
5.70316208805e-05
5.80917599234e-05
5.91814844877e-05
6.03003134291e-05
6.14473337924e-05
6.26210894283e-05
6.38194466786e-05
6.50394419731e-05
6.62771035988e-05
6.75272536538e-05
6.87832857684e-05
7.00369293447e-05
7.12780046884e-05
7.24941924767e-05
7.36708410811e-05
7.47908597055e-05
7.58347506198e-05
7.67808579656e-05
7.76059096537e-05
7.82859351339e-05
7.87976101957e-05
7.91200309054e-05
7.92367850336e-05
7.91379521263e-05
7.88213673421e-05
7.82928223325e-05
7.7564964234e-05
7.66550243928e-05
7.55830001183e-05
7.43701465791e-05
7.30378715476e-05
7.16069985054e-05
7.00973038607e-05
6.85272436608e-05
6.69138019006e-05
6.52724223436e-05
6.36169958837e-05
6.19598913011e-05
6.03120160208e-05
5.8682902131e-05
5.70808083169e-05
5.55128353382e-05
5.39850476877e-05
5.25026005547e-05
5.10698662096e-05
4.96905598662e-05
4.8367859905e-05
4.71045223483e-05
4.59029836227e-05
4.47654496193e-05
4.36941865393e-05
4.269155165e-05
4.17598806659e-05
4.0901511517e-05
4.01187705077e-05
3.94139113397e-05
3.87889915885e-05
3.82456733569e-05
3.77849311537e-05
3.74066543004e-05
3.71091328439e-05
3.68884277071e-05
3.67376387782e-05
3.66461092905e-05
3.65986325239e-05
3.6574763892e-05
3.65483772075e-05
3.64876391098e-05
3.63555983219e-05
3.61115975654e-05
3.57137154605e-05
3.5122450547e-05
3.43058518965e-05
3.32460590411e-05
3.1946028075e-05
3.04384229158e-05
2.87340313142e-05
7.94824494852e-05
7.91742318467e-05
7.85668238989e-05
7.76773386416e-05
7.65295451081e-05
7.51523477932e-05
7.35781638067e-05
7.18413900196e-05
6.99770557264e-05
6.80196896502e-05
6.60024235612e-05
6.39563146784e-05
6.19098808697e-05
5.98888117559e-05
5.79158374309e-05
5.60107083034e-05
5.41902643342e-05
5.24685481659e-05
5.08569488295e-05
4.93643429457e-05
4.79972373018e-05
4.67598964236e-05
4.5654475166e-05
4.46811504807e-05
4.38382784103e-05
4.31225690038e-05
4.2529299504e-05
4.20525480362e-05
4.16854575502e-05
4.14205019515e-05
4.12497579847e-05
4.11651521241e-05
4.11586882231e-05
4.12226302191e-05
4.13496529714e-05
4.153294311e-05
4.17662698016e-05
4.20440126915e-05
4.2361170118e-05
4.27133366532e-05
4.30966727368e-05
4.3507854849e-05
4.39440270585e-05
4.44027419137e-05
4.48819115369e-05
4.5380604111e-05
4.58978269046e-05
4.64327844872e-05
4.69848628881e-05
4.75536056865e-05
4.81386968619e-05
4.87399381887e-05
4.93572340372e-05
4.9990571392e-05
5.06400065825e-05
5.1305647067e-05
5.19876386903e-05
5.26861473877e-05
5.34013448084e-05
5.41333874736e-05
5.48823980889e-05
5.56484392178e-05
5.64314871441e-05
5.72313966373e-05
5.80478637187e-05
5.8880377595e-05
5.97281682397e-05
6.05901412797e-05
6.14648062867e-05
6.23501908363e-05
6.32437465272e-05
6.4142240614e-05
6.50416405589e-05
6.59369878859e-05
6.68222719963e-05
6.76903061829e-05
6.85326240493e-05
6.93394093483e-05
7.00994898195e-05
7.08004215949e-05
7.14287049515e-05
7.1970160555e-05
7.24104937829e-05
7.27360410802e-05
7.29346619076e-05
7.29966769561e-05
7.29157013032e-05
7.26891746706e-05
7.23184370175e-05
7.18086018684e-05
7.11677893367e-05
7.04061944319e-05
6.95353802035e-05
6.85676724357e-05
6.75156815571e-05
6.63919408567e-05
6.52086431454e-05
6.39774510996e-05
6.2709367461e-05
6.14146494091e-05
6.0102761176e-05
5.87823547259e-05
5.74612759041e-05
5.61465882665e-05
5.48446135179e-05
5.35609821394e-05
5.23006939683e-05
5.1068183144e-05
4.98673874837e-05
4.87018169541e-05
4.75746206824e-05
4.6488645874e-05
4.54464858526e-05
4.44507306847e-05
4.35040549679e-05
4.26089880972e-05
4.17678961617e-05
4.09829267905e-05
4.02559076411e-05
3.95881841337e-05
3.89803855546e-05
3.84321065922e-05
3.79414973036e-05
3.7504757728e-05
3.71155462057e-05
3.67643235551e-05
3.64376785808e-05
3.61177047567e-05
3.57815296744e-05
3.54011277747e-05
3.49435752929e-05
3.43719244373e-05
3.36468853755e-05
3.27295128642e-05
3.158512623e-05
3.01887677104e-05
2.85325097752e-05
2.66341004796e-05
2.45448981586e-05
2.2322267524e-05
7.54425545765e-05
7.51900287128e-05
7.46919390638e-05
7.39614411914e-05
7.3016918918e-05
7.1880992729e-05
7.05793643222e-05
6.91396411308e-05
6.75902456269e-05
6.59594629824e-05
6.42746728496e-05
6.25617620798e-05
6.08447214639e-05
5.91453917131e-05
5.74833419147e-05
5.58758339091e-05
5.43378530641e-05
5.28821627518e-05
5.15193746174e-05
5.02580071362e-05
4.91045431774e-05
4.80634757749e-05
4.71373673955e-05
4.63269197657e-05
4.56310821492e-05
4.50471902101e-05
4.45711546228e-05
4.41976790185e-05
4.39205147975e-05
4.3732722147e-05
4.3626939337e-05
4.35956281065e-05
4.36313004883e-05
4.37267008673e-05
4.38749564662e-05
4.4069677961e-05
4.43050302748e-05
4.45757606748e-05
4.48772073256e-05
4.52052772809e-05
4.55564166973e-05
4.59275616996e-05
4.63160905421e-05
4.67197643928e-05
4.71366749284e-05
4.75658874754e-05
4.80066909348e-05
4.84584845684e-05
4.89207886756e-05
4.93932298587e-05
4.98755286641e-05
5.03674808609e-05
5.08689457938e-05
5.1379829957e-05
5.19000771346e-05
5.24296537189e-05
5.29685395629e-05
5.35167136803e-05
5.40741442787e-05
5.46407731137e-05
5.52165028751e-05
5.58011782264e-05
5.63945685213e-05
5.69963433928e-05
5.76060486362e-05
5.82230741107e-05
5.88466205996e-05
5.947565791e-05
6.01088808794e-05
6.07446562863e-05
6.13809674338e-05
6.20153505217e-05
6.26448303604e-05
6.32658515079e-05
6.38742144036e-05
6.4465016073e-05
6.50326088664e-05
6.55705821569e-05
6.60717856995e-05
6.65284046988e-05
6.69321073534e-05
6.72742723091e-05
6.75463054562e-05
6.77400321173e-05
6.78481415857e-05
6.78646318747e-05
6.77851971499e-05
6.76074915682e-05
6.73312305938e-05
6.69580708288e-05
6.64915475967e-05
6.59366680392e-05
6.52995075255e-05
6.45869042404e-05
6.3806186851e-05
6.29649419483e-05
6.2070827546e-05
6.11314235638e-05
6.01541165968e-05
5.91460106869e-05
5.81138634962e-05
5.7064041405e-05
5.60024938079e-05
5.49347409569e-05
5.38658760047e-05
5.28005761048e-05
5.17431233125e-05
5.06974303839e-05
4.96670720125e-05
4.86553164781e-05
4.76651573014e-05
4.66993382341e-05
4.57603684453e-05
4.48506931406e-05
4.39728890549e-05
4.31293208258e-05
4.23220894267e-05
4.15529444671e-05
4.0823152388e-05
4.0133307793e-05
3.94830794525e-05
3.88708815443e-05
3.82934676849e-05
3.77454493937e-05
3.72187538912e-05
3.67020489703e-05
3.61801848186e-05
3.56337249405e-05
3.50386673984e-05
3.43664841847e-05
3.35846345259e-05
3.26577293155e-05
3.15495435901e-05
3.02260936794e-05
2.86600379414e-05
2.68367512351e-05
2.47625148595e-05
2.24747421614e-05
2.00513387031e-05
1.75946780034e-05
7.22640282882e-05
7.20550773748e-05
7.16427520459e-05
7.10375743394e-05
7.02542713676e-05
6.93110549612e-05
6.82287420855e-05
6.70298260587e-05
6.57375937705e-05
6.43753417356e-05
6.29657416331e-05
6.15303551108e-05
6.00893039121e-05
5.86610620469e-05
5.72623552101e-05
5.59081222402e-05
5.46115223787e-05
5.33839489886e-05
5.22350470773e-05
5.11727120496e-05
5.02030861346e-05
4.93305460151e-05
4.85577108667e-05
4.78854696313e-05
4.73130563247e-05
4.68381644647e-05
4.6457118427e-05
4.61650789738e-05
4.59562887637e-05
4.58243253671e-05
4.57623631075e-05
4.57634109198e-05
4.5820531781e-05
4.59270175982e-05
4.60765332099e-05
4.6263211357e-05
4.64817189091e-05
4.67272814614e-05
4.69956894491e-05
4.72832747057e-05
4.75868802162e-05
4.79038117134e-05
4.82317923202e-05
4.85689095237e-05
4.89135776292e-05
4.92645405671e-05
4.96217038425e-05
4.99846753722e-05
5.03531640364e-05
5.07269494074e-05
5.11058663555e-05
5.14897878423e-05
5.18786163361e-05
5.22722711323e-05
5.26706823384e-05
5.30737801795e-05
5.34814898172e-05
5.38937212358e-05
5.43103636494e-05
5.47312747021e-05
5.51562732042e-05
5.55851263247e-05
5.60175393648e-05
5.6453139624e-05
5.68914619578e-05
5.73319280843e-05
5.77738268253e-05
5.82162878877e-05
5.86582561212e-05
5.90984595017e-05
5.95353777912e-05
5.99672059989e-05
6.0391820027e-05
6.08067399446e-05
6.12090993266e-05
6.15956180739e-05
6.19625889304e-05
6.23058776087e-05
6.26209486189e-05
6.2902918375e-05
6.31466472717e-05
6.33468696943e-05
6.349836683e-05
6.35961705904e-05
6.36357887767e-05
6.36134246448e-05
6.35261697253e-05
6.33721431402e-05
6.3150569494e-05
6.28617898387e-05
6.25071092079e-05
6.20887848005e-05
6.16098699104e-05
6.10740020967e-05
6.04852621537e-05
5.98480368427e-05
5.91669021645e-05
5.84465251641e-05
5.76915837181e-05
5.6906698951e-05
5.60963822955e-05
5.52649927338e-05
5.44167063213e-05
5.35554938359e-05
5.26851085001e-05
5.18090796456e-05
5.09307138935e-05
5.00530995874e-05
4.91791155478e-05
4.83114395879e-05
4.74525568576e-05
4.66047618327e-05
4.57701507852e-05
4.49506763705e-05
4.41485066409e-05
4.33655657729e-05
4.26034590389e-05
4.18633609764e-05
4.11458624895e-05
4.04507661887e-05
3.97768236299e-05
3.91214079415e-05
3.84801230708e-05
3.78463554671e-05
3.72107873684e-05
3.65609032826e-05
3.58805424142e-05
3.51495706432e-05
3.43437732762e-05
3.34350957046e-05
3.23923883279e-05
3.11828378938e-05
2.9774295046e-05
2.8138736696e-05
2.62571474221e-05
2.41261866922e-05
2.17671144387e-05
1.92371266077e-05
1.66403676558e-05
1.41183099499e-05
6.9754923175e-05
6.9580981225e-05
6.92376903205e-05
6.87337017165e-05
6.80811108076e-05
6.7294890654e-05
6.63921829265e-05
6.53915360934e-05
6.43121781241e-05
6.31733718917e-05
6.19939006451e-05
6.0791680595e-05
5.95835062518e-05
5.83848940051e-05
5.72100102853e-05
5.6071640223e-05
5.49811836851e-05
5.3948642697e-05
5.29826024782e-05
5.20901879222e-05
5.12770168509e-05
5.05471469587e-05
4.99030485665e-05
4.93456029171e-05
4.88741550734e-05
4.84866111703e-05
4.8179596497e-05
4.79486496806e-05
4.77884575948e-05
4.7693097385e-05
4.76562868049e-05
4.76716100306e-05
4.77327251253e-05
4.78335274827e-05
4.79682835268e-05
4.81317168129e-05
4.83190670537e-05
4.8526109169e-05
4.87491553997e-05
4.89850292395e-05
4.92310336335e-05
4.94849017712e-05
4.97447508325e-05
5.00090262277e-05
5.02764545538e-05
5.05459908694e-05
5.08175750107e-05
5.10911499184e-05
5.1366685073e-05
5.16441688487e-05
5.19236025846e-05
5.22049889611e-05
5.24883279267e-05
5.27736083962e-05
5.30608064344e-05
5.33498787113e-05
5.36407612921e-05
5.39333635046e-05
5.42275663065e-05
5.45232156421e-05
5.48201195494e-05
5.51180401487e-05
5.54166886974e-05
5.57157154249e-05
5.60147018517e-05
5.63131478405e-05
5.66104606989e-05
5.69059390975e-05
5.71987588655e-05
5.74879539757e-05
5.77723997021e-05
5.80507919267e-05
5.83216297383e-05
5.85831961685e-05
5.88335446656e-05
5.90704872632e-05
5.92915927416e-05
5.94941919044e-05
5.96753987614e-05
5.98321452052e-05
5.99612371209e-05
6.00594278319e-05
6.01235130882e-05
6.01504385441e-05
6.01374173116e-05
6.00820423471e-05
5.99823867342e-05
5.98370774575e-05
5.96453433771e-05
5.94070359624e-05
5.9122632363e-05
5.87930696621e-05
5.84197106946e-05
5.80044013634e-05
5.75493212167e-05
5.70568963915e-05
5.65297299039e-05
5.59705427995e-05
5.53821243729e-05
5.47672878335e-05
5.41288348731e-05
5.34695249563e-05
5.27920518792e-05
5.20990240222e-05
5.13929509336e-05
5.06762326931e-05
4.99511541538e-05
4.92198802125e-05
4.8484453546e-05
4.77467906541e-05
4.7008676939e-05
4.62717560434e-05
4.55375127565e-05
4.48071900312e-05
4.40823202584e-05
4.3364191567e-05
4.26537495887e-05
4.19514661295e-05
4.12571725953e-05
4.05698480209e-05
3.9887356512e-05
3.92061298412e-05
3.85207993796e-05
3.78237864285e-05
3.71048732318e-05
3.63507888407e-05
3.55448642017e-05
3.46668304665e-05
3.36928609433e-05
3.25959824757e-05
3.13470121765e-05
2.99162046261e-05
2.82758288771e-05
2.64039326774e-05
2.42896051887e-05
2.19401334638e-05
1.93905610789e-05
1.67159600191e-05
1.40440571438e-05
1.15497826102e-05
6.77664732087e-05
6.76213402136e-05
6.73349315623e-05
6.69144978339e-05
6.63701457448e-05
6.57143653878e-05
6.49614304567e-05
6.41267511193e-05
6.32262627977e-05
6.22758933659e-05
6.12911520744e-05
6.02868318953e-05
5.92768273834e-05
5.82740313206e-05
5.72902962169e-05
5.63364171099e-05
5.5422125325e-05
5.45560602478e-05
5.37457258607e-05
5.29974177592e-05
5.23161461667e-05
5.17055544768e-05
5.11678675743e-05
5.07038699414e-05
5.03129424782e-05
4.99931463587e-05
4.97413692628e-05
4.95535077065e-05
4.94246894515e-05
4.93495018247e-05
4.93222275008e-05
4.93370552764e-05
4.93882728611e-05
4.94704165893e-05
4.95783929864e-05
4.97075546088e-05
4.98537508619e-05
5.00133408194e-05
5.01831909083e-05
5.03606459846e-05
5.05434959272e-05
5.07299258142e-05
5.09184695512e-05
5.11079540602e-05
5.12974518423e-05
5.14862296751e-05
5.16741183714e-05
5.18613972097e-05
5.20483165695e-05
5.2235098396e-05
5.24219366656e-05
5.26089907463e-05
5.27963858297e-05
5.29842091205e-05
5.31725123159e-05
5.33613091945e-05
5.35505782278e-05
5.37402601036e-05
5.39302595576e-05
5.41204421825e-05
5.4310634992e-05
5.45006220327e-05
5.46901432691e-05
5.48788885968e-05
5.50664947507e-05
5.52525374752e-05
5.54365263526e-05
5.56178951287e-05
5.57959946616e-05
5.59700817988e-05
5.6139311156e-05
5.63027236117e-05
5.64592384743e-05
5.66076437239e-05
5.67465914074e-05
5.68745932443e-05
5.69900237039e-05
5.70911261885e-05
5.71760295541e-05
5.72427707085e-05
5.72893297373e-05
5.73136723422e-05
5.73138039722e-05
5.7287828157e-05
5.72340103323e-05
5.71508371186e-05
5.70370702418e-05
5.68917853406e-05
5.67143978636e-05
5.65046737981e-05
5.62627356021e-05
5.59890622765e-05
5.56843699067e-05
5.53493842999e-05
5.49852425852e-05
5.45932453481e-05
5.41748070806e-05
5.37314327168e-05
5.32646865918e-05
5.27761613165e-05
5.22674559483e-05
5.17401571751e-05
5.11958253032e-05
5.06359812196e-05
5.00620970982e-05
4.94755875369e-05
4.88778034936e-05
4.82700253691e-05
4.76534568429e-05
4.70292154265e-05
4.63983205267e-05
4.57616739911e-05
4.51200309234e-05
4.4473950538e-05
4.38240529015e-05
4.31708954704e-05
4.25146713813e-05
4.18550730676e-05
4.11911223131e-05
4.05209591811e-05
3.9841586796e-05
3.9148570044e-05
3.84356948674e-05
3.76945997138e-05
3.69144035756e-05
3.60813662858e-05
3.51786358822e-05
3.41861561903e-05
3.30808328968e-05
3.1837080905e-05
3.04279062443e-05
2.88267075817e-05
2.70100229832e-05
2.49614976069e-05
2.26774205546e-05
2.0174287429e-05
1.74989903304e-05
1.47421235473e-05
1.20523561801e-05
9.63393255854e-06
6.61804138e-05
6.60595590942e-05
6.58211295227e-05
6.54712752698e-05
6.5018529575e-05
6.44733949071e-05
6.38478166339e-05
6.3154617006e-05
6.24069720425e-05
6.16179708191e-05
6.08002945354e-05
5.99660007075e-05
5.91264104585e-05
5.82920581548e-05
5.74726886253e-05
5.66772584817e-05
5.5913933562e-05
5.519005239e-05
5.45120665195e-05
5.3885446914e-05
5.33145854535e-05
5.28026930748e-05
5.23517303379e-05
5.19623702894e-05
5.16340222332e-05
5.13649033895e-05
5.11521729496e-05
5.09921011513e-05
5.0880277202e-05
5.08118217602e-05
5.07816062162e-05
5.07844468598e-05
5.0815281889e-05
5.08693067202e-05
5.09420831215e-05
5.10296047688e-05
5.11283400179e-05
5.12352387645e-05
5.13477260289e-05
5.14636705396e-05
5.15813501514e-05
5.16994020145e-05
5.18167771626e-05
5.19326866284e-05
5.20465566245e-05
5.21579795426e-05
5.22667052229e-05
5.23732282357e-05
5.24780882371e-05
5.25817490901e-05
5.26846058446e-05
5.27869828577e-05
5.28891387249e-05
5.29912670002e-05
5.30935029905e-05
5.31959254154e-05
5.32985626902e-05
5.34013938253e-05
5.35043533201e-05
5.36073308709e-05
5.37101746992e-05
5.38126899244e-05
5.39146402458e-05
5.40157448922e-05
5.41156786607e-05
5.42140674795e-05
5.43104869552e-05
5.44044567711e-05
5.44954381115e-05
5.45828273827e-05
5.46659532009e-05
5.47440703242e-05
5.48163573762e-05
5.48819124572e-05
5.49397534367e-05
5.49888174389e-05
5.50279662581e-05
5.50559925371e-05
5.50716332225e-05
5.50735851532e-05
5.50605286474e-05
5.50311534214e-05
5.4984191462e-05
5.49184501308e-05
5.48328485596e-05
5.47264496417e-05
5.45984897171e-05
5.44483985138e-05
5.42758124688e-05
5.40805770032e-05
5.38627448123e-05
5.36225685878e-05
5.33604914162e-05
5.30771567575e-05
5.27728729758e-05
5.24483752318e-05
5.21044029806e-05
5.17417537397e-05
5.13612615748e-05
5.0963763099e-05
5.05500820028e-05
5.01210171823e-05
4.96773353925e-05
4.92197639929e-05
4.87489861578e-05
4.82656351699e-05
4.77702902573e-05
4.7263470412e-05
4.67456278684e-05
4.62171372873e-05
4.56782815661e-05
4.51292295007e-05
4.45700036684e-05
4.4000430394e-05
4.34201731278e-05
4.28290064324e-05
4.22263262665e-05
4.16110118895e-05
4.09812576042e-05
4.03343678661e-05
3.96665142861e-05
3.89724544006e-05
3.82452207752e-05
3.74757937713e-05
3.66527837322e-05
3.57621587929e-05
3.47870725306e-05
3.37078626393e-05
3.25023155185e-05
3.11463151867e-05
2.9615025519e-05
2.78847891314e-05
2.59359740033e-05
2.37570644547e-05
2.13503945052e-05
1.87400769058e-05
1.59828908484e-05
1.31828495591e-05
1.05075716591e-05
8.18776823729e-06
6.49000924262e-05
6.4800225218e-05
6.46032953534e-05
6.43145457248e-05
6.39412040615e-05
6.34921081449e-05
6.29772300371e-05
6.2407169973e-05
6.17927041304e-05
6.11444223295e-05
6.0472488366e-05
5.97865011573e-05
5.90954487944e-05
5.84077108644e-05
5.7731092646e-05
5.70728474904e-05
5.64396816477e-05
5.58377140144e-05
5.52724055382e-05
5.47484504306e-05
5.42696613802e-05
5.38388517486e-05
5.34577516967e-05
5.31269577484e-05
5.28459440987e-05
5.26131215058e-05
5.2425957814e-05
5.22811320463e-05
5.2174726146e-05
5.21024202433e-05
5.20596945641e-05
5.20420066532e-05
5.20449527576e-05
5.20643892601e-05
5.20965301475e-05
5.21380031522e-05
5.21858853641e-05
5.2237704938e-05
5.22914312797e-05
5.23454416763e-05
5.2398485897e-05
5.24496364226e-05
5.2498243613e-05
5.2543882621e-05
5.25863093204e-05
5.26254131294e-05
5.26611862988e-05
5.26939116627e-05
5.27244581693e-05
5.27535426334e-05
5.27817612865e-05
5.28095998374e-05
5.28374452188e-05
5.2865591428e-05
5.28942507669e-05
5.29235595858e-05
5.29535881973e-05
5.29843450188e-05
5.30157843051e-05
5.30478084183e-05
5.30802734867e-05
5.31129899883e-05
5.31457265792e-05
5.31782092009e-05
5.32101233454e-05
5.32411119564e-05
5.32707764861e-05
5.32986739784e-05
5.33243174011e-05
5.33471724546e-05
5.33666578427e-05
5.33821425683e-05
5.33929470551e-05
5.33983419809e-05
5.33975514739e-05
5.33897548489e-05
5.33740933668e-05
5.33496764012e-05
5.33155932059e-05
5.32709246815e-05
5.32147607926e-05
5.31462177557e-05
5.30644598138e-05
5.29687192306e-05
5.28583184331e-05
5.27326876441e-05
5.2591381513e-05