/*--------------------------------*- C++ -*----------------------------------*\
| =========                 |                                                 |
| \\      /  F ield         | OpenFOAM: The Open Source CFD Toolbox           |
|  \\    /   O peration     | Version:  2212                                  |
|   \\  /    A nd           | Website:  www.openfoam.com                      |
|    \\/     M anipulation  |                                                 |
\*---------------------------------------------------------------------------*/
FoamFile
{
    version     2.0;
    format      ascii;
    arch        "LSB;label=64;scalar=64";
    class       volScalarField;
    location    "340";
    object      Gh2;
}
// * * * * * * * * * * * * * * * * * * * * * * * * * * * * * * * * * * * * * //

dimensions      [1 -3 0 0 0 0 0];

internalField   nonuniform List<scalar> 
1024
(
1.21879e-05
1.21876e-05
1.21869e-05
1.21857e-05
1.21839e-05
1.21816e-05
1.21789e-05
1.2176e-05
1.21731e-05
1.21702e-05
1.21674e-05
1.21647e-05
1.21625e-05
1.21616e-05
1.21632e-05
1.21677e-05
1.21741e-05
1.21804e-05
1.21858e-05
1.21903e-05
1.2194e-05
1.21974e-05
1.22009e-05
1.22049e-05
1.22093e-05
1.2214e-05
1.22185e-05
1.22224e-05
1.22253e-05
1.22273e-05
1.22285e-05
1.2229e-05
1.21879e-05
1.21876e-05
1.21868e-05
1.21856e-05
1.21837e-05
1.21813e-05
1.21786e-05
1.21757e-05
1.21728e-05
1.217e-05
1.21672e-05
1.21644e-05
1.21622e-05
1.21613e-05
1.21629e-05
1.21675e-05
1.2174e-05
1.21803e-05
1.21858e-05
1.21903e-05
1.2194e-05
1.21974e-05
1.22008e-05
1.22046e-05
1.2209e-05
1.22137e-05
1.22182e-05
1.22221e-05
1.22251e-05
1.22272e-05
1.22284e-05
1.22288e-05
1.21878e-05
1.21875e-05
1.21867e-05
1.21853e-05
1.21834e-05
1.21809e-05
1.21782e-05
1.21753e-05
1.21725e-05
1.21697e-05
1.21668e-05
1.2164e-05
1.21616e-05
1.21605e-05
1.21623e-05
1.21671e-05
1.21738e-05
1.21804e-05
1.21859e-05
1.21904e-05
1.21941e-05
1.21974e-05
1.22006e-05
1.22043e-05
1.22084e-05
1.2213e-05
1.22175e-05
1.22216e-05
1.22247e-05
1.22268e-05
1.22281e-05
1.22286e-05
1.21877e-05
1.21873e-05
1.21865e-05
1.2185e-05
1.2183e-05
1.21805e-05
1.21778e-05
1.2175e-05
1.21722e-05
1.21694e-05
1.21664e-05
1.21634e-05
1.21605e-05
1.21592e-05
1.21612e-05
1.21666e-05
1.21739e-05
1.21808e-05
1.21864e-05
1.21909e-05
1.21945e-05
1.21976e-05
1.22006e-05
1.22039e-05
1.22078e-05
1.22122e-05
1.22167e-05
1.22208e-05
1.22241e-05
1.22263e-05
1.22276e-05
1.22282e-05
1.21876e-05
1.21872e-05
1.21863e-05
1.21848e-05
1.21828e-05
1.21803e-05
1.21776e-05
1.2175e-05
1.21723e-05
1.21694e-05
1.21662e-05
1.21626e-05
1.21591e-05
1.21572e-05
1.21596e-05
1.21661e-05
1.21744e-05
1.21818e-05
1.21877e-05
1.21922e-05
1.21957e-05
1.21985e-05
1.22011e-05
1.22039e-05
1.22074e-05
1.22114e-05
1.22158e-05
1.22199e-05
1.22233e-05
1.22257e-05
1.22271e-05
1.22277e-05
1.21875e-05
1.21872e-05
1.21863e-05
1.21848e-05
1.21828e-05
1.21804e-05
1.21779e-05
1.21754e-05
1.21728e-05
1.21699e-05
1.21663e-05
1.2162e-05
1.21573e-05
1.21546e-05
1.21575e-05
1.21657e-05
1.21756e-05
1.2184e-05
1.21903e-05
1.21948e-05
1.2198e-05
1.22004e-05
1.22025e-05
1.22047e-05
1.22075e-05
1.2211e-05
1.22151e-05
1.22191e-05
1.22225e-05
1.2225e-05
1.22264e-05
1.2227e-05
1.21876e-05
1.21873e-05
1.21864e-05
1.21851e-05
1.21832e-05
1.21811e-05
1.21788e-05
1.21765e-05
1.21741e-05
1.21711e-05
1.2167e-05
1.21616e-05
1.21553e-05
1.21514e-05
1.21549e-05
1.21655e-05
1.21779e-05
1.21878e-05
1.21947e-05
1.21992e-05
1.22021e-05
1.22038e-05
1.22051e-05
1.22065e-05
1.22085e-05
1.22113e-05
1.22149e-05
1.22187e-05
1.2222e-05
1.22244e-05
1.22258e-05
1.22264e-05
1.2188e-05
1.21876e-05
1.21869e-05
1.21857e-05
1.21841e-05
1.21823e-05
1.21804e-05
1.21785e-05
1.21763e-05
1.21732e-05
1.21687e-05
1.21619e-05
1.21534e-05
1.21478e-05
1.2152e-05
1.21659e-05
1.21818e-05
1.21938e-05
1.22015e-05
1.2206e-05
1.22083e-05
1.22092e-05
1.22095e-05
1.22098e-05
1.22107e-05
1.22126e-05
1.22155e-05
1.22188e-05
1.22218e-05
1.22241e-05
1.22254e-05
1.2226e-05
1.21886e-05
1.21883e-05
1.21876e-05
1.21867e-05
1.21854e-05
1.21841e-05
1.21827e-05
1.21813e-05
1.21795e-05
1.21766e-05
1.21714e-05
1.21629e-05
1.21515e-05
1.21437e-05
1.2149e-05
1.21671e-05
1.21876e-05
1.22025e-05
1.22113e-05
1.22157e-05
1.22173e-05
1.2217e-05
1.22159e-05
1.22147e-05
1.22143e-05
1.22151e-05
1.2217e-05
1.22196e-05
1.22221e-05
1.22241e-05
1.22253e-05
1.22258e-05
1.21897e-05
1.21894e-05
1.21888e-05
1.21881e-05
1.21873e-05
1.21865e-05
1.21858e-05
1.2185e-05
1.21837e-05
1.2181e-05
1.21752e-05
1.21644e-05
1.21493e-05
1.21391e-05
1.21459e-05
1.21696e-05
1.21961e-05
1.22145e-05
1.22246e-05
1.22288e-05
1.22292e-05
1.22273e-05
1.22244e-05
1.22214e-05
1.22194e-05
1.22188e-05
1.22195e-05
1.22212e-05
1.2223e-05
1.22246e-05
1.22256e-05
1.22261e-05
1.21914e-05
1.21911e-05
1.21906e-05
1.21901e-05
1.21896e-05
1.21894e-05
1.21894e-05
1.21893e-05
1.21887e-05
1.21862e-05
1.21795e-05
1.21656e-05
1.21459e-05
1.21334e-05
1.21432e-05
1.21741e-05
1.22079e-05
1.22305e-05
1.22419e-05
1.22455e-05
1.22443e-05
1.22403e-05
1.2235e-05
1.22299e-05
1.22259e-05
1.22236e-05
1.2223e-05
1.22235e-05
1.22246e-05
1.22257e-05
1.22265e-05
1.22269e-05
1.21939e-05
1.21936e-05
1.21931e-05
1.21927e-05
1.21925e-05
1.21927e-05
1.21932e-05
1.21939e-05
1.21939e-05
1.21913e-05
1.21829e-05
1.21646e-05
1.21398e-05
1.21261e-05
1.21414e-05
1.21819e-05
1.22241e-05
1.22511e-05
1.22634e-05
1.22659e-05
1.22624e-05
1.22557e-05
1.22477e-05
1.224e-05
1.22338e-05
1.22295e-05
1.22273e-05
1.22267e-05
1.22269e-05
1.22275e-05
1.2228e-05
1.22284e-05
1.21977e-05
1.21973e-05
1.21968e-05
1.21963e-05
1.21961e-05
1.21964e-05
1.21973e-05
1.21983e-05
1.21984e-05
1.21948e-05
1.21828e-05
1.21583e-05
1.21286e-05
1.21171e-05
1.21421e-05
1.21947e-05
1.22459e-05
1.22767e-05
1.22891e-05
1.22895e-05
1.22831e-05
1.22731e-05
1.2262e-05
1.22514e-05
1.22427e-05
1.22363e-05
1.22324e-05
1.22305e-05
1.22299e-05
1.223e-05
1.22303e-05
1.22306e-05
1.22041e-05
1.22037e-05
1.2203e-05
1.22023e-05
1.22019e-05
1.2202e-05
1.22025e-05
1.22029e-05
1.22012e-05
1.21933e-05
1.21738e-05
1.2141e-05
1.21095e-05
1.21075e-05
1.21487e-05
1.22156e-05
1.22745e-05
1.23071e-05
1.23179e-05
1.23154e-05
1.23055e-05
1.2292e-05
1.22775e-05
1.2264e-05
1.22527e-05
1.22442e-05
1.22387e-05
1.22355e-05
1.22341e-05
1.22338e-05
1.22339e-05
1.22342e-05
1.22116e-05
1.22115e-05
1.22113e-05
1.2211e-05
1.22105e-05
1.22098e-05
1.22081e-05
1.22039e-05
1.21944e-05
1.21752e-05
1.21432e-05
1.21047e-05
1.20825e-05
1.2103e-05
1.2167e-05
1.22473e-05
1.23093e-05
1.23397e-05
1.2347e-05
1.23408e-05
1.23275e-05
1.23107e-05
1.22931e-05
1.22766e-05
1.22626e-05
1.22519e-05
1.22446e-05
1.22404e-05
1.22384e-05
1.22379e-05
1.2238e-05
1.22383e-05
1.21956e-05
1.21956e-05
1.21956e-05
1.21951e-05
1.21933e-05
1.21891e-05
1.21808e-05
1.21664e-05
1.21436e-05
1.21116e-05
1.2075e-05
1.20498e-05
1.20599e-05
1.21165e-05
1.22022e-05
1.22865e-05
1.23429e-05
1.23664e-05
1.23688e-05
1.23593e-05
1.23435e-05
1.23247e-05
1.23053e-05
1.22873e-05
1.22722e-05
1.22607e-05
1.2253e-05
1.22484e-05
1.22461e-05
1.22454e-05
1.22454e-05
1.22457e-05
1.21197e-05
1.21188e-05
1.21169e-05
1.21132e-05
1.21069e-05
1.20968e-05
1.20815e-05
1.20605e-05
1.2035e-05
1.20104e-05
1.19984e-05
1.20152e-05
1.20694e-05
1.21509e-05
1.22369e-05
1.23091e-05
1.23537e-05
1.23697e-05
1.23677e-05
1.23556e-05
1.23384e-05
1.23193e-05
1.23005e-05
1.22838e-05
1.22702e-05
1.22604e-05
1.22542e-05
1.22512e-05
1.22504e-05
1.22507e-05
1.22514e-05
1.22518e-05
1.20256e-05
1.20239e-05
1.20201e-05
1.2014e-05
1.2005e-05
1.1993e-05
1.19783e-05
1.1963e-05
1.19518e-05
1.19523e-05
1.1973e-05
1.20174e-05
1.20802e-05
1.21514e-05
1.22225e-05
1.22853e-05
1.23275e-05
1.23433e-05
1.23412e-05
1.23297e-05
1.23147e-05
1.22996e-05
1.22867e-05
1.22772e-05
1.22712e-05
1.22683e-05
1.22673e-05
1.22667e-05
1.22653e-05
1.2263e-05
1.22606e-05
1.22592e-05
1.19613e-05
1.19595e-05
1.19556e-05
1.19493e-05
1.19406e-05
1.19299e-05
1.19187e-05
1.19101e-05
1.19088e-05
1.19196e-05
1.1945e-05
1.19841e-05
1.20342e-05
1.20924e-05
1.21549e-05
1.22163e-05
1.22649e-05
1.22911e-05
1.22999e-05
1.23006e-05
1.2298e-05
1.22946e-05
1.22906e-05
1.22853e-05
1.22773e-05
1.22653e-05
1.22487e-05
1.2228e-05
1.22059e-05
1.21864e-05
1.21727e-05
1.21664e-05
1.1924e-05
1.19223e-05
1.19184e-05
1.19118e-05
1.19023e-05
1.18907e-05
1.18787e-05
1.18694e-05
1.18664e-05
1.18723e-05
1.18881e-05
1.19133e-05
1.19479e-05
1.19914e-05
1.20424e-05
1.20973e-05
1.21456e-05
1.21748e-05
1.21846e-05
1.21812e-05
1.21673e-05
1.21448e-05
1.2115e-05
1.20793e-05
1.20393e-05
1.19975e-05
1.19568e-05
1.19202e-05
1.18906e-05
1.18704e-05
1.18592e-05
1.1855e-05
1.19025e-05
1.19008e-05
1.18965e-05
1.1889e-05
1.18778e-05
1.18634e-05
1.18474e-05
1.18327e-05
1.18219e-05
1.1817e-05
1.18187e-05
1.18277e-05
1.18447e-05
1.18706e-05
1.19044e-05
1.19422e-05
1.1973e-05
1.19823e-05
1.19659e-05
1.19272e-05
1.18695e-05
1.17992e-05
1.17233e-05
1.16487e-05
1.15817e-05
1.15271e-05
1.14881e-05
1.14663e-05
1.14598e-05
1.14638e-05
1.14713e-05
1.14762e-05
1.189e-05
1.18884e-05
1.18841e-05
1.18763e-05
1.1864e-05
1.18474e-05
1.18274e-05
1.18063e-05
1.17863e-05
1.17695e-05
1.17568e-05
1.17493e-05
1.17488e-05
1.17568e-05
1.17728e-05
1.17921e-05
1.18021e-05
1.1787e-05
1.17421e-05
1.16719e-05
1.1584e-05
1.149e-05
1.14011e-05
1.13253e-05
1.12669e-05
1.1227e-05
1.12042e-05
1.11969e-05
1.12016e-05
1.12134e-05
1.1226e-05
1.12337e-05
1.18811e-05
1.18796e-05
1.18757e-05
1.18682e-05
1.1856e-05
1.18387e-05
1.18165e-05
1.1791e-05
1.17641e-05
1.17373e-05
1.17119e-05
1.16897e-05
1.16728e-05
1.1664e-05
1.16642e-05
1.16697e-05
1.16683e-05
1.16429e-05
1.15879e-05
1.15099e-05
1.14211e-05
1.13357e-05
1.12638e-05
1.12094e-05
1.11709e-05
1.11451e-05
1.11289e-05
1.11205e-05
1.11187e-05
1.1122e-05
1.11279e-05
1.11325e-05
1.18706e-05
1.18697e-05
1.18667e-05
1.18603e-05
1.1849e-05
1.1832e-05
1.18091e-05
1.17811e-05
1.17494e-05
1.17154e-05
1.16806e-05
1.16466e-05
1.16161e-05
1.15925e-05
1.15785e-05
1.15733e-05
1.15678e-05
1.15455e-05
1.14972e-05
1.14289e-05
1.13541e-05
1.1286e-05
1.12318e-05
1.11915e-05
1.11616e-05
1.11386e-05
1.11208e-05
1.11078e-05
1.10999e-05
1.10968e-05
1.10972e-05
1.10988e-05
1.18529e-05
1.1853e-05
1.18516e-05
1.1847e-05
1.18371e-05
1.18208e-05
1.17975e-05
1.17677e-05
1.17325e-05
1.16933e-05
1.16517e-05
1.16095e-05
1.15694e-05
1.15347e-05
1.1509e-05
1.14941e-05
1.14862e-05
1.14711e-05
1.14369e-05
1.13854e-05
1.13275e-05
1.12745e-05
1.12313e-05
1.1197e-05
1.11687e-05
1.11442e-05
1.11228e-05
1.11056e-05
1.10935e-05
1.10867e-05
1.10844e-05
1.10845e-05
1.18217e-05
1.18233e-05
1.18243e-05
1.18218e-05
1.18134e-05
1.17973e-05
1.1773e-05
1.1741e-05
1.17028e-05
1.16598e-05
1.16139e-05
1.1567e-05
1.15215e-05
1.14805e-05
1.14473e-05
1.1425e-05
1.14139e-05
1.14042e-05
1.13832e-05
1.13485e-05
1.13065e-05
1.12656e-05
1.12299e-05
1.11995e-05
1.11723e-05
1.11472e-05
1.1124e-05
1.1104e-05
1.10888e-05
1.10794e-05
1.10753e-05
1.10747e-05
1.17717e-05
1.17752e-05
1.17784e-05
1.17775e-05
1.17693e-05
1.17521e-05
1.17258e-05
1.16916e-05
1.16511e-05
1.16064e-05
1.15591e-05
1.15113e-05
1.14648e-05
1.14223e-05
1.13865e-05
1.13603e-05
1.13465e-05
1.13393e-05
1.13273e-05
1.13058e-05
1.12771e-05
1.12465e-05
1.12178e-05
1.11916e-05
1.11672e-05
1.11437e-05
1.11211e-05
1.11006e-05
1.1084e-05
1.10728e-05
1.10674e-05
1.10662e-05
1.16992e-05
1.17043e-05
1.17084e-05
1.17068e-05
1.16967e-05
1.1677e-05
1.16485e-05
1.16131e-05
1.15728e-05
1.15294e-05
1.14846e-05
1.14399e-05
1.13968e-05
1.13572e-05
1.13231e-05
1.12969e-05
1.12822e-05
1.12758e-05
1.1269e-05
1.12563e-05
1.12377e-05
1.1216e-05
1.11941e-05
1.11731e-05
1.11529e-05
1.11329e-05
1.11131e-05
1.10944e-05
1.10782e-05
1.10665e-05
1.10602e-05
1.10584e-05
1.1602e-05
1.16074e-05
1.16092e-05
1.16037e-05
1.15899e-05
1.15679e-05
1.15393e-05
1.15059e-05
1.14694e-05
1.14313e-05
1.13928e-05
1.1355e-05
1.13189e-05
1.12857e-05
1.12568e-05
1.1234e-05
1.12204e-05
1.12147e-05
1.12105e-05
1.12033e-05
1.11918e-05
1.11774e-05
1.11619e-05
1.11465e-05
1.11312e-05
1.11158e-05
1.11003e-05
1.10849e-05
1.10709e-05
1.106e-05
1.10535e-05
1.10514e-05
1.14782e-05
1.1481e-05
1.14766e-05
1.14659e-05
1.14497e-05
1.14286e-05
1.14039e-05
1.13767e-05
1.1348e-05
1.13188e-05
1.12899e-05
1.12618e-05
1.12352e-05
1.12108e-05
1.11894e-05
1.11722e-05
1.11615e-05
1.1157e-05
1.11544e-05
1.11504e-05
1.11438e-05
1.11349e-05
1.1125e-05
1.11148e-05
1.11045e-05
1.10941e-05
1.10834e-05
1.10724e-05
1.10619e-05
1.10531e-05
1.10473e-05
1.10452e-05
1.13241e-05
1.13211e-05
1.13114e-05
1.12996e-05
1.12861e-05
1.1271e-05
1.12544e-05
1.1237e-05
1.12191e-05
1.12012e-05
1.11837e-05
1.11668e-05
1.11509e-05
1.11363e-05
1.11235e-05
1.11131e-05
1.11065e-05
1.11036e-05
1.11022e-05
1.11002e-05
1.10968e-05
1.10922e-05
1.10868e-05
1.10812e-05
1.10755e-05
1.10697e-05
1.10637e-05
1.10574e-05
1.10511e-05
1.10454e-05
1.10414e-05
1.10396e-05
1.11347e-05
1.1132e-05
1.11268e-05
1.11216e-05
1.11164e-05
1.11109e-05
1.11052e-05
1.10992e-05
1.10932e-05
1.10873e-05
1.10815e-05
1.10759e-05
1.10707e-05
1.1066e-05
1.10618e-05
1.10584e-05
1.10562e-05
1.10552e-05
1.10547e-05
1.10541e-05
1.10531e-05
1.10517e-05
1.105e-05
1.10483e-05
1.10465e-05
1.10446e-05
1.10428e-05
1.10408e-05
1.10388e-05
1.10369e-05
1.10354e-05
1.10347e-05
)
;

boundaryField
{
    movingWall
    {
        type            fixedValue;
        value           uniform 1.1032e-05;
    }
    fixedWalls
    {
        type            zeroGradient;
    }
    floor
    {
        type            zeroGradient;
    }
    frontAndBack
    {
        type            empty;
    }
}


// ************************************************************************* //
