/*--------------------------------*- C++ -*----------------------------------*\
| =========                 |                                                 |
| \\      /  F ield         | OpenFOAM: The Open Source CFD Toolbox           |
|  \\    /   O peration     | Version:  2212                                  |
|   \\  /    A nd           | Website:  www.openfoam.com                      |
|    \\/     M anipulation  |                                                 |
\*---------------------------------------------------------------------------*/
FoamFile
{
    version     2.0;
    format      ascii;
    arch        "LSB;label=64;scalar=64";
    class       volScalarField;
    location    "340";
    object      p_rgh;
}
// * * * * * * * * * * * * * * * * * * * * * * * * * * * * * * * * * * * * * //

dimensions      [0 2 -2 0 0 0 0];

internalField   nonuniform List<scalar> 
1024
(
0.043198
0.0431904
0.0431831
0.0431799
0.0431804
0.0431852
0.0431984
0.0432287
0.0432891
0.0433972
0.0435719
0.0438178
0.0440912
0.0442818
0.0442732
0.0441789
0.0439885
0.0438187
0.0436916
0.0436024
0.0435403
0.0434974
0.0434685
0.04345
0.0434385
0.0434309
0.043425
0.0434201
0.0434169
0.0434171
0.0434208
0.043425
0.0432233
0.0432159
0.0432107
0.0432105
0.0432136
0.0432204
0.0432352
0.043267
0.0433288
0.0434383
0.043615
0.043863
0.044138
0.0443284
0.0443174
0.0442205
0.0440266
0.0438539
0.0437242
0.043633
0.0435692
0.0435248
0.0434947
0.0434749
0.0434621
0.0434532
0.0434462
0.0434399
0.0434353
0.0434338
0.0434363
0.0434405
0.0432683
0.0432603
0.0432594
0.0432666
0.0432769
0.0432895
0.0433093
0.0433458
0.0434125
0.0435273
0.0437102
0.043963
0.0442414
0.044432
0.0444197
0.0443174
0.0441167
0.0439373
0.0438014
0.0437051
0.043637
0.0435886
0.0435547
0.0435313
0.0435152
0.0435029
0.043492
0.0434812
0.0434715
0.0434656
0.043466
0.0434707
0.0433179
0.0433107
0.0433181
0.043339
0.0433633
0.0433876
0.0434172
0.0434624
0.0435369
0.0436581
0.0438459
0.0440988
0.0443755
0.0445651
0.044564
0.0444637
0.0442609
0.044076
0.0439325
0.0438288
0.0437537
0.0436984
0.0436576
0.0436276
0.0436048
0.0435857
0.0435669
0.0435466
0.0435263
0.0435113
0.0435072
0.0435121
0.0433436
0.0433405
0.0433633
0.0434072
0.0434547
0.0434987
0.0435433
0.0435993
0.04368
0.0438013
0.0439811
0.0442219
0.0444877
0.0446751
0.0447043
0.0446249
0.044437
0.044258
0.0441139
0.0440049
0.0439225
0.0438586
0.0438082
0.0437681
0.0437348
0.043704
0.0436714
0.0436344
0.0435958
0.0435645
0.0435512
0.0435547
0.0433115
0.0433163
0.0433623
0.0434401
0.0435225
0.043595
0.0436591
0.0437245
0.0438036
0.043912
0.0440667
0.0442856
0.0445361
0.0447244
0.0447954
0.0447536
0.0446014
0.044447
0.0443197
0.0442153
0.0441313
0.044061
0.0440009
0.0439483
0.0439
0.0438514
0.0437971
0.0437339
0.0436663
0.0436092
0.0435802
0.0435796
0.0431973
0.043212
0.0432867
0.0434087
0.0435378
0.0436476
0.0437334
0.0438033
0.0438702
0.0439529
0.0440763
0.0442733
0.0445135
0.0447103
0.0448209
0.0448191
0.0447135
0.0445986
0.044504
0.0444223
0.0443494
0.044281
0.0442153
0.0441504
0.0440838
0.0440109
0.0439253
0.0438239
0.0437145
0.0436204
0.0435683
0.0435605
0.0429981
0.0430221
0.043126
0.0432979
0.043483
0.0436374
0.0437466
0.0438165
0.043864
0.0439163
0.0440132
0.0441968
0.0444374
0.0446509
0.0447922
0.0448215
0.0447587
0.0446861
0.0446315
0.0445862
0.0445385
0.0444839
0.0444207
0.0443473
0.0442615
0.0441581
0.0440308
0.0438778
0.0437127
0.0435701
0.0434886
0.0434715
0.0427337
0.0427642
0.0428909
0.0431102
0.0433554
0.0435602
0.0436956
0.0437655
0.0437931
0.0438184
0.0438956
0.0440764
0.0443292
0.0445651
0.0447285
0.0447786
0.0447475
0.0447103
0.0446927
0.0446855
0.0446706
0.0446398
0.0445883
0.0445125
0.0444082
0.0442698
0.0440908
0.0438726
0.0436383
0.0434385
0.0433242
0.0432969
0.0424407
0.0424733
0.0426096
0.0428622
0.0431631
0.0434222
0.0435902
0.0436658
0.0436788
0.0436807
0.0437425
0.0439305
0.0442063
0.0444656
0.044644
0.0447083
0.0446993
0.0446885
0.0447
0.0447237
0.0447402
0.0447365
0.0447024
0.0446291
0.0445084
0.0443316
0.044092
0.0437964
0.0434825
0.043221
0.0430745
0.043038
0.042174
0.0422035
0.0423292
0.0425814
0.0429204
0.0432326
0.0434428
0.0435372
0.0435452
0.0435252
0.0435748
0.043782
0.0440842
0.0443638
0.0445493
0.0446214
0.0446289
0.0446391
0.0446726
0.0447186
0.0447598
0.0447801
0.0447638
0.0446948
0.0445581
0.0443395
0.0440315
0.0436492
0.04325
0.042928
0.042754
0.0427104
0.0419946
0.0420185
0.0421236
0.042347
0.0426656
0.0429926
0.0432466
0.0433845
0.0434075
0.0433633
0.0434281
0.0436646
0.0439894
0.0442773
0.0444546
0.0445241
0.0445442
0.044574
0.0446263
0.0446897
0.0447488
0.0447866
0.0447836
0.0447166
0.0445614
0.0442965
0.0439134
0.0434385
0.0429543
0.042579
0.0423853
0.0423374
0.0419633
0.0419795
0.0420567
0.0422325
0.0424978
0.0427908
0.0430375
0.043188
0.0432335
0.0432325
0.0433569
0.043638
0.0439713
0.0442338
0.0443728
0.0444217
0.0444503
0.0445014
0.0445732
0.0446526
0.0447249
0.0447736
0.0447768
0.0447055
0.0445259
0.0442077
0.0437422
0.043172
0.0426094
0.042194
0.04199
0.0419402
0.0421296
0.042135
0.0421782
0.042295
0.0424884
0.042718
0.0429238
0.0430605
0.0431276
0.0432288
0.0434661
0.0437888
0.0440828
0.0442597
0.0443136
0.044318
0.0443535
0.0444326
0.0445293
0.0446254
0.0447066
0.0447585
0.0447582
0.0446717
0.0444562
0.044072
0.0435144
0.0428493
0.0422233
0.0417875
0.0415859
0.0415377
0.0425208
0.0425122
0.0425169
0.0425684
0.0426824
0.0428394
0.0429989
0.0431363
0.0433005
0.0435756
0.0439045
0.0441871
0.0443436
0.0443521
0.04427
0.0442137
0.0442652
0.0443897
0.0445222
0.0446329
0.0447143
0.0447564
0.0447363
0.0446127
0.0443365
0.0438603
0.0431949
0.0424385
0.0417981
0.0413865
0.0412014
0.0411566
0.0432213
0.0432004
0.0431712
0.0431634
0.0432068
0.0433141
0.0434972
0.0438055
0.0441727
0.0444984
0.0447129
0.0447672
0.0446591
0.0444365
0.0442055
0.0441064
0.0442047
0.0444102
0.044578
0.0446826
0.0447395
0.0447443
0.0446678
0.0444533
0.0440199
0.0434154
0.042696
0.0419773
0.0414053
0.0410522
0.0408951
0.0408548
0.044516
0.0445278
0.0445538
0.0446122
0.0447368
0.0449532
0.0452322
0.0454503
0.0455784
0.0455883
0.0454488
0.04516
0.044781
0.0443889
0.0440929
0.0440148
0.0441575
0.0444189
0.0445665
0.0446072
0.044577
0.0444674
0.0442554
0.0439171
0.0434419
0.0428588
0.0422284
0.041644
0.0411988
0.0409307
0.0408107
0.0407764
0.0460224
0.0460573
0.0461188
0.0461967
0.0462771
0.0463407
0.0463617
0.0463117
0.0461655
0.0459143
0.045545
0.0450894
0.0446613
0.0442892
0.0440153
0.0438821
0.0439248
0.044066
0.0441112
0.0440805
0.0439816
0.0438208
0.0435945
0.0432949
0.0429187
0.0424838
0.0420332
0.0416303
0.0413327
0.0411596
0.0410852
0.041064
0.0468154
0.0468283
0.0468456
0.046855
0.0468385
0.0467728
0.0466365
0.0464216
0.0461366
0.0458092
0.0454515
0.0450731
0.0446811
0.0442911
0.0439332
0.0436477
0.0434825
0.0434239
0.0433885
0.0433148
0.04321
0.0430901
0.0429581
0.042805
0.0426186
0.0423995
0.0421723
0.0419837
0.0418775
0.0418639
0.0419104
0.0419601
0.0472373
0.0472243
0.0471932
0.0471329
0.047029
0.0468741
0.0466728
0.0464387
0.0461831
0.0459096
0.0456102
0.0452758
0.044901
0.0444895
0.0440592
0.043641
0.0432873
0.0430666
0.0429673
0.0428866
0.0428366
0.0428396
0.0429037
0.0430184
0.0431613
0.0433133
0.0434875
0.0437553
0.0441678
0.0445441
0.0447806
0.0448567
0.0475345
0.047511
0.0474603
0.0473754
0.0472494
0.0470873
0.0469006
0.0466992
0.0464883
0.0462701
0.0460376
0.045767
0.0454509
0.0450879
0.0446893
0.0442833
0.0439229
0.0437081
0.0436466
0.0437155
0.0439353
0.0443372
0.0449337
0.0457095
0.046622
0.0475291
0.0482205
0.0485987
0.0486382
0.0485414
0.048403
0.0483116
0.0476589
0.0476379
0.0476005
0.0475458
0.0474735
0.0473858
0.0472869
0.0471763
0.047047
0.0468863
0.0466874
0.0464694
0.046237
0.0459662
0.0456666
0.0453692
0.0451245
0.0450118
0.0450684
0.0453321
0.0458131
0.0464993
0.0473208
0.04814
0.048731
0.0490535
0.0492515
0.0493532
0.0493799
0.049356
0.0493032
0.0492542
0.047706
0.0476873
0.0476606
0.0476286
0.0475966
0.0475647
0.0475341
0.0475042
0.0474703
0.0474205
0.0473414
0.0472138
0.0470244
0.0468248
0.0466071
0.0463958
0.0462361
0.046179
0.0462863
0.0465836
0.047041
0.0475849
0.0480926
0.0484462
0.0486858
0.0488929
0.0490733
0.0492126
0.0492991
0.0493333
0.0493283
0.0493065
0.0477238
0.0477087
0.047689
0.047673
0.0476677
0.0476746
0.0476927
0.0477213
0.0477533
0.0477806
0.0477898
0.0477656
0.0476874
0.0475342
0.0473626
0.0471957
0.047061
0.0469802
0.0470483
0.0472678
0.0475843
0.0479109
0.0481638
0.0483152
0.048467
0.0486449
0.0488376
0.0490174
0.0491544
0.0492303
0.0492488
0.049237
0.0477355
0.0477233
0.0477102
0.0477065
0.0477203
0.0477541
0.0478053
0.0478698
0.0479416
0.0480115
0.0480711
0.0481063
0.0481017
0.0480427
0.0479283
0.0477943
0.0476639
0.0475234
0.0474954
0.0475989
0.0477826
0.0479675
0.0481059
0.0482141
0.0483477
0.048523
0.048729
0.0489407
0.0491232
0.0492422
0.0492849
0.0492836
0.047748
0.0477379
0.0477313
0.0477396
0.04777
0.0478239
0.0478968
0.0479801
0.0480687
0.0481537
0.04823
0.0482866
0.0483161
0.0483115
0.0482721
0.0482033
0.0481053
0.0479388
0.0478117
0.0477987
0.0478649
0.0479421
0.0480318
0.0481573
0.0483222
0.0485315
0.0487683
0.0490135
0.0492435
0.0494156
0.0494948
0.0495124
0.047757
0.0477497
0.0477515
0.0477753
0.0478228
0.0478941
0.0479794
0.0480668
0.0481511
0.0482289
0.0482961
0.0483481
0.0483831
0.0483999
0.0484034
0.0483969
0.0483687
0.0482523
0.0480959
0.0479838
0.0479288
0.0479252
0.0479952
0.0481432
0.0483531
0.0486168
0.0489137
0.0492234
0.049515
0.0497547
0.0498923
0.0499437
0.0477495
0.0477492
0.0477673
0.0478125
0.0478785
0.0479628
0.0480475
0.0481237
0.0481892
0.0482441
0.0482876
0.0483216
0.0483485
0.0483717
0.0483986
0.0484337
0.0484657
0.0484229
0.0482939
0.0481396
0.048012
0.0479579
0.0480113
0.0481696
0.0484151
0.048735
0.0491089
0.0495084
0.0498954
0.0502341
0.0504641
0.0505752
0.0477032
0.0477208
0.0477708
0.0478478
0.0479341
0.0480212
0.0480931
0.0481463
0.0481821
0.0482061
0.0482212
0.0482337
0.0482492
0.0482734
0.0483151
0.0483798
0.048454
0.0484667
0.0483793
0.048228
0.0480781
0.048004
0.0480492
0.0482135
0.0484842
0.0488499
0.0492949
0.0497943
0.0503129
0.0508017
0.0511804
0.0514177
0.0475601
0.0476421
0.0477623
0.0478837
0.0479865
0.0480644
0.0481127
0.0481355
0.0481393
0.0481326
0.0481228
0.0481176
0.0481243
0.0481497
0.0482029
0.0482898
0.0483929
0.0484404
0.0483857
0.0482521
0.0481063
0.0480322
0.0480783
0.0482486
0.0485359
0.0489328
0.0494307
0.0500178
0.0506777
0.051376
0.052026
0.0525859
0.0471034
0.0475036
0.0477712
0.0479373
0.0480388
0.0480963
0.0481163
0.0481086
0.0480857
0.048056
0.0480289
0.0480126
0.048015
0.048043
0.0481055
0.0482081
0.0483296
0.0483972
0.0483629
0.0482448
0.0481088
0.0480402
0.0480892
0.048263
0.0485579
0.0489693
0.0494952
0.0501383
0.0509132
0.0518484
0.0529725
0.0542392
0.0460977
0.0473477
0.0478385
0.0480014
0.0480859
0.0481234
0.0481213
0.0480933
0.048053
0.0480107
0.0479749
0.0479534
0.0479546
0.0479852
0.0480526
0.0481629
0.0482932
0.0483701
0.0483453
0.0482355
0.0481052
0.0480394
0.048089
0.0482628
0.0485577
0.048971
0.0495044
0.0501719
0.0510174
0.0521433
0.0537674
0.0560394
)
;

boundaryField
{
    movingWall
    {
        type            fixedFluxPressure;
        gradient        uniform 0;
        value           nonuniform List<scalar> 
32
(
0.0460977
0.0473477
0.0478385
0.0480014
0.0480859
0.0481234
0.0481213
0.0480933
0.048053
0.0480107
0.0479749
0.0479534
0.0479546
0.0479852
0.0480526
0.0481629
0.0482932
0.0483701
0.0483453
0.0482355
0.0481052
0.0480394
0.048089
0.0482628
0.0485577
0.048971
0.0495044
0.0501719
0.0510174
0.0521433
0.0537674
0.0560394
)
;
    }
    fixedWalls
    {
        type            fixedFluxPressure;
        gradient        uniform 0;
        value           nonuniform List<scalar> 
64
(
0.043198
0.0432233
0.0432683
0.0433179
0.0433436
0.0433115
0.0431973
0.0429981
0.0427337
0.0424407
0.042174
0.0419946
0.0419633
0.0421296
0.0425208
0.0432213
0.044516
0.0460224
0.0468154
0.0472373
0.0475345
0.0476589
0.047706
0.0477238
0.0477355
0.047748
0.047757
0.0477495
0.0477032
0.0475601
0.0471034
0.0460977
0.043425
0.0434405
0.0434707
0.0435121
0.0435547
0.0435796
0.0435605
0.0434715
0.0432969
0.043038
0.0427104
0.0423374
0.0419402
0.0415377
0.0411566
0.0408548
0.0407764
0.041064
0.0419601
0.0448567
0.0483116
0.0492542
0.0493065
0.049237
0.0492836
0.0495124
0.0499437
0.0505752
0.0514177
0.0525859
0.0542392
0.0560394
)
;
    }
    floor
    {
        type            fixedFluxPressure;
        gradient        uniform 0;
        value           nonuniform List<scalar> 
32
(
0.043198
0.0431904
0.0431831
0.0431799
0.0431804
0.0431852
0.0431984
0.0432287
0.0432891
0.0433972
0.0435719
0.0438178
0.0440912
0.0442818
0.0442732
0.0441789
0.0439885
0.0438187
0.0436916
0.0436024
0.0435403
0.0434974
0.0434685
0.04345
0.0434385
0.0434309
0.043425
0.0434201
0.0434169
0.0434171
0.0434208
0.043425
)
;
    }
    frontAndBack
    {
        type            empty;
    }
}


// ************************************************************************* //
