/*--------------------------------*- C++ -*----------------------------------*\
| =========                 |                                                 |
| \\      /  F ield         | OpenFOAM: The Open Source CFD Toolbox           |
|  \\    /   O peration     | Version:  2212                                  |
|   \\  /    A nd           | Website:  www.openfoam.com                      |
|    \\/     M anipulation  |                                                 |
\*---------------------------------------------------------------------------*/
FoamFile
{
    version     2.0;
    format      ascii;
    arch        "LSB;label=64;scalar=64";
    class       volScalarField;
    location    "340";
    object      Sch4;
}
// * * * * * * * * * * * * * * * * * * * * * * * * * * * * * * * * * * * * * //

dimensions      [1 -3 0 0 0 0 0];

internalField   nonuniform List<scalar> 
1024
(
0.0399754
0.0399795
0.0399891
0.0400058
0.0400304
0.0400622
0.0400992
0.0401386
0.0401786
0.0402179
0.040257
0.0402946
0.0403265
0.0403428
0.040327
0.0402748
0.0401972
0.0401183
0.0400497
0.0399916
0.0399415
0.039895
0.0398474
0.0397946
0.0397357
0.0396741
0.0396155
0.0395654
0.0395273
0.0395017
0.0394871
0.039481
0.0399761
0.0399803
0.0399903
0.0400076
0.0400329
0.0400653
0.0401027
0.0401421
0.0401818
0.0402209
0.04026
0.0402979
0.0403304
0.0403471
0.0403309
0.0402777
0.0401991
0.0401196
0.0400507
0.0399924
0.0399424
0.0398965
0.0398498
0.0397981
0.0397401
0.0396788
0.0396199
0.0395691
0.0395301
0.0395038
0.0394887
0.0394824
0.0399773
0.0399818
0.0399925
0.0400109
0.0400374
0.0400707
0.0401083
0.0401473
0.0401865
0.0402253
0.0402648
0.0403041
0.040339
0.0403575
0.04034
0.0402835
0.0402019
0.0401206
0.0400507
0.0399923
0.0399428
0.0398981
0.0398533
0.039804
0.039748
0.0396878
0.0396285
0.0395765
0.0395359
0.0395082
0.0394923
0.0394857
0.039979
0.0399838
0.0399952
0.0400147
0.0400424
0.0400763
0.0401137
0.0401519
0.0401902
0.040229
0.0402699
0.0403127
0.0403529
0.0403756
0.0403558
0.040292
0.0402037
0.0401185
0.0400469
0.0399883
0.0399398
0.0398972
0.0398556
0.0398101
0.0397576
0.0396995
0.0396404
0.039587
0.0395445
0.0395151
0.0394981
0.0394911
0.0399805
0.0399856
0.0399976
0.0400178
0.0400459
0.0400797
0.0401162
0.0401529
0.0401901
0.0402293
0.0402731
0.0403223
0.0403721
0.0404025
0.0403791
0.0403025
0.0402019
0.0401094
0.0400348
0.0399759
0.039929
0.0398897
0.0398527
0.0398128
0.0397655
0.039711
0.0396533
0.0395992
0.0395549
0.0395238
0.0395058
0.0394984
0.0399812
0.0399863
0.0399984
0.0400185
0.0400459
0.0400784
0.0401127
0.0401473
0.0401831
0.0402231
0.0402714
0.0403306
0.0403956
0.0404379
0.04041
0.0403137
0.0401929
0.0400883
0.0400087
0.0399494
0.0399051
0.0398705
0.0398399
0.0398073
0.0397672
0.0397184
0.0396638
0.0396104
0.0395654
0.0395332
0.0395145
0.0395068
0.03998
0.039985
0.0399965
0.0400153
0.0400408
0.0400703
0.0401012
0.0401325
0.0401663
0.040207
0.0402612
0.0403342
0.0404207
0.0404805
0.0404476
0.0403233
0.0401725
0.0400494
0.039962
0.039902
0.0398616
0.0398338
0.0398119
0.039789
0.0397583
0.0397174
0.0396682
0.0396177
0.0395737
0.0395417
0.0395228
0.0395151
0.0399757
0.0399805
0.0399909
0.0400075
0.0400294
0.0400544
0.0400802
0.0401066
0.040137
0.0401778
0.0402388
0.0403294
0.040445
0.0405284
0.0404897
0.0403278
0.040135
0.0399858
0.0398875
0.0398268
0.0397921
0.0397739
0.0397638
0.0397534
0.0397348
0.0397044
0.0396633
0.0396182
0.0395775
0.0395472
0.0395292
0.0395218
0.0399673
0.0399717
0.0399807
0.0399943
0.0400114
0.0400303
0.0400492
0.0400688
0.0400938
0.0401332
0.0402013
0.0403143
0.0404679
0.0405813
0.0405339
0.0403225
0.0400741
0.0398902
0.039778
0.0397172
0.0396909
0.0396862
0.0396918
0.0396976
0.0396942
0.0396771
0.0396469
0.03961
0.039575
0.0395482
0.0395319
0.039525
0.0399531
0.0399572
0.0399648
0.0399751
0.0399869
0.0399984
0.0400089
0.0400197
0.0400373
0.0400737
0.0401499
0.0402919
0.0404941
0.0406419
0.0405784
0.0403014
0.0399816
0.0397545
0.0396264
0.0395675
0.039554
0.0395676
0.0395938
0.0396202
0.0396356
0.0396349
0.0396184
0.0395923
0.0395651
0.0395432
0.0395293
0.0395231
0.0399313
0.0399353
0.0399418
0.0399492
0.0399558
0.03996
0.0399613
0.0399624
0.0399711
0.0400042
0.0400921
0.040274
0.0405359
0.0407164
0.0406201
0.0402558
0.039848
0.0395702
0.0394264
0.0393738
0.0393789
0.0394171
0.0394697
0.0395213
0.0395594
0.0395783
0.0395781
0.0395651
0.0395472
0.0395311
0.03952
0.0395146
0.0398986
0.0399027
0.0399089
0.0399147
0.0399177
0.0399162
0.0399099
0.039902
0.039903
0.0399362
0.0400462
0.0402848
0.0406144
0.0408129
0.040652
0.0401714
0.0396604
0.0393291
0.0391735
0.0391346
0.0391662
0.0392361
0.0393209
0.0394024
0.0394669
0.0395082
0.0395266
0.039528
0.0395203
0.0395103
0.039502
0.0394975
0.0398488
0.0398535
0.0398608
0.0398673
0.0398699
0.0398663
0.0398561
0.0398436
0.0398431
0.0398894
0.0400456
0.0403652
0.0407604
0.0409359
0.0406557
0.0400242
0.0394026
0.0390247
0.0388682
0.0388533
0.03892
0.0390283
0.0391505
0.0392659
0.0393601
0.0394266
0.0394656
0.0394826
0.0394854
0.0394812
0.0394754
0.0394713
0.0397661
0.0397711
0.0397796
0.0397885
0.0397941
0.0397937
0.0397873
0.0397832
0.0398056
0.039907
0.040161
0.0405888
0.0410118
0.0410719
0.0405897
0.0397776
0.0390592
0.0386592
0.0385211
0.0385423
0.0386512
0.038802
0.0389639
0.039115
0.0392398
0.0393315
0.0393903
0.0394219
0.0394344
0.0394358
0.0394323
0.039429
0.0396706
0.0396718
0.0396744
0.0396784
0.0396842
0.0396942
0.039716
0.0397693
0.0398921
0.0401406
0.0405558
0.0410627
0.0413742
0.0411522
0.0403797
0.0393963
0.0386359
0.0382615
0.0381668
0.0382326
0.0383839
0.0385748
0.0387746
0.0389615
0.0391194
0.039239
0.0393186
0.0393637
0.0393833
0.0393874
0.0393843
0.0393807
0.0398755
0.0398746
0.0398749
0.0398818
0.0399049
0.0399591
0.0400652
0.0402502
0.0405443
0.0409598
0.0414406
0.0417872
0.0416942
0.0410134
0.0399583
0.0389148
0.0382182
0.037927
0.0378934
0.0380006
0.0381828
0.0383996
0.0386222
0.0388278
0.0389992
0.0391278
0.039214
0.0392646
0.0392886
0.0392955
0.0392939
0.0392908
0.0408372
0.0408477
0.0408731
0.0409205
0.0410019
0.0411335
0.0413319
0.0416052
0.0419401
0.0422709
0.0424493
0.0422684
0.0416125
0.0406044
0.0395297
0.0386271
0.038069
0.0378678
0.0378874
0.0380274
0.0382276
0.0384494
0.0386665
0.03886
0.0390163
0.039129
0.0391987
0.0392313
0.0392381
0.0392318
0.039223
0.0392175
0.0420312
0.0420534
0.0421025
0.0421833
0.0423016
0.0424613
0.042658
0.0428668
0.0430301
0.0430497
0.0428146
0.0422747
0.0414959
0.0406024
0.0397056
0.0389109
0.0383746
0.0381682
0.0381852
0.0383164
0.0384917
0.0386672
0.0388166
0.0389258
0.0389914
0.0390201
0.0390278
0.0390333
0.0390505
0.0390802
0.0391114
0.0391301
0.0428529
0.0428769
0.0429291
0.0430136
0.043132
0.0432795
0.0434373
0.0435659
0.0436055
0.0434922
0.0431906
0.0427093
0.0420828
0.041349
0.0405547
0.0397717
0.0391469
0.0388027
0.0386772
0.0386548
0.0386739
0.038706
0.0387477
0.0388094
0.0389079
0.0390601
0.039275
0.0395437
0.0398322
0.0400878
0.0402658
0.0403492
0.0433313
0.0433544
0.0434078
0.043498
0.0436278
0.0437897
0.0439603
0.0440993
0.0441599
0.0441049
0.0439217
0.0436131
0.0431827
0.042634
0.0419855
0.0412851
0.0406632
0.040281
0.0401474
0.0401837
0.0403582
0.0406452
0.0410291
0.0414929
0.0420138
0.0425601
0.0430917
0.0435696
0.0439551
0.0442191
0.0443648
0.0444202
0.0436054
0.043629
0.0436868
0.0437894
0.0439429
0.0441414
0.044363
0.0445716
0.04473
0.0448116
0.044806
0.0447062
0.0445001
0.044178
0.0437515
0.043272
0.04288
0.0427624
0.0429763
0.0434798
0.044232
0.0451511
0.0461462
0.047126
0.0480078
0.0487264
0.0492394
0.0495269
0.0496105
0.0495559
0.0494563
0.0493908
0.043762
0.0437847
0.0438426
0.0439494
0.0441154
0.0443414
0.0446132
0.0449027
0.0451776
0.0454128
0.045594
0.0457064
0.0457276
0.0456377
0.0454426
0.0452029
0.0450817
0.0452854
0.0458764
0.0467982
0.0479537
0.0491914
0.0503666
0.0513723
0.0521516
0.0526884
0.0529959
0.0530971
0.0530355
0.0528784
0.0527091
0.0526063
0.0438741
0.0438937
0.0439465
0.0440479
0.0442123
0.0444464
0.0447446
0.0450887
0.0454539
0.0458177
0.046163
0.0464692
0.0467047
0.0468341
0.0468446
0.046783
0.0468088
0.0471464
0.0478728
0.0488999
0.0500708
0.0512029
0.052163
0.0528977
0.0534247
0.0537853
0.0540161
0.0541388
0.0541679
0.0541232
0.0540422
0.0539796
0.044009
0.0440213
0.0440613
0.0441479
0.0442993
0.0445277
0.0448348
0.0452104
0.0456367
0.0460941
0.0465643
0.0470246
0.0474401
0.0477652
0.0479621
0.0480406
0.0481165
0.0484111
0.0490463
0.0499464
0.0509366
0.0518429
0.0525742
0.0531268
0.0535475
0.0538782
0.0541386
0.0543288
0.0544446
0.0544899
0.0544833
0.0544604
0.0442449
0.0442433
0.0442609
0.0443231
0.0444545
0.0446728
0.0449846
0.0453843
0.0458571
0.0463838
0.0469444
0.0475139
0.0480578
0.0485301
0.0488823
0.0490876
0.049196
0.0493921
0.0498393
0.0505168
0.051283
0.0519919
0.0525783
0.0530526
0.0534531
0.0538072
0.0541186
0.054372
0.0545503
0.0546487
0.0546809
0.0546776
0.0446657
0.0446432
0.0446295
0.0446621
0.0447747
0.0449902
0.0453159
0.0457446
0.046259
0.0468371
0.0474559
0.0480894
0.0487048
0.0492614
0.0497132
0.0500179
0.0501685
0.0502927
0.0505644
0.0510189
0.0515741
0.0521221
0.0526068
0.0530293
0.0534124
0.0537732
0.0541104
0.0544039
0.0546273
0.0547652
0.0548238
0.0548315
0.0453456
0.0452974
0.0452524
0.0452638
0.0453734
0.0456047
0.0459588
0.0464201
0.0469653
0.0475689
0.0482066
0.0488534
0.0494817
0.050058
0.0505452
0.0509014
0.0510886
0.0511814
0.051334
0.0516139
0.0519933
0.0524027
0.0527933
0.0531555
0.0534992
0.0538345
0.0541605
0.05446
0.0547043
0.0548686
0.0549481
0.054965
0.0463355
0.0462651
0.046208
0.0462285
0.046365
0.0466316
0.0470164
0.0474949
0.0480402
0.0486269
0.0492332
0.0498385
0.0504218
0.0509588
0.0514221
0.0517774
0.0519781
0.052061
0.0521471
0.0523102
0.0525556
0.0528457
0.0531428
0.0534323
0.0537161
0.0539999
0.0542843
0.0545575
0.0547949
0.0549677
0.0550607
0.0550856
0.0476655
0.0475913
0.0475666
0.0476407
0.0478282
0.0481267
0.048515
0.0489683
0.0494632
0.0499795
0.0505009
0.0510133
0.0515025
0.0519525
0.0523449
0.0526549
0.0528399
0.0529153
0.0529672
0.0530591
0.0532098
0.0534029
0.0536126
0.0538252
0.0540386
0.0542559
0.0544787
0.0547015
0.0549069
0.0550681
0.055164
0.0551946
0.049363
0.0493244
0.0493841
0.0495313
0.0497522
0.0500389
0.0503756
0.050746
0.0511354
0.0515313
0.051924
0.0523048
0.0526656
0.0529969
0.0532873
0.0535207
0.0536656
0.0537263
0.053759
0.0538091
0.0538961
0.0540144
0.0541487
0.0542887
0.0544317
0.0545787
0.0547319
0.0548902
0.0550443
0.0551748
0.0552603
0.0552921
0.0514794
0.0515206
0.0516548
0.0518164
0.0520002
0.0522072
0.0524327
0.0526704
0.0529137
0.0531568
0.0533949
0.0536239
0.0538397
0.0540374
0.0542112
0.0543522
0.0544417
0.0544805
0.0544989
0.0545237
0.0545677
0.0546299
0.0547024
0.0547793
0.0548585
0.0549403
0.0550261
0.0551165
0.0552085
0.0552922
0.0553528
0.0553789
0.0540857
0.0541229
0.0541946
0.054265
0.0543362
0.0544113
0.0544899
0.0545709
0.0546526
0.0547335
0.0548122
0.0548875
0.0549582
0.0550229
0.0550798
0.0551261
0.0551559
0.0551689
0.0551749
0.0551823
0.0551956
0.0552147
0.0552371
0.0552611
0.0552859
0.0553115
0.0553383
0.0553667
0.0553962
0.0554243
0.0554464
0.0554572
)
;

boundaryField
{
    movingWall
    {
        type            fixedValue;
        value           uniform 0.0555;
    }
    fixedWalls
    {
        type            zeroGradient;
    }
    floor
    {
        type            zeroGradient;
    }
    frontAndBack
    {
        type            empty;
    }
}


// ************************************************************************* //
