/*--------------------------------*- C++ -*----------------------------------*\
| =========                 |                                                 |
| \\      /  F ield         | OpenFOAM: The Open Source CFD Toolbox           |
|  \\    /   O peration     | Version:  2212                                  |
|   \\  /    A nd           | Website:  www.openfoam.com                      |
|    \\/     M anipulation  |                                                 |
\*---------------------------------------------------------------------------*/
FoamFile
{
    version     2.0;
    format      ascii;
    arch        "LSB;label=64;scalar=64";
    class       volScalarField;
    location    "340";
    object      T;
}
// * * * * * * * * * * * * * * * * * * * * * * * * * * * * * * * * * * * * * //

dimensions      [0 0 0 1 0 0 0];

internalField   nonuniform List<scalar> 
1024
(
309.971
309.97
309.967
309.963
309.957
309.952
309.946
309.94
309.934
309.927
309.92
309.91
309.902
309.899
309.909
309.921
309.93
309.938
309.943
309.948
309.952
309.955
309.958
309.961
309.964
309.967
309.97
309.974
309.976
309.979
309.98
309.981
309.91
309.907
309.898
309.884
309.867
309.849
309.831
309.813
309.794
309.773
309.749
309.722
309.699
309.689
309.719
309.753
309.782
309.805
309.822
309.836
309.848
309.858
309.868
309.877
309.887
309.897
309.907
309.917
309.926
309.934
309.938
309.939
309.846
309.84
309.824
309.798
309.767
309.736
309.705
309.674
309.642
309.607
309.568
309.529
309.498
309.484
309.525
309.574
309.62
309.657
309.687
309.711
309.731
309.749
309.766
309.783
309.8
309.817
309.834
309.853
309.87
309.884
309.891
309.894
309.781
309.772
309.747
309.709
309.664
309.619
309.576
309.533
309.491
309.447
309.401
309.362
309.333
309.32
309.356
309.407
309.458
309.503
309.543
309.575
309.604
309.63
309.655
309.679
309.703
309.728
309.754
309.782
309.809
309.83
309.842
309.846
309.719
309.707
309.674
309.624
309.566
309.509
309.456
309.406
309.359
309.315
309.275
309.246
309.225
309.215
309.238
309.275
309.319
309.361
309.402
309.44
309.474
309.506
309.538
309.569
309.6
309.634
309.669
309.707
309.744
309.774
309.791
309.797
309.662
309.649
309.609
309.549
309.48
309.415
309.357
309.306
309.262
309.227
309.202
309.185
309.173
309.165
309.173
309.192
309.219
309.25
309.283
309.319
309.354
309.388
309.424
309.46
309.498
309.539
309.583
309.631
309.678
309.717
309.74
309.748
309.611
309.598
309.555
309.488
309.413
309.344
309.285
309.239
309.205
309.182
309.17
309.163
309.156
309.148
309.146
309.151
309.162
309.178
309.199
309.225
309.255
309.287
309.323
309.361
309.403
309.449
309.501
309.558
309.615
309.663
309.691
309.701
309.567
309.554
309.512
309.443
309.365
309.295
309.24
309.202
309.178
309.166
309.164
309.161
309.155
309.146
309.14
309.137
309.137
309.142
309.15
309.165
309.185
309.211
309.242
309.279
309.322
309.372
309.429
309.493
309.558
309.613
309.646
309.656
309.528
309.517
309.478
309.412
309.335
309.266
309.216
309.185
309.17
309.167
309.169
309.167
309.159
309.149
309.141
309.135
309.13
309.127
309.128
309.133
309.144
309.161
309.186
309.218
309.259
309.309
309.37
309.439
309.51
309.569
309.604
309.614
309.494
309.486
309.454
309.393
309.319
309.253
309.206
309.18
309.172
309.174
309.178
309.176
309.164
309.152
309.144
309.137
309.13
309.124
309.121
309.12
309.123
309.133
309.15
309.177
309.214
309.263
309.324
309.397
309.471
309.532
309.566
309.576
309.464
309.459
309.435
309.386
309.318
309.254
309.208
309.184
309.178
309.184
309.19
309.184
309.169
309.156
309.147
309.14
309.132
309.125
309.12
309.115
309.115
309.119
309.13
309.15
309.183
309.229
309.291
309.365
309.44
309.5
309.532
309.541
309.437
309.434
309.418
309.381
309.328
309.272
309.226
309.199
309.191
309.2
309.202
309.191
309.173
309.158
309.149
309.142
309.135
309.127
309.12
309.115
309.111
309.111
309.118
309.134
309.163
309.207
309.268
309.341
309.415
309.472
309.501
309.509
309.411
309.41
309.4
309.377
309.339
309.296
309.258
309.232
309.221
309.222
309.215
309.196
309.175
309.159
309.151
309.145
309.137
309.129
309.121
309.114
309.109
309.107
309.111
309.124
309.15
309.192
309.253
309.325
309.395
309.447
309.473
309.479
309.385
309.385
309.381
309.368
309.346
309.317
309.29
309.269
309.257
309.245
309.223
309.195
309.172
309.158
309.152
309.147
309.139
309.129
309.12
309.112
309.107
309.104
309.107
309.118
309.143
309.185
309.244
309.315
309.381
309.426
309.447
309.452
309.354
309.355
309.356
309.351
309.341
309.325
309.308
309.292
309.273
309.244
309.21
309.181
309.163
309.155
309.154
309.15
309.14
309.127
309.116
309.108
309.102
309.1
309.104
309.116
309.142
309.185
309.246
309.314
309.371
309.408
309.425
309.428
309.308
309.31
309.313
309.314
309.311
309.302
309.287
309.261
309.228
309.196
309.171
309.156
309.152
309.155
309.158
309.154
309.14
309.122
309.109
309.102
309.098
309.099
309.106
309.124
309.159
309.207
309.264
309.321
309.366
309.393
309.405
309.408
309.223
309.222
309.221
309.217
309.209
309.195
309.175
309.158
309.144
309.136
309.135
309.142
309.152
309.162
309.167
309.159
309.141
309.12
309.11
309.107
309.11
309.12
309.136
309.163
309.199
309.243
309.29
309.332
309.363
309.382
309.39
309.392
309.133
309.131
309.128
309.124
309.119
309.114
309.111
309.111
309.115
309.124
309.137
309.153
309.165
309.172
309.174
309.169
309.157
309.144
309.14
309.143
309.152
309.166
309.187
309.213
309.245
309.279
309.313
309.342
309.362
309.373
309.377
309.377
309.095
309.094
309.093
309.092
309.093
309.095
309.101
309.109
309.121
309.133
309.145
309.157
309.167
309.176
309.183
309.187
309.186
309.184
309.185
309.191
309.203
309.218
309.237
309.258
309.282
309.304
309.324
309.339
309.347
309.348
309.345
309.342
309.078
309.079
309.08
309.082
309.087
309.093
309.101
309.11
309.12
309.129
309.138
309.148
309.158
309.169
309.181
309.192
309.203
309.209
309.214
309.221
309.231
309.242
309.254
309.264
309.273
309.278
309.277
309.267
309.247
309.228
309.216
309.212
309.067
309.068
309.07
309.073
309.078
309.084
309.091
309.098
309.104
309.111
309.117
309.124
309.133
309.143
309.155
309.168
309.18
309.187
309.19
309.189
309.185
309.177
309.163
309.142
309.115
309.084
309.059
309.044
309.041
309.044
309.05
309.053
309.061
309.062
309.063
309.065
309.067
309.07
309.072
309.075
309.078
309.082
309.087
309.092
309.098
309.105
309.114
309.124
309.132
309.136
309.133
309.122
309.103
309.078
309.051
309.025
309.009
309.004
309.001
309
309.001
309.002
309.003
309.004
309.056
309.057
309.058
309.059
309.059
309.059
309.059
309.059
309.058
309.057
309.057
309.059
309.064
309.069
309.076
309.083
309.089
309.091
309.085
309.07
309.049
309.026
309.008
308.998
308.996
308.996
308.996
308.996
308.996
308.996
308.996
308.996
309.052
309.053
309.054
309.054
309.053
309.052
309.05
309.047
309.044
309.04
309.037
309.036
309.036
309.04
309.045
309.052
309.058
309.061
309.056
309.042
309.024
309.008
308.998
308.995
308.995
308.996
308.996
308.997
308.997
308.997
308.996
308.996
309.05
309.05
309.05
309.05
309.049
309.047
309.044
309.04
309.035
309.03
309.025
309.021
309.019
309.02
309.023
309.029
309.035
309.041
309.039
309.029
309.016
309.004
308.998
308.996
308.996
308.997
308.997
308.997
308.998
308.997
308.997
308.997
309.047
309.047
309.048
309.047
309.046
309.044
309.04
309.035
309.03
309.024
309.019
309.014
309.011
309.009
309.01
309.013
309.019
309.026
309.028
309.022
309.013
309.005
309
308.999
308.998
308.998
308.998
308.998
308.998
308.998
308.998
308.998
309.045
309.045
309.046
309.045
309.044
309.041
309.037
309.032
309.027
309.022
309.017
309.012
309.008
309.006
309.005
309.006
309.009
309.014
309.017
309.015
309.011
309.006
309.003
309.001
309
308.999
308.999
308.999
308.999
308.999
308.999
308.998
309.044
309.044
309.044
309.043
309.042
309.039
309.035
309.031
309.026
309.022
309.017
309.013
309.01
309.007
309.005
309.005
309.006
309.008
309.01
309.01
309.008
309.006
309.004
309.002
309.001
309.001
309
309
309
308.999
308.999
308.999
309.042
309.042
309.042
309.042
309.04
309.038
309.035
309.031
309.027
309.024
309.02
309.017
309.013
309.011
309.008
309.007
309.006
309.006
309.007
309.007
309.006
309.005
309.004
309.003
309.002
309.001
309.001
309.001
309
309
309
309
309.041
309.041
309.041
309.041
309.039
309.037
309.035
309.033
309.03
309.027
309.024
309.021
309.018
309.015
309.013
309.01
309.008
309.007
309.006
309.006
309.005
309.005
309.004
309.003
309.003
309.002
309.002
309.001
309.001
309
309
309
309.041
309.041
309.041
309.04
309.039
309.038
309.036
309.035
309.033
309.03
309.028
309.025
309.022
309.019
309.016
309.013
309.01
309.008
309.007
309.006
309.005
309.005
309.004
309.004
309.003
309.003
309.002
309.002
309.001
309.001
309.001
309
309.04
309.04
309.04
309.04
309.039
309.039
309.038
309.036
309.035
309.032
309.03
309.027
309.025
309.021
309.018
309.015
309.012
309.009
309.008
309.007
309.006
309.005
309.004
309.004
309.003
309.003
309.002
309.002
309.002
309.001
309.001
309
)
;

boundaryField
{
    movingWall
    {
        type            zeroGradient;
    }
    fixedWalls
    {
        type            zeroGradient;
    }
    floor
    {
        type            fixedValue;
        value           uniform 310;
    }
    frontAndBack
    {
        type            empty;
    }
}


// ************************************************************************* //
