/*--------------------------------*- C++ -*----------------------------------*\
| =========                 |                                                 |
| \\      /  F ield         | OpenFOAM: The Open Source CFD Toolbox           |
|  \\    /   O peration     | Version:  2212                                  |
|   \\  /    A nd           | Website:  www.openfoam.com                      |
|    \\/     M anipulation  |                                                 |
\*---------------------------------------------------------------------------*/
FoamFile
{
    version     2.0;
    format      ascii;
    arch        "LSB;label=64;scalar=64";
    class       volVectorField;
    location    "340";
    object      U;
}
// * * * * * * * * * * * * * * * * * * * * * * * * * * * * * * * * * * * * * //

dimensions      [0 1 -1 0 0 0 0];

internalField   nonuniform List<vector> 
1024
(
(2.18641e-05 -2.64691e-05 0)
(-0.000193662 4.28496e-05 0)
(-0.000744203 8.7499e-05 0)
(-0.00148427 8.76066e-05 0)
(-0.00227622 8.04643e-05 0)
(-0.00310474 8.17402e-05 0)
(-0.00399877 8.72875e-05 0)
(-0.00495577 9.00844e-05 0)
(-0.0059179 8.61842e-05 0)
(-0.0067497 7.1204e-05 0)
(-0.00717989 3.66113e-05 0)
(-0.00680379 -2.04148e-05 0)
(-0.00505543 -9.47292e-05 0)
(-0.00180537 -0.00012224 0)
(0.00182654 -7.45436e-05 0)
(0.00370648 -3.66784e-05 0)
(0.00473797 -5.25333e-06 0)
(0.0049211 5.18526e-06 0)
(0.00476728 1.28168e-05 0)
(0.00445812 1.59369e-05 0)
(0.00409055 1.82896e-05 0)
(0.00369182 2.11826e-05 0)
(0.00327133 2.40452e-05 0)
(0.00284417 2.58417e-05 0)
(0.00242989 2.60169e-05 0)
(0.0020407 2.55279e-05 0)
(0.00166724 2.7853e-05 0)
(0.00127699 3.7552e-05 0)
(0.00084699 5.15595e-05 0)
(0.000418056 5.41075e-05 0)
(0.000103097 2.59785e-05 0)
(-1.21312e-05 -1.36303e-05 0)
(-7.54378e-05 0.00020946 0)
(-0.000974322 0.000784532 0)
(-0.0026323 0.00110893 0)
(-0.00472398 0.00112613 0)
(-0.00694185 0.00103659 0)
(-0.00920373 0.000957902 0)
(-0.0114978 0.000888744 0)
(-0.0137534 0.000792347 0)
(-0.0157908 0.000639475 0)
(-0.0172763 0.000401741 0)
(-0.0176526 4.22841e-05 0)
(-0.0160938 -0.00045181 0)
(-0.0116908 -0.000984747 0)
(-0.00423637 -0.00122601 0)
(0.00481992 -0.000848232 0)
(0.00965646 -0.000415595 0)
(0.0125212 -0.000146255 0)
(0.0133454 -5.77904e-07 0)
(0.0132054 8.67301e-05 0)
(0.0125842 0.000140512 0)
(0.0117267 0.000183417 0)
(0.0107284 0.000227251 0)
(0.00963041 0.00027169 0)
(0.00847448 0.000311052 0)
(0.00730741 0.000342266 0)
(0.00616024 0.000373674 0)
(0.00502372 0.000427888 0)
(0.00385121 0.0005243 0)
(0.00261925 0.000628234 0)
(0.00142294 0.000630204 0)
(0.000501115 0.000427234 0)
(3.52803e-05 0.000104875 0)
(-0.000214542 0.00108537 0)
(-0.00194115 0.00272639 0)
(-0.00471172 0.00344338 0)
(-0.00801297 0.0033995 0)
(-0.0114117 0.00307332 0)
(-0.0147499 0.00272488 0)
(-0.0179345 0.00237349 0)
(-0.0208176 0.00195827 0)
(-0.0231422 0.00142344 0)
(-0.0244881 0.000715311 0)
(-0.0241986 -0.000238636 0)
(-0.021313 -0.00143949 0)
(-0.0151304 -0.00264871 0)
(-0.00552591 -0.00327685 0)
(0.00676818 -0.00236753 0)
(0.0138387 -0.00121524 0)
(0.0183918 -0.000509017 0)
(0.020163 -9.29982e-05 0)
(0.0203977 0.000166423 0)
(0.019816 0.000340202 0)
(0.0187703 0.000484746 0)
(0.0174233 0.000629683 0)
(0.0158544 0.000778652 0)
(0.0141282 0.000921852 0)
(0.012309 0.00105357 0)
(0.010443 0.00119203 0)
(0.00853888 0.00138197 0)
(0.00657375 0.00165433 0)
(0.00454916 0.00192526 0)
(0.00258937 0.00194852 0)
(0.00101207 0.00146719 0)
(0.000101648 0.000538995 0)
(-0.000333024 0.00278019 0)
(-0.00274557 0.00612988 0)
(-0.00639167 0.0072762 0)
(-0.0105656 0.00698501 0)
(-0.0147218 0.00616925 0)
(-0.0186359 0.00527548 0)
(-0.0221524 0.00436748 0)
(-0.0250815 0.00337503 0)
(-0.0271519 0.00221871 0)
(-0.0279465 0.000815956 0)
(-0.0268056 -0.000938273 0)
(-0.0229718 -0.0029937 0)
(-0.0159293 -0.0049758 0)
(-0.00570351 -0.00606981 0)
(0.00746185 -0.00455713 0)
(0.0159454 -0.00248774 0)
(0.0218436 -0.00118007 0)
(0.0246554 -0.000367056 0)
(0.0255632 0.000168355 0)
(0.0253519 0.000546471 0)
(0.0244479 0.000870085 0)
(0.0230617 0.0011949 0)
(0.0213011 0.00153398 0)
(0.0192452 0.00187728 0)
(0.0169657 0.00221839 0)
(0.0145205 0.00258398 0)
(0.011944 0.00303503 0)
(0.00925361 0.00360522 0)
(0.00648608 0.00415255 0)
(0.00378796 0.00425832 0)
(0.00154692 0.00339831 0)
(0.000170685 0.00142388 0)
(-0.000373143 0.00521794 0)
(-0.00308366 0.0108525 0)
(-0.00714675 0.0124522 0)
(-0.0117241 0.0116995 0)
(-0.0161738 0.0101032 0)
(-0.0202151 0.00836404 0)
(-0.0236594 0.00662413 0)
(-0.0263173 0.00482173 0)
(-0.0279526 0.00285799 0)
(-0.0282062 0.000619678 0)
(-0.0264744 -0.00201729 0)
(-0.0222532 -0.00496735 0)
(-0.0150385 -0.00773948 0)
(-0.00501287 -0.00923944 0)
(0.0073373 -0.00716291 0)
(0.0163779 -0.00416837 0)
(0.0230267 -0.00217239 0)
(0.0266275 -0.000888078 0)
(0.0282597 -1.00895e-06 0)
(0.0285866 0.000658937 0)
(0.0280595 0.00123834 0)
(0.0269012 0.00182675 0)
(0.0252251 0.0024533 0)
(0.023108 0.00311402 0)
(0.0206177 0.00380515 0)
(0.0178171 0.00455795 0)
(0.0147632 0.00543865 0)
(0.0115119 0.006471 0)
(0.00813776 0.00744484 0)
(0.00481761 0.00773045 0)
(0.00200779 0.00639881 0)
(0.000230547 0.0028629 0)
(-0.000314974 0.00804412 0)
(-0.00286304 0.0164122 0)
(-0.00683747 0.018597 0)
(-0.0113613 0.0172611 0)
(-0.0157229 0.0146419 0)
(-0.019591 0.0117968 0)
(-0.0227651 0.00899929 0)
(-0.0250856 0.00621715 0)
(-0.0263775 0.00333427 0)
(-0.0263476 0.000197537 0)
(-0.0244563 -0.00335097 0)
(-0.0202394 -0.00724265 0)
(-0.0132096 -0.0108239 0)
(-0.0037163 -0.0125682 0)
(0.00709547 -0.00997733 0)
(0.0159853 -0.00614603 0)
(0.0227149 -0.0034239 0)
(0.0266057 -0.00164073 0)
(0.0286537 -0.000381057 0)
(0.0294399 0.000607617 0)
(0.0293277 0.00150074 0)
(0.02852 0.00242488 0)
(0.0271072 0.0034326 0)
(0.0251438 0.00453353 0)
(0.0226796 0.00573017 0)
(0.0197717 0.00705425 0)
(0.016489 0.00856599 0)
(0.0129144 0.0102632 0)
(0.00915875 0.0118438 0)
(0.00543784 0.0124122 0)
(0.00227127 0.0104999 0)
(0.000260588 0.00486947 0)
(-0.000193734 0.0107567 0)
(-0.00222137 0.0221223 0)
(-0.00569467 0.0251875 0)
(-0.00981066 0.0233262 0)
(-0.0138262 0.0195649 0)
(-0.0173633 0.015445 0)
(-0.0202189 0.0114479 0)
(-0.022273 0.00759575 0)
(-0.0234051 0.00374798 0)
(-0.0233434 -0.000317243 0)
(-0.0215833 -0.00483236 0)
(-0.0174975 -0.00977802 0)
(-0.0107897 -0.0141928 0)
(-0.00198545 -0.0159706 0)
(0.00721393 -0.0128938 0)
(0.0155135 -0.00830975 0)
(0.0218213 -0.0048302 0)
(0.0255175 -0.00252879 0)
(0.0275206 -0.000903702 0)
(0.0284472 0.000408856 0)
(0.0285682 0.0016345 0)
(0.0280427 0.00293451 0)
(0.0269176 0.00439224 0)
(0.025207 0.00603879 0)
(0.0229282 0.00788639 0)
(0.0201186 0.00996382 0)
(0.0168435 0.0123146 0)
(0.0131997 0.014889 0)
(0.00932811 0.0172507 0)
(0.00548868 0.0181613 0)
(0.00225129 0.0155047 0)
(0.000244974 0.00730176 0)
(-6.36497e-05 0.012888 0)
(-0.00138911 0.0272442 0)
(-0.00408909 0.0316243 0)
(-0.00756073 0.0295204 0)
(-0.0110808 0.0246703 0)
(-0.0142234 0.0192276 0)
(-0.0167754 0.0139817 0)
(-0.0186469 0.00903912 0)
(-0.0197489 0.0042167 0)
(-0.01978 -0.000819398 0)
(-0.0181316 -0.00643668 0)
(-0.0141463 -0.0125863 0)
(-0.0078359 -0.0178065 0)
(9.84635e-05 -0.0194004 0)
(0.00784816 -0.0158642 0)
(0.0153173 -0.0105689 0)
(0.0209353 -0.00629129 0)
(0.0241414 -0.00343183 0)
(0.0257688 -0.00143289 0)
(0.0264651 0.000176599 0)
(0.0265199 0.00171441 0)
(0.0260655 0.00338628 0)
(0.0251112 0.00531841 0)
(0.0236277 0.00757399 0)
(0.0215898 0.0101804 0)
(0.0190019 0.0131619 0)
(0.0159101 0.0165338 0)
(0.0124105 0.0201695 0)
(0.00866767 0.0234344 0)
(0.0049849 0.0246519 0)
(0.00196064 0.0210023 0)
(0.000188713 0.00987435 0)
(3.82768e-05 0.014125 0)
(-0.000559928 0.0310992 0)
(-0.00232912 0.0372757 0)
(-0.00499653 0.0354488 0)
(-0.00793344 0.0297657 0)
(-0.0106582 0.0230753 0)
(-0.0129151 0.0166014 0)
(-0.0146131 0.010582 0)
(-0.0156683 0.00477287 0)
(-0.0157148 -0.00132198 0)
(-0.0140392 -0.00822454 0)
(-0.0100882 -0.0157008 0)
(-0.00428359 -0.0215656 0)
(0.00251275 -0.0227911 0)
(0.00899092 -0.0188417 0)
(0.0154543 -0.0128426 0)
(0.0202452 -0.00772724 0)
(0.0228356 -0.00425367 0)
(0.0239529 -0.00183993 0)
(0.0242057 6.73969e-05 0)
(0.0239512 0.00188921 0)
(0.0233403 0.00389659 0)
(0.0223816 0.00627882 0)
(0.0210213 0.00914926 0)
(0.0191962 0.0125628 0)
(0.0168702 0.0165422 0)
(0.0140581 0.0210632 0)
(0.0108441 0.0258813 0)
(0.00740995 0.0300781 0)
(0.00409723 0.0314376 0)
(0.0015016 0.0264666 0)
(0.000114932 0.0122533 0)
(9.80577e-05 0.014326 0)
(0.000141925 0.0330461 0)
(-0.000599077 0.0414329 0)
(-0.00228352 0.0406378 0)
(-0.00453317 0.0346283 0)
(-0.00681623 0.0268914 0)
(-0.00877095 0.0192421 0)
(-0.0102514 0.0121427 0)
(-0.0111512 0.00530755 0)
(-0.0110063 -0.00195581 0)
(-0.00910362 -0.0103177 0)
(-0.00518874 -0.0191364 0)
(-5.41515e-05 -0.0252811 0)
(0.00525613 -0.0260339 0)
(0.0105997 -0.0217384 0)
(0.0158726 -0.0150299 0)
(0.0197125 -0.00905691 0)
(0.0216264 -0.00492216 0)
(0.0222193 -0.00203879 0)
(0.021999 0.000207994 0)
(0.0213494 0.00231135 0)
(0.0204573 0.0046158 0)
(0.0193641 0.00739245 0)
(0.018022 0.0108302 0)
(0.0163468 0.0150345 0)
(0.0142662 0.0200387 0)
(0.0117604 0.0257668 0)
(0.00889745 0.0318027 0)
(0.00587316 0.0368403 0)
(0.00305805 0.0380422 0)
(0.00100559 0.031393 0)
(4.84263e-05 0.014173 0)
(0.000140335 0.0135138 0)
(0.000689339 0.0327307 0)
(0.000947667 0.0430575 0)
(0.000534085 0.0443479 0)
(-0.000720067 0.0389176 0)
(-0.00244283 0.0305253 0)
(-0.00408857 0.0217328 0)
(-0.00536845 0.0134725 0)
(-0.00605846 0.00557006 0)
(-0.00539934 -0.00293698 0)
(-0.00310028 -0.0128987 0)
(0.000601888 -0.0227998 0)
(0.0045796 -0.0286066 0)
(0.00855728 -0.0290193 0)
(0.0126147 -0.0243853 0)
(0.0164898 -0.0169761 0)
(0.019224 -0.0101669 0)
(0.0203952 -0.00536239 0)
(0.0204798 -0.00197533 0)
(0.0198472 0.000663162 0)
(0.0188573 0.0030713 0)
(0.0177026 0.00565295 0)
(0.0164542 0.00876465 0)
(0.0150867 0.0126935 0)
(0.013514 0.0176258 0)
(0.0116417 0.0236262 0)
(0.00942375 0.0305531 0)
(0.00691814 0.0377496 0)
(0.004337 0.0434095 0)
(0.00206609 0.0440475 0)
(0.000573711 0.0354148 0)
(2.45761e-06 0.0155064 0)
(0.000165464 0.0116051 0)
(0.00110298 0.0297878 0)
(0.00222567 0.0412751 0)
(0.0030455 0.0447571 0)
(0.00317594 0.0413738 0)
(0.00261018 0.0338356 0)
(0.00168423 0.0245762 0)
(0.000832282 0.0150016 0)
(0.000365266 0.0053471 0)
(0.00161817 -0.00513882 0)
(0.00401166 -0.0162403 0)
(0.00686633 -0.0257943 0)
(0.00968454 -0.0313692 0)
(0.0123615 -0.0315122 0)
(0.0148864 -0.0264978 0)
(0.0171506 -0.0184493 0)
(0.0186159 -0.010894 0)
(0.018972 -0.00547599 0)
(0.0185632 -0.00160224 0)
(0.0175986 0.00144685 0)
(0.0163971 0.00417414 0)
(0.0151064 0.00702249 0)
(0.0137905 0.0104238 0)
(0.0124337 0.0147726 0)
(0.0109568 0.0203624 0)
(0.00926048 0.0273069 0)
(0.00729164 0.0353769 0)
(0.00511507 0.0435887 0)
(0.00296654 0.0495343 0)
(0.00122958 0.0491467 0)
(0.000247404 0.0383496 0)
(-2.31477e-05 0.0162587 0)
(0.000159366 0.00873544 0)
(0.00129534 0.0241186 0)
(0.00303598 0.0355702 0)
(0.00490702 0.0408579 0)
(0.00642657 0.0398849 0)
(0.00737142 0.0342099 0)
(0.00781446 0.0257403 0)
(0.00803411 0.015894 0)
(0.0083743 0.00521509 0)
(0.00965032 -0.00657676 0)
(0.0114948 -0.0184205 0)
(0.013495 -0.0280873 0)
(0.0151452 -0.0333603 0)
(0.0162963 -0.0330959 0)
(0.0170445 -0.0276816 0)
(0.0175241 -0.0191435 0)
(0.0176139 -0.0110307 0)
(0.0171286 -0.00514382 0)
(0.0162515 -0.00086509 0)
(0.0150574 0.00254103 0)
(0.0138214 0.00554392 0)
(0.0125822 0.00862738 0)
(0.0113493 0.0122895 0)
(0.0100908 0.0170257 0)
(0.00873089 0.0232417 0)
(0.00718246 0.031099 0)
(0.00541247 0.0402344 0)
(0.00351949 0.049234 0)
(0.00177705 0.0550179 0)
(0.000549396 0.0531309 0)
(2.13553e-05 0.040147 0)
(-2.905e-05 0.0164912 0)
(0.000119147 0.00537279 0)
(0.0011893 0.0163803 0)
(0.00312645 0.0262363 0)
(0.00558804 0.0323524 0)
(0.00810003 0.0335235 0)
(0.0103361 0.030148 0)
(0.0121752 0.0233816 0)
(0.0136889 0.0143606 0)
(0.0151644 0.00374085 0)
(0.0169135 -0.00854035 0)
(0.0185475 -0.0203778 0)
(0.0197117 -0.0294847 0)
(0.0200175 -0.0340399 0)
(0.0194452 -0.0332199 0)
(0.0182876 -0.0274753 0)
(0.0169637 -0.0187249 0)
(0.0157455 -0.0103666 0)
(0.014542 -0.00425832 0)
(0.0132355 0.000254968 0)
(0.0120725 0.00382218 0)
(0.0110449 0.0069788 0)
(0.0100574 0.0102497 0)
(0.00904973 0.0141838 0)
(0.0079603 0.0193585 0)
(0.00671086 0.0262669 0)
(0.0052456 0.035061 0)
(0.00359394 0.0451629 0)
(0.00193391 0.0546062 0)
(0.000614131 0.0596103 0)
(-7.21018e-05 0.0556704 0)
(-0.000179062 0.0406808 0)
(-4.32131e-05 0.0162557 0)
(6.27413e-05 0.00228408 0)
(0.000805543 0.00824253 0)
(0.00239724 0.0149795 0)
(0.00474173 0.0204268 0)
(0.00750241 0.0227688 0)
(0.0103598 0.0213904 0)
(0.0131258 0.016621 0)
(0.0158193 0.00907545 0)
(0.0187019 -0.00116029 0)
(0.0212488 -0.0123389 0)
(0.0229479 -0.02251 0)
(0.0233666 -0.0298553 0)
(0.0223437 -0.033025 0)
(0.0200988 -0.031442 0)
(0.0172002 -0.0255183 0)
(0.0143971 -0.0169844 0)
(0.012291 -0.00881882 0)
(0.0107875 -0.0028483 0)
(0.00951266 0.00154086 0)
(0.00870303 0.0050168 0)
(0.00807211 0.00820049 0)
(0.00743296 0.0116298 0)
(0.0066784 0.0158795 0)
(0.00570321 0.0216031 0)
(0.00435338 0.0294046 0)
(0.00269955 0.0393291 0)
(0.00106003 0.0503078 0)
(-0.000220399 0.0595517 0)
(-0.00082834 0.0624832 0)
(-0.00080463 0.0560679 0)
(-0.000434936 0.0396467 0)
(-6.69764e-05 0.0153625 0)
(7.84945e-06 0.000519863 0)
(0.000338682 0.00260002 0)
(0.00125658 0.00568269 0)
(0.00293156 0.00885834 0)
(0.00532579 0.0106704 0)
(0.00830125 0.00997823 0)
(0.0117254 0.00621348 0)
(0.0153249 -0.000903554 0)
(0.0187137 -0.00943669 0)
(0.0212505 -0.0176602 0)
(0.0223923 -0.0245342 0)
(0.0218138 -0.0289683 0)
(0.0195155 -0.0301256 0)
(0.0159083 -0.0276535 0)
(0.0118488 -0.0218343 0)
(0.00844071 -0.0141812 0)
(0.00637803 -0.00682547 0)
(0.00547871 -0.00142914 0)
(0.00498335 0.00232511 0)
(0.00462693 0.00544917 0)
(0.00418361 0.00859596 0)
(0.00348088 0.0123049 0)
(0.00240423 0.0172681 0)
(0.0010086 0.0243347 0)
(-0.000703485 0.0343976 0)
(-0.00221681 0.0451609 0)
(-0.00317119 0.0551322 0)
(-0.00336533 0.0616205 0)
(-0.00282664 0.0613956 0)
(-0.00183874 0.0526227 0)
(-0.000814752 0.0357147 0)
(-0.000106757 0.0132531 0)
(9.52568e-06 -0.000157576 0)
(0.000245001 -0.000305327 0)
(0.000893855 -0.000362064 0)
(0.00214309 -0.000602137 0)
(0.00407667 -0.00164631 0)
(0.00660416 -0.00417884 0)
(0.00943175 -0.00821457 0)
(0.0121856 -0.0126117 0)
(0.0142951 -0.0170876 0)
(0.015286 -0.0211903 0)
(0.0148132 -0.024293 0)
(0.01269 -0.0256937 0)
(0.00915167 -0.024999 0)
(0.00477419 -0.0221014 0)
(0.000579766 -0.0170966 0)
(-0.00196043 -0.0114415 0)
(-0.00273818 -0.00612856 0)
(-0.00254918 -0.00173338 0)
(-0.00300943 0.00212284 0)
(-0.00377744 0.00581422 0)
(-0.00477902 0.00980849 0)
(-0.00604105 0.0147936 0)
(-0.00744491 0.0212699 0)
(-0.00870059 0.0293891 0)
(-0.00946932 0.038715 0)
(-0.00953013 0.0476765 0)
(-0.0087717 0.0545862 0)
(-0.00724836 0.057284 0)
(-0.00520616 0.0537665 0)
(-0.0030472 0.043411 0)
(-0.00124393 0.0276316 0)
(-0.00015062 0.00946167 0)
(3.54418e-05 -0.00119034 0)
(0.000301565 -0.0033016 0)
(0.000835149 -0.00530709 0)
(0.00166018 -0.00725826 0)
(0.00273033 -0.009242 0)
(0.00388918 -0.011331 0)
(0.00485472 -0.0135089 0)
(0.00531722 -0.0156254 0)
(0.00499688 -0.0175076 0)
(0.00367084 -0.0189671 0)
(0.00114049 -0.0197527 0)
(-0.00268067 -0.0195723 0)
(-0.00673521 -0.0185565 0)
(-0.0105409 -0.0167183 0)
(-0.0134345 -0.014047 0)
(-0.0151212 -0.0105132 0)
(-0.015743 -0.00602265 0)
(-0.0160996 -0.0011315 0)
(-0.0172982 0.00348978 0)
(-0.0183899 0.00784685 0)
(-0.0195256 0.0124638 0)
(-0.0204256 0.0177836 0)
(-0.0208316 0.0240002 0)
(-0.0204957 0.0309415 0)
(-0.0192528 0.0379382 0)
(-0.017106 0.0437551 0)
(-0.0141813 0.0469518 0)
(-0.0107373 0.0460336 0)
(-0.00715477 0.0400606 0)
(-0.00389723 0.0295139 0)
(-0.00145868 0.0166864 0)
(-0.000145994 0.00480228 0)
(1.15234e-05 -0.00184405 0)
(4.53054e-05 -0.00470362 0)
(3.91265e-05 -0.00698692 0)
(-7.74801e-05 -0.00878833 0)
(-0.000405024 -0.0102033 0)
(-0.00107334 -0.0112934 0)
(-0.00223211 -0.0120772 0)
(-0.00401331 -0.0125985 0)
(-0.00647026 -0.0129796 0)
(-0.00953768 -0.0133448 0)
(-0.0130404 -0.0137146 0)
(-0.0167659 -0.0140319 0)
(-0.0205067 -0.0140587 0)
(-0.0240264 -0.0134337 0)
(-0.027035 -0.0118665 0)
(-0.0293149 -0.0091326 0)
(-0.0308864 -0.00497168 0)
(-0.032176 8.82377e-05 0)
(-0.0333266 0.00491889 0)
(-0.0343635 0.00937654 0)
(-0.0350229 0.0137121 0)
(-0.0348897 0.0181099 0)
(-0.0336611 0.0226113 0)
(-0.0311854 0.0269992 0)
(-0.0275061 0.0307324 0)
(-0.0228761 0.032964 0)
(-0.0176962 0.0327189 0)
(-0.0124387 0.0291654 0)
(-0.007595 0.0222291 0)
(-0.00368409 0.0132856 0)
(-0.00117099 0.00514987 0)
(-8.62928e-05 0.000443472 0)
(-3.52865e-05 -0.00151576 0)
(-0.000460778 -0.00363529 0)
(-0.00136227 -0.00507528 0)
(-0.0027832 -0.00592972 0)
(-0.00467171 -0.00631734 0)
(-0.00697039 -0.00640878 0)
(-0.00963224 -0.00642721 0)
(-0.0126063 -0.00658794 0)
(-0.015839 -0.00702168 0)
(-0.0192924 -0.00773877 0)
(-0.0229406 -0.00862871 0)
(-0.0267417 -0.00950942 0)
(-0.0306134 -0.01014 0)
(-0.0344183 -0.0102174 0)
(-0.0379549 -0.00940419 0)
(-0.0410001 -0.00733762 0)
(-0.0434335 -0.00361645 0)
(-0.0451962 0.00124867 0)
(-0.0462268 0.00597788 0)
(-0.0470824 0.0101524 0)
(-0.0471922 0.0136317 0)
(-0.046062 0.016405 0)
(-0.0433271 0.0184765 0)
(-0.0388448 0.0197607 0)
(-0.0327481 0.0200414 0)
(-0.0254984 0.0189813 0)
(-0.0178753 0.0162126 0)
(-0.0108109 0.0115189 0)
(-0.00518357 0.00553718 0)
(-0.00162597 0.000733252 0)
(-0.00012683 -0.00151146 0)
(7.81941e-05 -0.0011769 0)
(-9.25135e-05 0.000377445 0)
(-0.000903917 0.00129096 0)
(-0.00246734 0.00204112 0)
(-0.00473282 0.00228927 0)
(-0.00749324 0.00198709 0)
(-0.0105589 0.00132163 0)
(-0.0138001 0.000465695 0)
(-0.0171473 -0.000525377 0)
(-0.0205778 -0.00164771 0)
(-0.0240883 -0.00286896 0)
(-0.0276933 -0.00413901 0)
(-0.0314396 -0.00543343 0)
(-0.0353134 -0.00653247 0)
(-0.0392435 -0.00713952 0)
(-0.0430578 -0.00690689 0)
(-0.0464953 -0.00543071 0)
(-0.0492934 -0.00225204 0)
(-0.0510576 0.00222181 0)
(-0.0520304 0.00663791 0)
(-0.05258 0.01021 0)
(-0.0521826 0.012368 0)
(-0.0503209 0.0128504 0)
(-0.0466174 0.0115671 0)
(-0.0409884 0.00849422 0)
(-0.0337643 0.00364103 0)
(-0.0257922 -0.00238978 0)
(-0.0180127 -0.00783487 0)
(-0.0110976 -0.0109092 0)
(-0.00558337 -0.0102816 0)
(-0.00189874 -0.00692433 0)
(-0.000184114 -0.00285211 0)
(8.76094e-05 -0.000308684 0)
(-7.66201e-05 0.00221769 0)
(-0.000775153 0.00565743 0)
(-0.00210473 0.00792724 0)
(-0.00404095 0.00889449 0)
(-0.00645219 0.00878608 0)
(-0.00923393 0.00798918 0)
(-0.0123133 0.00680283 0)
(-0.0156363 0.00535912 0)
(-0.0191588 0.00369082 0)
(-0.0228362 0.00181553 0)
(-0.0266011 -0.00016395 0)
(-0.0303398 -0.00197196 0)
(-0.0340065 -0.00343562 0)
(-0.037766 -0.00443576 0)
(-0.0414888 -0.00466284 0)
(-0.0448679 -0.00371365 0)
(-0.0475126 -0.00111404 0)
(-0.0488966 0.00288831 0)
(-0.0495129 0.00691737 0)
(-0.0495213 0.00983138 0)
(-0.0486096 0.0107242 0)
(-0.0464112 0.00913771 0)
(-0.0427089 0.00503312 0)
(-0.0375805 -0.00120817 0)
(-0.0319183 -0.00843356 0)
(-0.0263129 -0.0151841 0)
(-0.0207407 -0.020816 0)
(-0.0152896 -0.0238924 0)
(-0.0100256 -0.0230135 0)
(-0.00526258 -0.0175725 0)
(-0.00173125 -0.00907943 0)
(-0.000107074 -0.00178958 0)
(-3.86155e-05 0.00335396 0)
(-0.000480961 0.00847381 0)
(-0.0014008 0.0119147 0)
(-0.00282359 0.0135518 0)
(-0.00465634 0.0136825 0)
(-0.00679346 0.0128164 0)
(-0.00915178 0.0113875 0)
(-0.0116845 0.00963712 0)
(-0.014388 0.0076705 0)
(-0.017303 0.00554764 0)
(-0.0205006 0.00333661 0)
(-0.0240464 0.00113765 0)
(-0.0278633 -0.000849733 0)
(-0.031389 -0.00221959 0)
(-0.034835 -0.0028206 0)
(-0.0378932 -0.00233812 0)
(-0.0400494 -0.000315784 0)
(-0.0408265 0.00318108 0)
(-0.0407455 0.00683459 0)
(-0.0399695 0.00925396 0)
(-0.038499 0.00936099 0)
(-0.0362626 0.00662977 0)
(-0.0332768 0.00119128 0)
(-0.0297282 -0.00606873 0)
(-0.0268868 -0.0140072 0)
(-0.0239305 -0.0222523 0)
(-0.0206362 -0.0297982 0)
(-0.0167654 -0.0350678 0)
(-0.0122351 -0.0361775 0)
(-0.00733043 -0.031271 0)
(-0.00291069 -0.0198614 0)
(-0.000256742 -0.00577026 0)
(-8.38036e-06 0.0038777 0)
(-0.000225478 0.00995154 0)
(-0.000764681 0.0142239 0)
(-0.00168069 0.0164308 0)
(-0.00291133 0.0168046 0)
(-0.00434393 0.0159054 0)
(-0.00587254 0.0142894 0)
(-0.0074403 0.0123167 0)
(-0.00905734 0.0101698 0)
(-0.0107982 0.00794137 0)
(-0.0127886 0.00569733 0)
(-0.0151901 0.00350416 0)
(-0.0181778 0.00144057 0)
(-0.021896 -0.000332018 0)
(-0.0252544 -0.00134622 0)
(-0.0280068 -0.00131174 0)
(-0.0295794 0.000128213 0)
(-0.0298033 0.00304309 0)
(-0.0288127 0.00625675 0)
(-0.0270508 0.00826667 0)
(-0.0248095 0.0079523 0)
(-0.0222917 0.0048111 0)
(-0.0196096 -0.000903313 0)
(-0.0183063 -0.00788068 0)
(-0.0176293 -0.0158542 0)
(-0.0171834 -0.024731 0)
(-0.0164611 -0.0337489 0)
(-0.0149134 -0.0414146 0)
(-0.0121523 -0.0455229 0)
(-0.00821086 -0.0430513 0)
(-0.00383811 -0.0310741 0)
(-0.000454905 -0.0107809 0)
(-1.07959e-06 0.00405874 0)
(-0.000115894 0.0106005 0)
(-0.000417581 0.0153707 0)
(-0.000934212 0.0179466 0)
(-0.00160978 0.018463 0)
(-0.00233621 0.0174878 0)
(-0.00300507 0.0156794 0)
(-0.00356758 0.0135172 0)
(-0.0040584 0.0112573 0)
(-0.00458096 0.00901452 0)
(-0.00528455 0.00685464 0)
(-0.00635538 0.00482729 0)
(-0.00801413 0.00296245 0)
(-0.0104707 0.00128649 0)
(-0.0137946 -3.09686e-05 0)
(-0.0166285 -0.00047629 0)
(-0.0179015 0.000357379 0)
(-0.0178284 0.00260954 0)
(-0.0160469 0.00527164 0)
(-0.0133359 0.00691045 0)
(-0.0103021 0.00644567 0)
(-0.00746708 0.00344171 0)
(-0.00501604 -0.00159362 0)
(-0.00510661 -0.00765263 0)
(-0.00599075 -0.0149844 0)
(-0.00754863 -0.0236629 0)
(-0.00925955 -0.0333983 0)
(-0.0103745 -0.0429875 0)
(-0.0101016 -0.0502601 0)
(-0.0080004 -0.0514095 0)
(-0.00449592 -0.0411492 0)
(-0.000690831 -0.0164839 0)
(-2.76961e-05 0.0041991 0)
(-0.000231271 0.0109955 0)
(-0.00050142 0.0159367 0)
(-0.000759091 0.0185669 0)
(-0.000923661 0.0190246 0)
(-0.000914777 0.0178851 0)
(-0.000662481 0.0158772 0)
(-0.000174369 0.0135537 0)
(0.000449469 0.0112311 0)
(0.00106941 0.00905413 0)
(0.00154096 0.00705033 0)
(0.00169778 0.0052454 0)
(0.00136867 0.00364655 0)
(0.000396703 0.00222896 0)
(-0.00145829 0.000987564 0)
(-0.00381969 0.000248367 0)
(-0.00528196 0.000539572 0)
(-0.00523055 0.00208978 0)
(-0.00309 0.004084 0)
(0.000417929 0.00534635 0)
(0.00407854 0.00468812 0)
(0.00689608 0.00194486 0)
(0.00848534 -0.00200145 0)
(0.00787861 -0.00681129 0)
(0.00616245 -0.012866 0)
(0.00349029 -0.0203614 0)
(-2.42322e-05 -0.0298062 0)
(-0.00364079 -0.0403679 0)
(-0.00622735 -0.0502922 0)
(-0.00667501 -0.0555594 0)
(-0.00482517 -0.0489164 0)
(-0.000980288 -0.0224558 0)
(-0.000118213 0.00461413 0)
(-0.000697213 0.0116558 0)
(-0.00114776 0.0163764 0)
(-0.00122797 0.0186137 0)
(-0.00083714 0.0187202 0)
(4.94785e-05 0.0172688 0)
(0.00137286 0.0150406 0)
(0.00298497 0.0126623 0)
(0.00472059 0.0104109 0)
(0.00643704 0.0083821 0)
(0.00800636 0.00658042 0)
(0.00929695 0.00500417 0)
(0.010186 0.00364218 0)
(0.0105679 0.00247299 0)
(0.0103011 0.00146905 0)
(0.00938876 0.000755183 0)
(0.00854654 0.000759882 0)
(0.00878268 0.00169001 0)
(0.0109758 0.0029412 0)
(0.0144611 0.00365823 0)
(0.0180268 0.00303829 0)
(0.0205365 0.000951874 0)
(0.0214606 -0.00206703 0)
(0.0205189 -0.00591444 0)
(0.0182288 -0.0108379 0)
(0.0147567 -0.0170353 0)
(0.0102167 -0.0247985 0)
(0.00492644 -0.0343931 0)
(-0.000458744 -0.0459116 0)
(-0.00400348 -0.0552179 0)
(-0.0046456 -0.0536427 0)
(-0.00130626 -0.0283084 0)
(-0.000340937 0.00571593 0)
(-0.00171256 0.0130003 0)
(-0.00244442 0.0168894 0)
(-0.00223449 0.0181641 0)
(-0.00104981 0.0175966 0)
(0.0010414 0.015709 0)
(0.00362322 0.0133726 0)
(0.00648569 0.0110755 0)
(0.00942491 0.00900364 0)
(0.0123144 0.00719839 0)
(0.0150532 0.00564103 0)
(0.017541 0.004309 0)
(0.0196821 0.00317876 0)
(0.0213852 0.00222733 0)
(0.0225421 0.00143127 0)
(0.0230799 0.000858027 0)
(0.0233184 0.000783731 0)
(0.0241182 0.0013046 0)
(0.0262713 0.00201171 0)
(0.0294136 0.00237229 0)
(0.0325407 0.00185553 0)
(0.0346324 0.000336732 0)
(0.0351085 -0.00188636 0)
(0.0338048 -0.00476351 0)
(0.030966 -0.00849585 0)
(0.0266854 -0.0133182 0)
(0.0210813 -0.0195746 0)
(0.0144184 -0.0277152 0)
(0.00717828 -0.0382728 0)
(0.000476576 -0.0502612 0)
(-0.00358726 -0.0547799 0)
(-0.00157877 -0.0336904 0)
(-0.000788245 0.00814709 0)
(-0.00338503 0.0151883 0)
(-0.00410582 0.0172276 0)
(-0.00306101 0.0169541 0)
(-0.000449312 0.0154649 0)
(0.00328887 0.013211 0)
(0.00742224 0.0109411 0)
(0.0117574 0.00887728 0)
(0.0160902 0.00709332 0)
(0.0203111 0.00558423 0)
(0.0243319 0.0043167 0)
(0.0280598 0.00325864 0)
(0.0313984 0.00238175 0)
(0.0342495 0.00166203 0)
(0.0365094 0.0010798 0)
(0.0381061 0.000672379 0)
(0.0391968 0.000599412 0)
(0.0405075 0.000893487 0)
(0.0426733 0.00128377 0)
(0.0454641 0.00143692 0)
(0.048082 0.00102532 0)
(0.0497534 -2.98088e-05 0)
(0.0497402 -0.00154464 0)
(0.0480246 -0.00350306 0)
(0.0446973 -0.00606074 0)
(0.0397707 -0.00943569 0)
(0.0332775 -0.0139864 0)
(0.0253572 -0.020319 0)
(0.016372 -0.0293681 0)
(0.00717481 -0.041516 0)
(-0.000967597 -0.0517161 0)
(-0.00154471 -0.0381057 0)
(-0.00159198 0.0129202 0)
(-0.00512411 0.0176554 0)
(-0.00437017 0.0164753 0)
(-0.00102595 0.0143367 0)
(0.00413479 0.0120125 0)
(0.00989766 0.00976672 0)
(0.0158872 0.00779448 0)
(0.0218649 0.0061255 0)
(0.0276487 0.00474649 0)
(0.0331306 0.00362261 0)
(0.0382214 0.0027139 0)
(0.042831 0.0019851 0)
(0.0468726 0.00140613 0)
(0.050268 0.000951811 0)
(0.052951 0.000602495 0)
(0.0549064 0.000372121 0)
(0.0562901 0.000337954 0)
(0.057752 0.000500664 0)
(0.0597856 0.000699621 0)
(0.0621758 0.000744795 0)
(0.0642523 0.000453617 0)
(0.0653605 -0.000191731 0)
(0.064868 -0.00108325 0)
(0.0628058 -0.00222415 0)
(0.0592043 -0.0037166 0)
(0.0540226 -0.00572202 0)
(0.0471806 -0.00854638 0)
(0.0385972 -0.0128009 0)
(0.0283027 -0.0196158 0)
(0.0166817 -0.0304128 0)
(0.00441327 -0.0436216 0)
(-0.000173929 -0.0396604 0)
(-0.00128733 0.0181078 0)
(-0.00301214 0.0181628 0)
(0.00374756 0.0129735 0)
(0.0116289 0.00985469 0)
(0.0196581 0.00754793 0)
(0.0274778 0.00569471 0)
(0.0349473 0.00424697 0)
(0.0419111 0.00312982 0)
(0.0482574 0.00227501 0)
(0.05393 0.00162807 0)
(0.058898 0.00114388 0)
(0.063143 0.000785475 0)
(0.0666599 0.000522881 0)
(0.0694575 0.000332523 0)
(0.071558 0.000197312 0)
(0.0730308 0.000117941 0)
(0.0740877 0.000121009 0)
(0.0752591 0.000199054 0)
(0.0768558 0.000278842 0)
(0.0786365 0.000277648 0)
(0.0800349 0.000117541 0)
(0.080486 -0.000186473 0)
(0.0796313 -0.000582441 0)
(0.0775081 -0.00107769 0)
(0.0741373 -0.00172363 0)
(0.0694589 -0.00260806 0)
(0.0633133 -0.00392371 0)
(0.0553855 -0.00611892 0)
(0.0451388 -0.0101634 0)
(0.0318625 -0.0177653 0)
(0.0155758 -0.0298267 0)
(0.00632292 -0.0334659 0)
(0.0207308 0.0112523 0)
(0.0270142 0.00919734 0)
(0.0401219 0.00540199 0)
(0.0510327 0.0033188 0)
(0.0594913 0.00210371 0)
(0.0663512 0.00131749 0)
(0.0720069 0.000811554 0)
(0.0766362 0.000492789 0)
(0.0803811 0.000294687 0)
(0.0833762 0.000173231 0)
(0.0857413 9.97727e-05 0)
(0.0875778 5.5871e-05 0)
(0.0889699 2.97945e-05 0)
(0.0899868 1.4323e-05 0)
(0.090686 5.19215e-06 0)
(0.0911386 2.10292e-06 0)
(0.0914981 9.26607e-06 0)
(0.0920168 2.47854e-05 0)
(0.0927754 3.58157e-05 0)
(0.09358 3.01807e-05 0)
(0.094095 -4.36557e-06 0)
(0.0940161 -5.72467e-05 0)
(0.0932537 -0.000117249 0)
(0.0918551 -0.000188437 0)
(0.0898353 -0.000281512 0)
(0.0871422 -0.000412963 0)
(0.0836168 -0.000624569 0)
(0.0788634 -0.00102795 0)
(0.071955 -0.00190428 0)
(0.0608903 -0.00400227 0)
(0.0432636 -0.00919459 0)
(0.0285807 -0.0145256 0)
)
;

boundaryField
{
    movingWall
    {
        type            fixedValue;
        value           uniform (0.1 0 0);
    }
    fixedWalls
    {
        type            noSlip;
    }
    floor
    {
        type            noSlip;
    }
    frontAndBack
    {
        type            empty;
    }
}


// ************************************************************************* //
