/*--------------------------------*- C++ -*----------------------------------*\
| =========                 |                                                 |
| \\      /  F ield         | OpenFOAM: The Open Source CFD Toolbox           |
|  \\    /   O peration     | Version:  2212                                  |
|   \\  /    A nd           | Website:  www.openfoam.com                      |
|    \\/     M anipulation  |                                                 |
\*---------------------------------------------------------------------------*/
FoamFile
{
    version     2.0;
    format      ascii;
    arch        "LSB;label=64;scalar=64";
    class       volScalarField;
    location    "340";
    object      Xch;
}
// * * * * * * * * * * * * * * * * * * * * * * * * * * * * * * * * * * * * * //

dimensions      [1 -3 0 0 0 0 0];

internalField   nonuniform List<scalar> 
1024
(
0.0201101
0.0201102
0.0201104
0.0201109
0.0201115
0.0201122
0.0201132
0.0201141
0.0201151
0.0201161
0.020117
0.0201179
0.0201187
0.020119
0.0201185
0.020117
0.0201148
0.0201127
0.0201109
0.0201094
0.0201081
0.020107
0.0201058
0.0201045
0.020103
0.0201014
0.0200998
0.0200985
0.0200975
0.0200968
0.0200965
0.0200963
0.0201101
0.0201102
0.0201105
0.0201109
0.0201115
0.0201123
0.0201132
0.0201142
0.0201152
0.0201162
0.0201171
0.020118
0.0201188
0.0201191
0.0201186
0.020117
0.0201149
0.0201127
0.0201109
0.0201094
0.0201081
0.020107
0.0201058
0.0201045
0.0201031
0.0201015
0.0200999
0.0200986
0.0200976
0.0200969
0.0200965
0.0200963
0.0201101
0.0201103
0.0201105
0.020111
0.0201116
0.0201124
0.0201134
0.0201143
0.0201153
0.0201163
0.0201172
0.0201182
0.020119
0.0201194
0.0201188
0.0201172
0.0201149
0.0201127
0.0201109
0.0201093
0.0201081
0.020107
0.0201059
0.0201047
0.0201032
0.0201017
0.0201002
0.0200988
0.0200977
0.020097
0.0200966
0.0200964
0.0201102
0.0201103
0.0201106
0.0201111
0.0201117
0.0201126
0.0201135
0.0201144
0.0201154
0.0201164
0.0201174
0.0201184
0.0201193
0.0201198
0.0201191
0.0201173
0.0201149
0.0201126
0.0201107
0.0201092
0.0201079
0.0201069
0.0201059
0.0201048
0.0201035
0.020102
0.0201005
0.0200991
0.020098
0.0200972
0.0200967
0.0200966
0.0201102
0.0201103
0.0201106
0.0201111
0.0201118
0.0201127
0.0201136
0.0201145
0.0201154
0.0201164
0.0201174
0.0201186
0.0201198
0.0201205
0.0201197
0.0201175
0.0201147
0.0201122
0.0201103
0.0201087
0.0201076
0.0201066
0.0201057
0.0201048
0.0201036
0.0201022
0.0201008
0.0200994
0.0200982
0.0200974
0.0200969
0.0200968
0.0201102
0.0201104
0.0201107
0.0201111
0.0201118
0.0201126
0.0201135
0.0201143
0.0201152
0.0201162
0.0201174
0.0201189
0.0201204
0.0201214
0.0201204
0.0201177
0.0201143
0.0201115
0.0201094
0.0201079
0.0201068
0.020106
0.0201053
0.0201045
0.0201036
0.0201024
0.020101
0.0200996
0.0200985
0.0200976
0.0200972
0.020097
0.0201102
0.0201103
0.0201106
0.0201111
0.0201117
0.0201124
0.0201132
0.0201139
0.0201148
0.0201158
0.0201172
0.020119
0.0201211
0.0201224
0.0201213
0.0201177
0.0201135
0.0201102
0.0201079
0.0201064
0.0201054
0.0201048
0.0201044
0.0201039
0.0201032
0.0201023
0.0201011
0.0200998
0.0200987
0.0200979
0.0200974
0.0200972
0.0201101
0.0201102
0.0201105
0.0201109
0.0201114
0.020112
0.0201126
0.0201133
0.020114
0.0201151
0.0201166
0.0201189
0.0201218
0.0201237
0.0201222
0.0201176
0.0201123
0.0201082
0.0201057
0.0201041
0.0201033
0.020103
0.0201029
0.0201028
0.0201025
0.0201018
0.0201009
0.0200998
0.0200987
0.020098
0.0200975
0.0200973
0.0201099
0.02011
0.0201102
0.0201105
0.0201109
0.0201114
0.0201118
0.0201123
0.0201129
0.0201139
0.0201157
0.0201185
0.0201224
0.020125
0.0201233
0.0201172
0.0201103
0.0201053
0.0201024
0.0201009
0.0201003
0.0201004
0.0201008
0.0201012
0.0201013
0.020101
0.0201004
0.0200995
0.0200986
0.020098
0.0200976
0.0200974
0.0201095
0.0201096
0.0201098
0.02011
0.0201103
0.0201106
0.0201108
0.0201111
0.0201115
0.0201124
0.0201144
0.020118
0.0201231
0.0201266
0.0201243
0.0201164
0.0201075
0.0201013
0.0200979
0.0200965
0.0200964
0.020097
0.0200979
0.0200989
0.0200996
0.0200998
0.0200995
0.020099
0.0200983
0.0200978
0.0200975
0.0200973
0.0201089
0.020109
0.0201092
0.0201094
0.0201095
0.0201096
0.0201096
0.0201096
0.0201098
0.0201107
0.0201129
0.0201176
0.0201243
0.0201285
0.0201252
0.0201149
0.0201035
0.0200959
0.0200921
0.0200909
0.0200913
0.0200926
0.0200944
0.0200961
0.0200974
0.0200982
0.0200984
0.0200982
0.0200978
0.0200974
0.0200972
0.020097
0.0201081
0.0201082
0.0201083
0.0201085
0.0201086
0.0201085
0.0201083
0.0201081
0.0201081
0.020109
0.0201118
0.020118
0.0201263
0.020131
0.0201259
0.0201123
0.0200981
0.020089
0.0200849
0.0200841
0.0200852
0.0200875
0.0200901
0.0200927
0.0200948
0.0200962
0.0200969
0.0200971
0.020097
0.0200968
0.0200966
0.0200965
0.0201068
0.0201069
0.0201071
0.0201073
0.0201073
0.0201072
0.0201069
0.0201066
0.0201066
0.0201078
0.0201118
0.0201201
0.0201301
0.020134
0.0201256
0.020108
0.0200908
0.0200805
0.0200763
0.0200761
0.0200783
0.0200816
0.0200853
0.0200889
0.0200918
0.0200939
0.0200952
0.0200958
0.020096
0.020096
0.0200959
0.0200958
0.0201047
0.0201048
0.020105
0.0201052
0.0201054
0.0201054
0.0201052
0.0201051
0.0201056
0.0201083
0.0201149
0.0201259
0.0201365
0.0201372
0.0201235
0.020101
0.0200812
0.0200703
0.0200666
0.0200675
0.0200708
0.0200753
0.0200801
0.0200847
0.0200884
0.0200913
0.0200931
0.0200942
0.0200946
0.0200947
0.0200947
0.0200946
0.0201021
0.0201022
0.0201022
0.0201023
0.0201025
0.0201027
0.0201033
0.0201047
0.0201079
0.0201144
0.0201252
0.0201381
0.0201456
0.0201388
0.0201173
0.0200903
0.0200695
0.0200593
0.0200569
0.0200589
0.0200634
0.020069
0.0200749
0.0200804
0.0200851
0.0200887
0.0200911
0.0200925
0.0200932
0.0200934
0.0200933
0.0200932
0.0201075
0.0201075
0.0201075
0.0201077
0.0201083
0.0201097
0.0201125
0.0201173
0.020125
0.0201358
0.0201481
0.0201567
0.0201533
0.0201343
0.0201055
0.0200772
0.0200582
0.0200503
0.0200495
0.0200527
0.020058
0.0200643
0.0200708
0.0200768
0.0200819
0.0200857
0.0200883
0.0200898
0.0200906
0.0200908
0.0200908
0.0200907
0.0201331
0.0201333
0.020134
0.0201352
0.0201373
0.0201408
0.0201459
0.020153
0.0201616
0.0201699
0.0201739
0.0201683
0.0201501
0.0201228
0.0200938
0.0200696
0.0200546
0.0200492
0.0200499
0.0200539
0.0200597
0.0200661
0.0200724
0.020078
0.0200825
0.0200858
0.0200879
0.0200889
0.0200892
0.020089
0.0200888
0.0200887
0.0201647
0.0201653
0.0201665
0.0201686
0.0201716
0.0201757
0.0201806
0.0201858
0.0201896
0.0201895
0.0201825
0.0201676
0.0201465
0.0201226
0.0200987
0.0200776
0.0200634
0.020058
0.0200587
0.0200626
0.0200676
0.0200727
0.020077
0.0200802
0.0200822
0.0200831
0.0200835
0.0200837
0.0200842
0.0200849
0.0200857
0.0200862
0.0201863
0.0201869
0.0201883
0.0201904
0.0201933
0.0201969
0.0202007
0.0202036
0.0202041
0.0202005
0.020192
0.0201788
0.020162
0.0201424
0.0201214
0.0201007
0.0200844
0.0200756
0.0200726
0.0200723
0.0200732
0.0200743
0.0200757
0.0200774
0.0200801
0.0200842
0.0200897
0.0200967
0.0201042
0.0201107
0.0201153
0.0201175
0.0201989
0.0201995
0.0202008
0.020203
0.0202062
0.0202101
0.0202142
0.0202173
0.0202184
0.0202164
0.0202111
0.0202027
0.0201911
0.0201764
0.0201592
0.0201408
0.0201245
0.0201147
0.0201114
0.0201125
0.0201172
0.0201248
0.0201348
0.0201468
0.0201603
0.0201744
0.0201881
0.0202004
0.0202104
0.0202172
0.0202209
0.0202224
0.0202061
0.0202067
0.0202081
0.0202107
0.0202145
0.0202193
0.0202247
0.0202297
0.0202334
0.020235
0.0202345
0.0202315
0.0202258
0.0202171
0.0202057
0.020193
0.0201826
0.0201795
0.020185
0.0201981
0.0202175
0.0202412
0.0202667
0.0202919
0.0203145
0.0203329
0.020346
0.0203534
0.0203555
0.0203542
0.0203517
0.02035
0.0202103
0.0202109
0.0202123
0.020215
0.0202191
0.0202247
0.0202314
0.0202386
0.0202453
0.020251
0.0202553
0.0202578
0.020258
0.0202554
0.02025
0.0202435
0.0202402
0.0202452
0.0202604
0.020284
0.0203137
0.0203453
0.0203753
0.0204008
0.0204205
0.020434
0.0204417
0.0204442
0.0204426
0.0204386
0.0204343
0.0204317
0.0202133
0.0202138
0.0202151
0.0202177
0.0202218
0.0202276
0.0202351
0.0202437
0.0202528
0.0202619
0.0202704
0.0202779
0.0202836
0.0202866
0.0202866
0.0202847
0.0202852
0.0202937
0.0203123
0.0203386
0.0203685
0.0203973
0.0204215
0.0204399
0.0204529
0.0204616
0.0204671
0.0204699
0.0204706
0.0204694
0.0204674
0.0204659
0.0202169
0.0202172
0.0202182
0.0202203
0.0202241
0.0202299
0.0202376
0.0202471
0.0202578
0.0202692
0.020281
0.0202924
0.0203027
0.0203107
0.0203154
0.0203172
0.020319
0.0203266
0.0203428
0.0203659
0.0203911
0.020414
0.0204323
0.0204459
0.020456
0.0204638
0.0204698
0.0204742
0.0204769
0.020478
0.0204778
0.0204773
0.0202228
0.0202228
0.0202232
0.0202248
0.0202281
0.0202336
0.0202415
0.0202516
0.0202634
0.0202767
0.0202907
0.0203049
0.0203185
0.0203302
0.0203389
0.0203439
0.0203466
0.0203516
0.0203632
0.0203805
0.0204
0.0204179
0.0204325
0.0204441
0.0204536
0.0204619
0.0204692
0.020475
0.0204791
0.0204814
0.0204822
0.0204821
0.0202334
0.0202328
0.0202325
0.0202333
0.0202362
0.0202416
0.0202498
0.0202606
0.0202735
0.020288
0.0203034
0.0203193
0.0203346
0.0203485
0.0203597
0.0203672
0.0203709
0.0203742
0.0203813
0.020393
0.0204071
0.0204209
0.0204329
0.0204433
0.0204524
0.0204609
0.0204688
0.0204756
0.0204807
0.0204839
0.0204853
0.0204855
0.0202502
0.020249
0.020248
0.0202483
0.020251
0.0202568
0.0202657
0.0202773
0.0202909
0.020306
0.0203219
0.0203381
0.0203538
0.0203681
0.0203802
0.020389
0.0203937
0.0203961
0.0204001
0.0204074
0.0204171
0.0204274
0.0204371
0.0204459
0.0204542
0.0204621
0.0204698
0.0204767
0.0204824
0.0204861
0.020488
0.0204884
0.0202747
0.020273
0.0202716
0.0202721
0.0202755
0.0202822
0.0202918
0.0203037
0.0203173
0.020332
0.0203471
0.0203622
0.0203767
0.0203901
0.0204016
0.0204104
0.0204154
0.0204176
0.0204199
0.0204241
0.0204304
0.0204377
0.0204451
0.0204522
0.020459
0.0204658
0.0204725
0.0204788
0.0204843
0.0204883
0.0204904
0.020491
0.0203075
0.0203057
0.0203051
0.0203069
0.0203116
0.020319
0.0203287
0.02034
0.0203523
0.0203651
0.0203781
0.0203909
0.0204031
0.0204143
0.020424
0.0204317
0.0204363
0.0204382
0.0204396
0.020442
0.0204459
0.0204508
0.020456
0.0204612
0.0204664
0.0204716
0.0204768
0.020482
0.0204868
0.0204905
0.0204927
0.0204934
0.0203493
0.0203484
0.0203498
0.0203535
0.0203589
0.020366
0.0203744
0.0203836
0.0203933
0.0204031
0.0204129
0.0204224
0.0204313
0.0204396
0.0204468
0.0204526
0.0204562
0.0204577
0.0204586
0.0204599
0.0204622
0.0204652
0.0204685
0.020472
0.0204754
0.020479
0.0204826
0.0204863
0.0204899
0.0204928
0.0204948
0.0204955
0.0204013
0.0204024
0.0204057
0.0204096
0.0204142
0.0204193
0.0204249
0.0204308
0.0204368
0.0204428
0.0204488
0.0204545
0.0204598
0.0204647
0.0204691
0.0204726
0.0204748
0.0204758
0.0204763
0.0204769
0.0204781
0.0204796
0.0204814
0.0204833
0.0204853
0.0204872
0.0204893
0.0204914
0.0204935
0.0204954
0.0204968
0.0204974
0.0204653
0.0204662
0.020468
0.0204697
0.0204715
0.0204733
0.0204753
0.0204773
0.0204793
0.0204813
0.0204833
0.0204852
0.0204869
0.0204885
0.0204899
0.0204911
0.0204918
0.0204922
0.0204923
0.0204925
0.0204929
0.0204933
0.0204939
0.0204945
0.0204951
0.0204957
0.0204963
0.020497
0.0204977
0.0204983
0.0204988
0.0204991
)
;

boundaryField
{
    movingWall
    {
        type            fixedValue;
        value           uniform 0.0205;
    }
    fixedWalls
    {
        type            zeroGradient;
    }
    floor
    {
        type            zeroGradient;
    }
    frontAndBack
    {
        type            empty;
    }
}


// ************************************************************************* //
