/*--------------------------------*- C++ -*----------------------------------*\
| =========                 |                                                 |
| \\      /  F ield         | OpenFOAM: The Open Source CFD Toolbox           |
|  \\    /   O peration     | Version:  2212                                  |
|   \\  /    A nd           | Website:  www.openfoam.com                      |
|    \\/     M anipulation  |                                                 |
\*---------------------------------------------------------------------------*/
FoamFile
{
    version     2.0;
    format      ascii;
    arch        "LSB;label=64;scalar=64";
    class       volVectorField;
    location    "0.6";
    object      U;
}
// * * * * * * * * * * * * * * * * * * * * * * * * * * * * * * * * * * * * * //

dimensions      [0 1 -1 0 0 0 0];

internalField   nonuniform List<vector> 
32768
(
(3.5639e-07 -9.79842e-07 0)
(-2.45639e-06 4.0979e-07 0)
(-9.37479e-06 2.17998e-06 0)
(-1.87524e-05 3.2644e-06 0)
(-2.88989e-05 3.58274e-06 0)
(-3.86175e-05 3.44161e-06 0)
(-4.73989e-05 3.15077e-06 0)
(-5.52386e-05 2.89073e-06 0)
(-6.23559e-05 2.72058e-06 0)
(-6.89942e-05 2.63068e-06 0)
(-7.53337e-05 2.58911e-06 0)
(-8.14781e-05 2.56681e-06 0)
(-8.74731e-05 2.54528e-06 0)
(-9.33299e-05 2.51553e-06 0)
(-9.90425e-05 2.47455e-06 0)
(-0.000104598 2.42228e-06 0)
(-0.000109981 2.35976e-06 0)
(-0.000115177 2.28819e-06 0)
(-0.000120172 2.20859e-06 0)
(-0.000124951 2.12179e-06 0)
(-0.000129503 2.02839e-06 0)
(-0.000133814 1.92882e-06 0)
(-0.000137872 1.82345e-06 0)
(-0.000141666 1.71251e-06 0)
(-0.000145185 1.5962e-06 0)
(-0.000148417 1.47471e-06 0)
(-0.000151351 1.3482e-06 0)
(-0.000153976 1.21684e-06 0)
(-0.000156283 1.08087e-06 0)
(-0.00015826 9.40595e-07 0)
(-0.000159898 7.96453e-07 0)
(-0.000161188 6.4909e-07 0)
(-0.000162121 4.99477e-07 0)
(-0.000162691 3.48846e-07 0)
(-0.00016289 1.97194e-07 0)
(-0.000162714 4.22371e-08 0)
(-0.00016216 -1.16123e-07 0)
(-0.000161223 -2.76802e-07 0)
(-0.000159901 -4.38921e-07 0)
(-0.000158193 -6.0186e-07 0)
(-0.000156099 -7.6512e-07 0)
(-0.000153617 -9.28239e-07 0)
(-0.000150751 -1.09074e-06 0)
(-0.000147501 -1.25213e-06 0)
(-0.000143871 -1.41186e-06 0)
(-0.000139867 -1.56938e-06 0)
(-0.000135495 -1.72409e-06 0)
(-0.000130762 -1.8754e-06 0)
(-0.000125677 -2.02266e-06 0)
(-0.000120251 -2.16525e-06 0)
(-0.000114496 -2.3025e-06 0)
(-0.000108426 -2.43378e-06 0)
(-0.000102056 -2.55843e-06 0)
(-9.54028e-05 -2.67583e-06 0)
(-8.84844e-05 -2.78541e-06 0)
(-8.13203e-05 -2.88661e-06 0)
(-7.39312e-05 -2.9789e-06 0)
(-6.6339e-05 -3.06178e-06 0)
(-5.85667e-05 -3.13475e-06 0)
(-5.06388e-05 -3.19722e-06 0)
(-4.25805e-05 -3.24852e-06 0)
(-3.44186e-05 -3.28792e-06 0)
(-2.61812e-05 -3.31465e-06 0)
(-1.78974e-05 -3.32799e-06 0)
(-9.59678e-06 -3.32733e-06 0)
(-1.3067e-06 -3.31306e-06 0)
(6.94417e-06 -3.28714e-06 0)
(1.51256e-05 -3.25116e-06 0)
(2.32174e-05 -3.20541e-06 0)
(3.11963e-05 -3.15016e-06 0)
(3.904e-05 -3.0857e-06 0)
(4.67272e-05 -3.01217e-06 0)
(5.4237e-05 -2.92978e-06 0)
(6.1549e-05 -2.83884e-06 0)
(6.86436e-05 -2.73972e-06 0)
(7.55022e-05 -2.63284e-06 0)
(8.21069e-05 -2.51869e-06 0)
(8.84411e-05 -2.39777e-06 0)
(9.44895e-05 -2.27063e-06 0)
(0.000100238 -2.13786e-06 0)
(0.000105673 -2.00005e-06 0)
(0.000110783 -1.85779e-06 0)
(0.000115558 -1.71167e-06 0)
(0.00011999 -1.56225e-06 0)
(0.000124069 -1.41007e-06 0)
(0.000127789 -1.25562e-06 0)
(0.000131146 -1.09935e-06 0)
(0.000134133 -9.41646e-07 0)
(0.000136748 -7.82856e-07 0)
(0.000138989 -6.2334e-07 0)
(0.000140852 -4.635e-07 0)
(0.000142338 -3.03849e-07 0)
(0.000143445 -1.45128e-07 0)
(0.000144177 1.1536e-08 0)
(0.000144535 1.64734e-07 0)
(0.000144524 3.13764e-07 0)
(0.00014415 4.602e-07 0)
(0.000143422 6.03781e-07 0)
(0.000142349 7.43969e-07 0)
(0.000140941 8.80266e-07 0)
(0.000139207 1.01229e-06 0)
(0.000137158 1.13977e-06 0)
(0.000134805 1.26254e-06 0)
(0.000132159 1.38047e-06 0)
(0.00012923 1.49344e-06 0)
(0.000126028 1.60128e-06 0)
(0.000122565 1.70377e-06 0)
(0.000118852 1.80065e-06 0)
(0.000114901 1.89157e-06 0)
(0.000110723 1.97607e-06 0)
(0.00010633 2.05351e-06 0)
(0.000101737 2.12308e-06 0)
(9.69565e-05 2.1837e-06 0)
(9.20036e-05 2.23415e-06 0)
(8.6893e-05 2.27336e-06 0)
(8.16375e-05 2.30137e-06 0)
(7.62428e-05 2.32124e-06 0)
(7.06972e-05 2.34211e-06 0)
(6.49537e-05 2.38288e-06 0)
(5.89065e-05 2.47334e-06 0)
(5.2371e-05 2.64652e-06 0)
(4.5097e-05 2.91342e-06 0)
(3.6856e-05 3.21628e-06 0)
(2.76416e-05 3.37592e-06 0)
(1.79506e-05 3.08507e-06 0)
(8.96156e-06 2.04329e-06 0)
(2.33597e-06 3.40465e-07 0)
(-3.43986e-07 -9.64233e-07 0)
(-4.36424e-07 5.24973e-06 0)
(-8.48084e-06 2.00162e-05 0)
(-2.31442e-05 3.1633e-05 0)
(-4.10803e-05 3.71506e-05 0)
(-5.93234e-05 3.73462e-05 0)
(-7.60509e-05 3.45646e-05 0)
(-9.06274e-05 3.09717e-05 0)
(-0.000103201 2.78306e-05 0)
(-0.000114246 2.55539e-05 0)
(-0.000124251 2.40572e-05 0)
(-0.000133583 2.30854e-05 0)
(-0.000142467 2.23956e-05 0)
(-0.000151023 2.18202e-05 0)
(-0.000159302 2.12639e-05 0)
(-0.000167317 2.06809e-05 0)
(-0.000175067 2.00528e-05 0)
(-0.000182538 1.93743e-05 0)
(-0.000189717 1.86453e-05 0)
(-0.000196587 1.78676e-05 0)
(-0.000203135 1.70429e-05 0)
(-0.000209344 1.61728e-05 0)
(-0.000215198 1.52589e-05 0)
(-0.000220683 1.43021e-05 0)
(-0.000225784 1.33035e-05 0)
(-0.000230486 1.22639e-05 0)
(-0.000234775 1.11839e-05 0)
(-0.000238636 1.00644e-05 0)
(-0.000242055 8.90606e-06 0)
(-0.00024502 7.7097e-06 0)
(-0.000247516 6.47642e-06 0)
(-0.000249531 5.2077e-06 0)
(-0.000251051 3.90573e-06 0)
(-0.000252065 2.57372e-06 0)
(-0.000252561 1.216e-06 0)
(-0.000252529 -1.6277e-07 0)
(-0.000251956 -1.55846e-06 0)
(-0.000250844 -2.96638e-06 0)
(-0.000249186 -4.38285e-06 0)
(-0.00024698 -5.80508e-06 0)
(-0.000244223 -7.23039e-06 0)
(-0.000240914 -8.65591e-06 0)
(-0.000237053 -1.00783e-05 0)
(-0.000232639 -1.14938e-05 0)
(-0.000227676 -1.28982e-05 0)
(-0.000222168 -1.42867e-05 0)
(-0.000216121 -1.56547e-05 0)
(-0.000209543 -1.69967e-05 0)
(-0.000202445 -1.83076e-05 0)
(-0.000194839 -1.95818e-05 0)
(-0.00018674 -2.08139e-05 0)
(-0.000178165 -2.19981e-05 0)
(-0.000169134 -2.3129e-05 0)
(-0.000159668 -2.42011e-05 0)
(-0.000149791 -2.5209e-05 0)
(-0.00013953 -2.61477e-05 0)
(-0.000128912 -2.70124e-05 0)
(-0.000117968 -2.77984e-05 0)
(-0.000106729 -2.85016e-05 0)
(-9.52301e-05 -2.91176e-05 0)
(-8.35061e-05 -2.96421e-05 0)
(-7.15939e-05 -3.00708e-05 0)
(-5.95315e-05 -3.03994e-05 0)
(-4.73581e-05 -3.06241e-05 0)
(-3.51131e-05 -3.07429e-05 0)
(-2.28362e-05 -3.07552e-05 0)
(-1.05659e-05 -3.06628e-05 0)
(1.6671e-06 -3.04697e-05 0)
(1.38147e-05 -3.01831e-05 0)
(2.5844e-05 -2.98099e-05 0)
(3.77258e-05 -2.93549e-05 0)
(4.94275e-05 -2.88208e-05 0)
(6.09186e-05 -2.8209e-05 0)
(7.21693e-05 -2.75214e-05 0)
(8.31506e-05 -2.67603e-05 0)
(9.38345e-05 -2.59288e-05 0)
(0.000104194 -2.50302e-05 0)
(0.000114205 -2.40684e-05 0)
(0.000123842 -2.30475e-05 0)
(0.000133083 -2.19719e-05 0)
(0.000141908 -2.08461e-05 0)
(0.000150298 -1.96749e-05 0)
(0.000158237 -1.84628e-05 0)
(0.000165708 -1.72148e-05 0)
(0.000172698 -1.59352e-05 0)
(0.000179195 -1.46285e-05 0)
(0.00018519 -1.3299e-05 0)
(0.000190673 -1.19505e-05 0)
(0.000195637 -1.05866e-05 0)
(0.000200077 -9.21069e-06 0)
(0.000203988 -7.82597e-06 0)
(0.000207369 -6.43565e-06 0)
(0.000210216 -5.04313e-06 0)
(0.00021253 -3.65226e-06 0)
(0.000214312 -2.26761e-06 0)
(0.000215565 -8.94818e-07 0)
(0.000216293 4.59517e-07 0)
(0.0002165 1.78828e-06 0)
(0.000216197 3.08438e-06 0)
(0.0002154 4.34415e-06 0)
(0.000214121 5.56607e-06 0)
(0.000212375 6.7495e-06 0)
(0.000210175 7.89424e-06 0)
(0.000207535 9.00023e-06 0)
(0.000204469 1.00674e-05 0)
(0.000200992 1.10956e-05 0)
(0.000197116 1.20843e-05 0)
(0.000192855 1.30329e-05 0)
(0.000188225 1.39407e-05 0)
(0.000183238 1.48064e-05 0)
(0.000177909 1.56286e-05 0)
(0.000172253 1.64057e-05 0)
(0.000166285 1.71355e-05 0)
(0.000160019 1.78162e-05 0)
(0.000153469 1.84477e-05 0)
(0.000146646 1.90351e-05 0)
(0.000139554 1.95967e-05 0)
(0.000132176 2.0179e-05 0)
(0.000124462 2.08787e-05 0)
(0.00011629 2.1867e-05 0)
(0.000107429 2.3392e-05 0)
(9.7505e-05 2.57171e-05 0)
(8.60174e-05 2.89356e-05 0)
(7.24763e-05 3.2642e-05 0)
(5.67158e-05 3.55785e-05 0)
(3.93522e-05 3.5589e-05 0)
(2.21816e-05 3.03605e-05 0)
(8.1208e-06 1.91779e-05 0)
(4.21032e-07 5.01873e-06 0)
(-4.91151e-07 1.50856e-05 0)
(-8.90937e-06 4.53473e-05 0)
(-2.34386e-05 6.60898e-05 0)
(-4.04982e-05 7.4193e-05 0)
(-5.70483e-05 7.21703e-05 0)
(-7.13761e-05 6.48265e-05 0)
(-8.30164e-05 5.63598e-05 0)
(-9.22774e-05 4.91545e-05 0)
(-9.97625e-05 4.39412e-05 0)
(-0.000106058 4.04938e-05 0)
(-0.000111604 3.82611e-05 0)
(-0.000116676 3.67246e-05 0)
(-0.000121432 3.55205e-05 0)
(-0.000125949 3.44347e-05 0)
(-0.000130261 3.33573e-05 0)
(-0.000134382 3.22383e-05 0)
(-0.000138314 3.10577e-05 0)
(-0.000142054 2.98091e-05 0)
(-0.000145599 2.84913e-05 0)
(-0.000148942 2.71052e-05 0)
(-0.000152078 2.56519e-05 0)
(-0.000155001 2.41327e-05 0)
(-0.000157705 2.25489e-05 0)
(-0.000160183 2.09016e-05 0)
(-0.000162431 1.9192e-05 0)
(-0.000164441 1.74213e-05 0)
(-0.000166208 1.55906e-05 0)
(-0.000167728 1.37013e-05 0)
(-0.000168994 1.1755e-05 0)
(-0.000170002 9.75328e-06 0)
(-0.000170748 7.69806e-06 0)
(-0.000171228 5.59168e-06 0)
(-0.000171438 3.43726e-06 0)
(-0.000171376 1.23932e-06 0)
(-0.000171034 -9.95124e-07 0)
(-0.000170412 -3.25683e-06 0)
(-0.000169504 -5.53957e-06 0)
(-0.000168304 -7.83981e-06 0)
(-0.000166807 -1.01543e-05 0)
(-0.000165008 -1.24791e-05 0)
(-0.000162905 -1.48095e-05 0)
(-0.000160493 -1.71398e-05 0)
(-0.000157773 -1.94635e-05 0)
(-0.000154742 -2.17733e-05 0)
(-0.000151401 -2.40613e-05 0)
(-0.000147753 -2.63192e-05 0)
(-0.0001438 -2.8538e-05 0)
(-0.000139546 -3.07087e-05 0)
(-0.000134997 -3.28217e-05 0)
(-0.00013016 -3.48677e-05 0)
(-0.000125043 -3.68368e-05 0)
(-0.000119657 -3.87193e-05 0)
(-0.000114014 -4.05058e-05 0)
(-0.000108126 -4.21868e-05 0)
(-0.000102009 -4.37533e-05 0)
(-9.56791e-05 -4.51966e-05 0)
(-8.91536e-05 -4.65087e-05 0)
(-8.24519e-05 -4.76819e-05 0)
(-7.55944e-05 -4.87091e-05 0)
(-6.8602e-05 -4.95837e-05 0)
(-6.14962e-05 -5.02998e-05 0)
(-5.42985e-05 -5.08522e-05 0)
(-4.70299e-05 -5.12375e-05 0)
(-3.97103e-05 -5.14548e-05 0)
(-3.2359e-05 -5.15054e-05 0)
(-2.4994e-05 -5.13931e-05 0)
(-1.76318e-05 -5.11227e-05 0)
(-1.02895e-05 -5.07012e-05 0)
(-2.9836e-06 -5.01374e-05 0)
(4.27103e-06 -4.94376e-05 0)
(1.145e-05 -4.86067e-05 0)
(1.85388e-05 -4.76478e-05 0)
(2.55205e-05 -4.65643e-05 0)
(3.23786e-05 -4.53604e-05 0)
(3.90974e-05 -4.40408e-05 0)
(4.56618e-05 -4.26112e-05 0)
(5.20574e-05 -4.10777e-05 0)
(5.82705e-05 -3.94469e-05 0)
(6.42884e-05 -3.77261e-05 0)
(7.0099e-05 -3.59223e-05 0)
(7.5691e-05 -3.40431e-05 0)
(8.10543e-05 -3.20962e-05 0)
(8.61791e-05 -3.00889e-05 0)
(9.10572e-05 -2.80287e-05 0)
(9.56805e-05 -2.59226e-05 0)
(0.000100042 -2.37776e-05 0)
(0.000104137 -2.16003e-05 0)
(0.000107958 -1.93968e-05 0)
(0.000111503 -1.71732e-05 0)
(0.000114767 -1.49355e-05 0)
(0.000117749 -1.26896e-05 0)
(0.000120449 -1.04418e-05 0)
(0.000122866 -8.19826e-06 0)
(0.000125003 -5.96564e-06 0)
(0.000126863 -3.75074e-06 0)
(0.000128449 -1.56144e-06 0)
(0.000129768 5.92106e-07 0)
(0.000130816 2.69962e-06 0)
(0.000131592 4.75316e-06 0)
(0.000132103 6.74892e-06 0)
(0.000132354 8.68618e-06 0)
(0.000132348 1.0565e-05 0)
(0.00013209 1.23853e-05 0)
(0.000131585 1.4147e-05 0)
(0.000130838 1.58499e-05 0)
(0.000129854 1.74935e-05 0)
(0.000128639 1.9077e-05 0)
(0.000127198 2.05996e-05 0)
(0.000125535 2.20601e-05 0)
(0.000123656 2.34571e-05 0)
(0.000121565 2.47892e-05 0)
(0.000119268 2.60553e-05 0)
(0.000116768 2.72561e-05 0)
(0.000114067 2.83975e-05 0)
(0.000111162 2.94992e-05 0)
(0.00010804 3.06115e-05 0)
(0.000104666 3.18455e-05 0)
(0.00010096 3.34187e-05 0)
(9.67653e-05 3.57019e-05 0)
(9.17981e-05 3.9225e-05 0)
(8.56119e-05 4.45555e-05 0)
(7.76076e-05 5.19367e-05 0)
(6.7165e-05 6.06516e-05 0)
(5.39575e-05 6.83239e-05 0)
(3.84306e-05 7.07725e-05 0)
(2.22685e-05 6.32532e-05 0)
(8.45518e-06 4.33864e-05 0)
(4.65407e-07 1.44183e-05 0)
(-3.73872e-07 2.32911e-05 0)
(-7.69172e-06 6.70081e-05 0)
(-2.03544e-05 9.52042e-05 0)
(-3.48861e-05 0.000104491 0)
(-4.84005e-05 9.91911e-05 0)
(-5.93471e-05 8.65776e-05 0)
(-6.74028e-05 7.28182e-05 0)
(-7.29803e-05 6.13357e-05 0)
(-7.67499e-05 5.31088e-05 0)
(-7.93377e-05 4.7721e-05 0)
(-8.12055e-05 4.4296e-05 0)
(-8.26465e-05 4.20232e-05 0)
(-8.38276e-05 4.03336e-05 0)
(-8.48372e-05 3.889e-05 0)
(-8.57194e-05 3.75157e-05 0)
(-8.64965e-05 3.61273e-05 0)
(-8.71799e-05 3.46891e-05 0)
(-8.77762e-05 3.31873e-05 0)
(-8.82896e-05 3.16176e-05 0)
(-8.87234e-05 2.99789e-05 0)
(-8.90799e-05 2.82716e-05 0)
(-8.93611e-05 2.64965e-05 0)
(-8.9569e-05 2.46545e-05 0)
(-8.97048e-05 2.27467e-05 0)
(-8.97702e-05 2.07741e-05 0)
(-8.97664e-05 1.87381e-05 0)
(-8.96948e-05 1.66404e-05 0)
(-8.95566e-05 1.44829e-05 0)
(-8.93532e-05 1.22676e-05 0)
(-8.90864e-05 9.99719e-06 0)
(-8.87579e-05 7.67421e-06 0)
(-8.83697e-05 5.30154e-06 0)
(-8.79237e-05 2.88225e-06 0)
(-8.74208e-05 4.1985e-07 0)
(-8.68638e-05 -2.08093e-06 0)
(-8.62505e-05 -4.61604e-06 0)
(-8.55766e-05 -7.18252e-06 0)
(-8.48391e-05 -9.7769e-06 0)
(-8.40348e-05 -1.23948e-05 0)
(-8.31608e-05 -1.5031e-05 0)
(-8.22143e-05 -1.76794e-05 0)
(-8.11933e-05 -2.03331e-05 0)
(-8.00954e-05 -2.29844e-05 0)
(-7.89188e-05 -2.56247e-05 0)
(-7.76618e-05 -2.8245e-05 0)
(-7.6323e-05 -3.08355e-05 0)
(-7.49013e-05 -3.33857e-05 0)
(-7.33961e-05 -3.5885e-05 0)
(-7.18072e-05 -3.83221e-05 0)
(-7.0135e-05 -4.06856e-05 0)
(-6.83805e-05 -4.2964e-05 0)
(-6.65453e-05 -4.51454e-05 0)
(-6.46316e-05 -4.72181e-05 0)
(-6.26425e-05 -4.91707e-05 0)
(-6.05818e-05 -5.09918e-05 0)
(-5.8454e-05 -5.26708e-05 0)
(-5.62643e-05 -5.41975e-05 0)
(-5.40187e-05 -5.55627e-05 0)
(-5.17233e-05 -5.67584e-05 0)
(-4.93844e-05 -5.77778e-05 0)
(-4.70075e-05 -5.86159e-05 0)
(-4.45971e-05 -5.92696e-05 0)
(-4.21564e-05 -5.97381e-05 0)
(-3.96867e-05 -6.00231e-05 0)
(-3.71877e-05 -6.01286e-05 0)
(-3.46585e-05 -6.00598e-05 0)
(-3.20975e-05 -5.98227e-05 0)
(-2.9504e-05 -5.94234e-05 0)
(-2.68784e-05 -5.88672e-05 0)
(-2.42223e-05 -5.8158e-05 0)
(-2.15385e-05 -5.7299e-05 0)
(-1.883e-05 -5.62941e-05 0)
(-1.61005e-05 -5.51475e-05 0)
(-1.3354e-05 -5.38635e-05 0)
(-1.05943e-05 -5.24475e-05 0)
(-7.82511e-06 -5.09056e-05 0)
(-5.05056e-06 -4.92446e-05 0)
(-2.27459e-06 -4.74715e-05 0)
(4.98896e-07 -4.5594e-05 0)
(3.26573e-06 -4.36199e-05 0)
(6.02148e-06 -4.15573e-05 0)
(8.76201e-06 -3.94143e-05 0)
(1.1483e-05 -3.71992e-05 0)
(1.41801e-05 -3.49199e-05 0)
(1.68489e-05 -3.25841e-05 0)
(1.94851e-05 -3.01995e-05 0)
(2.20843e-05 -2.77733e-05 0)
(2.46423e-05 -2.53129e-05 0)
(2.71552e-05 -2.28256e-05 0)
(2.96192e-05 -2.03188e-05 0)
(3.20313e-05 -1.78004e-05 0)
(3.43889e-05 -1.52788e-05 0)
(3.66905e-05 -1.27628e-05 0)
(3.89352e-05 -1.02612e-05 0)
(4.11231e-05 -7.78227e-06 0)
(4.32541e-05 -5.33326e-06 0)
(4.53283e-05 -2.91986e-06 0)
(4.73474e-05 -5.47222e-07 0)
(4.93085e-05 1.77838e-06 0)
(5.12028e-05 4.05111e-06 0)
(5.30287e-05 6.26757e-06 0)
(5.47835e-05 8.42616e-06 0)
(5.64642e-05 1.05262e-05 0)
(5.80683e-05 1.25674e-05 0)
(5.95935e-05 1.45492e-05 0)
(6.10373e-05 1.64712e-05 0)
(6.23973e-05 1.83326e-05 0)
(6.36707e-05 2.01328e-05 0)
(6.48549e-05 2.18707e-05 0)
(6.59469e-05 2.35455e-05 0)
(6.69433e-05 2.51563e-05 0)
(6.78405e-05 2.67036e-05 0)
(6.86334e-05 2.81911e-05 0)
(6.93153e-05 2.96318e-05 0)
(6.98743e-05 3.10611e-05 0)
(7.0288e-05 3.25624e-05 0)
(7.05118e-05 3.43146e-05 0)
(7.04568e-05 3.66601e-05 0)
(6.99537e-05 4.01783e-05 0)
(6.87055e-05 4.5697e-05 0)
(6.62429e-05 5.41165e-05 0)
(6.19285e-05 6.58789e-05 0)
(5.50767e-05 8.00252e-05 0)
(4.5258e-05 9.31446e-05 0)
(3.27769e-05 9.90948e-05 0)
(1.91557e-05 9.06961e-05 0)
(7.22336e-06 6.38392e-05 0)
(3.46454e-07 2.21491e-05 0)
(-3.29633e-07 3.04701e-05 0)
(-7.14356e-06 8.61846e-05 0)
(-1.89174e-05 0.000120733 0)
(-3.22218e-05 0.000130355 0)
(-4.42413e-05 0.000121186 0)
(-5.35067e-05 0.000102954 0)
(-5.97733e-05 8.37439e-05 0)
(-6.35158e-05 6.79521e-05 0)
(-6.54452e-05 5.67496e-05 0)
(-6.62104e-05 4.94941e-05 0)
(-6.62847e-05 4.49662e-05 0)
(-6.59666e-05 4.2056e-05 0)
(-6.54264e-05 3.99889e-05 0)
(-6.47548e-05 3.83047e-05 0)
(-6.39992e-05 3.67614e-05 0)
(-6.31848e-05 3.52432e-05 0)
(-6.23269e-05 3.36991e-05 0)
(-6.14357e-05 3.21082e-05 0)
(-6.05193e-05 3.04625e-05 0)
(-5.95846e-05 2.87592e-05 0)
(-5.8638e-05 2.69976e-05 0)
(-5.7685e-05 2.51774e-05 0)
(-5.67311e-05 2.3299e-05 0)
(-5.57813e-05 2.13629e-05 0)
(-5.48401e-05 1.93697e-05 0)
(-5.39119e-05 1.73204e-05 0)
(-5.30007e-05 1.52163e-05 0)
(-5.21103e-05 1.30591e-05 0)
(-5.12443e-05 1.08508e-05 0)
(-5.04059e-05 8.59379e-06 0)
(-4.95981e-05 6.2905e-06 0)
(-4.88236e-05 3.94357e-06 0)
(-4.80848e-05 1.55552e-06 0)
(-4.73827e-05 -8.7139e-07 0)
(-4.67211e-05 -3.33549e-06 0)
(-4.60978e-05 -5.83616e-06 0)
(-4.55128e-05 -8.3714e-06 0)
(-4.49657e-05 -1.09376e-05 0)
(-4.4456e-05 -1.35304e-05 0)
(-4.3983e-05 -1.61443e-05 0)
(-4.35458e-05 -1.87737e-05 0)
(-4.3143e-05 -2.14117e-05 0)
(-4.27731e-05 -2.40512e-05 0)
(-4.24342e-05 -2.6684e-05 0)
(-4.21239e-05 -2.93009e-05 0)
(-4.18399e-05 -3.18925e-05 0)
(-4.15795e-05 -3.44483e-05 0)
(-4.13401e-05 -3.69574e-05 0)
(-4.1119e-05 -3.94084e-05 0)
(-4.09135e-05 -4.17893e-05 0)
(-4.07212e-05 -4.40881e-05 0)
(-4.05397e-05 -4.62924e-05 0)
(-4.0367e-05 -4.83898e-05 0)
(-4.02013e-05 -5.03678e-05 0)
(-4.00411e-05 -5.22145e-05 0)
(-3.98852e-05 -5.39182e-05 0)
(-3.97328e-05 -5.54682e-05 0)
(-3.95831e-05 -5.68549e-05 0)
(-3.94354e-05 -5.80706e-05 0)
(-3.92884e-05 -5.91098e-05 0)
(-3.91401e-05 -5.99698e-05 0)
(-3.89867e-05 -6.06506e-05 0)
(-3.88227e-05 -6.11554e-05 0)
(-3.86408e-05 -6.14892e-05 0)
(-3.84319e-05 -6.16584e-05 0)
(-3.81861e-05 -6.16693e-05 0)
(-3.78935e-05 -6.1527e-05 0)
(-3.75449e-05 -6.12354e-05 0)
(-3.71325e-05 -6.0797e-05 0)
(-3.66499e-05 -6.02129e-05 0)
(-3.6092e-05 -5.94847e-05 0)
(-3.54548e-05 -5.86142e-05 0)
(-3.47351e-05 -5.76042e-05 0)
(-3.39304e-05 -5.64584e-05 0)
(-3.30388e-05 -5.51813e-05 0)
(-3.20588e-05 -5.37784e-05 0)
(-3.09896e-05 -5.22554e-05 0)
(-2.98307e-05 -5.0619e-05 0)
(-2.85821e-05 -4.88759e-05 0)
(-2.72444e-05 -4.70332e-05 0)
(-2.58187e-05 -4.5098e-05 0)
(-2.43065e-05 -4.30777e-05 0)
(-2.27099e-05 -4.09796e-05 0)
(-2.10314e-05 -3.88108e-05 0)
(-1.9274e-05 -3.65786e-05 0)
(-1.74412e-05 -3.429e-05 0)
(-1.55368e-05 -3.19517e-05 0)
(-1.35649e-05 -2.95709e-05 0)
(-1.15298e-05 -2.71546e-05 0)
(-9.43584e-06 -2.47106e-05 0)
(-7.28742e-06 -2.22473e-05 0)
(-5.08865e-06 -1.97739e-05 0)
(-2.84332e-06 -1.73001e-05 0)
(-5.54787e-07 -1.48359e-05 0)
(1.77399e-06 -1.23902e-05 0)
(4.13981e-06 -9.97159e-06 0)
(6.53996e-06 -7.58626e-06 0)
(8.97218e-06 -5.23804e-06 0)
(1.14341e-05 -2.92915e-06 0)
(1.39238e-05 -6.61769e-07 0)
(1.64348e-05 1.56076e-06 0)
(1.89612e-05 3.73573e-06 0)
(2.14976e-05 5.86184e-06 0)
(2.40386e-05 7.93883e-06 0)
(2.65786e-05 9.96643e-06 0)
(2.91117e-05 1.19444e-05 0)
(3.16319e-05 1.38724e-05 0)
(3.41329e-05 1.57501e-05 0)
(3.66083e-05 1.75769e-05 0)
(3.90513e-05 1.93525e-05 0)
(4.14548e-05 2.1077e-05 0)
(4.38112e-05 2.27524e-05 0)
(4.61119e-05 2.43856e-05 0)
(4.83462e-05 2.59965e-05 0)
(5.0499e-05 2.76354e-05 0)
(5.25446e-05 2.94184e-05 0)
(5.44358e-05 3.15902e-05 0)
(5.60812e-05 3.46175e-05 0)
(5.73091e-05 3.92885e-05 0)
(5.78176e-05 4.67353e-05 0)
(5.71274e-05 5.8208e-05 0)
(5.45798e-05 7.43822e-05 0)
(4.94506e-05 9.41121e-05 0)
(4.12509e-05 0.000113017 0)
(3.02096e-05 0.000123047 0)
(1.77704e-05 0.000114601 0)
(6.6942e-06 8.18372e-05 0)
(3.03654e-07 2.8864e-05 0)
(-3.38433e-07 3.74911e-05 0)
(-7.22007e-06 0.000104939 0)
(-1.9043e-05 0.000145519 0)
(-3.22904e-05 0.000155117 0)
(-4.40995e-05 0.000141748 0)
(-5.30022e-05 0.000117648 0)
(-5.87876e-05 9.28371e-05 0)
(-6.19731e-05 7.26683e-05 0)
(-6.33073e-05 5.84793e-05 0)
(-6.34654e-05 4.93777e-05 0)
(-6.29361e-05 4.37848e-05 0)
(-6.20262e-05 4.02825e-05 0)
(-6.09096e-05 3.78861e-05 0)
(-5.9679e-05 3.60119e-05 0)
(-5.83825e-05 3.43524e-05 0)
(-5.70463e-05 3.27597e-05 0)
(-5.56862e-05 3.11682e-05 0)
(-5.43136e-05 2.955e-05 0)
(-5.29376e-05 2.78939e-05 0)
(-5.15662e-05 2.61953e-05 0)
(-5.02068e-05 2.44521e-05 0)
(-4.8866e-05 2.26632e-05 0)
(-4.75503e-05 2.08281e-05 0)
(-4.62656e-05 1.89463e-05 0)
(-4.50172e-05 1.70178e-05 0)
(-4.38102e-05 1.50427e-05 0)
(-4.2649e-05 1.30215e-05 0)
(-4.15377e-05 1.09551e-05 0)
(-4.04799e-05 8.8447e-06 0)
(-3.94785e-05 6.69169e-06 0)
(-3.85362e-05 4.49776e-06 0)
(-3.76547e-05 2.26458e-06 0)
(-3.68354e-05 -6.34727e-09 0)
(-3.60796e-05 -2.31376e-06 0)
(-3.53878e-05 -4.65739e-06 0)
(-3.47603e-05 -7.03632e-06 0)
(-3.4198e-05 -9.44837e-06 0)
(-3.37013e-05 -1.18904e-05 0)
(-3.32704e-05 -1.43585e-05 0)
(-3.29052e-05 -1.68482e-05 0)
(-3.26051e-05 -1.93546e-05 0)
(-3.23691e-05 -2.18721e-05 0)
(-3.21954e-05 -2.43943e-05 0)
(-3.20819e-05 -2.6914e-05 0)
(-3.20261e-05 -2.94229e-05 0)
(-3.2025e-05 -3.19121e-05 0)
(-3.20753e-05 -3.43717e-05 0)
(-3.21736e-05 -3.6791e-05 0)
(-3.23163e-05 -3.91589e-05 0)
(-3.24998e-05 -4.14634e-05 0)
(-3.27204e-05 -4.36924e-05 0)
(-3.29748e-05 -4.58333e-05 0)
(-3.32595e-05 -4.78734e-05 0)
(-3.35715e-05 -4.97999e-05 0)
(-3.39079e-05 -5.16004e-05 0)
(-3.4266e-05 -5.32629e-05 0)
(-3.46435e-05 -5.47763e-05 0)
(-3.50378e-05 -5.61314e-05 0)
(-3.54466e-05 -5.7321e-05 0)
(-3.58667e-05 -5.83413e-05 0)
(-3.62941e-05 -5.9192e-05 0)
(-3.67233e-05 -5.98767e-05 0)
(-3.71471e-05 -6.04022e-05 0)
(-3.75561e-05 -6.0777e-05 0)
(-3.79397e-05 -6.10101e-05 0)
(-3.82858e-05 -6.11087e-05 0)
(-3.85828e-05 -6.10773e-05 0)
(-3.88191e-05 -6.09178e-05 0)
(-3.89848e-05 -6.06298e-05 0)
(-3.90711e-05 -6.02119e-05 0)
(-3.90708e-05 -5.9663e-05 0)
(-3.89778e-05 -5.89826e-05 0)
(-3.87872e-05 -5.81716e-05 0)
(-3.84946e-05 -5.72323e-05 0)
(-3.80968e-05 -5.61678e-05 0)
(-3.7591e-05 -5.49823e-05 0)
(-3.69751e-05 -5.36804e-05 0)
(-3.62474e-05 -5.22674e-05 0)
(-3.54071e-05 -5.07488e-05 0)
(-3.44537e-05 -4.91305e-05 0)
(-3.33874e-05 -4.74185e-05 0)
(-3.2209e-05 -4.56189e-05 0)
(-3.09198e-05 -4.37378e-05 0)
(-2.95216e-05 -4.17815e-05 0)
(-2.80169e-05 -3.97558e-05 0)
(-2.64087e-05 -3.76669e-05 0)
(-2.47002e-05 -3.55206e-05 0)
(-2.28953e-05 -3.33232e-05 0)
(-2.09981e-05 -3.10814e-05 0)
(-1.90128e-05 -2.88027e-05 0)
(-1.69438e-05 -2.64955e-05 0)
(-1.47954e-05 -2.41692e-05 0)
(-1.25715e-05 -2.18341e-05 0)
(-1.02761e-05 -1.95005e-05 0)
(-7.91285e-06 -1.71781e-05 0)
(-5.48518e-06 -1.48754e-05 0)
(-2.99663e-06 -1.25988e-05 0)
(-4.50674e-07 -1.03528e-05 0)
(2.14932e-06 -8.14031e-06 0)
(4.79922e-06 -5.96346e-06 0)
(7.49517e-06 -3.82219e-06 0)
(1.02325e-05 -1.71638e-06 0)
(1.30057e-05 3.53651e-07 0)
(1.58082e-05 2.3873e-06 0)
(1.86338e-05 4.38422e-06 0)
(2.14754e-05 6.34487e-06 0)
(2.4326e-05 8.26967e-06 0)
(2.71782e-05 1.01587e-05 0)
(3.00244e-05 1.20121e-05 0)
(3.28568e-05 1.383e-05 0)
(3.5667e-05 1.56134e-05 0)
(3.84464e-05 1.73658e-05 0)
(4.11853e-05 1.90969e-05 0)
(4.38722e-05 2.08331e-05 0)
(4.64911e-05 2.26393e-05 0)
(4.90159e-05 2.46634e-05 0)
(5.13986e-05 2.7216e-05 0)
(5.35463e-05 3.08884e-05 0)
(5.5284e-05 3.66816e-05 0)
(5.63026e-05 4.60398e-05 0)
(5.61084e-05 6.05791e-05 0)
(5.40182e-05 8.12311e-05 0)
(4.9273e-05 0.000106688 0)
(4.13435e-05 0.000131615 0)
(3.0429e-05 0.000146036 0)
(1.79767e-05 0.000137872 0)
(6.80019e-06 9.9486e-05 0)
(3.14411e-07 3.54486e-05 0)
(-3.61937e-07 4.47846e-05 0)
(-7.56786e-06 0.000124324 0)
(-1.98946e-05 0.000171018 0)
(-3.36557e-05 0.00018044 0)
(-4.5866e-05 0.000162597 0)
(-5.50092e-05 0.000132345 0)
(-6.08829e-05 0.000101703 0)
(-6.40416e-05 7.70025e-05 0)
(-6.52753e-05 5.9741e-05 0)
(-6.52931e-05 4.87567e-05 0)
(-6.46066e-05 4.2092e-05 0)
(-6.3536e-05 3.8007e-05 0)
(-6.22622e-05 3.52983e-05 0)
(-6.0881e-05 3.32542e-05 0)
(-5.94418e-05 3.14996e-05 0)
(-5.79711e-05 2.98542e-05 0)
(-5.64849e-05 2.82372e-05 0)
(-5.49944e-05 2.66142e-05 0)
(-5.3509e-05 2.49707e-05 0)
(-5.20367e-05 2.33003e-05 0)
(-5.0585e-05 2.15997e-05 0)
(-4.91606e-05 1.98668e-05 0)
(-4.77701e-05 1.81001e-05 0)
(-4.64193e-05 1.62981e-05 0)
(-4.51136e-05 1.44599e-05 0)
(-4.38579e-05 1.25845e-05 0)
(-4.26563e-05 1.06715e-05 0)
(-4.15128e-05 8.7205e-06 0)
(-4.04302e-05 6.73152e-06 0)
(-3.94112e-05 4.70486e-06 0)
(-3.84575e-05 2.64099e-06 0)
(-3.75705e-05 5.40449e-07 0)
(-3.67506e-05 -1.5962e-06 0)
(-3.59982e-05 -3.7686e-06 0)
(-3.53133e-05 -5.97635e-06 0)
(-3.46958e-05 -8.21831e-06 0)
(-3.41456e-05 -1.04925e-05 0)
(-3.36624e-05 -1.27963e-05 0)
(-3.32458e-05 -1.51264e-05 0)
(-3.28947e-05 -1.74792e-05 0)
(-3.2608e-05 -1.98507e-05 0)
(-3.23837e-05 -2.22364e-05 0)
(-3.22196e-05 -2.4631e-05 0)
(-3.21129e-05 -2.70283e-05 0)
(-3.20603e-05 -2.94209e-05 0)
(-3.20581e-05 -3.18006e-05 0)
(-3.21024e-05 -3.4158e-05 0)
(-3.2189e-05 -3.64827e-05 0)
(-3.2314e-05 -3.87637e-05 0)
(-3.24731e-05 -4.0989e-05 0)
(-3.26625e-05 -4.31463e-05 0)
(-3.28784e-05 -4.52227e-05 0)
(-3.31175e-05 -4.7205e-05 0)
(-3.33766e-05 -4.90799e-05 0)
(-3.36531e-05 -5.08345e-05 0)
(-3.39447e-05 -5.24562e-05 0)
(-3.42494e-05 -5.39338e-05 0)
(-3.45655e-05 -5.52579e-05 0)
(-3.48911e-05 -5.64222e-05 0)
(-3.52239e-05 -5.74241e-05 0)
(-3.55609e-05 -5.82657e-05 0)
(-3.58973e-05 -5.89538e-05 0)
(-3.62269e-05 -5.9499e-05 0)
(-3.65415e-05 -5.99132e-05 0)
(-3.68311e-05 -6.02081e-05 0)
(-3.70847e-05 -6.0392e-05 0)
(-3.72911e-05 -6.04693e-05 0)
(-3.74393e-05 -6.04401e-05 0)
(-3.75198e-05 -6.03016e-05 0)
(-3.75242e-05 -6.00495e-05 0)
(-3.74457e-05 -5.96799e-05 0)
(-3.72785e-05 -5.91902e-05 0)
(-3.70182e-05 -5.85792e-05 0)
(-3.66611e-05 -5.78475e-05 0)
(-3.62043e-05 -5.69969e-05 0)
(-3.56456e-05 -5.60301e-05 0)
(-3.4983e-05 -5.49508e-05 0)
(-3.42152e-05 -5.3763e-05 0)
(-3.33414e-05 -5.24711e-05 0)
(-3.23613e-05 -5.108e-05 0)
(-3.1275e-05 -4.95945e-05 0)
(-3.00828e-05 -4.80197e-05 0)
(-2.8786e-05 -4.63606e-05 0)
(-2.73859e-05 -4.46225e-05 0)
(-2.58844e-05 -4.28101e-05 0)
(-2.42838e-05 -4.09287e-05 0)
(-2.25869e-05 -3.89833e-05 0)
(-2.07967e-05 -3.69795e-05 0)
(-1.89166e-05 -3.49235e-05 0)
(-1.69498e-05 -3.28226e-05 0)
(-1.48999e-05 -3.06853e-05 0)
(-1.27699e-05 -2.85213e-05 0)
(-1.05631e-05 -2.6341e-05 0)
(-8.28233e-06 -2.41551e-05 0)
(-5.93056e-06 -2.19735e-05 0)
(-3.51076e-06 -1.98047e-05 0)
(-1.02615e-06 -1.76549e-05 0)
(1.52004e-06 -1.55284e-05 0)
(4.1236e-06 -1.34281e-05 0)
(6.78096e-06 -1.13546e-05 0)
(9.48749e-06 -9.30768e-06 0)
(1.22382e-05 -7.2866e-06 0)
(1.50276e-05 -5.29036e-06 0)
(1.78499e-05 -3.31779e-06 0)
(2.06985e-05 -1.36744e-06 0)
(2.35664e-05 5.61301e-07 0)
(2.64465e-05 2.46884e-06 0)
(2.93317e-05 4.35544e-06 0)
(3.22138e-05 6.22211e-06 0)
(3.50849e-05 8.0699e-06 0)
(3.79364e-05 9.90058e-06 0)
(4.07597e-05 1.17188e-05 0)
(4.35451e-05 1.35372e-05 0)
(4.62811e-05 1.53882e-05 0)
(4.89517e-05 1.73514e-05 0)
(5.15306e-05 1.96071e-05 0)
(5.39686e-05 2.25334e-05 0)
(5.61702e-05 2.68507e-05 0)
(5.7954e-05 3.37805e-05 0)
(5.89984e-05 4.50927e-05 0)
(5.8788e-05 6.27868e-05 0)
(5.66078e-05 8.80691e-05 0)
(5.16598e-05 0.000119476 0)
(4.33816e-05 0.000150695 0)
(3.19681e-05 0.000169755 0)
(1.89203e-05 0.00016199 0)
(7.18068e-06 0.000117853 0)
(3.39767e-07 4.23377e-05 0)
(-3.87308e-07 5.24998e-05 0)
(-8.01915e-06 0.000144758 0)
(-2.10468e-05 0.000197835 0)
(-3.55691e-05 0.000207017 0)
(-4.84361e-05 0.000184429 0)
(-5.80552e-05 0.000147688 0)
(-6.4221e-05 0.000110913 0)
(-6.75239e-05 8.14604e-05 0)
(-6.88008e-05 6.09864e-05 0)
(-6.88018e-05 4.80431e-05 0)
(-6.80678e-05 4.02726e-05 0)
(-6.6937e-05 3.55954e-05 0)
(-6.56003e-05 3.25775e-05 0)
(-6.41585e-05 3.03722e-05 0)
(-6.26632e-05 2.85336e-05 0)
(-6.11417e-05 2.6847e-05 0)
(-5.96103e-05 2.52161e-05 0)
(-5.80804e-05 2.35995e-05 0)
(-5.6561e-05 2.19796e-05 0)
(-5.506e-05 2.03483e-05 0)
(-5.3585e-05 1.87009e-05 0)
(-5.21425e-05 1.70345e-05 0)
(-5.07389e-05 1.53463e-05 0)
(-4.93799e-05 1.3634e-05 0)
(-4.80706e-05 1.18954e-05 0)
(-4.68156e-05 1.01286e-05 0)
(-4.5619e-05 8.33165e-06 0)
(-4.44841e-05 6.50316e-06 0)
(-4.34136e-05 4.6418e-06 0)
(-4.24094e-05 2.74652e-06 0)
(-4.14729e-05 8.16469e-07 0)
(-4.06048e-05 -1.14899e-06 0)
(-3.98048e-05 -3.15034e-06 0)
(-3.90726e-05 -5.18802e-06 0)
(-3.84074e-05 -7.26193e-06 0)
(-3.78079e-05 -9.37129e-06 0)
(-3.72725e-05 -1.15146e-05 0)
(-3.67995e-05 -1.36896e-05 0)
(-3.63869e-05 -1.58936e-05 0)
(-3.60324e-05 -1.81237e-05 0)
(-3.57334e-05 -2.03767e-05 0)
(-3.5487e-05 -2.26489e-05 0)
(-3.52896e-05 -2.49361e-05 0)
(-3.51375e-05 -2.72329e-05 0)
(-3.50262e-05 -2.9533e-05 0)
(-3.49511e-05 -3.18285e-05 0)
(-3.49074e-05 -3.41104e-05 0)
(-3.48904e-05 -3.63685e-05 0)
(-3.48951e-05 -3.85915e-05 0)
(-3.4917e-05 -4.07672e-05 0)
(-3.4952e-05 -4.28826e-05 0)
(-3.49962e-05 -4.49242e-05 0)
(-3.50463e-05 -4.68779e-05 0)
(-3.50997e-05 -4.87296e-05 0)
(-3.51544e-05 -5.04652e-05 0)
(-3.52091e-05 -5.20713e-05 0)
(-3.5263e-05 -5.3536e-05 0)
(-3.53157e-05 -5.48495e-05 0)
(-3.53669e-05 -5.60057e-05 0)
(-3.54163e-05 -5.70035e-05 0)
(-3.54625e-05 -5.7847e-05 0)
(-3.55028e-05 -5.85464e-05 0)
(-3.55327e-05 -5.91156e-05 0)
(-3.55457e-05 -5.95705e-05 0)
(-3.55335e-05 -5.99255e-05 0)
(-3.54864e-05 -6.01905e-05 0)
(-3.53946e-05 -6.03698e-05 0)
(-3.52485e-05 -6.0462e-05 0)
(-3.50397e-05 -6.04618e-05 0)
(-3.47612e-05 -6.03621e-05 0)
(-3.44076e-05 -6.01562e-05 0)
(-3.39748e-05 -5.98391e-05 0)
(-3.34596e-05 -5.94078e-05 0)
(-3.28599e-05 -5.88613e-05 0)
(-3.21738e-05 -5.82001e-05 0)
(-3.14001e-05 -5.74262e-05 0)
(-3.0538e-05 -5.65422e-05 0)
(-2.95867e-05 -5.55513e-05 0)
(-2.8546e-05 -5.44573e-05 0)
(-2.74158e-05 -5.32642e-05 0)
(-2.61962e-05 -5.19761e-05 0)
(-2.48877e-05 -5.05974e-05 0)
(-2.34911e-05 -4.91323e-05 0)
(-2.20072e-05 -4.75852e-05 0)
(-2.04374e-05 -4.59604e-05 0)
(-1.87834e-05 -4.42621e-05 0)
(-1.70469e-05 -4.24949e-05 0)
(-1.523e-05 -4.0664e-05 0)
(-1.33349e-05 -3.87752e-05 0)
(-1.13635e-05 -3.68361e-05 0)
(-9.31782e-06 -3.48552e-05 0)
(-7.19957e-06 -3.28426e-05 0)
(-5.01024e-06 -3.08092e-05 0)
(-2.75146e-06 -2.87653e-05 0)
(-4.24857e-07 -2.67206e-05 0)
(1.96749e-06 -2.46831e-05 0)
(4.42283e-06 -2.2659e-05 0)
(6.93834e-06 -2.06514e-05 0)
(9.51042e-06 -1.86618e-05 0)
(1.2135e-05 -1.66902e-05 0)
(1.48075e-05 -1.47354e-05 0)
(1.75227e-05 -1.27959e-05 0)
(2.02752e-05 -1.08696e-05 0)
(2.30588e-05 -8.95472e-06 0)
(2.58672e-05 -7.04951e-06 0)
(2.86938e-05 -5.1524e-06 0)
(3.15314e-05 -3.26181e-06 0)
(3.43723e-05 -1.37599e-06 0)