/*--------------------------------*- C++ -*----------------------------------*\
| =========                 |                                                 |
| \\      /  F ield         | OpenFOAM: The Open Source CFD Toolbox           |
|  \\    /   O peration     | Version:  2206                                  |
|   \\  /    A nd           | Website:  www.openfoam.com                      |
|    \\/     M anipulation  |                                                 |
\*---------------------------------------------------------------------------*/
FoamFile
{
    version     2.0;
    format      ascii;
    arch        "LSB;label=64;scalar=64";
    class       volVectorField;
    location    "392400";
    object      U;
}
// * * * * * * * * * * * * * * * * * * * * * * * * * * * * * * * * * * * * * //

dimensions      [0 1 -1 0 0 0 0];

internalField   nonuniform List<vector> 
16
(
(5.33895e-08 -6.57977e-08 0)
(1.96489e-07 -4.00429e-08 0)
(2.06052e-07 4.40393e-08 0)
(6.08488e-08 6.57413e-08 0)
(4.13828e-08 -1.83988e-07 0)
(5.36792e-08 -1.1402e-07 0)
(6.14052e-08 9.46757e-08 0)
(5.22556e-08 2.00817e-07 0)
(-1.6797e-08 -1.60789e-07 0)
(-1.19833e-07 -5.68219e-08 0)
(-1.33057e-07 4.29628e-08 0)
(-2.25256e-08 1.7718e-07 0)
(-7.90864e-08 -5.03967e-08 0)
(-1.28989e-07 2.74972e-09 0)
(-1.38066e-07 -4.63e-09 0)
(-8.56816e-08 4.93533e-08 0)
)
;

boundaryField
{
    movingWall
    {
        type            noSlip;
    }
    fixedWalls
    {
        type            noSlip;
    }
    frontAndBack
    {
        type            empty;
    }
}


// ************************************************************************* //
