/*--------------------------------*- C++ -*----------------------------------*\
  =========                 |
  \\      /  F ield         | OpenFOAM: The Open Source CFD Toolbox
   \\    /   O peration     | Website:  https://openfoam.org
    \\  /    A nd           | Version:  6
     \\/     M anipulation  |
\*---------------------------------------------------------------------------*/
FoamFile
{
    version     2.0;
    format      ascii;
    class       volScalarField;
    location    "0.100024";
    object      omega;
}
// * * * * * * * * * * * * * * * * * * * * * * * * * * * * * * * * * * * * * //

dimensions      [0 0 -1 0 0 0 0];

internalField   nonuniform List<scalar> 
16141
(
97.35863845
97.35994136
97.36112913
97.36262917
97.36597693
97.35777602
97.41717041
99.64124814
99.64253405
99.64370447
99.6448227
99.64558324
99.64592065
99.64571755
99.6448182
99.64370492
99.64215198
97.4175665
97.35876818
97.36666418
97.3630108
97.36142375
97.35999764
97.35038435
89.12825373
89.13021079
89.13380377
89.13750144
89.13264279
89.19892639
91.01032585
90.98227521
90.9853942
90.99007948
90.99502472
90.99967419
91.00318178
91.0041896
91.00208397
90.99745981
90.99132514
91.02004335
89.20713629
89.13884295
89.14104976
89.13647405
89.12662285
89.10259624
82.07956307
82.08844168
82.10068252
82.10807005
82.15120155
83.70122934
83.65641879
83.66516303
83.66864867
83.67423801
83.68212461
83.6931319
83.70585407
83.71540258
83.71742958
83.71179871
83.70083606
83.68412891
83.7067834
82.17229907
82.11980208
82.10786575
82.08616293
82.05833469
76.01335479
76.02859957
76.04520759
76.05154042
77.42477586
77.40779952
77.414088
77.42183872
77.42797702
77.43039995
77.44267505
77.46371207
77.49583407
77.52568977
77.53901529
77.53414069
77.50583623
77.47920903
77.44751136
77.46663561
76.08307005
76.05821845
76.03588201
76.01619671
70.74600528
70.75452246
70.76210804
70.76296433
71.95546818
71.97051873
71.97425143
71.98505545
72.60641675
72.62745811
72.64074475
72.67157781
72.73239548
72.79504329
72.82637328
72.82188905
72.8036454
72.12965285
72.07804557
72.02857675
70.81408246
70.78548177
70.76948038
70.75896374
66.17431045
66.17714951
66.17855628
66.17834029
67.23952005
67.25421991
67.25177384
67.7877259
67.76360668
67.75548682
67.79057689
67.8842455
68.03019634
68.14548183
68.14759285
68.10071947
68.04728119
67.4380341
67.36687441
67.31097886
66.23110946
66.21214256
66.19910751
66.19112881
62.40072232
62.40067674
62.39907935
62.39427932
63.17286283
63.15715219
63.11489423
63.57016098
63.53104912
63.73272888
63.70715777
63.92446346
64.74843934
64.52121707
64.34202433
64.25948514
63.90776477
63.35944676
63.31217694
63.27624423
62.4562182
62.43761717
62.42481943
62.41766355
59.66887609
59.66816078
59.66610811
59.6576739
59.99665122
59.93477724
59.84227132
60.08146274
60.01020141
60.14133459
60.1401396
61.03648385
62.75693803
61.09717122
60.80491656
60.46661459
60.08365883
60.07292745
60.08480471
59.70983982
59.69584204
59.68569207
59.68051106
58.10898733
58.1085065
58.10736037
58.10235285
58.1436941
58.1094023
58.07547029
58.14499054
58.12925442
58.22694667
58.33917879
59.97528027
62.89171679
59.15483123
58.64346309
58.36248233
58.20110259
58.16499372
58.16903842
58.13059924
58.12225464
58.1164443
58.11364716
57.55115444
57.55118234
57.550583
57.55444135
57.64411747
57.69283725
57.75610884
57.90586936
57.98006515
58.15211779
58.33691599
60.52637892
62.54559952
58.7969893
58.25684267
57.98550481
57.79059969
57.69257509
57.63057344
57.55932482
57.55464573
57.55257553
57.55162494
57.58808291
57.58842885
57.58792526
57.59883131
57.84331114
57.91249665
57.97322365
58.11220321
58.15683768
58.32924239
58.49236707
61.02584002
574.9258425
62.11395021
59.103352
58.53695902
58.21694497
57.99983014
57.91419134
57.83672121
57.59120887
57.58822823
57.58804949
57.58804962
57.80800362
57.80841028
57.80811917
57.81867501
58.04320346
58.06921112
58.0799924
58.14153435
58.16339835
58.35796265
58.50680054
61.43266533
112.8527304
61.35075741
59.11316079
58.58178355
58.25981249
58.12341817
58.08793623
58.05361915
57.81137063
57.80877766
57.80874503
57.80878026
57.97352177
57.97389013
57.97401564
57.9800262
58.07448104
58.07347577
58.06944758
58.14555684
58.16441833
58.39175473
58.54270042
62.07358877
82.43667465
60.66826415
59.03361525
58.5579407
58.24841226
58.11180283
58.09329094
58.08637421
57.97786874
57.97506594
57.97444966
57.97411175
58.03382682
58.03419057
58.03461364
58.03743081
58.05691969
58.05694692
58.05936853
58.1514726
58.16826385
58.4228518
58.6030624
64.11167844
73.6390329
60.28200844
58.97889652
58.54790634
58.24067619
58.09396413
58.07259018
58.06464734
58.03784808
58.03507867
58.03397877
58.03335512
58.03161571
58.03200742
58.0325029
58.03486953
58.05269409
58.05667944
58.06193058
58.15422899
58.17416889
58.43305415
58.6112333
59.19218633
67.92407485
59.80113932
58.86888542
58.50550034
58.23099907
58.09347562
58.07009821
58.05916111
58.03501302
58.03242684
58.03122954
58.03055525
58.01516829
58.01558079
58.0160409
58.01909693
58.05425218
58.05874898
58.06407113
58.15851508
58.17988425
58.44173876
58.59813802
79.73321071
62.87365266
59.35629515
58.75884846
58.46469811
58.21907998
58.08944691
58.06992962
58.06037018
58.0185772
58.01618915
58.01509375
58.01449855
58.00550967
58.00591805
58.00634129
58.0098205
58.05438968
58.05888178
58.06459218
58.16077353
58.18553451
58.45372271
58.59676759
104.6835368
60.70463405
59.02066592
58.66581107
58.43234133
58.20692954
58.08425878
58.0675816
58.05964386
58.00929464
58.00711212
58.00615448
58.00562261
58.00330918
58.00369249
58.00409738
58.00745398
58.05374482
58.05834967
58.06443997
58.16199657
58.1917426
58.47295393
58.63530234
118.3892855
59.79122386
58.83131799
58.59977572
58.41188128
58.19527696
58.07927291
58.06462307
58.05787255
58.00717549
58.00518863
58.00437819
58.00391178
58.00381812
58.00416386
58.004551
58.00747099
58.05291138
58.05745414
58.06381807
58.16165253
58.19801213
58.50139859
58.73826412
120.4708341
59.35696232
58.76999201
58.56713316
58.40311557
58.18457068
58.07436879
58.06141008
58.05581804
58.0072452
58.00549174
58.00483522
58.00443813
58.0042607
58.00456329
58.00491869
58.00731205
58.05193398
58.05622742
58.06266881
58.15892411
58.20164889
58.53120412
58.94324952
115.2949721
61.14188844
58.94691735
58.57148473
58.4023193
58.17457534
58.06945976
58.05810797
58.05368771
58.00694182
58.00544484
58.00493354
58.00460188
58.00421297
58.00447228
58.00478847
58.00664066
58.05095446
58.05485792
58.06082658
58.15131582
58.19774809
58.5341381
59.1607829
77.43726306
71.59854995
59.64220241
58.58998919
58.39999667
58.16464189
58.06468351
58.05502327
58.05170618
58.00609028
58.0048537
58.00448164
58.00421102
58.00403026
58.00424818
58.00451388
58.00590867
58.05010101
58.053579
58.05862311
58.14238839
58.18579363
58.49214725
58.93791035
62.48911218
67.0390499
59.69103373
58.54861623
58.38655364
58.15470862
58.06046586
58.05242994
58.05007181
58.00517056
58.00416802
58.00391498
58.00369629
58.0039498
58.00414129
58.00437802
58.0054505
58.0494166
58.05259126
58.05651498
58.13526398
58.17117239
58.42801264
58.59746242
59.0417935
59.36138175
58.73690141
58.45618589
58.36718655
58.14598567
58.05734369
58.05044246
58.04885445
58.00450811
58.00368499
58.00351814
58.00333595
58.00396062
58.00411601
58.00428327
58.00508919
58.0488464
58.05187365
58.05485172
58.13005288
58.15842508
58.38615792
58.449513
58.51656844
58.5292953
58.45926854
58.39538262
58.35218029
58.13982945
58.05569907
58.04909344
58.04804333
58.00396591
58.00330213
58.00321925
58.00307543
59.98065725
64.25524744
63.60642765
60.48570598
64.41293205
64.28890311
61.00452425
885.7022106
665.9104061
63.44396399
64.30515216
61.40468504
127.8289935
829.884718
114.6312737
62.25546793
63.30856697
62.02284256
89.28727588
124.8796299
83.36725662
61.26694928
62.11236298
64.00240977
79.22135445
88.0202373
75.83857808
60.74252738
61.17209293
61.28159831
64.6870697
63.46441366
64.55897267
89.58638262
77.47267214
58.30219176
59.76769657
59.46603598
60.12952765
72.72173247
70.35704602
91.62434427
94.67159778
58.48969811
60.46512428
59.83881569
60.78997388
77.64114375
75.19214533
82.42774504
87.62881535
58.50546922
60.81681866
60.49081065
61.18736907
82.43900424
80.20308119
181.2287621
73.44455413
76.94067388
58.5389113
61.34393504
60.84755032
61.66161766
99.81467617
90.79386074
94.82031517
67.73942282
69.85433554
58.60084608
62.8986571
61.39281037
62.72768024
277.9871847
139.6365174
69.89037438
72.7489637
67.20777458
69.70826368
94.77304244
90.31279343
75.09377138
72.90729906
60.17316921
76.08045906
78.75266438
72.94596847
75.86556224
88.40583912
91.31554524
79.82188221
77.67891994
60.82417957
82.10303703
86.17324499
78.87098187
82.05029186
77.49517599
81.75256735
89.93908762
82.59929382
61.21463034
258.8090714
92.68504119
110.5958311
86.65040815
92.2885561
279.5415993
70.20989786
72.9994894
172.3090773
137.9720949
100.4347358
61.70261933
98.85272586
134.3940441
232.5939529
113.7600708
133.3876595
99.8889327
234.5733496
505.2720164
81.27589378
58.44070532
59.50580524
60.69922594
60.29690577
67.14891673
65.22358303
234.4652393
142.7413767
62.89502372
59.43415961
61.16183933
326.9497033
597.0260939
62.59491918
58.92293512
59.28885472
139.5994939
156.3066177
311.4015713
97.05777381
103.8662017
58.68330227
72.43315186
78.63014136
70.20991496
67.93657284
60.2253983
273.8861476
98.51051448
120.7557523
610.1955108
575.4864759
63.91725188
84.08597625
89.72736945
73.05946969
83.02829229
63.85670274
158.1480008
188.5413006
64.70459261
85.07647302
81.7070272
87.34315294
85.49879983
64.77697942
104.9428949
113.0498562
906.6358197
159.8090609
528.0791906
91.93948472
282.9990934
182.6711616
110.362819
66.66489853
67.48090061
93.9869291
894.5595953
311.061117
63.21297306
80.26322339
429.7478395
700.9443476
67.84478941
63.8020993
66.62066822
75.15210018
65.45796169
67.92807783
260.6467965
242.5466268
83.72499401
182.4575153
200.0196415
121.2805573
177.3661528
82.7830672
274.3395308
325.7393449
93.26367983
184.0016849
175.7931423
227.7572548
183.2000479
93.43943365
125.5626661
137.7349417
90.72505507
96.16776794
291.3868799
95.94818079
66.33988974
66.63297321
66.03872301
66.30110416
95.41326297
170.988278
68.77525185
69.62383463
67.92371493
68.64633488
161.5820037
203.0563125
231.0943934
71.22002993
152.1750901
133.5078696
232.1520314
195.5615186
71.43199393
68.12629107
102.9181597
88.46099914
128.1338214
105.4198194
68.33640311
130.1209051
191.073458
94.20582002
246.2682115
248.1315872
221.7686517
243.4629337
93.91689885
569.1439433
395.3032442
77.9627194
78.12565462
74.56421293
232.5008269
74.76129283
88.67631206
153.7043985
140.3684905
170.2204631
155.556165
88.96353514
193.5831281
240.7718533
82.71731833
82.88015707
80.93979315
81.26194448
114.3143856
124.0349549
84.36239742
66.11510174
66.4828548
65.83838306
66.0294052
84.04251753
167.4720167
95.88636459
96.51922201
89.22621027
89.61010628
501.4615086
112.534316
67.22227319
67.84433255
66.68666353
67.14097991
109.0835444
471.9097089
301.4110968
92.71448576
150.370597
446.3759748
666.1737196
250.8466184
416.6473744
156.1854685
125.3948282
674.1128507
126.4547171
108.8134513
744.4096969
491.1653036
267.6782244
167.6539467
235.7536507
129.8361579
161.5914274
287.8723805
938.6930286
62.18669368
59.21869447
58.94720817
473.056246
138.575108
149.4748971
77.3541416
65.14279868
66.24543831
154.4754994
171.9622327
810.7919174
81.20232162
77.68938467
63.9547225
138.9493593
428.1815655
322.1986635
779.6039074
83.40498961
86.6018731
130.9784626
173.6787826
134.5220375
84.7271204
110.0561878
73.48439131
95.08154362
131.7369845
81.53778074
112.6270906
76.90286855
64.41036093
64.63507138
64.03465923
64.31849358
76.66180009
442.2895804
513.135062
84.57226326
126.0405056
116.1936954
138.9755395
127.5331505
85.32188602
81.56138097
65.63436892
65.79116524
65.32140404
65.57573505
81.45841925
247.706276
86.44479454
87.91100422
74.45439658
63.68703986
63.94967418
108.0487169
106.0732899
78.50140608
78.01379559
64.9437506
65.22178928
64.70021654
64.87657766
77.93962814
82.3021908
164.0195981
160.5158405
290.2213018
177.1551343
84.09409746
79.43523891
111.8350226
108.7847587
159.2485909
154.8132781
81.86390593
282.6378554
398.1781217
752.1122239
206.5752866
93.93597017
380.6078141
378.5463629
400.443568
101.3712846
87.72346898
371.6782892
321.2752668
377.9002365
376.1877464
91.10960403
345.1575439
134.2958231
87.78182681
90.07809151
137.9661447
221.7018327
120.2595689
130.4040034
240.3789976
678.6935136
389.9913243
456.1387811
460.6349651
83.7810564
131.0721208
112.9911635
191.7436848
360.8222161
179.2351108
337.5774334
351.2870229
826.8857121
863.512905
145.7896761
542.6795347
449.366598
819.0347479
648.6089452
148.4454345
127.745153
135.5514504
429.7757525
108.0863803
251.4522705
207.0013063
111.4813103
607.9312498
596.1722911
164.1747025
824.6206289
819.8079198
851.4362353
167.9959251
817.096896
177.8678712
207.8935135
548.504998
464.4427402
143.36971
708.869286
752.0762786
500.3983807
692.0264423
758.2423145
355.7641798
469.9098853
276.0615684
331.9246975
71.48403132
74.86925262
1239.556115
1306.336763
144.8532582
127.0381898
260.4864356
257.4577739
128.51546
121.8711034
194.5603244
322.5042791
323.7962932
185.2149285
133.6121435
137.4039673
130.4913318
132.5976642
182.8770485
422.7956336
289.9910609
132.0126031
560.3034157
810.1174924
82.9168342
85.59300196
232.5297585
146.8138858
80.38981157
82.09552918
221.2579117
222.3338847
144.3394205
87.18180818
89.21820719
85.04522332
86.69410415
142.5707803
230.1197534
92.65207038
93.91525814
90.04536824
92.16593552
227.4680081
114.136996
82.33170327
84.3721882
144.454393
146.6889317
253.4493022
140.6797061
140.5286031
138.5382443
140.4680718
255.0283712
225.7915081
136.9047177
130.9214687
140.2323737
138.1712037
231.6502232
538.6893928
520.0769436
131.6107424
142.86699
111.3271699
127.1751996
150.1920645
153.4831307
144.9443774
149.0482794
291.0906845
99.49208873
103.9558657
94.44738961
97.62555474
241.6592106
107.7869118
110.1848022
104.9228221
107.1327594
199.6933516
202.1575775
168.2982689
165.1076766
82.39035106
335.8079255
338.4270791
332.0951645
334.9066496
348.5346893
473.8092968
339.6720482
345.3471509
83.64954263
174.5658959
169.4911533
135.8324585
114.7637036
79.74772164
165.7469504
278.298025
154.6602156
159.6984641
329.1808673
331.2193089
304.1942235
328.1018302
81.78137566
152.8360694
141.636099
224.4646133
267.0071678
799.5359258
195.634854
741.751491
621.7716439
384.3256057
381.3210828
94.38820415
99.45175998
392.2784165
385.5757284
375.3937352
374.0096498
88.10402449
90.73201247
375.7148589
375.472686
384.2915341
384.7177178
142.8499739
159.6162929
139.586701
513.4936887
571.4467069
309.1185177
651.150268
328.5420744
212.9828977
121.7816433
129.4232897
668.7502482
207.3809503
254.9943119
166.3766292
195.1488232
654.240192
615.4268634
643.3003546
242.7092282
189.4702284
497.8911466
442.8229996
636.3630634
548.6130422
199.3309652
420.5849782
347.2606661
145.564589
441.2598648
477.5345938
607.4201085
64.40175004
64.94187674
67.99338676
64.98921921
64.95857037
68.1259012
60.51671702
60.9998786
63.88274843
66.83133472
65.03473473
64.75757651
62.79725446
61.49753375
64.35288019
530.2328328
301.659911
328.4984666
102.9623836
79.84662431
82.44310363
368.9947935
419.4337363
772.1957745
63.83477685
77.21525134
74.09381453
808.355563
299.6242768
236.1553214
117.5724121
64.9014651
63.41412597
62.2165355
157.1962142
251.6941492
64.30867558
63.70043338
66.7204587
427.9093831
225.9620784
63.46974546
64.97876727
71.52432101
71.73401096
62.96653891
63.21755381
113.3476767
118.0770315
214.1639398
98.10388066
74.21376671
74.47022751
79.1075074
80.0136533
144.6912918
63.31387512
63.59852921
74.32119558
76.93580091
98.39985299
94.24752781
93.55257284
92.26126742
75.36168708
114.9202161
106.7710864
79.8305647
920.317912
131.0354315
77.92618205
78.84091114
74.57884391
74.97317479
102.6141414
135.4684632
221.1727178
219.9526302
443.455785
442.6551025
230.2595959
218.7854448
217.6378194
132.4000109
236.4430378
444.6297511
444.0009081
694.3750109
696.5513482
492.9487663
225.805172
349.5055374
378.2735943
328.7458649
672.407711
677.5024103
791.5767941
471.1222214
155.2794462
150.9855896
117.7490847
621.7548582
576.1935056
847.7567556
577.9549854
673.1179382
570.5825207
810.0685966
788.9377341
230.3502165
116.1834802
124.1562819
665.3796659
680.1752836
115.561669
221.4128107
187.6877318
1686.980023
586.3356305
355.3968665
66.10622443
71.74496653
95.63216278
86.11227309
71.40448312
65.00333648
69.3695139
78.59021234
114.1952772
96.8085527
78.05360055
67.73056528
271.6560656
459.64986
474.4514383
406.5743185
423.109872
249.2468448
192.0202329
119.8484307
113.1927459
110.6345228
102.213341
152.8662447
304.1717013
724.7829366
707.202276
683.4281578
698.2302629
325.0864064
186.0693129
128.3609732
129.9670539
124.8755125
127.6855913
185.8554088
130.2671378
267.2019358
229.148866
231.4224679
119.8292994
125.5970017
213.435423
226.7334324
149.859172
114.5271024
116.3391323
231.757607
143.8264547
144.8702595
126.1066673
131.3601638
208.7342885
97.05207091
76.89200783
79.04626487
79.75159789
81.71325766
112.394955
136.6088064
201.2472848
189.9764409
258.429072
222.3293709
153.2517238
560.7967262
652.8629968
439.4707319
102.4751828
99.7691474
77.24922745
253.7650711
259.5816444
78.42897898
105.4234489
103.295439
232.6158577
240.7537449
146.0930764
147.6746655
233.5805605
249.743203
251.4212203
244.0443796
245.4554533
160.7404922
120.43295
123.7367156
116.7121544
119.4682708
159.326996
566.5855725
463.5676093
218.4827057
785.4081947
806.3333411
214.0405854
178.6128506
119.5884406
778.1514439
760.9861258
473.4947038
76.33884975
77.56570664
127.3666339
103.6085932
75.16534337
75.97470387
127.2261474
138.2217366
354.7099842
242.8571838
233.0612714
144.6341328
466.2075983
652.8249334
640.843367
653.7693116
628.038681
560.997961
381.4264605
182.2896835
357.9430866
252.728345
689.7515869
701.8643044
524.599035
589.5710882
334.6772313
356.8866003
521.2208192
466.0562498
452.5047703
252.2350388
141.1184503
330.407213
284.3524472
383.9731593
569.6814503
486.6711457
793.4579802
461.7522388
488.0447079
797.5121141
88.31630595
129.35912
250.6877686
192.9291588
120.6383572
84.32604052
104.5509405
171.2860568
326.2172872
319.4304079
188.1706649
99.63369519
468.677503
827.1882215
811.6180409
836.9767403
830.0414645
488.1667988
162.9120963
107.6548292
108.4002878
187.6592887
121.3687229
140.7894425
116.8217562
120.4742268
184.9776863
833.6954884
856.8441806
307.0884406
572.2605549
525.0906299
790.8826202
672.0379099
346.6726183
820.7627655
633.21163
723.3525384
518.4931078
556.48811
771.6775187
379.9206478
189.6759796
190.7392554
187.5290081
188.6217231
379.2292949
511.8014126
327.540208
360.3456693
214.0090023
221.3796841
412.5367954
365.2594434
164.5611448
168.8902586
149.9991482
158.2917086
349.2611675
377.2963297
185.3612706
186.4520034
183.1193097
184.2619314
376.7269857
564.6586688
524.1317927
318.3653892
770.9230655
791.8327105
742.1053415
759.5690998
224.174699
222.5620916
136.633797
420.4324364
421.5001695
418.9459594
419.6125554
226.9816671
440.6715501
434.4502576
408.9872733
411.2527631
387.746563
402.8728005
417.7487337
418.341092
415.8827031
416.7154798
446.339836
445.6333786
238.4059393
408.2851592
567.6709837
538.5588301
624.2626485
615.7342623
433.3558096
479.5897493
260.3947706
272.1468855
201.5075834
407.9404083
395.9816298
485.8279099
392.0203661
267.8908438
243.3185626
369.4708855
340.6355514
451.0149604
662.7998248
666.3064611
331.7310184
385.3174898
696.887273
668.0673261
830.426653
838.5827836
494.3812211
247.9919649
267.8246876
800.3905752
387.9032434
409.9888406
301.6521834
347.8262728
780.3559844
224.2977527
157.9293022
191.0645447
143.7109875
152.1958038
217.7200574
217.1991573
220.6948865
202.8915056
211.67311
616.4262322
584.4726435
817.9166856
444.2874154
465.546486
422.3224526
432.1087348
818.3956596
754.5833106
770.9269286
511.242225
616.631495
936.7932068
507.8368597
532.7149352
826.2563992
512.1649021
325.821333
350.7207862
723.7752995
733.3887664
538.3737142
733.3944546
714.5026987
779.1295756
609.6227524
864.5051934
657.2371461
719.3097502
762.5968682
390.0790474
601.3956553
535.0661551
696.630732
680.0587081
432.1522424
502.1452191
480.9927386
313.8105972
693.7066246
702.3332583
440.7372421
445.1696007
263.199096
254.0658129
430.8062393
435.5885781
733.6734515
738.5248347
317.7625176
324.5693271
712.3667402
724.8329619
663.2198003
925.1624748
858.8387581
788.1109506
218.5933552
223.4077779
111.0315025
112.309686
146.1611924
141.1961974
142.6809949
231.1616782
220.920431
135.8743032
139.0767395
214.5172575
210.0328353
141.4079898
250.3492093
150.4029403
218.7486402
215.7956481
550.4811185
490.0863376
136.1881719
260.1442365
240.2171794
277.1946313
271.9600641
140.0440286
113.8759635
155.91894
151.3683098
220.1661517
156.5302651
114.7436287
266.8912576
336.790422
151.3074421
285.5083305
284.182414
288.477232
286.9512316
152.3865866
146.5312668
280.8978206
279.5659117
282.932536
281.8992405
147.8510877
202.9704543
218.3234085
236.9775367
151.7037699
153.8833776
247.4963849
248.4997503
108.4752859
147.4468231
146.4962579
149.7950921
148.470966
109.2352525
246.1321837
246.7200069
393.0478293
386.9691217
198.1279321
781.830385
775.7157136
788.2066575
786.488811
803.8975007
895.7685932
771.7528148
776.3428118
207.3259294
420.7559702
402.2020911
167.2199047
110.5783212
111.3393553
109.1278139
109.8537254
166.1728442
336.6964017
337.5677544
333.0313951
333.9664927
357.0869683
368.2363284
341.2274528
342.9920462
172.4073001
114.0130133
115.3134522
112.1386349
113.0199636
170.844638
166.1197855
314.950094
305.0472565
408.9906343
251.8364598
155.9729518
291.9777059
290.1398125
297.3049867
294.2926458
157.7117523
329.755636
330.3433669
319.2436802
325.5995393
821.8277824
825.5828608
725.7889786
468.7094916
494.2927955
386.8825684
430.9903147
707.8263153
383.2305893
194.1704082
195.4911977
191.823012
192.9733847
382.2389385
389.2056681
201.3625292
204.7488453
196.9944741
198.8308034
387.1102811
375.2498908
175.7591335
177.2293589
171.8616028
174.0494136
374.9005507
375.5939222
180.867745
181.9739949
178.5343469
179.7457451
375.5534772
843.431307
432.3967862
741.2886992
646.0354402
428.2402393
435.7124162
422.9674222
425.1547957
141.7402622
229.140668
226.2288606
675.6933971
660.5014101
484.6618223
640.7310819
714.6471836
619.0679377
631.86367
499.4395029
554.024441
688.1602625
699.792698
646.20619
661.5744124
351.2006544
504.0491777
473.7355302
419.0795289
391.5605457
199.6678115
447.074567
540.2482308
413.5902102
413.7877175
412.3009322
412.9702364
730.1293897
414.7265876
415.2128095
414.0470707
414.3417509
462.3034102
489.9955407
684.7920047
581.7824295
388.7656335
427.5756231
624.222574
630.2379425
246.2560328
448.2397028
446.7548277
473.3676514
340.6199302
359.0463743
622.7363212
447.4711095
470.5388575
385.738671
418.3336302
610.8840778
415.3399252
506.7252398
652.864268
637.2665244
685.912144
554.2911014
98.40691848
131.6767405
1223.632803
1470.065227
1425.736691
571.6471861
203.8513801
237.7886832
193.8837582
220.4607941
352.7074786
310.2905285
404.2968396
310.2975867
226.1865202
155.7267205
194.3731949
215.1584501
180.2370142
244.4039399
309.6050758
192.2950847
230.2761633
80.42877429
80.43262221
83.6778238
80.43777047
80.44461607
83.6872394
80.45327192
80.46337922
83.6995321
80.47394741
80.48384014
83.71139465
80.49171742
80.49666815
83.71745119
73.92171905
73.9349173
77.42936415
73.93792254
73.94483626
77.43634172
73.94644034
73.96450362
77.45149991
73.97355025
74.00910322
77.47902079
74.02409933
74.06320283
77.51222948
74.07576367
74.09815566
77.53478671
74.10215852
74.10289587
77.53849491
74.09941187
74.08465082
77.52697028
68.92759489
68.91030714
72.60938221
68.91075212
68.91982829
72.62367136
68.9229995
68.94059537
72.63965172
68.95474089
69.00537731
72.66182893
69.02326608
69.10525329
72.71550701
69.13446125
69.21753463
72.78080908
69.2379216
69.26537385
72.82228961
69.26280399
69.23580908
72.82710323
69.22537483
69.18440734
72.80454936
69.1696961
69.14212006
72.16094045
64.57482674
64.54717764
67.76725243
64.53934015
64.24621759
67.75752086
64.23857293
64.21744707
67.78186481
64.21790937
64.36898436
67.8517963
66.49614748
66.57535527
67.91989386
66.70884267
66.77731718
68.067852
64.93455261
64.81376
68.15681145
64.80597789
64.75060533
68.10721151
64.74072485
64.91231376
68.06345253
64.88616917
64.83456222
68.01165782
60.84320807
60.79507539
63.53994879
60.77850853
60.53322899
63.74074352
60.52549881
60.51112273
63.70936619
62.25295071
62.28709503
63.74959915
62.60612293
63.39551944
64.1894152
64.70041766
64.75349624
64.7950613
63.47580538
63.20675733
64.4269722
61.44200272
61.20278872
64.27167681
61.18245181
61.26535831
63.93278492
61.23811253
61.17400445
63.85368063
58.44465146
58.4113468
60.02897056
58.40362443
58.3429994
60.14904576
58.34476476
58.41292059
60.13297636
59.19901911
59.31570898
60.2215311
60.82272044
61.72302611
61.83721281
62.80977356
61.03640851
61.6626338
59.30800242
58.84306737
60.82745956
58.81285093
58.74087119
60.49413503
58.714131
58.66207666
60.40344077
57.86933632
57.91001165
58.13006223
57.93158688
58.10679285
58.22616418
58.11908545
58.25913868
58.31116136
58.21528633
58.42290735
58.51818864
60.00885136
61.85591043
61.72047305
62.79120785
60.16031309
60.3673043
58.77677595
58.26587585
58.67603656
58.23669329
57.99580567
58.39069923
57.96514239
57.90570771
58.31359955
58.07819977
58.12055765
57.95886173
58.1353437
58.31183967
58.14371735
58.32323466
58.44864356
58.29769241
58.43206707
58.66116376
58.56534055
60.65041458
62.92184402
62.71924681
62.40691969
60.16734608
60.09808416
59.07791135
58.55309565
58.29068559
58.5145392
58.20360452
58.01939472
58.17125596
58.08934823
57.92091299
58.14289185
58.16052713
58.14790891
58.16631869
58.34522675
58.32226267
58.35586946
58.46581452
58.45570995
58.49757953
58.72188212
58.7169424
61.097216
63.77563402
63.61210533
61.4543727
59.24942376
59.247671
59.12545013
58.63603667
58.58187615
58.58599137
58.29165752
58.25084234
58.26318607
58.19106798
58.13727195
58.14430304
58.15942839
58.16007207
58.16420585
58.37758521
58.35134712
58.38913033
58.49682875
58.47100651
58.51872773
58.75487465
58.73565912
61.52810659
64.71932976
64.50717628
108.131744
91.89545301
94.31468356
60.7422215
59.14389991
59.23834648
59.0445122
58.62619722
58.63768899
58.56300329
58.2758413
58.28946796
58.15141235
58.16348136
58.16190959
58.16817533
58.40992833
58.38422497
58.42240954
58.54770727
58.50403565
58.55930651
58.83366752
58.80008148
62.25106504
66.48920322
66.02234878
79.9853058
71.13608581
72.30818353
60.3439819
59.06980976
59.13428788
58.98964956
58.61508881
58.62687899
58.54870012
58.26580897
58.27476804
58.15431737
58.16640315
58.16547992
58.17332776
58.42159134
58.41452611
58.43375086
58.56021581
58.553342
58.61381267
59.76481069
62.48587549
62.27073854
517.961749
841.3122759
68.59955054
60.12852619
60.66657067
59.86109709
58.94574194
59.06088025
58.88510977
58.57405505
58.61636187
58.51272411
58.25362671
58.26321937
58.15828415
58.17095623
58.16882591
58.17937072
58.4304378
58.42513649
58.44230706
58.5559598
58.56262289
58.60153446
56.09856754
58.84176068
76.24974406
64.49524723
71.33841715
63.35284828
59.56506036
60.05806108
59.4097948
58.81607728
58.93127441
58.77354894
58.52826502
58.5704056
58.18495488
58.44118688
58.43408391
58.45365191
58.55828362
58.55793367
58.59705282
64.2006126
56.54691015
102.0918854
61.47949644
63.88161458
60.87442093
59.13274962
59.50265243
59.05556839
58.70543583
58.80329575
58.67777391
58.49011488
58.5254342
58.47179978
58.58672573
58.56258901
58.62929211
76.81512137
65.70180433
117.3813523
60.26633024
61.28045217
59.8762027
58.89263553
59.0955964
58.84976434
58.6264877
58.69598821
58.6079406
58.46301875
58.48843993
58.49919992
58.66442141
58.59571095
58.7226336
86.49089786
78.31580352
120.675897
59.62268915
60.16323597
59.38737265
58.80171884
58.87553633
58.77091853
58.58663343
58.6215843
58.57083191
58.44752716
58.46289088
58.52995734
58.82339601
58.68192012
58.9129037
86.95185299
87.20193493
116.4076217
61.04884778
59.57849537
60.41621042
58.97073384
58.80502976
58.90243282
58.59324018
58.5871081
58.57071087
58.43968884
58.4486125
58.53783315
58.99833455
58.85169953
59.15180998
67.66322763
85.80873541
84.3510073
73.39063446
62.07429763
70.82774017
59.91670323
59.03584732
59.53955591
58.63147285
58.59972638
58.59104619
58.43057336
58.44119155
58.50133658
58.87299147
59.00736295
58.98858967
62.10293073
65.79755285
63.13262347
68.93540961
74.40734681
68.64944144
60.42400321
60.09101114
59.79600674
58.6039954
58.63637285
58.55990103
58.41045453
58.43105679
58.43677111
58.59613431
58.83857866
58.63042957
59.10406205
61.55128361
59.21157016
59.89652166
66.94105613
59.80344209
58.91138883
60.26196764
58.8166089
58.48986908
58.59431016
58.46849667
58.38563026
58.4096728
58.39168021
58.45513956
58.57302305
58.46259802
58.53723229
58.96861615
58.54545028
58.56682858
59.42413579
58.56022746
58.49004844
58.80697955
58.47696849
58.40989938
58.47881089
58.40225894
58.36619149
58.3850672
58.36706091
58.3968457
58.44746479
58.39731195
58.41414007
58.51438696
58.41361531
58.41670563
58.53851176
58.41331617
58.3981949
58.47438602
58.39351347
58.37417755
58.40607414
58.37040631
58.35445754
58.36672331
61.68925837
61.62227458
60.03396495
64.15632517
68.77229051
69.09760821
65.25218956
66.31542216
63.79476522
62.65469262
62.44765403
60.34569774
64.52061779
68.51854167
68.16033365
69.15429199
69.18474689
64.85501467
63.55477659
63.38459391
60.92672365
63.57944126
65.65824846
65.40671307
68.0357913
67.63454509
64.19100752
64.4260297
64.19450725
61.31242061
131.1322448
161.4772242
154.2913437
95.19418911
97.90534178
120.7227841
62.7112917
70.60068556
68.35307854
73.6784807
70.96028081
62.86590328
65.89256664
65.4869566
61.86905167
89.14671225
104.2295046
100.3824649
148.1526976
142.7646372
122.2108541
72.73773654
74.14572993
86.5041525
61.58925956
65.50535588
64.51000988
68.05974037
65.88823577
61.71088178
70.59099679
71.26061331
63.73203498
81.27034912
112.50236
104.1900848
99.24605386
96.18178039
86.8396999
64.62735574