/*--------------------------------*- C++ -*----------------------------------*\
  =========                 |
  \\      /  F ield         | OpenFOAM: The Open Source CFD Toolbox
   \\    /   O peration     | Website:  https://openfoam.org
    \\  /    A nd           | Version:  6
     \\/     M anipulation  |
\*---------------------------------------------------------------------------*/
FoamFile
{
    version     2.0;
    format      ascii;
    class       surfaceScalarField;
    location    "0.100024";
    object      phi;
}
// * * * * * * * * * * * * * * * * * * * * * * * * * * * * * * * * * * * * * //

dimensions      [0 3 -1 0 0 0 0];

internalField   nonuniform List<scalar> 
32358
(
-4.375736936e-08
0.0002750387574
-5.448805407e-08
0.0002750207307
-5.792332447e-08
0.0002749984353
-3.56609554e-08
0.0002749727376
9.339215941e-09
0.0002749649998
6.132943809e-08
0.0002749430098
2.742548376e-08
0.0001374664823
1.201054039e-07
0.0001374468162
0.0001374993875
2.853799807e-08
-4.416784461e-08
0.0001374813996
6.176828873e-08
0.0001374757588
1.105846113e-07
-8.584337326e-08
-1.349940687e-07
0.0001374732949
1.621991465e-07
-1.875318899e-07
0.0001374798765
2.071054355e-07
-2.227704814e-07
0.0001374913029
2.315172936e-07
-2.327725485e-07
0.0001375057623
2.27510237e-07
-2.156708594e-07
0.0001375176008
1.97070074e-07
-1.781879218e-07
0.0001375225833
1.561046238e-07
-1.35836412e-07
0.0001375188783
1.174580788e-07
3.212296656e-07
0.0001375559687
-3.332036393e-07
-1.319184221e-07
0.0001375874237
1.928997535e-07
0.0002751233299
1.070674774e-07
0.0002750958323
4.116195003e-08
0.0002750609055
-8.148428152e-09
0.0002750443104
-2.908689622e-08
0.0002750309385
0.0002749659131
2.867441138e-07
0.0002747520133
1.177566813e-07
0.0002751897181
5.757624767e-08
0.0002750586157
1.224752447e-07
0.0002749078386
1.430272046e-07
0.0002749444479
1.372268648e-07
0.0001373995849
1.882371395e-07
0.0001373609881
0.0001374043461
1.99363071e-07
-0.0001374465379
-2.38473513e-07
0.0001373682835
3.16727894e-07
0.0001373118454
5.14871566e-07
-0.0001374174963
-4.092206961e-07
-0.0001373983833
-6.354157704e-07
0.0001372680791
7.657199787e-07
-0.0001373927302
-9.046274767e-07
0.000137253488
1.043869626e-06
-0.0001374151017
-1.174454983e-06
0.0001373027805
1.286776124e-06
-0.0001374647343
-1.370235343e-06
0.0001374189695
1.416000148e-06
-0.0001375246802
-1.420897456e-06
0.000137558881
1.386696731e-06
-0.0001375721708
-1.317801115e-06
0.0001376678992
1.22207271e-06
-1.110306946e-06
0.0001377154019
9.877721382e-07
-0.0001375928671
-8.626683014e-07
-0.0001375955425
0.0001377140048
7.44205954e-07
-6.346029408e-07
0.0001376389108
5.516608457e-07
7.306328523e-07
0.0001377507729
-6.168088512e-07
-4.776675768e-07
0.0001377364006
4.300328267e-07
0.0002753964323
2.154144771e-07
0.0002752755239
7.546499259e-08
0.0002751842599
5.978581583e-08
0.0002750466176
0.0002750256989
6.671999287e-07
0.0002740848133
8.68002894e-07
0.0002749889152
8.861650928e-07
0.0002750404535
1.177108216e-06
0.0002746168955
1.944234231e-07
0.0001373160829
8.683954891e-07
0.0001377426543
0.0001374229756
1.710327167e-07
-0.0001373438473
-2.081773251e-07
0.0001372375574
3.144671303e-07
0.0001371251712
5.517643656e-07
-0.0001372594109
-4.175246981e-07
-7.168565746e-07
0.0001369711197
9.088580616e-07
-0.0001371631212
0.0001368330142
1.376383322e-06
-1.132227127e-06
-0.0001370771704
-1.649421948e-06
0.0001367675286
1.931661832e-06
-0.0001370497685
-2.202645643e-06
0.0001368955652
2.441463854e-06
-0.0001371343835
-2.619531325e-06
0.000137252654
2.715993124e-06
-0.0001373491158
-2.724111427e-06
0.0001376932037
2.645169738e-06
-0.000137614262
-2.494305475e-06
0.0001380127791
2.291610749e-06
-0.0001378100844
-2.061706207e-06
0.0001381369819
1.817608022e-06
-0.0001378928837
-1.576747045e-06
0.0001381163466
1.346218723e-06
-0.0001378858182
-1.135177442e-06
-0.0001377796533
0.0001379579397
9.56891116e-07
-7.731659274e-07
0.0001378648574
6.590814297e-07
4.662498151e-07
0.0001379893158
-4.285321687e-07
-5.198477039e-07
0.0001378892465
-3.091760271e-07
0.0002760509497
-2.658748637e-07
0.0002751409587
-1.530003962e-07
0.0002749337432
0.0002748726985
1.48729213e-07
0.0002739360841
1.10762475e-06
0.0002740300196
2.247398575e-06
0.0002739006797
2.42867658e-06
0.0002734988814
9.367360936e-07
0.0001371029871
2.641772351e-06
-0.0001378428027
-2.751488042e-06
0.000138780705
1.813585748e-06
0.000137158319
1.428040639e-06
-0.0001371495796
-1.436779987e-06
-0.0001369638566
-1.465146622e-06
0.0001367754238
1.653579471e-06
2.874613462e-06
-0.000136738003
-2.8011102e-06
6.847186314e-05
6.819263656e-05
-0.0001366140728
-3.173409669e-06
2.234734371e-06
6.847533954e-05
6.907740856e-05
-0.0001363944927
-2.336319248e-06
2.816083545e-06
6.795865917e-05
6.795606928e-05
-0.0001365661186
-3.313674803e-06
3.768063349e-06
6.808657371e-05
6.802515639e-05
-0.000137116333
-4.108967718e-06
4.290789455e-06
6.852426975e-05
6.841024156e-05
-0.0001378095877
-4.288154759e-06
4.122803617e-06
6.904267382e-05
6.893226501e-05
-3.828608953e-06
3.446993338e-06
-0.0001382881468
6.936143859e-05
6.93083238e-05
-3.034551808e-06
2.620176885e-06
-0.000138455527
6.944248993e-05
6.942741197e-05
-2.232888129e-06
-0.0001384063804
0.00013879826
1.841008519e-06
-1.406339743e-06
0.0001384783104
1.147967293e-06
-0.000138219938
-7.149278776e-07
-0.0001380658126
0.0001380867759
6.939646226e-07
-2.849164805e-08
0.0001376710141
3.467933576e-07
-1.496860946e-06
0.0002764070858
8.997573219e-07
2.409675759e-07
-1.1145798e-06
0.0002747586776
-5.734122417e-07
0.0002743925756
0.0002742992863
2.036800225e-08
0.0002739157161
1.751556861e-07
0.0002738752319
2.995410592e-07
0.0002737762943
2.563007968e-07
0.0002735933891
-5.126743109e-08
-0.0001370744792
0.0001368476728
4.831072822e-07
0.0001368750719
1.004771207e-06
-0.0001372641792
-6.156639233e-07
-0.000136881644
-1.236995176e-06
0.0001365485851
1.570054066e-06
-0.0001362979384
-2.313832105e-06
1.219210913e-06
1.201033959e-06
6.817295992e-05
6.801856576e-05
-6.816495587e-05
-1.196852526e-06
6.802536398e-05
1.336444408e-06
-6.870243573e-05
-3.328215054e-06
6.971445841e-05
2.316192365e-06
-6.764505698e-05
-1.522909827e-06
6.758410256e-05
1.583864247e-06
-6.767854629e-05
-2.185334319e-06
6.746462637e-05
2.399254233e-06
-6.822253798e-05
-2.940635791e-06
6.811650335e-05
3.046670426e-06
-6.902133383e-05
-3.078939151e-06
6.910241299e-05
2.997859984e-06
-6.954508353e-05
-2.590218387e-06
6.972807682e-05
2.407225094e-06
-6.976697642e-05
-1.631288296e-06
7.046304194e-05
9.352227768e-07
-2.15974473e-07
-6.978003331e-05
7.006712026e-05
-7.111247211e-08
1.642372611e-06
-0.0001391922233
0.0001385561325
-1.006281797e-06
1.280200169e-06
0.0001385201851
-1.3398426e-06
-0.0001384605427
1.817725248e-06
-0.0001382731937
0.0001383263765
-1.870908073e-06
-2.497020899e-08
0.000275062496
-8.838668564e-08
1.4579467e-06
5.29702066e-08
0.0002746807371
8.59908059e-09
0.0002744369467
0.0002743078854
-7.963348262e-08
0.0002739953496
-1.177278279e-07
0.0002739133263
-1.628346497e-07
0.0002738214011
-8.636718688e-08
0.0002736574526
-1.405309953e-07
-0.00013668446
0.0001366694466
-7.135374835e-08
-0.0001367818682
0.0001365824321
3.147237728e-07
-1.152877534e-07
-0.0001364223931
-3.688953088e-07
0.0001363164306
4.748577828e-07
-6.797848664e-05
-3.179418934e-07
6.793192486e-05
3.64503672e-07
-6.763310498e-05
-5.61927001e-07
6.753478709e-05
6.602448957e-07
-6.743808544e-05
-1.936143254e-06
2.363845052e-06
3.355280011e-05
3.345758353e-05
-6.814751717e-05
-2.027410446e-06
3.788736363e-06
3.322113165e-05
3.316505961e-05
-6.684585668e-05
-5.133981638e-06
3.25603614e-06
3.353564431e-05
3.518815786e-05
-4.558360168e-06
-6.762062394e-05
4.813904296e-06
3.37478359e-05
3.361724391e-05
-4.711397701e-06
-6.961712798e-05
3.255182762e-06
3.596362388e-05
3.510971904e-05
-7.122372047e-05
-1.439385641e-06
1.511753429e-06
3.569649007e-05
3.54548626e-05
-7.039564767e-05
-6.433800359e-07
7.748816668e-07
3.503076945e-05
3.52333766e-05
-7.00168909e-05
-6.835635448e-07
7.017262184e-05
5.278326077e-07
-1.495287043e-07
-0.0001397304427
0.0001396291461
6.357425498e-07
-3.849172971e-07
-0.0001387551617
-4.481375687e-07
0.0001389426869
2.606123514e-07
-3.509155793e-07
-0.0001381129216
0.0001380730296
3.908075304e-07
2.794700059e-07
0.0002753502139
-2.906983615e-07
-2.764895926e-07
1.295141895e-07
0.000274830693
6.292272803e-08
0.0002745035382
0.0002743708081
-1.686377858e-07
0.0002741639874
-3.447937254e-07
0.0002740894822
-4.785876842e-07
0.0002739551951
-1.610872085e-07
0.0002736749025
-3.349503015e-07
-0.0001366830884
0.0001366354524
-1.134512259e-07
-0.0001363880102
0.0001363783163
-1.006254577e-07
1.103193277e-07
-0.0001362669152
-8.371011385e-08
0.0001361158924
2.34732964e-07
-6.784992547e-05
-1.364108056e-07
6.782816712e-05
1.581691568e-07
-6.735267469e-05
-1.851234274e-07
6.733066149e-05
2.071366294e-07
-3.332733207e-05
-2.069843239e-07
3.330567917e-05
2.286372198e-07
-3.277551995e-05
-4.852530437e-07
3.268801812e-05
5.727548742e-07
-3.194285335e-05
-1.326669645e-06
3.170216263e-05
1.567360364e-06
-4.03139844e-06
-3.269655396e-05
4.317225687e-06
1.625677029e-05
1.615395642e-05
-3.311254783e-06
-3.56852314e-05
3.624367619e-05
2.752809999e-06
-1.890136686e-06
-3.59525761e-05
3.609541657e-05
1.747296221e-06
-3.571243359e-05
-1.008109461e-06
3.586161299e-05
8.589300609e-07
-7.064024611e-05
-1.035094928e-06
7.078802078e-05
8.873202526e-07
-5.183494128e-07
-0.0001399666274
0.0001402979724
6.544269476e-07
-4.674225972e-07
-0.0001389907993
-5.210161036e-07
0.000139023943
4.878723661e-07
-3.502113575e-07
-0.0001381994535
0.0001383192154
2.304494687e-07
8.466015712e-08
0.0002755115044
-9.846508019e-08
-1.474855946e-07
1.081865522e-08
0.0002749045345
-7.569624543e-09
0.0002745219265
0.0002743632385
-2.922584403e-07
0.0002744562458
-5.669572706e-07
0.000274364181
-8.402431731e-07
0.000274228481
-4.722996543e-07
0.0002739367322
-6.297732867e-07
-0.0001366844201
0.0001367294771
-5.173566371e-07
-0.0001363945179
0.0001364334914
-6.087062981e-07
5.697327218e-07
-0.0001359707983
6.62440317e-07
0.0001360118547
-7.034967578e-07
-6.781434246e-05
2.533407967e-07
6.781693484e-05
-2.559331776e-07
-6.727383893e-05
2.584610083e-07
6.728901508e-05
-2.736371632e-07
-3.324233208e-05
1.430526724e-07
3.324718817e-05
-1.479087569e-07
-3.252757826e-05
2.249849187e-07
3.254834229e-05
-2.457489474e-07
-3.093366204e-05
5.603071698e-07
3.108046588e-05
-3.23093194e-07
-3.840178105e-07
-3.765989291e-06
-3.883137566e-05
3.92901686e-05
3.307196355e-06
-1.498096308e-06
-3.720584328e-05
3.735506004e-05
1.348879542e-06
-3.625929797e-05
-6.884550581e-07
3.632578844e-05
6.219645922e-07
-7.122081341e-05
-5.49726286e-07
7.133629061e-05
4.342490857e-07
-1.689770159e-07
-0.0001404882619
0.0001404819431
2.957617669e-07
-1.204659757e-07
-0.0001391661789
-1.683714065e-07
0.0001392722554
6.229489984e-08
1.250001141e-08
-0.00013839091
0.000138446065
-6.765498778e-08
-1.847433022e-07
0.0002755188822
8.226381158e-08
9.510171426e-08
-1.344929274e-07
0.0002748542841
-8.247571241e-08
0.0002744699093
0.0002742807628
-3.837760507e-07
0.0002748400219
-7.864987997e-07
0.0002747669038
-1.182083187e-06
0.0002746240654
-7.285512684e-07
0.0002743607155
-8.775151834e-07
-0.0001368179925
0.0001368881435
-7.987022572e-07
-0.0001365304971
0.0001366214784
-1.002428256e-06
9.114470052e-07
-0.000136088732
1.129885252e-06
0.000136213619
-1.25477222e-06
-6.77734742e-05
6.645409106e-07
6.779951767e-05
-6.905843818e-07
-6.740958252e-05
7.202241146e-07
6.746646043e-05
-7.771020201e-07
-3.337569065e-05
4.884821483e-07
3.339761132e-05
-5.104028188e-07
-3.289361828e-05
7.898394039e-07
3.295328743e-05
-8.495085528e-07
-1.621837275e-05
7.881599305e-07
1.625282649e-05
-8.226136808e-07
-1.067714875e-07
-4.075102082e-05
4.068211471e-05
1.880782284e-07
-1.240063388e-08
-1.905309496e-07
-3.798252916e-05
3.800081038e-05
1.722497313e-07
-3.661140498e-05
-5.141315105e-08
3.662700039e-05
3.581774452e-08
-7.155538616e-05
1.130388002e-07
7.151217776e-05
-6.983040274e-08
7.797770909e-08
-0.0001405649128
0.0001405736395
-2.390210206e-07
1.523166496e-07
-0.000139307149
2.400839963e-07
0.0001393188597
-2.517946263e-07
2.411642318e-07
-0.0001384611512
0.0001384641532
-2.441662226e-07
-3.862536841e-07
0.000275397566
2.75019108e-07
2.325507891e-07
-2.637737435e-07
0.0002747318041
-1.423706289e-07
0.0002743485062
0.0002741383921
-5.03409245e-07
0.0002753434311
-1.002689099e-06
0.0002752661836
-1.533117593e-06
0.0002751544939
-9.763050084e-07
0.0002749195041
-1.115601216e-06
-0.0001370209272
0.0001371514771
-1.106854885e-06
-0.000136755671
0.0001369124845
-1.423462036e-06
1.266648502e-06
-0.0001363686138
1.589921685e-06
0.0001365509627
-1.772270605e-06
-6.793939199e-05
9.621350182e-07
6.798215387e-05
-1.004896898e-06
-6.756488044e-05
1.182131712e-06
6.763520332e-05
-1.252454598e-06
-3.359353383e-05
7.080895598e-07
3.361798048e-05
-7.32536207e-07
-3.333593517e-05
9.749497712e-07
3.337821581e-05
-1.017230409e-06
-1.664904397e-05
7.048160278e-07
1.666346034e-05
-7.192324049e-07
2.348509892e-06
-3.950364179e-05
3.927949306e-05
-2.124361169e-06
1.099344277e-06
-3.769939741e-05
3.7611143e-05
-1.011089861e-06
-3.652748002e-05
6.083186107e-07
3.649004498e-05
-5.7088357e-07
-7.136167751e-05
7.003867379e-07
7.128382564e-05
-6.225348725e-07
4.70907148e-07
-0.0001404909914
0.0001403315645
-8.817956088e-07
5.703153387e-07
-0.000139245784
7.401983194e-07
0.0001391636583
-6.580725855e-07
5.675981876e-07
-0.0001384001353
0.000138343323
-5.107858576e-07
-6.831453436e-07
0.000275136229
4.874135321e-07
4.5706884e-07
-4.456749493e-07
0.0002744943337
-2.129411868e-07
0.0002741157724
0.0002739254509
-5.89362264e-07
0.0002759327934
-1.195552509e-06
0.0002758723739
-1.827572813e-06
0.0002757865142
-1.205035006e-06
0.000275601588
-1.304621687e-06
-0.0001373265873
0.0001374984862
-1.376933971e-06
-0.0001370950483
0.0001372968444
-1.764527514e-06
1.562731422e-06
-0.0001367594974
1.980389782e-06
0.0001369932933
-2.214185774e-06
-6.816836278e-05
1.221060905e-06
6.822778101e-05
-1.280479135e-06
-6.786324423e-05
1.504061571e-06
6.794464682e-05
-1.585464162e-06
-3.376252548e-05
9.19743979e-07
3.378543663e-05
-9.426551335e-07
-3.361346281e-05
1.096865042e-06
3.363791323e-05
-1.121315459e-06
-1.683282163e-05
6.625315817e-07
1.685065185e-05
-6.803618053e-07
-8.316121958e-06
1.502569353e-06
8.524001317e-06
-1.710448711e-06
3.377482593e-06
-3.767205191e-05
3.74523598e-05
-3.157790485e-06
-3.681679025e-05
1.968850657e-06
3.66918393e-05
-1.843899709e-06
-3.605207884e-05
1.124185906e-06
3.59830672e-05
-1.055174276e-06
-7.09273393e-05
1.43573602e-06
7.077351651e-05
-1.281913232e-06
9.479484642e-07
-0.0001400663168
0.0001397107637
-1.655512732e-06
1.063117384e-06
-0.0001389741566
1.361342286e-06
0.00013876842
-1.155605594e-06
9.543491755e-07
-0.0001382260429
0.0001380907953
-8.191016147e-07
-1.047290247e-06
0.0002746784314
7.953599522e-07
7.09727838e-07
-6.469677633e-07
0.0002740940113
-3.204096529e-07
0.0002737892143
0.0002736050413
-6.313970464e-07
0.0002765641904
-1.313819533e-06
0.0002765547964
-2.004189627e-06
0.0002764768843
-1.355799334e-06
0.0002763926906
-1.439492875e-06
-0.0001377050899
0.0001379060717
-1.556781059e-06
-0.0001375200113
0.0001377583351
-2.012496926e-06
1.77417312e-06
-0.0001372371338
2.272511575e-06
0.0001375347941
-2.570171835e-06
-6.846029495e-05
1.427440701e-06
6.853820644e-05
-1.505352193e-06
-6.82170059e-05
1.777581592e-06
6.831701563e-05
-1.877591323e-06
-3.396390329e-05
1.088929855e-06
3.399284394e-05
-1.117870506e-06
-3.37724696e-05
1.301685871e-06
3.379469169e-05
-1.323907967e-06
-1.683719953e-05
7.156377904e-07
1.685090929e-05
-7.29347553e-07
-9.040633566e-06
1.475132851e-06
9.01225688e-06
-1.446756166e-06
3.711662601e-06
-3.598871368e-05
3.580038797e-05
-3.523336897e-06
-3.57653213e-05
2.398214283e-06
3.563853388e-05
-2.271426864e-06
-3.544568016e-05
1.566585894e-06
3.538193955e-05
-1.50284528e-06
-7.022936722e-05
2.147450973e-06
7.003166075e-05
-1.949744503e-06
-0.0001392811142
1.472522237e-06
0.0001387962148
-2.519874634e-06
1.532251782e-06
-0.0001384566129
2.100085897e-06
0.0001381277478
-1.771220768e-06
1.484318941e-06
-0.000137897395
0.0001376562146
-1.243138587e-06
-1.466240322e-06
0.0002739702575
1.119319189e-06
1.055095069e-06
-9.269052585e-07
0.0002735546762
-4.437713068e-07
0.0002733060803
0.00027316127
-6.733010093e-07
0.0002772374914
-1.369861658e-06
0.000277251357
-2.117143545e-06
0.0002772241661
-1.439612599e-06
0.0002772119578
-1.496798121e-06
-0.0001381342567
0.0001383400323
-1.645388291e-06
-0.0001380141534
0.0001382656975
-2.169421056e-06
1.917876961e-06
-0.0001378241647
2.478542985e-06
0.0001381466886
-2.801066892e-06
-6.881170725e-05
1.575703308e-06
6.890299012e-05
-1.666986178e-06
-6.864377544e-05
1.983357783e-06
6.876142942e-05
-2.101011761e-06
-3.420859626e-05
1.239173688e-06
3.42437825e-05
-1.274359925e-06
-3.401214675e-05
1.548290809e-06
3.405577323e-05
-1.591917289e-06
-1.685931056e-05
9.647828564e-07
1.687104233e-05
-9.765146282e-07
-1.695953126e-05
2.487648001e-06
1.68900374e-05
-2.418154144e-06
3.446823603e-06
-3.460585651e-05
3.446256797e-05
-3.303535061e-06
-3.483222603e-05
2.474262968e-06
3.472161538e-05
-2.363652312e-06
-3.482061729e-05
1.750867923e-06
3.475023168e-05
-1.680482307e-06
2.500607283e-06
-6.941606487e-05
6.921373336e-05
-2.298275769e-06
-0.0001382473762
1.793421726e-06
0.000137691605
-3.068354458e-06
1.830703929e-06
-0.0001377481838
2.609251218e-06
0.00013734966
-2.210727373e-06
1.875658954e-06
-0.0001373678223
0.0001370843514
-1.592188091e-06
-1.844209108e-06
0.0002730911665
1.369437705e-06
1.353862398e-06
-1.139425718e-06
0.0002728498928
-5.448627087e-07
0.0002727115173
0.0002726164073
-6.879751454e-07
0.0002779254666
-1.386265868e-06
0.0002779496477
-2.173007524e-06
0.0002780109078
-1.494157882e-06
0.0002780666545
-1.53354639e-06
-0.0001385979814
0.0001388340229
-1.73019942e-06
-0.0001385600672
0.0001388448149
-2.2883214e-06
2.00357364e-06
-0.0001385000725
2.616415728e-06
0.0001388480243
-2.964367577e-06
-6.921172922e-05
1.681638631e-06
6.931622487e-05
-1.786134284e-06
-6.911653965e-05
2.120166881e-06
6.996278672e-05
-2.96641395e-06
-3.467857258e-05
1.362885058e-06
3.471916301e-05
-1.403475487e-06
-3.460220317e-05
1.760450112e-06
3.466684191e-05
-1.825088851e-06
-1.729204296e-05
1.207761162e-06
1.732272648e-05
-1.238444689e-06
-1.634759589e-05
1.677008182e-06
3.273879403e-05
-3.32417245e-06
-1.639227405e-05
1.648240177e-06
-3.379665147e-05
2.900890704e-06
3.372485212e-05
-2.829091355e-06
-3.42388377e-05
1.996690514e-06
3.417359378e-05
-1.931446601e-06
-3.466638231e-05
4.198206477e-07
3.440180193e-05
-1.552402653e-07
1.899199019e-06
-6.863655274e-05
6.859799582e-05
-1.860642099e-06
-0.0001371174968
1.880457304e-06
0.0001368737826
-2.862615935e-06
1.225872837e-06
-0.0001369553894
2.769135649e-06
0.0001366444278
-2.458174058e-06
2.093078593e-06
-0.0001367325697
0.0001364639432
-1.824452072e-06
-2.071462745e-06
0.0002721536219
1.466797481e-06
1.542209783e-06
-1.322007908e-06
0.000272100438
-6.435927754e-07
0.0002720331022
0.0002719728145
-6.622080897e-07
0.0002785876747
-1.366403383e-06
0.000278653843
-2.112997464e-06
0.0002787575019
-1.473191545e-06
0.0002789349492
-1.508100615e-06
-0.000139077138
0.0001393319104
-1.727963926e-06
-0.0001391481876
0.0001394492164
-2.302409541e-06
2.001380703e-06
-0.0001392042026
2.632309214e-06
0.0001395476234
-2.975730028e-06
-6.931648766e-05
2.424017496e-06
6.96561318e-05
-2.763661637e-06
-7.084811894e-05
3.011997072e-06
7.020409223e-05
-2.367970361e-06
-3.502066311e-05
1.372391958e-06
3.506846882e-05
-1.420197671e-06
-3.508118841e-05
1.757543653e-06
3.513916419e-05
-1.815519437e-06
-3.537277618e-05
2.229524937e-06
3.543223163e-05
-2.288980386e-06
-3.276216505e-05
2.529586004e-06
3.276720348e-05
-2.534624434e-06
-3.335246617e-05
2.381443789e-06
3.331890301e-05
-2.347880634e-06
-3.374809665e-05
2.026147072e-06
3.370335054e-05
-1.981400969e-06
-3.399038261e-05
1.633554768e-06
3.39465193e-05
-1.58969146e-06
-6.827172238e-05
2.540563813e-06
6.808949782e-05
-2.358339257e-06
-0.0001398875674
1.562366358e-06
0.0001367824635
-3.860648693e-07
1.928802369e-06
-0.0001369452308
-1.943942991e-06
0.0001366186588
2.270515e-06
-1.220899939e-06
-0.0001364421147
0.0001385662305
-9.032158619e-07
-1.468323059e-06
0.0002739424301
-1.392239365e-06
1.071754216e-06
-1.215849852e-06
0.0002718479647
-6.522218838e-07
0.0002714694742
0.0002713205926
-6.27880493e-07
0.0002792155551
-1.281005527e-06
0.0002793069681
-1.985534252e-06
0.0002794620306
-1.390290769e-06
0.0002797434817
-1.403776032e-06
-0.0001395630122
0.0001398223202
-1.649598782e-06
-0.0001397287285
0.0001400129626
-2.191694831e-06
1.907460737e-06
-0.0001400048046
2.504201229e-06
0.0001404331697
-2.932566337e-06
-7.175888845e-05
2.979584738e-06
7.076398139e-05
-1.984677679e-06
-7.052337267e-05
2.039538809e-06
7.065444338e-05
-2.170609513e-06
-3.536191977e-05
1.307490069e-06
3.540731632e-05
-1.352886622e-06
-3.548279337e-05
1.661545641e-06
3.553196935e-05
-1.71072162e-06
-3.559798841e-05
2.043375413e-06
3.560067208e-05
-2.046059077e-06
-3.271650731e-05
2.176776605e-06
3.270680046e-05
-2.167069752e-06
-3.309547262e-05
2.017952313e-06
3.306837001e-05
-1.990849708e-06
-3.340906682e-05
1.760346059e-06
3.337491581e-05
-1.726195056e-06
1.467962477e-06
-3.364951688e-05
3.361326565e-05
-1.431711245e-06
-6.765972416e-05
2.338331634e-06
6.753008065e-05
-2.208688121e-06
-0.000135819047
1.845386251e-06
0.0001353591198
-3.189795948e-06
1.804336871e-06
-0.0001360512904
2.653984977e-06
0.0001356697942
-2.272488767e-06
1.713870328e-06
-0.0001370297246
0.0001359848601
-6.690058726e-07
5.834226738e-08
0.0002724787888
1.358983361e-06
4.631571745e-08
-1.021228654e-07
0.0002720084299
-4.391730007e-07
0.0002718065243
0.0002708814196
-5.558769658e-07
0.0002797714321
-1.132237904e-06
0.000279883329
-1.78024773e-06
0.0002801100404
-1.26217087e-06
0.0002804485869
-1.223182036e-06
-0.0001400281563
0.0001402471598
-1.481174358e-06
-0.0001402824126
0.0001405196218
-1.946087017e-06
1.708877889e-06
-0.000141260456
2.313014626e-06
0.000144059799
-5.112357644e-06
-7.120351215e-05
1.823899075e-06
7.093398952e-05
-1.554376442e-06
-7.103333278e-05
1.82422481e-06
7.115481557e-05
-1.945707601e-06
-3.568384932e-05
1.195074165e-06
3.572743797e-05
-1.238662813e-06
-3.584875176e-05
1.527953825e-06
3.589633119e-05
-1.575533258e-06
-3.550978422e-05
1.89172029e-06
3.549487913e-05
-1.876815206e-06
-3.260775486e-05
1.917084973e-06
3.259443633e-05
-1.903766436e-06
-3.287967643e-05
1.748145292e-06
3.285541436e-05
-1.723883222e-06
-3.314478388e-05
1.522890457e-06
3.311780642e-05
-1.495913e-06
1.279431585e-06
-3.338018099e-05
3.33529013e-05
-1.252151897e-06
-6.715846225e-05
2.077112014e-06
6.705223683e-05
-1.970886594e-06
-0.000134961666
1.649697337e-06
0.0001346148909
-2.901387264e-06
1.598464974e-06
2.560820523e-06
-0.0001353418525
0.0001350419011
-2.260869141e-06
1.983133659e-06
-0.000135587311
0.0001353331245
-1.728947164e-06
-1.229191245e-06
0.0002708816095
1.397548648e-06
1.428821892e-06
-3.646875655e-07
0.0002711439262
8.961977538e-08
0.000271352217
0.0002709710394
-4.805625957e-07
0.0002802519947
-9.74525504e-07
0.0002803772919
-1.494866696e-06
0.0002806303816
-1.051368001e-06
0.0002810160915
-1.011003307e-06
-0.0001404322651
0.0001406287997
-1.247902602e-06
-0.0001407473021
0.0001409486156
-1.632831189e-06
1.431517664e-06
-0.0001454258088
0.0001458225398
-2.247223334e-06
1.850492333e-06
-7.11754516e-05
1.206169171e-06
7.120241463e-05
-1.2331322e-06
-7.149908996e-05
1.498408651e-06
7.161773303e-05
-1.617051716e-06
-3.597870265e-05
1.009740916e-06
3.602484475e-05
-1.055883023e-06
-3.622401392e-05
1.34743515e-06
3.627660083e-05
-1.400022057e-06
-3.539125616e-05
1.760609294e-06
3.538623503e-05
-1.755588158e-06
-3.246623603e-05
1.71777043e-06
3.244836118e-05
-1.699895584e-06
-3.266895128e-05
1.528732074e-06
3.264288399e-05
-1.502664788e-06
-3.291290274e-05
1.30079675e-06
3.288606666e-05
-1.273960675e-06
1.079751394e-06
-3.315721804e-05
3.313474691e-05
-1.057280271e-06
-6.675954661e-05
1.754311292e-06
6.667390587e-05
-1.66867056e-06
-0.0001342621451
1.421287157e-06
0.0001339713772
-2.495497509e-06
1.364978303e-06
2.197051492e-06
-0.0001347699283
0.0001345138545
-1.940977657e-06
1.714761682e-06
-0.0001350952069
0.000134885444
-1.504998858e-06
-1.669159967e-06
0.0002700728122
1.192469911e-06
1.285487398e-06
-9.15860037e-07
0.0002703906263
-1.392236039e-07
0.0002705755806
0.0002708318158
-3.618478073e-07
0.0002806138425
-7.434975302e-07
0.0002807589416
-1.148990449e-06
0.0002810358745
-8.180242351e-07
0.0002814370854
-7.519600487e-07
-0.0001407673924
0.0001408853002
-9.359320742e-07
-0.0001411342469
0.0001412715456
-1.21689016e-06
1.079591405e-06
-0.0001456940358
0.0001446599338
-3.097687981e-07
1.343870776e-06
-7.143905728e-05
8.625632748e-07
7.145119074e-05
-8.746967343e-07
-7.190271727e-05
1.068920877e-06
7.197730603e-05
-1.143509632e-06
-3.625702176e-05
7.375993363e-07
3.62976234e-05
-7.782009728e-07
-3.664554695e-05
1.065022019e-06
3.670301893e-05
-1.122493994e-06
-3.542254823e-05
1.603844101e-06
3.545017107e-05
-1.631466937e-06
-3.229156365e-05
1.602971699e-06
3.226847452e-05
-1.579882568e-06
-3.242211972e-05
1.340976334e-06
3.238564734e-05
-1.304503958e-06
-3.268249081e-05
1.063334887e-06
3.265387313e-05
-1.034717206e-06
8.56441993e-07
-3.296645825e-05
3.294643308e-05
-8.36416828e-07
-6.64456864e-05
1.382191694e-06
6.638263352e-05
-1.319138811e-06
-0.00013372933
1.137026866e-06
0.0001335381298
-2.022369323e-06
1.076542715e-06
1.822020831e-06
-0.0001342495746
0.0001340734857
-1.645931982e-06
1.4363094e-06
-0.0001346816582
0.0001344950055
-1.249656732e-06
-1.465711798e-06
0.0002694660951
9.847692055e-07
1.087659646e-06
-8.994068404e-07
0.0002698243213
-3.352255422e-07
0.0002700113993
0.0002704965902
-2.697515238e-07
0.000280883594
-5.346961429e-07
0.0002810238862
-7.907210636e-07
0.0002812918995
-5.533642574e-07
0.0002816741562
-4.744276319e-07
-0.0001409716555
0.0001410505659
-6.322745979e-07
-0.0001413870692
0.0001414513524
-7.627822303e-07
6.984990267e-07
-0.0001424755623
0.0001420853735
-4.633777674e-07
8.535666041e-07
-7.191100525e-05
7.241521471e-07
7.167429802e-05
-4.874449226e-07
-7.212943269e-05
5.149138415e-07
7.215252626e-05
-5.380074035e-07
-3.645903305e-05
3.473862186e-07
3.647957011e-05
-3.679232778e-07
-3.709015855e-05
5.454568706e-07
3.714161194e-05
-5.969102626e-07
-3.596504837e-05
1.239565237e-06
3.612429464e-05
-1.398811512e-06
-3.201887008e-05
1.76021513e-06
3.195527552e-05
-1.69662057e-06
-3.203877974e-05
1.133831643e-06
3.197271116e-05
-1.067763055e-06
-3.244210629e-05
7.517425121e-07
3.241352162e-05
-7.231578408e-07
5.831259532e-07
-3.281548342e-05
3.280259252e-05
-5.702350485e-07
-6.62319485e-05
9.591960581e-07
6.619732846e-05
-9.245760217e-07
-0.0001333755421
8.211191244e-07
0.0001332746796
-1.478845614e-06
7.58588992e-07
1.359111565e-06
-0.0001339319575
0.0001338406905
-1.267844541e-06
1.146501812e-06
-0.0001343453302
0.000134239678
-1.040849603e-06
-1.279419525e-06
0.0002690114031
8.23190184e-07
9.109213236e-07
-7.908132734e-07
0.0002693357151
-3.152480114e-07
0.000269535834
0.0002701813422
-1.669442409e-07
0.0002810505383
-3.200154318e-07
0.0002811769574
-4.447332611e-07
0.0002814166173
-2.956451355e-07
0.0002817635312
-2.38463163e-07
-0.0001410968045
0.0001411079363
-3.06776972e-07
-0.0001414777662
0.0001414698541
-3.190816025e-07
3.269937443e-07
-0.0001419899608
0.0001419568491
-2.612167255e-07
2.943284835e-07
-7.379273412e-05
-5.293615126e-07
7.343731935e-05
8.847762889e-07
-7.211184043e-05
-7.531413087e-08
7.206464528e-05
1.225092844e-07
-3.646384226e-05
-1.319921996e-07
3.645051109e-05
1.453233684e-07
-3.725814639e-05
-3.263858875e-07
3.723092439e-05
3.536078884e-07
-3.823120176e-05
-4.528050991e-07
3.849022144e-05
1.937854297e-07
-3.079758928e-05
2.20037329e-06
3.058597108e-05
-1.988755085e-06
-3.140867264e-05
5.174416753e-07
3.133697811e-05
-4.457471408e-07
-3.226906546e-05
2.576541201e-07
3.226702268e-05
-2.556113414e-07
2.54133617e-07
-3.275368777e-05
3.275782239e-05
-2.58268236e-07
-6.615240143e-05
5.039365964e-07
6.615650068e-05
-5.08035845e-07
-0.0001332039218
5.020717941e-07
0.0001331968077
-9.354132114e-07
4.404554565e-07
9.128125732e-07
-0.0001337558581
0.0001337206139
-8.775684051e-07
8.170784607e-07
-0.0001341434519
0.0001340905608
-7.641873893e-07
-1.027124495e-06
0.0002687444641
5.98887854e-07
6.95175631e-07
-7.429218579e-07
0.0002690515124
-4.420952011e-07
0.0002692350073
0.000269739247
-7.63263191e-08
0.0002811268646
-1.327272475e-07
0.0002812333584
-1.550506711e-07
0.0002814389407
-7.306992285e-08
0.0002817086233
-2.707283888e-08
-0.0001410935653
0.0001410570071
-3.651174158e-08
-0.0001414299354
0.0001413474224
7.642537699e-08
6.087649475e-09
-0.0001418640989
0.0001417498102
2.856015969e-07
-1.713129736e-07
-7.191516378e-05
-7.402646806e-07
7.17400988e-05
9.153296634e-07
-7.292330964e-05
-2.055952407e-06
7.304539008e-05
1.933871966e-06
-3.618894528e-05
-5.391830065e-07
3.614596108e-05
5.821672045e-07
-3.664976565e-05
-1.111476951e-06
3.654192895e-05
1.219313654e-06
-3.730278153e-05
-2.693301113e-06
3.693764904e-05
3.058433607e-06
-3.182287274e-05
-3.883408111e-06
3.223811309e-05
3.468167757e-06
-3.148077604e-05
-1.059193029e-06
3.1625812e-05
9.141570679e-07
-3.240942335e-05
-3.487943209e-07
3.245628575e-05
3.019319258e-07
-7.848124031e-08
-3.284153334e-05
3.286444436e-05
5.557022644e-08
-6.62312709e-05
8.090654133e-08
6.627570559e-05
-1.253412332e-07
-0.0001332333738
2.102016032e-07
0.000133310356
-4.481419828e-07
1.609581779e-07
4.987423914e-07
-0.0001337031616
0.0001337298577
-5.254384506e-07
5.18366142e-07
-0.0001340446392
0.000134052815
-5.265419301e-07
-7.736744115e-07
0.0002686169408
4.021678911e-07
4.990299217e-07
-5.773759872e-07
0.000268855214
-3.546545283e-07
0.0002690122859
0.0002693845925
-9.325998831e-09
0.0002811361906
2.232587088e-08
0.0002812017065
9.571392433e-08
0.0002813655527
1.174451422e-07
0.0002815418115
1.450805583e-07
-0.0001410013367
0.0001409664977
1.522842182e-07
-0.0001412582192
0.0001411540451
3.52885967e-07
-2.487117788e-07
-0.0001415921036