/*--------------------------------*- C++ -*----------------------------------*\
  =========                 |
  \\      /  F ield         | OpenFOAM: The Open Source CFD Toolbox
   \\    /   O peration     | Website:  https://openfoam.org
    \\  /    A nd           | Version:  6
     \\/     M anipulation  |
\*---------------------------------------------------------------------------*/
FoamFile
{
    version     2.0;
    format      ascii;
    class       volVectorField;
    location    "0.100024";
    object      U;
}
// * * * * * * * * * * * * * * * * * * * * * * * * * * * * * * * * * * * * * //

dimensions      [0 1 -1 0 0 0 0];

internalField   nonuniform List<vector> 
16141
(
(14.99999456 1.941959709e-05 0)
(14.99997591 0.0001391838199 -2.54771046e-19)
(14.99990681 0.0005406993388 4.2432891e-19)
(14.99986729 0.00147702221 -8.342963295e-22)
(14.99953973 0.003173726965 -3.357425113e-19)
(14.99965862 0.006671826796 -1.656993103e-19)
(14.99838834 0.01091261395 8.062638775e-20)
(15.00046411 0.008059863988 -7.380067481e-20)
(14.99966653 0.01221150384 -1.373245307e-19)
(14.99952838 0.01775627794 3.112790627e-20)
(14.99950288 0.02404949495 -5.007149424e-20)
(14.99960291 0.02985031975 0)
(14.99983688 0.03345241328 -2.722845704e-20)
(15.00012422 0.03364481469 2.126739773e-21)
(15.0003357 0.03058659622 1.202132767e-20)
(15.00039915 0.02557000761 3.221277497e-20)
(15.00012772 0.02073275543 0)
(15.00307707 0.02752943835 -3.115972282e-20)
(15.00043866 0.01994882271 0)
(15.00109429 0.01275999688 -1.593849048e-19)
(15.00040008 0.008367695643 1.593267857e-19)
(15.0004014 0.005056949801 5.678195836e-22)
(15.00025221 0.002710714143 -3.354752821e-19)
(15.00022997 0.0008588837841 -2.70486316e-18)
(14.99986611 6.204457351e-06 -8.493407803e-19)
(14.99953741 0.0002039217536 6.790730017e-19)
(14.99879183 0.001317668347 1.050616658e-22)
(14.99758135 0.003571468884 2.117391587e-20)
(14.99546531 0.009008014184 -2.117757213e-20)
(14.99266019 0.01580703178 3.118253394e-19)
(14.99184021 0.02423054305 0)
(14.99004555 0.03716477351 -1.550882049e-19)
(14.98589075 0.05872687642 0)
(14.98276696 0.08680484661 2.555762864e-19)
(14.98203447 0.1191470918 8.264980151e-21)
(14.98573915 0.1495822927 3.842297192e-20)
(14.99424864 0.1687519999 -5.809576659e-20)
(15.00454319 0.1697443454 3.785076845e-20)
(15.01236691 0.1534928218 -1.56467569e-19)
(15.01595744 0.1269798119 -7.662060903e-20)
(15.01605491 0.09764788698 2.269777786e-19)
(15.00834927 0.07194692577 0)
(15.01442384 0.05378701203 1.812411046e-20)
(15.01013477 0.03825126441 1.610532968e-19)
(15.00716212 0.02366217412 4.250327797e-21)
(15.00517388 0.01480899495 1.691287101e-19)
(15.00384444 0.007754261368 2.71482831e-18)
(15.00329432 0.002512618812 -2.039033691e-20)
(14.99985441 -0.0002928903912 1.522464049e-18)
(14.99886141 -0.000581653257 -1.353098933e-18)
(14.99678356 0.0003859957651 1.364298241e-18)
(14.99310187 0.003287298088 0)
(14.987691 0.009620896502 0)
(14.98420488 0.01882702765 0)
(14.97622224 0.03431759894 5.748779058e-19)
(14.96605812 0.05983659951 1.700429101e-20)
(14.95263026 0.0977381198 -6.055994742e-19)
(14.94084109 0.1495536637 4.022100253e-19)
(14.93656416 0.212851007 2.257683982e-19)
(14.94837582 0.2759968099 -1.712038452e-19)
(14.97908265 0.3169726152 4.159483379e-20)
(15.01696078 0.3182879499 2.852159625e-20)
(15.04451283 0.283114191 0)
(15.05574528 0.2290178273 -8.730251637e-20)
(15.05421488 0.1727362126 0)
(15.03937235 0.1230630171 -1.401917189e-21)
(15.03207612 0.08426283623 -1.488730907e-19)
(15.03041294 0.05525430915 6.633657945e-19)
(15.02142703 0.03600595305 -6.626336195e-19)
(15.01530803 0.02171572929 0)
(15.01149189 0.01144327154 -2.710395531e-18)
(15.00973822 0.00367772527 2.721714918e-18)
(15.00072113 -0.0009886304088 0)
(14.99890423 -0.002567548281 1.353203788e-18)
(14.99515873 -0.00279499114 -1.357726142e-18)
(14.98858983 -0.0007502991454 0)
(14.98257417 0.005708071993 1.695094303e-19)
(14.97128697 0.01669732921 0)
(14.95359701 0.03676856684 -2.758475969e-18)
(14.93072109 0.06974636074 0)
(14.90065126 0.1208830898 0)
(14.8703956 0.1978259858 6.124582831e-19)
(14.8535695 0.3019072853 0)
(14.87498268 0.4173500754 -1.138270147e-19)
(14.94894088 0.4961895484 -1.651898178e-21)
(15.0444337 0.4955332287 5.945682268e-20)
(15.10700675 0.4262516836 -1.778816602e-19)
(15.12689541 0.3301798274 0)
(15.1178949 0.2398125955 8.270407236e-19)
(15.09066575 0.1653170657 -6.257120197e-19)
(15.0699725 0.1105907577 6.378234158e-19)
(15.0512826 0.07121245559 0)
(15.03980578 0.04090288659 -1.371604157e-18)
(15.02854433 0.0246958534 2.758410889e-18)
(15.02116542 0.01271840872 1.385499375e-18)
(15.01781677 0.004096193029 9.984002333e-21)
(15.00328042 -0.002104953048 6.741753827e-19)
(15.00062112 -0.005845842005 -6.822414723e-19)
(14.99514921 -0.008405554248 0)
(14.98561122 -0.008701190163 0)
(14.97558444 -0.003058523336 1.388401855e-18)
(14.95717511 0.006558090952 2.084865949e-18)
(14.92908459 0.02548363251 5.674845918e-18)
(14.88947535 0.05889146044 -1.839754796e-19)
(14.84899868 0.1109083325 -5.728866722e-18)
(14.78810625 0.2018775609 3.025186946e-18)
(14.73475738 0.3449777272 -7.231475742e-19)
(14.74255827 0.5371070218 -6.713050602e-19)
(14.87488938 0.7005849236 -1.652637897e-20)
(15.06982235 0.7076849807 1.603954351e-20)
(15.1939628 0.5826616234 -6.500008609e-19)
(15.22370167 0.42761371 1.214951944e-18)
(15.20159947 0.2939807672 -2.341262538e-18)
(15.16027703 0.1875536945 -1.084269398e-17)
(15.11882606 0.120835615 1.150970234e-17)
(15.08420785 0.07574035961 1.408926349e-18)
(15.06043594 0.03795326171 -1.056179854e-18)
(15.04246141 0.02250632166 1.789260902e-18)
(15.03108081 0.01106430734 3.545738713e-19)
(15.02583552 0.003615019147 -1.401536078e-18)
(15.00835878 -0.003683691038 -6.743589363e-19)
(15.00496265 -0.01055329635 -6.774920308e-19)
(14.99798326 -0.01661696868 -6.799892069e-19)
(14.98588789 -0.0207718414 -1.477498032e-18)
(14.97138025 -0.01741121257 1.05317855e-18)
(14.94649601 -0.01267209443 3.584645784e-19)
(14.90803546 -0.0003470109542 -2.998509326e-18)
(14.86262842 0.02655920052 -1.504554388e-18)
(14.78407736 0.07350620478 0)
(14.67407906 0.1627683755 7.970939925e-18)
(14.53745616 0.3405747662 3.497501524e-17)
(14.46132042 0.6902866173 2.879693487e-17)
(14.72593125 1.095464385 -7.57493598e-20)
(15.20431179 1.06621634 -9.595374395e-19)
(15.40763296 0.7604527389 1.292428714e-17)
(15.40216236 0.4929953527 -1.583429284e-18)
(15.3276384 0.3126660063 -7.839001855e-19)
(15.24338461 0.1789315452 -3.110893586e-18)
(15.17331553 0.1092148858 -2.841458323e-18)
(15.11971048 0.0645017418 3.579976244e-19)
(15.07983889 0.02715746283 -3.649457187e-19)
(15.05445693 0.01502161975 -1.086600783e-18)
(15.03912884 0.006664189121 2.238146901e-20)
(15.03189307 0.002216333135 -2.238368606e-20)
(15.01692885 -0.005799742838 4.160064988e-20)
(15.01299829 -0.01690048953 3.96615123e-20)
(15.00501228 -0.02768546209 7.646977599e-19)
(14.99105963 -0.03722577831 1.644293248e-18)
(14.97264201 -0.03740305854 0)
(14.94306228 -0.04035843878 7.351192009e-19)
(14.89724553 -0.0392087327 -1.506143272e-18)
(14.83841562 -0.02438376804 7.907773991e-19)
(14.73643694 -0.001478997906 8.571389257e-19)
(14.59200065 0.05284513996 0)
(14.33716045 0.1761831677 -3.239488564e-18)
(13.92043793 0.5909499648 5.511001884e-18)
(14.21026481 1.943091253 -1.468751629e-20)
(15.63412527 1.616500287 8.250429274e-18)
(15.78550913 0.8887341423 -2.979627871e-18)
(15.6389139 0.4976740517 3.748457112e-18)
(15.4740382 0.2687550405 -3.768026761e-18)
(15.32613576 0.1330898941 4.582435476e-19)
(15.22383854 0.07420144023 1.405527336e-20)
(15.15080574 0.03919423154 -1.942751671e-19)
(15.09369088 0.01073440201 -3.827318207e-19)
(15.06218141 0.00403254577 3.208207399e-19)
(15.04333427 0.0005867799775 3.851304326e-19)
(15.03439052 0.000239730303 2.253430335e-20)
(15.03011642 -0.008487724387 0)
(15.02589456 -0.0249106061 -1.447729003e-19)
(15.01753919 -0.04165924741 -6.282543131e-20)
(15.00243861 -0.05777370501 -3.131147868e-19)
(14.98107965 -0.06282106324 1.104865213e-21)
(14.94963504 -0.07508235142 -1.766878739e-19)
(14.90141112 -0.08748184823 -1.236987226e-21)
(14.83655067 -0.08994609449 -3.664835892e-19)
(14.7280503 -0.1017942955 -1.307253141e-18)
(14.56635776 -0.1101686921 -4.781952614e-19)
(14.26688961 -0.1513229419 0)
(13.5766819 -0.3379048283 0)
(17.13303835 1.660015684 0)
(16.34649601 0.6879498398 3.948523537e-18)
(15.90069994 0.3305714472 0)
(15.60159453 0.1501722702 2.237141024e-18)
(15.38672071 0.05507068945 4.383753251e-19)
(15.25836783 0.0223146453 0)
(15.17014325 0.005128440268 -4.126096504e-19)
(15.09915001 -0.008097645715 6.71995478e-19)
(15.06421589 -0.007861354308 -3.420722241e-20)
(15.04280791 -0.005890024979 -3.38469644e-19)
(15.03273062 -0.00183929551 2.247106264e-20)
(15.04894561 -0.01157306561 0)
(15.04474102 -0.03399769932 -2.007165434e-20)
(15.03658995 -0.05766256255 2.200172612e-19)
(15.0213794 -0.0808057535 -3.04883345e-20)
(14.99785834 -0.09281475527 -1.71286926e-19)
(14.96736651 -0.1153309403 0)
(14.92147525 -0.1411378331 -1.909395504e-19)
(14.85824061 -0.1596562672 1.989380052e-19)
(14.76169564 -0.1990015621 -6.417616022e-19)
(14.62718601 -0.2554900864 -6.989977741e-19)
(14.43390589 -0.397073707 0)
(14.23431282 -0.7500689994 1.029390412e-18)
(17.84368922 0.08055770485 3.931413252e-18)
(16.6544002 0.09176763002 -2.470871383e-19)
(16.04180477 0.03475900862 8.745457388e-19)
(15.66204828 -0.009671361974 -9.238316162e-19)
(15.40765723 -0.03097749521 6.552988171e-20)
(15.26946988 -0.03149742009 -2.237561492e-19)
(15.17402571 -0.02923331504 2.565042776e-19)
(15.09629227 -0.02804614507 -1.917900576e-19)
(15.06004402 -0.0195636094 -1.150816922e-20)
(15.03768795 -0.01240914577 1.757687802e-19)
(15.02703948 -0.003885536351 -1.734643532e-19)
(15.07381044 -0.0146043151 0)
(15.07001382 -0.04291741633 -5.539768389e-20)
(15.06251453 -0.07346231315 -1.979726195e-19)
(15.04886051 -0.1034048902 -1.11563839e-20)
(15.02424091 -0.1241232639 1.619521916e-19)
(14.99651801 -0.1572074322 1.723981166e-19)
(14.95544007 -0.1953060021 -9.001873848e-20)
(14.89715311 -0.2270424911 9.414934626e-20)
(14.81798985 -0.2809410141 0)
(14.71977203 -0.3488004059 -1.061625624e-19)
(14.6185273 -0.4708223059 -9.126804868e-19)
(14.58991258 -0.6566057433 2.939863281e-19)
(17.26158305 -1.02299252 -1.336914538e-18)
(16.50006489 -0.4839019852 -6.954622821e-19)
(15.98775791 -0.2592143138 6.893031897e-19)
(15.63351358 -0.1606344554 -1.44812971e-18)
(15.3880317 -0.1153975429 9.823401535e-19)
(15.25697064 -0.08326657699 0)
(15.16415314 -0.0627635732 0)
(15.08603892 -0.05035630592 0)
(15.04923669 -0.03296923482 3.703166364e-19)
(15.02792548 -0.019770471 -1.977926914e-19)
(15.01717724 -0.006310027655 3.408149336e-19)
(15.10410555 -0.01704930754 0)
(15.10109782 -0.05030369169 2.16091575e-19)
(15.09470577 -0.0863961261 0)
(15.0842268 -0.1224748909 9.600353273e-21)
(15.06014094 -0.1512915792 0)
(15.03628615 -0.1935013501 0)
(15.001133 -0.2428526058 8.513865273e-20)
(14.94947635 -0.287590126 0)
(14.88470029 -0.3548796013 -9.569338199e-20)
(14.80705938 -0.4277102366 9.133254244e-22)
(14.73219644 -0.51944418 1.047285727e-19)
(14.7129435 -0.5876997352 0)
(16.07529252 -2.530034189 -1.440443846e-17)
(16.45389187 -1.495884873 -4.744856502e-19)
(16.09847427 -0.8627440459 -1.15364171e-18)
(15.78748479 -0.5118738211 1.230132956e-18)
(15.52882895 -0.3193560293 -2.152738203e-20)
(15.330952 -0.2136908716 -1.646352035e-19)
(15.21899256 -0.1467515745 -4.241823219e-19)
(15.13957898 -0.1044587237 2.894807679e-19)
(15.06607217 -0.07623323658 6.854961974e-19)
(15.03080503 -0.05034374707 -4.322783072e-19)
(15.01223447 -0.02880790358 8.400977945e-20)
(15.00209875 -0.009539104209 -1.673252356e-19)
(15.13839643 -0.01859587112 -1.311753057e-19)
(15.13645051 -0.05530314101 -1.41369074e-19)
(15.13178289 -0.09487433678 -1.340800997e-19)
(15.1252266 -0.1360272836 1.19094153e-19)
(15.10336489 -0.1704788808 0)
(15.08498794 -0.2196857141 7.548382034e-20)
(15.05785539 -0.2791234309 4.115726538e-20)
(15.01567814 -0.3370500504 4.288687333e-20)
(14.96476159 -0.4195024743 0)
(14.89659364 -0.5063217979 4.561713498e-20)
(14.80758645 -0.6019635259 -4.961865329e-20)
(14.69425839 -0.6259994327 -7.968722374e-19)
(15.60263527 -2.544010553 5.171834007e-18)
(15.71894645 -1.652754025 -1.139458085e-19)
(15.64742909 -1.0804219 0)
(15.51827163 -0.7119125111 0)
(15.36909544 -0.4723519234 -4.704984323e-19)
(15.23463522 -0.3163699029 1.051023061e-19)
(15.15420054 -0.2206298329 -5.150371e-19)
(15.09517482 -0.1551997511 4.22531649e-19)
(15.0326733 -0.1040332822 -6.750315288e-19)
(15.00381267 -0.07033802061 0)
(14.98889883 -0.03908054841 -1.940638487e-20)
(14.98045407 -0.01333761622 1.940917831e-20)
(15.17496478 -0.01923718562 1.311808151e-19)
(15.17423672 -0.05773354067 1.219633989e-19)
(15.17205103 -0.09884063458 1.340984901e-19)
(15.16937462 -0.1433029426 -1.370108681e-19)
(15.15166692 -0.1813722453 0)
(15.14087609 -0.2360869766 -2.733829265e-19)
(15.12464824 -0.3032176588 7.294858259e-20)
(15.09425931 -0.372914721 -1.520894296e-19)
(15.06033615 -0.4687652225 1.960981703e-19)
(15.00561539 -0.5768721216 3.640420613e-19)
(14.91716909 -0.7207559354 1.341169924e-19)
(14.70571729 -0.8827622734 4.617468158e-19)
(14.74255853 -2.225851633 -3.123438613e-19)
(15.12950955 -1.556938369 -2.96107961e-19)
(15.24311359 -1.114417409 -3.638736637e-19)
(15.24466746 -0.7930767602 0)
(15.18881241 -0.5565923025 1.234119301e-20)
(15.1161321 -0.3888605922 -7.781549046e-19)
(15.07120465 -0.2801349398 0)
(15.03335711 -0.200090537 -4.104174973e-19)
(14.98695906 -0.1293439649 0)
(14.96845379 -0.08821855704 -3.542544887e-19)
(14.95770185 -0.04884968097 7.304315964e-20)
(14.95185365 -0.01682845361 0)
(15.21219795 -0.01912926651 -1.454090462e-20)
(15.21281402 -0.05775285443 -1.073978726e-19)
(15.21371652 -0.09896332049 0)
(15.21519002 -0.1441475962 2.967526859e-20)
(15.20353945 -0.1849226817 0)
(15.20193454 -0.243026327 -2.447489244e-19)
(15.19877949 -0.3143015025 -2.030234277e-19)
(15.18295753 -0.3918948087 1.320239197e-19)
(15.17089391 -0.4976550471 -4.220044381e-18)
(15.14911245 -0.6296499958 -2.16093512e-18)
(15.11988923 -0.8167779971 2.192168998e-18)
(15.11332921 -1.120721518 -8.757097555e-19)
(14.27195401 -1.500609015 1.395484124e-19)
(14.72394412 -1.311529467 1.057412172e-18)
(14.91898234 -1.037274722 -3.789521119e-18)
(15.0006438 -0.7923232851 3.501239221e-17)
(15.01692608 -0.5773526306 -5.283729075e-18)
(14.99647712 -0.4163355294 3.102933354e-19)
(14.98172448 -0.309362971 -1.274423197e-18)
(14.9642154 -0.2260353798 -1.437579157e-19)
(14.93463017 -0.1465432824 0)
(14.92663453 -0.1001511399 7.876319825e-19)
(14.92048776 -0.05601601965 -1.645247248e-20)
(14.91748436 -0.01922622388 1.645620799e-20)
(15.24870443 -0.01836351958 1.315368844e-20)
(15.25078178 -0.0555545856 -1.315364229e-20)
(15.25494479 -0.09540185852 5.334128956e-20)
(15.26129347 -0.139015149 -2.551328805e-19)
(15.25638702 -0.1811633117 -2.681482234e-19)
(15.26500116 -0.2391904872 1.077575486e-19)
(15.27582638 -0.3106656731 1.736928083e-18)
(15.2777193 -0.3905363333 -9.757428349e-18)
(15.29306868 -0.5026292406 -6.745140596e-18)
(15.29970018 -0.6339817833 -1.81070974e-18)
(15.3249651 -0.8098510584 3.531716778e-20)
(15.45089009 -1.026816267 -1.434506904e-19)
(14.29470997 -1.151046753 1.611101816e-19)
(14.54142828 -1.075445195 0)
(14.71109264 -0.9111351498 4.712723455e-19)
(14.81479199 -0.7345622175 -1.011238634e-19)
(14.86415291 -0.5627825148 -1.935561752e-18)
(14.88106571 -0.4146985597 1.418655516e-18)
(14.89217234 -0.3140748837 1.870514766e-18)
(14.89458515 -0.2334558942 4.01733703e-18)
(14.88071832 -0.1534262731 2.62419725e-18)
(14.88144458 -0.1047994683 4.523973212e-19)
(14.88011667 -0.05936730766 -5.914723797e-20)
(14.87969884 -0.02022988459 5.922654874e-20)
(15.2830956 -0.0169521467 2.343487378e-20)
(15.28663488 -0.05128698574 -2.343350804e-20)
(15.29386243 -0.08813779625 -1.761286294e-19)
(15.30532427 -0.1281945863 1.556418934e-19)
(15.30752532 -0.1695795243 9.994616137e-20)
(15.32623295 -0.223857025 2.939138987e-19)
(15.35120107 -0.2913372745 3.207858246e-18)
(15.37281566 -0.3709047273 -8.780101358e-18)
(15.40953399 -0.4767291459 -2.797978373e-18)
(15.4437863 -0.6035121009 -8.072257799e-20)
(15.49633939 -0.7623648804 1.23101769e-20)
(15.53478586 -0.9337512 0)
(14.27217366 -0.986088268 4.677381275e-20)
(14.43190972 -0.9093263411 3.801551066e-20)
(14.56674847 -0.7907011802 -2.159706473e-19)
(14.67038415 -0.6566182381 -5.91242564e-19)
(14.73969212 -0.5169390071 -2.970671691e-18)
(14.78073827 -0.3888538297 -3.253798616e-18)
(14.80982381 -0.3006726513 -1.758730371e-18)
(14.82773497 -0.22729882 -1.636073305e-18)
(14.82893815 -0.1501766126 -3.673989022e-18)
(14.83617009 -0.1030704896 0)
(14.83934861 -0.05893774689 0)
(14.8411287 -0.01997692311 0)
(15.31419205 -0.0149148756 2.052829372e-20)
(15.31902238 -0.04508615263 2.051156114e-20)
(15.32882476 -0.07732378325 1.350614872e-19)
(15.34486612 -0.1120117656 9.667621169e-20)
(15.35389288 -0.1502054336 -8.910929992e-20)
(15.38190157 -0.1975068309 -2.366669395e-19)
(15.42059518 -0.2567620147 -5.579140388e-18)
(15.45884768 -0.3294864943 0)
(15.51920439 -0.4257984673 7.038326605e-20)
(15.57916173 -0.5466413624 1.299149638e-19)
(15.6541323 -0.7000020072 4.539396333e-20)
(15.49169609 -0.8589007106 0)
(14.22408653 -0.8658777321 -7.190941011e-21)
(14.33957161 -0.7856492935 8.519353397e-20)
(14.4538087 -0.682118211 0)
(14.55559189 -0.5713016766 -3.441353716e-19)
(14.63671304 -0.455894707 -1.503771211e-19)
(14.69573235 -0.3473294498 1.346805671e-18)
(14.73830083 -0.2729562089 0)
(14.76753825 -0.2094869932 -1.390005963e-18)
(14.78152955 -0.138831571 -2.292437683e-20)
(14.79377428 -0.09611129806 2.06411859e-18)
(14.80051537 -0.05537106349 -5.154237677e-20)
(14.80398529 -0.01875947228 0)
(15.34060927 -0.01233957301 -3.522258969e-20)
(15.34638507 -0.03729783281 3.522073128e-20)
(15.35809661 -0.06355044031 1.284784646e-19)
(15.3774752 -0.09140123135 -9.117245778e-20)
(15.3928626 -0.1240656926 -7.023169163e-20)
(15.42846325 -0.1613703291 1.392263762e-19)
(15.4789724 -0.2080769615 0)
(15.53312985 -0.2688460697 -4.194955134e-19)
(15.61774395 -0.3492223445 0)
(15.70868417 -0.4614049867 -8.705967587e-20)
(15.81772784 -0.6181921663 0)
(15.441213 -0.7998519761 2.915106691e-20)
(14.16192213 -0.7728931691 4.234933701e-21)
(14.24812933 -0.6838778311 4.04509547e-20)
(14.35324325 -0.5795258913 0)
(14.45976891 -0.4802829835 -1.83199911e-19)
(14.5526107 -0.3834935265 2.313175148e-19)
(14.62657291 -0.2942079783 0)
(14.6788285 -0.2349576227 0)
(14.71604437 -0.1832381133 1.272065233e-18)
(14.74011007 -0.1219942758 0)
(14.75614474 -0.08532725193 -1.647626726e-18)
(14.76536993 -0.04953377528 -3.644723288e-19)
(14.77002629 -0.01681747776 0)
(15.36190521 -0.009416438177 0)
(15.36819517 -0.02839746805 4.777327973e-20)
(15.38085033 -0.04780158223 -1.706552695e-20)
(15.40206911 -0.06758339266 0)
(15.42193418 -0.09308196166 0)
(15.46246577 -0.1177807022 -1.143996758e-19)
(15.52051108 -0.1477370495 -6.260127458e-18)
(15.58880326 -0.190019716 4.828897258e-20)
(15.69652741 -0.2441512836 2.021502343e-20)
(15.82793006 -0.3350702587 6.388199809e-20)
(16.00220332 -0.4895923152 1.496004544e-20)
(15.46072403 -0.7339685243 -2.601470082e-21)
(14.08461078 -0.7191861656 -2.442140641e-20)
(14.13874895 -0.5954190585 2.043372791e-20)
(14.25273602 -0.4701602849 -5.716246143e-20)
(14.37785113 -0.3775678049 0)
(14.4870001 -0.3001818887 -8.835409966e-20)
(14.57426419 -0.2324591554 -2.071694807e-19)
(14.63295192 -0.1899255756 1.165532352e-19)
(14.6750746 -0.1513317028 -2.581035822e-19)
(14.70595945 -0.1017998841 0)
(14.72432756 -0.07212604411 -3.963992237e-19)
(14.73502606 -0.04225884469 1.691001324e-19)
(14.74043179 -0.01439957188 0)
(15.37669153 -0.006348797339 2.381403968e-20)
(15.38293687 -0.01919576148 -8.807710969e-20)
(15.39560212 -0.03133891629 -5.269838827e-20)
(15.41660935 -0.04317027996 0)
(15.43966965 -0.05988940613 0)
(15.48123385 -0.07041977546 0)
(15.54055678 -0.08108051619 -2.865130355e-18)
(15.61713131 -0.09807219835 6.079969308e-19)
(15.73919528 -0.1120815923 3.215449331e-20)
(15.91135608 -0.1521618082 0)
(16.19178632 -0.2497987107 -1.783257674e-20)
(15.72284389 -0.5921581063 6.335407271e-22)
(13.95830034 -0.7835907218 1.877889124e-19)
(13.96547216 -0.492786075 4.547070065e-20)
(14.14844366 -0.3265490958 5.082950088e-20)
(14.31486174 -0.2538486551 2.982999942e-20)
(14.44398234 -0.2060692683 1.499084183e-19)
(14.54086204 -0.1652752796 6.086342013e-20)
(14.60200468 -0.141234164 -2.936408818e-19)
(14.64571391 -0.1166677008 1.017975654e-19)
(14.68013333 -0.08023093004 -1.017449237e-19)
(14.69908996 -0.05773891387 5.52511022e-19)
(14.71020668 -0.03426840081 -1.812788358e-19)
(14.71582846 -0.01172817679 4.033927281e-20)
(15.38679915 -0.00346603491 0)
(15.39257485 -0.01031195288 -4.217385746e-20)
(15.40416179 -0.01572004647 0)
(15.42340175 -0.01914371503 -3.472234895e-20)
(15.44526408 -0.02765408306 3.338532637e-20)
(15.48371415 -0.02419536287 3.705670688e-20)
(15.53787119 -0.01500918174 1.228321567e-19)
(15.61035854 -0.005370456105 1.895655136e-18)
(15.72629719 0.02987543573 6.531772262e-20)
(15.9046256 0.07440425732 2.541426844e-20)
(16.2476395 0.167893481 -5.83476448e-22)
(16.74540125 0.1942623644 0)
(13.38674786 -0.9617020363 4.181484967e-19)
(13.687804 -0.2066136601 9.27782453e-20)
(14.07865034 -0.1059500197 -4.067162579e-20)
(14.29176191 -0.1059318468 2.244286259e-20)
(14.43125941 -0.1059800948 0)
(14.52850645 -0.09788833135 -6.770872154e-20)
(14.58661797 -0.09278820875 -2.22683348e-19)
(14.62817089 -0.08215056765 0)
(14.66235057 -0.05896889123 1.084432243e-20)
(14.68037508 -0.04362075765 -1.304396698e-20)
(14.69109677 -0.02638336964 0)
(14.69653132 -0.009102542596 -5.844509867e-20)
(15.38914274 -0.0008529642877 -1.278761127e-20)
(15.39380755 -0.002604421793 1.27868703e-20)
(15.40348127 -0.001949531356 0)
(15.41870277 -5.823685606e-05 0)
(15.44065987 0.0006128323429 0)
(15.4716927 0.01566293173 9.855531687e-20)
(15.51431116 0.04093878029 -8.68893906e-20)
(15.5712614 0.07184372828 -6.141445145e-19)
(15.65467904 0.1470324275 4.6456601e-19)
(15.77624037 0.2659206028 -1.685398342e-20)
(15.96180117 0.5440841924 3.933194494e-21)
(16.18826515 1.326709694 -4.172010305e-20)
(13.97663947 1.710170355 -2.538513331e-19)
(13.76514586 0.4621079275 2.714261764e-20)
(14.15102145 0.1605660244 1.379548757e-20)
(14.33445141 0.04197385491 -1.693204839e-20)
(14.45370114 -0.01330029713 0)
(14.53700808 -0.03754200916 -6.976237169e-21)
(14.58592393 -0.04916028216 -4.679330584e-20)
(14.62157873 -0.05075538635 6.112215879e-20)
(14.65263617 -0.03978442752 0)
(14.66806359 -0.03045558944 0)
(14.67730738 -0.01890822621 2.259210348e-20)
(14.68197392 -0.00659241154 -3.452306308e-20)
(15.3916433 0.0009443976059 0)
(15.39534874 0.003308673731 0)
(15.40305779 0.007970451296 0)
(15.41421471 0.01739707458 1.362462139e-20)
(15.42707167 0.02214963454 -1.65158986e-20)
(15.44926723 0.04501322038 4.615048459e-21)
(15.47687001 0.07990274601 0)
(15.51182991 0.1236133402 6.345836641e-20)
(15.55253776 0.2120215808 -1.04489186e-19)
(15.59408396 0.346483967 6.744962744e-19)
(15.58863275 0.5980748124 2.218257795e-19)
(15.37336066 0.9854444203 -2.371329858e-19)
(14.70043404 1.127165825 4.605902215e-20)
(14.34345423 0.6469783372 0)
(14.35899175 0.3101823153 0)
(14.43331768 0.1439229305 -3.144639137e-20)
(14.50451137 0.05526013795 -6.057419943e-21)
(14.56170703 0.009030935978 1.689277164e-20)
(14.59677541 -0.014519255 -6.544242068e-20)
(14.62385108 -0.02513497599 0)
(14.64830288 -0.02454910591 -2.386397473e-20)
(14.66049791 -0.02057823468 3.27409654e-20)
(14.66849571 -0.01339539364 -2.259681551e-20)
(14.67248014 -0.004774787636 0)
(15.38228595 0.002874482773 0)
(15.38393901 0.008991192162 0)
(15.38744776 0.01711352581 0)
(15.39199999 0.02717679413 -7.904843962e-21)
(15.4123461 0.03593896554 -2.078595464e-20)
(15.42391681 0.06210275093 -1.080954876e-20)
(15.43665825 0.09982809037 -2.460396112e-21)
(15.44690722 0.1468952161 0)
(15.45171972 0.2282718379 -1.43347745e-21)
(15.43882803 0.3395761713 0)
(15.36338597 0.4972021218 -6.487072382e-21)
(15.16857681 0.6530969631 7.359112021e-22)
(14.86441856 0.6694681107 -6.994399947e-21)
(14.63389947 0.5070575202 0)
(14.54964072 0.3187434548 -3.007279098e-21)
(14.54369683 0.1821511275 0)
(14.56665638 0.09178557931 -1.5737307e-20)
(14.59323134 0.03843627644 -3.570274764e-21)
(14.61336044 0.008249250282 -1.516161606e-20)
(14.63114436 -0.006998699272 0)
(14.65082677 -0.009125311727 7.050293443e-21)
(14.65760548 -0.009424169417 -1.078548194e-20)
(14.66206984 -0.006378103156 0)
(14.66434115 -0.002433652446 0)
(14.1994673 -0.745457515 0)
(18.03833804 0.2214806894 2.742949429e-18)
(17.2842795 1.880790984 5.139628535e-18)
(14.57628248 -0.6621399374 -4.974919172e-20)
(17.47624863 -1.031650788 -5.293417552e-19)
(18.03057388 0.1118810709 1.854077723e-19)
(14.70992533 -0.5895202035 -7.367013439e-19)
(15.42568819 -2.47723285 2.284522732e-16)
(15.93918847 -2.504179718 3.596265006e-16)
(16.59875811 -1.565708663 -1.035007162e-18)
(17.36746471 -1.129592841 1.344098192e-18)
(14.6977242 -0.6183195995 0)
(15.60348039 -2.578954314 -5.334462381e-18)
(15.53147541 -2.489085857 -1.992843203e-16)
(15.6309574 -2.549014818 -1.735304304e-18)
(15.80678152 -1.739417587 -2.980251516e-19)
(16.49309192 -1.601976032 4.737653742e-19)
(14.69650713 -0.859809641 -5.14958095e-20)
(14.75395843 -2.308724292 0)
(15.57651419 -2.573946175 1.753117067e-18)
(14.79278411 -2.255090808 0)
(15.16806097 -1.650693233 -3.470860132e-19)
(15.71778232 -1.742561702 6.948931827e-19)
(15.08771619 -1.119803115 8.678169826e-19)
(14.2005351 -1.554682799 -6.489907087e-19)
(14.70114957 -2.277750677 3.118052771e-19)
(14.25250473 -1.558715624 -1.444413325e-19)
(14.71878859 -1.382301158 -1.971339062e-18)
(15.10180979 -1.623094813 6.334451303e-19)
(13.53313452 -0.198244914 1.589769918e-17)
(14.03077955 1.785005466 3.102400271e-19)
(17.0158041 2.001570744 8.941679148e-18)
(15.55906344 1.732710466 9.588280212e-18)
(19.37806937 1.650715398 0)
(18.01047998 3.555598794 2.194969277e-18)
(14.59937703 -0.4656845005 1.85049105e-18)
(14.5650304 -0.6435448814 1.701480116e-19)
(14.25987017 -0.6980893399 1.141550848e-18)
(14.43106748 -0.7181345144 -4.44383117e-19)
(14.5276487 -0.8979042616 -2.49020824e-18)
(14.28200664 -1.061070467 2.154671017e-18)
(18.53123243 -1.047961047 6.67382824e-19)
(19.14745443 -0.1692538195 2.554753247e-17)
(14.72116364 -0.5116933367 -1.047797006e-19)
(14.70640434 -0.5860202056 7.836439894e-19)
(14.5918723 -0.6326304506 -1.108791017e-19)
(14.66416347 -0.6159451305 6.99779262e-19)
(14.74636553 -0.6740545683 -2.679539765e-19)
(14.67354028 -0.7596996936 0)
(17.27322984 -1.886682166 1.326046159e-18)
(17.81695131 -1.636210552 -2.124062763e-18)
(14.79810834 -0.5894702842 2.529294401e-20)
(14.70287692 -0.62135423 0)
(14.70959909 -0.5847960446 3.700894191e-19)
(14.71814681 -0.5859052564 1.608007485e-18)
(14.73559738 -0.5538339045 -1.91934075e-17)
(14.77205626 -0.5997819617 -1.063413962e-18)
(16.07884397 -2.600391673 -9.975464106e-18)
(16.20071578 -2.117012099 1.882325019e-19)
(16.641419 -2.058198103 9.287719611e-19)
(14.89879799 -0.705345553 9.255520487e-20)
(14.71609146 -0.8506335787 4.00541196e-19)
(14.7003132 -0.6291948152 7.981684542e-19)
(14.67541503 -0.7067244176 -5.235214204e-20)
(14.47655433 -0.6556977937 -2.951997328e-19)
(14.60947657 -0.5572629419 4.047069017e-17)
(15.19059103 -2.441729302 -3.515336345e-19)
(15.3499693 -2.056870906 -3.856109789e-19)
(15.69624049 -2.117516476 1.37718197e-19)
(15.09249623 -0.8118961428 -2.260703476e-18)
(15.08160062 -1.093839281 0)
(14.72567383 -0.8719120802 -2.028649221e-19)
(14.84499851 -1.05238069 2.382346465e-16)
(14.053578 -1.333563038 6.146540714e-17)
(14.25823134 -0.8934481988 -8.598799045e-19)
(13.723096 -1.228978987 -5.342567602e-19)
(14.26908382 -1.097360196 3.05315423e-18)
(12.68957029 -0.7132215043 1.074702596e-18)
(13.66993453 -1.227015419 5.739398773e-19)
(19.18175265 -0.08464927961 3.925437342e-19)
(19.40275615 1.520318747 0)
(14.66716332 -0.7664310663 4.557772147e-18)
(14.53911324 -0.8883650033 9.839515475e-18)
(14.45319704 -0.7137317149 -5.439758093e-20)
(14.54719495 -0.8998758057 -4.9200902e-18)
(14.67178407 -0.7731101059 -2.832409537e-19)
(14.29253439 -1.084704318 -1.589716601e-18)
(14.53588308 -0.9098666787 1.556776076e-18)
(17.89786866 -1.588211936 4.330445394e-18)
(18.48825699 -1.096094643 -6.002698209e-18)
(14.77276592 -0.6038384578 1.07593318e-18)
(14.74947153 -0.6689461604 -8.580371871e-18)
(14.67203409 -0.6114862491 -6.979044955e-19)
(14.75020998 -0.6719275646 8.365815815e-18)
(14.7675598 -0.6030114965 -3.463964739e-17)
(14.67792925 -0.7662036727 0)
(14.74741165 -0.6773427289 2.67398111e-19)
(16.70804309 -2.044967043 -4.679244895e-19)
(17.19951573 -1.912322282 0)
(14.62110461 -0.5533444282 4.273911e-17)
(14.73083224 -0.5520917649 -9.673296518e-18)
(14.71681856 -0.587599771 -4.748410089e-20)
(15.90580472 -2.622459354 1.945709888e-17)
(14.71263719 -0.5461706627 9.86492846e-18)
(14.57372401 -0.5427552652 -2.629615864e-18)
(14.765848 -0.598427688 -3.369482885e-17)
(14.71830602 -0.5481459123 9.623069176e-18)
(15.90675433 -2.623738417 2.528605891e-17)
(15.74907662 -2.121763951 1.433531809e-19)
(16.14136893 -2.121186031 5.453709744e-19)
(16.05354376 -2.597180235 -1.211400452e-18)
(14.26535103 -0.8734888075 -2.614437146e-17)
(14.46836226 -0.666020734 1.268115148e-17)
(14.67451933 -0.7224007862 -8.83908001e-19)
(15.14671745 -2.461078991 1.648711511e-18)
(14.37795431 -0.6539718462 -5.280588206e-17)
(14.02076669 -0.8548347084 0)
(14.55507959 -0.5469868002 -1.912446292e-17)
(14.38787196 -0.6432441496 1.015580742e-19)
(15.17338272 -2.469770817 9.041569526e-20)
(14.01179962 -0.8733133388 2.906272073e-17)
(13.52470777 -1.31046773 -1.611316462e-16)
(14.37713801 -1.980980461 2.271578335e-20)
(14.40771949 -0.3781181727 -1.088635928e-18)
(14.19597661 -0.6916038831 -1.195192381e-18)
(13.71368777 -0.2944490531 6.445587752e-18)
(13.86574033 -0.6363700355 -3.35390248e-19)
(13.65358989 -1.143173931 3.552958993e-18)
(12.86458826 -0.6204881952 0)
(20.59262803 3.778975553 -1.400695711e-16)
(18.77253715 5.660787244 0)