/*--------------------------------*- C++ -*----------------------------------*\
  =========                 |
  \\      /  F ield         | OpenFOAM: The Open Source CFD Toolbox
   \\    /   O peration     | Website:  https://openfoam.org
    \\  /    A nd           | Version:  6
     \\/     M anipulation  |
\*---------------------------------------------------------------------------*/
FoamFile
{
    version     2.0;
    format      ascii;
    class       volScalarField;
    location    "0.100024";
    object      yPlus;
}
// * * * * * * * * * * * * * * * * * * * * * * * * * * * * * * * * * * * * * //

dimensions      [0 0 0 0 0 0 0];

internalField   uniform 0;

boundaryField
{
    west
    {
        type            calculated;
        value           uniform 0;
    }
    east
    {
        type            calculated;
        value           uniform 0;
    }
    north
    {
        type            calculated;
        value           uniform 0;
    }
    south
    {
        type            calculated;
        value           uniform 0;
    }
    front
    {
        type            empty;
    }
    back
    {
        type            empty;
    }
    airfoil
    {
        type            calculated;
        value           nonuniform List<scalar> 
368
(
55.71242333
55.49666323
51.3019587
62.48361354
52.77893798
57.42228383
57.90930042
58.43415912
63.36441463
62.72984153
49.49344653
49.3742857
58.26167973
54.98197105
59.82275725
54.97772152
54.89694824
54.09079483
54.33808721
52.99801422
52.94091765
54.00114518
53.74632101
46.45502967
51.12002161
54.85777318
51.82421601
52.32538189
51.96129186
57.55919924
58.11240164
58.82413615
59.50246116
63.34787446
63.33253867
60.37565218
56.35293865
55.94116374
55.99915896
56.27165841
56.04740882
55.0241233
55.20885391
55.45774088
55.28588226
55.88793693
55.66300427
55.47358281
55.5950495
54.59023984
54.82732207
54.52098603
54.38173021
53.35659889
53.08965282
52.7913223
52.39823815
53.44843086
53.68014388
49.91062131
50.0306734
45.36593229
46.22556298
51.04817601
45.09027193
61.88446596
61.23698495
58.72192537
55.31558887
48.14560798
76.76642143
50.98950124
50.9838007
50.99906366
50.99881905
51.46507205
41.45894687
54.63944642
54.73238797
76.45394052
57.0375045
58.63904123
58.61317516
59.42902103
58.63697255
63.39023663
63.33969902
61.80132343
63.31327868
62.95405997
54.47787068
54.29701768
50.24725054
49.6092711
48.32906633
49.26076763
48.44735105
48.57529477
50.90281905
50.92450892
50.87170505
50.93963964
66.17767792
67.41969041
75.37879801
74.4820961
64.39374754
62.78537916
59.15605507
60.44564951
60.00037071
60.14994223
60.15578344
55.13649545
44.52658806
54.97080718
54.94550091
54.18367416
54.26575114
52.91002099
53.25703638
53.08858195
53.91376792
53.8282512
51.10871205
51.01536938
50.85689348
50.92995698
51.23864343
52.23312291
52.10445279
57.09235179
58.58171651
58.25521518
58.47414694
58.08893915
58.21919905
59.0041504
59.24083503
62.67377272
63.07445605
61.09999488
62.41127028
62.13879324
63.27163367
63.17797744
58.07412532
55.97056355
55.97498121
56.18938351
56.11245672
55.08235046
55.13812047
55.41821552
55.3575464
55.81411856
55.73771772
55.4933167
55.5382214
54.6663484
54.74721198
54.12244252
54.46100966
54.41163667
53.27039242
53.18002432
52.52224573
52.65038317
53.53255601
53.61239563
50.15106989
47.39033558
51.18856576
51.21934514
49.13716677
48.98677312
48.83158665
48.70812305
50.85846619
50.89206113
45.68657816
45.98337824
51.02467051
69.38688589
68.34886696
71.24594286
73.05597422
61.95957979
60.22301741
59.63246272
59.73253455
59.73887095
59.95416037
58.68442112
33.32457447
45.4808759
73.4757523
40.10826981
61.16674902
60.97500585
56.47286073
50.34603076
50.47029046
40.63428077
59.72759888
58.47751782
59.56118726
58.3354184
56.69106338
50.90957218
55.89915852
56.00877116
78.65720335
59.83202405
60.2237775
59.86785131
53.47999041
53.76056653
52.71688768
52.80301668
53.40449886
52.65332577
52.46649406
51.63648579
51.89023692
47.20033428
51.58521261
51.51646447
47.03183964
57.32882433
60.12550048
57.59199812
61.92776105
62.15920471
60.63953631
56.04615036
50.94486152
50.83322065
80.07127341
79.67062206
60.47426279
60.9279648
59.05246755
59.2442685
53.93072516
52.1177549
52.39990665
52.0547932
51.93939742
49.75563018
47.70562081
51.24525494
47.85862576
51.2618308
51.47995345
60.94750366
60.53994737
60.49872614
60.34586941
57.26629748
55.90626593
49.46830691
57.73666895
57.9679015
57.39999526
57.55295796
61.39373791
62.3326085
60.88862274
56.27547134
51.39971324
51.51136925
51.28965305
51.20740197
50.58400082
59.91657096
58.6541835
59.47724725
56.84775604
56.95885754
57.39421495
57.29666028
58.23226774
57.51623674
57.65769831
56.74833409
56.6578447
56.43634068
44.6289736
56.89898773
52.60199164
54.07762779
55.99311517
79.88166497
80.45052435
59.86872072
60.00157564
60.13301488
60.09513905
53.53162633
53.64351633
52.59374412
52.53099674
51.72474963
51.82895934
51.5580647
51.53895314
46.84347443
46.66031706
42.93339965
42.26667658
58.51006128
58.23866194
57.30735691
59.3775761
58.56269942
61.65842573
62.30671922
60.79771853
56.14694251
54.76086624
51.66001149
51.08110555
50.70630971
78.20238073
79.5536395
60.76739846
60.99161074
60.11998186
58.85355352
59.39417021
57.1527771
57.06561916
57.19911212
57.23632608
58.17694331
57.93934177
57.80474409
56.53035082
56.58553145
56.5212372
56.50597178
52.20588808
52.31694012
52.01212381
51.97371208
47.56315531
51.23547051
48.17300365
48.00420966
51.31566183
51.41700094
43.52935286
44.06560557
60.96762778
60.77176484
60.34413812
60.28314365
58.72918505
58.81340714
57.0961169
24.34157123
43.51779713
42.36902514
43.46103842
68.28129516
62.16861824
56.8175487
)
;
    }
}


// ************************************************************************* //
