/*--------------------------------*- C++ -*----------------------------------*\
| =========                 |                                                 |
| \\      /  F ield         | OpenFOAM: The Open Source CFD Toolbox           |
|  \\    /   O peration     | Version:  2212                                  |
|   \\  /    A nd           | Website:  www.openfoam.com                      |
|    \\/     M anipulation  |                                                 |
\*---------------------------------------------------------------------------*/
FoamFile
{
    version     2.0;
    format      ascii;
    arch        "LSB;label=64;scalar=64";
    class       volScalarField;
    location    "1600";
    object      p_rgh;
}
// * * * * * * * * * * * * * * * * * * * * * * * * * * * * * * * * * * * * * //

dimensions      [0 2 -2 0 0 0 0];

internalField   nonuniform List<scalar> 
1024
(
0.0431944
0.0431935
0.0431927
0.0431928
0.0431947
0.043199
0.0432061
0.0432157
0.0432261
0.0432335
0.0432334
0.0432249
0.0432142
0.043208
0.0432101
0.043217
0.0432096
0.0431735
0.0431188
0.0430638
0.0430223
0.0429967
0.0429826
0.0429753
0.0429718
0.0429701
0.0429696
0.0429699
0.042971
0.0429724
0.0429738
0.0429746
0.0431963
0.0431955
0.0431948
0.0431951
0.0431971
0.0432013
0.0432081
0.0432173
0.0432274
0.0432346
0.0432347
0.0432266
0.0432162
0.0432099
0.0432118
0.0432184
0.0432108
0.0431747
0.0431204
0.0430658
0.0430248
0.0429995
0.0429855
0.0429782
0.0429745
0.0429728
0.0429721
0.0429722
0.0429729
0.042974
0.0429752
0.042976
0.0431998
0.0431987
0.0431981
0.0431987
0.0432009
0.0432053
0.0432122
0.0432216
0.0432319
0.0432392
0.0432394
0.0432312
0.0432207
0.0432143
0.043216
0.0432228
0.0432154
0.0431794
0.0431251
0.0430705
0.0430295
0.0430043
0.0429903
0.0429829
0.042979
0.042977
0.042976
0.0429757
0.042976
0.0429768
0.0429779
0.042979
0.0432041
0.0432029
0.0432023
0.0432032
0.043206
0.0432111
0.0432189
0.0432293
0.0432406
0.0432485
0.0432486
0.0432398
0.0432285
0.0432218
0.0432238
0.0432316
0.0432248
0.0431888
0.043134
0.0430785
0.0430367
0.0430112
0.042997
0.0429894
0.0429851
0.0429826
0.042981
0.0429801
0.0429798
0.0429804
0.0429817
0.0429831
0.0432088
0.0432075
0.0432072
0.0432086
0.0432123
0.0432189
0.0432285
0.043241
0.0432541
0.043263
0.043263
0.0432532
0.0432407
0.0432333
0.0432364
0.0432458
0.0432399
0.0432036
0.0431475
0.0430901
0.0430464
0.04302
0.0430054
0.0429973
0.0429925
0.0429892
0.0429867
0.0429849
0.042984
0.0429843
0.0429857
0.0429875
0.0432132
0.0432122
0.0432122
0.0432146
0.0432198
0.0432286
0.0432412
0.0432568
0.0432725
0.0432826
0.0432824
0.0432715
0.0432576
0.04325
0.0432547
0.0432662
0.0432607
0.0432232
0.0431649
0.0431045
0.0430579
0.0430299
0.0430145
0.0430058
0.0430001
0.0429957
0.042992
0.0429891
0.0429874
0.0429871
0.0429885
0.0429905
0.0432172
0.0432166
0.0432173
0.0432209
0.0432282
0.0432402
0.0432567
0.0432763
0.043295
0.0433063
0.0433056
0.0432941
0.0432795
0.0432725
0.0432797
0.0432925
0.0432858
0.0432455
0.0431838
0.0431194
0.043069
0.043039
0.0430226
0.0430127
0.0430058
0.0429999
0.0429947
0.0429904
0.0429876
0.0429867
0.0429877
0.0429896
0.0432213
0.0432211
0.0432226
0.0432276
0.0432375
0.0432533
0.0432746
0.0432988
0.0433206
0.0433328
0.0433315
0.0433197
0.0433062
0.0433014
0.0433111
0.043323
0.0433123
0.0432673
0.0432007
0.0431315
0.0430768
0.0430439
0.0430264
0.0430154
0.0430068
0.042999
0.0429919
0.0429861
0.0429821
0.0429804
0.0429808
0.0429822
0.0432265
0.0432267
0.0432291
0.0432357
0.0432484
0.0432684
0.0432949
0.0433241
0.0433488
0.0433615
0.0433594
0.0433479
0.0433369
0.0433357
0.0433465
0.0433545
0.0433367
0.0432855
0.0432131
0.0431385
0.0430785
0.0430416
0.0430234
0.0430111
0.0430007
0.0429908
0.0429818
0.0429746
0.0429696
0.0429672
0.0429668
0.0429674
0.0432349
0.0432354
0.0432385
0.0432467
0.0432623
0.0432868
0.0433188
0.0433527
0.0433798
0.0433922
0.0433893
0.0433788
0.0433714
0.0433723
0.0433808
0.0433818
0.0433563
0.0432995
0.0432234
0.0431438
0.0430754
0.043034
0.0430142
0.0430002
0.0429879
0.0429761
0.0429656
0.0429574
0.0429519
0.042949
0.0429479
0.0429477
0.0432486
0.0432493
0.043253
0.0432629
0.0432819
0.0433114
0.0433492
0.0433872
0.0434143
0.0434257
0.0434228
0.0434141
0.0434071
0.043407
0.0434092
0.0434021
0.043372
0.0433146
0.0432391
0.0431578
0.0430848
0.0430338
0.0430055
0.0429889
0.0429744
0.042961
0.0429497
0.0429412
0.0429357
0.0429325
0.042931
0.0429302
0.0432695
0.0432702
0.0432747
0.0432868
0.04331
0.0433456
0.0433895
0.0434313
0.0434585
0.0434665
0.0434611
0.0434507
0.0434425
0.0434381
0.0434325
0.0434181
0.0433892
0.0433399
0.043276
0.0432052
0.0431358
0.0430741
0.0430255
0.0429973
0.0429767
0.0429601
0.0429468
0.0429373
0.0429315
0.0429286
0.0429272
0.0429264
0.0432954
0.0432959
0.0433013
0.0433159
0.0433434
0.0433841
0.0434316
0.0434735
0.0434987
0.0435051
0.0434989
0.0434877
0.0434769
0.0434671
0.0434549
0.0434369
0.0434141
0.0433816
0.0433426
0.0433013
0.0432589
0.0432127
0.0431578
0.0430932
0.0430408
0.0430077
0.0429832
0.0429679
0.04296
0.0429571
0.0429566
0.0429567
0.0433159
0.0433164
0.0433224
0.0433388
0.0433693
0.0434129
0.0434616
0.043503
0.0435278
0.0435354
0.0435311
0.043521
0.0435091
0.043496
0.0434804
0.043461
0.0434417
0.0434276
0.0434191
0.0434176
0.0434208
0.0434214
0.0434086
0.0433716
0.0433036
0.0432157
0.0431408
0.0430987
0.0430772
0.0430686
0.0430671
0.0430679
0.0433143
0.0433148
0.0433211
0.0433384
0.0433702
0.0434152
0.043465
0.0435079
0.0435357
0.0435472
0.0435469
0.0435394
0.0435272
0.0435114
0.0434917
0.043469
0.0434496
0.0434439
0.0434538
0.0434786
0.0435151
0.043556
0.0435917
0.0436122
0.0436097
0.0435797
0.0435227
0.0434456
0.0433793
0.0433382
0.0433209
0.0433158
0.0432777
0.0432784
0.0432846
0.0433016
0.0433332
0.0433789
0.0434312
0.0434787
0.0435126
0.0435308
0.0435362
0.0435323
0.0435208
0.0435023
0.0434773
0.0434485
0.0434243
0.0434154
0.043425
0.043451
0.0434909
0.0435401
0.0435915
0.0436372
0.0436706
0.0436881
0.0436891
0.0436763
0.0436544
0.0436298
0.0436093
0.0435994
0.043213
0.0432139
0.0432197
0.0432352
0.0432651
0.0433103
0.0433651
0.0434188
0.0434611
0.0434881
0.0435008
0.0435022
0.0434938
0.0434764
0.0434512
0.0434221
0.0433991
0.0433854
0.043384
0.0433941
0.0434162
0.0434495
0.0434908
0.0435344
0.0435737
0.0436034
0.0436211
0.0436278
0.0436265
0.0436209
0.0436142
0.0436089
0.043153
0.0431542
0.0431592
0.0431727
0.0431994
0.0432423
0.0432978
0.0433565
0.0434073
0.0434437
0.0434649
0.043473
0.04347
0.0434572
0.0434371
0.0434152
0.0434038
0.0433944
0.0433858
0.0433795
0.0433777
0.0433845
0.043402
0.0434288
0.0434594
0.0434874
0.0435076
0.0435183
0.0435209
0.0435184
0.0435133
0.0435085
0.0431171
0.0431184
0.0431229
0.0431345
0.0431578
0.0431964
0.0432492
0.0433094
0.0433669
0.043413
0.0434426
0.0434576
0.0434598
0.0434513
0.0434358
0.0434195
0.0434177
0.0434178
0.0434116
0.043402
0.0433879
0.0433734
0.0433659
0.0433703
0.0433853
0.0434055
0.0434237
0.0434352
0.0434391
0.0434371
0.0434316
0.0434259
0.0431031
0.0431045
0.0431087
0.0431187
0.0431393
0.043174
0.0432235
0.0432831
0.0433438
0.0433959
0.0434329
0.0434538
0.0434598
0.0434535
0.0434388
0.043423
0.0434181
0.0434229
0.0434278
0.0434287
0.0434199
0.0433982
0.0433758
0.0433617
0.0433614
0.0433724
0.0433872
0.0433987
0.0434035
0.0434019
0.0433957
0.0433888
0.0431038
0.0431052
0.0431089
0.0431179
0.0431363
0.0431681
0.0432147
0.0432731
0.0433349
0.0433903
0.0434318
0.0434563
0.0434638
0.0434569
0.0434398
0.0434202
0.0434101
0.0434155
0.0434269
0.0434374
0.0434406
0.0434324
0.0434132
0.0433895
0.0433793
0.0433845
0.0433983
0.0434117
0.0434188
0.0434183
0.0434117
0.0434034
0.0431126
0.0431138
0.0431171
0.0431252
0.0431424
0.0431725
0.0432176
0.043275
0.0433368
0.0433934
0.0434363
0.043461
0.0434673
0.0434571
0.0434352
0.0434097
0.043394
0.0433974
0.0434132
0.0434316
0.0434464
0.0434532
0.04345
0.0434399
0.0434283
0.043434
0.0434529
0.0434738
0.0434873
0.0434903
0.043484
0.0434743
0.0431247
0.0431255
0.0431283
0.0431361
0.043153
0.0431832
0.0432285
0.0432861
0.0433477
0.0434032
0.0434441
0.0434657
0.0434673
0.0434514
0.043423
0.0433908
0.0433696
0.0433706
0.0433887
0.0434132
0.0434386
0.0434607
0.0434772
0.0434894
0.0435002
0.0435171
0.0435478
0.0435844
0.043612
0.0436233
0.0436193
0.0436084
0.0431367
0.0431367
0.0431391
0.0431473
0.0431657
0.043198
0.0432456
0.0433045
0.0433656
0.043418
0.0434536
0.0434684
0.0434624
0.0434385
0.0434022
0.0433628
0.0433362
0.0433346
0.0433534
0.0433829
0.0434179
0.0434554
0.0434941
0.0435349
0.0435794
0.0436288
0.0436841
0.0437452
0.0437976
0.0438256
0.0438275
0.0438171
0.0431461
0.043145
0.0431473
0.0431571
0.0431788
0.0432161
0.0432677
0.0433286
0.0433881
0.0434351
0.0434622
0.0434672
0.0434511
0.0434173
0.043372
0.0433251
0.0432933
0.043289
0.0433071
0.0433414
0.0433854
0.0434386
0.0435011
0.0435751
0.0436614
0.0437584
0.04386
0.0439595
0.0440491
0.0441072
0.0441229
0.0441169
0.0431504
0.0431479
0.0431507
0.0431643
0.0431924
0.0432358
0.0432928
0.0433559
0.0434122
0.0434512
0.0434672
0.0434599
0.0434317
0.0433869
0.0433321
0.0432776
0.0432413
0.0432348
0.0432533
0.0432911
0.0433436
0.0434121
0.0434993
0.043609
0.043743
0.043898
0.0440639
0.0442256
0.0443686
0.0444766
0.0445214
0.0445286
0.0431433
0.0431398
0.0431452
0.0431664
0.0432048
0.0432571
0.0433185
0.0433826
0.0434335
0.0434619
0.0434648
0.0434439
0.0434028
0.0433467
0.0432826
0.0432215
0.0431818
0.0431742
0.0431938
0.0432352
0.0432961
0.0433793
0.0434903
0.0436356
0.0438189
0.0440378
0.0442803
0.0445262
0.0447505
0.044934
0.0450352
0.0450722
0.0431113
0.0431104
0.0431243
0.0431601
0.0432134
0.0432764
0.0433422
0.043404
0.0434468
0.0434627
0.0434518
0.0434173
0.043364
0.0432976
0.0432258
0.04316
0.0431189
0.0431116
0.0431332
0.0431788
0.0432478
0.0433442
0.0434765
0.043654
0.0438833
0.0441649
0.044489
0.0448347
0.045172
0.045464
0.0456638
0.0457608
0.0430287
0.0430424
0.0430807
0.0431434
0.043217
0.043291
0.0433602
0.0434164
0.0434486
0.0434518
0.043428
0.0433817
0.0433183
0.0432442
0.0431674
0.0430994
0.0430588
0.0430532
0.0430774
0.0431276
0.0432037
0.0433112
0.0434606
0.0436638
0.0439307
0.0442659
0.0446657
0.045116
0.0455907
0.046045
0.0463988
0.0466258
0.0428413
0.0429168
0.0430204
0.0431263
0.043221
0.0433046
0.043373
0.0434205
0.0434416
0.0434334
0.0433991
0.0433438
0.0432736
0.0431948
0.0431156
0.0430477
0.0430088
0.0430055
0.0430325
0.0430866
0.0431682
0.0432836
0.0434447
0.0436653
0.0439577
0.0443308
0.0447886
0.0453307
0.0459504
0.0466193
0.0472504
0.0478011
0.0423494
0.0427417
0.042986
0.0431383
0.0432444
0.0433275
0.0433888
0.0434257
0.0434359
0.0434183
0.0433761
0.0433146
0.0432402
0.043159
0.043079
0.0430118
0.0429747
0.0429734
0.0430025
0.0430592
0.0431438
0.0432634
0.0434304
0.0436596
0.0439646
0.0443569
0.0448473
0.04545
0.0461883
0.0470966
0.0482037
0.0494614
0.0413302
0.0425671
0.0430332
0.0431842
0.0432824
0.0433588
0.0434104
0.0434374
0.0434393
0.0434149
0.0433675
0.0433022
0.0432252
0.0431426
0.0430622
0.0429953
0.0429589
0.0429584
0.0429885
0.0430461
0.0431317
0.0432524
0.043421
0.0436521
0.0439598
0.044357
0.044858
0.0454883
0.0463003
0.0474013
0.0490089
0.0512705
)
;

boundaryField
{
    movingWall
    {
        type            fixedFluxPressure;
        gradient        uniform 0;
        value           nonuniform List<scalar> 
32
(
0.0413302
0.0425671
0.0430332
0.0431842
0.0432824
0.0433588
0.0434104
0.0434374
0.0434393
0.0434149
0.0433675
0.0433022
0.0432252
0.0431426
0.0430622
0.0429953
0.0429589
0.0429584
0.0429885
0.0430461
0.0431317
0.0432524
0.043421
0.0436521
0.0439598
0.044357
0.044858
0.0454883
0.0463003
0.0474013
0.0490089
0.0512705
)
;
    }
    fixedWalls
    {
        type            fixedFluxPressure;
        gradient        uniform 0;
        value           nonuniform List<scalar> 
64
(
0.0431944
0.0431963
0.0431998
0.0432041
0.0432088
0.0432132
0.0432172
0.0432213
0.0432265
0.0432349
0.0432486
0.0432695
0.0432954
0.0433159
0.0433143
0.0432777
0.043213
0.043153
0.0431171
0.0431031
0.0431038
0.0431126
0.0431247
0.0431367
0.0431461
0.0431504
0.0431433
0.0431113
0.0430287
0.0428413
0.0423494
0.0413302
0.0429746
0.042976
0.042979
0.0429831
0.0429875
0.0429905
0.0429896
0.0429822
0.0429674
0.0429477
0.0429302
0.0429264
0.0429567
0.0430679
0.0433158
0.0435994
0.0436089
0.0435085
0.0434259
0.0433888
0.0434034
0.0434743
0.0436084
0.0438171
0.0441169
0.0445286
0.0450722
0.0457608
0.0466258
0.0478011
0.0494614
0.0512705
)
;
    }
    floor
    {
        type            fixedFluxPressure;
        gradient        uniform 0;
        value           nonuniform List<scalar> 
32
(
0.0431944
0.0431935
0.0431927
0.0431928
0.0431947
0.043199
0.0432061
0.0432157
0.0432261
0.0432335
0.0432334
0.0432249
0.0432142
0.043208
0.0432101
0.043217
0.0432096
0.0431735
0.0431188
0.0430638
0.0430223
0.0429967
0.0429826
0.0429753
0.0429718
0.0429701
0.0429696
0.0429699
0.042971
0.0429724
0.0429738
0.0429746
)
;
    }
    frontAndBack
    {
        type            empty;
    }
}


// ************************************************************************* //
