/*--------------------------------*- C++ -*----------------------------------*\
| =========                 |                                                 |
| \\      /  F ield         | OpenFOAM: The Open Source CFD Toolbox           |
|  \\    /   O peration     | Version:  2212                                  |
|   \\  /    A nd           | Website:  www.openfoam.com                      |
|    \\/     M anipulation  |                                                 |
\*---------------------------------------------------------------------------*/
FoamFile
{
    version     2.0;
    format      ascii;
    arch        "LSB;label=64;scalar=64";
    class       surfaceScalarField;
    location    "1600";
    object      phi;
}
// * * * * * * * * * * * * * * * * * * * * * * * * * * * * * * * * * * * * * //

dimensions      [0 3 -1 0 0 0 0];

oriented        oriented;

internalField   nonuniform List<scalar> 
1984
(
-4.17901e-10
4.17536e-10
-4.46822e-09
4.05034e-09
-1.30775e-08
8.6093e-09
-2.51103e-08
1.20329e-08
-3.82422e-08
1.31319e-08
-4.93834e-08
1.11412e-08
-5.49093e-08
5.52595e-09
-5.094e-08
-3.96918e-09
-3.44849e-08
-1.64552e-08
-7.93834e-09
-2.65465e-08
1.77097e-08
-2.5648e-08
2.88373e-08
-1.11276e-08
2.4317e-08
4.52029e-09
1.34435e-08
1.08736e-08
1.44034e-08
-9.60029e-10
4.66096e-08
-3.22061e-08
1.03426e-07
-5.68167e-08
1.53974e-07
-5.05482e-08
1.797e-07
-2.57252e-08
1.7758e-07
2.12007e-09
1.57531e-07
2.00487e-08
1.30958e-07
2.65728e-08
1.04695e-07
2.62632e-08
8.13368e-08
2.33581e-08
6.12134e-08
2.01234e-08
4.37817e-08
1.74317e-08
2.85819e-08
1.51998e-08
1.58185e-08
1.27634e-08
6.31865e-09
9.49977e-09
8.78401e-10
5.44024e-09
-6.58458e-10
1.53685e-09
-6.58495e-10
-4.16385e-09
4.58139e-09
-1.86028e-08
1.84894e-08
-4.43166e-08
3.43231e-08
-7.88292e-08
4.65455e-08
-1.16135e-07
5.04377e-08
-1.47461e-07
4.24673e-08
-1.62327e-07
2.03923e-08
-1.49983e-07
-1.63134e-08
-1.02969e-07
-6.34692e-08
-2.73644e-08
-1.02151e-07
4.75576e-08
-1.0057e-07
8.40677e-08
-4.76377e-08
7.57894e-08
1.27985e-08
4.81722e-08
3.84908e-08
5.51166e-08
-7.90444e-09
1.53789e-07
-1.30879e-07
3.2314e-07
-2.26167e-07
4.74279e-07
-2.01687e-07
5.56542e-07
-1.07988e-07
5.60209e-07
-1.54696e-09
5.0945e-07
7.08076e-08
4.3418e-07
1.01843e-07
3.54661e-07
1.05782e-07
2.80346e-07
9.76729e-08
2.14044e-07
8.64249e-08
1.55649e-07
7.58267e-08
1.0484e-07
6.60094e-08
6.25492e-08
5.50541e-08
3.07156e-08
4.13335e-08
1.06939e-08
2.54619e-08
1.67373e-09
1.0557e-08
1.01521e-09
-9.30813e-09
1.38895e-08
-3.63802e-08
4.55616e-08
-8.07437e-08
7.86866e-08
-1.38105e-07
1.03907e-07
-1.99029e-07
1.11362e-07
-2.49368e-07
9.28058e-08
-2.72073e-07
4.30977e-08
-2.5029e-07
-3.80968e-08
-1.7366e-07
-1.40099e-07
-5.19985e-08
-2.23813e-07
7.09021e-08
-2.2347e-07
1.36187e-07
-1.12922e-07
1.29752e-07
1.92327e-08
9.08299e-08
7.74134e-08
1.09082e-07
-2.61569e-08
2.78827e-07
-3.00624e-07
5.63733e-07
-5.11073e-07
8.21393e-07
-4.59348e-07
9.73027e-07
-2.59622e-07
9.97719e-07
-2.62387e-08
9.27444e-07
1.41083e-07
8.08331e-07
2.20956e-07
6.7366e-07
2.40453e-07
5.41482e-07
2.29851e-07
4.19368e-07
2.08539e-07
3.0966e-07
1.85535e-07
2.13495e-07
1.62174e-07
1.32976e-07
1.35573e-07
7.09416e-08
1.03368e-07
2.9135e-08
6.72685e-08
6.62502e-09
3.3067e-08
7.64021e-09
-1.4116e-08
2.80055e-08
-5.36208e-08
8.50664e-08
-1.16207e-07
1.41273e-07
-1.95142e-07
1.82841e-07
-2.77523e-07
1.93744e-07
-3.44336e-07
1.59618e-07
-3.7281e-07
7.15716e-08
-3.41448e-07
-6.94583e-08
-2.39444e-07
-2.42103e-07
-8.16503e-08
-3.81606e-07
7.95187e-08
-3.84639e-07
1.72236e-07
-2.05639e-07
1.73353e-07
1.81156e-08
1.31355e-07
1.19411e-07
1.6644e-07
-6.12421e-08
4.02723e-07
-5.36907e-07
7.92751e-07
-9.011e-07
1.15537e-06
-8.2197e-07
1.38942e-06
-4.93667e-07
1.4552e-06
-9.20194e-08
1.38346e-06
2.12818e-07
1.23298e-06
3.71443e-07
1.04877e-06
4.24656e-07
8.58027e-07
4.20596e-07
6.74826e-07
3.9174e-07
5.05985e-07
3.54377e-07
3.55621e-07
3.12538e-07
2.27777e-07
2.63417e-07
1.26648e-07
2.04496e-07
5.51625e-08
1.38754e-07
1.36642e-08
7.45654e-08
2.13044e-08
-1.74192e-08
4.54248e-08
-6.62241e-08
1.33871e-07
-1.43125e-07
2.18174e-07
-2.39331e-07
2.79047e-07
-3.38847e-07
2.93261e-07
-4.18487e-07
2.39258e-07
-4.50881e-07
1.03966e-07
-4.11888e-07
-1.08451e-07
-2.93499e-07
-3.60492e-07
-1.1791e-07
-5.57196e-07
6.07353e-08
-5.63284e-07
1.71824e-07
-3.16728e-07
1.84193e-07
5.74657e-09
1.49266e-07
1.54338e-07
2.05204e-07
-1.17179e-07
4.91099e-07
-8.22802e-07
9.5972e-07
-1.36972e-06
1.41622e-06
-1.27847e-06
1.74343e-06
-8.20871e-07
1.87437e-06
-2.22959e-07
1.82527e-06
2.61918e-07
1.66284e-06
5.33865e-07
1.44288e-06
6.44617e-07
1.20129e-06
6.62189e-07
9.59295e-07
6.33736e-07
7.29518e-07
5.84153e-07
5.2048e-07
5.21576e-07
3.39365e-07
4.44532e-07
1.92833e-07
3.51028e-07
8.61485e-08
2.45439e-07
2.19973e-08
1.38717e-07
4.33019e-08
-1.83373e-08
6.37621e-08
-7.07497e-08
1.86284e-07
-1.54457e-07
3.01881e-07
-2.6014e-07
3.8473e-07
-3.70055e-07
4.03176e-07
-4.581e-07
3.27303e-07
-4.93804e-07
1.39669e-07
-4.52737e-07
-1.49518e-07
-3.33114e-07
-4.80116e-07
-1.6629e-07
-7.2402e-07
-4.37763e-09
-7.25196e-07
1.06685e-07
-4.2779e-07
1.28089e-07
-1.56582e-08
1.10119e-07
1.72308e-07
1.8604e-07
-1.931e-07
4.9049e-07
-1.12725e-06
9.95307e-07
-1.87454e-06
1.52383e-06
-1.80699e-06
1.95007e-06
-1.24711e-06
2.17301e-06
-4.45897e-07
2.17568e-06
2.59249e-07
2.02587e-06
6.83676e-07
1.79095e-06
8.79539e-07
1.51493e-06
9.38202e-07
1.22585e-06
9.22815e-07
9.42566e-07
8.67441e-07
6.79014e-07
7.85128e-07
4.46844e-07
6.76702e-07
2.56305e-07
5.41567e-07
1.15634e-07
3.8611e-07
2.98517e-08
2.24499e-07
7.31536e-08
-1.65592e-08
8.03213e-08
-6.56556e-08
2.3538e-07
-1.46503e-07
3.82729e-07
-2.51386e-07
4.89612e-07
-3.63133e-07
5.14924e-07
-4.54952e-07
4.19121e-07
-4.95562e-07
1.80279e-07
-4.62967e-07
-1.82113e-07
-3.64481e-07
-5.78601e-07
-2.39272e-07
-8.49229e-07
-1.29917e-07
-8.34551e-07
-5.84989e-08
-4.99209e-07
-3.82219e-08
-3.59352e-08
-3.49401e-08
1.69026e-07
4.97693e-08
-2.7781e-07
3.27247e-07
-1.40473e-06
8.12145e-07
-2.35944e-06
1.37859e-06
-2.37344e-06
1.90156e-06
-1.77009e-06
2.24602e-06
-7.90355e-07
2.33544e-06
1.69828e-07
2.22627e-06
7.92842e-07
2.00295e-06
1.10286e-06
1.71696e-06
1.22419e-06
1.40238e-06
1.2374e-06
1.08424e-06
1.18558e-06
7.82649e-07
1.08672e-06
5.14667e-07
9.44684e-07
2.94475e-07
7.61759e-07
1.32433e-07
5.48152e-07
3.4076e-08
3.22856e-07
1.0723e-07
-1.26982e-08
9.30195e-08
-5.26097e-08
2.75291e-07
-1.21711e-07
4.5183e-07
-2.15715e-07
5.83617e-07
-3.20748e-07
6.19956e-07
-4.12591e-07
5.10965e-07
-4.62799e-07
2.30486e-07
-4.55331e-07
-1.89581e-07
-4.08364e-07
-6.25568e-07
-3.64937e-07
-8.92656e-07
-3.52614e-07
-8.46874e-07
-3.61133e-07
-4.9069e-07
-3.72962e-07
-2.41057e-08
-3.64448e-07
1.60512e-07
-2.93269e-07
-3.48989e-07
-9.09967e-08
-1.607e-06
3.08005e-07
-2.75844e-06
8.64491e-07
-2.92992e-06
1.46614e-06
-2.37174e-06
1.96044e-06
-1.28465e-06
2.18316e-06
-5.28966e-08
2.14922e-06
8.26789e-07
1.9722e-06
1.27988e-06
1.70973e-06
1.48666e-06
1.40197e-06
1.54517e-06
1.08055e-06
1.50699e-06
7.72425e-07
1.39485e-06
5.0024e-07
1.21687e-06
2.80823e-07
9.81176e-07
1.23682e-07
7.05294e-07
3.11024e-08
4.15436e-07
1.38332e-07
-8.30134e-09
1.01321e-07
-3.68355e-08
3.03826e-07
-8.99668e-08
5.04962e-07
-1.67438e-07
6.61088e-07
-2.60712e-07
7.1323e-07
-3.51902e-07
6.02155e-07
-4.20777e-07
2.99362e-07
-4.62647e-07
-1.47711e-07
-5.05928e-07
-5.82288e-07
-5.89621e-07
-8.08963e-07
-7.17447e-07
-7.19048e-07
-8.48654e-07
-3.59483e-07
-9.36015e-07
6.32556e-08
-9.63108e-07
1.87605e-07
-9.50338e-07
-3.61759e-07
-8.79285e-07
-1.67805e-06
-6.23447e-07
-3.01428e-06
-1.44117e-07
-3.40925e-06
4.8895e-07
-3.0048e-06
1.1297e-06
-1.9254e-06
1.55402e-06
-4.77218e-07
1.66668e-06
7.14125e-07
1.59003e-06
1.35653e-06
1.39849e-06
1.6782e-06
1.1437e-06
1.79996e-06
8.65968e-07
1.78472e-06
5.99743e-07
1.66107e-06
3.71817e-07
1.44479e-06
1.97968e-07
1.15502e-06
8.21232e-08
8.21138e-07
1.92348e-08
4.78324e-07
1.57567e-07
-5.46967e-09
1.0679e-07
-2.61511e-08
3.24507e-07
-6.75687e-08
5.46379e-07
-1.32479e-07
7.25999e-07
-2.17996e-07
7.98747e-07
-3.15607e-07
6.99766e-07
-4.19988e-07
4.03742e-07
-5.46103e-07
-2.15955e-08
-7.28427e-07
-3.99964e-07
-9.89506e-07
-5.47883e-07
-1.3024e-06
-4.06151e-07
-1.60599e-06
-5.58994e-08
-1.82453e-06
2.81797e-07
-1.95485e-06
3.17925e-07
-2.06774e-06
-2.48862e-07
-2.16616e-06
-1.57964e-06
-2.06958e-06
-3.11085e-06
-1.70717e-06
-3.77166e-06
-1.1377e-06
-3.57427e-06
-4.27916e-07
-2.63519e-06
2.84346e-07
-1.18948e-06
6.85569e-07
3.12902e-07
7.79878e-07
1.26222e-06
7.25596e-07
1.73248e-06
5.87747e-07
1.93781e-06
4.18212e-07
1.95426e-06
2.58191e-07
1.82109e-06
1.34081e-07
1.56891e-06
5.47327e-08
1.23437e-06
1.46529e-08
8.61218e-07
1.02755e-09
4.91949e-07
1.58595e-07
-6.4181e-09
1.13209e-07
-2.98596e-08
3.47949e-07
-7.5907e-08
5.92427e-07
-1.4837e-07
7.98462e-07
-2.48742e-07
8.99119e-07
-3.79715e-07
8.30739e-07
-5.56486e-07
5.80514e-07
-8.17513e-07
2.39431e-07
-1.20381e-06
-1.36652e-08
-1.70468e-06
-4.70135e-08
-2.25834e-06
1.47506e-07
-2.76467e-06
4.50428e-07
-3.16261e-06
6.79744e-07
-3.4742e-06
6.29508e-07
-3.77759e-06
5.45282e-08
-4.07239e-06
-1.28484e-06
-4.15454e-06
-3.0287e-06
-3.92398e-06
-4.00223e-06
-3.42113e-06
-4.07712e-06
-2.69881e-06
-3.35752e-06
-1.82958e-06
-2.0587e-06
-1.01926e-06
-4.97417e-07
-5.41374e-07
7.84332e-07
-3.17591e-07
1.50869e-06
-2.31129e-07
1.85135e-06
-2.03481e-07
1.92661e-06
-1.86063e-07
1.80368e-06
-1.55151e-07
1.53799e-06
-1.08646e-07
1.18787e-06
-5.76796e-08
8.10251e-07
-1.72378e-08
4.51507e-07
1.41357e-07
-1.43978e-08
1.27606e-07
-6.10939e-08
3.94645e-07
-1.45881e-07
6.77213e-07
-2.73245e-07
9.25826e-07
-4.49683e-07
1.07556e-06
-6.92341e-07
1.0734e-06
-1.03846e-06
9.26628e-07
-1.53349e-06
7.34466e-07
-2.18343e-06
6.36273e-07
-2.93463e-06
7.04192e-07
-3.69651e-06
9.09381e-07
-4.40067e-06
1.15459e-06
-5.0308e-06
1.30987e-06
-5.59785e-06
1.19656e-06
-6.12454e-06
5.81213e-07
-6.60409e-06
-8.05286e-07
-6.87399e-06
-2.75881e-06
-6.79798e-06
-4.07823e-06
-6.38963e-06
-4.48547e-06
-5.66886e-06
-4.07828e-06
-4.66347e-06
-3.0641e-06
-3.45488e-06
-1.70601e-06
-2.38842e-06
-2.82128e-07
-1.65485e-06
7.75126e-07
-1.18757e-06
1.38408e-06
-8.58241e-07
1.59728e-06
-6.08885e-07
1.55432e-06
-4.0506e-07
1.33417e-06
-2.37226e-07
1.02003e-06
-1.09432e-07
6.82457e-07
-2.88798e-08
3.70956e-07
1.12477e-07
-2.96605e-08
1.57267e-07
-1.21757e-07
4.86741e-07
-2.83554e-07
8.3901e-07
-5.20296e-07
1.16257e-06
-8.40893e-07
1.39616e-06
-1.26708e-06
1.49959e-06
-1.834e-06
1.49355e-06
-2.56506e-06
1.46553e-06
-3.43874e-06
1.50996e-06
-4.39508e-06
1.66052e-06
-5.36978e-06
1.88409e-06
-6.31952e-06
2.10434e-06
-7.21916e-06
2.20951e-06
-8.05864e-06
2.03604e-06
-8.83544e-06
1.35801e-06
-9.52418e-06
-1.16545e-07
-9.97918e-06
-2.30381e-06
-1.00693e-05
-3.98815e-06
-9.78019e-06
-4.77454e-06
-9.0923e-06
-4.76617e-06
-8.00027e-06
-4.15613e-06
-6.55037e-06
-3.15591e-06
-4.86627e-06
-1.96623e-06
-3.33198e-06
-7.59163e-07
-2.15859e-06
2.10689e-07
-1.35764e-06
7.96323e-07
-8.3755e-07
1.03423e-06
-4.8442e-07
9.81039e-07
-2.48489e-07
7.84101e-07
-1.01553e-07
5.35521e-07
-2.38254e-08
2.93228e-07
8.86515e-08
-4.64171e-08
2.03684e-07
-1.89258e-07
6.29582e-07
-4.39086e-07
1.08884e-06
-8.02842e-07
1.52632e-06
-1.28797e-06
1.88128e-06
-1.9079e-06
2.11952e-06
-2.67843e-06
2.26407e-06
-3.60013e-06
2.38723e-06
-4.64703e-06
2.55686e-06
-5.77703e-06
2.79052e-06
-6.94713e-06
3.05419e-06
-8.12109e-06
3.27829e-06
-9.2693e-06
3.35772e-06
-1.03677e-05
3.1344e-06
-1.13887e-05
2.37903e-06
-1.22881e-05
7.82867e-07
-1.2889e-05
-1.70293e-06
-1.31337e-05
-3.74346e-06
-1.29836e-05
-4.92459e-06
-1.23876e-05
-5.3622e-06
-1.13158e-05
-5.22789e-06
-9.79439e-06
-4.67734e-06
-7.91976e-06
-3.84086e-06
-5.84397e-06
-2.83496e-06
-3.85918e-06
-1.7741e-06
-2.26783e-06
-7.95026e-07
-1.16472e-06
-6.88837e-08
-5.11639e-07
3.2796e-07
-1.81575e-07
4.54037e-07
-4.28212e-08
3.96768e-07
-1.7229e-09
2.5213e-07
8.69285e-08
-5.27572e-08
2.56441e-07
-2.17744e-07
7.94569e-07
-5.12021e-07
1.38312e-06
-9.48904e-07
1.96321e-06
-1.53694e-06
2.46932e-06
-2.27966e-06
2.86224e-06
-3.17304e-06
3.15744e-06
-4.2015e-06
3.41569e-06
-5.33974e-06
3.6951e-06
-6.55944e-06
4.01023e-06
-7.83262e-06
4.32737e-06
-9.13118e-06
4.57685e-06
-1.04266e-05
4.65314e-06
-1.16903e-05
4.39806e-06
-1.289e-05
3.57878e-06
-1.39819e-05
1.87479e-06
-1.4748e-05
-9.36895e-07
-1.51547e-05
-3.33669e-06
-1.51885e-05
-4.8908e-06
-1.47846e-05
-5.76617e-06
-1.38921e-05
-6.12036e-06
-1.25128e-05
-6.05659e-06
-1.07141e-05
-5.63964e-06
-8.62396e-06
-4.92506e-06
-6.41563e-06
-3.98243e-06
-4.29888e-06
-2.91178e-06
-2.52472e-06
-1.84304e-06
-1.277e-06
-9.19767e-07
-5.3256e-07
-2.904e-07
-1.62881e-07
2.70885e-08
-2.41883e-08
1.13437e-07
6.27402e-08
-3.91224e-08
2.95563e-07
-1.69664e-07
9.25111e-07
-4.17693e-07
1.63114e-06
-8.09267e-07
2.35478e-06
-1.3633e-06
3.02335e-06
-2.08344e-06
3.58238e-06
-2.95441e-06
4.02842e-06
-3.94796e-06
4.40923e-06
-5.03485e-06
4.78199e-06
-6.19275e-06
5.16813e-06
-7.40511e-06
5.53973e-06
-8.65661e-06
5.82836e-06
-9.93178e-06
5.92831e-06
-1.12165e-05
5.68281e-06
-1.24979e-05
4.86016e-06
-1.37489e-05
3.12578e-06
-1.46664e-05
-1.93671e-08
-1.52678e-05
-2.73529e-06
-1.55913e-05
-4.56736e-06
-1.55601e-05
-5.79737e-06
-1.50818e-05
-6.59859e-06
-1.41026e-05
-7.03585e-06
-1.26319e-05
-7.11029e-06
-1.07483e-05
-6.80872e-06
-8.59365e-06
-6.13704e-06
-6.35965e-06
-5.14578e-06
-4.26158e-06
-3.94111e-06
-2.49716e-06
-2.68419e-06
-1.22189e-06
-1.56567e-06
-4.55513e-07
-7.39287e-07
-9.28723e-08
-2.49203e-07
-3.01321e-08
-8.29656e-09
3.0386e-07
-5.04988e-08
9.67313e-07
-1.55313e-07
1.73596e-06
-3.58141e-07
2.55761e-06
-6.92501e-07
3.35771e-06
-1.1742e-06
4.06407e-06
-1.78891e-06
4.64313e-06
-2.50208e-06
5.12241e-06
-3.27674e-06
5.55665e-06
-4.08669e-06
5.97807e-06
-4.91778e-06
6.37082e-06
-5.76146e-06
6.67204e-06
-6.61212e-06
6.77897e-06
-7.46951e-06
6.5402e-06
-8.34462e-06
5.73528e-06
-9.26963e-06
4.05079e-06
-1.02112e-05
9.22199e-07
-1.09666e-05
-1.97988e-06
-1.16248e-05
-3.90921e-06
-1.21398e-05
-5.28238e-06
-1.23846e-05
-6.35379e-06
-1.22274e-05
-7.19297e-06
-1.15828e-05
-7.75495e-06
-1.0433e-05
-7.95848e-06
-8.84356e-06
-7.7265e-06
-6.95622e-06
-7.03311e-06
-4.9735e-06
-5.92383e-06
-3.13232e-06
-4.52538e-06
-1.65284e-06
-3.04515e-06
-6.61083e-07
-1.73104e-06
-1.44699e-07
-7.65587e-07
-1.74831e-07
1.6828e-08
2.87032e-07
5.07545e-08
9.33387e-07
7.7789e-08
1.70892e-06
6.37695e-08
2.57163e-06
-2.92659e-08
3.45075e-06
-2.28881e-07
4.26369e-06
-5.36068e-07
4.95032e-06
-9.21595e-07
5.50794e-06
-1.3413e-06
5.97635e-06
-1.75655e-06
6.39332e-06
-2.15052e-06
6.76479e-06
-2.5161e-06
7.03762e-06
-2.85275e-06
7.11563e-06
-3.1676e-06
6.85504e-06
-3.47213e-06
6.03981e-06
-3.82064e-06
4.3993e-06
-4.29388e-06
1.39544e-06
-4.89012e-06
-1.38363e-06
-5.61896e-06
-3.18037e-06
-6.43885e-06
-4.46249e-06
-7.23677e-06
-5.55587e-06
-7.84489e-06
-6.58485e-06
-8.10892e-06
-7.49091e-06
-7.90912e-06
-8.15828e-06
-7.21312e-06
-8.4225e-06
-6.07853e-06
-8.16771e-06
-4.64479e-06
-7.35756e-06
-3.11936e-06
-6.05081e-06
-1.74537e-06
-4.41914e-06
-7.32556e-07
-2.74385e-06
-1.67364e-07
-1.33078e-06
-3.42195e-07
2.97114e-08
2.5732e-07
1.061e-07
8.56998e-07
2.11589e-07
1.60343e-06
3.17128e-07
2.46609e-06
3.87297e-07
3.38058e-06
3.90181e-07
4.2608e-06
3.11542e-07
5.02895e-06
1.68783e-07
5.65069e-06
4.07812e-09
6.14105e-06
-1.35538e-07
6.53294e-06
-2.23053e-07
6.85231e-06
-2.49568e-07
7.06413e-06
-2.20823e-07
7.08688e-06
-1.54876e-07
6.78909e-06
-8.805e-08
5.97298e-06
-2.37728e-08
4.33502e-06
-1.80732e-07
1.5524e-06
-6.60499e-07
-9.03866e-07
-1.31589e-06
-2.52498e-06
-2.12706e-06
-3.65132e-06
-3.07375e-06
-4.60918e-06
-4.03985e-06
-5.61875e-06
-4.8696e-06
-6.66117e-06
-5.36083e-06
-7.66704e-06
-5.39645e-06
-8.38688e-06
-4.94878e-06
-8.61538e-06
-4.07965e-06
-8.2267e-06
-2.93943e-06
-7.19102e-06
-1.75352e-06
-5.60506e-06
-7.758e-07
-3.72157e-06
-1.8479e-07
-1.92179e-06
-5.26985e-07
3.26757e-08
2.24645e-07
1.24112e-07
7.65561e-07
2.64659e-07
1.46289e-06
4.32444e-07
2.2983e-06
5.9697e-07
3.21605e-06
7.27997e-07
4.12978e-06
8.08143e-07
4.94881e-06
8.45418e-07
5.61342e-06
8.73354e-07
6.11312e-06
9.33836e-07
6.47246e-06
1.06358e-06
6.72257e-06
1.27465e-06
6.85306e-06
1.5567e-06
6.80483e-06
1.8795e-06
6.46629e-06
2.19154e-06
5.66094e-06
2.40448e-06
4.12208e-06
2.31102e-06
1.64586e-06
1.89873e-06
-4.9157e-07
1.3199e-06
-1.94615e-06
6.19811e-07
-2.95123e-06
-2.24787e-07
-3.76458e-06
-1.21515e-06
-4.62838e-06
-2.25453e-06
-5.6218e-06
-3.13991e-06
-6.78166e-06
-3.68349e-06
-7.8433e-06
-3.7824e-06
-8.51647e-06
-3.41737e-06
-8.59173e-06
-2.66665e-06
-7.94174e-06
-1.70851e-06
-6.5632e-06
-8.02039e-07
-4.62804e-06
-1.99206e-07
-2.52462e-06
-7.26191e-07
2.95937e-08
1.95051e-07
1.17084e-07
6.78071e-07
2.60222e-07
1.31975e-06
4.45891e-07
2.11264e-06
6.51756e-07
3.01019e-06
8.5354e-07
3.92799e-06
1.03579e-06
4.76656e-06
1.20197e-06
5.44724e-06
1.37631e-06
5.93877e-06
1.59346e-06
6.25531e-06
1.8845e-06
6.43153e-06
2.25948e-06
6.47809e-06
2.7031e-06
6.3612e-06
3.17513e-06
5.99426e-06
3.60596e-06
5.23011e-06
3.87316e-06
3.85489e-06
3.79066e-06
1.72836e-06
3.40489e-06
-1.05802e-07
2.84238e-06
-1.38364e-06
2.18812e-06
-2.29697e-06
1.47245e-06
-3.04891e-06
6.36984e-07
-3.79292e-06
-3.22209e-07
-4.6626e-06
-1.3429e-06
-5.76097e-06
-2.18226e-06
-7.00394e-06
-2.67925e-06
-8.01947e-06
-2.73566e-06
-8.53532e-06
-2.35124e-06
-8.32617e-06
-1.63771e-06
-7.27673e-06
-8.26209e-07
-5.43954e-06
-2.16001e-07
-3.13483e-06
-9.42192e-07
2.28232e-08
1.72228e-07
9.36026e-08
6.07292e-07
2.15964e-07
1.19739e-06
3.86267e-07
1.94233e-06
5.93297e-07
2.80316e-06
8.22831e-07
3.69846e-06
1.06557e-06
4.52382e-06
1.32408e-06
5.18873e-06
1.61396e-06
5.6489e-06
1.95719e-06
5.91208e-06
2.37239e-06
6.01633e-06
2.86193e-06
5.98855e-06
3.40561e-06
5.81752e-06
3.95795e-06
5.44192e-06
4.44195e-06
4.74611e-06
4.72944e-06
3.56739e-06
4.67986e-06
1.77794e-06
4.33675e-06
2.37307e-07
3.79857e-06
-8.45466e-07
3.15797e-06
-1.65637e-06
2.46581e-06
-2.35675e-06
1.74151e-06
-3.06862e-06
9.62817e-07
-3.88391e-06
6.14548e-08
-4.85961e-06
-8.85549e-07
-6.05694e-06
-1.64448e-06
-7.26054e-06
-2.04291e-06
-8.13689e-06
-1.99769e-06
-8.3714e-06
-1.54123e-06
-7.73318e-06
-8.50022e-07
-6.13075e-06
-2.38373e-07
-3.74648e-06
-1.18057e-06
1.30206e-08
1.59207e-07
5.67277e-08
5.63584e-07
1.3987e-07
1.11425e-06
2.70149e-07
1.81205e-06
4.50863e-07
2.62245e-06
6.80367e-07
3.46895e-06
9.57593e-07
4.24659e-06
1.28514e-06
4.86119e-06
1.66904e-06
5.265e-06
2.1152e-06
5.46591e-06
2.62607e-06
5.50547e-06
3.19391e-06
5.42071e-06
3.79466e-06
5.21676e-06
4.38266e-06
4.85392e-06
4.88285e-06
4.24592e-06
5.1782e-06
3.27205e-06
5.16035e-06
1.79578e-06
4.87769e-06
5.19971e-07
4.40922e-06
-3.76996e-07
3.83309e-06
-1.08024e-06
3.19512e-06
-1.71879e-06
2.52402e-06
-2.39751e-06
1.82833e-06
-3.18822e-06
1.09315e-06
-4.12443e-06
2.37413e-07
-5.2012e-06
-6.41629e-07
-6.38149e-06
-1.31192e-06
-7.4666e-06
-1.58429e-06
-8.09903e-06
-1.40162e-06
-7.91585e-06
-8.64802e-07
-6.66757e-06
-2.67995e-07
-4.34329e-06
-1.44856e-06
-1.21331e-09
1.60421e-07
2.53482e-09
5.59836e-07
2.88948e-08
1.08789e-06
1.02642e-07
1.73831e-06
2.44434e-07
2.48065e-06
4.63465e-07
3.24992e-06
7.6431e-07
3.94575e-06
1.1485e-06
4.477e-06
1.61062e-06
4.80288e-06
2.13896e-06
4.93757e-06
2.72007e-06
4.92436e-06
3.33733e-06
4.80344e-06
3.96521e-06
4.58889e-06
4.56208e-06
4.25705e-06
5.06171e-06
3.74628e-06
5.36671e-06
2.96705e-06
5.39274e-06
1.76975e-06
5.18906e-06
7.23657e-07
4.82426e-06
-1.21945e-08
4.35629e-06
-6.12267e-07
3.81644e-06
-1.17894e-06
3.22686e-06
-1.80793e-06
2.59588e-06
-2.55724e-06
1.91791e-06
-3.44647e-06
1.17242e-06
-4.45571e-06
3.26076e-07
-5.53515e-06
-5.12435e-07
-6.62809e-06
-1.08344e-06
-7.52802e-06
-1.19603e-06
-7.80326e-06
-8.56859e-07
-7.00674e-06
-3.05412e-07
-4.89473e-06
-1.75397e-06
-2.23069e-08
1.82727e-07
-7.36302e-08
6.1116e-07
-1.19328e-07
1.13358e-06
-1.10938e-07
1.72992e-06
-7.14466e-09
2.37686e-06
2.06469e-07
3.03631e-06
5.32559e-07
3.61966e-06
9.6846e-07
4.0411e-06
1.49555e-06
4.27578e-06
2.08567e-06
4.34745e-06
2.71368e-06
4.29635e-06
3.35807e-06
4.15905e-06
3.99497e-06
3.95199e-06
4.59003e-06
3.66199e-06
5.09003e-06
3.24629e-06
5.41999e-06
2.63709e-06
5.51249e-06
1.67725e-06
5.4164e-06
8.19751e-07
5.17781e-06
2.26388e-07
4.83497e-06
-2.69426e-07
4.41795e-06
-7.61916e-07
3.93441e-06
-1.32438e-06
3.38111e-06
-2.00394e-06
2.74926e-06
-2.81462e-06
2.03065e-06
-3.7371e-06
1.22504e-06
-4.72954e-06
3.41046e-07
-5.7441e-06
-4.68572e-07
-6.71841e-06
-9.00402e-07
-7.37143e-06
-8.09033e-07
-7.09811e-06
-3.47857e-07
-5.35591e-06
-2.10183e-06
-5.72541e-08
2.39982e-07
-1.82659e-07
7.36565e-07
-3.07319e-07
1.25824e-06
-3.58014e-07
1.78061e-06
-2.82969e-07
2.30181e-06
-5.74841e-08
2.81083e-06
3.0597e-07
3.2562e-06
7.93945e-07
3.55312e-06
1.37448e-06
3.69524e-06
2.00835e-06
3.71358e-06
2.66568e-06
3.63902e-06
3.32501e-06
3.49972e-06
3.96691e-06
3.31009e-06
4.56591e-06
3.06299e-06
5.08272e-06
2.72947e-06
5.46215e-06
2.25767e-06
5.64212e-06
1.49728e-06
5.65558e-06
8.06291e-07
5.54563e-06
3.36343e-07
5.33952e-06
-6.3318e-08
5.05381e-06
-4.76203e-07
4.68368e-06
-9.54251e-07
4.21504e-06
-1.5353e-06
3.63236e-06
-2.23194e-06
2.9276e-06
-3.03234e-06
2.10778e-06
-3.90972e-06
1.19885e-06
-4.83516e-06
2.57174e-07
-5.77673e-06
-4.87219e-07
-6.62704e-06
-6.97933e-07
-6.88739e-06
-3.8544e-07
-5.6684e-06
-2.48727e-06
-1.16332e-07
3.56314e-07
-3.34158e-07
9.5439e-07
-5.28016e-07
1.4521e-06
-6.07788e-07
1.86038e-06
-5.2731e-07
2.22134e-06
-2.74057e-07
2.55757e-06
1.40158e-07
2.84199e-06
6.85117e-07
3.00816e-06
1.31123e-06
3.06913e-06
1.97846e-06
3.04635e-06
2.65921e-06
2.95827e-06
3.33539e-06
2.82355e-06
3.99267e-06
2.6528e-06
4.61318e-06
2.44248e-06
5.16874e-06
2.17391e-06
5.61712e-06
1.80929e-06
5.89163e-06
1.22277e-06
6.00918e-06
6.88736e-07
6.01498e-06
3.30544e-07
5.92817e-06
2.34971e-08
5.75374e-06
-3.01778e-07
5.48093e-06
-6.81435e-07
5.08884e-06
-1.14321e-06
4.55593e-06
-1.69903e-06
3.8694e-06
-2.3458e-06
3.03336e-06
-3.07368e-06
2.07385e-06
-3.87565e-06
1.04716e-06
-4.75004e-06
7.92795e-08
-5.65915e-06
-4.89417e-07
-6.3187e-06
-3.98086e-07
-5.75973e-06
-2.88536e-06
-2.08295e-07
5.64609e-07
-5.19526e-07
1.26562e-06
-7.41265e-07
1.67384e-06
-7.9421e-07
1.91333e-06
-6.59497e-07
2.08662e-06
-3.43225e-07
2.2413e-06
1.42178e-07
2.35659e-06
7.48235e-07
2.40211e-06
1.41803e-06
2.39933e-06
2.11938e-06
2.34501e-06
2.8294e-06
2.24824e-06
3.53304e-06
2.11991e-06
4.2187e-06
1.96714e-06
4.8722e-06
1.78898e-06
5.4714e-06
1.57471e-06
5.98047e-06
1.30022e-06
6.32645e-06
8.76797e-07
6.51729e-06
4.97892e-07
6.60162e-06
2.46216e-07
6.59546e-06
2.96535e-08
6.49702e-06
-2.03338e-07
6.29295e-06
-4.77363e-07
5.96096e-06
-8.11225e-07
5.47675e-06
-1.21482e-06
4.82178e-06
-1.69083e-06
3.9909e-06
-2.2428e-06
2.99917e-06
-2.88393e-06
1.89005e-06
-3.64092e-06
7.62183e-07
-4.53128e-06
-1.33944e-07
-5.42257e-06
-3.55125e-07
-5.53855e-06
-3.24048e-06
-3.26026e-07
8.90635e-07
-6.86756e-07
1.62635e-06
-8.37435e-07
1.82452e-06
-7.67435e-07
1.84333e-06
-5.06453e-07
1.82564e-06
-7.06054e-08
1.80545e-06
5.09368e-07
1.77661e-06
1.1737e-06
1.73777e-06
1.88744e-06
1.6856e-06
2.62362e-06
1.60883e-06
3.36182e-06
1.51005e-06
4.0873e-06
1.39442e-06
4.78806e-06
1.26639e-06
5.45052e-06
1.12651e-06
6.05562e-06
9.69609e-07
6.57268e-06
7.83163e-07
6.93213e-06
5.17345e-07
7.14265e-06
2.87372e-07
7.25321e-06
1.35654e-07
7.2796e-06
3.26777e-09
7.21776e-06
-1.41501e-07
7.0536e-06
-3.13197e-07
6.76691e-06
-5.24534e-07
6.33393e-06
-7.81844e-07
5.73242e-06
-1.08933e-06
4.94645e-06
-1.45683e-06
3.97197e-06
-1.90945e-06
2.82703e-06
-2.49598e-06
1.57724e-06
-3.2815e-06
4.07123e-07
-4.25245e-06
-2.15794e-07
-4.91564e-06
-3.45627e-06
-4.43608e-07
1.33424e-06
-6.81659e-07
1.8644e-06
-5.58417e-07
1.70128e-06
-2.13959e-07
1.49887e-06
2.71536e-07
1.34015e-06
8.62522e-07
1.21447e-06
1.52574e-06
1.11339e-06
2.23482e-06
1.02869e-06
2.96774e-06
9.52675e-07
3.70217e-06
8.74402e-07
4.41994e-06
7.92273e-07
5.10692e-06
7.07446e-07
5.75163e-06
6.21673e-07
6.34291e-06
5.35238e-07
6.867e-06
4.45517e-07
7.3028e-06
3.4736e-07
7.59932e-06
2.20829e-07
7.77079e-06
1.15903e-07
7.86055e-06
4.5894e-08
7.88012e-06
-1.6299e-08
7.82475e-06
-8.61345e-08
7.68352e-06
-1.71971e-07
7.43871e-06
-2.79722e-07
7.06917e-06
-4.12305e-07
6.55262e-06
-5.72771e-07
5.86614e-06
-7.70352e-07
4.98631e-06
-1.02962e-06
3.89286e-06
-1.40253e-06
2.58949e-06
-1.97812e-06
1.18861e-06
-2.85157e-06
1.16083e-07
-3.84311e-06
-3.34019e-06
-3.75539e-07
1.70978e-06
1.85194e-08
1.47034e-06
7.26199e-07
9.93598e-07
1.43609e-06
7.8898e-07
2.13486e-06
6.41379e-07
2.82868e-06
5.20641e-07
3.51175e-06
4.30325e-07
4.17745e-06
3.62992e-07
4.81941e-06
3.10716e-07
5.42737e-06
2.66446e-07
5.99219e-06
2.27447e-07
6.50707e-06
1.92567e-07
6.96751e-06
1.61237e-07
7.37006e-06
1.32683e-07
7.71019e-06
1.05388e-07
7.97974e-06
7.78088e-08
8.15444e-06
4.6137e-08
8.24936e-06
2.09759e-08
8.29186e-06
3.39865e-09
8.28852e-06
-1.29618e-08
8.235e-06
-3.26151e-08
8.12158e-06
-5.85513e-08
7.93407e-06
-9.22149e-08
7.65607e-06
-1.34301e-07
7.26932e-06
-1.86022e-07
6.75102e-06
-2.52047e-07
6.0675e-06
-3.46099e-07
5.16577e-06
-5.00809e-07
3.96972e-06
-7.82066e-07
2.41974e-06
-1.30159e-06
7.46775e-07
-2.17015e-06
-2.59342e-06
1.70978e-06
3.18013e-06
4.17372e-06
4.9627e-06
5.60408e-06
6.12472e-06
6.55505e-06
6.91804e-06
7.22876e-06
7.4952e-06
7.72265e-06
7.91522e-06
8.07645e-06
8.20914e-06
8.31452e-06
8.39233e-06
8.43847e-06
8.45945e-06
8.46284e-06
8.44988e-06
8.41727e-06
8.35872e-06
8.2665e-06
8.1322e-06
7.94618e-06
7.69413e-06
7.34803e-06
6.84722e-06
6.06516e-06
4.76356e-06
2.59342e-06
)
;

boundaryField
{
    movingWall
    {
        type            calculated;
        value           uniform 0;
    }
    fixedWalls
    {
        type            calculated;
        value           uniform 0;
    }
    floor
    {
        type            calculated;
        value           uniform 0;
    }
    frontAndBack
    {
        type            empty;
        value           nonuniform List<scalar> 0();
    }
}


// ************************************************************************* //
