/*--------------------------------*- C++ -*----------------------------------*\
| =========                 |                                                 |
| \\      /  F ield         | OpenFOAM: The Open Source CFD Toolbox           |
|  \\    /   O peration     | Version:  2212                                  |
|   \\  /    A nd           | Website:  www.openfoam.com                      |
|    \\/     M anipulation  |                                                 |
\*---------------------------------------------------------------------------*/
FoamFile
{
    version     2.0;
    format      ascii;
    arch        "LSB;label=64;scalar=64";
    class       volScalarField;
    location    "1600";
    object      SIC;
}
// * * * * * * * * * * * * * * * * * * * * * * * * * * * * * * * * * * * * * //

dimensions      [1 -3 0 0 0 0 0];

internalField   nonuniform List<scalar> 
1024
(
0.0911639
0.0911653
0.0911687
0.0911749
0.0911849
0.0911996
0.0912199
0.0912462
0.0912784
0.0913156
0.091357
0.0914025
0.0914537
0.0915136
0.0915836
0.091658
0.091714
0.0917318
0.0917161
0.0916762
0.0916198
0.0915534
0.091484
0.0914178
0.0913595
0.0913119
0.0912754
0.0912492
0.0912315
0.0912205
0.0912146
0.0912121
0.0911647
0.0911661
0.0911695
0.0911758
0.091186
0.0912009
0.0912214
0.091248
0.0912804
0.0913179
0.0913595
0.091405
0.0914562
0.0915163
0.0915867
0.0916616
0.0917179
0.0917358
0.09172
0.09168
0.0916234
0.0915569
0.0914872
0.0914205
0.0913618
0.0913136
0.0912767
0.0912501
0.0912322
0.0912211
0.0912151
0.0912126
0.0911666
0.0911681
0.0911716
0.091178
0.0911885
0.0912038
0.0912249
0.0912522
0.0912854
0.0913235
0.0913655
0.0914113
0.0914627
0.0915231
0.0915944
0.0916705
0.0917277
0.0917455
0.0917292
0.0916885
0.0916313
0.0915642
0.0914938
0.0914263
0.0913665
0.0913173
0.0912795
0.0912523
0.0912339
0.0912226
0.0912164
0.0912139
0.0911702
0.0911716
0.0911753
0.091182
0.0911929
0.0912089
0.091231
0.0912596
0.0912941
0.0913336
0.0913767
0.091423
0.0914748
0.091536
0.0916089
0.0916872
0.0917459
0.0917633
0.0917454
0.0917027
0.0916439
0.0915755
0.0915039
0.091435
0.0913737
0.091323
0.091284
0.0912558
0.0912368
0.0912251
0.0912187
0.0912161
0.0911759
0.0911774
0.0911812
0.0911883
0.0911998
0.0912169
0.0912405
0.091271
0.0913079
0.0913498
0.0913948
0.0914424
0.091495
0.0915574
0.091633
0.0917149
0.0917758
0.0917922
0.0917707
0.0917239
0.0916616
0.0915907
0.091517
0.0914461
0.091383
0.0913305
0.09129
0.0912607
0.0912409
0.0912287
0.0912221
0.0912195
0.0911847
0.0911862
0.0911902
0.0911977
0.0912101
0.0912286
0.0912544
0.0912879
0.0913284
0.091374
0.0914224
0.0914722
0.0915264
0.091591
0.0916706
0.0917577
0.0918214
0.0918353
0.0918076
0.0917534
0.0916847
0.0916092
0.0915322
0.0914588
0.0913935
0.0913392
0.0912971
0.0912667
0.0912463
0.0912337
0.091227
0.0912243
0.0911975
0.0911991
0.0912033
0.0912114
0.0912249
0.0912453
0.091274
0.0913116
0.0913572
0.0914084
0.0914618
0.0915156
0.0915728
0.0916412
0.0917264
0.0918201
0.0918866
0.0918959
0.0918581
0.0917923
0.0917135
0.0916305
0.0915485
0.0914718
0.0914041
0.0913481
0.0913049
0.0912738
0.091253
0.0912403
0.0912335
0.0912308
0.0912158
0.0912175
0.091222
0.0912308
0.0912456
0.0912685
0.0913012
0.0913442
0.0913967
0.0914555
0.0915161
0.091576
0.0916387
0.091713
0.0918058
0.091907
0.091975
0.0919765
0.0919244
0.091842
0.0917483
0.0916542
0.091565
0.0914839
0.0914138
0.0913567
0.0913131
0.091282
0.0912614
0.091249
0.0912425
0.09124
0.0912416
0.0912434
0.0912482
0.0912579
0.0912745
0.0913005
0.091338
0.091388
0.0914492
0.0915178
0.0915882
0.0916573
0.0917287
0.0918121
0.0919142
0.0920223
0.0920893
0.0920797
0.0920092
0.0919053
0.0917915
0.091682
0.0915827
0.091496
0.0914234
0.0913658
0.0913227
0.0912928
0.0912734
0.0912621
0.0912563
0.0912542
0.0912773
0.0912792
0.0912845
0.0912953
0.0913141
0.0913439
0.0913874
0.0914458
0.0915177
0.0915983
0.0916813
0.0917632
0.0918473
0.0919431
0.0920555
0.0921685
0.0922317
0.0922094
0.0921191
0.091991
0.0918527
0.0917227
0.0916093
0.0915146
0.0914387
0.0913809
0.0913394
0.0913118
0.0912948
0.0912856
0.0912813
0.0912799
0.0913255
0.0913276
0.0913336
0.0913459
0.0913675
0.091402
0.0914526
0.0915209
0.0916053
0.0917003
0.0917989
0.0918969
0.0919975
0.0921083
0.0922309
0.0923465
0.0924056
0.092375
0.0922708
0.0921222
0.0919583
0.0918026
0.0916688
0.0915612
0.0914788
0.0914194
0.0913794
0.0913548
0.0913414
0.0913353
0.0913333
0.0913332
0.0913884
0.0913908
0.0913977
0.0914119
0.091437
0.0914773
0.0915365
0.0916164
0.091715
0.0918264
0.0919426
0.0920593
0.0921784
0.0923048
0.0924366
0.0925548
0.0926167
0.0925932
0.0924941
0.0923419
0.0921628
0.091983
0.0918224
0.0916921
0.0915944
0.0915269
0.0914844
0.091461
0.0914506
0.091448
0.0914487
0.09145
0.0914659
0.0914687
0.0914767
0.0914932
0.0915225
0.0915694
0.091638
0.0917303
0.0918439
0.0919722
0.092107
0.092243
0.0923802
0.0925208
0.0926612
0.092787
0.0928669
0.0928767
0.0928162
0.0926966
0.0925352
0.0923544
0.0921763
0.0920189
0.0918929
0.091802
0.0917437
0.0917117
0.0916979
0.0916948
0.0916962
0.0916982
0.0915548
0.0915579
0.0915669
0.0915856
0.0916189
0.0916721
0.0917497
0.0918535
0.091981
0.0921252
0.092277
0.0924298
0.0925816
0.0927324
0.09288
0.0930177
0.0931287
0.0931949
0.0932081
0.0931675
0.0930775
0.092949
0.0927977
0.0926409
0.0924953
0.0923733
0.0922819
0.0922218
0.0921877
0.0921719
0.0921669
0.0921665
0.091648
0.0916514
0.091661
0.0916812
0.091717
0.0917744
0.0918579
0.0919696
0.0921069
0.0922623
0.0924259
0.092589
0.0927471
0.0928989
0.093044
0.0931833
0.0933139
0.0934296
0.0935217
0.0935816
0.0936019
0.09358
0.0935188
0.0934263
0.0933147
0.0931984
0.0930921
0.093006
0.092945
0.0929078
0.0928892
0.0928828
0.0917365
0.0917399
0.0917495
0.0917695
0.0918052
0.0918622
0.0919457
0.0920579
0.0921967
0.0923545
0.0925204
0.0926831
0.0928346
0.0929709
0.0930913
0.0932008
0.093309
0.0934303
0.0935633
0.093696
0.0938131
0.0939024
0.0939566
0.0939735
0.0939558
0.093911
0.09385
0.0937857
0.0937297
0.0936887
0.0936643
0.0936542
0.0918053
0.0918085
0.0918174
0.0918358
0.0918682
0.0919201
0.0919965
0.0921002
0.0922298
0.0923786
0.0925353
0.0926866
0.0928203
0.0929283
0.0930075
0.0930628
0.0931138
0.0931974
0.0933255
0.0934861
0.0936585
0.0938224
0.0939627
0.0940707
0.0941429
0.0941811
0.0941909
0.094181
0.0941612
0.0941408
0.0941258
0.0941185
0.0918471
0.0918501
0.0918582
0.0918744
0.0919025
0.0919474
0.0920137
0.0921044
0.0922191
0.0923525
0.0924942
0.0926301
0.0927462
0.092831
0.0928787
0.0928927
0.0928963
0.0929381
0.093043
0.0932065
0.0934084
0.0936229
0.0938253
0.0939977
0.094131
0.0942235
0.0942794
0.0943065
0.0943142
0.0943116
0.0943062
0.0943026
0.0918679
0.0918708
0.0918781
0.0918922
0.0919165
0.0919547
0.0920111
0.0920885
0.0921874
0.0923039
0.092429
0.0925499
0.0926523
0.0927237
0.0927566
0.0927532
0.092737
0.0927572
0.0928413
0.092993
0.0932004
0.0934412
0.0936875
0.0939128
0.0940986
0.0942371
0.0943291
0.0943821
0.0944066
0.0944137
0.0944129
0.0944108
0.0918757
0.0918783
0.0918849
0.0918973
0.0919182
0.0919506
0.0919982
0.0920636
0.0921475
0.0922473
0.0923558
0.0924621
0.0925534
0.0926179
0.0926481
0.0926458
0.0926333
0.0926536
0.09273
0.0928697
0.0930683
0.0933116
0.0935762
0.0938336
0.0940591
0.0942373
0.0943634
0.094442
0.094483
0.0944991
0.0945019
0.0945006
0.0918784
0.0918806
0.091886
0.0918964
0.0919139
0.0919412
0.091981
0.0920358
0.0921063
0.0921906
0.0922833
0.092376
0.0924582
0.0925203
0.0925563
0.0925688
0.092577
0.0926134
0.0926949
0.0928292
0.0930166
0.0932497
0.0935123
0.0937804
0.0940284
0.0942351
0.0943898
0.094492
0.0945496
0.094575
0.0945817
0.0945814
0.0918863
0.0918874
0.0918908
0.091898
0.0919111
0.0919327
0.0919651
0.0920103
0.092069
0.0921399
0.0922193
0.092301
0.0923778
0.0924428
0.0924924
0.0925299
0.0925698
0.0926312
0.0927246
0.0928576
0.093034
0.0932516
0.0934998
0.0937613
0.0940142
0.0942364
0.0944118
0.0945344
0.0946078
0.094643
0.0946542
0.0946548
0.0919127
0.0919121
0.0919118
0.0919138
0.0919204
0.0919345
0.0919587
0.0919951
0.0920441
0.0921053
0.0921761
0.0922528
0.0923309
0.092406
0.0924762
0.0925452
0.0926205
0.0927083
0.092814
0.0929455
0.0931092
0.093307
0.093534
0.0937778
0.0940215
0.0942459
0.0944329
0.094571
0.0946588
0.0947039
0.0947199
0.0947217
0.0919725
0.0919691
0.0919635
0.0919578
0.0919556
0.0919607
0.0919764
0.0920054
0.0920486
0.0921058
0.0921758
0.092256
0.0923434
0.092435
0.0925297
0.0926302
0.0927371
0.092846
0.0929594
0.0930862
0.0932342
0.0934086
0.0936089
0.0938277
0.0940526
0.0942678
0.0944565
0.0946041
0.0947036
0.0947582
0.0947793
0.0947826
0.0920792
0.0920721
0.0920597
0.0920455
0.0920342
0.092031
0.0920406
0.0920663
0.0921098
0.0921708
0.092248
0.0923391
0.092441
0.0925511
0.0926677
0.0927926
0.0929207
0.0930411
0.0931551
0.0932725
0.0934021
0.0935506
0.0937206
0.0939091
0.0941081
0.0943055
0.0944866
0.0946363
0.0947436
0.0948065
0.0948329
0.0948379
0.0922424
0.092231
0.0922121
0.0921915
0.0921753
0.0921695
0.0921794
0.092209
0.0922596
0.0923305
0.0924194
0.092523
0.0926381
0.0927615
0.0928912
0.0930279
0.0931634
0.0932843
0.0933916
0.0934956
0.0936049
0.0937268
0.0938653
0.0940206
0.0941886
0.0943612
0.0945267
0.0946709
0.0947808
0.0948496
0.094881
0.0948879
0.0924675
0.0924519
0.0924296
0.0924093
0.0923976
0.0923994
0.0924187
0.0924591
0.0925207
0.092602
0.0926998
0.0928106
0.0929306
0.0930567
0.0931868
0.0933211
0.0934507
0.0935621
0.0936569
0.0937445
0.0938332
0.0939292
0.0940373
0.0941593
0.094294
0.0944368
0.0945799
0.0947111
0.0948173
0.0948886
0.0949239
0.0949328
0.0927575
0.0927394
0.0927207
0.0927119
0.0927166
0.0927358
0.0927709
0.0928237
0.0928936
0.0929789
0.0930768
0.0931841
0.0932973
0.0934138
0.0935318
0.0936514
0.0937643
0.0938592
0.0939375
0.0940076
0.0940761
0.0941485
0.0942289
0.0943198
0.0944215
0.0945324
0.094648
0.0947597
0.0948557
0.0949248
0.094962
0.0949728
0.0931169
0.0931005
0.0930961
0.0931098
0.093138
0.093177
0.0932258
0.0932849
0.0933543
0.0934331
0.0935199
0.0936123
0.0937078
0.0938044
0.0939008
0.093997
0.0940866
0.0941607
0.0942207
0.0942731
0.094323
0.0943745
0.0944308
0.0944943
0.094566
0.0946456
0.0947315
0.0948187
0.0948984
0.0949599
0.0949961
0.095008
0.0935551
0.0935487
0.0935685
0.0936061
0.0936516
0.0937005
0.0937515
0.0938055
0.0938633
0.0939255
0.0939917
0.0940606
0.0941309
0.0942011
0.0942705
0.094339
0.0944021
0.0944539
0.0944953
0.0945308
0.094564
0.0945976
0.0946338
0.0946744
0.0947202
0.0947717
0.0948286
0.0948888
0.0949472
0.0949958
0.0950269
0.0950386
0.0940905
0.0941033
0.094141
0.0941835
0.0942258
0.094266
0.0943041
0.0943413
0.0943787
0.0944175
0.0944577
0.094499
0.0945407
0.0945821
0.0946228
0.0946627
0.0946993
0.0947292
0.0947529
0.094773
0.0947915
0.09481
0.0948297
0.0948516
0.0948762
0.0949041
0.0949352
0.094969
0.0950035
0.0950341
0.0950558
0.0950651
0.0947453
0.0947554
0.0947748
0.0947935
0.0948105
0.0948261
0.0948401
0.0948533
0.0948661
0.094879
0.0948923
0.0949058
0.0949194
0.0949329
0.094946
0.0949589
0.0949707
0.0949803
0.0949879
0.0949943
0.0950002
0.095006
0.0950121
0.0950189
0.0950265
0.0950351
0.0950447
0.0950552
0.0950662
0.0950765
0.0950843
0.0950881
)
;

boundaryField
{
    movingWall
    {
        type            fixedValue;
        value           uniform 0.0951;
    }
    fixedWalls
    {
        type            zeroGradient;
    }
    floor
    {
        type            zeroGradient;
    }
    frontAndBack
    {
        type            empty;
    }
}


// ************************************************************************* //
