/*--------------------------------*- C++ -*----------------------------------*\
| =========                 |                                                 |
| \\      /  F ield         | OpenFOAM: The Open Source CFD Toolbox           |
|  \\    /   O peration     | Version:  2212                                  |
|   \\  /    A nd           | Website:  www.openfoam.com                      |
|    \\/     M anipulation  |                                                 |
\*---------------------------------------------------------------------------*/
FoamFile
{
    version     2.0;
    format      ascii;
    arch        "LSB;label=64;scalar=64";
    class       volVectorField;
    location    "0.57";
    object      U;
}
// * * * * * * * * * * * * * * * * * * * * * * * * * * * * * * * * * * * * * //

dimensions      [0 1 -1 0 0 0 0];

internalField   nonuniform List<vector> 
32768
(
(3.00332e-07 -7.47685e-07 0)
(-3.19373e-06 1.06543e-06 0)
(-1.13152e-05 3.07415e-06 0)
(-2.20169e-05 4.20298e-06 0)
(-3.33531e-05 4.46339e-06 0)
(-4.40602e-05 4.24895e-06 0)
(-5.368e-05 3.90934e-06 0)
(-6.22854e-05 3.62756e-06 0)
(-7.01495e-05 3.45046e-06 0)
(-7.7538e-05 3.35668e-06 0)
(-8.46321e-05 3.30817e-06 0)
(-9.15283e-05 3.27426e-06 0)
(-9.82642e-05 3.23708e-06 0)
(-0.000104845 3.18873e-06 0)
(-0.000111261 3.12708e-06 0)
(-0.000117495 3.05258e-06 0)
(-0.000123533 2.96648e-06 0)
(-0.000129356 2.87008e-06 0)
(-0.00013495 2.76443e-06 0)
(-0.0001403 2.65034e-06 0)
(-0.000145391 2.52844e-06 0)
(-0.000150209 2.3992e-06 0)
(-0.000154743 2.26298e-06 0)
(-0.000158978 2.12006e-06 0)
(-0.000162902 1.97066e-06 0)
(-0.000166502 1.815e-06 0)
(-0.000169768 1.65327e-06 0)
(-0.000172685 1.48568e-06 0)
(-0.000175244 1.31251e-06 0)
(-0.000177433 1.13411e-06 0)
(-0.000179241 9.50984e-07 0)
(-0.000180657 7.63871e-07 0)
(-0.000181673 5.73861e-07 0)
(-0.000182281 3.82429e-07 0)
(-0.000182472 1.89945e-07 0)
(-0.000182243 -6.50014e-09 0)
(-0.00018159 -2.06446e-07 0)
(-0.000180509 -4.08522e-07 0)
(-0.000178997 -6.11718e-07 0)
(-0.000177053 -8.15348e-07 0)
(-0.000174677 -1.01886e-06 0)
(-0.00017187 -1.22173e-06 0)
(-0.000168632 -1.4234e-06 0)
(-0.000164967 -1.62328e-06 0)
(-0.00016088 -1.82072e-06 0)
(-0.000156375 -2.01507e-06 0)
(-0.00015146 -2.20563e-06 0)
(-0.000146143 -2.39169e-06 0)
(-0.000140436 -2.57249e-06 0)
(-0.00013435 -2.7473e-06 0)
(-0.000127899 -2.91534e-06 0)
(-0.000121097 -3.07587e-06 0)
(-0.000113963 -3.22812e-06 0)
(-0.000106514 -3.37138e-06 0)
(-9.87713e-05 -3.50497e-06 0)
(-9.07559e-05 -3.62825e-06 0)
(-8.24911e-05 -3.74063e-06 0)
(-7.4001e-05 -3.84154e-06 0)
(-6.53112e-05 -3.9304e-06 0)
(-5.64485e-05 -4.00658e-06 0)
(-4.74412e-05 -4.0693e-06 0)
(-3.83187e-05 -4.11767e-06 0)
(-2.91121e-05 -4.15076e-06 0)
(-1.98541e-05 -4.1676e-06 0)
(-1.05775e-05 -4.16737e-06 0)
(-1.31215e-06 -4.15066e-06 0)
(7.90781e-06 -4.11981e-06 0)
(1.70506e-05 -4.07648e-06 0)
(2.60938e-05 -4.02115e-06 0)
(3.50113e-05 -3.95422e-06 0)
(4.37783e-05 -3.87599e-06 0)
(5.23712e-05 -3.78664e-06 0)
(6.07664e-05 -3.68641e-06 0)
(6.89415e-05 -3.57566e-06 0)
(7.68746e-05 -3.45482e-06 0)
(8.45447e-05 -3.3244e-06 0)
(9.19321e-05 -3.18497e-06 0)
(9.90182e-05 -3.03712e-06 0)
(0.000105786 -2.88149e-06 0)
(0.000112219 -2.71877e-06 0)
(0.000118303 -2.54966e-06 0)
(0.000124025 -2.37488e-06 0)
(0.000129374 -2.19511e-06 0)
(0.000134339 -2.01103e-06 0)
(0.000138912 -1.82329e-06 0)
(0.000143084 -1.63248e-06 0)
(0.00014685 -1.43915e-06 0)
(0.000150205 -1.24375e-06 0)
(0.000153143 -1.04669e-06 0)
(0.000155664 -8.48394e-07 0)
(0.000157763 -6.49308e-07 0)
(0.000159439 -4.50008e-07 0)
(0.000160694 -2.51321e-07 0)
(0.000161527 -5.45529e-08 0)
(0.000161943 1.38583e-07 0)
(0.000161944 3.2711e-07 0)
(0.000161539 5.12444e-07 0)
(0.000160737 6.94304e-07 0)
(0.000159549 8.71997e-07 0)
(0.000157984 1.04492e-06 0)
(0.000156054 1.21265e-06 0)
(0.00015377 1.37488e-06 0)
(0.000151145 1.53144e-06 0)
(0.000148189 1.68217e-06 0)
(0.000144915 1.82693e-06 0)
(0.000141334 1.96551e-06 0)
(0.000137459 2.09769e-06 0)
(0.000133301 2.22314e-06 0)
(0.000128874 2.3415e-06 0)
(0.000124191 2.45228e-06 0)
(0.000119265 2.55485e-06 0)
(0.00011411 2.64837e-06 0)
(0.000108742 2.73176e-06 0)
(0.000103176 2.80369e-06 0)
(9.743e-05 2.86287e-06 0)
(9.15182e-05 2.90882e-06 0)
(8.54505e-05 2.94372e-06 0)
(7.92214e-05 2.97556e-06 0)
(7.27923e-05 3.0226e-06 0)
(6.60646e-05 3.1162e-06 0)
(5.8853e-05 3.29559e-06 0)
(5.08848e-05 3.58357e-06 0)
(4.18774e-05 3.93468e-06 0)
(3.17467e-05 4.16691e-06 0)
(2.09392e-05 3.93216e-06 0)
(1.0703e-05 2.84198e-06 0)
(2.95529e-06 8.96858e-07 0)
(-3.20343e-07 -8.09602e-07 0)
(-5.48862e-07 6.58023e-06 0)
(-9.60206e-06 2.35229e-05 0)
(-2.57743e-05 3.61065e-05 0)
(-4.52105e-05 4.14747e-05 0)
(-6.45996e-05 4.10012e-05 0)
(-8.20842e-05 3.75652e-05 0)
(-9.71554e-05 3.3567e-05 0)
(-0.000110107 3.02612e-05 0)
(-0.000121511 2.79569e-05 0)
(-0.000131896 2.64753e-05 0)
(-0.000141633 2.5509e-05 0)
(-0.000150938 2.4799e-05 0)
(-0.000159917 2.41791e-05 0)
(-0.000168612 2.35613e-05 0)
(-0.000177033 2.29057e-05 0)
(-0.000185171 2.21978e-05 0)
(-0.000193015 2.14343e-05 0)
(-0.000200549 2.06161e-05 0)
(-0.000207756 1.9745e-05 0)
(-0.00021462 1.8823e-05 0)
(-0.000221126 1.78518e-05 0)
(-0.000227257 1.68327e-05 0)
(-0.000232998 1.57669e-05 0)
(-0.000238333 1.46555e-05 0)
(-0.000243247 1.34992e-05 0)
(-0.000247726 1.22988e-05 0)
(-0.000251753 1.10552e-05 0)
(-0.000255316 9.76899e-06 0)
(-0.000258399 8.44123e-06 0)
(-0.000260989 7.073e-06 0)
(-0.000263072 5.6659e-06 0)
(-0.000264635 4.22224e-06 0)
(-0.000265665 2.74551e-06 0)
(-0.000266151 1.24056e-06 0)
(-0.000266079 -2.8699e-07 0)
(-0.000265441 -1.83239e-06 0)
(-0.000264234 -3.39012e-06 0)
(-0.000262455 -4.95625e-06 0)
(-0.0002601 -6.52781e-06 0)
(-0.000257166 -8.10195e-06 0)
(-0.000253652 -9.67551e-06 0)
(-0.000249557 -1.12449e-05 0)
(-0.000244881 -1.28059e-05 0)
(-0.000239628 -1.43539e-05 0)
(-0.000233802 -1.58838e-05 0)
(-0.00022741 -1.73903e-05 0)
(-0.00022046 -1.88677e-05 0)
(-0.000212962 -2.03102e-05 0)
(-0.000204931 -2.17119e-05 0)
(-0.000196382 -2.30667e-05 0)
(-0.000187333 -2.43685e-05 0)
(-0.000177804 -2.56113e-05 0)
(-0.000167818 -2.67891e-05 0)
(-0.0001574 -2.78962e-05 0)
(-0.000146578 -2.89271e-05 0)
(-0.000135381 -2.98766e-05 0)
(-0.000123841 -3.07397e-05 0)
(-0.000111992 -3.15119e-05 0)
(-9.98689e-05 -3.21886e-05 0)
(-8.75091e-05 -3.27652e-05 0)
(-7.49513e-05 -3.32366e-05 0)
(-6.22356e-05 -3.35981e-05 0)
(-4.94033e-05 -3.38452e-05 0)
(-3.64962e-05 -3.39752e-05 0)
(-2.35561e-05 -3.39873e-05 0)
(-1.06235e-05 -3.38835e-05 0)
(2.26989e-06 -3.36687e-05 0)
(1.50706e-05 -3.33515e-05 0)
(2.77474e-05 -3.29396e-05 0)
(4.02681e-05 -3.24376e-05 0)
(5.25987e-05 -3.18485e-05 0)
(6.4707e-05 -3.11736e-05 0)
(7.65615e-05 -3.04151e-05 0)
(8.81317e-05 -2.95756e-05 0)
(9.93881e-05 -2.86583e-05 0)
(0.000110303 -2.76671e-05 0)
(0.000120848 -2.66061e-05 0)
(0.000131 -2.54799e-05 0)
(0.000140735 -2.42933e-05 0)
(0.000150031 -2.30513e-05 0)
(0.000158869 -2.17591e-05 0)
(0.000167231 -2.04217e-05 0)
(0.0001751 -1.90445e-05 0)
(0.000182463 -1.76325e-05 0)
(0.000189307 -1.61904e-05 0)
(0.000195622 -1.4723e-05 0)
(0.000201398 -1.32345e-05 0)
(0.000206629 -1.17289e-05 0)
(0.000211308 -1.02097e-05 0)
(0.000215431 -8.68045e-06 0)
(0.000218995 -7.14463e-06 0)
(0.000222 -5.60586e-06 0)
(0.000224444 -4.06825e-06 0)
(0.000226328 -2.53681e-06 0)
(0.000227657 -1.01771e-06 0)
(0.000228435 4.81576e-07 0)
(0.000228662 1.95277e-06 0)
(0.000228355 3.38792e-06 0)
(0.000227527 4.78306e-06 0)
(0.000226193 6.13667e-06 0)
(0.000224367 7.44819e-06 0)
(0.000222064 8.71745e-06 0)
(0.000219299 9.94446e-06 0)
(0.000216084 1.11291e-05 0)
(0.000212436 1.22712e-05 0)
(0.000208367 1.33703e-05 0)
(0.000203893 1.44256e-05 0)
(0.000199027 1.54363e-05 0)
(0.000193786 1.64013e-05 0)
(0.000188183 1.73192e-05 0)
(0.000182234 1.8188e-05 0)
(0.000175953 1.90058e-05 0)
(0.000169358 1.97705e-05 0)
(0.000162461 2.04808e-05 0)
(0.000155277 2.114e-05 0)
(0.00014781 2.17624e-05 0)
(0.000140052 2.23882e-05 0)
(0.000131961 2.31069e-05 0)
(0.000123427 2.40875e-05 0)
(0.000114231 2.55947e-05 0)
(0.000103994 2.79445e-05 0)
(9.21758e-05 3.13257e-05 0)
(7.81878e-05 3.54369e-05 0)
(6.17175e-05 3.90268e-05 0)
(4.32559e-05 3.9699e-05 0)
(2.46375e-05 3.4599e-05 0)
(9.12799e-06 2.24203e-05 0)
(5.03305e-07 6.13317e-06 0)
(-5.76926e-07 1.73322e-05 0)
(-9.78369e-06 5.09828e-05 0)
(-2.53942e-05 7.28804e-05 0)
(-4.33833e-05 8.02434e-05 0)
(-6.04304e-05 7.6704e-05 0)
(-7.48414e-05 6.80174e-05 0)
(-8.63092e-05 5.87681e-05 0)
(-9.53023e-05 5.12839e-05 0)
(-0.000102525 4.60746e-05 0)
(-0.000108602 4.27201e-05 0)
(-0.000113976 4.05636e-05 0)
(-0.00011891 3.90529e-05 0)
(-0.000123547 3.78277e-05 0)
(-0.000127955 3.66884e-05 0)
(-0.000132162 3.55379e-05 0)
(-0.000136179 3.43347e-05 0)
(-0.000140006 3.30632e-05 0)
(-0.000143641 3.17191e-05 0)
(-0.00014708 3.03021e-05 0)
(-0.000150317 2.88132e-05 0)
(-0.000153348 2.72538e-05 0)
(-0.000156167 2.56251e-05 0)
(-0.000158767 2.39285e-05 0)
(-0.000161144 2.21652e-05 0)
(-0.000163292 2.03362e-05 0)
(-0.000165205 1.84429e-05 0)
(-0.000166878 1.64865e-05 0)
(-0.000168307 1.44686e-05 0)
(-0.000169486 1.23907e-05 0)
(-0.000170412 1.02545e-05 0)
(-0.00017108 8.06224e-06 0)
(-0.000171488 5.81625e-06 0)
(-0.000171632 3.51981e-06 0)
(-0.00017151 1.17773e-06 0)
(-0.000171117 -1.20212e-06 0)
(-0.000170452 -3.60974e-06 0)
(-0.000169508 -6.03925e-06 0)
(-0.000168278 -8.48715e-06 0)
(-0.000166757 -1.095e-05 0)
(-0.000164942 -1.34237e-05 0)
(-0.000162827 -1.59031e-05 0)
(-0.00016041 -1.8382e-05 0)
(-0.000157689 -2.08535e-05 0)
(-0.000154663 -2.33098e-05 0)
(-0.000151333 -2.57426e-05 0)
(-0.0001477 -2.81429e-05 0)
(-0.000143767 -3.05013e-05 0)
(-0.000139537 -3.28083e-05 0)
(-0.000135016 -3.50537e-05 0)
(-0.000130211 -3.72275e-05 0)
(-0.00012513 -3.93195e-05 0)
(-0.000119784 -4.13194e-05 0)
(-0.000114183 -4.32171e-05 0)
(-0.00010834 -4.50027e-05 0)
(-0.00010227 -4.66667e-05 0)
(-9.599e-05 -4.81999e-05 0)
(-8.95162e-05 -4.95937e-05 0)
(-8.28679e-05 -5.08402e-05 0)
(-7.60654e-05 -5.19319e-05 0)
(-6.91294e-05 -5.28617e-05 0)
(-6.20814e-05 -5.36231e-05 0)
(-5.49424e-05 -5.42103e-05 0)
(-4.77332e-05 -5.46193e-05 0)
(-4.04734e-05 -5.48486e-05 0)
(-3.31816e-05 -5.48999e-05 0)
(-2.58752e-05 -5.47771e-05 0)
(-1.857e-05 -5.44857e-05 0)
(-1.12826e-05 -5.40341e-05 0)
(-4.02923e-06 -5.34317e-05 0)
(3.17506e-06 -5.26847e-05 0)
(1.03068e-05 -5.17981e-05 0)
(1.73512e-05 -5.0775e-05 0)
(2.42916e-05 -4.9619e-05 0)
(3.11118e-05 -4.83347e-05 0)
(3.77962e-05 -4.69271e-05 0)
(4.433e-05 -4.54024e-05 0)
(5.06991e-05 -4.37672e-05 0)
(5.689e-05 -4.20286e-05 0)
(6.28902e-05 -4.01941e-05 0)
(6.86878e-05 -3.82716e-05 0)
(7.4272e-05 -3.6269e-05 0)
(7.96323e-05 -3.41944e-05 0)
(8.47596e-05 -3.2056e-05 0)
(8.96456e-05 -2.98614e-05 0)
(9.42825e-05 -2.76184e-05 0)
(9.86637e-05 -2.53342e-05 0)
(0.000102783 -2.30159e-05 0)
(0.000106636 -2.06701e-05 0)
(0.000110217 -1.83032e-05 0)
(0.000113525 -1.59214e-05 0)
(0.000116557 -1.35311e-05 0)
(0.000119313 -1.11388e-05 0)
(0.000121792 -8.75115e-06 0)
(0.000123999 -6.37509e-06 0)
(0.000125935 -4.01774e-06 0)
(0.000127606 -1.68733e-06 0)
(0.000129017 6.05388e-07 0)
(0.000130163 2.84939e-06 0)
(0.000131044 5.03644e-06 0)
(0.000131665 7.16281e-06 0)
(0.00013203 9.22786e-06 0)
(0.000132142 1.12317e-05 0)
(0.000132006 1.31742e-05 0)
(0.000131626 1.50552e-05 0)
(0.000131007 1.68745e-05 0)
(0.000130153 1.86314e-05 0)
(0.00012907 2.03253e-05 0)
(0.000127761 2.19552e-05 0)
(0.000126232 2.35199e-05 0)
(0.000124486 2.5018e-05 0)
(0.00012253 2.64481e-05 0)
(0.000120366 2.78086e-05 0)
(0.000117999 2.90994e-05 0)
(0.00011543 3.03244e-05 0)
(0.000112658 3.14986e-05 0)
(0.000109673 3.26636e-05 0)
(0.000106446 3.39175e-05 0)
(0.000102907 3.54626e-05 0)
(9.89127e-05 3.76658e-05 0)
(9.4194e-05 4.10906e-05 0)
(8.83025e-05 4.6411e-05 0)
(8.05997e-05 5.40668e-05 0)
(7.03642e-05 6.35633e-05 0)
(5.71082e-05 7.25774e-05 0)
(4.11199e-05 7.65299e-05 0)
(2.40689e-05 6.9712e-05 0)
(9.22412e-06 4.86301e-05 0)
(5.22217e-07 1.63291e-05 0)
(-4.50166e-07 2.63161e-05 0)
(-8.47165e-06 7.43628e-05 0)
(-2.20581e-05 0.000103724 0)
(-3.73175e-05 0.000111595 0)
(-5.11159e-05 0.000103923 0)
(-6.19435e-05 8.93149e-05 0)
(-6.96444e-05 7.44462e-05 0)
(-7.47915e-05 6.26183e-05 0)
(-7.81515e-05 5.4465e-05 0)
(-8.03854e-05 4.92764e-05 0)
(-8.19534e-05 4.60195e-05 0)
(-8.31338e-05 4.38354e-05 0)
(-8.40786e-05 4.21626e-05 0)
(-8.48655e-05 4.06868e-05 0)
(-8.55328e-05 3.92519e-05 0)
(-8.60997e-05 3.77877e-05 0)
(-8.65766e-05 3.6266e-05 0)
(-8.697e-05 3.46763e-05 0)
(-8.72843e-05 3.30157e-05 0)
(-8.75233e-05 3.12838e-05 0)
(-8.76899e-05 2.94811e-05 0)
(-8.77868e-05 2.76086e-05 0)
(-8.78162e-05 2.56671e-05 0)
(-8.77804e-05 2.36577e-05 0)
(-8.76814e-05 2.15817e-05 0)
(-8.75212e-05 1.94403e-05 0)
(-8.73015e-05 1.72354e-05 0)
(-8.70244e-05 1.49688e-05 0)
(-8.66918e-05 1.26431e-05 0)
(-8.6306e-05 1.02607e-05 0)
(-8.58693e-05 7.82465e-06 0)
(-8.53845e-05 5.33798e-06 0)
(-8.48539e-05 2.804e-06 0)
(-8.42781e-05 2.26396e-07 0)
(-8.36625e-05 -2.39016e-06 0)
(-8.30033e-05 -5.04202e-06 0)
(-8.22966e-05 -7.72647e-06 0)
(-8.15396e-05 -1.04399e-05 0)
(-8.07293e-05 -1.31776e-05 0)
(-7.98629e-05 -1.5934e-05 0)
(-7.89381e-05 -1.87027e-05 0)
(-7.79525e-05 -2.14765e-05 0)
(-7.69042e-05 -2.42472e-05 0)
(-7.57911e-05 -2.7006e-05 0)
(-7.46114e-05 -2.97434e-05 0)
(-7.33636e-05 -3.24491e-05 0)
(-7.20464e-05 -3.51124e-05 0)
(-7.06589e-05 -3.77221e-05 0)
(-6.92006e-05 -4.02667e-05 0)
(-6.76714e-05 -4.27342e-05 0)
(-6.60718e-05 -4.51126e-05 0)
(-6.44029e-05 -4.73897e-05 0)
(-6.26665e-05 -4.95533e-05 0)
(-6.08648e-05 -5.15914e-05 0)
(-5.90009e-05 -5.34925e-05 0)
(-5.70788e-05 -5.52452e-05 0)
(-5.51028e-05 -5.68391e-05 0)
(-5.30781e-05 -5.82645e-05 0)
(-5.10101e-05 -5.9513e-05 0)
(-4.89042e-05 -6.05775e-05 0)
(-4.67652e-05 -6.14525e-05 0)
(-4.45968e-05 -6.21345e-05 0)
(-4.24007e-05 -6.26226e-05 0)
(-4.01771e-05 -6.29184e-05 0)
(-3.79244e-05 -6.3026e-05 0)
(-3.56399e-05 -6.29511e-05 0)
(-3.33209e-05 -6.27002e-05 0)
(-3.09653e-05 -6.22798e-05 0)
(-2.85727e-05 -6.16957e-05 0)
(-2.61438e-05 -6.09515e-05 0)
(-2.36806e-05 -6.00505e-05 0)
(-2.11855e-05 -5.89968e-05 0)
(-1.86613e-05 -5.77945e-05 0)
(-1.61111e-05 -5.64484e-05 0)
(-1.35379e-05 -5.49641e-05 0)
(-1.09451e-05 -5.33482e-05 0)
(-8.33582e-06 -5.16077e-05 0)
(-5.71352e-06 -4.97503e-05 0)
(-3.0817e-06 -4.77839e-05 0)
(-4.43827e-07 -4.57167e-05 0)
(2.19639e-06 -4.35571e-05 0)
(4.83465e-06 -4.13137e-05 0)
(7.46703e-06 -3.89951e-05 0)
(1.00896e-05 -3.66097e-05 0)
(1.26981e-05 -3.41657e-05 0)
(1.52882e-05 -3.16708e-05 0)
(1.78556e-05 -2.91327e-05 0)
(2.03961e-05 -2.65592e-05 0)
(2.29057e-05 -2.39575e-05 0)
(2.53806e-05 -2.13356e-05 0)
(2.78174e-05 -1.87017e-05 0)
(3.02136e-05 -1.60644e-05 0)
(3.25673e-05 -1.34329e-05 0)
(3.48775e-05 -1.08165e-05 0)
(3.71439e-05 -8.22395e-06 0)
(3.93662e-05 -5.66248e-06 0)
(4.15442e-05 -3.13785e-06 0)
(4.36795e-05 -6.55043e-07 0)
(4.57683e-05 1.77954e-06 0)
(4.78014e-05 4.15992e-06 0)
(4.97766e-05 6.48268e-06 0)
(5.16905e-05 8.7462e-06 0)
(5.35396e-05 1.09497e-05 0)
(5.53208e-05 1.30928e-05 0)
(5.7031e-05 1.51749e-05 0)
(5.86673e-05 1.71955e-05 0)
(6.02265e-05 1.91539e-05 0)
(6.17053e-05 2.10493e-05 0)
(6.31003e-05 2.28807e-05 0)
(6.4408e-05 2.4647e-05 0)
(6.56246e-05 2.63475e-05 0)
(6.67456e-05 2.79817e-05 0)
(6.7766e-05 2.95521e-05 0)
(6.86789e-05 3.1068e-05 0)
(6.94737e-05 3.25574e-05 0)
(7.01309e-05 3.40901e-05 0)
(7.06121e-05 3.58237e-05 0)
(7.08389e-05 3.80771e-05 0)
(7.06577e-05 4.14214e-05 0)
(6.97866e-05 4.67323e-05 0)
(6.77586e-05 5.50687e-05 0)
(6.39012e-05 6.71691e-05 0)
(5.7432e-05 8.24224e-05 0)
(4.77604e-05 9.75342e-05 0)
(3.50248e-05 0.000105837 0)
(2.07111e-05 9.87941e-05 0)
(7.90031e-06 7.06767e-05 0)
(3.93954e-07 2.47141e-05 0)
(-4.13058e-07 3.42681e-05 0)
(-7.97241e-06 9.52383e-05 0)
(-2.07206e-05 0.000130942 0)
(-3.47999e-05 0.000138468 0)
(-4.71489e-05 0.000126084 0)
(-5.63434e-05 0.00010523 0)
(-6.23092e-05 8.46109e-05 0)
(-6.5681e-05 6.8428e-05 0)
(-6.72647e-05 5.73816e-05 0)
(-6.77421e-05 5.04385e-05 0)
(-6.75832e-05 4.61731e-05 0)
(-6.70706e-05 4.34154e-05 0)
(-6.63591e-05 4.14025e-05 0)
(-6.55286e-05 3.97068e-05 0)
(-6.46202e-05 3.81145e-05 0)
(-6.36562e-05 3.6528e-05 0)
(-6.26506e-05 3.49064e-05 0)
(-6.16132e-05 3.32336e-05 0)
(-6.05523e-05 3.15038e-05 0)
(-5.94752e-05 2.97149e-05 0)
(-5.83886e-05 2.78665e-05 0)
(-5.72985e-05 2.59586e-05 0)
(-5.62108e-05 2.39916e-05 0)
(-5.51309e-05 2.19659e-05 0)
(-5.40639e-05 1.98822e-05 0)
(-5.30146e-05 1.77416e-05 0)
(-5.19875e-05 1.55453e-05 0)
(-5.09868e-05 1.32953e-05 0)
(-5.00163e-05 1.09935e-05 0)
(-4.90799e-05 8.64259e-06 0)
(-4.81807e-05 6.24513e-06 0)
(-4.73219e-05 3.80391e-06 0)
(-4.65058e-05 1.32164e-06 0)
(-4.57346e-05 -1.19932e-06 0)
(-4.50112e-05 -3.75788e-06 0)
(-4.43339e-05 -6.35356e-06 0)
(-4.37031e-05 -8.98415e-06 0)
(-4.31193e-05 -1.16459e-05 0)
(-4.25821e-05 -1.4334e-05 0)
(-4.20912e-05 -1.70431e-05 0)
(-4.16458e-05 -1.97673e-05 0)
(-4.12451e-05 -2.24995e-05 0)
(-4.08875e-05 -2.52324e-05 0)
(-4.05711e-05 -2.79574e-05 0)
(-4.02939e-05 -3.06653e-05 0)
(-4.00532e-05 -3.33463e-05 0)
(-3.98465e-05 -3.59896e-05 0)
(-3.96709e-05 -3.85841e-05 0)
(-3.95236e-05 -4.11179e-05 0)
(-3.94016e-05 -4.35791e-05 0)
(-3.93023e-05 -4.5955e-05 0)
(-3.92229e-05 -4.8233e-05 0)
(-3.91609e-05 -5.04004e-05 0)
(-3.91141e-05 -5.24445e-05 0)
(-3.90805e-05 -5.43528e-05 0)
(-3.90584e-05 -5.61135e-05 0)
(-3.90462e-05 -5.77155e-05 0)
(-3.90428e-05 -5.91486e-05 0)
(-3.90466e-05 -6.0405e-05 0)
(-3.9056e-05 -6.14786e-05 0)
(-3.9068e-05 -6.23666e-05 0)
(-3.90783e-05 -6.3069e-05 0)
(-3.90805e-05 -6.35889e-05 0)
(-3.90661e-05 -6.39317e-05 0)
(-3.9025e-05 -6.41042e-05 0)
(-3.8946e-05 -6.41129e-05 0)
(-3.8818e-05 -6.39633e-05 0)
(-3.8631e-05 -6.36594e-05 0)
(-3.83763e-05 -6.32033e-05 0)
(-3.80467e-05 -6.25963e-05 0)
(-3.76366e-05 -6.18398e-05 0)
(-3.71411e-05 -6.09355e-05 0)
(-3.65566e-05 -5.98866e-05 0)
(-3.58799e-05 -5.86968e-05 0)
(-3.51086e-05 -5.7371e-05 0)
(-3.42406e-05 -5.59149e-05 0)
(-3.32746e-05 -5.43345e-05 0)
(-3.22095e-05 -5.26368e-05 0)
(-3.10452e-05 -5.08287e-05 0)
(-2.97819e-05 -4.89176e-05 0)
(-2.84202e-05 -4.6911e-05 0)
(-2.69616e-05 -4.48164e-05 0)
(-2.5408e-05 -4.26414e-05 0)
(-2.37618e-05 -4.03933e-05 0)
(-2.20258e-05 -3.80797e-05 0)
(-2.02037e-05 -3.57077e-05 0)
(-1.82992e-05 -3.32844e-05 0)
(-1.63165e-05 -3.08169e-05 0)
(-1.42601e-05 -2.83125e-05 0)
(-1.21347e-05 -2.57791e-05 0)
(-9.94486e-06 -2.32253e-05 0)
(-7.69503e-06 -2.06606e-05 0)
(-5.38937e-06 -1.8095e-05 0)
(-3.03164e-06 -1.55387e-05 0)
(-6.25144e-07 -1.30015e-05 0)
(1.8268e-06 -1.04914e-05 0)
(4.32053e-06 -8.01525e-06 0)
(6.8538e-06 -5.57676e-06 0)
(9.42391e-06 -3.17804e-06 0)
(1.20286e-05 -8.21261e-07 0)
(1.46611e-05 1.49022e-06 0)
(1.73151e-05 3.75365e-06 0)
(1.99849e-05 5.96773e-06 0)
(2.26647e-05 8.13223e-06 0)
(2.53484e-05 1.02468e-05 0)
(2.80296e-05 1.23113e-05 0)
(3.07018e-05 1.43252e-05 0)
(3.33582e-05 1.62881e-05 0)
(3.5992e-05 1.81996e-05 0)
(3.8596e-05 2.00591e-05 0)
(4.11625e-05 2.18664e-05 0)
(4.36836e-05 2.36227e-05 0)
(4.61507e-05 2.53327e-05 0)
(4.85532e-05 2.70114e-05 0)
(5.08772e-05 2.86988e-05 0)
(5.31003e-05 3.04923e-05 0)
(5.51814e-05 3.26077e-05 0)
(5.70402e-05 3.54782e-05 0)
(5.85209e-05 3.98789e-05 0)
(5.93378e-05 4.70021e-05 0)
(5.90154e-05 5.83059e-05 0)
(5.6862e-05 7.48613e-05 0)
(5.20583e-05 9.59968e-05 0)
(4.39542e-05 0.00011752 0)
(3.26096e-05 0.000130737 0)
(1.94278e-05 0.000124306 0)
(7.42064e-06 9.02526e-05 0)
(3.58136e-07 3.20797e-05 0)
(-4.27598e-07 4.21385e-05 0)
(-8.11497e-06 0.000115852 0)
(-2.09978e-05 0.000157607 0)
(-3.51076e-05 0.000164426 0)
(-4.7324e-05 0.000146991 0)
(-5.62245e-05 0.000119638 0)
(-6.17722e-05 9.31168e-05 0)
(-6.46485e-05 7.25124e-05 0)
(-6.56986e-05 5.85628e-05 0)
(-6.56306e-05 4.98858e-05 0)
(-6.49297e-05 4.46478e-05 0)
(-6.38861e-05 4.13583e-05 0)
(-6.26579e-05 3.90499e-05 0)
(-6.13266e-05 3.71806e-05 0)
(-5.9934e-05 3.5479e-05 0)
(-5.85029e-05 3.38206e-05 0)
(-5.7048e-05 3.21525e-05 0)
(-5.55801e-05 3.0453e-05 0)
(-5.41084e-05 2.87136e-05 0)
(-5.26412e-05 2.69308e-05 0)
(-5.1186e-05 2.5103e-05 0)
(-4.97499e-05 2.32293e-05 0)
(-4.83396e-05 2.13091e-05 0)
(-4.69614e-05 1.9342e-05 0)
(-4.5621e-05 1.7328e-05 0)
(-4.43237e-05 1.52674e-05 0)
(-4.30744e-05 1.31605e-05 0)
(-4.18773e-05 1.10084e-05 0)
(-4.07365e-05 8.8123e-06 0)
(-3.96551e-05 6.57368e-06 0)
(-3.8636e-05 4.29438e-06 0)
(-3.76813e-05 1.97614e-06 0)
(-3.67923e-05 -3.79488e-07 0)
(-3.59707e-05 -2.77128e-06 0)
(-3.5217e-05 -5.19902e-06 0)
(-3.4532e-05 -7.66171e-06 0)
(-3.39169e-05 -1.0157e-05 0)
(-3.33725e-05 -1.26817e-05 0)
(-3.28994e-05 -1.52316e-05 0)
(-3.24975e-05 -1.78024e-05 0)
(-3.21667e-05 -2.03889e-05 0)
(-3.1906e-05 -2.29855e-05 0)
(-3.17139e-05 -2.55857e-05 0)
(-3.15884e-05 -2.8182e-05 0)
(-3.15269e-05 -3.07663e-05 0)
(-3.15266e-05 -3.33292e-05 0)
(-3.15843e-05 -3.58607e-05 0)
(-3.16963e-05 -3.83501e-05 0)
(-3.1859e-05 -4.07857e-05 0)
(-3.20686e-05 -4.31556e-05 0)
(-3.23215e-05 -4.54474e-05 0)
(-3.26138e-05 -4.76482e-05 0)
(-3.29421e-05 -4.97453e-05 0)
(-3.3303e-05 -5.17254e-05 0)
(-3.36933e-05 -5.3576e-05 0)
(-3.41099e-05 -5.52847e-05 0)
(-3.455e-05 -5.68403e-05 0)
(-3.50109e-05 -5.8233e-05 0)
(-3.54897e-05 -5.94553e-05 0)
(-3.59829e-05 -6.0503e-05 0)
(-3.64862e-05 -6.13758e-05 0)
(-3.69937e-05 -6.20773e-05 0)
(-3.74974e-05 -6.26146e-05 0)
(-3.79875e-05 -6.2997e-05 0)
(-3.84524e-05 -6.32337e-05 0)
(-3.88795e-05 -6.33324e-05 0)
(-3.92559e-05 -6.32977e-05 0)
(-3.95699e-05 -6.31313e-05 0)
(-3.98105e-05 -6.28325e-05 0)
(-3.99686e-05 -6.23996e-05 0)
(-4.00366e-05 -6.18312e-05 0)
(-4.00078e-05 -6.1127e-05 0)
(-3.9877e-05 -6.0288e-05 0)
(-3.96396e-05 -5.93166e-05 0)
(-3.92917e-05 -5.82161e-05 0)
(-3.88303e-05 -5.69909e-05 0)
(-3.82528e-05 -5.56459e-05 0)
(-3.75576e-05 -5.41864e-05 0)
(-3.67433e-05 -5.26182e-05 0)
(-3.58094e-05 -5.09474e-05 0)
(-3.4756e-05 -4.91801e-05 0)
(-3.35835e-05 -4.73226e-05 0)
(-3.22933e-05 -4.53812e-05 0)
(-3.08873e-05 -4.33621e-05 0)
(-2.93677e-05 -4.12717e-05 0)
(-2.77376e-05 -3.91158e-05 0)
(-2.60005e-05 -3.69008e-05 0)
(-2.41602e-05 -3.46327e-05 0)
(-2.2221e-05 -3.23183e-05 0)
(-2.01875e-05 -2.99652e-05 0)
(-1.80641e-05 -2.75819e-05 0)
(-1.58554e-05 -2.5178e-05 0)
(-1.35658e-05 -2.27641e-05 0)
(-1.11994e-05 -2.03508e-05 0)
(-8.76018e-06 -1.79483e-05 0)
(-6.25186e-06 -1.55653e-05 0)
(-3.67819e-06 -1.32082e-05 0)
(-1.04307e-06 -1.08817e-05 0)
(1.64987e-06 -8.58868e-06 0)
(4.39633e-06 -6.33125e-06 0)
(7.19224e-06 -4.10928e-06 0)
(1.00325e-05 -1.9226e-06 0)
(1.29111e-05 2.28501e-07 0)
(1.58215e-05 2.34344e-06 0)
(1.87568e-05 4.4219e-06 0)
(2.17099e-05 6.46436e-06 0)
(2.46732e-05 8.47122e-06 0)
(2.7639e-05 1.04425e-05 0)
(3.05994e-05 1.23782e-05 0)
(3.35462e-05 1.42785e-05 0)
(3.64707e-05 1.61438e-05 0)
(3.93641e-05 1.79764e-05 0)
(4.22166e-05 1.97834e-05 0)
(4.5017e-05 2.15848e-05 0)
(4.77508e-05 2.34324e-05 0)
(5.0395e-05 2.54505e-05 0)
(5.2908e-05 2.79126e-05 0)
(5.52084e-05 3.1367e-05 0)
(5.71373e-05 3.67959e-05 0)
(5.84024e-05 4.57161e-05 0)
(5.85139e-05 6.00005e-05 0)
(5.67556e-05 8.1076e-05 0)
(5.22713e-05 0.000108238 0)
(4.43674e-05 0.000136413 0)
(3.30702e-05 0.000154863 0)
(1.97864e-05 0.000149375 0)
(7.59236e-06 0.000109641 0)
(3.74395e-07 3.93907e-05 0)
(-4.55747e-07 5.03437e-05 0)
(-8.51991e-06 0.000137237 0)
(-2.19817e-05 0.000185146 0)
(-3.66775e-05 0.00019109 0)
(-4.93501e-05 0.000168303 0)
(-5.85287e-05 0.000134142 0)
(-6.41919e-05 0.000101477 0)
(-6.70645e-05 7.62923e-05 0)
(-6.80368e-05 5.93532e-05 0)
(-6.78523e-05 4.89064e-05 0)
(-6.7019e-05 4.26892e-05 0)
(-6.58401e-05 3.88766e-05 0)
(-6.44801e-05 3.62881e-05 0)
(-6.3023e-05 3.42633e-05 0)
(-6.15117e-05 3.24713e-05 0)
(-5.99693e-05 3.07603e-05 0)
(-5.84105e-05 2.9065e-05 0)
(-5.68462e-05 2.73585e-05 0)
(-5.52854e-05 2.56297e-05 0)
(-5.37365e-05 2.38735e-05 0)
(-5.22073e-05 2.20872e-05 0)
(-5.07048e-05 2.02689e-05 0)
(-4.92357e-05 1.84172e-05 0)
(-4.78063e-05 1.65306e-05 0)
(-4.64221e-05 1.46083e-05 0)
(-4.50884e-05 1.26492e-05 0)
(-4.38097e-05 1.0653e-05 0)
(-4.25901e-05 8.61937e-06 0)
(-4.14329e-05 6.54827e-06 0)
(-4.03408e-05 4.44009e-06 0)
(-3.93158e-05 2.29537e-06 0)
(-3.83595e-05 1.14736e-07 0)
(-3.74727e-05 -2.10121e-06 0)
(-3.66558e-05 -4.35224e-06 0)
(-3.59091e-05 -6.63781e-06 0)
(-3.52328e-05 -8.95666e-06 0)
(-3.46271e-05 -1.13067e-05 0)
(-3.40918e-05 -1.36852e-05 0)
(-3.36266e-05 -1.60887e-05 0)
(-3.32308e-05 -1.85138e-05 0)
(-3.29034e-05 -2.09562e-05 0)
(-3.26427e-05 -2.34114e-05 0)
(-3.24465e-05 -2.58742e-05 0)
(-3.2312e-05 -2.83382e-05 0)
(-3.22361e-05 -3.07962e-05 0)
(-3.22151e-05 -3.32396e-05 0)
(-3.2245e-05 -3.56589e-05 0)
(-3.23218e-05 -3.80437e-05 0)
(-3.24412e-05 -4.03826e-05 0)
(-3.25989e-05 -4.26638e-05 0)
(-3.27912e-05 -4.48746e-05 0)
(-3.30141e-05 -4.7002e-05 0)
(-3.32638e-05 -4.90327e-05 0)
(-3.35372e-05 -5.09533e-05 0)
(-3.38314e-05 -5.27504e-05 0)
(-3.4144e-05 -5.44115e-05 0)
(-3.44725e-05 -5.59248e-05 0)
(-3.4815e-05 -5.72808e-05 0)
(-3.51696e-05 -5.84724e-05 0)
(-3.55336e-05 -5.9497e-05 0)
(-3.59037e-05 -6.03566e-05 0)
(-3.62751e-05 -6.10581e-05 0)
(-3.6641e-05 -6.16126e-05 0)
(-3.69929e-05 -6.20331e-05 0)
(-3.73201e-05 -6.23315e-05 0)
(-3.7611e-05 -6.2517e-05 0)
(-3.78539e-05 -6.25936e-05 0)
(-3.80372e-05 -6.25612e-05 0)
(-3.81508e-05 -6.24165e-05 0)
(-3.8186e-05 -6.21549e-05 0)
(-3.81355e-05 -6.17721e-05 0)
(-3.79935e-05 -6.12654e-05 0)
(-3.77551e-05 -6.06339e-05 0)
(-3.74165e-05 -5.98781e-05 0)
(-3.69745e-05 -5.90001e-05 0)
(-3.64264e-05 -5.80029e-05 0)
(-3.57703e-05 -5.689e-05 0)
(-3.50045e-05 -5.56658e-05 0)
(-3.41282e-05 -5.43348e-05 0)
(-3.31408e-05 -5.29018e-05 0)
(-3.20422e-05 -5.13719e-05 0)
(-3.0833e-05 -4.97502e-05 0)
(-2.9514e-05 -4.80419e-05 0)
(-2.80866e-05 -4.62522e-05 0)
(-2.65529e-05 -4.43862e-05 0)
(-2.4915e-05 -4.24489e-05 0)
(-2.31759e-05 -4.04455e-05 0)
(-2.13388e-05 -3.83815e-05 0)
(-1.94069e-05 -3.62632e-05 0)
(-1.7384e-05 -3.40976e-05 0)
(-1.52736e-05 -3.18936e-05 0)
(-1.30791e-05 -2.96608e-05 0)
(-1.08037e-05 -2.74102e-05 0)
(-8.45074e-06 -2.51526e-05 0)
(-6.0232e-06 -2.28983e-05 0)
(-3.5242e-06 -2.06561e-05 0)
(-9.57352e-07 -1.84323e-05 0)
(1.6737e-06 -1.62315e-05 0)
(4.36487e-06 -1.40563e-05 0)
(7.1122e-06 -1.19071e-05 0)
(9.91078e-06 -9.78374e-06 0)
(1.27552e-05 -7.68549e-06 0)
(1.56399e-05 -5.61127e-06 0)
(1.85585e-05 -3.55988e-06 0)
(2.15042e-05 -1.5298e-06 0)
(2.44696e-05 4.79556e-07 0)
(2.74473e-05 2.46859e-06 0)
(3.04297e-05 4.4376e-06 0)
(3.34087e-05 6.3875e-06 0)
(3.63757e-05 8.3191e-06 0)
(3.93221e-05 1.02336e-05 0)
(4.22389e-05 1.21342e-05 0)
(4.51164e-05 1.40301e-05 0)
(4.79437e-05 1.59463e-05 0)
(5.0706e-05 1.79463e-05 0)
(5.33804e-05 2.01816e-05 0)
(5.59243e-05 2.2985e-05 0)
(5.8254e-05 2.7024e-05 0)
(6.02047e-05 3.34959e-05 0)
(6.14721e-05 4.42553e-05 0)
(6.15448e-05 6.16096e-05 0)
(5.96732e-05 8.73628e-05 0)
(5.49584e-05 0.000120788 0)
(4.66672e-05 0.000155908 0)
(3.48149e-05 0.000179868 0)
(2.08622e-05 0.000175455 0)
(8.0294e-06 0.000129889 0)
(4.04113e-07 4.70678e-05 0)
(-4.85875e-07 5.90242e-05 0)
(-9.02737e-06 0.000159796 0)
(-2.32619e-05 0.000214142 0)
(-3.87831e-05 0.000219116 0)
(-5.21531e-05 0.000190664 0)
(-6.1826e-05 0.000149328 0)
(-6.77861e-05 0.000110201 0)
(-7.08027e-05 8.02102e-05 0)
(-7.18182e-05 6.01431e-05 0)
(-7.16191e-05 4.78537e-05 0)
(-7.07426e-05 4.0626e-05 0)
(-6.95092e-05 3.62824e-05 0)
(-6.80927e-05 3.34173e-05 0)
(-6.65815e-05 3.12454e-05 0)
(-6.50205e-05 2.93732e-05 0)
(-6.34335e-05 2.762e-05 0)
(-6.18353e-05 2.59079e-05 0)
(-6.02369e-05 2.42045e-05 0)
(-5.86472e-05 2.24961e-05 0)
(-5.70743e-05 2.07761e-05 0)
(-5.5526e-05 1.90408e-05 0)
(-5.40093e-05 1.72873e-05 0)
(-5.25307e-05 1.5513e-05 0)
(-5.10961e-05 1.37156e-05 0)
(-4.9711e-05 1.1893e-05 0)
(-4.83804e-05 1.00431e-05 0)
(-4.71086e-05 8.16418e-06 0)
(-4.58991e-05 6.25476e-06 0)
(-4.4755e-05 4.31356e-06 0)
(-4.36784e-05 2.33953e-06 0)
(-4.26708e-05 3.31914e-07 0)
(-4.17332e-05 -1.7099e-06 0)
(-4.08658e-05 -3.7865e-06 0)
(-4.00685e-05 -5.89823e-06 0)
(-3.93403e-05 -8.04493e-06 0)
(-3.86804e-05 -1.02258e-05 0)
(-3.80873e-05 -1.24392e-05 0)
(-3.75594e-05 -1.46827e-05 0)
(-3.70949e-05 -1.69537e-05 0)
(-3.66918e-05 -1.92492e-05 0)
(-3.63475e-05 -2.15659e-05 0)
(-3.60592e-05 -2.39002e-05 0)
(-3.58236e-05 -2.6248e-05 0)
(-3.5637e-05 -2.86039e-05 0)
(-3.54949e-05 -3.09615e-05 0)
(-3.53927e-05 -3.33129e-05 0)
(-3.53256e-05 -3.5649e-05 0)
(-3.52888e-05 -3.79595e-05 0)
(-3.52773e-05 -4.0233e-05 0)
(-3.52866e-05 -4.24572e-05 0)
(-3.53123e-05 -4.46191e-05 0)
(-3.53504e-05 -4.6705e-05 0)
(-3.53976e-05 -4.87007e-05 0)
(-3.5451e-05 -5.0592e-05 0)
(-3.55085e-05 -5.23646e-05 0)
(-3.55685e-05 -5.40048e-05 0)
(-3.563e-05 -5.55004e-05 0)
(-3.56924e-05 -5.68413e-05 0)
(-3.57555e-05 -5.8021e-05 0)
(-3.58185e-05 -5.90377e-05 0)
(-3.588e-05 -5.98959e-05 0)
(-3.59373e-05 -6.06057e-05 0)
(-3.59854e-05 -6.11821e-05 0)
(-3.60175e-05 -6.16419e-05 0)
(-3.60248e-05 -6.20003e-05 0)
(-3.59972e-05 -6.22678e-05 0)
(-3.5924e-05 -6.24485e-05 0)
(-3.57952e-05 -6.25406e-05 0)
(-3.56021e-05 -6.25381e-05 0)
(-3.53372e-05 -6.24332e-05 0)
(-3.49949e-05 -6.22192e-05 0)
(-3.45708e-05 -6.18906e-05 0)
(-3.40616e-05 -6.14446e-05 0)
(-3.34648e-05 -6.08805e-05 0)
(-3.27786e-05 -6.01988e-05 0)
(-3.20013e-05 -5.94017e-05 0)
(-3.1132e-05 -5.84918e-05 0)
(-3.01698e-05 -5.74725e-05 0)
(-2.91142e-05 -5.63477e-05 0)
(-2.79651e-05 -5.51212e-05 0)
(-2.67224e-05 -5.37975e-05 0)
(-2.53866e-05 -5.23807e-05 0)
(-2.39583e-05 -5.08754e-05 0)
(-2.24385e-05 -4.92858e-05 0)
(-2.08285e-05 -4.76163e-05 0)
(-1.91299e-05 -4.5871e-05 0)
(-1.73447e-05 -4.40545e-05 0)
(-1.5475e-05 -4.21718e-05 0)
(-1.3523e-05 -4.02288e-05 0)
(-1.14909e-05 -3.82328e-05 0)
(-9.38091e-06 -3.61925e-05 0)
(-7.19485e-06 -3.41184e-05 0)
(-4.93419e-06 -3.20214e-05 0)
(-2.60085e-06 -2.99123e-05 0)
(-1.96717e-07 -2.7801e-05 0)
(2.27607e-06 -2.56961e-05 0)
(4.81472e-06 -2.36034e-05 0)
(7.41602e-06 -2.15263e-05 0)
(1.00761e-05 -1.9466e-05 0)
(1.27906e-05 -1.74225e-05 0)
(1.55547e-05 -1.53946e-05 0)
(1.83631e-05 -1.33804e-05 0)
(2.12097e-05 -1.13781e-05 0)
(2.40882e-05 -9.38555e-06 0)
(2.69918e-05 -7.40121e-06 0)
(2.99137e-05 -5.42345e-06 0)
(3.28465e-05 -3.4507e-06 0)
(3.5782e-05 -1.48121e-06 0)
(3.87123e-05 4.85819e-07 0)