/*--------------------------------*- C++ -*----------------------------------*\
| =========                 |                                                 |
| \\      /  F ield         | OpenFOAM: The Open Source CFD Toolbox           |
|  \\    /   O peration     | Version:  2206                                  |
|   \\  /    A nd           | Website:  www.openfoam.com                      |
|    \\/     M anipulation  |                                                 |
\*---------------------------------------------------------------------------*/
FoamFile
{
    version     2.0;
    format      ascii;
    arch        "LSB;label=64;scalar=64";
    class       surfaceScalarField;
    location    "172800";
    object      phi;
}
// * * * * * * * * * * * * * * * * * * * * * * * * * * * * * * * * * * * * * //

dimensions      [0 3 -1 0 0 0 0];

oriented        oriented;

internalField   nonuniform List<scalar> 
24
(
-2.91122e-10
2.91122e-10
1.0132e-11
-3.01254e-10
1.42065e-10
-1.31933e-10
1.42065e-10
-1.60078e-11
3.07129e-10
-7.06033e-11
-2.46658e-10
-8.21106e-11
-1.20426e-10
5.99546e-11
1.63536e-10
1.43593e-10
-1.3041e-11
-7.00808e-11
-8.44145e-11
-4.90524e-11
-2.44599e-11
1.43593e-10
7.35123e-11
2.44599e-11
)
;

boundaryField
{
    movingWall
    {
        type            calculated;
        value           uniform 0;
    }
    fixedWalls
    {
        type            calculated;
        value           uniform 0;
    }
    frontAndBack
    {
        type            empty;
        value           nonuniform List<scalar> 0();
    }
}


// ************************************************************************* //
