/*--------------------------------*- C++ -*----------------------------------*\
| =========                 |                                                 |
| \\      /  F ield         | OpenFOAM: The Open Source CFD Toolbox           |
|  \\    /   O peration     | Version:  2212                                  |
|   \\  /    A nd           | Website:  www.openfoam.com                      |
|    \\/     M anipulation  |                                                 |
\*---------------------------------------------------------------------------*/
FoamFile
{
    version     2.0;
    format      ascii;
    arch        "LSB;label=64;scalar=64";
    class       volScalarField;
    location    "2500";
    object      p;
}
// * * * * * * * * * * * * * * * * * * * * * * * * * * * * * * * * * * * * * //

dimensions      [0 2 -2 0 0 0 0];

internalField   nonuniform List<scalar> 
125000
(
-0.13409749758
-0.171860214078
-0.134103027535
-0.169022758489
-0.196561576523
-0.171856412415
-0.185191518798
-0.134102940743
-0.169016610766
-0.175738277203
-0.198168788053
-0.196562143453
-0.199436982348
-0.171856234132
-0.185191407122
-0.181444960469
-0.134103027583
-0.169016511691
-0.17574154852
-0.174663354453
-0.196039550943
-0.198168529523
-0.198502551395
-0.196562219272
-0.199438471238
-0.196207309967
-0.171856412579
-0.185191238786
-0.181442903061
-0.180822553312
-0.13409749759
-0.169016610812
-0.175741452506
-0.174669903804
-0.174551233934
-0.194073711493
-0.196039363798
-0.195741460399
-0.198168474206
-0.19850249912
-0.196860108052
-0.196562143503
-0.199438546653
-0.196208058761
-0.196221641173
-0.17186021409
-0.185191407296
-0.181442735672
-0.180819152065
-0.181649185276
-0.1690227585
-0.175741548561
-0.174669806225
-0.174555671691
-0.175565269524
-0.191768181314
-0.194073777356
-0.193670922928
-0.196039347187
-0.195741333802
-0.194900480433
-0.198168529058
-0.198502443336
-0.196859746729
-0.197200459
-0.196561576507
-0.199438471288
-0.196208131626
-0.196222686258
-0.19632825708
-0.18519151881
-0.181442903251
-0.180818982844
-0.181645667236
-0.182227429816
-0.175738277213
-0.174669903835
-0.174555564444
-0.17556823528
-0.176734922937
-0.189544984729
-0.19176817516
-0.191412465061
-0.194073782145
-0.193671003164
-0.19319189135
-0.196039363189
-0.195741317701
-0.194900255117
-0.195266732734
-0.198168787985
-0.198502498643
-0.196859689938
-0.197200281387
-0.19739305928
-0.199436982331
-0.196208058813
-0.196222757919
-0.196329413419
-0.195796867778
-0.181444960483
-0.180819152264
-0.181645502074
-0.182224200935
-0.182501558308
-0.174663354462
-0.174555671707
-0.175568120838
-0.176737784401
-0.177824554336
-0.187666964328
-0.189544972224
-0.189265071706
-0.19176816533
-0.19141246014
-0.191120359014
-0.194073777257
-0.193671007889
-0.193191930087
-0.19349415008
-0.196039550898
-0.195741333178
-0.194900239927
-0.195266624853
-0.195580612401
-0.198502551326
-0.196859746233
-0.197200223832
-0.197392827277
-0.197109502154
-0.196207309952
-0.196222686314
-0.19632948363
-0.195798025756
-0.194971291695
-0.180822553326
-0.181645667422
-0.182224043554
-0.182498523807
-0.182737022757
-0.174551233941
-0.175568235269
-0.176737667649
-0.177827528452
-0.178864039633
-0.18607666868
-0.187666974351
-0.187454444703
-0.189544965848
-0.189265059038
-0.189079473573
-0.191768176108
-0.191412450377
-0.191120331745
-0.191368788273
-0.194073711544
-0.193671003065
-0.19319193461
-0.193494246805
-0.193837227859
-0.195741460353
-0.194900254481
-0.195266610692
-0.195580489114
-0.195594168117
-0.196860107983
-0.197200280893
-0.197392768372
-0.197109192002
-0.196560469976
-0.196221641159
-0.196329413493
-0.19579809357
-0.194972481163
-0.194096567566
-0.181649185289
-0.182224201071
-0.182498373794
-0.182734078789
-0.183013634699
-0.175565269528
-0.176737784366
-0.177827411152
-0.178866945326
-0.179863692379
-0.184718734475
-0.186076678234
-0.185915976468
-0.187666971094
-0.187454454259
-0.187329950509
-0.189544973763
-0.189265052795
-0.189079449382
-0.189287305336
-0.191768181477
-0.191412461121
-0.19112032202
-0.191368788331
-0.191715211275
-0.193670922977
-0.193191929979
-0.193494250927
-0.193837316636
-0.194000212597
-0.194900480387
-0.195266624233
-0.195580475758
-0.195594029771
-0.195370120526
-0.197200458934
-0.197392826828
-0.197109131578
-0.196560131275
-0.195884883208
-0.19632825707
-0.195798025868
-0.194972546024
-0.194097805698
-0.193233498846
-0.182227429827
-0.1824985239
-0.182733934951
-0.183010765867
-0.183320507999
-0.176734922938
-0.177827528397
-0.178866827867
-0.179866447094
-0.180805169891
-0.183545812268
-0.18471874304
-0.184594752812
-0.186076674077
-0.185915985577
-0.185828193805
-0.187666974837
-0.187454451062
-0.187329952389
-0.187501890969
-0.189544984893
-0.189265060608
-0.189079443306
-0.189287297084
-0.189620640188
-0.191412465225
-0.191120332753
-0.191368778541
-0.191715205113
-0.19197161292
-0.193191891397
-0.193494246656
-0.193837320173
-0.19400029611
-0.193964449641
-0.195266732687
-0.195580488543
-0.195594017281
-0.195369987494
-0.194982466538
-0.19739305922
-0.19710919165
-0.196560069336
-0.195884528161
-0.195143747369
-0.195796867774
-0.194972481323
-0.194097867489
-0.193234774723
-0.192399138862
-0.182501558317
-0.18273407885
-0.183010627762
-0.183317732257
-0.183639971246
-0.177824554333
-0.178866945256
-0.179866330439
-0.180807777209
-0.181670153412
-0.182511858412
-0.183545820723
-0.183448352404
-0.184718739108
-0.184594761002
-0.1845291584
-0.186076676682
-0.185915981466
-0.185828197351
-0.185969018438
-0.187666964277
-0.187454454736
-0.187329949231
-0.18750190176
-0.18780599069
-0.189265071872
-0.189079451008
-0.189287291124
-0.189620630395
-0.189925203166
-0.191120359177
-0.1913687893
-0.191715195173
-0.191971602293
-0.192076621062
-0.193494150119
-0.193837316398
-0.194000299094
-0.193964536729
-0.193765245646
-0.195580612355
-0.195594029287
-0.195369975859
-0.194982336506
-0.194485783169
-0.197109502104
-0.196560131064
-0.195884464601
-0.195143375485
-0.194375010547
-0.194971291699
-0.194097805908
-0.193234833529
-0.192400439482
-0.191606926361
-0.182737022761
-0.183010765851
-0.183317599735
-0.183637303582
-0.183960003224
-0.178864039627
-0.179866447024
-0.180807662921
-0.181672620974
-0.182446900965
-0.181567132006
-0.182511863235
-0.182432338233
-0.183545817409
-0.183448360506
-0.183396546586
-0.184718740457
-0.18459475711
-0.184529162486
-0.184642592426
-0.186076668382
-0.185915983974
-0.185828193268
-0.185969027137
-0.186238219948
-0.187454444653
-0.187329952879
-0.187501898584
-0.187806000942
-0.188118963361
-0.189079473742
-0.18928729876
-0.189620624507
-0.189925192642
-0.190122848459
-0.191368788429
-0.191715205935
-0.191971592208
-0.192076610026
-0.192030012021
-0.193837227885
-0.194000295754
-0.193964539213
-0.193765336408
-0.193444723556
-0.195594168073
-0.195369987119
-0.194982325546
-0.194485648898
-0.193923656978
-0.196560469941
-0.195884528134
-0.19514331019
-0.194374629947
-0.193602609346
-0.19409656758
-0.193234774972
-0.192400495495
-0.191608239453
-0.190864963305
-0.183013634696
-0.183317732144
-0.183637176294
-0.183957453958
-0.184270435796
-0.179863692372
-0.180807777168
-0.181672510711
-0.182449223087
-0.183127909673
-0.180678933988
-0.181567133911
-0.181500267126
-0.182511860226
-0.182432342784
-0.182387318688
-0.183545819307
-0.18344835722
-0.18339655137
-0.183488336695
-0.184718734166
-0.184594758374
-0.184529158632
-0.184642599508
-0.184875957924
-0.185915976168
-0.185828195684
-0.185969023043
-0.186238228409
-0.186539988309
-0.187329950463
-0.187501902331
-0.187805997704
-0.188118973247
-0.188361480468
-0.18928730551
-0.189620632088
-0.189925186821
-0.190122838989
-0.190190295867
-0.191715211417
-0.191971602833
-0.192076599788
-0.192029999372
-0.191862344171
-0.194000212606
-0.19396453627
-0.193765338444
-0.19344481682
-0.193039474875
-0.195370120487
-0.194982336232
-0.194485638342
-0.19392351489
-0.193325987219
-0.195884883192
-0.195143375686
-0.194374562904
-0.193602232875
-0.192839521483
-0.193233498869
-0.192400439725
-0.191608292933
-0.190866273177
-0.19017605682
-0.183320507988
-0.183637303394
-0.183957331366
-0.184268016276
-0.184560893539
-0.180805169886
-0.181672620983
-0.182449118396
-0.18313007665
-0.183708397245
-0.179836567401
-0.180678935212
-0.180622071562
-0.181567131133
-0.181500268747
-0.181459374529
-0.182511864441
-0.182432339787
-0.182387320484
-0.182460268529
-0.183545812259
-0.183448359091
-0.183396548106
-0.183488343319
-0.183689752057
-0.184594752501
-0.184529159785
-0.18464259567
-0.184875964937
-0.185156617856
-0.185828193506
-0.185969025484
-0.18623822427
-0.186539996574
-0.186799791857
-0.187501890936
-0.187806001689
-0.188118969939
-0.188361490518
-0.188499261641
-0.189620640365
-0.189925194253
-0.190122833222
-0.190190286628
-0.190140241135
-0.191971613036
-0.192076610178
-0.192029988961
-0.191862330031
-0.191605877165
-0.19396444963
-0.19376533588
-0.193444818495
-0.193039569605
-0.192578597128
-0.194982466502
-0.194485648718
-0.193923504396
-0.193325835215
-0.192709284023
-0.195143747376
-0.194374630353
-0.1936021642
-0.192839162567
-0.192092136316
-0.192399138887
-0.191608239621
-0.190866324425
-0.190177344227
-0.189540187132
-0.183639971227
-0.183957453728
-0.184267897824
-0.184558617109
-0.184821088001
-0.181670153411
-0.18244922314
-0.18312997895
-0.183710400928
-0.184185932169
-0.17902340811
-0.179836569778
-0.179786863516
-0.180678932692
-0.180622072542
-0.180585315893
-0.181567137166
-0.181500265973
-0.181459373652
-0.18151674321
-0.182511858797
-0.182432344039
-0.182387317489
-0.182460271561
-0.182633051324
-0.183448352393
-0.183396549928
-0.183488340061
-0.183689758879
-0.183945087292
-0.184529158087
-0.184642596751
-0.184875961085
-0.185156625154
-0.185417304023
-0.185969018148
-0.186238226912
-0.186539992377
-0.186799799839
-0.186977271773
-0.187805990679
-0.188118974251
-0.188361487143
-0.188499271714
-0.188530788016
-0.189925203344
-0.190122840357
-0.190190280899
-0.190140231057
-0.189999990866
-0.192076621142
-0.192029999137
-0.191862319445
-0.191605862722
-0.191284490446
-0.193765245616
-0.193444816221
-0.193039571019
-0.192578692272
-0.192081660473
-0.194485783139
-0.193923514834
-0.193325824354
-0.192709119828
-0.192082454224
-0.194375010576
-0.193602233394
-0.19283909253
-0.192091808179
-0.191364037691
-0.191606926383
-0.19086627321
-0.190177393558
-0.189541430793
-0.188955565696
-0.183960003201
-0.184268016054
-0.184558502332
-0.184818968454
-0.185041329639
-0.182446900968
-0.183130076727
-0.183710311466
-0.184187766885
-0.184560237467
-0.178228859073
-0.179023412348
-0.178979249309
-0.179836567497
-0.179786865721
-0.179752525025
-0.18067893829
-0.180622070019
-0.180585314753
-0.180631138491
-0.181567132574
-0.181500272064
-0.181459370875
-0.181516742961
-0.181664615417
-0.182432338618
-0.182387321781
-0.182460268559
-0.182633054706
-0.182862568414
-0.183396546569
-0.183488341787
-0.183689755602
-0.183945094699
-0.18419618422
-0.18464259211
-0.184875962186
-0.185156621263
-0.185417311379
-0.185615159124
-0.186238219679
-0.186539995436
-0.186799795584
-0.186977278846
-0.187062623192
-0.188118963384
-0.188361491786
-0.188499268287
-0.188530797876
-0.188472451476
-0.190122848627
-0.190190287597
-0.190140225339
-0.189999980474
-0.189792607895
-0.19203001206
-0.191862329514
-0.191605851973
-0.191284475635
-0.190917103424
-0.193444723509
-0.193039568994
-0.192578693522
-0.192081754718
-0.191560040568
-0.193923656958
-0.193325835338
-0.192709108078
-0.192082276451
-0.191450633663
-0.193602609393
-0.192839163087
-0.192091737252
-0.191363753049
-0.190657628777
-0.190864963315
-0.190177344124
-0.189541478468
-0.188956743693
-0.188418670773
-0.184270435772
-0.184558616941
-0.184818857029
-0.185039379601
-0.185212891293
-0.183127909679
-0.183710401005
-0.184187686646
-0.184561900173
-0.184832880761
-0.177447368827
-0.178228864845
-0.178189234564
-0.179023410326
-0.17897925345
-0.178946746981
-0.179836570989
-0.179786863433
-0.179752525449
-0.179788802554
-0.180678934371
-0.180622075651
-0.18058531222
-0.180631137646
-0.180758262692
-0.181500267696
-0.181459377062
-0.181516740176
-0.181664615348
-0.181869897135
-0.182387319068
-0.182460272804
-0.182633051683
-0.182862572525
-0.183099044737
-0.183488336665
-0.183689757177
-0.18394509138
-0.184196192225
-0.184400845372
-0.184875957609
-0.18515662255
-0.185417307434
-0.185615165689
-0.185734132776
-0.186539988078
-0.186799799265
-0.186977274539
-0.187062629467
-0.187063357656
-0.18836148053
-0.188499273131
-0.188530794414
-0.188472460773
-0.188346116365
-0.19019029601
-0.190140231578
-0.189999974738
-0.189792597433
-0.189534422649
-0.191862344172
-0.19160586202
-0.191284464741
-0.190917088702
-0.190516334357
-0.193039474818
-0.192578691803
-0.192081755888
-0.191560132143
-0.191020180323
-0.193325987218
-0.192709120145
-0.192082263215
-0.191450442454
-0.190817212667
-0.192839521536
-0.192091808596
-0.191363681948
-0.190657398786
-0.189974522584
-0.190176056817
-0.189541430601
-0.188956789846
-0.188419761979
-0.187924188745
-0.184560893518
-0.184818968357
-0.185039271401
-0.185211121027
-0.185328341687
-0.183708397252
-0.184187766946
-0.1845618298
-0.18483437127
-0.18500688933
-0.176675838043
-0.177447374296
-0.177411604045
-0.178228863157
-0.178189240266
-0.178158464339
-0.179023410817
-0.178979251415
-0.178946749617
-0.178975395771
-0.179836567398
-0.179786866916
-0.17975252314
-0.179788803144
-0.179898429157
-0.180622071948
-0.18058531793
-0.180631135099
-0.180758261775
-0.180941709642
-0.181459375099
-0.181516746403
-0.181664612544
-0.181869897611
-0.182090202306
-0.182460268892
-0.182633055733
-0.182862569463
-0.183099049865
-0.183302455772
-0.183689752002
-0.183945092779
-0.184196188842
-0.184400853347
-0.18453888066
-0.185156617549
-0.18541730914
-0.185615161687
-0.185734138158
-0.185776079779
-0.186799791684
-0.186977278955
-0.187062625129
-0.187063363052
-0.186995407936
-0.188499261739
-0.188530799236
-0.188472457291
-0.188346125881
-0.188168057699
-0.190140241242
-0.189999980519
-0.189792591645
-0.189534411177
-0.18923831205
-0.191605877133
-0.191284474819
-0.190917077697
-0.190516320454
-0.190089503495
-0.192578597075
-0.192081754497
-0.19156013329
-0.191020267122
-0.19046595382
-0.192709284045
-0.1920822769
-0.191450427104
-0.190817009892
-0.190184794682
-0.192092136365
-0.191363753304
-0.190657328489
-0.189974355582
-0.189315514398
-0.189540187118
-0.188956743477
-0.188419806553
-0.187925174471
-0.187465151524
-0.184821087986
-0.185039379567
-0.185211016172
-0.18532675822
-0.185381847508
-0.184185932174
-0.184561900211
-0.184834311006
-0.185008210224
-0.185086353215
-0.175912802391
-0.176675842081
-0.176643469298
-0.177447372964
-0.177411609434
-0.177382596502
-0.178228861182
-0.178189238563
-0.178158468727
-0.178181208689
-0.179023407715
-0.178979251856
-0.178946747559
-0.178975398553
-0.179070410336
-0.179786863515
-0.179752526655
-0.179788800812
-0.179898429512
-0.180062402224
-0.180585316284
-0.180631140907
-0.180758259206
-0.180941708878
-0.181145756175
-0.181516743773
-0.181664618688
-0.181869894776
-0.182090203745
-0.18228834937
-0.182633051655
-0.182862573122
-0.183099046748
-0.183302461674
-0.183450311154
-0.183945087202
-0.184196190121
-0.184400849889
-0.184538888041
-0.184607264145
-0.185417303739
-0.185615164064
-0.185734134106
-0.185776084206
-0.18575079474
-0.186977271675
-0.187062630228
-0.187063358706
-0.186995412558
-0.186875074991
-0.188530788136
-0.188472461879
-0.188346122394
-0.188168067636
-0.187949452129
-0.189999990927
-0.189792596963
-0.189534405291
-0.189238299274
-0.188912305815
-0.191284490384
-0.190917087888
-0.190516309402
-0.190089491189
-0.189640567753
-0.192081660438
-0.191560132208
-0.191020268244
-0.190466033444
-0.189900097479
-0.192082454266
-0.191450442929
-0.190816991825
-0.190184584061
-0.189555529827
-0.191364037727
-0.190657398879
-0.189974287308
-0.189315414824
-0.188680461438
-0.188955565677
-0.18841976179
-0.187925217186
-0.187466017209
-0.187033258037
-0.185041329632
-0.185211121033
-0.185326657109
-0.185380454069
-0.185369379052
-0.18456023747
-0.184834371289
-0.185008159904
-0.185087509281
-0.18507605898
-0.175157601767
-0.175912804323
-0.175883489824
-0.176675841077
-0.17664347324
-0.176616307758
-0.177447370672
-0.177411608086
-0.177382600683
-0.177400825441
-0.178228858515
-0.17818923654
-0.178158466997
-0.178181213232
-0.178264133451
-0.178979248914
-0.178946747957
-0.178975396466
-0.179070412888
-0.179217327224
-0.17975252503
-0.179788804452
-0.17989842715
-0.180062402335
-0.180250700371
-0.180631138889
-0.180758265113
-0.180941706279
-0.18114575591
-0.181336423926
-0.181664615963
-0.181869900629
-0.182090200867
-0.182288351818
-0.182440807774
-0.18286256869
-0.183099049831
-0.183302458487
-0.18345031745
-0.183535848366
-0.184196184092
-0.184400851214
-0.184538884505
-0.184607270757
-0.184612208534
-0.185615158885
-0.185734137343
-0.185776080124
-0.185750797844
-0.185672106618
-0.187062623176
-0.187063364312
-0.186995408225
-0.18687507974
-0.186713629225
-0.188472451599
-0.188346126581
-0.188168064156
-0.187949461692
-0.187699104323
-0.189792607899
-0.189534410278
-0.189238293238
-0.188912291503
-0.188560788835
-0.190917103343
-0.190516319778
-0.190089480185
-0.18964055781
-0.189171734762
-0.191560040561
-0.191020267427
-0.190466034455
-0.189900167352
-0.189324936236
-0.191450633714
-0.190817010295
-0.190184562782
-0.189555316905
-0.188931122909
-0.190657628798
-0.189974355559
-0.189315349972
-0.188680429059
-0.18806818207
-0.188418670754
-0.187925174336
-0.187466057552
-0.187033994687
-0.186619327112
-0.185212891291
-0.185326758243
-0.185380357385
-0.185368174873
-0.185288775248
-0.184832880762
-0.185008210231
-0.185087468354
-0.185077056365
-0.184981184886
-0.174410447433
-0.175157601074
-0.175131078516
-0.175912803602
-0.175883491636
-0.175858253114
-0.176675839786
-0.176643472218
-0.176616310588
-0.176631141051
-0.17744736849
-0.177411605778
-0.177382599306
-0.17740082976
-0.177473754015
-0.178189234004
-0.178158464914
-0.178181211471
-0.178264137841
-0.178396299059
-0.178946746591
-0.178975396926
-0.179070410764
-0.179217329366
-0.17939096483
-0.179788802578
-0.179898431048
-0.180062399936
-0.180250700409
-0.180432645981
-0.180758263101
-0.180941712219
-0.181145753277
-0.181336424262
-0.181490038747
-0.181869897646
-0.182090206154
-0.18228834889
-0.182440811158
-0.182537965672
-0.183099044936
-0.183302460907
-0.183450314182
-0.183535854744
-0.183562238465
-0.184400845212
-0.184538886136
-0.184607267151
-0.184612214272
-0.184563854099
-0.185734132607
-0.185776084279
-0.18575079375
-0.185672108585
-0.185552324564
-0.187063357717
-0.186995414096
-0.186875075443
-0.186713634198
-0.186519442661
-0.188346116471
-0.188168067824
-0.187949458219
-0.187699113247
-0.187422234011
-0.189534422595
-0.189238298127
-0.188912285268
-0.188560772899
-0.188185866757
-0.190516334274
-0.190089490752
-0.189640546975
-0.189171727837
-0.188684523678
-0.191020180343
-0.190466033885
-0.189900168062
-0.189324993879
-0.188742621215
-0.190817212716
-0.190184584341
-0.189555292125
-0.188930914731
-0.188312729985
-0.189974522592
-0.189315414745
-0.188680369093
-0.188068211668
-0.187476418374
-0.18792418873
-0.187466017128
-0.18703403196
-0.186619932253
-0.186213831705
-0.185328341688
-0.185380454093
-0.185368083558
-0.185287755687
-0.185139657451
-0.18500688933
-0.185087509282
-0.185077023962
-0.184982030286
-0.18480707551
-0.173671775212
-0.174410444587
-0.174386494226
-0.175157600565
-0.175131077685
-0.175107814827
-0.175912804201
-0.175883490894
-0.175858253882
-0.175870571641
-0.176675838114
-0.176643470945
-0.176616309534
-0.176631144044
-0.176695819772
-0.177411603706
-0.177382596974
-0.177400828349
-0.177473758259
-0.177593212186
-0.178158463782
-0.178181209398
-0.178264136039
-0.178396303085
-0.178556605103
-0.178975395399
-0.179070411465
-0.179217327196
-0.179390966529
-0.179563819881
-0.179898429215
-0.180062404213
-0.18025069797
-0.180432645985
-0.180585078817
-0.180941710061
-0.181145759086
-0.181336421592
-0.181490039748
-0.181594949494
-0.182090202758
-0.182288353328
-0.182440808171
-0.182537969863
-0.182580144815
-0.183302455875
-0.183450316014
-0.183535851393
-0.183562244821
-0.18353689307
-0.184538880488
-0.184607269363
-0.184612210615
-0.184563858559
-0.184473681144
-0.185776079698
-0.185750798742
-0.185672104499
-0.185552326357
-0.185399295223
-0.18699540806
-0.18687508128
-0.186713629954
-0.186519447809
-0.186298353402
-0.188168057768
-0.187949461367
-0.187699109778
-0.187422241954
-0.187121331309
-0.189238311952
-0.188912290319
-0.188560766425
-0.188185849335
-0.18778847223
-0.190089503427
-0.189640557636
-0.18917171731
-0.188684520156
-0.188180333798
-0.190465953861
-0.189900167815
-0.189324993985
-0.188742664623
-0.188155098523
-0.190184794721
-0.189555317062
-0.188930886463
-0.188312534414
-0.187700858694
-0.189315514397
-0.188680428972
-0.188068157956
-0.187476500068
-0.186901877647
-0.187465151515
-0.187033994646
-0.186619965659
-0.18621430964
-0.185807458209
-0.18538184751
-0.185368174892
-0.185287670874
-0.185138814345
-0.184923209752
-0.185086353215
-0.185077056364
-0.184982005312
-0.184807775669
-0.184559097501
-0.172941912427
-0.173671771109
-0.173650194758
-0.174410444215
-0.174386491244
-0.174365226768
-0.175157603624
-0.175131077153
-0.175107813011
-0.175118297653
-0.175912802961
-0.17588349155
-0.175858253106
-0.175870572569
-0.175928425269
-0.176643469367
-0.176616308265
-0.176631142953
-0.176695822834
-0.176804369542
-0.177382596162
-0.177400826013
-0.177473756804
-0.177593216215
-0.177741547981
-0.178181208143
-0.17826413412
-0.17839630123
-0.178556608674
-0.178720534114
-0.179070410001
-0.17921732838
-0.179390964306
-0.179563820936
-0.179713613998
-0.180062402333
-0.180250702661
-0.180432643507
-0.18058507889
-0.180694990023
-0.181145756594
-0.181336427016
-0.18149003704
-0.181594951266
-0.181648978693
-0.182288349731
-0.182440811567
-0.182537966809
-0.182580149667
-0.18257282278
-0.183450311158
-0.183535852884
-0.183562241394
-0.183536898859
-0.183469347952
-0.184607263989
-0.184612213601
-0.184563854876
-0.184473684631
-0.184350634233
-0.185750794755
-0.185672110114
-0.185552322302
-0.185399296728
-0.185219312088
-0.186875075152
-0.186713635475
-0.186519443634
-0.186298358768
-0.186053544052
-0.187949452148
-0.187699112523
-0.18742223848
-0.187121337846
-0.186797232564
-0.188912305693
-0.188560771858
-0.188185842597
-0.187788453694
-0.18736913074
-0.189640567709
-0.189171727875
-0.188684510078
-0.188180333669
-0.187660650358
-0.189900097528
-0.189324994277
-0.18874266373
-0.188155126577
-0.18756397935
-0.189555529854
-0.188930914797
-0.18831250305
-0.187700683427
-0.18709531239
-0.188680461434
-0.188068211598
-0.187476453702
-0.186901997917
-0.186340357565
-0.187033258032
-0.186619932236
-0.186214338413
-0.185807819465
-0.185391628313
-0.185369379055
-0.1852877557
-0.185138737266
-0.184922531888
-0.184641866123
-0.18507605898
-0.184982030285
-0.184807756913
-0.184559659166
-0.184242562839
-0.172221283136
-0.172941908019
-0.172922522989
-0.173671770808
-0.173650190534
-0.17363090647
-0.174410449313
-0.174386490846
-0.174365222879
-0.17437441061
-0.175157602822
-0.175131080295
-0.175107812443
-0.175118295964
-0.1751704755
-0.175883490394
-0.175858253805
-0.175870571755
-0.175928426354
-0.176027584532
-0.17661630782
-0.176631141631
-0.176695821697
-0.176804372661
-0.176942034433
-0.177400825099
-0.177473754521
-0.1775932147
-0.177741551791
-0.177896995029
-0.178264132927
-0.178396299703
-0.178556606753
-0.178720536923
-0.178867018934
-0.179217326948
-0.179390966232
-0.17956381866
-0.179713614249
-0.179826566026
-0.180250700541
-0.180432648495
-0.18058507638
-0.180694990381
-0.180758200576
-0.181336424325
-0.181490041784
-0.181594948518
-0.181648981331
-0.181655609198
-0.182440808017
-0.182537969145
-0.182580146543
-0.182572828181
-0.182522995229
-0.183535848283
-0.183562242898
-0.183536895369
-0.183469352886
-0.183368306738
-0.184612208425
-0.184563858684
-0.184473680949
-0.184350637316
-0.18420043558
-0.185672106723
-0.185552328217
-0.185399292719
-0.185219313597
-0.185016182074
-0.186713629392
-0.186519448664
-0.186298354678
-0.186053549565
-0.185786201244
-0.187699104292
-0.187422241016
-0.187121334354
-0.186797237314
-0.186449971137
-0.188560788711
-0.188185848542
-0.187788446689
-0.187369111662
-0.186928392698
-0.189171734743
-0.188684520318
-0.188180324159
-0.187660653151
-0.187127032686
-0.189324936283
-0.188742664918
-0.188155124242
-0.187563992167
-0.186970408646
-0.188931122925
-0.188312534428
-0.187700649769
-0.187095163841
-0.186495182924
-0.188068182066
-0.187476500022
-0.186901959542
-0.186340500868
-0.185786954131
-0.18661932711
-0.186214309634
-0.185807843022
-0.185391888331
-0.184958923728
-0.18528877525
-0.185138814353
-0.184922463752
-0.184641339752
-0.184298958367
-0.184981184885
-0.184807775668
-0.184559645408
-0.184242993134
-0.18386269662
-0.171510219759
-0.172221279252
-0.172203915851
-0.17294190775
-0.172922518481
-0.172905165274
-0.17367177701
-0.173650190208
-0.173630901427
-0.17363919635
-0.174410448787
-0.174386496033
-0.174365222443
-0.17437440682
-0.174421865503
-0.175131079572
-0.175107815663
-0.175118295354
-0.175170473971
-0.175261514437
-0.175858253674
-0.175870572385
-0.175928425493
-0.176027585883
-0.176155720396
-0.176631141095
-0.176695820263
-0.176804371463
-0.176942037743
-0.177089478206
-0.17747375367
-0.177593212607
-0.177741550201
-0.17789699844
-0.178039789468
-0.178396298576
-0.178556605932
-0.178720534927
-0.178867020655
-0.178981852123
-0.179390964643
-0.179563821516
-0.179713611929
-0.179826565589
-0.179896950583
-0.18043264621
-0.180585081384
-0.180694987846
-0.180758201453
-0.180776471212
-0.181490039096
-0.181594952329
-0.18164897854
-0.181655612744
-0.181620800183
-0.182537965781
-0.182580148018
-0.182572824988
-0.182523000369
-0.182438911837
-0.183562238326
-0.183536897228
-0.183469349356
-0.183368311082
-0.183239845534
-0.184563854058
-0.184473685475
-0.184350633662
-0.184200438183
-0.184027410598
-0.185552324738
-0.185399298591
-0.185219309647
-0.185016183774
-0.184791621067
-0.186519442806
-0.186298359174
-0.18605354558
-0.185786206716
-0.185496308702
-0.187422233943
-0.187121336885
-0.186797233784
-0.186449973819
-0.186079356742
-0.188185866648
-0.187788453164
-0.187369104415
-0.186928373781
-0.186467004258
-0.188684523677
-0.188180333868
-0.187660644282
-0.187127037509
-0.186581002998
-0.188742621254
-0.188155126772
-0.187563987976
-0.186970407752
-0.186374974476
-0.188312729994
-0.18770068342
-0.187095129057
-0.186495065197
-0.185898888311
-0.187476418371
-0.18690199789
-0.186340470568
-0.185787104855
-0.185236342165
-0.186213831704
-0.185807819464
-0.185391906405
-0.184959100975
-0.18450336911
-0.185139657453
-0.184922531893
-0.184641281615
-0.184298567755
-0.18389837962
-0.18480707551
-0.184559659166
-0.18424298323
-0.183863003615
-0.18342462542
-0.170808856985
-0.17151021694
-0.171494713463
-0.172221278998
-0.172203911891
-0.172188418953
-0.172941914013
-0.172922518186
-0.17290516004
-0.172912864309
-0.173671776618
-0.173650196487
-0.17363090106
-0.17363919138
-0.173682696163
-0.174386495582
-0.174365227715
-0.17437440634
-0.174421861847
-0.174505881462
-0.175107815872
-0.17511829852
-0.175170473315
-0.175261513243
-0.175381129554
-0.175870572172
-0.175928425906
-0.176027584963
-0.176155722297
-0.176295707934
-0.176695819784
-0.176804369899
-0.176942036467
-0.177089481598
-0.177228169211
-0.177593211844
-0.177741548515
-0.177896996763
-0.17803979232
-0.178155639937
-0.178556604688
-0.178720535139
-0.178867018584
-0.178981852593
-0.179058048036
-0.179563819807
-0.179713615737
-0.179826563238
-0.179896949835
-0.179924865749
-0.180585079086
-0.180694992511
-0.180758198896
-0.180776472826
-0.180754575899
-0.181594949759
-0.1816489813
-0.181655609905
-0.181620804228
-0.18155173702
-0.182580144792
-0.182572825972
-0.182522997116
-0.182438916336
-0.182327731001
-0.183536892914
-0.1834693518
-0.183368307544
-0.1832398491
-0.183088827789
-0.18447368118
-0.184350638659
-0.184200434581
-0.184027412979
-0.183833977806
-0.185399295433
-0.18521931521
-0.185016179895
-0.184791623014
-0.184545877922
-0.186298353508
-0.186053549607
-0.185786202857
-0.18549631389
-0.185183296654
-0.187121331223
-0.186797236473
-0.186449970225
-0.186079357212
-0.185685304165
-0.187788472145
-0.187369111352
-0.186928366351
-0.186466986241
-0.185985915851
-0.188180333807
-0.187660653332
-0.187127029288
-0.186581008675
-0.186023910148
-0.188155098552
-0.187563992285
-0.186970401414
-0.186374962707
-0.185777670527
-0.187700858699
-0.187095163829
-0.186495030705
-0.185898802525
-0.185304252914
-0.186901877646
-0.186340500855
-0.185787082121
-0.18523648652
-0.184683104377
-0.185807458209
-0.185391888332
-0.18495911371
-0.184503482972
-0.184020554056
-0.184923209754
-0.184641339755
-0.184298520389
-0.183898107644
-0.183444305928
-0.184559097502
-0.184242993135
-0.183862996564
-0.18342481861
-0.182933368851
-0.170117280467
-0.170808855415
-0.170795061732
-0.171510216691
-0.171494710585
-0.171480988945
-0.172221284441
-0.172203911611
-0.172188414357
-0.172195756906
-0.172941913663
-0.172922524507
-0.172905159704
-0.172912859124
-0.172953028995
-0.173650196168
-0.173630907414
-0.173639190967
-0.173682691273
-0.173760601655
-0.174365228113
-0.174374411572
-0.174421861319
-0.17450587813
-0.174617898678
-0.175118298665
-0.175170476242
-0.17526151253
-0.175381129079
-0.175514189403
-0.175928425749
-0.176027585007
-0.176155721303
-0.176295710398
-0.176430399716
-0.17680436951
-0.176942034846
-0.17708948023
-0.17722817235
-0.177344124012
-0.177741547653
-0.177896995707
-0.17803979055
-0.178155641933
-0.178236632744
-0.178720533798
-0.178867020075
-0.178981850456
-0.179058047359
-0.179094400544
-0.179713614051
-0.179826567764
-0.179896947466
-0.179924865142
-0.179913799931
-0.180694990298
-0.180758202906
-0.180776470248
-0.180754578502
-0.180697926591
-0.181648978845
-0.181655611695
-0.181620801338
-0.181551741232
-0.181454847101
-0.18257282265
-0.182522998029
-0.182438913042
-0.182327735216
-0.182193802759