/*--------------------------------*- C++ -*----------------------------------*\
| =========                 |                                                 |
| \\      /  F ield         | OpenFOAM: The Open Source CFD Toolbox           |
|  \\    /   O peration     | Version:  2212                                  |
|   \\  /    A nd           | Website:  www.openfoam.com                      |
|    \\/     M anipulation  |                                                 |
\*---------------------------------------------------------------------------*/
FoamFile
{
    version     2.0;
    format      ascii;
    arch        "LSB;label=64;scalar=64";
    class       volScalarField::Internal;
    location    "80";
    object      dGco2;
}
// * * * * * * * * * * * * * * * * * * * * * * * * * * * * * * * * * * * * * //

dimensions      [1 -3 -1 0 0 0 0];

value           nonuniform List<scalar> 
1024
(
0.000208871
0.000208883
0.000208911
0.000208959
0.000209022
0.000209093
0.000209165
0.000209233
0.000209296
0.000209354
0.000209408
0.000209446
0.000209465
0.000209678
0.000211016
0.000213631
0.000215419
0.000215753
0.000215054
0.000214395
0.000213798
0.000213266
0.00021279
0.000212358
0.000211957
0.00021158
0.00021123
0.000210924
0.000210682
0.000210512
0.000210413
0.000210371
0.00020887
0.000208883
0.000208913
0.000208963
0.000209027
0.000209098
0.000209168
0.000209234
0.000209295
0.000209354
0.00020941
0.000209449
0.000209468
0.000209692
0.00021109
0.000213752
0.000215524
0.000215852
0.000215129
0.000214458
0.000213857
0.000213323
0.000212846
0.000212415
0.000212014
0.000211635
0.00021128
0.000210966
0.000210711
0.000210531
0.000210426
0.000210381
0.000208869
0.000208883
0.000208915
0.000208966
0.00020903
0.000209099
0.000209166
0.000209228
0.000209291
0.000209353
0.000209413
0.000209455
0.000209474
0.000209719
0.000211206
0.000213938
0.000215721
0.000216068
0.000215282
0.000214567
0.000213946
0.000213405
0.000212929
0.0002125
0.000212103
0.000211725
0.000211366
0.000211038
0.000210766
0.000210569
0.000210451
0.000210402
0.000208865
0.00020888
0.000208913
0.000208963
0.000209024
0.000209089
0.000209151
0.000209211
0.000209276
0.000209347
0.000209417
0.000209465
0.000209487
0.000209754
0.000211328
0.000214138
0.000215997
0.000216394
0.000215502
0.000214699
0.000214035
0.000213478
0.000213
0.000212577
0.000212188
0.000211817
0.000211458
0.000211122
0.000210833
0.000210617
0.000210487
0.000210432
0.000208856
0.000208871
0.000208902
0.000208948
0.000209004
0.000209061
0.000209117
0.000209177
0.000209249
0.000209334
0.00020942
0.000209478
0.000209506
0.000209793
0.00021143
0.000214313
0.000216337
0.000216782
0.000215752
0.000214822
0.000214089
0.000213504
0.000213022
0.000212607
0.000212233
0.000211877
0.000211527
0.000211189
0.000210891
0.000210663
0.000210523
0.000210464
0.000208839
0.000208853
0.000208881
0.00020892
0.000208966
0.000209014
0.000209063
0.000209123
0.000209205
0.00020931
0.000209418
0.000209492
0.00020953
0.000209832
0.000211498
0.000214441
0.000216733
0.000217161
0.000215978
0.000214895
0.000214073
0.000213452
0.000212965
0.000212562
0.000212208
0.000211875
0.000211544
0.000211218
0.000210923
0.000210694
0.000210551
0.000210491
0.00020881
0.000208823
0.000208846
0.000208876
0.000208911
0.000208947
0.000208989
0.000209052
0.000209149
0.000209278
0.000209409
0.000209502
0.000209555
0.000209867
0.000211526
0.00021452
0.000217188
0.000217483
0.000216132
0.000214876
0.000213953
0.000213294
0.000212805
0.000212422
0.000212098
0.000211796
0.000211495
0.000211193
0.000210917
0.0002107
0.000210563
0.000210504
0.000208763
0.000208775
0.000208795
0.000208817
0.000208839
0.000208863
0.0002089
0.000208969
0.000209087
0.000209243
0.000209394
0.000209504
0.000209578
0.0002099
0.000211522
0.000214574
0.000217724
0.000217744
0.000216204
0.000214752
0.000213709
0.000213011
0.000212532
0.00021218
0.000211896
0.000211637
0.000211378
0.000211114
0.000210869
0.000210675
0.000210552
0.000210498
0.00020869
0.000208702
0.00020872
0.000208737
0.000208751
0.000208768
0.000208806
0.000208891
0.000209039
0.000209221
0.000209383
0.0002095
0.000209595
0.000209934
0.000211505
0.000214654
0.000218345
0.000217956
0.000216221
0.000214548
0.000213356
0.000212613
0.000212151
0.000211842
0.00021161
0.000211405
0.000211198
0.000210984
0.000210782
0.00021062
0.000210514
0.000210465
0.000208588
0.000208599
0.000208615
0.000208631
0.000208647
0.000208672
0.00020873
0.00020885
0.000209035
0.000209234
0.000209386
0.000209495
0.000209611
0.000209979
0.000211511
0.00021484
0.000218996
0.000218124
0.000216243
0.000214341
0.000212951
0.000212135
0.000211687
0.000211429
0.000211257
0.000211115
0.00021097
0.000210813
0.00021066
0.000210532
0.000210445
0.000210401
0.000208508
0.000208512
0.000208523
0.00020854
0.000208572
0.000208631
0.00020874
0.000208912
0.000209124
0.000209307
0.000209416
0.000209499
0.000209635
0.000210057
0.0002116
0.000215241
0.000219546
0.000218246
0.000216356
0.00021425
0.0002126
0.000211647
0.000211187
0.000210974
0.000210865
0.000210789
0.000210707
0.00021061
0.000210505
0.000210411
0.00021034
0.000210301
0.000208646
0.000208644
0.00020865
0.000208676
0.000208735
0.000208839
0.000208991
0.000209177
0.000209344
0.000209437
0.000209463
0.000209518
0.000209689
0.000210208
0.000211882
0.000215985
0.000219841
0.00021834
0.000216672
0.000214444
0.000212471
0.000211263
0.000210718
0.000210523
0.000210466
0.00021045
0.000210427
0.000210381
0.000210317
0.00021025
0.000210192
0.000210157
0.00020923
0.000209234
0.000209249
0.000209287
0.000209351
0.000209439
0.000209533
0.000209601
0.0002096
0.000209532
0.000209476
0.00020954
0.000209805
0.000210525
0.000212564
0.000217152
0.000219748
0.000218435
0.000217307
0.000215147
0.000212828
0.000211191
0.000210394
0.000210135
0.000210102
0.000210126
0.000210141
0.000210128
0.00021009
0.000210039
0.000209989
0.000209956
0.000210042
0.00021005
0.000210062
0.000210071
0.000210067
0.000210033
0.000209948
0.000209801
0.000209607
0.000209454
0.000209448
0.000209632
0.000210109
0.000211245
0.000213917
0.000218419
0.000219081
0.000218424
0.000218268
0.000216655
0.000214178
0.000211935
0.000210544
0.000209941
0.0002098
0.000209826
0.000209865
0.000209861
0.000209818
0.000209758
0.000209705
0.000209676
0.000210544
0.000210535
0.000210503
0.000210432
0.000210303
0.000210105
0.000209853
0.0002096
0.000209429
0.000209406
0.000209575
0.000210004
0.000210881
0.000212637
0.000215749
0.000218797
0.000217526
0.000217752
0.000219049
0.000219028
0.000217336
0.000214837
0.000212547
0.000210912
0.000209924
0.000209414
0.000209201
0.000209166
0.000209232
0.000209344
0.000209454
0.000209519
0.000210755
0.000210728
0.000210656
0.000210517
0.000210297
0.000210004
0.000209686
0.00020943
0.000209337
0.000209491
0.000209939
0.000210748
0.000212099
0.000214245
0.000216857
0.000217417
0.000214764
0.000215196
0.000217799
0.000220492
0.000221729
0.000221249
0.000219746
0.000217974
0.000216379
0.000215158
0.00021435
0.000213927
0.00021381
0.000213886
0.000214021
0.000214111
0.000211064
0.000211038
0.00021097
0.000210839
0.000210626
0.000210329
0.000209977
0.000209654
0.00020949
0.000209638
0.00021021
0.000211261
0.000212842
0.000214878
0.000216472
0.000215254
0.000211848
0.000210966
0.000212729
0.000216345
0.000220457
0.000223778
0.000225783
0.000226624
0.000226689
0.000226334
0.000225823
0.000225306
0.000224874
0.000224576
0.000224407
0.000224339
0.000211303
0.000211291
0.000211258
0.00021119
0.000211069
0.000210875
0.000210603
0.000210293
0.000210054
0.000210061
0.000210499
0.000211475
0.000212979
0.000214757
0.000215818
0.000214387
0.000211344
0.000209747
0.000210002
0.000211884
0.000215106
0.000219064
0.000222952
0.000226168
0.000228485
0.000229932
0.000230657
0.000230855
0.000230737
0.000230497
0.000230279
0.000230162
0.000211375
0.000211379
0.000211385
0.000211388
0.000211373
0.000211318
0.000211201
0.000211019
0.000210827
0.000210758
0.000211011
0.000211744
0.000212974
0.000214429
0.000215218
0.000213961
0.000211467
0.00021007
0.000210291
0.000211814
0.000214349
0.000217696
0.000221499
0.000225221
0.000228388
0.000230748
0.000232267
0.000233066
0.000233339
0.000233308
0.000233172
0.000233069
0.00021129
0.000211307
0.000211345
0.000211402
0.000211471
0.000211536
0.000211571
0.000211557
0.000211502
0.000211477
0.000211636
0.000212134
0.000213028
0.000214101
0.00021461
0.000213439
0.000211347
0.000210245
0.000210608
0.000212135
0.000214516
0.00021761
0.000221267
0.000225133
0.000228732
0.000231663
0.000233736
0.000234976
0.000235546
0.000235675
0.000235598
0.000235504
0.000211089
0.000211116
0.000211175
0.000211266
0.000211386
0.000211524
0.000211662
0.000211781
0.000211868
0.000211946
0.000212104
0.000212454
0.000213051
0.000213739
0.000213935
0.000212815
0.000211167
0.00021055
0.000211279
0.000213016
0.000215412
0.000218326
0.000221723
0.000225436
0.000229101
0.000232302
0.000234747
0.000236353
0.000237212
0.000237526
0.000237538
0.000237469
0.000210831
0.000210862
0.000210929
0.000211033
0.000211172
0.000211338
0.00021152
0.000211705
0.000211878
0.00021204
0.000212226
0.000212493
0.000212868
0.000213235
0.000213176
0.000212201
0.000211136
0.000211145
0.000212324
0.000214315
0.000216771
0.000219554
0.000222684
0.000226123
0.000229648
0.000232903
0.000235556
0.000237428
0.000238529
0.000239013
0.000239114
0.000239073
0.00021061
0.000210634
0.00021069
0.000210782
0.000210909
0.000211065
0.000211242
0.000211432
0.000211624
0.000211813
0.000212005
0.000212216
0.000212446
0.00021261
0.000212468
0.00021185
0.000211533
0.000212243
0.000213867
0.000216063
0.000218534
0.000221166
0.000224009
0.000227109
0.000230363
0.000233508
0.00023623
0.000238283
0.000239587
0.00024023
0.00024042
0.000240407
0.000210588
0.000210588
0.0002106
0.000210639
0.000210715
0.000210829
0.000210973
0.000211138
0.000211314
0.000211494
0.000211673
0.00021185
0.000212022
0.000212153
0.000212168
0.000212138
0.000212662
0.000214033
0.000216005
0.000218297
0.000220695
0.000223124
0.000225651
0.000228376
0.000231284
0.000234204
0.000236868
0.000239011
0.00024047
0.000241257
0.000241533
0.000241549
0.000211007
0.000210956
0.000210879
0.000210814
0.000210796
0.000210844
0.000210956
0.000211117
0.000211308
0.000211509
0.000211709
0.000211911
0.000212134
0.000212408
0.000212788
0.000213458
0.00021475
0.000216614
0.000218764
0.000221015
0.000223239
0.000225408
0.000227596
0.000229922
0.000232434
0.000235045
0.000237545
0.000239678
0.000241233
0.000242139
0.000242501
0.000242546
0.000212146
0.000212017
0.000211811
0.000211605
0.000211475
0.00021147
0.000211597
0.000211832
0.00021213
0.000212443
0.00021275
0.000213063
0.000213433
0.000213954
0.00021476
0.000216036
0.000217853
0.000219955
0.000222088
0.000224162
0.000226128
0.00022799
0.000229824
0.000231746
0.000233836
0.000236074
0.000238317
0.000240342
0.000241917
0.00024291
0.000243349
0.000243428
0.000214235
0.000214017
0.000213686
0.000213368
0.000213179
0.000213199
0.000213436
0.00021384
0.000214335
0.000214843
0.000215326
0.000215801
0.000216346
0.000217096
0.00021821
0.000219827
0.000221836
0.000223906
0.000225845
0.00022764
0.000229289
0.000230819
0.000232299
0.000233828
0.000235493
0.00023732
0.000239231
0.000241054
0.000242566
0.000243593
0.000244096
0.000244209
0.000217406
0.000217119
0.000216749
0.000216453
0.000216349
0.000216514
0.000216939
0.000217549
0.000218248
0.000218942
0.000219583
0.000220188
0.000220845
0.000221698
0.000222897
0.000224536
0.000226424
0.000228244
0.000229868
0.00023132
0.000232627
0.000233823
0.000234963
0.000236124
0.000237385
0.000238792
0.00024032
0.000241857
0.000243218
0.000244215
0.000244753
0.000244899
0.000221712
0.000221428
0.000221194
0.00022112
0.000221253
0.000221629
0.000222221
0.000222958
0.00022375
0.000224514
0.000225205
0.000225836
0.000226485
0.000227279
0.000228347
0.000229748
0.000231296
0.000232732
0.000233977
0.000235067
0.000236035
0.000236912
0.000237739
0.000238569
0.000239464
0.000240471
0.000241598
0.000242789
0.000243916
0.000244806
0.000245336
0.000245505
0.00022721
0.000227063
0.000227156
0.000227413
0.000227787
0.00022829
0.000228908
0.000229602
0.000230313
0.000230984
0.000231581
0.000232113
0.000232637
0.000233249
0.000234044
0.00023506
0.000236161
0.000237162
0.000238016
0.000238755
0.000239406
0.000239991
0.000240538
0.000241081
0.000241659
0.00024231
0.000243053
0.000243872
0.000244695
0.0002454
0.000245862
0.000246034
0.000234066
0.000234193
0.000234581
0.000234989
0.000235394
0.000235821
0.000236279
0.000236758
0.000237235
0.000237678
0.000238069
0.000238411
0.000238738
0.000239106
0.000239574
0.000240165
0.0002408
0.000241373
0.000241858
0.000242275
0.000242641
0.000242969
0.000243273
0.000243572
0.000243886
0.000244238
0.000244642
0.0002451
0.000245585
0.000246032
0.000246357
0.000246497
0.000242526
0.000242646
0.000242868
0.000243063
0.000243236
0.000243403
0.000243569
0.000243738
0.000243903
0.000244055
0.000244188
0.000244304
0.000244413
0.000244533
0.000244683
0.000244873
0.000245076
0.000245259
0.000245414
0.000245547
0.000245663
0.000245766
0.000245862
0.000245956
0.000246053
0.000246162
0.000246286
0.000246428
0.000246583
0.000246732
0.00024685
0.000246908
)
;


// ************************************************************************* //
