/*--------------------------------*- C++ -*----------------------------------*\
| =========                 |                                                 |
| \\      /  F ield         | OpenFOAM: The Open Source CFD Toolbox           |
|  \\    /   O peration     | Version:  2212                                  |
|   \\  /    A nd           | Website:  www.openfoam.com                      |
|    \\/     M anipulation  |                                                 |
\*---------------------------------------------------------------------------*/
FoamFile
{
    version     2.0;
    format      ascii;
    arch        "LSB;label=64;scalar=64";
    class       volScalarField;
    location    "80";
    object      Gco2;
}
// * * * * * * * * * * * * * * * * * * * * * * * * * * * * * * * * * * * * * //

dimensions      [1 -3 0 0 0 0 0];

internalField   nonuniform List<scalar> 
1024
(
0.0303516
0.0303457
0.0303326
0.0303116
0.030284
0.030253
0.0302221
0.0301931
0.0301659
0.0301407
0.0301171
0.0301002
0.0300892
0.0299803
0.0293604
0.0281991
0.0274318
0.0272971
0.0276026
0.027892
0.0281546
0.0283896
0.0286003
0.0287918
0.0289697
0.0291374
0.0292928
0.0294288
0.0295369
0.0296125
0.0296567
0.0296753
0.0303511
0.030345
0.0303314
0.0303097
0.0302818
0.0302511
0.0302209
0.0301927
0.030166
0.0301405
0.0301165
0.0300992
0.0300883
0.0299733
0.029326
0.0281456
0.0273857
0.0272547
0.0275702
0.0278644
0.028129
0.0283645
0.0285752
0.0287666
0.0289445
0.0291129
0.0292706
0.0294106
0.0295237
0.0296038
0.029651
0.0296709
0.0303509
0.0303446
0.0303304
0.0303082
0.0302805
0.0302508
0.0302219
0.0301949
0.0301682
0.0301413
0.0301152
0.0300968
0.0300855
0.0299603
0.0292728
0.0280626
0.0272991
0.0271618
0.0275043
0.0278173
0.0280902
0.0283283
0.0285388
0.0287288
0.0289051
0.0290728
0.0292326
0.0293783
0.0294993
0.029587
0.0296394
0.0296615
0.030352
0.0303456
0.0303313
0.0303095
0.030283
0.0302552
0.0302285
0.0302024
0.0301745
0.0301441
0.0301137
0.0300926
0.03008
0.0299435
0.0292165
0.0279732
0.0271771
0.0270215
0.0274101
0.027761
0.0280524
0.0282971
0.0285079
0.0286951
0.0288674
0.0290318
0.0291913
0.0293411
0.0294697
0.0295654
0.0296236
0.0296481
0.0303554
0.0303491
0.0303357
0.0303157
0.0302917
0.0302671
0.0302428
0.0302173
0.0301866
0.0301502
0.0301129
0.030087
0.0300715
0.0299251
0.0291692
0.0278946
0.0270251
0.0268549
0.0273037
0.0277094
0.0280302
0.0282867
0.0284989
0.028682
0.0288477
0.0290056
0.029161
0.029311
0.0294436
0.0295449
0.0296073
0.0296336
0.0303625
0.0303566
0.0303448
0.0303278
0.030308
0.0302875
0.0302662
0.0302405
0.0302054
0.0301606
0.0301142
0.0300813
0.0300608
0.0299071
0.0291379
0.0278365
0.0268476
0.0266924
0.0272088
0.0276807
0.0280395
0.0283114
0.0285254
0.0287026
0.0288589
0.0290065
0.0291535
0.0292983
0.0294294
0.0295312
0.0295947
0.0296216
0.0303749
0.0303694
0.0303595
0.0303464
0.0303317
0.0303164
0.0302983
0.0302717
0.0302302
0.030175
0.0301184
0.0300772
0.0300494
0.0298909
0.0291248
0.0278
0.026644
0.026555
0.0271457
0.0276926
0.0280955
0.0283836
0.0285973
0.0287655
0.0289085
0.0290418
0.0291753
0.0293091
0.0294321
0.0295287
0.0295895
0.0296156
0.0303951
0.0303898
0.0303815
0.0303721
0.0303626
0.0303524
0.0303368
0.0303076
0.0302572
0.0301904
0.0301249
0.0300762
0.0300391
0.0298764
0.029127
0.027775
0.0264081
0.0264456
0.0271191
0.0277516
0.0282063
0.0285104
0.0287198
0.0288739
0.0289987
0.0291128
0.0292277
0.0293445
0.0294532
0.0295395
0.0295944
0.0296186
0.0304265
0.0304211
0.0304136
0.0304065
0.0304006
0.0303934
0.0303777
0.0303418
0.0302788
0.0302005
0.0301302
0.0300778
0.0300307
0.0298618
0.0291358
0.0277389
0.0261414
0.026359
0.0271164
0.0278453
0.0283652
0.0286888
0.0288903
0.0290249
0.0291264
0.0292162
0.0293076
0.0294023
0.0294919
0.0295642
0.0296113
0.0296332
0.0304707
0.0304659
0.0304589
0.030452
0.0304456
0.0304354
0.0304113
0.0303605
0.0302814
0.0301955
0.0301287
0.0300794
0.030023
0.0298423
0.0291352
0.0276568
0.0258714
0.0262932
0.0271113
0.0279403
0.0285464
0.0289023
0.0290971
0.0292092
0.0292835
0.0293454
0.0294094
0.0294786
0.0295465
0.0296032
0.0296421
0.0296615
0.0305062
0.0305043
0.0305
0.0304924
0.0304793
0.0304546
0.0304089
0.0303352
0.0302442
0.0301645
0.0301154
0.0300768
0.0300106
0.0298079
0.0290978
0.0274817
0.0256535
0.0262472
0.0270648
0.0279834
0.0287044
0.0291203
0.0293199
0.0294117
0.0294583
0.0294909
0.0295263
0.0295692
0.0296154
0.0296571
0.0296885
0.0297058
0.0304476
0.0304487
0.0304466
0.0304359
0.0304109
0.030367
0.030302
0.030222
0.0301491
0.0301068
0.0300932
0.0300662
0.029984
0.0297403
0.028975
0.0271587
0.0255498
0.026211
0.0269278
0.0279002
0.0287645
0.0292925
0.0295292
0.0296127
0.0296358
0.0296418
0.0296512
0.0296711
0.029699
0.0297288
0.0297546
0.0297702
0.0301941
0.0301927
0.0301864
0.0301709
0.0301438
0.0301064
0.0300659
0.0300356
0.0300348
0.0300622
0.0300842
0.0300526
0.0299295
0.029598
0.0286759
0.0266591
0.0256134
0.0261725
0.0266496
0.0275935
0.0286112
0.0293279
0.0296743
0.029785
0.0297976
0.0297858
0.0297787
0.0297841
0.0298003
0.0298227
0.0298451
0.0298597
0.0298393
0.0298363
0.0298316
0.029828
0.0298301
0.0298454
0.0298819
0.0299448
0.0300273
0.0300919
0.0300926
0.030008
0.0297913
0.0292785
0.0280852
0.0261332
0.0259233
0.0261804
0.0262288
0.0269319
0.0280224
0.0290072
0.0296135
0.029873
0.0299314
0.0299179
0.0298998
0.0299009
0.0299202
0.0299473
0.029971
0.0299843
0.029622
0.0296261
0.0296401
0.0296715
0.0297279
0.0298135
0.0299218
0.0300294
0.0301013
0.0301093
0.0300328
0.0298408
0.029448
0.0286655
0.0272952
0.0260121
0.0266171
0.0264795
0.0258855
0.0258869
0.0266363
0.027741
0.0287473
0.029462
0.0298907
0.0301105
0.0302008
0.0302145
0.0301852
0.0301362
0.0300882
0.0300601
0.0295323
0.0295442
0.0295761
0.029637
0.0297328
0.0298595
0.0299951
0.0301018
0.0301366
0.0300649
0.0298656
0.0295076
0.0289097
0.027965
0.0268359
0.0266511
0.0278274
0.0276026
0.0264278
0.0252274
0.0246873
0.0249122
0.0255854
0.0263717
0.0270746
0.0276106
0.0279629
0.0281459
0.0281944
0.0281586
0.0280974
0.0280571
0.0293972
0.0294089
0.0294397
0.0294985
0.029593
0.0297235
0.0298758
0.0300124
0.0300766
0.0300033
0.0297454
0.0292799
0.0285847
0.0276957
0.0270206
0.027595
0.029084
0.0294461
0.0286406
0.0270224
0.0252002
0.0237424
0.0228744
0.0225202
0.0225039
0.0226685
0.0228987
0.0231291
0.0233195
0.0234501
0.0235237
0.0235533
0.0292888
0.0292948
0.0293107
0.0293427
0.0293991
0.0294878
0.0296095
0.0297451
0.0298458
0.0298349
0.0296333
0.0291975
0.0285335
0.0277563
0.0273048
0.0279478
0.0292739
0.0299592
0.0298266
0.028975
0.0275359
0.0257817
0.0240705
0.0226641
0.021657
0.0210324
0.0207239
0.0206448
0.0207026
0.0208119
0.0209098
0.0209623
0.0292522
0.0292513
0.0292502
0.0292518
0.0292624
0.0292915
0.0293485
0.0294324
0.0295184
0.0295459
0.0294283
0.0290986
0.0285511
0.0279084
0.027563
0.0281136
0.0292017
0.0298084
0.0296987
0.0290112
0.0278767
0.0263885
0.0247085
0.0230736
0.0216887
0.0206604
0.0200009
0.0196565
0.019541
0.0195577
0.0196195
0.0196652
0.0292849
0.0292779
0.0292627
0.02924
0.0292132
0.0291899
0.0291803
0.0291926
0.0292221
0.0292356
0.0291644
0.0289398
0.0285388
0.0280574
0.0278236
0.0283277
0.0292425
0.0297263
0.0295614
0.0288785
0.0278157
0.0264398
0.0248222
0.0231205
0.0215433
0.0202628
0.0193588
0.0188192
0.018572
0.0185171
0.0185514
0.0185927
0.0293692
0.0293579
0.0293332
0.0292949
0.0292448
0.0291876
0.0291311
0.0290841
0.0290517
0.0290222
0.0289547
0.0287983
0.0285281
0.0282128
0.0281105
0.0285903
0.0293135
0.0295891
0.029269
0.0284987
0.0274339
0.0261399
0.0246369
0.0230014
0.0213924
0.019991
0.0189217
0.01822
0.0178447
0.0177077
0.0177026
0.0177326
0.0294792
0.0294661
0.0294375
0.0293929
0.0293334
0.0292624
0.0291846
0.0291063
0.0290338
0.0289664
0.0288867
0.0287681
0.0285967
0.0284235
0.0284338
0.0288526
0.029324
0.0293274
0.0288128
0.0279353
0.0268476
0.0256137
0.0242294
0.0227134
0.0211641
0.0197363
0.0185739
0.0177537
0.0172712
0.0170586
0.017014
0.0170318
0.0295735
0.029563
0.0295391
0.0294996
0.0294449
0.029377
0.0292998
0.0292171
0.0291338
0.029052
0.0289682
0.0288741
0.0287681
0.0286863
0.0287381
0.0290054
0.0291504
0.028847
0.0281382
0.0271728
0.0260812
0.0249161
0.0236587
0.0222911
0.0208595
0.019478
0.0182836
0.0173824
0.0168101
0.0165273
0.0164436
0.0164489
0.0295802
0.0295804
0.0295755
0.0295587
0.0295256
0.0294759
0.0294126
0.0293395
0.0292615
0.0291823
0.0291033
0.0290238
0.0289449
0.0288815
0.028869
0.0288818
0.0286579
0.0280631
0.0272016
0.0261947
0.0251372
0.0240632
0.022945
0.0217422
0.0204617
0.0191777
0.0180069
0.0170656
0.0164243
0.0160784
0.0159564
0.0159493
0.0293928
0.0294152
0.029449
0.0294775
0.0294849
0.0294635
0.0294136
0.0293416
0.029257
0.0291688
0.0290814
0.0289924
0.0288933
0.0287708
0.0286013
0.0283076
0.0277446
0.026931
0.02599
0.0250017
0.0240215
0.0230633
0.0220953
0.0210678
0.0199604
0.0188114
0.017712
0.0167744
0.0160907
0.0156918
0.0155326
0.0155124
0.0288898
0.0289458
0.0290354
0.0291247
0.0291802
0.0291807
0.0291228
0.0290182
0.0288877
0.0287516
0.0286197
0.0284852
0.0283241
0.0280953
0.0277405
0.0271797
0.0263834
0.0254633
0.0245287
0.0236177
0.022752
0.0219295
0.0211183
0.0202689
0.0193468
0.0183611
0.0173738
0.0164835
0.0157905
0.0153539
0.0151605
0.015126
0.02797
0.0280649
0.0282083
0.0283449
0.028424
0.0284117
0.0283046
0.0281253
0.027909
0.0276894
0.027483
0.0272803
0.027045
0.0267176
0.026228
0.0255164
0.0246335
0.0237258
0.0228748
0.0220867
0.0213606
0.0206849
0.0200304
0.0193546
0.0186193
0.0178142
0.0169726
0.016171
0.015506
0.0150541
0.014833
0.0147833
0.0265754
0.0267001
0.02686
0.0269853
0.0270253
0.0269475
0.0267569
0.0264869
0.0261817
0.0258818
0.0256074
0.025349
0.0250665
0.0246952
0.024168
0.0234466
0.0226156
0.0218164
0.0211036
0.0204655
0.0198901
0.0193623
0.0188582
0.0183447
0.0177877
0.0171675
0.0164944
0.0158178
0.0152192
0.0147808
0.0145444
0.0144803
0.0246821
0.0248055
0.0249052
0.0249324
0.0248678
0.0246966
0.0244322
0.0241068
0.0237604
0.0234295
0.0231331
0.0228635
0.0225848
0.0222393
0.0217702
0.0211532
0.0204715
0.0198402
0.0192935
0.0188144
0.0183885
0.0180017
0.0176363
0.0172689
0.0168734
0.0164292
0.0159328
0.0154082
0.0149129
0.0145211
0.0142885
0.0142141
0.022264
0.0223278
0.022284
0.0221668
0.0219972
0.021771
0.0214956
0.0211894
0.0208779
0.0205867
0.0203296
0.0201018
0.0198767
0.019611
0.0192624
0.0188144
0.0183299
0.0178897
0.0175146
0.0171897
0.0169034
0.0166452
0.0164035
0.0161634
0.0159075
0.0156202
0.0152929
0.0149325
0.0145703
0.0142602
0.0140571
0.0139816
0.0192482
0.0191917
0.0190193
0.0188376
0.0186562
0.0184652
0.0182614
0.0180495
0.0178406
0.0176479
0.0174793
0.0173326
0.0171922
0.0170323
0.0168272
0.0165667
0.0162873
0.0160353
0.0158222
0.0156386
0.0154777
0.0153332
0.0151988
0.0150668
0.0149277
0.0147723
0.014594
0.0143924
0.0141792
0.0139826
0.01384
0.0137785
0.0155258
0.0154728
0.0153749
0.0152882
0.015211
0.0151368
0.0150626
0.0149881
0.0149158
0.0148495
0.0147919
0.0147422
0.0146956
0.0146435
0.0145774
0.0144939
0.0144044
0.0143239
0.014256
0.0141976
0.0141466
0.0141008
0.0140585
0.0140171
0.013974
0.0139261
0.0138712
0.0138086
0.0137408
0.0136751
0.0136232
0.0135977
)
;

boundaryField
{
    movingWall
    {
        type            fixedValue;
        value           uniform 0.0135;
    }
    fixedWalls
    {
        type            zeroGradient;
    }
    floor
    {
        type            zeroGradient;
    }
    frontAndBack
    {
        type            empty;
    }
}


// ************************************************************************* //
