/*--------------------------------*- C++ -*----------------------------------*\
| =========                 |                                                 |
| \\      /  F ield         | OpenFOAM: The Open Source CFD Toolbox           |
|  \\    /   O peration     | Version:  2212                                  |
|   \\  /    A nd           | Website:  www.openfoam.com                      |
|    \\/     M anipulation  |                                                 |
\*---------------------------------------------------------------------------*/
FoamFile
{
    version     2.0;
    format      ascii;
    arch        "LSB;label=64;scalar=64";
    class       volScalarField;
    location    "80";
    object      Gh2;
}
// * * * * * * * * * * * * * * * * * * * * * * * * * * * * * * * * * * * * * //

dimensions      [1 -3 0 0 0 0 0];

internalField   nonuniform List<scalar> 
1024
(
1.152e-05
1.15198e-05
1.15194e-05
1.15188e-05
1.15179e-05
1.1517e-05
1.1516e-05
1.15151e-05
1.15143e-05
1.15135e-05
1.15128e-05
1.15123e-05
1.15119e-05
1.15087e-05
1.14901e-05
1.14554e-05
1.14325e-05
1.14286e-05
1.14377e-05
1.14464e-05
1.14542e-05
1.14612e-05
1.14674e-05
1.14731e-05
1.14784e-05
1.14834e-05
1.14881e-05
1.14921e-05
1.14954e-05
1.14976e-05
1.1499e-05
1.14995e-05
1.152e-05
1.15198e-05
1.15194e-05
1.15187e-05
1.15178e-05
1.15169e-05
1.1516e-05
1.15151e-05
1.15143e-05
1.15135e-05
1.15128e-05
1.15122e-05
1.15119e-05
1.15085e-05
1.14891e-05
1.14538e-05
1.14311e-05
1.14274e-05
1.14368e-05
1.14455e-05
1.14534e-05
1.14604e-05
1.14667e-05
1.14724e-05
1.14777e-05
1.14827e-05
1.14874e-05
1.14916e-05
1.1495e-05
1.14974e-05
1.14988e-05
1.14994e-05
1.152e-05
1.15198e-05
1.15193e-05
1.15187e-05
1.15178e-05
1.15169e-05
1.1516e-05
1.15152e-05
1.15144e-05
1.15136e-05
1.15127e-05
1.15122e-05
1.15118e-05
1.15081e-05
1.14875e-05
1.14513e-05
1.14285e-05
1.14246e-05
1.14348e-05
1.14442e-05
1.14523e-05
1.14594e-05
1.14656e-05
1.14713e-05
1.14765e-05
1.14815e-05
1.14863e-05
1.14906e-05
1.14943e-05
1.14969e-05
1.14984e-05
1.14991e-05
1.152e-05
1.15198e-05
1.15194e-05
1.15187e-05
1.15179e-05
1.1517e-05
1.15162e-05
1.15154e-05
1.15146e-05
1.15136e-05
1.15127e-05
1.1512e-05
1.15117e-05
1.15076e-05
1.14858e-05
1.14486e-05
1.14249e-05
1.14205e-05
1.14321e-05
1.14425e-05
1.14512e-05
1.14585e-05
1.14647e-05
1.14703e-05
1.14754e-05
1.14803e-05
1.14851e-05
1.14895e-05
1.14934e-05
1.14962e-05
1.1498e-05
1.14987e-05
1.15201e-05
1.15199e-05
1.15195e-05
1.15189e-05
1.15182e-05
1.15174e-05
1.15167e-05
1.15159e-05
1.1515e-05
1.15138e-05
1.15127e-05
1.15119e-05
1.15114e-05
1.1507e-05
1.14844e-05
1.14463e-05
1.14204e-05
1.14156e-05
1.1429e-05
1.14411e-05
1.14506e-05
1.14582e-05
1.14645e-05
1.14699e-05
1.14748e-05
1.14795e-05
1.14842e-05
1.14886e-05
1.14926e-05
1.14956e-05
1.14975e-05
1.14983e-05
1.15203e-05
1.15201e-05
1.15198e-05
1.15193e-05
1.15187e-05
1.1518e-05
1.15174e-05
1.15166e-05
1.15155e-05
1.15142e-05
1.15127e-05
1.15117e-05
1.15111e-05
1.15065e-05
1.14835e-05
1.14446e-05
1.14152e-05
1.14108e-05
1.14263e-05
1.14403e-05
1.14509e-05
1.1459e-05
1.14653e-05
1.14706e-05
1.14752e-05
1.14796e-05
1.1484e-05
1.14883e-05
1.14922e-05
1.14952e-05
1.14971e-05
1.14979e-05
1.15207e-05
1.15205e-05
1.15202e-05
1.15198e-05
1.15194e-05
1.15189e-05
1.15184e-05
1.15176e-05
1.15163e-05
1.15146e-05
1.15129e-05
1.15116e-05
1.15107e-05
1.1506e-05
1.14831e-05
1.14435e-05
1.14092e-05
1.14068e-05
1.14245e-05
1.14407e-05
1.14527e-05
1.14612e-05
1.14675e-05
1.14725e-05
1.14767e-05
1.14807e-05
1.14846e-05
1.14886e-05
1.14923e-05
1.14951e-05
1.1497e-05
1.14977e-05
1.15213e-05
1.15211e-05
1.15209e-05
1.15206e-05
1.15203e-05
1.152e-05
1.15196e-05
1.15187e-05
1.15171e-05
1.15151e-05
1.15131e-05
1.15116e-05
1.15104e-05
1.15056e-05
1.14832e-05
1.14428e-05
1.14022e-05
1.14037e-05
1.14238e-05
1.14426e-05
1.14561e-05
1.1465e-05
1.14712e-05
1.14758e-05
1.14794e-05
1.14828e-05
1.14862e-05
1.14897e-05
1.14929e-05
1.14955e-05
1.14971e-05
1.14978e-05
1.15223e-05
1.15221e-05
1.15219e-05
1.15217e-05
1.15215e-05
1.15213e-05
1.15208e-05
1.15197e-05
1.15178e-05
1.15154e-05
1.15132e-05
1.15116e-05
1.15102e-05
1.15051e-05
1.14835e-05
1.14418e-05
1.13944e-05
1.14012e-05
1.14238e-05
1.14455e-05
1.14609e-05
1.14704e-05
1.14764e-05
1.14803e-05
1.14833e-05
1.14859e-05
1.14886e-05
1.14914e-05
1.14941e-05
1.14962e-05
1.14976e-05
1.14983e-05
1.15236e-05
1.15235e-05
1.15233e-05
1.15231e-05
1.15229e-05
1.15226e-05
1.15218e-05
1.15203e-05
1.15179e-05
1.15153e-05
1.15132e-05
1.15117e-05
1.151e-05
1.15046e-05
1.14835e-05
1.14394e-05
1.13865e-05
1.13994e-05
1.14238e-05
1.14484e-05
1.14663e-05
1.14768e-05
1.14826e-05
1.14858e-05
1.1488e-05
1.14898e-05
1.14917e-05
1.14937e-05
1.14957e-05
1.14974e-05
1.14985e-05
1.14991e-05
1.15247e-05
1.15247e-05
1.15245e-05
1.15243e-05
1.15239e-05
1.15232e-05
1.15218e-05
1.15195e-05
1.15168e-05
1.15143e-05
1.15128e-05
1.15116e-05
1.15096e-05
1.15035e-05
1.14824e-05
1.14342e-05
1.13801e-05
1.13982e-05
1.14226e-05
1.14498e-05
1.14711e-05
1.14834e-05
1.14892e-05
1.14919e-05
1.14932e-05
1.14941e-05
1.14951e-05
1.14964e-05
1.14978e-05
1.1499e-05
1.14999e-05
1.15005e-05
1.1523e-05
1.1523e-05
1.15229e-05
1.15226e-05
1.15218e-05
1.15205e-05
1.15185e-05
1.15161e-05
1.15139e-05
1.15126e-05
1.15121e-05
1.15113e-05
1.15088e-05
1.15015e-05
1.14787e-05
1.14247e-05
1.13772e-05
1.13973e-05
1.14186e-05
1.14474e-05
1.14729e-05
1.14885e-05
1.14955e-05
1.14979e-05
1.14985e-05
1.14986e-05
1.14989e-05
1.14995e-05
1.15003e-05
1.15012e-05
1.15019e-05
1.15024e-05
1.15152e-05
1.15152e-05
1.1515e-05
1.15145e-05
1.15137e-05
1.15126e-05
1.15113e-05
1.15104e-05
1.15104e-05
1.15112e-05
1.15118e-05
1.15109e-05
1.15072e-05
1.14973e-05
1.14699e-05
1.14099e-05
1.13793e-05
1.13964e-05
1.14105e-05
1.14384e-05
1.14685e-05
1.14896e-05
1.14998e-05
1.1503e-05
1.15033e-05
1.15029e-05
1.15027e-05
1.15028e-05
1.15033e-05
1.1504e-05
1.15046e-05
1.15051e-05
1.15044e-05
1.15043e-05
1.15042e-05
1.15041e-05
1.15041e-05
1.15046e-05
1.15057e-05
1.15076e-05
1.15101e-05
1.15121e-05
1.15121e-05
1.15096e-05
1.15031e-05
1.14878e-05
1.14523e-05
1.13943e-05
1.13888e-05
1.13968e-05
1.13983e-05
1.1419e-05
1.14512e-05
1.14802e-05
1.1498e-05
1.15056e-05
1.15073e-05
1.15069e-05
1.15063e-05
1.15063e-05
1.15069e-05
1.15077e-05
1.15084e-05
1.15088e-05
1.14978e-05
1.14979e-05
1.14984e-05
1.14993e-05
1.15011e-05
1.15037e-05
1.1507e-05
1.15102e-05
1.15124e-05
1.15127e-05
1.15104e-05
1.15046e-05
1.14929e-05
1.14696e-05
1.14288e-05
1.13909e-05
1.14096e-05
1.14059e-05
1.13884e-05
1.13884e-05
1.14104e-05
1.14429e-05
1.14726e-05
1.14936e-05
1.15062e-05
1.15127e-05
1.15153e-05
1.15157e-05
1.15149e-05
1.15134e-05
1.1512e-05
1.15112e-05
1.14951e-05
1.14955e-05
1.14965e-05
1.14983e-05
1.15012e-05
1.15051e-05
1.15092e-05
1.15125e-05
1.15135e-05
1.15114e-05
1.15054e-05
1.14947e-05
1.14769e-05
1.14487e-05
1.14151e-05
1.14099e-05
1.14457e-05
1.14394e-05
1.14048e-05
1.13693e-05
1.13533e-05
1.13598e-05
1.13795e-05
1.14026e-05
1.14233e-05
1.14391e-05
1.14494e-05
1.14548e-05
1.14562e-05
1.14551e-05
1.14533e-05
1.14521e-05
1.1491e-05
1.14914e-05
1.14923e-05
1.14941e-05
1.1497e-05
1.1501e-05
1.15056e-05
1.15098e-05
1.15118e-05
1.15096e-05
1.15019e-05
1.14879e-05
1.14671e-05
1.14406e-05
1.14205e-05
1.14379e-05
1.14828e-05
1.14941e-05
1.14705e-05
1.14228e-05
1.13691e-05
1.1326e-05
1.13003e-05
1.12898e-05
1.12892e-05
1.1294e-05
1.13007e-05
1.13074e-05
1.13129e-05
1.13167e-05
1.13188e-05
1.13196e-05
1.14877e-05
1.14879e-05
1.14884e-05
1.14894e-05
1.14911e-05
1.14939e-05
1.14976e-05
1.15017e-05
1.15048e-05
1.15046e-05
1.14985e-05
1.14855e-05
1.14656e-05
1.14423e-05
1.14288e-05
1.14482e-05
1.14882e-05
1.15091e-05
1.15055e-05
1.14806e-05
1.14382e-05
1.13866e-05
1.13363e-05
1.12949e-05
1.12653e-05
1.12469e-05
1.12377e-05
1.12353e-05
1.12369e-05
1.124e-05
1.12428e-05
1.12443e-05
1.14866e-05
1.14866e-05
1.14866e-05
1.14866e-05
1.1487e-05
1.14879e-05
1.14897e-05
1.14923e-05
1.14949e-05
1.14958e-05
1.14923e-05
1.14825e-05
1.1466e-05
1.14468e-05
1.14364e-05
1.1453e-05
1.14859e-05
1.15044e-05
1.15016e-05
1.14816e-05
1.14483e-05
1.14045e-05
1.13552e-05
1.13072e-05
1.12666e-05
1.12365e-05
1.12172e-05
1.1207e-05
1.12036e-05
1.1204e-05
1.12057e-05
1.1207e-05
1.14876e-05
1.14874e-05
1.1487e-05
1.14863e-05
1.14855e-05
1.14848e-05
1.14846e-05
1.1485e-05
1.14859e-05
1.14864e-05
1.14843e-05
1.14776e-05
1.14656e-05
1.14511e-05
1.14441e-05
1.14593e-05
1.1487e-05
1.1502e-05
1.14975e-05
1.14777e-05
1.14465e-05
1.14061e-05
1.13586e-05
1.13088e-05
1.12626e-05
1.12252e-05
1.11988e-05
1.1183e-05
1.11757e-05
1.11741e-05
1.1175e-05
1.11761e-05
1.14902e-05
1.14898e-05
1.14891e-05
1.14879e-05
1.14864e-05
1.14847e-05
1.1483e-05
1.14817e-05
1.14807e-05
1.14799e-05
1.14779e-05
1.14733e-05
1.14652e-05
1.14557e-05
1.14527e-05
1.14672e-05
1.14892e-05
1.14979e-05
1.14889e-05
1.14665e-05
1.14353e-05
1.13974e-05
1.13533e-05
1.13054e-05
1.12584e-05
1.12175e-05
1.11864e-05
1.11659e-05
1.1155e-05
1.11509e-05
1.11507e-05
1.11515e-05
1.14935e-05
1.14931e-05
1.14923e-05
1.14909e-05
1.14891e-05
1.1487e-05
1.14847e-05
1.14823e-05
1.14802e-05
1.14782e-05
1.14758e-05
1.14723e-05
1.14672e-05
1.1462e-05
1.14623e-05
1.14751e-05
1.14896e-05
1.14903e-05
1.14756e-05
1.145e-05
1.14182e-05
1.1382e-05
1.13415e-05
1.12971e-05
1.12519e-05
1.12103e-05
1.11765e-05
1.11527e-05
1.11386e-05
1.11324e-05
1.11311e-05
1.11315e-05
1.14965e-05
1.14961e-05
1.14954e-05
1.14942e-05
1.14925e-05
1.14905e-05
1.14881e-05
1.14857e-05
1.14832e-05
1.14807e-05
1.14782e-05
1.14755e-05
1.14723e-05
1.14699e-05
1.14715e-05
1.14798e-05
1.14847e-05
1.14763e-05
1.14559e-05
1.14278e-05
1.13959e-05
1.13617e-05
1.13249e-05
1.12849e-05
1.12431e-05
1.12029e-05
1.11683e-05
1.11421e-05
1.11256e-05
1.11173e-05
1.11149e-05
1.1115e-05
1.14968e-05
1.14968e-05
1.14966e-05
1.14961e-05
1.14951e-05
1.14935e-05
1.14916e-05
1.14894e-05
1.14871e-05
1.14847e-05
1.14824e-05
1.148e-05
1.14777e-05
1.14759e-05
1.14757e-05
1.14765e-05
1.14705e-05
1.14535e-05
1.14286e-05
1.13993e-05
1.13684e-05
1.13369e-05
1.13042e-05
1.1269e-05
1.12317e-05
1.11944e-05
1.11604e-05
1.11332e-05
1.11146e-05
1.11046e-05
1.11011e-05
1.11008e-05
1.14916e-05
1.14922e-05
1.14931e-05
1.14939e-05
1.14941e-05
1.14934e-05
1.14918e-05
1.14897e-05
1.14872e-05
1.14846e-05
1.1482e-05
1.14794e-05
1.14765e-05
1.1473e-05
1.14683e-05
1.146e-05
1.1444e-05
1.14206e-05
1.13933e-05
1.13645e-05
1.13359e-05
1.13079e-05
1.12796e-05
1.12496e-05
1.12173e-05
1.11839e-05
1.1152e-05
1.11249e-05
1.11052e-05
1.10937e-05
1.10891e-05
1.10885e-05
1.14771e-05
1.14787e-05
1.14813e-05
1.14838e-05
1.14854e-05
1.14853e-05
1.14836e-05
1.14805e-05
1.14767e-05
1.14727e-05
1.14689e-05
1.14649e-05
1.14603e-05
1.14537e-05
1.14435e-05
1.14274e-05
1.14045e-05
1.13779e-05
1.13508e-05
1.13243e-05
1.1299e-05
1.1275e-05
1.12513e-05
1.12265e-05
1.11996e-05
1.1171e-05
1.11424e-05
1.11167e-05
1.10967e-05
1.10842e-05
1.10786e-05
1.10776e-05
1.14505e-05
1.14532e-05
1.14574e-05
1.14613e-05
1.14636e-05
1.14632e-05
1.146e-05
1.14548e-05
1.14485e-05
1.14421e-05
1.14361e-05
1.14302e-05
1.14234e-05
1.14139e-05
1.13998e-05
1.13793e-05
1.13538e-05
1.13275e-05
1.13028e-05
1.12799e-05
1.12587e-05
1.1239e-05
1.12198e-05
1.12001e-05
1.11787e-05
1.11553e-05
1.11309e-05
1.11078e-05
1.10887e-05
1.10757e-05
1.10694e-05
1.10679e-05
1.14101e-05
1.14137e-05
1.14183e-05
1.1422e-05
1.14231e-05
1.14208e-05
1.14153e-05
1.14074e-05
1.13985e-05
1.13898e-05
1.13819e-05
1.13744e-05
1.13662e-05
1.13554e-05
1.13402e-05
1.13193e-05
1.12953e-05
1.12722e-05
1.12515e-05
1.12329e-05
1.12161e-05
1.12007e-05
1.1186e-05
1.1171e-05
1.11548e-05
1.11368e-05
1.11173e-05
1.10978e-05
1.10806e-05
1.1068e-05
1.10612e-05
1.10594e-05
1.13553e-05
1.13589e-05
1.13618e-05
1.13625e-05
1.13606e-05
1.13557e-05
1.1348e-05
1.13386e-05
1.13285e-05
1.13189e-05
1.13103e-05
1.13025e-05
1.12944e-05
1.12844e-05
1.12708e-05
1.1253e-05
1.12332e-05
1.12149e-05
1.11991e-05
1.11851e-05
1.11727e-05
1.11614e-05
1.11508e-05
1.11401e-05
1.11285e-05
1.11156e-05
1.11013e-05
1.10861e-05
1.10719e-05
1.10607e-05
1.1054e-05
1.10519e-05
1.12853e-05
1.12872e-05
1.12859e-05
1.12825e-05
1.12776e-05
1.1271e-05
1.1263e-05
1.12542e-05
1.12451e-05
1.12367e-05
1.12292e-05
1.12226e-05
1.12161e-05
1.12084e-05
1.11983e-05
1.11853e-05
1.11713e-05
1.11586e-05
1.11477e-05
1.11382e-05
1.11299e-05
1.11223e-05
1.11153e-05
1.11083e-05
1.11008e-05
1.10925e-05
1.1083e-05
1.10726e-05
1.10622e-05
1.10534e-05
1.10476e-05
1.10454e-05
1.11981e-05
1.11965e-05
1.11915e-05
1.11862e-05
1.1181e-05
1.11754e-05
1.11695e-05
1.11634e-05
1.11573e-05
1.11517e-05
1.11469e-05
1.11426e-05
1.11385e-05
1.11339e-05
1.1128e-05
1.11204e-05
1.11123e-05
1.1105e-05
1.10988e-05
1.10935e-05
1.10888e-05
1.10846e-05
1.10807e-05
1.10768e-05
1.10728e-05
1.10683e-05
1.10631e-05
1.10573e-05
1.10512e-05
1.10455e-05
1.10415e-05
1.10397e-05
1.10905e-05
1.1089e-05
1.10861e-05
1.10836e-05
1.10814e-05
1.10793e-05
1.10771e-05
1.10749e-05
1.10729e-05
1.10709e-05
1.10693e-05
1.10678e-05
1.10665e-05
1.1065e-05
1.1063e-05
1.10606e-05
1.1058e-05
1.10557e-05
1.10537e-05
1.1052e-05
1.10505e-05
1.10492e-05
1.1048e-05
1.10468e-05
1.10455e-05
1.10441e-05
1.10425e-05
1.10407e-05
1.10388e-05
1.10369e-05
1.10354e-05
1.10347e-05
)
;

boundaryField
{
    movingWall
    {
        type            fixedValue;
        value           uniform 1.1032e-05;
    }
    fixedWalls
    {
        type            zeroGradient;
    }
    floor
    {
        type            zeroGradient;
    }
    frontAndBack
    {
        type            empty;
    }
}


// ************************************************************************* //
