/*--------------------------------*- C++ -*----------------------------------*\
| =========                 |                                                 |
| \\      /  F ield         | OpenFOAM: The Open Source CFD Toolbox           |
|  \\    /   O peration     | Version:  2212                                  |
|   \\  /    A nd           | Website:  www.openfoam.com                      |
|    \\/     M anipulation  |                                                 |
\*---------------------------------------------------------------------------*/
FoamFile
{
    version     2.0;
    format      ascii;
    arch        "LSB;label=64;scalar=64";
    class       surfaceScalarField;
    location    "80";
    object      phi;
}
// * * * * * * * * * * * * * * * * * * * * * * * * * * * * * * * * * * * * * //

dimensions      [0 3 -1 0 0 0 0];

oriented        oriented;

internalField   nonuniform List<scalar> 
1984
(
-3.83687e-08
3.83666e-08
-1.61245e-07
1.22877e-07
-3.24074e-07
1.62829e-07
-4.90329e-07
1.66254e-07
-6.46369e-07
1.5604e-07
-7.77792e-07
1.31423e-07
-8.55114e-07
7.73226e-08
-8.23236e-07
-3.18788e-08
-6.11838e-07
-2.11397e-07
-2.10787e-07
-4.01052e-07
1.60192e-07
-3.70979e-07
3.00805e-07
-1.40613e-07
2.32236e-07
6.85688e-08
-2.63377e-07
4.95613e-07
-9.47168e-07
6.83791e-07
-1.36052e-06
4.13347e-07
-9.11983e-07
-4.48533e-07
2.91155e-07
-1.20314e-06
9.76977e-07
-6.85823e-07
1.20987e-06
-2.32891e-07
1.20913e-06
7.38062e-10
1.10285e-06
1.06282e-07
9.54225e-07
1.48623e-07
7.94539e-07
1.59686e-07
6.38682e-07
1.55857e-07
4.95578e-07
1.43102e-07
3.6979e-07
1.25788e-07
2.59851e-07
1.09939e-07
1.59592e-07
1.00259e-07
6.95977e-08
8.9994e-08
1.07901e-08
5.8808e-08
1.07897e-08
-1.81272e-07
2.19639e-07
-5.73026e-07
5.14632e-07
-1.03472e-06
6.24527e-07
-1.47615e-06
6.07681e-07
-1.84844e-06
5.28327e-07
-2.10888e-06
3.91869e-07
-2.19777e-06
1.66207e-07
-2.02092e-06
-2.08727e-07
-1.47691e-06
-7.55405e-07
-5.52416e-07
-1.32555e-06
3.56451e-07
-1.27985e-06
7.79421e-07
-5.63584e-07
5.93621e-07
2.54368e-07
-7.97498e-07
1.88673e-06
-2.62914e-06
2.51543e-06
-3.44409e-06
1.22829e-06
-2.23086e-06
-1.66176e-06
5.9113e-07
-4.02513e-06
2.39003e-06
-2.48472e-06
3.08732e-06
-9.30184e-07
3.26367e-06
-1.75616e-07
3.14525e-06
2.24701e-07
2.86987e-06
4.23998e-07
2.51409e-06
5.15468e-07
2.12389e-06
5.46058e-07
1.72888e-06
5.38115e-07
1.34713e-06
5.07543e-07
9.85014e-07
4.72051e-07
6.41725e-07
4.43548e-07
3.28509e-07
4.0321e-07
9.25343e-08
2.94783e-07
1.03323e-07
-3.29903e-07
5.49542e-07
-9.67352e-07
1.15208e-06
-1.67315e-06
1.33032e-06
-2.31327e-06
1.2478e-06
-2.81125e-06
1.02631e-06
-3.10672e-06
6.87332e-07
-3.12989e-06
1.89378e-07
-2.79688e-06
-5.41734e-07
-2.03117e-06
-1.52111e-06
-8.52908e-07
-2.50381e-06
3.68473e-07
-2.50123e-06
1.06119e-06
-1.25631e-06
8.04491e-07
5.11071e-07
-1.37984e-06
4.07106e-06
-4.0786e-06
5.21419e-06
-4.94433e-06
2.09403e-06
-2.94554e-06
-3.66055e-06
7.8236e-07
-7.75303e-06
3.23938e-06
-4.94174e-06
4.396e-06
-2.0868e-06
4.87051e-06
-6.5012e-07
4.90597e-06
1.89236e-07
4.66274e-06
6.67236e-07
4.24783e-06
9.3037e-07
3.72844e-06
1.06545e-06
3.14931e-06
1.11725e-06
2.54029e-06
1.11656e-06
1.91977e-06
1.09257e-06
1.30125e-06
1.06207e-06
7.11764e-07
9.92696e-07
2.276e-07
7.78946e-07
3.30923e-07
-3.99038e-07
9.4858e-07
-1.17487e-06
1.92791e-06
-2.03262e-06
2.18807e-06
-2.7936e-06
2.00878e-06
-3.35614e-06
1.58886e-06
-3.65166e-06
9.82845e-07
-3.61559e-06
1.53313e-07
-3.19263e-06
-9.6469e-07
-2.33038e-06
-2.38336e-06
-1.10837e-06
-3.72582e-06
1.87634e-07
-3.79723e-06
1.06228e-06
-2.13095e-06
7.89722e-07
7.8363e-07
-1.94153e-06
6.80231e-06
-5.14502e-06
8.41768e-06
-5.8194e-06
2.76841e-06
-3.10038e-06
-6.37956e-06
9.09087e-07
-1.17625e-05
3.5869e-06
-7.61955e-06
5.10085e-06
-3.60076e-06
5.87037e-06
-1.41964e-06
6.12645e-06
-6.6844e-08
6.01395e-06
7.79735e-07
5.6497e-06
1.29462e-06
5.10711e-06
1.60803e-06
4.43571e-06
1.78866e-06
3.67104e-06
1.88122e-06
2.84069e-06
1.92292e-06
1.97198e-06
1.93078e-06
1.11144e-06
1.85324e-06
3.72852e-07
1.51754e-06
7.03775e-07
-3.5933e-07
1.30791e-06
-1.13548e-06
2.70406e-06
-2.04432e-06
3.09692e-06
-2.8662e-06
2.83066e-06
-3.47052e-06
2.19318e-06
-3.78257e-06
1.2949e-06
-3.74451e-06
1.15252e-07
-3.31068e-06
-1.39852e-06
-2.43714e-06
-3.25691e-06
-1.27374e-06
-4.88923e-06
-9.41169e-08
-4.97685e-06
8.18067e-07
-3.04314e-06
5.33113e-07
1.06858e-06
-2.44487e-06
9.78029e-06
-5.82599e-06
1.17988e-05
-6.19711e-06
3.13953e-06
-2.94007e-06
-9.63661e-06
9.57464e-07
-1.566e-05
3.64804e-06
-1.03101e-05
5.39089e-06
-5.34362e-06
6.36017e-06
-2.38892e-06
6.78498e-06
-4.91653e-07
6.81201e-06
7.52705e-07
6.53906e-06
1.56757e-06
6.03276e-06
2.11433e-06
5.33748e-06
2.48393e-06
4.48734e-06
2.73136e-06
3.51427e-06
2.89599e-06
2.45784e-06
2.98721e-06
1.38938e-06
2.9217e-06
4.67042e-07
2.43987e-06
1.17082e-06
-2.30257e-07
1.53817e-06
-8.68429e-07
3.34223e-06
-1.72484e-06
3.95333e-06
-2.55836e-06
3.66418e-06
-3.20202e-06
2.83683e-06
-3.56457e-06
1.65745e-06
-3.57582e-06
1.265e-07
-3.17486e-06
-1.79948e-06
-2.3317e-06
-4.10006e-06
-1.26601e-06
-5.95492e-06
-2.61477e-07
-5.98139e-06
4.74279e-07
-3.77889e-06
9.01212e-08
1.45274e-06
-2.88431e-06
1.27547e-05
-6.19666e-06
1.51111e-05
-6.25069e-06
3.19356e-06
-2.66687e-06
-1.32204e-05
9.0037e-07
-1.92273e-05
3.55359e-06
-1.29633e-05
5.4466e-06
-7.23662e-06
6.53764e-06
-3.47996e-06
7.04122e-06
-9.95233e-07
7.13924e-06
6.54682e-07
6.92696e-06
1.77986e-06
6.45918e-06
2.58211e-06
5.76812e-06
3.17499e-06
4.87969e-06
3.61979e-06
3.82507e-06
3.95062e-06
2.65482e-06
4.15746e-06
1.46973e-06
4.10678e-06
4.74455e-07
3.43515e-06
1.64527e-06
-5.39267e-08
1.59209e-06
-4.13073e-07
3.70138e-06
-1.08347e-06
4.62372e-06
-1.85981e-06
4.44053e-06
-2.53004e-06
3.50706e-06
-2.96382e-06
2.09123e-06
-3.04349e-06
2.06165e-07
-2.68303e-06
-2.15994e-06
-1.90678e-06
-4.87631e-06
-9.9483e-07
-6.86687e-06
-2.2925e-07
-6.74697e-06
2.05077e-07
-4.21322e-06
-4.53014e-07
2.11083e-06
-3.28105e-06
1.55828e-05
-6.35225e-06
1.81823e-05
-6.11794e-06
2.95925e-06
-2.39869e-06
-1.69397e-05
6.9682e-07
-2.23228e-05
3.29758e-06
-1.55641e-05
5.31031e-06
-9.24936e-06
6.50067e-06
-4.67032e-06
7.03064e-06
-1.5252e-06
7.12645e-06
5.58875e-07
6.91594e-06
1.99036e-06
6.45551e-06
3.04254e-06
5.76696e-06
3.86354e-06
4.8649e-06
4.52185e-06
3.77605e-06
5.03947e-06
2.56124e-06
5.37227e-06
1.35408e-06
5.31394e-06
4.00213e-07
4.38902e-06
2.04549e-06
1.26002e-07
1.46609e-06
1.51731e-07
3.67565e-06
-1.32732e-07
4.90819e-06
-6.70033e-07
4.97783e-06
-1.28041e-06
4.11744e-06
-1.76244e-06
2.57326e-06
-1.9386e-06
3.82321e-07
-1.60318e-06
-2.49535e-06
-9.705e-07
-5.50899e-06
-3.27731e-07
-7.50964e-06
1.5244e-07
-7.22714e-06
1.51359e-07
-4.21214e-06
-1.11583e-06
3.37802e-06
-3.70954e-06
1.81765e-05
-6.39218e-06
2.0865e-05
-5.9054e-06
2.47246e-06
-2.24326e-06
-2.06018e-05
2.77998e-07
-2.4844e-05
2.78372e-06
-1.80698e-05
4.90166e-06
-1.13673e-05
6.21085e-06
-5.97951e-06
6.7727e-06
-2.08705e-06
6.84094e-06
4.90637e-07
6.59649e-06
2.23481e-06
6.11766e-06
3.52137e-06
5.42428e-06
4.55692e-06
4.52168e-06
5.42445e-06
3.43229e-06
6.12886e-06
2.23043e-06
6.57413e-06
1.08691e-06
6.45746e-06
2.7336e-07
5.20257e-06
2.31885e-06
2.75633e-07
1.19046e-06
7.01244e-07
3.25004e-06
9.68e-07
4.64143e-06
9.27994e-07
5.01784e-06
6.51659e-07
4.39377e-06
3.29585e-07
2.89533e-06
1.64636e-07
5.47269e-07
3.61909e-07
-2.69263e-06
6.63383e-07
-5.81046e-06
8.88904e-07
-7.73516e-06
9.32525e-07
-7.27076e-06
3.68895e-07
-3.64851e-06
-1.87432e-06
5.62124e-06
-4.31341e-06
2.06156e-05
-6.42986e-06
2.29814e-05
-5.71682e-06
1.75942e-06
-2.35939e-06
-2.39592e-05
-4.54939e-07
-2.67485e-05
1.85286e-06
-2.03776e-05
4.05576e-06
-1.35702e-05
5.53044e-06
-7.45419e-06
6.18424e-06
-2.74086e-06
6.25733e-06
4.17546e-07
5.99397e-06
2.49818e-06
5.50564e-06
4.00971e-06
4.81502e-06
5.24753e-06
3.92295e-06
6.31652e-06
2.85578e-06
7.19604e-06
1.71423e-06
7.71567e-06
7.14644e-07
7.45704e-06
1.25958e-07
5.79126e-06
2.4448e-06
3.50964e-07
8.39496e-07
1.08591e-06
2.5151e-06
1.8661e-06
3.86124e-06
2.45738e-06
4.42656e-06
2.80093e-06
4.05022e-06
2.98071e-06
2.71556e-06
3.10742e-06
4.20554e-07
3.18204e-06
-2.76725e-06
3.09507e-06
-5.72349e-06
2.78365e-06
-7.42374e-06
2.15693e-06
-6.64403e-06
4.38606e-07
-1.93019e-06
-3.09624e-06
9.15608e-06
-5.31863e-06
2.2838e-05
-6.61078e-06
2.42736e-05
-5.6748e-06
8.23443e-07
-2.96439e-06
-2.66697e-05
-1.65787e-06
-2.8055e-05
2.9911e-07
-2.23346e-05
2.52749e-06
-1.57986e-05
4.21754e-06
-9.14424e-06
5.10358e-06
-3.6269e-06
5.26916e-06
2.51967e-07
5.0546e-06
2.71273e-06
4.60523e-06
4.45908e-06
3.94026e-06
5.91251e-06
3.06294e-06
7.19384e-06
2.03122e-06
8.22776e-06
1.00281e-06
8.74409e-06
2.57606e-07
8.20224e-06
-2.21567e-08
6.07102e-06
2.42265e-06
3.29632e-07
5.09864e-07
1.185e-06
1.65973e-06
2.31915e-06
2.72709e-06
3.47975e-06
3.26595e-06
4.52668e-06
3.00329e-06
5.44774e-06
1.7945e-06
6.22935e-06
-3.61053e-07
6.46174e-06
-2.99963e-06
6.0431e-06
-5.30485e-06
5.07223e-06
-6.45287e-06
3.61711e-06
-5.18892e-06
-7.17149e-07
2.40407e-06
-5.41894e-06
1.38579e-05
-6.99242e-06
2.44114e-05
-7.13041e-06
2.44116e-05
-5.93629e-06
-3.70672e-07
-4.29619e-06
-2.83098e-05
-3.56203e-06
-2.87892e-05
-2.04209e-06
-2.38545e-05
-9.75444e-08
-1.77431e-05
1.86234e-06
-1.11041e-05
3.1806e-06
-4.94516e-06
3.66703e-06
-2.34463e-07
3.61377e-06
2.766e-06
3.2668e-06
4.80605e-06
2.62793e-06
6.55137e-06
1.71427e-06
8.10751e-06
7.52829e-07
9.1892e-06
1.22507e-08
9.48467e-06
-2.89089e-07
8.50358e-06
-1.77937e-07
5.95987e-06
2.24471e-06
2.25769e-07
2.84095e-07
9.94512e-07
8.90988e-07
2.29211e-06
1.42949e-06
3.9734e-06
1.58466e-06
5.85639e-06
1.12031e-06
7.66412e-06
-1.32333e-08
8.91986e-06
-1.6168e-06
9.19559e-06
-3.27536e-06
8.25912e-06
-4.36838e-06
6.63297e-06
-4.82672e-06
1.16392e-06
2.80143e-07
-5.48202e-06
9.05001e-06
-8.82983e-06
1.72057e-05
-9.47061e-06
2.50522e-05
-8.2347e-06
2.31757e-05
-6.6883e-06
-1.91707e-06
-6.6067e-06
-2.83914e-05
-6.5669e-06
-2.8829e-05
-5.50926e-06
-2.49122e-05
-3.87811e-06
-1.93743e-05
-2.00315e-06
-1.29791e-05
-2.83987e-07
-6.66432e-06
7.721e-07
-1.29055e-06
1.04035e-06
2.49775e-06
7.40053e-07
5.10635e-06
8.51222e-08
7.2063e-06
-6.87442e-07
8.88007e-06
-1.25082e-06
9.75258e-06
-1.35276e-06
9.58662e-06
-9.6542e-07
8.11624e-06
-3.65284e-07
5.35973e-06
1.87943e-06
2.27081e-07
5.70141e-08
1.1036e-06
1.44715e-08
2.67521e-06
-1.42122e-07
4.77605e-06
-5.16176e-07
7.02837e-06
-1.13202e-06
8.8777e-06
-1.86256e-06
9.76779e-06
-2.50688e-06
9.60168e-06
-3.10925e-06
7.12539e-06
-1.89209e-06
1.12726e-06
1.1714e-06
-6.56028e-06
7.96768e-06
-1.06541e-05
1.31438e-05
-1.29764e-05
1.9528e-05
-1.26583e-05
2.47341e-05
-1.01784e-05
2.06958e-05
-8.48915e-06
-3.60634e-06
-1.01355e-05
-2.6745e-05
-1.0996e-05
-2.79685e-05
-1.06591e-05
-2.52491e-05
-9.50688e-06
-2.05265e-05
-7.86166e-06
-1.46243e-05
-6.13248e-06
-8.3935e-06
-4.77271e-06
-2.65032e-06
-4.19204e-06
1.91707e-06
-4.16875e-06
5.08307e-06
-4.33739e-06
7.37494e-06
-4.29877e-06
8.84145e-06
-3.85601e-06
9.30981e-06
-2.93273e-06
8.66334e-06
-1.69369e-06
6.87719e-06
-5.44234e-07
4.21028e-06
1.33519e-06
3.43949e-07
-2.86935e-07
1.29876e-06
-9.40342e-07
2.78854e-06
-1.6319e-06
4.49517e-06
-2.22281e-06
5.95221e-06
-2.58906e-06
6.62014e-06
-2.5305e-06
5.66705e-06
-1.55379e-06
2.40589e-06
1.5191e-07
-3.00416e-06
3.51796e-06
-9.44223e-06
7.60947e-06
-1.278e-05
1.13055e-05
-1.56451e-05
1.60089e-05
-1.70936e-05
2.09765e-05
-1.60559e-05
2.36964e-05
-1.29451e-05
1.75849e-05
-1.18155e-05
-4.73591e-06
-1.489e-05
-2.36705e-05
-1.68331e-05
-2.60254e-05
-1.75687e-05
-2.45134e-05
-1.733e-05
-2.07652e-05
-1.63085e-05
-1.56458e-05
-1.47738e-05
-9.92822e-06
-1.31159e-05
-4.30814e-06
-1.18403e-05
6.41401e-07
-1.07747e-05
4.01752e-06
-9.62247e-06
6.2227e-06
-8.17967e-06
7.39865e-06
-6.3751e-06
7.50524e-06
-4.29039e-06
6.57864e-06
-2.21727e-06
4.80407e-06
-6.30597e-07
2.6236e-06
7.04595e-07
2.39786e-07
-5.26721e-07
7.38872e-07
-1.43943e-06
1.25498e-06
-2.148e-06
1.46157e-06
-2.4294e-06
9.27773e-07
-2.05526e-06
-8.19152e-07
-7.8357e-07
-3.91138e-06
1.53844e-06
-8.12138e-06
4.36191e-06
-1.16293e-05
7.02586e-06
-1.43601e-05
1.03402e-05
-1.70715e-05
1.40169e-05
-1.91798e-05
1.81172e-05
-1.99905e-05
2.17872e-05
-1.87489e-05
2.24548e-05
-1.6043e-05
1.48791e-05
-1.61234e-05
-4.65549e-06
-1.99824e-05
-1.98116e-05
-2.29691e-05
-2.30386e-05
-2.49704e-05
-2.25122e-05
-2.59538e-05
-1.97817e-05
-2.58238e-05
-1.57759e-05
-2.45447e-05
-1.12074e-05
-2.2228e-05
-6.62481e-06
-1.91432e-05
-2.4434e-06
-1.61192e-05
9.93455e-07
-1.31437e-05
3.24728e-06
-1.01853e-05
4.44026e-06
-7.22744e-06
4.54734e-06
-4.40191e-06
3.75311e-06
-2.03249e-06
2.43465e-06
-5.02752e-07
1.09387e-06
2.01843e-07
-7.04089e-08
-4.56312e-07
-3.71845e-07
-1.13799e-06
-1.05139e-06
-1.46846e-06
-2.27593e-06
-1.20486e-06
-4.16232e-06
-1.68874e-07
-6.54158e-06
1.59569e-06
-8.83051e-06
3.82738e-06
-1.08825e-05
6.41394e-06
-1.3183e-05
9.32627e-06
-1.54082e-05
1.25655e-05
-1.7497e-05
1.61057e-05
-1.90837e-05
1.97039e-05
-1.96772e-05
2.23808e-05
-1.89459e-05
2.17234e-05
-1.7654e-05
1.35872e-05
-1.89975e-05
-3.31199e-06
-2.2838e-05
-1.59711e-05
-2.63646e-05
-1.95121e-05
-2.92489e-05
-1.96278e-05
-3.11932e-05
-1.78375e-05
-3.18753e-05
-1.50937e-05
-3.10534e-05
-1.20293e-05
-2.86531e-05
-9.02509e-06
-2.48273e-05
-6.26912e-06
-2.00056e-05
-3.8283e-06
-1.49537e-05
-1.80464e-06
-1.01096e-05
-4.03778e-07
-5.96169e-06
3.99399e-07
-2.87508e-06
6.66493e-07
-9.71203e-07
5.30774e-07
-1.40647e-07
2.6331e-07
6.11965e-08
-2.17749e-07
-2.38563e-07
-8.68701e-07
-4.8704e-07
-1.92257e-06
-4.14593e-07
-3.22768e-06
1.00262e-07
-4.53712e-06
1.14056e-06
-5.67184e-06
2.73041e-06
-6.74882e-06
4.90436e-06
-7.90347e-06
7.56857e-06
-9.17134e-06
1.05941e-05
-1.04825e-05
1.38767e-05
-1.16757e-05
1.7299e-05
-1.2515e-05
2.05431e-05
-1.27797e-05
2.26455e-05
-1.25121e-05
2.14558e-05
-1.25522e-05
1.36274e-05
-1.42998e-05
-1.5644e-06
-1.72161e-05
-1.30548e-05
-2.01689e-05
-1.65592e-05
-2.277e-05
-1.70267e-05
-2.47126e-05
-1.5895e-05
-2.57146e-05
-1.40917e-05
-2.55795e-05
-1.21644e-05
-2.42066e-05
-1.03981e-05
-2.16109e-05
-8.86485e-06
-1.79358e-05
-7.50331e-06
-1.35327e-05
-6.20779e-06
-9.05164e-06
-4.88482e-06
-5.15905e-06
-3.49319e-06
-2.33664e-06
-2.15592e-06
-7.27854e-07
-1.07801e-06
-9.64035e-08
-3.6814e-07
-3.5207e-08
-1.63995e-07
-7.45691e-08
-6.44739e-07
-6.2953e-09
-1.36833e-06
3.08993e-07
-2.16405e-06
8.95987e-07
-2.84601e-06
1.82253e-06
-3.35724e-06
3.24164e-06
-3.7129e-06
5.26001e-06
-3.99695e-06
7.85262e-06
-4.27948e-06
1.08767e-05
-4.55567e-06
1.41529e-05
-4.73417e-06
1.74775e-05
-4.67805e-06
2.0487e-05
-4.30301e-06
2.22704e-05
-3.70155e-06
2.08544e-05
-3.46428e-06
1.33901e-05
-4.82194e-06
-2.0674e-07
-7.18946e-06
-1.06873e-05
-9.44901e-06
-1.42997e-05
-1.14624e-05
-1.50133e-05
-1.3039e-05
-1.43184e-05
-1.40441e-05
-1.30865e-05
-1.44309e-05
-1.17776e-05
-1.41621e-05
-1.06669e-05
-1.32094e-05
-9.81755e-06
-1.16071e-05
-9.10567e-06
-9.49459e-06
-8.32027e-06
-7.10688e-06
-7.27253e-06
-4.71015e-06
-5.88992e-06
-2.61071e-06
-4.25536e-06
-1.09162e-06
-2.5971e-06
-2.48369e-07
-1.21139e-06
-2.83576e-07
-1.03782e-07
2.92129e-08
-4.12964e-07
3.02887e-07
-8.79821e-07
7.75851e-07
-1.39669e-06
1.41286e-06
-1.83227e-06
2.25811e-06
-2.05963e-06
3.469e-06
-2.02096e-06
5.22134e-06
-1.74904e-06
7.5807e-06
-1.32813e-06
1.04558e-05
-8.29165e-07
1.36539e-05
-2.10903e-07
1.68592e-05
6.17425e-07
1.96586e-05
1.7189e-06
2.1169e-05
2.94194e-06
1.96313e-05
3.71273e-06
1.26193e-05
2.72231e-06
7.83686e-07
5.65499e-07
-8.53048e-06
-1.68672e-06
-1.20474e-05
-3.64362e-06
-1.30564e-05
-5.19528e-06
-1.27667e-05
-6.33047e-06
-1.19513e-05
-7.11801e-06
-1.099e-05
-7.58035e-06
-1.02045e-05
-7.67314e-06
-9.72475e-06
-7.32274e-06
-9.45607e-06
-6.49296e-06
-9.15006e-06
-5.24729e-06
-8.5182e-06
-3.75119e-06
-7.38602e-06
-2.24956e-06
-5.75699e-06
-1.01446e-06
-3.8322e-06
-2.49348e-07
-1.9765e-06
-5.32924e-07
-7.36404e-08
1.02854e-07
-2.91936e-07
5.21183e-07
-6.32917e-07
1.11683e-06
-1.02533e-06
1.80527e-06
-1.34967e-06
2.58245e-06
-1.46553e-06
3.58485e-06
-1.26417e-06
5.01998e-06
-7.15157e-07
7.0317e-06
1.19591e-07
9.62101e-06
1.15083e-06
1.26227e-05
2.38508e-06
1.56249e-05
3.86703e-06
1.81767e-05
5.5722e-06
1.94638e-05
7.28378e-06
1.79197e-05
8.24184e-06
1.16612e-05
7.37039e-06
1.65513e-06
5.45574e-06
-6.61583e-06
3.44551e-06
-1.00372e-05
1.5368e-06
-1.11477e-05
-1.04176e-07
-1.11258e-05
-1.45346e-06
-1.06021e-05
-2.50036e-06
-9.94314e-06
-3.32829e-06
-9.3766e-06
-3.96027e-06
-9.09277e-06
-4.32304e-06
-9.0933e-06
-4.29491e-06
-9.17819e-06
-3.82494e-06
-8.98817e-06
-2.97538e-06
-8.23558e-06
-1.92051e-06
-6.81186e-06
-9.20687e-07
-4.83203e-06
-2.38136e-07
-2.65906e-06
-7.71059e-07
-5.72731e-08
1.60127e-07
-2.20048e-07
6.83957e-07
-4.77702e-07
1.37449e-06
-7.88135e-07
2.1157e-06
-1.05827e-06
2.85259e-06
-1.15195e-06
3.67853e-06
-9.31445e-07
4.79948e-06
-3.09905e-07
6.41016e-06
6.98264e-07
8.61284e-06
2.03674e-06
1.12842e-05
3.66459e-06
1.39971e-05
5.56043e-06
1.62809e-05
7.65657e-06
1.73676e-05
9.66001e-06
1.59163e-05
1.07811e-05
1.05401e-05
1.02022e-05
2.23404e-06
8.52762e-06
-4.94124e-06
6.63076e-06
-8.14035e-06
4.77268e-06
-9.28962e-06
3.09423e-06
-9.44732e-06
1.65078e-06
-9.15861e-06
4.36524e-07
-8.72888e-06
-5.83943e-07
-8.35614e-06
-1.47191e-06
-8.2048e-06
-2.20566e-06
-8.35955e-06
-2.66895e-06
-8.7149e-06
-2.73316e-06
-8.92396e-06
-2.36831e-06
-8.60043e-06
-1.66933e-06
-7.51084e-06
-8.58364e-07
-5.64299e-06
-2.32482e-07
-3.28494e-06
-1.00354e-06
-4.21614e-08
2.02289e-07
-1.53651e-07
7.95447e-07
-3.32291e-07
1.55313e-06
-5.62462e-07
2.34588e-06
-7.83302e-07
3.07343e-06
-8.77271e-07
3.7725e-06
-6.9867e-07
4.62088e-06
-1.23853e-07
5.83534e-06
8.97755e-07
7.59123e-06
2.35514e-06
9.82681e-06
4.17738e-06
1.21748e-05
6.295e-06
1.41632e-05
8.58622e-06
1.50764e-05
1.07112e-05
1.37913e-05
1.19373e-05
9.31403e-06
1.16583e-05
2.51309e-06
1.02811e-05
-3.56404e-06
8.57004e-06
-6.42932e-06
6.81408e-06
-7.53366e-06
5.15547e-06
-7.78871e-06
3.6639e-06
-7.66704e-06
2.36943e-06
-7.43441e-06
1.26408e-06
-7.25078e-06
2.85039e-07
-7.22576e-06
-6.12669e-07
-7.46184e-06
-1.37687e-06
-7.95069e-06
-1.82724e-06
-8.47359e-06
-1.85142e-06
-8.57625e-06
-1.46147e-06
-7.90079e-06
-8.21635e-07
-6.28284e-06
-2.3669e-07
-3.86988e-06
-1.24023e-06
-2.72677e-08
2.29556e-07
-9.13369e-08
8.59516e-07
-1.93567e-07
1.65536e-06
-3.35738e-07
2.48805e-06
-4.87159e-07
3.22485e-06
-5.58876e-07
3.84421e-06
-4.16275e-07
4.47828e-06
8.02797e-08
5.33879e-06
1.02986e-06
6.64165e-06
2.46427e-06
8.39239e-06
4.31733e-06
1.03218e-05
6.49009e-06
1.19905e-05
8.81861e-06
1.27479e-05
1.09426e-05
1.16674e-05
1.2222e-05
8.03454e-06
1.21903e-05
2.54487e-06
1.11143e-05
-2.48811e-06
9.64069e-06
-4.95567e-06
8.05398e-06
-5.94696e-06
6.49685e-06
-6.23159e-06
5.04461e-06
-6.21479e-06
3.73567e-06
-6.12548e-06
2.58259e-06
-6.09771e-06
1.57067e-06
-6.21384e-06
6.3507e-07
-6.52624e-06
-2.59606e-07
-7.05602e-06
-9.996e-07
-7.7336e-06
-1.35853e-06
-8.21732e-06
-1.26105e-06
-7.99827e-06
-7.97601e-07
-6.74629e-06
-2.51896e-07
-4.41559e-06
-1.49213e-06
-1.68947e-08
2.46451e-07
-4.78803e-08
8.90502e-07
-9.05722e-08
1.69805e-06
-1.49709e-07
2.54718e-06
-2.12307e-07
3.28745e-06
-2.18974e-07
3.85088e-06
-6.2512e-08
4.32182e-06
3.79483e-07
4.89679e-06
1.23626e-06
5.78487e-06
2.56666e-06
7.062e-06
4.33353e-06
8.55492e-06
6.43302e-06
9.89098e-06
8.6801e-06
1.05008e-05
1.07189e-05
9.6286e-06
1.20052e-05
6.7482e-06
1.21596e-05
2.39042e-06
1.13536e-05
-1.68206e-06
1.01287e-05
-3.73082e-06
8.75212e-06
-4.57033e-06
7.35917e-06
-4.83863e-06
6.02121e-06
-4.87684e-06
4.77472e-06
-4.87899e-06
3.63476e-06
-4.95774e-06
2.59762e-06
-5.1767e-06
1.63787e-06
-5.5665e-06
7.1194e-07
-6.13009e-06
-1.80612e-07
-6.84105e-06
-8.39765e-07
-7.55816e-06
-1.03628e-06
-7.80175e-06
-7.71841e-07
-7.01072e-06
-2.79533e-07
-4.90789e-06
-1.77166e-06
-1.66577e-08
2.63108e-07
-4.04626e-08
9.14306e-07
-5.36437e-08
1.71123e-06
-4.90266e-08
2.54257e-06
-1.77338e-08
3.25615e-06
7.68096e-08
3.75634e-06
3.02567e-07
4.09606e-06
7.53785e-07
4.44558e-06
1.53991e-06
4.99874e-06
2.74129e-06
5.86062e-06
4.35598e-06
6.94024e-06
6.29751e-06
7.94944e-06
8.38329e-06
8.41503e-06
1.02817e-05
7.73017e-06
1.15334e-05
5.49652e-06
1.18163e-05
2.10753e-06
1.12371e-05
-1.10283e-06
1.02499e-05
-2.74365e-06
9.09806e-06
-3.4185e-06
7.90393e-06
-3.6445e-06
6.72873e-06
-3.70164e-06
5.60025e-06
-3.75051e-06
4.5274e-06
-3.88489e-06
3.50671e-06
-4.15601e-06
2.52503e-06
-4.58481e-06
1.56425e-06
-5.16931e-06
6.12636e-07
-5.88943e-06
-2.55897e-07
-6.68963e-06
-7.58423e-07
-7.29923e-06
-7.27892e-07
-7.04126e-06
-3.18902e-07
-5.31688e-06
-2.09056e-06
-3.4082e-08
2.9719e-07
-8.67616e-08
9.66986e-07
-1.05501e-07
1.72997e-06
-5.74827e-08
2.49455e-06
6.5276e-08
3.13339e-06
2.81e-07
3.54061e-06
6.18305e-07
3.75876e-06
1.12703e-06
3.93685e-06
1.88627e-06
4.2395e-06
2.97579e-06
4.77109e-06
4.42139e-06
5.49464e-06
6.16575e-06
6.20508e-06
8.04828e-06
6.53251e-06
9.77547e-06
6.00298e-06
1.09605e-05
4.31155e-06
1.13255e-05
1.74249e-06
1.09341e-05
-7.11442e-07
1.01646e-05
-1.97409e-06
9.2328e-06
-2.48675e-06
8.24576e-06
-2.65746e-06
7.25325e-06
-2.70914e-06
6.27304e-06
-2.77029e-06
5.30503e-06
-2.91688e-06
4.34022e-06
-3.1912e-06
3.36713e-06
-3.61173e-06
2.37777e-06
-4.17995e-06
1.37488e-06
-4.88654e-06
3.90393e-07
-5.70514e-06
-3.92059e-07
-6.51677e-06
-6.4037e-07
-6.79294e-06
-3.61728e-07
-5.59553e-06
-2.45229e-06
-8.11667e-08
3.78357e-07
-2.03322e-07
1.08914e-06
-2.54235e-07
1.78088e-06
-1.71589e-07
2.4119e-06
4.60864e-08
2.91572e-06
3.92073e-07
3.19463e-06
8.55185e-07
3.29564e-06
1.4456e-06
3.34644e-06
2.21223e-06
3.47288e-06
3.22295e-06
3.76037e-06
4.51705e-06
4.20054e-06
6.06457e-06
4.65756e-06
7.73662e-06
4.86046e-06
9.2854e-06
4.4542e-06
1.0388e-05
3.20891e-06
1.08061e-05
1.32445e-06
1.05705e-05
-4.75846e-07
9.99081e-06
-1.39442e-06
9.25701e-06
-1.75295e-06
8.46246e-06
-1.8629e-06
7.64802e-06
-1.8947e-06
6.82375e-06
-1.94602e-06
5.98175e-06
-2.07488e-06
5.10561e-06
-2.31506e-06
4.17866e-06
-2.68478e-06
3.19179e-06
-3.19309e-06
2.15057e-06
-3.84532e-06
1.08792e-06
-4.64249e-06
1.07218e-07
-5.53607e-06
-4.68925e-07
-6.2168e-06
-3.86837e-07
-5.67761e-06
-2.83913e-06
-1.7252e-07
5.50877e-07
-3.92147e-07
1.30877e-06
-4.69093e-07
1.85783e-06
-3.37318e-07
2.28013e-06
-9.07159e-09
2.58747e-06
4.72819e-07
2.71274e-06
1.05721e-06
2.71125e-06
1.73009e-06
2.67357e-06
2.52042e-06
2.68255e-06
3.48184e-06
2.79894e-06
4.65535e-06
3.02703e-06
6.0297e-06
3.28322e-06
7.50774e-06
3.38242e-06
8.88824e-06
3.07369e-06
9.90456e-06
2.1926e-06
1.03515e-05
8.77464e-07
1.02327e-05
-3.57021e-07
9.80117e-06
-9.62882e-07
9.22762e-06
-1.17939e-06
8.59564e-06
-1.23092e-06
7.93983e-06
-1.23889e-06
7.26506e-06
-1.27126e-06
6.55808e-06
-1.3679e-06
5.79606e-06
-1.55303e-06
4.95434e-06
-1.84307e-06
4.01455e-06
-2.2533e-06
2.97303e-06
-2.80379e-06
1.85224e-06
-3.52171e-06
7.32251e-07
-4.41608e-06
-1.50362e-07
-5.33419e-06
-3.58147e-07
-5.46983e-06
-3.19727e-06
-3.06735e-07
8.57612e-07
-6.07117e-07
1.60915e-06
-6.42568e-07
1.89328e-06
-4.02979e-07
2.04054e-06
6.84508e-08
2.11604e-06
6.88568e-07
2.09262e-06
1.38176e-06
2.01806e-06
2.12856e-06
1.92676e-06
2.94614e-06
1.86497e-06
3.87406e-06
1.87102e-06
4.94827e-06
1.95282e-06
6.1682e-06
2.06329e-06
7.46375e-06
2.08687e-06
8.67535e-06
1.8621e-06
9.5831e-06
1.28485e-06
1.00096e-05
4.5096e-07
9.94602e-06
-2.93437e-07
9.60919e-06
-6.26049e-07
9.15401e-06
-7.24221e-07
8.65406e-06
-7.30968e-07
8.13702e-06
-7.21843e-07
7.60294e-06
-7.37184e-07
7.03496e-06
-7.99926e-07
6.40641e-06
-9.24476e-07
5.68632e-06
-1.12298e-06
4.8449e-06
-1.41188e-06
3.86067e-06
-1.81956e-06
2.73282e-06
-2.39386e-06
1.51023e-06
-3.19349e-06
3.669e-07
-4.19086e-06
-2.30303e-07
-4.87262e-06
-3.42758e-06
-4.48975e-07
1.30659e-06
-6.7298e-07
1.83315e-06
-4.87363e-07
1.70766e-06
-1.58891e-08
1.56906e-06
6.38429e-07
1.46172e-06
1.37724e-06
1.3538e-06
2.15496e-06
1.24034e-06
2.95061e-06
1.13111e-06
3.77085e-06
1.04473e-06
4.6419e-06
9.99973e-07
5.59266e-06
1.00206e-06
6.62904e-06
1.02691e-06
7.70318e-06
1.01273e-06
8.69171e-06
8.7356e-07
9.41763e-06
5.58927e-07
9.73772e-06
1.30867e-07
9.65946e-06
-2.15177e-07
9.37555e-06
-3.42139e-07
9.01447e-06
-3.6314e-07
8.6327e-06
-3.49195e-07
8.24709e-06
-3.36237e-07
7.85192e-06
-3.4201e-07
7.42814e-06
-3.76146e-07
6.94867e-06
-4.45006e-07
6.38115e-06
-5.5546e-07
5.68919e-06
-7.19925e-07
4.83388e-06
-9.64243e-07
3.77909e-06
-1.33907e-06
2.51467e-06
-1.92906e-06
1.14518e-06
-2.82137e-06
9.85456e-08
-3.82599e-06
-3.32903e-06
-3.93968e-07
1.70055e-06
-1.47537e-08
1.45394e-06
7.05199e-07
9.87709e-07
1.47294e-06
8.01317e-07
2.26372e-06
6.7095e-07
3.05794e-06
5.59576e-07
3.83024e-06
4.68045e-07
4.56802e-06
3.93337e-07
5.27595e-06
3.36795e-07
5.97384e-06
3.02085e-07
6.68708e-06
2.88814e-07
7.42725e-06
2.86744e-07
8.16629e-06
2.73696e-07
8.81828e-06
2.21568e-07
9.25934e-06
1.17866e-07
9.40019e-06
-9.98835e-09
9.28063e-06
-9.56174e-08
9.05222e-06
-1.13722e-07
8.79661e-06
-1.07537e-07
8.5443e-06
-9.68835e-08
8.2988e-06
-9.07364e-08
8.04969e-06
-9.28969e-08
7.77891e-06
-1.05366e-07
7.46362e-06
-1.2972e-07
7.07658e-06
-1.68413e-07
6.58385e-06
-2.27194e-07
5.93973e-06
-3.20124e-07
5.07978e-06
-4.79125e-07
3.91883e-06
-7.68107e-07
2.393e-06
-1.29554e-06
7.36159e-07
-2.16916e-06
-2.59287e-06
1.70055e-06
3.15449e-06
4.1422e-06
4.94352e-06
5.61447e-06
6.17405e-06
6.64209e-06
7.03543e-06
7.37222e-06
7.67431e-06
7.96312e-06
8.24987e-06
8.52356e-06
8.74513e-06
8.863e-06
8.85301e-06
8.75739e-06
8.64367e-06
8.53613e-06
8.43925e-06
8.34851e-06
8.25562e-06
8.15025e-06
8.02053e-06
7.85212e-06
7.62492e-06
7.3048e-06
6.82567e-06
6.05757e-06
4.76203e-06
2.59287e-06
)
;

boundaryField
{
    movingWall
    {
        type            calculated;
        value           uniform 0;
    }
    fixedWalls
    {
        type            calculated;
        value           uniform 0;
    }
    floor
    {
        type            calculated;
        value           uniform 0;
    }
    frontAndBack
    {
        type            empty;
        value           nonuniform List<scalar> 0();
    }
}


// ************************************************************************* //
