/*--------------------------------*- C++ -*----------------------------------*\
| =========                 |                                                 |
| \\      /  F ield         | OpenFOAM: The Open Source CFD Toolbox           |
|  \\    /   O peration     | Version:  2212                                  |
|   \\  /    A nd           | Website:  www.openfoam.com                      |
|    \\/     M anipulation  |                                                 |
\*---------------------------------------------------------------------------*/
FoamFile
{
    version     2.0;
    format      ascii;
    arch        "LSB;label=64;scalar=64";
    class       volScalarField;
    location    "4000";
    object      epsilon;
}
// * * * * * * * * * * * * * * * * * * * * * * * * * * * * * * * * * * * * * //

dimensions      [0 2 -3 0 0 0 0];

internalField   nonuniform List<scalar> 
125000
(
1.23726248973
1.26431581355
1.23726246064
0.448403515366
1.27069517995
1.26431574267
0.480594974426
1.23726246121
0.448403513543
0.240348578537
1.26858248199
1.27069514352
0.489487763245
1.26431573991
0.480594974636
0.255256035177
1.23726246071
0.448403512185
0.240348581971
0.160234932963
1.2627421929
1.26858247332
0.491682607168
1.27069513635
0.489487777475
0.262042163209
1.26431574286
0.480594971633
0.255256042798
0.165985992241
1.23726248977
0.448403513582
0.24034858087
0.160234936007
0.118870528837
1.25472307619
1.26274220686
0.491661417625
1.26858247896
0.491682609406
0.265069822953
1.27069514298
0.489487781844
0.262042173823
0.169692211317
1.26431581351
0.480594974444
0.255256042604
0.165985994211
0.12094780939
0.448403515297
0.240348581961
0.1602349355
0.118870529888
0.0933805936102
1.24773261016
1.25472296933
0.491200465845
1.26274222968
0.49166140706
0.26628312274
1.26858247305
0.491682610637
0.265069825493
0.171875461949
1.27069517928
0.489487777492
0.262042175666
0.16969221516
0.122719905759
0.48059497422
0.255256042751
0.16598599431
0.120947809323
0.0941060233204
0.24034857848
0.160234935993
0.11887052977
0.0933805942893
0.0759437804832
1.24225663447
1.24773259212
0.490631560159
1.25472291663
0.491200443001
0.266798734728
1.26274220855
0.49166140201
0.266283118336
0.173029074888
1.26858248204
0.491682609646
0.265069824463
0.171875463587
0.123989735092
0.489487763457
0.262042173899
0.169692215482
0.122719906603
0.09491580863
0.255256035163
0.165985994211
0.120947809282
0.0941060228683
0.0762230950075
0.160234932935
0.118870529888
0.0933805942642
0.0759437810748
0.063255518739
1.23803791174
1.24225662465
0.490348263601
1.24773259892
0.490631581966
0.267093948097
1.25472296813
0.491200431877
0.266798732478
0.173622042112
1.26274219467
0.491661407154
0.266283114286
0.173029074857
0.12478472099
0.491682607341
0.265069825558
0.171875462851
0.123989735767
0.0955848082301
0.262042163326
0.169692215189
0.122719906535
0.0949158086208
0.0765871074737
0.165985992255
0.120947809323
0.094106022805
0.0762230948868
0.0633775553852
0.11887052883
0.0933805942896
0.0759437810752
0.0632555198055
0.0536225784814
1.23472275157
1.23803798273
0.490204560731
1.24225664085
0.490348270981
0.267409286326
1.24773259054
0.490631602073
0.267093958617
0.173965401793
1.25472307323
0.49120044218
0.266798731059
0.173622043267
0.125234559857
0.491661417424
0.266283118243
0.173029073568
0.124784721367
0.0960631595412
0.265069822931
0.171875463579
0.123989735515
0.0955848083439
0.0769231184468
0.169692211341
0.122719906606
0.0949158085335
0.0765871074013
0.0635481421901
0.120947809394
0.0941060228689
0.0762230948313
0.0633775550717
0.0536811869192
0.0933805936088
0.075943781075
0.0632555198286
0.0536225794485
0.0460741970994
1.2321451837
1.23472260769
0.49010035964
1.2380380551
0.490204524049
0.267754794508
1.24225662392
0.490348284217
0.267409280267
0.174247980056
1.24773260953
0.490631581714
0.267093967044
0.173965405105
0.125485972386
0.491200464986
0.266798732194
0.173622043381
0.125234560546
0.0963558027461
0.266283122528
0.173029074819
0.124784721007
0.0960631595077
0.0771926432902
0.171875461912
0.123989735755
0.095584808303
0.0769231183682
0.0637163253457
0.122719905756
0.0949158086177
0.0765871073552
0.0635481420811
0.0537670777229
0.094106023321
0.0762230948868
0.0633775550185
0.0536811866853
0.0461055070247
0.0759437804831
0.063255519806
0.0536225794759
0.0460741978479
0.0400135395681
1.23001998071
1.23214509166
0.490034972268
1.23472254267
0.490100314337
0.268121610436
1.23803798436
0.490204509336
0.267754777533
0.174526351902
1.24225663469
0.490348271798
0.267409279103
0.174247975936
0.12565724123
0.490631560852
0.267093958733
0.173965407361
0.125485973238
0.0965166621447
0.266798734557
0.173622043196
0.125234560578
0.0963558028122
0.0773694053035
0.173029074828
0.124784721364
0.0960631593619
0.0771926430323
0.0638651463409
0.123989735079
0.0955848083397
0.0769231183811
0.0637163252094
0.0538545744513
0.0949158086247
0.076587107398
0.063548142061
0.053767077619
0.0461513630368
0.0762230950067
0.0633775550714
0.0536811866422
0.0461055068574
0.0400322544648
0.0632555187395
0.053622579449
0.0460741978736
0.0400135401169
0.0350522399835
1.22824906461
1.23002012911
0.489944010152
1.23214505389
0.490035024224
0.268474095245
1.23472261016
0.490100292418
0.268121609296
0.17482616151
1.23803791545
0.490204524706
0.267754769416
0.174526348142
0.125804251182
0.490348264652
0.267409280552
0.174247973963
0.125657239648
0.0966050217402
0.267093948508
0.17396540518
0.125485973637
0.0965166622198
0.0774679310045
0.173622042095
0.125234560527
0.0963558027402
0.0773694050568
0.063969616786
0.124784720981
0.0960631595127
0.0771926429485
0.0638651460407
0.0539376987664
0.09558480823
0.0769231183684
0.0637163252219
0.0538545743051
0.04619972261
0.0765871074707
0.0635481420789
0.0537670776098
0.0461513629351
0.0400579691846
0.0633775553839
0.0536811866848
0.0461055068239
0.040032254341
0.035064493269
0.0536225784819
0.0460741978483
0.0400135401392
0.0350522403755
0.0309262524507
1.22672530465
1.22824901271
0.489838585625
1.23002024949
0.489944014877
0.268794619554
1.23214508734
0.490035065504
0.268474108472
0.175134570183
1.23472275115
0.490100312995
0.268121611518
0.174826163488
0.125960551734
0.490204560615
0.267754777401
0.174526346609
0.125804250923
0.0966605929569
0.267409286475
0.174247975971
0.125657238753
0.0966050212076
0.0775087456968
0.173965401928
0.125485973262
0.0965166622102
0.0774679307906
0.0640314750141
0.125234559854
0.0963558028037
0.0773694049601
0.0639696164502
0.054000268669
0.0960631595421
0.0771926430366
0.0638651459844
0.0539376984955
0.0462474890113
0.0769231184501
0.0637163252108
0.0538545743079
0.0461997224649
0.040086103346
0.0635481421888
0.0537670776176
0.0461513629279
0.0400579690808
0.0350797538348
0.0536811869181
0.0461055068571
0.040032254315
0.0350644931802
0.0309347139015
0.0460741970998
0.0400135401171
0.0350522403943
0.0309262527243
0.0274496351439
1.22538695665
1.22672504416
0.489710030129
1.22824900979
0.489838481692
0.269086718396
1.23002012815
0.489944029042
0.268794602354
0.175438537602
1.23214517848
0.490035023284
0.26847412056
0.175134569903
0.126133187788
0.490100357805
0.268121608858
0.174826166102
0.125960552031
0.0967127588401
0.267754794126
0.174526348033
0.12580425104
0.0966605930999
0.0775172717674
0.174247980018
0.125657239638
0.0966050209213
0.0775087454157
0.064047969724
0.125485972419
0.0965166622245
0.0774679307134
0.0640314746961
0.0540414711567
0.0963558027407
0.0773694050512
0.0639696163654
0.0540002683419
0.0462861291941
0.0771926432909
0.0638651460431
0.0539376984539
0.0462474887831
0.04011457073
0.0637163253488
0.0538545743064
0.0461997224601
0.0400861032066
0.0350966788423
0.0537670777225
0.0461513629343
0.0400579690715
0.0350797537337
0.0309443838312
0.0461055070239
0.0400322543408
0.0350644931599
0.0309347138439
0.0274556234555
0.0400135395684
0.0350522403756
0.0309262527398
0.0274496353288
0.0244876301013
1.22418553564
1.22538699592
0.489560532453
1.22672490312
0.489710024138
0.2693390894
1.22824901797
0.489838424128
0.269086688972
0.175737823379
1.23001998436
0.489944017065
0.268794595852
0.175438528386
0.126316634461
0.490034973046
0.268474108612
0.175134571241
0.126133185649
0.0967755221248
0.268121610209
0.174826163456
0.125960552818
0.0967127582789
0.0775159588212
0.174526351787
0.125804250891
0.0966605933332
0.0775172718014
0.0640410291778
0.125657241202
0.0966050211996
0.0775087453337
0.0640479694252
0.0540495966882
0.0965166621521
0.0774679307904
0.0640314746165
0.0540414708323
0.0463147952743
0.0773694052983
0.0639696164465
0.0540002682716
0.0462861289073
0.0401392103133
0.0638651463408
0.0539376984967
0.0462474887506
0.040114570537
0.0351142003262
0.0538545744535
0.0461997224659
0.0400861031973
0.0350966787139
0.03095489166
0.0461513630366
0.0400579690802
0.0350797537218
0.0309443837411
0.0274621239738
0.0400322544643
0.0350644931802
0.030934713828
0.0274556234253
0.0244919241362
0.0350522399836
0.0309262527243
0.0274496353413
0.0244876302205
0.0219401952385
1.22311271331
1.22418576649
0.48939505618
1.22538703613
0.489560610312
0.269552301028
1.22672504578
0.489710026658
0.269339103248
0.176018802974
1.22824906941
0.48983848257
0.269086673074
0.175737817568
0.126510972571
0.489944012606
0.268794603055
0.175438524363
0.126316631114
0.0968500379012
0.268474095817
0.175134570032
0.126133184881
0.0967755204991
0.0775155742396
0.174826161591
0.125960552067
0.0967127582035
0.0775159582087
0.0640216171796
0.125804251176
0.0966605931025
0.0775172719617
0.0640410290499
0.0540416492647
0.0966050217332
0.0775087454124
0.0640479693693
0.0540495964065
0.0463227434451
0.0774679310065
0.0640314746953
0.0540414707657
0.046314794982
0.0401591769145
0.0639696167824
0.0540002683397
0.0462861288488
0.0401392100734
0.0351302889806
0.0539376987661
0.0462474887838
0.0401145705091
0.0351142001636
0.0309658924939
0.0461997226115
0.0400861032072
0.0350966787022
0.030954891549
0.0274689164967
0.0400579691845
0.0350797537333
0.0309443837273
0.0274621239007
0.0244964776158
0.0350644932687
0.030934713844
0.0274556234128
0.0244919241292
0.0219433123364
0.0309262524508
0.0274496353288
0.0244876302302
0.0219401953098
0.0197315098672
1.22213811959
1.22311239474
0.489224570605
1.22418594344
0.489395004899
0.269729729871
1.22538698821
0.489560668557
0.269552310809
0.176280813977
1.2267253005
0.489710021439
0.269339115767
0.176018805676
0.126707877384
0.489838584213
0.269086688649
0.175737815123
0.12651097154
0.0969379260405
0.268794619938
0.175438528481
0.1263166298
0.0968500370443
0.0775200958427
0.175134570344
0.126133185687
0.0967755197173
0.0775155730263
0.0639923999176
0.125960551793
0.0967127583042
0.0775159579885
0.0640216164604
0.0540211190013
0.096660592973
0.0775172718076
0.0640410291136
0.0540416490287
0.0463176408719
0.0775087456976
0.0640479694239
0.0540495963703
0.046322743186
0.0401688228231
0.0640314750145
0.0540414708315
0.046314794927
0.0401591766651
0.0351440063942
0.0540002686669
0.0462861289062
0.0401392100247
0.0351302887848
0.0309765332708
0.0462474890111
0.0401145705374
0.0351142001383
0.0309658923616
0.0274759474081
0.040086103347
0.0350966787142
0.0309548915359
0.027468916408
0.0245010655608
0.0350797538346
0.0309443837408
0.0274621238864
0.0244964775627
0.0219465825089
0.0309347139014
0.0274556234254
0.0244919241193
0.0219433123479
0.0197338042387
0.027449635144
0.0244876302205
0.0219401953171
0.0197315099044
0.0178030620685
1.22125088278
1.22213803458
0.489046167698
1.22311222127
0.489224456848
0.269879003331
1.22418576603
0.48939498477
0.269729697601
0.17652095253
1.22538695031
0.489560609643
0.269552320833
0.176280811104
0.126903773471
0.489710027657
0.269339102473
0.176018809512
0.126707875695
0.0970381086044
0.269086717535
0.175737817399
0.126510971486
0.0969379254973
0.077533520104
0.17543853756
0.126316631091
0.0968500368904
0.0775200952972
0.0639637975241
0.126133187803
0.096775520495
0.0775155724138
0.0639923991762
0.0539872837377
0.0967127588599
0.0775159582205
0.0640216161471
0.054021118371
0.0463032897955
0.0775172717818
0.0640410290551
0.0540416490242
0.0463176406004
0.0401670118371
0.0640479697258
0.0540495964065
0.0463227431536
0.0401688225873
0.0351537632664
0.0540414711569
0.0463147949814
0.0401591766172
0.0351440061878
0.0309859640408
0.0462861291928
0.0401392100729
0.0351302887438
0.0309765331158
0.0274829975781
0.0401145707299
0.0351142001639
0.0309658923383
0.0274759473069
0.0245056849267
0.0350966788428
0.0309548915491
0.0274689163945
0.0245010654963
0.0219497989273
0.030944383831
0.0274621239005
0.0244964775487
0.021946582476
0.0197361914416
0.0274556234554
0.0244919241293
0.0219433123403
0.0197338042642
0.0178047747671
0.0244876301014
0.0219401953097
0.0197315099097
0.0178030620825
0.0161089711964
1.22043833177
1.22125100246
0.488866286791
1.22213799469
0.48904624044
0.270000101526
1.22311240538
0.489224390166
0.269878981036
0.176741069801
1.2241855428
0.489395008074
0.269729682153
0.176520941671
0.127095689608
0.4895605342
0.269552311248
0.176280810703
0.126903770876
0.0971466864046
0.269339089148
0.176018805586
0.126707875729
0.0970381063996
0.0775608630585
0.175737823161
0.126510971507
0.0969379254726
0.0775335202267
0.0639390447696
0.126316634413
0.0968500370218
0.0775200951338
0.0639637973473
0.053949517205
0.0967755221063
0.077515573018
0.0639923988337
0.0539872832263
0.0462761653656
0.0775159588265
0.0640216164658
0.054021118102
0.0463032892848
0.0401594008115
0.0640410291873
0.054041649033
0.0463176405598
0.0401670115768
0.0351551696768
0.0540495966906
0.0463227431868
0.0401688225491
0.0351537630613
0.0309938932995
0.0463147952744
0.0401591766647
0.0351440061437
0.0309859638754
0.0274895060493
0.0401392103126
0.0351302887846
0.0309765330807
0.0274829974621
0.0245103555041
0.0351142003263
0.0309658923618
0.0274759472855
0.0245056848564
0.0219529430707
0.0309548916603
0.027468916408
0.0245010654833
0.0219497988867
0.0197385076529
0.0274621239737
0.0244964775626
0.021946582463
0.0197361914273
0.0178065407313
0.0244919241362
0.021943312348
0.0197338042586
0.0178047748024
0.0161102657621
0.0219401952385
0.0197315099044
0.017803062086
0.0161089711954
0.0146127489299
1.2196893809
1.22043843178
0.48868538508
1.22125110349
0.488866341658
0.270099075039
1.22213802842
0.489046293391
0.270000134686
0.176939269182
1.22311271711
0.489224457232
0.269878968564
0.176741065667
0.127281110901
0.489395058525
0.269729698393
0.176520937171
0.127095686678
0.0972619954006
0.269552301897
0.176280811279
0.126903769746
0.0971466850939
0.0775983499135
0.176018803037
0.126707875723
0.0970381055345
0.077560860924
0.0639224592983
0.126510972554
0.0969379255162
0.0775335205247
0.0639390442932
0.0539110091975
0.0968500378891
0.0775200952757
0.0639637973747
0.0539495170177
0.0462424660262
0.0775155742215
0.0639923991659
0.0539872830223
0.0462761649878
0.0401426289637
0.0640216171767
0.0540211183722
0.0463032890765
0.040159400385
0.0351522790423
0.0540416492703
0.0463176406036
0.0401670115208
0.035155169434
0.0309979701793
0.0463227434474
0.0401688225881
0.0351537630195
0.0309938931303
0.0274953501051
0.0401591769146
0.0351440061876
0.0309859638341
0.0274895059244
0.0245148373282
0.0351302889802
0.0309765331158
0.0274829974319
0.0245103554252
0.0219560731065
0.030965892494
0.027475947307
0.0245056848372
0.0219529430293
0.0197407213656
0.0274689164969
0.0245010654963
0.0219497988746
0.0197385076339
0.0178082407054
0.0244964776157
0.0219465824759
0.0197361914157
0.0178065407328
0.0161115882698
0.0219433123364
0.0197338042643
0.0178047747985
0.0161102658032
0.0146137375598
0.0197315098672
0.0178030620825
0.0161089711975
0.01461274892
0.0132850093079
1.21900290088
1.2196891625
0.488505570812
1.22043851539
0.48868528857
0.270178136095
1.22125099885
0.488866386426
0.270099066852
0.177118260844
1.22213811115
0.489046236198
0.270000160301
0.176939277382
0.127456953287
0.489224568309
0.269878980519
0.176741063798
0.12728110917
0.0973807205981
0.26972973005
0.176520941771
0.12709568598
0.0972619945255
0.077646272306
0.176280814172
0.126903770887
0.0971466844748
0.0775983492482
0.0639141928907
0.126707877418
0.0970381064152
0.0775608598194
0.0639224580766
0.053875473696
0.0969379260638
0.0775335202455
0.0639390441358
0.0539110086668
0.0462049549689
0.077520095831
0.0639637973419
0.0539495170113
0.046242465812
0.0401179517765
0.0639923999053
0.0539872832188
0.046276164859
0.0401426286913
0.0351442056375
0.0540211189972
0.0463032892836
0.0401594002117
0.0351522787318
0.030997571742
0.046317640875
0.0401670115788
0.0351551693616
0.0309979699835
0.0274997752957
0.0401688228247
0.0351537630619
0.0309938930861
0.0274953499752
0.0245189974674
0.0351440063942
0.0309859638754
0.027489505887
0.0245148372427
0.0219591396168
0.0309765332705
0.0274829974622
0.0245103553991
0.0219560730614
0.0197428707421
0.0274759474082
0.0245056848565
0.0219529430126
0.0197407213498
0.0178098416513
0.0245010655609
0.0219497988867
0.0197385076233
0.0178082407048
0.0161128546613
0.0219465825088
0.0197361914273
0.0178065407229
0.0161115882837
0.0146147391869
0.0197338042387
0.0178047748024
0.0161102658008
0.0146137376034
0.0132857705787
0.0178030620685
0.0161089711954
0.0146127489211
0.0132850092936
0.0121018185553
1.21836712874
1.21900254927
0.488330248217
1.21968905549
0.488505480796
0.270240210687
1.22043843118
0.488685237649
0.270178092255
0.177279011345
1.2212508832
0.488866342839
0.270099065322
0.177118249204
0.127623807858
0.489046165494
0.270000133585
0.176939285194
0.12745695365
0.097499839197
0.269879002392
0.176741065453
0.12728110851
0.0973807191829
0.0777012313703
0.176520952473
0.127095686667
0.0972619945128
0.0776462718875
0.0639157792771
0.126903773474
0.0971466850635
0.0775983489395
0.0639141924073
0.0538441301568
0.0970381085991
0.0775608609384
0.0639224574268
0.0538754729174
0.0461665691547
0.0775335201376
0.0639390443098
0.0539110084442
0.0462049545
0.0400882894856
0.0639637975283
0.0539495170176
0.0462424657674
0.0401179515662
0.0351290281097
0.0539872837309
0.0462761649835
0.04014262861
0.0351442054259
0.0309946429535
0.0463032897918
0.040159400384
0.0351522786091
0.0309975715165
0.0275015368767
0.0401670118387
0.0351551694349
0.0309979699157
0.0274997751513
0.0245226364799
0.0351537632673
0.0309938931306
0.0274953499312
0.024518997378
0.0219620621492
0.0309859640409
0.0274895059244
0.0245148372101
0.0219591395681
0.0197449724592
0.027482997578
0.0245103554252
0.0219560730391
0.0197428707263
0.0178113609158
0.0245056849268
0.0219529430294
0.0197407213358
0.0178098416567
0.0161140359796
0.0219497989274
0.0197385076339
0.0178082406958
0.0161128546752
0.0146156947223
0.0197361914416
0.0178065407328
0.0161115882757
0.0146147392099
0.0132865367561
0.0178047747671
0.0161102658032
0.0146137376023
0.0132857706222
0.0121024087185
0.0161089711963
0.01461274892
0.013285009294
0.0121018185395
0.0110434851871
1.21777841251
1.21836755184
0.488158217514
1.21900234209
0.48833030712
0.270289198165
1.21968917323
0.488505430142
0.270240217196
0.177422967504
1.22043833486
0.488685291913
0.270178068927
0.177279000568
0.12778064237
0.488866289938
0.270099068083
0.177118243082
0.127623801599
0.0976186925701
0.270000101393
0.176939277205
0.127456955127
0.0974998381048
0.0777622451188
0.176741069558
0.127281109142
0.097380718534
0.077701230146
0.0639229767404
0.127095689591
0.0972619945193
0.0776462718598
0.063915779152
0.0538192350837
0.0971466863787
0.0775983492207
0.0639141921741
0.0538441298597
0.0461288507928
0.0775608630405
0.063922458076
0.0538754724918
0.0461665686146
0.0400555739971
0.0639390447841
0.0539110086764
0.0462049542969
0.0400882891038
0.0351088770231
0.0539495172107
0.0462424658135
0.040117951503
0.0351290279086
0.0309874842312
0.0462761653621
0.0401426286882
0.0351442053613
0.0309946427741
0.0275009527658
0.0401594008083
0.0351522787311
0.0309975714231
0.0275015367236
0.024525188246
0.0351551696771
0.0309979699838
0.0274997750939
0.0245226363861
0.0219647746175
0.0309938932999
0.0274953499754
0.0245189973377
0.0219620620986
0.0197470088448
0.0274895060493
0.0245148372427
0.0219591395408
0.0197449724429
0.0178128229323
0.0245103555041
0.0219560730614
0.0197428707078
0.0178113609239
0.0161151382183
0.0219529430707
0.0197407213498
0.0178098416455
0.0161140360014
0.01461658044
0.0197385076529
0.0178082407048
0.016112854668
0.0146156947466
0.0132872659185
0.0178065407313
0.0161115882837
0.0146147392036
0.0132865367849
0.0121029998019
0.0161102657621
0.0146137376034
0.0132857706222
0.0121024087598
0.0110439452724
0.0146127489299
0.0132850092936
0.0121018185394
0.0110434851717
0.0100936590022
1.21723059107
1.21777821096
0.487990588254
1.21836783155
0.488158255182
0.270325971222
1.21900254864
0.488330350013
0.270289211573
0.177552462128
1.21968938831
0.488505480679
0.270240223086
0.177422975721
0.127927457007
0.488685386477
0.270178092746
0.177278995835
0.127780641034
0.0977355637019
0.270099076324
0.17711824969
0.127623798126
0.0976186897355
0.0778281046807
0.176939269291
0.127456953642
0.0974998379147
0.0777622441401
0.0639387502318
0.127281110875
0.0973807191961
0.0777012295045
0.0639229759065
0.0537994642119
0.0972619954105
0.0776462718932
0.0639157791613
0.0538192348409
0.0460938835583
0.0775983498947
0.0639141923855
0.053844129739
0.0461288505337
0.0400211739555
0.0639224592843
0.0538754729149
0.0461665683132
0.0400555736036
0.0350849132019
0.0539110092034
0.0462049545054
0.0400882889351
0.035108876727
0.0309755677985
0.0462424660311
0.0401179515679
0.0351290278299
0.0309874840671
0.0274984480713
0.0401426289628
0.0351442054248
0.0309946427034
0.0275009526309
0.0245261123561
0.0351522790404
0.0309975715159
0.0275015366504
0.0245251881528
0.0219670769187
0.0309979701792
0.0274997751512
0.0245226363385
0.0219647745677
0.0197489552477
0.0274953501053
0.024518997378
0.0219620620642
0.0197470088288
0.0178142405678
0.0245148373282
0.0219591395681
0.0197449724208
0.0178128229426
0.0161161786255
0.0219560731065
0.0197428707263
0.0178113609094
0.0161151382448
0.0146173971688
0.0197407213656
0.0178098416567
0.0161140359931
0.0146165804734
0.0132879391212
0.0178082407054
0.0161128546752
0.0146156947412
0.0132872659494
0.0121035617133
0.0161115882698
0.0146147392099
0.0132865367804
0.0121029998336
0.0110444045714
0.0146137375598
0.0132857706222
0.0121024087605
0.0110439453101
0.0100940193851
0.0132850093079
0.0121018185395
0.0110434851713
0.0100936589883
0.00923865064934
1.2167191816
1.21723011633
0.487826709333
1.2177781135
0.487990369315
0.270352673659
1.21836754084
0.488158288046
0.270325936122
0.17766798794
1.21900289062
0.488330304062
0.270289224277
0.177552455693
0.128064806304
0.488505568569
0.27024021624
0.177422981927
0.127927458398
0.0978498393405
0.270178135655
0.177279000397
0.127780641064
0.0977355638582
0.0778974109945
0.177118261172
0.127623801727
0.0976186881934
0.0778281034016
0.0639610681679
0.127456953338
0.0974998381148
0.0777622436587
0.0639387493057
0.0537862429777
0.0973807206048
0.0777012301579
0.0639229754599
0.0537994635134
0.0460618783945
0.077646272323
0.0639157791482
0.0538192347086
0.0460938833095
0.039986719572
0.063914192876
0.0538441298475
0.0461288504256
0.0400211737194
0.0350581186603
0.0538754736869
0.0461665686127
0.0400555733787
0.0350849129118
0.0309601109213
0.0462049549714
0.0400882891069
0.0351088765896
0.030975567582
0.027492849506
0.0401179517804
0.0351290279098
0.0309874839918
0.0274984479543
0.0245256240953
0.0351442056376
0.030994642773
0.0275009525648
0.0245261122706
0.0219686761559
0.0309975717409
0.0275015367232
0.0245251880986
0.0219670768729
0.0197507433237
0.0274997752954
0.024522636386
0.0219647745285
0.0197489552346
0.0178156152295
0.0245189974674
0.0219620620986
0.0197470088012
0.0178142405807
0.0161171760758
0.0219591396168
0.0197449724429
0.0178128229254
0.0161161786561
0.0146181553041
0.0197428707421
0.0178113609239
0.016115138234
0.0146173972082
0.0132885547945
0.0178098416513
0.0161140360014
0.0146165804677
0.0132879391616
0.0121040795321
0.0161128546613
0.0146156947466
0.0132872659457
0.0121035617476
0.0110448412509
0.0146147391869
0.0132865367849
0.0121029998306
0.0110444046036
0.010094378456
0.0132857705787
0.0121024087598
0.0110439453114
0.0100940194184
0.00923893408801
0.0121018185553
0.0110434851717
0.0100936589878
0.00923865063754
0.00846691121741
1.21623842883
1.21671942376
0.487667219091
1.21722983924
0.487826748246
0.270370196719
1.21777822664
0.487990241791
0.270352617605
0.177771385516
1.21836712906
0.488158258716
0.270325917635
0.177667969252
0.128192283543
0.488330246781
0.270289211591
0.177552453593
0.128064800132
0.0979603308143
0.270240209968
0.177422975479
0.127927460028
0.0978498380674
0.0779690942894
0.177279010984
0.127780640891
0.0977355642004
0.0778974110575
0.0639894846991
0.127623807904
0.0976186897508
0.0778281027423
0.0639610675416
0.053778375757
0.097499839214
0.0777622441462
0.063938748696
0.053786242419
0.0460340065973
0.0777012313735
0.063922975926
0.0537994631223
0.0460618778616
0.0399529713279
0.0639157792863
0.0538192348457
0.0460938831437
0.0399867193549
0.0350296196813
0.0538441301514
0.0461288505266
0.0400211736088
0.0350581184556
0.030941645958
0.0461665691489
0.0400555736026
0.0350849127385
0.0309601107134
0.0274841144059
0.0400882894865
0.0351088767287
0.030975567471
0.0274928493479
0.0245237723732
0.035129028112
0.0309874840685
0.027498447891
0.0245256240133
0.0219692722793
0.0309946429536
0.0275009526305
0.0245261122126
0.0219686761113
0.0197522595742
0.0275015368763
0.0245251881527
0.0219670768304
0.019750743316
0.0178169245177
0.0245226364797
0.0219647745676
0.0197489552034
0.0178156152462
0.0161181433479
0.0219620621493
0.0197470088289
0.0178142405598
0.016117176111
0.014618870447
0.0197449724592
0.0178128229426
0.0161161786437
0.0146181553489
0.0132891190427
0.0178113609158
0.0161151382448
0.014617397201
0.0132885548418
0.0121045505166
0.0161140359796
0.0146165804734
0.0132879391584
0.0121040795758
0.0110452436835
0.0146156947224
0.0132872659494
0.0121035617454
0.0110448412859
0.010094720238
0.0132865367561
0.0121029998336
0.011044404602
0.010094378487
0.009239216244
0.0121024087185
0.0110439453101
0.0100940194201
0.00923893411674
0.0084671349327
0.0110434851871
0.0100936589883
0.00923865063693
0.00846691120774
0.00776862958911
1.21579203092
1.21623902144
0.487513033163
1.21671957781
0.48766747451
0.270380431844
1.21723011968
0.487826774361
0.270370247641
0.177863382003
1.21777842664
0.487990373887
0.27035258535
0.177771377258
0.128310894343
0.488158222993
0.27032593799
0.177667959222
0.128192277391
0.0980665161197
0.270289198718
0.177552456018
0.128064796668
0.0979603277548
0.0780415080319
0.177422967532
0.127927458424
0.0978498377797
0.0779690926859
0.0640221630173
0.127780642237
0.0977355638046
0.0778974110468
0.0639894845141
0.0537777729706
0.0976186925572
0.0778281033923
0.0639610672239
0.0537783754368
0.0460098898512
0.077762245124
0.0639387493013
0.0537862419885
0.0460340062102
0.039920992957
0.0639229767517
0.05379946352
0.0460618775543
0.0399529709269
0.0350001997114
0.0538192350935
0.0460938833139
0.0399867191962
0.0350296195045
0.030920836087
0.0461288507901
0.0400211737148
0.035058118345
0.0309416457941
0.0274727801009
0.0400555739936
0.0350849129115
0.0309601105778
0.027484114266
0.0245197689362
0.0351088770233
0.0309755675829
0.0274928492489
0.0245237722813
0.0219689554427
0.0309874842326
0.0274984479552
0.0245256239518
0.0219692722371
0.0197533306849
0.0275009527659
0.0245261122706
0.0219686760636
0.0197522595675
0.0178181289232
0.024525188246
0.0219670768729
0.0197507432825
0.01781692454
0.0161190794685
0.0219647746174
0.0197489552346
0.0178156152225
0.0161181433875
0.0146195569171
0.0197470088448
0.0178142405807
0.0161171760963
0.0146188704976
0.0132896429418
0.0178128229323
0.0161161786561
0.0146181553407
0.013289119096
0.0121049781596
0.0161151382183
0.0146173972082
0.0132885548378
0.0121045505674
0.0110456086375
0.01461658044
0.0132879391617
0.0121040795746
0.0110452437274
0.0100950357469
0.0132872659185
0.0121035617476
0.0110448412849
0.0100947202716
0.00923948535785
0.0121029998019
0.0110444046036
0.0100943784865
0.00923921627257
0.00846735760935
0.0110439452724
0.0100940194184
0.00923893411853
0.00846713495687
0.00776880672046
0.0100936590022
0.00923865063754
0.00846691120716
0.00776862958143
0.00713541758873
1.21537352574
1.21579158559
0.487365106504
1.21623940564
0.487512924953
0.270384208352
1.2167194058
0.487667637093
0.270380485482
0.177945491827
1.21723058166
0.487826740721
0.270370281216
0.177863398581
0.128420716616
0.487990587641
0.270352617622
0.1777713726
0.128310894244
0.0981685274274
0.27032597257
0.177667969646
0.128192274698
0.0980665143279
0.0781141470771
0.177552462406
0.128064800272
0.0979603255844
0.078041506874
0.064058070177
0.127927457118
0.0978498381146
0.0779690919907
0.0640221616772
0.0537805172319
0.0977355636761
0.0778974110467
0.0639894842591
0.0537777728283
0.045990735744
0.0778281046643
0.0639610675293
0.0537783752546
0.0460098896344
0.0398910242481
0.0639387502229
0.0537862424178
0.0460340058771
0.0399209926783
0.0349707298613
0.0537994642132
0.046061877865
0.0399529706827
0.0350001994194
0.0308982623779
0.0460938835653
0.0399867193577
0.0350296193638
0.0309208359527
0.0274591556021
0.040021173954
0.0350581184525
0.0309416456888
0.0274727799828
0.0245136553607
0.0350849131998
0.0309601107134
0.027484114159
0.0245197688576
0.0219677276352
0.0309755677984
0.0274928493479
0.0245237722055
0.0219689554037
0.0197537985594
0.0274984480722
0.0245256240137
0.0219692721813
0.0197533306797
0.0178191609325
0.0245261123564
0.0219686761114
0.0197522595297
0.0178181289484
0.0161199721027
0.0219670769187
0.019750743316
0.0178169245148
0.0161190795136
0.0146202216561
0.0197489552477
0.0178156152462
0.0161181433708
0.0146195569727
0.0132901384157
0.0178142405678
0.016117176111
0.0146188704884
0.0132896430015
0.0121053700089
0.0161161786255
0.0146181553489
0.0132891190917
0.0121049782166
0.0110459379078
0.0146173971688
0.0132885548418
0.012104550566
0.0110456086883
0.010095321698
0.0132879391212
0.0121040795758
0.0110452437277
0.0100950357887
0.00923973453147
0.0121035617133
0.0110448412859