/*--------------------------------*- C++ -*----------------------------------*\
| =========                 |                                                 |
| \\      /  F ield         | OpenFOAM: The Open Source CFD Toolbox           |
|  \\    /   O peration     | Version:  2212                                  |
|   \\  /    A nd           | Website:  www.openfoam.com                      |
|    \\/     M anipulation  |                                                 |
\*---------------------------------------------------------------------------*/
FoamFile
{
    version     2.0;
    format      ascii;
    arch        "LSB;label=64;scalar=64";
    class       volScalarField;
    location    "4000";
    object      p;
}
// * * * * * * * * * * * * * * * * * * * * * * * * * * * * * * * * * * * * * //

dimensions      [0 2 -2 0 0 0 0];

internalField   nonuniform List<scalar> 
125000
(
-0.0251598796027
-0.025400044702
-0.0251607685479
-0.0262469144967
-0.0325787405669
-0.0253992772363
-0.0256106480681
-0.0251607509886
-0.0262478668971
-0.0285843106246
-0.0446168036463
-0.0325788539024
-0.0327524163475
-0.0253991867868
-0.0256098104451
-0.0283108300625
-0.0251607687308
-0.0262478485265
-0.0285849039438
-0.0310044085338
-0.0539812144205
-0.0446170621506
-0.0444358816719
-0.032578891547
-0.0327524858012
-0.0345972558698
-0.0253992767998
-0.0256097209151
-0.0283102221613
-0.0312738806001
-0.0251598796577
-0.0262478670574
-0.0285848841644
-0.0310047961754
-0.0326502606168
-0.061145988828
-0.0539811424245
-0.0536397378817
-0.0446170429944
-0.0444361116105
-0.0451637194399
-0.0325788538503
-0.0327525228506
-0.0345974010255
-0.0368324927899
-0.0254000443363
-0.0256098100282
-0.0283101343676
-0.0312733453536
-0.0335539625018
-0.0262469145447
-0.0285849040695
-0.0310047751266
-0.0326509681987
-0.033798710935
-0.0665658089397
-0.0611460243995
-0.0607179672969
-0.0539810690638
-0.0536396537405
-0.0538048741943
-0.0446170625571
-0.0444360918691
-0.0451639675571
-0.0463362686757
-0.0325787406369
-0.032752485719
-0.0345974356723
-0.0368326409626
-0.0389515235755
-0.0256106477084
-0.028310221798
-0.031273258695
-0.0335532977833
-0.035230159324
-0.0285843107028
-0.0310047962861
-0.0326509461495
-0.0337996948073
-0.0348450966854
-0.0703139267817
-0.0665658735711
-0.0660844683023
-0.0611460277197
-0.0607179952677
-0.0605195995991
-0.0539811412599
-0.0536395830806
-0.0538048016315
-0.0544383623015
-0.0446168031703
-0.0444361119844
-0.0451639475714
-0.0463365042141
-0.0476917449958
-0.0327524163656
-0.0345974008656
-0.0368326729607
-0.0389516880601
-0.0407241270969
-0.0283108297204
-0.0312733450334
-0.0335532112974
-0.0352293153673
-0.0365762888838
-0.0310044086802
-0.0326509683048
-0.0337996709649
-0.0348461647282
-0.0359595466819
-0.0729221830827
-0.0703138643922
-0.0698449371513
-0.0665658853048
-0.0660845246809
-0.0656671302209
-0.0611460236218
-0.0607179988159
-0.0605196159799
-0.0607893884074
-0.0539812123622
-0.0536396526308
-0.0538047374384
-0.0544382975048
-0.0553354388875
-0.0444358811791
-0.0451639678241
-0.0463364843658
-0.0476919881836
-0.0489540829289
-0.0345972557236
-0.0368326407203
-0.0389517180897
-0.0407243248326
-0.0421220728954
-0.0312738802455
-0.0335532974908
-0.0352292285621
-0.0365753012862
-0.0377893079844
-0.032650260854
-0.0337996949269
-0.0348461378629
-0.0359606415369
-0.0371656586216
-0.0748312715646
-0.0729221579055
-0.0724946634284
-0.0703138062822
-0.0698448717523
-0.0693576915869
-0.0665658754524
-0.0660845337009
-0.0656671622808
-0.0656994710885
-0.0611459893904
-0.0607179945809
-0.0605196171723
-0.0607894042903
-0.0613675864412
-0.0536397359555
-0.0538048007264
-0.0544382397337
-0.0553353871833
-0.0562448135957
-0.0451637189294
-0.0463365043516
-0.0476919688072
-0.0489543367667
-0.0499798187826
-0.0368324924514
-0.0389516877293
-0.0407243538259
-0.0421223049475
-0.0432445126501
-0.033553962121
-0.0352293150967
-0.0365752140505
-0.0377882080777
-0.0389744864308
-0.0337987112592
-0.0348461648564
-0.0359606107294
-0.0371668121372
-0.0384476909946
-0.0762298758139
-0.0748313463899
-0.0744477688857
-0.0729221264774
-0.0724946429175
-0.0720033539716
-0.0703138647223
-0.069844812657
-0.0693576173586
-0.0692648996081
-0.0665658109391
-0.0660845265212
-0.0656671633726
-0.0656995006119
-0.0660414465278
-0.0607179679057
-0.0605196154842
-0.0607894016894
-0.0613676006342
-0.0620330660418
-0.0538048726418
-0.0544382968428
-0.0553353347513
-0.0562447724945
-0.0569981389661
-0.0463362681738
-0.0476919882167
-0.0489543178803
-0.0499800769505
-0.0507700592297
-0.0389515230571
-0.0407243244165
-0.0421223339547
-0.0432447768773
-0.0442190957669
-0.0352301589122
-0.036575301028
-0.0377881202214
-0.0389732790209
-0.0401839424304
-0.0348450970745
-0.0359606416697
-0.037166776761
-0.0384489378594
-0.0397898463455
-0.0773112178267
-0.0762299181229
-0.0758881418644
-0.0748313809053
-0.0744478462351
-0.073977186383
-0.072922155936
-0.0724946145123
-0.072003337791
-0.0718373213119
-0.070313925171
-0.0698448719665
-0.0693575602747
-0.0692648438077
-0.0694600275495
-0.0660844701704
-0.0656671638867
-0.0656994932706
-0.0660414683767
-0.066511429833
-0.0605196002024
-0.0607894039723
-0.0613675936407
-0.0620330754913
-0.0626203323795
-0.0544383611553
-0.0553353867777
-0.0562447243708
-0.0569981045362
-0.0575422799444
-0.0476917445293
-0.0489543367189
-0.0499800582905
-0.0507703203088
-0.0513912868011
-0.0407241264092
-0.0421223044617
-0.0432448069903
-0.0442193922364
-0.0451399250501
-0.0365762884524
-0.0377882078374
-0.038973189991
-0.0401826225535
-0.0414338399392
-0.0359595470939
-0.0371668122519
-0.0384488974643
-0.0397912041411
-0.0411813031521
-0.0781540773493
-0.0773111206893
-0.0770089239232
-0.0762299367286
-0.0758881755584
-0.075454092048
-0.0748313464293
-0.0744478822552
-0.0739772505129
-0.0737702836813
-0.0729221813193
-0.0724946409502
-0.0720033193343
-0.0718373289457
-0.0719354860728
-0.0698449354218
-0.0693576172742
-0.0692647919216
-0.0694599825042
-0.0698027970681
-0.0656671316346
-0.0656995018644
-0.066041453815
-0.0665114418614
-0.0669670746564
-0.0607893889223
-0.0613676004412
-0.0620330642482
-0.0626203380707
-0.0630449930315
-0.0553354381078
-0.0562447723206
-0.0569980597634
-0.0575422485445
-0.0579101539461
-0.0489540825227
-0.0499800768613
-0.0507703015791
-0.0513915530816
-0.0519153253416
-0.042122072088
-0.0432447763537
-0.0442194245178
-0.0451402516584
-0.0460633083966
-0.0377893075428
-0.0389732787945
-0.0401825314417
-0.0414324028871
-0.0427231466637
-0.0371656590101
-0.0384489379391
-0.0397911584673
-0.0411827797099
-0.0426135359233
-0.0787966783688
-0.0781540381487
-0.0778854664631
-0.077311049817
-0.0770088316004
-0.0766068143904
-0.0762299208065
-0.0758881883025
-0.0754540957678
-0.0752332600064
-0.0748312734526
-0.0744478464377
-0.0739772844499
-0.0737703450253
-0.0738006002605
-0.0724946617666
-0.0720033359981
-0.0718373208819
-0.0719355089237
-0.0721908707868
-0.0693576897475
-0.0692648434805
-0.0694599366833
-0.0698027597588
-0.0701715214081
-0.0656994719561
-0.0660414692595
-0.0665114215063
-0.0669670800696
-0.0673177995766
-0.0613675868232
-0.0620330753732
-0.0626203231468
-0.0630449963334
-0.063295885265
-0.0562448131342
-0.0569981045537
-0.0575422061972
-0.0579101236891
-0.0581658154625
-0.0499798184357
-0.0507703201965
-0.0513915341001
-0.0519155982821
-0.0524013623398
-0.0432445117658
-0.0442193917059
-0.0451402871017
-0.046063662041
-0.0470150871232
-0.0389744860032
-0.040182622353
-0.0414323084882
-0.0427215913511
-0.0440462006321
-0.038447691313
-0.0397912041674
-0.0411827288358
-0.0426151353213
-0.0440783370494
-0.079312785432
-0.0787968350495
-0.0785578205064
-0.0781540011575
-0.0778854380181
-0.0775138823496
-0.0773111216477
-0.0770087630836
-0.0766067331957
-0.0763716407099
-0.0762298789193
-0.0758881782268
-0.0754540938259
-0.0752332479128
-0.0752193794212
-0.0744477709643
-0.0739772512216
-0.0737703733015
-0.0738006493251
-0.0739908825852
-0.0720033528081
-0.0718373274692
-0.071935510448
-0.0721909041491
-0.0725002520725
-0.0692648978178
-0.0694599819948
-0.0698027200586
-0.0701714927417
-0.0704760512188
-0.0660414468944
-0.0665114423899
-0.0669670553995
-0.0673178022028
-0.0675230869308
-0.062033066259
-0.0626203379865
-0.0630449784188
-0.0632958862804
-0.0634072542707
-0.0569981387462
-0.0575422486912
-0.0579100827979
-0.0581657879545
-0.0583614691525
-0.050770058944
-0.0513915529643
-0.0519155789589
-0.0524016431006
-0.0528906646378
-0.044219094868
-0.0451402511569
-0.0460637014786
-0.047015464011
-0.0480012569212
-0.0401839420299
-0.0414324027078
-0.0427214922477
-0.0440445305904
-0.0453967244942
-0.0397898465609
-0.0411827796765
-0.0426150797022
-0.0440800604419
-0.0455671656929
-0.0797237445358
-0.0793128035846
-0.079099485942
-0.0787969267539
-0.0785579697447
-0.0782177148679
-0.0781540352316
-0.0778854075771
-0.0775138705436
-0.0772742004351
-0.0773112162065
-0.0770088322698
-0.0766066753035
-0.0763715837564
-0.0763216283114
-0.0758881447147
-0.0754540981471
-0.0752332319243
-0.0752193485223
-0.0753620665031
-0.0739771887755
-0.0737703461819
-0.0738006696823
-0.0739909170597
-0.0742552232416
-0.0718373207398
-0.0719355077939
-0.0721909136996
-0.0725002931882
-0.0727814923571
-0.0694600259001
-0.069802759141
-0.0701714589403
-0.0704760307977
-0.0706664273772
-0.0665114297644
-0.0669670802967
-0.067317774802
-0.0675230892803
-0.0675853829911
-0.0626203324489
-0.0630449962496
-0.0632958659053
-0.0634072523247
-0.0634300142218
-0.0575422799039
-0.0579101239113
-0.058165747631
-0.0583614452743
-0.0585341554448
-0.0513912865524
-0.0519155981586
-0.0524016234821
-0.0528909538573
-0.0534089513331
-0.0451399241796
-0.0460636615898
-0.0470155080591
-0.0480016511254
-0.0490200853651
-0.0414338395814
-0.0427215912021
-0.044044425177
-0.0453949477818
-0.0467684534507
-0.0411813032464
-0.042615135231
-0.0440800009162
-0.0455690104853
-0.0470711700763
-0.0800360530103
-0.0797235466423
-0.0795318075045
-0.0793128148855
-0.0790994960091
-0.0787868131473
-0.0787968331912
-0.0785580565688
-0.0782178273315
-0.0779812656027
-0.0781540734598
-0.077885435209
-0.0775138550189
-0.0772742140322
-0.0771982602999
-0.0770089221069
-0.076606733119
-0.076371538468
-0.0763215941992
-0.0764240850256
-0.0754540940537
-0.0752332498533
-0.0752193201742
-0.0753620194443
-0.0755903404788
-0.0737702862117
-0.0738006508376
-0.0739909289849
-0.0742552444531
-0.0745164178044
-0.0719354860882
-0.0721909033848
-0.0725003084692
-0.0727815374126
-0.0729810781209
-0.0698027955976
-0.0701714920668
-0.0704760024209
-0.0706664135895
-0.0707301410039
-0.066967074258
-0.067317802183
-0.067523060785
-0.0675853860009
-0.067536805138
-0.0630449929555
-0.0632958861846
-0.0634072300274
-0.063430009844
-0.0634095272191
-0.0579101540003
-0.0581657881973
-0.0583614047396
-0.0585341350081
-0.0587121502188
-0.0519153251197
-0.0524016429761
-0.0528909341856
-0.0534092505238
-0.0539680513421
-0.0460633075988
-0.0470154636312
-0.0480017000836
-0.0490204892824
-0.0500680151543
-0.0427231463514
-0.0440445304622
-0.045394834395
-0.0467665826905
-0.0481551091214
-0.0426135358959
-0.0440800603067
-0.0455689482028
-0.0470731291737
-0.0485814227313
-0.0802692393095
-0.0800361378401
-0.0798626351822
-0.0797234137143
-0.0795316223591
-0.0792426401773
-0.0793128075571
-0.0790995013481
-0.0787868050947
-0.0785522207245
-0.0787966807151
-0.0785579682112
-0.0782178943858
-0.0779813441605
-0.0778876353414
-0.0778854629524
-0.0775138682961
-0.0772742138501
-0.0771982939916
-0.0772659962274
-0.0766068122974
-0.0763715829888
-0.0763215630734
-0.0764240730263
-0.0766183364549
-0.0752332610907
-0.0752193500107
-0.0753619809273
-0.075590282742
-0.0758325140775
-0.073800602774
-0.0739909188094
-0.0742552480998
-0.0745164275676
-0.0747181638006
-0.0721908713256
-0.0725002927565
-0.0727815556494
-0.0729811229883
-0.0730725445969
-0.0701715201573
-0.0704760301497
-0.0706663897736
-0.0707301324298
-0.070679176636
-0.067317798932
-0.0675230890874
-0.0675853578855
-0.0675368096679
-0.0674186490305
-0.0632958850808
-0.0634072522086
-0.0634299860721
-0.0634095230497
-0.0633751723725
-0.0581658155616
-0.0583614455028
-0.0585340937361
-0.0587121335412
-0.0589159215282
-0.052401362118
-0.0528909537295
-0.0534092312261
-0.0539683619941
-0.0545709916404
-0.0470150864226
-0.048001650817
-0.0490205431055
-0.0500684202091
-0.0511409837596
-0.0440462003638
-0.0453949476765
-0.0467664597146
-0.0481531614806
-0.0495502895761
-0.0440783369161
-0.0455690103237
-0.0470730655212
-0.0485834842068
-0.0500891484105
-0.0804453886542
-0.080269451299
-0.0801122175905
-0.0800361815204
-0.0798627278232
-0.0795951939312
-0.0797235488184
-0.0795314969879
-0.0792424942413
-0.0790122886281
-0.0793127907179
-0.0790994998517
-0.0787868001532
-0.0785522004603
-0.0784408782596
-0.0785578229705
-0.0782178266513
-0.0779813889104
-0.0778876777789
-0.0779282543459
-0.0775138799902
-0.0772742124686
-0.0771983074516
-0.0772660444875
-0.0774295751935
-0.0763716384318
-0.0763215928469
-0.076424056038
-0.0766183446665
-0.076840997281
-0.0752193796452
-0.0753620204544
-0.0755902370964
-0.0758324512453
-0.0760330695867
-0.0739908849779
-0.0742552463306
-0.0745164237431
-0.0747181643724
-0.0748300396506
-0.0725002530328
-0.0727815372842
-0.0729811411877
-0.0730725853976
-0.0730528959167
-0.0704760502118
-0.0706664130099
-0.0707301120727
-0.0706791712891
-0.0705399958493
-0.0675230861724
-0.0675853857034
-0.0675367830216
-0.0674186559816
-0.0672661973072
-0.0634072539975
-0.0634300097104
-0.0634094981913
-0.0633751695669
-0.063347130511
-0.0583614692358
-0.0585341351935
-0.0587120912147
-0.0589159096087
-0.0591581404867
-0.0528906644168
-0.0534092503968
-0.0539683437008
-0.0545713141856
-0.0552173590294
-0.0480012563302
-0.0490204890466
-0.0500684784248
-0.0511413806748
-0.0522346194079
-0.0453967242636
-0.0467665825966
-0.0481530275368
-0.0495482864254
-0.0509474318463
-0.0455671654776
-0.0470731290023
-0.0485834206994
-0.0500912955763
-0.0515858952345
-0.0805653969572
-0.0804451868356
-0.0803026829198
-0.0802695866299
-0.0801124128076
-0.0798651289695
-0.0800361310053
-0.0798627764903
-0.0795952833626
-0.0793722586831
-0.0797237419055
-0.0795316241137
-0.0792423958713
-0.0790121924084
-0.0788886321275
-0.0790994908239
-0.0787868081424
-0.0785521853681
-0.0784408467243
-0.0784563242819
-0.0782177173669
-0.0779813443488
-0.0778877000764
-0.0779282626164
-0.0780665281223
-0.0772741993052
-0.0771982931048
-0.077266068416
-0.077429632708
-0.0776331135952
-0.0763216259812
-0.076424071283
-0.0766183406188
-0.0768410216378
-0.0770404299104
-0.0753620659275
-0.0755902833247
-0.0758324021204
-0.0760330070197
-0.0761595426244
-0.0742552254381
-0.0745164294178
-0.0747181547302
-0.0748300340085
-0.0748439248393
-0.0727814936073
-0.0729811230771
-0.0730726010042
-0.0730529296757
-0.0729361513727
-0.0706664266204
-0.0707301319749
-0.0706791532149
-0.0705399910102
-0.0703451780788
-0.0675853821981
-0.0675368093253
-0.06741863134
-0.0672662079304
-0.0671031715634
-0.0634300138998
-0.0634095228999
-0.0633751439103
-0.063347129021
-0.0633410801932
-0.058534155495
-0.0587121336729
-0.0589158661052
-0.0591581351048
-0.0594445654391
-0.0534089511007
-0.0539683618696
-0.054571297653
-0.0552176932415
-0.0559052546221
-0.0490200848852
-0.0500684200297
-0.0511414423955
-0.0522349986709
-0.0533442538744
-0.0467684532454
-0.0481531613977
-0.0495481405155
-0.0509453979916
-0.0523398559205
-0.0470711698108
-0.0485834840432
-0.050091233738
-0.0515881072086
-0.0530636657749
-0.0806433504273
-0.0805652436974
-0.0804352964123
-0.080445059513
-0.080302480874
-0.0800737182738
-0.0802694511259
-0.080112537249
-0.0798652755729
-0.0796505642096
-0.0800360474378
-0.0798627212817
-0.0795953332116
-0.0793723412975
-0.0792429377059
-0.0795318047289
-0.0792424950489
-0.0790121249358
-0.0788885812144
-0.0788826418673
-0.0787868167512
-0.0785522025148
-0.0784408234666
-0.0784562862763
-0.0785707513259
-0.0779812680741
-0.0778876787428
-0.0779282638104
-0.0780665073099
-0.078253171062
-0.0771982603244
-0.0772660442827
-0.0774296633313
-0.0776331745295
-0.0778275768169
-0.0764240827748
-0.0766183426884
-0.0768410282143
-0.0770404649178
-0.0771811495954
-0.0755903392813
-0.0758324514446
-0.0760329582733
-0.0761594849583
-0.0761994652186
-0.0745164196936
-0.0747181660729
-0.0748300206622
-0.0748439166874
-0.0747657527246
-0.0729810794874
-0.0730725856282
-0.0730529407485
-0.0729361762289
-0.0727462876021
-0.0707301404837
-0.0706791709618
-0.0705399742355
-0.0703451725832
-0.0701227217401
-0.067536804414
-0.067418655641
-0.0672661852834
-0.0671031864386
-0.0669450114896
-0.0634095268693
-0.0633751694104
-0.0633471027174
-0.0633410801431
-0.0633684562411
-0.0587121502102
-0.058915909682
-0.0591580904716
-0.0594445679086
-0.0597774417742
-0.0539680511114
-0.0545713140671
-0.0552176792901
-0.0559055995958
-0.0566318044592
-0.0500680147704
-0.051141380542
-0.0522350625731
-0.0533446063199
-0.0544649292127
-0.0481551089354
-0.0495482863461
-0.0509452396673
-0.0523378184853
-0.0537208552785
-0.0485814224423
-0.0500912954293
-0.0515880484533
-0.0530659184609
-0.0545150249744
-0.0806781398497
-0.0806436260467
-0.0805241674089
-0.0805651375821
-0.0804351570971
-0.0802228131858
-0.0804451953651
-0.0803023527221
-0.0800735286811
-0.0798670550228
-0.0802692448958
-0.0801124130486
-0.0798653705666
-0.0796506629272
-0.0795161244932
-0.0798626301341
-0.0795952780661
-0.0793723878236
-0.0792430092061
-0.0792216739462
-0.0792426375509
-0.0790121923221
-0.0788885428013
-0.0788826305677
-0.0789742064795
-0.0785522228845
-0.0784408478104
-0.078456258169
-0.0785707118133
-0.0787407646726
-0.0778876377278
-0.0779282641364
-0.0780664901089
-0.0782531282269
-0.0784413457434
-0.0772659972772
-0.0774296330984
-0.0776332079883
-0.0778276360348
-0.077976897081
-0.0766183343764
-0.0768410196395
-0.0770404785684
-0.0771811890747
-0.0772450300922
-0.0758325124129
-0.0760330069601
-0.0761594398103
-0.0761994157505
-0.076154535118
-0.0747181653615
-0.0748300354475
-0.0748439017881
-0.0747657456419
-0.0746083105151
-0.0730725459362
-0.0730529299577
-0.0729361817818
-0.0727463025081
-0.0725102985188
-0.070679176314
-0.0705399908209
-0.0703451562996
-0.0701227164598
-0.069891127559
-0.0674186484017
-0.0672662076183
-0.0671031654384
-0.0669450295163
-0.066804322659
-0.0633751720233
-0.0633471288643
-0.0633410532063
-0.0633684584618
-0.063436029273
-0.0589159214701
-0.0591581351274
-0.0594445223364
-0.0597774530465
-0.0601572933345
-0.0545709914092
-0.0552176931316
-0.0559055890128
-0.0566321585313
-0.0573933316998
-0.0511409834593
-0.0522349985662
-0.0533446707152
-0.0544652466014
-0.0555914337533
-0.0495502893972
-0.0509453979164
-0.0523376479564
-0.0537188422997
-0.0550838091005
-0.0500891481244
-0.0515881070847
-0.053065863979
-0.0545172923313
-0.0559331871454
-0.0806804725713
-0.0806782642521
-0.0805687218415
-0.0806437943131
-0.0805244515245
-0.0803263900069
-0.0805652401087
-0.0804350594433
-0.0802227131568
-0.0800245425728
-0.0804453932427
-0.080302489022
-0.0800734090039
-0.0798668930808
-0.0797284125636
-0.0801122231392
-0.0798652765168
-0.0796507264518
-0.0795161795019
-0.0794803393985
-0.0795951902784
-0.0793723375462
-0.0792430502257
-0.0792217331531
-0.0792933637538
-0.0790122862965
-0.0788885803591
-0.0788826177676
-0.0789742288887
-0.0791256163085
-0.0784408790774
-0.0784562864044
-0.07857068193
-0.0787407276423
-0.0789219996561
-0.0779282565017
-0.0780665091769
-0.0782530968986
-0.0784412893827
-0.0785955805775
-0.077429577046
-0.0776331754116
-0.0778276687745
-0.0779769505319
-0.0780601529346
-0.0768409954809
-0.0770404630498
-0.0771812060028
-0.0772450682096
-0.0772284735914
-0.0760330677501
-0.0761594847525
-0.0761993765399
-0.0761544956394
-0.0760340777166
-0.0748300408323
-0.0748439178106
-0.0747657308746
-0.0746083059331
-0.0743897937953
-0.0730528970866
-0.0729361765026
-0.0727463024394
-0.072510303993
-0.0722510190118
-0.0705399956915
-0.0703451724975
-0.0701227002282
-0.0698911236891
-0.0696621247351
-0.0672661968123
-0.0671031861765
-0.0669450095837
-0.0668043427817
-0.0666911867491
-0.0633471301788
-0.0633410799951
-0.0633684308389
-0.0634360344741
-0.0635475525644
-0.0591581403791
-0.0594445678898
-0.0597774068312
-0.0601573141041
-0.0605834205194
-0.0552173588132
-0.0559055994952
-0.0566321519923
-0.0573936924572
-0.0581854487874
-0.0522346191651
-0.0533446062345
-0.0544653095113
-0.0555917093216
-0.0567183569511
-0.050947431675
-0.052337818412
-0.0537186605044
-0.0550818479956
-0.0564223028399
-0.0515858949649
-0.0530659183581
-0.0545172430198
-0.0559354425745
-0.057312077733
-0.0806565339691
-0.0806800939569
-0.0805800087361
-0.0806783461253
-0.0805688277804
-0.0803845686837
-0.0806436175183
-0.0805246249304
-0.0803266583442
-0.0801364039098
-0.0805653894744
-0.0804351532123
-0.0802226417956
-0.0800244854834
-0.0798842580753
-0.0803026870469
-0.0800735354574
-0.0798667896093
-0.0797282801166
-0.0796797295443
-0.0798651339384
-0.0796506643403
-0.0795162149702
-0.0794803559807
-0.0795346451391
-0.0793722564876
-0.0792430069067
-0.0792217677909
-0.0792934102151
-0.0794266300812
-0.0788886301351
-0.0788826291839
-0.0789742378115
-0.0791256636568
-0.0792966112387
-0.0784563238864
-0.0785707111238
-0.0787406986992
-0.078921967606
-0.079078733168
-0.078066529985
-0.0782531302052
-0.0784412493875
-0.0785955193279
-0.078693621021
-0.0776331159926
-0.0778276372214
-0.0779769798438
-0.0780601981102
-0.0780697422169
-0.0770404284078
-0.077181187496
-0.0772450848242
-0.0772285055332
-0.0771386151863
-0.076159540793
-0.0761994155156
-0.0761544635549
-0.076034049274
-0.0758499595699
-0.0748439257044
-0.0747657464358
-0.0746082922913
-0.0743897904476
-0.0741320759267
-0.0729361523112
-0.0727463027337
-0.0725102988881
-0.0722510177634
-0.0719831419665
-0.0703451780305
-0.0701227164543
-0.0698911072431
-0.0696621223026
-0.0694455279333
-0.0671031711856
-0.0669450293034
-0.0668043233041
-0.0666912085966
-0.0666126146623
-0.0633410798889
-0.0633684583285
-0.0634360060909
-0.063547561119
-0.0637051852426
-0.0594445653032
-0.0597774530004
-0.060157267622
-0.0605834511383
-0.0610540641365
-0.0559052544184
-0.0566321584404
-0.0573936904425
-0.0581858131466
-0.0590031543573
-0.0533442536766
-0.0544652465246
-0.0555917686226
-0.0567185858475
-0.0578401542375
-0.0523398557505
-0.0537188422298
-0.0550816565941
-0.0564204189324
-0.0577302496379
-0.0530636655332
-0.0545172922475
-0.0559353989941
-0.0573142954056
-0.0586463671552
-0.0806060166695
-0.0806565121535
-0.0805639517545
-0.0806798592218
-0.0805796262121
-0.0804086155345
-0.0806782702347
-0.0805688982452
-0.0803846236326
-0.0802031940371
-0.0806433483868
-0.0805244429166
-0.0803268237394
-0.0801366343831
-0.0799958730237
-0.0804352889664
-0.0802227087541
-0.0800244415459
-0.0798842399264
-0.0798253391992
-0.0800737212153
-0.0798668980993
-0.07972819486
-0.0796796269134
-0.0797179246228
-0.0796505683406
-0.0795161812798
-0.0794803667743
-0.0795346289115
-0.0796531514887
-0.0792429368277
-0.0792217321928
-0.0792934378078
-0.079426663478
-0.0795861010716
-0.0788826402431
-0.0789742271654
-0.0791256889226
-0.0792966736769
-0.0794530503174
-0.0785707499898
-0.0787407262988
-0.0789219415512
-0.0790787069448
-0.0791877794702
-0.0782531725361
-0.0784412912737
-0.0785954762425
-0.0786935624636
-0.0787251981136
-0.0778275794342
-0.0779769518454
-0.0780602221726
-0.078069778073
-0.0780079778493
-0.0771811484266
-0.0772450669901
-0.0772285192349
-0.0771386386134
-0.0769868807734
-0.0761994636432
-0.0761544954666
-0.0760340243797
-0.0758499415776
-0.0756159908677
-0.0747657532762
-0.0746083064224
-0.0743897781691
-0.0741320728442
-0.0738538664084
-0.0727462882708
-0.0725103041553
-0.0722510086038
-0.07198313699
-0.0717159452008
-0.0701227217683
-0.0698911237227
-0.069662105491
-0.0694455268401
-0.0692499919683
-0.0669450112209
-0.06680434262
-0.0666911890161
-0.0666126382098
-0.0665732053202
-0.0633684559758
-0.0634360343592
-0.0635475319019
-0.0637051974102
-0.0639098981051
-0.0597774416191
-0.0601573140415
-0.0605834048408
-0.0610541046213
-0.0615664756008
-0.0566318042773
-0.0573936923747
-0.0581858158752
-0.0590035186728
-0.0598409480599
-0.0544649290392
-0.0555917092508
-0.056718639434
-0.0578403338193
-0.0589512211532
-0.0537208551153
-0.0550818479298
-0.0564202202262
-0.0577284648972
-0.059002004663
-0.0545150247605
-0.0559354425045
-0.0573142577916
-0.0586485231458
-0.059931478902
-0.0805384245769
-0.0806065006519
-0.0805205502163
-0.0806564871387
-0.0805639583994
-0.0804039944605
-0.0806801031918
-0.0805793883763
-0.0804082700812
-0.0802357341646
-0.0806781508117
-0.0805688342218
-0.0803846632486
-0.0802032050386
-0.0800641393864
-0.0805241655146
-0.0803266508608
-0.0801367766581
-0.0799960557949
-0.0799296010002
-0.0802228063878
-0.0800244809611
-0.0798842216054
-0.079825356142
-0.0798490859582
-0.07986705674
-0.0797282834751
-0.0796795600741
-0.0797178517804
-0.0798217512374
-0.0795161278104
-0.0794803579555
-0.0795346183877
-0.0796531106985
-0.0798030437328
-0.0792216741776
-0.0792934103565
-0.0794266836551
-0.0795861219978
-0.0797398870808
-0.0789742053001
-0.079125661855
-0.0792967090189
-0.0794531183172
-0.0795702403841
-0.0787407626412
-0.0789219658699
-0.0790786847702
-0.0791877592855
-0.0792370163843
-0.0784413468681
-0.0785955209876
-0.0786935210697
-0.0787251475913
-0.0786894259505
-0.0779768996453
-0.0780601993737
-0.078069796121
-0.0780080040023
-0.0778837964586
-0.0772450292047
-0.077228504713
-0.0771386479545
-0.0769868965219
-0.0767838694506
-0.0761545338647
-0.0760340491939
-0.0758499231515
-0.0756159801655
-0.0753488169864
-0.074608310846
-0.0743897906922
-0.0741320616558
-0.0738538637266
-0.0735671903637
-0.0725102989512
-0.0722510178686
-0.0719831249223
-0.0717159384339
-0.0714571364994
-0.0698911276182
-0.0696621223511
-0.0694455095152
-0.0692499926074
-0.0690823122984
-0.0668043224689
-0.0666912084746
-0.0666126181464
-0.0665732305245
-0.066576193621
-0.063436029045
-0.063547561024
-0.0637051673026
-0.0639099139653
-0.0641615836802
-0.0601572931791
-0.0605834510699
-0.0610540590214
-0.0615665256701
-0.0621169841981
-0.0573933315335
-0.0581858130716
-0.0590035260591
-0.0598413082904
-0.0606929584466
-0.0555914335997
-0.0567185857801
-0.057840379788
-0.0589513510798
-0.0600459785768
-0.055083808942
-0.0564204188714
-0.0577282616889
-0.0590003368049
-0.0602324637646
-0.0559331869597
-0.0573142953459
-0.0586484914459
-0.0599335520346
-0.0611635773721
-0.080452564031
-0.0805382991743
-0.0804593991785
-0.0806067973177
-0.0805210142719
-0.0803713227947
-0.0806565006327
-0.0805639506986
-0.0804040475744
-0.0802390436642
-0.080680473203
-0.0805796352654
-0.0804080550752
-0.0802354580674
-0.0800983454695
-0.0805687327865
-0.080384630506
-0.0802032162867
-0.0800641123014
-0.0799928679783
-0.0803263891048
-0.0801366287631
-0.0799961691119
-0.0799297318648
-0.0799415159224
-0.080024536789
-0.079884235455
-0.0798253614425
-0.0798491319327
-0.0799391732551
-0.0797284131703
-0.0796796286425
-0.079717803264
-0.0798217061627
-0.0799619450025
-0.0794803419451
-0.079534630997
-0.0796530839623
-0.079802987861
-0.0799533221335
-0.0792933648888
-0.0794266645164
-0.0795861348011
-0.0797398976493
-0.0798624261187
-0.0791256155617
-0.0792966719345
-0.0794531576456
-0.0795703056723
-0.0796340021755
-0.0789219973239
-0.0790787050666
-0.0791877412842
-0.0792370016146
-0.0792233050738
-0.0785955813539
-0.0786935637849
-0.0787251113327
-0.0786893862562
-0.0785918292301
-0.078060155188
-0.0780697791622
-0.0780080160285
-0.0778838134202
-0.0777084781162
-0.0772284729742
-0.07713863816
-0.0769869012934
-0.0767838791706
-0.0765403453971
-0.0760340768741
-0.0758499416104
-0.0756159669046
-0.0753488106317
-0.075063188487
-0.074389793929
-0.0741320729064
-0.0738538531708
-0.0735671882815
-0.0732796228174
-0.0722510192447
-0.0719831370441
-0.0717159245021
-0.0714571291064
-0.0712140160589
-0.0696621248045
-0.0694455268813
-0.0692499746595
-0.0690823152525
-0.0689474846519
-0.0666911866156
-0.0666126381234
-0.0665732097693
-0.0665762205957
-0.0666237395587
-0.0635475523791
-0.0637051973338
-0.0639098829432
-0.0641616031082
-0.0644590794137
-0.0605834203684
-0.0610541045531
-0.061566481336
-0.0621170433249
-0.06270108926
-0.0581854486402
-0.0590035186042
-0.0598413199309
-0.0606933103418
-0.0615530758773
-0.0567183568074
-0.0578403337564
-0.0589513879036
-0.0600460607134
-0.0611189696179
-0.056422302692
-0.0577284648418
-0.059000132203
-0.0602309257503
-0.0614171383264
-0.0573120775707
-0.0586485230927
-0.0599335259756
-0.0611655497686
-0.0623395419849
-0.0803479900569
-0.0804520909359
-0.0803791236368
-0.0805382338903
-0.0804592479032
-0.0803199571905
-0.0806064912347
-0.0805212995157
-0.08037170234
-0.0802144391134
-0.080656519678
-0.0805639465514
-0.0804040703522
-0.0802391304394
-0.0801037232764
-0.0805800090092
-0.0804082773431
-0.0802352849488
-0.08009814658
-0.0800214646297
-0.0803845786381
-0.0802032116299
-0.0800640990761
-0.0799928099398
-0.0799950365332
-0.0801364041413
-0.0799960521178
-0.0799298134361
-0.0799415958347
-0.0800181778237
-0.0798842534659
-0.0798253519642
-0.0798491569348
-0.0799392389669
-0.0800693693263
-0.0796797291217
-0.0797178521366
-0.0798216747492
-0.0799619241297
-0.0801083360906
-0.0795346469159
-0.0796531126823
-0.07980295107
-0.0799532605151
-0.0800793317932
-0.0794266318372
-0.0795861235978
-0.0797399040161
-0.0798624287968
-0.0799377835913
-0.079296610879
-0.079453116803
-0.0795703436551
-0.0796340587393
-0.07963915952
-0.0790787307811
-0.0791877574833
-0.0792369875794
-0.0792232949395
-0.079149876072
-0.0786936215496
-0.0787251485622
-0.0786893568809
-0.0785918003251
-0.0784417543527
-0.0780697440306
-0.078008004859
-0.0778838199966
-0.0777084881843
-0.0774914546666
-0.0771386147688
-0.0769868963785
-0.0767838799792
-0.0765403497879
-0.076268941303
-0.0758499590684
-0.0756159802681
-0.0753488009673
-0.0750631850261
-0.0747688426149
-0.0741320759433
-0.0738538636838
-0.0735671779027
-0.0732796210611
-0.0729973982315
-0.0719831420663
-0.0717159384554
-0.071457114056
-0.0712140091676
-0.0709928361012
-0.069445527986