/*--------------------------------*- C++ -*----------------------------------*\
| =========                 |                                                 |
| \\      /  F ield         | OpenFOAM: The Open Source CFD Toolbox           |
|  \\    /   O peration     | Version:  2212                                  |
|   \\  /    A nd           | Website:  www.openfoam.com                      |
|    \\/     M anipulation  |                                                 |
\*---------------------------------------------------------------------------*/
FoamFile
{
    version     2.0;
    format      ascii;
    arch        "LSB;label=64;scalar=64";
    class       volScalarField;
    location    "970";
    object      Gch4;
}
// * * * * * * * * * * * * * * * * * * * * * * * * * * * * * * * * * * * * * //

dimensions      [1 -3 0 0 0 0 0];

internalField   nonuniform List<scalar> 
1024
(
1.93811
1.93795
1.93758
1.9369
1.93584
1.93434
1.93237
1.93
1.92732
1.92449
1.92168
1.91906
1.91688
1.91559
1.91561
1.91702
1.91968
1.92295
1.9263
1.9296
1.93281
1.93589
1.93879
1.94144
1.94375
1.94567
1.94717
1.94827
1.94903
1.9495
1.94976
1.94986
1.93808
1.93792
1.93754
1.93685
1.93576
1.93423
1.93223
1.92982
1.92712
1.92427
1.92144
1.9188
1.91661
1.91532
1.91536
1.9168
1.91949
1.92276
1.92612
1.92943
1.93264
1.93573
1.93864
1.9413
1.94364
1.94558
1.9471
1.94822
1.94899
1.94947
1.94973
1.94984
1.93802
1.93786
1.93746
1.93673
1.9356
1.934
1.93194
1.92947
1.92672
1.92383
1.92095
1.91823
1.91596
1.91466
1.91476
1.91629
1.91905
1.92237
1.92575
1.92908
1.9323
1.9354
1.93832
1.94102
1.94339
1.94538
1.94695
1.94811
1.9489
1.9494
1.94968
1.94979
1.93793
1.93776
1.93733
1.93656
1.93536
1.93369
1.93154
1.92899
1.92616
1.92317
1.92016
1.91727
1.91482
1.91347
1.91369
1.9154
1.91832
1.92175
1.9252
1.92856
1.9318
1.93491
1.93786
1.94059
1.94302
1.94508
1.94671
1.94793
1.94877
1.94929
1.94958
1.9497
1.93781
1.93762
1.93717
1.93636
1.93509
1.93332
1.93108
1.92842
1.92547
1.92232
1.91906
1.91585
1.91307
1.91161
1.91202
1.91406
1.91728
1.92091
1.92447
1.9279
1.93117
1.9343
1.93728
1.94005
1.94254
1.94468
1.9464
1.94768
1.94858
1.94914
1.94945
1.94957
1.93767
1.93748
1.937
1.93615
1.93482
1.93297
1.93062
1.92784
1.92472
1.9213
1.91765
1.91391
1.91063
1.90899
1.90966
1.91218
1.91588
1.91985
1.92362
1.92717
1.9305
1.93366
1.93665
1.93946
1.94202
1.94423
1.94603
1.9474
1.94835
1.94895
1.94928
1.94941
1.93755
1.93735
1.93686
1.93598
1.93461
1.9327
1.93026
1.92734
1.92397
1.92017
1.91595
1.91147
1.9075
1.90559
1.90658
1.90977
1.91416
1.91864
1.92273
1.92645
1.92988
1.93308
1.9361
1.93893
1.94153
1.9438
1.94568
1.9471
1.94811
1.94874
1.94908
1.94922
1.93748
1.93728
1.93679
1.9359
1.93452
1.93258
1.93006
1.92698
1.92331
1.91901
1.91401
1.90857
1.90373
1.9015
1.90286
1.90688
1.91218
1.91735
1.92189
1.92589
1.92946
1.93272
1.93575
1.93859
1.94119
1.94349
1.9454
1.94686
1.94789
1.94855
1.9489
1.94905
1.9375
1.9373
1.93682
1.93595
1.93459
1.93265
1.93008
1.92683
1.92282
1.91788
1.91191
1.90526
1.89941
1.89685
1.89866
1.90369
1.91011
1.91616
1.92128
1.92564
1.9294
1.93273
1.93577
1.93857
1.94114
1.94341
1.94529
1.94674
1.94777
1.94842
1.94877
1.94892
1.93767
1.93748
1.93701
1.93617
1.93486
1.93296
1.93037
1.92696
1.92253
1.91681
1.90963
1.90151
1.89454
1.89172
1.89415
1.90039
1.90812
1.91521
1.92105
1.92586
1.92986
1.93329
1.9363
1.93903
1.94149
1.94365
1.94544
1.94682
1.94779
1.94841
1.94875
1.94889
1.93804
1.93785
1.9374
1.93661
1.93536
1.93353
1.93093
1.92735
1.92243
1.91572
1.907
1.8971
1.88894
1.88604
1.88934
1.89699
1.90618
1.91448
1.92121
1.92661
1.93095
1.9345
1.93748
1.94007
1.94235
1.94431
1.94592
1.94715
1.94803
1.94859
1.94891
1.94904
1.93864
1.93846
1.93803
1.93728
1.93611
1.93434
1.93173
1.92791
1.92233
1.91429
1.90356
1.89155
1.88224
1.87953
1.88391
1.89299
1.90367
1.91338
1.92129
1.92757
1.93248
1.9363
1.93929
1.94173
1.94375
1.94544
1.94679
1.94782
1.94855
1.94903
1.9493
1.94942
1.93942
1.93925
1.93885
1.93815
1.93702
1.93526
1.93254
1.9283
1.9217
1.9118
1.89846
1.88412
1.87386
1.87155
1.87686
1.88689
1.89867
1.90985
1.91941
1.92724
1.93336
1.93794
1.94129
1.94375
1.94558
1.94697
1.94803
1.9488
1.94933
1.94966
1.94984
1.9499
1.93994
1.9398
1.93946
1.9388
1.93766
1.93577
1.93266
1.92754
1.91927
1.90676
1.89037
1.87385
1.86298
1.86091
1.86614
1.87553
1.88701
1.89901
1.91037
1.92058
1.92918
1.93591
1.94085
1.94427
1.94654
1.94796
1.94878
1.94916
1.94924
1.94913
1.94897
1.94886
1.93888
1.93881
1.93856
1.93796
1.93672
1.93442
1.93037
1.92353
1.91261
1.89679
1.87749
1.85956
1.84841
1.84548
1.84811
1.85365
1.86153
1.87144
1.88255
1.89412
1.90535
1.9155
1.92405
1.93063
1.93533
1.9382
1.93949
1.93959
1.93896
1.93808
1.93732
1.93689
1.93361
1.93362
1.93347
1.93284
1.93127
1.92806
1.92227
1.91268
1.89825
1.8792
1.8583
1.84041
1.82882
1.8227
1.81917
1.81666
1.81573
1.81733
1.82151
1.82785
1.8358
1.84469
1.85385
1.86262
1.87061
1.87728
1.8823
1.88554
1.88722
1.88777
1.88773
1.88756
1.92295
1.92302
1.92291
1.92219
1.92025
1.91622
1.90903
1.89763
1.88158
1.86188
1.84138
1.82352
1.80989
1.79925
1.78945
1.77936
1.76949
1.76104
1.75461
1.75024
1.74801
1.74798
1.75011
1.75423
1.75997
1.76681
1.77406
1.78089
1.78655
1.79053
1.79279
1.79367
1.91117
1.91128
1.91124
1.91061
1.90876
1.90483
1.89784
1.88699
1.87212
1.85424
1.83543
1.81813
1.80363
1.79146
1.78035
1.76948
1.75917
1.74968
1.74068
1.73201
1.72393
1.71684
1.71123
1.70749
1.7059
1.70648
1.70894
1.71268
1.71681
1.72042
1.72288
1.72402
1.90113
1.90126
1.9013
1.90085
1.89936
1.89605
1.89008
1.88074
1.86791
1.85231
1.8355
1.81937
1.80529
1.79346
1.78336
1.77454
1.76711
1.76045
1.75336
1.7453
1.73639
1.72711
1.71814
1.71013
1.70365
1.69902
1.69633
1.69538
1.69572
1.69672
1.69772
1.6983
1.89319
1.89332
1.8934
1.89313
1.89203
1.88945
1.88465
1.87701
1.86634
1.8531
1.83844
1.82386
1.81073
1.79966
1.79062
1.78335
1.77778
1.7729
1.76712
1.75961
1.75028
1.73953
1.72816
1.71721
1.70763
1.70005
1.69472
1.69149
1.68995
1.68955
1.6897
1.68991
1.88701
1.88714
1.88726
1.88714
1.88638
1.88444
1.88071
1.87462
1.86594
1.85495
1.84244
1.82961
1.81764
1.80732
1.79886
1.7921
1.78684
1.78211
1.77655
1.76926
1.75997
1.74878
1.73627
1.72346
1.7115
1.70144
1.69388
1.6889
1.68614
1.68499
1.68477
1.68485
1.88189
1.88205
1.88225
1.88231
1.88187
1.8805
1.87766
1.87288
1.86592
1.8569
1.84639
1.83524
1.82442
1.81466
1.80625
1.79906
1.79293
1.78724
1.78106
1.77359
1.76444
1.75346
1.74094
1.72758
1.71445
1.70275
1.69341
1.68685
1.68292
1.68107
1.68052
1.68052
1.87681
1.87705
1.87743
1.87778
1.87776
1.87696
1.87492
1.87122
1.86562
1.85819
1.84926
1.83945
1.82946
1.81987
1.81099
1.80271
1.79507
1.78797
1.78087
1.77308
1.7641
1.75366
1.74176
1.72881
1.71562
1.70326
1.69282
1.68504
1.68007
1.67752
1.67664
1.67656
1.87053
1.87093
1.87164
1.87244
1.87299
1.87284
1.87153
1.86866
1.86403
1.85761
1.84964
1.84054
1.83083
1.82098
1.81127
1.80165
1.79244
1.78406
1.77624
1.7683
1.7597
1.75005
1.73917
1.72723
1.71477
1.70264
1.69183
1.68329
1.6775
1.67431
1.67309
1.67292
1.86185
1.86249
1.86365
1.86503
1.86622
1.86669
1.86594
1.86357
1.85935
1.85328
1.84554
1.8365
1.82659
1.81624
1.80571
1.79501
1.78471
1.7756
1.76754
1.75982
1.75189
1.74328
1.73373
1.7232
1.712
1.70073
1.69024
1.68147
1.67514
1.67142
1.66986
1.66958
1.84985
1.85078
1.85239
1.85426
1.85587
1.85665
1.85604
1.85364
1.84927
1.84296
1.83497
1.82567
1.8155
1.80484
1.79393
1.78284
1.77226
1.76316
1.75541
1.74831
1.7413
1.73395
1.72591
1.71705
1.70746
1.69753
1.6879
1.67941
1.6729
1.6688
1.66694
1.66654
1.83393
1.83515
1.83702
1.83893
1.84033
1.84074
1.83965
1.83671
1.83183
1.82513
1.81692
1.80759
1.79756
1.78717
1.77664
1.76603
1.75605
1.74766
1.74072
1.73455
1.72867
1.72265
1.71619
1.70909
1.70132
1.69305
1.6847
1.67697
1.67067
1.66642
1.66432
1.66379
1.81376
1.81514
1.81677
1.81791
1.81825
1.81754
1.81549
1.81184
1.80659
1.79987
1.79196
1.78325
1.77407
1.76471
1.75536
1.74604
1.73739
1.73024
1.72444
1.71942
1.71474
1.71006
1.70513
1.69974
1.69381
1.68735
1.6806
1.67401
1.66832
1.6642
1.66198
1.66134
1.78898
1.79022
1.79082
1.79037
1.78904
1.78695
1.78398
1.78001
1.77496
1.76891
1.76207
1.75472
1.74711
1.73946
1.7319
1.72445
1.71761
1.71202
1.70754
1.70373
1.70026
1.69685
1.69331
1.68948
1.68526
1.6806
1.67558
1.67044
1.66572
1.66205
1.65989
1.65918
1.75893
1.75944
1.75831
1.7561
1.75344
1.75054
1.74737
1.74379
1.73967
1.73499
1.72986
1.72444
1.7189
1.71338
1.70797
1.70268
1.69786
1.69395
1.69085
1.68824
1.6859
1.68364
1.68133
1.67885
1.67612
1.67309
1.66976
1.66621
1.66275
1.65986
1.658
1.6573
1.72235
1.72151
1.71905
1.71635
1.71372
1.71124
1.70884
1.7064
1.70378
1.70091
1.69783
1.6946
1.69132
1.68808
1.68491
1.68184
1.67905
1.67679
1.67501
1.67353
1.67221
1.67095
1.66968
1.66833
1.66685
1.66521
1.66338
1.66139
1.65935
1.65752
1.65623
1.65567
1.67768
1.677
1.67571
1.6745
1.67341
1.67244
1.67155
1.67069
1.66981
1.66886
1.66784
1.66679
1.66573
1.66467
1.66365
1.66265
1.66176
1.66103
1.66046
1.65999
1.65957
1.65917
1.65877
1.65835
1.65789
1.65739
1.65682
1.6562
1.65555
1.65494
1.65447
1.65424
)
;

boundaryField
{
    movingWall
    {
        type            fixedValue;
        value           uniform 1.6535;
    }
    fixedWalls
    {
        type            zeroGradient;
    }
    floor
    {
        type            zeroGradient;
    }
    frontAndBack
    {
        type            empty;
    }
}


// ************************************************************************* //
