/*--------------------------------*- C++ -*----------------------------------*\
| =========                 |                                                 |
| \\      /  F ield         | OpenFOAM: The Open Source CFD Toolbox           |
|  \\    /   O peration     | Version:  2212                                  |
|   \\  /    A nd           | Website:  www.openfoam.com                      |
|    \\/     M anipulation  |                                                 |
\*---------------------------------------------------------------------------*/
FoamFile
{
    version     2.0;
    format      ascii;
    arch        "LSB;label=64;scalar=64";
    class       volScalarField;
    location    "970";
    object      Gh2;
}
// * * * * * * * * * * * * * * * * * * * * * * * * * * * * * * * * * * * * * //

dimensions      [1 -3 0 0 0 0 0];

internalField   nonuniform List<scalar> 
1024
(
1.28529e-05
1.28518e-05
1.28492e-05
1.28444e-05
1.28368e-05
1.28262e-05
1.28123e-05
1.27954e-05
1.27765e-05
1.27566e-05
1.27369e-05
1.27186e-05
1.27036e-05
1.26948e-05
1.26952e-05
1.27055e-05
1.27246e-05
1.2748e-05
1.27721e-05
1.27959e-05
1.2819e-05
1.28413e-05
1.28624e-05
1.28816e-05
1.28985e-05
1.29125e-05
1.29235e-05
1.29315e-05
1.2937e-05
1.29405e-05
1.29424e-05
1.29431e-05
1.28527e-05
1.28516e-05
1.28489e-05
1.2844e-05
1.28363e-05
1.28254e-05
1.28112e-05
1.27942e-05
1.27751e-05
1.27551e-05
1.27353e-05
1.27169e-05
1.27017e-05
1.26929e-05
1.26935e-05
1.27039e-05
1.27232e-05
1.27467e-05
1.27708e-05
1.27947e-05
1.28178e-05
1.28402e-05
1.28613e-05
1.28807e-05
1.28977e-05
1.29118e-05
1.2923e-05
1.29311e-05
1.29367e-05
1.29403e-05
1.29422e-05
1.2943e-05
1.28523e-05
1.28512e-05
1.28483e-05
1.28432e-05
1.28351e-05
1.28238e-05
1.28092e-05
1.27917e-05
1.27724e-05
1.2752e-05
1.27318e-05
1.27129e-05
1.26973e-05
1.26884e-05
1.26894e-05
1.27004e-05
1.27202e-05
1.2744e-05
1.27683e-05
1.27922e-05
1.28154e-05
1.28378e-05
1.2859e-05
1.28786e-05
1.28959e-05
1.29104e-05
1.29219e-05
1.29303e-05
1.29361e-05
1.29398e-05
1.29418e-05
1.29426e-05
1.28517e-05
1.28504e-05
1.28474e-05
1.2842e-05
1.28335e-05
1.28216e-05
1.28064e-05
1.27883e-05
1.27684e-05
1.27475e-05
1.27264e-05
1.27063e-05
1.26894e-05
1.26801e-05
1.2682e-05
1.26944e-05
1.27152e-05
1.27398e-05
1.27644e-05
1.27885e-05
1.28119e-05
1.28343e-05
1.28557e-05
1.28755e-05
1.28932e-05
1.29082e-05
1.29201e-05
1.2929e-05
1.29351e-05
1.2939e-05
1.29411e-05
1.2942e-05
1.28508e-05
1.28495e-05
1.28463e-05
1.28405e-05
1.28315e-05
1.2819e-05
1.28031e-05
1.27844e-05
1.27636e-05
1.27415e-05
1.27188e-05
1.26964e-05
1.26773e-05
1.26674e-05
1.26706e-05
1.26852e-05
1.27081e-05
1.2734e-05
1.27595e-05
1.2784e-05
1.28075e-05
1.283e-05
1.28515e-05
1.28717e-05
1.28898e-05
1.29053e-05
1.29179e-05
1.29273e-05
1.29338e-05
1.29379e-05
1.29401e-05
1.2941e-05
1.28498e-05
1.28485e-05
1.28451e-05
1.2839e-05
1.28296e-05
1.28165e-05
1.27999e-05
1.27803e-05
1.27584e-05
1.27344e-05
1.2709e-05
1.26831e-05
1.26605e-05
1.26494e-05
1.26545e-05
1.26725e-05
1.26987e-05
1.27269e-05
1.27538e-05
1.2779e-05
1.28029e-05
1.28255e-05
1.28472e-05
1.28675e-05
1.2886e-05
1.29021e-05
1.29152e-05
1.29252e-05
1.29321e-05
1.29365e-05
1.29389e-05
1.29399e-05
1.2849e-05
1.28476e-05
1.28441e-05
1.28378e-05
1.28281e-05
1.28146e-05
1.27974e-05
1.27768e-05
1.27532e-05
1.27266e-05
1.26972e-05
1.26662e-05
1.26389e-05
1.26261e-05
1.26335e-05
1.26562e-05
1.26872e-05
1.27189e-05
1.27479e-05
1.27743e-05
1.27987e-05
1.28216e-05
1.28433e-05
1.28638e-05
1.28826e-05
1.28991e-05
1.29127e-05
1.29231e-05
1.29304e-05
1.2935e-05
1.29375e-05
1.29385e-05
1.28485e-05
1.28471e-05
1.28436e-05
1.28373e-05
1.28275e-05
1.28138e-05
1.2796e-05
1.27743e-05
1.27487e-05
1.27186e-05
1.26839e-05
1.26463e-05
1.26131e-05
1.25982e-05
1.26083e-05
1.26369e-05
1.26743e-05
1.27107e-05
1.27427e-05
1.27709e-05
1.27962e-05
1.28194e-05
1.28411e-05
1.28615e-05
1.28803e-05
1.28969e-05
1.29107e-05
1.29214e-05
1.29289e-05
1.29336e-05
1.29362e-05
1.29373e-05
1.28487e-05
1.28473e-05
1.28438e-05
1.28377e-05
1.2828e-05
1.28144e-05
1.27962e-05
1.27734e-05
1.27453e-05
1.27108e-05
1.26694e-05
1.26236e-05
1.25835e-05
1.25666e-05
1.25801e-05
1.26158e-05
1.2661e-05
1.27034e-05
1.27393e-05
1.27698e-05
1.27963e-05
1.28199e-05
1.28415e-05
1.28616e-05
1.28801e-05
1.28964e-05
1.29101e-05
1.29206e-05
1.2928e-05
1.29327e-05
1.29353e-05
1.29364e-05
1.28499e-05
1.28485e-05
1.28452e-05
1.28393e-05
1.283e-05
1.28166e-05
1.27983e-05
1.27744e-05
1.27434e-05
1.27036e-05
1.26539e-05
1.25979e-05
1.25503e-05
1.2532e-05
1.25501e-05
1.25944e-05
1.26487e-05
1.26982e-05
1.27389e-05
1.27724e-05
1.28005e-05
1.28245e-05
1.28458e-05
1.28652e-05
1.28828e-05
1.28984e-05
1.29112e-05
1.29212e-05
1.29282e-05
1.29327e-05
1.29353e-05
1.29363e-05
1.28525e-05
1.28512e-05
1.2848e-05
1.28424e-05
1.28336e-05
1.28206e-05
1.28024e-05
1.27773e-05
1.27429e-05
1.26963e-05
1.26359e-05
1.25678e-05
1.25123e-05
1.24939e-05
1.25184e-05
1.25728e-05
1.26373e-05
1.26951e-05
1.27417e-05
1.27791e-05
1.28092e-05
1.28339e-05
1.28548e-05
1.28731e-05
1.28893e-05
1.29033e-05
1.29149e-05
1.29238e-05
1.29301e-05
1.29342e-05
1.29365e-05
1.29375e-05
1.28568e-05
1.28555e-05
1.28525e-05
1.28472e-05
1.28389e-05
1.28265e-05
1.28082e-05
1.27814e-05
1.27424e-05
1.26866e-05
1.26124e-05
1.25299e-05
1.2467e-05
1.24503e-05
1.24829e-05
1.25475e-05
1.26224e-05
1.26898e-05
1.27444e-05
1.27876e-05
1.28214e-05
1.28477e-05
1.28685e-05
1.28855e-05
1.28998e-05
1.29117e-05
1.29214e-05
1.29287e-05
1.2934e-05
1.29375e-05
1.29395e-05
1.29404e-05
1.28624e-05
1.28612e-05
1.28584e-05
1.28534e-05
1.28454e-05
1.28331e-05
1.2814e-05
1.27843e-05
1.27383e-05
1.26695e-05
1.25774e-05
1.24792e-05
1.24103e-05
1.23971e-05
1.24367e-05
1.25082e-05
1.25908e-05
1.26683e-05
1.2734e-05
1.27876e-05
1.28294e-05
1.28607e-05
1.28837e-05
1.29006e-05
1.29133e-05
1.29231e-05
1.29306e-05
1.29361e-05
1.294e-05
1.29424e-05
1.29437e-05
1.29442e-05
1.28661e-05
1.28651e-05
1.28627e-05
1.28581e-05
1.285e-05
1.28368e-05
1.2815e-05
1.27792e-05
1.27216e-05
1.26348e-05
1.25218e-05
1.24091e-05
1.23367e-05
1.23259e-05
1.23654e-05
1.24329e-05
1.25136e-05
1.25969e-05
1.26749e-05
1.27447e-05
1.28032e-05
1.28489e-05
1.28824e-05
1.29057e-05
1.29212e-05
1.2931e-05
1.29368e-05
1.29396e-05
1.29402e-05
1.29396e-05
1.29386e-05
1.29379e-05
1.28585e-05
1.2858e-05
1.28563e-05
1.28521e-05
1.28435e-05
1.28274e-05
1.2799e-05
1.27513e-05
1.26754e-05
1.25658e-05
1.24331e-05
1.23114e-05
1.22379e-05
1.22218e-05
1.22437e-05
1.22851e-05
1.23418e-05
1.24113e-05
1.24881e-05
1.25673e-05
1.26438e-05
1.27126e-05
1.27706e-05
1.28151e-05
1.28468e-05
1.28663e-05
1.28751e-05
1.28759e-05
1.28717e-05
1.28659e-05
1.28607e-05
1.28578e-05
1.28209e-05
1.28211e-05
1.28201e-05
1.28157e-05
1.28048e-05
1.27825e-05
1.27421e-05
1.26754e-05
1.25755e-05
1.2444e-05
1.2301e-05
1.21804e-05
1.21043e-05
1.20664e-05
1.20461e-05
1.20329e-05
1.20305e-05
1.20446e-05
1.20756e-05
1.21205e-05
1.21755e-05
1.22364e-05
1.22986e-05
1.23579e-05
1.24117e-05
1.24565e-05
1.24902e-05
1.25119e-05
1.25231e-05
1.25268e-05
1.25265e-05
1.25253e-05
1.27451e-05
1.27457e-05
1.2745e-05
1.27402e-05
1.27269e-05
1.2699e-05
1.26491e-05
1.25701e-05
1.24591e-05
1.23236e-05
1.21836e-05
1.2063e-05
1.19725e-05
1.1903e-05
1.18397e-05
1.1775e-05
1.17127e-05
1.16606e-05
1.16219e-05
1.15968e-05
1.15855e-05
1.15881e-05
1.16044e-05
1.16333e-05
1.16724e-05
1.17182e-05
1.17665e-05
1.18118e-05
1.18492e-05
1.18754e-05
1.18903e-05
1.18961e-05
1.26612e-05
1.26621e-05
1.2662e-05
1.26579e-05
1.26453e-05
1.26182e-05
1.25699e-05
1.24948e-05
1.2392e-05
1.22688e-05
1.21401e-05
1.20225e-05
1.19249e-05
1.18437e-05
1.17701e-05
1.16991e-05
1.16333e-05
1.15746e-05
1.15204e-05
1.14689e-05
1.14213e-05
1.138e-05
1.13475e-05
1.13265e-05
1.13184e-05
1.13236e-05
1.13403e-05
1.13648e-05
1.13915e-05
1.14148e-05
1.14306e-05
1.14379e-05
1.25895e-05
1.25905e-05
1.2591e-05
1.25882e-05
1.25782e-05
1.25555e-05
1.25143e-05
1.24496e-05
1.23609e-05
1.22532e-05
1.21377e-05
1.20273e-05
1.19314e-05
1.18511e-05
1.1783e-05
1.17243e-05
1.16764e-05
1.16357e-05
1.15939e-05
1.15472e-05
1.14958e-05
1.14426e-05
1.1391e-05
1.13448e-05
1.13073e-05
1.12805e-05
1.12647e-05
1.12591e-05
1.12611e-05
1.12671e-05
1.12731e-05
1.12766e-05
1.25324e-05
1.25334e-05
1.25343e-05
1.25327e-05
1.25254e-05
1.25079e-05
1.24748e-05
1.2422e-05
1.23482e-05
1.22566e-05
1.21553e-05
1.20549e-05
1.19646e-05
1.18886e-05
1.18267e-05
1.17774e-05
1.17408e-05
1.17108e-05
1.16768e-05
1.16332e-05
1.15792e-05
1.1517e-05
1.14514e-05
1.13883e-05
1.1333e-05
1.12893e-05
1.12583e-05
1.12394e-05
1.12301e-05
1.12274e-05
1.12279e-05
1.1229e-05
1.24878e-05
1.24888e-05
1.24899e-05
1.24894e-05
1.24845e-05
1.24714e-05
1.24458e-05
1.24037e-05
1.23436e-05
1.22674e-05
1.21807e-05
1.20919e-05
1.20091e-05
1.19378e-05
1.18793e-05
1.1833e-05
1.17981e-05
1.17686e-05
1.17354e-05
1.16925e-05
1.16382e-05
1.1573e-05
1.15003e-05
1.1426e-05
1.13569e-05
1.12989e-05
1.12552e-05
1.12263e-05
1.12102e-05
1.12032e-05
1.12016e-05
1.12018e-05
1.24512e-05
1.24523e-05
1.24538e-05
1.24544e-05
1.24517e-05
1.24425e-05
1.24231e-05
1.23901e-05
1.23418e-05
1.22793e-05
1.22062e-05
1.21289e-05
1.20539e-05
1.19864e-05
1.19283e-05
1.18793e-05
1.18389e-05
1.18031e-05
1.17655e-05
1.1721e-05
1.16669e-05
1.16024e-05
1.15291e-05
1.14514e-05
1.13753e-05
1.13077e-05
1.12538e-05
1.1216e-05
1.11932e-05
1.11822e-05
1.11788e-05
1.11786e-05
1.24158e-05
1.24174e-05
1.24201e-05
1.24224e-05
1.24224e-05
1.2417e-05
1.2403e-05
1.23774e-05
1.23387e-05
1.22871e-05
1.22252e-05
1.21573e-05
1.20884e-05
1.20225e-05
1.19619e-05
1.19064e-05
1.18565e-05
1.18116e-05
1.1768e-05
1.17209e-05
1.16673e-05
1.16055e-05
1.15355e-05
1.14599e-05
1.13832e-05
1.13117e-05
1.12514e-05
1.12066e-05
1.11779e-05
1.11631e-05
1.11578e-05
1.11571e-05
1.23739e-05
1.23765e-05
1.23811e-05
1.23863e-05
1.23898e-05
1.23886e-05
1.23794e-05
1.23596e-05
1.23276e-05
1.22834e-05
1.22287e-05
1.21664e-05
1.21002e-05
1.20335e-05
1.19683e-05
1.19048e-05
1.18452e-05
1.17923e-05
1.17439e-05
1.16955e-05
1.16438e-05
1.15862e-05
1.1522e-05
1.14519e-05
1.13793e-05
1.13089e-05
1.12466e-05
1.11974e-05
1.11641e-05
1.11457e-05
1.11385e-05
1.11373e-05
1.2318e-05
1.2322e-05
1.23294e-05
1.23381e-05
1.23455e-05
1.23482e-05
1.23427e-05
1.23264e-05
1.22976e-05
1.22565e-05
1.22043e-05
1.21435e-05
1.20772e-05
1.20083e-05
1.19388e-05
1.1869e-05
1.18029e-05
1.17454e-05
1.16952e-05
1.16479e-05
1.15998e-05
1.15483e-05
1.14916e-05
1.14297e-05
1.13642e-05
1.12987e-05
1.12381e-05
1.11876e-05
1.11513e-05
1.11299e-05
1.11209e-05
1.11191e-05
1.22421e-05
1.2248e-05
1.22581e-05
1.22698e-05
1.22797e-05
1.22843e-05
1.22798e-05
1.22636e-05
1.22345e-05
1.21927e-05
1.214e-05
1.20787e-05
1.20118e-05
1.19419e-05
1.18708e-05
1.17991e-05
1.17315e-05
1.16741e-05
1.16258e-05
1.1582e-05
1.15394e-05
1.14951e-05
1.14473e-05
1.13949e-05
1.13388e-05
1.1281e-05
1.12253e-05
1.11764e-05
1.11391e-05
1.11157e-05
1.11049e-05
1.11025e-05
1.21427e-05
1.21503e-05
1.21619e-05
1.21737e-05
1.21824e-05
1.21846e-05
1.21774e-05
1.21582e-05
1.21264e-05
1.20829e-05
1.20296e-05
1.19691e-05
1.1904e-05
1.18367e-05
1.17687e-05
1.17006e-05
1.1637e-05
1.15841e-05
1.15407e-05
1.15026e-05
1.14667e-05
1.14303e-05
1.13917e-05
1.13497e-05
1.13041e-05
1.12558e-05
1.12075e-05
1.1163e-05
1.11269e-05
1.11027e-05
1.10906e-05
1.10875e-05
1.20175e-05
1.20261e-05
1.20361e-05
1.20433e-05
1.20452e-05
1.20407e-05
1.20275e-05
1.20043e-05
1.19707e-05
1.19277e-05
1.1877e-05
1.18211e-05
1.17621e-05
1.1702e-05
1.16419e-05
1.15823e-05
1.15274e-05
1.14823e-05
1.1446e-05
1.14149e-05
1.13862e-05
1.13578e-05
1.13282e-05
1.12963e-05
1.12613e-05
1.12236e-05
1.11845e-05
1.11465e-05
1.11139e-05
1.10905e-05
1.10779e-05
1.10742e-05
1.18644e-05
1.1872e-05
1.18758e-05
1.1873e-05
1.18648e-05
1.18517e-05
1.18331e-05
1.1808e-05
1.17761e-05
1.17377e-05
1.16943e-05
1.16474e-05
1.15988e-05
1.15499e-05
1.15016e-05
1.1454e-05
1.14106e-05
1.13754e-05
1.13474e-05
1.13237e-05
1.13023e-05
1.12816e-05
1.12603e-05
1.12375e-05
1.12126e-05
1.11854e-05
1.11562e-05
1.11266e-05
1.10996e-05
1.10787e-05
1.10665e-05
1.10624e-05
1.16793e-05
1.16824e-05
1.16755e-05
1.16619e-05
1.16455e-05
1.16275e-05
1.16078e-05
1.15854e-05
1.15595e-05
1.153e-05
1.14975e-05
1.14631e-05
1.14279e-05
1.13927e-05
1.13582e-05
1.13245e-05
1.12939e-05
1.12692e-05
1.12498e-05
1.12336e-05
1.12192e-05
1.12054e-05
1.11914e-05
1.11766e-05
1.11605e-05
1.11428e-05
1.11234e-05
1.11029e-05
1.10831e-05
1.10667e-05
1.10562e-05
1.10523e-05
1.14544e-05
1.14493e-05
1.14341e-05
1.14175e-05
1.14014e-05
1.1386e-05
1.13712e-05
1.13559e-05
1.13395e-05
1.13215e-05
1.13021e-05
1.12816e-05
1.12608e-05
1.12402e-05
1.122e-05
1.12004e-05
1.11827e-05
1.11685e-05
1.11573e-05
1.11481e-05
1.11399e-05
1.11322e-05
1.11245e-05
1.11165e-05
1.11077e-05
1.10981e-05
1.10874e-05
1.10759e-05
1.10643e-05
1.10539e-05
1.10466e-05
1.10435e-05
1.11802e-05
1.11761e-05
1.11681e-05
1.11607e-05
1.1154e-05
1.1148e-05
1.11425e-05
1.11372e-05
1.11316e-05
1.11257e-05
1.11193e-05
1.11126e-05
1.11059e-05
1.10992e-05
1.10926e-05
1.10863e-05
1.10806e-05
1.1076e-05
1.10725e-05
1.10695e-05
1.10669e-05
1.10645e-05
1.10621e-05
1.10596e-05
1.10569e-05
1.10539e-05
1.10506e-05
1.1047e-05
1.10433e-05
1.10398e-05
1.10372e-05
1.10359e-05
)
;

boundaryField
{
    movingWall
    {
        type            fixedValue;
        value           uniform 1.1032e-05;
    }
    fixedWalls
    {
        type            zeroGradient;
    }
    floor
    {
        type            zeroGradient;
    }
    frontAndBack
    {
        type            empty;
    }
}


// ************************************************************************* //
