/*--------------------------------*- C++ -*----------------------------------*\
| =========                 |                                                 |
| \\      /  F ield         | OpenFOAM: The Open Source CFD Toolbox           |
|  \\    /   O peration     | Version:  2212                                  |
|   \\  /    A nd           | Website:  www.openfoam.com                      |
|    \\/     M anipulation  |                                                 |
\*---------------------------------------------------------------------------*/
FoamFile
{
    version     2.0;
    format      ascii;
    arch        "LSB;label=64;scalar=64";
    class       volVectorField;
    location    "970";
    object      U;
}
// * * * * * * * * * * * * * * * * * * * * * * * * * * * * * * * * * * * * * //

dimensions      [0 1 -1 0 0 0 0];

internalField   nonuniform List<vector> 
1024
(
(1.48536e-05 -1.54336e-05 0)
(-2.90548e-05 6.5519e-06 0)
(-0.000208593 3.07618e-05 0)
(-0.000510369 4.04152e-05 0)
(-0.000886064 4.07634e-05 0)
(-0.00129962 3.94017e-05 0)
(-0.0017377 3.87528e-05 0)
(-0.0021872 3.72549e-05 0)
(-0.0026074 3.19363e-05 0)
(-0.00290405 1.97884e-05 0)
(-0.00290938 -3.42707e-06 0)
(-0.00233894 -4.01278e-05 0)
(-0.00108072 -6.26226e-05 0)
(0.000791812 -5.28503e-05 0)
(0.00215025 -2.743e-05 0)
(0.00287371 -5.54134e-06 0)
(0.00305206 3.06212e-06 0)
(0.0029484 7.96331e-06 0)
(0.00270514 1.13644e-05 0)
(0.00240171 1.29154e-05 0)
(0.00208889 1.37433e-05 0)
(0.00178649 1.41639e-05 0)
(0.00150518 1.40261e-05 0)
(0.00125161 1.34322e-05 0)
(0.00102573 1.29185e-05 0)
(0.000818913 1.35037e-05 0)
(0.00061816 1.58294e-05 0)
(0.000417526 1.89402e-05 0)
(0.000229217 1.95331e-05 0)
(8.21931e-05 1.35675e-05 0)
(3.08272e-06 8.27283e-07 0)
(-9.06888e-06 -9.13535e-06 0)
(-1.01741e-05 2.96288e-05 0)
(-0.000248429 0.000220376 0)
(-0.000807342 0.000403227 0)
(-0.00165989 0.000490611 0)
(-0.00269779 0.000497419 0)
(-0.00382931 0.000468138 0)
(-0.00499479 0.000424987 0)
(-0.00612701 0.000362703 0)
(-0.00709856 0.000263282 0)
(-0.00767341 0.000108045 0)
(-0.00748286 -0.000125326 0)
(-0.00594665 -0.000418841 0)
(-0.00287138 -0.000640285 0)
(0.00192824 -0.000583214 0)
(0.00543548 -0.000329368 0)
(0.00750217 -0.000121111 0)
(0.00821432 -9.16871e-06 0)
(0.00812211 5.54118e-05 0)
(0.0076099 9.96624e-05 0)
(0.00688684 0.000128014 0)
(0.00609244 0.000147282 0)
(0.00529146 0.000161232 0)
(0.00451977 0.000170234 0)
(0.00379918 0.000175745 0)
(0.00313461 0.000182468 0)
(0.00251211 0.00019738 0)
(0.00190996 0.000222603 0)
(0.00132344 0.000246589 0)
(0.000785259 0.000243292 0)
(0.000358544 0.000188787 0)
(9.83833e-05 8.99425e-05 0)
(1.13098e-06 2.33058e-06 0)
(-4.88848e-05 0.00025489 0)
(-0.000548636 0.000825842 0)
(-0.00152417 0.00127878 0)
(-0.00290788 0.00148444 0)
(-0.00453485 0.00148222 0)
(-0.00626592 0.00136847 0)
(-0.00798697 0.00119674 0)
(-0.0095652 0.000962896 0)
(-0.0107968 0.000634707 0)
(-0.0113568 0.000177982 0)
(-0.0107699 -0.000446604 0)
(-0.00838786 -0.00117893 0)
(-0.00409133 -0.00176848 0)
(0.00270918 -0.00164153 0)
(0.00772892 -0.000961549 0)
(0.0110195 -0.000407606 0)
(0.0124438 -8.31299e-05 0)
(0.0126 0.000112947 0)
(0.0120514 0.000249928 0)
(0.0111114 0.000345094 0)
(0.00999417 0.000414869 0)
(0.00881117 0.000469244 0)
(0.00762641 0.000510778 0)
(0.00647944 0.000543748 0)
(0.00538639 0.000579498 0)
(0.00434035 0.000633174 0)
(0.00332607 0.000706735 0)
(0.00234831 0.00076919 0)
(0.00145409 0.000758139 0)
(0.000726111 0.000619428 0)
(0.000244609 0.000365053 0)
(1.85399e-05 9.36748e-05 0)
(-8.51017e-05 0.000731294 0)
(-0.000837294 0.00196453 0)
(-0.00220122 0.00280004 0)
(-0.00404392 0.00312857 0)
(-0.00613326 0.00305888 0)
(-0.00828451 0.00276118 0)
(-0.010335 0.00233224 0)
(-0.0120984 0.00177845 0)
(-0.0133229 0.00106099 0)
(-0.013646 0.000134949 0)
(-0.0125534 -0.00104581 0)
(-0.00951135 -0.00235065 0)
(-0.00453785 -0.00342312 0)
(0.00316035 -0.00319993 0)
(0.00893652 -0.00194847 0)
(0.0131844 -0.00092265 0)
(0.0153908 -0.000275487 0)
(0.0160085 0.000135587 0)
(0.0156578 0.000429559 0)
(0.0147275 0.000644784 0)
(0.0134863 0.000811562 0)
(0.0120842 0.000948753 0)
(0.0106108 0.00106321 0)
(0.00912356 0.00116326 0)
(0.00765459 0.00126755 0)
(0.00621382 0.00139903 0)
(0.00480342 0.00155696 0)
(0.0034424 0.00168494 0)
(0.0021882 0.00167303 0)
(0.00113953 0.00142036 0)
(0.000410411 0.000924495 0)
(3.73109e-05 0.000309669 0)
(-0.000108749 0.0014824 0)
(-0.0010325 0.0036811 0)
(-0.00266329 0.00500137 0)
(-0.00481121 0.00542392 0)
(-0.00718119 0.0051884 0)
(-0.00954524 0.00457176 0)
(-0.0117033 0.00373108 0)
(-0.0134376 0.00269655 0)
(-0.0144793 0.0014336 0)
(-0.0144685 -0.000106661 0)
(-0.0129156 -0.00194865 0)
(-0.00947406 -0.00388291 0)
(-0.00427802 -0.00545304 0)
(0.00333057 -0.0050877 0)
(0.00916703 -0.00322786 0)
(0.013974 -0.00168178 0)
(0.0168637 -0.000638418 0)
(0.018057 6.27157e-05 0)
(0.0180809 0.000579473 0)
(0.0173617 0.000973564 0)
(0.0161973 0.00129349 0)
(0.0147605 0.00156948 0)
(0.0131573 0.00181467 0)
(0.0114591 0.00204197 0)
(0.00971421 0.00227575 0)
(0.00795338 0.00254359 0)
(0.00620128 0.00283876 0)
(0.00449488 0.00307582 0)
(0.00290377 0.00308684 0)
(0.00154535 0.00269901 0)
(0.000572916 0.00185903 0)
(5.55322e-05 0.000690549 0)
(-0.000111113 0.00245618 0)
(-0.00107171 0.00588414 0)
(-0.00277806 0.00779182 0)
(-0.00502209 0.00828516 0)
(-0.0074704 0.00778177 0)
(-0.00985854 0.00670376 0)
(-0.0119591 0.0052951 0)
(-0.0135414 0.00362803 0)
(-0.0143438 0.00168518 0)
(-0.0140282 -0.000574591 0)
(-0.0122159 -0.00312799 0)
(-0.00865405 -0.00570281 0)
(-0.0035859 -0.0076962 0)
(0.00326072 -0.00712158 0)
(0.00866862 -0.00470648 0)
(0.0135943 -0.00266168 0)
(0.016919 -0.00119746 0)
(0.0186323 -0.00016057 0)
(0.0191095 0.000637583 0)
(0.0187287 0.00126735 0)
(0.0177962 0.00179908 0)
(0.0164899 0.00227766 0)
(0.0149185 0.00272445 0)
(0.0131592 0.0031569 0)
(0.0112721 0.00360205 0)
(0.0093064 0.00408724 0)
(0.0073088 0.00459472 0)
(0.00533674 0.0050043 0)
(0.00347712 0.00507641 0)
(0.00186923 0.00453514 0)
(0.000701797 0.00323339 0)
(7.00185e-05 0.00126504 0)
(-9.11695e-05 0.00352098 0)
(-0.000944356 0.0083399 0)
(-0.00252108 0.0109496 0)
(-0.00464767 0.0115424 0)
(-0.00699143 0.0107143 0)
(-0.0092642 0.00906391 0)
(-0.011219 0.00695773 0)
(-0.0126242 0.00453596 0)
(-0.0132393 0.00181534 0)
(-0.0127602 -0.00122266 0)
(-0.0109092 -0.00451764 0)
(-0.00745173 -0.00773251 0)
(-0.00276685 -0.0100073 0)
(0.00296375 -0.00916026 0)
(0.00768487 -0.00629052 0)
(0.0123553 -0.00380977 0)
(0.0158171 -0.00194013 0)
(0.017855 -0.000555439 0)
(0.0187491 0.000558817 0)
(0.018731 0.00146948 0)
(0.0181045 0.00226449 0)
(0.0170372 0.00300768 0)
(0.0156262 0.00373098 0)
(0.0139436 0.00445556 0)
(0.0120533 0.00520785 0)
(0.0100169 0.0060087 0)
(0.00789955 0.00682133 0)
(0.00577999 0.00747907 0)
(0.00376745 0.00765156 0)
(0.00202378 0.00693026 0)
(0.000759092 0.00504084 0)
(7.58206e-05 0.00202747 0)
(-5.76074e-05 0.00450265 0)
(-0.000697683 0.0107251 0)
(-0.00197974 0.0141587 0)
(-0.00381195 0.0149618 0)
(-0.00590917 0.0138408 0)
(-0.00797983 0.0115769 0)
(-0.00976432 0.00869743 0)
(-0.0110336 0.00544423 0)
(-0.0115667 0.00188636 0)
(-0.0110859 -0.00196721 0)
(-0.00934906 -0.00604442 0)
(-0.00614531 -0.00989206 0)
(-0.00204768 -0.0122547 0)
(0.00242338 -0.0110954 0)
(0.00634407 -0.00789378 0)
(0.0104962 -0.00506254 0)
(0.01385 -0.00282938 0)
(0.0160134 -0.00110874 0)
(0.0171923 0.000330956 0)
(0.0174706 0.00154832 0)
(0.0171403 0.00264084 0)
(0.0163512 0.00369795 0)
(0.0151761 0.00476543 0)
(0.0136708 0.00586689 0)
(0.0118948 0.00702434 0)
(0.00991511 0.00824435 0)
(0.00781091 0.00945806 0)
(0.00568313 0.0104322 0)
(0.00366645 0.0107211 0)
(0.00194121 0.00976488 0)
(0.000715124 0.00716003 0)
(6.89504e-05 0.00291382 0)
(-2.25214e-05 0.0052424 0)
(-0.000406127 0.0127074 0)
(-0.00129741 0.017061 0)
(-0.00271273 0.0182677 0)
(-0.004462 0.0170024 0)
(-0.00627943 0.0141853 0)
(-0.00790066 0.0105311 0)
(-0.00909408 0.00641972 0)
(-0.0096422 0.00198977 0)
(-0.00927021 -0.00272515 0)
(-0.00772336 -0.00764519 0)
(-0.00488822 -0.0120847 0)
(-0.0015752 -0.014305 0)
(0.00160274 -0.0128193 0)
(0.00464312 -0.00942287 0)
(0.00809466 -0.00635388 0)
(0.0111738 -0.00382733 0)
(0.013342 -0.00179249 0)
(0.0146444 -3.44247e-05 0)
(0.0151452 0.00149762 0)
(0.0150599 0.00290048 0)
(0.01454 0.00430105 0)
(0.0136294 0.00576389 0)
(0.0123604 0.00731422 0)
(0.0107816 0.00896476 0)
(0.00896114 0.0106967 0)
(0.0069913 0.0123885 0)
(0.00499689 0.0137103 0)
(0.00313884 0.0140748 0)
(0.00160427 0.0127782 0)
(0.000565365 0.00934015 0)
(4.93956e-05 0.00379604 0)
(5.17863e-06 0.00564098 0)
(-0.000136459 0.0140179 0)
(-0.000612354 0.0193051 0)
(-0.0015414 0.0211539 0)
(-0.00286684 0.0200153 0)
(-0.00438851 0.0168307 0)
(-0.00585132 0.01249 0)
(-0.00701247 0.0075419 0)
(-0.00763603 0.00221398 0)
(-0.00742713 -0.0034289 0)
(-0.00611256 -0.00925238 0)
(-0.00378404 -0.0141611 0)
(-0.00145443 -0.015994 0)
(0.000442164 -0.0141997 0)
(0.00249305 -0.0107545 0)
(0.00509124 -0.0075999 0)
(0.00775719 -0.00489936 0)
(0.00988968 -0.00259075 0)
(0.0112563 -0.00052272 0)
(0.0119501 0.00131815 0)
(0.01206 0.00302639 0)
(0.011784 0.00478006 0)
(0.0111399 0.00666973 0)
(0.0101327 0.0087221 0)
(0.00879977 0.0109334 0)
(0.00721214 0.0132418 0)
(0.00547976 0.0154409 0)
(0.00375602 0.0170646 0)
(0.00222346 0.0173705 0)
(0.00105069 0.0155674 0)
(0.000333224 0.0112207 0)
(2.14712e-05 0.00450184 0)
(2.05136e-05 0.00567303 0)
(6.30504e-05 0.0144852 0)
(-3.7927e-05 0.0205785 0)
(-0.000459183 0.0232806 0)
(-0.00129229 0.0226363 0)
(-0.00245505 0.0194136 0)
(-0.00373295 0.0145892 0)
(-0.00487204 0.00888539 0)
(-0.00560155 0.00264498 0)
(-0.00559668 -0.00399879 0)
(-0.00457742 -0.0107415 0)
(-0.0029574 -0.0158678 0)
(-0.00180102 -0.0170999 0)
(-0.00114827 -0.0150387 0)
(-0.000228949 -0.011731 0)
(0.00136561 -0.00867463 0)
(0.00342953 -0.00599433 0)
(0.0054866 -0.00351878 0)
(0.00698861 -0.00116153 0)
(0.00795997 0.000980869 0)
(0.00825338 0.00298597 0)
(0.00820772 0.00508927 0)
(0.00782542 0.00742272 0)
(0.00708607 0.0100127 0)
(0.00602425 0.0128239 0)
(0.00472798 0.0157208 0)
(0.00333803 0.018365 0)
(0.00203888 0.020116 0)
(0.001014 0.0201063 0)
(0.000364315 0.0175948 0)
(6.47802e-05 0.0123732 0)
(-7.94077e-06 0.00484845 0)
(2.77471e-05 0.00539244 0)
(0.000184462 0.0141548 0)
(0.000352018 0.0207034 0)
(0.000368795 0.0242579 0)
(6.77109e-05 0.0245097 0)
(-0.000638224 0.0217258 0)
(-0.00165003 0.0167817 0)
(-0.00272829 0.0105251 0)
(-0.00356805 0.00342391 0)
(-0.00382327 -0.00426519 0)
(-0.00322713 -0.0118431 0)
(-0.0025918 -0.0167996 0)
(-0.00277414 -0.0173172 0)
(-0.00335418 -0.0150636 0)
(-0.00362156 -0.0120939 0)
(-0.00318997 -0.00941834 0)
(-0.00201812 -0.00704433 0)
(-0.000234867 -0.00463085 0)
(0.00143914 -0.00208683 0)
(0.00298087 0.000473582 0)
(0.0035275 0.00276603 0)
(0.00371655 0.0051731 0)
(0.00359926 0.00794261 0)
(0.00313501 0.0110886 0)
(0.00238524 0.0145052 0)
(0.00148977 0.0179147 0)
(0.000633095 0.0207768 0)
(-3.51248e-06 0.0222742 0)
(-0.000311026 0.0215504 0)
(-0.000326942 0.0182183 0)
(-0.000184652 0.012414 0)
(-3.14076e-05 0.00471646 0)
(2.56868e-05 0.0048854 0)
(0.000218157 0.0131543 0)
(0.00051526 0.0197938 0)
(0.000795642 0.0239761 0)
(0.000886666 0.0251586 0)
(0.000645834 0.0233171 0)
(4.01722e-05 0.0189198 0)
(-0.000844998 0.0125053 0)
(-0.00171598 0.00476734 0)
(-0.0022349 -0.00394971 0)
(-0.00228608 -0.0120845 0)
(-0.00295612 -0.0164007 0)
(-0.00459032 -0.0162602 0)
(-0.00645337 -0.014083 0)
(-0.00794018 -0.0116093 0)
(-0.00870688 -0.0094877 0)
(-0.00858462 -0.00766136 0)
(-0.0075344 -0.00576807 0)
(-0.00596831 -0.00351707 0)
(-0.00425832 -0.000798211 0)
(-0.00284191 0.00199366 0)
(-0.00232145 0.00485291 0)
(-0.00202801 0.00818157 0)
(-0.00201194 0.0119129 0)
(-0.00215462 0.0157619 0)
(-0.00229121 0.0192392 0)
(-0.00226638 0.0216917 0)
(-0.00199584 0.0224086 0)
(-0.00150179 0.0208546 0)
(-0.000905623 0.0169521 0)
(-0.000377852 0.0111082 0)
(-4.71296e-05 0.00404125 0)
(1.54463e-05 0.00434263 0)
(0.000161302 0.0118982 0)
(0.000424682 0.0183219 0)
(0.00073587 0.0228522 0)
(0.000957417 0.024808 0)
(0.000950095 0.0238882 0)
(0.000639008 0.0202613 0)
(4.40641e-05 0.0143172 0)
(-0.000677574 0.00637415 0)
(-0.00123152 -0.00291161 0)
(-0.00219489 -0.0108407 0)
(-0.00442895 -0.0140558 0)
(-0.00751698 -0.0135124 0)
(-0.0106674 -0.0117614 0)
(-0.0134103 -0.0100476 0)
(-0.0154513 -0.00871931 0)
(-0.0165297 -0.00767241 0)
(-0.0164026 -0.00650771 0)
(-0.0153198 -0.00484101 0)
(-0.0136259 -0.0024339 0)
(-0.011542 0.000685036 0)
(-0.0101355 0.00403317 0)
(-0.00896387 0.00762968 0)
(-0.00790109 0.0114397 0)
(-0.00687485 0.0151449 0)
(-0.0058273 0.0181646 0)
(-0.00470607 0.0198678 0)
(-0.0035105 0.0197368 0)
(-0.00231326 0.017564 0)
(-0.0012483 0.0135939 0)
(-0.000468505 0.00845451 0)
(-4.80558e-05 0.00289653 0)
(1.2852e-06 0.00400362 0)
(3.91214e-05 0.0110087 0)
(0.000127321 0.0171527 0)
(0.000244262 0.0218279 0)
(0.000315233 0.0243388 0)
(0.00024521 0.0241757 0)
(-2.18917e-05 0.0211848 0)
(-0.000444951 0.0154961 0)
(-0.000911562 0.00759706 0)
(-0.00147403 -0.00129568 0)
(-0.00375354 -0.0075111 0)
(-0.00753163 -0.00934845 0)
(-0.0118466 -0.0088315 0)
(-0.0160629 -0.00787292 0)
(-0.0198776 -0.00714801 0)
(-0.0230597 -0.00680029 0)
(-0.0253091 -0.00673888 0)
(-0.0261997 -0.00659763 0)
(-0.0257882 -0.00594044 0)
(-0.0243142 -0.00448715 0)
(-0.0219569 -0.00210353 0)
(-0.0188687 0.00113848 0)
(-0.0157963 0.00472746 0)
(-0.0129833 0.00807816 0)
(-0.0102574 0.0111368 0)
(-0.00778424 0.0134175 0)
(-0.00561306 0.0144016 0)
(-0.00375937 0.0137608 0)
(-0.00223853 0.0115585 0)
(-0.00109426 0.00829825 0)
(-0.000370742 0.00471392 0)
(-3.49789e-05 0.00143562 0)
(-1.16666e-05 0.00412487 0)
(-8.27047e-05 0.0111983 0)
(-0.000200615 0.0173404 0)
(-0.000362292 0.0221023 0)
(-0.000587788 0.0248746 0)
(-0.000924161 0.0250448 0)
(-0.00140746 0.0222459 0)
(-0.00204353 0.0165785 0)
(-0.00299266 0.00908657 0)
(-0.00500926 0.00246083 0)
(-0.00842481 -0.00123143 0)
(-0.0128877 -0.002412 0)
(-0.0174947 -0.00264865 0)
(-0.0218578 -0.00282151 0)
(-0.0258603 -0.00318687 0)
(-0.0293479 -0.00391245 0)
(-0.0320409 -0.00501493 0)
(-0.0334616 -0.00621367 0)
(-0.0335579 -0.00711279 0)
(-0.0324617 -0.0075223 0)
(-0.0302302 -0.00730198 0)
(-0.0269514 -0.00632382 0)
(-0.0228146 -0.00448094 0)
(-0.0181721 -0.00177374 0)
(-0.0135811 0.00128258 0)
(-0.00934885 0.00417853 0)
(-0.00577867 0.00625842 0)
(-0.00308549 0.00691618 0)
(-0.00134272 0.00607231 0)
(-0.000412448 0.00446918 0)
(-5.01634e-05 0.00262598 0)
(1.57469e-05 0.00085242 0)
(-8.35352e-06 0.00453348 0)
(-7.94345e-05 0.0121709 0)
(-0.000222353 0.0186723 0)
(-0.000447269 0.0236728 0)
(-0.000770261 0.0266819 0)
(-0.00122927 0.0271555 0)
(-0.00187862 0.0247772 0)
(-0.00281732 0.0199387 0)
(-0.00435052 0.0142477 0)
(-0.0069029 0.00990821 0)
(-0.0103416 0.0074333 0)
(-0.0142044 0.00581914 0)
(-0.0181693 0.00435433 0)
(-0.0220993 0.00278319 0)
(-0.0258334 0.000981383 0)
(-0.0291362 -0.000992152 0)
(-0.0316133 -0.00320787 0)
(-0.0330476 -0.00561188 0)
(-0.0335044 -0.00795704 0)
(-0.0330351 -0.0101839 0)
(-0.0316282 -0.0122533 0)
(-0.0292822 -0.0140693 0)
(-0.0260518 -0.0154431 0)
(-0.0220816 -0.0160928 0)
(-0.01763 -0.0156894 0)
(-0.0130534 -0.0139654 0)
(-0.00875395 -0.0108335 0)
(-0.00512143 -0.00661723 0)
(-0.00246544 -0.00230643 0)
(-0.000896451 0.000614801 0)
(-0.000190592 0.00161456 0)
(4.39071e-06 0.000959809 0)
(7.87634e-06 0.00464775 0)
(3.61467e-05 0.0125552 0)
(5.31931e-05 0.0193707 0)
(2.55554e-05 0.0247358 0)
(-9.0519e-05 0.0281814 0)
(-0.000355733 0.0291925 0)
(-0.000852976 0.0274963 0)
(-0.00169207 0.0235539 0)
(-0.0030247 0.0188869 0)
(-0.00492135 0.015153 0)
(-0.00721789 0.0126404 0)
(-0.00974801 0.0107004 0)
(-0.0124482 0.00882974 0)
(-0.0152936 0.00682157 0)
(-0.0182399 0.00459219 0)
(-0.0211696 0.00201473 0)
(-0.0238909 -0.0010842 0)
(-0.0253479 -0.00427038 0)
(-0.0262466 -0.00738045 0)
(-0.0266258 -0.0105955 0)
(-0.0264299 -0.0140074 0)
(-0.0255809 -0.0175946 0)
(-0.0240059 -0.0211582 0)
(-0.0216883 -0.0242967 0)
(-0.0187023 -0.0264409 0)
(-0.0152139 -0.0269448 0)
(-0.0114715 -0.0252322 0)
(-0.00779095 -0.0210789 0)
(-0.0045369 -0.0149847 0)
(-0.00207816 -0.0084136 0)
(-0.00062412 -0.00321972 0)
(-3.92883e-05 -0.000376929 0)
(2.13418e-05 0.00435199 0)
(0.000157152 0.0120129 0)
(0.00036815 0.0188561 0)
(0.000608953 0.0244606 0)
(0.000811808 0.0283333 0)
(0.00089535 0.0299782 0)
(0.000756968 0.0291092 0)
(0.000281921 0.0260131 0)
(-0.000628388 0.0218915 0)
(-0.00188956 0.0183794 0)
(-0.00331981 0.0158062 0)
(-0.00481556 0.0137001 0)
(-0.00638259 0.0116177 0)
(-0.00804307 0.00936558 0)
(-0.00979882 0.00687368 0)
(-0.011598 0.004048 0)
(-0.0133055 0.000676375 0)
(-0.0150855 -0.00296158 0)
(-0.0161848 -0.00631787 0)
(-0.0172445 -0.00979687 0)
(-0.0181186 -0.0137024 0)
(-0.018704 -0.0181807 0)
(-0.0188198 -0.0231669 0)
(-0.0182754 -0.0282917 0)
(-0.0169549 -0.0328809 0)
(-0.0148437 -0.0360621 0)
(-0.0120555 -0.0368287 0)
(-0.00884449 -0.0343139 0)
(-0.00559416 -0.0282049 0)
(-0.00279415 -0.0193746 0)
(-0.000914193 -0.0100931 0)
(-6.53555e-05 -0.00264884 0)
(2.77538e-05 0.00381106 0)
(0.000237228 0.010832 0)
(0.000601137 0.0174167 0)
(0.00107534 0.0230889 0)
(0.00157845 0.0272899 0)
(0.00201841 0.0294816 0)
(0.00228756 0.0293354 0)
(0.00227023 0.0270349 0)
(0.00188882 0.023535 0)
(0.00122815 0.0201275 0)
(0.000503234 0.0173761 0)
(-0.000166887 0.0150699 0)
(-0.000784152 0.0128673 0)
(-0.00140593 0.0105206 0)
(-0.00208581 0.00794263 0)
(-0.0028611 0.00506273 0)
(-0.00358969 0.00176333 0)
(-0.00488309 -0.00176522 0)
(-0.00607446 -0.00502519 0)
(-0.00747737 -0.00825941 0)
(-0.00898104 -0.0119683 0)
(-0.010545 -0.0164798 0)
(-0.0119917 -0.0219759 0)
(-0.0130205 -0.0282764 0)
(-0.0133584 -0.0347387 0)
(-0.0128103 -0.0404419 0)
(-0.0113137 -0.0440568 0)
(-0.0089932 -0.0441473 0)
(-0.00616005 -0.0395073 0)
(-0.00333231 -0.0299713 0)
(-0.00117737 -0.0174273 0)
(-9.7997e-05 -0.00525135 0)
(2.85743e-05 0.00321336 0)
(0.000270279 0.00942225 0)
(0.000721455 0.0155523 0)
(0.0013526 0.0211178 0)
(0.00208427 0.0255066 0)
(0.0028238 0.0281201 0)
(0.00346625 0.0285682 0)
(0.00390073 0.0269293 0)
(0.00405761 0.0239432 0)
(0.00400625 0.0206814 0)
(0.00393895 0.017807 0)
(0.00399213 0.0153511 0)
(0.0041755 0.0130565 0)
(0.00442131 0.0106969 0)
(0.00462846 0.00815443 0)
(0.0046882 0.00532483 0)
(0.00461166 0.00227826 0)
(0.00389507 -0.000838023 0)
(0.00259798 -0.0037862 0)
(0.00102796 -0.00663358 0)
(-0.00081063 -0.00999319 0)
(-0.00281293 -0.0140167 0)
(-0.00496447 -0.0192452 0)
(-0.00707907 -0.0258896 0)
(-0.00877915 -0.0334041 0)
(-0.00972078 -0.0410598 0)
(-0.00963124 -0.0473471 0)
(-0.00844867 -0.0504318 0)
(-0.00633043 -0.0482877 0)
(-0.00373022 -0.039501 0)
(-0.00142698 -0.0248353 0)
(-0.000131716 -0.00810889 0)
(2.54644e-05 0.00267205 0)
(0.000261956 0.00807231 0)
(0.000730549 0.0136622 0)
(0.00142642 0.0189859 0)
(0.0022903 0.0234103 0)
(0.00324484 0.0262858 0)
(0.00420009 0.0271617 0)
(0.00505899 0.0260279 0)
(0.00575592 0.0234624 0)
(0.00633024 0.020376 0)
(0.00692227 0.017458 0)
(0.00765333 0.0148989 0)
(0.00854223 0.0125587 0)
(0.00951047 0.0102442 0)
(0.010419 0.00781717 0)
(0.0111023 0.0051455 0)
(0.0113489 0.00238245 0)
(0.0108451 -0.000291419 0)
(0.0095133 -0.00280443 0)
(0.00778765 -0.00529619 0)
(0.00583236 -0.00809879 0)
(0.00367817 -0.0115175 0)
(0.00140835 -0.0159868 0)
(-0.00125296 -0.0224604 0)
(-0.00382443 -0.0301555 0)
(-0.00598635 -0.0389774 0)
(-0.00726024 -0.0473781 0)
(-0.00735053 -0.0533797 0)
(-0.00617529 -0.054304 0)
(-0.00402633 -0.0474666 0)
(-0.00169111 -0.0319539 0)
(-0.000172126 -0.011113 0)
(1.90387e-05 0.00224832 0)
(0.000213382 0.00696313 0)
(0.000625362 0.0120243 0)
(0.00128433 0.0170205 0)
(0.00217357 0.0213293 0)
(0.00325284 0.0242784 0)
(0.00446212 0.0253792 0)
(0.0057239 0.024566 0)
(0.00696914 0.0223119 0)
(0.00819214 0.0194116 0)
(0.00946223 0.0165378 0)
(0.0108568 0.0139679 0)
(0.0123855 0.0116572 0)
(0.0139645 0.00945285 0)
(0.0154326 0.00721454 0)
(0.0165793 0.0048067 0)
(0.0170314 0.00241055 0)
(0.0166731 0.000228803 0)
(0.0153074 -0.00183927 0)
(0.0134684 -0.0039663 0)
(0.0113337 -0.00643596 0)
(0.0090157 -0.00951184 0)
(0.00661472 -0.0135145 0)
(0.00402589 -0.0188835 0)
(0.0012019 -0.0259629 0)
(-0.00178671 -0.0352029 0)
(-0.00426875 -0.0449394 0)
(-0.00570735 -0.0534328 0)
(-0.00569029 -0.0576114 0)
(-0.00423128 -0.0536441 0)
(-0.00200742 -0.0386043 0)
(-0.000229106 -0.0142668 0)
(7.28473e-06 0.00198343 0)
(0.000108971 0.00622315 0)
(0.000372226 0.0108389 0)
(0.000881279 0.015452 0)
(0.00169353 0.0194842 0)
(0.00282744 0.022291 0)
(0.00426011 0.0233896 0)
(0.00592995 0.0227029 0)
(0.00774885 0.0206505 0)
(0.00964723 0.0179391 0)
(0.0116099 0.0151918 0)
(0.013655 0.0127121 0)
(0.0157724 0.0105137 0)
(0.0178789 0.0084809 0)
(0.0198074 0.00648307 0)
(0.0213222 0.00439253 0)
(0.0219769 0.00237884 0)
(0.0216991 0.000643596 0)
(0.0204711 -0.000999467 0)
(0.0187095 -0.00274005 0)
(0.0165741 -0.00482464 0)
(0.014177 -0.00752233 0)
(0.011602 -0.0111453 0)
(0.00886077 -0.0160288 0)
(0.00593711 -0.0223888 0)
(0.00278627 -0.0304913 0)
(-0.000599896 -0.0406796 0)
(-0.00338352 -0.0510086 0)
(-0.00475662 -0.0583061 0)
(-0.00429007 -0.0578573 0)
(-0.00240332 -0.0446117 0)
(-0.000321509 -0.0176367 0)
(-1.42659e-05 0.00192983 0)
(-9.33467e-05 0.00598177 0)
(-0.000116135 0.0102538 0)
(0.000113591 0.01442 0)
(0.00078104 0.0179838 0)
(0.00195983 0.0204044 0)
(0.00364068 0.0212725 0)
(0.00576219 0.0205371 0)
(0.00819671 0.0186021 0)
(0.0107924 0.0160909 0)
(0.0134473 0.013545 0)
(0.0161224 0.0112463 0)
(0.0187899 0.00923348 0)
(0.0213744 0.00741975 0)
(0.0237194 0.00569048 0)
(0.02559 0.00393019 0)
(0.0265189 0.00228241 0)
(0.0264556 0.000919548 0)
(0.0255104 -0.000352019 0)
(0.0240058 -0.00173928 0)
(0.0220694 -0.00345241 0)
(0.0197765 -0.00574622 0)
(0.0171704 -0.0089103 0)
(0.0142607 -0.0132396 0)
(0.0110482 -0.0189764 0)
(0.0075444 -0.0263313 0)
(0.00375666 -0.0354647 0)
(-0.00016347 -0.0464255 0)
(-0.0031436 -0.0564356 0)
(-0.00406081 -0.0598894 0)
(-0.00286913 -0.0497195 0)
(-0.00047828 -0.0213179 0)
(-6.30757e-05 0.00220374 0)
(-0.000481414 0.00646189 0)
(-0.000948401 0.0104735 0)
(-0.0010992 0.0139608 0)
(-0.000618063 0.0167394 0)
(0.000670504 0.0185777 0)
(0.00270906 0.0190305 0)
(0.00536726 0.0181237 0)
(0.0084714 0.0162684 0)
(0.01178 0.0139856 0)
(0.0151197 0.0117056 0)
(0.0184128 0.00965794 0)
(0.0216248 0.00788333 0)
(0.0246966 0.00631615 0)
(0.0274948 0.00486073 0)
(0.0298078 0.00341593 0)
(0.0311605 0.00209565 0)
(0.0314918 0.00103762 0)
(0.0310321 7.14041e-05 0)
(0.0299181 -0.00100941 0)
(0.0283308 -0.00238225 0)
(0.0262902 -0.00426778 0)
(0.0237833 -0.00692114 0)
(0.0207775 -0.0106081 0)
(0.0172517 -0.0155769 0)
(0.0132278 -0.0220634 0)
(0.00878148 -0.0303046 0)
(0.00406242 -0.0404666 0)
(-0.000513073 -0.0519885 0)
(-0.00328014 -0.0594517 0)
(-0.00331127 -0.053544 0)
(-0.000730626 -0.0253602 0)
(-0.000180187 0.00300353 0)
(-0.00120955 0.00784444 0)
(-0.00226481 0.0114821 0)
(-0.00278926 0.0140082 0)
(-0.00237314 0.015703 0)
(-0.000902574 0.0166704 0)
(0.00170446 0.0166048 0)
(0.005029 0.0154896 0)
(0.00887391 0.0137306 0)
(0.0129259 0.0117169 0)
(0.0169737 0.009751 0)
(0.0209253 0.00799787 0)
(0.0247495 0.00648927 0)
(0.0284053 0.00517639 0)
(0.0317839 0.0039838 0)
(0.0347027 0.00282743 0)
(0.0366548 0.00179373 0)
(0.0375363 0.000984824 0)
(0.0376194 0.000261671 0)
(0.0370095 -0.000554454 0)
(0.035852 -0.00161744 0)
(0.0341297 -0.00310027 0)
(0.0317835 -0.00521243 0)
(0.0287352 -0.0081835 0)
(0.0249247 -0.0122542 0)
(0.0203506 -0.0176902 0)
(0.015097 -0.024815 0)
(0.00934864 -0.0340166 0)
(0.00346407 -0.0453442 0)
(-0.00149207 -0.0561974 0)
(-0.00348005 -0.0555756 0)
(-0.00107793 -0.0296886 0)
(-0.000436132 0.00468158 0)
(-0.00244739 0.0102907 0)
(-0.00408102 0.0130879 0)
(-0.00474265 0.0142286 0)
(-0.00408523 0.0146117 0)
(-0.00213547 0.0145745 0)
(0.00126016 0.0139186 0)
(0.00544462 0.0126399 0)
(0.010138 0.0110381 0)
(0.015022 0.00933412 0)
(0.0198794 0.00771038 0)
(0.0246147 0.00627194 0)
(0.0291944 0.00504037 0)
(0.0335813 0.00398149 0)
(0.0376769 0.0030398 0)
(0.041313 0.00215102 0)
(0.0439265 0.00137688 0)
(0.0453728 0.000784462 0)
(0.0459495 0.000264448 0)
(0.0458072 -0.000324675 0)
(0.0450201 -0.00110258 0)
(0.0435638 -0.00219581 0)
(0.0413554 -0.00376333 0)
(0.0382844 -0.00598796 0)
(0.0342479 -0.00908257 0)
(0.0291922 -0.0133204 0)
(0.0231515 -0.01909 0)
(0.0162814 -0.0269576 0)
(0.00894201 -0.0375153 0)
(0.00197014 -0.0498371 0)
(-0.00288218 -0.0551942 0)
(-0.00142631 -0.0341058 0)
(-0.000896174 0.00773833 0)
(-0.0041657 0.0136422 0)
(-0.00589886 0.0146907 0)
(-0.00598959 0.0140449 0)
(-0.00442788 0.0130698 0)
(-0.0014339 0.0120616 0)
(0.00314326 0.0108658 0)
(0.00833708 0.00956835 0)
(0.014024 0.00819905 0)
(0.0198717 0.00683766 0)
(0.0256636 0.00557376 0)
(0.0312856 0.00446547 0)
(0.0366791 0.00352551 0)
(0.0417892 0.00273122 0)
(0.0465126 0.0020438 0)
(0.0506874 0.00141854 0)
(0.0537273 0.000892771 0)
(0.0555036 0.00049977 0)
(0.0563545 0.000157485 0)
(0.056466 -0.000230775 0)
(0.0558722 -0.000746018 0)
(0.0545567 -0.00147541 0)
(0.0524301 -0.00252775 0)
(0.049365 -0.0040321 0)
(0.0452245 -0.00615275 0)
(0.0398899 -0.00913166 0)
(0.0332927 -0.0133669 0)
(0.0254647 -0.0195281 0)
(0.0166585 -0.0285908 0)
(0.00758948 -0.0409708 0)
(-0.000669359 -0.0515213 0)
(-0.00148369 -0.0380856 0)
(-0.00163982 0.0129409 0)
(-0.00563585 0.0170124 0)
(-0.00574138 0.0151133 0)
(-0.00360812 0.0126209 0)
(0.000166362 0.0105132 0)
(0.00510999 0.00883554 0)
(0.010939 0.00746736 0)
(0.0172802 0.00630544 0)
(0.0239485 0.00523881 0)
(0.0306545 0.00425622 0)
(0.0371769 0.00338077 0)
(0.0433727 0.00263339 0)
(0.0491557 0.00201608 0)
(0.054461 0.00151157 0)
(0.0592008 0.00109242 0)
(0.0632478 0.000729679 0)
(0.0661081 0.000437984 0)
(0.0677439 0.000224614 0)
(0.0685117 3.66547e-05 0)
(0.0685837 -0.000176828 0)
(0.0679963 -0.000463595 0)
(0.0667305 -0.00087644 0)
(0.0646936 -0.00147848 0)
(0.0617537 -0.00234593 0)
(0.0577581 -0.00358352 0)
(0.052538 -0.00536633 0)
(0.0459066 -0.00802648 0)
(0.0376763 -0.0122093 0)
(0.0277748 -0.0190686 0)
(0.0164884 -0.0300242 0)
(0.00438743 -0.0434244 0)
(-0.000171715 -0.0395722 0)
(-0.00123618 0.0182723 0)
(-0.00307122 0.0180961 0)
(0.00317553 0.0125129 0)
(0.0101721 0.00918389 0)
(0.0171122 0.00688903 0)
(0.0240065 0.00521108 0)
(0.0309384 0.0040041 0)
(0.0378363 0.00312582 0)
(0.0446116 0.00243541 0)
(0.0510923 0.00187068 0)
(0.0571175 0.00140923 0)
(0.0625807 0.00104159 0)
(0.0674325 0.000756874 0)
(0.0716586 0.000538711 0)
(0.07524 0.000368282 0)
(0.0781307 0.000229537 0)
(0.0800508 0.000123165 0)
(0.081059 4.56246e-05 0)
(0.0814449 -2.5173e-05 0)
(0.081304 -0.000108004 0)
(0.0806835 -0.000224041 0)
(0.0795423 -0.000396961 0)
(0.0777866 -0.000653641 0)
(0.0752949 -0.001027 0)
(0.0719251 -0.0015659 0)
(0.0674992 -0.00236359 0)
(0.0617582 -0.00362546 0)
(0.0542929 -0.00581399 0)
(0.044482 -0.00990561 0)
(0.0315492 -0.0175995 0)
(0.0154682 -0.0297553 0)
(0.00630782 -0.0334366 0)
(0.0207987 0.0113617 0)
(0.0271678 0.00927422 0)
(0.0401768 0.00540117 0)
(0.050725 0.00326864 0)
(0.0586374 0.0020377 0)
(0.064945 0.00126301 0)
(0.070208 0.00078506 0)
(0.0747105 0.000498536 0)
(0.0786226 0.000321164 0)
(0.0820101 0.000207115 0)
(0.0848981 0.000132293 0)
(0.0873162 8.34193e-05 0)
(0.08931 5.19996e-05 0)
(0.0909303 3.16679e-05 0)
(0.0922122 1.75929e-05 0)
(0.0931665 7.03163e-06 0)
(0.0937277 -6.25974e-07 0)
(0.0939515 -6.79065e-06 0)
(0.0939407 -1.33214e-05 0)
(0.09373 -2.24773e-05 0)
(0.0933177 -3.73187e-05 0)
(0.0926612 -6.1335e-05 0)
(0.0916962 -9.83001e-05 0)
(0.0903488 -0.000152935 0)
(0.0885333 -0.000232926 0)
(0.0861307 -0.000355436 0)
(0.0829252 -0.000564555 0)
(0.0784669 -0.000973586 0)
(0.0717835 -0.00186318 0)
(0.0608521 -0.0039796 0)
(0.0432743 -0.00918956 0)
(0.0285924 -0.0145282 0)
)
;

boundaryField
{
    movingWall
    {
        type            fixedValue;
        value           uniform (0.1 0 0);
    }
    fixedWalls
    {
        type            noSlip;
    }
    floor
    {
        type            noSlip;
    }
    frontAndBack
    {
        type            empty;
    }
}


// ************************************************************************* //
