/*--------------------------------*- C++ -*----------------------------------*\
| =========                 |                                                 |
| \\      /  F ield         | OpenFOAM: The Open Source CFD Toolbox           |
|  \\    /   O peration     | Version:  2206                                  |
|   \\  /    A nd           | Website:  www.openfoam.com                      |
|    \\/     M anipulation  |                                                 |
\*---------------------------------------------------------------------------*/
FoamFile
{
    version     2.0;
    format      ascii;
    arch        "LSB;label=64;scalar=64";
    class       volVectorField;
    location    "626400";
    object      U;
}
// * * * * * * * * * * * * * * * * * * * * * * * * * * * * * * * * * * * * * //

dimensions      [0 1 -1 0 0 0 0];

internalField   nonuniform List<vector> 
16
(
(1.53218e-07 -1.1378e-07 0)
(2.79051e-07 -3.51059e-10 0)
(1.05006e-07 6.55048e-08 0)
(6.59792e-11 4.49262e-08 0)
(7.08397e-08 -3.19502e-07 0)
(9.68087e-08 4.3591e-08 0)
(-2.35185e-08 2.19538e-07 0)
(-2.63052e-08 5.65876e-08 0)
(-7.66389e-08 -2.77587e-07 0)
(-1.71529e-07 9.57202e-08 0)
(-7.27654e-08 1.89447e-07 0)
(7.5988e-09 -4.05358e-09 0)
(-1.49205e-07 -7.91678e-08 0)
(-2.02829e-07 4.22865e-08 0)
(-1.0811e-08 3.93205e-08 0)
(2.1978e-08 -7.99028e-09 0)
)
;

boundaryField
{
    movingWall
    {
        type            noSlip;
    }
    fixedWalls
    {
        type            noSlip;
    }
    frontAndBack
    {
        type            empty;
    }
}


// ************************************************************************* //
