/*--------------------------------*- C++ -*----------------------------------*\
| =========                 |                                                 |
| \\      /  F ield         | OpenFOAM: The Open Source CFD Toolbox           |
|  \\    /   O peration     | Version:  2212                                  |
|   \\  /    A nd           | Website:  www.openfoam.com                      |
|    \\/     M anipulation  |                                                 |
\*---------------------------------------------------------------------------*/
FoamFile
{
    version     2.0;
    format      ascii;
    arch        "LSB;label=64;scalar=64";
    class       volScalarField;
    location    "100";
    object      Gco2;
}
// * * * * * * * * * * * * * * * * * * * * * * * * * * * * * * * * * * * * * //

dimensions      [1 -3 0 0 0 0 0];

internalField   nonuniform List<scalar> 
1024
(
0.0320168
0.0319799
0.0318929
0.0317493
0.031557
0.0313426
0.0311438
0.030991
0.0308912
0.0308264
0.0307678
0.0306949
0.030598
0.0304763
0.0303357
0.0301928
0.0301138
0.0301551
0.030252
0.030365
0.030477
0.030582
0.0306796
0.0307718
0.0308628
0.0309536
0.0310407
0.0311174
0.0311779
0.0312198
0.0312441
0.0312543
0.0320062
0.0319675
0.0318765
0.0317274
0.0315307
0.0313161
0.031122
0.0309766
0.0308825
0.0308195
0.0307594
0.0306831
0.0305821
0.0304562
0.0303117
0.0301665
0.0300898
0.030136
0.0302371
0.0303526
0.0304659
0.0305715
0.0306692
0.0307612
0.0308517
0.0309423
0.0310303
0.0311088
0.0311716
0.0312154
0.031241
0.0312519
0.0319827
0.031941
0.0318433
0.0316851
0.0314822
0.031269
0.0310848
0.0309527
0.030868
0.030807
0.0307425
0.0306578
0.0305462
0.0304088
0.0302532
0.0301011
0.0300316
0.0300942
0.0302087
0.0303323
0.0304493
0.030556
0.0306534
0.0307442
0.0308329
0.0309224
0.031011
0.0310924
0.0311591
0.0312066
0.0312347
0.0312466
0.0319469
0.0319021
0.0317968
0.0316294
0.0314213
0.031213
0.031043
0.0309272
0.0308524
0.030791
0.0307173
0.0306172
0.0304858
0.030326
0.0301484
0.0299833
0.0299301
0.0300278
0.0301712
0.0303116
0.030436
0.0305445
0.0306407
0.0307288
0.0308139
0.0309001
0.0309879
0.0310714
0.0311424
0.0311943
0.0312254
0.0312386
0.0319029
0.0318559
0.031745
0.0315712
0.031362
0.0311621
0.0310081
0.0309077
0.0308399
0.0307736
0.0306843
0.0305594
0.0303959
0.0301996
0.0299872
0.0298051
0.0297832
0.0299423
0.0301346
0.0303027
0.0304385
0.0305491
0.0306425
0.0307254
0.0308041
0.0308843
0.0309684
0.0310518
0.0311255
0.031181
0.0312148
0.031229
0.0318566
0.0318092
0.0316967
0.0315221
0.0313167
0.0311273
0.0309878
0.030899
0.0308332
0.0307562
0.0306431
0.0304819
0.0302714
0.0300228
0.0297646
0.0295685
0.0296021
0.0298556
0.030119
0.0303245
0.0304737
0.0305845
0.0306715
0.0307452
0.0308138
0.0308843
0.0309611
0.0310406
0.0311138
0.0311704
0.0312054
0.0312202
0.0318138
0.0317679
0.0316585
0.031489
0.0312919
0.0311136
0.0309852
0.0309027
0.0308332
0.030739
0.0305927
0.0303818
0.0301084
0.0297927
0.0294835
0.0292891
0.0294141
0.0297993
0.0301545
0.0304026
0.0305621
0.0306668
0.0307408
0.0307989
0.0308517
0.0309079
0.0309727
0.0310439
0.0311119
0.0311661
0.0312001
0.0312147
0.031779
0.0317359
0.0316332
0.0314738
0.0312881
0.0311204
0.0309993
0.0309177
0.0308391
0.0307206
0.030531
0.0302571
0.0299058
0.0295126
0.0291564
0.0289926
0.0292538
0.0298075
0.0302717
0.0305621
0.0307224
0.0308099
0.0308607
0.0308942
0.0309239
0.0309596
0.0310073
0.0310648
0.031123
0.0311709
0.0312018
0.0312155
0.0317551
0.0317154
0.0316213
0.0314746
0.0313021
0.0311441
0.031027
0.030942
0.0308491
0.0306995
0.0304569
0.030108
0.0296677
0.0291927
0.0288017
0.0287026
0.0291398
0.0298886
0.0304757
0.0308082
0.0309593
0.0310172
0.0310334
0.0310327
0.0310313
0.0310402
0.0310652
0.0311042
0.0311483
0.0311867
0.0312127
0.031225
0.031744
0.0317073
0.031622
0.0314886
0.0313297
0.0311806
0.0310651
0.0309734
0.0308619
0.0306753
0.0303722
0.0299399
0.0294047
0.0288493
0.0284362
0.0284221
0.0290455
0.0299923
0.0307155
0.0311028
0.0312475
0.0312713
0.0312469
0.0312059
0.0311681
0.0311455
0.0311436
0.0311604
0.0311873
0.0312145
0.0312351
0.031246
0.0317465
0.0317121
0.0316342
0.0315133
0.0313672
0.0312263
0.0311114
0.031011
0.0308781
0.0306511
0.0302841
0.029766
0.0291354
0.0285018
0.0280667
0.0281213
0.0288879
0.0299995
0.0308716
0.0313519
0.0315229
0.0315292
0.0314719
0.0313941
0.0313209
0.0312667
0.0312374
0.0312314
0.0312411
0.0312573
0.0312727
0.0312824
0.0317658
0.0317327
0.0316605
0.0315499
0.031415
0.0312813
0.0311662
0.0310566
0.0309025
0.0306367
0.0302095
0.0296115
0.028891
0.0281754
0.0276903
0.0277418
0.0285467
0.0297556
0.0307858
0.0314202
0.0316884
0.0317272
0.0316645
0.0315662
0.0314673
0.0313869
0.0313335
0.0313079
0.031304
0.0313127
0.0313257
0.0313353
0.0318027
0.0317698
0.0317015
0.0315992
0.0314741
0.0313471
0.0312328
0.0311168
0.0309474
0.0306537
0.0301829
0.029525
0.0287283
0.0279196
0.0273223
0.0272371
0.0279074
0.0291024
0.0302866
0.031147
0.031618
0.0317799
0.0317668
0.0316812
0.0315819
0.0314977
0.031439
0.0314068
0.0313965
0.0314012
0.0314127
0.0314221
0.0318678
0.0318326
0.0317642
0.0316664
0.031549
0.0314292
0.0313196
0.0312063
0.0310382
0.030744
0.0302689
0.0295963
0.0287582
0.0278537
0.0270681
0.0266692
0.0269505
0.0279045
0.0291422
0.030268
0.0310772
0.0315279
0.0316972
0.0316952
0.0316232
0.0315458
0.0314931
0.0314726
0.0314778
0.0314969
0.0315176
0.0315304
0.0319862
0.0319483
0.0318796
0.031787
0.0316785
0.0315665
0.0314627
0.0313606
0.0312194
0.0309729
0.0305655
0.0299672
0.0291766
0.0282359
0.0272489
0.0263963
0.0259711
0.02623
0.0271024
0.0282614
0.0294111
0.0303563
0.0310318
0.0314574
0.031688
0.0317917
0.0318226
0.0318149
0.0317887
0.0317566
0.0317288
0.0317137
0.032179
0.0321306
0.0320488
0.0319491
0.0318429
0.0317388
0.0316457
0.0315685
0.0314949
0.0313802
0.0311525
0.0307565
0.0301891
0.0294379
0.0284665
0.0273097
0.026079
0.0251075
0.0247209
0.0249282
0.0255664
0.0264232
0.0273212
0.0281492
0.0288458
0.0293924
0.0297856
0.0300335
0.0301581
0.0301956
0.0301886
0.030175
0.0326024
0.0325374
0.0324232
0.0322832
0.0321388
0.0320056
0.0318942
0.0318131
0.0317665
0.031747
0.0317234
0.031648
0.0314897
0.0312063
0.0307774
0.0300821
0.0289566
0.0273934
0.0256872
0.0241705
0.0230377
0.0223386
0.0220261
0.0220154
0.0222185
0.0225525
0.0229529
0.0233695
0.0237555
0.0240672
0.0242721
0.024365
0.0331736
0.0331181
0.0330092
0.0328578
0.0326821
0.0325031
0.0323409
0.0322124
0.0321293
0.0320998
0.0321164
0.0321434
0.0321371
0.0320824
0.0320835
0.0320625
0.0319301
0.031434
0.0304074
0.0288988
0.0271165
0.0252922
0.0236158
0.0222118
0.0211458
0.0204302
0.0200367
0.0199085
0.0199645
0.0201095
0.020253
0.0203341
0.0334567
0.0334415
0.0334049
0.0333373
0.0332318
0.0330916
0.0329317
0.032775
0.0326447
0.0325621
0.0325384
0.0325603
0.0325833
0.0325478
0.0325042
0.0324512
0.0324088
0.0322975
0.0319754
0.0312687
0.0301115
0.0285605
0.0267618
0.0249085
0.0231985
0.0217789
0.0207216
0.0200262
0.0196361
0.0194651
0.0194203
0.0194228
0.033136
0.0331581
0.0332067
0.0332734
0.0333343
0.0333611
0.0333377
0.0332676
0.0331702
0.0330743
0.0330079
0.0329846
0.0329847
0.032944
0.0328559
0.0327342
0.0326409
0.0325689
0.0323864
0.0319189
0.0310562
0.029766
0.0280916
0.0261593
0.0241774
0.0223755
0.0209316
0.0199216
0.0193167
0.0190214
0.0189184
0.0189028
0.0322505
0.032282
0.0323638
0.0325095
0.0327126
0.0329391
0.0331419
0.0332842
0.0333541
0.033363
0.0333401
0.0333173
0.0333054
0.0332614
0.0331557
0.0329915
0.0328436
0.0327296
0.0325387
0.0321201
0.0313665
0.0302258
0.0286965
0.0268368
0.0247925
0.0227852
0.0210517
0.0197551
0.0189326
0.0185106
0.0183558
0.0183303
0.0310691
0.0310912
0.0311618
0.0313153
0.0315768
0.0319382
0.0323474
0.0327354
0.0330484
0.0332624
0.033386
0.0334495
0.0334819
0.0334665
0.0333734
0.0332004
0.0330184
0.0328301
0.0325356
0.0320182
0.031204
0.03006
0.0285818
0.0267973
0.024799
0.0227612
0.0209135
0.0194565
0.0184841
0.0179616
0.0177618
0.0177274
0.0298326
0.029848
0.0299146
0.0300797
0.0303843
0.0308392
0.0314026
0.0319906
0.0325204
0.0329382
0.0332311
0.0334176
0.0335296
0.0335669
0.0335063
0.0333413
0.0331113
0.0327912
0.0323156
0.0316208
0.0306782
0.02948
0.0280254
0.0263228
0.0244213
0.022445
0.0205922
0.0190692
0.0180063
0.0174096
0.0171717
0.0171289
0.028645
0.0286651
0.0287549
0.0289709
0.0293555
0.0299163
0.0306125
0.0313555
0.0320482
0.0326184
0.0330408
0.0333278
0.0335094
0.0335913
0.0335502
0.0333578
0.0329997
0.0324596
0.0317426
0.0308423
0.0297662
0.0285211
0.0271058
0.0255134
0.0237576
0.0219125
0.0201352
0.0186214
0.0175213
0.0168761
0.0166074
0.0165563
0.0275035
0.0275363
0.0276609
0.0279352
0.0283962
0.0290446
0.0298396
0.0307046
0.0315418
0.0322578
0.0328015
0.033171
0.0333943
0.0334798
0.0333958
0.0330738
0.0324715
0.031647
0.0306848
0.0296149
0.0284574
0.027218
0.0258881
0.0244478
0.0228841
0.0212279
0.0195907
0.0181449
0.01705
0.0163776
0.0160829
0.016023
0.0263615
0.0264074
0.0265515
0.0268403
0.0273025
0.0279424
0.0287388
0.0296524
0.0306085
0.0315001
0.0322174
0.032689
0.0329311
0.0329647
0.0327528
0.0321993
0.0312991
0.0302169
0.0290857
0.0279386
0.0267868
0.0256249
0.0244342
0.023186
0.0218506
0.0204264
0.0189806
0.0176534
0.016602
0.0159227
0.0156063
0.0155359
0.0251636
0.0252166
0.0253415
0.0255644
0.0259133
0.026412
0.0270753
0.0279117
0.0288906
0.0299194
0.0308419
0.0314436
0.0316947
0.0316499
0.03128
0.0304983
0.0293789
0.028167
0.0269995
0.0258912
0.0248364
0.0238177
0.0228096
0.0217801
0.0206929
0.0195263
0.0183101
0.0171459
0.0161762
0.0155129
0.0151811
0.0150985
0.0238383
0.0238884
0.0239485
0.0240289
0.0241744
0.0244375
0.0248663
0.0255026
0.0263574
0.0273755
0.0284161
0.0291295
0.029398
0.0293068
0.0288451
0.0279639
0.0268047
0.0256354
0.0245693
0.0236016
0.0227139
0.0218824
0.0210803
0.0202779
0.0194405
0.0185383
0.0175739
0.0166096
0.0157607
0.015142
0.0148069
0.0147119
0.0222887
0.0223254
0.0222894
0.0222011
0.022132
0.0221536
0.0223261
0.0227034
0.02332
0.0241576
0.0251253
0.025857
0.0261509
0.0260735
0.0256361
0.0248294
0.0238164
0.0228363
0.0219726
0.0212106
0.0205282
0.0199021
0.019309
0.0187252
0.0181227
0.0174734
0.0167651
0.016026
0.0153358
0.0147964
0.0144782
0.0143748
0.0203984
0.0203984
0.0202549
0.0200384
0.0198332
0.0197004
0.0196887
0.019843
0.0201997
0.0207627
0.0214902
0.0221076
0.0223936
0.0223634
0.0220398
0.0214355
0.0206898
0.0199829
0.0193714
0.0188408
0.0183724
0.0179484
0.0175518
0.0171664
0.0167729
0.0163503
0.0158835
0.0153786
0.0148788
0.0144577
0.0141855
0.014084
0.0180399
0.0179686
0.0177664
0.0175391
0.0173333
0.0171794
0.0171046
0.0171351
0.0172945
0.0175913
0.0180141
0.0184103
0.0186187
0.0186232
0.0184411
0.0180876
0.017651
0.0172398
0.0168872
0.0165838
0.016318
0.0160793
0.0158579
0.0156448
0.0154293
0.0151996
0.0149448
0.0146626
0.0143697
0.0141043
0.013915
0.0138339
0.0151045
0.015056
0.0149591
0.0148628
0.014778
0.0147123
0.0146743
0.0146722
0.0147138
0.0148023
0.0149365
0.0150699
0.0151454
0.0151522
0.0150959
0.0149828
0.0148425
0.0147104
0.0145975
0.0145006
0.0144161
0.0143404
0.0142705
0.0142037
0.0141366
0.0140655
0.0139869
0.0138992
0.013806
0.0137174
0.0136487
0.0136153
)
;

boundaryField
{
    movingWall
    {
        type            fixedValue;
        value           uniform 0.0135;
    }
    fixedWalls
    {
        type            zeroGradient;
    }
    floor
    {
        type            zeroGradient;
    }
    frontAndBack
    {
        type            empty;
    }
}


// ************************************************************************* //
