/*--------------------------------*- C++ -*----------------------------------*\
| =========                 |                                                 |
| \\      /  F ield         | OpenFOAM: The Open Source CFD Toolbox           |
|  \\    /   O peration     | Version:  2212                                  |
|   \\  /    A nd           | Website:  www.openfoam.com                      |
|    \\/     M anipulation  |                                                 |
\*---------------------------------------------------------------------------*/
FoamFile
{
    version     2.0;
    format      ascii;
    arch        "LSB;label=64;scalar=64";
    class       volScalarField;
    location    "100";
    object      Sch4;
}
// * * * * * * * * * * * * * * * * * * * * * * * * * * * * * * * * * * * * * //

dimensions      [1 -3 0 0 0 0 0];

internalField   nonuniform List<scalar> 
1024
(
0.046978
0.046995
0.047035
0.047101
0.0471895
0.0472881
0.0473795
0.0474498
0.0474957
0.0475256
0.0475525
0.0475861
0.0476307
0.0476866
0.0477513
0.0478171
0.0478534
0.0478344
0.0477898
0.0477378
0.0476863
0.047638
0.0475931
0.0475506
0.0475087
0.047467
0.0474269
0.0473916
0.0473638
0.0473446
0.0473334
0.0473287
0.0469829
0.0470007
0.0470425
0.0471111
0.0472015
0.0473003
0.0473895
0.0474564
0.0474997
0.0475287
0.0475564
0.0475915
0.047638
0.0476959
0.0477624
0.0478291
0.0478644
0.0478431
0.0477967
0.0477435
0.0476914
0.0476428
0.0475979
0.0475555
0.0475139
0.0474722
0.0474317
0.0473956
0.0473667
0.0473466
0.0473348
0.0473298
0.0469937
0.0470129
0.0470578
0.0471305
0.0472239
0.0473219
0.0474066
0.0474674
0.0475064
0.0475345
0.0475642
0.0476032
0.0476545
0.0477177
0.0477893
0.0478593
0.0478912
0.0478624
0.0478097
0.0477528
0.047699
0.0476499
0.0476051
0.0475633
0.0475225
0.0474813
0.0474406
0.0474031
0.0473725
0.0473506
0.0473377
0.0473322
0.0470102
0.0470308
0.0470792
0.0471562
0.0472519
0.0473477
0.0474259
0.0474792
0.0475136
0.0475419
0.0475758
0.0476218
0.0476823
0.0477558
0.0478375
0.0479134
0.0479379
0.0478929
0.047827
0.0477624
0.0477052
0.0476552
0.047611
0.0475704
0.0475313
0.0474916
0.0474512
0.0474128
0.0473801
0.0473563
0.0473419
0.0473359
0.0470304
0.047052
0.047103
0.0471829
0.0472791
0.0473711
0.047442
0.0474881
0.0475194
0.0475499
0.047591
0.0476485
0.0477237
0.047814
0.0479116
0.0479954
0.0480054
0.0479322
0.0478438
0.0477665
0.047704
0.0476531
0.0476102
0.047572
0.0475358
0.0474989
0.0474602
0.0474218
0.0473879
0.0473624
0.0473469
0.0473403
0.0470517
0.0470735
0.0471252
0.0472055
0.0473
0.0473871
0.0474513
0.0474921
0.0475225
0.0475579
0.0476099
0.0476841
0.0477809
0.0478953
0.0480141
0.0481042
0.0480888
0.0479721
0.047851
0.0477565
0.0476878
0.0476368
0.0475968
0.0475629
0.0475313
0.0474989
0.0474636
0.0474269
0.0473933
0.0473673
0.0473512
0.0473444
0.0470714
0.0470925
0.0471428
0.0472207
0.0473114
0.0473934
0.0474525
0.0474905
0.0475225
0.0475658
0.0476332
0.0477302
0.0478559
0.0480011
0.0481433
0.0482327
0.0481752
0.0479981
0.0478346
0.0477205
0.0476472
0.047599
0.0475649
0.0475382
0.0475139
0.047488
0.0474582
0.0474255
0.0473942
0.0473693
0.0473536
0.0473469
0.0470874
0.0471072
0.0471544
0.0472277
0.0473132
0.0473903
0.0474461
0.0474836
0.0475198
0.0475743
0.0476616
0.0477876
0.0479491
0.04813
0.0482938
0.0483691
0.048249
0.0479943
0.0477808
0.0476472
0.0475735
0.0475332
0.0475098
0.0474944
0.0474807
0.0474642
0.0474423
0.0474158
0.0473891
0.0473671
0.0473528
0.0473465
0.0470984
0.0471167
0.0471599
0.0472274
0.0473067
0.0473794
0.0474333
0.0474724
0.0475152
0.047584
0.0476956
0.0478562
0.0480587
0.0482771
0.048457
0.0485025
0.0483014
0.047957
0.0476869
0.047534
0.0474645
0.0474378
0.0474304
0.0474307
0.0474313
0.0474272
0.0474157
0.0473977
0.0473774
0.0473598
0.0473478
0.0473421
0.0471035
0.0471204
0.0471596
0.0472209
0.0472941
0.0473627
0.0474158
0.047458
0.0475093
0.0475952
0.0477346
0.0479335
0.0481797
0.0484351
0.0486251
0.0486316
0.0483448
0.0479093
0.0475767
0.0473985
0.0473319
0.0473209
0.0473322
0.047351
0.0473684
0.0473788
0.0473796
0.0473719
0.0473595
0.047347
0.0473375
0.0473325
0.0471023
0.0471182
0.047154
0.0472096
0.0472768
0.0473416
0.0473945
0.0474407
0.0475019
0.0476063
0.0477752
0.0480135
0.0483035
0.048595
0.0487951
0.04877
0.0484174
0.047906
0.0475049
0.0472839
0.0472052
0.0472023
0.0472287
0.0472645
0.0472981
0.047323
0.0473365
0.0473392
0.0473348
0.0473273
0.0473202
0.0473157
0.0470934
0.0471087
0.0471419
0.0471928
0.0472548
0.0473163
0.0473693
0.0474197
0.0474907
0.047613
0.0478095
0.0480845
0.048416
0.0487451
0.0489682
0.0489446
0.0485744
0.0480183
0.0475443
0.0472525
0.0471291
0.0471112
0.0471401
0.0471853
0.0472308
0.0472677
0.0472923
0.047304
0.0473058
0.0473018
0.0472959
0.0472914
0.0470765
0.0470916
0.047123
0.0471701
0.0472276
0.0472861
0.0473387
0.047392
0.04747
0.0476052
0.0478217
0.0481244
0.0484908
0.0488628
0.0491376
0.0491768
0.0488685
0.0483188
0.047774
0.0473782
0.0471615
0.047087
0.047093
0.0471323
0.047178
0.0472167
0.0472437
0.0472586
0.0472633
0.0472611
0.0472558
0.0472515
0.0470465
0.0470627
0.0470942
0.0471392
0.0471932
0.0472483
0.0472987
0.0473509
0.0474283
0.0475636
0.0477822
0.0480916
0.0484771
0.0488931
0.0492545
0.0494381
0.0493087
0.0488699
0.0483005
0.0477826
0.0474103
0.0472029
0.047125
0.0471259
0.047159
0.0471946
0.0472188
0.0472283
0.0472259
0.0472171
0.0472076
0.0472017
0.0469921
0.0470095
0.0470411
0.0470837
0.0471336
0.0471851
0.0472329
0.0472799
0.0473449
0.0474583
0.0476458
0.047921
0.0482846
0.0487174
0.0491714
0.0495637
0.0497593
0.0496403
0.0492389
0.0487057
0.0481768
0.0477419
0.0474312
0.0472353
0.0471292
0.0470815
0.0470672
0.0470708
0.0470828
0.0470976
0.0471104
0.0471174
0.0469034
0.0469257
0.0469633
0.0470091
0.047058
0.0471059
0.0471487
0.0471843
0.0472181
0.0472709
0.0473757
0.0475579
0.0478189
0.0481645
0.0486113
0.0491435
0.0497098
0.0501567
0.0503346
0.0502393
0.0499457
0.0495515
0.0491383
0.0487574
0.0484369
0.0481854
0.0480045
0.0478904
0.0478331
0.0478158
0.0478191
0.0478253
0.0467087
0.0467386
0.0467911
0.0468555
0.0469219
0.0469832
0.0470344
0.0470717
0.0470932
0.0471021
0.047113
0.0471478
0.0472206
0.047351
0.0475483
0.0478682
0.048386
0.0491052
0.0498902
0.050588
0.0511092
0.0514309
0.0515747
0.0515797
0.0514862
0.0513325
0.0511482
0.0509565
0.0507789
0.0506355
0.0505411
0.0504984
0.0464461
0.0464716
0.0465217
0.0465913
0.0466721
0.0467544
0.046829
0.0468881
0.0469263
0.0469399
0.0469322
0.0469199
0.0469228
0.046948
0.0469474
0.0469571
0.047018
0.0472462
0.0477186
0.0484127
0.0492328
0.0500722
0.0508435
0.0514896
0.0519801
0.0523093
0.0524903
0.0525493
0.0525235
0.0524567
0.0523906
0.0523533
0.0463159
0.0463229
0.0463397
0.0463708
0.0464193
0.0464838
0.0465573
0.0466294
0.0466893
0.0467273
0.0467382
0.0467281
0.0467176
0.0467339
0.046754
0.0467783
0.0467978
0.0468489
0.0469972
0.0473223
0.0478548
0.0485684
0.0493961
0.0502488
0.0510357
0.051689
0.0521755
0.0524955
0.0526749
0.0527536
0.0527741
0.052773
0.0464635
0.0464533
0.0464309
0.0464002
0.0463722
0.0463599
0.0463706
0.0464029
0.0464476
0.0464917
0.0465223
0.046533
0.046533
0.0465517
0.0465922
0.0466482
0.046691
0.0467241
0.0468081
0.0470232
0.0474201
0.0480138
0.0487842
0.0496734
0.0505854
0.0514145
0.052079
0.0525437
0.0528221
0.0529579
0.0530053
0.0530124
0.0468708
0.0468563
0.0468187
0.0467517
0.0466583
0.046554
0.0464607
0.0463952
0.0463631
0.046359
0.0463695
0.04638
0.0463855
0.0464057
0.0464544
0.0465298
0.0465978
0.0466502
0.0467381
0.0469306
0.0472774
0.0478023
0.048506
0.0493617
0.0503024
0.0512261
0.0520238
0.0526205
0.0529989
0.0531931
0.0532643
0.0532761
0.0474144
0.0474042
0.0473717
0.0473011
0.0471808
0.0470145
0.0468262
0.0466478
0.0465038
0.0464053
0.0463485
0.0463192
0.0463043
0.0463114
0.0463542
0.0464338
0.0465174
0.0466041
0.0467395
0.0469776
0.0473522
0.0478786
0.0485588
0.0493799
0.0502995
0.0512372
0.0520875
0.052758
0.0532055
0.0534459
0.0535378
0.0535536
0.0479834
0.0479763
0.0479456
0.0478697
0.0477295
0.0475202
0.047261
0.0469904
0.0467467
0.0465545
0.0464197
0.0463339
0.0462824
0.0462652
0.0462931
0.046369
0.0464747
0.046622
0.0468408
0.0471605
0.0475942
0.0481456
0.0488149
0.0495983
0.0504733
0.0513827
0.0522354
0.0529363
0.0534254
0.0537
0.0538095
0.0538292
0.0485298
0.0485206
0.0484792
0.0483799
0.0482029
0.0479449
0.0476246
0.0472827
0.046964
0.0467016
0.0465073
0.0463752
0.0462917
0.0462541
0.0462729
0.0463614
0.0465261
0.0467746
0.0471045
0.0475188
0.0480139
0.0485868
0.0492381
0.0499708
0.0507788
0.0516279
0.0524457
0.0531424
0.0536487
0.0539456
0.0540693
0.0540927
0.0490551
0.04904
0.0489827
0.0488565
0.0486444
0.048346
0.0479802
0.0475822
0.047197
0.0468675
0.0466174
0.0464474
0.0463447
0.0463054
0.046344
0.0464922
0.0467692
0.0471486
0.0475913
0.0480836
0.0486162
0.0491865
0.0497985
0.0504612
0.0511808
0.0519429
0.0526964
0.0533617
0.0538657
0.0541751
0.0543107
0.0543383
0.0495807
0.0495595
0.0494932
0.0493604
0.0491477
0.0488532
0.0484868
0.0480664
0.0476265
0.0472162
0.0468862
0.0466692
0.0465578
0.0465424
0.0466399
0.0468946
0.0473088
0.0478067
0.0483272
0.048855
0.049385
0.0499197
0.0504676
0.0510419
0.0516564
0.0523118
0.0529772
0.053588
0.0540719
0.0543845
0.0545301
0.0545625
0.0501319
0.0501075
0.0500501
0.0499475
0.049787
0.0495576
0.0492524
0.0488675
0.0484171
0.0479437
0.0475192
0.0472423
0.0471268
0.0471474
0.0473177
0.0476773
0.0481924
0.04875
0.0492873
0.0497973
0.0502826
0.0507514
0.0512153
0.051689
0.0521893
0.0527261
0.0532858
0.0538216
0.0542679
0.0545732
0.0547259
0.0547639
0.0507418
0.0507188
0.0506912
0.0506542
0.0505873
0.0504662
0.0502689
0.0499761
0.0495828
0.0491143
0.0486355
0.0483072
0.0481837
0.0482257
0.0484381
0.0488436
0.049377
0.0499151
0.0504056
0.0508509
0.0512594
0.051642
0.0520111
0.0523803
0.0527657
0.0531809
0.0536247
0.0540685
0.0544592
0.054744
0.0548982
0.0549419
0.051455
0.0514381
0.0514547
0.0514954
0.0515272
0.0515173
0.0514379
0.0512643
0.0509806
0.0505952
0.0501499
0.0498132
0.049678
0.0497136
0.0499149
0.0502861
0.0507522
0.0512032
0.0516007
0.0519513
0.0522653
0.0525534
0.0528263
0.053095
0.0533722
0.053671
0.053997
0.0543371
0.0546548
0.0549031
0.0550496
0.0550972
0.052325
0.052325
0.052391
0.0524907
0.0525852
0.0526463
0.0526517
0.0525807
0.0524166
0.0521576
0.0518228
0.0515387
0.0514071
0.051421
0.0515699
0.051848
0.0521911
0.0525164
0.0527978
0.0530419
0.0532575
0.0534526
0.0536351
0.0538124
0.0539935
0.054188
0.0544028
0.0546351
0.0548652
0.055059
0.0551843
0.055231
0.0534105
0.0534433
0.0535364
0.053641
0.0537357
0.0538066
0.053841
0.053827
0.0537536
0.053617
0.0534225
0.0532402
0.0531443
0.0531422
0.053226
0.0533887
0.0535896
0.0537788
0.0539411
0.0540807
0.054203
0.0543128
0.0544147
0.0545128
0.0546119
0.0547177
0.0548349
0.0549648
0.0550996
0.0552218
0.0553089
0.0553462
0.0547615
0.0547838
0.0548284
0.0548727
0.0549118
0.054942
0.0549595
0.0549605
0.0549414
0.0549006
0.0548389
0.0547775
0.0547428
0.0547396
0.0547655
0.0548176
0.0548822
0.0549429
0.0549949
0.0550395
0.0550784
0.0551132
0.0551453
0.0551761
0.055207
0.0552397
0.0552758
0.0553162
0.0553591
0.0553999
0.0554315
0.0554469
)
;

boundaryField
{
    movingWall
    {
        type            fixedValue;
        value           uniform 0.0555;
    }
    fixedWalls
    {
        type            zeroGradient;
    }
    floor
    {
        type            zeroGradient;
    }
    frontAndBack
    {
        type            empty;
    }
}


// ************************************************************************* //
