/*--------------------------------*- C++ -*----------------------------------*\
| =========                 |                                                 |
| \\      /  F ield         | OpenFOAM: The Open Source CFD Toolbox           |
|  \\    /   O peration     | Version:  2212                                  |
|   \\  /    A nd           | Website:  www.openfoam.com                      |
|    \\/     M anipulation  |                                                 |
\*---------------------------------------------------------------------------*/
FoamFile
{
    version     2.0;
    format      ascii;
    arch        "LSB;label=64;scalar=64";
    class       volVectorField;
    location    "100";
    object      U;
}
// * * * * * * * * * * * * * * * * * * * * * * * * * * * * * * * * * * * * * //

dimensions      [0 1 -1 0 0 0 0];

internalField   nonuniform List<vector> 
1024
(
(3.10274e-06 -1.32152e-05 0)
(-0.000348924 7.79162e-05 0)
(-0.00110317 0.000121023 0)
(-0.00202292 0.000103696 0)
(-0.00291208 7.97134e-05 0)
(-0.0037295 6.64167e-05 0)
(-0.00447397 5.69526e-05 0)
(-0.00510481 4.34587e-05 0)
(-0.00554037 2.46148e-05 0)
(-0.0056811 1.88729e-06 0)
(-0.00545718 -1.80943e-05 0)
(-0.00474423 -3.74626e-05 0)
(-0.00348783 -5.36513e-05 0)
(-0.00159471 -7.10614e-05 0)
(0.000878328 -7.47332e-05 0)
(0.00469819 -9.7672e-05 0)
(0.00874106 -8.70877e-05 0)
(0.0115785 -4.03097e-05 0)
(0.0127096 2.23425e-05 0)
(0.0123973 7.35369e-05 0)
(0.0111931 0.000103909 0)
(0.00959343 0.000114754 0)
(0.00793236 0.000114921 0)
(0.0063687 0.000108852 0)
(0.00497702 9.70009e-05 0)
(0.00379683 7.96253e-05 0)
(0.00283605 6.01918e-05 0)
(0.00205086 4.90138e-05 0)
(0.00134916 5.63113e-05 0)
(0.000682586 6.59123e-05 0)
(0.000165815 2.82007e-05 0)
(-3.08369e-05 -3.80743e-05 0)
(-0.000142327 0.000381307 0)
(-0.00146931 0.00113099 0)
(-0.00368562 0.0014421 0)
(-0.00627602 0.00133902 0)
(-0.00881024 0.00111097 0)
(-0.0111389 0.000896141 0)
(-0.0131784 0.000692344 0)
(-0.0147976 0.000472562 0)
(-0.0158154 0.000235383 0)
(-0.0160399 -4.00476e-06 0)
(-0.0153396 -0.000230258 0)
(-0.0134523 -0.00043716 0)
(-0.0102591 -0.000613406 0)
(-0.0055845 -0.000769977 0)
(0.000567324 -0.000922603 0)
(0.010244 -0.00108956 0)
(0.0200098 -0.000950159 0)
(0.0271167 -0.000592387 0)
(0.0307545 -0.000118768 0)
(0.0311339 0.00032757 0)
(0.0293588 0.000661228 0)
(0.0263423 0.000877914 0)
(0.0227985 0.0010075 0)
(0.0191529 0.00107476 0)
(0.0156527 0.00108801 0)
(0.0124492 0.00105301 0)
(0.00961419 0.000995156 0)
(0.00711813 0.000973359 0)
(0.00484196 0.00102697 0)
(0.00272778 0.00104048 0)
(0.00101676 0.000749119 0)
(7.16132e-05 0.000180249 0)
(-0.000351916 0.00170708 0)
(-0.00288105 0.0038306 0)
(-0.00659706 0.00445335 0)
(-0.0107119 0.0040701 0)
(-0.0146483 0.00336419 0)
(-0.0181679 0.00264219 0)
(-0.0210978 0.00193838 0)
(-0.0232465 0.00123077 0)
(-0.0244071 0.000531479 0)
(-0.024387 -0.000131485 0)
(-0.0230031 -0.000745865 0)
(-0.0200795 -0.00127728 0)
(-0.0155061 -0.00171863 0)
(-0.00908801 -0.00211291 0)
(-0.000818061 -0.00257537 0)
(0.0123493 -0.00298901 0)
(0.0253618 -0.00260892 0)
(0.0353175 -0.00179017 0)
(0.0413479 -0.000694962 0)
(0.0433555 0.000414642 0)
(0.0423462 0.00131434 0)
(0.0394028 0.00198463 0)
(0.0353851 0.00247091 0)
(0.0308524 0.00281526 0)
(0.0261608 0.00303496 0)
(0.0215467 0.00314373 0)
(0.0171523 0.00319056 0)
(0.0130191 0.00328033 0)
(0.00910503 0.00347688 0)
(0.00540855 0.00354461 0)
(0.00226818 0.00287062 0)
(0.000248675 0.00114528 0)
(-0.000553332 0.004294 0)
(-0.00415308 0.00859763 0)
(-0.00910029 0.0094278 0)
(-0.014347 0.0084083 0)
(-0.0192083 0.00682698 0)
(-0.0233932 0.00520422 0)
(-0.0266822 0.0036408 0)
(-0.0288728 0.00214234 0)
(-0.0297875 0.000739696 0)
(-0.0292809 -0.000534297 0)
(-0.0272264 -0.00165528 0)
(-0.0236319 -0.00257891 0)
(-0.0183802 -0.00333213 0)
(-0.0112601 -0.00400928 0)
(-0.0023321 -0.00487659 0)
(0.0116336 -0.00560735 0)
(0.0257352 -0.00496325 0)
(0.0371174 -0.00363837 0)
(0.0448079 -0.00183761 0)
(0.0486039 0.000104879 0)
(0.0489565 0.00178556 0)
(0.0469594 0.0031282 0)
(0.0434833 0.00419636 0)
(0.0391025 0.00505347 0)
(0.0341906 0.00573032 0)
(0.0290051 0.00625193 0)
(0.0237213 0.00668672 0)
(0.0184414 0.00716628 0)
(0.0132113 0.00775585 0)
(0.00811022 0.00807608 0)
(0.00359097 0.00698899 0)
(0.000453462 0.00326443 0)
(-0.000637152 0.00809452 0)
(-0.00478692 0.01531 0)
(-0.0103909 0.0162153 0)
(-0.016203 0.0141606 0)
(-0.0214482 0.0112652 0)
(-0.0258004 0.00833479 0)
(-0.0290324 0.00556928 0)
(-0.0309744 0.00301852 0)
(-0.031522 0.000734176 0)
(-0.0306164 -0.00124446 0)
(-0.0283018 -0.0028818 0)
(-0.0246114 -0.0041944 0)
(-0.0193809 -0.00526267 0)
(-0.0123842 -0.00622738 0)
(-0.00374286 -0.00748343 0)
(0.00905762 -0.00856524 0)
(0.022891 -0.00777745 0)
(0.0346725 -0.00599299 0)
(0.0431796 -0.00350172 0)
(0.0481135 -0.000699576 0)
(0.0497625 0.00187681 0)
(0.048902 0.00403261 0)
(0.0463741 0.00585022 0)
(0.0427046 0.0074247 0)
(0.0382198 0.00880981 0)
(0.0331452 0.0100467 0)
(0.0276508 0.0112185 0)
(0.0218689 0.0124646 0)
(0.0159067 0.0138193 0)
(0.0099198 0.0147017 0)
(0.00447856 0.0132459 0)
(0.000589809 0.00668757 0)
(-0.00055419 0.0126189 0)
(-0.00460799 0.0233986 0)
(-0.0102396 0.0244153 0)
(-0.0160776 0.0210322 0)
(-0.0212742 0.0164377 0)
(-0.0254768 0.011845 0)
(-0.0284798 0.00760336 0)
(-0.0301792 0.00382386 0)
(-0.0305674 0.000577644 0)
(-0.0296866 -0.00209724 0)
(-0.0276488 -0.0042242 0)
(-0.0243746 -0.0059287 0)
(-0.0196662 -0.00732902 0)
(-0.013311 -0.00859044 0)
(-0.00540035 -0.0101603 0)
(0.00532913 -0.0116011 0)
(0.0182336 -0.0109182 0)
(0.0298695 -0.00876523 0)
(0.0386776 -0.00559709 0)
(0.0441089 -0.00192201 0)
(0.0465643 0.00157726 0)
(0.0465283 0.00461004 0)
(0.0448412 0.00727148 0)
(0.0419703 0.00970538 0)
(0.038162 0.0120037 0)
(0.0335761 0.0142291 0)
(0.0283487 0.0164743 0)
(0.0226132 0.0188679 0)
(0.0165142 0.0213689 0)
(0.0102766 0.0230893 0)
(0.00457754 0.021216 0)
(0.000570855 0.0110835 0)
(-0.000367617 0.0171657 0)
(-0.00384127 0.0320706 0)
(-0.0090251 0.0334896 0)
(-0.0145112 0.0286903 0)
(-0.0194083 0.0221523 0)
(-0.0233533 0.0156619 0)
(-0.0261822 0.0097881 0)
(-0.0278643 0.00471635 0)
(-0.0284606 0.000515669 0)
(-0.0280506 -0.00282497 0)
(-0.0266396 -0.00546219 0)
(-0.0240668 -0.00761072 0)
(-0.0201463 -0.00939211 0)
(-0.0147075 -0.0109779 0)
(-0.00776119 -0.0127957 0)
(0.000883425 -0.0145843 0)
(0.0124435 -0.0143191 0)
(0.0236533 -0.0119451 0)
(0.0325665 -0.00810252 0)
(0.0382805 -0.00348397 0)
(0.0411253 0.000989096 0)
(0.0414803 0.00493254 0)
(0.0402973 0.00846792 0)
(0.038045 0.0118258 0)
(0.0348973 0.015163 0)
(0.0309362 0.0185738 0)
(0.0262451 0.0221559 0)
(0.020937 0.0260055 0)
(0.0151746 0.0299413 0)
(0.00924591 0.0326129 0)
(0.00391702 0.0300484 0)
(0.000407604 0.0157296 0)
(-0.000179922 0.0211491 0)
(-0.00286983 0.0405675 0)
(-0.00735803 0.0429064 0)
(-0.0123097 0.0368468 0)
(-0.0168276 0.028314 0)
(-0.0205547 0.0198513 0)
(-0.0233739 0.0123237 0)
(-0.0253012 0.00598733 0)
(-0.0263935 0.000859178 0)
(-0.0266696 -0.0031841 0)
(-0.0260042 -0.00642036 0)
(-0.0242391 -0.00910086 0)
(-0.0212334 -0.0113273 0)
(-0.0168568 -0.0132742 0)
(-0.0110582 -0.0153277 0)
(-0.00405844 -0.0174518 0)
(0.00571953 -0.0178734 0)
(0.0162507 -0.0155478 0)
(0.025163 -0.0110819 0)
(0.0312361 -0.00539866 0)
(0.0343497 0.000213675 0)
(0.03489 0.00512846 0)
(0.0339583 0.00953111 0)
(0.0321393 0.0138062 0)
(0.0295711 0.0182169 0)
(0.0262642 0.0229074 0)
(0.0222451 0.0279812 0)
(0.0175952 0.0334752 0)
(0.0124859 0.0389748 0)
(0.00727003 0.042466 0)
(0.00278028 0.0386739 0)
(0.000183642 0.0197911 0)
(-5.64688e-05 0.0243158 0)
(-0.00200781 0.0483867 0)
(-0.00575561 0.0522827 0)
(-0.0101511 0.0453352 0)
(-0.0143271 0.034947 0)
(-0.0179404 0.0245887 0)
(-0.0209051 0.0154863 0)
(-0.0232386 0.00794066 0)
(-0.0249302 0.00186304 0)
(-0.0259001 -0.00300141 0)
(-0.0259857 -0.00695797 0)
(-0.025067 -0.0102613 0)
(-0.0230547 -0.0129949 0)
(-0.0198329 -0.0153521 0)
(-0.015284 -0.0177081 0)
(-0.00945377 -0.0201684 0)
(-0.00191691 -0.0213693 0)
(0.0076032 -0.0195419 0)
(0.0163231 -0.0146467 0)
(0.0228942 -0.00779569 0)
(0.0264588 -0.000806199 0)
(0.0273128 0.00521446 0)
(0.0265966 0.0104833 0)
(0.0251709 0.0156312 0)
(0.0231706 0.0210808 0)
(0.0205413 0.0270564 0)
(0.0172582 0.0336752 0)
(0.0133774 0.0408758 0)
(0.00909227 0.0478746 0)
(0.00484094 0.0517608 0)
(0.00149004 0.0459888 0)
(-1.79361e-05 0.0225834 0)
(-6.31823e-06 0.0267581 0)
(-0.00140295 0.055388 0)
(-0.00450073 0.0614707 0)
(-0.00842051 0.0541532 0)
(-0.0123541 0.042193 0)
(-0.0159664 0.0301125 0)
(-0.0191738 0.019547 0)
(-0.0219563 0.0108126 0)
(-0.0242246 0.00369731 0)
(-0.0258306 -0.002143 0)
(-0.0266581 -0.00692855 0)
(-0.0266142 -0.0109259 0)
(-0.025656 -0.0142235 0)
(-0.0236584 -0.0170582 0)
(-0.0204398 -0.0198304 0)
(-0.0158922 -0.0226925 0)
(-0.00986351 -0.0246097 0)
(-0.0023593 -0.0237106 0)
(0.00584497 -0.0188771 0)
(0.0128633 -0.0109496 0)
(0.0174086 -0.00225051 0)
(0.0189666 0.00506297 0)
(0.0185972 0.0111879 0)
(0.0176919 0.0171485 0)
(0.0163537 0.0235747 0)
(0.0144465 0.0308049 0)
(0.0119087 0.0389743 0)
(0.008806 0.0478401 0)
(0.00541234 0.0560459 0)
(0.00230147 0.0595655 0)
(0.000295652 0.0509652 0)
(-0.000147347 0.0236959 0)
(-2.57362e-06 0.028759 0)
(-0.00104162 0.0617438 0)
(-0.00363394 0.0705699 0)
(-0.00720453 0.0634792 0)
(-0.0110239 0.0503149 0)
(-0.0147481 0.0367142 0)
(-0.0182635 0.0247662 0)
(-0.021496 0.0148044 0)
(-0.0243041 0.00653286 0)
(-0.0265175 -0.000405963 0)
(-0.0280645 -0.00615209 0)
(-0.0289185 -0.0108926 0)
(-0.0290451 -0.0148085 0)
(-0.0283095 -0.0182026 0)
(-0.0264857 -0.0215178 0)
(-0.0233641 -0.0249341 0)
(-0.0187493 -0.0276014 0)
(-0.0127935 -0.027469 0)
(-0.00631352 -0.0236117 0)
(0.00073946 -0.0153418 0)
(0.00647341 -0.00455932 0)
(0.00995734 0.00453033 0)
(0.0101858 0.0113678 0)
(0.0100135 0.0180356 0)
(0.0094343 0.0253936 0)
(0.00823674 0.0338795 0)
(0.00634527 0.0436175 0)
(0.00393291 0.0540213 0)
(0.00152266 0.0628092 0)
(-0.000178308 0.064655 0)
(-0.000680868 0.0525303 0)
(-0.000221542 0.0231552 0)
(-8.55341e-06 0.0305588 0)
(-0.000797135 0.0677127 0)
(-0.00298799 0.0798319 0)
(-0.00631959 0.0736609 0)
(-0.0101578 0.0597237 0)
(-0.0141189 0.0447861 0)
(-0.0180262 0.0314622 0)
(-0.0217457 0.0201587 0)
(-0.0251095 0.0105728 0)
(-0.0279587 0.00241621 0)
(-0.0302029 -0.00441757 0)
(-0.0319514 -0.00994003 0)
(-0.0331399 -0.0145293 0)
(-0.0336563 -0.0185667 0)
(-0.0332694 -0.0225449 0)
(-0.031719 -0.0266737 0)
(-0.0287346 -0.0302205 0)
(-0.0242689 -0.0310004 0)
(-0.0188954 -0.0277515 0)
(-0.0129858 -0.0205613 0)
(-0.00721972 -0.0102839 0)
(-0.000255491 0.00223529 0)
(0.00124427 0.0106379 0)
(0.00200044 0.0178399 0)
(0.00201209 0.0262059 0)
(0.00125904 0.0362225 0)
(-0.000103049 0.0479276 0)
(-0.00156289 0.05924 0)
(-0.00245067 0.0666038 0)
(-0.0023871 0.065225 0)
(-0.00147257 0.0502136 0)
(-0.000280174 0.0207797 0)
(4.5739e-06 0.0320985 0)
(-0.000485016 0.0731947 0)
(-0.00220287 0.0893424 0)
(-0.00526526 0.0850965 0)
(-0.00919166 0.0709925 0)
(-0.01352 0.0549032 0)
(-0.0179596 0.0401316 0)
(-0.0223 0.027285 0)
(-0.026343 0.0161424 0)
(-0.0299254 0.00654104 0)
(-0.032937 -0.00151347 0)
(-0.0355075 -0.00787176 0)
(-0.0376531 -0.013182 0)
(-0.0393372 -0.0179219 0)
(-0.0403747 -0.0226401 0)
(-0.0405044 -0.0275869 0)
(-0.0393942 -0.0321471 0)
(-0.0367072 -0.0341154 0)
(-0.0326466 -0.0320237 0)
(-0.0275236 -0.0258356 0)
(-0.02177 -0.0163035 0)
(-0.0157571 -0.00475201 0)
(-0.0101789 0.00669285 0)
(-0.00867604 0.0161582 0)
(-0.0078926 0.0266459 0)
(-0.00779312 0.0383828 0)
(-0.00781266 0.0503886 0)
(-0.00740539 0.0602731 0)
(-0.00622213 0.0646634 0)
(-0.00429038 0.0598289 0)
(-0.00208012 0.0431965 0)
(-0.000311181 0.0164666 0)
(4.3549e-05 0.0327754 0)
(3.87182e-05 0.0769181 0)
(-0.000820405 0.098109 0)
(-0.00313894 0.0976689 0)
(-0.00687263 0.0846739 0)
(-0.0115505 0.0678651 0)
(-0.0166945 0.0516003 0)
(-0.0219605 0.0369651 0)
(-0.0270403 0.0239692 0)
(-0.0316706 0.01265 0)
(-0.035679 0.0031493 0)
(-0.0389564 -0.00455129 0)
(-0.0418747 -0.0106276 0)
(-0.0445323 -0.0160686 0)
(-0.0468679 -0.0215153 0)
(-0.0486704 -0.0272748 0)
(-0.0496015 -0.0328712 0)
(-0.0490628 -0.0361801 0)
(-0.0468809 -0.0356523 0)
(-0.0431761 -0.0311393 0)
(-0.03822 -0.0229524 0)
(-0.032501 -0.0117955 0)
(-0.0265586 0.00105251 0)
(-0.0226571 0.0132812 0)
(-0.0201135 0.0250957 0)
(-0.0178014 0.0368166 0)
(-0.0153442 0.0472163 0)
(-0.0124563 0.0540967 0)
(-0.00908537 0.0548448 0)
(-0.00550249 0.047271 0)
(-0.00232773 0.0312087 0)
(-0.00028127 0.0104999 0)
(0.000154933 0.0315739 0)
(0.000888343 0.0765273 0)
(0.00134306 0.102218 0)
(0.000755034 0.108367 0)
(-0.00150122 0.100066 0)
(-0.00549159 0.0843975 0)
(-0.0107699 0.0672575 0)
(-0.0169535 0.050699 0)
(-0.023605 0.035185 0)
(-0.030228 0.0211802 0)
(-0.0361477 0.0094071 0)
(-0.0408008 0.00018229 0)
(-0.044279 -0.00684615 0)
(-0.0475846 -0.0129339 0)
(-0.0508967 -0.0189763 0)
(-0.0541013 -0.0253818 0)
(-0.0569449 -0.0318426 0)
(-0.0586811 -0.0364042 0)
(-0.0588158 -0.0375558 0)
(-0.057248 -0.035129 0)
(-0.0539464 -0.0292081 0)
(-0.0490743 -0.0200786 0)
(-0.0429681 -0.00834072 0)
(-0.0359879 0.0049004 0)
(-0.0298106 0.0168884 0)
(-0.0242696 0.0267803 0)
(-0.0189826 0.0343605 0)
(-0.0139436 0.0379203 0)
(-0.00918723 0.0357987 0)
(-0.00496093 0.0274956 0)
(-0.0017929 0.0151296 0)
(-0.000163183 0.00368144 0)
(0.000282838 0.0266421 0)
(0.00189744 0.0682452 0)
(0.00394556 0.0964966 0)
(0.00561429 0.109225 0)
(0.00608135 0.108724 0)
(0.00485298 0.0995275 0)
(0.00191665 0.0861627 0)
(-0.00271298 0.0706181 0)
(-0.00886304 0.0542288 0)
(-0.016328 0.0378758 0)
(-0.0252165 0.0216398 0)
(-0.0344159 0.00746055 0)
(-0.0415209 -0.00251134 0)
(-0.0454485 -0.00890735 0)
(-0.049258 -0.0152897 0)
(-0.053186 -0.0219994 0)
(-0.0571846 -0.0290194 0)
(-0.0605248 -0.0346332 0)
(-0.0624838 -0.0375486 0)
(-0.0627894 -0.0378203 0)
(-0.0611737 -0.035654 0)
(-0.0575046 -0.0312762 0)
(-0.0518236 -0.0248794 0)
(-0.0443986 -0.0166165 0)
(-0.0357727 -0.00664125 0)
(-0.0269735 0.00353405 0)
(-0.0187971 0.011583 0)
(-0.0116948 0.0157472 0)
(-0.00606763 0.0147914 0)
(-0.00225994 0.00967595 0)
(-0.000382306 0.00389479 0)
(6.33527e-05 0.000413932 0)
(0.00033325 0.0181072 0)
(0.00254809 0.0513076 0)
(0.00591546 0.0788859 0)
(0.00962102 0.0963616 0)
(0.0127848 0.103127 0)
(0.0147617 0.101249 0)
(0.0152424 0.0937032 0)
(0.0141172 0.0828461 0)
(0.0113523 0.0702057 0)
(0.00696356 0.0569109 0)
(0.000927016 0.043416 0)
(-0.00755542 0.0280537 0)
(-0.0187741 0.0105612 0)
(-0.0317037 -0.00422547 0)
(-0.0373474 -0.0114819 0)
(-0.0415564 -0.0179692 0)
(-0.0456695 -0.02516 0)
(-0.0494795 -0.0314373 0)
(-0.0521874 -0.0357981 0)
(-0.0535558 -0.0385167 0)
(-0.053315 -0.0399611 0)
(-0.0513282 -0.0404458 0)
(-0.0475799 -0.0401629 0)
(-0.0421785 -0.0391372 0)
(-0.0353873 -0.0372171 0)
(-0.0276937 -0.0340941 0)
(-0.0198107 -0.0293883 0)
(-0.0125307 -0.0228124 0)
(-0.00658051 -0.0146084 0)
(-0.00252854 -0.0065236 0)
(-0.00051597 -0.00112021 0)
(2.36484e-05 0.000656652 0)
(0.000266514 0.00906222 0)
(0.0025164 0.0309255 0)
(0.00652246 0.0546019 0)
(0.0115476 0.0741625 0)
(0.016678 0.0863526 0)
(0.0211808 0.0909803 0)
(0.0245555 0.089452 0)
(0.0265208 0.0835404 0)
(0.0269286 0.074751 0)
(0.0257408 0.0643303 0)
(0.0230246 0.0531713 0)
(0.0186014 0.0414248 0)
(0.012127 0.028689 0)
(0.00511101 0.016914 0)
(-0.0112978 -0.00457318 0)
(-0.0199803 -0.0145619 0)
(-0.0242957 -0.0216672 0)
(-0.0286125 -0.0278113 0)
(-0.0318986 -0.032725 0)
(-0.0341888 -0.0366578 0)
(-0.0353273 -0.0399834 0)
(-0.0352572 -0.0430138 0)
(-0.0339931 -0.0459167 0)
(-0.0315893 -0.0486166 0)
(-0.0281513 -0.0507384 0)
(-0.0238647 -0.0515989 0)
(-0.0189947 -0.0502576 0)
(-0.0138759 -0.0456658 0)
(-0.0089191 -0.037129 0)
(-0.00463637 -0.0252176 0)
(-0.001612 -0.0125794 0)
(-0.000147102 -0.00285369 0)
(0.000139395 0.0023508 0)
(0.00182901 0.0131184 0)
(0.00555592 0.0302792 0)
(0.0109725 0.0489759 0)
(0.0172127 0.0642266 0)
(0.0234737 0.073833 0)
(0.02911 0.0777227 0)
(0.033648 0.076806 0)
(0.0367681 0.0722299 0)
(0.0382949 0.0650851 0)
(0.0382023 0.0562668 0)
(0.0364683 0.0462853 0)
(0.0329617 0.0351529 0)
(0.0280948 0.0239308 0)
(0.022299 0.0112936 0)
(0.01108 -0.00343148 0)
(0.000737576 -0.0167522 0)
(-0.00545178 -0.023926 0)
(-0.0100915 -0.0291778 0)
(-0.0136267 -0.0337006 0)
(-0.0162061 -0.0379552 0)
(-0.0179134 -0.0422437 0)
(-0.0188395 -0.0468073 0)
(-0.0190318 -0.0517126 0)
(-0.0184519 -0.056659 0)
(-0.0170428 -0.0609039 0)
(-0.0147821 -0.063287 0)
(-0.0117506 -0.0622326 0)
(-0.00820604 -0.0559584 0)
(-0.00465287 -0.04354 0)
(-0.00179209 -0.0263538 0)
(-0.000178704 -0.00832079 0)
(3.00142e-05 -0.000960763 0)
(0.000799241 0.00212831 0)
(0.00329996 0.0117439 0)
(0.00806685 0.0264777 0)
(0.0145456 0.0418361 0)
(0.0218348 0.0542277 0)
(0.0291173 0.0622256 0)
(0.0357026 0.0657648 0)
(0.0410586 0.0653734 0)
(0.044844 0.0617697 0)
(0.0469253 0.0556746 0)
(0.0473223 0.0476679 0)
(0.0460347 0.0380269 0)
(0.0432248 0.0273134 0)
(0.0391 0.0151631 0)
(0.0340079 0.00265289 0)
(0.025313 -0.00879294 0)
(0.0171875 -0.0174945 0)
(0.0105411 -0.0240031 0)
(0.00540072 -0.0291901 0)
(0.0012942 -0.0340121 0)
(-0.00199294 -0.0388877 0)
(-0.00456889 -0.0439483 0)
(-0.00663693 -0.0495595 0)
(-0.00819519 -0.0557356 0)
(-0.00911963 -0.0619907 0)
(-0.00920557 -0.0672484 0)
(-0.00831196 -0.0697743 0)
(-0.00645092 -0.0668011 0)
(-0.00400571 -0.0558468 0)
(-0.00168816 -0.0366734 0)
(-0.000200793 -0.0127834 0)
(-7.14568e-05 -0.00134699 0)
(-6.11798e-06 -0.0016047 0)
(0.0011037 0.00150428 0)
(0.00436503 0.00972813 0)
(0.0101491 0.0220019 0)
(0.0176608 0.0348358 0)
(0.0258493 0.0454816 0)
(0.0337848 0.052699 0)
(0.0407389 0.056168 0)
(0.0462457 0.0560507 0)
(0.0501087 0.0527795 0)
(0.0523452 0.046894 0)
(0.0530065 0.0388289 0)
(0.0521748 0.0290769 0)
(0.0498536 0.0178025 0)
(0.0462425 0.00610914 0)
(0.0402192 -0.00452737 0)
(0.0333741 -0.0127024 0)
(0.0267175 -0.0190764 0)
(0.0208196 -0.0243995 0)
(0.015719 -0.0292894 0)
(0.0112613 -0.0341881 0)
(0.00735575 -0.0393627 0)
(0.00395702 -0.0450183 0)
(0.000950302 -0.0514456 0)
(-0.00166189 -0.058606 0)
(-0.00358765 -0.0655932 0)
(-0.00458766 -0.0710962 0)
(-0.00437047 -0.0716455 0)
(-0.00310797 -0.0633196 0)
(-0.00144256 -0.0440435 0)
(-0.000189509 -0.0163626 0)
(-4.77636e-05 -0.000956192 0)
(8.04313e-05 -0.00253903 0)
(0.000835066 -0.00314326 0)
(0.00273849 -0.000978025 0)
(0.00670745 0.00626179 0)
(0.0130557 0.0174512 0)
(0.0208892 0.0293991 0)
(0.0291065 0.0394649 0)
(0.0367975 0.0462321 0)
(0.0434011 0.0491992 0)
(0.0486736 0.0484809 0)
(0.0525929 0.0445545 0)
(0.055181 0.037981 0)
(0.0564258 0.0293456 0)
(0.056159 0.0190834 0)
(0.0542824 0.00825226 0)
(0.0503161 -0.00135339 0)
(0.0446961 -0.00879632 0)
(0.0385021 -0.0147254 0)
(0.0324187 -0.0197915 0)
(0.0267086 -0.0245165 0)
(0.0214237 -0.0292746 0)
(0.0165784 -0.0343162 0)
(0.0121823 -0.0398319 0)
(0.0081996 -0.0459775 0)
(0.00457841 -0.0528752 0)
(0.0013891 -0.0605197 0)
(-0.00112745 -0.0681709 0)
(-0.00237903 -0.0719901 0)
(-0.00224164 -0.0668767 0)
(-0.00119062 -0.0487888 0)
(-0.000168276 -0.0189838 0)
(5.88218e-05 -0.00155496 0)
(0.000619483 -0.00463651 0)
(0.00162297 -0.00660278 0)
(0.00302225 -0.00621942 0)
(0.00507767 -0.00268739 0)
(0.0089814 0.00539396 0)
(0.0150039 0.0166425 0)
(0.0223498 0.0280276 0)
(0.0299728 0.0369643 0)
(0.0371827 0.0421734 0)
(0.0436362 0.0434188 0)
(0.0492045 0.0410799 0)
(0.053806 0.0357977 0)
(0.0572802 0.028271 0)
(0.0592609 0.0190835 0)
(0.0593343 0.00923282 0)
(0.0572053 0.00068444 0)
(0.0527083 -0.0058818 0)
(0.0471228 -0.011111 0)
(0.0411745 -0.0156245 0)
(0.0352233 -0.019887 0)
(0.0294303 -0.0242373 0)
(0.0238888 -0.0289254 0)
(0.0186671 -0.0341411 0)
(0.01381 -0.0400345 0)
(0.00934788 -0.046735 0)
(0.00532426 -0.0543574 0)
(0.00185107 -0.0626382 0)
(-0.000692331 -0.0692782 0)
(-0.00159526 -0.0676793 0)
(-0.0010591 -0.0517081 0)
(-0.000155317 -0.0209332 0)
(0.00011201 -0.00273005 0)
(0.000675185 -0.00706986 0)
(0.00131632 -0.00932814 0)
(0.00187638 -0.00890109 0)
(0.00246024 -0.00588128 0)
(0.00370212 -0.000275488 0)
(0.00743181 0.00883395 0)
(0.01354 0.0196091 0)
(0.0209258 0.0290958 0)
(0.0286318 0.0354301 0)
(0.0362143 0.037937 0)
(0.0434461 0.0367633 0)
(0.0501334 0.0325571 0)
(0.0559318 0.0261028 0)
(0.0602429 0.0180482 0)
(0.0623783 0.00932138 0)
(0.061715 0.00188113 0)
(0.0583865 -0.00373758 0)
(0.0535289 -0.00818553 0)
(0.0479221 -0.0120302 0)
(0.042 -0.0156883 0)
(0.0359851 -0.0194724 0)
(0.0300133 -0.0236275 0)
(0.0241908 -0.0283518 0)
(0.0186103 -0.0338127 0)
(0.0133576 -0.0401751 0)
(0.00851767 -0.0476436 0)
(0.00420874 -0.0562598 0)
(0.000721036 -0.064597 0)
(-0.00121289 -0.0666206 0)
(-0.00114756 -0.0535406 0)
(-0.00017804 -0.0226104 0)
(7.80895e-05 -0.00338898 0)
(5.21476e-05 -0.00780276 0)
(-0.000484451 -0.00943232 0)
(-0.00149539 -0.00842438 0)
(-0.0026093 -0.00555365 0)
(-0.00327899 -0.00137299 0)
(-0.00211432 0.0044543 0)
(0.00262996 0.0131181 0)
(0.0103749 0.0223414 0)
(0.0189059 0.0289479 0)
(0.0276647 0.0321955 0)
(0.0365262 0.0318419 0)
(0.0452833 0.0285329 0)
(0.0533895 0.0231234 0)
(0.0599863 0.0162496 0)
(0.0641413 0.00875754 0)
(0.064906 0.00243722 0)
(0.0626407 -0.00223268 0)
(0.058513 -0.00588952 0)
(0.0533597 -0.00903576 0)
(0.0476606 -0.0120376 0)
(0.0416624 -0.0151755 0)
(0.0355084 -0.0186835 0)
(0.0293092 -0.0227694 0)
(0.0231732 -0.027631 0)
(0.0172188 -0.0334818 0)
(0.011577 -0.0406044 0)
(0.00640275 -0.0492705 0)
(0.00198732 -0.0587746 0)
(-0.000984277 -0.0641887 0)
(-0.00150988 -0.054775 0)
(-0.000278288 -0.0244444 0)
(-7.58025e-05 -0.00285447 0)
(-0.00134407 -0.00585538 0)
(-0.0037142 -0.00636794 0)
(-0.0066203 -0.00517474 0)
(-0.00932715 -0.00311468 0)
(-0.0112478 -0.000511715 0)
(-0.0114702 0.00298882 0)
(-0.0085023 0.00815114 0)
(-0.00171433 0.015225 0)
(0.00873463 0.0225114 0)
(0.0189678 0.0263262 0)
(0.0293874 0.0265579 0)
(0.0401227 0.0240041 0)
(0.0504192 0.0196148 0)
(0.0591504 0.0139426 0)
(0.0651801 0.00773415 0)
(0.0672906 0.00253717 0)
(0.0660118 -0.00122731 0)
(0.0626303 -0.00413401 0)
(0.0580291 -0.00661212 0)
(0.052712 -0.00897016 0)
(0.0469301 -0.0114476 0)
(0.0408153 -0.0142555 0)
(0.0344598 -0.0176026 0)
(0.0279576 -0.0217148 0)
(0.0214295 -0.0268633 0)
(0.0150309 -0.0334175 0)
(0.00895519 -0.0418411 0)
(0.00351181 -0.0520498 0)
(-0.000640177 -0.0604667 0)
(-0.00208868 -0.0555369 0)
(-0.000505665 -0.0267937 0)
(-0.000413756 -0.000445252 0)
(-0.00349618 -0.00070719 0)
(-0.00787843 -0.00046856 0)
(-0.0124108 -5.0114e-05 0)
(-0.0162282 0.000400159 0)
(-0.0188305 0.00103105 0)
(-0.0195849 0.00232717 0)
(-0.0177193 0.00500043 0)
(-0.0122271 0.00945116 0)
(-0.00243307 0.0154023 0)
(0.0107132 0.0203467 0)
(0.0227231 0.0211246 0)
(0.0353053 0.0192257 0)
(0.0476072 0.0158286 0)
(0.0582618 0.0113452 0)
(0.0659899 0.00641362 0)
(0.0693667 0.00230959 0)
(0.069045 -0.000615403 0)
(0.0664431 -0.00283984 0)
(0.0624673 -0.00470904 0)
(0.0576361 -0.00646959 0)
(0.0522058 -0.00831478 0)
(0.0463005 -0.0104229 0)
(0.0399896 -0.0129879 0)
(0.0333339 -0.0162475 0)
(0.0264202 -0.0205204 0)
(0.0193855 -0.0262616 0)
(0.0124271 -0.0341029 0)
(0.00585786 -0.0444802 0)
(0.000321641 -0.0552884 0)
(-0.00260865 -0.0555673 0)
(-0.000876205 -0.029838 0)
(-0.000778597 0.00392387 0)
(-0.00513379 0.00692367 0)
(-0.01029 0.00687962 0)
(-0.0151788 0.00561455 0)
(-0.0192233 0.00412724 0)
(-0.0221855 0.00287888 0)
(-0.023678 0.00228606 0)
(-0.0229473 0.00293371 0)
(-0.0189453 0.00521813 0)
(-0.0108021 0.00916757 0)
(0.00275332 0.0139953 0)
(0.0173952 0.0156015 0)
(0.0315875 0.0143906 0)
(0.0456452 0.0119611 0)
(0.0579924 0.00862169 0)
(0.0672594 0.00491596 0)
(0.0718424 0.00184497 0)
(0.0724559 -0.000314949 0)
(0.0706064 -0.00192749 0)
(0.0672331 -0.00325062 0)
(0.0628892 -0.00447228 0)
(0.0578572 -0.00574065 0)
(0.0522702 -0.00719565 0)
(0.0461835 -0.00900075 0)
(0.0396162 -0.0113788 0)
(0.0325877 -0.0146614 0)
(0.0251543 -0.0193597 0)
(0.0174461 -0.0262406 0)
(0.00973431 -0.0361565 0)
(0.0026682 -0.0483728 0)
(-0.00248197 -0.0542461 0)
(-0.00129728 -0.0335394 0)
(-0.00100545 0.00868764 0)
(-0.0055823 0.0134907 0)
(-0.00967732 0.0124447 0)
(-0.0130387 0.00978109 0)
(-0.0156996 0.00704575 0)
(-0.0178172 0.00463665 0)
(-0.0192706 0.00280252 0)
(-0.0195022 0.00194629 0)
(-0.0174655 0.002459 0)
(-0.0119141 0.00447904 0)
(-0.000821197 0.00798039 0)
(0.0154241 0.010052 0)
(0.0306642 0.00966224 0)
(0.0460086 0.00815556 0)
(0.0596785 0.00588691 0)
(0.070181 0.0033294 0)
(0.0757209 0.00122157 0)
(0.0770405 -0.000236771 0)
(0.0757056 -0.00129418 0)
(0.0727531 -0.00213019 0)
(0.0687993 -0.00288081 0)
(0.064164 -0.0036519 0)
(0.0589936 -0.00454273 0)
(0.0533314 -0.00567471 0)
(0.0471523 -0.00722777 0)
(0.0403865 -0.0094977 0)
(0.0329505 -0.0129848 0)
(0.0248021 -0.0185146 0)
(0.0160668 -0.027244 0)
(0.00728198 -0.0396666 0)
(-0.000743123 -0.0504741 0)
(-0.00145554 -0.037378 0)
(-0.00142645 0.0142198 0)
(-0.00547338 0.0181543 0)
(-0.00636979 0.0150791 0)
(-0.00582553 0.0113214 0)
(-0.00481362 0.00807678 0)
(-0.00384476 0.0053722 0)
(-0.00311385 0.00321663 0)
(-0.00257794 0.00174233 0)
(-0.00166291 0.00116917 0)
(0.00107358 0.00164254 0)
(0.00832165 0.0034282 0)
(0.0215827 0.00500386 0)
(0.0363621 0.00529523 0)
(0.0517068 0.00458921 0)
(0.0655874 0.00328954 0)
(0.0762582 0.00178669 0)
(0.0818408 0.000565881 0)
(0.0831662 -0.000251906 0)
(0.0818844 -0.000816788 0)
(0.0791225 -0.00124079 0)
(0.075516 -0.00161089 0)
(0.0713786 -0.001992 0)
(0.0668386 -0.00244313 0)
(0.0619121 -0.00303902 0)
(0.0565281 -0.00389915 0)
(0.0505323 -0.00523932 0)
(0.0436839 -0.00746337 0)
(0.0356788 -0.0113189 0)
(0.0262817 -0.0180676 0)
(0.0155891 -0.0291578 0)
(0.00397615 -0.0427863 0)
(-0.000231728 -0.0390998 0)
(-0.000930104 0.0190186 0)
(-0.00212356 0.0190979 0)
(0.00442428 0.0131346 0)
(0.0111922 0.00923391 0)
(0.0169957 0.00639555 0)
(0.0217591 0.00419875 0)
(0.0254549 0.00256076 0)
(0.0280592 0.00143374 0)
(0.0298326 0.000798168 0)
(0.0315972 0.000616324 0)
(0.0350894 0.000997716 0)
(0.0428806 0.00162653 0)
(0.0539105 0.00194085 0)
(0.0662493 0.00173574 0)
(0.0775488 0.0012062 0)
(0.0859066 0.000578902 0)
(0.089814 8.87818e-05 0)
(0.0902282 -0.0002179 0)
(0.0887114 -0.000412619 0)
(0.0862265 -0.000547618 0)
(0.083265 -0.000663947 0)
(0.0800363 -0.00078997 0)
(0.0766002 -0.000950378 0)
(0.0729274 -0.00117834 0)
(0.0689127 -0.0015321 0)
(0.0643545 -0.00212806 0)
(0.0589094 -0.00320961 0)
(0.05203 -0.00528869 0)
(0.0429246 -0.0093864 0)
(0.0306497 -0.017203 0)
(0.0150572 -0.0295107 0)
(0.0062293 -0.0332651 0)
(0.0209539 0.0116011 0)
(0.0278002 0.00962999 0)
(0.0412723 0.00569557 0)
(0.0521104 0.00344163 0)
(0.0598379 0.00210036 0)
(0.0653845 0.0012273 0)
(0.0692415 0.000672758 0)
(0.071721 0.000344844 0)
(0.0732159 0.000173053 0)
(0.0742866 9.60484e-05 0)
(0.0757427 9.78055e-05 0)
(0.0787324 0.000141937 0)
(0.0833721 0.000175102 0)
(0.0887319 0.000144518 0)
(0.0934608 7.62923e-05 0)
(0.0965231 4.3873e-06 0)
(0.0974415 -4.08337e-05 0)
(0.0969185 -6.23422e-05 0)
(0.0957596 -7.20552e-05 0)
(0.0943638 -7.67534e-05 0)
(0.092896 -8.21935e-05 0)
(0.091396 -9.15098e-05 0)
(0.0898482 -0.000107406 0)
(0.0882042 -0.000134582 0)
(0.0863776 -0.000182774 0)
(0.084214 -0.000273877 0)
(0.081425 -0.000458921 0)
(0.0774573 -0.000858772 0)
(0.0712235 -0.00175905 0)
(0.0606112 -0.00390419 0)
(0.0432035 -0.00914799 0)
(0.0285926 -0.0144988 0)
)
;

boundaryField
{
    movingWall
    {
        type            fixedValue;
        value           uniform (0.1 0 0);
    }
    fixedWalls
    {
        type            noSlip;
    }
    floor
    {
        type            noSlip;
    }
    frontAndBack
    {
        type            empty;
    }
}


// ************************************************************************* //
