/*--------------------------------*- C++ -*----------------------------------*\
| =========                 |                                                 |
| \\      /  F ield         | OpenFOAM: The Open Source CFD Toolbox           |
|  \\    /   O peration     | Version:  2212                                  |
|   \\  /    A nd           | Website:  www.openfoam.com                      |
|    \\/     M anipulation  |                                                 |
\*---------------------------------------------------------------------------*/
FoamFile
{
    version     2.0;
    format      ascii;
    arch        "LSB;label=64;scalar=64";
    class       volScalarField;
    location    "100";
    object      Xch;
}
// * * * * * * * * * * * * * * * * * * * * * * * * * * * * * * * * * * * * * //

dimensions      [1 -3 0 0 0 0 0];

internalField   nonuniform List<scalar> 
1024
(
0.0203148
0.0203152
0.0203161
0.0203176
0.0203196
0.0203218
0.0203238
0.0203254
0.0203264
0.020327
0.0203276
0.0203283
0.0203293
0.0203306
0.020332
0.0203335
0.0203343
0.0203339
0.0203329
0.0203318
0.0203306
0.0203296
0.0203286
0.0203276
0.0203267
0.0203258
0.0203249
0.0203241
0.0203235
0.0203231
0.0203229
0.0203228
0.0203149
0.0203153
0.0203162
0.0203178
0.0203198
0.020322
0.020324
0.0203255
0.0203265
0.0203271
0.0203277
0.0203284
0.0203295
0.0203308
0.0203323
0.0203338
0.0203346
0.0203341
0.0203331
0.0203319
0.0203307
0.0203297
0.0203287
0.0203277
0.0203268
0.0203259
0.020325
0.0203242
0.0203236
0.0203231
0.0203229
0.0203228
0.0203151
0.0203156
0.0203166
0.0203182
0.0203203
0.0203225
0.0203244
0.0203258
0.0203266
0.0203272
0.0203278
0.0203287
0.0203298
0.0203312
0.0203329
0.0203344
0.0203352
0.0203345
0.0203334
0.0203321
0.0203309
0.0203298
0.0203288
0.0203279
0.020327
0.0203261
0.0203252
0.0203244
0.0203237
0.0203232
0.020323
0.0203228
0.0203155
0.020316
0.0203171
0.0203188
0.020321
0.0203231
0.0203248
0.020326
0.0203268
0.0203274
0.0203281
0.0203291
0.0203304
0.0203321
0.0203339
0.0203356
0.0203362
0.0203352
0.0203337
0.0203323
0.020331
0.0203299
0.0203289
0.020328
0.0203272
0.0203263
0.0203254
0.0203246
0.0203239
0.0203234
0.020323
0.0203229
0.020316
0.0203165
0.0203176
0.0203194
0.0203216
0.0203236
0.0203252
0.0203262
0.0203269
0.0203275
0.0203284
0.0203297
0.0203314
0.0203334
0.0203356
0.0203375
0.0203377
0.0203361
0.0203341
0.0203324
0.020331
0.0203299
0.0203289
0.0203281
0.0203273
0.0203265
0.0203256
0.0203248
0.020324
0.0203235
0.0203231
0.020323
0.0203165
0.0203169
0.0203181
0.0203199
0.020322
0.020324
0.0203254
0.0203263
0.0203269
0.0203277
0.0203288
0.0203305
0.0203326
0.0203352
0.0203379
0.0203399
0.0203396
0.020337
0.0203343
0.0203322
0.0203306
0.0203295
0.0203286
0.0203279
0.0203272
0.0203265
0.0203257
0.0203249
0.0203242
0.0203236
0.0203232
0.0203231
0.0203169
0.0203174
0.0203185
0.0203202
0.0203223
0.0203241
0.0203254
0.0203262
0.0203269
0.0203278
0.0203293
0.0203315
0.0203343
0.0203375
0.0203407
0.0203428
0.0203415
0.0203375
0.0203339
0.0203313
0.0203297
0.0203286
0.0203279
0.0203273
0.0203268
0.0203262
0.0203256
0.0203249
0.0203242
0.0203236
0.0203233
0.0203231
0.0203173
0.0203177
0.0203188
0.0203204
0.0203223
0.020324
0.0203252
0.020326
0.0203268
0.020328
0.0203299
0.0203327
0.0203364
0.0203404
0.0203441
0.0203458
0.0203431
0.0203374
0.0203327
0.0203297
0.020328
0.0203271
0.0203266
0.0203263
0.020326
0.0203257
0.0203252
0.0203246
0.0203241
0.0203236
0.0203233
0.0203231
0.0203175
0.0203179
0.0203189
0.0203204
0.0203222
0.0203238
0.0203249
0.0203258
0.0203267
0.0203282
0.0203307
0.0203343
0.0203388
0.0203437
0.0203478
0.0203488
0.0203443
0.0203366
0.0203305
0.0203271
0.0203256
0.020325
0.0203249
0.0203249
0.0203249
0.0203248
0.0203246
0.0203242
0.0203238
0.0203234
0.0203232
0.020323
0.0203176
0.020318
0.0203189
0.0203202
0.0203219
0.0203234
0.0203245
0.0203254
0.0203266
0.0203284
0.0203315
0.020336
0.0203415
0.0203472
0.0203515
0.0203517
0.0203452
0.0203355
0.0203281
0.0203241
0.0203226
0.0203224
0.0203226
0.0203231
0.0203235
0.0203238
0.0203238
0.0203236
0.0203234
0.0203231
0.0203229
0.0203228
0.0203176
0.0203179
0.0203187
0.02032
0.0203215
0.0203229
0.0203241
0.0203251
0.0203264
0.0203287
0.0203324
0.0203378
0.0203443
0.0203508
0.0203553
0.0203547
0.0203468
0.0203354
0.0203264
0.0203215
0.0203198
0.0203197
0.0203203
0.0203212
0.0203219
0.0203225
0.0203228
0.0203229
0.0203228
0.0203227
0.0203225
0.0203224
0.0203174
0.0203177
0.0203185
0.0203196
0.020321
0.0203223
0.0203235
0.0203246
0.0203261
0.0203288
0.0203332
0.0203393
0.0203468
0.0203541
0.0203591
0.0203586
0.0203503
0.0203379
0.0203273
0.0203208
0.0203181
0.0203177
0.0203184
0.0203194
0.0203204
0.0203213
0.0203219
0.0203221
0.0203222
0.0203221
0.020322
0.0203219
0.020317
0.0203173
0.020318
0.0203191
0.0203204
0.0203217
0.0203228
0.020324
0.0203257
0.0203286
0.0203335
0.0203402
0.0203484
0.0203567
0.0203629
0.0203637
0.0203568
0.0203445
0.0203324
0.0203236
0.0203188
0.0203172
0.0203173
0.0203182
0.0203193
0.0203202
0.0203208
0.0203211
0.0203212
0.0203212
0.0203211
0.020321
0.0203163
0.0203167
0.0203174
0.0203184
0.0203196
0.0203208
0.0203219
0.020323
0.0203247
0.0203277
0.0203326
0.0203395
0.0203481
0.0203574
0.0203654
0.0203695
0.0203665
0.0203567
0.0203441
0.0203326
0.0203244
0.0203198
0.0203181
0.0203181
0.0203189
0.0203197
0.0203202
0.0203205
0.0203204
0.0203202
0.02032
0.0203199
0.0203151
0.0203155
0.0203162
0.0203172
0.0203183
0.0203194
0.0203205
0.0203215
0.0203229
0.0203254
0.0203295
0.0203356
0.0203438
0.0203534
0.0203635
0.0203722
0.0203765
0.0203738
0.0203649
0.020353
0.0203413
0.0203317
0.0203249
0.0203205
0.0203182
0.0203172
0.0203169
0.0203169
0.0203172
0.0203175
0.0203178
0.020318
0.0203131
0.0203136
0.0203145
0.0203155
0.0203166
0.0203176
0.0203186
0.0203194
0.0203201
0.0203212
0.0203235
0.0203275
0.0203334
0.0203411
0.020351
0.0203628
0.0203753
0.0203852
0.0203891
0.0203869
0.0203804
0.0203717
0.0203626
0.0203541
0.0203471
0.0203415
0.0203375
0.020335
0.0203338
0.0203334
0.0203335
0.0203336
0.0203087
0.0203093
0.0203105
0.020312
0.0203135
0.0203149
0.0203161
0.0203169
0.0203173
0.0203175
0.0203177
0.0203184
0.02032
0.0203229
0.0203273
0.0203344
0.0203459
0.0203618
0.0203791
0.0203945
0.020406
0.020413
0.0204162
0.0204163
0.0204143
0.0204109
0.0204069
0.0204027
0.0203988
0.0203956
0.0203936
0.0203926
0.0203027
0.0203033
0.0203044
0.020306
0.0203078
0.0203097
0.0203114
0.0203127
0.0203136
0.0203139
0.0203137
0.0203134
0.0203134
0.0203139
0.0203139
0.0203142
0.0203156
0.0203206
0.020331
0.0203463
0.0203644
0.0203828
0.0203998
0.020414
0.0204248
0.020432
0.020436
0.0204374
0.0204369
0.0204355
0.020434
0.0204332
0.0202997
0.0202998
0.0203002
0.020301
0.0203021
0.0203035
0.0203052
0.0203069
0.0203082
0.0203091
0.0203093
0.0203091
0.0203088
0.0203091
0.0203096
0.0203102
0.0203107
0.0203118
0.0203151
0.0203223
0.020334
0.0203497
0.0203678
0.0203866
0.0204038
0.0204181
0.0204288
0.0204358
0.0204398
0.0204416
0.0204421
0.0204421
0.0203029
0.0203027
0.0203022
0.0203015
0.0203009
0.0203007
0.0203009
0.0203017
0.0203027
0.0203037
0.0203044
0.0203046
0.0203046
0.020305
0.0203059
0.0203072
0.0203082
0.020309
0.0203109
0.0203156
0.0203244
0.0203374
0.0203543
0.0203739
0.0203939
0.020412
0.0204266
0.0204367
0.0204429
0.0204459
0.0204469
0.0204471
0.020312
0.0203116
0.0203108
0.0203093
0.0203073
0.020305
0.0203029
0.0203015
0.0203008
0.0203007
0.0203009
0.0203012
0.0203013
0.0203017
0.0203028
0.0203045
0.0203061
0.0203073
0.0203093
0.0203135
0.0203212
0.0203327
0.0203482
0.0203669
0.0203876
0.0204078
0.0204252
0.0204383
0.0204466
0.0204508
0.0204524
0.0204527
0.020324
0.0203237
0.020323
0.0203214
0.0203188
0.0203151
0.020311
0.020307
0.0203038
0.0203017
0.0203004
0.0202998
0.0202994
0.0202996
0.0203005
0.0203024
0.0203043
0.0203063
0.0203093
0.0203145
0.0203227
0.0203343
0.0203493
0.0203673
0.0203874
0.020408
0.0204266
0.0204412
0.020451
0.0204562
0.0204583
0.0204586
0.0203365
0.0203363
0.0203356
0.020334
0.0203309
0.0203263
0.0203205
0.0203146
0.0203092
0.0203049
0.020302
0.0203001
0.0202989
0.0202985
0.0202992
0.0203009
0.0203033
0.0203066
0.0203114
0.0203185
0.020328
0.0203401
0.0203548
0.020372
0.0203912
0.0204111
0.0204297
0.020445
0.0204557
0.0204617
0.0204641
0.0204645
0.0203485
0.0203482
0.0203473
0.0203451
0.0203412
0.0203356
0.0203285
0.020321
0.020314
0.0203082
0.0203039
0.020301
0.0202991
0.0202983
0.0202987
0.0203007
0.0203044
0.0203099
0.0203172
0.0203263
0.0203372
0.0203497
0.020364
0.0203801
0.0203978
0.0204164
0.0204342
0.0204494
0.0204605
0.0204669
0.0204696
0.0204702
0.0203599
0.0203596
0.0203583
0.0203556
0.0203509
0.0203443
0.0203363
0.0203275
0.0203191
0.0203118
0.0203063
0.0203025
0.0203003
0.0202994
0.0203002
0.0203035
0.0203097
0.020318
0.0203278
0.0203386
0.0203503
0.0203628
0.0203762
0.0203908
0.0204065
0.0204232
0.0204397
0.0204541
0.0204651
0.0204718
0.0204748
0.0204754
0.0203714
0.020371
0.0203695
0.0203666
0.0203619
0.0203554
0.0203473
0.0203381
0.0203285
0.0203194
0.0203122
0.0203074
0.0203049
0.0203046
0.0203067
0.0203123
0.0203214
0.0203324
0.0203438
0.0203554
0.0203671
0.0203788
0.0203908
0.0204034
0.0204169
0.0204312
0.0204457
0.020459
0.0204695
0.0204763
0.0204795
0.0204802
0.0203834
0.0203829
0.0203816
0.0203794
0.0203758
0.0203708
0.020364
0.0203556
0.0203457
0.0203353
0.020326
0.0203199
0.0203174
0.0203178
0.0203215
0.0203294
0.0203408
0.020353
0.0203648
0.020376
0.0203866
0.0203969
0.0204071
0.0204175
0.0204284
0.0204402
0.0204524
0.020464
0.0204737
0.0204803
0.0204836
0.0204845
0.0203967
0.0203962
0.0203956
0.0203948
0.0203933
0.0203906
0.0203862
0.0203798
0.0203712
0.0203609
0.0203504
0.0203432
0.0203405
0.0203414
0.020346
0.0203549
0.0203666
0.0203784
0.0203892
0.020399
0.0204079
0.0204163
0.0204244
0.0204325
0.0204409
0.02045
0.0204597
0.0204693
0.0204778
0.020484
0.0204873
0.0204882
0.0204123
0.0204119
0.0204122
0.0204131
0.0204137
0.0204135
0.0204117
0.0204079
0.0204017
0.0203932
0.0203835
0.0203761
0.0203731
0.0203739
0.0203783
0.0203864
0.0203966
0.0204065
0.0204152
0.0204229
0.0204298
0.0204361
0.0204421
0.020448
0.0204541
0.0204606
0.0204677
0.0204751
0.020482
0.0204873
0.0204905
0.0204915
0.0204312
0.0204312
0.0204326
0.0204347
0.0204368
0.0204381
0.0204381
0.0204366
0.020433
0.0204273
0.02042
0.0204137
0.0204108
0.0204111
0.0204144
0.0204205
0.020428
0.0204351
0.0204413
0.0204467
0.0204514
0.0204557
0.0204597
0.0204635
0.0204675
0.0204718
0.0204764
0.0204815
0.0204865
0.0204907
0.0204934
0.0204944
0.0204547
0.0204554
0.0204574
0.0204597
0.0204618
0.0204633
0.020464
0.0204637
0.0204621
0.0204591
0.0204548
0.0204508
0.0204487
0.0204487
0.0204505
0.0204541
0.0204585
0.0204626
0.0204662
0.0204692
0.0204719
0.0204743
0.0204765
0.0204787
0.0204809
0.0204832
0.0204857
0.0204886
0.0204915
0.0204941
0.020496
0.0204968
0.020484
0.0204845
0.0204855
0.0204864
0.0204873
0.0204879
0.0204883
0.0204883
0.0204879
0.020487
0.0204856
0.0204843
0.0204835
0.0204835
0.020484
0.0204852
0.0204866
0.0204879
0.020489
0.02049
0.0204909
0.0204916
0.0204923
0.020493
0.0204937
0.0204944
0.0204952
0.0204961
0.020497
0.0204979
0.0204986
0.0204989
)
;

boundaryField
{
    movingWall
    {
        type            fixedValue;
        value           uniform 0.0205;
    }
    fixedWalls
    {
        type            zeroGradient;
    }
    floor
    {
        type            zeroGradient;
    }
    frontAndBack
    {
        type            empty;
    }
}


// ************************************************************************* //
