/*--------------------------------*- C++ -*----------------------------------*\
| =========                 |                                                 |
| \\      /  F ield         | OpenFOAM: The Open Source CFD Toolbox           |
|  \\    /   O peration     | Version:  2212                                  |
|   \\  /    A nd           | Website:  www.openfoam.com                      |
|    \\/     M anipulation  |                                                 |
\*---------------------------------------------------------------------------*/
FoamFile
{
    version     2.0;
    format      ascii;
    arch        "LSB;label=64;scalar=64";
    class       volScalarField::Internal;
    location    "1340";
    object      dGch4;
}
// * * * * * * * * * * * * * * * * * * * * * * * * * * * * * * * * * * * * * //

dimensions      [1 -3 -1 0 0 0 0];

value           nonuniform List<scalar> 
1024
(
0.000896981
0.000897243
0.000897885
0.00089905
0.000900896
0.000903559
0.000907117
0.000911532
0.000916623
0.000922066
0.000927421
0.000932163
0.000935729
0.000937743
0.000938098
0.000936715
0.000933499
0.000928678
0.000922736
0.000915943
0.000908634
0.000901198
0.00089406
0.000887611
0.000882126
0.000877727
0.000874396
0.000872014
0.000870416
0.000869425
0.000868885
0.000868665
0.000897039
0.000897306
0.00089796
0.000899148
0.000901029
0.000903742
0.000907358
0.000911833
0.00091698
0.000922473
0.000927869
0.000932637
0.000936204
0.000938198
0.000938531
0.000937133
0.000933907
0.000929079
0.000923128
0.000916325
0.000909
0.00090154
0.000894367
0.000887872
0.000882336
0.000877888
0.000874515
0.000872102
0.000870482
0.000869479
0.000868932
0.000868709
0.000897177
0.000897453
0.00089813
0.000899363
0.000901315
0.000904126
0.000907863
0.000912472
0.000917759
0.000923394
0.000928926
0.000933795
0.000937381
0.000939327
0.000939594
0.000938136
0.000934866
0.000929994
0.000923998
0.000917153
0.000909786
0.000902271
0.000895023
0.000888432
0.000882791
0.000878241
0.000874781
0.000872301
0.000870636
0.000869606
0.000869044
0.000868816
0.000897416
0.000897704
0.000898414
0.00089971
0.000901764
0.000904721
0.000908646
0.000913481
0.000919028
0.000924957
0.00093079
0.000935898
0.000939555
0.000941415
0.000941541
0.000939945
0.000936551
0.000931552
0.000925431
0.00091848
0.000911021
0.000903409
0.000896042
0.000889306
0.000883505
0.000878801
0.000875209
0.000872629
0.000870895
0.000869823
0.00086924
0.000869003
0.000897774
0.000898075
0.000898824
0.000900196
0.000902378
0.000905526
0.000909712
0.000914889
0.000920866
0.000927308
0.000933689
0.000939244
0.000943066
0.000944806
0.000944693
0.000942835
0.000939184
0.000933911
0.00092752
0.00092034
0.0009127
0.000904929
0.000897392
0.000890465
0.00088446
0.000879559
0.000875799
0.00087309
0.000871269
0.000870143
0.000869533
0.000869286
0.000898264
0.000898579
0.000899367
0.000900822
0.000903151
0.000906532
0.000911065
0.000916729
0.000923356
0.000930606
0.000937858
0.00094413
0.00094826
0.000949874
0.000949412
0.000947136
0.000943036
0.000937258
0.000930362
0.000922752
0.000914783
0.000906753
0.000898985
0.000891825
0.000885586
0.000880465
0.000876519
0.000873669
0.000871752
0.000870569
0.00086993
0.000869672
0.000898904
0.000899231
0.000900057
0.000901596
0.000904085
0.000907743
0.000912717
0.000919042
0.000926591
0.000935005
0.000943505
0.000950807
0.000955438
0.000956967
0.000956071
0.000953214
0.000948421
0.000941817
0.000934069
0.000925721
0.000917193
0.000908754
0.000900667
0.000893236
0.000886753
0.000881419
0.000877299
0.000874322
0.000872321
0.00087109
0.000870428
0.000870163
0.000899724
0.00090006
0.000900919
0.000902542
0.000905204
0.000909183
0.000914706
0.000921892
0.000930673
0.000940645
0.000950798
0.000959448
0.000964805
0.000966357
0.000965009
0.000961445
0.000955696
0.000947858
0.000938786
0.000929263
0.000919842
0.000910771
0.000902246
0.000894502
0.000887789
0.000882284
0.000878044
0.000874989
0.000872945
0.000871696
0.000871029
0.000870765
0.000900785
0.000901129
0.00090202
0.000903726
0.000906577
0.000910931
0.000917123
0.000925392
0.000935739
0.00094768
0.000959879
0.000970173
0.000976478
0.00097823
0.000976519
0.000972224
0.000965288
0.00095575
0.000944763
0.000933484
0.000922709
0.000912694
0.000903558
0.000895449
0.000888537
0.000882941
0.000878678
0.000875639
0.00087363
0.000872418
0.000871781
0.000871533
0.000902219
0.000902569
0.00090349
0.000905289
0.000908356
0.000913152
0.000920154
0.000929751
0.000942019
0.000956339
0.000970942
0.000983135
0.000990584
0.000992773
0.000990948
0.000986085
0.000977862
0.000966186
0.000952639
0.000938873
0.000926115
0.000914704
0.000904692
0.000896114
0.000889025
0.00088344
0.000879288
0.000876401
0.000874545
0.000873463
0.000872918
0.000872717
0.000904278
0.000904633
0.00090559
0.0009075
0.000910833
0.00091617
0.000924161
0.00093537
0.000949939
0.000967029
0.000984335
0.000998625
0.00100741
0.00101037
0.00100894
0.00100402
0.000994769
0.000980809
0.000964187
0.000947132
0.000931525
0.000918005
0.000906616
0.000897293
0.000889943
0.00088442
0.000880515
0.000877952
0.000876424
0.000875624
0.000875281
0.000875184
0.000907434
0.000907794
0.000908798
0.000910857
0.000914538
0.00092057
0.000929794
0.000942955
0.00096022
0.000980419
0.00100063
0.00101716
0.00102755
0.00103189
0.00103182
0.00102799
0.00101885
0.00100346
0.000983996
0.000963215
0.000943728
0.000926892
0.000913058
0.00090218
0.000894075
0.000888414
0.000884777
0.000882706
0.000881741
0.000881458
0.000881502
0.000881607
0.000912486
0.000912854
0.000913926
0.000916198
0.000920363
0.000927321
0.000938107
0.000953612
0.00097393
0.000997449
0.00102062
0.00103948
0.00105197
0.00105878
0.00106178
0.00106128
0.00105502
0.00104121
0.00102143
0.000998431
0.000975145
0.000953769
0.000935643
0.00092125
0.000910776
0.000903891
0.000899951
0.000898204
0.000897881
0.000898289
0.000898878
0.000899275
0.000920611
0.000920993
0.000922172
0.000924764
0.000929623
0.000937839
0.000950614
0.000968869
0.000992436
0.00101917
0.00104508
0.00106635
0.0010817
0.00109259
0.00110099
0.00110707
0.00110831
0.00110198
0.00108826
0.00106899
0.00104646
0.00102298
0.00100066
0.000981012
0.000965304
0.000954031
0.000947002
0.000943526
0.000942524
0.000942849
0.000943587
0.000944122
0.000933075
0.000933501
0.00093487
0.000937947
0.000943771
0.000953598
0.000968685
0.000989747
0.00101612
0.00104519
0.00107302
0.00109658
0.00111553
0.00113171
0.00114696
0.00116171
0.00117395
0.00118075
0.00118091
0.00117479
0.00116312
0.00114702
0.00112799
0.00110781
0.00108834
0.00107117
0.00105752
0.00104798
0.00104229
0.00103954
0.00103861
0.00103851
0.000949217
0.00094966
0.000951121
0.000954441
0.000960732
0.000971272
0.00098721
0.00100903
0.00103594
0.00106562
0.00109486
0.00112113
0.00114392
0.0011645
0.00118435
0.00120427
0.00122348
0.00124059
0.00125466
0.00126508
0.00127105
0.00127202
0.00126786
0.001259
0.00124646
0.00123185
0.00121707
0.00120391
0.00119368
0.00118687
0.00118317
0.00118178
0.000965175
0.00096557
0.000966896
0.00096994
0.000975749
0.000985518
0.00100031
0.00102062
0.0010459
0.00107436
0.00110334
0.00113032
0.00115402
0.00117452
0.00119247
0.00120857
0.0012234
0.00123881
0.00125593
0.00127416
0.00129192
0.00130753
0.00131963
0.00132735
0.00133039
0.00132908
0.00132436
0.00131771
0.00131084
0.00130518
0.00130149
0.00129985
0.000977542
0.000977868
0.000978962
0.000981488
0.000986349
0.000994611
0.00100728
0.00102493
0.00104733
0.00107317
0.00110024
0.00112605
0.00114861
0.00116695
0.00118079
0.0011904
0.00119717
0.00120571
0.00121932
0.00123803
0.00126006
0.00128292
0.00130428
0.00132237
0.00133618
0.00134539
0.00135035
0.00135188
0.00135115
0.00134945
0.00134785
0.00134697
0.000986188
0.000986454
0.000987331
0.00098935
0.000993254
0.000999956
0.00101038
0.00102517
0.00104433
0.00106699
0.00109139
0.00111521
0.00113622
0.00115282
0.00116414
0.00117015
0.00117255
0.00117683
0.00118731
0.001205
0.00122882
0.00125625
0.00128416
0.00130966
0.00133071
0.00134637
0.00135673
0.00136257
0.00136507
0.00136555
0.00136518
0.00136478
0.000992201
0.000992415
0.000993107
0.000994695
0.000997778
0.00100312
0.00101152
0.00102364
0.00103965
0.001059
0.00108035
0.00110175
0.00112105
0.00113649
0.00114693
0.00115221
0.00115405
0.00115757
0.00116674
0.00118307
0.00120643
0.00123517
0.00126652
0.00129721
0.00132423
0.00134565
0.00136084
0.00137025
0.0013751
0.00137691
0.00137714
0.00137692
0.000996686
0.000996829
0.000997325
0.000998512
0.00100088
0.00100507
0.00101176
0.00102156
0.00103471
0.0010509
0.00106915
0.00108794
0.00110548
0.00112014
0.00113085
0.00113745
0.00114149
0.00114696
0.00115687
0.00117278
0.00119511
0.00122315
0.00125503
0.00128791
0.00131855
0.00134428
0.00136362
0.00137643
0.00138363
0.00138677
0.00138756
0.00138748
0.00100106
0.00100108
0.00100127
0.00100195
0.00100357
0.00100667
0.00101188
0.0010197
0.00103038
0.00104378
0.00105922
0.00107563
0.00109167
0.00110609
0.00111801
0.00112742
0.00113538
0.00114431
0.00115619
0.00117247
0.00119389
0.00122041
0.00125099
0.00128358
0.0013154
0.0013436
0.001366
0.0013817
0.00139113
0.00139564
0.00139704
0.00139709
0.00100723
0.00100699
0.00100668
0.00100661
0.00100723
0.00100913
0.0010129
0.00101901
0.0010277
0.00103893
0.0010523
0.00106712
0.00108248
0.0010975
0.00111154
0.00112467
0.00113722
0.00114995
0.00116398
0.0011807
0.00120109
0.00122562
0.0012539
0.00128457
0.00131554
0.0013443
0.00136843
0.00138633
0.00139774
0.0014036
0.00140566
0.00140588
0.00101735
0.00101673
0.00101564
0.00101448
0.0010138
0.00101431
0.00101666
0.00102138
0.00102874
0.00103878
0.00105127
0.00106575
0.00108159
0.00109811
0.00111482
0.00113175
0.00114846
0.0011643
0.00117986
0.00119653
0.00121547
0.00123749
0.00126273
0.00129046
0.00131919
0.00134691
0.00137137
0.0013906
0.0014036
0.00141074
0.0014135
0.00141391
0.00103345
0.0010323
0.00103025
0.00102781
0.00102575
0.00102494
0.0010262
0.00103016
0.00103715
0.00104722
0.00106014
0.00107548
0.00109265
0.00111104
0.00113018
0.00115003
0.00116951
0.00118708
0.00120308
0.00121897
0.00123597
0.00125505
0.00127673
0.00130078
0.0013263
0.00135178
0.0013753
0.00139484
0.00140888
0.00141712
0.00142058
0.00142122
0.00105703
0.00105527
0.00105227
0.00104883
0.00104591
0.00104452
0.00104558
0.00104981
0.00105751
0.0010686
0.00108274
0.00109937
0.00111784
0.00113753
0.00115797
0.00117907
0.00119943
0.00121711
0.0012324
0.00124678
0.00126144
0.00127737
0.00129524
0.00131519
0.00133681
0.00135912
0.00138062
0.00139943
0.00141381
0.00142284
0.00142695
0.00142784
0.00108898
0.00108664
0.00108312
0.00107964
0.0010772
0.00107665
0.00107881
0.00108433
0.00109335
0.00110565
0.00112075
0.00113801
0.00115674
0.00117635
0.00119641
0.00121684
0.00123617
0.00125252
0.00126616
0.00127848
0.00129057
0.00130333
0.00131744
0.00133321
0.00135059
0.00136908
0.00138766
0.00140478
0.00141867
0.00142801
0.00143264
0.0014338
0.00112978
0.0011271
0.00112409
0.00112219
0.00112198
0.00112377
0.00112802
0.00113514
0.00114514
0.0011578
0.00117265
0.00118908
0.00120649
0.00122436
0.00124234
0.00126038
0.00127719
0.00129112
0.00130247
0.00131243
0.00132191
0.00133167
0.00134227
0.0013541
0.00136727
0.00138164
0.00139666
0.00141122
0.00142377
0.00143282
0.0014377
0.0014391
0.00118007
0.00117766
0.00117671
0.00117803
0.00118119
0.00118581
0.00119198
0.00119992
0.00120971
0.00122126
0.00123427
0.00124827
0.00126282
0.00127752
0.00129212
0.00130658
0.00131989
0.00133079
0.00133953
0.00134703
0.00135401
0.00136102
0.00136853
0.00137684
0.00138616
0.00139649
0.00140765
0.00141901
0.00142942
0.00143747
0.00144222
0.00144378
0.00124118
0.00124022
0.00124274
0.00124755
0.00125332
0.0012595
0.00126611
0.00127334
0.00128143
0.00129045
0.00130027
0.00131065
0.00132129
0.00133193
0.0013424
0.00135268
0.00136206
0.00136968
0.00137573
0.00138085
0.00138552
0.00139013
0.00139499
0.00140033
0.00140631
0.00141301
0.0014204
0.00142824
0.00143587
0.00144222
0.00144631
0.00144784
0.00131568
0.00131743
0.00132256
0.00132825
0.0013338
0.00133904
0.00134404
0.001349
0.00135419
0.00135976
0.00136569
0.00137188
0.00137818
0.00138445
0.00139058
0.00139656
0.00140199
0.00140639
0.00140986
0.00141277
0.00141539
0.00141794
0.0014206
0.00142349
0.00142672
0.00143034
0.00143438
0.00143879
0.00144328
0.0014473
0.00145014
0.00145136
0.00140672
0.00140812
0.00141079
0.00141331
0.00141559
0.00141763
0.00141948
0.00142124
0.001423
0.00142485
0.0014268
0.00142882
0.00143087
0.00143291
0.00143489
0.00143682
0.00143858
0.00143999
0.0014411
0.00144203
0.00144286
0.00144366
0.00144449
0.00144539
0.00144639
0.0014475
0.00144875
0.00145013
0.00145156
0.0014529
0.00145393
0.00145443
)
;


// ************************************************************************* //
