/*--------------------------------*- C++ -*----------------------------------*\
| =========                 |                                                 |
| \\      /  F ield         | OpenFOAM: The Open Source CFD Toolbox           |
|  \\    /   O peration     | Version:  2212                                  |
|   \\  /    A nd           | Website:  www.openfoam.com                      |
|    \\/     M anipulation  |                                                 |
\*---------------------------------------------------------------------------*/
FoamFile
{
    version     2.0;
    format      ascii;
    arch        "LSB;label=64;scalar=64";
    class       volScalarField;
    location    "1340";
    object      Gch4;
}
// * * * * * * * * * * * * * * * * * * * * * * * * * * * * * * * * * * * * * //

dimensions      [1 -3 0 0 0 0 0];

internalField   nonuniform List<scalar> 
1024
(
1.94137
1.94123
1.94089
1.94027
1.9393
1.93789
1.93601
1.93369
1.931
1.92813
1.92531
1.92282
1.92095
1.9199
1.91973
1.92048
1.9222
1.92476
1.92791
1.93151
1.93538
1.93932
1.94311
1.94654
1.94945
1.95179
1.95356
1.95482
1.95567
1.9562
1.95649
1.9566
1.94133
1.94119
1.94085
1.94022
1.93923
1.9378
1.93589
1.93353
1.93081
1.92792
1.92508
1.92257
1.9207
1.91966
1.9195
1.92026
1.92198
1.92455
1.9277
1.93131
1.93519
1.93914
1.94295
1.9464
1.94934
1.9517
1.95349
1.95478
1.95564
1.95617
1.95646
1.95658
1.94126
1.94112
1.94076
1.94011
1.93908
1.93759
1.93562
1.93319
1.9304
1.92743
1.92452
1.92196
1.92008
1.91907
1.91894
1.91973
1.92148
1.92407
1.92725
1.93087
1.93478
1.93876
1.9426
1.9461
1.9491
1.95152
1.95335
1.95467
1.95556
1.95611
1.9564
1.95653
1.94114
1.94098
1.94061
1.93992
1.93884
1.93728
1.93521
1.93266
1.92973
1.92661
1.92354
1.92086
1.91894
1.91798
1.91792
1.91879
1.9206
1.92325
1.9265
1.93018
1.93413
1.93816
1.94207
1.94564
1.94872
1.95122
1.95313
1.9545
1.95542
1.95599
1.9563
1.95643
1.94095
1.94079
1.94039
1.93967
1.93852
1.93686
1.93465
1.93192
1.92877
1.92537
1.92202
1.9191
1.9171
1.9162
1.91628
1.91728
1.91922
1.92202
1.9254
1.9292
1.93325
1.93736
1.94136
1.94503
1.94822
1.95082
1.95282
1.95426
1.95522
1.95582
1.95615
1.95628
1.94069
1.94052
1.9401
1.93934
1.93811
1.93632
1.93393
1.93095
1.92745
1.92364
1.91983
1.91654
1.91438
1.91354
1.91381
1.91503
1.91721
1.92028
1.92392
1.92794
1.93216
1.9364
1.94052
1.94431
1.94762
1.95034
1.95244
1.95395
1.95497
1.9556
1.95594
1.95608
1.94035
1.94018
1.93974
1.93893
1.93761
1.93568
1.93306
1.92973
1.92575
1.92132
1.91686
1.91303
1.91061
1.90983
1.91032
1.91186
1.91441
1.9179
1.922
1.9264
1.9309
1.93536
1.93964
1.94358
1.94701
1.94984
1.95203
1.95361
1.95467
1.95533
1.95568
1.95582
1.93991
1.93974
1.93928
1.93843
1.93702
1.93492
1.93201
1.92822
1.9236
1.91835
1.91302
1.90849
1.9057
1.90492
1.90566
1.90756
1.91062
1.91476
1.91955
1.92457
1.92953
1.93432
1.93882
1.94292
1.94647
1.94939
1.95164
1.95326
1.95435
1.95501
1.95536
1.9555
1.93935
1.93917
1.9387
1.9378
1.93629
1.934
1.93073
1.92637
1.92093
1.91465
1.90825
1.90287
1.89959
1.89871
1.89965
1.90195
1.90563
1.91067
1.91646
1.92239
1.92806
1.93333
1.93815
1.94244
1.94609
1.94905
1.95131
1.95292
1.95399
1.95463
1.95497
1.9551
1.93859
1.93841
1.93792
1.93697
1.93535
1.93282
1.92913
1.92407
1.91762
1.91009
1.90244
1.89607
1.8922
1.89111
1.89212
1.89473
1.8991
1.90526
1.91239
1.91962
1.92632
1.93232
1.93759
1.94211
1.94586
1.94881
1.95101
1.95253
1.95352
1.95409
1.95438
1.95449
1.9375
1.93732
1.93681
1.9358
1.93404
1.93123
1.92701
1.92111
1.91344
1.90447
1.8954
1.88795
1.8834
1.88192
1.88274
1.8854
1.89032
1.89768
1.90641
1.91536
1.92355
1.93064
1.93663
1.94153
1.9454
1.94832
1.95038
1.95174
1.95255
1.95297
1.95316
1.95321
1.93584
1.93565
1.93512
1.93403
1.93208
1.9289
1.92404
1.91711
1.90803
1.89743
1.88686
1.87825
1.87288
1.87069
1.87082
1.87292
1.87779
1.88591
1.89613
1.90703
1.91723
1.92606
1.93331
1.93902
1.94328
1.94626
1.94818
1.94927
1.94978
1.94994
1.94992
1.94987
1.93317
1.93298
1.93241
1.93121
1.92901
1.92534
1.91965
1.91149
1.90082
1.88849
1.87638
1.86656
1.86012
1.85665
1.85519
1.85557
1.85895
1.86625
1.87665
1.8887
1.90089
1.91207
1.92156
1.9291
1.93459
1.9382
1.94027
1.94119
1.94136
1.94115
1.94085
1.94064
1.9289
1.9287
1.92807
1.9267
1.92414
1.91981
1.91308
1.90347
1.8911
1.8771
1.86357
1.85251
1.84458
1.839
1.83472
1.83166
1.83114
1.83456
1.8418
1.85192
1.86371
1.87599
1.88765
1.89792
1.90613
1.91202
1.9157
1.91752
1.91805
1.91788
1.9175
1.91722
1.92235
1.92212
1.9214
1.91978
1.91671
1.91153
1.90359
1.89253
1.87869
1.86348
1.84895
1.83669
1.82688
1.81853
1.81067
1.8031
1.79686
1.79345
1.79349
1.79677
1.80293
1.81136
1.82131
1.83184
1.84199
1.85094
1.85806
1.86303
1.86599
1.86743
1.86791
1.86797
1.91387
1.91364
1.91287
1.91112
1.90781
1.90226
1.89388
1.88242
1.8683
1.85276
1.83748
1.8238
1.81196
1.80129
1.79104
1.78077
1.77092
1.76218
1.75503
1.74977
1.74679
1.74639
1.74862
1.75326
1.75979
1.76739
1.77507
1.7819
1.78721
1.79075
1.79266
1.79338
1.90547
1.90527
1.90457
1.90297
1.89991
1.89478
1.887
1.87633
1.86306
1.84814
1.83297
1.81888
1.80653
1.79587
1.78657
1.77827
1.77068
1.76285
1.75417
1.74493
1.73593
1.72802
1.72189
1.71799
1.71647
1.71718
1.71962
1.72305
1.72659
1.7295
1.7314
1.73225
1.89895
1.89878
1.89821
1.89688
1.89433
1.88998
1.88332
1.87404
1.86228
1.84871
1.83452
1.821
1.8092
1.79963
1.79242
1.78744
1.78399
1.77969
1.77283
1.76337
1.75223
1.74065
1.72984
1.72067
1.71367
1.70899
1.70646
1.70568
1.70604
1.70689
1.7077
1.70815
1.89437
1.89423
1.89377
1.89272
1.89067
1.88715
1.88166
1.87389
1.86381
1.8519
1.83909
1.82659
1.81557
1.80686
1.80092
1.79777
1.79654
1.79441
1.78914
1.7802
1.76813
1.75424
1.7401
1.72719
1.71653
1.70859
1.70334
1.70037
1.69909
1.69883
1.699
1.6992
1.89117
1.89106
1.8907
1.88987
1.88825
1.88545
1.88103
1.87466
1.86624
1.85606
1.84483
1.83358
1.82343
1.8153
1.8098
1.807
1.80604
1.80428
1.79965
1.79139
1.77955
1.76498
1.74909
1.73355
1.71986
1.70901
1.70133
1.69655
1.69408
1.69316
1.69303
1.69313
1.88877
1.8887
1.88844
1.88782
1.88658
1.88439
1.88087
1.87571
1.8688
1.86028
1.85067
1.84077
1.83154
1.82381
1.81816
1.81467
1.81256
1.80978
1.80476
1.79669
1.78536
1.77113
1.75497
1.7383
1.72278
1.70975
1.69996
1.69347
1.68982
1.68822
1.68781
1.68785
1.88645
1.88644
1.88634
1.88598
1.88514
1.88351
1.88078
1.87666
1.87104
1.86399
1.85585
1.84721
1.83876
1.83117
1.82489
1.81995
1.81582
1.81125
1.8052
1.79693
1.78604
1.77257
1.75706
1.74053
1.72441
1.71013
1.6988
1.69085
1.68607
1.68379
1.68307
1.68303
1.88322
1.88334
1.8835
1.88354
1.88321
1.8822
1.88022
1.87701
1.87243
1.86653
1.85949
1.8517
1.84362
1.83574
1.82838
1.82154
1.81504
1.80851
1.80134
1.79283
1.78245
1.76998
1.75562
1.74007
1.72437
1.70981
1.6976
1.68854
1.68276
1.67979
1.67874
1.67863
1.87799
1.87831
1.87886
1.87946
1.8798
1.87952
1.87827
1.87579
1.87192
1.86665
1.8601
1.85251
1.84422
1.83559
1.82688
1.81809
1.80947
1.80133
1.79337
1.78486
1.77521
1.76401
1.75119
1.73712
1.72255
1.70851
1.69613
1.6864
1.67983
1.67621
1.67482
1.6746
1.8697
1.87029
1.87134
1.87259
1.87364
1.87404
1.87337
1.87128
1.86762
1.86237
1.85562
1.84763
1.83869
1.82912
1.81919
1.80892
1.79887
1.78985
1.78165
1.77353
1.76487
1.75515
1.74413
1.73192
1.71898
1.70607
1.69417
1.68428
1.67718
1.67302
1.67126
1.67094
1.8576
1.8585
1.86004
1.8618
1.86329
1.864
1.86343
1.86122
1.85722
1.85146
1.84412
1.83549
1.82591
1.81571
1.80513
1.79423
1.78375
1.77466
1.76682
1.75947
1.75199
1.74387
1.73478
1.72465
1.71369
1.70238
1.6915
1.68198
1.67471
1.67015
1.66807
1.66761
1.84123
1.84243
1.84423
1.84601
1.84726
1.84753
1.84641
1.84356
1.83889
1.83253
1.82473
1.8158
1.80612
1.79598
1.78561
1.77508
1.76512
1.75672
1.74973
1.74342
1.73725
1.73074
1.72356
1.71555
1.70673
1.69736
1.68795
1.67929
1.67227
1.66755
1.66522
1.66463
1.82033
1.8217
1.82325
1.82422
1.82433
1.82341
1.82123
1.81756
1.81241
1.80588
1.79822
1.78974
1.78076
1.77154
1.76226
1.75296
1.74431
1.73715
1.73132
1.72623
1.72138
1.7164
1.71101
1.705
1.69831
1.69102
1.68342
1.67605
1.66971
1.66514
1.66268
1.66197
1.79459
1.79583
1.79631
1.79564
1.79403
1.79166
1.7885
1.78443
1.77939
1.77345
1.76675
1.75953
1.75204
1.74446
1.73693
1.72948
1.72263
1.71703
1.71254
1.7087
1.70513
1.70155
1.69773
1.6935
1.68877
1.68353
1.67788
1.67213
1.66687
1.66281
1.66041
1.65962
1.76333
1.76383
1.76254
1.76008
1.75713
1.75397
1.75058
1.74688
1.74273
1.73809
1.73304
1.72769
1.72221
1.71673
1.71133
1.70604
1.70121
1.69729
1.69419
1.69157
1.68918
1.68682
1.68434
1.68163
1.67859
1.6752
1.67145
1.66748
1.66363
1.66042
1.65836
1.65759
1.72524
1.72434
1.72172
1.71881
1.71598
1.7133
1.71074
1.7082
1.70553
1.70268
1.69963
1.69644
1.6932
1.68997
1.68681
1.68373
1.68093
1.67867
1.67689
1.6754
1.67406
1.67275
1.6714
1.66993
1.66829
1.66645
1.6644
1.66217
1.6599
1.65787
1.65644
1.65583
1.6787
1.67798
1.67662
1.67533
1.67417
1.67312
1.67217
1.67128
1.67037
1.66942
1.66842
1.66738
1.66632
1.66527
1.66425
1.66326
1.66236
1.66163
1.66106
1.66058
1.66016
1.65975
1.65932
1.65887
1.65836
1.65779
1.65716
1.65647
1.65574
1.65506
1.65455
1.6543
)
;

boundaryField
{
    movingWall
    {
        type            fixedValue;
        value           uniform 1.6535;
    }
    fixedWalls
    {
        type            zeroGradient;
    }
    floor
    {
        type            zeroGradient;
    }
    frontAndBack
    {
        type            empty;
    }
}


// ************************************************************************* //
