/*--------------------------------*- C++ -*----------------------------------*\
| =========                 |                                                 |
| \\      /  F ield         | OpenFOAM: The Open Source CFD Toolbox           |
|  \\    /   O peration     | Version:  2212                                  |
|   \\  /    A nd           | Website:  www.openfoam.com                      |
|    \\/     M anipulation  |                                                 |
\*---------------------------------------------------------------------------*/
FoamFile
{
    version     2.0;
    format      ascii;
    arch        "LSB;label=64;scalar=64";
    class       surfaceScalarField;
    location    "1340";
    object      phi;
}
// * * * * * * * * * * * * * * * * * * * * * * * * * * * * * * * * * * * * * //

dimensions      [0 3 -1 0 0 0 0];

oriented        oriented;

internalField   nonuniform List<scalar> 
1984
(
-4.28281e-10
4.28578e-10
-7.73212e-09
7.30387e-09
-2.39399e-08
1.62079e-08
-4.681e-08
2.287e-08
-7.27656e-08
2.59556e-08
-9.83277e-08
2.55621e-08
-1.19929e-07
2.16013e-08
-1.32777e-07
1.28486e-08
-1.29684e-07
-3.09309e-09
-1.00977e-07
-2.87068e-08
-4.23367e-08
-5.86407e-08
3.57256e-08
-7.80622e-08
1.01836e-07
-6.61107e-08
1.44669e-07
-4.28329e-08
1.70612e-07
-2.59431e-08
1.88422e-07
-1.781e-08
1.97808e-07
-9.38564e-09
1.93425e-07
4.38281e-09
1.76001e-07
1.74245e-08
1.52023e-07
2.39774e-08
1.27304e-07
2.47193e-08
1.04686e-07
2.26181e-08
8.49773e-08
1.97086e-08
6.80035e-08
1.69737e-08
5.30404e-08
1.49631e-08
3.92795e-08
1.37608e-08
2.64027e-08
1.28767e-08
1.49457e-08
1.14572e-08
6.08785e-09
8.85787e-09
9.01542e-10
5.18638e-09
-6.02563e-10
1.5041e-09
-6.02471e-10
-7.93581e-09
8.36441e-09
-3.65316e-08
3.58998e-08
-8.76546e-08
6.73308e-08
-1.56475e-07
9.16901e-08
-2.33735e-07
1.03216e-07
-3.08646e-07
1.00473e-07
-3.69397e-07
8.2352e-08
-4.0151e-07
4.49616e-08
-3.85774e-07
-1.88292e-08
-2.9882e-07
-1.1566e-07
-1.29398e-07
-2.28063e-07
9.77615e-08
-3.05222e-07
2.99451e-07
-2.678e-07
4.37458e-07
-1.8084e-07
5.28822e-07
-1.17307e-07
5.93586e-07
-8.25734e-08
6.2894e-07
-4.474e-08
6.22036e-07
1.12863e-08
5.75769e-07
6.36923e-08
5.06924e-07
9.28218e-08
4.32102e-07
9.95412e-08
3.60642e-07
9.40787e-08
2.96075e-07
8.42752e-08
2.38725e-07
7.43241e-08
1.872e-07
6.64883e-08
1.3988e-07
6.10806e-08
9.64276e-08
5.63293e-08
5.85207e-08
4.93641e-08
2.90519e-08
3.83266e-08
1.01797e-08
2.40586e-08
1.59999e-09
1.00839e-08
9.97581e-10
-1.97839e-08
2.81484e-08
-7.7177e-08
9.32929e-08
-1.70089e-07
1.60243e-07
-2.89538e-07
2.11139e-07
-4.20453e-07
2.34131e-07
-5.44296e-07
2.24316e-07
-6.40184e-07
1.7824e-07
-6.83858e-07
8.86351e-08
-6.45782e-07
-5.69048e-08
-4.94601e-07
-2.66842e-07
-2.16907e-07
-5.05757e-07
1.53671e-07
-6.75799e-07
4.94947e-07
-6.09077e-07
7.4239e-07
-4.28283e-07
9.19512e-07
-2.94429e-07
1.05133e-06
-2.14396e-07
1.12827e-06
-1.21677e-07
1.1304e-06
9.15979e-09
1.06331e-06
1.3078e-07
9.52803e-07
2.03329e-07
8.25794e-07
2.2655e-07
6.99091e-07
2.20781e-07
5.80369e-07
2.02998e-07
4.71741e-07
1.82952e-07
3.7234e-07
1.6589e-07
2.80743e-07
1.52677e-07
1.97191e-07
1.39881e-07
1.24529e-07
1.22027e-07
6.69805e-08
9.58748e-08
2.75823e-08
6.34568e-08
6.25673e-09
3.14095e-08
7.25431e-09
-3.25416e-08
6.06899e-08
-1.21716e-07
1.82467e-07
-2.59586e-07
2.98113e-07
-4.30818e-07
3.82371e-07
-6.13455e-07
4.16769e-07
-7.81017e-07
3.91878e-07
-9.03769e-07
3.00992e-07
-9.48585e-07
1.33452e-07
-8.78633e-07
-1.26858e-07
-6.61399e-07
-4.84075e-07
-2.89147e-07
-8.78009e-07
1.96919e-07
-1.16186e-06
6.59811e-07
-1.07197e-06
1.01921e-06
-7.87681e-07
1.29741e-06
-5.72625e-07
1.51813e-06
-4.35117e-07
1.6592e-06
-2.62752e-07
1.68998e-06
-2.16177e-08
1.61757e-06
2.03184e-07
1.47614e-06
3.44765e-07
1.30185e-06
4.00836e-07
1.11911e-06
4.0352e-07
9.40748e-07
3.81364e-07
7.72091e-07
3.51609e-07
6.14349e-07
3.23632e-07
4.67625e-07
2.99401e-07
3.33452e-07
2.74054e-07
2.15983e-07
2.39496e-07
1.20874e-07
1.90984e-07
5.27173e-08
1.31613e-07
1.30052e-08
7.11218e-08
2.02595e-08
-4.30827e-08
1.03773e-07
-1.5983e-07
2.99214e-07
-3.37702e-07
4.75985e-07
-5.54914e-07
5.99582e-07
-7.82047e-07
6.43901e-07
-9.84467e-07
5.94298e-07
-1.12406e-06
4.40582e-07
-1.16027e-06
1.69668e-07
-1.05314e-06
-2.33992e-07
-7.75855e-07
-7.6136e-07
-3.34495e-07
-1.31937e-06
2.18564e-07
-1.71492e-06
7.6214e-07
-1.61554e-06
1.2182e-06
-1.24374e-06
1.60028e-06
-9.54704e-07
1.92671e-06
-7.61549e-07
2.15781e-06
-4.93849e-07
2.24497e-06
-1.08773e-07
2.19138e-06
2.56766e-07
2.03798e-06
4.9817e-07
1.82974e-06
6.09078e-07
1.59824e-06
6.35021e-07
1.36173e-06
6.17876e-07
1.12978e-06
5.83557e-07
9.07136e-07
5.46273e-07
6.96813e-07
5.09724e-07
5.02674e-07
4.68193e-07
3.30829e-07
4.11342e-07
1.89061e-07
3.32752e-07
8.4561e-08
2.36113e-07
2.15048e-08
1.34178e-07
4.17643e-08
-4.81461e-08
1.51919e-07
-1.80473e-07
4.31541e-07
-3.83949e-07
6.79462e-07
-6.33263e-07
8.48896e-07
-8.92681e-07
9.03319e-07
-1.11959e-06
8.21207e-07
-1.26786e-06
5.88848e-07
-1.29109e-06
1.92907e-07
-1.15028e-06
-3.74803e-07
-8.29397e-07
-1.08225e-06
-3.54804e-07
-1.79396e-06
2.05983e-07
-2.27571e-06
7.73257e-07
-2.18282e-06
1.28978e-06
-1.76027e-06
1.75825e-06
-1.42317e-06
2.19223e-06
-1.19553e-06
2.53392e-06
-8.35546e-07
2.71012e-06
-2.84971e-07
2.70788e-06
2.59009e-07
2.5687e-06
6.37346e-07
2.34784e-06
8.2994e-07
2.08374e-06
8.99118e-07
1.79965e-06
9.01962e-07
1.50966e-06
8.73549e-07
1.22295e-06
8.32985e-07
9.46619e-07
7.86055e-07
6.88161e-07
7.26651e-07
4.56895e-07
6.42608e-07
2.63782e-07
5.25864e-07
1.19339e-07
3.80556e-07
3.07569e-08
2.2276e-07
7.25211e-08
-4.56939e-08
1.97612e-07
-1.76219e-07
5.62066e-07
-3.83685e-07
8.86928e-07
-6.44722e-07
1.10993e-06
-9.20749e-07
1.17935e-06
-1.16251e-06
1.06297e-06
-1.31631e-06
7.4265e-07
-1.33099e-06
2.07582e-07
-1.17067e-06
-5.35126e-07
-8.32902e-07
-1.42001e-06
-3.68911e-07
-2.25795e-06
1.39542e-07
-2.78416e-06
6.67163e-07
-2.71044e-06
1.1894e-06
-2.28251e-06
1.70312e-06
-1.93689e-06
2.22282e-06
-1.71523e-06
2.68043e-06
-1.29316e-06
2.97681e-06
-5.8135e-07
3.06349e-06
1.7233e-07
2.9689e-06
7.31934e-07
2.76276e-06
1.03608e-06
2.49018e-06
1.17171e-06
2.1784e-06
1.21374e-06
1.84562e-06
1.20633e-06
1.50563e-06
1.17297e-06
1.17057e-06
1.12111e-06
8.52993e-07
1.04423e-06
5.66992e-07
9.28609e-07
3.27616e-07
7.65241e-07
1.48406e-07
5.59765e-07
3.83419e-08
3.32825e-07
1.10863e-07
-3.6245e-08
2.33858e-07
-1.47267e-07
6.73088e-07
-3.34952e-07
1.07461e-06
-5.84304e-07
1.35928e-06
-8.59662e-07
1.4547e-06
-1.10846e-06
1.31177e-06
-1.27043e-06
9.04626e-07
-1.28955e-06
2.26705e-07
-1.13277e-06
-6.91914e-07
-8.13579e-07
-1.7392e-06
-4.10214e-07
-2.66132e-06
-1.38074e-08
-3.18057e-06
4.10754e-07
-3.135e-06
8.71164e-07
-2.74292e-06
1.36748e-06
-2.43321e-06
1.92367e-06
-2.27141e-06
2.47853e-06
-1.84802e-06
2.91536e-06
-1.01818e-06
3.13057e-06
-4.28786e-08
3.11335e-06
7.49152e-07
2.95409e-06
1.19534e-06
2.70407e-06
1.42173e-06
2.39327e-06
1.52453e-06
2.04314e-06
1.55646e-06
1.67198e-06
1.54414e-06
1.2979e-06
1.49519e-06
9.40161e-07
1.40197e-06
6.19049e-07
1.24972e-06
3.53642e-07
1.03065e-06
1.58351e-07
7.55056e-07
4.04553e-08
4.5072e-07
1.51318e-07
-2.2826e-08
2.56684e-07
-1.01996e-07
7.52258e-07
-2.50353e-07
1.22297e-06
-4.66205e-07
1.57514e-06
-7.2378e-07
1.71228e-06
-9.72886e-07
1.56087e-06
-1.14915e-06
1.08089e-06
-1.19099e-06
2.68546e-07
-1.06713e-06
-8.15776e-07
-8.11742e-07
-1.99459e-06
-5.26249e-07
-2.94681e-06
-2.92371e-07
-3.41445e-06
-4.8976e-08
-3.3784e-06
2.73294e-07
-3.06519e-06
6.71672e-07
-2.83158e-06
1.18715e-06
-2.78689e-06
1.78855e-06
-2.44942e-06
2.3535e-06
-1.58314e-06
2.73681e-06
-4.26184e-07
2.85029e-06
6.35671e-07
2.77987e-06
1.26575e-06
2.59253e-06
1.60907e-06
2.3212e-06
1.79586e-06
1.99003e-06
1.88763e-06
1.62242e-06
1.91175e-06
1.24402e-06
1.8736e-06
8.82652e-07
1.76333e-06
5.65267e-07
1.56711e-06
3.12679e-07
1.28324e-06
1.35351e-07
9.32384e-07
3.33543e-08
5.52717e-07
1.84672e-07
-9.71991e-09
2.66403e-07
-5.41393e-08
7.96677e-07
-1.5398e-07
1.32281e-06
-3.21698e-07
1.74285e-06
-5.47038e-07
1.93762e-06
-7.8957e-07
1.8034e-06
-9.85962e-07
1.27728e-06
-1.07089e-06
3.53474e-07
-1.01661e-06
-8.70057e-07
-8.85959e-07
-2.12524e-06
-7.9299e-07
-3.03978e-06
-7.83634e-07
-3.42381e-06
-7.80836e-07
-3.38119e-06
-6.90075e-07
-3.15595e-06
-4.88893e-07
-3.03276e-06
-1.19318e-07
-3.15647e-06
4.35359e-07
-3.00409e-06
1.08191e-06
-2.22969e-06
1.69422e-06
-1.03849e-06
2.01635e-06
3.13537e-07
2.08722e-06
1.19489e-06
2.0156e-06
1.68069e-06
1.83505e-06
1.97641e-06
1.5728e-06
2.14988e-06
1.25944e-06
2.22511e-06
9.30891e-07
2.20215e-06
6.24556e-07
2.06967e-06
3.71339e-07
1.82032e-06
1.87728e-07
1.46685e-06
7.3404e-08
1.04671e-06
1.59624e-08
6.10159e-07
2.00635e-07
-1.02457e-09
2.67428e-07
-1.88763e-08
8.14529e-07
-7.61379e-08
1.38007e-06
-1.94921e-07
1.86164e-06
-3.81401e-07
2.1241e-06
-6.11423e-07
2.03343e-06
-8.31325e-07
1.49719e-06
-9.81262e-07
5.03411e-07
-1.04635e-06
-8.04973e-07
-1.12279e-06
-2.04879e-06
-1.31541e-06
-2.84716e-06
-1.61614e-06
-3.12308e-06
-1.92725e-06
-3.07008e-06
-2.14856e-06
-2.93464e-06
-2.23506e-06
-2.94627e-06
-2.1271e-06
-3.26442e-06
-1.75501e-06
-3.37618e-06
-1.15888e-06
-2.82582e-06
-3.55083e-07
-1.84229e-06
3.45963e-07
-3.87509e-07
6.96063e-07
8.44788e-07
8.30081e-07
1.54667e-06
8.18849e-07
1.98764e-06
7.00486e-07
2.26824e-06
5.18975e-07
2.40662e-06
3.23954e-07
2.39717e-06
1.58662e-07
2.23496e-06
4.82634e-08
1.93072e-06
-4.95319e-09
1.52006e-06
-1.62639e-08
1.05802e-06
-7.90391e-09
6.01799e-07
1.92731e-07
1.31569e-10
2.67296e-07
-9.75222e-09
8.24413e-07
-4.79286e-08
1.41825e-06
-1.37577e-07
1.95129e-06
-2.95223e-07
2.28174e-06
-5.14521e-07
2.25272e-06
-7.62178e-07
1.74484e-06
-1.00382e-06
7.4505e-07
-1.2609e-06
-5.47888e-07
-1.65207e-06
-1.65763e-06
-2.23753e-06
-2.2617e-06
-2.94784e-06
-2.41276e-06
-3.66554e-06
-2.35238e-06
-4.29232e-06
-2.30786e-06
-4.76658e-06
-2.47202e-06
-5.01621e-06
-3.01479e-06
-4.91051e-06
-3.48188e-06
-4.43199e-06
-3.30435e-06
-3.65469e-06
-2.61958e-06
-2.59767e-06
-1.44453e-06
-1.69197e-06
-6.09035e-08
-1.14798e-06
1.00268e-06
-8.24054e-07
1.66372e-06
-6.50892e-07
2.09508e-06
-5.64333e-07
2.32006e-06
-5.03699e-07
2.33653e-06
-4.30137e-07
2.1614e-06
-3.30657e-07
1.83124e-06
-2.15732e-07
1.40514e-06
-1.08191e-07
9.50478e-07
-3.06936e-08
5.24301e-07
1.62037e-07
-8.02289e-09
2.75319e-07
-3.60234e-08
8.52413e-07
-9.41874e-08
1.47641e-06
-1.97658e-07
2.05476e-06
-3.61582e-07
2.44567e-06
-5.91203e-07
2.48235e-06
-8.82459e-07
2.0361e-06
-1.25879e-06
1.12138e-06
-1.82837e-06
2.16906e-08
-2.66724e-06
-8.18757e-07
-3.7546e-06
-1.17435e-06
-4.96369e-06
-1.20367e-06
-6.16445e-06
-1.15162e-06
-7.26227e-06
-1.21003e-06
-8.189e-06
-1.54529e-06
-8.86761e-06
-2.33618e-06
-9.10501e-06
-3.24448e-06
-8.83511e-06
-3.57425e-06
-8.10742e-06
-3.34727e-06
-6.94128e-06
-2.61068e-06
-5.45615e-06
-1.54603e-06
-4.11285e-06
-3.40628e-07
-3.0895e-06
6.40368e-07
-2.35461e-06
1.36019e-06
-1.79988e-06
1.76533e-06
-1.34695e-06
1.88361e-06
-9.66266e-07
1.78071e-06
-6.4121e-07
1.50619e-06
-3.71788e-07
1.13571e-06
-1.69147e-07
7.47838e-07
-4.3886e-08
3.9904e-07
1.18151e-07
-2.55772e-08
3.00897e-07
-1.01101e-07
9.27937e-07
-2.28832e-07
1.60414e-06
-4.11034e-07
2.23696e-06
-6.5338e-07
2.68801e-06
-9.69707e-07
2.79867e-06
-1.40221e-06
2.4686e-06
-2.0626e-06
1.78177e-06
-3.09941e-06
1.0585e-06
-4.5178e-06
5.99628e-07
-6.16097e-06
4.68823e-07
-7.85656e-06
4.91924e-07
-9.48207e-06
4.7388e-07
-1.09691e-05
2.7702e-07
-1.22691e-05
-2.45356e-07
-1.33188e-05
-1.2864e-06
-1.38864e-05
-2.67695e-06
-1.38551e-05
-3.60547e-06
-1.3251e-05
-3.95137e-06
-1.20845e-05
-3.77721e-06
-1.04118e-05
-3.21872e-06
-8.34654e-06
-2.40591e-06
-6.26538e-06
-1.44079e-06
-4.42707e-06
-4.78119e-07
-2.95575e-06
2.94005e-07
-1.87155e-06
7.99413e-07
-1.12786e-06
1.03702e-06
-6.37456e-07
1.01579e-06
-3.16569e-07
8.14828e-07
-1.24027e-07
5.55295e-07
-2.75329e-08
3.02546e-07
9.06185e-08
-5.00783e-08
3.50975e-07
-1.93661e-07
1.07152e-06
-4.32271e-07
1.84275e-06
-7.67792e-07
2.57248e-06
-1.21037e-06
3.13059e-06
-1.79491e-06
3.38321e-06
-2.6033e-06
3.27699e-06
-3.75606e-06
2.93454e-06
-5.30584e-06
2.60828e-06
-7.15197e-06
2.44576e-06
-9.0897e-06
2.40655e-06
-1.09845e-05
2.38668e-06
-1.27907e-05
2.28011e-06
-1.44741e-05
1.96044e-06
-1.59828e-05
1.26338e-06
-1.721e-05
-5.92522e-08
-1.79754e-05
-1.91157e-06
-1.81548e-05
-3.42599e-06
-1.77497e-05
-4.35653e-06
-1.67519e-05
-4.77503e-06
-1.51819e-05
-4.78872e-06
-1.3108e-05
-4.4798e-06
-1.06399e-05
-3.90887e-06
-7.9795e-06
-3.13851e-06
-5.453e-06
-2.2325e-06
-3.34425e-06
-1.30934e-06
-1.78431e-06
-5.22916e-07
-7.91214e-07
2.26868e-08
-2.69551e-07
2.93165e-07
-5.39123e-08
3.39657e-07
2.12746e-09
2.46506e-07
9.2746e-08
-4.51022e-08
3.96077e-07
-1.8512e-07
1.21154e-06
-4.36915e-07
2.09455e-06
-8.20189e-07
2.95575e-06
-1.36114e-06
3.67155e-06
-2.09948e-06
4.12155e-06
-3.08881e-06
4.26632e-06
-4.3661e-06
4.21183e-06
-5.90162e-06
4.14381e-06
-7.6227e-06
4.16683e-06
-9.46929e-06
4.25315e-06
-1.13923e-05
4.30967e-06
-1.33397e-05
4.22756e-06
-1.52557e-05
3.87645e-06
-1.70647e-05
3.07237e-06
-1.86658e-05
1.54181e-06
-1.9668e-05
-9.09338e-07
-2.00869e-05
-3.00709e-06
-1.99887e-05
-4.45474e-06
-1.93616e-05
-5.40216e-06
-1.81879e-05
-5.96242e-06
-1.6478e-05
-6.18972e-06
-1.42925e-05
-6.09436e-06
-1.17546e-05
-5.67643e-06
-9.03044e-06
-4.95662e-06
-6.3452e-06
-3.99457e-06
-3.97366e-06
-2.89446e-06
-2.14788e-06
-1.8031e-06
-9.62889e-07
-8.91829e-07
-3.24482e-07
-2.9875e-07
-5.61756e-08
-2.18001e-08
3.65704e-08
-7.1793e-09
4.03257e-07
-4.87871e-08
1.25315e-06
-1.56497e-07
2.20226e-06
-3.7105e-07
3.17031e-06
-7.39947e-07
4.04045e-06
-1.30749e-06
4.68909e-06
-2.0933e-06
5.05213e-06
-3.08067e-06
5.1992e-06
-4.22052e-06
5.28366e-06
-5.46765e-06
5.41397e-06
-6.80152e-06
5.58701e-06
-8.21266e-06
5.72081e-06
-9.68809e-06
5.70299e-06
-1.12086e-05
5.39691e-06
-1.27492e-05
4.61298e-06
-1.42644e-05
3.05704e-06
-1.53813e-05
2.07549e-07
-1.6037e-05
-2.35137e-06
-1.63821e-05
-4.10969e-06
-1.64119e-05
-5.37233e-06
-1.60605e-05
-6.3138e-06
-1.52543e-05
-6.99591e-06
-1.39567e-05
-7.39198e-06
-1.21947e-05
-7.43845e-06
-1.00648e-05
-7.08651e-06
-7.73225e-06
-6.32711e-06
-5.41221e-06
-5.2145e-06
-3.33921e-06
-3.87609e-06
-1.71966e-06
-2.51138e-06
-6.6847e-07
-1.34994e-06
-1.42529e-07
-5.47742e-07
-1.05958e-07
2.69006e-08
3.76356e-07
8.29283e-08
1.19712e-06
1.35508e-07
2.14968e-06
1.38972e-07
3.16684e-06
3.828e-08
4.14114e-06
-2.18397e-07
4.94577e-06
-6.55535e-07
5.48927e-06
-1.2466e-06
5.79026e-06
-1.92185e-06
5.95891e-06
-2.62874e-06
6.12086e-06
-3.35149e-06
6.30976e-06
-4.08769e-06
6.45701e-06
-4.83734e-06
6.45265e-06
-5.59779e-06
6.15736e-06
-6.36471e-06
5.3799e-06
-7.15536e-06
3.84769e-06
-7.96935e-06
1.02154e-06
-8.64686e-06
-1.67385e-06
-9.26317e-06
-3.49338e-06
-9.82691e-06
-4.80859e-06
-1.0268e-05
-5.87274e-06
-1.04601e-05
-6.80378e-06
-1.02707e-05
-7.58142e-06
-9.62071e-06
-8.0884e-06
-8.50115e-06
-8.20607e-06
-6.98804e-06
-7.84022e-06
-5.23472e-06
-6.96782e-06
-3.45859e-06
-5.65222e-06
-1.9082e-06
-4.06177e-06
-7.90525e-07
-2.46762e-06
-1.78e-07
-1.16027e-06
-2.83959e-07
4.5289e-08
3.31067e-07
1.59654e-07
1.08275e-06
3.15993e-07
1.99334e-06
4.72175e-07
3.01066e-06
5.75764e-07
4.03755e-06
5.7275e-07
4.94878e-06
4.26486e-07
5.63553e-06
1.49726e-07
6.06702e-06
-1.93966e-07
6.30261e-06
-5.35153e-07
6.46204e-06
-8.37925e-07
6.61253e-06
-1.09815e-06
6.71723e-06
-1.32602e-06
6.68051e-06
-1.5368e-06
6.36815e-06
-1.74802e-06
5.59112e-06
-1.98183e-06
4.08149e-06
-2.36716e-06
1.40687e-06
-2.91792e-06
-1.12309e-06
-3.57159e-06
-2.83971e-06
-4.30872e-06
-4.07146e-06
-5.11729e-06
-5.06416e-06
-5.89909e-06
-6.02198e-06
-6.47339e-06
-7.00712e-06
-6.69393e-06
-7.86786e-06
-6.45579e-06
-8.44421e-06
-5.74528e-06
-8.55073e-06
-4.6363e-06
-8.0768e-06
-3.29026e-06
-6.99826e-06
-1.94235e-06
-5.40967e-06
-8.53228e-07
-3.55675e-06
-2.01985e-07
-1.81151e-06
-4.85944e-07
4.97586e-08
2.81308e-07
1.85959e-07
9.46552e-07
3.91355e-07
1.78794e-06
6.3175e-07
2.77027e-06
8.60487e-07
3.80881e-06
1.02786e-06
4.7814e-06
1.09691e-06
5.56649e-06
1.06658e-06
6.09735e-06
9.77255e-07
6.39193e-06
8.97022e-07
6.54228e-06
8.7933e-07
6.63023e-06
9.37563e-07
6.659e-06
1.05727e-06
6.5608e-06
1.20849e-06
6.21693e-06
1.34899e-06
5.45062e-06
1.43523e-06
3.99526e-06
1.29159e-06
1.55051e-06
8.48408e-07
-6.79915e-07
2.34499e-07
-2.2258e-06
-5.03535e-07
-3.33343e-06
-1.35393e-06
-4.21377e-06
-2.3116e-06
-5.0643e-06
-3.24687e-06
-6.07186e-06
-4.0082e-06
-7.10652e-06
-4.40794e-06
-8.04448e-06
-4.35592e-06
-8.60274e-06
-3.84167e-06
-8.59105e-06
-2.95191e-06
-7.88802e-06
-1.87415e-06
-6.48744e-06
-8.76358e-07
-4.55453e-06
-2.17617e-07
-2.47025e-06
-7.03561e-07
4.55912e-08
2.35717e-07
1.77529e-07
8.14615e-07
3.8909e-07
1.57638e-06
6.5725e-07
2.50211e-06
9.4531e-07
3.52075e-06
1.21169e-06
4.51502e-06
1.42342e-06
5.35476e-06
1.57258e-06
5.94819e-06
1.68398e-06
6.28053e-06
1.80985e-06
6.41641e-06
2.00012e-06
6.43995e-06
2.27358e-06
6.38554e-06
2.61549e-06
6.21889e-06
2.98662e-06
5.84579e-06
3.3263e-06
5.11094e-06
3.54088e-06
3.78068e-06
3.45536e-06
1.63602e-06
3.06365e-06
-2.88206e-07
2.49256e-06
-1.65471e-06
1.80414e-06
-2.645e-06
1.03133e-06
-3.44096e-06
1.55861e-07
-4.18883e-06
-8.23433e-07
-5.09256e-06
-1.81143e-06
-6.11852e-06
-2.59428e-06
-7.26163e-06
-3.02272e-06
-8.1743e-06
-3.00391e-06
-8.60986e-06
-2.54221e-06
-8.34973e-06
-1.75586e-06
-7.27379e-06
-8.83352e-07
-5.42704e-06
-2.3153e-07
-3.12207e-06
-9.35091e-07
3.65684e-08
1.99149e-07
1.47415e-07
7.03768e-07
3.34637e-07
1.38916e-06
5.87694e-07
2.24905e-06
8.83433e-07
3.22501e-06
1.19275e-06
4.2057e-06
1.49094e-06
5.05657e-06
1.76873e-06
5.6704e-06
2.03826e-06
6.01099e-06
2.33132e-06
6.12336e-06
2.68211e-06
6.08916e-06
3.10469e-06
5.96296e-06
3.58381e-06
5.73977e-06
4.07714e-06
5.35246e-06
4.5149e-06
4.67318e-06
4.78492e-06
3.51067e-06
4.73627e-06
1.68467e-06
4.3841e-06
6.39611e-08
3.83064e-06
-1.10125e-06
3.15583e-06
-1.97019e-06
2.42238e-06
-2.70751e-06
1.66565e-06
-3.4321e-06
8.18717e-07
-4.24563e-06
-1.13359e-07
-5.18645e-06
-1.0636e-06
-6.31139e-06
-1.80415e-06
-7.43375e-06
-2.17687e-06
-8.23714e-06
-2.0998e-06
-8.42679e-06
-1.60894e-06
-7.76465e-06
-8.85496e-07
-6.15048e-06
-2.49089e-07
-3.75848e-06
-1.18418e-06
2.43373e-08
1.74811e-07
1.0226e-07
6.25845e-07
2.43119e-07
1.2483e-06
4.50256e-07
2.04191e-06
7.1726e-07
2.95801e-06
1.03119e-06
3.89177e-06
1.378e-06
4.70976e-06
1.74894e-06
5.29947e-06
2.1438e-06
5.61612e-06
2.57228e-06
5.69488e-06
3.04779e-06
5.61365e-06
3.57398e-06
5.43678e-06
4.13427e-06
5.17948e-06
4.6881e-06
4.79863e-06
5.16645e-06
4.19484e-06
5.45924e-06
3.21788e-06
5.44682e-06
1.69708e-06
5.15471e-06
3.56079e-07
4.65684e-06
-6.03392e-07
4.03828e-06
-1.35163e-06
3.35187e-06
-2.02109e-06
2.63226e-06
-2.7125e-06
1.88341e-06
-3.49678e-06
1.09873e-06
-4.40177e-06
2.11843e-07
-5.4245e-06
-6.7877e-07
-6.54314e-06
-1.35054e-06
-7.56537e-06
-1.6189e-06
-8.15843e-06
-1.42784e-06
-7.95571e-06
-8.80474e-07
-6.69785e-06
-2.7362e-07
-4.36533e-06
-1.4578e-06
8.06347e-09
1.66748e-07
4.06203e-08
5.93289e-07
1.16739e-07
1.17218e-06
2.5823e-07
1.90042e-06
4.77288e-07
2.73895e-06
7.77427e-07
3.59163e-06
1.15343e-06
4.33376e-06
1.59568e-06
4.85722e-06
2.09023e-06
5.12157e-06
2.6249e-06
5.16021e-06
3.19302e-06
5.04553e-06
3.78754e-06
4.84225e-06
4.39118e-06
4.57584e-06
4.96853e-06
4.22128e-06
5.4584e-06
3.70497e-06
5.76465e-06
2.91163e-06
5.79016e-06
1.67158e-06
5.57111e-06
5.75126e-07
5.17338e-06
-2.05659e-07
4.65995e-06
-8.38193e-07
4.0685e-06
-1.42965e-06
3.42463e-06
-2.06863e-06
2.73872e-06
-2.81086e-06
2.01094e-06
-3.67399e-06
1.22799e-06
-4.64155e-06
3.56867e-07
-5.67202e-06
-4.93705e-07
-6.7148e-06
-1.07483e-06
-7.57731e-06
-1.19374e-06
-7.8368e-06
-8.57578e-07
-7.03402e-06
-3.06567e-07
-4.91634e-06
-1.76437e-06
-1.497e-08
1.81718e-07
-4.36486e-08
6.21967e-07
-4.9609e-08
1.17814e-06
1.5755e-08
1.83506e-06
1.87226e-07
2.56748e-06
4.75624e-07
3.30324e-06
8.77029e-07
3.93235e-06
1.37869e-06
4.35556e-06
1.95137e-06
4.54889e-06
2.56395e-06
4.54762e-06
3.19489e-06
4.4146e-06
3.83005e-06
4.20709e-06
4.45346e-06
3.95243e-06
5.0372e-06
3.63754e-06
5.5321e-06
3.21007e-06
5.86161e-06
2.58211e-06
5.94661e-06
1.58657e-06
5.82447e-06
6.9727e-07
5.5501e-06
6.87058e-08
5.16722e-06
-4.55314e-07
4.70164e-06
-9.64066e-07
4.165e-06
-1.53199e-06
3.55807e-06
-2.20393e-06
2.87713e-06
-2.99304e-06
2.11852e-06
-3.88294e-06
1.2839e-06
-4.83739e-06
3.83277e-07
-5.81418e-06
-4.37999e-07
-6.75603e-06
-8.82471e-07
-7.39233e-06
-8.00615e-07
-7.11588e-06
-3.4571e-07
-5.37125e-06
-2.11008e-06
-5.15275e-08
2.33245e-07
-1.60714e-07
7.31154e-07
-2.57004e-07
1.27443e-06
-2.64065e-07
1.84212e-06
-1.2665e-07
2.43006e-06
1.66334e-07
3.01025e-06
6.01763e-07
3.49692e-06
1.15719e-06
3.80013e-06
1.78939e-06
3.91669e-06
2.45489e-06
3.88213e-06
3.12502e-06
3.74447e-06
3.78379e-06
3.54831e-06
4.4187e-06
3.31752e-06
5.01022e-06
3.04602e-06
5.52232e-06
2.69797e-06
5.8973e-06
2.20714e-06
6.06459e-06
1.41928e-06
6.05508e-06
7.06773e-07
5.91177e-06
2.12022e-07
5.66438e-06
-2.0793e-07
5.33175e-06
-6.31432e-07
4.91173e-06
-1.11197e-06
4.3933e-06
-1.6855e-06
3.76481e-06
-2.36455e-06
3.02158e-06
-3.13971e-06
2.1724e-06
-3.98821e-06
1.24353e-06
-4.88532e-06
2.90537e-07
-5.80303e-06
-4.64098e-07
-6.63769e-06
-6.86021e-07
-6.89395e-06
-3.81591e-07
-5.67568e-06
-2.49167e-06
-1.12851e-07
3.46096e-07
-3.20946e-07
9.39248e-07
-4.96195e-07
1.44968e-06
-5.43939e-07
1.88986e-06
-4.14221e-07
2.30035e-06
-9.75813e-08
2.69361e-06
3.85688e-07
3.01365e-06
9.94552e-07
3.19126e-06
1.67294e-06
3.23831e-06
2.37536e-06
3.17971e-06
3.07387e-06
3.04595e-06
3.75434e-06
2.86785e-06
4.4082e-06
2.66367e-06
5.0227e-06
2.43151e-06
5.57228e-06
2.1484e-06
6.01243e-06
1.76699e-06
6.27114e-06
1.16057e-06
6.36545e-06
6.12471e-07
6.33925e-06
2.38217e-07
6.21468e-06
-8.33624e-08
5.99913e-06
-4.15878e-07
5.68254e-06
-7.95387e-07
5.24685e-06
-1.24981e-06
4.67369e-06
-1.79139e-06
3.95289e-06
-2.41891e-06
3.09011e-06
-3.12543e-06
2.11168e-06
-3.90689e-06
1.07289e-06
-4.76424e-06
9.71091e-08
-5.66191e-06
-4.79011e-07
-6.31783e-06
-3.94275e-07
-5.76041e-06
-2.88594e-06
-2.07965e-07
5.54061e-07
-5.16283e-07
1.24757e-06
-7.28282e-07
1.66168e-06
-7.59635e-07
1.92121e-06
-5.87281e-07
2.12799e-06
-2.17016e-07
2.32335e-06
3.30314e-07
2.46633e-06
9.94589e-07
2.52699e-06
1.71384e-06
2.51905e-06
2.45029e-06
2.44327e-06
3.18012e-06
2.31611e-06
3.89102e-06
2.15695e-06
4.57583e-06
1.97886e-06
5.2245e-06
1.78285e-06
5.81698e-06
1.55591e-06
6.31585e-06
1.26811e-06
6.64526e-06
8.31161e-07
6.81414e-06
4.43593e-07
6.87016e-06
1.82192e-07
6.83089e-06
-4.40883e-08
6.6964e-06
-2.81392e-07
6.45467e-06
-5.53651e-07
6.08579e-06
-8.80938e-07
5.56796e-06
-1.27356e-06
4.88458e-06
-1.73554e-06
4.03164e-06
-2.27249e-06
3.02443e-06
-2.89967e-06
1.90576e-06
-3.64557e-06
7.72817e-07
-4.52898e-06
-1.27251e-07
-5.41777e-06
-3.52532e-07
-5.53513e-06
-3.23847e-06
-3.28923e-07
8.82984e-07
-6.92824e-07
1.61147e-06
-8.41766e-07
1.81062e-06
-7.60466e-07
1.83991e-06
-4.74752e-07
1.84228e-06
2.96871e-09
1.84563e-06
6.33455e-07
1.83584e-06
1.34715e-06
1.8133e-06
2.10498e-06
1.76122e-06
2.87461e-06
1.67364e-06
3.6339e-06
1.55682e-06
4.36953e-06
1.42132e-06
5.07242e-06
1.27597e-06
5.732e-06
1.12326e-06
6.3309e-06
9.57013e-07
6.83756e-06
7.6146e-07
7.18125e-06
4.87466e-07
7.37208e-06
2.52767e-07
7.45931e-06
9.4955e-08
7.45756e-06
-4.23302e-08
7.36418e-06
-1.88018e-07
7.1685e-06
-3.57973e-07
6.85202e-06
-5.6445e-07
6.39269e-06
-8.14226e-07
5.76963e-06
-1.11248e-06
4.96758e-06
-1.47044e-06
3.98246e-06
-1.91455e-06
2.83163e-06
-2.49473e-06
1.57941e-06
-3.27675e-06
4.08702e-07
-4.24706e-06
-2.1503e-07
-4.9114e-06
-3.4535e-06
-4.47741e-07
1.33073e-06
-6.92364e-07
1.85609e-06
-5.73303e-07
1.69156e-06
-2.26711e-07
1.49332e-06
2.71854e-07
1.34371e-06
8.88411e-07
1.22907e-06
1.58538e-06
1.13887e-06
2.33361e-06
1.06507e-06
3.10364e-06
9.91182e-07
3.86868e-06
9.08604e-07
4.60805e-06
8.17454e-07
5.30742e-06
7.21945e-07
5.9568e-06
6.26598e-07
6.54705e-06
5.33007e-07
7.0659e-06
4.38169e-07
7.49204e-06
3.35321e-07
7.77453e-06
2.04969e-07
7.92923e-06
9.80747e-08
7.99883e-06
2.53452e-08
7.9952e-06
-3.86912e-08
7.9156e-06
-1.08424e-07
7.75058e-06
-1.9295e-07
7.48395e-06
-2.97818e-07
7.09591e-06
-4.26185e-07
6.5651e-06
-5.81675e-07
5.86896e-06
-7.74302e-07
4.98379e-06
-1.02938e-06
3.88853e-06
-1.39947e-06
2.58569e-06
-1.97391e-06
1.18634e-06
-2.84771e-06
1.15203e-07
-3.84026e-06
-3.3383e-06
-3.78642e-07
1.70937e-06
9.61475e-09
1.46783e-06
7.11219e-07
9.89957e-07
1.4183e-06
7.86237e-07
2.12076e-06
6.41257e-07
2.82595e-06
5.23876e-07
3.5276e-06
4.37229e-07
4.21886e-06
3.73806e-07
4.88762e-06
3.2242e-07
5.51948e-06
2.76748e-07
6.10222e-06
2.34706e-07
6.62789e-06
1.9628e-07
7.09257e-06
1.61919e-07
7.49432e-06
1.31259e-07
7.82991e-06
1.02576e-07
8.09147e-06
7.3758e-08
8.25532e-06
4.11218e-08
8.33792e-06
1.54707e-08
8.36594e-06
-2.67194e-09
8.34657e-06
-1.93175e-08
8.27701e-06
-3.88722e-08
8.14835e-06
-6.42859e-08
7.94745e-06
-9.69142e-08
7.65881e-06
-1.37547e-07
7.26475e-06
-1.87614e-07
6.74252e-06
-2.52075e-07
6.05806e-06
-3.44924e-07
5.15758e-06
-4.98991e-07
3.9639e-06
-7.80236e-07
2.41641e-06
-1.30022e-06
7.45459e-07
-2.16932e-06
-2.59284e-06
1.70937e-06
3.1772e-06
4.16716e-06
4.95339e-06
5.59465e-06
6.11853e-06
6.55576e-06
6.92956e-06
7.25198e-06
7.52873e-06
7.76344e-06
7.95972e-06
8.12164e-06
8.2529e-06
8.35547e-06
8.42923e-06
8.47035e-06
8.48582e-06
8.48315e-06
8.46383e-06
8.42496e-06
8.36068e-06
8.26376e-06
8.12621e-06
7.9386e-06
7.68653e-06
7.3416e-06
6.84261e-06
6.06238e-06
4.76216e-06
2.59284e-06
)
;

boundaryField
{
    movingWall
    {
        type            calculated;
        value           uniform 0;
    }
    fixedWalls
    {
        type            calculated;
        value           uniform 0;
    }
    floor
    {
        type            calculated;
        value           uniform 0;
    }
    frontAndBack
    {
        type            empty;
        value           nonuniform List<scalar> 0();
    }
}


// ************************************************************************* //
