/*--------------------------------*- C++ -*----------------------------------*\
| =========                 |                                                 |
| \\      /  F ield         | OpenFOAM: The Open Source CFD Toolbox           |
|  \\    /   O peration     | Version:  2212                                  |
|   \\  /    A nd           | Website:  www.openfoam.com                      |
|    \\/     M anipulation  |                                                 |
\*---------------------------------------------------------------------------*/
FoamFile
{
    version     2.0;
    format      ascii;
    arch        "LSB;label=64;scalar=64";
    class       volScalarField;
    location    "1340";
    object      Xch;
}
// * * * * * * * * * * * * * * * * * * * * * * * * * * * * * * * * * * * * * //

dimensions      [1 -3 0 0 0 0 0];

internalField   nonuniform List<scalar> 
1024
(
0.0198827
0.019883
0.0198838
0.0198853
0.0198876
0.019891
0.0198955
0.019901
0.0199074
0.0199142
0.0199208
0.0199267
0.0199311
0.0199334
0.0199337
0.0199317
0.0199274
0.019921
0.0199134
0.0199046
0.0198952
0.0198856
0.0198764
0.019868
0.0198609
0.0198552
0.0198508
0.0198477
0.0198456
0.0198443
0.0198436
0.0198433
0.0198828
0.0198831
0.0198839
0.0198854
0.0198878
0.0198912
0.0198958
0.0199014
0.0199078
0.0199147
0.0199214
0.0199273
0.0199316
0.019934
0.0199342
0.0199322
0.0199279
0.0199215
0.0199138
0.0199051
0.0198957
0.0198861
0.0198768
0.0198684
0.0198612
0.0198554
0.019851
0.0198478
0.0198457
0.0198444
0.0198437
0.0198434
0.0198829
0.0198833
0.0198841
0.0198857
0.0198882
0.0198917
0.0198964
0.0199022
0.0199088
0.0199158
0.0199227
0.0199287
0.0199331
0.0199354
0.0199355
0.0199334
0.019929
0.0199226
0.0199149
0.0199061
0.0198967
0.019887
0.0198776
0.0198691
0.0198618
0.0198558
0.0198513
0.0198481
0.0198459
0.0198446
0.0198438
0.0198435
0.0198832
0.0198836
0.0198845
0.0198861
0.0198887
0.0198924
0.0198974
0.0199034
0.0199104
0.0199178
0.019925
0.0199313
0.0199357
0.0199379
0.0199379
0.0199356
0.019931
0.0199245
0.0199166
0.0199077
0.0198982
0.0198884
0.0198789
0.0198702
0.0198627
0.0198565
0.0198519
0.0198485
0.0198462
0.0198448
0.0198441
0.0198438
0.0198837
0.0198841
0.019885
0.0198867
0.0198895
0.0198934
0.0198987
0.0199052
0.0199126
0.0199207
0.0199286
0.0199354
0.01994
0.019942
0.0199417
0.0199391
0.0199342
0.0199273
0.0199191
0.01991
0.0199002
0.0198903
0.0198806
0.0198716
0.0198639
0.0198575
0.0198526
0.0198491
0.0198467
0.0198452
0.0198444
0.0198441
0.0198843
0.0198847
0.0198857
0.0198875
0.0198905
0.0198947
0.0199004
0.0199075
0.0199157
0.0199247
0.0199337
0.0199414
0.0199464
0.0199482
0.0199473
0.0199442
0.0199387
0.0199313
0.0199225
0.0199128
0.0199027
0.0198925
0.0198825
0.0198733
0.0198653
0.0198586
0.0198535
0.0198498
0.0198473
0.0198458
0.0198449
0.0198446
0.0198851
0.0198855
0.0198866
0.0198885
0.0198916
0.0198962
0.0199024
0.0199103
0.0199197
0.0199302
0.0199407
0.0199496
0.0199551
0.0199568
0.0199553
0.0199514
0.0199451
0.0199366
0.0199268
0.0199163
0.0199055
0.0198949
0.0198845
0.019875
0.0198667
0.0198598
0.0198545
0.0198506
0.019848
0.0198464
0.0198455
0.0198452
0.0198861
0.0198866
0.0198876
0.0198897
0.019893
0.019898
0.0199049
0.0199139
0.0199248
0.0199371
0.0199496
0.0199601
0.0199665
0.0199681
0.019966
0.0199612
0.0199536
0.0199436
0.0199322
0.0199203
0.0199086
0.0198971
0.0198864
0.0198765
0.0198679
0.0198608
0.0198553
0.0198514
0.0198487
0.0198471
0.0198462
0.0198459
0.0198875
0.0198879
0.019889
0.0198912
0.0198947
0.0199002
0.0199079
0.0199182
0.0199311
0.0199458
0.0199608
0.0199732
0.0199806
0.0199824
0.0199797
0.0199738
0.0199648
0.0199527
0.019939
0.0199251
0.0199117
0.0198992
0.0198877
0.0198775
0.0198687
0.0198615
0.019856
0.0198521
0.0198495
0.0198479
0.0198471
0.0198468
0.0198893
0.0198897
0.0198909
0.0198931
0.019897
0.019903
0.0199117
0.0199236
0.0199388
0.0199565
0.0199743
0.019989
0.0199977
0.0199997
0.0199968
0.0199901
0.0199793
0.0199646
0.0199479
0.019931
0.0199153
0.0199012
0.0198887
0.019878
0.019869
0.0198619
0.0198566
0.0198529
0.0198505
0.0198491
0.0198484
0.0198481
0.0198919
0.0198923
0.0198935
0.0198959
0.0199001
0.0199067
0.0199167
0.0199306
0.0199486
0.0199696
0.0199907
0.0200078
0.0200179
0.0200207
0.020018
0.0200111
0.0199989
0.0199814
0.0199609
0.0199401
0.0199211
0.0199046
0.0198905
0.019879
0.0198698
0.0198628
0.0198579
0.0198546
0.0198526
0.0198516
0.0198511
0.019851
0.0198958
0.0198963
0.0198976
0.0199001
0.0199047
0.0199122
0.0199237
0.01994
0.0199613
0.019986
0.0200105
0.0200302
0.020042
0.0200463
0.020045
0.0200392
0.020027
0.0200076
0.0199837
0.0199585
0.0199349
0.0199144
0.0198976
0.0198843
0.0198743
0.0198673
0.0198627
0.0198601
0.0198588
0.0198584
0.0198584
0.0198585
0.0199022
0.0199027
0.019904
0.0199068
0.019912
0.0199207
0.019934
0.0199532
0.0199782
0.0200069
0.0200348
0.0200571
0.0200712
0.0200783
0.0200805
0.0200785
0.0200696
0.020052
0.0200276
0.0199996
0.0199715
0.0199457
0.0199239
0.0199065
0.0198938
0.0198854
0.0198806
0.0198784
0.0198779
0.0198783
0.019879
0.0198795
0.0199124
0.0199129
0.0199143
0.0199175
0.0199236
0.0199337
0.0199495
0.019972
0.0200009
0.0200334
0.0200645
0.0200895
0.0201069
0.0201187
0.0201274
0.0201331
0.0201329
0.020124
0.0201066
0.0200829
0.0200556
0.0200274
0.0200007
0.0199772
0.0199584
0.0199449
0.0199365
0.0199323
0.0199311
0.0199314
0.0199323
0.0199329
0.019928
0.0199285
0.0199302
0.019934
0.0199412
0.0199533
0.0199719
0.0199978
0.02003
0.0200651
0.0200984
0.0201261
0.0201479
0.0201661
0.0201829
0.0201989
0.0202117
0.0202179
0.0202166
0.0202081
0.0201934
0.0201737
0.0201509
0.0201269
0.0201038
0.0200835
0.0200675
0.0200562
0.0200495
0.0200463
0.0200452
0.0200451
0.0199483
0.0199488
0.0199506
0.0199546
0.0199624
0.0199753
0.0199949
0.0200217
0.0200545
0.0200905
0.0201255
0.0201567
0.0201832
0.0202069
0.0202294
0.0202516
0.0202724
0.0202904
0.0203047
0.0203149
0.0203201
0.0203199
0.0203142
0.0203033
0.0202884
0.0202713
0.0202542
0.020239
0.0202271
0.0202193
0.0202151
0.0202135
0.0199684
0.0199689
0.0199705
0.0199742
0.0199813
0.0199933
0.0200115
0.0200364
0.0200673
0.020102
0.020137
0.0201694
0.0201975
0.0202216
0.0202423
0.0202604
0.0202763
0.0202921
0.0203093
0.0203275
0.0203452
0.0203608
0.0203728
0.0203803
0.020383
0.0203811
0.0203757
0.0203682
0.0203606
0.0203543
0.0203502
0.0203484
0.0199843
0.0199846
0.0199859
0.019989
0.0199949
0.020005
0.0200206
0.0200423
0.0200698
0.0201015
0.0201345
0.0201659
0.0201932
0.0202152
0.0202318
0.0202429
0.0202501
0.0202583
0.0202715
0.0202898
0.0203116
0.0203342
0.0203554
0.0203734
0.0203873
0.0203966
0.0204017
0.0204034
0.0204027
0.0204011
0.0203995
0.0203986
0.0199955
0.0199958
0.0199969
0.0199993
0.020004
0.0200122
0.020025
0.0200433
0.0200669
0.0200948
0.0201248
0.0201541
0.0201799
0.0202003
0.0202144
0.0202218
0.0202244
0.0202283
0.0202383
0.0202557
0.0202793
0.0203066
0.0203344
0.0203598
0.0203807
0.0203963
0.0204067
0.0204127
0.0204154
0.0204161
0.0204158
0.0204155
0.0200036
0.0200038
0.0200046
0.0200065
0.0200102
0.0200167
0.020027
0.020042
0.0200618
0.0200857
0.0201122
0.0201387
0.0201627
0.020182
0.0201953
0.0202021
0.0202044
0.0202076
0.0202164
0.0202326
0.0202559
0.0202847
0.0203161
0.0203467
0.0203736
0.0203949
0.02041
0.0204194
0.0204244
0.0204264
0.0204267
0.0204266
0.0200096
0.0200098
0.0200104
0.0200117
0.0200146
0.0200197
0.0200279
0.02004
0.0200563
0.0200764
0.0200991
0.0201226
0.0201445
0.020163
0.0201766
0.020185
0.0201898
0.0201954
0.0202052
0.0202212
0.0202437
0.0202719
0.0203039
0.0203368
0.0203674
0.0203929
0.0204122
0.0204249
0.0204322
0.0204354
0.0204363
0.0204363
0.0200153
0.0200154
0.0200156
0.0200164
0.0200183
0.0200221
0.0200285
0.0200382
0.0200514
0.0200681
0.0200874
0.0201079
0.020128
0.020146
0.0201609
0.0201724
0.0201815
0.020191
0.0202032
0.0202198
0.0202416
0.0202684
0.0202993
0.020332
0.0203638
0.0203918
0.0204141
0.0204296
0.020439
0.0204436
0.0204451
0.0204452
0.0200228
0.0200225
0.0200222
0.0200221
0.020023
0.0200253
0.02003
0.0200376
0.0200484
0.0200623
0.020079
0.0200973
0.0201163
0.0201347
0.0201518
0.0201673
0.0201814
0.0201951
0.0202098
0.0202271
0.020248
0.020273
0.0203016
0.0203325
0.0203635
0.0203921
0.0204161
0.0204338
0.0204451
0.020451
0.0204531
0.0204534
0.0200342
0.0200335
0.0200324
0.0200312
0.0200306
0.0200314
0.0200344
0.0200403
0.0200494
0.0200617
0.0200769
0.0200945
0.0201136
0.0201333
0.020153
0.0201725
0.0201911
0.0202083
0.0202248
0.0202422
0.0202618
0.0202843
0.02031
0.020338
0.0203668
0.0203944
0.0204187
0.0204377
0.0204505
0.0204576
0.0204604
0.0204609
0.0200519
0.0200507
0.0200485
0.0200459
0.0200438
0.0200431
0.0200449
0.0200498
0.0200583
0.0200703
0.0200856
0.0201037
0.0201238
0.0201452
0.0201672
0.0201896
0.0202112
0.0202303
0.0202474
0.0202641
0.0202818
0.0203014
0.0203235
0.0203479
0.0203735
0.0203989
0.0204223
0.0204416
0.0204555
0.0204636
0.020467
0.0204677
0.0200774
0.0200755
0.0200723
0.0200687
0.0200656
0.0200643
0.0200658
0.0200709
0.0200798
0.0200926
0.0201089
0.020128
0.0201491
0.0201715
0.0201947
0.0202183
0.0202407
0.02026
0.0202764
0.0202916
0.0203069
0.0203234
0.0203416
0.0203619
0.0203836
0.0204059
0.0204273
0.0204459
0.0204601
0.0204689
0.020473
0.0204739
0.0201116
0.0201091
0.0201054
0.0201017
0.0200992
0.0200987
0.0201013
0.0201076
0.0201178
0.0201316
0.0201486
0.020168
0.0201891
0.0202111
0.0202336
0.0202563
0.0202775
0.0202953
0.02031
0.0203231
0.0203357
0.020349
0.0203635
0.0203795
0.020397
0.0204156
0.020434
0.020451
0.0204646
0.0204738
0.0204783
0.0204795
0.0201551
0.0201523
0.0201491
0.0201471
0.0201469
0.0201489
0.0201536
0.0201615
0.0201726
0.0201866
0.020203
0.0202213
0.0202406
0.0202605
0.0202805
0.0203004
0.0203189
0.020334
0.0203463
0.0203569
0.0203669
0.020377
0.020388
0.0204
0.0204133
0.0204277
0.0204427
0.0204571
0.0204694
0.0204783
0.020483
0.0204844
0.0202085
0.020206
0.020205
0.0202064
0.0202098
0.0202147
0.0202214
0.0202301
0.0202407
0.0202534
0.0202677
0.0202831
0.0202991
0.0203154
0.0203315
0.0203475
0.0203621
0.020374
0.0203834
0.0203914
0.0203988
0.0204061
0.0204139
0.0204224
0.0204318
0.0204422
0.0204533
0.0204646
0.0204748
0.0204826
0.0204872
0.0204888
0.0202733
0.0202722
0.0202749
0.02028
0.0202861
0.0202927
0.0202998
0.0203076
0.0203164
0.0203262
0.0203369
0.0203483
0.02036
0.0203717
0.0203832
0.0203946
0.0204048
0.0204132
0.0204197
0.0204252
0.0204301
0.020435
0.02044
0.0204455
0.0204515
0.0204583
0.0204657
0.0204734
0.0204809
0.0204871
0.0204911
0.0204925
0.020352
0.0203538
0.0203593
0.0203653
0.0203712
0.0203767
0.0203821
0.0203874
0.020393
0.020399
0.0204055
0.0204122
0.0204191
0.020426
0.0204328
0.0204394
0.0204453
0.0204501
0.0204539
0.020457
0.0204598
0.0204625
0.0204652
0.0204682
0.0204715
0.0204751
0.0204792
0.0204835
0.020488
0.0204919
0.0204946
0.0204958
0.0204481
0.0204495
0.0204523
0.020455
0.0204574
0.0204596
0.0204616
0.0204634
0.0204653
0.0204673
0.0204695
0.0204717
0.0204739
0.0204761
0.0204783
0.0204805
0.0204824
0.0204839
0.0204851
0.0204861
0.020487
0.0204879
0.0204887
0.0204896
0.0204906
0.0204918
0.020493
0.0204944
0.0204958
0.0204971
0.0204981
0.0204986
)
;

boundaryField
{
    movingWall
    {
        type            fixedValue;
        value           uniform 0.0205;
    }
    fixedWalls
    {
        type            zeroGradient;
    }
    floor
    {
        type            zeroGradient;
    }
    frontAndBack
    {
        type            empty;
    }
}


// ************************************************************************* //
