/*--------------------------------*- C++ -*----------------------------------*\
| =========                 |                                                 |
| \\      /  F ield         | OpenFOAM: The Open Source CFD Toolbox           |
|  \\    /   O peration     | Version:  2212                                  |
|   \\  /    A nd           | Website:  www.openfoam.com                      |
|    \\/     M anipulation  |                                                 |
\*---------------------------------------------------------------------------*/
FoamFile
{
    version     2.0;
    format      ascii;
    arch        "LSB;label=64;scalar=64";
    class       volScalarField;
    location    "1920";
    object      Gco2;
}
// * * * * * * * * * * * * * * * * * * * * * * * * * * * * * * * * * * * * * //

dimensions      [1 -3 0 0 0 0 0];

internalField   nonuniform List<scalar> 
1024
(
0.0494354
0.0494119
0.0493543
0.0492485
0.0490767
0.0488182
0.0484507
0.047954
0.0473153
0.0465357
0.045636
0.0446577
0.0436567
0.0426903
0.0418051
0.0410384
0.0404824
0.0402134
0.040205
0.0404068
0.0407752
0.0412606
0.0418062
0.0423539
0.0428537
0.043273
0.0435992
0.0438359
0.0439959
0.0440952
0.0441494
0.0441714
0.0494279
0.0494043
0.0493462
0.0492394
0.049066
0.0488051
0.0484342
0.0479333
0.0472899
0.0465057
0.0456023
0.0446215
0.0436196
0.0426533
0.0417685
0.0410018
0.0404445
0.0401734
0.0401632
0.0403639
0.0407326
0.0412199
0.0417686
0.0423204
0.0428251
0.0432492
0.0435796
0.0438194
0.0439813
0.0440817
0.0441363
0.0441585
0.0494096
0.0493856
0.0493264
0.0492174
0.0490404
0.048774
0.0483956
0.0478853
0.0472314
0.0464371
0.0455255
0.0445396
0.0435358
0.0425698
0.0416855
0.0409172
0.0403549
0.0400763
0.04006
0.0402587
0.040631
0.0411262
0.0416849
0.0422475
0.0427628
0.0431969
0.0435354
0.0437811
0.0439466
0.044049
0.0441044
0.0441268
0.0493767
0.0493519
0.0492908
0.0491782
0.0489952
0.0487197
0.0483287
0.0478029
0.0471319
0.0463211
0.0453964
0.0444028
0.0433965
0.0424308
0.0415459
0.0407719
0.0401961
0.0399001
0.0398706
0.0400663
0.0404487
0.0409633
0.0415441
0.0421275
0.0426613
0.0431107
0.043461
0.0437147
0.0438851
0.0439897
0.044046
0.0440685
0.0493247
0.0492988
0.049235
0.0491172
0.0489254
0.0486365
0.0482274
0.0476791
0.0469837
0.0461499
0.0452075
0.0442038
0.0431941
0.0422279
0.041339
0.0405512
0.039948
0.0396185
0.0395649
0.0397566
0.0401588
0.0407095
0.0413303
0.0419496
0.0425122
0.0429832
0.0433486
0.0436117
0.043787
0.0438936
0.0439501
0.0439724
0.0492491
0.049222
0.0491546
0.0490298
0.0488262
0.0485196
0.0480863
0.0475086
0.0467815
0.0459186
0.0449542
0.0439382
0.042924
0.0419546
0.041055
0.0402399
0.0395886
0.0392036
0.0391113
0.0392966
0.0397288
0.0403354
0.0410193
0.0416946
0.0423
0.0428006
0.0431846
0.0434578
0.0436373
0.0437445
0.0438001
0.0438214
0.0491463
0.0491176
0.0490459
0.0489125
0.0486943
0.0483657
0.0479028
0.0472892
0.046524
0.0456266
0.0446369
0.0436065
0.0425852
0.0416072
0.0406859
0.0398249
0.0390993
0.0386322
0.0384828
0.038655
0.0391227
0.0398017
0.0405728
0.0413283
0.0419946
0.0425353
0.0429424
0.0432264
0.0434088
0.0435147
0.0435676
0.0435869
0.049014
0.0489835
0.0489071
0.0487639
0.0485289
0.048175
0.0476779
0.0470235
0.0462157
0.0452801
0.0442622
0.0432146
0.0421817
0.0411865
0.0402293
0.0393009
0.0384736
0.0378965
0.0376662
0.0378077
0.0383014
0.0390553
0.0399292
0.0407879
0.0415365
0.042132
0.0425697
0.042867
0.0430519
0.0431548
0.0432034
0.0432198
0.0488524
0.0488204
0.048739
0.0485856
0.0483328
0.0479519
0.0474185
0.0467208
0.0458679
0.0448921
0.0438437
0.0427754
0.0417247
0.0407025
0.0396957
0.0386823
0.0377317
0.0370189
0.0366755
0.0367475
0.0372278
0.038027
0.0389933
0.0399644
0.0408162
0.0414865
0.0419688
0.0422871
0.0424778
0.0425787
0.0426229
0.0426359
0.0486652
0.0486317
0.0485458
0.0483827
0.0481128
0.0477057
0.0471369
0.0463969
0.0454995
0.0444834
0.0434031
0.0423108
0.0412371
0.0401822
0.0391208
0.0380187
0.0369391
0.0360707
0.0355687
0.0355002
0.0358817
0.0366444
0.037643
0.0386993
0.0396578
0.0404241
0.040974
0.0413316
0.0415406
0.0416471
0.0416909
0.0417023
0.0484594
0.0484248
0.0483352
0.0481642
0.0478801
0.0474506
0.046851
0.0460737
0.0451364
0.0440831
0.0429724
0.0418567
0.0407622
0.0396814
0.0385805
0.0374131
0.0362249
0.0351909
0.0344721
0.0341595
0.0343066
0.034886
0.0357839
0.0368299
0.0378493
0.0387116
0.0393548
0.0397828
0.0400366
0.0401677
0.0402227
0.0402377
0.0482457
0.0482103
0.0481185
0.0479425
0.0476491
0.0472047
0.0465836
0.0457792
0.0448121
0.0437306
0.0425979
0.0414693
0.0403715
0.0392951
0.0382018
0.0370313
0.0357901
0.0345989
0.0336083
0.0329388
0.0326918
0.0328964
0.0334932
0.0343506
0.0353026
0.0361946
0.036921
0.0374416
0.0377717
0.0379548
0.0380393
0.0380664
0.0480385
0.048003
0.0479107
0.0477337
0.0474382
0.0469897
0.0463617
0.0455473
0.0445688
0.0434779
0.0423438
0.0412293
0.040168
0.0391564
0.038156
0.0370874
0.0358889
0.0345822
0.0332972
0.0321927
0.0314247
0.0310827
0.0311711
0.0316172
0.0322946
0.0330553
0.0337663
0.0343391
0.0347419
0.0349885
0.0351151
0.0351615
0.0478573
0.047822
0.0477313
0.0475583
0.0472699
0.0468319
0.0462173
0.0454183
0.0444573
0.0433888
0.0422893
0.0412335
0.0402704
0.0394098
0.0386163
0.0377864
0.0367617
0.0354238
0.0338754
0.0323222
0.0309814
0.0300044
0.0294552
0.0293191
0.0295202
0.0299433
0.0304591
0.0309532
0.0313503
0.0316217
0.0317755
0.0318375
0.0477282
0.0476937
0.0476067
0.0474427
0.0471718
0.0467616
0.0461857
0.0454354
0.0445314
0.0435296
0.0425129
0.0415711
0.0407743
0.0401525
0.0396779
0.0392227
0.0385166
0.0372689
0.0355377
0.0335725
0.0316608
0.0300281
0.0288025
0.0280202
0.0276468
0.0275996
0.027769
0.0280403
0.0283168
0.0285367
0.0286759
0.0287373
0.0476873
0.047654
0.0475724
0.0474223
0.0471788
0.0468141
0.0463041
0.0456396
0.0448381
0.0439525
0.043068
0.0422867
0.0417005
0.0413648
0.041267
0.0412691
0.0410033
0.0399967
0.038217
0.0359196
0.0334539
0.0311397
0.0291986
0.0277361
0.0267597
0.0262096
0.0259867
0.0259776
0.0260749
0.0261956
0.0262894
0.0263365
0.0477733
0.0477414
0.0476655
0.0475306
0.0473177
0.0470056
0.046575
0.0460173
0.0453458
0.0446059
0.0438774
0.043264
0.0428708
0.0427746
0.0429857
0.0433831
0.0435626
0.0429272
0.0413125
0.0388897
0.0359999
0.0330394
0.0303518
0.0281552
0.0265324
0.0254589
0.0248426
0.0245603
0.0244859
0.0245119
0.0245626
0.024596
0.0479721
0.0479411
0.0478697
0.0477466
0.0475585
0.0472907
0.0469295
0.0464684
0.0459177
0.0453143
0.0447266
0.0442495
0.0439864
0.0440214
0.0443811
0.0449693
0.0453971
0.04506
0.0437227
0.0414304
0.0384186
0.0350603
0.0317751
0.0289028
0.0266372
0.0250247
0.024002
0.0234438
0.0232037
0.0231452
0.0231619
0.0231866
0.0482352
0.0482052
0.0481371
0.0480224
0.0478519
0.0476162
0.0473068
0.0469206
0.0464665
0.0459744
0.0455004
0.0451248
0.0449388
0.0450205
0.0453993
0.0459954
0.046448
0.0462118
0.0450582
0.0429603
0.0400449
0.0365899
0.0329934
0.0296555
0.0268701
0.0247731
0.0233576
0.0225194
0.0221065
0.0219596
0.0219424
0.0219599
0.0485216
0.0484935
0.0484301
0.0483241
0.0481684
0.0479571
0.0476863
0.0473564
0.0469771
0.0465732
0.0461898
0.045891
0.0457491
0.0458256
0.0461388
0.0466084
0.0469114
0.0466022
0.0454971
0.0435445
0.0408007
0.0374488
0.0337991
0.0302324
0.0270975
0.024614
0.0228475
0.0217373
0.021145
0.0209015
0.0208462
0.0208557
0.0487669
0.0487442
0.0486917
0.0486017
0.0484672
0.0482828
0.0480471
0.0477636
0.0474436
0.0471092
0.0467958
0.0465499
0.0464209
0.0464448
0.0466178
0.0468492
0.0468683
0.0463608
0.0452061
0.0433439
0.0407812
0.0376301
0.0341126
0.0305366
0.0272388
0.0244917
0.0224367
0.021075
0.0203018
0.0199537
0.0198547
0.0198547
0.0488672
0.0488561
0.0488273
0.0487713
0.0486778
0.048538
0.0483486
0.0481139
0.0478461
0.0475647
0.0472948
0.0470642
0.046896
0.0467984
0.0467449
0.0466383
0.0462824
0.0455094
0.0442606
0.0424703
0.040104
0.0372071
0.033931
0.0305121
0.0272301
0.0243582
0.0220956
0.0205156
0.0195662
0.0191069
0.0189579
0.0189463
0.0486823
0.048692
0.0487054
0.0487102
0.0486891
0.0486248
0.0485059
0.0483316
0.0481107
0.0478572
0.0475847
0.0473023
0.0470114
0.0467005
0.0463334
0.0458222
0.045062
0.0440226
0.0426881
0.0409832
0.0388414
0.0362507
0.0332932
0.0301412
0.0270177
0.0241609
0.0217885
0.0200388
0.0189268
0.0183531
0.0181475
0.0181219
0.0480622
0.048103
0.0481784
0.0482706
0.0483516
0.0483903
0.0483608
0.0482492
0.0480542
0.0477808
0.0474324
0.0470076
0.0464998
0.0458956
0.0451681
0.0442539
0.0431367
0.0418913
0.040521
0.0389358
0.037048
0.034804
0.0322263
0.0294225
0.0265615
0.0238418
0.0214685
0.0196165
0.0183691
0.0176839
0.0174167
0.017374
0.0468807
0.0469619
0.0471118
0.0473005
0.0474856
0.0476207
0.0476635
0.047582
0.0473609
0.0469978
0.0464944
0.0458522
0.0450735
0.0441593
0.0431032
0.0418704
0.0405113
0.0391618
0.0378266
0.0364016
0.034788
0.0329101
0.0307475
0.0283512
0.0258338
0.0233503
0.021082
0.0192121
0.017874
0.0170904
0.0167595
0.0166963
0.045056
0.0451829
0.0454012
0.0456577
0.0458947
0.0460586
0.0461005
0.0459748
0.0456568
0.045145
0.0444478
0.0435798
0.0425598
0.0414074
0.0401356
0.0387309
0.0372809
0.0359417
0.0347114
0.0334797
0.0321465
0.0306306
0.0288882
0.0269283
0.0248123
0.0226469
0.0205792
0.0187827
0.017417
0.0165619
0.0161711
0.0160844
0.0425481
0.0427181
0.0429677
0.0432109
0.0433875
0.0434586
0.0433901
0.0431375
0.0426771
0.0420126
0.0411597
0.0401431
0.0389939
0.0377426
0.036413
0.0350033
0.0336107
0.0323839
0.0313133
0.0302938
0.0292328
0.0280552
0.0267099
0.0251814
0.0234928
0.0217046
0.01992
0.0182866
0.0169687
0.0160851
0.0156468
0.0155352
0.0393334
0.0395285
0.039731
0.0398357
0.0398153
0.0396759
0.0394146
0.0390016
0.0384203
0.0376714
0.0367689
0.0357379
0.0346103
0.0334178
0.0321856
0.0309165
0.0296994
0.0286595
0.0277833
0.0269799
0.0261717
0.0252957
0.0243049
0.0231742
0.0219035
0.0205183
0.0190777
0.0176883
0.0164973
0.0156422
0.015181
0.0150469
0.0353655
0.03554
0.0355791
0.0354251
0.0351302
0.0347509
0.034309
0.0337887
0.0331742
0.0324539
0.0316318
0.0307244
0.0297564
0.0287533
0.0277362
0.0267089
0.0257427
0.024933
0.0242662
0.0236716
0.02309
0.0224737
0.0217851
0.0209998
0.0201083
0.0191152
0.0180459
0.0169623
0.0159742
0.0152127
0.0147656
0.0146176
0.0305344
0.030599
0.0303708
0.0299494
0.0294529
0.0289442
0.0284434
0.0279366
0.0274039
0.0268234
0.0261888
0.025506
0.0247896
0.0240564
0.0233217
0.0225889
0.0219077
0.0213433
0.0208852
0.0204845
0.0201011
0.0197026
0.0192632
0.0187643
0.0181958
0.0175544
0.0168462
0.0160982
0.0153745
0.0147742
0.0143893
0.0142447
0.0246329
0.0244884
0.024066
0.0235908
0.0231259
0.0226955
0.0223066
0.021945
0.021592
0.0212269
0.0208397
0.0204299
0.020004
0.0195712
0.0191401
0.018713
0.0183187
0.0179938
0.0177323
0.0175063
0.0172934
0.0170754
0.0168377
0.0165695
0.0162641
0.015918
0.0155308
0.0151104
0.014684
0.0143044
0.0140373
0.0139231
0.0174121
0.0172999
0.0170835
0.0168761
0.0166872
0.0165193
0.0163734
0.0162433
0.0161213
0.0159988
0.015871
0.0157369
0.0155982
0.0154577
0.0153181
0.0151802
0.0150533
0.014949
0.0148653
0.0147935
0.0147263
0.014658
0.0145842
0.0145013
0.0144071
0.0143006
0.0141811
0.01405
0.013914
0.0137872
0.0136906
0.0136439
)
;

boundaryField
{
    movingWall
    {
        type            fixedValue;
        value           uniform 0.0135;
    }
    fixedWalls
    {
        type            zeroGradient;
    }
    floor
    {
        type            zeroGradient;
    }
    frontAndBack
    {
        type            empty;
    }
}


// ************************************************************************* //
