/*--------------------------------*- C++ -*----------------------------------*\
| =========                 |                                                 |
| \\      /  F ield         | OpenFOAM: The Open Source CFD Toolbox           |
|  \\    /   O peration     | Version:  2212                                  |
|   \\  /    A nd           | Website:  www.openfoam.com                      |
|    \\/     M anipulation  |                                                 |
\*---------------------------------------------------------------------------*/
FoamFile
{
    version     2.0;
    format      ascii;
    arch        "LSB;label=64;scalar=64";
    class       volScalarField;
    location    "1920";
    object      Saa;
}
// * * * * * * * * * * * * * * * * * * * * * * * * * * * * * * * * * * * * * //

dimensions      [1 -3 0 0 0 0 0];

internalField   nonuniform List<scalar> 
1024
(
0.00548208
0.0054821
0.00548215
0.00548225
0.0054824
0.00548263
0.00548296
0.0054834
0.00548396
0.00548463
0.00548538
0.00548618
0.00548695
0.00548765
0.00548824
0.00548871
0.00548902
0.00548914
0.0054891
0.00548893
0.00548867
0.00548833
0.00548795
0.00548756
0.00548721
0.00548691
0.00548668
0.00548651
0.0054864
0.00548633
0.00548629
0.00548627
0.00548208
0.0054821
0.00548216
0.00548225
0.00548241
0.00548264
0.00548297
0.00548342
0.00548398
0.00548465
0.00548541
0.0054862
0.00548698
0.00548767
0.00548827
0.00548874
0.00548904
0.00548916
0.00548912
0.00548896
0.00548869
0.00548835
0.00548797
0.00548758
0.00548723
0.00548693
0.00548669
0.00548652
0.00548641
0.00548633
0.0054863
0.00548628
0.0054821
0.00548212
0.00548217
0.00548227
0.00548243
0.00548267
0.00548301
0.00548346
0.00548403
0.00548471
0.00548547
0.00548627
0.00548704
0.00548773
0.00548832
0.00548878
0.00548909
0.00548921
0.00548918
0.00548901
0.00548875
0.0054884
0.00548802
0.00548763
0.00548727
0.00548696
0.00548672
0.00548655
0.00548643
0.00548636
0.00548632
0.0054863
0.00548213
0.00548215
0.00548221
0.00548231
0.00548247
0.00548272
0.00548306
0.00548353
0.00548411
0.0054848
0.00548557
0.00548637
0.00548713
0.00548782
0.0054884
0.00548887
0.00548918
0.00548931
0.00548928
0.00548912
0.00548885
0.0054885
0.0054881
0.0054877
0.00548733
0.00548702
0.00548677
0.00548659
0.00548647
0.00548639
0.00548635
0.00548634
0.00548217
0.0054822
0.00548226
0.00548236
0.00548253
0.00548279
0.00548315
0.00548363
0.00548423
0.00548494
0.00548572
0.00548651
0.00548727
0.00548795
0.00548853
0.00548899
0.00548932
0.00548946
0.00548945
0.00548929
0.00548901
0.00548864
0.00548823
0.00548781
0.00548742
0.0054871
0.00548684
0.00548666
0.00548653
0.00548646
0.00548642
0.0054864
0.00548224
0.00548227
0.00548233
0.00548244
0.00548262
0.00548289
0.00548327
0.00548377
0.0054844
0.00548512
0.00548591
0.00548671
0.00548746
0.00548812
0.00548869
0.00548917
0.00548951
0.00548969
0.0054897
0.00548955
0.00548925
0.00548885
0.0054884
0.00548796
0.00548755
0.00548721
0.00548694
0.00548675
0.00548663
0.00548655
0.00548651
0.0054865
0.00548233
0.00548236
0.00548242
0.00548254
0.00548273
0.00548302
0.00548343
0.00548396
0.00548461
0.00548535
0.00548615
0.00548694
0.00548768
0.00548834
0.00548891
0.0054894
0.00548978
0.00549
0.00549004
0.0054899
0.00548959
0.00548915
0.00548866
0.00548817
0.00548773
0.00548737
0.00548709
0.0054869
0.00548677
0.0054867
0.00548666
0.00548665
0.00548245
0.00548248
0.00548254
0.00548267
0.00548287
0.00548318
0.00548361
0.00548417
0.00548485
0.00548562
0.00548643
0.00548722
0.00548795
0.00548859
0.00548917
0.00548969
0.00549012
0.0054904
0.00549048
0.00549036
0.00549004
0.00548957
0.00548902
0.00548848
0.005488
0.00548761
0.00548732
0.00548712
0.005487
0.00548693
0.0054869
0.00548688
0.00548259
0.00548262
0.00548269
0.00548282
0.00548304
0.00548337
0.00548383
0.00548442
0.00548513
0.00548592
0.00548673
0.00548752
0.00548823
0.00548888
0.00548946
0.00549001
0.00549051
0.00549086
0.00549101
0.00549093
0.00549063
0.00549014
0.00548955
0.00548896
0.00548842
0.005488
0.00548769
0.00548749
0.00548736
0.00548729
0.00548726
0.00548726
0.00548275
0.00548278
0.00548286
0.005483
0.00548323
0.00548358
0.00548406
0.00548468
0.00548541
0.00548622
0.00548704
0.00548782
0.00548853
0.00548917
0.00548977
0.00549035
0.0054909
0.00549133
0.00549158
0.00549159
0.00549136
0.00549091
0.00549032
0.00548969
0.00548911
0.00548864
0.0054883
0.00548808
0.00548795
0.00548788
0.00548785
0.00548784
0.00548293
0.00548296
0.00548304
0.00548318
0.00548343
0.00548379
0.00548429
0.00548493
0.00548569
0.00548651
0.00548733
0.00548811
0.00548881
0.00548944
0.00549003
0.00549062
0.00549121
0.00549173
0.0054921
0.00549226
0.00549218
0.00549186
0.00549135
0.00549075
0.00549016
0.00548966
0.00548928
0.00548902
0.00548887
0.00548879
0.00548876
0.00548875
0.00548311
0.00548314
0.00548322
0.00548337
0.00548362
0.00548399
0.0054845
0.00548516
0.00548592
0.00548675
0.00548757
0.00548833
0.00548901
0.0054896
0.00549016
0.00549072
0.00549132
0.00549191
0.00549243
0.0054928
0.00549296
0.00549287
0.00549257
0.00549212
0.0054916
0.00549111
0.00549071
0.00549041
0.00549023
0.00549012
0.00549008
0.00549006
0.00548329
0.00548332
0.0054834
0.00548354
0.00548379
0.00548416
0.00548467
0.00548533
0.00548609
0.00548691
0.00548772
0.00548845
0.00548907
0.0054896
0.00549006
0.00549052
0.00549106
0.0054917
0.00549238
0.005493
0.00549346
0.00549369
0.0054937
0.00549352
0.0054932
0.00549282
0.00549246
0.00549217
0.00549196
0.00549183
0.00549176
0.00549174
0.00548344
0.00548347
0.00548355
0.00548369
0.00548393
0.00548428
0.00548478
0.00548542
0.00548616
0.00548695
0.00548772
0.00548839
0.00548892
0.00548932
0.00548962
0.0054899
0.0054903
0.00549095
0.00549177
0.00549264
0.00549341
0.005494
0.00549437
0.00549452
0.0054945
0.00549435
0.00549413
0.00549392
0.00549374
0.00549362
0.00549355
0.00549352
0.00548355
0.00548358
0.00548365
0.00548378
0.00548401
0.00548434
0.0054848
0.00548539
0.00548608
0.00548682
0.00548752
0.0054881
0.00548851
0.00548874
0.0054888
0.00548882
0.005489
0.00548958
0.00549051
0.00549161
0.0054927
0.00549364
0.00549436
0.00549486
0.00549515
0.00549527
0.00549527
0.0054952
0.00549512
0.00549505
0.005495
0.00549498
0.00548358
0.00548361
0.00548368
0.0054838
0.005484
0.00548429
0.0054847
0.00548522
0.00548583
0.00548648
0.00548709
0.00548757
0.00548783
0.00548786
0.00548767
0.00548738
0.00548728
0.00548771
0.00548868
0.00548998
0.00549139
0.0054927
0.0054938
0.00549464
0.00549522
0.00549559
0.0054958
0.00549588
0.00549591
0.0054959
0.00549588
0.00549588
0.00548351
0.00548354
0.0054836
0.00548371
0.00548388
0.00548413
0.00548448
0.00548492
0.00548543
0.00548598
0.00548649
0.00548686
0.00548701
0.0054869
0.00548651
0.00548597
0.00548558
0.00548578
0.00548665
0.00548805
0.00548972
0.0054914
0.0054929
0.00549412
0.00549502
0.00549564
0.00549602
0.00549624
0.00549634
0.00549638
0.00549639
0.00549639
0.00548334
0.00548337
0.00548343
0.00548353
0.00548368
0.0054839
0.00548419
0.00548456
0.00548499
0.00548544
0.00548586
0.00548615
0.00548624
0.00548606
0.0054856
0.00548495
0.00548441
0.00548441
0.00548511
0.00548644
0.00548819
0.00549011
0.00549195
0.00549352
0.00549475
0.00549562
0.00549619
0.00549653
0.00549671
0.00549679
0.00549681
0.00549682
0.00548312
0.00548314
0.0054832
0.0054833
0.00548344
0.00548363
0.00548388
0.00548419
0.00548455
0.00548493
0.00548527
0.00548551
0.00548558
0.0054854
0.00548496
0.00548432
0.00548377
0.0054837
0.00548428
0.00548547
0.00548717
0.00548915
0.00549117
0.00549299
0.00549447
0.00549558
0.00549633
0.00549679
0.00549704
0.00549716
0.0054972
0.00549721
0.00548286
0.00548289
0.00548294
0.00548303
0.00548317
0.00548334
0.00548357
0.00548384
0.00548414
0.00548446
0.00548474
0.00548494
0.00548499
0.00548484
0.00548448
0.00548395
0.0054835
0.00548348
0.00548401
0.0054851
0.00548668
0.0054886
0.00549065
0.00549259
0.00549425
0.00549553
0.00549644
0.00549702
0.00549735
0.0054975
0.00549756
0.00549757
0.00548262
0.00548264
0.00548269
0.00548278
0.0054829
0.00548306
0.00548326
0.0054835
0.00548376
0.00548403
0.00548427
0.00548443
0.00548449
0.00548439
0.00548414
0.00548378
0.00548353
0.00548362
0.00548417
0.0054852
0.00548666
0.00548846
0.00549042
0.00549236
0.00549409
0.0054955
0.00549653
0.00549722
0.00549762
0.00549782
0.00549789
0.00549791
0.00548246
0.00548248
0.00548251
0.00548258
0.00548268
0.00548281
0.00548298
0.00548319
0.00548342
0.00548364
0.00548385
0.00548401
0.00548409
0.00548408
0.00548398
0.00548385
0.00548384
0.00548411
0.00548471
0.00548568
0.00548701
0.00548865
0.00549047
0.00549231
0.00549403
0.00549549
0.00549661
0.00549739
0.00549786
0.0054981
0.0054982
0.00549822
0.00548247
0.00548247
0.00548248
0.00548251
0.00548257
0.00548266
0.00548279
0.00548296
0.00548315
0.00548335
0.00548355
0.00548373
0.00548388
0.005484
0.0054841
0.00548424
0.00548449
0.00548492
0.00548557
0.00548649
0.00548768
0.00548913
0.00549076
0.00549246
0.00549408
0.00549552
0.00549669
0.00549753
0.00549807
0.00549836
0.00549848
0.0054985
0.00548272
0.00548271
0.00548268
0.00548266
0.00548266
0.00548269
0.00548277
0.0054829
0.00548306
0.00548327
0.0054835
0.00548375
0.00548402
0.00548431
0.00548463
0.00548501
0.00548549
0.00548606
0.00548674
0.00548758
0.00548862
0.00548987
0.00549128
0.00549277
0.00549426
0.00549562
0.00549678
0.00549766
0.00549825
0.00549858
0.00549872
0.00549876
0.00548329
0.00548325
0.00548319
0.00548311
0.00548305
0.00548302
0.00548305
0.00548315
0.00548332
0.00548357
0.00548387
0.00548423
0.00548465
0.00548511
0.00548562
0.00548621
0.00548685
0.0054875
0.00548817
0.00548891
0.00548979
0.00549082
0.00549199
0.00549327
0.00549457
0.00549581
0.00549691
0.0054978
0.00549842
0.00549878
0.00549895
0.00549899
0.0054842
0.00548414
0.00548404
0.00548393
0.00548383
0.00548378
0.0054838
0.00548391
0.00548412
0.00548443
0.00548483
0.0054853
0.00548585
0.00548644
0.00548709
0.00548778
0.00548849
0.00548915
0.00548978
0.00549042
0.00549113
0.00549196
0.00549289
0.00549393
0.00549502
0.0054961
0.0054971
0.00549795
0.00549857
0.00549896
0.00549915
0.0054992
0.00548548
0.00548539
0.00548527
0.00548516
0.00548509
0.00548508
0.00548515
0.00548532
0.00548559
0.00548597
0.00548644
0.00548698
0.00548759
0.00548825
0.00548893
0.00548964
0.00549034
0.00549095
0.0054915
0.00549203
0.00549259
0.00549322
0.00549394
0.00549474
0.00549561
0.0054965
0.00549736
0.00549813
0.00549873
0.00549913
0.00549932
0.00549938
0.00548711
0.00548701
0.00548691
0.00548687
0.0054869
0.00548699
0.00548714
0.00548738
0.00548771
0.00548812
0.00548861
0.00548916
0.00548975
0.00549038
0.00549102
0.00549166
0.00549228
0.0054928
0.00549325
0.00549367
0.00549409
0.00549456
0.00549508
0.00549567
0.00549632
0.00549701
0.00549771
0.00549836
0.0054989
0.00549928
0.00549948
0.00549954
0.00548912
0.00548903
0.00548901
0.0054891
0.00548926
0.00548946
0.0054897
0.00548999
0.00549032
0.00549071
0.00549115
0.00549163
0.00549214
0.00549267
0.00549319
0.00549372
0.00549421
0.00549462
0.00549496
0.00549527
0.00549557
0.0054959
0.00549626
0.00549667
0.00549713
0.00549762
0.00549814
0.00549865
0.00549909
0.00549942
0.00549962
0.00549968
0.00549155
0.00549151
0.00549163
0.00549185
0.0054921
0.00549237
0.00549263
0.0054929
0.00549318
0.00549349
0.00549383
0.00549419
0.00549457
0.00549495
0.00549533
0.00549571
0.00549606
0.00549635
0.00549658
0.00549679
0.00549699
0.0054972
0.00549743
0.00549769
0.00549798
0.0054983
0.00549864
0.00549899
0.00549932
0.00549958
0.00549974
0.0054998
0.00549449
0.00549456
0.00549478
0.00549502
0.00549525
0.00549547
0.00549567
0.00549586
0.00549605
0.00549624
0.00549645
0.00549667
0.00549689
0.00549712
0.00549734
0.00549756
0.00549776
0.00549793
0.00549806
0.00549818
0.00549829
0.0054984
0.00549853
0.00549867
0.00549882
0.005499
0.00549918
0.00549938
0.00549957
0.00549974
0.00549985
0.00549989
0.00549807
0.00549813
0.00549824
0.00549834
0.00549844
0.00549852
0.0054986
0.00549866
0.00549873
0.00549879
0.00549886
0.00549893
0.005499
0.00549908
0.00549915
0.00549922
0.00549929
0.00549934
0.00549938
0.00549942
0.00549945
0.00549949
0.00549953
0.00549957
0.00549962
0.00549967
0.00549973
0.00549979
0.00549986
0.00549991
0.00549995
0.00549997
)
;

boundaryField
{
    movingWall
    {
        type            fixedValue;
        value           uniform 0.0055;
    }
    fixedWalls
    {
        type            zeroGradient;
    }
    floor
    {
        type            zeroGradient;
    }
    frontAndBack
    {
        type            empty;
    }
}


// ************************************************************************* //
