/*--------------------------------*- C++ -*----------------------------------*\
| =========                 |                                                 |
| \\      /  F ield         | OpenFOAM: The Open Source CFD Toolbox           |
|  \\    /   O peration     | Version:  2212                                  |
|   \\  /    A nd           | Website:  www.openfoam.com                      |
|    \\/     M anipulation  |                                                 |
\*---------------------------------------------------------------------------*/
FoamFile
{
    version     2.0;
    format      ascii;
    arch        "LSB;label=64;scalar=64";
    class       volScalarField;
    location    "1920";
    object      Sco2;
}
// * * * * * * * * * * * * * * * * * * * * * * * * * * * * * * * * * * * * * //

dimensions      [1 -3 0 0 0 0 0];

internalField   nonuniform List<scalar> 
1024
(
0.00631768
0.0063197
0.00632465
0.00633376
0.00634854
0.00637078
0.0064024
0.00644515
0.00650012
0.00656721
0.00664466
0.0067289
0.00681512
0.00689839
0.0069747
0.00704083
0.0070888
0.00711203
0.00711277
0.00709538
0.00706363
0.00702178
0.00697474
0.00692752
0.00688444
0.00684829
0.00682017
0.00679977
0.00678598
0.00677742
0.00677275
0.00677085
0.00631832
0.00632036
0.00632536
0.00633455
0.00634946
0.00637191
0.00640382
0.00644693
0.0065023
0.00656979
0.00664757
0.00673201
0.00681832
0.00690159
0.00697786
0.00704399
0.00709207
0.00711548
0.00711638
0.00709909
0.0070673
0.00702529
0.00697798
0.00693041
0.00688691
0.00685035
0.00682186
0.0068012
0.00678724
0.00677858
0.00677387
0.00677196
0.0063199
0.00632197
0.00632706
0.00633644
0.00635166
0.00637458
0.00640715
0.00645106
0.00650733
0.0065757
0.00665418
0.00673907
0.00682554
0.00690878
0.00698502
0.00705128
0.00709981
0.00712386
0.00712528
0.00710816
0.00707607
0.00703337
0.0069852
0.0069367
0.00689227
0.00685486
0.00682567
0.0068045
0.00679023
0.00678141
0.00677663
0.00677469
0.00632273
0.00632486
0.00633012
0.0063398
0.00635555
0.00637926
0.0064129
0.00645816
0.0065159
0.00658569
0.00666529
0.00675086
0.00683755
0.00692077
0.00699707
0.00706382
0.00711351
0.00713906
0.00714163
0.00712476
0.00709179
0.00704742
0.00699735
0.00694705
0.00690103
0.00686229
0.00683209
0.00681022
0.00679553
0.00678652
0.00678167
0.00677972
0.00632721
0.00632943
0.00633492
0.00634506
0.00636156
0.00638642
0.00642162
0.00646881
0.00652866
0.00660043
0.00668157
0.00676801
0.00685499
0.00693826
0.00701491
0.00708287
0.00713492
0.00716337
0.00716801
0.00715149
0.00711681
0.00706932
0.00701579
0.00696239
0.00691389
0.00687328
0.00684178
0.0068191
0.00680399
0.0067948
0.00678993
0.00678801
0.0063337
0.00633604
0.00634184
0.00635258
0.0063701
0.00639648
0.00643377
0.00648348
0.00654607
0.00662035
0.00670339
0.00679089
0.00687827
0.00696183
0.00703941
0.00710973
0.00716594
0.00719918
0.00720715
0.00719118
0.00715391
0.00710159
0.00704261
0.00698438
0.00693219
0.00688902
0.00685592
0.00683237
0.0068169
0.00680766
0.00680286
0.00680103
0.00634255
0.00634502
0.00635119
0.00636267
0.00638145
0.00640972
0.00644957
0.00650238
0.00656824
0.00664549
0.00673073
0.00681948
0.00690748
0.0069918
0.00707126
0.00714555
0.00720817
0.00724849
0.0072614
0.00724655
0.00720621
0.00714764
0.00708113
0.00701597
0.00695853
0.0069119
0.0068768
0.00685232
0.0068366
0.00682747
0.00682291
0.00682124
0.00635394
0.00635656
0.00636314
0.00637546
0.00639568
0.00642614
0.00646892
0.00652524
0.00659479
0.00667534
0.00676301
0.00685326
0.00694228
0.0070281
0.00711066
0.00719077
0.00726218
0.00731199
0.00733187
0.00731966
0.00727707
0.00721203
0.00713665
0.00706259
0.00699803
0.00694668
0.00690893
0.0068833
0.00686737
0.00685849
0.0068543
0.00685289
0.00636784
0.0063706
0.0063776
0.00639081
0.00641256
0.00644534
0.00649126
0.00655131
0.00662474
0.00670877
0.00679907
0.00689112
0.0069817
0.00706986
0.00715672
0.00724418
0.00732623
0.00738775
0.00741739
0.00741117
0.00736972
0.00730075
0.00721739
0.00713361
0.00706015
0.00700234
0.00696075
0.00693331
0.00691686
0.00690816
0.00690435
0.00690323
0.00638395
0.00638683
0.00639423
0.00640827
0.00643149
0.00646653
0.0065155
0.00657921
0.00665647
0.00674398
0.00683705
0.00693119
0.00702376
0.00711477
0.00720636
0.00730148
0.00739468
0.00746963
0.00751295
0.00751884
0.0074859
0.00742006
0.00733389
0.00724274
0.00716006
0.00709396
0.00704654
0.0070157
0.00699767
0.00698849
0.00698471
0.00698373
0.00640166
0.00640464
0.00641235
0.00642707
0.00645153
0.0064885
0.00654012
0.00660705
0.00668776
0.00677849
0.00687419
0.00697037
0.00706476
0.00715801
0.00725303
0.00735381
0.00745639
0.00754565
0.00760767
0.00763461
0.00762188
0.00757184
0.00749433
0.00740404
0.00731607
0.00724168
0.00718619
0.00714927
0.00712738
0.00711607
0.00711133
0.00711004
0.00642006
0.0064231
0.006431
0.00644616
0.00647141
0.00650968
0.00656315
0.00663242
0.00671572
0.00680889
0.0069065
0.0070038
0.0070985
0.0071914
0.00728579
0.00738687
0.00749405
0.00759688
0.00768236
0.0077401
0.00776136
0.00774364
0.00769207
0.00761802
0.00753584
0.00745885
0.00739616
0.00735124
0.00732276
0.00730696
0.00729967
0.00729733
0.00643789
0.00644095
0.0064489
0.00646413
0.00648957
0.00652819
0.00658227
0.0066524
0.0067367
0.00683069
0.00692843
0.00702455
0.00711612
0.00720345
0.00728987
0.00738219
0.00748571
0.00759853
0.00770942
0.0078047
0.00787092
0.00790035
0.00789264
0.00785405
0.00779553
0.00772983
0.00766844
0.00761899
0.00758421
0.00756293
0.007552
0.007548
0.0064535
0.00645653
0.00646434
0.00647925
0.00650408
0.00654179
0.00659472
0.00666354
0.00674633
0.00683839
0.00693318
0.00702424
0.00710737
0.00718171
0.0072503
0.00732207
0.00741063
0.00752616
0.00765978
0.00779379
0.00790944
0.00799368
0.00804099
0.00805264
0.0080352
0.0079986
0.00795402
0.00791133
0.00787703
0.00785358
0.0078403
0.00783495
0.00646462
0.00646759
0.00647508
0.0064892
0.00651253
0.00654785
0.00659745
0.00666208
0.00673996
0.0068263
0.00691395
0.00699519
0.007064
0.00711777
0.00715889
0.00719836
0.00725945
0.00736721
0.00751661
0.00768617
0.00785109
0.00799193
0.00809763
0.00816506
0.00819721
0.00820119
0.00818649
0.008163
0.00813909
0.00812007
0.00810804
0.00810273
0.00646815
0.00647101
0.00647804
0.00649096
0.00651193
0.00654335
0.00658727
0.00664451
0.00671357
0.00678989
0.00686614
0.00693356
0.0069842
0.0070133
0.00702194
0.00702198
0.00704511
0.00713208
0.00728567
0.00748388
0.0076966
0.00789625
0.00806371
0.00818987
0.00827407
0.00832149
0.00834065
0.00834137
0.00833291
0.00832246
0.00831433
0.00831026
0.00646075
0.0064635
0.00647003
0.00648165
0.00649998
0.00652686
0.00656395
0.00661199
0.00666984
0.00673361
0.00679642
0.00684934
0.00688333
0.00689178
0.00687376
0.00683972
0.00682445
0.00687939
0.00701875
0.00722778
0.00747708
0.00773249
0.00796437
0.00815391
0.00829392
0.00838652
0.00843966
0.00846398
0.00847035
0.00846807
0.00846366
0.00846077
0.00644364
0.00644631
0.00645246
0.00646306
0.00647926
0.00650232
0.00653343
0.00657315
0.00662059
0.00667259
0.00672325
0.00676441
0.00678717
0.00678427
0.00675343
0.00670291
0.00666622
0.00669545
0.00681088
0.00700866
0.00726848
0.00755821
0.00784166
0.00808952
0.00828502
0.00842416
0.0085124
0.00856055
0.00858123
0.00858625
0.00858478
0.00858263
0.006421
0.00642359
0.00642945
0.00643932
0.006454
0.0064743
0.00650094
0.00653421
0.00657332
0.00661572
0.00665658
0.00668898
0.00670507
0.00669812
0.00666561
0.00661439
0.00657555
0.00659608
0.00669568
0.00687669
0.0071282
0.00742629
0.0077366
0.00802463
0.00826502
0.008446
0.00856816
0.00864049
0.0086761
0.00868875
0.00869021
0.00868869
0.00639636
0.00639878
0.00640423
0.00641336
0.00642676
0.00644496
0.00646827
0.00649668
0.00652936
0.00656415
0.00659719
0.00662296
0.00663523
0.00662871
0.00660183
0.0065615
0.00653556
0.00656238
0.0066578
0.00682629
0.00706301
0.0073522
0.00766711
0.0079749
0.00824546
0.00845982
0.0086123
0.00870812
0.00875922
0.00878022
0.00878497
0.00878414
0.00637526
0.00637722
0.00638174
0.00638947
0.00640105
0.00641692
0.00643722
0.00646163
0.00648919
0.00651799
0.00654499
0.00656619
0.00657735
0.00657536
0.00656054
0.00654074
0.00653926
0.00658319
0.00668289
0.00684359
0.0070647
0.00733658
0.00764009
0.00794869
0.00823332
0.00847044
0.00864783
0.00876538
0.00883212
0.00886215
0.00887067
0.00887066
0.00636668
0.00636763
0.00637011
0.00637492
0.00638296
0.00639498
0.00641128
0.00643148
0.00645454
0.00647878
0.00650203
0.00652192
0.00653644
0.00654492
0.00654963
0.00655896
0.00658982
0.00665664
0.00676446
0.00691897
0.00712315
0.00737309
0.00765579
0.00795084
0.00823411
0.00848201
0.00867734
0.00881374
0.00889571
0.00893535
0.0089482
0.00894918
0.00638271
0.00638186
0.00638069
0.00638026
0.00638204
0.00638756
0.00639777
0.00641277
0.00643178
0.00645362
0.00647711
0.00650146
0.00652657
0.00655345
0.00658521
0.00662942
0.00669514
0.00678494
0.00690015
0.0070473
0.00723211
0.00745565
0.00771085
0.00798288
0.00825248
0.00849909
0.00870391
0.00885497
0.00895098
0.00900051
0.00901824
0.00902044
0.00643627
0.00643274
0.00642622
0.00641825
0.00641123
0.00640785
0.00641036
0.00641995
0.00643674
0.0064603
0.00649034
0.00652699
0.00657083
0.006623
0.00668584
0.00676482
0.00686132
0.00696887
0.00708717
0.00722399
0.0073869
0.00758053
0.00780297
0.00804495
0.00829189
0.00852667
0.00873158
0.00889148
0.00899919
0.00905835
0.00908141
0.00908509
0.00653828
0.00653127
0.00651832
0.00650202
0.00648602
0.00647433
0.0064706
0.0064776
0.00649665
0.00652796
0.00657139
0.0066268
0.00669402
0.00677294
0.00686412
0.00697058
0.00708793
0.00720445
0.00731971
0.00744271
0.00758196
0.00774402
0.00793064
0.00813745
0.00835475
0.00856914
0.00876498
0.00892644
0.00904199
0.00910965
0.00913821
0.00914366
0.00669581
0.00668484
0.00666599
0.00664384
0.00662337
0.00660919
0.00660555
0.00661637
0.0066438
0.00668795
0.00674811
0.00682302
0.00691106
0.00701053
0.00712032
0.00724159
0.00736678
0.0074824
0.00758861
0.00769492
0.00780998
0.0079408
0.00809117
0.00826033
0.00844297
0.0086299
0.00880843
0.00896355
0.00908149
0.00915534
0.00918908
0.00919656
0.0069123
0.00689762
0.00687607
0.00685505
0.0068398
0.00683364
0.00683953
0.00686132
0.00690104
0.00695838
0.00703199
0.00711973
0.00721892
0.00732693
0.0074417
0.0075634
0.00768361
0.00778952
0.00788194
0.00796994
0.00806151
0.00816314
0.00827925
0.00841117
0.00855693
0.0087113
0.00886538
0.00900642
0.00912024
0.00919654
0.0092344
0.00924402
0.00718979
0.00717295
0.00715547
0.00714642
0.00714817
0.00716018
0.00718273
0.00721837
0.00726853
0.00733316
0.00741106
0.00750004
0.00759737
0.0077003
0.00780666
0.00791621
0.00802128
0.00811105
0.00818669
0.00825603
0.00832579
0.00840139
0.0084869
0.0085845
0.00869418
0.00881377
0.00893815
0.00905812
0.00916098
0.00923483
0.00927466
0.00928624
0.00753232
0.00751726
0.00751388
0.00752717
0.00755262
0.00758535
0.00762349
0.00766839
0.00772142
0.00778359
0.00785455
0.00793287
0.00801642
0.00810301
0.0081908
0.00827947
0.00836288
0.00843278
0.00849034
0.00854167
0.00859187
0.00864506
0.00870449
0.00877227
0.00884923
0.00893495
0.00902728
0.00912085
0.00920618
0.00927195
0.00931057
0.00932335
0.00794938
0.00794381
0.0079635
0.00799988
0.00804273
0.00808664
0.00812987
0.00817361
0.00821959
0.00826969
0.00832447
0.0083834
0.00844524
0.00850852
0.00857194
0.00863519
0.00869399
0.00874272
0.00878226
0.00881685
0.00884995
0.00888433
0.00892226
0.00896532
0.0090144
0.00906977
0.00913091
0.0091955
0.009258
0.00930985
0.0093431
0.00935559
0.00845886
0.00847134
0.0085078
0.00854882
0.00858895
0.00862611
0.00865968
0.00869088
0.00872135
0.00875286
0.00878629
0.00882166
0.00885842
0.00889578
0.00893299
0.00896985
0.0090039
0.00903194
0.00905451
0.00907402
0.0090924
0.00911121
0.00913173
0.00915488
0.00918124
0.00921112
0.00924455
0.00928085
0.00931768
0.00935046
0.00937354
0.00938341
0.00908225
0.00909194
0.00911062
0.00912852
0.00914483
0.00915932
0.00917192
0.00918314
0.00919367
0.00920425
0.00921528
0.00922685
0.00923883
0.00925096
0.00926301
0.00927491
0.00928586
0.00929487
0.00930209
0.00930829
0.00931409
0.00931998
0.00932636
0.00933351
0.00934164
0.00935084
0.00936116
0.00937247
0.00938422
0.00939517
0.00940351
0.00940755
)
;

boundaryField
{
    movingWall
    {
        type            fixedValue;
        value           uniform 0.00942;
    }
    fixedWalls
    {
        type            zeroGradient;
    }
    floor
    {
        type            zeroGradient;
    }
    frontAndBack
    {
        type            empty;
    }
}


// ************************************************************************* //
