/*--------------------------------*- C++ -*----------------------------------*\
| =========                 |                                                 |
| \\      /  F ield         | OpenFOAM: The Open Source CFD Toolbox           |
|  \\    /   O peration     | Version:  2212                                  |
|   \\  /    A nd           | Website:  www.openfoam.com                      |
|    \\/     M anipulation  |                                                 |
\*---------------------------------------------------------------------------*/
FoamFile
{
    version     2.0;
    format      ascii;
    arch        "LSB;label=64;scalar=64";
    class       volScalarField;
    location    "1920";
    object      SIC;
}
// * * * * * * * * * * * * * * * * * * * * * * * * * * * * * * * * * * * * * //

dimensions      [1 -3 0 0 0 0 0];

internalField   nonuniform List<scalar> 
1024
(
0.0919978
0.0919998
0.0920048
0.0920139
0.0920286
0.0920509
0.0920825
0.0921253
0.0921802
0.0922473
0.0923248
0.092409
0.0924952
0.0925785
0.0926548
0.092721
0.0927689
0.0927922
0.0927929
0.0927755
0.0927438
0.092702
0.0926549
0.0926077
0.0925647
0.0925285
0.0925004
0.09248
0.0924662
0.0924577
0.092453
0.0924511
0.0919984
0.0920005
0.0920055
0.0920147
0.0920296
0.092052
0.0920839
0.092127
0.0921824
0.0922499
0.0923277
0.0924121
0.0924984
0.0925817
0.092658
0.0927241
0.0927722
0.0927956
0.0927965
0.0927793
0.0927475
0.0927055
0.0926582
0.0926106
0.0925671
0.0925306
0.0925021
0.0924814
0.0924675
0.0924588
0.0924541
0.0924522
0.092
0.0920021
0.0920072
0.0920165
0.0920318
0.0920547
0.0920873
0.0921312
0.0921874
0.0922558
0.0923343
0.0924192
0.0925057
0.0925889
0.0926652
0.0927314
0.0927799
0.092804
0.0928054
0.0927883
0.0927562
0.0927136
0.0926654
0.0926169
0.0925725
0.0925351
0.0925059
0.0924847
0.0924705
0.0924616
0.0924569
0.0924549
0.0920028
0.092005
0.0920102
0.0920199
0.0920357
0.0920594
0.092093
0.0921383
0.092196
0.0922658
0.0923454
0.092431
0.0925177
0.0926009
0.0926772
0.092744
0.0927936
0.0928192
0.0928218
0.0928049
0.092772
0.0927276
0.0926776
0.0926273
0.0925812
0.0925425
0.0925123
0.0924905
0.0924758
0.0924668
0.0924619
0.09246
0.0920073
0.0920095
0.092015
0.0920252
0.0920417
0.0920665
0.0921017
0.0921489
0.0922088
0.0922805
0.0923617
0.0924481
0.0925351
0.0926184
0.092695
0.092763
0.0928151
0.0928435
0.0928482
0.0928317
0.092797
0.0927495
0.092696
0.0926426
0.0925941
0.0925535
0.092522
0.0924993
0.0924842
0.092475
0.0924702
0.0924682
0.0920138
0.0920161
0.0920219
0.0920327
0.0920502
0.0920766
0.0921139
0.0921636
0.0922262
0.0923005
0.0923835
0.092471
0.0925584
0.092642
0.0927195
0.0927899
0.0928461
0.0928793
0.0928873
0.0928713
0.0928341
0.0927818
0.0927228
0.0926646
0.0926124
0.0925693
0.0925362
0.0925126
0.0924971
0.0924879
0.0924831
0.0924813
0.0920227
0.0920251
0.0920313
0.0920428
0.0920616
0.0920898
0.0921297
0.0921825
0.0922484
0.0923256
0.0924108
0.0924996
0.0925876
0.0926719
0.0927514
0.0928257
0.0928883
0.0929286
0.0929415
0.0929267
0.0928864
0.0928278
0.0927613
0.0926962
0.0926388
0.0925921
0.092557
0.0925326
0.0925168
0.0925077
0.0925032
0.0925015
0.092034
0.0920367
0.0920432
0.0920556
0.0920758
0.0921062
0.092149
0.0922054
0.0922749
0.0923555
0.0924431
0.0925334
0.0926224
0.0927082
0.0927908
0.0928709
0.0929423
0.0929921
0.093012
0.0929998
0.0929573
0.0928922
0.0928169
0.0927428
0.0926783
0.0926269
0.0925892
0.0925636
0.0925476
0.0925388
0.0925346
0.0925332
0.0920479
0.0920507
0.0920577
0.0920709
0.0920927
0.0921255
0.0921714
0.0922314
0.0923049
0.0923889
0.0924792
0.0925712
0.0926618
0.09275
0.0928368
0.0929243
0.0930063
0.0930679
0.0930975
0.0930913
0.0930499
0.092981
0.0928976
0.0928139
0.0927404
0.0926826
0.092641
0.0926136
0.0925971
0.0925884
0.0925846
0.0925835
0.0920641
0.0920669
0.0920743
0.0920884
0.0921116
0.0921466
0.0921956
0.0922593
0.0923366
0.0924241
0.0925172
0.0926113
0.0927039
0.0927949
0.0928864
0.0929816
0.0930747
0.0931497
0.0931931
0.093199
0.0931661
0.0931003
0.0930141
0.092923
0.0928403
0.0927743
0.0927268
0.092696
0.092678
0.0926688
0.092665
0.092664
0.0920818
0.0920848
0.0920925
0.0921072
0.0921316
0.0921686
0.0922202
0.0922872
0.0923679
0.0924586
0.0925543
0.0926505
0.0927448
0.0928381
0.0929331
0.0930339
0.0931364
0.0932257
0.0932877
0.0933147
0.093302
0.093252
0.0931746
0.0930843
0.0929964
0.092922
0.0928665
0.0928296
0.0928077
0.0927964
0.0927916
0.0927903
0.0921002
0.0921032
0.0921111
0.0921263
0.0921515
0.0921898
0.0922433
0.0923125
0.0923958
0.092489
0.0925866
0.0926839
0.0927786
0.0928714
0.0929658
0.0930669
0.093174
0.0932769
0.0933624
0.0934202
0.0934415
0.0934238
0.0933723
0.0932983
0.0932161
0.0931391
0.0930765
0.0930315
0.093003
0.0929872
0.09298
0.0929776
0.092118
0.0921211
0.092129
0.0921442
0.0921697
0.0922083
0.0922624
0.0923325
0.0924168
0.0925108
0.0926085
0.0927046
0.0927962
0.0928835
0.0929699
0.0930622
0.0931657
0.0932785
0.0933894
0.0934847
0.0935509
0.0935804
0.0935727
0.0935342
0.0934757
0.09341
0.0933487
0.0932992
0.0932645
0.0932432
0.0932322
0.0932282
0.0921336
0.0921366
0.0921444
0.0921593
0.0921842
0.0922219
0.0922748
0.0923436
0.0924264
0.0925185
0.0926132
0.0927043
0.0927874
0.0928617
0.0929303
0.093002
0.0930905
0.093206
0.0933397
0.0934737
0.0935894
0.0936737
0.093721
0.0937327
0.0937153
0.0936787
0.0936342
0.0935915
0.0935572
0.0935337
0.0935205
0.0935151
0.0921447
0.0921477
0.0921552
0.0921693
0.0921926
0.0922279
0.0922775
0.0923422
0.09242
0.0925064
0.092594
0.0926752
0.092744
0.0927977
0.0928388
0.0928783
0.0929393
0.0930471
0.0931965
0.093366
0.093531
0.0936719
0.0937776
0.093845
0.0938772
0.0938812
0.0938665
0.0938431
0.0938192
0.0938001
0.0937881
0.0937828
0.0921482
0.0921511
0.0921581
0.092171
0.092192
0.0922234
0.0922673
0.0923246
0.0923936
0.0924699
0.0925462
0.0926136
0.0926642
0.0926933
0.0927019
0.0927019
0.092725
0.0928119
0.0929655
0.0931637
0.0933765
0.0935762
0.0937436
0.0938698
0.093954
0.0940015
0.0940206
0.0940214
0.0940129
0.0940025
0.0939943
0.0939903
0.0921408
0.0921436
0.0921501
0.0921617
0.0921801
0.0922069
0.092244
0.092292
0.0923499
0.0924136
0.0924764
0.0925293
0.0925633
0.0925717
0.0925537
0.0925196
0.0925043
0.0925593
0.0926986
0.0929076
0.093157
0.0934124
0.0936443
0.0938338
0.0939739
0.0940665
0.0941196
0.094144
0.0941503
0.0941481
0.0941437
0.0941408
0.0921237
0.0921264
0.0921325
0.0921431
0.0921593
0.0921824
0.0922135
0.0922532
0.0923006
0.0923526
0.0924033
0.0924444
0.0924672
0.0924642
0.0924334
0.0923828
0.0923461
0.0923754
0.0924908
0.0926885
0.0929484
0.0932381
0.0935216
0.0937695
0.093965
0.0941041
0.0941924
0.0942405
0.0942612
0.0942662
0.0942648
0.0942626
0.0921011
0.0921036
0.0921095
0.0921194
0.0921341
0.0921544
0.092181
0.0922143
0.0922534
0.0922958
0.0923366
0.092369
0.0923851
0.0923781
0.0923456
0.0922943
0.0922555
0.092276
0.0923756
0.0925566
0.0928081
0.0931062
0.0934165
0.0937046
0.093945
0.094126
0.0942481
0.0943205
0.0943561
0.0943687
0.0943702
0.0943687
0.0920764
0.0920788
0.0920843
0.0920934
0.0921068
0.092125
0.0921483
0.0921767
0.0922094
0.0922442
0.0922772
0.092303
0.0923152
0.0923087
0.0922818
0.0922415
0.0922155
0.0922423
0.0923377
0.0925062
0.0927429
0.0930321
0.0933471
0.0936549
0.0939254
0.0941398
0.0942923
0.0943881
0.0944392
0.0944602
0.094465
0.0944641
0.0920553
0.0920573
0.0920618
0.0920695
0.0920811
0.092097
0.0921173
0.0921417
0.0921692
0.092198
0.092225
0.0922462
0.0922574
0.0922554
0.0922405
0.0922207
0.0922192
0.0922632
0.0923629
0.0925236
0.0927447
0.0930165
0.0933201
0.0936287
0.0939133
0.0941504
0.0943278
0.0944454
0.0945121
0.0945421
0.0945507
0.0945507
0.0920467
0.0920477
0.0920502
0.092055
0.092063
0.092075
0.0920913
0.0921115
0.0921346
0.0921588
0.0921821
0.0922019
0.0922165
0.0922249
0.0922296
0.092239
0.0922698
0.0923366
0.0924444
0.0925989
0.0928031
0.0930531
0.0933358
0.0936308
0.0939141
0.094162
0.0943573
0.0944937
0.0945757
0.0946153
0.0946282
0.0946292
0.0920628
0.0920619
0.0920607
0.0920603
0.0920621
0.0920676
0.0920778
0.0920928
0.0921118
0.0921337
0.0921571
0.0921815
0.0922066
0.0922335
0.0922652
0.0923094
0.0923751
0.0924649
0.0925801
0.0927273
0.0929121
0.0931356
0.0933908
0.0936629
0.0939325
0.0941791
0.0943839
0.094535
0.094631
0.0946805
0.0946982
0.0947004
0.0921163
0.0921128
0.0921063
0.0920983
0.0920913
0.0920879
0.0920904
0.0921
0.0921168
0.0921403
0.0921704
0.092207
0.0922508
0.092303
0.0923658
0.0924448
0.0925413
0.0926489
0.0927672
0.092904
0.0930669
0.0932605
0.093483
0.0937249
0.0939719
0.0942067
0.0944116
0.0945715
0.0946792
0.0947383
0.0947614
0.0947651
0.0922183
0.0922113
0.0921984
0.0921821
0.0921661
0.0921544
0.0921506
0.0921576
0.0921767
0.092208
0.0922514
0.0923068
0.092374
0.0924529
0.0925441
0.0926506
0.0927679
0.0928844
0.0929997
0.0931227
0.093262
0.093424
0.0936106
0.0938174
0.0940347
0.0942491
0.094445
0.0946064
0.094722
0.0947896
0.0948182
0.0948237
0.0923759
0.0923649
0.092346
0.0923239
0.0923034
0.0922892
0.0922856
0.0922964
0.0923238
0.092368
0.0924281
0.092503
0.0925911
0.0926905
0.0928003
0.0929216
0.0930468
0.0931624
0.0932686
0.0933749
0.09349
0.0936208
0.0937712
0.0939403
0.094123
0.0943099
0.0944884
0.0946435
0.0947615
0.0948353
0.0948691
0.0948766
0.0925923
0.0925777
0.0925561
0.0925351
0.0925199
0.0925137
0.0925196
0.0925414
0.0925811
0.0926384
0.092712
0.0927997
0.0928989
0.0930069
0.0931217
0.0932434
0.0933636
0.0934695
0.0935619
0.0936499
0.0937415
0.0938431
0.0939592
0.0940912
0.0942369
0.0943913
0.0945454
0.0946864
0.0948002
0.0948765
0.0949144
0.094924
0.0928698
0.092853
0.0928355
0.0928265
0.0928282
0.0928402
0.0928628
0.0928984
0.0929486
0.0930132
0.0930911
0.0931801
0.0932774
0.0933803
0.0934867
0.0935962
0.0937013
0.093791
0.0938667
0.093936
0.0940058
0.0940814
0.0941669
0.0942645
0.0943742
0.0944938
0.0946181
0.0947381
0.094841
0.0949148
0.0949547
0.0949662
0.0932124
0.0931973
0.0931939
0.0932072
0.0932327
0.0932654
0.0933035
0.0933484
0.0934015
0.0934636
0.0935346
0.0936129
0.0936964
0.093783
0.0938708
0.0939595
0.0940429
0.0941128
0.0941703
0.0942217
0.0942719
0.0943251
0.0943845
0.0944523
0.0945292
0.094615
0.0947073
0.0948008
0.0948862
0.0949519
0.0949906
0.0950033
0.0936294
0.0936238
0.0936435
0.0936799
0.0937228
0.0937667
0.0938099
0.0938536
0.0938996
0.0939497
0.0940045
0.0940634
0.0941252
0.0941885
0.0942519
0.0943152
0.094374
0.0944227
0.0944623
0.0944969
0.0945299
0.0945643
0.0946023
0.0946453
0.0946944
0.0947498
0.0948109
0.0948755
0.094938
0.0949899
0.0950231
0.0950356
0.0941389
0.0941514
0.0941878
0.0942288
0.094269
0.0943061
0.0943397
0.0943709
0.0944014
0.0944329
0.0944663
0.0945017
0.0945384
0.0945758
0.094613
0.0946499
0.0946839
0.0947119
0.0947345
0.094754
0.0947724
0.0947912
0.0948117
0.0948349
0.0948612
0.0948911
0.0949245
0.0949608
0.0949977
0.0950305
0.0950535
0.0950634
0.0947623
0.0947719
0.0947906
0.0948085
0.0948248
0.0948393
0.0948519
0.0948631
0.0948737
0.0948843
0.0948953
0.0949069
0.0949188
0.094931
0.094943
0.0949549
0.0949659
0.0949749
0.0949821
0.0949883
0.0949941
0.095
0.0950064
0.0950135
0.0950216
0.0950308
0.0950412
0.0950525
0.0950642
0.0950752
0.0950835
0.0950875
)
;

boundaryField
{
    movingWall
    {
        type            fixedValue;
        value           uniform 0.0951;
    }
    fixedWalls
    {
        type            zeroGradient;
    }
    floor
    {
        type            zeroGradient;
    }
    frontAndBack
    {
        type            empty;
    }
}


// ************************************************************************* //
