/*--------------------------------*- C++ -*----------------------------------*\
| =========                 |                                                 |
| \\      /  F ield         | OpenFOAM: The Open Source CFD Toolbox           |
|  \\    /   O peration     | Version:  2212                                  |
|   \\  /    A nd           | Website:  www.openfoam.com                      |
|    \\/     M anipulation  |                                                 |
\*---------------------------------------------------------------------------*/
FoamFile
{
    version     2.0;
    format      ascii;
    arch        "LSB;label=64;scalar=64";
    class       surfaceScalarField;
    location    "360";
    object      phi;
}
// * * * * * * * * * * * * * * * * * * * * * * * * * * * * * * * * * * * * * //

dimensions      [0 3 -1 0 0 0 0];

oriented        oriented;

internalField   nonuniform List<scalar> 
1984
(
-2.30025e-09
2.30327e-09
-2.68657e-08
2.45655e-08
-7.16941e-08
4.48281e-08
-1.24254e-07
5.25603e-08
-1.78246e-07
5.39917e-08
-2.3482e-07
5.65729e-08
-2.96827e-07
6.20074e-08
-3.64756e-07
6.79287e-08
-4.35895e-07
7.1139e-08
-5.04368e-07
6.84724e-08
-5.5917e-07
5.48025e-08
-5.8056e-07
2.13893e-08
-5.35705e-07
-4.4854e-08
-3.91491e-07
-1.44214e-07
-1.54823e-07
-2.36669e-07
5.90109e-08
-2.13834e-07
1.6724e-07
-1.08229e-07
2.29229e-07
-6.19887e-08
2.62127e-07
-3.28985e-08
2.81262e-07
-1.91354e-08
2.9274e-07
-1.14778e-08
2.96471e-07
-3.73163e-09
2.9105e-07
5.42138e-09
2.76034e-07
1.50164e-08
2.51841e-07
2.41928e-08
2.19478e-07
3.23637e-08
1.79428e-07
4.00495e-08
1.31963e-07
4.74657e-08
8.00589e-08
5.19035e-08
3.3118e-08
4.69409e-08
5.00773e-09
2.81104e-08
5.008e-09
-3.16743e-08
3.39776e-08
-1.29966e-07
1.22857e-07
-2.79344e-07
1.94206e-07
-4.52606e-07
2.25823e-07
-6.33424e-07
2.34809e-07
-8.19461e-07
2.4261e-07
-1.01243e-06
2.54979e-07
-1.20956e-06
2.65059e-07
-1.40064e-06
2.62212e-07
-1.56693e-06
2.34762e-07
-1.67748e-06
1.65358e-07
-1.68346e-06
2.73702e-08
-1.51187e-06
-2.16444e-07
-1.09511e-06
-5.60983e-07
-4.41858e-07
-8.89917e-07
1.77165e-07
-8.32857e-07
5.17885e-07
-4.48949e-07
7.11279e-07
-2.55383e-07
8.20974e-07
-1.42594e-07
8.86149e-07
-8.43106e-08
9.24159e-07
-4.94886e-08
9.37007e-07
-1.65792e-08
9.22229e-07
2.01991e-08
8.78185e-07
5.90592e-08
8.05057e-07
9.73208e-08
7.04796e-07
1.32624e-07
5.79508e-07
1.65338e-07
4.32823e-07
1.9415e-07
2.75777e-07
2.0895e-07
1.3239e-07
1.90328e-07
3.40801e-08
1.26421e-07
3.90883e-08
-8.20219e-08
1.15999e-07
-2.89375e-07
3.30209e-07
-5.75968e-07
4.80799e-07
-8.97736e-07
5.47591e-07
-1.22928e-06
5.6635e-07
-1.56101e-06
5.74345e-07
-1.88793e-06
5.8189e-07
-2.20052e-06
5.77652e-07
-2.48049e-06
5.42184e-07
-2.69818e-06
4.5245e-07
-2.80809e-06
2.75275e-07
-2.73907e-06
-4.16547e-08
-2.40193e-06
-5.53587e-07
-1.72546e-06
-1.23745e-06
-7.14893e-07
-1.90048e-06
2.82843e-07
-1.83059e-06
8.78724e-07
-1.04483e-06
1.22379e-06
-6.00451e-07
1.43039e-06
-3.49193e-07
1.55768e-06
-2.116e-07
1.63354e-06
-1.25341e-07
1.66352e-06
-4.65674e-08
1.64464e-06
3.90843e-08
1.57397e-06
1.29729e-07
1.45051e-06
2.20775e-07
1.27649e-06
3.06645e-07
1.0565e-06
3.85335e-07
7.99399e-07
4.51248e-07
5.24392e-07
4.83957e-07
2.67068e-07
4.47652e-07
7.67583e-08
3.16731e-07
1.15847e-07
-1.44309e-07
2.60309e-07
-4.83076e-07
6.68977e-07
-9.284e-07
9.26122e-07
-1.41317e-06
1.03236e-06
-1.90036e-06
1.05354e-06
-2.37114e-06
1.04513e-06
-2.81196e-06
1.02271e-06
-3.20641e-06
9.72102e-07
-3.53036e-06
8.66135e-07
-3.74797e-06
6.70056e-07
-3.80601e-06
3.33321e-07
-3.62406e-06
-2.23607e-07
-3.11547e-06
-1.06218e-06
-2.21975e-06
-2.13317e-06
-9.49976e-07
-3.17026e-06
3.4532e-07
-3.12589e-06
1.19166e-06
-1.89117e-06
1.69781e-06
-1.1066e-06
2.01554e-06
-6.6692e-07
2.21987e-06
-4.1593e-07
2.34757e-06
-2.53042e-07
2.40785e-06
-1.06853e-07
2.39636e-06
5.05797e-08
2.30792e-06
2.18169e-07
2.13962e-06
3.89073e-07
1.89346e-06
5.528e-07
1.57686e-06
7.01942e-07
1.20433e-06
8.23775e-07
8.02846e-07
8.8544e-07
4.19551e-07
8.30948e-07
1.2517e-07
6.11111e-07
2.41017e-07
-2.02168e-07
4.62476e-07
-6.64542e-07
1.13135e-06
-1.26132e-06
1.5229e-06
-1.89943e-06
1.67047e-06
-2.52581e-06
1.67991e-06
-3.11086e-06
1.63018e-06
-3.63347e-06
1.54532e-06
-4.07266e-06
1.41129e-06
-4.40227e-06
1.19575e-06
-4.58544e-06
8.53219e-07
-4.5675e-06
3.15384e-07
-4.27364e-06
-5.17471e-07
-3.62149e-06
-1.71432e-06
-2.55626e-06
-3.1984e-06
-1.12429e-06
-4.60223e-06
3.61263e-07
-4.61144e-06
1.41958e-06
-2.94949e-06
2.07413e-06
-1.76115e-06
2.50003e-06
-1.09282e-06
2.78432e-06
-7.00222e-07
2.97124e-06
-4.39964e-07
3.07372e-06
-2.09329e-07
3.08444e-06
3.9865e-08
2.99255e-06
3.1005e-07
2.79203e-06
5.89595e-07
2.48376e-06
8.61073e-07
2.07752e-06
1.10818e-06
1.59365e-06
1.30764e-06
1.06818e-06
1.41091e-06
5.62411e-07
1.33672e-06
1.69631e-07
1.00389e-06
4.10648e-07
-2.34476e-07
6.96953e-07
-7.78913e-07
1.67579e-06
-1.48945e-06
2.23344e-06
-2.24867e-06
2.42968e-06
-2.98328e-06
2.41453e-06
-3.65133e-06
2.29822e-06
-4.22588e-06
2.11987e-06
-4.68486e-06
1.87027e-06
-5.00429e-06
1.51518e-06
-5.15069e-06
9.9962e-07
-5.07175e-06
2.36442e-07
-4.69719e-06
-8.92027e-07
-3.93514e-06
-2.47638e-06
-2.73559e-06
-4.39795e-06
-1.20095e-06
-6.13687e-06
3.7882e-07
-6.19121e-06
1.58147e-06
-4.15214e-06
2.34537e-06
-2.52505e-06
2.85059e-06
-1.59804e-06
3.19445e-06
-1.04408e-06
3.42858e-06
-6.74092e-07
3.57113e-06
-3.51883e-07
3.61229e-06
-1.29632e-09
3.53075e-06
3.91596e-07
3.31447e-06
8.05868e-07
2.96093e-06
1.21462e-06
2.48093e-06
1.58817e-06
1.90089e-06
1.88769e-06
1.26853e-06
2.04327e-06
6.62824e-07
1.94242e-06
1.97899e-07
1.46882e-06
6.08547e-07
-2.2816e-07
9.25113e-07
-7.90705e-07
2.23833e-06
-1.55621e-06
2.99894e-06
-2.39002e-06
3.2635e-06
-3.19602e-06
3.22053e-06
-3.91802e-06
3.02023e-06
-4.52475e-06
2.7266e-06
-4.99631e-06
2.34183e-06
-5.31405e-06
1.83292e-06
-5.44917e-06
1.13474e-06
-5.34643e-06
1.33705e-07
-4.92385e-06
-1.31461e-06
-4.06693e-06
-3.3333e-06
-2.74469e-06
-5.72018e-06
-1.13045e-06
-7.75111e-06
4.81086e-07
-7.80275e-06
1.75377e-06
-5.42483e-06
2.57083e-06
-3.3421e-06
3.10508e-06
-2.13229e-06
3.46421e-06
-1.40321e-06
3.70875e-06
-9.18627e-07
3.86477e-06
-5.0791e-07
3.92393e-06
-6.04548e-08
3.85589e-06
4.5964e-07
3.63629e-06
1.02547e-06
3.25545e-06
1.59545e-06
2.72281e-06
2.12082e-06
2.07088e-06
2.53962e-06
1.36189e-06
2.75226e-06
6.9527e-07
2.60904e-06
2.0084e-07
1.96325e-06
8.09388e-07
-1.84319e-07
1.10943e-06
-6.94695e-07
2.74871e-06
-1.44636e-06
3.75061e-06
-2.30201e-06
4.11915e-06
-3.14253e-06
4.06104e-06
-3.89481e-06
3.77252e-06
-4.52305e-06
3.35483e-06
-5.01107e-06
2.82985e-06
-5.3459e-06
2.16775e-06
-5.50016e-06
1.289e-06
-5.40276e-06
3.63006e-08
-4.94189e-06
-1.77547e-06
-3.98075e-06
-4.29443e-06
-2.53532e-06
-7.16561e-06
-8.59416e-07
-9.42702e-06
7.51573e-07
-9.41374e-06
2.03384e-06
-6.7071e-06
2.84711e-06
-4.15538e-06
3.35417e-06
-2.63935e-06
3.67314e-06
-1.72218e-06
3.87525e-06
-1.12074e-06
3.9967e-06
-6.29358e-07
4.03761e-06
-1.01366e-07
3.9653e-06
5.31948e-07
3.74119e-06
1.24958e-06
3.34378e-06
1.99286e-06
2.7777e-06
2.6869e-06
2.08118e-06
3.23614e-06
1.33301e-06
3.50043e-06
6.53318e-07
3.28874e-06
1.77836e-07
2.43873e-06
9.87223e-07
-1.13839e-07
1.22327e-06
-5.06415e-07
3.14128e-06
-1.17116e-06
4.41536e-06
-1.99289e-06
4.94088e-06
-2.83305e-06
4.9012e-06
-3.59612e-06
4.53558e-06
-4.23721e-06
3.99593e-06
-4.74189e-06
3.33453e-06
-5.10039e-06
2.52625e-06
-5.27967e-06
1.46828e-06
-5.18924e-06
-5.41232e-08
-4.667e-06
-2.29771e-06
-3.57737e-06
-5.38407e-06
-2.01889e-06
-8.72409e-06
-3.27212e-07
-1.11187e-05
1.25794e-06
-1.09989e-05
2.50289e-06
-7.95205e-06
3.26326e-06
-4.91575e-06
3.69399e-06
-3.07007e-06
3.92182e-06
-1.95002e-06
4.02898e-06
-1.2279e-06
4.0631e-06
-6.63478e-07
4.03517e-06
-7.34295e-08
3.92072e-06
6.46394e-07
3.6729e-06
1.4974e-06
3.25599e-06
2.40977e-06
2.66695e-06
3.27594e-06
1.94913e-06
3.95396e-06
1.19861e-06
4.25095e-06
5.52303e-07
3.93504e-06
1.37193e-07
2.85384e-06
1.12442e-06
-3.06315e-08
1.2539e-06
-2.4544e-07
3.35609e-06
-7.38767e-07
4.90868e-06
-1.45986e-06
5.66197e-06
-2.26262e-06
5.70395e-06
-3.0184e-06
5.29136e-06
-3.65867e-06
4.6362e-06
-4.16246e-06
3.83831e-06
-4.51985e-06
2.88364e-06
-4.69402e-06
1.64244e-06
-4.56711e-06
-1.81032e-07
-3.93227e-06
-2.93256e-06
-2.69261e-06
-6.62373e-06
-1.06681e-06
-1.03499e-05
5.58266e-07
-1.27438e-05
2.058e-06
-1.24986e-05
3.21865e-06
-9.1127e-06
3.87808e-06
-5.57518e-06
4.19089e-06
-3.38288e-06
4.28824e-06
-2.04736e-06
4.2598e-06
-1.19946e-06
4.16127e-06
-5.6495e-07
4.01688e-06
7.09619e-08
3.81546e-06
8.47812e-07
3.5118e-06
1.80106e-06
3.05889e-06
2.86268e-06
2.44609e-06
3.88874e-06
1.72217e-06
4.67788e-06
9.99185e-07
4.97393e-06
4.21946e-07
4.51228e-06
9.15987e-08
3.18419e-06
1.21602e-06
5.93254e-08
1.19458e-06
7.01265e-08
3.34529e-06
-1.40178e-07
5.11899e-06
-6.38417e-07
6.16021e-06
-1.34053e-06
6.40607e-06
-2.07076e-06
6.02159e-06
-2.69445e-06
5.2599e-06
-3.16648e-06
4.31034e-06
-3.46491e-06
3.18207e-06
-3.55175e-06
1.72929e-06
-3.29897e-06
-4.3381e-07
-2.47694e-06
-3.75459e-06
-1.09665e-06
-8.00401e-06
4.54277e-07
-1.19008e-05
1.90887e-06
-1.41984e-05
3.24744e-06
-1.38372e-05
4.23093e-06
-1.00962e-05
4.72338e-06
-6.06763e-06
4.87399e-06
-3.53349e-06
4.80979e-06
-1.98317e-06
4.62024e-06
-1.00991e-06
4.35976e-06
-3.04465e-07
4.06317e-06
3.6755e-07
3.7363e-06
1.17468e-06
3.34123e-06
2.19613e-06
2.82762e-06
3.37629e-06
2.18126e-06
4.53511e-06
1.45788e-06
5.40126e-06
7.81972e-07
5.64983e-06
2.93144e-07
5.00111e-06
5.18841e-08
3.42545e-06
1.2679e-06
1.55435e-07
1.03914e-06
4.31122e-07
3.0696e-06
6.19277e-07
4.93083e-06
5.4208e-07
6.23741e-06
1.54377e-07
6.79377e-06
-4.25757e-07
6.60173e-06
-1.01936e-06
5.8535e-06
-1.47539e-06
4.76637e-06
-1.69033e-06
3.39701e-06
-1.5697e-06
1.60866e-06
-9.81306e-07
-1.0222e-06
1.137e-07
-4.8496e-06
1.39195e-06
-9.28226e-06
2.68694e-06
-1.31958e-05
3.87789e-06
-1.53893e-05
4.91382e-06
-1.48731e-05
5.5754e-06
-1.07578e-05
5.80388e-06
-6.29611e-06
5.7354e-06
-3.46501e-06
5.47981e-06
-1.72757e-06
5.11086e-06
-6.40965e-07
4.67265e-06
1.33745e-07
4.21011e-06
8.30097e-07
3.73534e-06
1.64945e-06
3.21996e-06
2.71151e-06
2.61943e-06
3.97682e-06
1.92436e-06
5.23017e-06
1.2009e-06
6.12473e-06
5.809e-07
6.26983e-06
1.84461e-07
5.39755e-06
2.25989e-08
3.58731e-06
1.2905e-06
2.4848e-07
7.90661e-07
8.16341e-07
2.50174e-06
1.48396e-06
4.26321e-06
2.01919e-06
5.70218e-06
2.27111e-06
6.54185e-06
2.20269e-06
6.67014e-06
1.92406e-06
6.13213e-06
1.64454e-06
5.04589e-06
1.57646e-06
3.4651e-06
1.9104e-06
1.27472e-06
2.75798e-06
-1.86979e-06
3.83794e-06
-5.92957e-06
4.91584e-06
-1.03602e-05
5.86774e-06
-1.41477e-05
6.59923e-06
-1.61208e-05
7.07936e-06
-1.53533e-05
7.22003e-06
-1.08984e-05
7.05934e-06
-6.13542e-06
6.70512e-06
-3.11079e-06
6.23097e-06
-1.25342e-06
5.67198e-06
-8.19828e-08
5.06245e-06
7.43275e-07
4.44287e-06
1.44968e-06
3.81702e-06
2.2753e-06
3.16263e-06
3.3659e-06
2.44911e-06
4.69034e-06
1.68436e-06
5.99493e-06
9.53321e-07
6.85576e-06
3.92941e-07
6.83021e-06
9.07374e-08
5.69975e-06
3.89084e-10
3.67766e-06
1.29089e-06
3.09487e-07
4.81174e-07
1.12881e-06
1.68242e-06
2.28111e-06
3.11092e-06
3.51645e-06
4.46684e-06
4.61348e-06
5.44483e-06
5.43953e-06
5.8441e-06
5.98711e-06
5.58454e-06
6.37071e-06
4.6623e-06
6.76735e-06
3.06845e-06
7.32638e-06
7.15691e-07
8.16554e-06
-2.70895e-06
9.04211e-06
-6.80613e-06
9.70053e-06
-1.10186e-05
1.00079e-05
-1.4455e-05
9.93316e-06
-1.60461e-05
9.53333e-06
-1.49534e-05
8.92493e-06
-1.029e-05
8.25316e-06
-5.46365e-06
7.56704e-06
-2.42467e-06
6.86539e-06
-5.51775e-07
6.13005e-06
6.53364e-07
5.40112e-06
1.4722e-06
4.6659e-06
2.1849e-06
3.90575e-06
3.03545e-06
3.09602e-06
4.17563e-06
2.22906e-06
5.55729e-06
1.3568e-06
6.8672e-06
6.09655e-07
7.6029e-06
1.4387e-07
7.296e-06
-2.67474e-08
5.87037e-06
-2.83567e-08
3.67927e-06
1.26253e-06
2.97634e-07
1.8354e-07
1.19369e-06
7.86359e-07
2.63274e-06
1.67187e-06
4.42388e-06
2.6757e-06
6.33092e-06
3.53779e-06
8.15587e-06
4.01915e-06
9.78222e-06
3.95819e-06
1.11878e-05
3.25672e-06
1.24522e-05
1.80405e-06
1.36543e-05
-4.86457e-07
1.46319e-05
-3.68649e-06
1.51456e-05
-7.31985e-06
1.50565e-05
-1.09295e-05
1.43275e-05
-1.3726e-05
1.30605e-05
-1.47792e-05
1.14734e-05
-1.33663e-05
9.9545e-06
-8.77114e-06
8.7437e-06
-4.25285e-06
7.7612e-06
-1.44217e-06
6.90096e-06
3.08464e-07
6.12458e-06
1.42974e-06
5.38358e-06
2.2132e-06
4.60244e-06
2.96604e-06
3.70694e-06
3.93095e-06
2.63722e-06
5.24536e-06
1.44388e-06
6.75063e-06
4.39517e-07
7.87156e-06
-1.78544e-07
8.22096e-06
-3.67972e-07
7.48543e-06
-2.69301e-07
5.7717e-06
-9.39463e-08
3.50391e-06
1.16858e-06
1.78985e-07
4.554e-09
8.50425e-07
1.14919e-07
2.14183e-06
3.80463e-07
4.03715e-06
7.80387e-07
6.38371e-06
1.19122e-06
8.97646e-06
1.4264e-06
1.16344e-05
1.30028e-06
1.42275e-05
6.63615e-07
1.65912e-05
-5.59674e-07
1.84742e-05
-2.36941e-06
1.94633e-05
-4.67563e-06
1.94442e-05
-7.30074e-06
1.8379e-05
-9.8643e-06
1.63706e-05
-1.17176e-05
1.37233e-05
-1.21318e-05
1.09221e-05
-1.05652e-05
8.62709e-06
-6.47609e-06
7.14298e-06
-2.76874e-06
6.191e-06
-4.90187e-07
5.40885e-06
1.09062e-06
4.68554e-06
2.15304e-06
3.80593e-06
3.09281e-06
2.64621e-06
4.12575e-06
1.2407e-06
5.33647e-06
-2.05727e-07
6.69178e-06
-1.37752e-06
7.92241e-06
-1.97494e-06
8.46899e-06
-1.93202e-06
8.17804e-06
-1.43567e-06
6.98907e-06
-7.77158e-07
5.11319e-06
-2.32423e-07
2.95918e-06
9.36162e-07
8.70599e-08
-8.25067e-08
4.68562e-07
-2.66583e-07
1.30497e-06
-4.55948e-07
2.69883e-06
-6.13471e-07
4.62874e-06
-7.38686e-07
6.94457e-06
-8.89429e-07
9.41387e-06
-1.16902e-06
1.17706e-05
-1.69314e-06
1.37104e-05
-2.49944e-06
1.49267e-05
-3.58575e-06
1.52091e-05
-4.95805e-06
1.44314e-05
-6.52297e-06
1.26108e-05
-8.04372e-06
9.89035e-06
-8.99719e-06
6.71411e-06
-8.95553e-06
3.81288e-06
-7.66396e-06
1.92659e-06
-4.5898e-06
7.67443e-07
-1.60959e-06
-2.52771e-07
5.30026e-07
-1.22013e-06
2.05798e-06
-2.24947e-06
3.18239e-06
-3.38801e-06
4.23135e-06
-4.56701e-06
5.30475e-06
-5.6003e-06
6.36976e-06
-6.19686e-06
7.28834e-06
-6.10421e-06
7.82976e-06
-5.37657e-06
7.74135e-06
-4.15092e-06
6.95239e-06
-2.69901e-06
5.53717e-06
-1.34423e-06
3.75841e-06
-3.77015e-07
1.99196e-06
5.59147e-07
9.27936e-08
-1.75301e-07
3.70825e-07
-5.44614e-07
8.55473e-07
-9.40596e-07
1.55895e-06
-1.31695e-06
2.45582e-06
-1.63556e-06
3.45609e-06
-1.88969e-06
4.40677e-06
-2.1197e-06
5.11843e-06
-2.4048e-06
5.43914e-06
-2.82015e-06
5.26317e-06
-3.40978e-06
4.47647e-06
-4.17134e-06
2.98908e-06
-5.03559e-06
8.05545e-07
-5.86018e-06
-1.74355e-06
-6.44809e-06
-4.12057e-06
-6.57852e-06
-5.97793e-06
-5.8066e-06
-7.30979e-06
-3.25794e-06
-8.65976e-06
-2.59629e-07
-9.91947e-06
1.78974e-06
-1.09127e-05
3.05121e-06
-1.17014e-05
3.97113e-06
-1.21987e-05
4.72866e-06
-1.22956e-05
5.4016e-06
-1.1887e-05
5.96119e-06
-1.08981e-05
6.29937e-06
-9.34014e-06
6.27184e-06
-7.36637e-06
5.76758e-06
-5.20629e-06
4.79231e-06
-3.14194e-06
3.47282e-06
-1.45654e-06
2.07301e-06
-3.75464e-07
9.10891e-07
1.83683e-07
4.24832e-08
-2.17784e-07
1.24998e-07
-6.27129e-07
1.98841e-07
-1.01444e-06
2.12473e-07
-1.33058e-06
1.22e-07
-1.54508e-06
-1.0277e-07
-1.66492e-06
-4.87752e-07
-1.73472e-06
-1.06874e-06
-1.82381e-06
-1.89353e-06
-1.99535e-06
-3.00984e-06
-2.29347e-06
-4.44306e-06
-2.73812e-06
-6.16552e-06
-3.31313e-06
-8.07444e-06
-3.95126e-06
-1.00291e-05
-4.49346e-06
-1.19486e-05
-4.65895e-06
-1.37737e-05
-3.98153e-06
-1.54088e-05
-1.62288e-06
-1.67096e-05
1.04121e-06
-1.76811e-05
2.76124e-06
-1.8374e-05
3.74412e-06
-1.86254e-05
4.22253e-06
-1.82927e-05
4.39595e-06
-1.7285e-05
4.39394e-06
-1.55881e-05
4.26427e-06
-1.32828e-05
3.99404e-06
-1.0545e-05
3.53404e-06
-7.61346e-06
2.83605e-06
-4.84037e-06
2.01922e-06
-2.56474e-06
1.19718e-06
-1.01361e-06
5.21879e-07
-2.15987e-07
1.13264e-07
-3.23046e-08
-6.48686e-08
-1.52915e-07
-2.79028e-07
-4.1297e-07
-6.75127e-07
-6.18341e-07
-1.27422e-06
-7.31495e-07
-2.07065e-06
-7.48649e-07
-3.02947e-06
-7.061e-07
-4.10716e-06
-6.57039e-07
-5.28052e-06
-6.50441e-07
-6.55034e-06
-7.25538e-07
-7.92838e-06
-9.15428e-07
-9.42509e-06
-1.24141e-06
-1.10407e-05
-1.69747e-06
-1.27515e-05
-2.24051e-06
-1.45132e-05
-2.73173e-06
-1.6274e-05
-2.89817e-06
-1.79834e-05
-2.27214e-06
-1.94432e-05
-1.63083e-07
-2.05159e-05
2.11388e-06
-2.13273e-05
3.57269e-06
-2.17678e-05
4.18455e-06
-2.16296e-05
4.08442e-06
-2.07374e-05
3.50372e-06
-1.89955e-05
2.65202e-06
-1.64163e-05
1.68508e-06
-1.31648e-05
7.42528e-07
-9.59593e-06
-3.4832e-08
-6.17226e-06
-5.87621e-07
-3.31497e-06
-8.38075e-07
-1.33269e-06
-7.85093e-07
-3.03325e-07
-5.07486e-07
8.524e-09
-1.98585e-07
-2.37806e-08
-1.591e-07
6.18486e-09
-6.14029e-07
4.19592e-08
-1.34648e-06
1.14113e-07
-2.30106e-06
2.2308e-07
-3.40125e-06
3.51542e-07
-4.57761e-06
4.70262e-07
-5.78592e-06
5.51275e-07
-7.00922e-06
5.72852e-07
-8.25012e-06
5.1537e-07
-9.523e-06
3.57451e-07
-1.08431e-05
7.86629e-08
-1.22146e-05
-3.25968e-07
-1.36382e-05
-8.16889e-07
-1.50925e-05
-1.2774e-06
-1.6528e-05
-1.46269e-06
-1.78821e-05
-9.18012e-07
-1.89219e-05
8.76655e-07
-1.96928e-05
2.88484e-06
-2.02634e-05
4.14324e-06
-2.0484e-05
4.40522e-06
-2.01682e-05
3.76853e-06
-1.91663e-05
2.50189e-06
-1.74077e-05
8.93388e-07
-1.49929e-05
-7.29724e-07
-1.2183e-05
-2.06735e-06
-9.1885e-06
-3.02933e-06
-6.3192e-06
-3.45692e-06
-3.80799e-06
-3.34928e-06
-1.86694e-06
-2.72614e-06
-6.3071e-07
-1.74372e-06
-8.68421e-08
-7.42452e-07
-1.10623e-07
-1.4259e-07
1.48775e-07
-5.47204e-07
4.46574e-07
-1.18492e-06
7.51824e-07
-1.99643e-06
1.03459e-06
-2.91938e-06
1.2745e-06
-3.91063e-06
1.46151e-06
-4.94767e-06
1.58832e-06
-6.01978e-06
1.64496e-06
-7.12075e-06
1.61634e-06
-8.24565e-06
1.48234e-06
-9.38764e-06
1.22066e-06
-1.05324e-05
8.18782e-07
-1.16599e-05
3.10573e-07
-1.27463e-05
-1.90976e-07
-1.37652e-05
-4.43744e-07
-1.46582e-05
-2.5023e-08
-1.5285e-05
1.50343e-06
-1.56912e-05
3.29101e-06
-1.58993e-05
4.35142e-06
-1.58446e-05
4.3505e-06
-1.54315e-05
3.35542e-06
-1.45858e-05
1.65614e-06
-1.333e-05
-3.62348e-07
-1.19017e-05
-2.15805e-06
-1.03188e-05
-3.65026e-06
-8.60388e-06
-4.74426e-06
-6.74462e-06
-5.31617e-06
-4.81146e-06
-5.28245e-06
-2.93573e-06
-4.60188e-06
-1.33708e-06
-3.34237e-06
-3.10554e-07
-1.76897e-06
-4.21176e-07
-9.33107e-08
2.42086e-07
-3.55732e-07
7.08996e-07
-7.74908e-07
1.171e-06
-1.32468e-06
1.58437e-06
-1.97096e-06
1.92078e-06
-2.68033e-06
2.17088e-06
-3.42698e-06
2.33496e-06
-4.19507e-06
2.41304e-06
-4.97847e-06
2.39975e-06
-5.77925e-06
2.28312e-06
-6.60405e-06
2.04546e-06
-7.45942e-06
1.67415e-06
-8.33298e-06
1.18413e-06
-9.17171e-06
6.47751e-07
-9.89502e-06
2.79564e-07
-1.04496e-05
5.29535e-07
-1.07282e-05
1.7821e-06
-1.07362e-05
3.29899e-06
-1.05593e-05
4.17451e-06
-1.02275e-05
4.01871e-06
-9.75205e-06
2.87994e-06
-9.15406e-06
1.05815e-06
-8.56925e-06
-9.47156e-07
-8.00824e-06
-2.71906e-06
-7.4078e-06
-4.2507e-06
-6.68168e-06
-5.47037e-06
-5.73221e-06
-6.26564e-06
-4.50774e-06
-6.50693e-06
-3.059e-06
-6.05061e-06
-1.57393e-06
-4.82744e-06
-4.21721e-07
-2.92118e-06
-8.42897e-07
-5.06234e-08
2.92709e-07
-2.06357e-07
8.64729e-07
-4.67568e-07
1.43221e-06
-8.17114e-07
1.93391e-06
-1.22779e-06
2.33145e-06
-1.67113e-06
2.61422e-06
-2.12439e-06
2.78823e-06
-2.57466e-06
2.86331e-06
-3.02144e-06
2.84653e-06
-3.47526e-06
2.73694e-06
-3.95361e-06
2.52381e-06
-4.47411e-06
2.19466e-06
-5.03944e-06
1.74946e-06
-5.62402e-06
1.23233e-06
-6.16039e-06
8.15933e-07
-6.52401e-06
8.93163e-07
-6.53206e-06
1.79015e-06
-6.21316e-06
2.98009e-06
-5.71491e-06
3.67625e-06
-5.13809e-06
3.44189e-06
-4.5867e-06
2.32856e-06
-4.17604e-06
6.47489e-07
-3.98754e-06
-1.13566e-06
-3.97876e-06
-2.72784e-06
-4.06367e-06
-4.1658e-06
-4.11866e-06
-5.41538e-06
-3.98975e-06
-6.39455e-06
-3.5249e-06
-6.97177e-06
-2.68452e-06
-6.891e-06
-1.56253e-06
-5.94943e-06
-4.87418e-07
-3.9963e-06
-1.33031e-06
-3.29303e-08
3.25639e-07
-1.35351e-07
9.67149e-07
-3.02037e-07
1.5989e-06
-5.12541e-07
2.14442e-06
-7.40987e-07
2.5599e-06
-9.63621e-07
2.83685e-06
-1.16368e-06
2.98829e-06
-1.3342e-06
3.03383e-06
-1.48299e-06
2.99532e-06
-1.6281e-06
2.88204e-06
-1.79414e-06
2.68985e-06
-2.00857e-06
2.40909e-06
-2.29331e-06
2.0342e-06
-2.64691e-06
1.58593e-06
-3.01136e-06
1.18038e-06
-3.2342e-06
1.116e-06
-3.09244e-06
1.64839e-06
-2.58727e-06
2.47492e-06
-1.89343e-06
2.98241e-06
-1.17271e-06
2.72118e-06
-5.76505e-07
1.73235e-06
-2.38182e-07
3.09166e-07
-2.45768e-07
-1.12807e-06
-5.24722e-07
-2.44888e-06
-9.81442e-07
-3.70908e-06
-1.52431e-06
-4.87251e-06
-2.01335e-06
-5.90551e-06
-2.22986e-06
-6.75526e-06
-2.03427e-06
-7.08658e-06
-1.3868e-06
-6.59691e-06
-5.16481e-07
-4.86662e-06
-1.8468e-06
-4.19265e-08
3.67565e-07
-1.43932e-07
1.06915e-06
-2.71389e-07
1.72635e-06
-3.89456e-07
2.26248e-06
-4.74894e-07
2.64534e-06
-5.14342e-07
2.8763e-06
-5.01587e-07
2.97553e-06
-4.39412e-07
2.97166e-06
-3.45185e-07
2.9011e-06
-2.40898e-07
2.77775e-06
-1.51067e-07
2.60002e-06
-1.02636e-07
2.36066e-06
-1.22369e-07
2.05394e-06
-2.2749e-07
1.69105e-06
-3.87472e-07
1.34037e-06
-4.77044e-07
1.20558e-06
-2.77885e-07
1.44923e-06
2.72256e-07
1.92478e-06
1.02962e-06
2.22504e-06
1.76723e-06
1.98356e-06
2.30628e-06
1.1933e-06
2.52197e-06
9.34745e-08
2.41843e-06
-1.02453e-06
2.06085e-06
-2.09131e-06
1.48345e-06
-3.13168e-06
7.40234e-07
-4.12929e-06
-8.25811e-08
-5.0827e-06
-8.34756e-07
-6.00309e-06
-1.23714e-06
-6.6842e-06
-1.10265e-06
-6.7314e-06
-5.15609e-07
-5.45365e-06
-2.36241e-06
-8.22735e-08
4.49839e-07
-2.28519e-07
1.2154e-06
-3.49907e-07
1.84774e-06
-3.96492e-07
2.30907e-06
-3.5613e-07
2.60497e-06
-2.31955e-07
2.75212e-06
-3.05598e-08
2.77413e-06
2.28428e-07
2.71267e-06
5.16849e-07
2.61268e-06
8.14557e-07
2.48005e-06
1.10194e-06
2.31264e-06
1.35767e-06
2.10493e-06
1.5598e-06
1.8518e-06
1.69119e-06
1.55966e-06
1.75868e-06
1.27288e-06
1.84101e-06
1.12324e-06
2.09779e-06
1.19245e-06
2.60834e-06
1.41423e-06
3.27703e-06
1.55635e-06
3.91447e-06
1.34613e-06
4.35069e-06
7.57081e-07
4.49171e-06
-4.75421e-08
4.34942e-06
-8.82238e-07
3.95458e-06
-1.69647e-06
3.3305e-06
-2.5076e-06
2.51809e-06
-3.31689e-06
1.56889e-06
-4.13349e-06
5.39934e-07
-4.97413e-06
-3.33659e-07
-5.81061e-06
-7.25584e-07
-6.33947e-06
-4.79719e-07
-5.69952e-06
-2.84212e-06
-1.63586e-07
6.13424e-07
-3.80697e-07
1.43251e-06
-4.91503e-07
1.95855e-06
-4.51195e-07
2.26876e-06
-2.73385e-07
2.42716e-06
2.22049e-08
2.45653e-06
4.01855e-07
2.39448e-06
8.22994e-07
2.29153e-06
1.26778e-06
2.16789e-06
1.72051e-06
2.02732e-06
2.16559e-06
1.86755e-06
2.58621e-06
1.68431e-06
2.96416e-06
1.47385e-06
3.28309e-06
1.24073e-06
3.54094e-06
1.01503e-06
3.78269e-06
8.81488e-07
4.09916e-06
8.75984e-07
4.54782e-06
9.65573e-07
5.08932e-06
1.01485e-06
5.59312e-06
8.42329e-07
5.92943e-06
4.20764e-07
6.01699e-06
-1.35099e-07
5.84672e-06
-7.11967e-07
5.4345e-06
-1.28424e-06
4.79065e-06
-1.86375e-06
3.9367e-06
-2.46295e-06
2.90877e-06
-3.10555e-06
1.76446e-06
-3.82983e-06
6.17763e-07
-4.66391e-06
-2.35822e-07
-5.48589e-06
-3.92423e-07
-5.54292e-06
-3.23455e-06
-2.85691e-07
8.99115e-07
-5.5785e-07
1.70467e-06
-5.91628e-07
1.99233e-06
-4.01158e-07
2.07829e-06
-3.63131e-08
2.06232e-06
4.45782e-07
1.97444e-06
9.83905e-07
1.85636e-06
1.54982e-06
1.72561e-06
2.12803e-06
1.58969e-06
2.70568e-06
1.44967e-06
3.26937e-06
1.30386e-06
3.80406e-06
1.14962e-06
4.29298e-06
9.8493e-07
4.72037e-06
8.13342e-07
5.0812e-06
6.54204e-07
5.40421e-06
5.58471e-07
5.73881e-06
5.41386e-07
6.12583e-06
5.78555e-07
6.55214e-06
5.88546e-07
6.93063e-06
4.63842e-07
7.16439e-06
1.87e-07
7.19176e-06
-1.62469e-07
6.99779e-06
-5.17999e-07
6.58564e-06
-8.72093e-07
5.95674e-06
-1.23485e-06
5.11621e-06
-1.62241e-06
4.07765e-06
-2.06699e-06
2.87287e-06
-2.62505e-06
1.57857e-06
-3.36961e-06
3.90387e-07
-4.2977e-06
-2.2388e-07
-4.92865e-06
-3.45843e-06
-4.23627e-07
1.32274e-06
-6.05153e-07
1.88619e-06
-3.84675e-07
1.77185e-06
8.23648e-08
1.61125e-06
6.81605e-07
1.46308e-06
1.33664e-06
1.3194e-06
2.01427e-06
1.17873e-06
2.69295e-06
1.04694e-06
3.35881e-06
9.23822e-07
4.00039e-06
8.08093e-07
4.60607e-06
6.98186e-07
5.16347e-06
5.92222e-07
5.65965e-06
4.88749e-07
6.08365e-06
3.89337e-07
6.43435e-06
3.03506e-07
6.73685e-06
2.55972e-07
7.02531e-06
2.52927e-07
7.3305e-06
2.73362e-07
7.64621e-06
2.72838e-07
7.90976e-06
2.00296e-07
8.0472e-06
4.95616e-08
8.01587e-06
-1.31146e-07
7.80632e-06
-3.08441e-07
7.41856e-06
-4.84343e-07
6.84981e-06
-6.66096e-07
6.09411e-06
-8.66709e-07
5.14201e-06
-1.11489e-06
3.98419e-06
-1.46724e-06
2.63252e-06
-2.01794e-06
1.20331e-06
-2.86849e-06
1.20026e-07
-3.84537e-06
-3.3384e-06
-3.77471e-07
1.70021e-06
4.14154e-08
1.46731e-06
8.0142e-07
1.01184e-06
1.59111e-06
8.21559e-07
2.37422e-06
6.79974e-07
3.13675e-06
5.56864e-07
3.86012e-06
4.55363e-07
4.53436e-06
3.727e-07
5.15373e-06
3.04454e-07
5.71414e-06
2.47676e-07
6.21228e-06
2.00045e-07
6.6451e-06
1.59404e-07
7.00985e-06
1.24006e-07
7.30582e-06
9.33653e-08
7.53969e-06
6.96352e-08
7.73601e-06
5.96516e-08
7.92363e-06
6.53006e-08
8.12169e-06
7.53092e-08
8.32035e-06
7.41793e-08
8.47285e-06
4.7787e-08
8.52576e-06
-3.33957e-09
8.45523e-06
-6.06219e-08
8.26067e-06
-1.13879e-07
7.94267e-06
-1.66343e-07
7.49788e-06
-2.213e-07
6.91598e-06
-2.84816e-07
6.1732e-06
-3.72107e-07
5.22356e-06
-5.17595e-07
3.99491e-06
-7.89291e-07
2.42789e-06
-1.30147e-06
7.48748e-07
-2.16622e-06
-2.58965e-06
1.70021e-06
3.16752e-06
4.17936e-06
5.00092e-06
5.6809e-06
6.23776e-06
6.69312e-06
7.06582e-06
7.37028e-06
7.61795e-06
7.818e-06
7.9774e-06
8.10141e-06
8.19477e-06
8.26441e-06
8.32406e-06
8.38936e-06
8.46467e-06
8.53885e-06
8.58664e-06
8.5833e-06
8.52267e-06
8.4088e-06
8.24245e-06
8.02115e-06
7.73634e-06
7.36423e-06
6.84663e-06
6.05734e-06
4.75588e-06
2.58965e-06
)
;

boundaryField
{
    movingWall
    {
        type            calculated;
        value           uniform 0;
    }
    fixedWalls
    {
        type            calculated;
        value           uniform 0;
    }
    floor
    {
        type            calculated;
        value           uniform 0;
    }
    frontAndBack
    {
        type            empty;
        value           nonuniform List<scalar> 0();
    }
}


// ************************************************************************* //
