/*--------------------------------*- C++ -*----------------------------------*\
| =========                 |                                                 |
| \\      /  F ield         | OpenFOAM: The Open Source CFD Toolbox           |
|  \\    /   O peration     | Version:  2212                                  |
|   \\  /    A nd           | Website:  www.openfoam.com                      |
|    \\/     M anipulation  |                                                 |
\*---------------------------------------------------------------------------*/
FoamFile
{
    version     2.0;
    format      ascii;
    arch        "LSB;label=64;scalar=64";
    class       volScalarField;
    location    "360";
    object      SIC;
}
// * * * * * * * * * * * * * * * * * * * * * * * * * * * * * * * * * * * * * //

dimensions      [1 -3 0 0 0 0 0];

internalField   nonuniform List<scalar> 
1024
(
0.0919753
0.0919761
0.0919777
0.0919804
0.0919843
0.0919893
0.0919953
0.0920017
0.0920082
0.0920144
0.0920201
0.0920251
0.0920287
0.0920297
0.0920258
0.0920137
0.0919948
0.0919748
0.0919568
0.0919413
0.0919282
0.0919173
0.0919084
0.0919011
0.0918949
0.0918897
0.0918855
0.0918822
0.0918798
0.0918783
0.0918775
0.0918771
0.0919756
0.0919763
0.091978
0.0919807
0.0919847
0.0919899
0.0919959
0.0920024
0.0920089
0.092015
0.0920207
0.0920257
0.0920294
0.0920305
0.0920266
0.0920144
0.0919953
0.0919753
0.0919572
0.0919416
0.0919284
0.0919176
0.0919087
0.0919013
0.0918952
0.09189
0.0918857
0.0918824
0.0918799
0.0918784
0.0918775
0.0918771
0.0919761
0.0919768
0.0919785
0.0919814
0.0919855
0.0919909
0.0919971
0.0920036
0.0920101
0.0920162
0.092022
0.0920271
0.092031
0.0920324
0.0920287
0.0920162
0.0919966
0.0919762
0.0919579
0.0919421
0.0919288
0.0919179
0.0919089
0.0919016
0.0918955
0.0918903
0.091886
0.0918826
0.0918801
0.0918784
0.0918775
0.0918771
0.0919767
0.0919774
0.0919792
0.0919822
0.0919867
0.0919922
0.0919986
0.0920051
0.0920116
0.0920178
0.0920237
0.0920292
0.0920338
0.092036
0.0920327
0.0920196
0.0919988
0.0919774
0.0919585
0.0919423
0.0919288
0.0919178
0.0919088
0.0919016
0.0918956
0.0918905
0.0918862
0.0918828
0.0918802
0.0918785
0.0918775
0.0918771
0.0919773
0.0919781
0.0919799
0.0919832
0.0919878
0.0919936
0.092
0.0920066
0.0920131
0.0920194
0.0920257
0.0920321
0.0920379
0.0920415
0.0920391
0.0920249
0.0920019
0.0919788
0.0919587
0.0919417
0.0919278
0.0919167
0.0919078
0.0919008
0.0918951
0.0918902
0.0918861
0.0918828
0.0918802
0.0918785
0.0918775
0.091877
0.0919779
0.0919787
0.0919806
0.091984
0.0919888
0.0919946
0.0920011
0.0920076
0.0920141
0.0920207
0.0920277
0.0920353
0.092043
0.092049
0.092048
0.0920325
0.0920062
0.0919802
0.0919581
0.0919399
0.0919253
0.0919139
0.0919052
0.0918986
0.0918933
0.0918891
0.0918854
0.0918823
0.0918799
0.0918783
0.0918773
0.0918768
0.0919783
0.0919791
0.0919811
0.0919844
0.0919892
0.0919949
0.0920012
0.0920076
0.0920142
0.0920212
0.0920291
0.0920383
0.0920487
0.0920581
0.0920595
0.0920426
0.0920117
0.0919813
0.0919562
0.091936
0.0919204
0.0919086
0.0919001
0.0918942
0.0918899
0.0918865
0.0918837
0.0918812
0.0918792
0.0918777
0.0918768
0.0918764
0.0919784
0.0919792
0.0919811
0.0919843
0.0919888
0.0919942
0.0920002
0.0920063
0.0920128
0.09202
0.0920288
0.09204
0.0920538
0.0920678
0.0920728
0.092055
0.0920184
0.0919821
0.0919526
0.0919297
0.0919125
0.0919003
0.0918922
0.0918873
0.0918843
0.0918823
0.0918807
0.0918792
0.0918777
0.0918766
0.0918759
0.0918755
0.091978
0.0919788
0.0919805
0.0919834
0.0919874
0.0919923
0.0919976
0.0920032
0.0920092
0.0920163
0.0920258
0.0920389
0.0920567
0.0920769
0.0920873
0.0920691
0.0920261
0.0919823
0.0919471
0.0919205
0.0919014
0.0918886
0.0918811
0.0918776
0.0918764
0.0918763
0.0918763
0.091876
0.0918755
0.0918749
0.0918744
0.091874
0.091977
0.0919777
0.0919792
0.0919817
0.091985
0.091989
0.0919933
0.0919979
0.0920029
0.0920094
0.092019
0.0920339
0.0920565
0.0920847
0.0921021
0.0920844
0.0920342
0.0919813
0.091939
0.091908
0.0918866
0.0918733
0.0918667
0.091865
0.0918661
0.0918684
0.0918705
0.0918718
0.0918723
0.0918723
0.0918721
0.0918718
0.091975
0.0919756
0.091977
0.0919789
0.0919815
0.0919843
0.0919873
0.0919903
0.0919939
0.0919991
0.0920082
0.092025
0.0920537
0.092092
0.0921178
0.0921
0.0920413
0.0919779
0.0919276
0.0918916
0.0918679
0.0918544
0.0918491
0.0918498
0.0918538
0.0918588
0.0918633
0.0918664
0.0918681
0.0918688
0.0918688
0.0918686
0.0919716
0.0919723
0.0919734
0.091975
0.0919767
0.0919784
0.0919798
0.091981
0.0919827
0.0919863
0.0919951
0.0920146
0.0920516
0.092102
0.0921358
0.0921154
0.0920456
0.0919701
0.0919112
0.0918702
0.0918447
0.0918317
0.0918284
0.091832
0.0918393
0.0918475
0.0918546
0.0918597
0.0918627
0.091864
0.0918643
0.0918642
0.0919664
0.0919671
0.0919682
0.0919694
0.0919706
0.0919713
0.0919714
0.0919711
0.0919711
0.0919737
0.0919836
0.092009
0.092058
0.0921213
0.0921589
0.092129
0.0920434
0.0919544
0.0918871
0.0918422
0.091816
0.0918047
0.0918045
0.0918118
0.091823
0.0918347
0.0918447
0.0918518
0.091856
0.091858
0.0918585
0.0918585
0.0919583
0.0919589
0.0919599
0.0919612
0.0919623
0.0919628
0.0919624
0.0919614
0.0919612
0.0919657
0.0919819
0.0920202
0.0920858
0.0921591
0.092189
0.0921365
0.0920283
0.0919251
0.0918514
0.0918052
0.0917809
0.0917732
0.0917774
0.0917893
0.0918048
0.0918201
0.0918328
0.0918418
0.0918471
0.0918497
0.0918505
0.0918505
0.0919534
0.0919526
0.0919514
0.0919499
0.0919488
0.0919483
0.0919489
0.0919517
0.0919595
0.0919774
0.0920137
0.0920754
0.0921573
0.0922243
0.092221
0.0921263
0.0919893
0.0918752
0.0918009
0.0917588
0.0917403
0.0917387
0.0917488
0.0917662
0.0917866
0.091806
0.0918217
0.0918324
0.0918386
0.0918413
0.0918421
0.091842
0.0920292
0.0920271
0.0920231
0.0920178
0.0920132
0.0920114
0.0920153
0.0920277
0.0920521
0.0920924
0.0921516
0.0922255
0.0922918
0.092305
0.092228
0.0920757
0.0919163
0.091804
0.0917404
0.0917103
0.0917024
0.0917092
0.0917255
0.0917468
0.0917692
0.0917894
0.0918055
0.0918165
0.0918231
0.0918262
0.0918273
0.0918274
0.0922798
0.0922798
0.0922797
0.0922794
0.09228
0.0922835
0.0922926
0.0923099
0.0923369
0.0923723
0.0924097
0.0924322
0.0924107
0.0923194
0.0921641
0.0919849
0.091837
0.0917476
0.0917045
0.091691
0.0916962
0.0917131
0.0917363
0.0917611
0.0917834
0.0918007
0.0918119
0.0918178
0.09182
0.0918203
0.0918202
0.0918201
0.092532
0.0925343
0.0925384
0.0925436
0.0925492
0.0925548
0.0925605
0.092566
0.0925692
0.0925647
0.0925428
0.0924905
0.0923983
0.0922701
0.0921223
0.0919728
0.0918486
0.0917721
0.0917363
0.0917254
0.0917277
0.0917358
0.0917456
0.0917547
0.091762
0.0917681
0.0917748
0.0917839
0.091796
0.0918097
0.0918213
0.0918277
0.0926687
0.0926707
0.0926741
0.092678
0.0926813
0.092683
0.0926816
0.0926755
0.092662
0.092637
0.0925958
0.0925345
0.0924521
0.0923503
0.0922332
0.0921076
0.0919945
0.0919189
0.0918787
0.0918583
0.0918486
0.0918459
0.0918496
0.0918612
0.091883
0.0919172
0.0919637
0.0920183
0.0920744
0.0921234
0.0921576
0.0921738
0.0927419
0.0927433
0.0927459
0.0927492
0.0927526
0.0927554
0.0927564
0.0927541
0.0927464
0.0927308
0.092705
0.0926672
0.092616
0.0925507
0.0924726
0.0923875
0.0923152
0.0922831
0.0922943
0.0923382
0.0924066
0.0924907
0.0925831
0.0926779
0.0927701
0.0928558
0.0929317
0.0929926
0.0930357
0.0930615
0.0930738
0.0930781
0.0927918
0.0927931
0.0927962
0.0928013
0.0928087
0.0928184
0.0928298
0.0928413
0.0928513
0.0928577
0.0928587
0.0928524
0.0928371
0.0928117
0.0927789
0.0927491
0.092747
0.0928013
0.0929147
0.0930758
0.093268
0.0934699
0.0936625
0.0938313
0.0939666
0.0940639
0.0941209
0.0941391
0.0941257
0.0940942
0.0940625
0.0940446
0.0928325
0.0928338
0.0928374
0.0928444
0.0928562
0.0928736
0.0928966
0.0929243
0.0929547
0.0929855
0.0930147
0.0930398
0.0930581
0.0930679
0.0930721
0.0930841
0.0931339
0.0932512
0.0934328
0.0936579
0.0938987
0.0941265
0.0943214
0.0944745
0.0945858
0.0946589
0.0946974
0.0947059
0.0946901
0.0946593
0.0946269
0.0946072
0.0928729
0.0928737
0.0928769
0.0928845
0.0928986
0.0929212
0.0929532
0.0929939
0.0930419
0.0930945
0.0931489
0.093202
0.0932499
0.0932891
0.0933197
0.0933524
0.0934169
0.0935466
0.0937375
0.0939606
0.0941815
0.0943726
0.0945224
0.0946332
0.0947146
0.0947744
0.0948166
0.0948422
0.0948516
0.0948473
0.0948354
0.0948252
0.0929225
0.092922
0.0929235
0.0929298
0.0929443
0.0929696
0.0930076
0.0930582
0.0931198
0.0931898
0.0932648
0.0933409
0.0934135
0.0934773
0.0935287
0.0935719
0.0936294
0.0937366
0.0938977
0.0940858
0.094267
0.0944188
0.0945366
0.0946281
0.0947033
0.0947678
0.0948221
0.0948636
0.0948901
0.0949021
0.0949033
0.0949001
0.0929922
0.0929896
0.0929878
0.0929913
0.0930048
0.0930318
0.0930747
0.0931334
0.0932062
0.0932897
0.0933803
0.0934735
0.0935645
0.0936472
0.0937156
0.0937676
0.0938153
0.0938904
0.0940076
0.094151
0.0942931
0.094416
0.0945165
0.0946015
0.0946781
0.09475
0.0948154
0.0948697
0.0949084
0.0949303
0.0949381
0.0949381
0.0930938
0.093088
0.0930819
0.0930822
0.0930951
0.0931249
0.0931735
0.0932403
0.0933224
0.0934159
0.0935165
0.09362
0.0937215
0.0938154
0.093895
0.0939546
0.0939968
0.0940462
0.0941233
0.0942243
0.0943316
0.094431
0.0945186
0.0945974
0.0946721
0.094745
0.0948148
0.0948763
0.0949236
0.094953
0.0949657
0.0949677
0.0932375
0.0932279
0.093218
0.0932172
0.0932326
0.0932681
0.0933243
0.0933988
0.0934874
0.0935857
0.0936896
0.0937951
0.0938982
0.0939942
0.094077
0.0941401
0.0941802
0.0942136
0.0942616
0.0943286
0.094406
0.0944837
0.0945568
0.0946259
0.0946932
0.0947605
0.094827
0.0948888
0.0949394
0.0949737
0.0949904
0.0949941
0.0934309
0.0934182
0.093408
0.0934115
0.0934346
0.0934787
0.0935422
0.0936209
0.0937103
0.0938062
0.093905
0.0940038
0.0940993
0.0941883
0.0942659
0.0943265
0.094364
0.0943885
0.0944179
0.0944605
0.0945136
0.094571
0.0946282
0.0946841
0.0947398
0.0947965
0.0948539
0.0949096
0.0949582
0.0949937
0.0950128
0.095018
0.0936796
0.0936668
0.0936639
0.0936789
0.0937129
0.0937645
0.09383
0.0939055
0.093987
0.0940716
0.0941567
0.0942403
0.0943204
0.0943948
0.0944602
0.0945121
0.0945447
0.0945632
0.0945814
0.0946075
0.0946421
0.0946818
0.094723
0.0947646
0.0948065
0.0948497
0.0948944
0.0949395
0.0949812
0.0950139
0.0950334
0.0950397
0.0939901
0.0939839
0.0939965
0.0940252
0.094066
0.0941166
0.0941742
0.0942365
0.094301
0.094366
0.0944302
0.0944924
0.0945515
0.0946061
0.0946544
0.0946933
0.094718
0.0947313
0.0947423
0.0947576
0.0947786
0.0948036
0.0948305
0.0948581
0.0948863
0.0949154
0.094946
0.0949778
0.095009
0.0950354
0.0950526
0.0950591
0.0943736
0.0943816
0.0944071
0.0944377
0.0944717
0.0945087
0.0945478
0.094588
0.0946285
0.0946685
0.0947075
0.094745
0.0947803
0.0948129
0.0948417
0.0948651
0.0948802
0.0948882
0.0948941
0.0949019
0.094913
0.0949264
0.0949411
0.0949564
0.094972
0.0949882
0.0950053
0.0950234
0.0950419
0.0950588
0.095071
0.0950762
0.0948446
0.0948514
0.0948647
0.0948779
0.0948911
0.0949046
0.0949184
0.0949321
0.0949458
0.0949592
0.0949721
0.0949844
0.0949959
0.0950066
0.095016
0.0950237
0.0950287
0.0950313
0.0950332
0.0950356
0.0950389
0.0950431
0.0950477
0.0950525
0.0950574
0.0950624
0.0950678
0.0950734
0.0950794
0.095085
0.0950895
0.0950916
)
;

boundaryField
{
    movingWall
    {
        type            fixedValue;
        value           uniform 0.0951;
    }
    fixedWalls
    {
        type            zeroGradient;
    }
    floor
    {
        type            zeroGradient;
    }
    frontAndBack
    {
        type            empty;
    }
}


// ************************************************************************* //
