/*--------------------------------*- C++ -*----------------------------------*\
| =========                 |                                                 |
| \\      /  F ield         | OpenFOAM: The Open Source CFD Toolbox           |
|  \\    /   O peration     | Version:  2212                                  |
|   \\  /    A nd           | Website:  www.openfoam.com                      |
|    \\/     M anipulation  |                                                 |
\*---------------------------------------------------------------------------*/
FoamFile
{
    version     2.0;
    format      ascii;
    arch        "LSB;label=64;scalar=64";
    class       volScalarField::Internal;
    location    "1970";
    object      dGco2;
}
// * * * * * * * * * * * * * * * * * * * * * * * * * * * * * * * * * * * * * //

dimensions      [1 -3 -1 0 0 0 0];

value           nonuniform List<scalar> 
1024
(
0.000166687
0.000166737
0.000166864
0.0001671
0.000167484
0.000168063
0.000168887
0.000170003
0.000171443
0.000173205
0.000175242
0.00017746
0.00017973
0.000181922
0.000183932
0.000185684
0.000186984
0.000187659
0.000187759
0.000187396
0.000186664
0.000185668
0.000184531
0.00018338
0.000182328
0.000181445
0.000180757
0.000180257
0.000179919
0.000179709
0.000179594
0.000179548
0.000166701
0.000166753
0.000166882
0.00016712
0.000167508
0.000168092
0.000168924
0.000170049
0.000171499
0.000173271
0.000175317
0.000177541
0.000179813
0.000182004
0.000184012
0.000185765
0.000187068
0.000187747
0.000187852
0.000187492
0.00018676
0.00018576
0.000184616
0.000183456
0.000182393
0.0001815
0.000180802
0.000180296
0.000179954
0.000179742
0.000179626
0.00017958
0.000166741
0.000166795
0.000166927
0.00016717
0.000167565
0.000168162
0.00016901
0.000170156
0.000171629
0.000173424
0.000175488
0.000177723
0.000179999
0.000182188
0.000184195
0.00018595
0.000187264
0.00018796
0.00018808
0.000187727
0.00018699
0.000185974
0.000184808
0.000183624
0.000182537
0.000181622
0.000180907
0.000180388
0.000180038
0.000179822
0.000179705
0.000179658
0.000166815
0.000166871
0.000167007
0.000167258
0.000167667
0.000168284
0.00016916
0.00017034
0.000171852
0.000173684
0.000175777
0.000178028
0.000180308
0.000182494
0.0001845
0.000186266
0.000187608
0.000188345
0.000188498
0.000188159
0.000187406
0.000186351
0.000185137
0.000183906
0.000182776
0.000181827
0.000181086
0.000180549
0.000180189
0.000179968
0.00017985
0.000179803
0.000166934
0.000166991
0.000167134
0.000167397
0.000167826
0.000168471
0.000169388
0.000170618
0.000172184
0.000174067
0.000176199
0.000178471
0.000180754
0.000182938
0.000184948
0.000186741
0.000188143
0.000188957
0.000189173
0.000188856
0.000188073
0.000186946
0.000185645
0.000184332
0.000183136
0.000182136
0.00018136
0.000180803
0.000180432
0.000180207
0.000180088
0.000180041
0.000167106
0.000167166
0.000167317
0.000167596
0.000168051
0.000168736
0.000169707
0.000171003
0.000172639
0.000174586
0.000176765
0.000179059
0.000181347
0.00018353
0.000185557
0.000187405
0.000188913
0.000189855
0.000190172
0.000189891
0.000189064
0.000187829
0.000186394
0.000184955
0.000183658
0.000182588
0.000181768
0.000181186
0.000180804
0.000180577
0.00018046
0.000180416
0.00016734
0.000167404
0.000167565
0.000167863
0.000168351
0.000169085
0.000170122
0.000171498
0.000173219
0.00017524
0.00017747
0.000179789
0.000182082
0.000184274
0.000186339
0.000188281
0.000189951
0.000191085
0.000191551
0.000191331
0.000190459
0.00018909
0.000187474
0.000185858
0.000184421
0.000183254
0.000182376
0.000181765
0.000181374
0.000181148
0.000181036
0.000180996
0.000167641
0.000167709
0.000167881
0.000168201
0.000168727
0.000169518
0.000170631
0.000172098
0.000173911
0.000176012
0.000178296
0.000180641
0.000182946
0.00018516
0.00018729
0.000189371
0.000191266
0.000192656
0.00019333
0.000193218
0.000192333
0.000190839
0.000189023
0.000187188
0.000185564
0.000184265
0.000183309
0.00018266
0.000182258
0.000182035
0.00018193
0.000181895
0.000168008
0.00016808
0.000168262
0.000168606
0.000169171
0.000170024
0.000171217
0.000172778
0.000174686
0.000176868
0.000179207
0.00018158
0.000183905
0.000186159
0.00018838
0.000190636
0.0001928
0.000194504
0.000195459
0.000195545
0.000194742
0.000193204
0.00019123
0.000189174
0.000187329
0.000185857
0.00018479
0.000184082
0.000183657
0.000183431
0.000183332
0.000183303
0.00016843
0.000168505
0.000168698
0.000169063
0.000169667
0.000170577
0.000171847
0.000173498
0.000175497
0.000177755
0.000180146
0.00018255
0.0001849
0.000187201
0.000189521
0.000191954
0.000194395
0.000196451
0.00019778
0.000198215
0.000197684
0.00019629
0.000194312
0.000192122
0.000190074
0.000188396
0.00018717
0.000186362
0.000185884
0.000185635
0.00018553
0.000185501
0.000168889
0.000168967
0.000169167
0.00016955
0.000170185
0.000171142
0.000172477
0.000174203
0.000176279
0.000178601
0.000181035
0.000183463
0.00018583
0.000188158
0.000190537
0.000193089
0.000195751
0.000198166
0.00019998
0.000200973
0.000200995
0.000200062
0.000198379
0.000196286
0.000194165
0.000192313
0.000190893
0.000189926
0.000189339
0.000189026
0.00018889
0.000188849
0.000169358
0.000169437
0.000169642
0.000170035
0.000170688
0.000171675
0.000173051
0.000174826
0.000176951
0.000179314
0.000181769
0.000184194
0.000186534
0.000188819
0.000191146
0.000193672
0.00019642
0.000199158
0.000201553
0.000203322
0.000204215
0.00020413
0.000203156
0.000201547
0.00019965
0.0001978
0.000196244
0.000195096
0.000194349
0.000193922
0.000193718
0.00019365
0.000169801
0.000169881
0.000170086
0.00017048
0.000171134
0.000172124
0.000173506
0.000175289
0.00017742
0.000179779
0.000182207
0.000184568
0.000186792
0.000188897
0.000190982
0.000193245
0.000195861
0.000198819
0.00020183
0.000204524
0.000206531
0.000207625
0.000207765
0.000207083
0.000205837
0.000204339
0.000202881
0.00020167
0.000200797
0.000200251
0.000199964
0.000199856
0.000170173
0.000170252
0.000170453
0.000170836
0.00017147
0.00017243
0.000173771
0.000175505
0.000177577
0.000179862
0.000182186
0.000184385
0.00018636
0.000188098
0.000189693
0.000191395
0.000193594
0.000196593
0.000200156
0.000203809
0.000207042
0.00020949
0.00021099
0.000211556
0.000211345
0.000210601
0.000209604
0.000208607
0.000207785
0.000207212
0.000206882
0.000206747
0.000170413
0.00017049
0.000170683
0.000171043
0.000171636
0.000172527
0.000173773
0.000175386
0.000177314
0.000179432
0.00018155
0.000183473
0.000185056
0.000186243
0.000187112
0.000187969
0.000189449
0.000192234
0.00019619
0.000200742
0.000205224
0.000209101
0.000212062
0.000214013
0.000215024
0.000215279
0.000215022
0.000214509
0.000213956
0.000213504
0.000213214
0.000213084
0.000170443
0.000170517
0.000170698
0.000171026
0.000171556
0.000172344
0.000173438
0.000174852
0.000176545
0.000178393
0.000180207
0.000181764
0.00018287
0.000183416
0.000183449
0.000183297
0.000183809
0.000186055
0.000190108
0.00019539
0.000201102
0.000206497
0.000211049
0.000214502
0.00021683
0.000218168
0.000218745
0.000218821
0.000218641
0.000218395
0.000218197
0.000218097
0.000170182
0.000170253
0.000170421
0.000170716
0.000171179
0.000171851
0.000172769
0.000173949
0.000175354
0.000176882
0.000178353
0.000179543
0.000180227
0.000180251
0.000179613
0.000178605
0.000178152
0.000179575
0.000183243
0.000188779
0.000195415
0.000202242
0.000208464
0.000213565
0.000217343
0.00021985
0.000221297
0.00022197
0.000222159
0.000222111
0.000222001
0.000221928
0.000169674
0.000169744
0.000169902
0.000170173
0.000170583
0.00017116
0.000171931
0.000172902
0.000174049
0.000175285
0.000176457
0.000177359
0.000177771
0.000177522
0.000176574
0.000175163
0.000174181
0.00017495
0.000177995
0.000183218
0.000190095
0.000197782
0.000205321
0.000211925
0.000217142
0.000220859
0.000223221
0.000224513
0.000225071
0.000225211
0.000225176
0.00022512
0.000169032
0.0001691
0.000169251
0.000169505
0.000169879
0.00017039
0.000171052
0.000171867
0.000172811
0.000173815
0.000174753
0.00017545
0.000175711
0.000175379
0.000174407
0.000172995
0.000171967
0.000172519
0.000175154
0.000179932
0.000186572
0.000194449
0.000202661
0.000210292
0.000216664
0.000221464
0.000224706
0.000226626
0.000227574
0.000227912
0.000227952
0.000227913
0.000168348
0.00016841
0.000168552
0.000168788
0.000169131
0.000169591
0.000170175
0.000170874
0.000171665
0.00017249
0.000173246
0.000173794
0.00017398
0.00017368
0.000172871
0.000171754
0.000171063
0.000171778
0.0001743
0.000178745
0.000184987
0.000192614
0.000200925
0.000209052
0.000216197
0.000221858
0.000225885
0.000228416
0.000229767
0.000230322
0.000230448
0.000230427
0.000167767
0.000167818
0.000167935
0.000168134
0.000168431
0.000168834
0.000169345
0.000169949
0.00017062
0.000171305
0.000171924
0.000172375
0.000172555
0.000172393
0.000171914
0.000171339
0.000171284
0.000172439
0.000175065
0.000179297
0.000185122
0.000192286
0.000200285
0.000208416
0.000215916
0.000222163
0.000226835
0.000229931
0.000231688
0.000232479
0.000232704
0.000232704
0.000167527
0.000167552
0.000167615
0.000167738
0.000167942
0.000168246
0.000168655
0.000169156
0.000169719
0.000170299
0.000170837
0.000171273
0.000171561
0.000171691
0.000171735
0.000171927
0.000172713
0.000174459
0.000177289
0.000181349
0.000186719
0.000193299
0.000200742
0.000208509
0.000215964
0.000222486
0.000227623
0.000231209
0.000233363
0.000234405
0.000234743
0.000234769
0.000167944
0.000167921
0.000167889
0.000167875
0.000167915
0.000168049
0.0001683
0.000168668
0.000169132
0.000169658
0.000170216
0.000170784
0.000171364
0.00017199
0.000172754
0.000173863
0.000175558
0.000177899
0.000180914
0.000184772
0.000189626
0.000195503
0.000202217
0.000209373
0.000216464
0.000222946
0.000228329
0.000232297
0.000234818
0.000236118
0.000236584
0.000236641
0.000169351
0.000169258
0.000169087
0.000168876
0.000168687
0.000168588
0.000168638
0.000168866
0.000169274
0.000169852
0.000170588
0.000171488
0.000172569
0.000173869
0.000175457
0.000177481
0.000179979
0.00018278
0.000185869
0.00018945
0.000193722
0.000198808
0.000204655
0.000211017
0.000217508
0.000223678
0.00022906
0.000233258
0.000236085
0.000237638
0.000238243
0.00023834
0.000172025
0.000171842
0.000171505
0.000171079
0.000170657
0.000170344
0.000170232
0.000170392
0.00017086
0.000171642
0.000172731
0.000174128
0.000175829
0.000177838
0.000180175
0.000182922
0.000185967
0.000188999
0.000192005
0.000195219
0.000198866
0.000203118
0.000208019
0.000213454
0.000219164
0.000224796
0.000229939
0.000234177
0.00023721
0.000238985
0.000239735
0.000239878
0.000176144
0.00017586
0.000175371
0.000174796
0.000174263
0.000173889
0.000173783
0.000174043
0.00017473
0.000175846
0.000177374
0.000179283
0.000181534
0.000184087
0.000186918
0.000190057
0.000193307
0.000196315
0.000199082
0.000201857
0.000204867
0.000208295
0.000212242
0.000216684
0.000221482
0.000226392
0.000231079
0.000235152
0.000238247
0.000240185
0.00024107
0.000241266
0.000181796
0.000181415
0.000180858
0.000180317
0.000179926
0.000179767
0.000179914
0.000180462
0.000181469
0.00018293
0.00018481
0.000187057
0.000189604
0.000192387
0.000195353
0.000198508
0.00020163
0.000204385
0.000206791
0.000209086
0.000211478
0.000214139
0.000217184
0.000220647
0.000224474
0.000228528
0.000232574
0.000236276
0.000239264
0.000241266
0.000242259
0.000242512
0.00018903
0.000188594
0.000188145
0.000187919
0.000187974
0.000188294
0.000188879
0.000189792
0.000191074
0.000192728
0.000194723
0.000197007
0.000199511
0.000202167
0.000204918
0.00020776
0.000210489
0.000212823
0.000214792
0.000216599
0.00021842
0.000220397
0.000222638
0.000225198
0.000228077
0.000231217
0.000234483
0.000237633
0.000240332
0.000242271
0.000243316
0.00024362
0.000197955
0.000197565
0.000197484
0.00019784
0.000198514
0.000199375
0.000200369
0.000201528
0.000202891
0.000204486
0.000206306
0.000208318
0.00021047
0.000212705
0.000214977
0.000217277
0.000219443
0.00022126
0.000222758
0.000224095
0.000225404
0.000226795
0.000228351
0.000230128
0.000232148
0.000234398
0.000236822
0.000239279
0.000241518
0.000243245
0.000244259
0.000244594
0.000208819
0.000208676
0.000209194
0.00021015
0.000211275
0.000212427
0.000213555
0.000214689
0.000215874
0.000217162
0.000218568
0.000220083
0.000221676
0.000223309
0.000224951
0.000226591
0.000228118
0.000229385
0.000230413
0.000231314
0.000232177
0.000233075
0.000234067
0.000235196
0.000236483
0.000237937
0.000239542
0.000241238
0.000242878
0.00024424
0.000245112
0.00024544
0.000222091
0.000222417
0.00022337
0.000224443
0.000225494
0.000226467
0.000227344
0.000228154
0.000228941
0.000229753
0.000230612
0.000231521
0.000232468
0.000233432
0.000234395
0.000235351
0.000236235
0.000236963
0.000237551
0.000238058
0.000238537
0.000239029
0.000239565
0.000240172
0.000240863
0.000241647
0.000242525
0.000243478
0.000244445
0.000245305
0.000245911
0.00024617
0.000238331
0.000238584
0.000239071
0.000239539
0.000239966
0.000240345
0.000240674
0.000240966
0.000241238
0.000241511
0.000241794
0.000242092
0.0002424
0.000242713
0.000243025
0.000243334
0.000243618
0.000243852
0.00024404
0.000244201
0.000244353
0.000244506
0.000244673
0.00024486
0.000245074
0.000245315
0.000245586
0.000245883
0.000246191
0.000246479
0.000246698
0.000246804
)
;


// ************************************************************************* //
