/*--------------------------------*- C++ -*----------------------------------*\
| =========                 |                                                 |
| \\      /  F ield         | OpenFOAM: The Open Source CFD Toolbox           |
|  \\    /   O peration     | Version:  2212                                  |
|   \\  /    A nd           | Website:  www.openfoam.com                      |
|    \\/     M anipulation  |                                                 |
\*---------------------------------------------------------------------------*/
FoamFile
{
    version     2.0;
    format      ascii;
    arch        "LSB;label=64;scalar=64";
    class       volScalarField;
    location    "1970";
    object      p;
}
// * * * * * * * * * * * * * * * * * * * * * * * * * * * * * * * * * * * * * //

dimensions      [0 2 -2 0 0 0 0];

internalField   nonuniform List<scalar> 
1024
(
0
-1.84824e-07
-6.60242e-07
-1.32214e-06
-1.99443e-06
-2.55562e-06
-3.01873e-06
-3.561e-06
-4.44637e-06
-5.86786e-06
-7.77608e-06
-9.74852e-06
-1.07502e-05
-8.7547e-06
-3.19281e-08
2.16638e-05
6.03524e-05
0.00010414
0.000133921
0.000137379
0.000116083
7.94277e-05
4.09814e-05
1.13643e-05
-7.93174e-06
-1.94966e-05
-2.58971e-05
-2.8875e-05
-2.95322e-05
-2.87201e-05
-2.73113e-05
-2.61933e-05
-0.0928114
-0.0928117
-0.0928121
-0.0928127
-0.0928133
-0.0928139
-0.0928144
-0.092815
-0.092816
-0.0928175
-0.0928194
-0.0928215
-0.0928226
-0.0928207
-0.0928123
-0.0927911
-0.0927531
-0.0927103
-0.0926816
-0.092679
-0.0927002
-0.0927357
-0.0927728
-0.0928011
-0.0928194
-0.0928303
-0.0928362
-0.092839
-0.0928398
-0.0928392
-0.092838
-0.0928369
-0.199424
-0.199425
-0.199425
-0.199426
-0.199426
-0.199427
-0.199428
-0.199428
-0.199429
-0.199431
-0.199433
-0.199436
-0.199437
-0.199436
-0.199428
-0.199407
-0.199371
-0.199329
-0.199302
-0.1993
-0.199321
-0.199355
-0.199391
-0.199418
-0.199434
-0.199444
-0.199449
-0.199451
-0.199452
-0.199452
-0.19945
-0.199449
-0.321891
-0.321892
-0.321892
-0.321893
-0.321894
-0.321894
-0.321895
-0.321896
-0.321898
-0.3219
-0.321902
-0.321905
-0.321907
-0.321907
-0.3219
-0.321881
-0.321846
-0.321806
-0.32178
-0.321779
-0.3218
-0.321833
-0.321867
-0.321892
-0.321907
-0.321915
-0.321918
-0.32192
-0.32192
-0.32192
-0.321918
-0.321916
-0.46257
-0.462571
-0.462572
-0.462572
-0.462573
-0.462574
-0.462575
-0.462577
-0.462579
-0.462582
-0.462585
-0.462589
-0.462592
-0.462593
-0.462588
-0.462571
-0.462538
-0.4625
-0.462476
-0.462476
-0.462497
-0.462528
-0.46256
-0.462583
-0.462596
-0.462601
-0.462603
-0.462603
-0.462603
-0.462602
-0.4626
-0.462598
-0.624169
-0.62417
-0.624172
-0.624173
-0.624174
-0.624175
-0.624177
-0.624179
-0.624182
-0.624186
-0.62419
-0.624196
-0.624201
-0.624204
-0.624201
-0.624186
-0.624157
-0.624122
-0.624099
-0.624099
-0.624119
-0.624148
-0.624178
-0.624199
-0.62421
-0.624213
-0.624212
-0.624211
-0.62421
-0.624208
-0.624206
-0.624204
-0.809801
-0.809803
-0.809805
-0.809806
-0.809807
-0.809809
-0.809811
-0.809814
-0.809819
-0.809824
-0.809831
-0.809838
-0.809846
-0.809852
-0.809852
-0.809841
-0.809815
-0.809783
-0.809761
-0.80976
-0.809779
-0.809806
-0.809832
-0.80985
-0.809859
-0.809859
-0.809857
-0.809854
-0.809852
-0.80985
-0.809849
-0.809847
-1.02304
-1.02304
-1.02305
-1.02305
-1.02305
-1.02305
-1.02305
-1.02306
-1.02306
-1.02307
-1.02308
-1.02309
-1.0231
-1.02311
-1.02312
-1.02311
-1.02309
-1.02306
-1.02304
-1.02304
-1.02305
-1.02307
-1.02309
-1.02311
-1.02311
-1.02311
-1.02311
-1.02311
-1.0231
-1.0231
-1.0231
-1.0231
-1.268
-1.268
-1.268
-1.268
-1.26801
-1.26801
-1.26801
-1.26802
-1.26803
-1.26804
-1.26805
-1.26806
-1.26808
-1.26809
-1.2681
-1.2681
-1.26808
-1.26806
-1.26804
-1.26803
-1.26804
-1.26805
-1.26806
-1.26807
-1.26808
-1.26808
-1.26807
-1.26807
-1.26807
-1.26807
-1.26806
-1.26806
-1.54939
-1.54939
-1.54939
-1.54939
-1.5494
-1.5494
-1.54941
-1.54942
-1.54943
-1.54944
-1.54946
-1.54947
-1.54949
-1.54951
-1.54952
-1.54953
-1.54951
-1.54949
-1.54947
-1.54946
-1.54945
-1.54946
-1.54946
-1.54946
-1.54946
-1.54946
-1.54946
-1.54946
-1.54946
-1.54946
-1.54946
-1.54946
-1.87263
-1.87264
-1.87264
-1.87264
-1.87264
-1.87265
-1.87266
-1.87267
-1.87268
-1.8727
-1.87272
-1.87274
-1.87276
-1.87278
-1.8728
-1.87281
-1.8728
-1.87278
-1.87276
-1.87274
-1.87273
-1.87272
-1.87271
-1.8727
-1.87269
-1.87269
-1.87269
-1.87269
-1.87269
-1.87269
-1.87269
-1.87269
-2.24396
-2.24396
-2.24397
-2.24397
-2.24397
-2.24398
-2.24399
-2.244
-2.24402
-2.24403
-2.24406
-2.24408
-2.24411
-2.24414
-2.24416
-2.24417
-2.24417
-2.24415
-2.24413
-2.2441
-2.24408
-2.24405
-2.24403
-2.24402
-2.244
-2.244
-2.244
-2.244
-2.244
-2.244
-2.244
-2.244
-2.67053
-2.67053
-2.67053
-2.67053
-2.67054
-2.67054
-2.67055
-2.67057
-2.67058
-2.6706
-2.67063
-2.67066
-2.67069
-2.67072
-2.67074
-2.67076
-2.67077
-2.67075
-2.67073
-2.6707
-2.67066
-2.67063
-2.6706
-2.67057
-2.67055
-2.67054
-2.67054
-2.67054
-2.67054
-2.67054
-2.67054
-2.67055
-3.16054
-3.16054
-3.16054
-3.16054
-3.16055
-3.16055
-3.16056
-3.16058
-3.16059
-3.16062
-3.16064
-3.16067
-3.1607
-3.16074
-3.16077
-3.16079
-3.1608
-3.16079
-3.16077
-3.16073
-3.16069
-3.16065
-3.16061
-3.16058
-3.16055
-3.16054
-3.16053
-3.16053
-3.16053
-3.16054
-3.16054
-3.16054
-3.72342
-3.72342
-3.72342
-3.72343
-3.72343
-3.72344
-3.72345
-3.72346
-3.72348
-3.7235
-3.72352
-3.72355
-3.72359
-3.72362
-3.72366
-3.72368
-3.7237
-3.72369
-3.72367
-3.72364
-3.7236
-3.72356
-3.72351
-3.72347
-3.72345
-3.72343
-3.72342
-3.72341
-3.72341
-3.72342
-3.72342
-3.72342
-4.37001
-4.37001
-4.37001
-4.37001
-4.37001
-4.37002
-4.37003
-4.37004
-4.37006
-4.37008
-4.37011
-4.37014
-4.37017
-4.37021
-4.37024
-4.37027
-4.37029
-4.37028
-4.37027
-4.37024
-4.37021
-4.37017
-4.37013
-4.37009
-4.37005
-4.37003
-4.37002
-4.37001
-4.37001
-4.37001
-4.37002
-4.37002
-5.06132
-5.06132
-5.06132
-5.06132
-5.06133
-5.06133
-5.06134
-5.06136
-5.06137
-5.06139
-5.06142
-5.06145
-5.06148
-5.06152
-5.06155
-5.06159
-5.0616
-5.0616
-5.06159
-5.06157
-5.06154
-5.06151
-5.06147
-5.06143
-5.0614
-5.06137
-5.06136
-5.06135
-5.06135
-5.06135
-5.06135
-5.06136
-5.70787
-5.70787
-5.70787
-5.70787
-5.70787
-5.70788
-5.70789
-5.7079
-5.70792
-5.70794
-5.70796
-5.70799
-5.70803
-5.70807
-5.7081
-5.70814
-5.70815
-5.70815
-5.70814
-5.70812
-5.7081
-5.70807
-5.70804
-5.70801
-5.70798
-5.70795
-5.70793
-5.70792
-5.70792
-5.70792
-5.70792
-5.70793
-6.2707
-6.2707
-6.2707
-6.2707
-6.2707
-6.2707
-6.27071
-6.27073
-6.27075
-6.27077
-6.27079
-6.27083
-6.27086
-6.2709
-6.27094
-6.27098
-6.27099
-6.27099
-6.27098
-6.27096
-6.27094
-6.27092
-6.27089
-6.27086
-6.27083
-6.2708
-6.27078
-6.27077
-6.27076
-6.27076
-6.27077
-6.27077
-6.76066
-6.76066
-6.76065
-6.76065
-6.76066
-6.76066
-6.76067
-6.76068
-6.7607
-6.76072
-6.76075
-6.76078
-6.76082
-6.76086
-6.76091
-6.76095
-6.76096
-6.76096
-6.76095
-6.76092
-6.7609
-6.76088
-6.76085
-6.76083
-6.76079
-6.76076
-6.76074
-6.76072
-6.76071
-6.76072
-6.76072
-6.76073
-7.18718
-7.18718
-7.18718
-7.18718
-7.18718
-7.18718
-7.18719
-7.1872
-7.18721
-7.18723
-7.18726
-7.1873
-7.18734
-7.18739
-7.18744
-7.18748
-7.1875
-7.1875
-7.18748
-7.18746
-7.18743
-7.1874
-7.18737
-7.18734
-7.18731
-7.18727
-7.18724
-7.18721
-7.1872
-7.1872
-7.18721
-7.18721
-7.55849
-7.55849
-7.55848
-7.55848
-7.55848
-7.55848
-7.55848
-7.55849
-7.5585
-7.55852
-7.55855
-7.55859
-7.55864
-7.5587
-7.55875
-7.5588
-7.55882
-7.55882
-7.5588
-7.55877
-7.55874
-7.5587
-7.55866
-7.55863
-7.55859
-7.55854
-7.55849
-7.55846
-7.55843
-7.55843
-7.55843
-7.55844
-7.88173
-7.88172
-7.88172
-7.88172
-7.88172
-7.88172
-7.88171
-7.88171
-7.88172
-7.88174
-7.88177
-7.88181
-7.88187
-7.88193
-7.88199
-7.88205
-7.88207
-7.88207
-7.88205
-7.88202
-7.88198
-7.88194
-7.88188
-7.88183
-7.88177
-7.88171
-7.88165
-7.88159
-7.88155
-7.88153
-7.88154
-7.88155
-8.16312
-8.16312
-8.16312
-8.16312
-8.16311
-8.16311
-8.1631
-8.16309
-8.16309
-8.16311
-8.16314
-8.16319
-8.16325
-8.16332
-8.16339
-8.16345
-8.16348
-8.16348
-8.16346
-8.16343
-8.16338
-8.16332
-8.16326
-8.16318
-8.1631
-8.16301
-8.16292
-8.16284
-8.16277
-8.16273
-8.16273
-8.16274
-8.40809
-8.40809
-8.40809
-8.40809
-8.40808
-8.40807
-8.40805
-8.40804
-8.40803
-8.40804
-8.40808
-8.40814
-8.4082
-8.40828
-8.40836
-8.40842
-8.40846
-8.40846
-8.40844
-8.4084
-8.40835
-8.40829
-8.4082
-8.40811
-8.40799
-8.40786
-8.40773
-8.4076
-8.40749
-8.40743
-8.40741
-8.40741
-8.62136
-8.62136
-8.62136
-8.62135
-8.62134
-8.62132
-8.62129
-8.62127
-8.62126
-8.62127
-8.62131
-8.62137
-8.62145
-8.62153
-8.62161
-8.62168
-8.62172
-8.62173
-8.62171
-8.62167
-8.62161
-8.62154
-8.62144
-8.62131
-8.62116
-8.62098
-8.62079
-8.6206
-8.62044
-8.62032
-8.62027
-8.62027
-8.80703
-8.80703
-8.80703
-8.80702
-8.80699
-8.80696
-8.80692
-8.8069
-8.80688
-8.8069
-8.80694
-8.80701
-8.80709
-8.80718
-8.80727
-8.80734
-8.80738
-8.80738
-8.80736
-8.80732
-8.80726
-8.80718
-8.80706
-8.80691
-8.80672
-8.80648
-8.80622
-8.80596
-8.80572
-8.80552
-8.80542
-8.80538
-8.96869
-8.96869
-8.96868
-8.96865
-8.96861
-8.96857
-8.96852
-8.96849
-8.96848
-8.96849
-8.96854
-8.96861
-8.9687
-8.96879
-8.96888
-8.96896
-8.969
-8.96901
-8.96899
-8.96895
-8.96888
-8.96879
-8.96866
-8.96848
-8.96825
-8.96796
-8.96763
-8.96727
-8.96692
-8.96662
-8.96641
-8.96631
-9.10948
-9.10947
-9.10943
-9.10938
-9.10932
-9.10926
-9.1092
-9.10917
-9.10915
-9.10917
-9.10922
-9.1093
-9.10939
-9.10949
-9.10958
-9.10966
-9.1097
-9.10971
-9.10969
-9.10965
-9.10958
-9.10948
-9.10934
-9.10914
-9.10888
-9.10854
-9.10814
-9.10768
-9.1072
-9.10674
-9.10638
-9.10615
-9.23216
-9.23209
-9.23199
-9.23189
-9.2318
-9.23173
-9.23167
-9.23163
-9.23162
-9.23164
-9.23169
-9.23177
-9.23187
-9.23197
-9.23206
-9.23214
-9.23219
-9.2322
-9.23218
-9.23213
-9.23206
-9.23196
-9.23181
-9.2316
-9.23131
-9.23094
-9.23049
-9.22994
-9.22932
-9.22865
-9.22801
-9.22746
-9.33929
-9.3389
-9.33866
-9.33851
-9.33841
-9.33833
-9.33827
-9.33824
-9.33823
-9.33825
-9.33831
-9.33839
-9.33849
-9.33859
-9.33869
-9.33877
-9.33882
-9.33883
-9.33881
-9.33877
-9.33869
-9.33859
-9.33843
-9.33822
-9.33792
-9.33753
-9.33705
-9.33645
-9.33571
-9.3348
-9.33369
-9.33243
-9.43313
-9.4319
-9.43144
-9.43129
-9.4312
-9.43112
-9.43107
-9.43104
-9.43103
-9.43106
-9.43112
-9.43121
-9.43131
-9.43141
-9.43151
-9.4316
-9.43164
-9.43166
-9.43164
-9.43159
-9.43152
-9.43142
-9.43126
-9.43104
-9.43075
-9.43036
-9.42986
-9.42923
-9.42842
-9.42732
-9.42572
-9.42345
)
;

boundaryField
{
    movingWall
    {
        type            calculated;
        value           nonuniform List<scalar> 
32
(
-9.47634
-9.4751
-9.47464
-9.47449
-9.4744
-9.47432
-9.47427
-9.47424
-9.47424
-9.47427
-9.47433
-9.47441
-9.47451
-9.47462
-9.47472
-9.4748
-9.47485
-9.47486
-9.47484
-9.4748
-9.47473
-9.47462
-9.47446
-9.47425
-9.47395
-9.47356
-9.47306
-9.47244
-9.47163
-9.47053
-9.46892
-9.46666
)
;
    }
    fixedWalls
    {
        type            calculated;
        value           nonuniform List<scalar> 
64
(
6.93889e-18
-0.0928114
-0.199424
-0.321891
-0.46257
-0.624169
-0.809801
-1.02304
-1.268
-1.54939
-1.87263
-2.24396
-2.67053
-3.16054
-3.72342
-4.37001
-5.06132
-5.70787
-6.2707
-6.76066
-7.18718
-7.55849
-7.88173
-8.16312
-8.40809
-8.62136
-8.80703
-8.96869
-9.10948
-9.23216
-9.33929
-9.43313
-2.61933e-05
-0.0928369
-0.199449
-0.321916
-0.462598
-0.624204
-0.809847
-1.0231
-1.26806
-1.54946
-1.87269
-2.244
-2.67055
-3.16054
-3.72342
-4.37002
-5.06136
-5.70793
-6.27077
-6.76073
-7.18721
-7.55844
-7.88155
-8.16274
-8.40741
-8.62027
-8.80538
-8.96631
-9.10615
-9.22746
-9.33243
-9.42345
)
;
    }
    floor
    {
        type            calculated;
        value           nonuniform List<scalar> 
32
(
0.0431942
0.0431941
0.0431936
0.043193
0.0431923
0.0431917
0.0431913
0.0431908
0.0431899
0.0431885
0.0431866
0.0431847
0.0431837
0.0431857
0.0431945
0.0432162
0.043255
0.0432988
0.0433286
0.0433321
0.0433108
0.0432741
0.0432356
0.0432059
0.0431865
0.0431749
0.0431685
0.0431655
0.0431648
0.0431656
0.043167
0.0431681
)
;
    }
    frontAndBack
    {
        type            empty;
    }
}


// ************************************************************************* //
