/*--------------------------------*- C++ -*----------------------------------*\
| =========                 |                                                 |
| \\      /  F ield         | OpenFOAM: The Open Source CFD Toolbox           |
|  \\    /   O peration     | Version:  2212                                  |
|   \\  /    A nd           | Website:  www.openfoam.com                      |
|    \\/     M anipulation  |                                                 |
\*---------------------------------------------------------------------------*/
FoamFile
{
    version     2.0;
    format      ascii;
    arch        "LSB;label=64;scalar=64";
    class       volScalarField;
    location    "1970";
    object      SIC;
}
// * * * * * * * * * * * * * * * * * * * * * * * * * * * * * * * * * * * * * //

dimensions      [1 -3 0 0 0 0 0];

internalField   nonuniform List<scalar> 
1024
(
0.0920338
0.0920357
0.0920405
0.0920495
0.0920642
0.0920862
0.0921176
0.0921602
0.092215
0.0922822
0.0923599
0.0924444
0.0925309
0.0926145
0.0926911
0.0927579
0.0928075
0.0928332
0.092837
0.0928232
0.0927953
0.0927573
0.092714
0.0926702
0.09263
0.0925964
0.0925702
0.0925511
0.0925382
0.0925302
0.0925258
0.0925241
0.0920343
0.0920363
0.0920412
0.0920503
0.0920651
0.0920873
0.092119
0.0921619
0.0922172
0.0922847
0.0923627
0.0924475
0.0925341
0.0926176
0.0926942
0.092761
0.0928106
0.0928365
0.0928405
0.0928268
0.0927989
0.0927608
0.0927172
0.092673
0.0926325
0.0925985
0.0925719
0.0925526
0.0925396
0.0925315
0.0925271
0.0925253
0.0920358
0.0920379
0.0920429
0.0920522
0.0920673
0.09209
0.0921223
0.092166
0.0922221
0.0922906
0.0923692
0.0924544
0.0925412
0.0926246
0.0927011
0.092768
0.0928181
0.0928446
0.0928492
0.0928358
0.0928077
0.092769
0.0927246
0.0926794
0.092638
0.0926031
0.0925759
0.0925561
0.0925428
0.0925345
0.0925301
0.0925283
0.0920387
0.0920408
0.092046
0.0920556
0.0920711
0.0920946
0.092128
0.092173
0.0922306
0.0923005
0.0923802
0.092466
0.0925529
0.0926363
0.0927127
0.0927801
0.0928312
0.0928593
0.0928652
0.0928523
0.0928236
0.0927834
0.0927371
0.0926902
0.0926471
0.0926109
0.0925827
0.0925623
0.0925485
0.0925401
0.0925356
0.0925338
0.0920432
0.0920454
0.0920508
0.0920608
0.0920772
0.0921018
0.0921367
0.0921836
0.0922433
0.0923151
0.0923963
0.0924829
0.09257
0.0926532
0.0927298
0.0927982
0.0928516
0.0928827
0.0928909
0.0928788
0.092849
0.092806
0.0927565
0.0927064
0.0926609
0.0926227
0.0925932
0.0925719
0.0925578
0.0925492
0.0925447
0.0925429
0.0920497
0.092052
0.0920578
0.0920684
0.0920857
0.0921119
0.0921489
0.0921983
0.0922606
0.0923349
0.0924179
0.0925054
0.0925926
0.0926758
0.092753
0.0928235
0.092881
0.0929169
0.092929
0.0929183
0.0928868
0.0928397
0.092785
0.0927302
0.0926808
0.09264
0.0926087
0.0925865
0.092572
0.0925633
0.0925589
0.0925572
0.0920587
0.0920611
0.0920672
0.0920786
0.0920972
0.0921252
0.0921647
0.0922172
0.0922827
0.0923598
0.0924448
0.0925332
0.0926206
0.0927041
0.0927828
0.0928569
0.0929205
0.0929638
0.0929816
0.0929732
0.0929399
0.0928878
0.0928262
0.0927646
0.0927098
0.0926653
0.0926319
0.0926086
0.0925937
0.0925851
0.0925808
0.0925793
0.0920701
0.0920727
0.0920793
0.0920915
0.0921115
0.0921417
0.0921841
0.09224
0.0923091
0.0923892
0.0924763
0.0925656
0.0926535
0.0927379
0.0928191
0.0928984
0.0929706
0.0930236
0.0930494
0.0930451
0.0930114
0.0929544
0.0928852
0.0928153
0.0927534
0.0927039
0.0926675
0.0926427
0.0926274
0.0926189
0.0926149
0.0926136
0.0920841
0.0920869
0.0920938
0.0921069
0.0921285
0.0921609
0.0922064
0.0922659
0.0923387
0.0924218
0.092511
0.0926014
0.09269
0.0927759
0.0928606
0.0929466
0.0930291
0.0930941
0.0931305
0.0931338
0.0931032
0.0930446
0.0929694
0.092891
0.0928207
0.0927646
0.0927239
0.092697
0.0926808
0.0926721
0.0926684
0.0926672
0.0921002
0.0921031
0.0921104
0.0921243
0.0921474
0.092182
0.0922305
0.0922934
0.0923696
0.0924556
0.0925468
0.0926384
0.092728
0.0928157
0.0929041
0.0929968
0.0930899
0.0931682
0.0932189
0.0932355
0.0932153
0.0931622
0.0930869
0.0930034
0.0929253
0.0928614
0.0928147
0.0927839
0.0927656
0.0927562
0.0927522
0.0927511
0.0921177
0.0921207
0.0921283
0.0921429
0.0921671
0.0922036
0.0922545
0.0923202
0.0923994
0.0924879
0.0925807
0.0926732
0.0927634
0.0928521
0.0929428
0.0930401
0.0931415
0.0932336
0.0933028
0.0933406
0.0933415
0.093306
0.0932419
0.0931621
0.0930813
0.0930107
0.0929566
0.0929197
0.0928973
0.0928854
0.0928802
0.0928787
0.0921356
0.0921386
0.0921464
0.0921614
0.0921863
0.0922239
0.0922763
0.092344
0.092425
0.092515
0.0926086
0.092701
0.0927902
0.0928773
0.092966
0.0930623
0.093167
0.0932714
0.0933627
0.0934302
0.0934642
0.093461
0.0934239
0.0933626
0.0932903
0.0932198
0.0931605
0.0931168
0.0930883
0.093072
0.0930643
0.0930616
0.0921525
0.0921555
0.0921633
0.0921783
0.0922033
0.092241
0.0922937
0.0923616
0.0924429
0.0925328
0.0926253
0.0927153
0.0928
0.0928803
0.0929597
0.093046
0.0931457
0.0932584
0.0933732
0.0934759
0.0935525
0.0935942
0.0935995
0.0935736
0.0935261
0.093469
0.0934135
0.0933673
0.0933341
0.0933132
0.0933023
0.0932982
0.0921666
0.0921696
0.0921773
0.0921919
0.0922161
0.0922527
0.0923038
0.0923698
0.0924488
0.0925359
0.0926245
0.0927083
0.0927835
0.0928498
0.0929106
0.0929755
0.0930593
0.0931736
0.0933094
0.0934486
0.0935719
0.0936652
0.0937224
0.093744
0.093736
0.0937077
0.0936697
0.0936317
0.0936004
0.0935785
0.0935659
0.0935608
0.0921758
0.0921787
0.0921861
0.0921998
0.0922224
0.0922564
0.0923038
0.0923653
0.0924388
0.0925195
0.0926002
0.0926735
0.0927338
0.0927791
0.0928122
0.0928448
0.0929013
0.0930074
0.0931582
0.0933317
0.0935026
0.0936504
0.0937633
0.0938376
0.0938762
0.0938859
0.0938761
0.0938566
0.0938355
0.0938183
0.0938072
0.0938023
0.0921769
0.0921798
0.0921866
0.0921992
0.0922193
0.0922494
0.092291
0.092345
0.0924095
0.0924799
0.092549
0.0926084
0.0926505
0.0926713
0.0926726
0.0926668
0.0926863
0.0927719
0.0929264
0.0931277
0.0933454
0.0935511
0.0937246
0.0938563
0.093945
0.093996
0.094018
0.0940209
0.0940141
0.0940047
0.0939971
0.0939933
0.092167
0.0921697
0.0921761
0.0921873
0.092205
0.0922306
0.0922656
0.0923105
0.0923641
0.0924223
0.0924784
0.0925237
0.0925498
0.0925507
0.0925264
0.0924879
0.0924707
0.0925249
0.0926647
0.0928757
0.0931287
0.0933889
0.0936261
0.0938205
0.0939646
0.0940601
0.0941153
0.0941409
0.0941481
0.0941463
0.0941421
0.0941393
0.0921476
0.0921503
0.0921563
0.0921666
0.0921822
0.0922043
0.0922336
0.0922706
0.0923143
0.0923614
0.0924061
0.0924405
0.0924561
0.0924466
0.0924105
0.0923567
0.0923193
0.0923486
0.0924647
0.0926638
0.0929259
0.0932189
0.0935063
0.0937581
0.0939569
0.0940986
0.0941886
0.0942379
0.0942592
0.0942645
0.0942631
0.094261
0.0921231
0.0921257
0.0921315
0.0921412
0.0921554
0.0921749
0.0922001
0.0922312
0.0922671
0.0923054
0.0923411
0.0923677
0.0923777
0.092365
0.0923279
0.0922741
0.0922349
0.092256
0.0923564
0.0925385
0.0927916
0.0930919
0.0934049
0.0936958
0.0939387
0.0941217
0.0942452
0.0943184
0.0943545
0.0943674
0.094369
0.0943675
0.092097
0.0920994
0.0921048
0.0921138
0.0921269
0.0921444
0.0921667
0.0921933
0.0922235
0.0922549
0.0922837
0.0923046
0.0923116
0.0923002
0.0922694
0.0922268
0.0922004
0.0922277
0.0923239
0.0924933
0.0927312
0.093022
0.0933388
0.0936485
0.0939209
0.0941367
0.0942902
0.0943867
0.0944381
0.0944593
0.0944641
0.0944633
0.0920749
0.0920768
0.0920813
0.0920889
0.0921002
0.0921156
0.092135
0.0921581
0.0921836
0.0922097
0.0922333
0.0922505
0.0922573
0.0922512
0.0922329
0.092211
0.0922089
0.0922529
0.092353
0.0925143
0.0927364
0.0930095
0.0933143
0.0936243
0.0939102
0.0941483
0.0943264
0.0944444
0.0945114
0.0945415
0.0945501
0.0945501
0.0920658
0.0920667
0.0920691
0.0920738
0.0920816
0.0920932
0.0921087
0.0921278
0.0921493
0.0921714
0.0921919
0.0922085
0.0922195
0.0922244
0.0922261
0.0922334
0.0922634
0.0923299
0.0924378
0.0925926
0.0927973
0.0930481
0.0933318
0.0936278
0.093912
0.0941606
0.0943564
0.0944931
0.0945752
0.0946149
0.0946278
0.0946288
0.0920817
0.0920808
0.0920796
0.092079
0.0920805
0.0920856
0.0920952
0.0921092
0.0921269
0.092147
0.0921682
0.0921899
0.092212
0.0922358
0.0922649
0.0923072
0.0923718
0.092461
0.092576
0.092723
0.0929081
0.0931321
0.093388
0.0936608
0.0939311
0.0941782
0.0943833
0.0945346
0.0946307
0.0946802
0.094698
0.0947002
0.0921353
0.0921317
0.0921252
0.0921172
0.09211
0.0921062
0.0921081
0.0921168
0.0921324
0.0921544
0.0921824
0.0922167
0.0922579
0.0923075
0.092368
0.0924451
0.0925404
0.0926471
0.0927649
0.0929014
0.0930642
0.0932581
0.0934809
0.0937234
0.0939709
0.094206
0.0944112
0.0945712
0.094679
0.0947382
0.0947612
0.0947649
0.0922372
0.0922302
0.0922174
0.0922011
0.0921851
0.0921731
0.0921689
0.092175
0.0921928
0.0922226
0.0922641
0.0923173
0.0923822
0.0924588
0.0925478
0.0926526
0.0927686
0.0928842
0.0929987
0.0931213
0.0932603
0.0934223
0.0936092
0.0938163
0.094034
0.0942487
0.0944447
0.0946063
0.0947219
0.0947895
0.0948181
0.0948235
0.0923942
0.0923834
0.0923647
0.0923428
0.0923225
0.0923083
0.0923042
0.0923141
0.0923403
0.0923829
0.0924411
0.0925138
0.0925996
0.092697
0.0928049
0.0929245
0.0930484
0.093163
0.0932685
0.0933743
0.093489
0.0936197
0.0937701
0.0939395
0.0941223
0.0943095
0.0944882
0.0946434
0.0947614
0.0948352
0.094869
0.0948765
0.0926096
0.0925951
0.0925739
0.0925533
0.0925384
0.0925323
0.0925379
0.0925588
0.0925972
0.0926529
0.0927245
0.0928102
0.0929073
0.0930133
0.0931264
0.0932466
0.0933656
0.0934706
0.0935624
0.0936498
0.093741
0.0938425
0.0939585
0.0940905
0.0942364
0.0943909
0.0945451
0.0946863
0.0948001
0.0948765
0.0949143
0.094924
0.0928854
0.0928688
0.0928517
0.092843
0.0928452
0.0928573
0.0928796
0.0929144
0.0929633
0.0930263
0.0931024
0.0931894
0.0932849
0.0933861
0.093491
0.0935993
0.0937033
0.0937923
0.0938673
0.0939362
0.0940056
0.094081
0.0941664
0.094264
0.0943737
0.0944934
0.0946179
0.094738
0.0948409
0.0949148
0.0949546
0.0949662
0.0932256
0.0932107
0.0932076
0.0932212
0.0932469
0.0932797
0.0933176
0.0933618
0.0934137
0.0934745
0.0935439
0.0936206
0.0937026
0.0937878
0.0938744
0.0939621
0.0940446
0.0941139
0.094171
0.0942219
0.0942719
0.0943248
0.0943842
0.0944519
0.0945289
0.0946147
0.0947071
0.0948007
0.0948861
0.0949519
0.0949905
0.0950033
0.0936397
0.0936342
0.093654
0.0936904
0.0937333
0.0937772
0.0938202
0.0938634
0.0939086
0.0939577
0.0940113
0.094069
0.0941298
0.094192
0.0942546
0.0943171
0.0943753
0.0944236
0.0944628
0.0944971
0.09453
0.0945642
0.0946021
0.0946451
0.0946942
0.0947496
0.0948107
0.0948754
0.0949379
0.0949898
0.0950231
0.0950356
0.0941456
0.094158
0.0941943
0.0942352
0.0942753
0.0943124
0.0943458
0.0943767
0.0944067
0.0944376
0.0944704
0.094505
0.0945411
0.0945779
0.0946146
0.094651
0.0946847
0.0947125
0.0947348
0.0947542
0.0947725
0.0947912
0.0948116
0.0948348
0.0948611
0.094891
0.0949244
0.0949608
0.0949976
0.0950304
0.0950535
0.0950634
0.0947646
0.0947742
0.0947928
0.0948106
0.0948269
0.0948414
0.0948539
0.094865
0.0948754
0.0948858
0.0948966
0.094908
0.0949197
0.0949316
0.0949435
0.0949553
0.0949661
0.094975
0.0949822
0.0949884
0.0949941
0.095
0.0950063
0.0950135
0.0950216
0.0950308
0.0950411
0.0950524
0.0950642
0.0950752
0.0950835
0.0950875
)
;

boundaryField
{
    movingWall
    {
        type            fixedValue;
        value           uniform 0.0951;
    }
    fixedWalls
    {
        type            zeroGradient;
    }
    floor
    {
        type            zeroGradient;
    }
    frontAndBack
    {
        type            empty;
    }
}


// ************************************************************************* //
