/*--------------------------------*- C++ -*----------------------------------*\
| =========                 |                                                 |
| \\      /  F ield         | OpenFOAM: The Open Source CFD Toolbox           |
|  \\    /   O peration     | Version:  2206                                  |
|   \\  /    A nd           | Website:  www.openfoam.com                      |
|    \\/     M anipulation  |                                                 |
\*---------------------------------------------------------------------------*/
FoamFile
{
    version     2.0;
    format      ascii;
    arch        "LSB;label=64;scalar=64";
    class       surfaceScalarField;
    location    "57600";
    object      phi;
}
// * * * * * * * * * * * * * * * * * * * * * * * * * * * * * * * * * * * * * //

dimensions      [0 3 -1 0 0 0 0];

oriented        oriented;

internalField   nonuniform List<scalar> 
24
(
6.45546e-11
-6.45546e-11
3.22587e-10
-2.58033e-10
3.3017e-10
-7.58276e-12
3.3017e-10
1.3418e-12
-6.58964e-11
2.22498e-10
-4.79189e-10
2.20005e-10
-5.09019e-12
5.50175e-10
-2.9367e-11
-3.65294e-11
-1.50547e-10
-3.58008e-10
-1.5364e-10
-1.99712e-12
3.96535e-10
-3.65295e-11
-3.94538e-10
-3.96535e-10
)
;

boundaryField
{
    movingWall
    {
        type            calculated;
        value           nonuniform List<scalar> 4(-5.04871e-29 0 0 0);
    }
    fixedWalls
    {
        type            calculated;
        value           uniform 0;
    }
    frontAndBack
    {
        type            empty;
        value           nonuniform List<scalar> 0();
    }
}


// ************************************************************************* //
