/*--------------------------------*- C++ -*----------------------------------*\
| =========                 |                                                 |
| \\      /  F ield         | OpenFOAM: The Open Source CFD Toolbox           |
|  \\    /   O peration     | Version:  2212                                  |
|   \\  /    A nd           | Website:  www.openfoam.com                      |
|    \\/     M anipulation  |                                                 |
\*---------------------------------------------------------------------------*/
FoamFile
{
    version     2.0;
    format      ascii;
    arch        "LSB;label=64;scalar=64";
    class       volScalarField;
    location    "500";
    object      Saa;
}
// * * * * * * * * * * * * * * * * * * * * * * * * * * * * * * * * * * * * * //

dimensions      [1 -3 0 0 0 0 0];

internalField   nonuniform List<scalar> 
1024
(
0.00547915
0.00547916
0.00547917
0.0054792
0.00547925
0.00547931
0.00547938
0.00547945
0.00547952
0.00547959
0.00547965
0.00547971
0.00547976
0.00547979
0.00547978
0.00547972
0.00547964
0.00547956
0.00547949
0.00547942
0.00547935
0.00547926
0.00547914
0.00547898
0.0054788
0.00547862
0.00547844
0.0054783
0.00547819
0.00547812
0.00547808
0.00547807
0.00547915
0.00547916
0.00547917
0.00547921
0.00547925
0.00547931
0.00547938
0.00547945
0.00547952
0.00547959
0.00547965
0.00547971
0.00547976
0.00547979
0.00547978
0.00547972
0.00547964
0.00547956
0.00547948
0.00547942
0.00547935
0.00547926
0.00547914
0.00547899
0.00547882
0.00547863
0.00547846
0.00547831
0.0054782
0.00547813
0.00547809
0.00547807
0.00547915
0.00547916
0.00547918
0.00547921
0.00547926
0.00547932
0.00547939
0.00547945
0.00547952
0.00547959
0.00547965
0.00547971
0.00547977
0.00547979
0.00547978
0.00547971
0.00547963
0.00547954
0.00547947
0.00547941
0.00547934
0.00547926
0.00547915
0.00547901
0.00547884
0.00547866
0.00547848
0.00547833
0.00547822
0.00547814
0.0054781
0.00547808
0.00547915
0.00547916
0.00547918
0.00547921
0.00547926
0.00547932
0.00547939
0.00547945
0.00547952
0.00547958
0.00547964
0.00547971
0.00547977
0.0054798
0.00547977
0.0054797
0.0054796
0.00547952
0.00547945
0.00547939
0.00547933
0.00547926
0.00547916
0.00547904
0.00547887
0.00547869
0.00547852
0.00547836
0.00547824
0.00547816
0.00547812
0.0054781
0.00547915
0.00547916
0.00547918
0.00547921
0.00547926
0.00547932
0.00547938
0.00547944
0.0054795
0.00547956
0.00547963
0.00547971
0.00547977
0.0054798
0.00547976
0.00547967
0.00547956
0.00547947
0.0054794
0.00547935
0.0054793
0.00547924
0.00547917
0.00547905
0.00547891
0.00547874
0.00547856
0.0054784
0.00547828
0.00547819
0.00547814
0.00547812
0.00547915
0.00547915
0.00547917
0.00547921
0.00547925
0.00547931
0.00547936
0.00547942
0.00547947
0.00547953
0.00547961
0.0054797
0.00547978
0.00547981
0.00547975
0.00547961
0.00547948
0.00547938
0.00547931
0.00547927
0.00547924
0.0054792
0.00547915
0.00547906
0.00547893
0.00547877
0.0054786
0.00547844
0.00547831
0.00547822
0.00547817
0.00547815
0.00547914
0.00547914
0.00547916
0.00547919
0.00547923
0.00547928
0.00547933
0.00547937
0.00547942
0.00547948
0.00547957
0.00547968
0.0054798
0.00547983
0.00547973
0.00547953
0.00547935
0.00547924
0.00547918
0.00547915
0.00547914
0.00547913
0.0054791
0.00547904
0.00547894
0.0054788
0.00547864
0.00547848
0.00547835
0.00547826
0.00547821
0.00547819
0.00547912
0.00547913
0.00547914
0.00547917
0.0054792
0.00547924
0.00547927
0.00547931
0.00547935
0.00547942
0.00547952
0.00547967
0.00547982
0.00547985
0.00547969
0.00547941
0.00547917
0.00547903
0.00547897
0.00547896
0.00547898
0.005479
0.00547901
0.00547898
0.00547891
0.0054788
0.00547865
0.0054785
0.00547838
0.00547829
0.00547824
0.00547822
0.00547909
0.0054791
0.00547911
0.00547913
0.00547916
0.00547918
0.0054792
0.00547923
0.00547926
0.00547933
0.00547946
0.00547966
0.00547986
0.00547989
0.00547965
0.00547925
0.00547891
0.00547873
0.00547868
0.0054787
0.00547876
0.00547882
0.00547887
0.00547888
0.00547885
0.00547876
0.00547864
0.0054785
0.00547839
0.00547831
0.00547826
0.00547824
0.00547904
0.00547905
0.00547906
0.00547908
0.00547909
0.00547911
0.00547912
0.00547913
0.00547916
0.00547923
0.0054794
0.00547967
0.00547994
0.00547995
0.0054796
0.00547902
0.00547855
0.00547833
0.00547829
0.00547835
0.00547845
0.00547857
0.00547867
0.00547874
0.00547874
0.00547869
0.00547859
0.00547848
0.00547838
0.00547831
0.00547827
0.00547825
0.00547897
0.00547898
0.00547899
0.005479
0.00547901
0.00547902
0.00547902
0.00547902
0.00547904
0.00547914
0.00547937
0.00547973
0.00548006
0.00548003
0.00547951
0.00547872
0.00547809
0.00547782
0.00547779
0.0054779
0.00547807
0.00547825
0.00547842
0.00547854
0.00547859
0.00547858
0.00547852
0.00547844
0.00547836
0.0054783
0.00547826
0.00547824
0.00547885
0.00547886
0.00547888
0.00547889
0.0054789
0.0054789
0.0054789
0.0054789
0.00547894
0.0054791
0.00547942
0.00547989
0.00548025
0.00548012
0.00547937
0.00547832
0.00547752
0.00547719
0.00547719
0.00547736
0.00547761
0.00547787
0.00547811
0.0054783
0.0054784
0.00547844
0.00547842
0.00547837
0.00547831
0.00547826
0.00547823
0.00547821
0.00547869
0.00547869
0.00547871
0.00547872
0.00547874
0.00547875
0.00547876
0.0054788
0.00547892
0.00547918
0.00547965
0.00548022
0.00548053
0.00548019
0.00547913
0.0054778
0.00547683
0.00547648
0.00547652
0.00547677
0.0054771
0.00547745
0.00547777
0.00547802
0.00547818
0.00547826
0.00547828
0.00547826
0.00547823
0.00547819
0.00547817
0.00547815
0.0054786
0.0054786
0.0054786
0.00547861
0.00547863
0.00547867
0.00547875
0.0054789
0.00547918
0.00547963
0.00548024
0.00548079
0.00548087
0.00548015
0.00547873
0.00547716
0.0054761
0.00547575
0.00547585
0.00547618
0.00547659
0.00547702
0.0054774
0.00547772
0.00547794
0.00547807
0.00547813
0.00547814
0.00547813
0.0054781
0.00547808
0.00547806
0.00547903
0.00547903
0.00547904
0.00547907
0.00547912
0.00547923
0.00547942
0.00547973
0.00548017
0.00548073
0.00548129
0.00548154
0.00548111
0.00547989
0.00547817
0.0054765
0.00547546
0.00547517
0.00547534
0.00547572
0.00547619
0.00547666
0.00547708
0.00547742
0.00547767
0.00547783
0.00547791
0.00547794
0.00547794
0.00547793
0.00547791
0.00547789
0.00548046
0.00548048
0.00548053
0.00548061
0.00548074
0.00548093
0.00548121
0.00548156
0.00548197
0.00548233
0.00548245
0.00548207
0.00548104
0.00547946
0.0054777
0.00547617
0.00547526
0.00547505
0.00547525
0.00547566
0.00547615
0.00547663
0.00547705
0.00547739
0.00547762
0.00547776
0.00547782
0.00547783
0.0054778
0.00547776
0.00547773
0.00547771
0.00548237
0.0054824
0.00548247
0.00548258
0.00548273
0.00548293
0.00548316
0.00548338
0.00548352
0.00548346
0.00548306
0.00548223
0.00548102
0.00547959
0.00547813
0.00547683
0.00547599
0.00547571
0.00547581
0.00547608
0.0054764
0.0054767
0.00547694
0.0054771
0.0054772
0.00547724
0.00547724
0.00547725
0.00547726
0.00547728
0.00547731
0.00547732
0.00548366
0.00548369
0.00548375
0.00548386
0.00548399
0.00548416
0.00548432
0.00548444
0.00548444
0.00548424
0.00548381
0.00548313
0.00548224
0.00548119
0.00548005
0.00547892
0.00547802
0.00547751
0.00547727
0.00547717
0.00547714
0.00547714
0.00547719
0.00547729
0.00547745
0.00547768
0.00547798
0.00547832
0.00547866
0.00547896
0.00547916
0.00547925
0.00548435
0.00548438
0.00548444
0.00548455
0.00548471
0.00548491
0.00548513
0.00548531
0.00548541
0.00548539
0.00548522
0.00548491
0.00548447
0.00548389
0.00548322
0.00548253
0.00548197
0.00548174
0.00548178
0.00548201
0.00548237
0.00548281
0.00548329
0.0054838
0.00548429
0.00548475
0.00548516
0.0054855
0.00548576
0.00548593
0.00548602
0.00548606
0.00548472
0.00548475
0.00548482
0.00548495
0.00548514
0.0054854
0.00548571
0.00548603
0.00548632
0.00548655
0.0054867
0.00548678
0.00548679
0.00548673
0.00548664
0.0054866
0.00548678
0.00548731
0.00548814
0.00548919
0.00549032
0.00549144
0.00549245
0.00549329
0.00549393
0.00549433
0.00549449
0.00549445
0.00549426
0.00549401
0.00549381
0.00549371
0.0054849
0.00548492
0.00548499
0.00548512
0.00548533
0.00548561
0.00548598
0.00548639
0.00548684
0.00548728
0.0054877
0.00548809
0.00548845
0.00548879
0.00548914
0.00548962
0.00549035
0.00549142
0.00549271
0.00549407
0.00549538
0.00549651
0.00549741
0.00549808
0.00549852
0.00549875
0.00549882
0.00549873
0.00549854
0.0054983
0.0054981
0.00549799
0.00548499
0.00548502
0.00548508
0.00548521
0.0054854
0.00548569
0.00548607
0.00548653
0.00548706
0.00548762
0.00548821
0.00548881
0.00548941
0.00549
0.00549061
0.00549135
0.00549232
0.00549354
0.00549485
0.0054961
0.00549716
0.00549798
0.00549856
0.00549895
0.00549922
0.0054994
0.00549951
0.00549956
0.00549956
0.00549951
0.00549944
0.0054994
0.00548509
0.00548511
0.00548517
0.00548527
0.00548545
0.00548573
0.0054861
0.00548658
0.00548715
0.00548779
0.00548849
0.00548922
0.00548997
0.00549072
0.00549147
0.0054923
0.00549329
0.00549443
0.00549559
0.00549663
0.00549746
0.00549808
0.00549851
0.00549883
0.00549909
0.00549929
0.00549946
0.00549958
0.00549966
0.0054997
0.0054997
0.0054997
0.00548528
0.00548529
0.00548532
0.0054854
0.00548556
0.00548582
0.00548618
0.00548667
0.00548728
0.00548798
0.00548876
0.00548959
0.00549044
0.00549128
0.0054921
0.00549293
0.00549385
0.00549484
0.00549581
0.00549666
0.00549735
0.00549788
0.00549828
0.00549861
0.0054989
0.00549916
0.00549938
0.00549955
0.00549966
0.00549973
0.00549976
0.00549976
0.00548564
0.00548563
0.00548564
0.00548569
0.00548581
0.00548605
0.00548643
0.00548694
0.00548758
0.00548834
0.00548918
0.00549008
0.00549099
0.00549188
0.00549272
0.00549354
0.00549435
0.00549517
0.00549596
0.00549667
0.00549726
0.00549773
0.00549812
0.00549846
0.00549877
0.00549906
0.00549931
0.00549952
0.00549966
0.00549975
0.00549979
0.0054998
0.00548628
0.00548624
0.0054862
0.00548622
0.00548633
0.00548656
0.00548696
0.00548751
0.0054882
0.005489
0.00548988
0.00549081
0.00549174
0.00549263
0.00549346
0.00549423
0.00549494
0.00549561
0.00549625
0.00549682
0.00549732
0.00549774
0.00549811
0.00549843
0.00549874
0.00549903
0.00549929
0.00549951
0.00549967
0.00549978
0.00549983
0.00549984
0.00548724
0.00548717
0.00548711
0.0054871
0.00548721
0.00548748
0.00548791
0.0054885
0.00548923
0.00549005
0.00549093
0.00549183
0.00549272
0.00549357
0.00549434
0.00549503
0.00549565
0.00549619
0.00549669
0.00549715
0.00549756
0.00549791
0.00549823
0.00549852
0.0054988
0.00549906
0.00549931
0.00549953
0.00549969
0.0054998
0.00549986
0.00549988
0.00548857
0.00548848
0.00548841
0.00548843
0.00548859
0.0054889
0.00548938
0.00548999
0.0054907
0.00549148
0.0054923
0.00549312
0.00549392
0.00549466
0.00549534
0.00549594
0.00549645
0.00549688
0.00549726
0.00549761
0.00549793
0.00549821
0.00549847
0.00549871
0.00549894
0.00549916
0.00549938
0.00549957
0.00549973
0.00549983
0.00549989
0.00549991
0.0054903
0.00549021
0.00549018
0.00549028
0.00549051
0.00549087
0.00549136
0.00549193
0.00549256
0.00549324
0.00549393
0.00549461
0.00549526
0.00549587
0.00549641
0.00549689
0.00549729
0.00549761
0.00549789
0.00549815
0.00549838
0.00549859
0.00549879
0.00549897
0.00549914
0.00549931
0.00549948
0.00549964
0.00549977
0.00549987
0.00549992
0.00549994
0.00549244
0.0054924
0.00549248
0.00549267
0.00549295
0.0054933
0.00549372
0.00549418
0.00549468
0.00549519
0.0054957
0.0054962
0.00549667
0.00549711
0.00549751
0.00549785
0.00549813
0.00549836
0.00549854
0.00549871
0.00549887
0.00549901
0.00549914
0.00549927
0.00549938
0.0054995
0.00549962
0.00549973
0.00549983
0.0054999
0.00549995
0.00549997
0.00549507
0.00549513
0.0054953
0.00549551
0.00549574
0.00549599
0.00549627
0.00549657
0.00549687
0.00549718
0.00549749
0.00549779
0.00549807
0.00549833
0.00549857
0.00549877
0.00549893
0.00549906
0.00549917
0.00549926
0.00549935
0.00549943
0.0054995
0.00549957
0.00549964
0.0054997
0.00549977
0.00549983
0.00549989
0.00549994
0.00549997
0.00549998
0.00549828
0.00549832
0.00549841
0.0054985
0.00549859
0.00549869
0.00549878
0.00549888
0.00549898
0.00549909
0.00549919
0.00549929
0.00549938
0.00549946
0.00549954
0.00549961
0.00549966
0.0054997
0.00549973
0.00549976
0.00549979
0.00549982
0.00549984
0.00549986
0.00549988
0.0054999
0.00549993
0.00549995
0.00549996
0.00549998
0.00549999
0.0055
)
;

boundaryField
{
    movingWall
    {
        type            fixedValue;
        value           uniform 0.0055;
    }
    fixedWalls
    {
        type            zeroGradient;
    }
    floor
    {
        type            zeroGradient;
    }
    frontAndBack
    {
        type            empty;
    }
}


// ************************************************************************* //
