/*--------------------------------*- C++ -*----------------------------------*\
| =========                 |                                                 |
| \\      /  F ield         | OpenFOAM: The Open Source CFD Toolbox           |
|  \\    /   O peration     | Version:  2212                                  |
|   \\  /    A nd           | Website:  www.openfoam.com                      |
|    \\/     M anipulation  |                                                 |
\*---------------------------------------------------------------------------*/
FoamFile
{
    version     2.0;
    format      ascii;
    arch        "LSB;label=64;scalar=64";
    class       volScalarField;
    location    "500";
    object      Xli;
}
// * * * * * * * * * * * * * * * * * * * * * * * * * * * * * * * * * * * * * //

dimensions      [1 -3 0 0 0 0 0];

internalField   nonuniform List<scalar> 
1024
(
0.042598
0.0425984
0.0425991
0.0426005
0.0426025
0.0426051
0.0426082
0.0426115
0.0426148
0.0426181
0.0426213
0.0426244
0.0426273
0.0426292
0.0426295
0.042628
0.0426251
0.0426216
0.0426182
0.0426148
0.0426112
0.0426071
0.0426021
0.0425962
0.0425897
0.042583
0.0425771
0.0425722
0.0425685
0.0425662
0.0425648
0.0425643
0.0425981
0.0425984
0.0425992
0.0426006
0.0426027
0.0426053
0.0426084
0.0426117
0.042615
0.0426182
0.0426214
0.0426246
0.0426274
0.0426294
0.0426297
0.0426281
0.0426251
0.0426216
0.0426182
0.0426149
0.0426113
0.0426073
0.0426024
0.0425966
0.0425901
0.0425835
0.0425775
0.0425725
0.0425688
0.0425664
0.042565
0.0425644
0.0425981
0.0425985
0.0425993
0.0426008
0.0426029
0.0426056
0.0426087
0.0426119
0.0426152
0.0426184
0.0426216
0.0426248
0.0426278
0.0426298
0.04263
0.0426283
0.0426251
0.0426216
0.0426182
0.0426149
0.0426115
0.0426077
0.0426031
0.0425975
0.0425911
0.0425845
0.0425784
0.0425732
0.0425694
0.0425668
0.0425654
0.0425648
0.0425982
0.0425986
0.0425995
0.042601
0.0426032
0.0426059
0.0426089
0.0426121
0.0426152
0.0426183
0.0426216
0.0426251
0.0426284
0.0426305
0.0426306
0.0426284
0.042625
0.0426213
0.042618
0.0426148
0.0426116
0.0426081
0.0426038
0.0425986
0.0425925
0.0425859
0.0425797
0.0425743
0.0425703
0.0425675
0.042566
0.0425654
0.0425982
0.0425986
0.0425995
0.0426011
0.0426032
0.0426059
0.0426088
0.0426118
0.0426148
0.0426179
0.0426214
0.0426253
0.0426292
0.0426317
0.0426314
0.0426286
0.0426245
0.0426206
0.0426172
0.0426142
0.0426114
0.0426082
0.0426045
0.0425997
0.042594
0.0425876
0.0425813
0.0425757
0.0425714
0.0425685
0.0425669
0.0425662
0.0425981
0.0425985
0.0425994
0.0426009
0.042603
0.0426055
0.0426082
0.042611
0.0426138
0.0426169
0.0426207
0.0426254
0.0426303
0.0426332
0.0426324
0.0426285
0.0426234
0.0426191
0.0426157
0.0426129
0.0426104
0.0426078
0.0426046
0.0426006
0.0425953
0.0425893
0.042583
0.0425773
0.0425728
0.0425697
0.042568
0.0425673
0.0425978
0.0425982
0.042599
0.0426004
0.0426023
0.0426045
0.0426069
0.0426094
0.042612
0.0426152
0.0426195
0.0426252
0.0426316
0.0426352
0.0426337
0.0426279
0.0426214
0.0426163
0.0426128
0.0426103
0.0426083
0.0426063
0.0426039
0.0426006
0.0425961
0.0425905
0.0425844
0.0425787
0.0425741
0.0425709
0.0425691
0.0425684
0.0425972
0.0425975
0.0425983
0.0425995
0.0426011
0.0426029
0.0426049
0.0426069
0.0426093
0.0426126
0.0426176
0.0426249
0.0426332
0.0426377
0.0426349
0.0426265
0.0426177
0.0426116
0.042608
0.0426059
0.0426045
0.0426034
0.042602
0.0425996
0.0425959
0.042591
0.0425853
0.0425798
0.0425752
0.042572
0.0425702
0.0425695
0.0425961
0.0425964
0.0425971
0.042598
0.0425993
0.0426006
0.0426021
0.0426036
0.0426057
0.0426091
0.0426151
0.0426246
0.0426354
0.0426407
0.0426359
0.0426238
0.0426119
0.0426044
0.0426007
0.0425991
0.0425988
0.0425988
0.0425985
0.0425972
0.0425945
0.0425903
0.0425853
0.0425802
0.0425759
0.0425728
0.0425711
0.0425704
0.0425943
0.0425946
0.0425952
0.042596
0.0425969
0.0425977
0.0425985
0.0425995
0.0426013
0.0426051
0.0426126
0.042625
0.0426386
0.0426444
0.0426366
0.0426193
0.0426033
0.042594
0.0425902
0.0425895
0.0425905
0.042592
0.0425931
0.0425932
0.0425916
0.0425885
0.0425842
0.0425798
0.0425759
0.0425732
0.0425716
0.0425709
0.0425915
0.0425919
0.0425924
0.0425931
0.0425937
0.0425941
0.0425944
0.042595
0.0425966
0.0426012
0.0426112
0.0426273
0.0426439
0.0426491
0.0426365
0.0426123
0.042591
0.0425797
0.0425761
0.0425768
0.0425795
0.0425829
0.0425858
0.0425875
0.0425873
0.0425854
0.0425822
0.0425785
0.0425753
0.0425729
0.0425715
0.0425709
0.0425872
0.0425876
0.0425882
0.0425888
0.0425893
0.0425896
0.0425897
0.0425902
0.0425925
0.0425991
0.0426129
0.0426335
0.0426523
0.0426549
0.0426349
0.042602
0.0425746
0.0425614
0.0425584
0.0425608
0.0425658
0.0425715
0.0425766
0.0425802
0.0425816
0.0425811
0.042579
0.0425764
0.0425739
0.0425719
0.0425707
0.0425702
0.0425813
0.0425816
0.0425821
0.0425827
0.0425833
0.0425838
0.0425846
0.0425865
0.0425914
0.0426025
0.042622
0.042647
0.0426652
0.0426608
0.0426303
0.0425874
0.042554
0.0425394
0.0425376
0.0425424
0.04255
0.0425583
0.0425657
0.0425714
0.0425746
0.0425755
0.0425748
0.0425732
0.0425714
0.0425699
0.0425689
0.0425684
0.0425785
0.0425786
0.0425787
0.0425791
0.04258
0.0425816
0.0425847
0.0425907
0.0426017
0.0426201
0.0426456
0.0426713
0.0426821
0.0426644
0.0426205
0.042568
0.0425305
0.0425158
0.0425159
0.0425231
0.0425334
0.0425442
0.0425539
0.0425617
0.0425669
0.0425695
0.0425702
0.0425696
0.0425684
0.0425673
0.0425663
0.0425658
0.0425949
0.042595
0.0425955
0.0425965
0.0425987
0.042603
0.0426105
0.0426226
0.0426404
0.0426639
0.0426889
0.0427049
0.0426978
0.0426613
0.0426045
0.0425466
0.0425086
0.0424955
0.0424976
0.0425069
0.0425191
0.0425316
0.0425427
0.0425515
0.0425575
0.0425611
0.0425626
0.0425629
0.0425624
0.0425616
0.0425609
0.0425604
0.0426478
0.0426486
0.0426504
0.0426537
0.0426589
0.0426668
0.042678
0.042693
0.0427111
0.0427291
0.04274
0.0427338
0.0427034
0.0426514
0.04259
0.0425345
0.0424994
0.042488
0.0424912
0.0425017
0.042515
0.0425284
0.0425402
0.0425493
0.0425555
0.0425589
0.04256
0.0425596
0.0425583
0.0425568
0.0425556
0.042555
0.0427183
0.0427197
0.0427227
0.0427275
0.0427343
0.0427434
0.0427544
0.0427663
0.0427766
0.0427807
0.0427728
0.0427486
0.0427088
0.0426586
0.042605
0.0425555
0.0425207
0.0425059
0.0425048
0.0425103
0.0425182
0.0425259
0.0425321
0.0425363
0.0425383
0.0425388
0.0425387
0.0425389
0.0425398
0.0425412
0.0425425
0.0425433
0.0427676
0.042769
0.0427721
0.0427771
0.0427841
0.042793
0.042803
0.0428123
0.042818
0.0428167
0.0428059
0.042785
0.042755
0.0427175
0.042675
0.0426311
0.0425939
0.0425703
0.0425573
0.0425498
0.0425455
0.0425435
0.0425437
0.0425466
0.0425525
0.042562
0.0425746
0.0425892
0.0426039
0.0426165
0.0426252
0.0426292
0.0427942
0.0427956
0.0427988
0.0428045
0.0428128
0.0428235
0.0428358
0.0428476
0.0428566
0.0428608
0.0428591
0.0428513
0.0428378
0.0428188
0.042795
0.0427692
0.0427475
0.0427375
0.0427384
0.0427471
0.0427614
0.0427794
0.0427996
0.0428206
0.0428414
0.042861
0.0428784
0.0428926
0.0429032
0.0429103
0.0429143
0.0429159
0.0428072
0.0428086
0.0428121
0.0428185
0.0428282
0.0428412
0.0428567
0.0428732
0.0428888
0.0429019
0.042912
0.0429191
0.0429233
0.0429247
0.0429247
0.0429268
0.042937
0.0429609
0.0429973
0.0430424
0.0430918
0.0431408
0.0431857
0.0432233
0.0432519
0.0432701
0.0432777
0.0432757
0.0432672
0.0432562
0.0432472
0.0432428
0.0428122
0.0428135
0.0428169
0.042823
0.0428327
0.0428462
0.0428633
0.0428829
0.0429038
0.0429247
0.0429448
0.042964
0.0429822
0.0429996
0.0430178
0.0430413
0.0430757
0.0431235
0.0431806
0.0432415
0.0433006
0.0433534
0.043397
0.0434306
0.0434542
0.0434682
0.0434733
0.0434705
0.043462
0.0434509
0.0434411
0.0434357
0.0428142
0.0428154
0.0428185
0.0428242
0.0428332
0.0428463
0.0428635
0.0428844
0.042908
0.0429335
0.0429601
0.0429873
0.0430148
0.0430424
0.043071
0.0431049
0.043149
0.0432034
0.0432621
0.043319
0.0433693
0.0434105
0.0434429
0.0434681
0.0434877
0.0435026
0.0435128
0.0435182
0.0435191
0.0435165
0.0435125
0.0435097
0.0428172
0.0428181
0.0428206
0.0428254
0.0428336
0.0428458
0.0428625
0.0428837
0.042909
0.0429376
0.0429687
0.0430017
0.0430356
0.0430694
0.0431034
0.0431404
0.0431843
0.0432351
0.043287
0.043335
0.0433757
0.0434087
0.0434359
0.0434595
0.0434807
0.0434995
0.0435149
0.0435261
0.0435327
0.0435352
0.043535
0.0435341
0.0428251
0.0428254
0.0428269
0.0428305
0.0428374
0.0428487
0.0428651
0.0428868
0.0429136
0.0429451
0.0429802
0.0430178
0.0430565
0.0430945
0.0431312
0.0431683
0.0432082
0.0432515
0.0432948
0.0433345
0.0433686
0.0433975
0.0434231
0.0434472
0.0434708
0.0434933
0.0435132
0.0435288
0.0435392
0.0435446
0.0435462
0.0435461
0.0428426
0.042842
0.0428419
0.0428438
0.0428493
0.0428599
0.0428766
0.0428996
0.0429288
0.0429634
0.0430022
0.0430435
0.0430854
0.0431261
0.0431641
0.0432001
0.0432354
0.0432711
0.0433061
0.0433388
0.043368
0.043394
0.0434182
0.0434419
0.043466
0.0434899
0.0435123
0.0435309
0.0435443
0.043552
0.043555
0.0435553
0.0428743
0.0428723
0.0428702
0.0428703
0.0428749
0.0428857
0.0429037
0.0429291
0.0429612
0.0429988
0.0430403
0.0430837
0.043127
0.0431683
0.0432061
0.0432403
0.0432712
0.0433003
0.0433282
0.0433548
0.0433795
0.0434023
0.0434241
0.043446
0.0434686
0.0434916
0.0435141
0.0435339
0.0435491
0.0435585
0.0435628
0.0435635
0.0429235
0.04292
0.0429162
0.0429154
0.0429203
0.0429327
0.0429534
0.0429816
0.0430161
0.0430553
0.0430973
0.0431403
0.0431824
0.043222
0.0432577
0.0432891
0.0433159
0.0433395
0.0433614
0.0433824
0.0434024
0.0434214
0.04344
0.0434589
0.0434785
0.0434989
0.0435194
0.0435385
0.0435541
0.0435646
0.0435698
0.043571
0.0429924
0.0429878
0.0429837
0.0429842
0.0429916
0.0430071
0.0430304
0.0430603
0.043095
0.043133
0.0431725
0.0432121
0.0432502
0.0432855
0.0433171
0.0433445
0.0433671
0.0433858
0.0434025
0.0434185
0.0434339
0.0434489
0.0434637
0.0434788
0.0434945
0.0435112
0.0435284
0.0435452
0.0435598
0.0435704
0.0435761
0.0435777
0.0430826
0.0430779
0.0430765
0.0430812
0.0430927
0.0431109
0.043135
0.0431635
0.043195
0.0432283
0.0432621
0.0432952
0.0433267
0.0433558
0.0433815
0.0434037
0.0434215
0.0434356
0.0434478
0.0434594
0.0434706
0.0434816
0.0434924
0.0435036
0.0435152
0.0435277
0.0435408
0.0435542
0.0435665
0.0435762
0.0435819
0.0435838
0.0431957
0.0431935
0.0431979
0.0432078
0.043222
0.0432399
0.0432611
0.0432844
0.0433092
0.0433346
0.0433599
0.0433845
0.0434076
0.0434287
0.0434474
0.0434634
0.0434761
0.0434859
0.0434941
0.0435018
0.0435092
0.0435165
0.0435237
0.0435311
0.0435388
0.0435471
0.043556
0.0435654
0.0435745
0.0435822
0.0435872
0.0435891
0.0433356
0.0433385
0.0433477
0.0433586
0.0433706
0.0433838
0.043398
0.043413
0.0434285
0.0434441
0.0434594
0.0434741
0.0434879
0.0435005
0.0435116
0.043521
0.0435285
0.0435341
0.0435388
0.043543
0.0435472
0.0435512
0.0435553
0.0435593
0.0435636
0.0435682
0.0435731
0.0435784
0.0435838
0.0435887
0.0435922
0.0435937
0.0435071
0.0435096
0.0435145
0.0435192
0.0435239
0.0435287
0.0435337
0.0435388
0.043544
0.0435492
0.0435542
0.0435591
0.0435636
0.0435677
0.0435713
0.0435744
0.0435768
0.0435787
0.0435801
0.0435815
0.0435828
0.0435841
0.0435853
0.0435866
0.043588
0.0435894
0.0435909
0.0435926
0.0435943
0.0435959
0.0435972
0.0435978
)
;

boundaryField
{
    movingWall
    {
        type            fixedValue;
        value           uniform 0.0436;
    }
    fixedWalls
    {
        type            zeroGradient;
    }
    floor
    {
        type            zeroGradient;
    }
    frontAndBack
    {
        type            empty;
    }
}


// ************************************************************************* //
