/*--------------------------------*- C++ -*----------------------------------*\
| =========                 |                                                 |
| \\      /  F ield         | OpenFOAM: The Open Source CFD Toolbox           |
|  \\    /   O peration     | Version:  2212                                  |
|   \\  /    A nd           | Website:  www.openfoam.com                      |
|    \\/     M anipulation  |                                                 |
\*---------------------------------------------------------------------------*/
FoamFile
{
    version     2.0;
    format      ascii;
    arch        "LSB;label=64;scalar=64";
    class       volScalarField::Internal;
    location    "1940";
    object      dGco2;
}
// * * * * * * * * * * * * * * * * * * * * * * * * * * * * * * * * * * * * * //

dimensions      [1 -3 -1 0 0 0 0];

value           nonuniform List<scalar> 
1024
(
0.000166148
0.000166199
0.000166328
0.000166566
0.000166954
0.000167538
0.00016837
0.000169495
0.000170943
0.000172711
0.000174753
0.000176973
0.000179243
0.000181432
0.000183436
0.000185176
0.000186447
0.000187081
0.000187133
0.000186715
0.000185923
0.000184866
0.000183671
0.000182468
0.000181368
0.000180445
0.000179726
0.000179205
0.000178852
0.000178634
0.000178514
0.000178466
0.000166163
0.000166216
0.000166346
0.000166586
0.000166978
0.000167568
0.000168407
0.000169541
0.000171
0.000172779
0.000174829
0.000177055
0.000179326
0.000181515
0.000183518
0.000185258
0.000186532
0.00018717
0.000187227
0.000186811
0.000186019
0.000184958
0.000183756
0.000182543
0.000181433
0.000180499
0.000179771
0.000179243
0.000178886
0.000178665
0.000178545
0.000178496
0.000166203
0.000166257
0.00016639
0.000166636
0.000167036
0.000167638
0.000168494
0.00016965
0.000171132
0.000172934
0.000175003
0.00017724
0.000179515
0.000181703
0.000183705
0.000185447
0.000186733
0.000187388
0.000187458
0.000187049
0.00018625
0.000185171
0.000183947
0.00018271
0.000181575
0.000180619
0.000179873
0.000179332
0.000178967
0.000178742
0.00017862
0.00017857
0.000166277
0.000166333
0.00016647
0.000166725
0.000167138
0.000167761
0.000168646
0.000169837
0.000171358
0.000173197
0.000175295
0.000177549
0.00017983
0.000182015
0.000184017
0.000185771
0.000187087
0.000187782
0.000187884
0.000187484
0.000186665
0.000185544
0.00018427
0.000182985
0.000181809
0.000180818
0.000180045
0.000179486
0.000179111
0.00017888
0.000178757
0.000178707
0.000166394
0.000166453
0.000166597
0.000166863
0.000167297
0.00016795
0.000168876
0.000170118
0.000171694
0.000173585
0.000175723
0.000177999
0.000180285
0.000182469
0.000184478
0.000186261
0.000187638
0.00018841
0.00018857
0.000188185
0.000187327
0.000186128
0.000184764
0.000183398
0.000182156
0.000181115
0.000180308
0.000179727
0.00017934
0.000179106
0.000178981
0.000178932
0.000166566
0.000166627
0.000166779
0.000167062
0.000167522
0.000168216
0.000169197
0.000170505
0.000172153
0.00017411
0.000176296
0.000178597
0.00018089
0.000183078
0.000185108
0.00018695
0.000188434
0.000189333
0.000189587
0.000189226
0.00018831
0.000186992
0.000185487
0.000183994
0.000182653
0.000181544
0.000180693
0.000180089
0.000179693
0.000179456
0.000179334
0.000179287
0.000166799
0.000166864
0.000167026
0.000167328
0.000167822
0.000168566
0.000169614
0.000171004
0.000172738
0.000174771
0.000177012
0.000179341
0.000181646
0.000183848
0.000185922
0.000187864
0.000189514
0.000190602
0.000190994
0.000190676
0.000189694
0.000188224
0.000186528
0.000184855
0.000183374
0.000182171
0.000181266
0.000180635
0.000180231
0.000179997
0.00017988
0.000179837
0.0001671
0.000167169
0.000167342
0.000167666
0.000168198
0.000169
0.000170126
0.000171607
0.000173437
0.000175553
0.000177854
0.000180216
0.00018254
0.000184774
0.000186922
0.00018901
0.000190889
0.000192229
0.000192815
0.000192583
0.000191562
0.000189941
0.000188026
0.000186124
0.000184455
0.000183125
0.000182146
0.000181482
0.00018107
0.00018084
0.000180733
0.000180697
0.000167466
0.000167539
0.000167723
0.000168071
0.000168644
0.000169507
0.000170714
0.000172293
0.000174222
0.000176425
0.000178788
0.000181189
0.000183544
0.000185829
0.00018808
0.000190353
0.000192506
0.000194158
0.000195011
0.000194955
0.000193987
0.000192289
0.000190186
0.000188043
0.000186145
0.000184642
0.000183557
0.000182841
0.000182411
0.000182183
0.000182084
0.000182054
0.000167889
0.000167966
0.00016816
0.00016853
0.000169142
0.000170063
0.000171351
0.000173023
0.000175048
0.000177336
0.000179762
0.000182207
0.000184602
0.00018695
0.000189312
0.000191775
0.000194213
0.000196216
0.000197436
0.000197713
0.000196992
0.000195405
0.00019326
0.000190949
0.000188824
0.000187107
0.000185866
0.000185055
0.000184578
0.000184334
0.000184232
0.000184205
0.000168352
0.000168431
0.000168634
0.000169022
0.000169665
0.000170637
0.000171991
0.000173745
0.000175854
0.000178218
0.000180702
0.000183187
0.000185615
0.000188006
0.000190444
0.00019304
0.000195712
0.000198082
0.000199792
0.000200626
0.000200449
0.0001993
0.000197415
0.000195161
0.000192926
0.000191009
0.000189563
0.000188591
0.00018801
0.000187706
0.000187576
0.000187539
0.00016883
0.00016891
0.000169118
0.000169516
0.00017018
0.000171183
0.000172583
0.000174393
0.000176562
0.00017898
0.000181501
0.000184
0.00018642
0.000188785
0.000191188
0.000193774
0.000196548
0.000199259
0.00020157
0.000203201
0.00020391
0.000203615
0.000202429
0.00020063
0.000198581
0.000196628
0.000195016
0.000193846
0.000193096
0.000192676
0.000192478
0.000192413
0.000169287
0.000169368
0.000169576
0.000169976
0.000170643
0.000171653
0.000173064
0.00017489
0.000177077
0.000179505
0.000182015
0.000184469
0.00018679
0.000188992
0.000191167
0.000193503
0.000196161
0.000199114
0.000202069
0.000204661
0.000206525
0.000207445
0.000207399
0.000206534
0.000205125
0.000203497
0.00020195
0.000200687
0.00019979
0.000199235
0.000198947
0.00019884
0.00016968
0.00016976
0.000169964
0.000170354
0.000171003
0.000171986
0.000173363
0.000175147
0.000177286
0.000179653
0.000182074
0.000184381
0.000186467
0.000188314
0.000190007
0.000191789
0.000194039
0.000197046
0.000200578
0.000204161
0.000207291
0.000209616
0.000210979
0.000211406
0.000211061
0.000210199
0.000209106
0.00020804
0.000207173
0.000206575
0.000206234
0.000206096
0.000169948
0.000170026
0.000170223
0.000170591
0.000171199
0.000172116
0.000173401
0.00017507
0.000177074
0.000179283
0.000181509
0.00018355
0.000185253
0.000186553
0.000187519
0.00018845
0.000189975
0.00019277
0.000196704
0.000201204
0.000205609
0.000209394
0.000212259
0.000214116
0.00021504
0.000215216
0.000214891
0.000214323
0.00021373
0.000213252
0.000212948
0.000212813
0.000170012
0.000170087
0.000170271
0.000170608
0.000171153
0.000171966
0.0001731
0.000174573
0.000176342
0.000178286
0.000180212
0.000181891
0.000183118
0.000183775
0.000183896
0.000183803
0.00018434
0.000186586
0.000190618
0.000195857
0.000201505
0.000206823
0.000211297
0.000214679
0.000216947
0.000218239
0.000218779
0.000218826
0.000218625
0.000218364
0.000218158
0.000218054
0.000169787
0.000169859
0.00017003
0.000170333
0.000170809
0.000171504
0.000172459
0.000173692
0.00017517
0.000176788
0.000178367
0.000179674
0.000180476
0.000180604
0.000180045
0.000179077
0.000178625
0.000180032
0.000183678
0.00018918
0.000195767
0.000202533
0.000208689
0.000213728
0.000217457
0.000219927
0.00022135
0.000222006
0.000222185
0.000222131
0.000222019
0.000221944
0.000169309
0.000169379
0.000169541
0.000169817
0.000170238
0.000170835
0.000171637
0.000172655
0.000173865
0.000175183
0.000176453
0.000177463
0.000177985
0.000177833
0.000176955
0.000175575
0.000174579
0.000175318
0.000178332
0.000183523
0.000190363
0.000198006
0.000205497
0.000212056
0.000217233
0.000220921
0.000223262
0.000224542
0.000225094
0.00022523
0.000225193
0.000225137
0.00016869
0.000168759
0.000168912
0.000169171
0.000169554
0.00017008
0.000170768
0.000171622
0.00017262
0.000173694
0.000174717
0.00017551
0.00017587
0.000175627
0.00017472
0.000173335
0.000172292
0.000172809
0.000175408
0.000180152
0.000186761
0.000194606
0.000202784
0.000210383
0.000216728
0.000221507
0.000224734
0.000226646
0.000227588
0.000227924
0.000227964
0.000227924
0.000168023
0.000168087
0.00016823
0.00016847
0.00016882
0.000169294
0.000169897
0.000170628
0.000171464
0.000172346
0.000173174
0.000173805
0.000174077
0.000173856
0.000173106
0.000172015
0.000171314
0.000171999
0.000174489
0.000178902
0.000185116
0.000192718
0.000201004
0.000209109
0.000216236
0.000221884
0.000225902
0.000228428
0.000229775
0.000230329
0.000230455
0.000230434
0.000167455
0.000167506
0.000167625
0.000167828
0.000168131
0.000168544
0.000169071
0.000169701
0.000170408
0.00017114
0.000171818
0.000172338
0.00017259
0.000172496
0.00017207
0.000171522
0.000171463
0.000172599
0.000175201
0.000179409
0.00018521
0.000192353
0.000200332
0.000208449
0.000215937
0.000222175
0.000226843
0.000229936
0.000231692
0.000232483
0.000232708
0.000232708
0.000167222
0.000167246
0.000167311
0.000167437
0.000167647
0.00016796
0.000168382
0.000168904
0.000169497
0.000170114
0.0001707
0.000171192
0.000171539
0.000171726
0.000171816
0.000172036
0.000172827
0.000174565
0.000177381
0.000181425
0.00018678
0.000193343
0.000200771
0.000208526
0.000215973
0.00022249
0.000227624
0.00023121
0.000233365
0.000234407
0.000234744
0.00023477
0.000167641
0.000167618
0.000167587
0.000167575
0.00016762
0.000167761
0.000168024
0.00016841
0.000168898
0.000169455
0.00017005
0.000170663
0.000171292
0.000171966
0.000172771
0.000173908
0.000175616
0.000177958
0.000180969
0.000184821
0.000189666
0.000195533
0.000202235
0.000209383
0.000216466
0.000222946
0.000228327
0.000232295
0.000234817
0.000236118
0.000236584
0.000236642
0.000169049
0.000168956
0.000168785
0.000168575
0.000168389
0.000168296
0.000168355
0.000168598
0.000169027
0.000169629
0.000170397
0.000171334
0.000172456
0.000173797
0.000175422
0.000177475
0.000179992
0.000182803
0.000185896
0.000189478
0.000193747
0.000198827
0.000204667
0.000211022
0.000217509
0.000223675
0.000229057
0.000233256
0.000236084
0.000237638
0.000238243
0.00023834
0.000171728
0.000171545
0.000171206
0.000170778
0.000170357
0.000170046
0.000169941
0.000170113
0.000170599
0.000171402
0.000172519
0.000173948
0.000175686
0.000177732
0.000180104
0.000182882
0.000185949
0.000188996
0.000192012
0.000195232
0.00019888
0.00020313
0.000208028
0.000213458
0.000219164
0.000224794
0.000229936
0.000234175
0.000237208
0.000238985
0.000239734
0.000239878
0.00017586
0.000175573
0.000175081
0.000174501
0.000173964
0.000173589
0.000173486
0.000173757
0.000174459
0.000175596
0.00017715
0.00017909
0.000181375
0.000183963
0.000186827
0.000189996
0.000193271
0.000196296
0.000199076
0.000201859
0.000204873
0.000208303
0.000212248
0.000216688
0.000221483
0.000226391
0.000231078
0.00023515
0.000238246
0.000240184
0.00024107
0.000241266
0.000181531
0.000181148
0.000180586
0.000180038
0.00017964
0.000179477
0.000179624
0.000180181
0.000181203
0.000182684
0.00018459
0.000186866
0.000189446
0.00019226
0.000195257
0.00019844
0.000201586
0.000204358
0.000206777
0.000209081
0.000211479
0.000214143
0.000217188
0.00022065
0.000224476
0.000228528
0.000232573
0.000236275
0.000239263
0.000241266
0.000242259
0.000242512
0.000188794
0.000188355
0.0001879
0.000187668
0.000187716
0.000188031
0.000188615
0.000189535
0.000190831
0.000192504
0.000194523
0.000196834
0.000199367
0.000202051
0.000204829
0.000207695
0.000210445
0.000212795
0.000214775
0.000216591
0.000218417
0.000220398
0.000222641
0.000225201
0.000228079
0.000231218
0.000234483
0.000237632
0.000240332
0.000242271
0.000243316
0.00024362
0.000197755
0.000197363
0.000197278
0.00019763
0.000198299
0.000199157
0.000200151
0.000201316
0.00020269
0.000204301
0.000206142
0.000208177
0.000210352
0.00021261
0.000214903
0.000217223
0.000219406
0.000221236
0.000222743
0.000224086
0.000225401
0.000226794
0.000228352
0.00023013
0.000232149
0.000234399
0.000236823
0.000239279
0.000241519
0.000243245
0.000244259
0.000244594
0.000208664
0.00020852
0.000209038
0.000209993
0.000211117
0.000212268
0.000213397
0.000214535
0.000215728
0.000217028
0.000218449
0.000219981
0.00022159
0.00022324
0.000224897
0.000226551
0.00022809
0.000229366
0.000230401
0.000231307
0.000232173
0.000233074
0.000234068
0.000235197
0.000236485
0.000237938
0.000239543
0.000241238
0.000242879
0.00024424
0.000245112
0.00024544
0.00022199
0.000222317
0.000223273
0.000224348
0.0002254
0.000226373
0.000227251
0.000228064
0.000228856
0.000229674
0.000230541
0.00023146
0.000232417
0.000233391
0.000234363
0.000235327
0.000236218
0.000236952
0.000237543
0.000238054
0.000238535
0.000239028
0.000239566
0.000240173
0.000240864
0.000241648
0.000242525
0.000243478
0.000244445
0.000245305
0.000245911
0.00024617
0.000238296
0.000238549
0.000239039
0.000239508
0.000239935
0.000240315
0.000240644
0.000240937
0.000241211
0.000241485
0.000241772
0.000242072
0.000242384
0.0002427
0.000243015
0.000243326
0.000243613
0.000243848
0.000244038
0.0002442
0.000244352
0.000244506
0.000244673
0.000244861
0.000245074
0.000245315
0.000245586
0.000245883
0.000246191
0.000246479
0.000246698
0.000246804
)
;


// ************************************************************************* //
