/*--------------------------------*- C++ -*----------------------------------*\
| =========                 |                                                 |
| \\      /  F ield         | OpenFOAM: The Open Source CFD Toolbox           |
|  \\    /   O peration     | Version:  2212                                  |
|   \\  /    A nd           | Website:  www.openfoam.com                      |
|    \\/     M anipulation  |                                                 |
\*---------------------------------------------------------------------------*/
FoamFile
{
    version     2.0;
    format      ascii;
    arch        "LSB;label=64;scalar=64";
    class       volScalarField;
    location    "1940";
    object      Gco2;
}
// * * * * * * * * * * * * * * * * * * * * * * * * * * * * * * * * * * * * * //

dimensions      [1 -3 0 0 0 0 0];

internalField   nonuniform List<scalar> 
1024
(
0.0492568
0.0492334
0.0491756
0.0490695
0.0488974
0.0486383
0.0482698
0.0477714
0.0471301
0.046347
0.045443
0.0444605
0.0434561
0.0424878
0.0416017
0.040833
0.0402712
0.0399914
0.0399688
0.0401536
0.0405035
0.0409707
0.0414991
0.042031
0.0425171
0.0429253
0.0432429
0.0434735
0.0436292
0.0437259
0.0437787
0.0438001
0.0492493
0.0492256
0.0491674
0.0490604
0.0488866
0.0486251
0.0482533
0.0477507
0.0471047
0.046317
0.0454092
0.0444243
0.043419
0.042451
0.0415653
0.0407967
0.0402337
0.0399519
0.0399273
0.0401109
0.0404611
0.04093
0.0414615
0.0419975
0.0424883
0.0429013
0.043223
0.0434566
0.0436142
0.043712
0.0437652
0.0437867
0.0492309
0.0492068
0.0491474
0.0490383
0.048861
0.048594
0.0482146
0.0477026
0.0470462
0.0462483
0.0453323
0.0443423
0.0433355
0.042368
0.0414831
0.0407131
0.0401451
0.0398559
0.039825
0.040006
0.0403592
0.0408359
0.0413772
0.0419239
0.0424255
0.0428482
0.0431781
0.0434173
0.0435786
0.0436782
0.0437321
0.0437539
0.0491976
0.0491728
0.0491116
0.0489988
0.0488155
0.0485394
0.0481474
0.0476199
0.0469462
0.0461319
0.045203
0.0442056
0.0431966
0.04223
0.0413451
0.04057
0.0399889
0.039682
0.0396371
0.0398139
0.0401759
0.0406712
0.0412344
0.0418021
0.0423222
0.0427603
0.0431019
0.0433491
0.043515
0.0436169
0.0436716
0.0436935
0.0491452
0.0491193
0.0490554
0.0489373
0.0487451
0.0484557
0.0480455
0.0474954
0.0467973
0.0459601
0.0450138
0.0440067
0.0429954
0.0420293
0.0411415
0.0403535
0.0397454
0.0394046
0.0393341
0.0395043
0.0398834
0.0404132
0.0410161
0.0416197
0.042169
0.0426291
0.0429859
0.0432426
0.0434134
0.0435172
0.0435722
0.0435938
0.049069
0.0490418
0.0489742
0.0488492
0.0486452
0.0483379
0.0479034
0.0473239
0.0465941
0.0457279
0.0447603
0.0437421
0.0427277
0.0417602
0.0408633
0.0400494
0.0393938
0.0389967
0.0388849
0.0390446
0.0394493
0.0400318
0.0406966
0.0413564
0.0419492
0.0424395
0.0428154
0.0430825
0.0432578
0.0433623
0.0434164
0.043437
0.0489653
0.0489365
0.0488646
0.0487309
0.0485122
0.0481827
0.0477184
0.047103
0.0463353
0.0454353
0.0444436
0.0434128
0.0423937
0.04142
0.0405038
0.0396458
0.0389169
0.0384365
0.0382635
0.0384042
0.0388379
0.0394875
0.0402368
0.0409761
0.0416307
0.0421624
0.0425625
0.0428412
0.0430199
0.0431234
0.043175
0.0431938
0.048832
0.0488015
0.0487248
0.0485812
0.0483455
0.0479906
0.047492
0.0468359
0.0460261
0.0450891
0.0440712
0.0430261
0.0419986
0.041011
0.0400621
0.0391395
0.0383101
0.037718
0.0374592
0.0375617
0.0380127
0.0387287
0.0395749
0.0404152
0.0411527
0.0417408
0.0421733
0.0424668
0.0426491
0.0427504
0.0427981
0.042814
0.0486697
0.0486375
0.0485557
0.0484018
0.0481482
0.0477661
0.0472313
0.0465324
0.0456787
0.0447035
0.0436581
0.0425961
0.041555
0.0405449
0.0395507
0.0385467
0.037596
0.0368669
0.0364899
0.0365146
0.0369418
0.0376918
0.0386205
0.0395673
0.0404062
0.0410703
0.0415495
0.0418662
0.0420562
0.0421568
0.0422008
0.0422139
0.0484822
0.0484485
0.0483622
0.0481985
0.0479277
0.0475196
0.0469497
0.0462094
0.0453131
0.0443005
0.0432273
0.0421462
0.0410876
0.0400503
0.0390069
0.0379192
0.0368428
0.0359583
0.0354194
0.0352969
0.035615
0.0363156
0.0372627
0.0382835
0.0392224
0.0399809
0.0405292
0.0408876
0.0410982
0.0412063
0.0412512
0.0412632
0.0482771
0.0482423
0.0481524
0.0479808
0.0476959
0.0472659
0.0466662
0.04589
0.0449565
0.0439106
0.042812
0.0417135
0.0406405
0.039584
0.0385078
0.0373615
0.0361822
0.0351353
0.0343803
0.0340115
0.0340891
0.0345956
0.0354277
0.0364231
0.0374103
0.0382569
0.0388957
0.0393249
0.039582
0.0397163
0.0397737
0.0397899
0.0480658
0.0480303
0.0479382
0.0477618
0.0474682
0.0470239
0.0464042
0.0456033
0.0446434
0.0435739
0.0424592
0.0413544
0.0402853
0.0392407
0.0381801
0.0370389
0.0358145
0.0346174
0.0335966
0.0328757
0.0325617
0.0326913
0.0332144
0.0340083
0.0349128
0.035775
0.036487
0.0370036
0.0373347
0.0375206
0.0376078
0.0376364
0.0478634
0.0478277
0.0477353
0.0475583
0.0472632
0.0468162
0.0461915
0.0453835
0.044416
0.0433422
0.042232
0.0411479
0.0401226
0.0391506
0.038191
0.0371604
0.0359876
0.034684
0.0333784
0.0322333
0.0314094
0.0310018
0.0310215
0.0314023
0.0320239
0.032742
0.033425
0.0339824
0.0343786
0.0346237
0.0347507
0.0347978
0.0476896
0.0476542
0.0475635
0.0473909
0.0471038
0.0466687
0.0460596
0.04527
0.0443238
0.043277
0.0422067
0.0411873
0.0402663
0.0394516
0.0387054
0.03792
0.0369277
0.0356002
0.0340402
0.0324573
0.0310739
0.0300465
0.0294435
0.0292538
0.029405
0.0297849
0.0302667
0.030737
0.0311194
0.0313832
0.0315336
0.0315948
0.0475707
0.0475362
0.0474493
0.0472861
0.0470173
0.0466113
0.0460427
0.0453042
0.044418
0.0434412
0.0424572
0.0415553
0.0408041
0.0402313
0.0398063
0.0393973
0.0387255
0.0374919
0.0357544
0.0337663
0.0318202
0.0301476
0.0288814
0.0280603
0.0276513
0.0275726
0.0277152
0.0279654
0.0282268
0.0284373
0.0285715
0.0286311
0.0475426
0.0475093
0.0474279
0.0472789
0.0470378
0.0466778
0.0461762
0.0455246
0.044742
0.0438823
0.0430312
0.0422898
0.0417486
0.0414601
0.0414087
0.0414527
0.0412176
0.0402265
0.0384452
0.0361306
0.0336356
0.031286
0.0293094
0.0278151
0.0268124
0.0262412
0.026002
0.0259804
0.0260687
0.0261834
0.0262739
0.0263197
0.0476425
0.0476105
0.0475349
0.0474008
0.0471902
0.0468826
0.0464599
0.0459145
0.0452609
0.0445451
0.0438472
0.0432701
0.0429171
0.042862
0.0431117
0.0435419
0.043744
0.0431237
0.0415132
0.0390822
0.036172
0.0331827
0.0304632
0.028237
0.0265899
0.0254984
0.0248696
0.0245792
0.0244998
0.024523
0.0245723
0.0246051
0.047854
0.0478229
0.0477516
0.047629
0.0474427
0.0471785
0.0468239
0.0463734
0.0458381
0.0452555
0.0446941
0.0442479
0.0440185
0.0440872
0.0444772
0.0450894
0.0455321
0.0452069
0.043876
0.0415825
0.0385603
0.0351834
0.0318742
0.0289773
0.0266904
0.0250613
0.0240271
0.0234617
0.0232175
0.0231569
0.0231728
0.0231974
0.0481281
0.0480979
0.0480297
0.0479153
0.0477459
0.0475128
0.0472085
0.0468307
0.0463892
0.0459141
0.0454618
0.0451117
0.0449532
0.0450622
0.045465
0.046079
0.0465424
0.0463154
0.045168
0.043072
0.0401521
0.0366861
0.0330733
0.0297171
0.0269147
0.024804
0.0233787
0.0225342
0.0221177
0.021969
0.0219512
0.0219686
0.0484235
0.0483953
0.0483318
0.0482258
0.0480707
0.0478612
0.047594
0.0472704
0.0469008
0.0465104
0.0461444
0.045866
0.0457464
0.0458452
0.0461779
0.0466621
0.0469743
0.0466729
0.045574
0.0436243
0.0408788
0.0375204
0.0338599
0.0302804
0.0271328
0.0246386
0.0228642
0.0217489
0.0211536
0.0209086
0.0208528
0.0208622
0.0486755
0.0486527
0.0486001
0.0485102
0.0483761
0.048193
0.0479598
0.0476809
0.0473682
0.0470442
0.0467444
0.0465149
0.0464041
0.0464464
0.0466361
0.0468801
0.046908
0.0464077
0.045259
0.0434004
0.0408375
0.037682
0.0341571
0.0305723
0.0272655
0.0245105
0.0224495
0.0210838
0.0203082
0.019959
0.0198596
0.0198595
0.0487794
0.0487684
0.0487396
0.0486838
0.0485908
0.0484522
0.0482649
0.0480338
0.0477716
0.0474983
0.0472393
0.0470221
0.0468692
0.0467874
0.0467484
0.0466531
0.0463054
0.0455391
0.0442959
0.0425095
0.0401443
0.037245
0.0339637
0.0305384
0.0272499
0.0243723
0.0221053
0.0205222
0.0195709
0.0191108
0.0189614
0.0189498
0.0485951
0.0486048
0.0486184
0.0486236
0.0486035
0.0485406
0.048424
0.048253
0.0480371
0.0477905
0.0475274
0.0472567
0.0469792
0.0466821
0.0463276
0.0458265
0.0450737
0.0440402
0.0427107
0.0410096
0.0388696
0.036278
0.0333172
0.0301606
0.0270324
0.0241714
0.0217957
0.0200437
0.0189303
0.0183559
0.0181501
0.0181244
0.0479737
0.0480145
0.04809
0.0481826
0.0482647
0.0483052
0.0482785
0.0481707
0.047981
0.0477146
0.0473753
0.0469616
0.046466
0.0458741
0.0451573
0.0442516
0.0431407
0.0419004
0.0405345
0.0389528
0.0370671
0.0348233
0.0322438
0.0294369
0.0265725
0.0238497
0.0214739
0.0196203
0.0183718
0.017686
0.0174186
0.0173758
0.046791
0.046872
0.0470216
0.0472103
0.0473961
0.0475331
0.0475791
0.0475024
0.0472877
0.0469327
0.046439
0.0458079
0.0450406
0.0441373
0.0430903
0.0418643
0.0405105
0.0391653
0.0378338
0.0364118
0.0348004
0.0329232
0.03076
0.0283619
0.0258422
0.0233564
0.0210863
0.019215
0.017876
0.017092
0.0167609
0.0166976
0.0449669
0.0450933
0.0453107
0.0455664
0.0458034
0.0459687
0.046014
0.0458942
0.0455839
0.0450815
0.044395
0.0435382
0.0425292
0.0413863
0.040122
0.038723
0.0372773
0.0359417
0.0347143
0.0334853
0.0321541
0.0306394
0.028897
0.0269362
0.0248188
0.0226518
0.0205826
0.0187851
0.0174186
0.0165631
0.0161721
0.0160854
0.0424629
0.042632
0.04288
0.0431217
0.0432974
0.0433692
0.0433041
0.043058
0.0426064
0.0419523
0.0411105
0.0401051
0.038966
0.0377232
0.0363999
0.0349948
0.0336058
0.0323819
0.0313138
0.0302964
0.0292373
0.0280609
0.026716
0.0251873
0.0234978
0.0217085
0.0199229
0.0182887
0.0169701
0.0160861
0.0156476
0.015536
0.0392559
0.0394498
0.0396504
0.0397531
0.0397314
0.0395924
0.0393343
0.0389279
0.0383554
0.0376168
0.036725
0.0357043
0.0345859
0.0334007
0.0321739
0.0309086
0.0296944
0.0286568
0.0277825
0.0269808
0.0261741
0.0252993
0.0243091
0.0231785
0.0219074
0.0205215
0.0190801
0.01769
0.0164985
0.015643
0.0151816
0.0150475
0.0352992
0.0354725
0.03551
0.0353546
0.0350588
0.0346799
0.0342409
0.0337263
0.0331195
0.0324081
0.0315953
0.0306967
0.0297363
0.0287391
0.0277264
0.0267023
0.0257383
0.0249303
0.024265
0.0236717
0.0230912
0.0224758
0.0217878
0.0210028
0.0201111
0.0191177
0.0180478
0.0169637
0.0159752
0.0152134
0.0147661
0.014618
0.0304826
0.0305465
0.0303178
0.029896
0.0293995
0.0288915
0.0283929
0.0278903
0.0273632
0.0267894
0.0261617
0.0254855
0.0247747
0.024046
0.0233146
0.022584
0.0219044
0.0213413
0.0208841
0.0204843
0.0201016
0.0197038
0.0192649
0.0187662
0.0181977
0.0175561
0.0168477
0.0160993
0.0153753
0.0147747
0.0143896
0.014245
0.0245991
0.0244547
0.0240329
0.0235583
0.0230938
0.0226639
0.0222764
0.0219173
0.0215676
0.0212064
0.0208233
0.0204175
0.0199951
0.0195649
0.0191357
0.0187101
0.0183167
0.0179925
0.0177316
0.0175061
0.0172936
0.017076
0.0168386
0.0165705
0.0162652
0.015919
0.0155317
0.0151111
0.0146844
0.0143047
0.0140374
0.0139232
0.0174002
0.0172883
0.0170724
0.0168654
0.0166767
0.016509
0.0163635
0.0162343
0.0161133
0.015992
0.0158656
0.0157328
0.0155953
0.0154556
0.0153167
0.0151793
0.0150526
0.0149486
0.0148651
0.0147934
0.0147263
0.0146582
0.0145844
0.0145016
0.0144075
0.0143009
0.0141813
0.0140503
0.0139141
0.0137873
0.0136907
0.013644
)
;

boundaryField
{
    movingWall
    {
        type            fixedValue;
        value           uniform 0.0135;
    }
    fixedWalls
    {
        type            zeroGradient;
    }
    floor
    {
        type            zeroGradient;
    }
    frontAndBack
    {
        type            empty;
    }
}


// ************************************************************************* //
