/*--------------------------------*- C++ -*----------------------------------*\
| =========                 |                                                 |
| \\      /  F ield         | OpenFOAM: The Open Source CFD Toolbox           |
|  \\    /   O peration     | Version:  2212                                  |
|   \\  /    A nd           | Website:  www.openfoam.com                      |
|    \\/     M anipulation  |                                                 |
\*---------------------------------------------------------------------------*/
FoamFile
{
    version     2.0;
    format      ascii;
    arch        "LSB;label=64;scalar=64";
    class       volScalarField;
    location    "1940";
    object      p;
}
// * * * * * * * * * * * * * * * * * * * * * * * * * * * * * * * * * * * * * //

dimensions      [0 2 -2 0 0 0 0];

internalField   nonuniform List<scalar> 
1024
(
0
-2.15069e-07
-7.30431e-07
-1.4141e-06
-2.07741e-06
-2.58217e-06
-2.9337e-06
-3.30481e-06
-3.94962e-06
-5.03996e-06
-6.49351e-06
-7.84653e-06
-8.02295e-06
-4.96707e-06
5.02483e-06
2.80068e-05
6.7205e-05
0.000109866
0.000136659
0.000135938
0.000110542
7.08788e-05
3.09411e-05
1.3008e-06
-1.7672e-05
-2.89178e-05
-3.50834e-05
-3.7902e-05
-3.84516e-05
-3.75611e-05
-3.6099e-05
-3.49579e-05
-0.0928114
-0.0928117
-0.0928122
-0.0928128
-0.0928134
-0.0928139
-0.0928143
-0.0928148
-0.0928155
-0.0928167
-0.0928182
-0.0928196
-0.0928199
-0.092817
-0.0928073
-0.0927848
-0.0927464
-0.0927048
-0.092679
-0.0926805
-0.0927057
-0.0927442
-0.0927827
-0.0928111
-0.0928291
-0.0928396
-0.0928453
-0.092848
-0.0928487
-0.092848
-0.0928468
-0.0928456
-0.199424
-0.199425
-0.199425
-0.199426
-0.199426
-0.199427
-0.199428
-0.199428
-0.199429
-0.19943
-0.199432
-0.199434
-0.199434
-0.199432
-0.199423
-0.199401
-0.199364
-0.199324
-0.1993
-0.199302
-0.199327
-0.199364
-0.199401
-0.199428
-0.199444
-0.199453
-0.199458
-0.19946
-0.199461
-0.19946
-0.199459
-0.199458
-0.321891
-0.321892
-0.321893
-0.321893
-0.321894
-0.321895
-0.321895
-0.321896
-0.321897
-0.321899
-0.321901
-0.321904
-0.321905
-0.321903
-0.321896
-0.321875
-0.32184
-0.321801
-0.321778
-0.321782
-0.321806
-0.321842
-0.321877
-0.321902
-0.321916
-0.321924
-0.321928
-0.321929
-0.321929
-0.321928
-0.321927
-0.321925
-0.46257
-0.462571
-0.462572
-0.462573
-0.462574
-0.462575
-0.462576
-0.462577
-0.462579
-0.462581
-0.462584
-0.462588
-0.46259
-0.46259
-0.462584
-0.462565
-0.462532
-0.462496
-0.462475
-0.462479
-0.462503
-0.462537
-0.46257
-0.462593
-0.462605
-0.462611
-0.462612
-0.462613
-0.462612
-0.462611
-0.462609
-0.462607
-0.62417
-0.624171
-0.624172
-0.624174
-0.624175
-0.624176
-0.624177
-0.624179
-0.624182
-0.624186
-0.62419
-0.624195
-0.624199
-0.624201
-0.624198
-0.624182
-0.624152
-0.624118
-0.624098
-0.624102
-0.624126
-0.624158
-0.624189
-0.62421
-0.62422
-0.624222
-0.624222
-0.62422
-0.624219
-0.624217
-0.624215
-0.624213
-0.809803
-0.809804
-0.809806
-0.809807
-0.809809
-0.80981
-0.809813
-0.809816
-0.80982
-0.809825
-0.809831
-0.809838
-0.809845
-0.80985
-0.80985
-0.809838
-0.809811
-0.80978
-0.809762
-0.809765
-0.809787
-0.809816
-0.809844
-0.809863
-0.80987
-0.80987
-0.809867
-0.809864
-0.809862
-0.80986
-0.809858
-0.809856
-1.02304
-1.02305
-1.02305
-1.02305
-1.02305
-1.02305
-1.02306
-1.02306
-1.02307
-1.02307
-1.02308
-1.02309
-1.0231
-1.02311
-1.02312
-1.02311
-1.02309
-1.02306
-1.02304
-1.02304
-1.02306
-1.02308
-1.02311
-1.02312
-1.02313
-1.02312
-1.02312
-1.02312
-1.02311
-1.02311
-1.02311
-1.02311
-1.268
-1.268
-1.268
-1.26801
-1.26801
-1.26801
-1.26802
-1.26802
-1.26803
-1.26804
-1.26805
-1.26807
-1.26808
-1.26809
-1.2681
-1.2681
-1.26808
-1.26806
-1.26804
-1.26803
-1.26804
-1.26806
-1.26808
-1.26809
-1.26809
-1.26809
-1.26808
-1.26808
-1.26808
-1.26808
-1.26808
-1.26808
-1.54939
-1.54939
-1.5494
-1.5494
-1.5494
-1.54941
-1.54941
-1.54942
-1.54943
-1.54944
-1.54946
-1.54948
-1.5495
-1.54951
-1.54953
-1.54953
-1.54952
-1.54949
-1.54947
-1.54946
-1.54946
-1.54947
-1.54948
-1.54948
-1.54948
-1.54948
-1.54947
-1.54947
-1.54947
-1.54947
-1.54947
-1.54947
-1.87264
-1.87264
-1.87265
-1.87265
-1.87265
-1.87266
-1.87267
-1.87268
-1.87269
-1.8727
-1.87272
-1.87274
-1.87277
-1.87279
-1.87281
-1.87281
-1.87281
-1.87279
-1.87276
-1.87275
-1.87274
-1.87273
-1.87272
-1.87271
-1.87271
-1.8727
-1.8727
-1.8727
-1.8727
-1.8727
-1.8727
-1.8727
-2.24397
-2.24397
-2.24398
-2.24398
-2.24398
-2.24399
-2.244
-2.24401
-2.24403
-2.24404
-2.24407
-2.24409
-2.24412
-2.24414
-2.24417
-2.24418
-2.24418
-2.24416
-2.24414
-2.24411
-2.24409
-2.24407
-2.24404
-2.24403
-2.24401
-2.24401
-2.24401
-2.24401
-2.24401
-2.24401
-2.24401
-2.24401
-2.67054
-2.67054
-2.67054
-2.67055
-2.67055
-2.67056
-2.67057
-2.67058
-2.6706
-2.67062
-2.67064
-2.67067
-2.6707
-2.67073
-2.67076
-2.67077
-2.67078
-2.67076
-2.67074
-2.67071
-2.67067
-2.67064
-2.67061
-2.67058
-2.67056
-2.67055
-2.67055
-2.67055
-2.67055
-2.67055
-2.67055
-2.67056
-3.16055
-3.16056
-3.16056
-3.16056
-3.16056
-3.16057
-3.16058
-3.16059
-3.16061
-3.16063
-3.16066
-3.16069
-3.16072
-3.16075
-3.16078
-3.16081
-3.16082
-3.16081
-3.16078
-3.16075
-3.16071
-3.16067
-3.16062
-3.16059
-3.16056
-3.16055
-3.16054
-3.16054
-3.16054
-3.16055
-3.16055
-3.16055
-3.72344
-3.72344
-3.72345
-3.72345
-3.72345
-3.72346
-3.72347
-3.72348
-3.7235
-3.72352
-3.72355
-3.72358
-3.72361
-3.72365
-3.72368
-3.72371
-3.72372
-3.72371
-3.72369
-3.72366
-3.72362
-3.72358
-3.72353
-3.72349
-3.72346
-3.72344
-3.72343
-3.72343
-3.72343
-3.72343
-3.72344
-3.72344
-4.37003
-4.37004
-4.37004
-4.37004
-4.37004
-4.37005
-4.37006
-4.37007
-4.37009
-4.37011
-4.37013
-4.37016
-4.3702
-4.37023
-4.37027
-4.3703
-4.37032
-4.37031
-4.37029
-4.37027
-4.37023
-4.37019
-4.37015
-4.37011
-4.37008
-4.37005
-4.37004
-4.37003
-4.37003
-4.37004
-4.37004
-4.37004
-5.06136
-5.06136
-5.06136
-5.06136
-5.06136
-5.06137
-5.06138
-5.06139
-5.06141
-5.06143
-5.06145
-5.06148
-5.06152
-5.06156
-5.06159
-5.06162
-5.06164
-5.06164
-5.06162
-5.0616
-5.06158
-5.06154
-5.06151
-5.06147
-5.06143
-5.06141
-5.06139
-5.06138
-5.06138
-5.06138
-5.06138
-5.06139
-5.70791
-5.70791
-5.70791
-5.70791
-5.70791
-5.70792
-5.70793
-5.70794
-5.70796
-5.70798
-5.70801
-5.70804
-5.70807
-5.70811
-5.70815
-5.70818
-5.7082
-5.70819
-5.70818
-5.70816
-5.70814
-5.70812
-5.70809
-5.70805
-5.70802
-5.70799
-5.70797
-5.70796
-5.70796
-5.70796
-5.70796
-5.70797
-6.27074
-6.27074
-6.27074
-6.27074
-6.27074
-6.27075
-6.27076
-6.27077
-6.27079
-6.27081
-6.27084
-6.27087
-6.27091
-6.27095
-6.27099
-6.27103
-6.27104
-6.27104
-6.27103
-6.27101
-6.27099
-6.27096
-6.27094
-6.27091
-6.27088
-6.27085
-6.27083
-6.27081
-6.27081
-6.27081
-6.27081
-6.27082
-6.76071
-6.7607
-6.7607
-6.7607
-6.7607
-6.76071
-6.76072
-6.76073
-6.76075
-6.76077
-6.7608
-6.76083
-6.76087
-6.76092
-6.76096
-6.761
-6.76102
-6.76102
-6.761
-6.76098
-6.76095
-6.76093
-6.76091
-6.76088
-6.76085
-6.76082
-6.76079
-6.76077
-6.76077
-6.76077
-6.76077
-6.76078
-7.18723
-7.18723
-7.18723
-7.18723
-7.18723
-7.18723
-7.18724
-7.18725
-7.18726
-7.18729
-7.18732
-7.18736
-7.1874
-7.18745
-7.1875
-7.18754
-7.18756
-7.18756
-7.18754
-7.18752
-7.18749
-7.18746
-7.18743
-7.1874
-7.18736
-7.18733
-7.18729
-7.18727
-7.18726
-7.18726
-7.18726
-7.18727
-7.55854
-7.55854
-7.55854
-7.55854
-7.55854
-7.55854
-7.55854
-7.55855
-7.55856
-7.55858
-7.55861
-7.55865
-7.5587
-7.55876
-7.55881
-7.55886
-7.55889
-7.55888
-7.55886
-7.55884
-7.5588
-7.55876
-7.55872
-7.55869
-7.55864
-7.5586
-7.55855
-7.55851
-7.55849
-7.55849
-7.55849
-7.5585
-7.88178
-7.88178
-7.88178
-7.88178
-7.88178
-7.88177
-7.88177
-7.88177
-7.88178
-7.8818
-7.88183
-7.88187
-7.88193
-7.88199
-7.88206
-7.88211
-7.88214
-7.88214
-7.88212
-7.88209
-7.88205
-7.882
-7.88195
-7.88189
-7.88184
-7.88177
-7.88171
-7.88165
-7.88161
-7.8816
-7.8816
-7.88161
-8.16318
-8.16318
-8.16318
-8.16318
-8.16317
-8.16316
-8.16315
-8.16315
-8.16315
-8.16317
-8.1632
-8.16325
-8.16331
-8.16339
-8.16346
-8.16351
-8.16355
-8.16355
-8.16353
-8.16349
-8.16345
-8.16339
-8.16332
-8.16325
-8.16317
-8.16308
-8.16299
-8.1629
-8.16283
-8.1628
-8.16279
-8.1628
-8.40815
-8.40816
-8.40816
-8.40815
-8.40814
-8.40813
-8.40811
-8.4081
-8.40809
-8.40811
-8.40814
-8.4082
-8.40827
-8.40835
-8.40843
-8.40849
-8.40853
-8.40853
-8.40851
-8.40847
-8.40842
-8.40835
-8.40827
-8.40817
-8.40806
-8.40793
-8.40779
-8.40767
-8.40756
-8.40749
-8.40747
-8.40748
-8.62142
-8.62142
-8.62142
-8.62142
-8.6214
-8.62138
-8.62135
-8.62133
-8.62132
-8.62134
-8.62138
-8.62144
-8.62152
-8.6216
-8.62168
-8.62175
-8.62179
-8.6218
-8.62178
-8.62174
-8.62168
-8.62161
-8.62151
-8.62138
-8.62122
-8.62105
-8.62085
-8.62067
-8.62051
-8.62039
-8.62034
-8.62033
-8.80709
-8.8071
-8.80709
-8.80708
-8.80705
-8.80702
-8.80699
-8.80696
-8.80695
-8.80696
-8.80701
-8.80707
-8.80716
-8.80725
-8.80734
-8.80741
-8.80745
-8.80746
-8.80744
-8.8074
-8.80734
-8.80725
-8.80713
-8.80698
-8.80679
-8.80655
-8.80629
-8.80603
-8.80579
-8.80559
-8.80548
-8.80545
-8.96875
-8.96876
-8.96875
-8.96872
-8.96868
-8.96863
-8.96859
-8.96856
-8.96854
-8.96856
-8.96861
-8.96868
-8.96877
-8.96886
-8.96896
-8.96903
-8.96907
-8.96908
-8.96906
-8.96902
-8.96896
-8.96886
-8.96873
-8.96855
-8.96832
-8.96803
-8.9677
-8.96734
-8.96699
-8.96669
-8.96648
-8.96638
-9.10954
-9.10953
-9.1095
-9.10945
-9.10938
-9.10932
-9.10927
-9.10923
-9.10922
-9.10924
-9.10929
-9.10937
-9.10946
-9.10956
-9.10965
-9.10973
-9.10978
-9.10979
-9.10977
-9.10972
-9.10965
-9.10955
-9.10941
-9.10921
-9.10895
-9.10861
-9.10821
-9.10775
-9.10727
-9.10681
-9.10645
-9.10622
-9.23222
-9.23215
-9.23205
-9.23196
-9.23187
-9.23179
-9.23173
-9.2317
-9.23168
-9.23171
-9.23176
-9.23184
-9.23194
-9.23204
-9.23214
-9.23222
-9.23226
-9.23227
-9.23226
-9.23221
-9.23214
-9.23203
-9.23188
-9.23167
-9.23139
-9.23102
-9.23056
-9.23002
-9.22939
-9.22872
-9.22809
-9.22753
-9.33935
-9.33896
-9.33872
-9.33858
-9.33848
-9.3384
-9.33834
-9.3383
-9.33829
-9.33832
-9.33838
-9.33846
-9.33856
-9.33867
-9.33876
-9.33885
-9.33889
-9.33891
-9.33889
-9.33884
-9.33877
-9.33866
-9.33851
-9.33829
-9.33799
-9.33761
-9.33712
-9.33652
-9.33578
-9.33487
-9.33377
-9.33251
-9.4332
-9.43197
-9.4315
-9.43136
-9.43126
-9.43119
-9.43113
-9.4311
-9.4311
-9.43113
-9.43119
-9.43128
-9.43138
-9.43149
-9.43159
-9.43167
-9.43172
-9.43173
-9.43172
-9.43167
-9.4316
-9.43149
-9.43134
-9.43112
-9.43082
-9.43043
-9.42993
-9.42931
-9.4285
-9.4274
-9.42579
-9.42353
)
;

boundaryField
{
    movingWall
    {
        type            calculated;
        value           nonuniform List<scalar> 
32
(
-9.4764
-9.47517
-9.47471
-9.47456
-9.47447
-9.47439
-9.47434
-9.47431
-9.4743
-9.47433
-9.4744
-9.47448
-9.47458
-9.47469
-9.47479
-9.47488
-9.47492
-9.47494
-9.47492
-9.47488
-9.4748
-9.4747
-9.47454
-9.47432
-9.47402
-9.47363
-9.47314
-9.47251
-9.4717
-9.4706
-9.46899
-9.46673
)
;
    }
    fixedWalls
    {
        type            calculated;
        value           nonuniform List<scalar> 
64
(
6.93889e-18
-0.0928114
-0.199424
-0.321891
-0.46257
-0.62417
-0.809803
-1.02304
-1.268
-1.54939
-1.87264
-2.24397
-2.67054
-3.16055
-3.72344
-4.37003
-5.06136
-5.70791
-6.27074
-6.76071
-7.18723
-7.55854
-7.88178
-8.16318
-8.40815
-8.62142
-8.80709
-8.96875
-9.10954
-9.23222
-9.33935
-9.4332
-3.49579e-05
-0.0928456
-0.199458
-0.321925
-0.462607
-0.624213
-0.809856
-1.02311
-1.26808
-1.54947
-1.8727
-2.24401
-2.67056
-3.16055
-3.72344
-4.37004
-5.06139
-5.70797
-6.27082
-6.76078
-7.18727
-7.5585
-7.88161
-8.1628
-8.40748
-8.62033
-8.80545
-8.96638
-9.10622
-9.22753
-9.33251
-9.42353
)
;
    }
    floor
    {
        type            calculated;
        value           nonuniform List<scalar> 
32
(
0.0431942
0.043194
0.0431935
0.0431929
0.0431922
0.0431917
0.0431914
0.043191
0.0431904
0.0431893
0.0431879
0.0431866
0.0431864
0.0431895
0.0431995
0.0432226
0.0432618
0.0433045
0.0433314
0.0433307
0.0433053
0.0432655
0.0432255
0.0431958
0.0431768
0.0431655
0.0431593
0.0431564
0.0431559
0.0431567
0.0431582
0.0431593
)
;
    }
    frontAndBack
    {
        type            empty;
    }
}


// ************************************************************************* //
