/*--------------------------------*- C++ -*----------------------------------*\
| =========                 |                                                 |
| \\      /  F ield         | OpenFOAM: The Open Source CFD Toolbox           |
|  \\    /   O peration     | Version:  2212                                  |
|   \\  /    A nd           | Website:  www.openfoam.com                      |
|    \\/     M anipulation  |                                                 |
\*---------------------------------------------------------------------------*/
FoamFile
{
    version     2.0;
    format      ascii;
    arch        "LSB;label=64;scalar=64";
    class       volScalarField;
    location    "1940";
    object      Xch;
}
// * * * * * * * * * * * * * * * * * * * * * * * * * * * * * * * * * * * * * //

dimensions      [1 -3 0 0 0 0 0];

internalField   nonuniform List<scalar> 
1024
(
0.0200734
0.0200737
0.0200745
0.0200759
0.0200782
0.0200817
0.0200867
0.0200934
0.020102
0.0201125
0.0201245
0.0201374
0.0201505
0.0201629
0.0201741
0.0201837
0.0201905
0.0201938
0.0201939
0.0201915
0.0201871
0.0201811
0.0201744
0.0201677
0.0201615
0.0201563
0.0201523
0.0201493
0.0201474
0.0201461
0.0201455
0.0201452
0.0200735
0.0200738
0.0200746
0.020076
0.0200783
0.0200819
0.0200869
0.0200937
0.0201023
0.0201129
0.0201249
0.0201379
0.020151
0.0201634
0.0201746
0.0201841
0.020191
0.0201943
0.0201944
0.020192
0.0201876
0.0201816
0.0201749
0.0201681
0.0201619
0.0201566
0.0201525
0.0201496
0.0201475
0.0201463
0.0201456
0.0201453
0.0200737
0.020074
0.0200748
0.0200763
0.0200787
0.0200823
0.0200874
0.0200943
0.0201031
0.0201138
0.0201259
0.0201389
0.020152
0.0201644
0.0201756
0.0201851
0.020192
0.0201955
0.0201957
0.0201933
0.0201888
0.0201828
0.0201759
0.020169
0.0201627
0.0201573
0.0201531
0.02015
0.020148
0.0201467
0.020146
0.0201458
0.0200741
0.0200745
0.0200753
0.0200768
0.0200793
0.020083
0.0200883
0.0200954
0.0201044
0.0201153
0.0201276
0.0201407
0.0201538
0.0201662
0.0201773
0.0201869
0.0201939
0.0201976
0.020198
0.0201956
0.020191
0.0201848
0.0201777
0.0201705
0.0201639
0.0201584
0.020154
0.0201509
0.0201488
0.0201475
0.0201468
0.0201465
0.0200748
0.0200752
0.0200761
0.0200776
0.0200802
0.0200841
0.0200897
0.0200971
0.0201064
0.0201176
0.0201301
0.0201433
0.0201564
0.0201687
0.0201798
0.0201895
0.0201969
0.0202009
0.0202016
0.0201994
0.0201946
0.0201879
0.0201804
0.0201728
0.0201658
0.02016
0.0201555
0.0201522
0.0201501
0.0201487
0.020148
0.0201478
0.0200759
0.0200762
0.0200771
0.0200788
0.0200816
0.0200857
0.0200916
0.0200993
0.0201091
0.0201206
0.0201334
0.0201467
0.0201597
0.020172
0.0201832
0.0201932
0.0202011
0.0202059
0.0202071
0.020205
0.0201999
0.0201926
0.0201843
0.020176
0.0201685
0.0201623
0.0201576
0.0201542
0.020152
0.0201507
0.02015
0.0201497
0.0200773
0.0200776
0.0200786
0.0200804
0.0200834
0.0200878
0.020094
0.0201023
0.0201125
0.0201244
0.0201375
0.0201509
0.0201639
0.0201762
0.0201876
0.0201981
0.0202069
0.0202126
0.0202146
0.0202127
0.0202073
0.0201992
0.0201899
0.0201806
0.0201724
0.0201658
0.0201607
0.0201572
0.020155
0.0201537
0.020153
0.0201528
0.020079
0.0200795
0.0200805
0.0200824
0.0200856
0.0200903
0.020097
0.0201058
0.0201165
0.0201289
0.0201423
0.0201558
0.0201689
0.0201813
0.020193
0.0202042
0.0202142
0.0202213
0.0202243
0.0202229
0.0202173
0.0202084
0.0201979
0.0201875
0.0201783
0.020171
0.0201656
0.0201619
0.0201596
0.0201583
0.0201577
0.0201575
0.0200812
0.0200817
0.0200828
0.0200848
0.0200882
0.0200933
0.0201005
0.0201098
0.0201211
0.0201339
0.0201475
0.0201612
0.0201744
0.020187
0.0201992
0.0202113
0.0202228
0.0202315
0.0202359
0.0202355
0.0202303
0.020221
0.0202096
0.0201979
0.0201875
0.0201792
0.0201733
0.0201693
0.0201669
0.0201657
0.0201651
0.020165
0.0200837
0.0200842
0.0200853
0.0200875
0.0200912
0.0200966
0.0201042
0.020114
0.0201258
0.0201391
0.020153
0.0201669
0.0201802
0.020193
0.0202057
0.0202188
0.0202317
0.0202423
0.0202487
0.0202502
0.0202463
0.0202377
0.0202261
0.0202136
0.020202
0.0201927
0.0201859
0.0201814
0.0201788
0.0201775
0.0201769
0.0201768
0.0200865
0.0200869
0.0200881
0.0200904
0.0200942
0.0201
0.0201079
0.0201182
0.0201305
0.0201441
0.0201583
0.0201722
0.0201856
0.0201985
0.0202115
0.0202252
0.0202393
0.0202519
0.0202609
0.0202654
0.0202645
0.0202584
0.0202483
0.0202362
0.0202242
0.0202138
0.020206
0.0202007
0.0201976
0.0201959
0.0201952
0.020195
0.0200893
0.0200898
0.020091
0.0200933
0.0200972
0.0201031
0.0201113
0.0201219
0.0201345
0.0201484
0.0201626
0.0201766
0.0201898
0.0202025
0.0202151
0.0202287
0.0202432
0.0202575
0.0202698
0.0202786
0.0202826
0.0202811
0.020275
0.0202654
0.0202546
0.0202441
0.0202355
0.0202292
0.0202252
0.020223
0.0202219
0.0202216
0.020092
0.0200925
0.0200937
0.020096
0.0200999
0.0201059
0.0201141
0.0201247
0.0201373
0.0201512
0.0201654
0.020179
0.0201915
0.0202032
0.0202144
0.0202264
0.0202402
0.0202557
0.0202715
0.0202855
0.0202957
0.0203009
0.0203009
0.0202965
0.0202893
0.0202807
0.0202726
0.020266
0.0202612
0.0202583
0.0202568
0.0202562
0.0200943
0.0200948
0.020096
0.0200982
0.020102
0.0201078
0.0201158
0.0201261
0.0201384
0.0201519
0.0201655
0.0201782
0.0201894
0.0201989
0.0202074
0.0202162
0.0202276
0.0202433
0.0202622
0.0202815
0.0202985
0.0203112
0.0203189
0.0203215
0.02032
0.0203158
0.0203102
0.0203048
0.0203003
0.0202972
0.0202955
0.0202948
0.0200959
0.0200963
0.0200975
0.0200996
0.0201032
0.0201085
0.020116
0.0201256
0.0201371
0.0201497
0.0201621
0.0201733
0.0201822
0.0201886
0.020193
0.020197
0.0202043
0.0202189
0.02024
0.0202643
0.0202881
0.0203086
0.0203242
0.0203345
0.0203398
0.0203411
0.0203398
0.0203371
0.0203342
0.0203318
0.0203303
0.0203297
0.0200962
0.0200967
0.0200977
0.0200997
0.0201029
0.0201076
0.0201142
0.0201227
0.0201328
0.0201439
0.0201546
0.0201637
0.02017
0.0201728
0.0201724
0.0201707
0.0201725
0.0201841
0.0202058
0.0202341
0.0202647
0.0202935
0.0203176
0.0203359
0.0203483
0.0203556
0.0203588
0.0203594
0.0203586
0.0203575
0.0203565
0.020356
0.0200949
0.0200953
0.0200963
0.0200981
0.0201008
0.0201049
0.0201104
0.0201175
0.020126
0.0201352
0.0201441
0.0201511
0.0201551
0.020155
0.0201508
0.0201443
0.0201406
0.0201476
0.0201672
0.020197
0.0202328
0.0202694
0.0203026
0.0203297
0.0203498
0.0203631
0.020371
0.0203747
0.020376
0.0203759
0.0203755
0.0203751
0.020092
0.0200925
0.0200934
0.020095
0.0200975
0.020101
0.0201056
0.0201115
0.0201185
0.020126
0.0201331
0.0201386
0.0201411
0.0201395
0.0201337
0.0201249
0.0201183
0.0201215
0.0201376
0.0201657
0.0202029
0.0202443
0.0202847
0.0203199
0.0203477
0.0203674
0.02038
0.020387
0.0203902
0.0203911
0.0203911
0.0203908
0.0200884
0.0200888
0.0200897
0.0200912
0.0200934
0.0200965
0.0201005
0.0201055
0.0201113
0.0201174
0.0201232
0.0201275
0.0201292
0.0201273
0.0201214
0.0201126
0.0201058
0.0201078
0.0201215
0.0201472
0.0201831
0.0202256
0.0202697
0.0203104
0.0203443
0.0203698
0.020387
0.0203973
0.0204025
0.0204044
0.0204048
0.0204046
0.0200844
0.0200847
0.0200856
0.020087
0.0200891
0.0200919
0.0200954
0.0200997
0.0201045
0.0201096
0.0201143
0.0201178
0.020119
0.0201173
0.0201125
0.0201055
0.0201005
0.0201034
0.0201165
0.0201403
0.020174
0.0202151
0.0202598
0.0203033
0.0203413
0.0203713
0.0203926
0.020406
0.0204133
0.0204163
0.0204171
0.0204171
0.0200809
0.0200812
0.0200819
0.0200831
0.0200849
0.0200874
0.0200905
0.0200942
0.0200983
0.0201026
0.0201064
0.0201093
0.0201105
0.0201096
0.0201066
0.0201027
0.0201014
0.0201067
0.0201203
0.020143
0.0201743
0.020213
0.020256
0.0202995
0.0203393
0.0203724
0.0203971
0.0204134
0.0204228
0.0204271
0.0204284
0.0204284
0.0200792
0.0200793
0.0200798
0.0200806
0.0200819
0.0200838
0.0200864
0.0200895
0.0200929
0.0200965
0.0200999
0.0201026
0.0201044
0.020105
0.020105
0.0201053
0.0201087
0.0201174
0.0201321
0.0201538
0.0201827
0.0202182
0.0202581
0.0202996
0.0203393
0.0203738
0.0204008
0.0204197
0.0204311
0.0204366
0.0204385
0.0204387
0.020081
0.0200809
0.0200808
0.0200809
0.0200813
0.0200823
0.020084
0.0200863
0.0200892
0.0200925
0.0200958
0.0200992
0.0201025
0.0201058
0.0201097
0.0201152
0.0201236
0.0201356
0.0201515
0.020172
0.0201981
0.0202297
0.0202658
0.020304
0.0203416
0.0203759
0.0204042
0.020425
0.0204383
0.0204452
0.0204477
0.020448
0.0200882
0.0200877
0.0200869
0.0200859
0.0200851
0.0200848
0.0200853
0.0200869
0.0200894
0.0200929
0.0200971
0.0201022
0.0201082
0.0201151
0.0201235
0.020134
0.0201469
0.0201615
0.0201778
0.0201969
0.0202199
0.0202472
0.0202785
0.0203125
0.0203469
0.0203795
0.0204078
0.0204298
0.0204446
0.0204527
0.020456
0.0204565
0.0201022
0.0201013
0.0200995
0.0200974
0.0200953
0.0200938
0.0200934
0.0200946
0.0200974
0.0201018
0.0201079
0.0201156
0.0201249
0.0201356
0.0201481
0.0201626
0.0201786
0.0201945
0.0202105
0.0202276
0.0202471
0.0202699
0.0202962
0.0203252
0.0203555
0.0203852
0.0204122
0.0204343
0.0204502
0.0204594
0.0204634
0.0204642
0.020124
0.0201225
0.02012
0.020117
0.0201142
0.0201124
0.020112
0.0201136
0.0201175
0.0201237
0.0201321
0.0201425
0.0201547
0.0201684
0.0201835
0.0202002
0.0202174
0.0202333
0.020248
0.0202628
0.0202789
0.0202972
0.0203183
0.020342
0.0203674
0.0203933
0.0204179
0.0204392
0.0204553
0.0204654
0.02047
0.0204711
0.020154
0.020152
0.0201491
0.0201462
0.0201442
0.0201434
0.0201443
0.0201474
0.020153
0.020161
0.0201712
0.0201834
0.0201971
0.020212
0.0202279
0.0202447
0.0202613
0.0202759
0.0202887
0.0203009
0.0203137
0.020328
0.0203442
0.0203627
0.020383
0.0204043
0.0204256
0.0204449
0.0204604
0.0204708
0.020476
0.0204773
0.0201924
0.0201901
0.0201877
0.0201865
0.0201869
0.0201886
0.0201918
0.0201968
0.0202038
0.0202127
0.0202235
0.0202358
0.0202493
0.0202636
0.0202783
0.0202935
0.020308
0.0203204
0.0203309
0.0203405
0.0203502
0.0203608
0.0203728
0.0203864
0.0204016
0.0204182
0.0204353
0.0204518
0.0204658
0.0204758
0.0204812
0.0204828
0.0202398
0.0202377
0.0202373
0.0202392
0.0202428
0.0202474
0.0202527
0.0202589
0.0202663
0.0202749
0.0202847
0.0202955
0.0203071
0.0203191
0.0203313
0.0203436
0.0203551
0.0203648
0.0203727
0.0203799
0.0203869
0.0203943
0.0204026
0.020412
0.0204227
0.0204346
0.0204473
0.0204601
0.0204718
0.0204807
0.0204859
0.0204876
0.0202974
0.0202966
0.0202994
0.0203044
0.0203104
0.0203165
0.0203225
0.0203286
0.0203349
0.0203419
0.0203494
0.0203576
0.0203662
0.0203749
0.0203837
0.0203925
0.0204006
0.0204074
0.0204129
0.0204177
0.0204223
0.0204271
0.0204323
0.0204383
0.0204452
0.0204528
0.0204613
0.0204701
0.0204786
0.0204856
0.0204901
0.0204918
0.0203677
0.0203694
0.0203744
0.0203801
0.0203857
0.0203908
0.0203955
0.0203998
0.020404
0.0204084
0.020413
0.0204179
0.020423
0.0204282
0.0204333
0.0204384
0.0204431
0.020447
0.0204501
0.0204529
0.0204554
0.020458
0.0204609
0.0204641
0.0204678
0.0204719
0.0204765
0.0204815
0.0204865
0.0204909
0.020494
0.0204954
0.0204535
0.0204549
0.0204574
0.0204599
0.0204622
0.0204642
0.0204659
0.0204675
0.0204689
0.0204704
0.0204719
0.0204735
0.0204752
0.0204769
0.0204785
0.0204802
0.0204817
0.020483
0.020484
0.0204848
0.0204856
0.0204864
0.0204873
0.0204883
0.0204895
0.0204907
0.0204922
0.0204937
0.0204953
0.0204968
0.0204979
0.0204984
)
;

boundaryField
{
    movingWall
    {
        type            fixedValue;
        value           uniform 0.0205;
    }
    fixedWalls
    {
        type            zeroGradient;
    }
    floor
    {
        type            zeroGradient;
    }
    frontAndBack
    {
        type            empty;
    }
}


// ************************************************************************* //
