/*--------------------------------*- C++ -*----------------------------------*\
| =========                 |                                                 |
| \\      /  F ield         | OpenFOAM: The Open Source CFD Toolbox           |
|  \\    /   O peration     | Version:  2206                                  |
|   \\  /    A nd           | Website:  www.openfoam.com                      |
|    \\/     M anipulation  |                                                 |
\*---------------------------------------------------------------------------*/
FoamFile
{
    version     2.0;
    format      ascii;
    arch        "LSB;label=64;scalar=64";
    class       volScalarField;
    location    "1.2/water";
    object      alpha.gas;
}
// * * * * * * * * * * * * * * * * * * * * * * * * * * * * * * * * * * * * * //

dimensions      [0 0 0 0 0 0 0];

internalField   nonuniform List<scalar> 
23300
(
1e-15
1e-15
1e-15
1e-15
1e-15
1e-15
1e-15
1e-15
1e-15
1e-15
1e-15
1e-15
1e-15
1e-15
1e-15
1e-15
1e-15
1e-15
1e-15
1e-15
1e-15
1e-15
1e-15
1e-15
1e-15
1e-15
1e-15
1e-15
1e-15
1e-15
1e-15
1e-15
1e-15
1e-15
1e-15
1e-15
1e-15
1e-15
1e-15
1e-15
1e-15
1e-15
1e-15
1e-15
1e-15
1e-15
1e-15
1e-15
1e-15
1e-15
1e-15
1e-15
1e-15
1e-15
1e-15
1e-15
1e-15
1e-15
1e-15
1e-15
1e-15
1e-15
1e-15
1e-15
1e-15
1e-15
1e-15
1e-15
1e-15
1e-15
1e-15
1e-15
1e-15
1e-15
1e-15
1e-15
1e-15
1e-15
1e-15
1e-15
1e-15
1e-15
1e-15
1e-15
1e-15
1e-15
1e-15
1e-15
1e-15
1e-15
1e-15
1e-15
1e-15
1e-15
1e-15
1e-15
1e-15
1e-15
1e-15
1e-15
1e-15
1e-15
1e-15
1e-15
1e-15
1e-15
1e-15
1e-15
1e-15
1e-15
1e-15
1e-15
1e-15
1e-15
1e-15
1e-15
1e-15
1e-15
1e-15
1e-15
1e-15
1e-15
1e-15
1e-15
1e-15
1e-15
1e-15
1e-15
1e-15
1e-15
1e-15
1e-15
1e-15
1e-15
1e-15
1e-15
1e-15
1e-15
1e-15
1e-15
1e-15
1e-15
1e-15
1e-15
1e-15
1e-15
1e-15
1e-15
1e-15
1e-15
1e-15
1e-15
1e-15
1e-15
1e-15
1e-15
1e-15
1e-15
1e-15
1e-15
1e-15
1e-15
1e-15
1e-15
1e-15
1e-15
1e-15
1e-15
1e-15
1e-15
1e-15
1e-15
1e-15
1e-15
1e-15
1e-15
1e-15
1e-15
1e-15
1e-15
1e-15
1e-15
1e-15
1e-15
1e-15
1e-15
1e-15
1e-15
1e-15
1e-15
1e-15
1e-15
1e-15
1e-15
1e-15
1e-15
1e-15
1e-15
1e-15
1e-15
1e-15
1e-15
1e-15
1e-15
1e-15
1e-15
1e-15
1e-15
1e-15
1e-15
1e-15
1e-15
1e-15
1e-15
1e-15
1e-15
1e-15
1e-15
1e-15
1e-15
1e-15
1e-15
1e-15
1e-15
1e-15
1e-15
1e-15
1e-15
1e-15
1e-15
1e-15
1e-15
1e-15
1e-15
1e-15
1e-15
1e-15
1e-15
1e-15
1e-15
1e-15
1e-15
1e-15
1e-15
1e-15
1e-15
1e-15
1e-15
1e-15
1e-15
1e-15
1e-15
1e-15
1e-15
1e-15
1e-15
1e-15
1e-15
1e-15
1e-15
1e-15
1e-15
1e-15
1e-15
1e-15
1e-15
1e-15
1e-15
1e-15
1e-15
1e-15
1e-15
1e-15
1e-15
1e-15
1e-15
1e-15
1e-15
1e-15
1e-15
1e-15
1e-15
1e-15
1e-15
1e-15
1e-15
1e-15
1e-15
1e-15
1e-15
1e-15
1e-15
1e-15
1e-15
1e-15
1e-15
1e-15
1e-15
1e-15
1e-15
1e-15
1e-15
1e-15
1e-15
1e-15
1e-15
1e-15
1e-15
1e-15
1e-15
1e-15
1e-15
1e-15
1e-15
1e-15
1e-15
1e-15
1e-15
1e-15
1e-15
1e-15
1e-15
1e-15
1e-15
1e-15
1e-15
1e-15
1e-15
1e-15
1e-15
1e-15
1e-15
1e-15
1e-15
1e-15
1e-15
1e-15
1e-15
1e-15
1e-15
1e-15
1e-15
1e-15
1e-15
1e-15
1e-15
1e-15
1e-15
1e-15
1e-15
1e-15
1e-15
1e-15
1e-15
1e-15
1e-15
1e-15
1e-15
1e-15
1e-15
1e-15
1e-15
1e-15
1e-15
1e-15
1e-15
1e-15
1e-15
1e-15
1e-15
1e-15
1e-15
1e-15
1e-15
1e-15
1e-15
1e-15
1e-15
1e-15
1e-15
1e-15
1e-15
1e-15
1e-15
1e-15
1e-15
1e-15
1e-15
1e-15
1e-15
1e-15
1e-15
1e-15
1e-15
1e-15
1e-15
1e-15
1e-15
1e-15
1e-15
1e-15
1e-15
1e-15
1e-15
1e-15
1e-15
1e-15
1e-15
1e-15
1e-15
1e-15
1e-15
1e-15
1e-15
1e-15
1e-15
1e-15
1e-15
1e-15
1e-15
1e-15
1e-15
1e-15
1e-15
1e-15
1e-15
1e-15
1e-15
1e-15
1e-15
1e-15
1e-15
1e-15
1e-15
1e-15
1e-15
1e-15
1e-15
1e-15
1e-15
1e-15
1e-15
1e-15
1e-15
1e-15
1e-15
1e-15
1e-15
1e-15
1e-15
1e-15
1e-15
1e-15
1e-15
1e-15
1e-15
1e-15
1e-15
1e-15
1e-15
1e-15
1e-15
1e-15
1e-15
1e-15
1e-15
1e-15
1e-15
1e-15
1e-15
1e-15
1e-15
1e-15
1e-15
1e-15
1e-15
1e-15
1e-15
1e-15
1e-15
1e-15
1e-15
1e-15
1e-15
1e-15
1e-15
1e-15
1e-15
1e-15
1e-15
1e-15
1e-15
1e-15
1e-15
1e-15
1e-15
1e-15
1e-15
1e-15
1e-15
1e-15
1e-15
1e-15
1e-15
1e-15
1e-15
1e-15
1e-15
1e-15
1e-15
1e-15
1e-15
1e-15
1e-15
1e-15
1e-15
1e-15
1e-15
1e-15
1e-15
1e-15
1e-15
1e-15
1e-15
1e-15
1e-15
1e-15
1e-15
1e-15
1e-15
1e-15
1e-15
1e-15
1e-15
1e-15
1e-15
1e-15
1e-15
1e-15
1e-15
1e-15
1e-15
1e-15
1e-15
1e-15
1e-15
1e-15
1e-15
1e-15
1e-15
1e-15
1e-15
1e-15
1e-15
1e-15
1e-15
1e-15
1e-15
1e-15
1e-15
1e-15
1e-15
1e-15
1e-15
1e-15
1e-15
1e-15
1e-15
1e-15
1e-15
1e-15
1e-15
1e-15
1e-15
1e-15
1e-15
1e-15
1e-15
1e-15
1e-15
1e-15
1e-15
1e-15
1e-15
1e-15
1e-15
1e-15
1e-15
1e-15
1e-15
1e-15
1e-15
1e-15
1e-15
1e-15
1e-15
1e-15
1e-15
1e-15
1e-15
1e-15
1e-15
1e-15
1e-15
1e-15
1e-15
1e-15
1e-15
1e-15
1e-15
1e-15
1e-15
1e-15
1e-15
1e-15
1e-15
1e-15
1e-15
1e-15
1e-15
1e-15
1e-15
1e-15
1e-15
1e-15
1e-15
1e-15
1e-15
1e-15
1e-15
1e-15
1e-15
1e-15
1e-15
1e-15
1e-15
1e-15
1e-15
1e-15
1e-15
1e-15
1e-15
1e-15
1e-15
1e-15
1e-15
1e-15
1e-15
1e-15
1e-15
1e-15
1e-15
1e-15
1e-15
1e-15
1e-15
1e-15
1e-15
1e-15
1e-15
1e-15
1e-15
1e-15
1e-15
1e-15
1e-15
1e-15
1e-15
1e-15
1e-15
1e-15
1e-15
1e-15
1e-15
1e-15
1e-15
1e-15
1e-15
1e-15
1e-15
1e-15
1e-15
1e-15
1e-15
1e-15
1e-15
1e-15
1e-15
1e-15
1e-15
1e-15
1.00807140965e-15
1.00898868706e-15
1.00807140965e-15
1.0093085438e-15
1.00807140965e-15
1.00891148401e-15
1e-15
1e-15
1e-15
1e-15
1e-15
1e-15
1e-15
1e-15
1e-15
1e-15
1e-15
1e-15
1e-15
1e-15
1e-15
1e-15
1e-15
1e-15
1e-15
1e-15
1e-15
1e-15
1e-15
1e-15
1e-15
1e-15
1e-15
1e-15
1e-15
1e-15
1e-15
1e-15
1e-15
1e-15
1e-15
1e-15
1e-15
1e-15
1e-15
1e-15
1e-15
1e-15
1e-15
1e-15
1e-15
1e-15
1e-15
1e-15
1e-15
1e-15
1e-15
1e-15
1e-15
1e-15
1e-15
1e-15
1e-15
1e-15
1e-15
1e-15
1e-15
1e-15
1e-15
1e-15
1e-15
1e-15
1e-15
1e-15
1e-15
1e-15
1e-15
1e-15
1e-15
1e-15
1e-15
1e-15
1e-15
1e-15
1e-15
1e-15
1e-15
1e-15
1e-15
1e-15
1e-15
1e-15
1e-15
1e-15
1e-15
1e-15
1e-15
1e-15
1e-15
1e-15
1e-15
1e-15
1e-15
1e-15
1e-15
1e-15
1e-15
1e-15
1e-15
1e-15
1e-15
1e-15
1e-15
1e-15
1e-15
1e-15
1e-15
1e-15
1e-15
1e-15
1e-15
1e-15
1e-15
1e-15
1e-15
1e-15
1e-15
1e-15
1e-15
1e-15
1e-15
1e-15
1e-15
1e-15
1e-15
1e-15
1e-15
1e-15
1e-15
1e-15
1.00892587511e-15
1.00807140965e-15
1.00931434659e-15
1.00807140965e-15
1.00947002862e-15
1.00807140965e-15
1e-15
1e-15
1e-15
1e-15
1e-15
1e-15
1e-15
1e-15
1e-15
1e-15
1e-15
1e-15
1e-15
1e-15
1e-15
1e-15
1e-15
1e-15
1e-15
1e-15
1e-15
1e-15
1e-15
1e-15
1e-15
1e-15
1e-15
1e-15
1e-15
1e-15
1e-15
1e-15
1e-15
1e-15
1e-15
1e-15
1e-15
1e-15
1e-15
1.00000189306e-15
1.00000510107e-15
1.00000741598e-15
1.00002420267e-15
1.00004228929e-15
1.00006160528e-15
1.00008210299e-15
1.00010879104e-15
1.00014760217e-15
1.00020304391e-15
1.00033080047e-15
1.00043006466e-15
1.00033571484e-15
1.00037440412e-15
1.00036894477e-15
1.00030572903e-15
1.00011166653e-15
1.00000534018e-15
1e-15
1e-15
1e-15
1e-15
1e-15
1e-15
1e-15
1e-15
1e-15
1e-15
1e-15
1e-15
1e-15
1e-15
1e-15
1e-15
1e-15
1e-15
1e-15
1e-15
1e-15
1e-15
1e-15
1e-15
1e-15
1e-15
1e-15
1e-15
1e-15
1e-15
1e-15
1e-15
1e-15
1e-15
1e-15
1e-15
1e-15
1e-15
1e-15
1e-15
1e-15
1e-15
1e-15
1e-15
1e-15
1e-15
1e-15
1e-15
1e-15
1e-15
1e-15
1.00000112799e-15
1.00000339581e-15
1.0000144766e-15
1.00002545795e-15
1.00003525025e-15
1.00004279696e-15
1.0000496121e-15
1.00005583745e-15
1.00006154005e-15
1.00006675499e-15
1.00007136806e-15
1.00007528707e-15
1.00007866839e-15
1.00008150165e-15
1.00008390538e-15
1.0000859035e-15
1.00008795533e-15
1.00009131466e-15
1.00009308708e-15
1.00009171289e-15
1.00009137335e-15
1.00009196516e-15
1.0000925718e-15
1.00009293898e-15
1.00009327206e-15
1.00013144694e-15
1.00807140965e-15
1.00913305972e-15
1.00807140965e-15
1.00946135129e-15
1.00807140965e-15
1.00903734975e-15
1.00013953773e-15
1.00004868808e-15
1.00000143561e-15
1e-15
1e-15
1e-15
1e-15
1e-15
1e-15
1e-15
1e-15
1e-15
1e-15
1e-15
1e-15
1e-15
1e-15
1e-15
1e-15
1e-15
1e-15
1e-15
1e-15
1e-15
1e-15
1e-15
1e-15
1e-15
1e-15
1e-15
1e-15
1e-15
1e-15
1e-15
1e-15
1e-15
1e-15
1e-15
1e-15
1.0000043355e-15
1.0000344455e-15
1.00006340909e-15
1.00008414556e-15
1.00011495197e-15
1.00023776445e-15
1.00046565932e-15
1.00075154927e-15
1.00074171088e-15
1.00081538194e-15
1.00092036932e-15
1.00092117045e-15
1.00080830461e-15
1.00048831137e-15
1.00017431911e-15
1e-15
1e-15
1e-15
1e-15
1e-15
1e-15
1e-15
1e-15
1e-15
1e-15
1e-15
1e-15
1e-15
1e-15
1e-15
1e-15
1e-15
1e-15
1e-15
1e-15
1e-15
1e-15
1e-15
1e-15
1e-15
1e-15
1e-15
1e-15
1e-15
1e-15
1e-15
1e-15
1e-15
1e-15
1e-15
1e-15
1e-15
1e-15
1e-15
1e-15
1e-15
1e-15
1e-15
1e-15
1e-15
1e-15
1e-15
1e-15
1e-15
1e-15
1e-15
1e-15
1e-15
1e-15
1e-15
1.00003248177e-15
1.0000528585e-15
1.00006736068e-15
1.00008235167e-15
1.00010050446e-15
1.00012741531e-15
1.00015039957e-15
1.00017165021e-15
1.00018989307e-15
1.00020596333e-15
1.00022014489e-15
1.00023200073e-15
1.00024196173e-15
1.00025042826e-15
1.00025721747e-15
1.00026527865e-15
1.00027330709e-15
1.00027848535e-15
1.00027774242e-15
1.00027401294e-15
1.00027323193e-15
1.00027396963e-15
1.00027413246e-15
1.00027395665e-15
1.00033875896e-15
1.00892860134e-15
1.00807140965e-15
1.0093123557e-15
1.00807140965e-15
1.00946994173e-15
1.00807140965e-15
1.00037651061e-15
1.00010749216e-15
1.00002410962e-15
1e-15
1e-15
1e-15
1e-15
1e-15
1e-15
1e-15
1e-15
1e-15
1e-15
1e-15
1e-15
1e-15
1e-15
1e-15
1e-15
1e-15
1e-15
1e-15
1e-15
1e-15
1e-15
1e-15
1e-15
1e-15
1e-15
1e-15
1e-15
1e-15
1e-15
1.00000213947e-15
1.00001086771e-15
1.00001553484e-15
1.00002577946e-15
1.00003656421e-15
1.00005038787e-15
1.00006721305e-15
1.00009775939e-15
1.000170137e-15
1.00031165881e-15
1.00064305838e-15
1.00127888985e-15
1.0014974803e-15
1.00150827613e-15
1.00150677794e-15
1.0012160402e-15
1.00088545718e-15
1.00071025759e-15
1.00052053331e-15
1.00015325493e-15
1e-15
1e-15
1e-15
1e-15
1e-15
1e-15
1e-15
1e-15
1e-15
1e-15
1e-15
1e-15
1e-15
1e-15
1e-15
1e-15
1e-15
1e-15
1e-15
1e-15
1e-15
1e-15
1e-15
1e-15
1e-15
1e-15
1e-15
1e-15
1e-15
1e-15
1e-15
1e-15
1e-15
1e-15
1e-15
1e-15
1e-15
1e-15
1e-15
1e-15
1e-15
1e-15
1e-15
1e-15
1e-15
1e-15
1e-15
1e-15
1e-15
1e-15
1e-15
1e-15
1e-15
1e-15
1e-15
1e-15
1e-15
1.0000224874e-15
1.0001201977e-15
1.00021725434e-15
1.00026871055e-15
1.00030047582e-15
1.00035088663e-15
1.00039032321e-15
1.0004218556e-15
1.00044991045e-15
1.00047313803e-15
1.00049178854e-15
1.00050701219e-15
1.00052025789e-15
1.00053129237e-15
1.00054102267e-15
1.00054805927e-15
1.00055547125e-15
1.00055598108e-15
1.00055029132e-15
1.00054651155e-15
1.00054562163e-15
1.00054434701e-15
1.00054165698e-15
1.00522779269e-15
1.00807140965e-15
1.00913048629e-15
1.00807140965e-15
1.00946079189e-15
1.00807140965e-15
1.00903531834e-15
1.00068849666e-15
1.00023456499e-15
1.00004343213e-15
1e-15
1e-15
1e-15
1e-15
1e-15
1e-15
1e-15
1e-15
1e-15
1e-15
1e-15
1e-15
1e-15
1e-15
1e-15
1e-15
1e-15
1e-15
1e-15
1e-15
1e-15
1e-15
1e-15
1e-15
1e-15
1e-15
1e-15
1e-15
1e-15
1e-15
1.00000414396e-15
1.00001447736e-15
1.00002510086e-15
1.00004126095e-15
1.00006212653e-15
1.00009174092e-15
1.00014704983e-15
1.00029748426e-15
1.00062317129e-15
1.00115367449e-15
1.00142443622e-15
1.00142511688e-15
1.00141770754e-15
1.00128299999e-15
1.00116972602e-15
1.00093592402e-15
1.00065274263e-15
1.00043616807e-15
1.00025038065e-15
1e-15
1e-15
1e-15
1e-15
1e-15
1e-15
1e-15
1e-15
1e-15
1e-15
1e-15
1e-15
1e-15
1e-15
1e-15
1e-15
1e-15
1e-15
1e-15
1e-15
1e-15
1e-15
1e-15
1e-15
1e-15
1e-15
1e-15
1e-15
1e-15
1e-15
1e-15
1e-15
1e-15
1e-15
1e-15
1e-15
1e-15
1e-15
1e-15
1e-15
1e-15
1e-15
1e-15
1e-15
1e-15
1e-15
1e-15
1e-15
1e-15
1e-15
1e-15
1e-15
1e-15
1e-15
1e-15
1e-15
1e-15
1e-15
1e-15
1e-15
1.00018517763e-15
1.00036228272e-15
1.00051548056e-15
1.00058034794e-15
1.00061300917e-15
1.00065721362e-15
1.00068462459e-15
1.00070743801e-15
1.00072601966e-15
1.00074078918e-15
1.0007525259e-15
1.00076136841e-15
1.00076840446e-15
1.00077275789e-15
1.00077760601e-15
1.00077965131e-15
1.00077517521e-15
1.00076683763e-15
1.00076189495e-15
1.00075817155e-15
1.00076764542e-15
1.00807140965e-15
1.00892761519e-15
1.00807140965e-15
1.00930978034e-15
1.00807140965e-15
1.00947366305e-15
1.00807140965e-15
1.00094041605e-15
1.00041592591e-15
1.00004653794e-15
1e-15
1e-15
1e-15
1e-15
1e-15
1e-15
1e-15
1e-15
1e-15
1e-15
1e-15
1e-15
1e-15
1e-15
1e-15
1e-15
1e-15
1e-15
1e-15
1e-15
1e-15
1e-15
1e-15
1e-15
1e-15
1e-15
1e-15
1e-15
1e-15
1.00000236127e-15
1.00000832581e-15
1.00002301711e-15
1.00004388051e-15
1.00006839988e-15
1.00009990936e-15
1.00018932624e-15
1.00045126151e-15
1.00073905683e-15
1.00093997286e-15
1.00106353746e-15
1.0011636518e-15
1.0010582552e-15
1.0009165451e-15
1.00074244762e-15
1.00066607017e-15
1.00059445558e-15
1.00044014358e-15
1.00026769979e-15
1.00017901617e-15
1.0000311775e-15
1e-15
1e-15
1e-15
1.00000080599e-15
1.00002125502e-15
1.00001618134e-15
1.00001059596e-15
1.00001430177e-15
1.00000777886e-15
1.00000069178e-15
1e-15
1e-15
1e-15
1e-15
1e-15
1e-15
1e-15
1e-15
1e-15
1e-15
1e-15
1e-15
1e-15
1e-15
1e-15
1e-15
1e-15
1e-15
1e-15
1e-15
1e-15
1e-15
1e-15
1e-15
1e-15
1e-15
1e-15
1e-15
1e-15
1e-15
1e-15
1e-15
1e-15
1e-15
1e-15
1e-15
1e-15
1e-15
1e-15
1e-15
1e-15
1e-15
1e-15
1e-15
1e-15
1e-15
1e-15
1e-15
1e-15
1e-15
1.00002098487e-15
1.00041531531e-15
1.00059806889e-15
1.00074699872e-15
1.00078275317e-15
1.00082561547e-15
1.00085781992e-15
1.00087731644e-15
1.00089313838e-15
1.00090444226e-15
1.00091280954e-15
1.00091830496e-15
1.0009218078e-15
1.00092513566e-15
1.00092790395e-15
1.00092450358e-15
1.00091128777e-15
1.00090184735e-15
1.00089545935e-15
1.00091816104e-15
1.00863254878e-15
1.00807140965e-15
1.00912697285e-15
1.00807140965e-15
1.0094587587e-15
1.00807140965e-15
1.00903245935e-15
1.00112365804e-15
1.00051673022e-15
1.00004829692e-15
1e-15
1e-15
1e-15
1e-15
1e-15
1e-15
1e-15
1e-15
1e-15
1e-15
1e-15
1e-15
1e-15
1e-15
1e-15
1e-15
1e-15
1e-15
1e-15
1e-15
1e-15
1e-15
1e-15
1e-15
1e-15
1e-15
1e-15
1e-15
1e-15
1.00000553387e-15
1.00001531467e-15
1.00003349917e-15
1.00004926289e-15
1.00006010289e-15
1.00005627867e-15
1.00015271106e-15
1.00031233909e-15
1.00051348298e-15
1.00060320378e-15
1.0005693042e-15
1.00048911841e-15
1.00037363198e-15
1.00027839524e-15
1.00019476723e-15
1.00017181547e-15
1.00027620024e-15
1.00031779845e-15
1.0002916524e-15
1.00024666529e-15
1.00014611519e-15
1.00001516483e-15
1.00004530974e-15
1.0000518034e-15
1.00005739576e-15
1.00006118716e-15
1.000050068e-15
1.00004022672e-15
1.00003605484e-15
1.00002650715e-15
1.00001682641e-15
1.00000684189e-15
1e-15
1e-15
1e-15
1e-15
1e-15
1e-15
1e-15
1e-15
1e-15
1e-15
1e-15
1e-15
1e-15
1e-15
1e-15
1e-15
1e-15
1e-15
1e-15
1e-15
1e-15
1e-15
1e-15
1e-15
1e-15
1e-15
1e-15
1e-15
1e-15
1e-15
1e-15
1e-15
1e-15
1e-15
1e-15
1e-15
1e-15
1e-15
1e-15
1e-15
1e-15
1e-15
1e-15
1e-15
1e-15
1e-15
1e-15
1e-15
1e-15
1e-15
1e-15
1.00027145242e-15
1.00062672888e-15
1.00084987604e-15
1.0009460725e-15
1.00096786185e-15
1.00100658381e-15
1.0010268219e-15
1.00104708847e-15
1.001056989e-15
1.00106254034e-15
1.0010671114e-15
1.00106994374e-15
1.00107285813e-15
1.00107033578e-15
1.00105335505e-15
1.00103952369e-15
1.00102996139e-15
1.00106416347e-15
1.00807140965e-15
1.00892383704e-15
1.00807140965e-15
1.00930669554e-15
1.00807140965e-15
1.00946923677e-15
1.00807140965e-15
1.00131074367e-15
1.00057616073e-15
1.00004726705e-15
1e-15
1e-15
1e-15
1e-15
1e-15
1e-15
1e-15
1e-15
1e-15
1e-15
1e-15
1e-15
1e-15
1e-15
1e-15
1e-15
1e-15
1e-15
1e-15
1e-15
1e-15
1e-15
1e-15
1e-15
1e-15
1e-15
1e-15
1e-15
1e-15
1.00000276317e-15
1.00000735484e-15
1.00001003026e-15
1e-15
1e-15
1e-15
1e-15
1e-15
1e-15
1e-15
1e-15
1e-15
1e-15
1e-15
1e-15
1.00012274349e-15
1.00028621488e-15
1.00035608369e-15
1.00036803834e-15
1.00038052186e-15
1.00035122568e-15
1.00017589957e-15
1.00014452095e-15
1.0001634129e-15
1.00015825646e-15
1.00013286951e-15
1.00008979267e-15
1.00005339373e-15
1.00003485479e-15
1.00002460228e-15
1.00001402505e-15
1.00000325488e-15
1e-15
1e-15
1e-15
1e-15
1e-15
1e-15
1e-15
1e-15
1e-15
1e-15
1e-15
1e-15
1e-15
1e-15
1e-15
1e-15
1e-15
1e-15
1e-15
1e-15
1e-15
1e-15
1e-15
1e-15
1e-15
1e-15
1e-15
1e-15
1e-15
1e-15
1e-15
1e-15
1e-15
1e-15
1e-15
1e-15
1e-15
1e-15
1e-15
1e-15
1e-15
1e-15
1e-15
1e-15
1e-15
1e-15
1e-15
1e-15
1e-15
1e-15
1e-15
1e-15
1e-15
1.00058019897e-15
1.00086306223e-15
1.00113523256e-15
1.00117995465e-15
1.00126280385e-15
1.00123908632e-15
1.00125730321e-15
1.00126944888e-15
1.00127152911e-15
1.00127442571e-15
1.00127722822e-15
1.00127527336e-15
1.00125663189e-15
1.0012382288e-15
1.0012241563e-15
1.00127057116e-15
1.00863202444e-15
1.00807140965e-15
1.00912313795e-15
1.00807140965e-15
1.00945590055e-15
1.00807140965e-15
1.00902837671e-15
1.00155815404e-15
1.00064844027e-15
1.00004576354e-15
1e-15
1e-15
1.00001112582e-15
1e-15
1e-15
1e-15
1e-15
1e-15
1e-15
1e-15
1e-15
1e-15
1e-15
1e-15
1e-15
1e-15
1e-15
1e-15
1e-15
1e-15
1e-15
1e-15
1e-15
1e-15
1e-15
1e-15
1e-15
1e-15
1e-15
1e-15
1e-15
1e-15
1e-15
1e-15
1e-15
1e-15
1e-15
1e-15
1e-15
1e-15
1e-15
1e-15
1e-15
1e-15
1.00019542903e-15
1.00037481401e-15
1.00046627884e-15
1.00051217324e-15
1.00057944206e-15
1.00063006915e-15
1.00058979181e-15
1.00055038833e-15
1.00056448339e-15
1.00051757806e-15
1.00043589343e-15
1.0003418304e-15
1.00025859108e-15
1.00017493201e-15
1.00006938623e-15
1.00000714312e-15
1e-15
1e-15
1e-15
1e-15
1e-15
1e-15
1e-15
1e-15
1e-15
1e-15
1e-15
1e-15
1e-15
1e-15
1e-15
1e-15
1e-15
1e-15
1e-15
1e-15
1e-15
1e-15
1e-15
1e-15
1e-15
1e-15
1e-15
1e-15
1e-15
1e-15
1e-15
1e-15
1e-15
1e-15
1e-15
1e-15
1e-15
1e-15
1e-15
1e-15
1e-15
1e-15
1e-15
1e-15
1e-15
1e-15
1e-15
1e-15
1e-15
1e-15
1e-15
1e-15
1e-15
1e-15
1e-15
1.00046449736e-15
1.00094185997e-15
1.00126914851e-15
1.00151510452e-15
1.00151592872e-15
1.00155267184e-15
1.00154699158e-15
1.00157127057e-15
1.00157593946e-15
1.00157724577e-15
1.00157643176e-15
1.00155907228e-15
1.00153647704e-15
1.00151611449e-15
1.00157768851e-15
1.00807140965e-15
1.00891892109e-15
1.00807140965e-15
1.00930271325e-15
1.00807140965e-15
1.00947663003e-15
1.00807140965e-15
1.00189254218e-15
1.00076900795e-15
1.00004456777e-15
1e-15
1e-15
1.00026521713e-15
1.00020742054e-15
1.00005701935e-15
1e-15
1e-15
1e-15
1e-15
1e-15
1e-15
1e-15
1e-15
1e-15
1e-15
1e-15
1e-15
1e-15
1e-15
1e-15
1e-15
1e-15
1e-15
1e-15
1e-15
1e-15
1e-15
1e-15
1e-15
1e-15
1e-15
1e-15
1e-15
1e-15
1e-15
1e-15
1e-15
1e-15
1e-15
1e-15
1e-15
1e-15
1e-15
1e-15
1.0004045745e-15
1.00060371264e-15
1.00068823698e-15
1.00073320866e-15
1.00083034696e-15
1.00094752927e-15
1.0010283269e-15
1.0010594393e-15
1.00106461771e-15
1.00098840465e-15
1.00085627939e-15
1.0007258194e-15
1.00060649072e-15
1.00047602357e-15
1.00028927872e-15
1.00005905301e-15
1e-15
1e-15
1e-15
1e-15
1e-15
1e-15
1e-15
1e-15
1e-15
1e-15
1e-15
1e-15
1e-15
1e-15
1e-15
1e-15
1e-15
1e-15
1e-15
1e-15
1e-15
1e-15
1e-15
1e-15
1e-15
1e-15
1e-15
1e-15
1e-15
1e-15
1e-15
1e-15
1e-15
1e-15
1e-15
1e-15
1e-15
1e-15
1e-15
1e-15
1e-15
1e-15
1e-15
1e-15
1e-15
1e-15
1e-15
1e-15
1e-15
1e-15
1e-15
1e-15
1e-15
1e-15
1e-15
1e-15
1.00058600311e-15
1.00100791188e-15
1.00140436477e-15
1.00175763148e-15
1.00195235675e-15
1.001951752e-15
1.00193363487e-15
1.00194909251e-15
1.00195617721e-15
1.00194580498e-15
1.00193102946e-15
1.00190639656e-15
1.00187882216e-15
1.00194683282e-15
1.00863044598e-15
1.00807140965e-15
1.00911836632e-15
1.00807140965e-15
1.00945233521e-15
1.00807140965e-15
1.00902253533e-15
1.00228092706e-15
1.00095614025e-15
1.00455653542e-15
1e-15
1e-15
1.00048618925e-15
1.00048948399e-15
1.0004231085e-15
1.00018430853e-15
1e-15
1e-15
1e-15
1e-15
1e-15
1e-15
1e-15
1e-15
1e-15
1e-15
1e-15
1e-15
1e-15
1e-15
1e-15
1e-15
1e-15
1e-15
1e-15
1e-15
1e-15
1e-15
1e-15
1e-15
1e-15
1e-15
1e-15
1e-15
1e-15
1e-15
1e-15
1e-15
1e-15
1e-15
1e-15
1e-15
1e-15
1.00033733058e-15
1.00088061618e-15
1.0011116134e-15
1.00114606252e-15
1.00108310845e-15
1.00113543241e-15
1.00126999063e-15
1.00137376794e-15
1.00141440409e-15
1.00141613499e-15
1.00132513508e-15
1.00116558527e-15
1.00100100991e-15
1.00082718112e-15
1.00060238157e-15
1.00036071302e-15
1.00010528868e-15
1e-15
1e-15
1e-15
1e-15
1e-15
1e-15
1e-15
1e-15
1e-15
1e-15
1e-15
1e-15
1e-15
1e-15
1e-15
1e-15
1e-15
1e-15
1e-15
1e-15
1e-15
1e-15
1e-15
1e-15
1e-15
1e-15
1e-15
1e-15
1e-15
1e-15
1e-15
1e-15
1e-15
1e-15
1e-15
1e-15
1e-15
1e-15
1e-15
1e-15
1e-15
1e-15
1e-15
1e-15
1e-15
1e-15
1e-15
1e-15
1e-15
1e-15
1e-15
1e-15
1e-15
1e-15
1e-15
1e-15
1.00008473038e-15
1.00076414711e-15
1.00114182839e-15
1.00156349098e-15
1.00191817495e-15
1.00229955942e-15
1.00233500932e-15
1.00228668518e-15
1.00226784695e-15
1.00229216106e-15
1.00228035793e-15
1.00225696056e-15
1.00222390825e-15
1.00228728841e-15
1.00807140965e-15
1.00891373033e-15
1.00807140965e-15
1.00929848255e-15
1.00807140965e-15
1.00946433101e-15
1.00807140965e-15
1.00264807943e-15
1.00118299098e-15
1.00643093014e-15
1.00020010818e-15
1e-15
1.00058546902e-15
1.00058386725e-15
1.00056815605e-15
1.00051790748e-15
1.00026634715e-15
1e-15
1e-15
1e-15
1e-15
1e-15
1e-15
1e-15
1e-15
1e-15
1e-15
1e-15
1e-15
1e-15
1e-15
1e-15
1e-15
1e-15
1e-15
1e-15
1e-15
1e-15
1e-15
1e-15
1e-15
1e-15
1e-15
1e-15
1e-15
1e-15
1e-15
1e-15
1e-15
1e-15
1e-15
1e-15
1.00003034941e-15
1.00101277513e-15
1.00169065656e-15
1.0019528386e-15
1.00192900993e-15
1.00161330982e-15
1.00152074843e-15
1.00157681016e-15
1.0016575876e-15
1.00167972104e-15
1.00164455362e-15
1.00153021052e-15
1.00134642656e-15
1.00113305426e-15
1.00086086746e-15
1.00057451672e-15
1.00031933527e-15
1.00007152793e-15
1e-15
1e-15
1e-15
1e-15
1e-15
1e-15
1e-15
1e-15
1e-15
1e-15
1e-15
1e-15
1e-15
1e-15
1e-15
1e-15
1e-15
1e-15
1e-15
1e-15
1e-15
1e-15
1e-15
1e-15
1e-15
1e-15
1e-15
1e-15
1e-15
1e-15
1e-15
1e-15
1e-15
1e-15
1e-15
1e-15
1e-15
1e-15
1e-15
1e-15
1e-15
1e-15
1e-15
1e-15
1e-15
1e-15
1e-15
1.00000461736e-15
1.00001585347e-15
1.00002518254e-15
1.00003330814e-15
1.00003071391e-15
1.00001923076e-15
1.00000951434e-15
1.00000093659e-15
1.00002174046e-15
1.0000627091e-15
1.00030195891e-15
1.00077072679e-15
1.00136725832e-15
1.00173840511e-15
1.00213250284e-15
1.00233925092e-15
1.00257574393e-15
1.00269993359e-15
1.00256227732e-15
1.00255046274e-15
1.00252979612e-15
1.00249356843e-15
1.00254609276e-15
1.00862796853e-15
1.00807140965e-15
1.0091128699e-15
1.00807140965e-15
1.00944742008e-15
1.00807140965e-15
1.00901627132e-15
1.00294104338e-15
1.00138002906e-15
1.00603908622e-15
1.00050979917e-15
1e-15
1.00064571445e-15
1.00063684478e-15
1.00063001889e-15
1.00063759478e-15
1.0005684632e-15
1.00026809413e-15
1e-15
1e-15
1e-15
1e-15
1.00002207086e-15
1.00007248156e-15
1e-15
1e-15
1e-15
1e-15
1e-15
1e-15
1e-15
1e-15
1e-15
1e-15
1e-15
1e-15
1e-15
1e-15
1e-15
1e-15
1e-15
1e-15
1e-15
1e-15
1e-15
1e-15
1e-15
1e-15
1e-15
1e-15
1e-15
1e-15
1.00043611452e-15
1.00176206912e-15
1.00247492376e-15
1.00271724049e-15
1.00271509499e-15
1.00232189874e-15
1.00198400839e-15
1.00188466918e-15
1.00188735288e-15
1.00187943425e-15
1.00179584066e-15
1.00163772213e-15
1.00141840694e-15
1.00114589768e-15
1.00082062625e-15
1.00049035248e-15
1.00020796824e-15
1e-15
1e-15
1e-15
1e-15
1e-15
1e-15
1e-15
1e-15
1e-15
1e-15
1e-15
1e-15
1e-15
1e-15
1e-15
1e-15
1e-15
1e-15
1e-15
1e-15
1e-15
1e-15
1e-15
1e-15
1e-15
1e-15
1e-15
1e-15
1e-15
1e-15
1e-15
1e-15
1e-15
1e-15
1e-15
1e-15
1e-15
1e-15
1e-15
1e-15
1e-15
1e-15
1e-15
1e-15
1e-15
1e-15
1e-15
1e-15
1e-15
1.00001104486e-15
1.00002353056e-15
1.0000363919e-15
1.00004893117e-15
1.00005676209e-15
1.00006285825e-15
1.00005998981e-15
1.00007816291e-15
1.00011806402e-15
1.00038296171e-15
1.00059385093e-15
1.0009510332e-15
1.00144074695e-15
1.00195990387e-15
1.00222695913e-15
1.00247969755e-15
1.00276048358e-15
1.00276319048e-15
1.00275690333e-15
1.00274458133e-15
1.00270805848e-15
1.00275370314e-15
1.00807140965e-15
1.00890763749e-15
1.00807140965e-15
1.00929301667e-15
1.00807140965e-15
1.00946915691e-15
1.00807140965e-15
1.00317137946e-15
1.00151209269e-15
1.00643741031e-15
1.00067801485e-15
1e-15
1.00073750412e-15
1.00077739744e-15
1.00075832949e-15
1.00070554062e-15
1.00066138462e-15
1.00057287015e-15
1.00023792749e-15
1.00001043049e-15
1e-15
1.00018563873e-15
1.00040315749e-15
1.00033821661e-15
1e-15
1e-15
1e-15
1e-15
1e-15
1e-15
1e-15
1e-15
1e-15
1e-15
1e-15
1e-15
1e-15
1e-15
1e-15
1e-15
1e-15
1e-15
1e-15
1e-15
1e-15
1e-15
1e-15
1e-15
1e-15
1e-15
1e-15
1.00002212133e-15
1.00124519982e-15
1.00232133295e-15
1.00282311026e-15
1.00299358883e-15
1.00305752885e-15
1.00300856027e-15
1.00253787269e-15
1.00221198751e-15
1.00208226796e-15
1.00200781618e-15
1.00188371649e-15
1.00168056545e-15
1.00141985765e-15
1.00110864293e-15
1.00072324844e-15
1.00035078286e-15
1.00007993684e-15
1e-15
1e-15
1e-15
1e-15
1e-15
1e-15
1e-15
1e-15
1e-15
1e-15
1e-15
1e-15
1e-15
1e-15
1e-15
1e-15
1e-15
1e-15
1e-15
1e-15
1e-15
1e-15
1e-15
1e-15
1e-15
1e-15
1e-15
1e-15
1e-15
1e-15
1e-15
1e-15
1e-15
1e-15
1e-15
1e-15
1e-15
1e-15
1e-15
1e-15
1e-15
1e-15
1e-15
1e-15
1e-15
1e-15
1e-15
1e-15
1e-15
1.00000260321e-15
1.00001613381e-15
1.00003026727e-15
1.00004454305e-15
1.00005829489e-15
1.00007148929e-15
1.00007803642e-15
1.00009237135e-15
1.00020973159e-15
1.0004670763e-15
1.00067416152e-15
1.00101107345e-15
1.00128696455e-15
1.00157107049e-15
1.00207797211e-15
1.00242703939e-15
1.00265951066e-15
1.00285421012e-15
1.00294855046e-15
1.00294549929e-15
1.00291846869e-15
1.00296165885e-15
1.00862431816e-15
1.00807140965e-15
1.00910697302e-15
1.00807140965e-15
1.00944060234e-15
1.00807140965e-15
1.00900921521e-15
1.00338208783e-15
1.00160607557e-15
1.00603908622e-15
1.00079731282e-15
1.00036484343e-15
1.00089883007e-15
1.00091886427e-15
1.00090270633e-15
1.00084739891e-15
1.00076294407e-15
1.00067807483e-15
1.00048903819e-15
1.00023062606e-15
1.00008220894e-15
1.00051759184e-15
1.00050304436e-15
1.00039308074e-15
1e-15
1e-15
1e-15
1e-15
1e-15
1e-15
1e-15
1e-15
1e-15
1e-15
1e-15
1e-15
1e-15
1e-15
1e-15
1e-15
1e-15
1e-15
1e-15
1e-15
1e-15
1e-15
1e-15
1e-15
1e-15
1e-15
1e-15
1.00023326594e-15
1.0018922663e-15
1.00257758588e-15
1.00282056728e-15
1.00297971303e-15
1.003060324e-15
1.0030607764e-15
1.00300321249e-15
1.00258067305e-15
1.00228202457e-15
1.00211389461e-15
1.0019487987e-15
1.00171288648e-15
1.00140719679e-15
1.00103294354e-15
1.00057643917e-15
1.00017592482e-15
1e-15
1e-15
1e-15
1e-15
1e-15
1e-15
1e-15
1e-15
1e-15
1e-15
1e-15
1e-15
1e-15
1e-15
1e-15
1e-15
1e-15
1e-15
1e-15
1e-15
1e-15
1e-15
1e-15
1e-15
1e-15
1e-15
1e-15
1e-15
1e-15
1e-15
1e-15
1e-15
1e-15
1e-15
1e-15
1e-15
1e-15
1e-15
1e-15
1e-15
1e-15
1e-15
1e-15
1e-15
1e-15
1e-15
1e-15
1e-15
1e-15
1e-15
1e-15
1.00000711897e-15
1.00002136292e-15
1.00003598262e-15
1.00005259956e-15
1.00009180862e-15
1.00011754098e-15
1.00015811188e-15
1.00029975695e-15
1.00059116024e-15
1.00080427014e-15
1.00111195101e-15
1.00139196951e-15
1.00161977237e-15
1.00191797177e-15
1.00227815357e-15
1.00265070375e-15
1.00296185768e-15
1.00308038356e-15
1.00318575644e-15
1.00316781469e-15
1.0032121357e-15
1.00807140965e-15
1.00890063965e-15
1.00807140965e-15
1.00928554586e-15
1.00807140965e-15
1.00945088887e-15
1.00807140965e-15
1.00361480659e-15
1.0017039153e-15
1.00643631585e-15
1.00091675621e-15
1.00065077938e-15
1.00092483018e-15
1.00092935515e-15
1.00092562027e-15
1.00091654664e-15
1.0008797742e-15
1.00082064105e-15
1.00064950531e-15
1.00039426269e-15
1.00033394143e-15
1.00059480277e-15
1.00054388016e-15
1.0004336046e-15
1e-15
1e-15
1e-15
1e-15
1e-15
1e-15
1e-15
1e-15
1e-15
1e-15
1e-15
1e-15
1e-15
1e-15
1e-15
1e-15
1e-15
1e-15
1e-15
1e-15
1e-15
1e-15
1e-15
1e-15
1e-15
1e-15
1e-15
1.00090837233e-15
1.00218295586e-15
1.00258451534e-15
1.00277293629e-15
1.00291687324e-15
1.00301984441e-15
1.00305318489e-15
1.00304984503e-15
1.00290590986e-15
1.00252435841e-15
1.00226062192e-15
1.00205107517e-15
1.0017769756e-15
1.00137122865e-15
1.00092259425e-15
1.00038327348e-15
1.00002472378e-15
1e-15
1e-15
1e-15
1e-15
1e-15
1e-15
1e-15
1e-15
1e-15
1e-15
1e-15
1e-15
1e-15
1e-15
1e-15
1e-15
1e-15
1e-15
1e-15
1e-15
1e-15
1e-15
1e-15
1e-15
1e-15
1e-15
1e-15
1e-15
1e-15
1e-15
1e-15
1e-15
1e-15
1e-15
1e-15
1e-15
1e-15
1e-15
1e-15
1e-15
1e-15
1e-15
1e-15
1e-15
1e-15
1e-15
1e-15
1e-15
1e-15
1e-15
1e-15
1e-15
1.00001193143e-15
1.00002676547e-15
1.00004345082e-15
1.00009888381e-15
1.00016183825e-15
1.00022599997e-15
1.00039257425e-15
1.00075302984e-15
1.00097540015e-15
1.00125015107e-15
1.00154350479e-15
1.00174761849e-15
1.00200636977e-15
1.00232389175e-15
1.00255761035e-15
1.00295791334e-15
1.00328514904e-15
1.00343593204e-15
1.00343435367e-15
1.0035152902e-15
1.00861952181e-15
1.00807140965e-15
1.00910026355e-15
1.00807140965e-15
1.00943158507e-15
1.00807140965e-15
1.00900076207e-15
1.00388280445e-15
1.00185018964e-15
1.00603908622e-15
1.00091146304e-15
1.00076575833e-15
1.00090583813e-15
1.0009082262e-15
1.00090770118e-15
1.00090658916e-15
1.00090229524e-15
1.00089432642e-15
1.00080498004e-15
1.00059519312e-15
1.0005553841e-15
1.00064368783e-15
1.00058992227e-15
1.00048516227e-15
1e-15
1e-15
1e-15
1e-15
1e-15
1e-15
1e-15
1e-15
1e-15
1e-15
1e-15
1e-15
1e-15
1e-15
1e-15
1e-15
1e-15
1e-15
1e-15
1e-15
1e-15
1e-15
1e-15
1e-15
1e-15
1e-15
1.000000146e-15
1.00157840569e-15
1.00226036515e-15
1.00252834064e-15
1.00268426975e-15
1.00282182194e-15
1.00292833752e-15
1.00299471368e-15
1.00301133539e-15
1.00297447026e-15
1.00278652029e-15
1.00247171871e-15
1.00214144505e-15
1.00175257028e-15
1.00130154643e-15
1.0007901184e-15
1.00020994013e-15
1e-15
1e-15
1e-15
1e-15
1e-15
1e-15
1e-15
1e-15
1e-15
1e-15
1e-15
1e-15
1e-15
1e-15
1e-15
1e-15
1e-15
1e-15
1e-15
1e-15
1e-15
1e-15
1e-15
1e-15
1e-15
1e-15
1e-15
1e-15
1e-15
1e-15
1e-15
1e-15
1e-15
1e-15
1e-15
1e-15
1e-15
1e-15
1e-15
1e-15
1e-15
1e-15
1e-15
1e-15
1e-15
1e-15
1e-15
1e-15
1e-15
1e-15
1e-15
1e-15
1e-15
1.00000166719e-15
1.00001666697e-15
1.00003262144e-15
1.00007479374e-15
1.00015279729e-15
1.00022434079e-15
1.00043457215e-15
1.00086122225e-15
1.00114100496e-15
1.00138394757e-15
1.00171166265e-15
1.00189464545e-15
1.002147624e-15
1.002399366e-15
1.0026338769e-15
1.00293224274e-15
1.00325933803e-15
1.00356343586e-15
1.00371202353e-15
1.00379780292e-15
1.00807140965e-15
1.0088935802e-15
1.00807140965e-15
1.00927658042e-15
1.00807140965e-15
1.00945161266e-15
1.00807140965e-15
1.00415280507e-15
1.0020409187e-15
1.0064272292e-15
1.00087522963e-15
1.00075240967e-15
1.00086106792e-15
1.00086249973e-15
1.00086547506e-15
1.00087219369e-15
1.00087601586e-15
1.00087857876e-15
1.00087214286e-15
1.00075672364e-15
1.00071572596e-15
1.00069920123e-15