/*--------------------------------*- C++ -*----------------------------------*\
| =========                 |                                                 |
| \\      /  F ield         | OpenFOAM: The Open Source CFD Toolbox           |
|  \\    /   O peration     | Version:  2206                                  |
|   \\  /    A nd           | Website:  www.openfoam.com                      |
|    \\/     M anipulation  |                                                 |
\*---------------------------------------------------------------------------*/
FoamFile
{
    version     2.0;
    format      ascii;
    arch        "LSB;label=64;scalar=64";
    class       volScalarField;
    location    "1.2/water";
    object      d.gas;
}
// * * * * * * * * * * * * * * * * * * * * * * * * * * * * * * * * * * * * * //

dimensions      [0 1 0 0 0 0 0];

internalField   nonuniform List<scalar> 
23300
(
0.00498784075579
0.00498784074176
0.0049878407126
0.00498784067068
0.00498784061399
0.00498784054193
0.00498784045355
0.00498784034909
0.00498784022766
0.00498784008941
0.00498783993326
0.00498783975913
0.00498783956562
0.00498783935286
0.00498783912026
0.00498783886832
0.00498783859653
0.00498783830551
0.00498783799498
0.00498783766578
0.00498783731783
0.00498783695216
0.00498783656888
0.00498783616911
0.00498783575309
0.00498783532196
0.00498783487596
0.00498783441617
0.00498783394275
0.0049878334566
0.00498783295773
0.00498783244679
0.00498783192357
0.00498783138842
0.00498783084083
0.00498783028086
0.0049878297077
0.00498782912107
0.00498782851989
0.00498782790358
0.00498782727085
0.00498782662088
0.00498782595222
0.00498782526392
0.00498782455449
0.00498782382295
0.00498782306791
0.0049878222885
0.00498782148354
0.00498782065244
0.0049878197944
0.00498781890919
0.00498781799652
0.0049878170567
0.00498781609002
0.00498781509737
0.00498781407966
0.00498781303834
0.00498781197484
0.00498781089077
0.0049878097909
0.0049878086818
0.00498780756738
0.00498780645134
0.00498780533759
0.00498780423045
0.00498780313425
0.00498780205362
0.00498780099314
0.00498779995749
0.00498779895121
0.00498779797879
0.00498779704443
0.00498779615216
0.00498779530561
0.00498779450812
0.00498779376255
0.00498779307138
0.00498779243656
0.00498779185959
0.00498779134144
0.00498779088261
0.0049877904831
0.00498779014245
0.00498778985972
0.00498778963361
0.00498778946238
0.00498778934399
0.0049877892761
0.0049877892561
0.00498778928121
0.00498778934846
0.00498778945479
0.00498778959706
0.00498778977209
0.00498778997671
0.00498779020781
0.00498779046232
0.00498779073727
0.00498779102979
0.00498779133717
0.00498779165678
0.0049877919862
0.00498779232311
0.00498779266539
0.00498779301103
0.00498779335823
0.00498779370531
0.00498779405075
0.00498779439324
0.00498779473117
0.00498779506337
0.0049877953892
0.00498779570763
0.00498779601766
0.00498779631844
0.00498779660935
0.00498779688988
0.00498779715952
0.00498779741782
0.00498779766454
0.00498779789944
0.00498779812225
0.00498779833271
0.00498779853063
0.00498779871584
0.00498779888823
0.00498779904771
0.00498779919423
0.00498779932773
0.00498779944815
0.00498779955543
0.0049877996496
0.0049877997307
0.00498779979877
0.00498779985385
0.00498779989592
0.00498779992456
0.00498779993763
0.00498779993523
0.00498797411868
0.00498797410464
0.00498797407949
0.00498797404117
0.00498797398829
0.00498797392028
0.00498797383594
0.0049879737347
0.0049879736155
0.00498797347786
0.00498797332077
0.00498797314409
0.00498797294727
0.00498797273039
0.00498797249298
0.00498797223526
0.00498797195698
0.00498797165863
0.00498797134023
0.00498797100251
0.00498797064575
0.00498797027085
0.00498796987829
0.00498796946909
0.00498796904381
0.0049879686035
0.00498796814872
0.00498796768046
0.00498796719917
0.00498796670569
0.00498796620028
0.00498796568353
0.00498796515546
0.00498796461633
0.00498796406585
0.00498796350396
0.00498796293004
0.00498796234365
0.00498796174386
0.00498796112992
0.0049879605006
0.00498795985491
0.00498795919141
0.00498795850894
0.004987957806
0.00498795708137
0.00498795633361
0.00498795556163
0.0049879547642
0.0049879539405
0.00498795308967
0.00498795221133
0.00498795130517
0.00498795037136
0.00498794941023
0.00498794842263
0.00498794740962
0.00498794637273
0.00498794531373
0.00498794423506
0.00498794314248
0.00498794204132
0.00498794093412
0.00498793982441
0.004987938716
0.00498793761309
0.00498793652006
0.00498793544156
0.00498793438223
0.00498793334683
0.00498793234
0.00498793136631
0.00498793043006
0.00498792953538
0.004987928686
0.00498792788533
0.00498792713634
0.00498792644156
0.00498792580303
0.00498792522233
0.00498792470049
0.00498792423807
0.00498792383512
0.00498792349121
0.00498792320546
0.00498792297658
0.00498792280287
0.00498792268231
0.00498792261255
0.00498792259101
0.00498792261487
0.00498792268118
0.00498792278686
0.00498792292874
0.00498792310364
0.00498792330837
0.00498792353978
0.00498792379478
0.00498792407038
0.0049879243637
0.00498792467198
0.0049879249926
0.0049879253231
0.00498792566116
0.00498792600462
0.00498792635148
0.0049879266999
0.00498792704817
0.00498792739471
0.00498792773806
0.00498792807683
0.00498792840993
0.00498792873657
0.00498792905592
0.0049879293672
0.00498792966961
0.00498792996243
0.0049879302451
0.00498793051697
0.00498793077753
0.00498793102654
0.00498793126364
0.00498793148847
0.00498793170071
0.00498793190011
0.00498793208658
0.00498793226006
0.00498793242049
0.00498793256773
0.00498793270169
0.00498793282223
0.00498793292927
0.00498793302273
0.00498793310249
0.00498793316854
0.00498793322091
0.00498793325988
0.00498793328559
0.00498793329633
0.0049879332957
0.00498810752859
0.00498810751393
0.00498810749324
0.00498810745948
0.00498810741113
0.0049881073474
0.00498810726729
0.00498810717025
0.0049881070552
0.00498810692161
0.00498810676845
0.00498810659535
0.00498810640161
0.00498810618716
0.00498810595161
0.00498810569513
0.0049881054176
0.00498810511949
0.00498810480096
0.00498810446277
0.00498810410534
0.00498810372964
0.0049881033363
0.00498810292641
0.00498810250069
0.00498810206027
0.00498810160584
0.00498810113846
0.0049881006587
0.00498810016743
0.00498809966501
0.00498809915201
0.00498809862852
0.00498809809477
0.00498809755048
0.00498809699551
0.00498809642921
0.00498809585105
0.00498809526002
0.00498809465526
0.00498809403544
0.00498809339942
0.00498809274568
0.00498809207289
0.00498809137944
0.00498809066398
0.00498808992496
0.00498808916113
0.00498808837116
0.00498808755409
0.00498808670897
0.00498808583527
0.00498808493258
0.00498808400095
0.00498808304065
0.00498808205246
0.00498808103743
0.00498807999719
0.00498807893354
0.00498807785314
0.00498807675836
0.00498807564839
0.00498807452779
0.00498807340156
0.00498807227458
0.00498807115186
0.00498807003839
0.00498806893925
0.00498806785946
0.00498806680403
0.00498806577779
0.00498806478547
0.0049880638315
0.00498806292007
0.00498806205499
0.00498806123972
0.00498806047726
0.0049880597702
0.00498805912058
0.00498805853
0.00498805799951
0.00498805752968
0.00498805712055
0.00498805677169
0.00498805648221
0.00498805625076
0.00498805607563
0.00498805595472
0.00498805588564
0.00498805586571
0.00498805589205
0.0049880559616
0.0049880560712
0.0049880562176
0.0049880563975
0.00498805660762
0.00498805684474
0.00498805710567
0.00498805738734
0.00498805768681
0.00498805800124
0.00498805832796
0.00498805866446
0.00498805900838
0.00498805935751
0.00498805970984
0.00498806006349
0.00498806041673
0.00498806076801
0.00498806111589
0.00498806145908
0.00498806179647
0.0049880621271
0.00498806245009
0.00498806276462
0.00498806306993
0.00498806336534
0.00498806365023
0.00498806392402
0.00498806418629
0.00498806443674
0.00498806467513
0.00498806490124
0.00498806511467
0.00498806531511
0.0049880655025
0.00498806567682
0.00498806583794
0.00498806598576
0.0049880661202
0.00498806624116
0.00498806634848
0.00498806644196
0.00498806652146
0.00498806658694
0.00498806663842
0.00498806667627
0.00498806670079
0.00498806671106
0.00498806671197
0.00498824099251
0.00498824097742
0.00498824096026
0.00498824092944
0.0049882408839
0.00498824082306
0.00498824074598
0.00498824065216
0.00498824054061
0.00498824041082
0.00498824026184
0.00498824009327
0.00498823990436
0.00498823969497
0.00498823946466
0.00498823921356
0.00498823894156
0.00498823864913
0.00498823833646
0.00498823800435
0.00498823765327
0.00498823728426
0.00498823689802
0.00498823649572
0.00498823607816
0.00498823564654
0.00498823520165
0.00498823474458
0.00498823427599
0.00498823379676
0.00498823330729
0.00498823280815
0.0049882322994
0.00498823178122
0.00498823125329
0.00498823071535
0.00498823016663
0.00498822960647
0.00498822903367
0.00498822844717
0.00498822784542
0.00498822722702
0.00498822659018
0.00498822593329
0.00498822525445
0.00498822455198
0.00498822382405
0.0049882230691
0.00498822228556
0.0049882214722
0.00498822062786
0.00498821975185
0.00498821884364
0.00498821790322
0.00498821693088
0.00498821592746
0.0049882148942
0.00498821383305
0.0049882127494
0.00498821164656
0.00498821052468
0.00498820938765
0.00498820824042
0.00498820708806
0.0049882059356
0.00498820478816
0.00498820365083
0.00498820252873
0.0049882014269
0.00498820035031
0.00498819930379
0.00498819829198
0.00498819731927
0.00498819638982
0.00498819550739
0.00498819467546
0.00498819389705
0.00498819317478
0.00498819251078
0.00498819190674
0.00498819136383
0.00498819088272
0.00498819046357
0.00498819010607
0.00498818980939
0.00498818957227
0.004988189393
0.0049881892695
0.00498818919931
0.00498818917971
0.00498818920771
0.00498818928013
0.00498818939366
0.00498818954491
0.00498818973044
0.00498818994682
0.00498819019066
0.00498819045867
0.00498819074764
0.00498819105451
0.00498819137636
0.00498819171043
0.00498819205413
0.00498819240504
0.00498819276091
0.00498819311968
0.00498819347945
0.00498819383848
0.00498819419519
0.00498819454816
0.00498819489612
0.00498819523791
0.00498819557256
0.00498819589914
0.00498819621686
0.00498819652499
0.00498819682288
0.00498819710996
0.00498819738573
0.00498819764979
0.00498819790178
0.00498819814143
0.00498819836849
0.00498819858271
0.00498819878369
0.00498819897131
0.00498819914578
0.004988199307
0.00498819945483
0.00498819958916
0.0049881997099
0.00498819981695
0.00498819991019
0.00498819998944
0.00498820005465
0.00498820010592
0.00498820014363
0.00498820016808
0.00498820017872
0.00498820018043
0.00498837453356
0.00498837451864
0.00498837450458
0.00498837447627
0.00498837443289
0.00498837437417
0.00498837429935
0.00498837420812
0.00498837409964
0.00498837397356
0.00498837382903
0.00498837366575
0.00498837348303
0.00498837328073
0.00498837305841
0.00498837281623
0.00498837255405
0.00498837227233
0.0049883719713
0.00498837165173
0.00498837131412
0.00498837095952
0.00498837058864
0.00498837020267
0.00498836980243
0.00498836938912
0.00498836896352
0.00498836852672
0.0049883680793
0.00498836762211
0.00498836715542
0.00498836667969
0.00498836619482
0.00498836570078
0.00498836519701
0.00498836468299
0.00498836415764
0.00498836361996
0.00498836306843
0.0049883625016
0.00498836191758
0.00498836131461
0.0049883606906
0.00498836004362
0.00498835937155
0.0049883586725
0.00498835794452
0.00498835718597
0.00498835639528
0.00498835557125
0.00498835471286
0.00498835381955
0.00498835289097
0.00498835192736
0.00498835092931
0.0049883498981
0.0049883488355
0.00498834774658
0.00498834663607
0.00498834550588
0.00498834435921
0.00498834320018
0.0049883420332
0.00498834086294
0.00498833969413
0.00498833853161
0.00498833738017
0.00498833624465
0.00498833512976
0.00498833404016
0.00498833298033
0.00498833195467
0.0049883309673
0.00498833002219
0.00498832912299
0.00498832827312
0.00498832747562
0.00498832673323
0.00498832604828
0.00498832542272
0.00498832485805
0.00498832435533
0.00498832391515
0.00498832353762
0.00498832322236
0.00498832296851
0.00498832277471
0.00498832263912
0.00498832255951
0.00498832253319
0.00498832255716
0.00498832262811
0.00498832274253
0.00498832289675
0.00498832308703
0.00498832330962
0.00498832356081
0.004988323837
0.00498832413474
0.00498832445072
0.00498832478182
0.00498832512513
0.00498832547792
0.00498832583767
0.00498832620206
0.00498832656895
0.00498832693641
0.00498832730268
0.00498832766615
0.00498832802541
0.00498832837916
0.00498832872628
0.00498832906575
0.00498832939669
0.00498832971829
0.00498833002987
0.0049883303308
0.00498833062056
0.00498833089868
0.00498833116478
0.00498833141852
0.00498833165962
0.00498833188786
0.00498833210303
0.00498833230465
0.00498833249271
0.00498833266745
0.00498833282874
0.0049883329765
0.00498833311063
0.00498833323105
0.00498833333771
0.00498833343051
0.00498833350936
0.00498833357428
0.00498833362542
0.00498833366325
0.00498833368794
0.00498833369893
0.00498833370098
0.00498850818859
0.00498850817456
0.00498850816344
0.00498850813754
0.00498850809629
0.00498850803963
0.00498850796701
0.00498850787835
0.004988507773
0.00498850765082
0.00498850751116
0.00498850735387
0.00498850717837
0.00498850698466
0.00498850677234
0.00498850654162
0.00498850629237
0.0049885060251
0.00498850573996
0.00498850543773
0.00498850511887
0.00498850478435
0.00498850443482
0.00498850407139
0.00498850369476
0.00498850330602
0.0049885029058
0.00498850249502
0.00498850207408
0.00498850164357
0.00498850120355
0.00498850075418
0.00498850029506
0.00498849982586
0.00498849934567
0.00498849885366
0.00498849834842
0.00498849782866
0.00498849729257
0.00498849673847
0.00498849616428
0.0049884955681
0.00498849494772
0.0049884943012
0.00498849362641
0.00498849292155
0.00498849218472
0.00498849141443
0.00498849060921
0.00498848976806
0.00498848889015
0.00498848797521
0.00498848702331
0.00498848603523
0.00498848501225
0.00498848395652
0.0049884828722
0.00498848176608
0.00498848064238
0.00498847950311
0.00498847835161
0.00498847719149
0.00498847602645
0.00498847486041
0.0049884736973
0.00498847254121
0.00498847139617
0.0049884702663
0.00498846915567
0.00498846806835
0.00498846700833
0.00498846597953
0.00498846498574
0.00498846403063
0.00498846311764
0.00498846225006
0.00498846143092
0.004988460663
0.00498845994878
0.00498845929048
0.00498845868997
0.00498845814882
0.00498845766822
0.004988457249
0.00498845689161
0.00498845659608
0.00498845636199
0.00498845618845
0.0049884560741
0.00498845601704
0.00498845601489
0.00498845606475
0.00498845616328
0.00498845630674
0.00498845649106
0.00498845671201
0.00498845696522
0.0049884572464
0.00498845755138
0.0049884578762
0.0049884582172
0.00498845857097
0.00498845893443
0.0049884593048
0.00498845967954
0.00498846005638
0.00498846043329
0.00498846080844
0.0049884611802
0.00498846154713
0.00498846190794
0.00498846226149
0.00498846260679
0.00498846294297
0.00498846326926
0.00498846358498
0.00498846388957
0.00498846418253
0.00498846446343
0.00498846473191
0.00498846498767
0.00498846523046
0.00498846546009
0.00498846567622
0.00498846587856
0.00498846606724
0.00498846624235
0.0049884664038
0.00498846655152
0.00498846668546
0.00498846680559
0.00498846691186
0.00498846700424
0.00498846708267
0.00498846714727
0.00498846719829
0.00498846723623
0.0049884672611
0.00498846727221
0.00498846727428
0.00498864199665
0.00498864198392
0.00498864197569
0.00498864195236
0.00498864191353
0.00498864185934
0.00498864178942
0.00498864170386
0.00498864160223
0.0049886414846
0.00498864135049
0.00498864119996
0.00498864103257
0.00498864084845
0.00498864064729
0.00498864042938
0.00498864019462
0.00498863994348
0.00498863967612
0.00498863939321
0.00498863909511
0.00498863878269
0.00498863845643
0.00498863811725
0.00498863776567
0.00498863740255
0.00498863702827
0.0049886366435
0.00498863624836
0.00498863584319
0.00498863542774
0.0049886350019
0.00498863456499
0.00498863411643
0.00498863365506
0.00498863317983
0.00498863268917
0.00498863218161
0.00498863165524
0.00498863110829
0.00498863053863
0.00498862994432
0.00498862932313
0.0049886286731
0.00498862799204
0.00498862727809
0.00498862652934
0.00498862574432
0.00498862492182
0.0049886240614
0.00498862316333
0.00498862222901
0.00498862126051
0.00498862026064
0.0049886192322
0.00498861817794
0.00498861710323
0.004988616013
0.00498861490911
0.00498861379327
0.00498861266742
0.00498861153398
0.00498861039561
0.00498860925536
0.00498860811641
0.00498860698226
0.0049886058565
0.00498860474291
0.00498860364528
0.00498860256748
0.00498860151332
0.0049886004866
0.00498859949096
0.00498859852994
0.00498859760688
0.00498859672491
0.00498859588695
0.00498859509564
0.00498859435336
0.00498859366223
0.00498859302407
0.00498859244043
0.00498859191259
0.00498859144157
0.00498859102814
0.00498859067284
0.00498859037599
0.00498859013767
0.00498858995769
0.00498858983557
0.0049885897705
0.00498858976119
0.00498858980587
0.00498858990216
0.00498859004707
0.00498859023693
0.00498859046749
0.00498859073405
0.00498859103159
0.00498859135499
0.00498859169925
0.00498859205969
0.00498859243206
0.00498859281263
0.00498859319816
0.00498859358588
0.00498859397341
0.00498859435869
0.00498859473999
0.00498859511577
0.00498859548471
0.00498859584566
0.00498859619766
0.00498859653983
0.00498859687145
0.00498859719189
0.00498859750061
0.00498859779715
0.00498859808114
0.00498859835226
0.00498859861023
0.00498859885486
0.00498859908588
0.00498859930299
0.00498859950618
0.00498859969556
0.00498859987108
0.0049886000327
0.00498860018039
0.00498860031415
0.00498860043396
0.00498860053985
0.00498860063181
0.00498860070984
0.00498860077411
0.004988600825
0.00498860086301
0.00498860088792
0.00498860089896
0.00498860090087
0.00498877599287
0.00498877598157
0.00498877597605
0.0049887759554
0.00498877591933
0.0049887758681
0.00498877580144
0.00498877571965
0.00498877562243
0.00498877550999
0.00498877538204
0.00498877523879
0.00498877507992
0.00498877490569
0.00498877471585
0.00498877451075
0.00498877429028
0.0049887740549
0.00498877380468
0.00498877354022
0.00498877326173
0.00498877296992
0.00498877266508
0.00498877234794
0.00498877201878
0.00498877167825
0.00498877132648
0.00498877096391
0.00498877059044
0.00498877020617
0.00498876981066
0.0049887694036
0.00498876898414
0.00498876855154
0.0049887681045
0.00498876764185
0.00498876716188
0.00498876666301
0.00498876614319
0.00498876560046
0.00498876503246
0.00498876443695
0.00498876381134
0.00498876315333
0.0049887624606
0.00498876173164
0.00498876096573
0.00498876016368
0.00498875932728
0.00498875845928
0.00498875756241
0.00498875663925
0.00498875569159
0.00498875472072
0.00498875372727
0.00498875271162
0.00498875167639
0.0049887506238
0.00498874955456
0.00498874847019
0.00498874737254
0.00498874626404
0.00498874514743
0.00498874402586
0.00498874290271
0.00498874178161
0.00498874066627
0.00498873956057
0.00498873846838
0.00498873739362
0.00498873634011
0.00498873531165
0.00498873431186
0.00498873334425
0.00498873241209
0.00498873151847
0.0049887306662
0.00498872985783
0.0049887290956
0.0049887283815
0.00498872771714
0.00498872710388
0.00498872654274
0.00498872603447
0.00498872557954
0.00498872517816
0.00498872483034
0.00498872453588
0.0049887242945
0.00498872410578
0.00498872396931
0.00498872388465
0.00498872385137
0.00498872386893
0.00498872393662
0.00498872405331
0.00498872421732
0.00498872442621
0.00498872467667
0.00498872496441
0.00498872528429
0.00498872563059
0.00498872599738
0.00498872637886
0.00498872676978
0.0049887271656
0.00498872756264
0.00498872795792
0.00498872834912
0.00498872873435
0.00498872911211
0.00498872948115
0.00498872984046
0.00498873018918
0.0049887305266
0.00498873085213
0.00498873116529
0.00498873146567
0.00498873175293
0.00498873202681
0.00498873228709
0.00498873253353
0.00498873276587
0.00498873298408
0.00498873318821
0.00498873337822
0.0049887335541
0.00498873371584
0.00498873386346
0.00498873399698
0.00498873411645
0.00498873422192
0.00498873431343
0.00498873439103
0.00498873445498
0.00498873450573
0.00498873454373
0.00498873456856
0.00498873457939
0.00498873458106
0.00498891020525
0.00498891019526
0.00498891019214
0.00498891017411
0.00498891014091
0.00498891009291
0.0049889100299
0.00498890995225
0.00498890985978
0.00498890975283
0.00498890963118
0.00498890949514
0.0049889093445
0.00498890917954
0.0049889090001
0.0049889088065
0.00498890859862
0.00498890837688
0.00498890814126
0.00498890789225
0.00498890762994
0.00498890735489
0.00498890706723
0.00498890676752
0.00498890645588
0.0049889061328
0.00498890579826
0.00498890545255
0.00498890509542
0.00498890472687
0.00498890434632
0.00498890395338
0.00498890354703
0.00498890312641
0.00498890269003
0.00498890223649
0.00498890176373
0.00498890126976
0.00498890075192
0.00498890020762
0.00498889963386
0.00498889902817
0.00498889838863
0.004988897715
0.00498889700853
0.00498889627207
0.00498889550872
0.00498889472139
0.00498889391161
0.00498889307989
0.00498889222569
0.00498889134816
0.00498889044609
0.00498888951841
0.00498888856405
0.00498888758258
0.00498888657611
0.00498888554698
0.00498888449648
0.00498888342719
0.00498888234171
0.00498888124297
0.00498888013404
0.00498887901828
0.00498887789917
0.00498887678043
0.00498887566581
0.00498887455924
0.00498887346459
0.00498887238581
0.00498887132673
0.00498887029115
0.00498886928272
0.00498886830496
0.00498886736115
0.00498886645438
0.00498886558746
0.00498886476296
0.0049888639831
0.00498886324985
0.0049888625648
0.00498886192923
0.00498886134411
0.00498886081006
0.00498886032738
0.00498885989609
0.00498885951593
0.00498885918638
0.00498885890672
0.00498885867603
0.0049888584933
0.0049888583574
0.00498885826721
0.00498885822166
0.00498885821985
0.00498885826112
0.00498885834513
0.00498885847169
0.00498885864053
0.00498885885088
0.00498885910124
0.00498885938905
0.00498885971049
0.00498886006041
0.00498886043254
0.0049888608201
0.00498886121656
0.00498886161618
0.0049888620144
0.0049888624078
0.00498886279395
0.00498886317105
0.00498886353783
0.00498886389329
0.0049888642367
0.00498886456747
0.00498886488517
0.00498886518943
0.00498886547999
0.00498886575662
0.00498886601907
0.00498886626718
0.00498886650092
0.00498886672026
0.00498886692519
0.0049888671157
0.00498886729181
0.00498886745355
0.00498886760099
0.00498886773419
0.00498886785323
0.00498886795822
0.00498886804924
0.00498886812637
0.00498886818996
0.00498886824053
0.00498886827844
0.00498886830307
0.00498886831358
0.00498886831497
0.00498904465376
0.00498904464486
0.0049890446437
0.00498904462802
0.0049890445976
0.00498904455279
0.00498904449342
0.00498904441992
0.00498904433213
0.00498904423042
0.00498904411464
0.00498904398513
0.00498904384169
0.00498904368463
0.00498904351375
0.00498904332937
0.00498904313132
0.00498904291995
0.00498904269515
0.00498904245736
0.00498904220653
0.00498904194316
0.00498904166726
0.00498904137933
0.0049890410794
0.0049890407679
0.00498904044476
0.00498904011022
0.00498903976397
0.00498903940596
0.00498903903547
0.00498903865196
0.00498903825417
0.00498903784085
0.00498903741
0.00498903695949
0.00498903648646
0.0049890359881
0.0049890354614
0.00498903490457
0.00498903431721
0.00498903370134
0.00498903306029
0.00498903239802
0.00498903171708
0.0049890310184
0.00498903030105
0.00498902956345
0.00498902880333
0.00498902801844
0.0049890272064
0.00498902636537
0.00498902549391
0.00498902459136
0.00498902365747
0.00498902269276
0.00498902170001
0.00498902068193
0.00498901963992
0.00498901857673
0.00498901749516
0.00498901639834
0.00498901528948
0.00498901417207
0.00498901304969
0.00498901192613
0.0049890108052
0.00498900969088
0.00498900858708
0.00498900749781
0.00498900642693
0.0049890053783
0.00498900435562
0.00498900336245
0.00498900240212
0.0049890014778
0.00498900059235
0.00498899974838
0.00498899894819
0.00498899819379
0.00498899748683
0.00498899682865
0.00498899622022
0.00498899566223
0.00498899515498
0.00498899469847
0.00498899429242
0.00498899393621
0.004988993629
0.00498899336967
0.00498899315691
0.00498899298922
0.00498899286499
0.00498899278252
0.00498899274011
0.0049889927361
0.00498899276897
0.0049889928374
0.00498899294043
0.00498899307768
0.00498899324941
0.0049889934562
0.00498899369823
0.00498899397472
0.00498899428375
0.00498899462207
0.00498899498464
0.00498899536472
0.00498899575476
0.00498899614762
0.00498899653754
0.0049889969204
0.00498899729352
0.00498899765516
0.00498899800421
0.00498899833998
0.004988998662
0.00498899896995
0.00498899926358
0.00498899954269
0.00498899980715
0.0049890000569
0.0049890002919
0.00498900051214
0.00498900071763
0.00498900090842
0.00498900108456
0.00498900124614
0.00498900139324
0.00498900152597
0.00498900164447
0.00498900174886
0.0049890018393
0.00498900191589
0.00498900197909
0.0049890020294
0.00498900206713
0.00498900209142
0.00498900210152
0.00498900210261
0.00498917935086
0.00498917934277
0.0049891793431
0.00498917932943
0.00498917930149
0.00498917925965
0.0049891792037
0.00498917913405
0.00498917905052
0.00498917895349
0.00498917884277
0.00498917871867
0.00498917858095
0.0049891784299
0.00498917826526
0.00498917808727
0.00498917789572
0.00498917769088
0.0049891774726
0.00498917724122
0.00498917699669
0.00498917673945
0.00498917646953
0.00498917618741
0.00498917589315
0.00498917558721
0.00498917526953
0.00498917494035
0.00498917459931
0.0049891742462
0.00498917388006
0.00498917349992
0.0049891731039
0.00498917268999
0.00498917225531
0.00498917179725
0.0049891713134
0.00498917080328
0.00498917026841
0.00498916971274
0.00498916914055
0.00498916855512
0.00498916795717
0.0049891673457
0.00498916671831
0.00498916607224
0.00498916540415
0.00498916471093
0.00498916398952
0.00498916323754
0.00498916245292
0.00498916163438
0.00498916078105
0.00498915989286
0.0049891589701
0.00498915801381
0.00498915702695
0.00498915601248
0.00498915497196
0.0049891539082
0.00498915282407
0.0049891517228
0.00498915060768
0.00498914948229
0.00498914835027
0.0049891472155
0.00498914608186
0.00498914495338
0.00498914383407
0.00498914272799
0.00498914163908
0.00498914057129
0.00498913952837
0.00498913851399
0.00498913753156
0.00498913658433
0.00498913567525
0.00498913480702
0.00498913398204
0.00498913320238
0.00498913246979
0.00498913178569
0.00498913115114
0.00498913056687
0.00498913003326
0.00498912955038
0.00498912911797
0.00498912873547
0.00498912840204
0.00498912811656
0.00498912787771
0.00498912768393
0.00498912753348
0.00498912742445
0.00498912735485
0.00498912732256
0.00498912732544
0.00498912736138
0.00498912742838
0.00498912752466
0.00498912764873
0.00498912779947
0.00498912797652
0.00498912818057
0.00498912841317
0.00498912867536
0.00498912896664
0.0049891292852
0.00498912962811
0.00498912999024
0.00498913036406
0.00498913074128
0.00498913111478
0.00498913147955
0.00498913183249
0.00498913217215
0.00498913249776
0.00498913280886
0.00498913310517
0.00498913338645
0.00498913365262
0.00498913390365
0.00498913413953
0.0049891343603
0.00498913456602
0.00498913475678
0.00498913493268
0.00498913509383
0.00498913524037
0.00498913537245
0.00498913549023
0.00498913559389
0.00498913568362
0.00498913575958
0.00498913582229
0.00498913587227
0.00498913590969
0.0049891359335
0.00498913594311
0.00498913594389
0.00498931430262
0.00498931429508
0.00498931429652
0.00498931428452
0.00498931425882
0.0049893142197
0.00498931416691
0.00498931410081
0.00498931402112
0.00498931392815
0.00498931382162
0.00498931370176
0.00498931356824
0.00498931342125
0.00498931326043
0.00498931308595
0.00498931289749
0.00498931269528
0.00498931247911
0.00498931224932
0.00498931200584
0.00498931174917
0.00498931147938
0.00498931119707
0.00498931090236
0.0049893105958
0.00498931027735
0.00498930994723
0.00498930960488
0.00498930924978
0.00498930888044
0.00498930849524
0.00498930809173
0.00498930766786
0.00498930722209
0.00498930675529
0.00498930627048
0.00498930577272
0.00498930526625
0.00498930475341
0.00498930423366
0.00498930370504
0.00498930316423
0.00498930260757
0.00498930203075
0.00498930142978
0.0049893008007
0.00498930014043
0.00498929944621
0.00498929871623
0.00498929794901
0.00498929714393
0.00498929630064
0.00498929541952
0.00498929450124
0.00498929354712
0.00498929256008
0.00498929154317
0.00498929049825
0.00498928942811
0.00498928833566
0.00498928722416
0.00498928609696
0.00498928495771
0.00498928381011
0.00498928265811
0.00498928150566
0.00498928035688
0.00498927921586
0.00498927808675
0.00498927697361
0.00498927588047
0.0049892748112
0.00498927376957
0.00498927275912
0.0049892717832
0.00498927084489
0.004989269947
0.00498926909203
0.00498926828219
0.00498926751931
0.00498926680492
0.00498926614017
0.00498926552589
0.00498926496253
0.00498926445025
0.00498926398883
0.00498926357778
0.00498926321632
0.00498926290335
0.00498926263759
0.00498926241746
0.00498926224125
0.00498926210703
0.00498926201274
0.00498926195619
0.00498926193512
0.0049892619472
0.00498926199006
0.00498926206137
0.00498926215881
0.00498926228023
0.00498926242377
0.00498926258794
0.00498926277169
0.00498926297489
0.00498926319901
0.00498926344673
0.00498926371951
0.00498926401625
0.00498926433495
0.00498926467275
0.00498926502354
0.00498926537816
0.00498926572794
0.00498926606793
0.00498926639525
0.00498926670836
0.00498926700648
0.00498926728924
0.00498926755651
0.00498926780825
0.00498926804449
0.0049892682653
0.00498926847081
0.00498926866113
0.00498926883641
0.0049892689968
0.00498926914248
0.00498926927364
0.00498926939049
0.00498926949323
0.0049892695821
0.0049892696573
0.00498926971943
0.00498926976894
0.00498926980587
0.00498926982905
0.00498926983809
0.00498926983855
0.00498944950986
0.00498944950274
0.00498944950506
0.00498944949465
0.00498944947115
0.00498944943481
0.00498944938524
0.00498944932269
0.00498944924674
0.00498944915758
0.00498944905476
0.00498944893836
0.0049894488079
0.00498944866339
0.00498944850435
0.00498944833082
0.00498944814238
0.0049894479392
0.004989447721
0.00498944748817
0.00498944724068
0.00498944697911
0.00498944670368
0.00498944641511
0.00498944611368
0.0049894458
0.00498944547405
0.00498944513593
0.00498944478482
0.00498944441986
0.00498944403934
0.00498944364208
0.00498944322742
0.00498944279727
0.00498944235567
0.00498944190836
0.0049894414597
0.00498944101165
0.00498944056315
0.00498944011163
0.00498943965293
0.00498943918242
0.00498943869474