/*--------------------------------*- C++ -*----------------------------------*\
| =========                 |                                                 |
| \\      /  F ield         | OpenFOAM: The Open Source CFD Toolbox           |
|  \\    /   O peration     | Version:  2206                                  |
|   \\  /    A nd           | Website:  www.openfoam.com                      |
|    \\/     M anipulation  |                                                 |
\*---------------------------------------------------------------------------*/
FoamFile
{
    version     2.0;
    format      ascii;
    arch        "LSB;label=64;scalar=64";
    class       volScalarField;
    location    "1.2/water";
    object      epsilonm;
}
// * * * * * * * * * * * * * * * * * * * * * * * * * * * * * * * * * * * * * //

dimensions      [0 2 -3 0 0 0 0];

internalField   nonuniform List<scalar> 
23300
(
2.96287844341e-06
4.24267670039e-06
6.30278767973e-06
8.78080228279e-06
1.14898838788e-05
1.43756263136e-05
1.7461929097e-05
2.08621893178e-05
2.47828346628e-05
2.96502298909e-05
3.60669758029e-05
4.47595665376e-05
5.61728228155e-05
7.03579264537e-05
8.75125012548e-05
0.000107965453955
0.000132087898271
0.000160254383921
0.000192832786003
0.000230165310572
0.000272563817439
0.000320291017214
0.000373558978879
0.000432511310751
0.000497226470577
0.000567702122407
0.000643864085377
0.000725553135786
0.000812539294253
0.000904510513415
0.00100109124938
0.00110183216436
0.00120623172269
0.00131372618196
0.00142371312953
0.00153554136179
0.00164853557667
0.00176198603552
0.00187517385194
0.00198736050462
0.00209781325106
0.00220579459802
0.00231058737023
0.00241148417074
0.00250781157008
0.00259891945732
0.00268420373483
0.00276309526569
0.00283508039223
0.00289968890777
0.00295651150415
0.00300518572611
0.00304540886163
0.00307691975285
0.0030995038404
0.00311296524738
0.00311711456335
0.00311171742839
0.00309645428772
0.00307084751398
0.00303413489808
0.00298778826577
0.00293385965305
0.00287317420332
0.0028063833626
0.00273411732498
0.00265701822206
0.00257572925049
0.00249089659569
0.00240315275478
0.00231311804369
0.00222138596951
0.00212852649217
0.00203507389441
0.0019415316892
0.00184836269746
0.00175599522
0.0016648149559
0.00157517203848
0.00148737445543
0.00140169558123
0.00131836881026
0.00123759527168
0.00115953944167
0.00108433678218
0.00101209014591
0.000942877135144
0.000876747152505
0.000813728326633
0.000753825089696
0.000697024563654
0.000643294566771
0.000592589393458
0.000544848169871
0.000499999992723
0.000457962568849
0.000418646705533
0.000381955181874
0.000347786605663
0.000316034474847
0.000286590438167
0.000259343518303
0.000234182838329
0.000210997008275
0.000189676438828
0.000170113020581
0.000152202467125
0.000135845402595
0.000120953974307
0.000107475416154
9.55133881265e-05
8.54173031824e-05
7.70734448403e-05
7.04408674718e-05
6.52755425244e-05
6.08518879622e-05
5.68779802743e-05
5.33170219849e-05
5.01516826074e-05
4.71982668825e-05
4.43376250891e-05
4.15852488201e-05
3.90265329417e-05
3.66399173802e-05
3.43554451468e-05
3.2180688939e-05
3.00912337779e-05
2.80466834507e-05
2.59851017053e-05
2.38782368686e-05
2.1740608523e-05
1.95912170715e-05
1.74078762424e-05
1.51746289512e-05
1.28809817819e-05
1.05049966564e-05
8.06839971381e-06
5.77248269445e-06
4.12191089073e-06
4.28406780953e-06
2.60825153824e-06
3.60767931828e-06
5.32491100852e-06
7.62749582582e-06
1.0489222953e-05
1.39357023273e-05
1.80141939624e-05
2.27940461608e-05
2.83689766661e-05
3.48618698345e-05
4.24167271431e-05
5.11824295336e-05
6.13020289345e-05
7.29140618923e-05
8.61660588735e-05
0.00010120650832
0.000118177523373
0.000137205635989
0.000158396320932
0.000181825049924
0.000207532712586
0.000235517880791
0.000265734613155
0.000298087317815
0.000332432045018
0.000368574634233
0.000406275709021
0.000445251899935
0.00048518390514
0.000525719909978
0.000566485579041
0.000607088530302
0.000647129025329
0.000686204426134
0.000723919515384
0.000759890113505
0.000793752240367
0.000825164371101
0.000853814961776
0.000879423135052
0.000901744410471
0.000920569913672
0.000935730462436
0.000947094670836
0.00095457180466
0.000958109346519
0.000957695186995
0.000953355272526
0.000945155696814
0.000933200963302
0.000917636437753
0.000898647638501
0.000876463464152
0.000851357039638
0.000823650725947
0.000793720552545
0.000762006471438
0.000729023629319
0.000695376478643
0.000661771067731
0.000629078152617
0.00059769280626
0.000567158703881
0.000537643387121
0.000509278088795
0.000482137916594
0.000456258439893
0.000431646765718
0.000408290156227
0.000386161069715
0.000365221969809
0.000345427966848
0.000326729824791
0.000309075340691
0.000292411291146
0.000276684060339
0.00026184091637
0.000247830180687
0.00023460207302
0.000222108607245
0.000210304159914
0.00019914521403
0.000188590753777
0.000178601936047
0.000169142377768
0.000160177805012
0.000151676273001
0.000143607821034
0.000135944646959
0.000128660781668
0.000121732228641
0.000115136663674
0.000108853544657
0.000102863838467
9.71501041916e-05
9.16962478888e-05
8.64875821006e-05
8.15106085908e-05
7.67530568543e-05
7.22036944106e-05
6.78523469926e-05
6.36897355607e-05
5.97074809724e-05
5.58979667414e-05
5.22543315124e-05
4.87703572461e-05
4.54404551552e-05
4.22595850143e-05
3.92232611864e-05
3.63275985948e-05
3.35698175324e-05
3.09495199249e-05
2.84678155459e-05
2.61296414568e-05
2.3933224899e-05
2.18614188664e-05
1.99069501156e-05
1.80692890305e-05
1.63467481224e-05
1.47286596556e-05
1.32128710785e-05
1.17974366331e-05
1.04877442683e-05
9.28339149216e-06
8.1765701815e-06
7.16661358066e-06
6.25135359077e-06
5.42761912133e-06
4.68923710001e-06
4.03589353566e-06
3.47004571228e-06
2.98634226847e-06
2.5816149224e-06
2.2520880412e-06
2.00112044064e-06
1.82697438679e-06
1.76252994485e-06
1.99845158853e-06
3.5354644882e-06
1.57952193316e-05
2.02687058237e-06
2.75873515634e-06
3.94181455256e-06
5.54095132807e-06
7.58908667495e-06
1.01380219173e-05
1.32511462309e-05
1.69978334654e-05
2.14516574881e-05
2.66887646849e-05
3.2786662473e-05
3.98215982667e-05
4.78663460863e-05
5.69868698434e-05
6.72396875704e-05
7.86670838135e-05
9.12934272303e-05
0.000105120042877
0.000120121941998
0.000136243521804
0.000153396871205
0.000171459446582
0.000190274922099
0.000209653543828
0.000229375866702
0.00024919577719
0.000268846729552
0.000288046772569
0.000306506360296
0.000323934353175
0.0003400462829
0.000354570272832
0.000367254744756
0.000377873420146
0.000386231740446
0.000392170424448
0.000395570187275
0.000396353612867
0.000394488000397
0.000389985491338
0.000382904002719
0.000373345625446
0.000361455661941
0.000347419353956
0.000331459107626
0.000313829697136
0.00029481389387
0.000274716445767
0.000253858504992
0.000232570859767
0.00021118774615
0.000190040022085
0.000169449233406
0.00014972178277
0.000131144502094
0.000113981105011
9.84702305163e-05
8.48232160725e-05
7.32171664661e-05
6.3780406489e-05
5.68441896187e-05
5.11878229927e-05
4.62114931485e-05
4.18284271977e-05
3.79696637581e-05
3.45720610512e-05
3.15784521861e-05
2.89375712864e-05
2.66037766835e-05
2.45365984438e-05
2.27003351976e-05
2.10636212058e-05
1.9599085438e-05
1.82829938064e-05
1.70949586939e-05
1.60176121245e-05
1.50363174983e-05
1.41388344235e-05
1.3315013025e-05
1.25564512697e-05
1.18561929652e-05
1.12084128472e-05
1.06081619101e-05
1.00511238999e-05
9.53344525184e-06
9.05158769337e-06
8.60225198319e-06
8.18231907767e-06
7.78884547405e-06
7.41905968004e-06
7.07039028223e-06
6.74047852533e-06
6.4272046438e-06
6.12869014214e-06
5.84330585644e-06
5.56965705386e-06
5.30657448987e-06
5.05308907568e-06
4.80841540524e-06
4.57192554036e-06
4.34313296891e-06
4.12167084249e-06
3.90727915328e-06
3.69978792796e-06
3.49910680162e-06
3.3052114911e-06
3.11813412344e-06
2.93795141185e-06
2.76477477068e-06
2.59873945006e-06
2.43999429578e-06
2.28869116982e-06
2.14497198217e-06
2.00895173455e-06
1.88073975018e-06
1.76042513201e-06
1.64805242495e-06
1.5436143715e-06
1.44706643209e-06
1.35832433688e-06
1.27723884335e-06
1.20357831553e-06
1.13707505972e-06
1.07742680969e-06
1.02421191841e-06
9.77063613935e-07
9.35523743678e-07
8.99266731344e-07
8.67599762022e-07
8.40232984843e-07
8.16906355319e-07
7.98614012029e-07
7.88801575247e-07
7.91209037376e-07
8.1560073575e-07
8.90373392323e-07
1.11673245736e-06
1.92552477423e-06
5.48394999488e-06
3.35755846267e-05
1.89550003626e-06
2.48506228219e-06
3.37949864143e-06
4.56089144317e-06
6.06162963459e-06
7.92811158059e-06
1.02141121975e-05
1.2977422786e-05
1.62772699419e-05
2.0171267298e-05
2.47126481719e-05
2.99468120979e-05
3.59082974e-05
4.26171492169e-05
5.00760785012e-05
5.82671735169e-05
6.71498029856e-05
7.66583479305e-05
8.67015908055e-05
9.71622020684e-05
0.000107898252516
0.000118744945049
0.000129518508316
0.000140020178182
0.000150042176131
0.00015937338638
0.000167806604448
0.000175144930211
0.000181209158275
0.000185843723771
0.000188923045847
0.000190355917922
0.000190089769723
0.000188112631949
0.000184454596768
0.000179186864074
0.000172420120636
0.000164300661544
0.00015500593834
0.000144738291269
0.000133718454755
0.000122177922029
0.000110351604082
9.84701267308e-05
8.67529711294e-05
7.54019621526e-05
6.45960177975e-05
5.44867417346e-05
4.51954717062e-05
3.68114172036e-05
2.93912592066e-05
2.29599166843e-05
1.75126916434e-05
1.30185503472e-05
9.42456423573e-06
6.66111799485e-06
4.6472847124e-06
3.29517929714e-06
2.51419126604e-06
2.22570053323e-06
2.14472298676e-06
2.13064553265e-06
2.17751086197e-06
2.28258611949e-06
2.44159573468e-06
2.64783078967e-06
2.89180422691e-06
3.16135906847e-06
3.44219521501e-06
3.7187173049e-06
3.97509298445e-06
4.19637820336e-06
4.36959394792e-06
4.48463231255e-06
4.53492340066e-06
4.51779622856e-06
4.43452940647e-06
4.29008481435e-06
4.09257793302e-06
3.85252594855e-06
3.58196549621e-06
3.2935066544e-06
2.99942477097e-06
2.71085274309e-06
2.43715261932e-06
2.18549585129e-06
1.96068301111e-06
1.76518326068e-06
1.59937203622e-06
1.46190711038e-06
1.35019072961e-06
1.26084802983e-06
1.19017370467e-06
1.13449970254e-06
1.09046633623e-06
1.05518615215e-06
1.02631501374e-06
1.00204568197e-06
9.8105235662e-07
9.62406168021e-07
9.45484930462e-07
9.29887687136e-07
9.15364733633e-07
9.01763004311e-07
8.88988348218e-07
8.76979807999e-07
8.65694413473e-07
8.55097883417e-07
8.45160041947e-07
8.35852291031e-07
8.27146663931e-07
8.19015430322e-07
8.11430907621e-07
8.04365456703e-07
7.97791258376e-07
7.9168087207e-07
7.86006801543e-07
7.80741445031e-07
7.75856339588e-07
7.71322575855e-07
7.67109570791e-07
7.63185182041e-07
7.59514514165e-07
7.56060467399e-07
7.52781689639e-07
7.49642916529e-07
7.46617872214e-07
7.4372297546e-07
7.41046684811e-07
7.38837888162e-07
7.37721967447e-07
7.3910000659e-07
7.4611736969e-07
7.65853124022e-07
8.15215760616e-07
9.42141243419e-07
1.33222817432e-06
2.7229153243e-06
8.78415733224e-06
5.6827412985e-05
1.89696677025e-06
2.38843949131e-06
3.10137660211e-06
4.02251116128e-06
5.17536956359e-06
6.5913153156e-06
8.30555033133e-06
1.03548891091e-05
1.27756079607e-05
1.56006790521e-05
1.8856988282e-05
2.25620643326e-05
2.67211841628e-05
3.13243633219e-05
3.63442260279e-05
4.17341507001e-05
4.74277226475e-05
5.33387249268e-05
5.93626923076e-05
6.53790619936e-05
7.12548966138e-05
7.68490100245e-05
8.20173999444e-05
8.66186452854e-05
9.05201065005e-05
9.36034857164e-05
9.57705522314e-05
9.69475920374e-05
9.70894028098e-05
9.61815099434e-05
9.42414885922e-05
9.13182866371e-05
8.74905241783e-05
8.28629468677e-05
7.75620853753e-05
7.17305812923e-05
6.55212429613e-05
5.90905098355e-05
5.25922970652e-05
4.61720136454e-05
3.99615320765e-05
3.40749201059e-05
2.8605458582e-05
2.36237164663e-05
1.91769539387e-05
1.52895787257e-05
1.19647232716e-05
9.18664570496e-06
6.923885934e-06
5.13287744901e-06
3.76184880357e-06
2.75471596003e-06
2.05481881175e-06
1.60851765901e-06
1.36908883132e-06
1.3015629492e-06
1.38921015584e-06
1.64293741687e-06
2.0820348241e-06
2.71796103487e-06
3.5820412217e-06
4.69838790974e-06
6.07424369258e-06
7.69659527424e-06
9.53150065015e-06
1.15258309997e-05
1.36109787749e-05
1.57078508992e-05
1.77324866087e-05
1.96016694601e-05
2.12381149905e-05
2.25748815172e-05
2.35588754705e-05
2.41533102007e-05
2.43391639846e-05
2.4115592221e-05
2.34994173486e-05
2.25236900831e-05
2.12354909041e-05
1.9693006933e-05
1.79621093406e-05
1.61125360279e-05
1.42139741245e-05
1.23322235439e-05
1.05257760409e-05
8.84301165006e-06
7.32028893256e-06
5.98103153561e-06
4.83589877575e-06
3.8839336412e-06
3.1145290047e-06
2.50990997833e-06
2.04782661076e-06
1.70412408071e-06
1.45494294541e-06
1.27837249337e-06
1.1555019419e-06
1.07089408041e-06
1.01258777071e-06
9.71764490186e-07
9.42229197637e-07
9.19828802645e-07
9.01903354354e-07
8.86820990711e-07
8.73619467116e-07
8.61748840824e-07
8.50900429241e-07
8.40899338517e-07
8.31641658389e-07
8.2305939125e-07
8.15102224395e-07
8.07728474761e-07
8.00900742928e-07
7.9458415654e-07
7.88745346758e-07
7.83352426848e-07
7.78374436857e-07
7.73781525107e-07
7.69544272145e-07
7.65634017262e-07
7.62022087863e-07
7.58680346433e-07
7.55580904405e-07
7.52698255715e-07
7.50008985326e-07
7.47509887002e-07
7.45221162231e-07
7.4324378063e-07
7.41803336577e-07
7.41410801872e-07
7.43162378149e-07
7.4940884199e-07
7.6519333219e-07
8.01459075395e-07
8.84946791187e-07
1.09525342802e-06
1.74717832609e-06
3.94344392589e-06
1.31546367453e-05
8.50370935267e-05
1.93096598151e-06
2.34265297253e-06
2.92077033253e-06
3.65319402162e-06
4.55459571522e-06
5.64308711541e-06
6.93763967821e-06
8.45657036588e-06
1.02159669129e-05
1.22276253714e-05
1.44970130054e-05
1.70209879692e-05
1.9785922524e-05
2.27659790379e-05
2.59222382181e-05
2.92023355801e-05
3.25412607374e-05
3.58628124099e-05
3.90822562503e-05
4.21094926095e-05
4.48531634214e-05
4.72248524735e-05
4.91437248237e-05
5.05406845982e-05
5.13623765293e-05
5.15741398069e-05
5.11622922013e-05
5.01349888489e-05
4.85221446369e-05
4.63738772489e-05
4.37580866843e-05
4.07568590831e-05
3.74623942546e-05
3.39723264179e-05
3.038512875e-05
2.67955593419e-05
2.32907260706e-05
1.9946721613e-05
1.6826220624e-05
1.39769262848e-05
1.14310557838e-05
9.20567833286e-06
7.30392381315e-06
5.71682320254e-06
4.42567957557e-06
3.40471262177e-06
2.62383330743e-06
2.05138687786e-06
1.65691919748e-06
1.41421318365e-06
1.3051350675e-06
1.325034436e-06
1.49069027055e-06
1.85188412409e-06
2.5072081517e-06
3.62365666306e-06
5.46032355681e-06
8.33334155568e-06
1.2280691718e-05
1.73835834653e-05
2.36282794073e-05
3.09122578716e-05
3.90565904223e-05
4.78250027596e-05
5.69451086549e-05
6.6128453075e-05
7.50876113076e-05
8.35496003978e-05
9.12658504606e-05
9.80191103703e-05
0.000103628083588
0.000107950209878
0.000110883275116
0.000112365982778
0.000112377939252
0.000110938918699
0.000108107682516
0.000103980036918
9.86862934304e-05
9.23877183487e-05
8.52720915315e-05
7.75479661587e-05
6.94378087931e-05
6.11697795376e-05
5.29685622914e-05
4.50453896032e-05
3.758807971e-05
3.07517342773e-05
2.46512632e-05
1.93566027641e-05
1.48915688007e-05
1.12366303158e-05
8.33547090187e-06
6.10440540537e-06
4.44332749553e-06
3.24656236854e-06
2.41221779684e-06
1.84903354486e-06
1.48037164563e-06
1.24553935953e-06
1.0990488191e-06
1.00856162911e-06
9.52237985819e-07
9.16048145945e-07
8.91408932184e-07
8.7331041035e-07
8.5895499279e-07
8.4684022498e-07
8.36182729192e-07
8.26578677883e-07
8.17815626659e-07
8.09773995482e-07
8.02377937629e-07
7.95572328343e-07
7.89311934674e-07
7.83557108169e-07
7.78271339706e-07
7.73420799278e-07
7.68973371383e-07
7.64899040276e-07
7.61169305965e-07
7.57758301547e-07
7.54643376624e-07
7.51807979217e-07
7.49246023647e-07
7.46985617057e-07
7.45097451235e-07
7.4377240216e-07
7.43391996196e-07
7.4476680059e-07
7.49565631559e-07
7.61284802438e-07
7.87380810678e-07
8.44097286434e-07
9.72274240599e-07
1.30034992478e-06
2.32834355861e-06
5.53805827098e-06
1.8524346293e-05
0.000117974441807
1.96539964032e-06
2.30842183379e-06
2.77793517216e-06
3.36189621246e-06
4.06778134463e-06
4.90381982837e-06
5.87733332196e-06
6.99375431729e-06
8.25560282044e-06
9.66116199774e-06
1.12032770177e-05
1.28681053268e-05
1.46343073988e-05
1.64724937074e-05
1.83454009152e-05
2.02085332322e-05
2.20116499016e-05
2.37006978408e-05
2.52204468204e-05
2.65172927405e-05
2.75423886975e-05
2.825449963e-05
2.86227106987e-05
2.86284102203e-05
2.82667256764e-05
2.75469497229e-05
2.64922391004e-05
2.51382949725e-05
2.35314211503e-05
2.17258392193e-05
1.97807249807e-05
1.77569600023e-05
1.5714048211e-05
1.37072236541e-05
1.17851024371e-05
9.98786627569e-06
8.34618518849e-06
6.88079397769e-06
5.60278205569e-06
4.51444321953e-06
3.61063270611e-06
2.88045181073e-06
2.30918540156e-06
1.88042126527e-06
1.57849184694e-06
1.39159922124e-06
1.31641209464e-06
1.36547881668e-06
1.57955129518e-06
2.04730726865e-06
2.93378850467e-06
4.51450443658e-06
7.20449785117e-06
1.15639703275e-05
1.82615820961e-05
2.79934682992e-05
4.13935087997e-05
5.83938538163e-05
7.81759973923e-05
0.000100161724213
0.000123701578965
0.000148132433367
0.000172819490856
0.000197179883239
0.000220693218857
0.000242903882233
0.000263419111204
0.000281905070473
0.000298082683133
0.000311723657986
0.000322647392247
0.000330718460059
0.000335845043277
0.000337977790258
0.00033710942627
0.000333274543916
0.000326549932826
0.000317054850267
0.000304951607942
0.000290445824362
0.000273786668707
0.000255266332029
0.000235218902523
0.00021401768811
0.000192070920093
0.000169814676523
0.000147702781156
0.000126192605978
0.00010572690059
8.67116039688e-05
6.94913503378e-05
5.43249806509e-05
4.13651869364e-05
3.06465348701e-05
2.20859613028e-05
1.54973771964e-05
1.06189472363e-05
7.14797818628e-06
4.77645556201e-06
3.22048403799e-06
2.23944127884e-06
1.64397175358e-06
1.2947855194e-06
1.0956251214e-06
9.83775859616e-07
9.20612181964e-07
8.83595128446e-07
8.60233539477e-07
8.43932283522e-07
8.31358181448e-07
8.20885629886e-07
8.11738513325e-07
8.03544266259e-07
7.96115247235e-07
7.89346138446e-07
7.83168636076e-07
7.77531229775e-07
7.72391451321e-07
7.67711897317e-07
7.63459636229e-07
7.59605370747e-07
7.56124992251e-07
7.53000643593e-07
7.502237906e-07
7.47814235652e-07
7.45823198552e-07
7.44390065788e-07
7.43793734487e-07
7.44606095204e-07
7.47974443917e-07
7.56270509522e-07
7.74360936902e-07
8.12712391956e-07
8.94465445729e-07
1.0804287026e-06
1.57238303432e-06
3.10878376222e-06
7.50828443754e-06
2.48565662102e-05
0.000155368451685
1.989169266e-06
2.27256531466e-06
2.6522532921e-06
3.11612147453e-06
3.66632645514e-06
4.30437585128e-06
5.03013528922e-06
5.84128867461e-06
6.73280631831e-06
7.69623519858e-06
8.71917623804e-06
9.78480962698e-06
1.08718213924e-05
1.19545709856e-05
1.30038000428e-05
1.3987643046e-05
1.48731456363e-05
1.56279537886e-05
1.62222851571e-05
1.66307817304e-05
1.68343106094e-05
1.68213196217e-05
1.65888383876e-05
1.61428127721e-05
1.54979385504e-05
1.46768078706e-05
1.37086215877e-05
1.26274055733e-05
1.14700388537e-05
1.02741125745e-05
9.07592043504e-06
7.90861668644e-06
6.80077257577e-06
5.77533022509e-06
4.84907876726e-06
4.03259145372e-06
3.33064733507e-06
2.74303936402e-06
2.26576290894e-06
1.8925762201e-06
1.61714139211e-06
1.43624371934e-06
1.35524418033e-06
1.39796348879e-06
1.62472283624e-06
2.16334920917e-06
3.25613977657e-06
5.31750900653e-06
8.98217931947e-06
1.5110415899e-05
2.47188162798e-05
3.88302245038e-05
5.8276002204e-05
8.35152792913e-05
0.000114538150239
0.000150894855463
0.00019185593628
0.000235631614844
0.000280502061295
0.000325498934326
0.000369865386062
0.000412974272975
0.000454297324268
0.000493384234749
0.000529847745255
0.000563352986762
0.00059361029037
0.00062037018166
0.000643420264044
0.000662583096387
0.000677715161185
0.000688706229674
0.000695479435041
0.000697991428975
0.000696233054325
0.000690229923459
0.0006800434184
0.000665771502162
0.000647549925018
0.0006255532166
0.000599996104707
0.000571134755788
0.000539268512387
0.000504741505323
0.000467944776436
0.000429318168072
0.000389352365853
0.000348589935261
0.000307625035566
0.000267099701483
0.000227695094482
0.000190114376861
0.00015505475512
0.000123166107592
9.49972136825e-05
7.09347389808e-05
5.11472881794e-05
3.55512909015e-05
2.38152145859e-05
1.54086622372e-05
9.6871847043e-06
5.98914506734e-06
3.71751307626e-06
2.38870573109e-06
1.64605631139e-06
1.24735715003e-06
1.03982283419e-06
9.33319093974e-07
8.77857668882e-07
8.47257639227e-07
8.2850886165e-07
8.15441664463e-07
8.05240197415e-07
7.96650851768e-07
7.8911578959e-07
7.8237706775e-07
7.76302908875e-07
7.70815575243e-07
7.65861153314e-07
7.61398788967e-07
7.57395998216e-07
7.53828890601e-07
7.5068192782e-07
7.47964771477e-07
7.45709690811e-07
7.44009747341e-07
7.43063191401e-07
7.43258144538e-07
7.45378233054e-07
7.50962008077e-07
7.63206707927e-07
7.8864017171e-07
8.41428320754e-07
9.53780015641e-07
1.21475657063e-06
1.93357028179e-06
4.12171608866e-06
9.85184966798e-06
3.21143083195e-05
0.000196927523294
1.99932424236e-06
2.23146255072e-06
2.53681027535e-06
2.90340944143e-06
3.32977991189e-06
3.81321638614e-06
4.34931014366e-06
4.9317562118e-06
5.55219691827e-06
6.19996194617e-06
6.8619954517e-06
7.52284277193e-06
8.16495654437e-06
8.76915976034e-06
9.31545783539e-06
9.78398103813e-06
1.01561678962e-05
1.04159183821e-05
1.05507734186e-05
1.05528418739e-05
1.04195309769e-05
1.01538518071e-05
9.76440175072e-06
9.26488407748e-06
8.67332845043e-06
8.01096392201e-06
7.30095132601e-06
6.56698846462e-06
5.83199537216e-06
5.11690858374e-06
4.43974629763e-06
3.8149488173e-06
3.25308664509e-06
2.76090997519e-06
2.34179681082e-06
1.99663444115e-06
1.72537095937e-06
1.52976408412e-06
1.41860453953e-06
1.41802361925e-06
1.59175759751e-06
2.07877440449e-06
3.15561442772e-06
5.32176253856e-06
9.38328193549e-06
1.64809410964e-05
2.80013549508e-05
4.53501460461e-05
6.9647396478e-05
0.00010147212527
0.000140768619456
0.000186932762636
0.000239002827235
0.000295856800578
0.000356359130045
0.000419454377961
0.000484234250584
0.000548985576299
0.000612567744109
0.000674308395459
0.000733697484191
0.000790301530967
0.000843738571749
0.000893667998513
0.000939785053108
0.000981817142136
0.00101952152642
0.00105268372047
0.00108111676405
0.00110466083478
0.00112318349151
0.00113658001554
0.00114477422387
0.00114771919987
0.00114539838851
0.00113782647511
0.0011250505606
0.00110715102689
0.00108424266613
0.00105647544694
0.00102403554734
0.00098714601613
0.000946067744593
0.000901100113516
0.000852582051885
0.000800892902305
0.000746453900239
0.000689729736135
0.000631231097203
0.000571517737919
0.000511202939842
0.000450958651184
0.000391521324639
0.000333696030024
0.000278355678961
0.000226428244726
0.000178862980264
0.000136564384271
0.000100288047217
7.0506746594e-05
4.72816608014e-05
3.01958477753e-05
1.84013020747e-05
1.07825273136e-05
6.17696063032e-06
3.56444290829e-06
2.16706560334e-06
1.45753646361e-06
1.11225972978e-06
9.48756378936e-07
8.71391472713e-07
8.33168918385e-07
8.1226200602e-07
7.99011015168e-07
7.8929997809e-07
7.81415987352e-07
7.746459684e-07
7.68681996414e-07
7.63378289318e-07
7.58656628751e-07
7.54468425148e-07
7.50784318617e-07
7.47599678187e-07
7.44925918292e-07
7.42819588363e-07
7.41415364434e-07
7.40969060186e-07
7.41999819404e-07
7.45514708258e-07
7.53528937838e-07
7.70137928411e-07
8.03942799369e-07
8.73578142584e-07
1.02333437494e-06
1.38236234444e-06
2.41083858068e-06
5.39166198623e-06
1.25601973429e-05
4.02626237392e-05
0.000242383986327
1.99628780414e-06
2.18507455586e-06
2.42950256484e-06
2.71808240287e-06
3.04704080448e-06
3.41127752877e-06
3.80427066277e-06
4.21813766516e-06
4.6437384218e-06
5.07069109906e-06
5.48754572628e-06
5.8819859375e-06
6.24124807068e-06
6.55260583735e-06
6.8040470766e-06
6.98495330136e-06
7.08685248108e-06
7.1040390431e-06
7.03410921809e-06
6.8782317454e-06
6.6412224489e-06
6.33130435612e-06
5.9596637706e-06
5.53975324489e-06
5.08648538055e-06
4.61531838957e-06
4.14138226639e-06
3.67866398077e-06
3.23937481833e-06
2.83351244781e-06
2.46871455793e-06
2.15045004037e-06
1.88274862749e-06
1.66985420658e-06
1.51977919136e-06
1.45184351655e-06
1.51246827563e-06
1.80684395245e-06
2.5574693796e-06
4.19853934034e-06
7.49707778738e-06
1.36506834979e-05
2.42685300293e-05
4.1153399849e-05
6.59099451939e-05
9.95503480449e-05
0.0001423039541
0.000193696718303
0.000252790929233
0.000318431705353
0.000389418273111
0.000464594491415
0.000542885553036
0.000623307950959
0.000704971565094
0.000787086912944
0.000868983641207
0.00094920826206
0.0010269396907
0.00110162901592
0.00117285269577
0.00124024982079
0.00130349881137
0.00136230793504
0.00141641095958
0.00146556486455
0.00150954881293
0.00154816372348
0.00158123249686
0.00160860046856
0.00163013631371
0.00164573297679
0.00165530893978
0.00165880936578
0.0016562075038
0.00164750584967
0.00163273751495
0.00161196725907
0.00158529269917
0.0015528451186
0.00151479044779
0.00147132981239
0.00142270027693
0.00136917516253
0.0013110646168
0.00124871580861
0.00118251346984
0.00111288016329
0.00104027703564
0.00096520445716
0.000888203350083
0.00080985668707
0.000730792101838
0.000651685382232
0.00057326616955
0.000496326037287
0.00042173004897
0.000350430123647
0.00028347579816
0.00022200943906
0.000167223006883
0.000120243040235
8.19197018122e-05
5.25475521694e-05
3.16413895594e-05
1.79396090056e-05
9.69964053468e-06
5.14246829608e-06
2.8080107162e-06
1.68882602246e-06
1.1801516512e-06
9.5716057294e-07
8.60283486563e-07
8.16637844641e-07
7.94859295275e-07
7.82074527329e-07
7.73176285275e-07
7.66172330991e-07
7.6028087661e-07
7.55183311416e-07
7.50747039024e-07
7.46910703139e-07
7.43652469599e-07
7.40998495926e-07
7.39026607859e-07
7.3789904153e-07
7.37948688141e-07
7.39827761492e-07
7.44793914134e-07
7.55406206501e-07
7.76799337607e-07
8.19985146061e-07
9.09161056113e-07
1.10483286353e-06
1.59277946735e-06
3.03405208544e-06
6.9334891314e-06
1.56226961215e-05
4.92709549608e-05
0.000291492117821
1.98175074469e-06
2.13450290859e-06
2.32967706834e-06
2.55652635303e-06
2.80997803705e-06
3.0837518361e-06
3.37055301417e-06
3.66230262978e-06
3.95039347885e-06
4.2258552758e-06
4.47962624154e-06
4.70280499413e-06
4.88703286969e-06
5.02486419057e-06
5.11022183111e-06
5.13878256612e-06
5.10835141234e-06
5.01907695443e-06
4.87356265751e-06
4.67676492902e-06
4.43575648319e-06
4.15929960558e-06
3.85733413169e-06
3.54036838409e-06
3.21888627584e-06
2.90278057304e-06
2.60091787027e-06
2.32086671035e-06
2.06893119362e-06
1.85068045723e-06
1.67249978866e-06
1.54528091035e-06
1.49274568326e-06
1.56938721072e-06
1.89706469287e-06
2.73359627521e-06
4.58546895083e-06
8.35623621573e-06
1.54696234545e-05
2.78440667507e-05
4.76073793579e-05
7.65992030147e-05
0.000115914857285
0.000165749220711
0.000225556980401
0.000294339085043
0.000370885529476
0.000453926390718
0.000542213617137
0.000634564423401
0.000729884902828
0.000827181323692
0.000925561777315
0.00102423100404
0.0011224836135
0.00121970279403
0.0013153675208
0.00140824838576
0.00149768389441
0.00158320054327
0.00166442436679
0.00174103369447
0.00181273874341
0.00187927293928
0.00194038913777
0.00199585801657
0.00204546764841
0.00208902368998
0.00212635009478
0.00215729005301
0.00218170726856
0.00219948727527
0.00221053899915
0.00221479622216
0.00221221923028
0.0022027962471
0.0021865450055
0.00216351400635
0.00213378388381
0.00209746837948
0.00205471540916
0.00200570768571
0.00195066344239
0.00188983669006
0.00182351760868
0.00175203248586
0.00167574385326
0.00159505022402
0.00151038612619
0.00142222183975
0.00133106357394
0.00123745351909
0.00114197055695
0.0010452311149
0.000947890981619
0.000850647610818
0.000754243776841
0.000659472420017
0.000567184325983
0.000478299959047
0.000393828300191
0.000314892380289
0.000242754050146
0.000178809558651
0.00012449311117
8.09966400824e-05
4.87813655334e-05
2.71057360752e-05
1.40093631226e-05
6.91541391034e-06
3.44027565483e-06
1.87578739116e-06
1.21567220046e-06
9.4856749681e-07
8.41614848072e-07
7.97096051673e-07
7.76388368705e-07
7.64852983709e-07
7.5709854557e-07
7.51145488055e-07
7.46259736784e-07
7.42167078728e-07
7.38785135946e-07
7.36112597713e-07
7.34232225645e-07
7.33345750954e-07
7.33860821138e-07
7.36562073079e-07
7.42998545721e-07
7.56290013549e-07
7.82825685456e-07
8.36397199608e-07
9.48181143598e-07
1.20038199677e-06
1.85887990802e-06
3.83430535355e-06
8.75331942202e-06
1.90292667292e-05
5.9111837912e-05
0.000344006609411
1.95767635171e-06
2.08096907075e-06
2.23689346863e-06
2.41562886603e-06
2.61148658176e-06
2.81776638433e-06
3.02715131692e-06
3.23204508771e-06
3.42491108833e-06
3.59849524285e-06
3.74610781487e-06
3.86184007749e-06
3.94084061458e-06
3.97952935146e-06
3.97583406076e-06
3.9293272582e-06
3.84132496878e-06
3.71484411214e-06
3.55448187681e-06
3.36615219381e-06
3.15675939146e-06
2.93378389341e-06
2.70487152625e-06
2.47743013571e-06
2.25833617094e-06
2.05381202804e-06
1.86969622122e-06
1.71250586539e-06
1.59229072556e-06
1.5294078884e-06
1.56968125334e-06
1.81631127599e-06
2.49216368571e-06
4.04875636743e-06
7.32642041209e-06
1.37238014002e-05
2.52542609674e-05
4.43271701381e-05
7.32239734067e-05
0.000113515095617
0.000165770813386
0.000229666051444
0.000304280579011
0.000388379927444
0.000480605129839
0.000579585422402
0.000684001535924
0.000792619408607
0.000904306164228
0.00101803558725
0.00113288736471
0.00124804240027
0.00136277482442
0.00147644220428
0.00158847683826
0.00169838281814
0.00180573971786
0.001909521619
0.00200914134023
0.00210416666948
0.0021942513753
0.00227909532188
0.00235842570961
0.00243198882341
0.00249954643678
0.00256087450102
0.00261576295877
0.00266401625359
0.00270545427453
0.00273991358827
0.00276724892424
0.0027873347639
0.00280006710621
0.00280536520441
0.00280317342752
0.00279346297541
0.00277623367526
0.00275151552358
0.00271937027358
0.00267989267326
0.0026332117248
0.00257949151951
0.00251893208799
0.00245176977774
0.00237827766348
0.00229876546994
0.00221357957247
0.00212310253237
0.00202775278513
0.00192798392531
0.00182428425138
0.00171717601378
0.00160721506789
0.00149499038957
0.00138112418668
0.00126627210214
0.0011511243021