/*--------------------------------*- C++ -*----------------------------------*\
| =========                 |                                                 |
| \\      /  F ield         | OpenFOAM: The Open Source CFD Toolbox           |
|  \\    /   O peration     | Version:  2206                                  |
|   \\  /    A nd           | Website:  www.openfoam.com                      |
|    \\/     M anipulation  |                                                 |
\*---------------------------------------------------------------------------*/
FoamFile
{
    version     2.0;
    format      ascii;
    arch        "LSB;label=64;scalar=64";
    class       surfaceScalarField;
    location    "1.2/water";
    object      phi;
}
// * * * * * * * * * * * * * * * * * * * * * * * * * * * * * * * * * * * * * //

dimensions      [0 3 -1 0 0 0 0];

oriented        oriented;

internalField   nonuniform List<scalar> 
46280
(
1.79590801004e-10
-1.7953797659e-10
3.89970307943e-10
-2.10363862074e-10
5.6089969844e-10
-1.70854551949e-10
6.73655415351e-10
-1.12745659361e-10
7.25492346324e-10
-5.17582285933e-11
7.17074728324e-10
8.42089625861e-12
6.49788511295e-10
6.7376298765e-11
5.24305231086e-10
1.25481340528e-10
3.40684177277e-10
1.83712180785e-10
9.75021485767e-11
2.43172337028e-10
-2.07259418616e-10
3.0484663735e-10
-5.7643626095e-10
3.69159260637e-10
-1.01232717198e-09
4.35967821702e-10
-1.51742030874e-09
5.0506922219e-10
-2.09346697385e-09
5.7611679339e-10
-2.74205120491e-09
6.48556410069e-10
-3.46381269488e-09
7.21827180388e-10
-4.25915465765e-09
7.95312122092e-10
-5.12750007443e-09
8.68408490196e-10
-6.06801757196e-09
9.4048657436e-10
-7.07891915837e-09
1.01096305025e-09
-8.15820724514e-09
1.07925643148e-09
-9.30300223956e-09
1.14485526955e-09
-1.05103007618e-08
1.20726615792e-09
-1.17763165486e-08
1.26607495894e-09
-1.30972374021e-08
1.32088778533e-09
-1.44685662178e-08
1.37138681686e-09
-1.58858670795e-08
1.41726710438e-09
-1.73441002447e-08
1.458289854e-09
-1.88383529566e-08
1.49421839966e-09
-2.03631692389e-08
1.52487149431e-09
-2.19132648499e-08
1.55006092608e-09
-2.34828573647e-08
1.56964607534e-09
-2.50663665342e-08
1.58347439309e-09
-2.66577521093e-08
1.59143731145e-09
-2.82512005354e-08
1.59341385463e-09
-2.98404780156e-08
1.58932722086e-09
-3.14196033566e-08
1.57909132024e-09
-3.2982222851e-08
1.56266707795e-09
-3.45222675479e-08
1.54001155011e-09
-3.60333552016e-08
1.51113293424e-09
-3.75094290994e-08
1.47604195365e-09
-3.89441909555e-08
1.43480470881e-09
-4.03317175533e-08
1.38749613058e-09
-4.16659272168e-08
1.33424999011e-09
-4.29411703734e-08
1.27521440936e-09
-4.41517312736e-08
1.21059863219e-09
-4.52923889115e-08
1.14063077843e-09
-4.63579550499e-08
1.06560124282e-09
-4.73438028288e-08
9.85822924987e-10
-4.82454413178e-08
9.01670966315e-10
-4.90590090556e-08
8.13544926931e-10
-4.9780882733e-08
7.21903563051e-10
-5.04081308121e-08
6.27227295765e-10
-5.0938149968e-08
5.30046514211e-10
-5.13690700868e-08
4.30901279417e-10
-5.16994007478e-08
3.30355583812e-10
-5.19283417385e-08
2.28923973107e-10
-5.20554091789e-08
1.27090039334e-10
-5.20802880554e-08
2.48635149431e-11
-5.20017107341e-08
-7.85569181816e-11
-5.1817243787e-08
-1.84480832031e-10
-5.15246234337e-08
-2.92602010039e-10
-5.11234180858e-08
-4.01217952657e-10
-5.06143675863e-08
-5.09034075155e-10
-4.99993651964e-08
-6.15013903239e-10
-4.92811002258e-08
-7.18250325248e-10
-4.84631717183e-08
-8.17939113779e-10
-4.75498105486e-08
-9.13348166481e-10
-4.65459936798e-08
-1.00382672984e-09
-4.54571917353e-08
-1.08879045239e-09
-4.4289466799e-08
-1.16773419718e-09
-4.30492363695e-08
-1.24022032407e-09
-4.1743354736e-08
-1.3058904105e-09
-4.03788913567e-08
-1.36445454346e-09
-3.89631986078e-08
-1.4157011387e-09
-3.75037043605e-08
-1.45948657153e-09
-3.60079695271e-08
-1.49574290669e-09
-3.44834953933e-08
-1.52446751637e-09
-3.29377745272e-08
-1.54572867742e-09
-3.13781139156e-08
-1.5596549574e-09
-2.98116827975e-08
-1.56643870225e-09
-2.82453529449e-08
-1.56632507348e-09
-2.66857467858e-08
-1.55961354113e-09
-2.51390962032e-08
-1.54664659658e-09
-2.36112939015e-08
-1.52780949477e-09
-2.21077718063e-08
-1.50351882624e-09
-2.0633557921e-08
-1.4742208986e-09
-1.91931747918e-08
-1.44038050635e-09
-1.77907031712e-08
-1.40247845717e-09
-1.64297001547e-08
-1.36100097393e-09
-1.51132698808e-08
-1.31643693656e-09
-1.38439999616e-08
-1.26926839551e-09
-1.26240383502e-08
-1.21996810022e-09
-1.14550457398e-08
-1.16899154824e-09
-1.03382767995e-08
-1.11677525688e-09
-9.27454553538e-09
-1.06373060969e-09
-8.26430853667e-09
-1.01024314246e-09
-7.30763997863e-09
-9.56668260687e-10
-6.40431432129e-09
-9.03331628292e-10
-5.55378768614e-09
-8.50526646659e-10
-4.75527762428e-09
-7.98515856705e-10
-4.00774796418e-09
-7.47529934464e-10
-3.3099836171e-09
-6.97769960812e-10
-2.66057635042e-09
-6.49407759749e-10
-2.05799261141e-09
-6.02589161686e-10
-1.50055706864e-09
-5.57436212518e-10
-9.86509095832e-10
-5.14053191734e-10
-5.13974804913e-10
-4.72535098462e-10
-8.09932895853e-11
-4.3298651362e-10
3.14372383661e-10
-3.95366584201e-10
6.73896026588e-10
-3.59528403184e-10
9.99556904643e-10
-3.25661864312e-10
1.29322837169e-09
-2.93675972867e-10
1.55680027528e-09
-2.63572945378e-10
1.79223901463e-09
-2.35442978849e-10
2.00131780013e-09
-2.09079872496e-10
2.18562495531e-09
-1.84311122131e-10
2.34661458993e-09
-1.6099076754e-10
2.48572707909e-09
-1.39116186234e-10
2.60432144202e-09
-1.18595553522e-10
2.7036202718e-09
-9.93022670235e-11
2.78478454845e-09
-8.11655447259e-11
2.84864083003e-09
-6.38594790493e-11
2.89568949868e-09
-4.70500406821e-11
2.92619493439e-09
-3.05084235043e-11
2.94006245486e-09
-1.38690269386e-11
2.93648766906e-09
3.57194035725e-12
2.91390279513e-09
2.25831810965e-11
2.86979684934e-09
4.41031532864e-11
2.80029154175e-09
6.95033640252e-11
2.69973671811e-09
1.00552018393e-10
2.5601701324e-09
1.39564380828e-10
2.37087123309e-09
1.89296049913e-10
2.11842485665e-09
2.52443904932e-10
1.78801863322e-09
3.30403522003e-10
1.36861704766e-09
4.19399308921e-10
8.7048171275e-10
4.98133248025e-10
3.61551449196e-10
5.08928209185e-10
3.61550898281e-10
-8.14120789833e-11
-9.80740958868e-11
-1.70015073064e-10
-1.21726807788e-10
-2.96139700667e-10
-4.46677338754e-11
-4.68111881587e-10
5.92552012948e-11
-6.87525869889e-10
1.67719357273e-10
-9.56128268974e-10
2.77046467843e-10
-1.27723314077e-09
3.88546642594e-10
-1.65572172595e-09
5.03987808001e-10
-2.09649192569e-09
6.24544589556e-10
-2.60422865999e-09
7.50920538706e-10
-3.18264750454e-09
8.83321803574e-10
-3.8348681808e-09
1.02138425546e-09
-4.56321092046e-09
1.16436008143e-09
-5.36948044266e-09
1.31133773433e-09
-6.25467663503e-09
1.4613573121e-09
-7.21946043575e-09
1.61333595315e-09
-8.2637016636e-09
1.76610949333e-09
-9.38685897559e-09
1.91846345725e-09
-1.05875978258e-08
2.06918657188e-09
-1.1864206205e-08
2.2170880154e-09
-1.32142419534e-08
2.36103681634e-09
-1.46349593947e-08
2.49996620924e-09
-1.61229660391e-08
2.63289894407e-09
-1.76746474262e-08
2.75893914268e-09
-1.92858218328e-08
2.87728536488e-09
-2.09521563938e-08
2.98721314307e-09
-2.26688149863e-08
3.08808030091e-09
-2.44308632838e-08
3.17930536505e-09
-2.62329103013e-08
3.26037052094e-09
-2.80695035742e-08
3.33080083731e-09
-2.99347686929e-08
3.39016894484e-09
-3.18227974395e-08
3.43807813568e-09
-3.37272911384e-08
3.47417069267e-09
-3.56419446068e-08
3.49811577429e-09
-3.75600992061e-08
3.50962138064e-09
-3.94751242266e-08
3.5084264229e-09
-4.13800842611e-08
3.49431521745e-09
-4.32681179317e-08
3.46711237981e-09
-4.51321226581e-08
3.42669825043e-09
-4.69651287165e-08
3.37300505014e-09
-4.8760002528e-08
3.30603164577e-09
-5.05098123978e-08
3.2258395227e-09
-5.2207549831e-08
3.13256551036e-09
-5.38464820434e-08
3.02641648538e-09
-5.54198894212e-08
2.90767919896e-09
-5.69213994667e-08
2.77671319717e-09
-5.83447379624e-08
2.6339574537e-09
-5.96840393064e-08
2.47992158642e-09
-6.09336089719e-08
2.31518974575e-09
-6.20882066184e-08
2.14041083873e-09
-6.3142818327e-08
1.95630007159e-09
-6.40929100096e-08
1.76362772054e-09
-6.49342072801e-08
1.56321682276e-09
-6.56629157378e-08
1.35592770751e-09
-6.62755030238e-08
1.14264843795e-09
-6.67688840036e-08
9.24275019479e-10
-6.71401918306e-08
7.01676739953e-10
-6.73869259642e-08
4.75651606358e-10
-6.75065253579e-08
2.46701513522e-10
-6.74973341052e-08
1.56664132077e-11
-6.73567492701e-08
-2.19130873603e-10
-6.70819750146e-08
-4.59260387319e-10
-6.66723275379e-08
-7.02239748011e-10
-6.61288495423e-08
-9.44700807078e-10
-6.54540113101e-08
-1.18386366036e-09
-6.46516006204e-08
-1.41742911795e-09
-6.37263916337e-08
-1.64345169709e-09
-6.26840722891e-08
-1.86026274969e-09
-6.15309923105e-08
-2.06642151194e-09
-6.02741366101e-08
-2.26068657647e-09
-5.8920925626e-08
-2.44199572574e-09
-5.74792097391e-08
-2.6094541591e-09
-5.59571003389e-08
-2.76232488316e-09
-5.43629717327e-08
-2.90002307856e-09
-5.2705311717e-08
-3.02211052698e-09
-5.09927249766e-08
-3.12829196971e-09
-4.92337975505e-08
-3.21841071997e-09
-4.74370995949e-08
-3.2924450088e-09
-4.56110612861e-08
-3.35050324142e-09
-4.37639750295e-08
-3.39281915075e-09
-4.1903882317e-08
-3.41974572485e-09
-4.00385768826e-08
-3.43174842753e-09
-3.8175503362e-08
-3.42939722851e-09
-3.63217637175e-08
-3.41335754627e-09
-3.44840292415e-08
-3.38438023346e-09
-3.26685528062e-08
-3.34329035078e-09
-3.08810958237e-08
-3.29097544091e-09
-2.91269484763e-08
-3.22837271365e-09
-2.74108726702e-08
-3.1564563671e-09
-2.57371315123e-08
-3.07622411468e-09
-2.41094483432e-08
-2.98868457072e-09
-2.25310455755e-08
-2.89484422047e-09
-2.10046187438e-08
-2.79569598448e-09
-1.95323836003e-08
-2.69220776187e-09
-1.81160629964e-08
-2.58531319549e-09
-1.675694011e-08
-2.47590264912e-09
-1.54558552442e-08
-2.36481676688e-09
-1.42132625748e-08
-2.25284029164e-09
-1.3029233704e-08
-2.14069863255e-09
-1.19035151692e-08
-2.02905460294e-09
-1.08355356597e-08
-1.91850783236e-09
-9.8244618251e-09
-1.80959407665e-09
-8.86920663224e-09
-1.70278694273e-09
-7.96848172432e-09
-1.59849918311e-09
-7.12080535008e-09
-1.49708605534e-09
-6.32455084697e-09
-1.39884788927e-09
-5.57795484315e-09
-1.30403420903e-09
-4.87916581351e-09
-1.21284633466e-09
-4.22626311625e-09
-1.12543982807e-09
-3.61733336791e-09
-1.04192024149e-09
-3.05037362307e-09
-9.62328370484e-10
-2.52323080101e-09
-8.86675048603e-10
-2.03391400816e-09
-8.14980683139e-10
-1.58027899431e-09
-7.47314634276e-10
-1.16008875424e-09
-6.83765176769e-10
-7.71248038363e-10
-6.24287152424e-10
-4.11580528235e-10
-5.68749330155e-10
-7.88498501693e-11
-5.1704506232e-10
2.29213477945e-10
-4.69056000333e-10
5.14550405726e-10
-4.24456184656e-10
7.79005300291e-10
-3.8305232165e-10
1.02423382926e-09
-3.44533688584e-10
1.25148802008e-09
-3.08421598344e-10
1.46204882165e-09
-2.74423016612e-10
1.6571802191e-09
-2.42183314738e-10
1.83762209622e-09
-2.10952913999e-10
2.00351061395e-09
-1.79759473478e-10
2.15425406107e-09
-1.47174060386e-10
2.2876429775e-09
-1.10807780506e-10
2.39954038552e-09
-6.77968361975e-11
2.48324103309e-09
-1.41995024783e-11
2.52876668138e-09
5.50236790863e-11
2.52220810533e-09
1.46120521149e-10
2.44503005508e-09
2.66471353375e-10
2.27370693709e-09
4.23764361504e-10
1.98290118458e-09
6.21206591492e-10
1.5554521036e-09
8.4684605758e-10
1.00581663655e-09
1.04776663756e-09
4.13275188678e-10
1.1014676233e-09
7.74825543826e-10
-5.7534240175e-10
4.77327490102e-10
-1.1792100182e-09
4.82180452951e-10
-1.80740574894e-09
5.83593602803e-10
-2.45797454473e-09
7.09856498916e-10
-3.13311517292e-09
8.42923443712e-10
-3.83781005067e-09
9.81766407979e-10
-4.57769087948e-09
1.12848658193e-09
-5.3587932296e-09
1.28510730669e-09
-6.18701392591e-09
1.4528204371e-09
-7.06807044292e-09
1.63198662315e-09
-8.00695805809e-09
1.82225812445e-09
-9.00826408836e-09
2.02269422452e-09
-1.00757841619e-08
2.23192346397e-09
-1.12127405013e-08
2.44829393917e-09
-1.24213287159e-08
2.66998506266e-09
-1.37030594683e-08
2.89506423996e-09
-1.50584618967e-08
3.12154923104e-09
-1.64874584315e-08
3.34745639242e-09
-1.79890866031e-08
3.57085077559e-09
-1.95618795096e-08
3.78987665998e-09
-2.12035948763e-08
4.00278732092e-09
-2.29115902049e-08
4.2079567022e-09
-2.46825477763e-08
4.40389079381e-09
-2.65128381029e-08
4.58922393106e-09
-2.8398236176e-08
4.76271674797e-09
-3.03342724232e-08
4.92324305187e-09
-3.23159409973e-08
5.06978106943e-09
-3.43380404781e-08
5.20139762277e-09
-3.63948780034e-08
5.31723899655e-09
-3.84806030118e-08
5.41651776888e-09
-4.05889119716e-08
5.49850750879e-09
-4.27133777547e-08
5.56253504963e-09
-4.48471593724e-08
5.60798050201e-09
-4.69833283513e-08
5.63427524452e-09
-4.91145868925e-08
5.64090665508e-09
-5.12335909638e-08
5.62742050132e-09
-5.33326791693e-08
5.59342867599e-09
-5.54041911064e-08
5.53861404816e-09
-5.74402084005e-08
5.46273930784e-09
-5.94328661774e-08
5.36565246924e-09
-6.13741075253e-08
5.24729527603e-09
-6.3255986304e-08
5.10770806344e-09
-6.50704367283e-08
4.94703675266e-09
-6.68095665377e-08
4.76553634465e-09
-6.8465444132e-08
4.56357617647e-09
-7.00303823983e-08
4.34164196543e-09
-7.1496746176e-08
4.10033921442e-09
-7.28572269851e-08
3.84039346167e-09
-7.41046724188e-08
3.56265180634e-09
-7.52323517326e-08
3.26808187629e-09
-7.62338079915e-08
2.95777164682e-09
-7.71031132021e-08
2.63292535047e-09
-7.78347398711e-08
2.29485754738e-09
-7.84237995459e-08
1.94498051094e-09
-7.88659216745e-08
1.58478340956e-09
-7.91574561247e-08
1.2158032737e-09
-7.92953885052e-08
8.39620801286e-10
-7.92774522465e-08
4.57709777219e-10
-7.91023167211e-08
7.15765554113e-11
-7.87679119739e-08
-3.18743359173e-10
-7.82754386209e-08
-7.11594724502e-10
-7.76327362994e-08
-1.10196727354e-09
-7.68486355971e-08
-1.48633196756e-09
-7.59309564573e-08
-1.86238415156e-09
-7.48869492349e-08
-2.22786337256e-09
-7.37237243642e-08
-2.58065792534e-09
-7.24483411577e-08
-2.91882832074e-09
-7.10679943198e-08
-3.24061334984e-09
-6.95899795624e-08
-3.54443056782e-09
-6.80217933551e-08
-3.82887644794e-09
-6.63710586336e-08
-4.09272558092e-09
-6.46455852613e-08
-4.33493116698e-09
-6.28532811075e-08
-4.55462495774e-09
-6.10021894797e-08
-4.75111836201e-09
-5.91003940242e-08
-4.92390264156e-09
-5.71560398503e-08
-5.0726498587e-09
-5.51772354867e-08
-5.19721243024e-09
-5.31720613592e-08
-5.29762293171e-09
-5.11484706539e-08
-5.37409192969e-09
-4.91142882352e-08
-5.4270054583e-09
-4.70771126363e-08
-5.45691989095e-09
-4.50443092135e-08
-5.46455583178e-09
-4.30229166639e-08
-5.45078887802e-09
-4.10196393032e-08
-5.41663897681e-09
-3.90407626243e-08
-5.36325649398e-09
-3.70921502253e-08
-5.2919068952e-09
-3.51791731408e-08
-5.20395253967e-09
-3.33067164004e-08
-5.10083366223e-09
-3.14791257506e-08
-4.98404741674e-09
-2.97002270237e-08
-4.85512709514e-09
-2.79732916866e-08
-4.71562064867e-09
-2.63010696677e-08
-4.56707052376e-09
-2.46857725802e-08
-4.41099411189e-09
-2.31291180502e-08
-4.2488665903e-09
-2.16323271489e-08
-4.08210539659e-09
-2.0196176528e-08
-3.91205756859e-09
-1.88210058309e-08
-3.73998898682e-09
-1.75067739731e-08
-3.56707643286e-09
-1.62530726263e-08
-3.39440169033e-09
-1.50591831079e-08
-3.22294837597e-09
-1.3924092197e-08
-3.05360060847e-09
-1.28465466738e-08
-2.88714380941e-09
-1.18250687603e-08
-2.72426684266e-09
-1.08580064207e-08
-2.56556567056e-09
-9.9435467279e-09
-2.4115478229e-09
-9.07976099579e-09
-2.262637687e-09
-8.2646153318e-09
-2.11918200348e-09
-7.49601019828e-09
-1.98145543002e-09
-6.77178657659e-09
-1.84966560398e-09
-6.08975300408e-09
-1.72395764784e-09
-5.44766391846e-09
-1.60441960459e-09
-4.84324759e-09
-1.49109506008e-09
-4.27423039123e-09
-1.38399999908e-09
-3.73841697797e-09
-1.28313155892e-09
-3.23372701576e-09
-1.18845720638e-09
-2.75813150833e-09
-1.09988598591e-09
-2.30961017145e-09
-1.01727267543e-09
-1.88622172221e-09
-9.40436647466e-10
-1.48613017346e-09
-8.69149501173e-10
-1.10747875672e-09
-8.03110553475e-10
-7.48563717398e-10
-7.41969270388e-10
-4.07801899507e-10
-6.85298290334e-10
-8.36418416612e-11
-6.32583545041e-10
2.25051582864e-10
-5.83119079264e-10
5.18761097143e-10
-5.35894723248e-10
7.97520967215e-10
-4.8971531451e-10
1.06071797173e-09
-4.42958419178e-10
1.30715795046e-09
-3.93616525866e-10
1.53451717441e-09
-3.38169050629e-10
1.7387142241e-09
-2.71996412581e-10
1.91338122874e-09
-1.88868736088e-10
2.04852822312e-09
-8.01259288719e-11
2.12946674068e-09
6.51795578905e-11
2.13598942514e-09
2.59945922918e-10
2.04249786358e-09
5.17253303818e-10
1.82001710959e-09
8.43684675421e-10
1.44754179319e-09
1.21931903976e-09
9.41034114096e-10
1.5542722822e-09
3.91976031445e-10
1.65052370454e-09
1.16680104496e-09
-1.07185889322e-09
1.54925182425e-09
-2.16877618811e-09
1.5791416943e-09
-3.27755515677e-09
1.69244248886e-09
-4.39756933841e-09
1.82990716748e-09
-5.53250232285e-09
1.97792112632e-09
-6.68709540704e-09
2.13638380338e-09
-7.86631314041e-09
2.30776348667e-09
-9.07535455677e-09
2.49416364763e-09
-1.03192158626e-08
2.69673268753e-09
-1.1602879864e-08
2.91565852541e-09
-1.2930872571e-08
3.15029634772e-09
-1.430748893e-08
3.39931265938e-09
-1.57363671766e-08
3.66084258946e-09
-1.72207078361e-08
3.9326333095e-09
-1.87628598077e-08
4.21217494912e-09
-2.03645999584e-08
4.4968014481e-09
-2.20267974751e-08
4.7837830666e-09
-2.37497411837e-08
5.07039644158e-09
-2.55328408506e-08
5.35398589814e-09
-2.73749721932e-08
5.63200392154e-09
-2.92741930899e-08
5.90204300373e-09
-3.12280911143e-08
6.16185015698e-09
-3.32335014382e-08
6.40933515785e-09
-3.52868491297e-08
6.64256638406e-09
-3.73838631813e-08
6.85976390513e-09
-3.95199116454e-08
7.05928544729e-09
-4.16897117985e-08
7.23961321374e-09
-4.38876593706e-08
7.39933821425e-09
-4.61075378573e-08
7.53714820165e-09
-4.83428443671e-08
7.65181638742e-09
-5.05865026984e-08
7.74219518062e-09
-5.28311887987e-08
7.80721242767e-09
-5.50690532162e-08
7.84587280269e-09
-5.72920494918e-08
7.8572621013e-09
-5.94916722989e-08
7.84055584859e-09
-6.16592920088e-08
7.79503027207e-09
-6.37859146124e-08
7.72007614186e-09
-6.58625246317e-08
7.61521380364e-09
-6.78798712427e-08
7.48010925815e-09
-6.98288190085e-08
7.31458985386e-09
-7.17001610412e-08
7.1186591321e-09
-7.3484972929e-08
6.8925096525e-09
-7.51744489654e-08
6.6365331253e-09
-7.67602496704e-08
6.35132701874e-09
-7.82343522094e-08
6.03769759529e-09
-7.95893790144e-08
5.69665916467e-09
-8.08184515305e-08
5.32942920028e-09
-8.19154859642e-08
4.93741884093e-09
-8.28750377611e-08
4.52221970891e-09
-8.36925529048e-08
4.08558860282e-09
-8.43641978807e-08
3.62943142023e-09
-8.48870662593e-08
3.15578599691e-09
-8.52589991455e-08
2.66680397441e-09
-8.54787582755e-08
2.16473260142e-09
-8.55458606033e-08
1.65189807853e-09
-8.54607267478e-08
1.13066304763e-09
-8.52244718535e-08
6.0337710237e-10
-8.48393506134e-08
7.25827846241e-11
-8.43078094902e-08
-4.59954461357e-10
-8.36363258756e-08
-9.90232177595e-10
-8.28342257931e-08
-1.51368573846e-09
-8.19086045439e-08
-2.02759326352e-09
-8.08648854789e-08
-2.53004294941e-09
-7.97083115501e-08
-3.01896245054e-09
-7.84439719757e-08
-3.49219580196e-09
-7.70770518398e-08
-3.94758215452e-09
-7.5612848921e-08
-4.38302498493e-09
-7.40569271831e-08
-4.79653899174e-09
-7.24150710365e-08
-5.18628130603e-09
-7.06933784895e-08
-5.55057278808e-09
-6.88981875324e-08
-5.88791192953e-09
-6.70361374772e-08
-6.19698496912e-09
-6.51140858792e-08
-6.47667270188e-09
-6.31391511893e-08
-6.72605680379e-09
-6.11186259172e-08
-6.94442476629e-09
-5.90600037267e-08
-7.1312758418e-09
-5.69708876542e-08
-7.28632601464e-09
-5.48590003332e-08
-7.40951410924e-09
-5.27320841703e-08
-7.50100621358e-09
-5.05978932641e-08
-7.56120029615e-09
-4.8464084201e-08
-7.59072763505e-09
-4.63381912415e-08
-7.59045280019e-09
-4.42275106752e-08
-7.56146863527e-09
-4.21390656733e-08
-7.50508805958e-09
-4.00794923424e-08
-7.42282947802e-09
-3.80550053715e-08
-7.3163980092e-09
-3.60712978026e-08
-7.18766017648e-09
-3.41335207581e-08
-7.03861489892e-09
-3.22462090522e-08
-6.871359561e-09
-3.04132857864e-08
-6.68805458823e-09
-2.86380208976e-08
-6.49088630338e-09
-2.69230640288e-08
-6.28203164041e-09
-2.52704343477e-08
-6.06362484686e-09
-2.36815761621e-08
-5.83772903042e-09
-2.21573708739e-08
-5.60631198875e-09
-2.0698205077e-08
-5.37122761322e-09
-1.93039941207e-08
-5.13420146191e-09
-1.79742535302e-08
-4.8968212512e-09
-1.67081256579e-08
-4.66053126208e-09
-1.55044472243e-08
-4.42663100382e-09
-1.43617732761e-08
-4.19627640414e-09
-1.32784379346e-08
-3.97048329686e-09
-1.22525744248e-08
-3.75013231509e-09
-1.12821686372e-08
-3.53597553886e-09
-1.03650744932e-08
-3.32864401219e-09
-9.49906006329e-09
-3.12865611272e-09
-8.68181805542e-09
-2.93642610648e-09
-7.91100443604e-09
-2.75227293788e-09
-7.18424333557e-09
-2.57642881761e-09
-6.49915690586e-09
-2.4090478347e-09
-5.85336386155e-09
-2.25021474993e-09
-5.24450786741e-09
-2.09995465609e-09
-4.67026782092e-09
-1.95824210914e-09
-4.12839628712e-09
-1.82500651884e-09
-3.61672366149e-09
-1.70013183965e-09
-3.13316104498e-09
-1.58345183918e-09
-2.67568655393e-09
-1.47474911046e-09
-2.24237086651e-09
-1.37375537927e-09
-1.83137734649e-09
-1.28014490591e-09
-1.44096870833e-09
-1.19352205213e-09
-1.06953125253e-09
-1.11340856866e-09
-7.15614968447e-10
-1.03921726954e-09
-3.77987821136e-10
-9.70212515521e-10
-5.56644398741e-11
-9.05445015734e-10
2.52085421835e-10
-8.43646418645e-10
5.45482955557e-10
-7.83115302267e-10
8.24001908254e-10
-7.21479254021e-10
1.08607091268e-09
-6.55687939388e-10
1.32917279291e-09
-5.81272924704e-10
1.54916265321e-09
-4.91988727403e-10
1.73968569973e-09
-3.79393942053e-10
1.8910435487e-09
-2.31486370249e-10
1.98904655169e-09
-3.28258221007e-11
2.01364043198e-09
2.35349390806e-10
1.9387795265e-09
5.92111602385e-10
1.73469768119e-09
1.04776392624e-09
1.38096517556e-09
1.57304929559e-09
8.9993195477e-10
2.03530350564e-09
3.81087230648e-10
2.16936648282e-09
1.54788776504e-09
-1.48966480168e-09
3.03898797607e-09
-2.99545844325e-09
3.08498318387e-09
-4.50662109067e-09
3.20367993735e-09
-6.02425136505e-09
3.34757392057e-09
-7.55271943617e-09
3.50645719792e-09
-9.09688870362e-09
3.68057871951e-09
-1.06611591344e-08
3.87209139052e-09
-1.2249708762e-08
4.08272782157e-09
-1.38662280328e-08
4.31330311744e-09
-1.55142572805e-08
4.56369358229e-09
-1.71968537413e-08
4.83293678169e-09
-1.8916893862e-08
5.11935370622e-09
-2.06767012404e-08
5.42068951794e-09
-2.2478315404e-08
5.73424547685e-09
-2.4323111881e-08
6.05700852321e-09
-2.62120762199e-08
6.38576247051e-09
-2.81454474641e-08
6.71719024349e-09
-3.01230102184e-08
7.047955385e-09
-3.21437606661e-08
7.37477169115e-09
-3.42062131403e-08
7.69445227113e-09
-3.63080823295e-08
8.00394702775e-09
-3.8446599771e-08
8.30036302079e-09
-4.06182068141e-08
8.58097635799e-09
-4.28188781775e-08
8.84323248439e-09
-4.50438235049e-08
9.08474247638e-09
-4.72878178856e-08
9.30327369984e-09
-4.9544913434e-08
9.49674087497e-09
-5.18087789073e-08
9.66319659824e-09
-5.40724253969e-08
9.80082550238e-09
-5.63285582985e-08
9.9079412445e-09
-5.8569322336e-08
9.98298860577e-09
-6.07866685574e-08
1.00245497282e-08
-6.29721229368e-08
1.00313550669e-08
-6.51171683445e-08
1.00022978575e-08
-6.72130375283e-08
9.93645136658e-09
-6.9251105065e-08
9.83308760626e-09
-7.12227001589e-08
9.69169599728e-09
-7.31194977433e-08
9.51200084251e-09
-7.49333411438e-08
9.29397584515e-09
-7.66566168719e-08
9.03785490397e-09
-7.82820740121e-08
8.74413789929e-09
-7.98031665453e-08
8.41359158438e-09
-8.12138577342e-08
8.04724440975e-09
-8.25089166489e-08
7.64637559471e-09
-8.36836996769e-08
7.21249922715e-09
-8.4734396362e-08
6.7473459351e-09
-8.56577918782e-08
6.2528418763e-09
-8.64514672272e-08
5.73108482226e-09
-8.71135504111e-08
5.18431866377e-09
-8.76428812357e-08
4.6149106948e-09
-8.80387680446e-08
4.02533266954e-09
-8.83011328974e-08
3.41814279898e-09
-8.84302800132e-08
2.79596426199e-09
-8.84270152375e-08
2.16146047048e-09
-8.82924168572e-08
1.5173116659e-09
-8.80280059772e-08
8.6624548748e-10
-8.76356097523e-08
2.10991708661e-10
-8.7117056672e-08
-4.45976345657e-10
-8.64775633137e-08
-1.09943806111e-09
-8.57210808348e-08
-1.74672014549e-09
-8.48495932594e-08
-2.38516456751e-09
-8.38649423481e-08
-3.01224918664e-09
-8.27695634872e-08
-3.62541402091e-09
-8.15664803613e-08
-4.2220502038e-09
-8.02591279286e-08
-4.79954135211e-09
-7.88513881114e-08
-5.35532630576e-09
-7.73474592482e-08
-5.88694782619e-09
-7.57519144903e-08
-6.39208787712e-09
-7.40696015785e-08
-6.86858901168e-09
-7.23057099519e-08
-7.31446841091e-09
-7.04656931087e-08
-7.72792433802e-09
-6.85553401164e-08
-8.10734188979e-09
-6.65807134817e-08
-8.45129562823e-09
-6.45482187503e-08
-8.75855544411e-09
-6.24645491489e-08
-9.02809133977e-09
-6.03367456385e-08
-9.25908327711e-09
-5.81721387008e-08
-9.45093055792e-09
-5.59783898964e-08
-9.6032668767e-09
-5.37634196837e-08
-9.71597461768e-09
-5.15354196949e-08
-9.789204298e-09
-4.93027542759e-08
-9.82339178345e-09
-4.70739327336e-08
-9.81927840803e-09
-4.48574750494e-08
-9.77792553909e-09
-4.26618396778e-08
-9.70072754604e-09
-4.04952548281e-08
-9.58941399111e-09
-3.83656127421e-08
-9.44604425108e-09
-3.62802868206e-08
-9.27298616011e-09
-3.42460231502e-08
-9.07288275587e-09
-3.22687812803e-08
-8.84860184895e-09
-3.03536649115e-08
-8.60317516209e-09
-2.85048256989e-08
-8.33972624936e-09
-2.67254651773e-08
-8.06139637368e-09
-2.50178206045e-08
-7.77127043049e-09
-2.3383242318e-08
-7.47231152308e-09
-2.1822249805e-08
-7.16730575429e-09
-2.03346589747e-08
-6.85882263297e-09
-1.89196714368e-08
-6.54919045998e-09
-1.75760087971e-08
-6.24048805196e-09
-1.6301992942e-08
-5.93454875241e-09
-1.50956546078e-08
-5.63297345899e-09
-1.39547860994e-08
-5.33714669056e-09
-1.28770197345e-08
-5.04825372862e-09
-1.18598563718e-08
-4.76729756654e-09
-1.09007200305e-08
-4.49511587691e-09
-9.99696983078e-09
-4.23239617874e-09
-9.14594040487e-09
-3.97968944558e-09
-8.34494608566e-09
-3.73742243791e-09
-7.591313318e-09
-3.50590950047e-09
-6.88238058924e-09
-3.28536357168e-09
-6.21552531502e-09
-3.07590676737e-09
-5.58816172395e-09
-2.87758034939e-09
-4.9977657317e-09
-2.69035414641e-09
-4.44187514719e-09
-2.51413465986e-09
-3.91811393193e-09
-2.34877105155e-09
-3.42418940322e-09
-2.19405827511e-09
-2.95790672923e-09
-2.04973763776e-09
-2.5171617926e-09
-1.91549588815e-09
-2.09995812476e-09
-1.79096197765e-09
-1.7044057338e-09
-1.67569907913e-09
-1.32874034291e-09
-1.56919019108e-09
-9.71334791393e-10
-1.47081586293e-09
-6.30735491287e-10
-1.37981915595e-09
-3.0569598969e-10
-1.29525374524e-09
4.79180713203e-12
-1.21593526511e-09
3.01400344015e-10
-1.14025669794e-09
5.84390191228e-10
-1.06610750121e-09
8.53254807855e-10
-9.90345661588e-10
1.10665696088e-09
-9.09092407027e-10
1.34206938479e-09
-8.16687245381e-10
1.55544607646e-09
-7.05367781079e-10
1.74030223757e-09
-5.64252189313e-10
1.88691765104e-09
-3.78104227327e-10
1.98090032373e-09
-1.26810798055e-10
2.00206613249e-09
2.14180978466e-10
1.9234460135e-09
6.70729252673e-10
1.71467277879e-09
1.25653463307e-09
1.35837301123e-09
1.92934686318e-09
8.84853878255e-10
2.50882073783e-09
3.79253820011e-10
2.67496467205e-09
1.92714109934e-09
-1.81745073838e-09
4.85651285778e-09
-3.64393383775e-09
4.9115150009e-09
-5.47154333265e-09
5.03136629681e-09
-7.30284775176e-09
5.17891807091e-09
-9.14258500575e-09
5.34626293087e-09
-1.0995472941e-08
5.53349113414e-09
-1.286539244e-08
5.7420712206e-09
-1.47556990162e-08
5.9730477855e-09
-1.66689871165e-08
6.22664044407e-09
-1.86074959273e-08
6.50220832382e-09
-2.05728406274e-08
6.79832488923e-09
-2.256636863e-08
7.11288200757e-09
-2.45888481616e-08
7.44320821983e-09
-2.66407908741e-08
7.78618575264e-09
-2.87221139919e-08
8.13836854064e-09
-3.08324424342e-08
8.4960873931e-09
-3.29707651272e-08
8.85554886385e-09
-3.5135730657e-08
9.21291704002e-09
-3.73253084392e-08
9.56438496023e-09
-3.95370887396e-08
9.90622843966e-09
-4.1767955766e-08
1.02348491166e-08
-4.40144000585e-08
1.05468027232e-08
-4.62722084683e-08
1.08388191892e-08
-4.85367941996e-08
1.1107812907e-08
-5.08029071505e-08
1.13508889354e-08
-5.30649844433e-08
1.15653447669e-08
-5.53168832052e-08
1.17486719912e-08
-5.75522517388e-08
1.18985578939e-08
-5.97642847154e-08
1.20128894929e-08
-6.19461115963e-08
1.20897598811e-08
-6.40905709607e-08
1.21274775135e-08
-6.61906083283e-08
1.21245779353e-08
-6.82390623342e-08
1.20798370596e-08
-7.02290596822e-08
1.19922852796e-08
-7.21538025601e-08
1.18612206255e-08
-7.40069458414e-08
1.1686220389e-08
-7.57823742773e-08
1.14671491848e-08
-7.74745478435e-08
1.1204163551e-08
-7.90782602685e-08
1.08977113925e-08
-8.058894304e-08
1.05485266787e-08
-8.20024023083e-08
1.01576186765e-08
-8.33150799961e-08
9.72625834567e-09
-8.45237766562e-08
9.25596099653e-09
-8.56258769075e-08
8.74846517839e-09
-8.66190690853e-08
8.20570979041e-09
-8.75015498892e-08
7.62981648912e-09
-8.82717663608e-08
7.02307524498e-09
-8.89286163024e-08
6.3879250589e-09
-8.94712090837e-08
5.72692691514e-09
-8.98990438337e-08
5.04273637671e-09
-9.02117734774e-08
4.33807642896e-09
-9.04093448402e-08
3.61570578532e-09
-9.0491751778e-08
2.87838404098e-09
-9.04591485697e-08
2.12884959242e-09
-9.03116597717e-08
1.36983451933e-09
-9.00495439121e-08
6.04122646352e-10
-8.96735704946e-08
-1.64971169627e-10
-8.91851721066e-08
-9.34381075252e-10
-8.85836779933e-08
-1.70092268177e-09
-8.78684740996e-08
-2.4619298098e-09
-8.70393858438e-08
-3.21424431962e-09
-8.6097099237e-08
-3.95454107707e-09
-8.50430362021e-08
-4.6794694886e-09
-8.38793440942e-08
-5.38574719845e-09
-8.26086581225e-08
-6.07022064405e-09
-8.12340883064e-08
-6.72990070145e-09
-7.9759053061e-08
-7.36197723168e-09
-7.81873188187e-08
-7.96382647516e-09
-7.65228926817e-08
-8.53301010216e-09
-7.4770089511e-08
-9.06727578675e-09
-7.29334557624e-08
-9.5645537869e-09
-7.10178441745e-08
-1.00229575927e-08
-6.90283546519e-08
-1.04407815519e-08
-6.69704107719e-08
-1.08165033957e-08
-6.48497151173e-08
-1.11487840498e-08
-6.26723294077e-08
-1.14364730484e-08
-6.04446459078e-08
-1.16786117215e-08
-5.81734737498e-08
-1.18744431081e-08
-5.58660258904e-08
-1.20234207026e-08
-5.35300085073e-08
-1.21252257775e-08
-5.1173613659e-08
-1.21797853734e-08
-4.8805594825e-08
-1.21873013646e-08
-4.64352373152e-08
-1.21482822615e-08
-4.40723812176e-08
-1.20635877896e-08
-4.17273190041e-08