/*--------------------------------*- C++ -*----------------------------------*\
| =========                 |                                                 |
| \\      /  F ield         | OpenFOAM: The Open Source CFD Toolbox           |
|  \\    /   O peration     | Version:  2206                                  |
|   \\  /    A nd           | Website:  www.openfoam.com                      |
|    \\/     M anipulation  |                                                 |
\*---------------------------------------------------------------------------*/
FoamFile
{
    version     2.0;
    format      ascii;
    arch        "LSB;label=64;scalar=64";
    class       surfaceScalarField;
    location    "1.2/water";
    object      phi.gas;
}
// * * * * * * * * * * * * * * * * * * * * * * * * * * * * * * * * * * * * * //

dimensions      [0 3 -1 0 0 0 0];

oriented        oriented;

internalField   nonuniform List<scalar> 
46280
(
5.80678534955e-11
2.72888106502e-07
1.41947373314e-10
2.7285742385e-07
1.99367092074e-10
2.72899676369e-07
1.88961648077e-10
2.72960916135e-07
1.06911861615e-10
2.73023967643e-07
-3.59656955579e-11
2.73087648558e-07
-2.43370660488e-10
2.73148629315e-07
-5.07748254681e-10
2.73209528911e-07
-8.3704924877e-10
2.73267819187e-07
-1.22571798612e-09
2.73327306305e-07
-1.68461323755e-09
2.73385497503e-07
-2.21065057214e-09
2.73446313459e-07
-2.8098952237e-09
2.73507182821e-07
-3.47515451284e-09
2.73571235984e-07
-4.21471565409e-09
2.73634921643e-07
-5.02355252801e-09
2.73700504486e-07
-5.90757384023e-09
2.73764618153e-07
-6.86063651137e-09
2.738294541e-07
-7.88675791323e-09
2.73891860996e-07
-8.97914972344e-09
2.73953899929e-07
-1.01402027805e-08
2.74012618923e-07
-1.13627115405e-08
2.74069995798e-07
-1.26477052325e-08
2.74123289833e-07
-1.39878310354e-08
2.74174436176e-07
-1.53830192878e-08
2.74220909144e-07
-1.68260251781e-08
2.74264618559e-07
-1.83158886603e-08
2.74303244094e-07
-1.98456647786e-08
2.74338663678e-07
-2.14136331063e-08
2.74368742731e-07
-2.30132572554e-08
2.74395307172e-07
-2.4642112978e-08
2.7441638556e-07
-2.62941045891e-08
2.74433726131e-07
-2.79661064858e-08
2.7444550069e-07
-2.96524362326e-08
2.74453357099e-07
-3.13492414061e-08
2.7445559641e-07
-3.30511878492e-08
2.74453749074e-07
-3.47536642082e-08
2.74446238227e-07
-3.64516013001e-08
2.74434468301e-07
-3.81396108847e-08
2.74416983783e-07
-3.98128066469e-08
2.7439506242e-07
-4.14650325447e-08
2.74367375315e-07
-4.30915196074e-08
2.74335081789e-07
-4.46853931683e-08
2.74296990245e-07
-4.62419673495e-08
2.74254158027e-07
-4.77537432765e-08
2.74205546847e-07
-4.92161255701e-08
2.7415213682e-07
-5.06211368413e-08
2.74093063444e-07
-5.19643305745e-08
2.74029260799e-07
-5.32374476423e-08
2.73960061796e-07
-5.44363079215e-08
2.73886390056e-07
-5.55526263636e-08
2.73807800036e-07
-5.65826791514e-08
2.73725240482e-07
-5.75184760473e-08
2.73638507011e-07
-5.8357021908e-08
2.73548601102e-07
-5.90910262788e-08
2.73455566303e-07
-5.97186345968e-08
2.73360469385e-07
-6.02338185713e-08
2.73263589647e-07
-6.06365515998e-08
2.73165996344e-07
-6.09241124955e-08
2.73068378157e-07
-6.1072266417e-08
2.72971073817e-07
-6.10647744188e-08
2.72875159877e-07
-6.09213553331e-08
2.7277976202e-07
-6.06399896551e-08
2.72682634125e-07
-6.02199591693e-08
2.72585129416e-07
-5.96576103938e-08
2.72487996718e-07
-5.89559028719e-08
2.72392121726e-07
-5.81139034461e-08
2.72298190609e-07
-5.71372053976e-08
2.72206991477e-07
-5.60274168618e-08
2.72119207666e-07
-5.47925828724e-08
2.72035500455e-07
-5.34366107369e-08
2.71956497085e-07
-5.19696866313e-08
2.7188269397e-07
-5.03976588828e-08
2.71814625899e-07
-4.87324395775e-08
2.71752606752e-07
-4.69813706099e-08
2.7169706166e-07
-4.51575943495e-08
2.7164812047e-07
-4.32694336554e-08
2.71606094825e-07
-4.13307135412e-08
2.71570939272e-07
-3.93501938556e-08
2.71542856414e-07
-3.7341817777e-08
2.71521640649e-07
-3.53142410785e-08
2.71507394853e-07
-3.32809813153e-08
2.714997716e-07
-3.12500914583e-08
2.71498786064e-07
-2.9234178333e-08
2.71503969554e-07
-2.724026904e-08
2.71515263557e-07
-2.52796658168e-08
2.71532100078e-07
-2.33580520499e-08
2.71554362816e-07
-2.1485146744e-08
2.71581408233e-07
-1.9665092311e-08
2.71613080059e-07
-1.7905871678e-08
2.71648684127e-07
-1.62100145245e-08
2.71688043423e-07
-1.45837382507e-08
2.71730438891e-07
-1.30280027628e-08
2.7177569249e-07
-1.15473388095e-08
2.71823085167e-07
-1.01412749416e-08
2.71872456564e-07
-8.81281799938e-09
2.71923110392e-07
-7.56026998975e-09
2.71974919999e-07
-6.38533060903e-09
2.72027230497e-07
-5.28531738132e-09
2.72079960696e-07
-4.26086441754e-09
2.72132510585e-07
-3.30855534528e-09
2.72184850914e-07
-2.42819895388e-09
2.72236444001e-07
-1.61588170417e-09
2.72287313431e-07
-8.70805063279e-10
2.72336985447e-07
-1.88760469665e-10
2.72385531224e-07
4.31484661313e-10
2.72432534194e-07
9.94298763179e-10
2.72478095563e-07
1.50129223192e-09
2.72521825549e-07
1.95717769203e-09
2.72563785516e-07
2.3603460746e-09
2.72603449877e-07
2.71745952489e-09
2.72641310821e-07
3.03310370445e-09
2.72677403717e-07
3.30755263067e-09
2.7271160374e-07
3.54157617232e-09
2.72744071162e-07
3.73949621122e-09
2.72775261349e-07
3.90399115365e-09
2.72804932073e-07
4.03860443708e-09
2.72833354292e-07
4.14397889115e-09
2.72860477021e-07
4.22315162774e-09
2.72886412097e-07
4.27813709028e-09
2.72910890776e-07
4.31107931748e-09
2.72934185555e-07
4.3223577618e-09
2.72956096229e-07
4.31385837582e-09
2.72976681143e-07
4.28616510512e-09
2.72996060134e-07
4.2407558989e-09
2.73014663883e-07
4.17770077041e-09
2.73032677645e-07
4.09753219446e-09
2.7305064626e-07
3.99932552625e-09
2.73069200349e-07
3.8818477427e-09
2.73089117191e-07
3.7421848867e-09
2.73111178248e-07
3.57696580425e-09
2.73136751169e-07
3.38072331644e-09
2.73167499429e-07
3.1458363426e-09
2.73205697968e-07
2.86157921603e-09
2.73253906652e-07
2.5145290352e-09
2.73314743751e-07
2.08927238884e-09
2.73389592503e-07
1.57180245218e-09
2.73475063092e-07
9.5882805874e-10
2.73550485209e-07
3.35889615675e-10
2.73558536407e-07
2.73412998047e-07
-1.48889759371e-10
2.21457811859e-07
-2.91156950061e-10
2.21433313124e-07
-4.81530080192e-10
2.21513464708e-07
-7.21769806395e-10
2.21621088833e-07
-1.01397016593e-09
2.21732482722e-07
-1.35809362434e-09
2.21844883912e-07
-1.75963156904e-09
2.21958650649e-07
-2.22036734165e-09
2.22077415042e-07
-2.74800633524e-09
2.22200702908e-07
-3.34414679825e-09
2.22331060578e-07
-4.01403262321e-09
2.22466837159e-07
-4.75743595635e-09
2.22609187041e-07
-5.5789204316e-09
2.22755193142e-07
-6.47781733848e-09
2.22905511708e-07
-7.45705583302e-09
2.23057492936e-07
-8.5145359391e-09
2.23211734772e-07
-9.65166494526e-09
2.23365511361e-07
-1.08653386818e-08
2.23519187622e-07
-1.21556191604e-08
2.23670115736e-07
-1.3518500919e-08
2.23818618255e-07
-1.49528671649e-08
2.23962243478e-07
-1.64540035966e-08
2.24101379201e-07
-1.80198297634e-08
2.24233819737e-07
-1.96451298216e-08
2.24360063033e-07
-2.13270531762e-08
2.24478148428e-07
-2.30600547604e-08
2.24588678894e-07
-2.48406546924e-08
2.24689904036e-07
-2.66630956835e-08
2.2478249555e-07
-2.85233529386e-08
2.24864864401e-07
-3.04155217967e-08
2.24937706234e-07
-3.23350733794e-08
2.24999550409e-07
-3.42759821263e-08
2.25051080749e-07
-3.62332312793e-08
2.25090919595e-07
-3.82006809595e-08
2.25119722206e-07
-4.0172838079e-08
2.25136200841e-07
-4.21434521905e-08
2.25140985944e-07
-4.41065764316e-08
2.25132896364e-07
-4.60558638806e-08
2.25112559018e-07
-4.7984958761e-08
2.25078930122e-07
-4.98874508957e-08
2.25032664625e-07
-5.17566472169e-08
2.24972892068e-07
-5.35861291848e-08
2.24900328973e-07
-5.53689645227e-08
2.2481431006e-07
-5.70988018436e-08
2.24715639314e-07
-5.87685883338e-08
2.24603875581e-07
-6.03721300686e-08
2.24479922112e-07
-6.19023856502e-08
2.24343562968e-07
-6.33534174007e-08
2.24195795127e-07
-6.47183299343e-08
2.24036611558e-07
-6.59915408483e-08
2.23867084771e-07
-6.71664324727e-08
2.23687389944e-07
-6.82378760626e-08
2.23498650729e-07
-6.91996583192e-08
2.23301193356e-07
-7.00471987186e-08
2.23096167032e-07
-7.07747994504e-08
2.22884015431e-07
-7.13785195976e-08
2.22665893098e-07
-7.18533290845e-08
2.22442321197e-07
-7.21958262315e-08
2.22214480033e-07
-7.24004289586e-08
2.21981865583e-07
-7.24512651263e-08
2.21751171217e-07
-7.23473953028e-08
2.21516624016e-07
-7.20985624493e-08
2.21268732583e-07
-7.16993010886e-08
2.21012553301e-07
-7.11498823955e-08
2.20753379064e-07
-7.04506329916e-08
2.20495138484e-07
-6.96050143648e-08
2.20241198229e-07
-6.86162597797e-08
2.19994098742e-07
-6.74904012714e-08
2.19756121705e-07
-6.6232908659e-08
2.1952902671e-07
-6.48517813334e-08
2.19314410881e-07
-6.33541977256e-08
2.1911351077e-07
-6.17496457504e-08
2.18927417421e-07
-6.00465688601e-08
2.18756965357e-07
-5.82555149582e-08
2.18602832122e-07
-5.63857778538e-08
2.18465515893e-07
-5.44485512286e-08
2.18345336263e-07
-5.24535714512e-08
2.18242495822e-07
-5.04122668611e-08
2.18156994457e-07
-4.83344145448e-08
2.18088768047e-07
-4.62312760499e-08
2.18037527127e-07
-4.41122831637e-08
2.18002965764e-07
-4.19881520835e-08
2.17984534532e-07
-3.98676166033e-08
2.17981712302e-07
-3.77605123414e-08
2.17993722968e-07
-3.56745754277e-08
2.18019863061e-07
-3.36184881545e-08
2.18059170547e-07
-3.15987615844e-08
2.18110800629e-07
-2.96227323578e-08
2.18173654118e-07
-2.76955443028e-08
2.18246793676e-07
-2.58230848913e-08
2.18329038111e-07
-2.40090786571e-08
2.18419411103e-07
-2.22579502196e-08
2.18516707139e-07
-2.05720380607e-08
2.18619964987e-07
-1.89543705121e-08
2.1872800999e-07
-1.74060059384e-08
2.18839944509e-07
-1.59287073282e-08
2.18954671101e-07
-1.45224112786e-08
2.19071393419e-07
-1.31877881772e-08
2.1918912516e-07
-1.1923841704e-08
2.19307196081e-07
-1.07303432812e-08
2.19424751848e-07
-9.60556215613e-09
2.19541260547e-07
-8.54856524708e-09
2.19656008163e-07
-7.55707855307e-09
2.19768601429e-07
-6.62964660325e-09
2.19878463851e-07
-5.76362642633e-09
2.19985331764e-07
-4.95720615326e-09
2.20088756079e-07
-4.20753947013e-09
2.20188589957e-07
-3.51263963979e-09
2.20284504557e-07
-2.8697032697e-09
2.2037647617e-07
-2.27696806235e-09
2.20464352764e-07
-1.73060273665e-09
2.20548310223e-07
-1.22765982106e-09
2.2062816301e-07
-7.65838108852e-10
2.20703833257e-07
-3.43315159268e-10
2.20775028285e-07
4.25272571512e-11
2.20841709593e-07
3.93828721302e-10
2.20903844002e-07
7.13707388227e-10
2.20961697464e-07
1.00365528682e-09
2.21015219084e-07
1.26694609433e-09
2.21064740599e-07
1.50639294034e-09
2.21110600103e-07
1.72351183678e-09
2.2115302139e-07
1.91978488341e-09
2.21192396276e-07
2.09676841903e-09
2.21229481277e-07
2.25593871816e-09
2.2126440643e-07
2.39941123821e-09
2.2129751035e-07
2.52789022235e-09
2.21329543597e-07
2.64155203199e-09
2.21361490753e-07
2.73953444225e-09
2.21394688161e-07
2.8197171633e-09
2.21431600524e-07
2.8778679382e-09
2.21475093316e-07
2.90747167937e-09
2.21529200278e-07
2.89852166919e-09
2.2159884223e-07
2.83709095317e-09
2.21690154506e-07
2.70487968429e-09
2.21810477947e-07
2.4787217811e-09
2.21967532684e-07
2.13431174236e-09
2.22164493048e-07
1.65381982313e-09
2.22389438392e-07
1.04377459549e-09
2.22589534373e-07
4.06353106762e-10
2.22643094339e-07
2.22317811826e-07
-6.52197758281e-10
2.3075105311e-07
-1.29086848066e-09
2.30755165698e-07
-1.98883773732e-09
2.30858736632e-07
-2.71441662888e-09
2.30986486063e-07
-3.4701673382e-09
2.31120542761e-07
-4.25788091687e-09
2.3126069232e-07
-5.08556529307e-09
2.31408541819e-07
-5.95699484912e-09
2.31566946817e-07
-6.88037451852e-09
2.3173639306e-07
-7.85884791044e-09
2.31918163546e-07
-8.89910974486e-09
2.32111040763e-07
-1.00027101572e-08
2.32314998836e-07
-1.11748627606e-08
2.32527727391e-07
-1.24161433712e-08
2.32748344732e-07
-1.37301881654e-08
2.32974079953e-07
-1.51159263939e-08
2.332037515e-07
-1.65750507009e-08
2.33434556146e-07
-1.8105047016e-08
2.33665253956e-07
-1.97059976351e-08
2.33893194931e-07
-2.13742643577e-08
2.34117248343e-07
-2.31086342459e-08
2.34335039428e-07
-2.49046392391e-08
2.34545645804e-07
-2.67600435303e-08
2.34747013599e-07
-2.866978857e-08
2.3493845439e-07
-3.06308180006e-08
2.35118217598e-07
-3.26376516483e-08
2.35285820312e-07
-3.46865428906e-08
2.35439761014e-07
-3.67716946257e-08
2.35579706688e-07
-3.8888743932e-08
2.35704340475e-07
-4.10316335154e-08
2.35813423435e-07
-4.31954218323e-08
2.35905771887e-07
-4.5373817394e-08
2.35981202141e-07
-4.75613185383e-08
2.36038635055e-07
-4.97514082211e-08
2.36077926649e-07
-5.19380372767e-08
2.36098097498e-07
-5.41144646375e-08
2.36099047522e-07
-5.62741088589e-08
2.36079908456e-07
-5.84100067875e-08
2.3604064052e-07
-6.0515070297e-08
2.35980506727e-07
-6.25821238443e-08
2.35899549149e-07
-6.46036142231e-08
2.35797184748e-07
-6.65721787283e-08
2.35673561097e-07
-6.847986527e-08
2.35528273536e-07
-7.03191741094e-08
2.35361601527e-07
-7.20818522247e-08
2.35173346922e-07
-7.37603495436e-08
2.34963954278e-07
-7.53462545193e-08
2.34733467872e-07
-7.68321006117e-08
2.34482537483e-07
-7.82095061264e-08
2.34211488442e-07
-7.94712694759e-08
2.33921216217e-07
-8.06092735946e-08
2.33612365046e-07
-8.16168102819e-08
2.33286115333e-07
-8.24863000513e-08
2.32943460586e-07
-8.32117982308e-08
2.32585884193e-07
-8.37865473951e-08
2.32214713074e-07
-8.42055859961e-08
2.31831659613e-07
-8.44632604039e-08
2.3143836857e-07
-8.45564568095e-08
2.31036272067e-07
-8.44606248906e-08
2.30631346742e-07
-8.41944897701e-08
2.30218973453e-07
-8.37739931896e-08
2.29798156977e-07
-8.31816516356e-08
2.29380968334e-07
-8.24240782636e-08
2.28970959177e-07
-8.15099138853e-08
2.2857033631e-07
-8.04454946201e-08
2.28181290498e-07
-7.92383570159e-08
2.2780599459e-07
-7.78947049695e-08
2.27446371511e-07
-7.64224693051e-08
2.27104212974e-07
-7.48285197587e-08
2.26781060961e-07
-7.31216089928e-08
2.26478294673e-07
-7.13094756829e-08
2.26197077665e-07
-6.94017443788e-08
2.2593839816e-07
-6.74069716467e-08
2.257030672e-07
-6.53355244097e-08
2.2549171079e-07
-6.31965941597e-08
2.25304812002e-07
-6.10010573627e-08
2.25142657226e-07
-5.87584746882e-08
2.25005416955e-07
-5.64799316294e-08
2.24893049578e-07
-5.41750384842e-08
2.2480541736e-07
-5.18547455927e-08
2.24742152911e-07
-4.95283609641e-08
2.24702808141e-07
-4.72063357398e-08
2.24686689724e-07
-4.48973186003e-08
2.2469304032e-07
-4.26109067873e-08
2.24720850286e-07
-4.03547582406e-08
2.24769070431e-07
-3.81373050791e-08
2.24836406287e-07
-3.59649444267e-08
2.2492156062e-07
-3.38447093744e-08
2.25023014581e-07
-3.17815564479e-08
2.25139295332e-07
-2.97809871887e-08
2.25268745071e-07
-2.78464454832e-08
2.25409806927e-07
-2.5981878862e-08
2.25560781015e-07
-2.41892537525e-08
2.25720120852e-07
-2.24710436036e-08
2.25886175546e-07
-2.08278645381e-08
2.26057490901e-07
-1.92608738613e-08
2.26232539119e-07
-1.77695250385e-08
2.26410021102e-07
-1.63538628991e-08
2.26588586133e-07
-1.50123979237e-08
2.26767132215e-07
-1.37442870243e-08
2.26944517201e-07
-1.25473256005e-08
2.27119854122e-07
-1.14200046382e-08
2.27292216977e-07
-1.03596195053e-08
2.274609312e-07
-9.36419746306e-09
2.27625278689e-07
-8.43072340886e-09
2.27784782857e-07
-7.55693549554e-09
2.27938915851e-07
-6.73966826195e-09
2.28087377369e-07
-5.97651378257e-09
2.28229807323e-07
-5.26427239067e-09
2.28366057544e-07
-4.60042659009e-09
2.28495908264e-07
-3.98156989101e-09
2.28619326883e-07
-3.40508695027e-09
2.28736186996e-07
-2.86796077284e-09
2.28846520718e-07
-2.36799922595e-09
2.28950263867e-07
-1.90259060598e-09
2.29047523872e-07
-1.46963044806e-09
2.29138365008e-07
-1.06649338172e-09
2.29223024091e-07
-6.91312525547e-10
2.29301680494e-07
-3.41294708606e-10
2.29374683647e-07
-1.41441863536e-11
2.29442272842e-07
2.92164086609e-10
2.29504793938e-07
5.79261950072e-10
2.29562569624e-07
8.47985111441e-10
2.29616072223e-07
1.099637926e-09
2.29666151348e-07
1.3362248835e-09
2.29713789822e-07
1.55760829898e-09
2.29760036289e-07
1.76297924958e-09
2.29806840785e-07
1.95106007204e-09
2.29856192543e-07
2.11966890717e-09
2.29911593126e-07
2.26469939329e-09
2.29977609391e-07
2.37946693836e-09
2.30060467281e-07
2.45374550092e-09
2.30168888457e-07
2.47316602152e-09
2.30313954804e-07
2.41797382334e-09
2.30508506877e-07
2.2629350166e-09
2.3076560967e-07
1.9806240227e-09
2.310918922e-07
1.54970335701e-09
2.31467472236e-07
9.80487903584e-10
2.31802461466e-07
3.91725776849e-10
2.31899105795e-07
2.31416040806e-07
-1.14960939449e-09
2.30386918788e-07
-2.26245109308e-09
2.30416536677e-07
-3.44267428435e-09
2.30531830587e-07
-4.63717612768e-09
2.30670521903e-07
-5.85103315999e-09
2.30819278026e-07
-7.08665235839e-09
2.30978315272e-07
-8.3512496635e-09
2.31150309738e-07
-9.64788107011e-09
2.31337793357e-07
-1.09837809322e-08
2.31541883565e-07
-1.23615757865e-08
2.31763188047e-07
-1.37875666535e-08
2.32000887273e-07
-1.52633974187e-08
2.32254006483e-07
-1.67941338707e-08
2.3252037827e-07
-1.83803356981e-08
2.32798049122e-07
-2.00255600679e-08
2.33084185667e-07
-2.1729020646e-08
2.33376383274e-07
-2.34925854541e-08
2.33671615391e-07
-2.53141315351e-08
2.33967398537e-07
-2.71939690394e-08
2.3426082516e-07
-2.91288257171e-08
2.34549573859e-07
-3.11176703632e-08
2.34831029504e-07
-3.31562979045e-08
2.35103153246e-07
-3.52425408517e-08
2.35363682977e-07
-3.73714459109e-08
2.35610885249e-07
-3.95398636487e-08
2.35842829529e-07
-4.17422235264e-08
2.36058046539e-07
-4.39744922227e-08
2.3625487174e-07
-4.62305618111e-08
2.36432030377e-07
-4.85055692838e-08
2.36588047377e-07
-5.07929125434e-08
2.36721775492e-07
-5.30869285209e-08
2.36831868744e-07
-5.5380545904e-08
2.36917263987e-07
-5.76673275344e-08
2.36976714899e-07
-5.99397598627e-08
2.370092341e-07
-6.21906762443e-08
2.37013684008e-07
-6.44121718941e-08
2.36989182888e-07
-6.65964358989e-08
2.36934748611e-07
-6.8735268135e-08
2.36849670414e-07
-7.08203580772e-08
2.36733200346e-07
-7.28433663458e-08
2.36584889635e-07
-7.47956956438e-08
2.36404321467e-07
-7.66690872302e-08
2.36191410154e-07
-7.84549335814e-08
2.35946167734e-07
-8.01453270255e-08
2.35668961906e-07
-8.17319647329e-08
2.35360307853e-07
-8.32075831727e-08
2.35021081923e-07
-8.45645086905e-08
2.34652332238e-07
-8.57964039472e-08
2.3425544943e-07
-8.6896508506e-08
2.33831996853e-07
-8.78596269642e-08
2.33383844682e-07
-8.86801096297e-08
2.32913015082e-07
-8.93540280372e-08
2.32421774289e-07
-8.98769523162e-08
2.31912488337e-07
-9.02462808101e-08
2.31387688421e-07
-9.04589021041e-08
2.30849978368e-07
-9.05134459349e-08
2.30302124801e-07
-9.04076631586e-08
2.29746658313e-07
-9.01277665366e-08
2.29189501289e-07
-8.96860191277e-08
2.28630841555e-07
-8.91036307248e-08
2.28073802904e-07
-8.83722238947e-08
2.27526940532e-07
-8.74942457931e-08
2.269921535e-07
-8.6474307765e-08
2.26470793445e-07
-8.53181633791e-08
2.25964630633e-07
-8.40300921515e-08
2.25475601089e-07
-8.26158620808e-08
2.25005662813e-07
-8.10801476801e-08
2.24556705073e-07
-7.94294132332e-08
2.2413046898e-07
-7.76691908068e-08
2.23728544548e-07
-7.58069066745e-08
2.23352325906e-07
-7.38490801622e-08
2.23003051314e-07
-7.18041275139e-08
2.22681763146e-07
-6.96795167396e-08
2.22389369165e-07
-6.74845611605e-08
2.22126592318e-07
-6.52275495244e-08
2.21894042162e-07
-6.29185265838e-08
2.21692147788e-07
-6.05664087335e-08
2.21521234519e-07
-5.81817410729e-08
2.21381438197e-07
-5.57738068281e-08
2.21272785831e-07
-5.33533480293e-08
2.21195092733e-07
-5.09296788101e-08
2.2114804816e-07
-4.85133594598e-08
2.21131099085e-07
-4.61133295734e-08
2.21143544001e-07
-4.37395309716e-08
2.2118440963e-07
-4.14000839564e-08
2.21252558162e-07
-3.91038619156e-08
2.21346565145e-07
-3.68577406347e-08
2.21464846493e-07
-3.46691324882e-08
2.21605546043e-07
-3.25433394027e-08
2.21766687237e-07
-3.04860526464e-08
2.21946075218e-07
-2.85008327219e-08
2.22141472215e-07
-2.65915711233e-08
2.2235051108e-07
-2.47601061668e-08
2.22570883669e-07
-2.3008630404e-08
2.22800252514e-07
-2.13374370103e-08
2.23036433834e-07
-1.97472473663e-08
2.23277292051e-07
-1.82370763542e-08
2.23520904943e-07
-1.68064588623e-08
2.23765437542e-07
-1.54534282051e-08
2.24009290784e-07
-1.41766260294e-08
2.24250962548e-07
-1.29733874546e-08
2.24489187631e-07
-1.18417237693e-08
2.24722794257e-07
-1.07785159723e-08
2.24950837954e-07
-9.78136870671e-09
2.25172454028e-07
-8.84691330597e-09
2.25386984561e-07
-7.97253009229e-09
2.25593830885e-07
-7.15476071498e-09
2.25792578173e-07
-6.39089689336e-09
2.25982851893e-07
-5.67749857797e-09
2.26164439501e-07
-5.01184375131e-09
2.26337149978e-07
-4.39055895264e-09
2.26500928783e-07
-3.8110035031e-09
2.26655716711e-07
-3.27005946348e-09
2.26801565539e-07
-2.76534442e-09
2.26938518559e-07
-2.29404517046e-09
2.27066732868e-07
-1.85396315221e-09
2.27186367933e-07
-1.44248168544e-09
2.27297696302e-07
-1.05755893641e-09
2.27400986842e-07
-6.96748664756e-10
2.27496616818e-07
-3.58159805069e-10
2.27584978054e-07
-3.97541187334e-11
2.27666586326e-07
2.599034391e-10
2.27742021149e-07
5.42236661808e-10
2.27812065125e-07
8.07311845472e-10
2.27877687214e-07
1.05738721678e-09
2.27940078117e-07
1.2940383123e-09
2.28001012148e-07
1.51537877507e-09
2.28062911616e-07
1.71960183519e-09
2.28128779613e-07
1.90440773395e-09
2.28203139681e-07
2.06563969619e-09
2.28292249814e-07
2.19696294872e-09
2.28404586302e-07
2.288564301e-09
2.28552159096e-07
2.32603352392e-09
2.28750435983e-07
2.28985593267e-09
2.29018254043e-07
2.15463016714e-09
2.2937476301e-07
1.89206001781e-09
2.29830324452e-07
1.48117659359e-09
2.30355739511e-07
9.40406528684e-10
2.30818243698e-07
3.84541229178e-10
2.30952647697e-07
2.30331477995e-07
-1.56689701754e-09
2.32223246063e-07
-3.07495179257e-09
2.32269666205e-07
-4.66062020644e-09
2.3239033867e-07
-6.25434841721e-09
2.32535408124e-07
-7.86217786029e-09
2.3269511064e-07
-9.48680157037e-09
2.32869815278e-07
-1.11350419268e-08
2.33062048664e-07
-1.28090128009e-08
2.33273704658e-07
-1.45147515894e-08
2.33505883099e-07
-1.62535067631e-08
2.33758672168e-07
-1.80303304718e-08
2.34031247245e-07
-1.98456214458e-08
2.34322118707e-07
-2.1703249645e-08
2.34629080595e-07
-2.36027002554e-08
2.34949562737e-07
-2.55465563672e-08
2.35280534891e-07
-2.75332612647e-08
2.35618858759e-07
-2.95640246597e-08
2.35961167671e-07
-3.16362148614e-08
2.36304161132e-07
-3.37496925844e-08
2.36644489537e-07
-3.59008095876e-08
2.36978966334e-07
-3.80881635351e-08
2.37304471256e-07
-4.03071869608e-08
2.37618079158e-07
-4.2555314073e-08
2.37916987706e-07
-4.48271599267e-08
2.38198575279e-07
-4.7119087024e-08
2.3846035731e-07
-4.94249874025e-08
2.38699992036e-07
-5.17402366904e-08
2.38915268639e-07
-5.40580978693e-08
2.3910407916e-07
-5.63730530447e-08
2.39264440363e-07
-5.86778462825e-08
2.39394447568e-07
-6.09661889581e-08
2.39492329529e-07
-6.32304512758e-08
2.3955639455e-07
-6.54637441902e-08
2.39585114593e-07
-6.76582567585e-08
2.39577069012e-07
-6.980672562e-08
2.39531050537e-07
-7.19013994718e-08
2.39446006433e-07
-7.39349145513e-08
2.39321156273e-07
-7.5899851317e-08
2.39155927155e-07
-7.77890422502e-08
2.38950072256e-07
-7.95956703421e-08
2.38703595306e-07
-8.13130431462e-08
2.38416860047e-07
-8.29351750737e-08
2.38090499595e-07
-8.44560724723e-08
2.37725507505e-07
-8.58707317423e-08
2.37323130061e-07
-8.71739847089e-08
2.36884944563e-07
-8.83618565303e-08
2.36412754032e-07
-8.94300427852e-08
2.35908659029e-07
-9.03755704136e-08
2.35374934182e-07
-9.11949689815e-08
2.34814056266e-07
-9.18861890152e-08
2.34228552925e-07
-9.24465197815e-08
2.33621026772e-07
-9.2874673187e-08
2.32994060777e-07
-9.31684598812e-08
2.32350338013e-07
-9.33269626951e-08
2.31692677264e-07
-9.33479782694e-08
2.310242049e-07
-9.32308280142e-08
2.30348421624e-07
-9.29618117993e-08
2.29670576882e-07
-9.25445021298e-08
2.28994900058e-07
-9.19971114001e-08
2.28326607715e-07
-9.13177163147e-08
2.27668751043e-07
-9.05037421804e-08
2.27023732286e-07
-8.95560493451e-08
2.26393836896e-07
-8.84754855217e-08
2.25781128879e-07
-8.72652188325e-08
2.25187543697e-07
-8.59277696588e-08
2.24614969696e-07
-8.44676630817e-08
2.24065197625e-07
-8.28885576941e-08
2.23539936226e-07
-8.119601683e-08
2.23040773657e-07
-7.93946509385e-08
2.22569202446e-07
-7.74909497082e-08
2.22126592586e-07
-7.54904200606e-08
2.21714218516e-07
-7.34004548355e-08
2.21333233147e-07
-7.12274622124e-08
2.20984691575e-07
-6.89797507922e-08
2.20669522038e-07
-6.66646496788e-08
2.20388547041e-07
-6.42913898917e-08
2.20142451265e-07
-6.18682162558e-08
2.19931801913e-07
-5.94052441506e-08
2.1975701347e-07
-5.69115643049e-08
2.19618367773e-07
-5.43980509618e-08
2.19515974281e-07
-5.18744587787e-08
2.19449788788e-07
-4.93521567163e-08
2.19419566903e-07
-4.68412172234e-08
2.19424879953e-07
-4.43530543384e-08
2.19465060536e-07
-4.18975145848e-08
2.19539216166e-07
-3.94854137237e-08
2.19646169535e-07
-3.7125659162e-08
2.19784475679e-07
-3.4827704393e-08
2.19952366206e-07
-3.25987564045e-08
2.20147782165e-07
-3.04461889047e-08
2.20368337049e-07
-2.83749008683e-08
2.20611380347e-07
-2.63897330538e-08
2.20873993054e-07
-2.44930311188e-08
2.21153090457e-07
-2.26870824503e-08
2.2144545299e-07
-2.09718898331e-08
2.21747862573e-07
-1.93475892493e-08
2.22057154688e-07
-1.78123858937e-08
2.22370361417e-07
-1.63648831214e-08
2.22684745008e-07
-1.50021251492e-08
2.22997897553e-07
-1.37217798295e-08
2.23307711299e-07
-1.25202538352e-08
2.23612414392e-07
-1.13947101417e-08
2.23910494084e-07
-1.03412641778e-08
2.24200711155e-07
-9.3568472686e-09
2.24482023448e-07
-8.43749707116e-09
2.24753610915e-07
-7.5800783181e-09
2.25014808791e-07
-6.78068203059e-09
2.25265134155e-07
-6.03621253537e-09
2.25504218001e-07
-5.34289943202e-09
2.25731833006e-07
-4.69775529975e-09
2.25947831988e-07
-4.09720801025e-09
2.26152180981e-07
-3.5384455917e-09
2.26344902418e-07
-3.01817234297e-09
2.2652611077e-07
-2.53381956691e-09
2.26695961351e-07
-2.08239713643e-09
2.26854691357e-07
-1.66157035008e-09
2.27002574964e-07
-1.26862806436e-09
2.27139965506e-07
-9.01456944624e-10
2.27267254623e-07
-5.57629578147e-10
2.27384919544e-07
-2.35290007704e-10
2.2749349344e-07
6.76136473256e-11
2.27593629401e-07
3.52553624768e-10
2.27686095509e-07
6.21085966268e-10
2.27771887492e-07
8.72789920968e-10
2.2785203456e-07
1.11060444431e-09
2.27928329257e-07
1.33593654442e-09
2.2800304727e-07
1.54661987084e-09
2.2807914513e-07
1.74132607229e-09
2.28160540888e-07
1.91769737461e-09
2.28252930843e-07
2.07166738075e-09
2.28364100571e-07
2.1968230505e-09
2.28504966556e-07
2.2833628309e-09
2.28690794168e-07
2.31681166949e-09
2.2894173804e-07
2.27754005947e-09
2.29282373297e-07
2.1392372133e-09
2.29738648338e-07
1.8729294108e-09
2.30324353024e-07
1.45991742352e-09
2.30997276687e-07
9.27073602461e-10
2.31576921086e-07
3.84303800213e-10
2.31743178239e-07
2.30995373629e-07
-1.89050520479e-09
2.34121005729e-07
-3.70958748037e-09
2.34176829928e-07
-5.61414333893e-09
2.34298709138e-07
-7.52275738598e-09
2.34447687566e-07
-9.44203653467e-09
2.34616288851e-07
-1.13744933156e-08
2.34804591632e-07
-1.33265885947e-08
2.35014454658e-07
-1.52994539918e-08
2.35247022422e-07
-1.72981689574e-08
2.35502831014e-07
-1.93227669681e-08
2.35781349837e-07
-2.13769629972e-08
2.36081422212e-07
-2.34597694135e-08
2.36401043728e-07
-2.55736644151e-08
2.36737712508e-07
-2.77167273933e-08
2.37088386129e-07
-2.98902098769e-08
2.37449713009e-07
-3.20912931094e-08
2.37818045525e-07
-3.43200299942e-08
2.38189622727e-07
-3.6572728906e-08
2.38560569628e-07
-3.88482955891e-08
2.38927059345e-07
-4.11422181387e-08
2.39285268682e-07
-4.34523289317e-08
2.39631534151e-07
-4.57733786694e-08
2.39962256904e-07
-4.81022219679e-08
2.40274062001e-07
-5.04329855453e-08
2.4056365926e-07
-5.27616687564e-08
2.4082801311e-07
-5.50819218277e-08
2.41064172971e-07
-5.73890461233e-08
2.4126945883e-07
-5.96764006203e-08
2.41441275484e-07
-6.19387852616e-08
2.41577315691e-07
-6.41694884348e-08
2.41675369781e-07
-6.63630395505e-08
2.41733543777e-07
-6.85128992163e-08
2.41750070487e-07
-7.06135734102e-08
2.41723535602e-07
-7.26589342952e-08
2.41652691495e-07
-7.46436980023e-08
2.41536681326e-07
-7.65623505812e-08
2.41374853413e-07
-7.84100035746e-08
2.41166973065e-07
-8.01818887145e-08
2.40913035118e-07
-8.18736219201e-08
2.40613454401e-07
-8.34812216685e-08
2.40268872081e-07
-8.5000823174e-08
2.39880319768e-07
-8.6429176965e-08
2.3944903397e-07
-8.77628823285e-08
2.38976612096e-07
-8.89993128355e-08
2.38464830328e-07
-9.01354254957e-08
2.3791573984e-07
-9.11690838549e-08
2.37331429932e-07
-9.20975409034e-08
2.36714065753e-07
-9.2919056717e-08
2.36065724283e-07
-9.36310176404e-08
2.35388645955e-07
-9.42317886107e-08
2.34685437967e-07
-9.471862482e-08
2.33959549057e-07
-9.50897309649e-08
2.33215336008e-07
-9.5341904963e-08
2.3245794097e-07
-9.54727973638e-08
2.3169265221e-07
-9.54785141015e-08
2.3092433623e-07
-9.53500037227e-08
2.30156754058e-07
-9.50756306835e-08
2.29394809629e-07
-9.46692345099e-08
2.28639529739e-07
-9.41398541484e-08
2.27891622561e-07
-9.34812251327e-08
2.27153296724e-07
-9.26915700194e-08
2.26426223611e-07
-9.17714428329e-08
2.25712385643e-07
-9.07210012859e-08
2.25013999156e-07
-8.95426687018e-08
2.24333402079e-07
-8.82381204285e-08
2.23672995261e-07
-8.68110071812e-08
2.23035192645e-07
-8.52639830948e-08
2.22422380917e-07
-8.36015678175e-08
2.21836886484e-07
-8.18272035698e-08
2.21280935656e-07
-7.99461995125e-08
2.20756634898e-07
-7.79627831583e-08
2.20265936412e-07
-7.58830790854e-08
2.19810632957e-07
-7.37121432e-08
2.1939233034e-07
-7.14569526618e-08
2.19012453091e-07
-6.91234331702e-08
2.18672221339e-07
-6.67194512473e-08
2.18372662195e-07
-6.42518541317e-08
2.1811458839e-07
-6.17294587279e-08
2.17898611551e-07
-5.91601237293e-08
2.17725121459e-07
-5.65537242678e-08
2.1759429931e-07
-5.39192665679e-08
2.17506097682e-07
-5.12678222417e-08
2.17460252828e-07
-4.8609674367e-08
2.17456265505e-07
-4.5957158582e-08
2.17493410838e-07
-4.33217984508e-08
2.17570718358e-07
-4.07169724223e-08
2.17686975845e-07
-3.81549773698e-08
2.17840705077e-07
-3.56494458742e-08
2.18030156654e-07
-3.32123144453e-08
2.1825328268e-07
-3.08559990463e-08
2.18507729858e-07
-2.85903651286e-08
2.18790824167e-07
-2.64248123406e-08
2.19099581874e-07
-2.43654635349e-08
2.1943072453e-07
-2.24173668683e-08
2.19780718701e-07
-2.05820829858e-08
2.20145823973e-07
-1.88600987184e-08
2.20522162218e-07