/*--------------------------------*- C++ -*----------------------------------*\
| =========                 |                                                 |
| \\      /  F ield         | OpenFOAM: The Open Source CFD Toolbox           |
|  \\    /   O peration     | Version:  2206                                  |
|   \\  /    A nd           | Website:  www.openfoam.com                      |
|    \\/     M anipulation  |                                                 |
\*---------------------------------------------------------------------------*/
FoamFile
{
    version     2.0;
    format      ascii;
    arch        "LSB;label=64;scalar=64";
    class       volVectorField;
    location    "838800";
    object      U;
}
// * * * * * * * * * * * * * * * * * * * * * * * * * * * * * * * * * * * * * //

dimensions      [0 1 -1 0 0 0 0];

internalField   nonuniform List<vector> 
16
(
(-1.62583e-09 -3.72934e-08 0)
(1.24617e-07 -2.86881e-08 0)
(9.971e-08 3.6437e-08 0)
(-2.44656e-08 3.08177e-08 0)
(-7.68144e-09 -8.18582e-08 0)
(2.06713e-08 -7.94381e-08 0)
(-7.06825e-09 1.19297e-07 0)
(-3.26735e-08 4.08577e-08 0)
(1.47972e-08 -5.22645e-08 0)
(-8.42548e-08 -2.98212e-08 0)
(-7.58507e-08 9.0223e-08 0)
(2.1773e-08 -8.02435e-09 0)
(-5.2821e-09 -1.2799e-08 0)
(-6.11677e-08 1.41492e-08 0)
(-1.67828e-08 1.14821e-08 0)
(3.63408e-08 -1.24099e-08 0)
)
;

boundaryField
{
    movingWall
    {
        type            noSlip;
    }
    fixedWalls
    {
        type            noSlip;
    }
    frontAndBack
    {
        type            empty;
    }
}


// ************************************************************************* //
