/*--------------------------------*- C++ -*----------------------------------*\
| =========                 |                                                 |
| \\      /  F ield         | OpenFOAM: The Open Source CFD Toolbox           |
|  \\    /   O peration     | Version:  2212                                  |
|   \\  /    A nd           | Website:  www.openfoam.com                      |
|    \\/     M anipulation  |                                                 |
\*---------------------------------------------------------------------------*/
FoamFile
{
    version     2.0;
    format      ascii;
    arch        "LSB;label=64;scalar=64";
    class       surfaceScalarField;
    location    "0.79";
    object      phi;
}
// * * * * * * * * * * * * * * * * * * * * * * * * * * * * * * * * * * * * * //

dimensions      [0 3 -1 0 0 0 0];

oriented        oriented;

internalField   nonuniform List<scalar> 
65152
(
-2.56366e-15
2.56353e-15
-2.18924e-13
2.1636e-13
-6.77852e-13
4.58928e-13
-1.30804e-12
6.30191e-13
-2.01333e-12
7.05288e-13
-2.7146e-12
7.01268e-13
-3.36579e-12
6.51192e-13
-3.95165e-12
5.85858e-13
-4.47698e-12
5.25329e-13
-4.95527e-12
4.78298e-13
-5.40075e-12
4.4548e-13
-5.82445e-12
4.23699e-13
-6.23334e-12
4.08888e-13
-6.63097e-12
3.97631e-13
-7.01858e-12
3.87614e-13
-7.39609e-12
3.77504e-13
-7.76273e-12
3.66644e-13
-8.1175e-12
3.54774e-13
-8.45934e-12
3.41832e-13
-8.78718e-12
3.27841e-13
-9.10002e-12
3.12848e-13
-9.39692e-12
2.969e-13
-9.67696e-12
2.80038e-13
-9.93925e-12
2.62295e-13
-1.01829e-11
2.43697e-13
-1.04072e-11
2.24265e-13
-1.06112e-11
2.04017e-13
-1.07942e-11
1.82972e-13
-1.09553e-11
1.61151e-13
-1.10939e-11
1.38581e-13
-1.12092e-11
1.15298e-13
-1.13006e-11
9.13528e-14
-1.13674e-11
6.68109e-14
-1.14091e-11
4.17563e-14
-1.14254e-11
1.62863e-14
-1.14158e-11
-9.6044e-15
-1.138e-11
-3.58318e-14
-1.13176e-11
-6.24036e-14
-1.12283e-11
-8.92449e-14
-1.1112e-11
-1.16282e-13
-1.09686e-11
-1.43447e-13
-1.07979e-11
-1.70666e-13
-1.06e-11
-1.97861e-13
-1.03751e-11
-2.24945e-13
-1.01232e-11
-2.51826e-13
-9.84483e-12
-2.784e-13
-9.54026e-12
-3.04563e-13
-9.21006e-12
-3.30201e-13
-8.85485e-12
-3.55201e-13
-8.4754e-12
-3.79444e-13
-8.07258e-12
-4.02811e-13
-7.64739e-12
-4.25183e-13
-7.20094e-12
-4.46443e-13
-6.73446e-12
-4.66473e-13
-6.24929e-12
-4.85163e-13
-5.74688e-12
-5.02404e-13
-5.22878e-12
-5.18096e-13
-4.69663e-12
-5.32138e-13
-4.15219e-12
-5.44439e-13
-3.59727e-12
-5.54911e-13
-3.03379e-12
-5.63475e-13
-2.46372e-12
-5.70065e-13
-1.88907e-12
-5.74636e-13
-1.3119e-12
-5.77169e-13
-7.34216e-13
-5.77673e-13
-1.58021e-13
-5.76187e-13
4.14759e-13
-5.72772e-13
9.82299e-13
-5.67531e-13
1.5429e-12
-5.60593e-13
2.09495e-12
-5.52045e-13
2.63691e-12
-5.4195e-13
3.16729e-12
-5.30366e-13
3.68463e-12
-5.17332e-13
4.18753e-12
-5.02889e-13
4.67463e-12
-4.87095e-13
5.14466e-12
-4.70014e-13
5.59639e-12
-4.51724e-13
6.02871e-12
-4.32305e-13
6.44057e-12
-4.11846e-13
6.83102e-12
-3.90438e-13
7.1992e-12
-3.68173e-13
7.54436e-12
-3.45143e-13
7.86581e-12
-3.21441e-13
8.16298e-12
-2.97157e-13
8.43538e-12
-2.72377e-13
8.68257e-12
-2.47182e-13
8.90424e-12
-2.21653e-13
9.10012e-12
-1.9586e-13
9.27001e-12
-1.69878e-13
9.4138e-12
-1.43775e-13
9.53145e-12
-1.17627e-13
9.62297e-12
-9.15097e-14
9.68851e-12
-6.55153e-14
9.72827e-12
-3.97477e-14
9.74264e-12
-1.43443e-14
9.73184e-12
1.08129e-14
9.69668e-12
3.51789e-14
9.63773e-12
5.89774e-14
9.55565e-12
8.2096e-14
9.45119e-12
1.04477e-13
9.32513e-12
1.26087e-13
9.17824e-12
1.46911e-13
9.01132e-12
1.66938e-13
8.82518e-12
1.86162e-13
8.62063e-12
2.04575e-13
8.39848e-12
2.22165e-13
8.1596e-12
2.3891e-13
7.90484e-12
2.54781e-13
7.63512e-12
2.69738e-13
7.35142e-12
2.83731e-13
7.05473e-12
2.96709e-13
6.74611e-12
3.08648e-13
6.42653e-12
3.19604e-13
6.09671e-12
3.29841e-13
5.75672e-12
3.40021e-13
5.40524e-12
3.51505e-13
5.03861e-12
3.66659e-13
4.64965e-12
3.88984e-13
4.227e-12
4.22676e-13
3.75595e-12
4.71082e-13
3.22227e-12
5.33701e-13
2.62018e-12
6.02117e-13
1.96354e-12
6.5667e-13
1.29631e-12
6.67255e-13
6.94278e-13
6.0206e-13
2.4837e-13
4.45938e-13
2.40494e-14
2.24352e-13
2.40563e-14
-2.64936e-13
2.675e-13
-1.06245e-12
1.01388e-12
-2.27843e-12
1.6749e-12
-3.74242e-12
2.09419e-12
-5.28088e-12
2.24375e-12
-6.76209e-12
2.18248e-12
-8.11352e-12
2.00263e-12
-9.3152e-12
1.78754e-12
-1.03809e-11
1.59107e-12
-1.13391e-11
1.4364e-12
-1.22187e-11
1.32509e-12
-1.3043e-11
1.24805e-12
-1.38277e-11
1.19359e-12
-1.45818e-11
1.15174e-12
-1.53097e-11
1.11551e-12
-1.60129e-11
1.08068e-12
-1.66912e-11
1.04498e-12
-1.73438e-11
1.00734e-12
-1.79693e-11
9.67322e-13
-1.85662e-11
9.24815e-13
-1.91332e-11
8.79821e-13
-1.96687e-11
8.32394e-13
-2.01713e-11
7.82591e-13
-2.06394e-11
7.30471e-13
-2.10718e-11
6.76084e-13
-2.1467e-11
6.19478e-13
-2.18237e-11
5.60697e-13
-2.21405e-11
4.99791e-13
-2.24162e-11
4.36809e-13
-2.26494e-11
3.71816e-13
-2.2839e-11
3.04888e-13
-2.29838e-11
2.36127e-13
-2.30826e-11
1.65665e-13
-2.31345e-11
9.36663e-14
-2.31385e-11
2.03191e-14
-2.3094e-11
-5.41691e-14
-2.30002e-11
-1.29619e-13
-2.28568e-11
-2.05812e-13
-2.26634e-11
-2.82594e-13
-2.24199e-11
-3.59813e-13
-2.2126e-11
-4.37307e-13
-2.17818e-11
-5.14888e-13
-2.13873e-11
-5.92346e-13
-2.09428e-11
-6.69441e-13
-2.04487e-11
-7.45911e-13
-1.99056e-11
-8.21475e-13
-1.93143e-11
-8.95833e-13
-1.86758e-11
-9.68671e-13
-1.79914e-11
-1.03967e-12
-1.72623e-11
-1.10849e-12
-1.64903e-11
-1.17481e-12
-1.56772e-11
-1.23828e-12
-1.48251e-11
-1.29857e-12
-1.39362e-11
-1.35537e-12
-1.3013e-11
-1.40835e-12
-1.20582e-11
-1.45722e-12
-1.10746e-11
-1.50168e-12
-1.00652e-11
-1.54148e-12
-9.03327e-12
-1.57637e-12
-7.98204e-12
-1.60613e-12
-6.91491e-12
-1.63059e-12
-5.83535e-12
-1.64961e-12
-4.74687e-12
-1.66312e-12
-3.65294e-12
-1.67109e-12
-2.55701e-12
-1.67359e-12
-1.46244e-12
-1.67074e-12
-3.72511e-13
-1.66269e-12
7.0957e-13
-1.6496e-12
1.78061e-12
-1.63162e-12
2.8376e-12
-1.60903e-12
3.87778e-12
-1.58211e-12
4.89846e-12
-1.55103e-12
5.89702e-12
-1.51588e-12
6.87091e-12
-1.47677e-12
7.81769e-12
-1.43386e-12
8.735e-12
-1.38731e-12
9.62061e-12
-1.33733e-12
1.04724e-11
-1.28413e-12
1.12886e-11
-1.22794e-12
1.20671e-11
-1.16901e-12
1.28066e-11
-1.10758e-12
1.35053e-11
-1.04389e-12
1.41621e-11
-9.78196e-13
1.47757e-11
-9.10736e-13
1.53451e-11
-8.41747e-13
1.58694e-11
-7.71455e-13
1.63478e-11
-7.00079e-13
1.67798e-11
-6.2783e-13
1.71649e-11
-5.54915e-13
1.75027e-11
-4.81538e-13
1.7793e-11
-4.07909e-13
1.80357e-11
-3.34244e-13
1.8231e-11
-2.60774e-13
1.8379e-11
-1.8774e-13
1.84801e-11
-1.15395e-13
1.85349e-11
-4.40207e-14
1.85443e-11
2.58995e-14
1.85089e-11
9.43619e-14
1.84302e-11
1.60856e-13
1.83093e-11
2.25331e-13
1.81477e-11
2.87721e-13
1.79467e-11
3.47999e-13
1.77075e-11
4.06155e-13
1.74315e-11
4.62181e-13
1.712e-11
5.16067e-13
1.67744e-11
5.67795e-13
1.6396e-11
6.17329e-13
1.59862e-11
6.64625e-13
1.55464e-11
7.09626e-13
1.50778e-11
7.52277e-13
1.4582e-11
7.92562e-13
1.40601e-11
8.30596e-13
1.35129e-11
8.66801e-13
1.29406e-11
9.02255e-13
1.23413e-11
9.39258e-13
1.17108e-11
9.82118e-13
1.10395e-11
1.03796e-12
1.03115e-11
1.11703e-12
9.50287e-12
1.23133e-12
8.58354e-12
1.39045e-12
7.52393e-12
1.59334e-12
6.30857e-12
1.81751e-12
4.95521e-12
2.01007e-12
3.53317e-12
2.08932e-12
2.16915e-12
1.96611e-12
1.02849e-12
1.58664e-12
2.70139e-13
9.82735e-13
2.94202e-13
-3.45694e-13
6.13194e-13
-1.29498e-12
1.96316e-12
-2.66865e-12
3.04857e-12
-4.25625e-12
3.68178e-12
-5.86629e-12
3.85379e-12
-7.36312e-12
3.67931e-12
-8.67839e-12
3.3179e-12
-9.80021e-12
2.90935e-12
-1.07517e-11
2.54258e-12
-1.15701e-11
2.25482e-12
-1.22923e-11
2.0473e-12
-1.29477e-11
1.90346e-12
-1.35567e-11
1.80255e-12
-1.41318e-11
1.7268e-12
-1.46799e-11
1.66361e-12
-1.52043e-11
1.60517e-12
-1.57065e-11
1.54715e-12
-1.61865e-11
1.48733e-12
-1.66439e-11
1.42474e-12
-1.70781e-11
1.35896e-12
-1.74881e-11
1.28987e-12
-1.78732e-11
1.21748e-12
-1.82324e-11
1.14182e-12
-1.85649e-11
1.06294e-12
-1.88697e-11
9.80909e-13
-1.9146e-11
8.9578e-13
-1.93929e-11
8.07624e-13
-1.96097e-11
7.16511e-13
-1.97954e-11
6.22522e-13
-1.99493e-11
5.25746e-13
-2.00707e-11
4.26283e-13
-2.01588e-11
3.24253e-13
-2.02129e-11
2.19794e-13
-2.02323e-11
1.13076e-13
-2.02163e-11
4.26132e-15
-2.01642e-11
-1.06217e-13
-2.00756e-11
-2.18179e-13
-1.99501e-11
-3.31339e-13
-1.97872e-11
-4.45503e-13
-1.95865e-11
-5.60466e-13
-1.93479e-11
-6.75986e-13
-1.90709e-11
-7.91781e-13
-1.87558e-11
-9.07528e-13
-1.84023e-11
-1.02286e-12
-1.80108e-11
-1.13739e-12
-1.75816e-11
-1.25068e-12
-1.71152e-11
-1.36228e-12
-1.66121e-11
-1.47172e-12
-1.60733e-11
-1.57848e-12
-1.54997e-11
-1.68208e-12
-1.48925e-11
-1.78198e-12
-1.42531e-11
-1.87768e-12
-1.3583e-11
-1.96866e-12
-1.28839e-11
-2.05441e-12
-1.21578e-11
-2.13444e-12
-1.14068e-11
-2.20828e-12
-1.06329e-11
-2.2755e-12
-9.83871e-12
-2.3357e-12
-9.02653e-12
-2.38854e-12
-8.19891e-12
-2.43374e-12
-7.3584e-12
-2.47109e-12
-6.50754e-12
-2.50047e-12
-5.64881e-12
-2.52184e-12
-4.78464e-12
-2.53525e-12
-3.91736e-12
-2.54086e-12
-3.04925e-12
-2.53884e-12
-2.18251e-12
-2.52942e-12
-1.31926e-12
-2.51284e-12
-4.61536e-13
-2.48933e-12
3.88569e-13
-2.45912e-12
1.22887e-12
-2.4224e-12
2.05722e-12
-2.37937e-12
2.87163e-12
-2.33028e-12
3.67019e-12
-2.27532e-12
4.45104e-12
-2.2147e-12
5.21242e-12
-2.14867e-12
5.9526e-12
-2.07749e-12
6.66997e-12
-2.00148e-12
7.36299e-12
-1.92095e-12
8.03024e-12
-1.83624e-12
8.6704e-12
-1.74771e-12
9.28223e-12
-1.6557e-12
9.86462e-12
-1.56057e-12
1.04165e-11
-1.46265e-12
1.09371e-11
-1.36228e-12
1.14255e-11
-1.25981e-12
1.1881e-11
-1.15555e-12
1.2303e-11
-1.04983e-12
1.26911e-11
-9.42978e-13
1.30449e-11
-8.35313e-13
1.33642e-11
-7.27178e-13
1.36489e-11
-6.18925e-13
1.3899e-11
-5.10915e-13
1.41148e-11
-4.03517e-13
1.42966e-11
-2.971e-13
1.44446e-11
-1.9203e-13
1.45592e-11
-8.86564e-14
1.46409e-11
1.27119e-14
1.469e-11
1.11713e-13
1.47074e-11
2.07967e-13
1.46938e-11
3.01334e-13
1.46501e-11
3.91813e-13
1.45769e-11
4.79381e-13
1.4475e-11
5.64028e-13
1.43454e-11
6.45744e-13
1.41887e-11
7.24513e-13
1.40057e-11
8.00304e-13
1.37973e-11
8.73079e-13
1.35642e-11
9.42803e-13
1.3307e-11
1.00947e-12
1.30264e-11
1.0732e-12
1.27227e-11
1.13435e-12
1.23956e-11
1.19393e-12
1.20437e-11
1.25415e-12
1.16636e-11
1.3194e-12
1.12481e-11
1.39764e-12
1.07844e-11
1.50172e-12
1.02516e-11
1.64985e-12
9.61962e-12
1.86338e-12
8.85049e-12
2.15961e-12
7.90563e-12
2.53824e-12
6.7601e-12
2.96308e-12
5.42343e-12
3.34677e-12
3.9606e-12
3.55219e-12
2.50178e-12
3.42497e-12
1.22919e-12
2.85926e-12
3.39238e-13
1.87272e-12
6.33447e-13
-3.06272e-13
9.19466e-13
-1.16438e-12
2.82127e-12
-2.40061e-12
4.2848e-12
-3.80387e-12
5.08505e-12
-5.18594e-12
5.23586e-12
-6.41856e-12
4.91193e-12
-7.44247e-12
4.34181e-12
-8.25448e-12
3.72136e-12
-8.88494e-12
3.17304e-12
-9.37659e-12
2.74647e-12
-9.77027e-12
2.44098e-12
-1.00983e-11
2.23147e-12
-1.03831e-11
2.08737e-12
-1.06389e-11
1.9826e-12
-1.0874e-11
1.89868e-12
-1.10929e-11
1.82405e-12
-1.12979e-11
1.75217e-12
-1.14902e-11
1.67964e-12
-1.16703e-11
1.60482e-12
-1.18383e-11
1.52701e-12
-1.19944e-11
1.44591e-12
-1.21383e-11
1.36143e-12
-1.227e-11
1.27355e-12
-1.23894e-11
1.18231e-12
-1.24962e-11
1.08774e-12
-1.25904e-11
9.89903e-13
-1.26716e-11
8.88855e-13
-1.27398e-11
7.84678e-13
-1.27947e-11
6.7746e-13
-1.28362e-11
5.67301e-13
-1.28643e-11
4.54309e-13
-1.28786e-11
3.38599e-13
-1.28791e-11
2.20298e-13
-1.28656e-11
9.95476e-14
-1.28379e-11
-2.34086e-14
-1.27955e-11
-1.48602e-13
-1.27381e-11
-2.75558e-13
-1.26653e-11
-4.04175e-13
-1.25765e-11
-5.34238e-13
-1.24715e-11
-6.65498e-13
-1.23498e-11
-7.97663e-13
-1.22112e-11
-9.304e-13
-1.20554e-11
-1.06333e-12
-1.18822e-11
-1.19604e-12
-1.16915e-11
-1.32806e-12
-1.14833e-11
-1.45889e-12
-1.12576e-11
-1.588e-12
-1.10144e-11
-1.71483e-12
-1.07541e-11
-1.83878e-12
-1.0477e-11
-1.95925e-12
-1.01833e-11
-2.07562e-12
-9.87374e-12
-2.18725e-12
-9.54888e-12
-2.29351e-12
-9.2095e-12
-2.39378e-12
-8.85646e-12
-2.48747e-12
-8.49074e-12
-2.57399e-12
-8.1134e-12
-2.65283e-12
-7.72555e-12
-2.72354e-12
-7.32833e-12
-2.78575e-12
-6.92289e-12
-2.83918e-12
-6.51028e-12
-2.88369e-12
-6.0915e-12
-2.91924e-12
-5.66741e-12
-2.94592e-12
-5.23876e-12
-2.96389e-12
-4.80622e-12
-2.97339e-12
-4.37037e-12
-2.97468e-12
-3.93176e-12
-2.96802e-12
-3.49097e-12
-2.95362e-12
-3.04861e-12
-2.93168e-12
-2.60537e-12
-2.90235e-12
-2.16198e-12
-2.86578e-12
-1.71923e-12
-2.82211e-12
-1.27798e-12
-2.77152e-12
-8.39074e-13
-2.71421e-12
-4.03362e-13
-2.6504e-12
2.83306e-14
-2.58035e-12
4.55192e-13
-2.50434e-12
8.76421e-13
-2.42269e-12
1.29124e-12
-2.33576e-12
1.6989e-12
-2.24388e-12
2.09866e-12
-2.14746e-12
2.48982e-12
-2.04685e-12
2.87171e-12
-1.94244e-12
3.24369e-12
-1.8346e-12
3.60512e-12
-1.7237e-12
3.95543e-12
-1.6101e-12
4.29407e-12
-1.49417e-12
4.62055e-12
-1.37629e-12
4.93443e-12
-1.25684e-12
5.23536e-12
-1.13622e-12
5.52305e-12
-1.01485e-12
5.79734e-12
-8.93183e-13
6.05812e-12
-7.71679e-13
6.30543e-12
-6.50796e-13
6.53933e-12
-5.30977e-13
6.75995e-12
-4.12632e-13
6.96744e-12
-2.96118e-13
7.1619e-12
-1.81723e-13
7.34326e-12
-6.96233e-14
7.51119e-12
4.00705e-14
7.66573e-12
1.46815e-13
7.8068e-12
2.50765e-13
7.93447e-12
3.51745e-13
8.04877e-12
4.49754e-13
8.14974e-12
5.44797e-13
8.23742e-12
6.36862e-13
8.31182e-12
7.25935e-13
8.37292e-12
8.12005e-13
8.42067e-12
8.9508e-13
8.45494e-12
9.75237e-13
8.47543e-12
1.05274e-12
8.48154e-12
1.12827e-12
8.47204e-12
1.20346e-12
8.44452e-12
1.28171e-12
8.39432e-12
1.36964e-12
8.31299e-12
1.47901e-12
8.18606e-12
1.62868e-12
7.99064e-12
1.84531e-12
7.69375e-12
2.1603e-12
7.25358e-12
2.59981e-12
6.62612e-12
3.16574e-12
5.77934e-12
3.80989e-12
4.7142e-12
4.41194e-12
3.48663e-12
4.77979e-12
2.21933e-12
4.6923e-12
1.09086e-12
3.98777e-12
2.97329e-13
2.66629e-12
9.30783e-13
-2.6586e-13
1.18533e-12
-1.03075e-12
3.58616e-12
-2.13426e-12
5.38831e-12
-3.37204e-12
6.32283e-12
-4.56163e-12
6.42545e-12
-5.58126e-12
5.93156e-12
-6.37839e-12
5.13894e-12
-6.95582e-12
4.29879e-12
-7.34858e-12
3.5658e-12
-7.60269e-12
3.00058e-12
-7.76114e-12
2.59944e-12
-7.85757e-12
2.3279e-12
-7.91531e-12
2.14511e-12
-7.9492e-12
2.01649e-12
-7.96807e-12
1.91756e-12
-7.97698e-12
1.83297e-12
-7.9788e-12
1.75398e-12
-7.97518e-12
1.67602e-12
-7.96718e-12
1.59682e-12
-7.9555e-12
1.51533e-12
-7.94068e-12
1.43109e-12
-7.92316e-12
1.34391e-12
-7.9033e-12
1.2537e-12
-7.88141e-12
1.16043e-12
-7.85777e-12
1.06411e-12
-7.83261e-12
9.6475e-13
-7.80615e-12
8.62395e-13
-7.77856e-12
7.57094e-13
-7.75001e-12
6.4891e-13
-7.72063e-12
5.37922e-13
-7.69053e-12
4.24216e-13
-7.65981e-12
3.07881e-13
-7.62851e-12
1.8901e-13
-7.59667e-12
6.77073e-14
-7.56415e-12
-5.59191e-14
-7.53093e-12
-1.81818e-13
-7.49666e-12
-3.09817e-13
-7.46106e-12
-4.39769e-13
-7.42383e-12
-5.71463e-13
-7.38467e-12
-7.04648e-13
-7.34329e-12
-8.39034e-13
-7.29939e-12
-9.74289e-13
-7.25268e-12
-1.11004e-12
-7.20285e-12
-1.24586e-12
-7.1496e-12
-1.38129e-12
-7.09267e-12
-1.51582e-12
-7.03177e-12
-1.64889e-12
-6.96668e-12
-1.77991e-12
-6.8972e-12
-1.90826e-12
-6.82317e-12
-2.03327e-12
-6.74451e-12
-2.15427e-12
-6.66118e-12
-2.27058e-12
-6.57319e-12
-2.38149e-12
-6.48065e-12
-2.48632e-12
-6.3837e-12
-2.5844e-12
-6.28257e-12
-2.67512e-12
-6.17749e-12
-2.7579e-12
-6.06873e-12
-2.83229e-12
-5.95652e-12
-2.89794e-12
-5.84104e-12
-2.95465e-12
-5.72235e-12
-3.00236e-12
-5.6004e-12
-3.04119e-12
-5.47494e-12
-3.07136e-12
-5.34564e-12
-3.09318e-12
-5.21202e-12
-3.10701e-12
-5.07355e-12
-3.11314e-12
-4.9297e-12
-3.11185e-12
-4.78002e-12
-3.1033e-12
-4.62409e-12
-3.08759e-12
-4.46165e-12
-3.06478e-12
-4.29252e-12
-3.0349e-12
-4.11663e-12
-2.99799e-12
-3.93399e-12
-2.95415e-12
-3.74469e-12
-2.9035e-12
-3.54885e-12
-2.84623e-12
-3.34664e-12
-2.78254e-12
-3.13827e-12
-2.7127e-12
-2.92397e-12
-2.63698e-12
-2.70399e-12
-2.55572e-12
-2.47864e-12
-2.46922e-12
-2.24825e-12
-2.37783e-12
-2.01317e-12
-2.28191e-12
-1.77378e-12
-2.18181e-12
-1.5305e-12
-2.07786e-12
-1.28375e-12
-1.97043e-12
-1.03396e-12
-1.85987e-12
-7.81589e-13
-1.74652e-12
-5.27085e-13
-1.63078e-12
-2.70878e-13
-1.51302e-12
-1.33763e-14
-1.3937e-12
2.45055e-13
-1.27326e-12
5.041e-13
-1.15221e-12
7.635e-13
-1.03106e-12
1.02305e-12
-9.10319e-13
1.28258e-12
-7.9048e-13
1.54194e-12
-6.71971e-13
1.80099e-12
-5.5515e-13
2.05958e-12
-4.40286e-13
2.31755e-12
-3.27563e-13
2.57476e-12
-2.17111e-13
2.83062e-12
-1.09022e-13
3.08472e-12
-3.30489e-15
3.33659e-12
9.98997e-14
3.58577e-12
2.006e-13
3.83181e-12
2.98783e-13
4.07426e-12
3.94439e-13
4.31264e-12
4.87582e-13
4.54643e-12
5.78246e-13
4.77505e-12
6.66491e-13
4.99784e-12
7.52481e-13
5.21397e-12
8.36634e-13
5.42232e-12
9.19957e-13
5.62113e-12
1.00467e-12
5.80748e-12
1.09539e-12
5.97622e-12
1.20093e-12
6.11838e-12
1.33688e-12
6.21892e-12
1.52818e-12
6.25412e-12
1.81014e-12
6.1898e-12
2.22466e-12
5.98215e-12
2.8075e-12
5.58405e-12
3.56387e-12
4.959e-12
4.43498e-12
4.10217e-12
5.2688e-12
3.063e-12
5.81899e-12
1.95791e-12
5.79743e-12
9.59693e-13
4.98601e-12
2.57709e-13
3.3683e-12
1.1885e-12
-2.53953e-13
1.43928e-12
-9.88882e-13
4.32109e-12
-2.04638e-12
6.44581e-12
-3.22216e-12
7.4986e-12
-4.33412e-12
7.53741e-12
-5.26241e-12
6.85985e-12
-5.95768e-12
5.83421e-12
-6.4264e-12
4.76751e-12
-6.70695e-12
3.84635e-12
-6.84794e-12
3.14157e-12
-6.89414e-12
2.64563e-12
-6.88028e-12
2.31405e-12
-6.83039e-12
2.09521e-12
-6.75966e-12
1.94577e-12
-6.6772e-12
1.8351e-12
-6.58827e-12
1.74404e-12
-6.49593e-12
1.66164e-12
-6.40204e-12
1.58214e-12
-6.30788e-12
1.50265e-12
-6.21434e-12
1.4218e-12
-6.1222e-12
1.33895e-12
-6.03209e-12
1.2538e-12
-5.94457e-12
1.16618e-12
-5.86014e-12
1.076e-12
-5.77924e-12
9.83211e-13
-5.70226e-12
8.87772e-13
-5.62953e-12
7.89666e-13
-5.56133e-12
6.88892e-13
-5.49788e-12
5.85463e-13
-5.43935e-12
4.79405e-13
-5.38589e-12
3.70754e-13
-5.33756e-12
2.59552e-13
-5.29438e-12
1.45844e-13
-5.25635e-12
2.96813e-14
-5.22337e-12
-8.88922e-14
-5.19536e-12
-2.09824e-13
-5.17214e-12
-3.33029e-13
-5.15354e-12
-4.58368e-13
-5.13933e-12
-5.85657e-13
-5.1293e-12
-7.1467e-13
-5.12318e-12
-8.4515e-13
-5.12066e-12
-9.76799e-13
-5.12142e-12
-1.10928e-12
-5.12507e-12
-1.24219e-12
-5.13125e-12
-1.37511e-12
-5.13953e-12
-1.50753e-12
-5.14951e-12
-1.6389e-12
-5.16079e-12
-1.76863e-12
-5.17296e-12
-1.89607e-12
-5.18567e-12
-2.02055e-12
-5.19859e-12
-2.14134e-12
-5.21143e-12
-2.25773e-12
-5.22394e-12
-2.36897e-12
-5.23593e-12
-2.47432e-12
-5.24726e-12
-2.57306e-12
-5.25782e-12
-2.66455e-12
-5.26753e-12
-2.74819e-12
-5.27629e-12
-2.82353e-12
-5.28397e-12
-2.89025e-12
-5.29038e-12
-2.94824e-12
-5.29517e-12
-2.99756e-12
-5.29787e-12
-3.03848e-12
-5.29783e-12
-3.07139e-12
-5.29426e-12
-3.09674e-12
-5.28625e-12
-3.11501e-12
-5.27283e-12
-3.12655e-12
-5.25304e-12
-3.13163e-12
-5.22597e-12
-3.13036e-12
-5.19082e-12
-3.12273e-12
-5.14691e-12
-3.10868e-12
-5.09368e-12
-3.08811e-12
-5.0307e-12
-3.06096e-12
-4.95764e-12
-3.02719e-12
-4.87427e-12
-2.98686e-12
-4.78042e-12
-2.94006e-12
-4.676e-12
-2.88695e-12
-4.56096e-12
-2.82772e-12
-4.4353e-12
-2.76263e-12
-4.29907e-12
-2.69192e-12
-4.15239e-12
-2.61589e-12
-3.99538e-12
-2.53482e-12
-3.82827e-12
-2.44901e-12
-3.65127e-12
-2.35878e-12
-3.46468e-12
-2.26444e-12
-3.26881e-12
-2.16628e-12
-3.06402e-12
-2.06463e-12
-2.85069e-12
-1.95983e-12
-2.62922e-12
-1.85223e-12
-2.4e-12
-1.74222e-12
-2.16343e-12
-1.63024e-12
-1.91988e-12
-1.51678e-12
-1.66971e-12
-1.40235e-12
-1.41324e-12
-1.2875e-12
-1.15076e-12
-1.17277e-12
-8.82561e-13
-1.05866e-12
-6.08899e-13
-9.45608e-13
-3.30056e-13
-8.33968e-13
-4.63181e-14
-7.23998e-13
2.42005e-13
-6.1586e-13
5.3456e-13
-5.09641e-13
8.30942e-13
-4.05378e-13
1.13075e-12
-3.03085e-13
1.43341e-12
-2.02738e-13
1.73833e-12
-1.04292e-13
2.04485e-12
-7.70715e-15
2.35227e-12
8.704e-14
2.6599e-12
1.79982e-13
2.96698e-12
2.712e-13
3.2727e-12
3.60797e-13
3.5762e-12
4.49015e-13
3.87643e-12
5.3643e-13
4.17207e-12
6.24351e-13
4.46117e-12
7.15607e-13
4.74061e-12
8.15979e-13
5.00508e-12
9.36502e-13
5.24538e-12
1.09661e-12
5.44613e-12
1.32746e-12
5.58307e-12
1.67323e-12
5.62102e-12
2.18675e-12
5.51453e-12
2.91402e-12
5.21411e-12
3.86432e-12
4.68017e-12
4.96897e-12
3.9045e-12
6.0445e-12
2.9337e-12
6.78982e-12
1.88261e-12
6.84855e-12
9.24055e-13
5.9446e-12
2.47664e-13
4.04473e-12
1.43617e-12
-2.60847e-13
1.70013e-12
-1.012e-12
5.07224e-12
-2.08817e-12
7.52198e-12
-3.27795e-12
8.68838e-12
-4.39397e-12
8.65344e-12
-5.31409e-12
7.77997e-12
-5.98949e-12
6.50961e-12
-6.42893e-12
5.20695e-12
-6.67374e-12
4.09116e-12
-6.77525e-12
3.24308e-12
-6.78037e-12
2.65076e-12
-6.72533e-12
2.259e-12
-6.63502e-12
2.0049e-12
-6.52518e-12
1.83592e-12
-6.40517e-12
1.71509e-12
-6.28039e-12
1.61926e-12
-6.154e-12
1.53525e-12
-6.02791e-12
1.45605e-12
-5.90343e-12
1.37817e-12
-5.78153e-12
1.29991e-12
-5.66302e-12
1.22045e-12
-5.54859e-12
1.13937e-12
-5.43884e-12
1.05643e-12
-5.33431e-12
9.71473e-13
-5.23547e-12
8.84371e-13
-5.14271e-12
7.95021e-13
-5.05638e-12
7.03337e-13
-4.97673e-12
6.09249e-13
-4.90397e-12
5.127e-13
-4.83821e-12
4.13649e-13
-4.77951e-12
3.12063e-13
-4.72788e-12
2.07922e-13
-4.68324e-12
1.01212e-13
-4.64549e-12
-8.06185e-15
-4.61447e-12
-1.19905e-13
-4.59002e-12
-2.34275e-13
-4.57193e-12
-3.5111e-13
-4.55999e-12
-4.70296e-13
-4.55396e-12
-5.9168e-13
-4.55355e-12
-7.15076e-13
-4.55843e-12
-8.40265e-13
-4.56822e-12
-9.66993e-13
-4.58253e-12
-1.09496e-12
-4.6009e-12
-1.22382e-12
-4.62284e-12
-1.35316e-12
-4.64787e-12
-1.4825e-12
-4.67546e-12
-1.6113e-12
-4.70512e-12
-1.73896e-12
-4.73636e-12
-1.86483e-12
-4.76872e-12
-1.98818e-12
-4.80178e-12
-2.10827e-12
-4.83519e-12
-2.22432e-12
-4.86862e-12
-2.33553e-12
-4.90183e-12
-2.4411e-12
-4.93462e-12
-2.54027e-12
-4.96685e-12
-2.63231e-12
-4.9984e-12
-2.71663e-12
-5.02916e-12
-2.79276e-12
-5.05898e-12
-2.86042e-12
-5.08765e-12
-2.91957e-12
-5.1148e-12
-2.9704e-12
-5.13996e-12
-3.01332e-12
-5.16244e-12
-3.0489e-12
-5.18143e-12
-3.07775e-12
-5.19598e-12
-3.10045e-12
-5.20508e-12
-3.11744e-12
-5.20771e-12
-3.12899e-12
-5.20293e-12
-3.13513e-12
-5.18987e-12
-3.13578e-12
-5.16782e-12
-3.13073e-12
-5.13617e-12
-3.11975e-12
-5.09446e-12
-3.10265e-12
-5.04234e-12
-3.0793e-12
-4.97953e-12
-3.04965e-12
-4.90586e-12
-3.01371e-12
-4.8212e-12
-2.9716e-12
-4.72546e-12
-2.92345e-12
-4.61861e-12
-2.86946e-12
-4.50068e-12
-2.80984e-12
-4.3717e-12
-2.74485e-12
-4.23177e-12
-2.67472e-12
-4.08103e-12
-2.59974e-12
-3.91964e-12
-2.52015e-12
-3.74781e-12
-2.43625e-12
-3.56578e-12
-2.34829e-12
-3.37381e-12
-2.25658e-12
-3.17221e-12
-2.16141e-12
-2.96128e-12
-2.06314e-12
-2.74132e-12
-1.96216e-12
-2.51264e-12
-1.8589e-12
-2.27553e-12
-1.75386e-12
-2.03027e-12
-1.64759e-12
-1.77711e-12
-1.54064e-12
-1.5163e-12
-1.43355e-12
-1.2481e-12
-1.32684e-12
-9.72758e-13
-1.22092e-12
-6.90565e-13
-1.11614e-12
-4.01832e-13
-1.01271e-12
-1.06907e-13
-9.1076e-13
1.93823e-13
-8.10345e-13
4.99921e-13
-7.11449e-13
8.10884e-13
-6.1402e-13
1.12616e-12
-5.17985e-13
1.44515e-12
-4.23252e-13
1.7672e-12
-3.29733e-13
2.09161e-12
-2.37338e-13
2.41759e-12
-1.45977e-13
2.74437e-12
-5.55487e-14
3.07108e-12
3.41165e-14
3.39679e-12
1.23334e-13
3.72041e-12
2.12848e-13
4.04053e-12
3.04257e-13
4.35518e-12
4.00988e-13
4.66119e-12
5.10012e-13
4.9531e-12
6.44625e-13
5.2215e-12
8.28244e-13
5.45057e-12
1.09842e-12
5.61522e-12
1.50862e-12
5.67893e-12
2.12308e-12
5.5943e-12
2.99868e-12
5.30933e-12
4.14933e-12
4.78176e-12
5.49657e-12
4.00147e-12
6.82482e-12
3.01495e-12
7.77638e-12
1.93981e-12
7.92372e-12
9.54661e-13
6.92978e-12
2.56724e-13
4.7427e-12
1.6929e-12
-2.75753e-13
1.97588e-12
-1.0654e-12
5.86189e-12
-2.193e-12
8.64958e-12
-3.43569e-12
9.93107e-12
-4.59698e-12
9.81473e-12
-5.5496e-12
8.73259e-12
-6.24355e-12
7.20356e-12
-6.68921e-12
5.65261e-12
-6.93084e-12
4.33278e-12
-7.02291e-12
3.33515e-12
-7.01499e-12
2.64284e-12
-6.94522e-12
2.18924e-12
-6.83978e-12
1.89946e-12
-6.71514e-12
1.71129e-12
-6.58108e-12
1.58102e-12
-6.44319e-12
1.48137e-12
-6.3047e-12
1.39676e-12
-6.16757e-12
1.31893e-12
-6.03311e-12
1.24371e-12
-5.9023e-12
1.1691e-12
-5.77594e-12
1.09408e-12
-5.65469e-12
1.01813e-12
-5.53918e-12
9.40915e-13
-5.42991e-12
8.62207e-13
-5.32734e-12
7.81804e-13
-5.23185e-12
6.99528e-13
-5.14373e-12
6.15219e-13
-5.0632e-12
5.28727e-13
-4.99042e-12
4.39917e-13
-4.92543e-12
3.48668e-13
-4.86823e-12
2.54869e-13
-4.81873e-12
1.58423e-13
-4.77676e-12
5.92505e-14
-4.74212e-12
-4.27006e-14
-4.71452e-12
-1.47498e-13
-4.69368e-12
-2.55114e-13
-4.67926e-12
-3.65521e-13
-4.67092e-12
-4.78636e-13
-4.66825e-12
-5.94341e-13
-4.67083e-12
-7.12484e-13
-4.67821e-12
-8.32884e-13
-4.68987e-12
-9.55326e-13
-4.70527e-12
-1.07955e-12
-4.72385e-12
-1.20523e-12
-4.745e-12
-1.332e-12
-4.76811e-12
-1.45938e-12
-4.79256e-12
-1.58684e-12
-4.81776e-12
-1.71375e-12
-4.84315e-12
-1.83943e-12
-4.86821e-12
-1.96312e-12
-4.89247e-12
-2.084e-12
-4.91556e-12
-2.20122e-12
-4.93718e-12
-2.3139e-12
-4.95711e-12
-2.42117e-12
-4.97521e-12
-2.52215e-12
-4.99144e-12
-2.61608e-12
-5.00578e-12
-2.70228e-12
-5.01827e-12
-2.78027e-12
-5.0289e-12
-2.84979e-12
-5.0376e-12
-2.91086e-12
-5.0442e-12
-2.96379e-12
-5.04835e-12
-3.00916e-12
-5.04955e-12
-3.04769e-12
-5.04711e-12
-3.08018e-12
-5.04022e-12
-3.10733e-12
-5.028e-12
-3.12966e-12
-5.00955e-12
-3.14743e-12
-4.98403e-12
-3.16064e-12
-4.95072e-12
-3.16908e-12
-4.90902e-12
-3.17242e-12
-4.85845e-12
-3.1703e-12
-4.79869e-12
-3.1624e-12
-4.72951e-12
-3.14847e-12
-4.65076e-12
-3.12839e-12
-4.56235e-12
-3.10211e-12
-4.46425e-12
-3.06969e-12
-4.35643e-12
-3.03125e-12
-4.23893e-12
-2.98694e-12
-4.11179e-12
-2.93697e-12
-3.97505e-12
-2.88157e-12
-3.8288e-12
-2.82095e-12
-3.67314e-12
-2.75538e-12
-3.50818e-12
-2.6851e-12
-3.33406e-12
-2.61035e-12
-3.15093e-12
-2.5314e-12
-2.95896e-12
-2.44852e-12
-2.75833e-12
-2.36202e-12
-2.5492e-12
-2.27224e-12
-2.33176e-12
-2.17958e-12
-2.10615e-12
-2.08449e-12
-1.87251e-12
-1.98748e-12
-1.63094e-12
-1.88913e-12
-1.38158e-12
-1.78997e-12
-1.12455e-12
-1.69056e-12
-8.59986e-13
-1.59138e-12
-5.88083e-13
-1.4928e-12
-3.09072e-13
-1.39512e-12
-2.32374e-14
-1.29851e-12
2.69081e-13
-1.20305e-12
5.67483e-13
-1.10872e-12
8.71515e-13
-1.01545e-12
1.18067e-12
-9.23147e-13
1.49438e-12
-8.31669e-13
1.81204e-12
-7.4088e-13
2.13298e-12
-6.50644e-13
2.4565e-12
-5.60828e-13
2.78185e-12
-4.71299e-13
3.10824e-12
-3.81906e-13
3.43481e-12
-2.92427e-13
3.76062e-12
-2.02447e-13
4.08461e-12
-1.11101e-13
4.40539e-12
-1.64905e-14
4.72097e-12
8.54374e-14
5.02811e-12
2.02906e-13
5.32118e-12
3.51588e-13
5.59041e-12
5.59045e-13
5.8193e-12
8.69567e-13
5.98161e-12
1.34635e-12
6.03901e-12
2.06571e-12
5.94166e-12
3.09606e-12
5.63468e-12
4.45635e-12
5.0732e-12
6.05808e-12
4.24589e-12
7.65216e-12
3.20092e-12
8.82139e-12
2.06159e-12
9.06308e-12
1.01621e-12
7.9752e-12
2.73951e-13
5.48499e-12
1.96686e-12
-2.93952e-13
2.26983e-12
-1.13249e-12
6.70043e-12
-2.32743e-12
9.84452e-12
-3.64194e-12
1.12456e-11
-4.86793e-12
1.10407e-11
-5.8712e-12
9.73585e-12
-6.59953e-12
7.9319e-12
-7.06464e-12
6.11771e-12
-7.31391e-12
4.58206e-12
-7.4054e-12
3.42664e-12
-7.39179e-12
2.62923e-12
-7.31361e-12
2.11106e-12
-7.19862e-12
1.78447e-12
-7.06428e-12
1.57695e-12
-6.92092e-12
1.43766e-12
-6.77443e-12
1.33488e-12
-6.62816e-12
1.25049e-12
-6.48414e-12
1.1749e-12
-6.34368e-12
1.10326e-12
-6.20778e-12
1.03319e-12
-6.0772e-12
9.63507e-13
-5.95264e-12
8.93562e-13
-5.83466e-12
8.22941e-13
-5.72378e-12
7.51327e-13
-5.62042e-12
6.78444e-13
-5.52492e-12
6.04035e-13
-5.43756e-12
5.27858e-13
-5.35851e-12
4.49678e-13
-5.28786e-12
3.69274e-13
-5.22563e-12
2.86435e-13
-5.17171e-12
2.0096e-13
-5.12595e-12
1.12665e-13
-5.08808e-12
2.13844e-14
-5.05777e-12
-7.30121e-14
-5.03459e-12
-1.70668e-13
-5.0181e-12
-2.71602e-13
-5.00777e-12
-3.75838e-13
-5.00307e-12
-4.83336e-13
-5.00339e-12
-5.94015e-13
-5.00811e-12
-7.07755e-13
-5.01658e-12
-8.24407e-13
-5.02811e-12
-9.43786e-13
-5.04199e-12
-1.06566e-12
-5.05748e-12
-1.18974e-12
-5.07382e-12
-1.31566e-12
-5.09024e-12
-1.44295e-12
-5.10601e-12
-1.57106e-12
-5.1204e-12
-1.69935e-12
-5.13276e-12
-1.82706e-12
-5.1425e-12
-1.95338e-12
-5.14911e-12
-2.07738e-12
-5.15221e-12
-2.19812e-12
-5.1515e-12
-2.3146e-12
-5.14685e-12
-2.42581e-12
-5.13821e-12
-2.53078e-12
-5.12568e-12
-2.6286e-12
-5.10943e-12
-2.71853e-12
-5.08967e-12
-2.80002e-12
-5.06664e-12
-2.87281e-12
-5.0405e-12
-2.93698e-12
-5.01133e-12
-2.99297e-12
-4.979e-12
-3.04148e-12
-4.94323e-12
-3.08345e-12
-4.90355e-12
-3.11985e-12
-4.85933e-12
-3.15154e-12
-4.80988e-12
-3.1791e-12
-4.75449e-12
-3.20281e-12
-4.69252e-12
-3.2226e-12
-4.62342e-12
-3.23816e-12
-4.54683e-12
-3.24901e-12
-4.46247e-12
-3.25465e-12
-4.37024e-12
-3.25462e-12
-4.27011e-12
-3.24859e-12
-4.16212e-12
-3.23636e-12
-4.04635e-12
-3.21786e-12
-3.92291e-12
-3.19312e-12
-3.79189e-12
-3.16225e-12
-3.6534e-12
-3.12541e-12
-3.50753e-12
-3.08283e-12
-3.35435e-12
-3.03472e-12
-3.19394e-12
-2.98134e-12
-3.02636e-12
-2.92294e-12
-2.85166e-12
-2.85977e-12
-2.66991e-12
-2.79208e-12
-2.48114e-12
-2.72014e-12
-2.28541e-12
-2.64424e-12
-2.08272e-12
-2.56468e-12
-1.87311e-12
-2.48184e-12
-1.65653e-12
-2.39612e-12
-1.43296e-12
-2.30803e-12
-1.20231e-12
-2.2181e-12
-9.6452e-13
-2.12689e-12
-7.19508e-13
-2.03496e-12
-4.67242e-13
-1.9428e-12
-2.07735e-13
-1.85086e-12
5.89313e-14
-1.75944e-12
3.32599e-13
-1.66876e-12
6.13022e-13
-1.57891e-12
8.99888e-13
-1.48989e-12
1.19282e-12
-1.40162e-12
1.49136e-12
-1.31397e-12
1.79501e-12
-1.22677e-12
2.1032e-12
-1.13983e-12
2.41532e-12
-1.05296e-12
2.73069e-12
-9.65992e-13
3.04863e-12
-8.78737e-13
3.36839e-12
-7.91028e-13
3.68919e-12
-7.02669e-13
4.01018e-12
-6.13388e-13
4.33046e-12
-5.22693e-13
4.64895e-12
-4.29562e-13
4.96428e-12
-3.31783e-13
5.27439e-12
-2.24644e-13
5.57594e-12
-9.86062e-14
5.86307e-12
6.44897e-14
6.12552e-12
2.9663e-13
6.34588e-12
6.49249e-13
6.49641e-12
1.19586e-12
6.5366e-12
2.02555e-12
6.41371e-12
3.21899e-12
6.06956e-12
4.80054e-12
5.45652e-12
6.67115e-12
4.56241e-12
8.5463e-12
3.43812e-12
9.94571e-12
2.21452e-12
1.02867e-11
1.09214e-12
9.09761e-12
2.94666e-13
6.28249e-12
2.26153e-12
-3.14305e-13
2.58414e-12
-1.20852e-12
7.59464e-12
-2.48101e-12
1.1117e-11
-3.87899e-12
1.26435e-11
-5.18091e-12
1.23426e-11
-6.24429e-12
1.07992e-11
-7.01416e-12
8.70176e-12
-7.50346e-12
6.60702e-12
-7.76304e-12
4.84164e-12
-7.85497e-12
3.51856e-12
-7.83553e-12
2.60979e-12
-7.748e-12
2.02353e-12
-7.62205e-12
1.65852e-12
-7.47633e-12
1.43123e-12
-7.32186e-12
1.28319e-12
-7.1649e-12
1.17792e-12
-7.00902e-12
1.09461e-12