/*--------------------------------*- C++ -*----------------------------------*\
| =========                 |                                                 |
| \\      /  F ield         | OpenFOAM: The Open Source CFD Toolbox           |
|  \\    /   O peration     | Version:  2212                                  |
|   \\  /    A nd           | Website:  www.openfoam.com                      |
|    \\/     M anipulation  |                                                 |
\*---------------------------------------------------------------------------*/
FoamFile
{
    version     2.0;
    format      ascii;
    arch        "LSB;label=64;scalar=64";
    class       volScalarField::Internal;
    location    "70";
    object      dGco2;
}
// * * * * * * * * * * * * * * * * * * * * * * * * * * * * * * * * * * * * * //

dimensions      [1 -3 -1 0 0 0 0];

value           nonuniform List<scalar> 
1024
(
0.000211904
0.000211934
0.000212003
0.000212115
0.000212263
0.000212432
0.000212605
0.000212772
0.000212915
0.00021302
0.000213084
0.000213098
0.000213046
0.000212907
0.000212616
0.000212532
0.000213673
0.000214857
0.000215032
0.000214855
0.000214651
0.00021445
0.000214256
0.000214067
0.000213879
0.000213694
0.000213518
0.000213363
0.00021324
0.000213153
0.000213101
0.00021308
0.000211909
0.000211941
0.000212015
0.000212133
0.000212288
0.000212462
0.000212641
0.000212815
0.000212967
0.000213075
0.000213137
0.000213146
0.000213086
0.000212941
0.000212637
0.000212546
0.000213716
0.00021493
0.000215097
0.000214901
0.000214688
0.000214482
0.000214285
0.000214094
0.000213906
0.00021372
0.000213541
0.000213382
0.000213253
0.000213162
0.000213107
0.000213084
0.000211917
0.000211952
0.000212032
0.000212159
0.000212323
0.000212509
0.000212707
0.000212907
0.000213085
0.000213206
0.000213266
0.00021326
0.000213179
0.000213014
0.00021268
0.000212569
0.000213781
0.000215077
0.000215245
0.000215007
0.000214765
0.000214544
0.000214339
0.000214145
0.000213953
0.000213764
0.000213581
0.000213415
0.000213278
0.000213178
0.000213119
0.000213094
0.000211925
0.000211962
0.000212046
0.000212181
0.000212357
0.000212564
0.000212795
0.000213041
0.000213269
0.000213422
0.000213485
0.000213455
0.000213334
0.000213127
0.000212744
0.000212594
0.000213853
0.000215304
0.000215485
0.000215177
0.000214885
0.000214636
0.000214415
0.000214212
0.000214015
0.00021382
0.000213631
0.000213455
0.000213308
0.0002132
0.000213135
0.000213108
0.000211932
0.000211968
0.000212053
0.000212193
0.000212383
0.000212615
0.000212889
0.000213199
0.000213498
0.000213707
0.000213786
0.00021373
0.000213554
0.000213281
0.000212828
0.00021262
0.000213928
0.000215623
0.000215805
0.000215402
0.000215042
0.000214752
0.000214508
0.00021429
0.000214083
0.00021388
0.000213681
0.000213496
0.000213339
0.000213223
0.000213154
0.000213125
0.000211934
0.000211969
0.000212052
0.000212193
0.000212393
0.000212651
0.000212972
0.000213354
0.00021374
0.000214023
0.000214135
0.00021406
0.000213823
0.000213465
0.000212926
0.000212648
0.000214007
0.000216043
0.00021617
0.000215651
0.000215213
0.000214879
0.000214608
0.000214371
0.00021415
0.000213936
0.000213726
0.000213531
0.000213366
0.000213245
0.000213173
0.000213143
0.00021193
0.000211963
0.000212042
0.000212179
0.000212383
0.000212662
0.000213031
0.000213491
0.000213971
0.000214334
0.000214482
0.000214392
0.0002141
0.000213655
0.000213027
0.00021268
0.000214101
0.000216562
0.000216547
0.000215885
0.000215364
0.000214987
0.000214693
0.000214442
0.000214208
0.00021398
0.00021376
0.000213556
0.000213386
0.000213263
0.000213191
0.000213161
0.000211923
0.000211952
0.000212024
0.000212153
0.000212356
0.000212655
0.000213077
0.000213625
0.000214198
0.000214625
0.000214785
0.000214667
0.000214324
0.000213807
0.000213109
0.000212718
0.000214224
0.000217167
0.000216915
0.000216068
0.000215452
0.000215039
0.000214736
0.000214481
0.000214241
0.000214006
0.000213778
0.00021357
0.000213399
0.000213277
0.000213206
0.000213177
0.000211916
0.000211942
0.000212006
0.000212128
0.000212334
0.000212661
0.000213152
0.000213794
0.000214446
0.000214897
0.000215017
0.000214827
0.000214425
0.000213864
0.000213144
0.000212764
0.0002144
0.000217832
0.000217276
0.00021619
0.000215449
0.000215002
0.000214702
0.00021446
0.000214229
0.000213998
0.000213772
0.000213568
0.000213401
0.000213285
0.000213218
0.00021319
0.000211932
0.000211954
0.000212015
0.000212139
0.000212364
0.000212743
0.00021332
0.000214052
0.000214747
0.000215154
0.000215153
0.000214825
0.000214342
0.00021377
0.000213101
0.000212824
0.000214661
0.000218548
0.000217667
0.000216288
0.000215369
0.000214865
0.000214573
0.000214357
0.000214153
0.000213943
0.000213735
0.000213545
0.000213392
0.000213285
0.000213224
0.000213199
0.000212017
0.000212038
0.000212104
0.000212249
0.000212523
0.000212983
0.000213655
0.000214446
0.000215111
0.000215378
0.000215156
0.000214618
0.000214034
0.000213495
0.000212974
0.000212921
0.000215059
0.000219359
0.000218171
0.000216464
0.00021529
0.000214668
0.000214357
0.000214167
0.000214
0.000213829
0.000213655
0.000213495
0.000213364
0.000213273
0.00021322
0.000213197
0.000212231
0.000212259
0.000212345
0.000212536
0.000212886
0.000213444
0.00021419
0.000214972
0.000215506
0.000215523
0.000214998
0.000214212
0.000213541
0.000213107
0.000212836
0.000213126
0.000215702
0.000220364
0.000218931
0.000216901
0.000215384
0.000214526
0.000214115
0.000213914
0.000213779
0.000213654
0.000213528
0.000213409
0.000213311
0.00021324
0.000213196
0.000213177
0.000212601
0.000212644
0.000212767
0.000213021
0.000213461
0.000214101
0.000214869
0.00021556
0.000215872
0.00021558
0.00021475
0.000213751
0.00021303
0.00021276
0.000212843
0.000213582
0.000216762
0.000221664
0.000220143
0.000217889
0.000215962
0.00021469
0.000214
0.000213678
0.000213527
0.000213437
0.00021336
0.000213288
0.000213224
0.000213174
0.00021314
0.000213122
0.000213074
0.000213135
0.000213301
0.000213624
0.000214141
0.000214834
0.000215576
0.000216131
0.000216231
0.000215724
0.000214716
0.000213557
0.000212704
0.00021245
0.000212848
0.000214283
0.000218711
0.000223339
0.000222082
0.000219892
0.000217609
0.000215743
0.000214466
0.000213726
0.000213365
0.000213211
0.000213145
0.000213103
0.000213066
0.000213034
0.000213012
0.000213002
0.000213534
0.000213614
0.000213819
0.000214196
0.000214769
0.00021549
0.00021621
0.000216715
0.000216815
0.000216415
0.000215578
0.000214523
0.000213625
0.000213324
0.000214059
0.000216549
0.000222012
0.000225358
0.000224964
0.000223518
0.000221405
0.000219153
0.000217126
0.000215515
0.000214363
0.000213621
0.000213203
0.00021301
0.000212968
0.000213009
0.000213074
0.000213118
0.000213803
0.000213891
0.000214108
0.000214494
0.000215065
0.000215781
0.000216538
0.00021719
0.000217619
0.000217757
0.000217612
0.00021727
0.000216959
0.000217094
0.000218239
0.000220982
0.000224908
0.000226854
0.00022793
0.000228226
0.000227695
0.000226521
0.000224955
0.000223253
0.000221613
0.000220182
0.000219039
0.000218217
0.000217708
0.000217456
0.000217371
0.000217362
0.000213752
0.000213831
0.000214015
0.000214328
0.000214778
0.000215346
0.000215984
0.000216626
0.000217217
0.000217743
0.000218207
0.000218628
0.000219069
0.000219689
0.00022071
0.000222185
0.000223476
0.000224625
0.000226377
0.000228217
0.000229881
0.00023116
0.000231944
0.000232214
0.000232028
0.000231493
0.000230752
0.000229942
0.000229184
0.000228576
0.000228179
0.000228001
0.00021351
0.000213579
0.000213726
0.000213959
0.000214279
0.000214672
0.000215109
0.00021555
0.000215965
0.000216357
0.000216751
0.000217175
0.00021764
0.000218135
0.000218595
0.000218799
0.000218505
0.000218678
0.000219651
0.000221214
0.000223223
0.000225525
0.000227921
0.00023017
0.000232054
0.000233441
0.000234309
0.000234713
0.000234772
0.00023464
0.000234468
0.000234362
0.000213205
0.000213265
0.000213385
0.00021356
0.000213783
0.000214043
0.000214319
0.000214581
0.000214804
0.000214982
0.000215129
0.000215271
0.000215417
0.000215543
0.000215556
0.000215265
0.000214692
0.000214564
0.000215042
0.000216085
0.000217673
0.000219804
0.000222419
0.000225322
0.000228186
0.000230695
0.000232655
0.000234012
0.000234833
0.000235253
0.000235421
0.000235464
0.000212881
0.000212936
0.00021304
0.000213182
0.000213348
0.000213525
0.000213697
0.000213843
0.000213942
0.000213983
0.000213967
0.000213909
0.000213822
0.000213699
0.000213504
0.00021315
0.000212719
0.00021256
0.000212783
0.000213459
0.000214684
0.000216565
0.000219159
0.00022237
0.000225861
0.000229176
0.00023192
0.000233893
0.000235118
0.000235756
0.00023602
0.000236091
0.000212553
0.000212599
0.00021269
0.000212814
0.000212955
0.000213094
0.000213214
0.0002133
0.000213337
0.000213312
0.000213225
0.000213084
0.000212902
0.000212691
0.000212461
0.000212216
0.000212033
0.00021202
0.000212216
0.000212717
0.000213677
0.00021527
0.000217641
0.000220803
0.000224515
0.000228307
0.000231652
0.000234179
0.000235795
0.000236639
0.000236969
0.000237042
0.000212366
0.00021238
0.00021242
0.000212493
0.000212595
0.000212706
0.000212804
0.000212868
0.000212883
0.00021284
0.000212738
0.000212586
0.000212403
0.000212219
0.000212074
0.000212037
0.000212153
0.000212384
0.00021271
0.00021323
0.000214115
0.000215572
0.000217783
0.000220817
0.000224508
0.000228435
0.000232047
0.00023489
0.000236772
0.000237772
0.000238155
0.000238226
0.000212638
0.000212585
0.000212504
0.000212438
0.000212417
0.000212441
0.000212487
0.000212524
0.000212529
0.00021249
0.000212408
0.000212298
0.000212192
0.000212142
0.000212213
0.000212499
0.000212989
0.000213524
0.000214054
0.000214676
0.000215573
0.000216958
0.000219026
0.000221876
0.000225404
0.000229246
0.000232885
0.000235846
0.000237874
0.000238984
0.000239413
0.000239485
0.000213625
0.000213489
0.000213237
0.00021294
0.000212681
0.000212507
0.000212415
0.000212373
0.000212345
0.000212317
0.000212289
0.000212289
0.000212363
0.000212582
0.000213019
0.000213743
0.000214646
0.000215485
0.000216209
0.000216936
0.00021785
0.00021916
0.000221056
0.000223649
0.000226882
0.000230472
0.000233964
0.000236898
0.000238981
0.000240166
0.000240637
0.000240715
0.000215349
0.000215137
0.000214711
0.000214147
0.000213576
0.00021311
0.000212792
0.000212611
0.000212532
0.000212537
0.000212632
0.000212848
0.000213233
0.000213851
0.000214752
0.000215935
0.000217197
0.000218261
0.000219112
0.000219889
0.000220778
0.000221972
0.000223642
0.000225898
0.000228727
0.000231931
0.000235141
0.00023794
0.000240013
0.00024125
0.000241768
0.00024186
0.000217688
0.000217416
0.000216852
0.00021606
0.000215192
0.000214425
0.000213868
0.00021355
0.000213454
0.000213565
0.00021388
0.000214416
0.000215196
0.000216246
0.000217567
0.000219091
0.000220562
0.000221725
0.000222607
0.000223366
0.000224176
0.000225207
0.000226603
0.000228468
0.000230821
0.000233544
0.000236369
0.000238942
0.000240945
0.000242211
0.00024278
0.000242894
0.000220526
0.000220215
0.000219584
0.000218689
0.000217664
0.000216712
0.000216014
0.00021565
0.000215622
0.000215912
0.000216496
0.000217357
0.000218477
0.000219835
0.000221388
0.000223037
0.00022453
0.000225659
0.000226485
0.000227168
0.000227858
0.000228696
0.000229799
0.000231256
0.000233107
0.000235299
0.000237665
0.000239929
0.000241795
0.000243053
0.000243668
0.000243812
0.000223819
0.000223504
0.000222931
0.000222141
0.000221207
0.000220295
0.000219628
0.000219333
0.000219426
0.000219883
0.00022066
0.000221706
0.00022297
0.000224402
0.00022594
0.000227489
0.000228837
0.000229827
0.000230536
0.000231103
0.000231652
0.000232292
0.000233112
0.000234184
0.000235553
0.000237212
0.000239075
0.000240956
0.000242605
0.0002438
0.00024444
0.000244615
0.0002276
0.000227342
0.000226991
0.000226532
0.000225935
0.000225286
0.000224799
0.000224625
0.000224801
0.000225312
0.000226104
0.000227116
0.000228284
0.000229553
0.000230866
0.000232147
0.000233236
0.000234024
0.000234579
0.000235013
0.000235418
0.000235873
0.000236442
0.000237179
0.000238121
0.000239284
0.000240639
0.000242082
0.000243434
0.000244491
0.000245113
0.000245312
0.000231997
0.000231883
0.000231883
0.000231846
0.000231661
0.000231357
0.000231093
0.000231016
0.000231189
0.000231613
0.000232247
0.000233038
0.00023393
0.000234878
0.000235839
0.000236761
0.000237536
0.000238091
0.000238479
0.000238777
0.000239047
0.000239342
0.000239702
0.000240164
0.000240753
0.000241489
0.000242371
0.000243355
0.000244339
0.000245172
0.000245712
0.000245912
0.00023725
0.000237357
0.000237635
0.000237841
0.000237907
0.000237846
0.000237748
0.000237723
0.000237832
0.000238088
0.000238471
0.000238948
0.000239482
0.000240044
0.000240609
0.000241147
0.000241597
0.000241918
0.000242142
0.000242311
0.000242462
0.000242623
0.000242816
0.000243061
0.000243372
0.000243762
0.000244237
0.000244784
0.000245362
0.00024589
0.000246268
0.000246431
0.000243649
0.000243745
0.000243911
0.000244034
0.000244098
0.000244106
0.000244088
0.000244082
0.000244115
0.000244197
0.000244321
0.000244476
0.000244649
0.000244832
0.000245014
0.000245188
0.000245333
0.000245436
0.000245508
0.000245562
0.000245609
0.000245659
0.000245719
0.000245794
0.000245889
0.000246007
0.000246153
0.000246322
0.000246506
0.000246682
0.00024682
0.000246887
)
;


// ************************************************************************* //
