/*--------------------------------*- C++ -*----------------------------------*\
| =========                 |                                                 |
| \\      /  F ield         | OpenFOAM: The Open Source CFD Toolbox           |
|  \\    /   O peration     | Version:  2212                                  |
|   \\  /    A nd           | Website:  www.openfoam.com                      |
|    \\/     M anipulation  |                                                 |
\*---------------------------------------------------------------------------*/
FoamFile
{
    version     2.0;
    format      ascii;
    arch        "LSB;label=64;scalar=64";
    class       volScalarField;
    location    "70";
    object      Gch4;
}
// * * * * * * * * * * * * * * * * * * * * * * * * * * * * * * * * * * * * * //

dimensions      [1 -3 0 0 0 0 0];

internalField   nonuniform List<scalar> 
1024
(
1.74557
1.74549
1.7453
1.74501
1.74461
1.74417
1.74371
1.74327
1.74289
1.74261
1.74245
1.74241
1.74256
1.74294
1.74372
1.7439
1.74085
1.73774
1.73732
1.7378
1.73835
1.73888
1.7394
1.7399
1.74039
1.74088
1.74134
1.74175
1.74208
1.74231
1.74244
1.7425
1.74556
1.74547
1.74527
1.74496
1.74455
1.74409
1.74361
1.74315
1.74275
1.74247
1.74231
1.74229
1.74245
1.74285
1.74366
1.74386
1.74073
1.73754
1.73714
1.73768
1.73825
1.7388
1.73932
1.73983
1.74032
1.74081
1.74128
1.7417
1.74204
1.74228
1.74243
1.74249
1.74554
1.74544
1.74523
1.74489
1.74446
1.74396
1.74344
1.74292
1.74245
1.74213
1.74197
1.74199
1.74221
1.74266
1.74355
1.74381
1.74056
1.73715
1.73675
1.7374
1.73805
1.73864
1.73918
1.73969
1.7402
1.7407
1.74118
1.74162
1.74198
1.74224
1.7424
1.74246
1.74551
1.74542
1.74519
1.74483
1.74437
1.74382
1.74322
1.74257
1.74197
1.74157
1.7414
1.74149
1.74181
1.74236
1.74338
1.74374
1.74036
1.73653
1.73612
1.73695
1.73774
1.7384
1.73898
1.73952
1.74004
1.74055
1.74105
1.74151
1.7419
1.74218
1.74236
1.74243
1.7455
1.7454
1.74517
1.7448
1.7443
1.74369
1.74298
1.74217
1.74138
1.74083
1.74062
1.74077
1.74124
1.74196
1.74317
1.74367
1.74016
1.73567
1.73527
1.73637
1.73733
1.7381
1.73874
1.73932
1.73986
1.74039
1.74092
1.7414
1.74182
1.74212
1.74231
1.74238
1.74549
1.7454
1.74518
1.74481
1.74429
1.74361
1.74277
1.74178
1.74076
1.74002
1.73972
1.73992
1.74054
1.74149
1.74291
1.7436
1.73994
1.73455
1.73431
1.73572
1.73688
1.73777
1.73849
1.73911
1.73969
1.74025
1.7408
1.74132
1.74175
1.74207
1.74226
1.74234
1.7455
1.74542
1.74521
1.74485
1.74432
1.74359
1.74264
1.74144
1.74018
1.73922
1.73883
1.73907
1.73983
1.741
1.74265
1.74352
1.73969
1.73318
1.73332
1.73511
1.7365
1.7375
1.73827
1.73893
1.73955
1.74014
1.74072
1.74125
1.7417
1.74202
1.74221
1.74229
1.74553
1.74545
1.74526
1.74493
1.7444
1.74363
1.74253
1.74111
1.7396
1.73848
1.73806
1.73836
1.73926
1.74061
1.74244
1.74342
1.73936
1.73159
1.73236
1.73463
1.73628
1.73737
1.73817
1.73884
1.73947
1.74008
1.74068
1.74122
1.74167
1.74199
1.74217
1.74225
1.74555
1.74549
1.74532
1.745
1.74447
1.74363
1.74236
1.74068
1.73897
1.73779
1.73747
1.73796
1.739
1.74046
1.74235
1.7433
1.73889
1.72985
1.73141
1.73432
1.73629
1.73748
1.73827
1.7389
1.73951
1.74011
1.7407
1.74123
1.74166
1.74197
1.74215
1.74222
1.74552
1.74546
1.74531
1.74499
1.74441
1.74343
1.74193
1.74002
1.7382
1.73713
1.73714
1.73799
1.73923
1.74071
1.74246
1.74314
1.7382
1.72797
1.73037
1.73405
1.7365
1.73784
1.73861
1.73918
1.73971
1.74026
1.7408
1.74129
1.74169
1.74197
1.74213
1.7422
1.7453
1.74525
1.74508
1.7447
1.74399
1.7428
1.74105
1.73899
1.73725
1.73657
1.73716
1.73855
1.74004
1.74142
1.74278
1.74287
1.73714
1.72584
1.72903
1.73357
1.73669
1.73835
1.73918
1.73968
1.74012
1.74056
1.74101
1.74143
1.74177
1.74201
1.74215
1.7422
1.74473
1.74466
1.74444
1.74394
1.74303
1.74158
1.73964
1.7376
1.73623
1.73622
1.73761
1.73964
1.74133
1.74243
1.74313
1.74232
1.73541
1.72319
1.72701
1.7324
1.73642
1.73871
1.73981
1.74034
1.74069
1.74102
1.74135
1.74166
1.74191
1.7421
1.74221
1.74226
1.74374
1.74363
1.74331
1.74264
1.7415
1.73983
1.73784
1.73606
1.7353
1.73613
1.73833
1.74089
1.74268
1.74331
1.74308
1.74109
1.73255
1.71977
1.72381
1.72977
1.73487
1.73826
1.74009
1.74095
1.74135
1.74159
1.74179
1.74197
1.74214
1.74227
1.74236
1.74241
1.74246
1.7423
1.74187
1.74103
1.73968
1.73788
1.73597
1.73458
1.73441
1.73583
1.73852
1.74151
1.7436
1.74413
1.74301
1.73917
1.72734
1.71538
1.71872
1.72449
1.73052
1.73546
1.73885
1.74081
1.74177
1.74218
1.74235
1.74246
1.74256
1.74264
1.7427
1.74273
1.74122
1.74101
1.74048
1.73949
1.738
1.73613
1.73429
1.73305
1.7329
1.73409
1.73639
1.73917
1.74144
1.74207
1.73998
1.73326
1.71874
1.71015
1.7112
1.71499
1.72054
1.72647
1.73182
1.73607
1.73912
1.74108
1.74218
1.74269
1.7428
1.7427
1.74252
1.74241
1.74049
1.74026
1.73969
1.73867
1.73717
1.7353
1.73335
1.73169
1.73067
1.73043
1.73095
1.73195
1.7328
1.73236
1.72918
1.72176
1.71135
1.7064
1.70361
1.70282
1.70418
1.70722
1.7113
1.71575
1.72004
1.72379
1.72679
1.72894
1.73028
1.73094
1.73116
1.73118
1.74062
1.74041
1.73993
1.7391
1.73791
1.7364
1.73472
1.73304
1.73151
1.73017
1.72901
1.72798
1.72689
1.72527
1.72252
1.71858
1.71529
1.71248
1.70803
1.70327
1.69889
1.69548
1.69335
1.69256
1.69298
1.69432
1.69622
1.6983
1.70025
1.70183
1.70285
1.70331
1.74126
1.74108
1.74069
1.74007
1.73922
1.73818
1.73701
1.73584
1.73473
1.73369
1.73264
1.73152
1.7303
1.72901
1.72782
1.72734
1.72831
1.72809
1.72574
1.7218
1.71662
1.7106
1.70428
1.69831
1.69329
1.68957
1.68723
1.68611
1.6859
1.68621
1.68663
1.6869
1.74208
1.74192
1.7416
1.74113
1.74054
1.73984
1.73911
1.7384
1.7378
1.73731
1.7369
1.7365
1.73609
1.73575
1.73574
1.73658
1.73825
1.73875
1.73766
1.73508
1.73103
1.72551
1.71867
1.71102
1.70345
1.69681
1.69162
1.68803
1.68584
1.68472
1.68427
1.68415
1.74294
1.74279
1.74251
1.74214
1.7417
1.74122
1.74076
1.74037
1.7401
1.73998
1.74001
1.74014
1.74036
1.74067
1.7412
1.74219
1.74341
1.7439
1.7434
1.74173
1.73862
1.73378
1.72703
1.71862
1.70943
1.7007
1.69346
1.68826
1.68504
1.68336
1.68267
1.68249
1.74381
1.74368
1.74344
1.74311
1.74274
1.74237
1.74205
1.74182
1.74172
1.74178
1.74201
1.74237
1.74285
1.74341
1.74403
1.7447
1.74522
1.74527
1.74477
1.74349
1.74103
1.73693
1.73078
1.72252
1.71279
1.70284
1.69406
1.68743
1.6832
1.68099
1.68013
1.67995
1.74434
1.7443
1.74418
1.74397
1.7437
1.7434
1.74314
1.74297
1.74293
1.74305
1.74332
1.74372
1.74421
1.7447
1.7451
1.74521
1.7449
1.74427
1.74338
1.74201
1.73972
1.73596
1.73022
1.72231
1.71266
1.70238
1.69292
1.68549
1.68058
1.67797
1.67698
1.6768
1.74372
1.74384
1.74403
1.74418
1.74421
1.74412
1.74399
1.74389
1.74388
1.74398
1.74421
1.7445
1.74479
1.74494
1.74477
1.74402
1.7427
1.74123
1.73979
1.73813
1.73579
1.7322
1.72684
1.71942
1.71021
1.70016
1.69066
1.68293
1.67765
1.67476
1.67366
1.67347
1.74125
1.7416
1.74223
1.74297
1.7436
1.74402
1.74423
1.74433
1.74439
1.74447
1.74454
1.74456
1.74438
1.74382
1.74268
1.74076
1.73833
1.73605
1.73408
1.73214
1.72975
1.72635
1.72144
1.71471
1.70628
1.69691
1.6878
1.68015
1.67473
1.67166
1.67044
1.67024
1.73685
1.7374
1.73849
1.73993
1.74137
1.74254
1.74333
1.74377
1.74396
1.74394
1.74369
1.74313
1.74214
1.74053
1.73817
1.73502
1.73164
1.72875
1.72645
1.72438
1.72205
1.71896
1.71464
1.70879
1.70143
1.69308
1.68471
1.67742
1.67203
1.66882
1.66747
1.66724
1.73079
1.7315
1.73297
1.73502
1.73725
1.7392
1.74061
1.7414
1.74162
1.74131
1.74048
1.73908
1.73705
1.7343
1.73082
1.72677
1.72282
1.71969
1.71731
1.71528
1.71316
1.7105
1.70689
1.70207
1.69596
1.68887
1.68151
1.67481
1.66959
1.6663
1.66483
1.66453
1.72339
1.72421
1.72586
1.7282
1.73086
1.73331
1.73509
1.73599
1.73603
1.73524
1.7337
1.73143
1.7285
1.72494
1.72084
1.71645
1.71245
1.70941
1.70719
1.70537
1.70357
1.7014
1.69856
1.69479
1.69
1.68429
1.67813
1.67224
1.66738
1.66411
1.66251
1.66214
1.71476
1.71559
1.71711
1.71919
1.72163
1.724
1.7257
1.72642
1.72614
1.7249
1.72284
1.72009
1.71677
1.713
1.70894
1.70482
1.70121
1.69855
1.69664
1.69513
1.6937
1.69204
1.68993
1.68717
1.68362
1.67932
1.67447
1.66957
1.66527
1.66216
1.6605
1.66004
1.70483
1.70551
1.70645
1.70767
1.70925
1.71094
1.71219
1.7126
1.71209
1.71072
1.70861
1.70594
1.70287
1.69953
1.69606
1.69265
1.68973
1.68762
1.68613
1.68497
1.68391
1.68274
1.68127
1.67937
1.67694
1.67392
1.6704
1.66664
1.66312
1.66037
1.65875
1.65823
1.69327
1.69357
1.69359
1.69371
1.69421
1.69501
1.69568
1.69585
1.69536
1.69421
1.69253
1.69044
1.68808
1.68559
1.68305
1.68059
1.67852
1.67703
1.67599
1.6752
1.67449
1.67373
1.6728
1.67161
1.67009
1.66818
1.66589
1.66333
1.66076
1.65859
1.65719
1.65667
1.67946
1.67918
1.67846
1.67793
1.67777
1.67794
1.67819
1.67823
1.67793
1.67723
1.67621
1.67495
1.67354
1.67206
1.67056
1.66913
1.66793
1.66707
1.66647
1.66602
1.66562
1.6652
1.66471
1.66408
1.66328
1.66226
1.66103
1.65961
1.6581
1.65673
1.65574
1.65532
1.66265
1.6624
1.66196
1.66164
1.66148
1.66146
1.66151
1.66152
1.66142
1.6612
1.66087
1.66046
1.66
1.65952
1.65904
1.65858
1.65819
1.65791
1.65772
1.65757
1.65745
1.65732
1.65717
1.65697
1.65673
1.65642
1.65604
1.6556
1.65512
1.65467
1.65431
1.65413
)
;

boundaryField
{
    movingWall
    {
        type            fixedValue;
        value           uniform 1.6535;
    }
    fixedWalls
    {
        type            zeroGradient;
    }
    floor
    {
        type            zeroGradient;
    }
    frontAndBack
    {
        type            empty;
    }
}


// ************************************************************************* //
