/*--------------------------------*- C++ -*----------------------------------*\
| =========                 |                                                 |
| \\      /  F ield         | OpenFOAM: The Open Source CFD Toolbox           |
|  \\    /   O peration     | Version:  2212                                  |
|   \\  /    A nd           | Website:  www.openfoam.com                      |
|    \\/     M anipulation  |                                                 |
\*---------------------------------------------------------------------------*/
FoamFile
{
    version     2.0;
    format      ascii;
    arch        "LSB;label=64;scalar=64";
    class       volScalarField;
    location    "70";
    object      Gco2;
}
// * * * * * * * * * * * * * * * * * * * * * * * * * * * * * * * * * * * * * //

dimensions      [1 -3 0 0 0 0 0];

internalField   nonuniform List<scalar> 
1024
(
0.0290054
0.0289918
0.0289608
0.0289108
0.0288449
0.02877
0.028693
0.0286197
0.0285562
0.0285099
0.0284819
0.0284767
0.0285011
0.028564
0.0286946
0.0287262
0.0282136
0.0276922
0.0276212
0.0277027
0.0277946
0.0278843
0.0279709
0.0280548
0.0281379
0.0282195
0.0282971
0.0283656
0.0284203
0.0284589
0.0284815
0.0284911
0.0290031
0.0289887
0.0289555
0.0289026
0.028834
0.0287568
0.0286773
0.0286006
0.0285336
0.0284859
0.0284587
0.0284558
0.0284832
0.0285489
0.0286855
0.0287196
0.0281943
0.0276595
0.0275925
0.027682
0.0277785
0.0278705
0.0279582
0.0280427
0.0281261
0.0282083
0.028287
0.0283573
0.0284143
0.0284549
0.0284789
0.0284892
0.0289995
0.0289839
0.0289482
0.0288916
0.0288187
0.0287361
0.0286489
0.0285609
0.0284822
0.0284286
0.0284025
0.0284061
0.0284428
0.0285173
0.028667
0.0287095
0.0281649
0.0275931
0.0275266
0.0276354
0.0277445
0.0278432
0.0279343
0.0280206
0.0281051
0.0281885
0.0282693
0.0283428
0.0284036
0.0284476
0.0284739
0.0284851
0.0289958
0.0289795
0.028942
0.0288821
0.0288039
0.0287125
0.0286112
0.0285028
0.0284023
0.0283346
0.0283072
0.0283212
0.0283752
0.0284679
0.0286392
0.0286984
0.0281319
0.02749
0.0274197
0.0275605
0.0276919
0.027803
0.027901
0.0279912
0.0280783
0.0281639
0.0282477
0.0283252
0.0283903
0.0284381
0.0284668
0.028479
0.0289931
0.0289768
0.0289388
0.0288769
0.0287933
0.0286911
0.028571
0.0284351
0.0283032
0.0282112
0.0281764
0.0282015
0.0282796
0.0284011
0.0286029
0.0286871
0.028098
0.0273458
0.0272779
0.0274619
0.0276235
0.0277524
0.0278607
0.0279573
0.0280487
0.0281381
0.0282257
0.0283075
0.0283768
0.0284279
0.0284587
0.0284716
0.0289924
0.0289767
0.0289397
0.0288777
0.0287901
0.0286771
0.0285368
0.0283696
0.0281998
0.0280747
0.0280256
0.0280588
0.0281631
0.0283212
0.0285604
0.0286749
0.0280618
0.0271574
0.0271161
0.0273525
0.0275488
0.0276979
0.0278182
0.0279224
0.0280198
0.0281143
0.0282066
0.0282925
0.0283652
0.0284185
0.0284505
0.0284637
0.0289942
0.0289797
0.028945
0.028885
0.0287959
0.0286741
0.0285136
0.0283124
0.0281013
0.0279411
0.0278762
0.0279155
0.0280434
0.028239
0.0285168
0.0286609
0.0280194
0.0269259
0.0269498
0.0272503
0.0274839
0.0276519
0.027782
0.0278926
0.0279956
0.0280954
0.0281924
0.0282818
0.0283566
0.0284108
0.0284429
0.028456
0.0289985
0.0289855
0.028954
0.0288977
0.0288094
0.0286799
0.0284964
0.0282571
0.0280052
0.0278172
0.0277466
0.027798
0.0279474
0.0281736
0.0284811
0.0286444
0.027964
0.0266588
0.0267879
0.0271705
0.0274468
0.0276305
0.027765
0.0278772
0.0279825
0.0280855
0.0281854
0.0282765
0.0283516
0.0284052
0.0284364
0.0284491
0.0290025
0.0289913
0.0289632
0.0289103
0.0288214
0.0286798
0.0284666
0.0281858
0.0278992
0.0277011
0.0276485
0.0277308
0.0279049
0.0281495
0.0284658
0.0286243
0.0278855
0.0263667
0.0266281
0.0271167
0.0274487
0.0276483
0.0277811
0.0278877
0.0279889
0.02809
0.0281886
0.0282781
0.0283509
0.0284021
0.0284317
0.0284436
0.0289968
0.0289872
0.0289609
0.0289072
0.0288101
0.0286459
0.0283946
0.0280743
0.0277696
0.0275914
0.0275929
0.027735
0.0279429
0.0281909
0.0284837
0.0285972
0.0277692
0.0260515
0.0264543
0.0270721
0.0274834
0.0277089
0.0278389
0.0279339
0.0280235
0.0281151
0.028206
0.0282887
0.0283557
0.0284025
0.0284294
0.0284404
0.0289603
0.0289511
0.0289225
0.0288597
0.0287412
0.0285408
0.0282476
0.0279018
0.0276113
0.0274968
0.0275957
0.0278291
0.0280787
0.0283103
0.0285376
0.028553
0.027591
0.0256928
0.0262285
0.0269911
0.0275158
0.0277946
0.0279336
0.028018
0.0280911
0.0281659
0.0282415
0.0283114
0.0283683
0.0284082
0.0284316
0.0284414
0.0288651
0.028853
0.0288154
0.0287325
0.0285797
0.0283363
0.0280109
0.0276699
0.0274398
0.0274383
0.0276715
0.0280114
0.0282952
0.0284789
0.0285966
0.0284603
0.0273009
0.025247
0.0258895
0.0267931
0.02747
0.0278544
0.0280389
0.0281286
0.0281881
0.0282429
0.0282978
0.0283495
0.0283925
0.0284235
0.0284424
0.0284509
0.0286985
0.0286798
0.028626
0.0285146
0.0283226
0.0280431
0.0277093
0.0274116
0.0272835
0.0274221
0.0277908
0.0282212
0.0285209
0.0286272
0.0285883
0.028254
0.0268197
0.0246724
0.0253507
0.0263517
0.0272094
0.0277778
0.0280866
0.0282311
0.0282981
0.0283381
0.0283713
0.0284027
0.0284306
0.0284527
0.0284678
0.0284754
0.0284847
0.0284576
0.0283848
0.0282438
0.0280178
0.0277166
0.0273966
0.0271628
0.0271336
0.0273722
0.0278232
0.0283241
0.0286757
0.0287639
0.0285762
0.0279308
0.0259458
0.0239356
0.0244943
0.0254633
0.0264769
0.0273074
0.0278766
0.0282069
0.0283682
0.028437
0.0284663
0.0284845
0.0285009
0.028515
0.0285245
0.0285289
0.0282763
0.0282413
0.0281515
0.027986
0.0277358
0.0274233
0.0271148
0.0269062
0.0268814
0.0270793
0.0274649
0.0279325
0.0283129
0.0284181
0.0280665
0.0269387
0.0245005
0.0230562
0.0232301
0.0238667
0.0247997
0.0257964
0.0266951
0.0274098
0.0279217
0.0282512
0.0284374
0.0285229
0.0285418
0.0285236
0.0284946
0.0284748
0.0281538
0.0281148
0.0280188
0.0278483
0.027597
0.0272832
0.0269554
0.0266784
0.0265059
0.026466
0.0265526
0.026721
0.0268622
0.0267888
0.0262549
0.0250079
0.0232593
0.022425
0.0219545
0.0218213
0.0220483
0.0225599
0.0232457
0.0239936
0.0247156
0.0253456
0.0258495
0.0262118
0.0264361
0.0265471
0.0265845
0.0265886
0.0281762
0.0281408
0.028059
0.0279204
0.0277208
0.0274686
0.0271865
0.0269042
0.0266469
0.0264218
0.0262277
0.0260548
0.0258704
0.025598
0.0251369
0.0244744
0.0239202
0.0234463
0.0226966
0.0218953
0.0211588
0.0205846
0.0202258
0.0200936
0.020164
0.0203898
0.0207086
0.0210588
0.0213878
0.0216522
0.0218251
0.0219026
0.0282835
0.0282529
0.0281875
0.0280838
0.0279412
0.0277656
0.0275705
0.0273735
0.0271877
0.027012
0.0268363
0.0266484
0.0264436
0.0262259
0.0260249
0.0259452
0.0261066
0.0260684
0.0256735
0.0250103
0.0241386
0.0231249
0.022061
0.0210565
0.0202117
0.019587
0.0191928
0.0190048
0.0189706
0.0190226
0.0190942
0.019139
0.0284196
0.0283927
0.0283395
0.0282616
0.0281616
0.0280451
0.0279217
0.0278037
0.0277024
0.0276201
0.0275508
0.0274838
0.0274148
0.0273572
0.0273549
0.0274963
0.0277754
0.0278593
0.0276753
0.0272411
0.0265612
0.0256326
0.024481
0.0231941
0.0219206
0.020803
0.0199294
0.0193244
0.0189577
0.0187695
0.0186935
0.0186736
0.0285639
0.0285393
0.0284929
0.0284298
0.0283557
0.0282765
0.0281995
0.0281337
0.0280882
0.028068
0.0280723
0.0280948
0.0281305
0.0281832
0.0282716
0.028437
0.0286411
0.0287239
0.0286395
0.0283586
0.0278363
0.0270221
0.0258865
0.024471
0.0229258
0.0214556
0.0202382
0.0193632
0.0188213
0.018539
0.018423
0.0183922
0.0287102
0.0286891
0.0286484
0.0285931
0.0285306
0.0284689
0.0284152
0.0283767
0.0283602
0.0283702
0.0284077
0.0284691
0.0285486
0.0286417
0.0287458
0.0288593
0.0289451
0.0289527
0.0288684
0.0286534
0.0282408
0.0275511
0.0265161
0.0251268
0.0234902
0.0218152
0.0203376
0.0192217
0.0185094
0.0181383
0.017994
0.0179628
0.0287987
0.0287914
0.0287719
0.0287375
0.028691
0.0286411
0.0285977
0.0285694
0.0285631
0.0285825
0.0286278
0.0286952
0.0287763
0.0288588
0.0289251
0.0289444
0.0288919
0.028785
0.0286356
0.0284052
0.0280195
0.0273865
0.0264217
0.0250909
0.0234666
0.0217366
0.0201455
0.0188939
0.0180673
0.017629
0.0174621
0.0174318
0.0286934
0.0287148
0.0287468
0.0287714
0.0287764
0.0287626
0.0287406
0.0287234
0.0287214
0.0287393
0.0287765
0.0288262
0.0288746
0.028899
0.0288693
0.0287425
0.0285204
0.028274
0.0280309
0.027751
0.027357
0.0267538
0.0258518
0.0246035
0.0230541
0.0213639
0.019764
0.018463
0.0175735
0.017088
0.0169016
0.0168709
0.0282787
0.0283367
0.0284432
0.0285675
0.0286744
0.0287446
0.0287805
0.0287964
0.0288072
0.02882
0.0288329
0.0288345
0.0288041
0.0287102
0.0285179
0.0281946
0.0277858
0.0274021
0.0270707
0.0267436
0.026341
0.02577
0.024944
0.0238107
0.0223927
0.0208158
0.0192822
0.0179947
0.0170815
0.0165637
0.0163585
0.0163251
0.0275373
0.0276296
0.0278136
0.0280555
0.0282987
0.0284953
0.0286276
0.0287021
0.028734
0.0287305
0.0286888
0.028595
0.0284272
0.0281565
0.0277585
0.0272292
0.0266587
0.0261738
0.0257865
0.0254368
0.0250452
0.0245254
0.0237992
0.0228148
0.0215759
0.0201706
0.0187618
0.0175341
0.0166256
0.0160847
0.0158585
0.0158189
0.0265183
0.0266378
0.0268849
0.0272297
0.0276046
0.0279338
0.0281704
0.0283029
0.0283402
0.0282888
0.0281489
0.027913
0.02757
0.0271074
0.026522
0.0258399
0.0251753
0.0246472
0.0242469
0.023906
0.0235491
0.023101
0.0224946
0.0216825
0.0206541
0.019461
0.0182217
0.0170933
0.0162152
0.015661
0.0154122
0.0153626
0.0252715
0.0254093
0.0256879
0.0260819
0.0265298
0.026942
0.0272411
0.0273931
0.0273988
0.0272666
0.0270063
0.0266253
0.026131
0.025531
0.0248413
0.0241031
0.0234295
0.0229179
0.0225435
0.0222375
0.0219336
0.0215695
0.0210912
0.0204577
0.0196501
0.0186903
0.0176532
0.0166602
0.0158422
0.0152907
0.0150213
0.0149585
0.0238184
0.0239588
0.0242139
0.0245643
0.024976
0.0253738
0.0256601
0.0257818
0.0257333
0.0255257
0.025179
0.0247148
0.0241556
0.0235219
0.0228379
0.0221444
0.0215369
0.0210883
0.0207678
0.0205136
0.0202717
0.0199939
0.0196387
0.0191732
0.0185768
0.0178514
0.0170351
0.0162102
0.0154866
0.0149625
0.0146819
0.0146051
0.022146
0.0222616
0.0224193
0.0226252
0.022891
0.0231757
0.0233847
0.0234539
0.0233685
0.0231371
0.0227828
0.0223329
0.0218149
0.0212525
0.0206683
0.0200948
0.0196041
0.0192478
0.0189969
0.0188025
0.0186239
0.0184261
0.0181798
0.0178604
0.0174503
0.0169422
0.0163488
0.0157161
0.0151228
0.0146591
0.0143862
0.0142989
0.0201996
0.020251
0.020253
0.0202729
0.0203571
0.0204917
0.0206049
0.0206329
0.0205502
0.0203575
0.0200735
0.0197214
0.0193253
0.0189048
0.0184771
0.0180644
0.0177156
0.0174644
0.0172892
0.0171557
0.0170363
0.0169082
0.0167522
0.0165523
0.016296
0.0159748
0.0155889
0.0151575
0.0147257
0.0143601
0.014123
0.014035
0.0178738
0.0178268
0.0177052
0.0176161
0.0175888
0.0176168
0.0176584
0.0176663
0.0176144
0.0174975
0.0173255
0.0171132
0.0168759
0.0166264
0.0163748
0.016134
0.0159314
0.0157861
0.0156853
0.0156092
0.0155425
0.0154726
0.015389
0.015283
0.0151478
0.0149778
0.01477
0.0145299
0.0142764
0.0140447
0.0138786
0.0138072
0.0150411
0.0149987
0.0149254
0.0148715
0.0148442
0.014841
0.0148488
0.0148504
0.0148343
0.0147969
0.0147413
0.0146722
0.0145951
0.0145142
0.0144329
0.0143552
0.01429
0.0142433
0.0142109
0.0141866
0.0141656
0.0141437
0.014118
0.0140855
0.0140443
0.0139926
0.0139292
0.0138548
0.0137742
0.0136968
0.0136364
0.0136068
)
;

boundaryField
{
    movingWall
    {
        type            fixedValue;
        value           uniform 0.0135;
    }
    fixedWalls
    {
        type            zeroGradient;
    }
    floor
    {
        type            zeroGradient;
    }
    frontAndBack
    {
        type            empty;
    }
}


// ************************************************************************* //
