/*--------------------------------*- C++ -*----------------------------------*\
| =========                 |                                                 |
| \\      /  F ield         | OpenFOAM: The Open Source CFD Toolbox           |
|  \\    /   O peration     | Version:  2212                                  |
|   \\  /    A nd           | Website:  www.openfoam.com                      |
|    \\/     M anipulation  |                                                 |
\*---------------------------------------------------------------------------*/
FoamFile
{
    version     2.0;
    format      ascii;
    arch        "LSB;label=64;scalar=64";
    class       volScalarField;
    location    "70";
    object      Sco2;
}
// * * * * * * * * * * * * * * * * * * * * * * * * * * * * * * * * * * * * * //

dimensions      [1 -3 0 0 0 0 0];

internalField   nonuniform List<scalar> 
1024
(
0.00807726
0.0080784
0.00808104
0.0080853
0.00809093
0.00809737
0.00810399
0.00811032
0.00811579
0.0081198
0.00812225
0.00812277
0.00812077
0.00811549
0.0081044
0.00810118
0.0081447
0.00818981
0.00819649
0.00818973
0.00818197
0.00817432
0.00816692
0.00815971
0.00815254
0.00814549
0.00813879
0.00813288
0.00812817
0.00812485
0.00812289
0.00812207
0.00807744
0.00807867
0.00808149
0.008086
0.00809188
0.00809851
0.00810536
0.00811199
0.00811776
0.00812189
0.00812427
0.00812459
0.00812233
0.0081168
0.00810519
0.00810173
0.00814632
0.00819259
0.00819896
0.00819151
0.00818336
0.00817552
0.00816801
0.00816075
0.00815355
0.00814646
0.00813966
0.0081336
0.00812869
0.00812519
0.00812311
0.00812224
0.00807774
0.00807907
0.00808212
0.00808696
0.00809322
0.00810033
0.00810786
0.00811547
0.00812226
0.00812688
0.00812918
0.00812893
0.00812586
0.00811955
0.00810682
0.00810259
0.0081488
0.00819819
0.0082046
0.00819553
0.00818631
0.00817789
0.00817008
0.00816266
0.00815538
0.00814816
0.00814119
0.00813485
0.00812961
0.00812582
0.00812356
0.0081226
0.00807806
0.00807945
0.00808266
0.0080878
0.00809453
0.00810242
0.0081112
0.0081206
0.00812928
0.00813512
0.00813752
0.00813636
0.00813177
0.00812387
0.00810927
0.00810354
0.00815156
0.00820687
0.00821376
0.00820202
0.00819089
0.00818139
0.00817299
0.00816521
0.00815771
0.0081503
0.00814308
0.00813639
0.00813076
0.00812665
0.00812418
0.00812313
0.00807831
0.00807969
0.00808295
0.00808828
0.0080955
0.00810437
0.00811481
0.00812663
0.00813803
0.00814596
0.00814899
0.00814686
0.00814016
0.00812973
0.00811246
0.00810453
0.0081544
0.00821903
0.00822594
0.00821058
0.00819685
0.00818583
0.00817653
0.00816821
0.0081603
0.00815257
0.00814499
0.00813793
0.00813194
0.00812754
0.00812489
0.00812379
0.00807839
0.00807972
0.00808291
0.00808828
0.00809588
0.00810572
0.00811796
0.00813253
0.00814722
0.00815802
0.00816228
0.00815942
0.00815041
0.00813676
0.00811621
0.00810561
0.00815742
0.00823501
0.00823988
0.00822008
0.0082034
0.00819065
0.00818031
0.00817131
0.00816288
0.00815469
0.0081467
0.00813926
0.00813297
0.00812837
0.00812562
0.00812449
0.00807826
0.00807952
0.00808252
0.00808773
0.0080955
0.00810616
0.00812021
0.00813775
0.00815604
0.00816989
0.00817551
0.00817209
0.00816097
0.00814401
0.00812006
0.00810684
0.008161
0.00825482
0.00825423
0.00822899
0.00820914
0.00819477
0.00818357
0.008174
0.00816507
0.0081564
0.00814799
0.00814023
0.00813375
0.00812906
0.0081263
0.00812517
0.00807797
0.00807909
0.00808182
0.00808674
0.00809449
0.00810587
0.00812196
0.00814284
0.00816469
0.00818096
0.00818707
0.00818256
0.0081695
0.00814981
0.0081232
0.00810829
0.0081657
0.00827788
0.00826825
0.00823597
0.00821248
0.00819676
0.00818519
0.00817547
0.00816633
0.00815737
0.00814867
0.00814074
0.00813422
0.00812958
0.00812688
0.00812579
0.00807771
0.00807869
0.00808115
0.00808579
0.00809364
0.00810611
0.00812481
0.00814928
0.00817415
0.00819134
0.00819592
0.00818869
0.00817336
0.00815197
0.00812452
0.00811002
0.00817241
0.00830322
0.00828203
0.00824064
0.00821238
0.00819533
0.00818393
0.0081747
0.00816588
0.00815708
0.00814847
0.00814067
0.00813433
0.00812989
0.00812733
0.00812629
0.00807832
0.00807916
0.00808148
0.00808621
0.00809479
0.00810923
0.00813123
0.00815912
0.00818561
0.00820115
0.00820109
0.00818859
0.00817018
0.00814837
0.00812288
0.00811232
0.00818235
0.00833052
0.00829693
0.00824437
0.00820934
0.00819011
0.00817899
0.00817078
0.00816298
0.00815498
0.00814704
0.00813981
0.00813397
0.0081299
0.00812756
0.0081266
0.00808155
0.00808237
0.00808489
0.00809042
0.00810084
0.0081184
0.00814401
0.00817414
0.00819951
0.00820967
0.00820123
0.00818071
0.00815844
0.0081379
0.00811804
0.00811601
0.00819752
0.00836142
0.00831616
0.00825106
0.00820633
0.0081826
0.00817076
0.0081635
0.00815716
0.00815062
0.00814401
0.0081379
0.00813292
0.00812944
0.00812741
0.00812656
0.0080897
0.00809077
0.00809407
0.00810133
0.0081147
0.00813596
0.00816437
0.0081942
0.00821457
0.00821519
0.00819519
0.00816523
0.00813967
0.00812312
0.00811276
0.00812385
0.00822204
0.00839974
0.00834509
0.00826773
0.00820991
0.00817719
0.00816152
0.00815386
0.00814872
0.00814395
0.00813915
0.00813463
0.00813087
0.00812817
0.00812652
0.00812578
0.00810381
0.00810545
0.00811013
0.00811984
0.0081366
0.00816101
0.00819028
0.00821661
0.00822852
0.00821737
0.00818575
0.00814766
0.00812017
0.0081099
0.00811305
0.00814121
0.00826245
0.00844928
0.00839132
0.00830537
0.00823194
0.00818344
0.00815716
0.00814487
0.00813913
0.00813567
0.00813277
0.00813002
0.00812758
0.00812566
0.00812435
0.00812369
0.00812184
0.0081242
0.00813052
0.0081428
0.00816254
0.00818894
0.00821721
0.00823837
0.0082422
0.00822288
0.00818446
0.00814027
0.00810777
0.00809807
0.00811323
0.00816793
0.0083367
0.00851313
0.0084652
0.00838174
0.00829471
0.00822359
0.00817493
0.00814672
0.00813296
0.00812708
0.00812455
0.00812297
0.00812154
0.00812031
0.00811947
0.00811909
0.0081394
0.00814244
0.00815024
0.00816464
0.00818648
0.00821393
0.00824137
0.00826063
0.00826445
0.00824922
0.00821731
0.00817709
0.00814286
0.0081314
0.00815938
0.00825432
0.00846255
0.0085901
0.00857506
0.00851996
0.0084394
0.00835357
0.0082763
0.00821491
0.00817099
0.00814272
0.00812676
0.00811943
0.00811781
0.00811936
0.00812184
0.00812353
0.00814965
0.008153
0.00816127
0.00817599
0.00819774
0.00822505
0.00825388
0.00827875
0.00829508
0.00830037
0.00829484
0.00828178
0.00826993
0.0082751
0.00831873
0.00842329
0.00857295
0.0086471
0.00868812
0.0086994
0.00867919
0.00863441
0.00857473
0.00850985
0.00844733
0.0083928
0.00834922
0.00831787
0.00829848
0.00828888
0.00828564
0.00828529
0.00814768
0.00815072
0.00815774
0.00816964
0.00818679
0.00820847
0.00823279
0.00825724
0.00827977
0.00829983
0.00831753
0.00833357
0.00835037
0.00837399
0.00841294
0.00846914
0.00851835
0.00856214
0.00862893
0.00869905
0.0087625
0.00881124
0.00884112
0.00885142
0.00884432
0.00882395
0.00879569
0.00876483
0.00873594
0.00871274
0.00869761
0.00869083
0.00813849
0.00814111
0.00814671
0.00815559
0.00816778
0.00818278
0.00819943
0.00821622
0.00823205
0.00824701
0.00826202
0.00827816
0.00829589
0.00831477
0.0083323
0.00834007
0.00832889
0.00833547
0.00837257
0.00843214
0.00850869
0.00859647
0.00868778
0.00877351
0.00884533
0.00889819
0.00893127
0.00894667
0.00894892
0.00894389
0.00893733
0.00893329
0.00812684
0.00812915
0.0081337
0.00814036
0.00814888
0.0081588
0.0081693
0.00817929
0.00818779
0.00819458
0.00820019
0.00820558
0.00821117
0.00821598
0.00821645
0.00820535
0.00818351
0.00817866
0.00819689
0.00823662
0.00829714
0.00837838
0.00847806
0.00858873
0.00869788
0.00879352
0.00886824
0.00891997
0.00895127
0.00896727
0.00897367
0.0089753
0.00811448
0.0081166
0.00812057
0.00812597
0.0081323
0.00813905
0.0081456
0.00815116
0.00815495
0.0081565
0.0081559
0.00815369
0.00815035
0.00814567
0.00813826
0.00812476
0.00810833
0.00810228
0.00811076
0.00813651
0.00818323
0.00825492
0.00835381
0.0084762
0.00860925
0.00873561
0.00884021
0.00891544
0.0089621
0.00898645
0.0089965
0.0089992
0.00810198
0.00810376
0.00810723
0.00811195
0.0081173
0.0081226
0.00812719
0.00813048
0.00813186
0.00813093
0.00812762
0.00812223
0.00811529
0.00810725
0.00809847
0.00808915
0.00808217
0.00808168
0.00808915
0.00810826
0.00814484
0.00820555
0.00829593
0.00841648
0.00855795
0.0087025
0.00882999
0.00892633
0.00898792
0.00902009
0.00903268
0.00903546
0.00809486
0.00809539
0.00809691
0.00809971
0.0081036
0.00810783
0.00811156
0.008114
0.00811456
0.00811291
0.00810903
0.00810324
0.00809629
0.00808928
0.00808374
0.00808231
0.00808675
0.00809554
0.00810799
0.00812779
0.00816154
0.00821706
0.00830134
0.008417
0.0085577
0.00870738
0.00884504
0.00895344
0.00902514
0.00906327
0.00907788
0.00908059
0.00810525
0.00810322
0.00810014
0.0080976
0.0080968
0.00809772
0.00809946
0.0081009
0.00810109
0.00809959
0.00809646
0.00809227
0.00808823
0.00808631
0.00808904
0.00809995
0.0081186
0.00813902
0.00815919
0.00818293
0.00821711
0.00826989
0.00834872
0.00845738
0.00859182
0.0087383
0.00887699
0.00898987
0.00906718
0.00910949
0.00912582
0.00912857
0.00814286
0.00813766
0.00812807
0.00811674
0.00810686
0.00810023
0.00809672
0.00809511
0.00809408
0.00809299
0.00809195
0.00809194
0.00809476
0.00810309
0.00811977
0.00814736
0.00818177
0.00821375
0.00824137
0.00826906
0.00830389
0.00835383
0.00842611
0.00852493
0.00864817
0.00878502
0.00891811
0.00902995
0.00910937
0.00915451
0.00917248
0.00917546
0.00820857
0.00820047
0.00818425
0.00816276
0.00814099
0.00812321
0.00811111
0.00810421
0.0081012
0.0081014
0.00810502
0.00811324
0.00812792
0.00815148
0.0081858
0.0082309
0.008279
0.00831958
0.00835199
0.00838163
0.00841551
0.00846101
0.00852467
0.00861067
0.00871852
0.00884062
0.00896299
0.00906967
0.00914871
0.00919583
0.00921559
0.00921909
0.00829772
0.00828735
0.00826584
0.00823566
0.0082026
0.00817333
0.0081521
0.00814001
0.00813636
0.00814056
0.00815256
0.00817299
0.00820273
0.00824277
0.0082931
0.00835119
0.00840729
0.0084516
0.00848521
0.00851416
0.00854505
0.00858432
0.00863756
0.00870864
0.00879832
0.0089021
0.0090098
0.00910789
0.00918424
0.00923248
0.00925418
0.00925853
0.00840592
0.00839405
0.00837001
0.00833587
0.0082968
0.00826053
0.0082339
0.00822004
0.00821898
0.00823002
0.00825228
0.00828512
0.00832781
0.00837958
0.00843878
0.00850163
0.00855854
0.00860155
0.00863305
0.00865907
0.00868539
0.00871731
0.00875937
0.00881492
0.00888545
0.00896902
0.00905921
0.00914551
0.00921662
0.00926458
0.00928803
0.00929351
0.00853144
0.00851941
0.00849756
0.00846746
0.00843186
0.0083971
0.00837168
0.00836044
0.00836397
0.0083814
0.008411
0.0084509
0.00849907
0.00855363
0.00861228
0.00867132
0.00872269
0.00876044
0.00878746
0.00880908
0.00883001
0.00885438
0.00888565
0.00892652
0.00897869
0.00904192
0.00911293
0.00918463
0.00924751
0.00929305
0.00931745
0.00932413
0.00867556
0.0086657
0.00865233
0.00863484
0.00861209
0.00858736
0.00856878
0.00856215
0.00856887
0.00858832
0.00861851
0.00865709
0.00870163
0.00875
0.00880005
0.00884888
0.00889039
0.00892042
0.00894158
0.00895811
0.00897355
0.00899089
0.00901259
0.00904067
0.00907659
0.00912092
0.00917257
0.00922757
0.00927912
0.00931939
0.00934309
0.00935068
0.00884315
0.0088388
0.00883882
0.00883738
0.00883035
0.00881876
0.00880868
0.00880577
0.00881237
0.00882853
0.00885268
0.00888283
0.00891685
0.00895297
0.0089896
0.00902474
0.00905427
0.00907545
0.00909023
0.00910158
0.00911189
0.00912311
0.00913685
0.00915445
0.00917691
0.00920496
0.00923857
0.00927609
0.0093136
0.00934535
0.00936593
0.00937357
0.00904338
0.00904747
0.00905805
0.0090659
0.00906842
0.00906609
0.00906238
0.00906141
0.00906555
0.00907533
0.00908993
0.00910809
0.00912844
0.00914987
0.00917141
0.00919192
0.00920907
0.00922133
0.00922984
0.0092363
0.00924205
0.00924817
0.00925553
0.00926486
0.00927673
0.00929159
0.0093097
0.00933058
0.0093526
0.00937272
0.00938714
0.00939333
0.00928729
0.00929095
0.0092973
0.00930199
0.0093044
0.00930472
0.00930402
0.00930379
0.00930508
0.00930819
0.00931291
0.00931881
0.00932542
0.00933237
0.00933933
0.00934595
0.00935147
0.00935541
0.00935814
0.0093602
0.00936202
0.00936393
0.0093662
0.00936905
0.00937267
0.00937719
0.00938273
0.00938919
0.0093962
0.00940292
0.00940816
0.00941073
)
;

boundaryField
{
    movingWall
    {
        type            fixedValue;
        value           uniform 0.00942;
    }
    fixedWalls
    {
        type            zeroGradient;
    }
    floor
    {
        type            zeroGradient;
    }
    frontAndBack
    {
        type            empty;
    }
}


// ************************************************************************* //
