/*--------------------------------*- C++ -*----------------------------------*\
| =========                 |                                                 |
| \\      /  F ield         | OpenFOAM: The Open Source CFD Toolbox           |
|  \\    /   O peration     | Version:  2212                                  |
|   \\  /    A nd           | Website:  www.openfoam.com                      |
|    \\/     M anipulation  |                                                 |
\*---------------------------------------------------------------------------*/
FoamFile
{
    version     2.0;
    format      ascii;
    arch        "LSB;label=64;scalar=64";
    class       volScalarField;
    location    "70";
    object      T;
}
// * * * * * * * * * * * * * * * * * * * * * * * * * * * * * * * * * * * * * //

dimensions      [0 0 0 1 0 0 0];

internalField   nonuniform List<scalar> 
1024
(
309.906
309.894
309.87
309.838
309.805
309.768
309.721
309.672
309.65
309.68
309.721
309.766
309.804
309.839
309.875
309.914
309.884
309.808
309.726
309.757
309.796
309.826
309.846
309.861
309.873
309.883
309.893
309.903
309.914
309.925
309.933
309.936
309.714
309.677
309.6
309.503
309.399
309.289
309.162
309.053
309.004
309.066
309.162
309.276
309.392
309.499
309.612
309.733
309.639
309.407
309.191
309.269
309.372
309.456
309.519
309.566
309.603
309.634
309.664
309.697
309.734
309.768
309.793
309.804
309.533
309.472
309.343
309.182
309.016
308.854
308.7
308.587
308.538
308.59
308.682
308.811
308.976
309.144
309.335
309.545
309.39
309.019
308.742
308.832
308.959
309.073
309.171
309.248
309.31
309.365
309.417
309.475
309.54
309.603
309.648
309.666
309.38
309.302
309.136
308.93
308.728
308.552
308.425
308.341
308.302
308.326
308.383
308.475
308.625
308.819
309.069
309.365
309.172
308.715
308.455
308.523
308.629
308.737
308.845
308.938
309.019
309.093
309.167
309.251
309.345
309.438
309.506
309.533
309.257
309.176
308.994
308.769
308.562
308.405
308.313
308.251
308.219
308.226
308.251
308.299
308.393
308.567
308.839
309.202
309.007
308.519
308.31
308.349
308.416
308.496
308.585
308.674
308.76
308.845
308.936
309.042
309.163
309.285
309.374
309.407
309.16
309.088
308.912
308.69
308.495
308.363
308.291
308.234
308.204
308.204
308.218
308.24
308.281
308.406
308.662
309.065
308.89
308.402
308.247
308.268
308.305
308.353
308.412
308.482
308.559
308.642
308.741
308.863
309.006
309.15
309.254
309.291
309.084
309.028
308.875
308.671
308.493
308.379
308.307
308.241
308.209
308.21
308.227
308.242
308.256
308.328
308.542
308.954
308.807
308.328
308.219
308.235
308.255
308.281
308.315
308.363
308.422
308.496
308.593
308.722
308.88
309.037
309.148
309.185
309.02
308.981
308.865
308.695
308.534
308.425
308.333
308.255
308.218
308.224
308.25
308.271
308.276
308.308
308.471
308.872
308.747
308.277
308.206
308.223
308.237
308.251
308.269
308.298
308.34
308.401
308.491
308.62
308.783
308.945
309.054
309.088
308.963
308.938
308.855
308.726
308.593
308.478
308.36
308.265
308.226
308.242
308.282
308.316
308.32
308.327
308.442
308.818
308.698
308.242
308.198
308.219
308.234
308.242
308.25
308.267
308.295
308.344
308.426
308.552
308.713
308.871
308.972
309
308.908
308.893
308.837
308.742
308.63
308.503
308.364
308.263
308.232
308.263
308.324
308.373
308.384
308.373
308.46
308.782
308.655
308.218
308.194
308.22
308.238
308.243
308.245
308.253
308.273
308.314
308.39
308.511
308.666
308.812
308.899
308.92
308.848
308.839
308.801
308.726
308.621
308.475
308.333
308.246
308.238
308.293
308.378
308.443
308.467
308.446
308.519
308.746
308.613
308.2
308.191
308.221
308.245
308.251
308.248
308.25
308.265
308.303
308.376
308.493
308.639
308.767
308.833
308.847
308.772
308.766
308.735
308.664
308.545
308.395
308.274
308.223
308.252
308.337
308.447
308.519
308.541
308.531
308.582
308.711
308.567
308.185
308.188
308.222
308.251
308.264
308.259
308.256
308.27
308.311
308.39
308.505
308.629
308.726
308.772
308.78
308.675
308.666
308.632
308.552
308.42
308.291
308.215
308.213
308.286
308.396
308.502
308.576
308.601
308.602
308.628
308.672
308.514
308.168
308.181
308.22
308.256
308.28
308.287
308.286
308.309
308.357
308.433
308.528
308.62
308.685
308.713
308.716
308.559
308.546
308.504
308.416
308.297
308.206
308.186
308.23
308.315
308.418
308.518
308.588
308.624
308.636
308.64
308.622
308.435
308.148
308.167
308.207
308.251
308.294
308.33
308.356
308.382
308.424
308.482
308.547
308.605
308.642
308.655
308.653
308.446
308.427
308.374
308.289
308.207
308.167
308.177
308.221
308.287
308.362
308.435
308.507
308.559
308.582
308.572
308.503
308.273
308.121
308.14
308.174
308.216
308.265
308.319
308.374
308.424
308.466
308.503
308.541
308.571
308.586
308.588
308.584
308.373
308.352
308.3
308.224
308.155
308.119
308.117
308.137
308.17
308.214
308.271
308.329
308.376
308.396
308.373
308.28
308.112
308.089
308.102
308.121
308.143
308.168
308.198
308.233
308.274
308.325
308.379
308.427
308.461
308.475
308.474
308.47
308.344
308.325
308.279
308.213
308.15
308.111
308.096
308.098
308.11
308.127
308.151
308.177
308.2
308.207
308.186
308.128
308.067
308.076
308.087
308.096
308.105
308.112
308.119
308.123
308.126
308.128
308.129
308.13
308.135
308.144
308.154
308.158
308.339
308.322
308.282
308.222
308.161
308.118
308.097
308.092
308.095
308.101
308.11
308.119
308.126
308.127
308.117
308.099
308.094
308.11
308.119
308.125
308.132
308.138
308.143
308.147
308.148
308.147
308.141
308.132
308.12
308.106
308.093
308.086
308.344
308.329
308.295
308.243
308.184
308.135
308.107
308.096
308.095
308.099
308.105
308.111
308.117
308.122
308.126
308.133
308.153
308.165
308.168
308.169
308.17
308.173
308.176
308.179
308.181
308.181
308.178
308.171
308.159
308.144
308.129
308.119
308.352
308.339
308.311
308.267
308.214
308.165
308.129
308.11
308.103
308.104
308.109
308.117
308.126
308.137
308.152
308.173
308.2
308.211
308.213
308.212
308.21
308.207
308.206
308.206
308.206
308.205
308.203
308.199
308.19
308.178
308.165
308.155
308.358
308.348
308.325
308.289
308.244
308.198
308.16
308.134
308.121
308.117
308.12
308.128
308.138
308.153
308.172
308.195
308.217
308.23
308.237
308.239
308.237
308.235
308.231
308.228
308.225
308.223
308.22
308.217
308.211
308.202
308.191
308.183
308.354
308.348
308.334
308.307
308.271
308.231
308.194
308.165
308.147
308.139
308.138
308.143
308.153
308.168
308.186
308.207
308.226
308.238
308.247
308.251
308.252
308.251
308.248
308.244
308.24
308.236
308.233
308.229
308.225
308.218
308.21
308.203
308.332
308.334
308.33
308.315
308.29
308.258
308.226
308.198
308.177
308.166
308.162
308.164
308.173
308.185
308.201
308.219
308.234
308.245
308.252
308.257
308.259
308.259
308.257
308.253
308.249
308.245
308.241
308.238
308.234
308.229
308.223
308.218
308.298
308.305
308.312
308.311
308.298
308.276
308.25
308.226
308.207
308.194
308.188
308.189
308.195
308.205
308.218
308.232
308.243
308.251
308.257
308.261
308.263
308.263
308.261
308.259
308.255
308.251
308.247
308.243
308.24
308.237
308.233
308.229
308.265
308.274
308.287
308.297
308.296
308.284
308.267
308.247
308.231
308.22
308.214
308.213
308.217
308.224
308.233
308.242
308.249
308.255
308.259
308.262
308.264
308.264
308.263
308.261
308.258
308.254
308.251
308.248
308.245
308.243
308.24
308.237
308.244
308.251
308.265
308.28
308.287
308.285
308.275
308.261
308.249
308.24
308.234
308.233
308.234
308.238
308.243
308.248
308.252
308.256
308.259
308.262
308.263
308.264
308.263
308.262
308.259
308.256
308.253
308.25
308.248
308.246
308.245
308.243
308.233
308.239
308.25
308.265
308.277
308.28
308.276
308.268
308.26
308.253
308.248
308.246
308.246
308.246
308.248
308.25
308.252
308.254
308.257
308.259
308.261
308.262
308.262
308.261
308.259
308.257
308.255
308.252
308.25
308.249
308.248
308.246
308.229
308.234
308.243
308.255
308.266
308.273
308.273
308.269
308.263
308.258
308.254
308.252
308.25
308.248
308.248
308.248
308.249
308.251
308.253
308.255
308.257
308.258
308.259
308.258
308.258
308.256
308.255
308.253
308.252
308.251
308.25
308.249
308.227
308.231
308.238
308.247
308.256
308.263
308.265
308.264
308.261
308.257
308.254
308.251
308.248
308.246
308.244
308.244
308.244
308.246
308.248
308.25
308.252
308.254
308.255
308.256
308.256
308.255
308.255
308.254
308.253
308.252
308.251
308.25
308.224
308.227
308.232
308.238
308.245
308.251
308.254
308.254
308.253
308.251
308.249
308.246
308.244
308.242
308.24
308.24
308.24
308.242
308.244
308.246
308.248
308.25
308.252
308.253
308.253
308.254
308.254
308.253
308.253
308.252
308.252
308.251
308.222
308.224
308.227
308.23
308.234
308.238
308.241
308.243
308.243
308.243
308.242
308.241
308.24
308.238
308.237
308.237
308.237
308.239
308.241
308.243
308.246
308.248
308.249
308.25
308.251
308.252
308.253
308.253
308.253
308.252
308.252
308.252
308.221
308.222
308.223
308.225
308.227
308.23
308.232
308.235
308.237
308.238
308.238
308.238
308.237
308.236
308.236
308.235
308.236
308.238
308.24
308.242
308.244
308.246
308.248
308.249
308.25
308.251
308.252
308.252
308.252
308.252
308.252
308.252
)
;

boundaryField
{
    movingWall
    {
        type            zeroGradient;
    }
    fixedWalls
    {
        type            zeroGradient;
    }
    floor
    {
        type            fixedValue;
        value           uniform 310;
    }
    frontAndBack
    {
        type            empty;
    }
}


// ************************************************************************* //
