/*--------------------------------*- C++ -*----------------------------------*\
| =========                 |                                                 |
| \\      /  F ield         | OpenFOAM: The Open Source CFD Toolbox           |
|  \\    /   O peration     | Version:  2212                                  |
|   \\  /    A nd           | Website:  www.openfoam.com                      |
|    \\/     M anipulation  |                                                 |
\*---------------------------------------------------------------------------*/
FoamFile
{
    version     2.0;
    format      ascii;
    arch        "LSB;label=64;scalar=64";
    class       volVectorField;
    location    "70";
    object      U;
}
// * * * * * * * * * * * * * * * * * * * * * * * * * * * * * * * * * * * * * //

dimensions      [0 1 -1 0 0 0 0];

internalField   nonuniform List<vector> 
1024
(
(-0.0002237 0.000208661 0)
(-0.00204874 0.000519758 0)
(-0.00479687 0.000600238 0)
(-0.00773205 0.000571805 0)
(-0.0102973 0.000497012 0)
(-0.0118943 0.000333177 0)
(-0.0116088 7.02889e-06 0)
(-0.0083137 -0.000436479 0)
(-0.00102293 -0.000653786 0)
(0.00653614 -0.000392846 0)
(0.0113877 -0.000107132 0)
(0.0132816 8.6548e-05 0)
(0.0123996 0.000173555 0)
(0.00925498 0.000201019 0)
(0.0048788 0.00015575 0)
(-0.00181222 0.000209734 0)
(-0.0111181 0.00028523 0)
(-0.0123043 -8.1805e-05 0)
(-0.00368737 -0.000471273 0)
(0.00649645 -0.000194145 0)
(0.00884127 -2.12291e-05 0)
(0.00944172 6.18871e-05 0)
(0.00891457 9.0773e-05 0)
(0.00799969 0.000100077 0)
(0.00700611 0.000104238 0)
(0.00602965 0.000105963 0)
(0.00508419 0.000109548 0)
(0.00411817 0.000125381 0)
(0.00303745 0.000162227 0)
(0.00181458 0.000201559 0)
(0.000683814 0.000165039 0)
(3.91725e-05 2.74895e-05 0)
(-0.000873058 0.00240167 0)
(-0.00574833 0.00458756 0)
(-0.0119153 0.00464811 0)
(-0.0177355 0.00375983 0)
(-0.0220496 0.00246853 0)
(-0.0238216 0.000773286 0)
(-0.0216689 -0.00150531 0)
(-0.0144794 -0.00406511 0)
(-0.000425262 -0.00519208 0)
(0.0139292 -0.00366606 0)
(0.0244705 -0.00178417 0)
(0.0303664 -0.000220312 0)
(0.0305378 0.000804953 0)
(0.0253001 0.00140076 0)
(0.0155123 0.00170892 0)
(-0.00268393 0.00224483 0)
(-0.0254638 0.00178657 0)
(-0.0260222 -0.00114573 0)
(-0.00748086 -0.00365924 0)
(0.0133364 -0.002166 0)
(0.0190426 -0.00067014 0)
(0.0213066 4.33614e-05 0)
(0.0210345 0.000433662 0)
(0.0196128 0.000650112 0)
(0.0177212 0.000788056 0)
(0.0156415 0.000900491 0)
(0.013443 0.00104484 0)
(0.0110488 0.0012951 0)
(0.00831609 0.00167708 0)
(0.00523543 0.00201145 0)
(0.00228224 0.00181612 0)
(0.000270154 0.0007621 0)
(-0.00118648 0.00681713 0)
(-0.00739364 0.0115107 0)
(-0.0147733 0.0108401 0)
(-0.021318 0.00806823 0)
(-0.0256465 0.00452809 0)
(-0.0266237 0.000397826 0)
(-0.0228496 -0.00457394 0)
(-0.0142095 -0.0097273 0)
(0.00130936 -0.011766 0)
(0.0166249 -0.00880193 0)
(0.0295415 -0.0050009 0)
(0.0384 -0.00149354 0)
(0.0410832 0.00119315 0)
(0.0366379 0.00307787 0)
(0.024934 0.00458546 0)
(-0.000833988 0.00614278 0)
(-0.0329125 0.0041584 0)
(-0.0305487 -0.00335889 0)
(-0.0062182 -0.00875641 0)
(0.0158171 -0.00534002 0)
(0.0235338 -0.00207982 0)
(0.0272779 -0.000374854 0)
(0.0278942 0.000659465 0)
(0.0268166 0.00132304 0)
(0.0248631 0.00180566 0)
(0.0224043 0.00223649 0)
(0.0195484 0.00276246 0)
(0.0162396 0.00354359 0)
(0.0123717 0.00461187 0)
(0.00798748 0.00556697 0)
(0.00367817 0.00532384 0)
(0.000498464 0.00266036 0)
(-0.000929005 0.012093 0)
(-0.00666587 0.0198533 0)
(-0.0137205 0.0182541 0)
(-0.0198805 0.013014 0)
(-0.023663 0.00655047 0)
(-0.0239623 -0.000596055 0)
(-0.0197355 -0.00852042 0)
(-0.0111367 -0.01634 0)
(0.00319813 -0.0189674 0)
(0.0170072 -0.0148076 0)
(0.0299422 -0.00920481 0)
(0.0397601 -0.00365403 0)
(0.0445241 0.00107491 0)
(0.041941 0.0048499 0)
(0.0307958 0.00839543 0)
(0.00264087 0.0116505 0)
(-0.034997 0.00721643 0)
(-0.0285685 -0.0067325 0)
(-0.0021858 -0.0147162 0)
(0.0160267 -0.00897597 0)
(0.0243766 -0.00405225 0)
(0.0287812 -0.00123014 0)
(0.0301756 0.000620003 0)
(0.029673 0.0019204 0)
(0.0280619 0.00294779 0)
(0.0256988 0.00392538 0)
(0.0226856 0.00511011 0)
(0.0189839 0.00675193 0)
(0.0145357 0.00886507 0)
(0.0094458 0.0107651 0)
(0.00439516 0.0105757 0)
(0.00060435 0.00565527 0)
(-0.000401875 0.0166932 0)
(-0.00457281 0.0280382 0)
(-0.0104384 0.0259233 0)
(-0.0157682 0.0181523 0)
(-0.0190321 0.00851477 0)
(-0.0191113 -0.00185552 0)
(-0.0150971 -0.0128563 0)
(-0.00706695 -0.0232075 0)
(0.00505396 -0.0260402 0)
(0.0168925 -0.0210263 0)
(0.0286495 -0.0138095 0)
(0.0378791 -0.00629664 0)
(0.0432019 0.000513132 0)
(0.0420993 0.00648128 0)
(0.0325448 0.0126653 0)
(0.00603322 0.0182837 0)
(-0.0338967 0.0107537 0)
(-0.0233148 -0.0111176 0)
(0.00145639 -0.0206547 0)
(0.0155027 -0.012557 0)
(0.0235337 -0.00627166 0)
(0.0278369 -0.00234564 0)
(0.0294584 0.000352747 0)
(0.029286 0.00237317 0)
(0.0279958 0.00407087 0)
(0.0258753 0.00577476 0)
(0.0229846 0.00786263 0)
(0.0192758 0.0106673 0)
(0.0147175 0.0141428 0)
(0.00947458 0.0172205 0)
(0.00431265 0.0170469 0)
(0.000551323 0.00931734 0)
(7.66447e-05 0.0194972 0)
(-0.00210324 0.0346727 0)
(-0.00630311 0.0330135 0)
(-0.0105989 0.0232117 0)
(-0.0134447 0.0105219 0)
(-0.0135958 -0.00312458 0)
(-0.00986195 -0.0175103 0)
(-0.00246972 -0.0300399 0)
(0.00694359 -0.0327518 0)
(0.0169417 -0.0272105 0)
(0.0269799 -0.0184868 0)
(0.0348663 -0.00903906 0)
(0.0393945 -0.00025483 0)
(0.0388019 0.00795884 0)
(0.0307516 0.0170616 0)
(0.0080555 0.0255595 0)
(-0.0314046 0.0145268 0)
(-0.0171735 -0.0163306 0)
(0.00336038 -0.0261475 0)
(0.0145641 -0.0160628 0)
(0.0219479 -0.0085812 0)
(0.0258475 -0.00353765 0)
(0.0272638 2.63463e-05 0)
(0.0270739 0.00278879 0)
(0.0258832 0.00520666 0)
(0.0239312 0.00773614 0)
(0.0212359 0.0108913 0)
(0.0177244 0.015081 0)
(0.0133715 0.0201364 0)
(0.00839356 0.0244588 0)
(0.00362223 0.0240502 0)
(0.000388964 0.0130566 0)
(0.00035578 0.0200608 0)
(9.43859e-05 0.0385177 0)
(-0.00208702 0.0386635 0)
(-0.00508379 0.0278673 0)
(-0.0074566 0.0125775 0)
(-0.00765947 -0.00436027 0)
(-0.0040405 -0.0225104 0)
(0.00221863 -0.036397 0)
(0.00920423 -0.0389879 0)
(0.0172075 -0.0330847 0)
(0.0251734 -0.0229378 0)
(0.0313317 -0.0115687 0)
(0.0345812 -0.000861998 0)
(0.033505 0.00945655 0)
(0.02621 0.021423 0)
(0.00797361 0.033012 0)
(-0.0286701 0.0182401 0)
(-0.0116309 -0.0221205 0)
(0.00351122 -0.0309856 0)
(0.0129914 -0.0196147 0)
(0.0197359 -0.0109726 0)
(0.0232938 -0.0047342 0)
(0.0244626 -0.000214845 0)
(0.0240904 0.00332318 0)
(0.022826 0.00647765 0)
(0.0209227 0.0098624 0)
(0.0183893 0.0141547 0)
(0.0151398 0.0198381 0)
(0.0111548 0.0265411 0)
(0.00669846 0.0319613 0)
(0.00263726 0.0308613 0)
(0.000199979 0.0163199 0)
(0.000450498 0.0186494 0)
(0.00154185 0.0386603 0)
(0.00145467 0.0416467 0)
(0.000328094 0.0319638 0)
(-0.00110351 0.0148532 0)
(-0.000951048 -0.00543316 0)
(0.00246442 -0.0276627 0)
(0.00680649 -0.0415361 0)
(0.0117854 -0.0444532 0)
(0.0174945 -0.0382054 0)
(0.0230491 -0.0267657 0)
(0.0271613 -0.0135974 0)
(0.0289967 -0.000990878 0)
(0.0268728 0.0112477 0)
(0.0194196 0.0257559 0)
(0.00541995 0.0401998 0)
(-0.0262881 0.0215233 0)
(-0.00755158 -0.0281781 0)
(0.00221835 -0.0351209 0)
(0.0105492 -0.0232755 0)
(0.0167135 -0.0135139 0)
(0.0201121 -0.00598435 0)
(0.0212066 -0.000362884 0)
(0.0207335 0.00403731 0)
(0.0194148 0.00796405 0)
(0.0175452 0.0122134 0)
(0.0151549 0.0176514 0)
(0.0121759 0.024832 0)
(0.00862164 0.0330846 0)
(0.00481667 0.0392306 0)
(0.00162556 0.0368427 0)
(4.37043e-05 0.018736 0)
(0.00042509 0.0156361 0)
(0.00222296 0.0352353 0)
(0.00369205 0.0404092 0)
(0.00442062 0.032685 0)
(0.00468709 0.0158448 0)
(0.00607649 -0.00730715 0)
(0.00850304 -0.0306004 0)
(0.0112986 -0.0454716 0)
(0.0142631 -0.0486177 0)
(0.01739 -0.0419718 0)
(0.0202001 -0.0294493 0)
(0.0219571 -0.0148099 0)
(0.0223075 -0.000258406 0)
(0.0188841 0.0136192 0)
(0.0103945 0.0300275 0)
(0.00032365 0.0467382 0)
(-0.0244108 0.0238883 0)
(-0.00528848 -0.0341112 0)
(-0.000224898 -0.0385601 0)
(0.0070761 -0.0270107 0)
(0.0126694 -0.0162781 0)
(0.0161073 -0.00740226 0)
(0.0173329 -0.000535377 0)
(0.01696 0.00483665 0)
(0.0157621 0.00960231 0)
(0.0140493 0.0147539 0)
(0.0118605 0.0213483 0)
(0.00917038 0.0299692 0)
(0.00607244 0.0395196 0)
(0.00298554 0.0458085 0)
(0.000730024 0.04149 0)
(-6.12928e-05 0.0201355 0)
(0.0003151 0.0118899 0)
(0.00218456 0.0291814 0)
(0.00443777 0.0354694 0)
(0.00645309 0.0295729 0)
(0.00831104 0.0135697 0)
(0.0107634 -0.0101228 0)
(0.0130786 -0.0335611 0)
(0.0147947 -0.0480918 0)
(0.0156933 -0.0508067 0)
(0.0160699 -0.0436546 0)
(0.015905 -0.0303456 0)
(0.0151234 -0.0148597 0)
(0.0135918 0.000988531 0)
(0.00859241 0.0163758 0)
(-0.00149889 0.0349466 0)
(-0.00670722 0.0517919 0)
(-0.0229127 0.0247498 0)
(-0.00475158 -0.0393999 0)
(-0.00354619 -0.0412209 0)
(0.00242916 -0.0307411 0)
(0.00738506 -0.0193333 0)
(0.0110926 -0.00912746 0)
(0.0126964 -0.000915824 0)
(0.0126333 0.00549808 0)
(0.0117691 0.0111686 0)
(0.0103944 0.0173107 0)
(0.00850478 0.0251358 0)
(0.00613231 0.0351294 0)
(0.00352001 0.0455751 0)
(0.00123862 0.0512036 0)
(-1.87112e-05 0.0443345 0)
(-0.000121813 0.0204628 0)
(0.000176439 0.00838709 0)
(0.00164921 0.0221291 0)
(0.00392716 0.0281594 0)
(0.00650129 0.0232724 0)
(0.00945176 0.00785744 0)
(0.0126365 -0.0154477 0)
(0.0149806 -0.0367627 0)
(0.0156984 -0.0491229 0)
(0.0145818 -0.0503544 0)
(0.0122407 -0.0424447 0)
(0.00904042 -0.0285532 0)
(0.00549894 -0.0128478 0)
(0.000639061 0.00479022 0)
(-0.00611959 0.0223225 0)
(-0.0145146 0.039931 0)
(-0.0146357 0.0539837 0)
(-0.0215438 0.023569 0)
(-0.00577079 -0.043315 0)
(-0.0075758 -0.0428973 0)
(-0.00350863 -0.0342815 0)
(0.000668129 -0.0228442 0)
(0.00475237 -0.0114745 0)
(0.00717237 -0.00171589 0)
(0.00768746 0.00571243 0)
(0.00730549 0.0123183 0)
(0.00637822 0.0195897 0)
(0.00480346 0.0287981 0)
(0.00272954 0.0400951 0)
(0.000692145 0.0507977 0)
(-0.000529458 0.0545907 0)
(-0.000659146 0.0448382 0)
(-0.000170369 0.0197358 0)
(8.01733e-05 0.00576275 0)
(0.00102368 0.0157346 0)
(0.00285157 0.0201604 0)
(0.00539374 0.0148372 0)
(0.0086226 -0.0011829 0)
(0.0116542 -0.0221681 0)
(0.0132866 -0.0393352 0)
(0.0126408 -0.0478295 0)
(0.00942501 -0.046421 0)
(0.00451228 -0.0373365 0)
(-0.00165552 -0.0222846 0)
(-0.00806457 -0.00572766 0)
(-0.015548 0.0114227 0)
(-0.0209667 0.0271467 0)
(-0.0259769 0.0428962 0)
(-0.0222283 0.0528079 0)
(-0.0198857 0.0196972 0)
(-0.00840404 -0.0450415 0)
(-0.0126161 -0.0436433 0)
(-0.010409 -0.0365172 0)
(-0.00746734 -0.0268067 0)
(-0.00355401 -0.015576 0)
(4.93929e-05 -0.00380066 0)
(0.00186708 0.00503952 0)
(0.00189759 0.0126628 0)
(0.00119548 0.0214593 0)
(-0.000159841 0.032677 0)
(-0.00159684 0.0448862 0)
(-0.00238817 0.0538238 0)
(-0.00219549 0.0544563 0)
(-0.00126386 0.0424023 0)
(-0.000224762 0.0176588 0)
(3.77186e-05 0.00406915 0)
(0.000525262 0.0109865 0)
(0.0016845 0.0131276 0)
(0.00364126 0.00629867 0)
(0.00594177 -0.00981754 0)
(0.00764465 -0.0271479 0)
(0.00750987 -0.0389224 0)
(0.00487721 -0.0425204 0)
(-0.000708377 -0.0375625 0)
(-0.00767609 -0.0269201 0)
(-0.0149229 -0.0133734 0)
(-0.0222457 0.00179098 0)
(-0.0283923 0.0167301 0)
(-0.0325662 0.0306093 0)
(-0.0343221 0.0434122 0)
(-0.0279035 0.0482139 0)
(-0.0177989 0.0131477 0)
(-0.0128648 -0.0436639 0)
(-0.0189618 -0.0428725 0)
(-0.0188339 -0.0378262 0)
(-0.016954 -0.0299034 0)
(-0.0136669 -0.0198526 0)
(-0.0099686 -0.00864916 0)
(-0.00673307 0.00251366 0)
(-0.00629693 0.0129121 0)
(-0.00640623 0.0239217 0)
(-0.00665088 0.0356172 0)
(-0.0064411 0.0461686 0)
(-0.00543496 0.0520236 0)
(-0.00369961 0.0494455 0)
(-0.00174766 0.0362036 0)
(-0.000253159 0.0140326 0)
(-7.35409e-06 0.00336031 0)
(-1.95289e-05 0.00870402 0)
(0.000201967 0.00907693 0)
(0.000841376 0.000985053 0)
(0.00135032 -0.0136495 0)
(0.000545958 -0.0267832 0)
(-0.00240588 -0.0324933 0)
(-0.00746298 -0.0310228 0)
(-0.0138851 -0.0247535 0)
(-0.0207494 -0.0151848 0)
(-0.0274153 -0.00335625 0)
(-0.0334271 0.00941426 0)
(-0.0373165 0.0212759 0)
(-0.0396832 0.0325121 0)
(-0.0386766 0.0414188 0)
(-0.0304401 0.0408504 0)
(-0.0157773 0.00557125 0)
(-0.0193053 -0.038408 0)
(-0.0267929 -0.0398521 0)
(-0.0289019 -0.0375595 0)
(-0.0284171 -0.0321092 0)
(-0.0260311 -0.0236557 0)
(-0.0226475 -0.0126519 0)
(-0.0191614 -0.000190501 0)
(-0.0164966 0.0118207 0)
(-0.0147117 0.0230312 0)
(-0.0127654 0.0333168 0)
(-0.0103955 0.0409924 0)
(-0.00756729 0.043453 0)
(-0.00454211 0.0384973 0)
(-0.00189399 0.0259565 0)
(-0.000228524 0.00903277 0)
(-7.19546e-05 0.00439947 0)
(-0.000664372 0.010723 0)
(-0.0015925 0.0106476 0)
(-0.00297903 0.00254187 0)
(-0.00530236 -0.00938626 0)
(-0.00912861 -0.0172586 0)
(-0.0142938 -0.0190007 0)
(-0.0201969 -0.0165425 0)
(-0.0263256 -0.011261 0)
(-0.0321577 -0.00378408 0)
(-0.0371433 0.00529549 0)
(-0.0404344 0.0145595 0)
(-0.0424483 0.0238782 0)
(-0.0426283 0.0321549 0)
(-0.0393743 0.0368553 0)
(-0.0302708 0.0313642 0)
(-0.0181226 -0.000792675 0)
(-0.0273905 -0.0297177 0)
(-0.0353095 -0.0344821 0)
(-0.0390023 -0.0354215 0)
(-0.0398621 -0.0330699 0)
(-0.0384071 -0.0275323 0)
(-0.0350961 -0.0190323 0)
(-0.0304131 -0.00810787 0)
(-0.0248266 0.0041809 0)
(-0.0196949 0.0151037 0)
(-0.0151217 0.0231297 0)
(-0.0108603 0.0279999 0)
(-0.00698784 0.0281151 0)
(-0.00367651 0.0227249 0)
(-0.00129222 0.0133875 0)
(-0.000109607 0.00380977 0)
(-0.000129713 0.0081429 0)
(-0.00113689 0.0195354 0)
(-0.00295989 0.0228264 0)
(-0.00575277 0.0183457 0)
(-0.00978413 0.0109929 0)
(-0.0148313 0.00472332 0)
(-0.020454 0.00136571 0)
(-0.0262192 0.000943149 0)
(-0.0317267 0.0027976 0)
(-0.0365686 0.00640172 0)
(-0.0403202 0.0113319 0)
(-0.0428162 0.0175014 0)
(-0.0437529 0.0239605 0)
(-0.0426223 0.0290824 0)
(-0.0385561 0.0300686 0)
(-0.0313337 0.0216734 0)
(-0.028093 -0.00205928 0)
(-0.034382 -0.0203863 0)
(-0.0405983 -0.0283293 0)
(-0.0441695 -0.0325324 0)
(-0.0454647 -0.0338859 0)
(-0.044583 -0.0327988 0)
(-0.0416453 -0.0295232 0)
(-0.0368693 -0.0242315 0)
(-0.0306427 -0.0170552 0)
(-0.0235736 -0.00814112 0)
(-0.0165922 0.00112795 0)
(-0.0104604 0.00806545 0)
(-0.00556217 0.0109241 0)
(-0.00220004 0.00931601 0)
(-0.000462078 0.00539337 0)
(3.28415e-05 0.00157082 0)
(-8.86503e-05 0.0124478 0)
(-0.000910817 0.0297469 0)
(-0.00257225 0.0371303 0)
(-0.00515203 0.0352554 0)
(-0.00854224 0.0289882 0)
(-0.012539 0.0229299 0)
(-0.0169875 0.0187792 0)
(-0.0217383 0.0163925 0)
(-0.0265578 0.0154283 0)
(-0.0311232 0.0158329 0)
(-0.0350223 0.0176082 0)
(-0.0377692 0.0205145 0)
(-0.0388601 0.0238528 0)
(-0.0378601 0.0262327 0)
(-0.034531 0.0252703 0)
(-0.0299874 0.0173559 0)
(-0.0294994 0.000459413 0)
(-0.0324619 -0.0140951 0)
(-0.0361346 -0.0234083 0)
(-0.0387156 -0.029737 0)
(-0.0399429 -0.033979 0)
(-0.0396596 -0.0366624 0)
(-0.0378301 -0.0380672 0)
(-0.0345261 -0.0382772 0)
(-0.0299214 -0.0372107 0)
(-0.0243061 -0.0346426 0)
(-0.0181415 -0.0302945 0)
(-0.0120723 -0.0240162 0)
(-0.0068032 -0.016136 0)
(-0.00294156 -0.00801749 0)
(-0.000784472 -0.00215271 0)
(-2.44763e-05 0.000235727 0)
(-3.76781e-06 0.0147684 0)
(-0.000316364 0.0360694 0)
(-0.00125435 0.0472309 0)
(-0.00304453 0.048085 0)
(-0.00562512 0.0428468 0)
(-0.00870534 0.0365007 0)
(-0.0120343 0.0314797 0)
(-0.0155047 0.0279881 0)
(-0.019042 0.0256077 0)
(-0.0224865 0.0240994 0)
(-0.0255368 0.0234242 0)
(-0.0277566 0.0235152 0)
(-0.0286417 0.0240146 0)
(-0.0277524 0.0240059 0)
(-0.0249682 0.0217344 0)
(-0.0212022 0.0145593 0)
(-0.0189663 0.00116768 0)
(-0.0196647 -0.0112244 0)
(-0.0219391 -0.0202095 0)
(-0.0241318 -0.0270816 0)
(-0.0257471 -0.0326166 0)
(-0.0265182 -0.0373092 0)
(-0.0263181 -0.0414124 0)
(-0.0251104 -0.0449341 0)
(-0.0229217 -0.0476516 0)
(-0.0198362 -0.0490138 0)
(-0.0160434 -0.0481741 0)
(-0.0118525 -0.0441843 0)
(-0.00767773 -0.0363996 0)
(-0.00402131 -0.0253483 0)
(-0.00141647 -0.0133677 0)
(-0.00013014 -0.00348953 0)
(7.66252e-05 0.0147931 0)
(0.000341472 0.0374729 0)
(0.000343087 0.0514864 0)
(-0.000304664 0.05559 0)
(-0.00181849 0.0520783 0)
(-0.00399309 0.0456783 0)
(-0.0064325 0.0397608 0)
(-0.00884982 0.0352474 0)
(-0.011129 0.0318553 0)
(-0.0132035 0.0291906 0)
(-0.0149074 0.0270693 0)
(-0.0159417 0.0253996 0)
(-0.0159093 0.0239708 0)
(-0.0144086 0.0222096 0)
(-0.0112436 0.0188919 0)
(-0.00684192 0.011914 0)
(-0.0021559 0.000220841 0)
(-0.00234165 -0.00994239 0)
(-0.0042657 -0.0178143 0)
(-0.00676611 -0.0243141 0)
(-0.00920836 -0.0300276 0)
(-0.0112725 -0.0353835 0)
(-0.0128101 -0.0406544 0)
(-0.0137167 -0.0458633 0)
(-0.0139288 -0.0509482 0)
(-0.0133349 -0.0553951 0)
(-0.0118556 -0.0580856 0)
(-0.00955693 -0.0574808 0)
(-0.00670258 -0.0518686 0)
(-0.00378368 -0.0404432 0)
(-0.00144309 -0.0246299 0)
(-0.000141671 -0.00791321 0)
(0.0001365 0.0131073 0)
(0.000919763 0.0349373 0)
(0.00183966 0.0503637 0)
(0.00241939 0.0572324 0)
(0.00224461 0.0564663 0)
(0.00125111 0.051337 0)
(-0.000271821 0.0450589 0)
(-0.00190159 0.0394248 0)
(-0.00327339 0.0349912 0)
(-0.00425403 0.0313973 0)
(-0.0047244 0.0283169 0)
(-0.004501 0.0255488 0)
(-0.00330522 0.0228688 0)
(-0.000685704 0.0197441 0)
(0.00352617 0.0153282 0)
(0.00911366 0.0081115 0)
(0.0145808 -0.000781255 0)
(0.0146483 -0.00831888 0)
(0.0127243 -0.0148435 0)
(0.00978614 -0.0206334 0)
(0.00647477 -0.0259999 0)
(0.00322465 -0.0312761 0)
(0.000166286 -0.0368579 0)
(-0.00245017 -0.0425764 0)
(-0.00457714 -0.0486083 0)
(-0.0060978 -0.0548573 0)
(-0.0067513 -0.0602718 0)
(-0.00637763 -0.0630258 0)
(-0.00503278 -0.0604551 0)
(-0.00311046 -0.0503175 0)
(-0.00128562 -0.0328259 0)
(-0.000145841 -0.0114014 0)
(0.00016368 0.0104662 0)
(0.00133138 0.0297595 0)
(0.00305428 0.0453613 0)
(0.0047823 0.054308 0)
(0.00595739 0.0562434 0)
(0.006311 0.053142 0)
(0.00594524 0.0476394 0)
(0.00522666 0.0417173 0)
(0.00461287 0.0363925 0)
(0.00445195 0.0318353 0)
(0.00495383 0.0278617 0)
(0.00627375 0.02422 0)
(0.00859421 0.0206096 0)
(0.0121507 0.0165679 0)
(0.0168899 0.0114675 0)
(0.0223575 0.00452031 0)
(0.0264491 -0.00265709 0)
(0.0268101 -0.00833792 0)
(0.025126 -0.0131886 0)
(0.0221403 -0.0176782 0)
(0.0184346 -0.0221249 0)
(0.0144709 -0.0267536 0)
(0.0105231 -0.0317385 0)
(0.00677066 -0.0371992 0)
(0.00337986 -0.0432848 0)
(0.000379748 -0.0502911 0)
(-0.00193371 -0.0575181 0)
(-0.00322057 -0.0631584 0)
(-0.0032834 -0.0638857 0)
(-0.00233713 -0.0560261 0)
(-0.00104987 -0.0383995 0)
(-0.00012677 -0.014016 0)
(0.00016039 0.00758634 0)
(0.00152818 0.0233385 0)
(0.0038363 0.0380596 0)
(0.00651294 0.0483186 0)
(0.00889931 0.0526291 0)
(0.0105816 0.0517877 0)
(0.0114926 0.0476844 0)
(0.0118827 0.042153 0)
(0.0121906 0.0364568 0)
(0.0128553 0.0311874 0)
(0.014187 0.0264563 0)
(0.0163626 0.022124 0)
(0.0194817 0.0179122 0)
(0.0235747 0.0134303 0)
(0.0283855 0.00824978 0)
(0.0331298 0.00213399 0)
(0.0357587 -0.00349731 0)
(0.0354758 -0.0078568 0)
(0.0334253 -0.0115354 0)
(0.0301906 -0.0149626 0)
(0.0262037 -0.0184691 0)
(0.0218164 -0.0223168 0)
(0.0173061 -0.0266956 0)
(0.0129034 -0.0317223 0)
(0.00879355 -0.0375239 0)
(0.00506435 -0.0442753 0)
(0.00182121 -0.0519993 0)
(-0.000698348 -0.0598583 0)
(-0.00192235 -0.063783 0)
(-0.001783 -0.0587196 0)
(-0.000891737 -0.0419842 0)
(-0.000107609 -0.0158745 0)
(0.000133579 0.0049725 0)
(0.0014959 0.0168765 0)
(0.0040814 0.0299217 0)
(0.00738852 0.0407151 0)
(0.0107105 0.0468685 0)
(0.0135456 0.0481262 0)
(0.0157098 0.0456269 0)
(0.0173376 0.040911 0)
(0.0187817 0.0353148 0)
(0.0204492 0.0297097 0)
(0.0226597 0.0244952 0)
(0.025588 0.019718 0)
(0.0292702 0.0151999 0)
(0.0335874 0.0106483 0)
(0.0381106 0.00579596 0)
(0.0418971 0.000618832 0)
(0.0431476 -0.00377709 0)
(0.0419309 -0.00705523 0)
(0.0392047 -0.00976231 0)
(0.0354976 -0.0122884 0)
(0.031158 -0.0149495 0)
(0.0264481 -0.0180158 0)
(0.0215841 -0.0217067 0)
(0.0167634 -0.0261972 0)
(0.0121651 -0.0316511 0)
(0.0079276 -0.03825 0)
(0.00415964 -0.0461233 0)
(0.00101062 -0.0548495 0)
(-0.00113712 -0.0616219 0)
(-0.00163825 -0.0596494 0)
(-0.000952133 -0.0445635 0)
(-0.000112222 -0.0174 0)
(9.38978e-05 0.0029238 0)
(0.00125674 0.011295 0)
(0.0037518 0.0222008 0)
(0.00727859 0.0328073 0)
(0.0111616 0.0401505 0)
(0.0148683 0.0430707 0)
(0.0181542 0.0420253 0)
(0.0210564 0.0382402 0)
(0.0238002 0.0330397 0)
(0.0266679 0.027459 0)
(0.0298865 0.0221056 0)
(0.0335667 0.0171942 0)
(0.0376756 0.0126631 0)
(0.0419885 0.00831893 0)
(0.0459632 0.0040036 0)
(0.048682 -0.000207764 0)
(0.0486206 -0.00353748 0)
(0.046465 -0.00593735 0)
(0.043083 -0.00787671 0)
(0.0389589 -0.0096878 0)
(0.0343703 -0.0116542 0)
(0.0294986 -0.0140387 0)
(0.0244867 -0.0170812 0)
(0.0194723 -0.0210014 0)
(0.0145974 -0.0260088 0)
(0.00999502 -0.032325 0)
(0.00578349 -0.0401768 0)
(0.00211885 -0.0494711 0)
(-0.000730472 -0.0582737 0)
(-0.00187275 -0.0596312 0)
(-0.00130891 -0.046917 0)
(-0.000169818 -0.0190757 0)
(4.94552e-05 0.0015549 0)
(0.000841529 0.00717828 0)
(0.0028438 0.0158569 0)
(0.00611897 0.0256499 0)
(0.0101528 0.0334537 0)
(0.0144288 0.037414 0)
(0.0186782 0.037432 0)
(0.0228418 0.0344683 0)
(0.0269749 0.029799 0)
(0.031164 0.0245261 0)
(0.0354723 0.019364 0)
(0.0398986 0.0146339 0)
(0.0443294 0.0103663 0)
(0.0484673 0.00645121 0)
(0.0517372 0.00279982 0)
(0.053253 -0.000476825 0)
(0.0521448 -0.00294738 0)
(0.0492919 -0.00467207 0)
(0.0455094 -0.00603288 0)
(0.0412293 -0.0073032 0)
(0.0366554 -0.008727 0)
(0.031887 -0.0105458 0)
(0.0269856 -0.013002 0)
(0.0220129 -0.0163416 0)
(0.0170503 -0.0208157 0)
(0.012199 -0.0266952 0)
(0.00757469 -0.0342894 0)
(0.00333855 -0.0437772 0)
(-0.000278191 -0.0540747 0)
(-0.00223774 -0.058886 0)
(-0.00194881 -0.0493593 0)
(-0.000316439 -0.0213145 0)
(-1.35822e-05 0.000894148 0)
(0.000173782 0.00484779 0)
(0.00124299 0.0115654 0)
(0.0038043 0.0199916 0)
(0.00767253 0.0274365 0)
(0.012315 0.0317001 0)
(0.0174266 0.0322745 0)
(0.0228321 0.0299208 0)
(0.0283719 0.025835 0)
(0.0338942 0.0210865 0)
(0.0392722 0.0163948 0)
(0.0443813 0.0121184 0)
(0.0490363 0.00834266 0)
(0.0529109 0.00501379 0)
(0.0554804 0.00207696 0)
(0.0560412 -0.000405401 0)
(0.0542704 -0.00220869 0)
(0.0511104 -0.00343576 0)
(0.0472994 -0.00438272 0)
(0.0431975 -0.00526639 0)
(0.038934 -0.00628594 0)
(0.0345324 -0.00764897 0)
(0.0299749 -0.00958031 0)
(0.0252422 -0.012329 0)
(0.0203411 -0.0161718 0)
(0.0153212 -0.0214275 0)
(0.0102797 -0.0284864 0)
(0.00537443 -0.0377482 0)
(0.000845781 -0.0488667 0)
(-0.00230803 -0.0571008 0)
(-0.00274115 -0.0516856 0)
(-0.000593933 -0.0243709 0)
(-0.00014949 0.00117591 0)
(-0.000941773 0.00474206 0)
(-0.00120878 0.00971838 0)
(0.000193575 0.0160291 0)
(0.00379204 0.022336 0)
(0.0088285 0.0261756 0)
(0.0148055 0.0268198 0)
(0.0214388 0.0248782 0)
(0.0283355 0.0214128 0)
(0.0351077 0.0173566 0)
(0.0414607 0.0133469 0)
(0.0471748 0.00972223 0)
(0.0520319 0.00658676 0)
(0.0557379 0.00391477 0)
(0.0578946 0.00165771 0)
(0.0580404 -0.00018082 0)
(0.0561716 -0.00149482 0)
(0.0531739 -0.00237168 0)
(0.0496971 -0.00303357 0)
(0.0460385 -0.00364777 0)
(0.042276 -0.00436875 0)
(0.0383831 -0.00536319 0)
(0.0342841 -0.00682229 0)
(0.0298909 -0.00897437 0)
(0.0251354 -0.0120974 0)
(0.0199984 -0.0165424 0)
(0.0145313 -0.0227727 0)
(0.00886794 -0.031366 0)
(0.00328917 -0.042542 0)
(-0.00144292 -0.0536402 0)
(-0.00335199 -0.0532828 0)
(-0.00100308 -0.0282639 0)
(-0.000483306 0.00282962 0)
(-0.00276496 0.00697927 0)
(-0.00437826 0.0103191 0)
(-0.00408513 0.0138068 0)
(-0.00111653 0.0177464 0)
(0.00459621 0.0207727 0)
(0.0115535 0.0211936 0)
(0.0193975 0.0195673 0)
(0.0275613 0.0167756 0)
(0.0354754 0.0135302 0)
(0.0427386 0.0103319 0)
(0.0490882 0.00746361 0)
(0.0543183 0.00502312 0)
(0.0582088 0.0029954 0)
(0.0604966 0.00133243 0)
(0.0608966 4.16094e-06 0)
(0.0594504 -0.000939748 0)
(0.0569471 -0.00155697 0)
(0.0539889 -0.00201082 0)
(0.0508534 -0.00242616 0)
(0.0476069 -0.00291625 0)
(0.0442068 -0.00360532 0)
(0.0405502 -0.00464156 0)
(0.0365042 -0.00621321 0)
(0.0319357 -0.00857019 0)
(0.0267432 -0.0120618 0)
(0.0208913 -0.0171938 0)
(0.0144461 -0.0246819 0)
(0.00766399 -0.0352332 0)
(0.00119707 -0.0478497 0)
(-0.00316267 -0.0532545 0)
(-0.00142676 -0.0327605 0)
(-0.00107367 0.00640102 0)
(-0.0050935 0.0110047 0)
(-0.00746973 0.0119993 0)
(-0.00753181 0.0125529 0)
(-0.00481696 0.0138211 0)
(0.00118784 0.0153031 0)
(0.00936242 0.0154183 0)
(0.0183444 0.0141512 0)
(0.0276756 0.0120949 0)
(0.0366766 0.00971681 0)
(0.044894 0.00737342 0)
(0.052045 0.0052812 0)
(0.0579355 0.00352212 0)
(0.0623911 0.00208939 0)
(0.0652196 0.000943703 0)
(0.0662134 4.62614e-05 0)
(0.0653455 -0.000579415 0)
(0.0633548 -0.000976115 0)
(0.0608656 -0.00125881 0)
(0.0581716 -0.00151373 0)
(0.0553506 -0.00181681 0)
(0.052363 -0.00225163 0)
(0.0490987 -0.00292063 0)
(0.0454025 -0.00396059 0)
(0.0410941 -0.00556762 0)
(0.0359883 -0.00804395 0)
(0.0299233 -0.011876 0)
(0.0228147 -0.0178407 0)
(0.0147868 -0.0269923 0)
(0.0064153 -0.0396697 0)
(-0.0012435 -0.0503567 0)
(-0.00154631 -0.0371784 0)
(-0.00184948 0.0123337 0)
(-0.00671308 0.0154147 0)
(-0.0078485 0.0131179 0)
(-0.00645602 0.0110469 0)
(-0.0029361 0.010082 0)
(0.00378845 0.00995337 0)
(0.0124873 0.0096633 0)
(0.0222707 0.00880389 0)
(0.03246 0.00749122 0)
(0.042313 0.00596864 0)
(0.0513073 0.00446349 0)
(0.0591021 0.00312746 0)
(0.0654757 0.00202429 0)
(0.0702675 0.00115314 0)
(0.0733404 0.000484144 0)
(0.0745838 -1.85677e-05 0)
(0.0739705 -0.000354116 0)
(0.0722801 -0.000557383 0)
(0.0701336 -0.000697567 0)
(0.0678125 -0.00082419 0)
(0.0653887 -0.000979966 0)
(0.0628216 -0.00121231 0)
(0.0600002 -0.00158103 0)
(0.0567634 -0.0021697 0)
(0.0529075 -0.00310653 0)
(0.0481853 -0.00460804 0)
(0.0423034 -0.00706359 0)
(0.0349457 -0.0111829 0)
(0.0259058 -0.0181623 0)
(0.0153492 -0.0293729 0)
(0.00379906 -0.0429557 0)
(-0.000277237 -0.0391593 0)
(-0.00129941 0.018175 0)
(-0.00367132 0.017456 0)
(0.00148594 0.0116134 0)
(0.00760767 0.00828241 0)
(0.0137408 0.00631451 0)
(0.020864 0.0052411 0)
(0.0292507 0.00461445 0)
(0.0385938 0.00403816 0)
(0.0482668 0.00335187 0)
(0.0575437 0.00259364 0)
(0.0658496 0.00185954 0)
(0.0728114 0.00122778 0)
(0.0782368 0.00073195 0)
(0.0820631 0.000366768 0)
(0.0843009 0.000107149 0)
(0.0849961 -7.24644e-05 0)
(0.0842581 -0.000184466 0)
(0.0827872 -0.000248141 0)
(0.0810521 -0.000290681 0)
(0.079245 -0.00033135 0)
(0.0773979 -0.000387031 0)
(0.0754595 -0.000477287 0)
(0.0733253 -0.000628008 0)
(0.0708479 -0.000877194 0)
(0.0678341 -0.00128716 0)
(0.0640248 -0.00197337 0)
(0.0590529 -0.00316942 0)
(0.0523853 -0.00536528 0)
(0.0432821 -0.00954889 0)
(0.0308829 -0.0173896 0)
(0.0151427 -0.029659 0)
(0.00624087 -0.0333577 0)
(0.0208367 0.0114163 0)
(0.0270889 0.0091986 0)
(0.0396694 0.00527691 0)
(0.0496619 0.00312264 0)
(0.0569757 0.00191765 0)
(0.063039 0.00121441 0)
(0.0687081 0.000821064 0)
(0.0742887 0.000587654 0)
(0.0796634 0.000416802 0)
(0.0845086 0.000275195 0)
(0.0885346 0.00016113 0)
(0.0915995 7.87146e-05 0)
(0.0937109 2.62227e-05 0)
(0.0949666 -3.97263e-06 0)
(0.0954868 -2.09365e-05 0)
(0.0953613 -3.00477e-05 0)
(0.0947268 -3.49781e-05 0)
(0.0938857 -3.69272e-05 0)
(0.0930113 -3.78944e-05 0)
(0.0921571 -3.99514e-05 0)
(0.0913114 -4.49388e-05 0)
(0.0904307 -5.54849e-05 0)
(0.0894488 -7.54511e-05 0)
(0.0882771 -0.000110895 0)
(0.0867961 -0.000172459 0)
(0.0848313 -0.000281724 0)
(0.0820937 -0.00048762 0)
(0.0780521 -0.000906867 0)
(0.0716655 -0.00181977 0)
(0.0608803 -0.00396644 0)
(0.043327 -0.00920127 0)
(0.0286218 -0.0145389 0)
)
;

boundaryField
{
    movingWall
    {
        type            fixedValue;
        value           uniform (0.1 0 0);
    }
    fixedWalls
    {
        type            noSlip;
    }
    floor
    {
        type            noSlip;
    }
    frontAndBack
    {
        type            empty;
    }
}


// ************************************************************************* //
