/*--------------------------------*- C++ -*----------------------------------*\
| =========                 |                                                 |
| \\      /  F ield         | OpenFOAM: The Open Source CFD Toolbox           |
|  \\    /   O peration     | Version:  2212                                  |
|   \\  /    A nd           | Website:  www.openfoam.com                      |
|    \\/     M anipulation  |                                                 |
\*---------------------------------------------------------------------------*/
FoamFile
{
    version     2.0;
    format      ascii;
    arch        "LSB;label=64;scalar=64";
    class       volScalarField;
    location    "70";
    object      Xpr;
}
// * * * * * * * * * * * * * * * * * * * * * * * * * * * * * * * * * * * * * //

dimensions      [1 -3 0 0 0 0 0];

internalField   nonuniform List<scalar> 
1024
(
0.0835509
0.0835515
0.0835528
0.083555
0.0835579
0.0835612
0.0835646
0.0835678
0.0835706
0.0835726
0.0835738
0.0835741
0.083573
0.0835703
0.0835645
0.0835631
0.0835854
0.0836081
0.0836111
0.0836076
0.0836037
0.0835998
0.0835961
0.0835925
0.0835889
0.0835853
0.0835819
0.0835789
0.0835766
0.0835749
0.0835739
0.0835735
0.083551
0.0835516
0.083553
0.0835553
0.0835584
0.0835618
0.0835652
0.0835686
0.0835716
0.0835736
0.0835749
0.083575
0.0835738
0.0835709
0.0835649
0.0835634
0.0835863
0.0836095
0.0836124
0.0836085
0.0836044
0.0836004
0.0835967
0.083593
0.0835894
0.0835858
0.0835824
0.0835793
0.0835768
0.0835751
0.083574
0.0835736
0.0835511
0.0835518
0.0835534
0.0835558
0.083559
0.0835627
0.0835665
0.0835704
0.0835738
0.0835762
0.0835773
0.0835772
0.0835756
0.0835723
0.0835657
0.0835638
0.0835875
0.0836124
0.0836152
0.0836105
0.0836059
0.0836016
0.0835977
0.083594
0.0835903
0.0835867
0.0835832
0.08358
0.0835773
0.0835754
0.0835742
0.0835738
0.0835513
0.083552
0.0835536
0.0835563
0.0835597
0.0835637
0.0835681
0.0835729
0.0835773
0.0835803
0.0835815
0.0835809
0.0835785
0.0835745
0.083567
0.0835643
0.083589
0.0836168
0.0836198
0.0836137
0.0836081
0.0836033
0.0835991
0.0835952
0.0835915
0.0835877
0.0835841
0.0835807
0.0835779
0.0835758
0.0835746
0.083574
0.0835514
0.0835521
0.0835538
0.0835565
0.0835601
0.0835646
0.0835699
0.0835759
0.0835816
0.0835857
0.0835872
0.0835861
0.0835827
0.0835774
0.0835686
0.0835648
0.0835904
0.083623
0.0836258
0.083618
0.083611
0.0836055
0.0836008
0.0835967
0.0835927
0.0835889
0.0835851
0.0835815
0.0835785
0.0835763
0.0835749
0.0835744
0.0835514
0.0835521
0.0835537
0.0835564
0.0835603
0.0835652
0.0835714
0.0835787
0.0835862
0.0835916
0.0835938
0.0835924
0.0835878
0.0835809
0.0835704
0.0835653
0.083592
0.083631
0.0836328
0.0836226
0.0836142
0.0836078
0.0836027
0.0835982
0.083594
0.0835899
0.0835859
0.0835821
0.083579
0.0835767
0.0835753
0.0835747
0.0835513
0.083552
0.0835535
0.0835561
0.08356
0.0835654
0.0835724
0.0835812
0.0835904
0.0835975
0.0836003
0.0835986
0.083593
0.0835845
0.0835723
0.0835659
0.0835938
0.083641
0.0836398
0.0836269
0.0836169
0.0836098
0.0836042
0.0835994
0.083595
0.0835907
0.0835865
0.0835826
0.0835794
0.083577
0.0835756
0.083575
0.0835511
0.0835517
0.0835531
0.0835555
0.0835594
0.0835651
0.0835731
0.0835836
0.0835946
0.0836029
0.083606
0.0836037
0.0835972
0.0835874
0.0835739
0.0835667
0.0835961
0.0836524
0.0836467
0.0836303
0.0836185
0.0836106
0.0836049
0.0836001
0.0835956
0.0835911
0.0835868
0.0835828
0.0835796
0.0835772
0.0835759
0.0835753
0.0835509
0.0835514
0.0835527
0.083555
0.0835589
0.0835651
0.0835744
0.0835867
0.0835992
0.0836079
0.0836102
0.0836067
0.0835991
0.0835884
0.0835746
0.0835675
0.0835995
0.0836648
0.0836535
0.0836325
0.0836183
0.0836098
0.0836042
0.0835996
0.0835953
0.0835909
0.0835866
0.0835828
0.0835796
0.0835774
0.0835761
0.0835756
0.0835512
0.0835516
0.0835528
0.0835551
0.0835594
0.0835666
0.0835776
0.0835916
0.0836049
0.0836127
0.0836126
0.0836064
0.0835974
0.0835866
0.0835738
0.0835687
0.0836045
0.0836783
0.0836608
0.0836343
0.0836167
0.0836071
0.0836016
0.0835976
0.0835937
0.0835898
0.0835859
0.0835823
0.0835794
0.0835774
0.0835762
0.0835757
0.0835528
0.0835532
0.0835545
0.0835572
0.0835624
0.0835712
0.083584
0.0835991
0.0836118
0.0836168
0.0836125
0.0836023
0.0835915
0.0835813
0.0835714
0.0835706
0.0836121
0.0836936
0.0836704
0.0836377
0.0836152
0.0836034
0.0835975
0.0835939
0.0835908
0.0835876
0.0835843
0.0835813
0.0835788
0.0835771
0.0835761
0.0835756
0.083557
0.0835575
0.0835592
0.0835628
0.0835695
0.0835801
0.0835943
0.0836092
0.0836192
0.0836192
0.0836091
0.0835943
0.083582
0.0835739
0.0835688
0.0835745
0.0836246
0.0837126
0.0836848
0.083646
0.0836171
0.0836007
0.0835929
0.0835891
0.0835865
0.0835842
0.0835818
0.0835796
0.0835778
0.0835764
0.0835756
0.0835752
0.0835643
0.0835651
0.0835674
0.0835723
0.0835807
0.0835929
0.0836074
0.0836204
0.0836259
0.0836199
0.0836038
0.0835851
0.0835721
0.0835674
0.083569
0.0835834
0.0836452
0.0837371
0.0837077
0.0836647
0.0836281
0.0836038
0.0835907
0.0835846
0.0835818
0.0835801
0.0835786
0.0835773
0.0835761
0.0835751
0.0835745
0.0835741
0.0835736
0.0835748
0.083578
0.0835841
0.083594
0.0836071
0.083621
0.0836311
0.0836324
0.083622
0.0836023
0.0835805
0.0835653
0.0835614
0.0835695
0.0835973
0.0836827
0.0837685
0.0837441
0.0837025
0.0836592
0.0836238
0.0835996
0.0835855
0.0835787
0.0835758
0.0835745
0.0835737
0.083573
0.0835724
0.083572
0.0835718
0.0835827
0.0835842
0.0835882
0.0835954
0.0836062
0.0836198
0.0836332
0.0836422
0.0836432
0.0836346
0.0836178
0.0835975
0.0835809
0.0835763
0.0835915
0.08364
0.0837446
0.0838058
0.0837979
0.0837705
0.0837306
0.0836881
0.0836498
0.0836193
0.0835976
0.0835835
0.0835756
0.083572
0.0835712
0.0835719
0.0835732
0.083574
0.0835881
0.0835898
0.0835939
0.0836013
0.0836123
0.0836259
0.0836401
0.083652
0.0836594
0.083661
0.0836572
0.0836498
0.0836436
0.0836466
0.0836695
0.083723
0.0837976
0.0838325
0.0838521
0.0838574
0.0838475
0.0838256
0.0837964
0.0837646
0.0837339
0.0837071
0.0836857
0.0836703
0.0836608
0.0836561
0.0836545
0.0836544
0.0835871
0.0835886
0.0835922
0.0835982
0.0836068
0.0836178
0.08363
0.0836422
0.0836532
0.0836629
0.0836712
0.0836785
0.0836864
0.0836979
0.0837176
0.0837457
0.0837689
0.0837886
0.0838201
0.0838538
0.0838848
0.083909
0.0839241
0.0839296
0.0839266
0.0839171
0.0839037
0.083889
0.0838751
0.083864
0.0838567
0.0838535
0.0835824
0.0835837
0.0835866
0.0835911
0.0835973
0.0836049
0.0836133
0.0836218
0.0836298
0.0836373
0.0836448
0.0836528
0.0836616
0.0836708
0.0836793
0.0836825
0.0836752
0.0836765
0.083693
0.083721
0.0837577
0.0838004
0.0838453
0.0838876
0.0839233
0.0839497
0.0839665
0.0839746
0.0839762
0.0839742
0.0839713
0.0839695
0.0835765
0.0835776
0.0835799
0.0835833
0.0835877
0.0835927
0.0835981
0.0836032
0.0836075
0.083611
0.0836139
0.0836167
0.0836196
0.083622
0.0836219
0.0836157
0.0836035
0.0835998
0.0836075
0.0836259
0.0836547
0.083694
0.0837426
0.0837968
0.0838505
0.0838975
0.0839344
0.08396
0.0839756
0.0839837
0.083987
0.0839879
0.0835702
0.0835712
0.0835732
0.083576
0.0835792
0.0835827
0.083586
0.0835888
0.0835908
0.0835916
0.0835913
0.0835903
0.0835887
0.0835863
0.0835824
0.0835752
0.0835662
0.0835626
0.0835661
0.083578
0.0836002
0.0836347
0.0836828
0.0837426
0.0838077
0.0838697
0.0839209
0.0839578
0.0839807
0.0839927
0.0839977
0.083999
0.0835638
0.0835647
0.0835665
0.0835689
0.0835716
0.0835743
0.0835766
0.0835783
0.083579
0.0835785
0.0835768
0.0835741
0.0835706
0.0835665
0.0835619
0.0835569
0.0835531
0.0835526
0.0835561
0.0835652
0.0835827
0.083612
0.0836558
0.0837145
0.0837836
0.0838542
0.0839164
0.0839633
0.0839933
0.084009
0.0840152
0.0840166
0.0835598
0.0835601
0.083561
0.0835626
0.0835646
0.0835668
0.0835687
0.0835699
0.0835702
0.0835693
0.0835673
0.0835643
0.0835607
0.0835571
0.0835541
0.0835531
0.0835552
0.0835596
0.0835659
0.0835756
0.0835919
0.0836187
0.0836595
0.0837158
0.0837844
0.0838572
0.0839242
0.0839768
0.0840115
0.08403
0.0840371
0.0840384
0.0835641
0.0835632
0.0835619
0.0835609
0.0835608
0.0835614
0.0835624
0.0835632
0.0835633
0.0835625
0.0835608
0.0835586
0.0835564
0.0835552
0.0835563
0.0835616
0.0835708
0.0835811
0.0835914
0.0836031
0.0836198
0.0836453
0.0836834
0.0837362
0.0838016
0.0838727
0.08394
0.0839946
0.084032
0.0840524
0.0840603
0.0840616
0.0835815
0.083579
0.0835746
0.0835694
0.0835649
0.083562
0.0835605
0.0835599
0.0835594
0.0835589
0.0835583
0.0835581
0.0835593
0.0835631
0.0835711
0.0835846
0.0836018
0.0836179
0.0836318
0.0836456
0.0836626
0.0836867
0.0837216
0.0837695
0.0838292
0.0838956
0.08396
0.0840141
0.0840523
0.084074
0.0840827
0.0840841
0.0836127
0.0836088
0.0836011
0.0835909
0.0835807
0.0835724
0.0835669
0.0835637
0.0835624
0.0835625
0.0835642
0.0835681
0.0835751
0.0835864
0.083603
0.0836252
0.0836492
0.0836696
0.0836859
0.0837006
0.0837171
0.083739
0.0837697
0.0838112
0.0838635
0.0839226
0.0839817
0.0840332
0.0840712
0.0840938
0.0841033
0.084105
0.0836556
0.0836506
0.0836402
0.0836256
0.0836099
0.083596
0.083586
0.0835805
0.0835789
0.083581
0.0835868
0.0835967
0.083611
0.0836304
0.083655
0.0836837
0.0837116
0.0837338
0.0837506
0.083765
0.08378
0.0837989
0.0838245
0.0838587
0.083902
0.0839522
0.0840042
0.0840514
0.0840881
0.0841113
0.0841217
0.0841238
0.083708
0.0837022
0.0836905
0.0836739
0.083655
0.0836377
0.0836251
0.0836187
0.0836184
0.0836239
0.0836348
0.0836507
0.0836715
0.0836966
0.0837256
0.0837566
0.0837849
0.0838064
0.0838221
0.083835
0.0838478
0.0838631
0.0838833
0.08391
0.083944
0.0839843
0.0840278
0.0840694
0.0841035
0.0841265
0.0841378
0.0841404
0.083769
0.0837631
0.0837523
0.0837376
0.0837202
0.0837035
0.0836914
0.0836863
0.0836882
0.0836969
0.0837114
0.0837309
0.0837543
0.0837809
0.0838096
0.0838387
0.0838643
0.0838831
0.0838966
0.0839073
0.0839175
0.0839292
0.0839441
0.0839637
0.0839888
0.0840193
0.0840535
0.084088
0.0841182
0.08414
0.0841517
0.0841549
0.083839
0.0838341
0.0838275
0.0838188
0.0838076
0.0837956
0.0837868
0.0837838
0.0837874
0.083797
0.0838118
0.0838307
0.0838524
0.083876
0.0839005
0.0839246
0.0839452
0.0839602
0.0839707
0.0839789
0.0839864
0.0839947
0.0840051
0.0840185
0.0840358
0.0840571
0.084082
0.0841085
0.0841332
0.0841525
0.0841638
0.0841675
0.0839204
0.0839182
0.0839181
0.0839172
0.0839136
0.0839079
0.0839031
0.0839019
0.0839054
0.0839134
0.0839253
0.08394
0.0839566
0.0839743
0.0839922
0.0840095
0.0840242
0.0840347
0.0840421
0.0840477
0.0840527
0.0840581
0.0840647
0.0840731
0.0840839
0.0840974
0.0841135
0.0841316
0.0841496
0.0841648
0.0841746
0.0841782
0.0840175
0.0840195
0.0840245
0.0840282
0.0840293
0.0840281
0.0840264
0.084026
0.0840281
0.084033
0.0840402
0.0840491
0.084059
0.0840695
0.0840801
0.0840902
0.0840987
0.0841048
0.084109
0.0841122
0.084115
0.084118
0.0841215
0.0841259
0.0841316
0.0841388
0.0841475
0.0841575
0.0841681
0.0841777
0.0841846
0.0841875
0.0841357
0.0841375
0.0841406
0.0841428
0.0841439
0.0841441
0.0841437
0.0841436
0.0841443
0.0841459
0.0841482
0.0841511
0.0841543
0.0841577
0.0841611
0.0841644
0.0841671
0.0841691
0.0841704
0.0841715
0.0841723
0.0841733
0.0841743
0.0841757
0.0841774
0.0841796
0.0841823
0.0841854
0.0841887
0.084192
0.0841945
0.0841957
)
;

boundaryField
{
    movingWall
    {
        type            fixedValue;
        value           uniform 0.0842;
    }
    fixedWalls
    {
        type            zeroGradient;
    }
    floor
    {
        type            zeroGradient;
    }
    frontAndBack
    {
        type            empty;
    }
}


// ************************************************************************* //
