/*--------------------------------*- C++ -*----------------------------------*\
| =========                 |                                                 |
| \\      /  F ield         | OpenFOAM: The Open Source CFD Toolbox           |
|  \\    /   O peration     | Version:  2206                                  |
|   \\  /    A nd           | Website:  www.openfoam.com                      |
|    \\/     M anipulation  |                                                 |
\*---------------------------------------------------------------------------*/
FoamFile
{
    version     2.0;
    format      ascii;
    arch        "LSB;label=64;scalar=64";
    class       volScalarField;
    location    "4.7/water";
    object      epsilon.gas;
}
// * * * * * * * * * * * * * * * * * * * * * * * * * * * * * * * * * * * * * //

dimensions      [0 2 -3 0 0 0 0];

internalField   nonuniform List<scalar> 
23300
(
0.0059062490297
0.00601126739499
0.00613805975607
0.00629936426323
0.00649513193263
0.00672586101474
0.00699310009916
0.00729903114067
0.00764649544591
0.00803854531108
0.00847855449955
0.00896976428148
0.00951539058014
0.010118158347
0.0107803683487
0.0115034241609
0.0122878749413
0.0131329556535
0.0140366661142
0.014995370869
0.0160039979744
0.017055758971
0.0181425372581
0.0192547632656
0.0203820022401
0.0215129516939
0.0226361524448
0.0237400034234
0.0248134643179
0.0258459672814
0.0268280021262
0.0277508658117
0.0286071048982
0.029390131209
0.0300945691202
0.0307158092022
0.0312503210259
0.0316952004791
0.0320484744567
0.0323086529919
0.0324750006434
0.0325470426516
0.032525579851
0.0324125999689
0.0322104506829
0.0319216897174
0.0315494589778
0.0310972086749
0.0305689825152
0.0299691368512
0.0293025843699
0.028574529764
0.027790679889
0.0269569975455
0.0260798776352
0.0251659147379
0.0242220434121
0.0232553138806
0.0222729965041
0.02128236201
0.0202907550789
0.019305381199
0.0183333612398
0.017381534463
0.0164565128418
0.0155645170303
0.0147114568405
0.0139028322142
0.0131438981433
0.0124397339131
0.0117956933438
0.0112180145967
0.0107152242005
0.0103004088693
0.0099951342266
0.00983258885995
0.00983320856101
0.0099646780919
0.0101937014334
0.0104980681719
0.0108630500269
0.0112782822394
0.011736006736
0.0122299042266
0.012754463895
0.013304468201
0.0138747775817
0.0144601098722
0.0150550350843
0.0156539072079
0.016250958593
0.0168402981952
0.0174160404976
0.0179723233749
0.018503438339
0.0190038455974
0.0194682903736
0.0198918057205
0.0202698090935
0.0205980903362
0.020872887679
0.0210908615781
0.0212491508136
0.0213453316177
0.0213774494904
0.0213439492294
0.0212436448378
0.0210755174323
0.0208397665081
0.0205372140626
0.0201690782291
0.0197369810924
0.0192430160399
0.018689745447
0.0180802617034
0.0174181934037
0.0167077784376
0.0159538926543
0.0151621402034
0.0143388978467
0.0134913971619
0.0126277352965
0.0117568711538
0.0108884998662
0.0100328488867
0.00920031911507
0.00840103857836
0.00764432013773
0.00693813566123
0.00628865158341
0.00569993179061
0.00517382501659
0.00471006187646
0.00430651008567
0.00395955671396
0.00366458890008
0.00341665333476
0.00321153976829
0.00304786468993
0.00293125975611
0.00678930785163
0.00684699426821
0.00694652810501
0.00708443582117
0.00725903865659
0.00746993222603
0.00771765452498
0.00800340959222
0.00832886096397
0.00869592354951
0.00910660362642
0.00956280933249
0.0100661960109
0.010617971764
0.0112187353326
0.011868279209
0.0125654374992
0.0133079179457
0.0140922073556
0.0149134897069
0.015765674698
0.0166414640084
0.017532553268
0.0184298707208
0.0193239400474
0.0202052343389
0.0210645972057
0.0218935743904
0.0226847378322
0.0234318492771
0.0241299759805
0.0247754316561
0.0253656921524
0.0258991809936
0.0263750910506
0.026793136803
0.0271533949376
0.0274561116867
0.027701616949
0.0278902108075
0.0280221521594
0.028097620373
0.0281168521291
0.0280803710936
0.0279886587581
0.0278421949679
0.0276415584268
0.0273874651983
0.0270808524529
0.0267229043141
0.0263151200288
0.0258593303229
0.0253577514434
0.0248129915763
0.0242280884961
0.0236065024804
0.0229521333389
0.0222692953177
0.0215627098825
0.0208374601733
0.0200989598989
0.0193528904963
0.0186051535477
0.0178618015143
0.0171289887102
0.0164129133882
0.0157197888405
0.0150558232876
0.0144272491704
0.0138404011103
0.0133019032354
0.012818995305
0.0124000496666
0.0120551685244
0.0117963601341
0.0116356720015
0.0115782874585
0.0116155913677
0.0117330846342
0.0119163272518
0.0121527971521
0.0124321102673
0.0127457031512
0.0130863789872
0.0134478875136
0.0138245878946
0.0142112205067
0.0146027652306
0.014994378177
0.0153813719263
0.0157592335083
0.0161236520576
0.0164705598991
0.0167961659708
0.0170969919841
0.0173698938874
0.0176120826548
0.0178211285147
0.0179949645418
0.0181318742957
0.0182304803439
0.0182897184031
0.0183088140161
0.0182872460476
0.0182247132415
0.0181210875202
0.017976370252
0.0177906400059
0.0175642447813
0.0172978547628
0.0169922152063
0.0166481391468
0.0162665223079
0.0158483626877
0.0153948004225
0.0149071677139
0.0143870652642
0.0138364543434
0.0132577752829
0.012654074795
0.0120291399666
0.0113876080757
0.010735033729
0.0100778737118
0.00942337014633
0.00877931096907
0.00815368158225
0.0075542354926
0.00698804327614
0.0064610799105
0.00597790971676
0.00554149792582
0.00515314816172
0.00481252490864
0.00451769086727
0.00426505921224
0.00404912488565
0.00386172408186
0.00369015142688
0.00351290116216
0.00766259364684
0.00770062991571
0.00777920427489
0.00789584742938
0.00804922319219
0.00823888637507
0.00846505264764
0.00872840114671
0.00902990438888
0.009370661892
0.00975174785743
0.010174051988
0.0106381304096
0.0111440472263
0.0116912305024
0.0122783261394
0.0129030815721
0.0135622453478
0.0142515221648
0.0149655681887
0.0156980691464
0.0164418761381
0.017189235317
0.0179320655889
0.0186623057477
0.01937225997
0.0200549513967
0.0207043992562
0.0213158370456
0.0218857984455
0.0224121188534
0.0228938067437
0.0233308656347
0.0237240394402
0.0240745737036
0.0243839609384
0.0246537514684
0.0248853804594
0.0250800754555
0.0252387822965
0.0253621646016
0.0254506130143
0.0255040590818
0.0255222157991
0.0255046565535
0.0254508520413
0.0253602446163
0.0252323014304
0.0250665887469
0.02486282135
0.0246209288154
0.0243410984118
0.0240238320734
0.0236699813643
0.0232807929836
0.0228579325531
0.022403514697
0.0219201110329
0.0214107603809
0.0208789569968
0.0203286385956
0.0197641545038
0.0191902341628
0.0186119406445
0.0180346279881
0.0174638901821
0.0169055185248
0.0163654571642
0.0158497717743
0.0153646238796
0.0149162651431
0.0145110419911
0.0141554014965
0.0138558209055
0.0136184854632
0.0134482967838
0.0133469526884
0.0133113784864
0.0133347411529
0.0134086503216
0.0135245488975
0.0136744359347
0.0138511208091
0.0140482116063
0.0142599966227
0.014481306167
0.0147074034197
0.0149339113964
0.0151567772772
0.0153722591607
0.0155769303827
0.0157676879953
0.0159417648563
0.0160967363132
0.0162305246203
0.0163413947444
0.0164279465881
0.016489098536
0.0165240681578
0.0165323455246
0.0165136652381
0.01646797285
0.01639539174
0.016296186257
0.0161707272921
0.0160194569715
0.0158428604557
0.0156414453669
0.0154156258205
0.0151658737659
0.0148926269733
0.0145962750216
0.0142771615354
0.0139355985816
0.0135718990594
0.0131864257419
0.0127796633536
0.0123523113906
0.0119053999943
0.0114404200912
0.0109594597869
0.0104653264013
0.00996163377854
0.00945282694956
0.00894412461972
0.00844136589625
0.00795076808707
0.00747861737464
0.00703093244556
0.00661314457156
0.0062298339314
0.00588454201953
0.00557965448903
0.00531631479082
0.00509429499374
0.00491171993349
0.00476454514328
0.00464576016998
0.00454370835977
0.00445191983168
0.00832552895218
0.00836209314832
0.00843557478765
0.00854549833227
0.00869139766954
0.00887304339882
0.0090904756006
0.00934394540519
0.00963382439172
0.00996048933271
0.0103242053869
0.0107249972535
0.0111625277335
0.0116359700639
0.0121438977082
0.0126841782099
0.0132539009235
0.0138493252193
0.014465883894
0.0150982247128
0.0157403251073
0.0163856522658
0.017027396764
0.0176587338369
0.0182731288353
0.018864622096
0.0194281035974
0.0199595059567
0.0204559371192
0.0209156944302
0.0213382085145
0.0217238816175
0.0220738939702
0.0223899553244
0.0226740812792
0.0229283651354
0.0231548134901
0.0233552010885
0.0235309984926
0.0236833175773
0.0238129199114
0.0239202299575
0.0240050934756
0.0240668201823
0.0241045535494
0.0241173038701
0.0241040112027
0.0240635906533
0.0239949974114
0.0238972716848
0.023769599682
0.0236113553938
0.0234221560678
0.0232018995564
0.0229508126315
0.022669481466
0.0223588897028
0.0220204382339
0.0216559689762
0.021267769835
0.0208585808378
0.020431581941
0.0199903809571
0.0195389852742
0.0190817743269
0.0186234585464
0.0181690391743
0.0177237546984
0.0172930241189
0.0168823709871
0.0164973330807
0.016143337568
0.0158255361456
0.0155485640955
0.0153161905656
0.0151308083087
0.0149928342411
0.0149005222587
0.0148499652579
0.0148359223392
0.014852629439
0.0148943078324
0.0149554558366
0.0150309717072
0.0151161827515
0.0152068291452
0.0152990401909
0.0153893118661
0.0154744946227
0.0155517847483
0.0156187214552
0.0156731817999
0.0157133762512
0.0157378387441
0.0157454153051
0.0157352464464
0.0157067480376
0.0156595866117
0.0155936539784
0.0155090375446
0.0154059911572
0.0152849031721
0.0151462664174
0.0149906470586
0.0148186570454
0.0146309278834
0.0144280913655
0.0142107672392
0.0139793670717
0.0137342156504
0.0134755643857
0.0132035822744
0.012918357852
0.0126199116169
0.0123082240474
0.0119832788874
0.0116451262032
0.011293963659
0.0109302371241
0.0105547538118
0.0101688011601
0.00977425585204
0.00937366752274
0.00897029690761
0.00856809455674
0.0081716109244
0.0077858431619
0.00741603431748
0.00706745336648
0.0067451870076
0.00645397248108
0.00619808785117
0.00598129924372
0.00580683923062
0.00567736114527
0.0055947841338
0.00555995743054
0.00557217939686
0.00562610625444
0.00572644440705
0.00896401732559
0.00899945749197
0.00907032902168
0.00917647681912
0.00931770658242
0.00949386316683
0.00970485668097
0.00995063408333
0.0102311253519
0.0105461623246
0.0108953939636
0.0112781874092
0.0116935379663
0.0121399740778
0.0126154834639
0.0131174453404
0.0136425989219
0.0141870310959
0.0147462161402
0.0153150851388
0.0158881569237
0.0164596978903
0.0170239367025
0.0175752866706
0.018108594221
0.0186193534246
0.0191039035746
0.0195595478647
0.0199846220184
0.0203784631547
0.0207413294263
0.0210742375854
0.021378786332
0.0216569397678
0.021910840955
0.0221426233908
0.0223542804762
0.0225475490475
0.0227238556508
0.022884273985
0.0230295352407
0.023160037011
0.0232757146282
0.0233756984688
0.0234589537708
0.0235243103116
0.0235705166968
0.023596276851
0.023600305047
0.0235813623662
0.0235383092707
0.0234701407119
0.0233760355146
0.0232553893583
0.023107859881
0.0229333958337
0.0227322756717
0.0225051299585
0.0222529701581
0.0219772006215
0.0216796340625
0.0213624898249
0.0210283934809
0.0206803594005
0.0203217731335
0.0199563567492
0.0195881314862
0.0192213608115
0.0188604845628
0.0185100260925
0.0181744796616
0.0178581604223
0.0175650248092
0.0172984502045
0.0170609917522
0.0168541280308
0.0166780573711
0.0165316857061
0.0164129908133
0.0163187676485
0.0162453216155
0.0161887624203
0.0161452221675
0.0161109908121
0.0160825967062
0.0160568467595
0.0160308488578
0.0160020198323
0.0159680899587
0.0159271001442
0.0158773982274
0.0158176290758
0.0157467239321
0.0156638840324
0.0155685637523
0.0154604488331
0.0153394347446
0.0152056011748
0.0150591874458
0.0149005652213
0.0147302130295
0.014548689298
0.0143566081469
0.014154614957
0.0139433657589
0.013723507976
0.0134956670181
0.0132604378978
0.0130181803446
0.0127691071287
0.0125133500436
0.0122509573969
0.0119818991162
0.011706079837
0.0114233647574
0.0111336179835
0.0108367569231
0.0105328211239
0.0102220563073
0.00990500802833
0.00958262000891
0.00925632560527
0.00892812194386
0.00860061289415
0.00827701262074
0.00796110467188
0.00765716251709
0.00736984449466
0.00710408606359
0.00686501494516
0.00665791654835
0.00648827182093
0.00636188347887
0.00628509357121
0.00626507412902
0.00631013020653
0.00642990149619
0.00663537704271
0.00693753722683
0.00736049362272
0.00958488969178
0.00961966723998
0.00968915793158
0.00979323313528
0.00993171723906
0.0101043998964
0.0103110346376
0.0105513080222
0.0108247985888
0.0111309145998
0.0114688332544
0.0118374276765
0.0122352061619
0.0126602479935
0.0131101633329
0.0135820592157
0.0140725418454
0.0145777338119
0.0150933376232
0.0156147183209
0.0161370352016
0.0166553863787
0.0171649922541
0.0176613708295
0.0181405271802
0.0185991021496
0.0190345044912
0.0194449722159
0.0198295983853
0.020188276786
0.0205216186713
0.0208308070032
0.0211174503665
0.0213834063274
0.0216306364776
0.0218610573832
0.0220764420272
0.022278327707
0.0224679767225
0.0226463407219
0.0228140696004
0.0229715137245
0.0231187481611
0.0232549174089
0.0233789214375
0.0234895353313
0.023585456284
0.0236653319422
0.0237278063099
0.0237715476177
0.0237952924027
0.0237978729272
0.0237782593391
0.0237355862209
0.0236691920825
0.0235786438072
0.0234637718518
0.0233246904003
0.0231618257279
0.0229759290381
0.0227680948167
0.0225397629415
0.0222927237297
0.0220291059612
0.0217513653199
0.0214622545992
0.0211647910968
0.0208622031038
0.0205578686306
0.0202552287953
0.0199576880083
0.0196684865309
0.0193905612713
0.0191263896728
0.0188778426918
0.0186460547787
0.0184313459096
0.0182332091399
0.0180506494568
0.0178821979173
0.0177257292434
0.0175789025014
0.0174393013455
0.0173045424522
0.0171723577114
0.0170406477085
0.0169075195312
0.0167713066595
0.0166305815316
0.0164841568227
0.0163310836276
0.0161706417991
0.0160023292744
0.0158258456395
0.0156410759377
0.0154480702194
0.01524702421
0.0150382569291
0.0148221901256
0.0145993257332
0.0143702257747
0.0141354912795
0.0138957442487
0.0136516095573
0.0134037004792
0.0131526051761
0.0128988781173
0.0126430353037
0.0123853614649
0.0121259750814
0.0118649208888
0.011602172747
0.0113376421433
0.0110711927096
0.0108026650398
0.0105319113343
0.0102588427308
0.00998348760778
0.00970606149193
0.00942704403927
0.00914725983974
0.0088679548296
0.00859086199345
0.00831824769632
0.00805293515966
0.00779830397156
0.00755827347301
0.00733728334452
0.0071402939426
0.00697283356445
0.00684112694833
0.00675234419149
0.00671501933413
0.00673969940355
0.00683989745052
0.00703341590158
0.00734405134906
0.00780363702195
0.00845415838014
0.00936367636176
0.0101918016223
0.0102264101992
0.0102955284121
0.0103989805664
0.0105365185526
0.0107078127651
0.0109124371257
0.0111498339903
0.0114192790279
0.0117198316214
0.0120502929365
0.0124091548345
0.0127945654109
0.0132042924392
0.013635712991
0.0140858078098
0.0145511902224
0.0150281439524
0.0155127000977
0.0160007218453
0.0164880263543
0.0169705051431
0.0174442707384
0.0179057836354
0.0183519868751
0.0187803980115
0.0191891895839
0.0195772093951
0.0199439807745
0.0202896405284
0.020614865464
0.0209207512888
0.0212087011676
0.0214802887063
0.021737151978
0.0219808792617
0.0222129378607
0.0224346014781
0.0226469220176
0.0228506984491
0.0230464848793
0.0232345898369
0.0234151050404
0.0235874694574
0.0237505395811
0.0239030759184
0.0240437756587
0.0241712904229
0.024284263198
0.0243813480095
0.024461246344
0.0245227271533
0.0245646621153
0.0245860454314
0.0245860272595
0.0245639323034
0.0245192901643
0.0244518510455
0.0243616110927
0.0242488228462
0.0241140129936
0.0239579846127
0.0237818242519
0.0235868925692
0.0233748172303
0.0231474680823
0.022906931773
0.0226554669647
0.0223954561238
0.0221293366516
0.0218595274853
0.0215883374943
0.0213178747167
0.021049949021
0.0207859915907
0.0205269881072
0.0202734468586
0.0200253923052
0.0197823977472
0.0195441529297
0.0193100167151
0.0190789336248
0.0188497577902
0.018621320058
0.0183924913167
0.0181622275004
0.0179296054842
0.0176938428348
0.0174543115901
0.017210540823
0.0169622168368
0.0167091755897
0.0164513948065
0.016188980567
0.0159221548416
0.015651239091
0.0153766396025
0.0150988300791
0.014818336503
0.0145357202218
0.0142515637298
0.0139664555092
0.0136809779138
0.0133956948256
0.0131111426278
0.012827821708
0.012546192275
0.0122666732589
0.011989470083
0.0117146150335
0.0114420798059
0.0111717824786
0.0109035988466
0.0106373782889
0.0103729679813
0.0101102447331
0.00984915680044
0.00958977390527
0.00933234612498
0.00907736802935
0.00882564627518
0.00857836508486
0.00833714655562
0.00810410118139
0.00788186899415
0.00767365382444
0.00748326127337
0.00731515631028
0.00717456659817
0.00706766601824
0.00700188773804
0.00698643541705
0.00703309643543
0.00715751709709
0.00738119126749
0.00773454004782
0.00826159676925
0.00902693970059
0.0101259392828
0.0117134601897
0.0107894595107
0.0108244066463
0.0108941582723
0.0109984604834
0.0111369531591
0.0113091548659
0.0115144428873
0.0117520172043
0.0120208717329
0.0123197556845
0.0126471486624
0.0130012298221
0.0133798673541
0.0137806067742
0.0142006865117
0.0146370554975
0.0150864221799
0.0155453050393
0.0160101144162
0.0164772306357
0.0169431085553
0.0174043683954
0.0178579036725
0.0183009618244
0.0187312303945
0.0191468823471
0.0195466178322
0.0199296570316
0.0202957279683
0.0206450069557
0.020978061933
0.0212957587219
0.021599183816
0.0218895434512
0.0221680919962
0.0224360468748
0.0226945399916
0.0229445601356
0.0231869329818
0.0234222919851
0.0236510841795
0.0238735640836
0.0240898157348
0.0242996987174
0.0245020376712
0.0246955902153
0.0248790657062
0.0250511337739
0.0252104542407
0.0253556899185
0.0254855366761
0.0255987367409
0.0256941078578
0.0257705566893
0.0258271065999
0.0258629103531
0.0258772755205
0.0258696751567
0.0258397693854
0.0257874122862
0.0257126677703
0.0256158104584
0.0254973335101
0.0253579408596
0.025198544303
0.0250202442267
0.024824313219
0.0246121627826
0.0243853117153
0.0241453383118
0.0238938352041
0.0236323518583
0.0233623447479
0.0230851234204
0.0228018128408
0.0225133207189
0.0222203258819
0.0219232716813
0.0216223713629
0.021317616905
0.021009604668
0.0206985915431
0.0203845344587
0.0200673529843
0.0197469613617
0.0194232970008
0.0190963469988
0.018766162128
0.0184328673476
0.0180966628684
0.0177578250648
0.0174167006606
0.0170737020053
0.0167292973694
0.0163840030811
0.0160383719864
0.0156929841955
0.0153484351633
0.0150053263393
0.0146642539865
0.0143258007773
0.0139905262733
0.0136589603383
0.0133315960227
0.0130088854782
0.0126912359957
0.0123790099651
0.0120725274712
0.0117719226794
0.0114771449523
0.0111880973312
0.0109046466743
0.0106266372006
0.0103539074012
0.0100863137754
0.00982376044752
0.00956623669351
0.00931386060506
0.00906692969953
0.00882597563231
0.00859182244115
0.00836564480404
0.00814902577385
0.00794401247301
0.00775317327897
0.00757966220515
0.0074273041875
0.00730072109052
0.00720553059653
0.00714866372802
0.00713887174939
0.00718753152526
0.00730992933441
0.00752732780436
0.00787034806686
0.00838459755277
0.0091401353242
0.0102473900786
0.0118841499292
0.0143556947733
0.0113832592714
0.0114190847276
0.0114905391672
0.0115972702069
0.0117387806624
0.0119144127704
0.012123328285
0.0123644746424
0.0126365640471
0.0129380472346
0.0132671060387
0.0136216422024
0.013999289989
0.0143974272121
0.0148132135126
0.0152436264695
0.0156855247366
0.0161357042177
0.0165909773963
0.0170482378834
0.0175045422265
0.0179571680643
0.0184036835814
0.0188419853849
0.0192703434632
0.0196874093733
0.0200922304578
0.020484225996
0.0208631720371
0.0212291507966
0.0215825143622
0.0219238182924
0.022253776385
0.0225731914277
0.022882913182
0.0231837773469
0.023476575515
0.0237620090067
0.0240406747916
0.0243130362638
0.024579425019
0.0248400263247
0.025094889381
0.0253443510945
0.0255872466756
0.0258223340731
0.0260483261094
0.0262638988849
0.0264677189055
0.0266584507819
0.0268347821572
0.0269954309649
0.0271391693014
0.0272648309877
0.0273713344522
0.0274576900427
0.0275230211044
0.0275665699654
0.0275877161308
0.0275859796869
0.0275610353813
0.02751271202
0.0274410010204
0.02734605021
0.0272281653284
0.0270877966902
0.0269255324164
0.026742077166
0.0265382371888
0.0263148924069
0.0260729762139
0.0258134456545
0.0255372624531
0.0252453688397
0.0249386770909
0.0246180561659
0.0242843307595
0.0239382738934
0.0235806047013
0.0232119692043
0.0228329299681
0.0224449809692
0.0220493305631
0.0216468585218
0.0212384200197
0.0208248443369
0.0204069542326
0.0199855727423
0.019561528397
0.0191356525594
0.0187087794418
0.0182817406706
0.0178553626983
0.0174304600109
0.0170078313345
0.0165882525148
0.0161724723562
0.0157612058493
0.0153551302973
0.0149548794786
0.0145610406733
0.0141741503223
0.0137946925282
0.0134230966947
0.0130597379779
0.0127049374946
0.0123589662121
0.0120220512157
0.0116942722653
0.0113754967334
0.0110655585915
0.0107642709894
0.0104714415176
0.0101868898871
0.00991047123868
0.00964210395972
0.00938180386916
0.00912972303759
0.0088861942622
0.0086517790087
0.00842731925024
0.00821399126256
0.00801336275452
0.00782745417128
0.00765881017284
0.00751058975188
0.00738669182577
0.00729194056606
0.00723236994311
0.00721566670271
0.00725186785197
0.00735447004315
0.00754222426874
0.00784210614516
0.00829437613583
0.00896147663818
0.00994414352708
0.0114112126282
0.0136558076138
0.0172174540971
0.0119789594044
0.0120162436584
0.0120905517946
0.0122014141967
0.0123481726692
0.0125299673508
0.0127457190108
0.012994100009
0.0132735243306
0.0135821354633
0.0139178180546
0.0142782075738
0.0146607257058
0.0150626127251
0.0154809856975
0.0159128887631
0.0163553649367
0.0168055115517
0.0172605507477
0.0177178747116
0.0181751008227
0.0186300954467
0.0190810062939
0.0195262616788
0.0199645811316
0.0203949547943
0.0208166392219
0.0212291250213
0.0216321254273
0.0220255386101
0.022409433344
0.0227840087485
0.0231495783052
0.0235065280862
0.0238553001456
0.024196351251
0.0245301381943
0.0248570804618
0.025177550892
0.0254918458338
0.0258001839663
0.0261026862344
0.0263993845315
0.0266906806812
0.0269759447062
0.0272538633443
0.0275231082324
0.0277823284522
0.02803016963
0.028265274571
0.0284863027938
0.028691931906
0.0288808768374
0.0290518921537
0.0292037908996
0.0293354472738
0.0294458143208
0.0295339260315
0.0295989130676
0.0296400034334
0.0296565355582
0.0296479568113
0.0296138333742
0.0295538459783
0.0294677961299
0.0293555987006
0.0292172844838
0.0290529899825
0.0288629573103
0.0286475229201
0.0284071174263
0.0281422564455
0.0278535435896
0.0275416658667
0.0272074003775
0.0268516120033
0.0264752583718
0.0260793819145
0.0256651034488
0.0252335984625
0.0247860650563
0.0243236826737
0.0238486337884
0.0233631793831
0.0228690134483
0.0223677689041
0.0218610233182
0.0213503092704
0.0208371092693
0.0203228481367
0.0198088915816
0.0192965397738
0.0187870254341
0.0182815084759
0.017781074991
0.017286733371
0.0167994142495
0.016319967964
0.0158491653774
0.0153876966436
0.0149361730245
0.0144951271145
0.0140650159093
0.0136462227124
0.0132390617266
0.0128437820501
0.012460575149
0.0120895845571
0.0117308596427
0.0113841863348
0.0110493275054
0.0107260370725
0.0104140767711
0.0101132345626
0.00982334763412
0.00954432877751
0.00927619797332
0.00901911752845
0.00877343202475
0.008539711432
0.00831879862583
0.00811186056751
0.00792044597264
0.00774655207473
0.00759270841808
0.00746208844813
0.00735866863359
0.00728746383675
0.00725488601607
0.00726929960415
0.00734189648438
0.00748810018128
0.00772987683664
0.00809965891632
0.00864726335413
0.00945261575961
0.0106501940975
0.0124778473157
0.0153774889236
0.0202226208868
0.0125825840846
0.0126219519375
0.0127003517836
0.0128171758334
0.012971577697
0.0131624634111
0.0133884784349
0.013647985806
0.0139390694252
0.0142595395399
0.0146069661084
0.0149787105845
0.0153719849541
0.0157839045072
0.016211563545
0.0166520958651
0.0171027500983
0.0175609385609
0.0180242932435
0.0184906868788
0.0189582584154
0.0194254015494
0.0198907618221
0.0203532012994
0.0208117810037
0.0212657185103
0.0217143726736
0.0221572089393
0.022593796502
0.0230237859836
0.023446917713
0.023863006078
0.024271950246
0.0246737162471
0.0250683423178
0.0254559138926
0.0258365616929
0.0262104310972
0.026577676676
0.0269384318204
0.0272928069611
0.0276408686575
0.027982652615
0.0283181629706
0.0286478727504
0.0289703174425
0.0292840785437
0.0295877419675
0.0298799005864
0.0301591453754
0.0304240797761
0.0306733158157
0.030905489576
0.0311192589737
0.0313133194731
0.0314864029584
0.031637293078
0.0317648244287
0.0318678969262
0.0319454747388
0.0319965994231
0.032020388404
0.0320160469434
0.0319828662682
0.0319202347221
0.0318276359622
0.0317046599986
0.0315510023543
0.0313664762263
0.0311510140552
0.0309046823624
0.030627686982
0.0303203909248
0.0299833219785
0.0296171899172
0.0292228901997
0.0288015121532
0.0283543298421
0.0278827935634
0.027388502194
0.0268731736249
0.026338590095
0.0257865485197
0.0252195142675
0.0246410255106
0.0240534145666
0.02345892313
0.0228597396172
0.0222579571388
0.0216555585416
0.0210544167231
0.0204562872712
0.019862806148
0.019275484363
0.018695708212
0.0181247371169
0.0175637063111
0.0170136272622
0.0164753920841
0.0159497758881
0.0154374425314
0.0149389486327
0.0144547505814
0.0139852101672
0.0135306028763
0.0130911251621
0.0126669046006
0.012258011364
0.0118644918581
0.0114860554763
0.0111223936877
0.0107731950265
0.0104381645012
0.0101170433644
0.00980963210485
0.00951581572495
0.00923559332145
0.00896911043419
0.00871669566664
0.00847890036414
0.00825654323957
0.00805076010353
0.0078630626135
0.00769540996476
0.00755030294821
0.00743091302054
0.00734126867089
0.00728653193361
0.00727341940147
0.00731085478639
0.00741100241016
0.00759094387896
0.00787548371311
0.00830202239194
0.0089294055851
0.00985482923447
0.0112479505252
0.0134234985618
0.0170031247786
0.023302776966
0.0132004590848
0.0132425828875
0.0133264053466
0.0134511553968
0.0136157649569
0.0138188663183
0.01405878471
0.0143335261743
0.0146407982661
0.0149780361605
0.0153424610487
0.0157311369897
0.016141054552
0.0165692035953
0.0170126644438
0.0174686747135
0.0179347032869
0.0184084868883
0.0188880662765
0.0193717786685
0.0198582509695
0.0203463524181
0.0208351582732
0.0213238835632
0.0218118426947
0.0222983910683
0.0227829046891
0.0232647479642
0.0237432831169
0.0242178649269
0.0246878719425
0.025152714042
0.0256118677696
0.0260648793179
0.026511389066
0.0269511199436
0.0273838860886
0.0278095667465
0.0282281028975
0.0286394636428
0.0290436392463
0.0294406094463
0.0298303407385
0.0302127559537
0.0305891210383
0.0309579203698
0.0313176633056
0.0316668573553
0.032004014227
0.03232764072
0.0326362522374
0.0329283654954
0.0332025113462
0.0334572287262
0.0336910780669
0.0339026371228
0.0340905149385
0.0342533490315
0.0343898194771
0.0344986470583
0.0345786074577
0.034628530489
0.034647314855
0.0346339289884
0.0345874271613
0.0345069527445
0.0343917566521
0.0342412039854
0.0340547958048
0.0338321799397
0.0335731764541
0.033277792145
0.0329462478572
0.0325789929476
0.0321767284506
0.0317404134442
0.0312712747044
0.0307707960252
0.0302407076449
0.02968295561
0.0290996714492
0.0284931249731
0.0278656798962
0.027219746837
0.0265575622278
0.0258842301067
0.0252023563025
0.0245147934748
0.0238242274032
0.0231331652916
0.0224439659186
0.0217588283803
0.0210797896598
0.0204087189693
0.0197473179191
0.0190971186327
0.0184594877232
0.0178356282456
0.0172265864008
0.0166332562651
0.0160563884321
0.0154965969046
0.0149543693109
0.0144300756705
0.0139239800042
0.0134362504977
0.0129669711423
0.0125161497113
0.0120838351402
0.0116696957514
0.0112733542569
0.0108944267397
0.0105325496142
0.0101874018768
0.00985872829841
0.00954636381156
0.00925026153923
0.00897052304812
0.00870743254701
0.00846149414386
0.00823347456399
0.00802445215385
0.00783587689714
0.00766964633823
0.00752820797581
0.00741470227211
0.0073331707256
0.00728886551164
0.00728872164389
0.00734209133925
0.00746191479585
0.00766664013116
0.00798348494768
0.00845421514678
0.00914590904323
0.0101721977317
0.011737952724
0.0142397126064
0.0185051125342
0.0264015177298
0.0138393339235
0.0138849383321
0.0139756157534
0.01411040132
0.0142879645048
0.0145066136176
0.0147642963347
0.0150586000821
0.0153867934552
0.0157458782695
0.0161326774813
0.0165439199308
0.016976350946
0.0174268250802
0.017892410833
0.0183704599756
0.0188586750571
0.0193551278738
0.0198582704544
0.0203668943492
0.0208800890621
0.021397158125
0.0219175510238
0.0224407692075
0.022966307558
0.0234935849692
0.0240219238915
0.0245505245923
0.025078489907
0.0256048384407
0.0261285590788
0.0266486406909
0.027164130513
0.027674155699
0.0281779648939
0.0286749276382
0.0291645518657
0.029646460719
0.0301203903641
0.0305861523386
0.0310436212049
0.0314926921986
0.0319332664603
0.0323652079965
0.0327900339924
0.03320682395
0.0336139598649
0.0340098208852
0.0343927928316
0.0347612585409
0.0351136098241
0.0354482363422
0.0357635359319
0.0360579050171
0.0363297503005
0.0365774821376
0.0367995279155
0.0369943279769
0.0371603502873
0.0372960885531
0.0374000782485
0.0374708971634
0.037507183408
0.0375076390745
0.0374710511382
0.037396299097
0.0372823796878
0.0371284192166
0.0369337025815
0.0366976902783
0.0364200509839
0.03610068139
0.0357397390019
0.0353376596834
0.0348951836351
0.0344133621362
0.0338935675089
0.0333374807302
0.0327470794544
0.0321246044352
0.0314725278381
0.0307935042804
0.0300903266103
0.0293658654037
0.0286229948622
0.0278645511006
0.0270949884409
0.0263184905661
0.0255383178353
0.0247574375272
0.0239786840564
0.0232046939491
0.0224379051018
0.021680552476
0.0209346678092
0.020202077528
0.0194844069009
0.0187830822193
0.0180993384573
0.0174342250714
0.0167886163748
0.0161632202589
0.0155585907403
0.0149751391078
0.0144131483446
0.0138727864324
0.0133541227224
0.01285714515
0.0123817876461
0.0119278466439
0.0114948514346
0.011082333247
0.0106898483184
0.0103169990499
0.00996345673304
0.00962898523835
0.00931346796688
0.00901693662911
0.00873960376277
0.00848189835113
0.00824450734936
0.00802842443431
0.00783501130873
0.00766607716775
0.00752398775222
0.00741181931463
0.0073335837381
0.00729456444661
0.00730182984631
0.00736503524712