/*--------------------------------*- C++ -*----------------------------------*\
| =========                 |                                                 |
| \\      /  F ield         | OpenFOAM: The Open Source CFD Toolbox           |
|  \\    /   O peration     | Version:  2206                                  |
|   \\  /    A nd           | Website:  www.openfoam.com                      |
|    \\/     M anipulation  |                                                 |
\*---------------------------------------------------------------------------*/
FoamFile
{
    version     2.0;
    format      ascii;
    arch        "LSB;label=64;scalar=64";
    class       volScalarField;
    location    "4.7/water";
    object      p_rgh;
}
// * * * * * * * * * * * * * * * * * * * * * * * * * * * * * * * * * * * * * //

dimensions      [1 -1 -2 0 0 0 0];

internalField   nonuniform List<scalar> 
23300
(
100743.189145
100743.238528
100743.228251
100743.213555
100743.19463
100743.171907
100743.145765
100743.116814
100743.085502
100743.052468
100743.018179
100742.983244
100742.94809
100742.913219
100742.878957
100742.845639
100742.81345
100742.782531
100742.752921
100742.724588
100742.697458
100742.671375
100742.646212
100742.621757
100742.597895
100742.574421
100742.551285
100742.528334
100742.505609
100742.483028
100742.460719
100742.43866
100742.417039
100742.395865
100742.375349
100742.355495
100742.336503
100742.318344
100742.301181
100742.284938
100742.269726
100742.255411
100742.242043
100742.229435
100742.217594
100742.206301
100742.195517
100742.18499
100742.174648
100742.164218
100742.153604
100742.142526
100742.130871
100742.118361
100742.104875
100742.090147
100742.074054
100742.056346
100742.036911
100742.015521
100741.992079
100741.966395
100741.938398
100741.90795
100741.875029
100741.839573
100741.801643
100741.761296
100741.718724
100741.674165
100741.627999
100741.580679
100741.532764
100741.484754
100741.436854
100741.388895
100741.340878
100741.293283
100741.246516
100741.200425
100741.154613
100741.108629
100741.062134
100741.014833
100740.966576
100740.917235
100740.866821
100740.815334
100740.762896
100740.709593
100740.655618
100740.601106
100740.546289
100740.491321
100740.436448
100740.381827
100740.327703
100740.274224
100740.22162
100740.170024
100740.119643
100740.070589
100740.023042
100739.977087
100739.932871
100739.890448
100739.849928
100739.811332
100739.774733
100739.740117
100739.70752
100739.676897
100739.648249
100739.6215
100739.596616
100739.573498
100739.552083
100739.532253
100739.513934
100739.497006
100739.481404
100739.467038
100739.453885
100739.441926
100739.431226
100739.421879
100739.414072
100739.408031
100739.404051
100739.402436
100739.403482
100739.407399
100739.414262
100739.423923
100739.435949
100739.449535
100739.463441
100739.475901
100739.484716
100739.549699
100743.267655
100743.318068
100743.312402
100743.303145
100743.290602
100743.275125
100743.25699
100743.236608
100743.214288
100743.190446
100743.165376
100743.139442
100743.112875
100743.08594
100743.05877
100743.031505
100743.004172
100742.976787
100742.94929
100742.921604
100742.89362
100742.865217
100742.836288
100742.80672
100742.776458
100742.745439
100742.713691
100742.681228
100742.648168
100742.614598
100742.580711
100742.54664
100742.512615
100742.478781
100742.445362
100742.412476
100742.380312
100742.348936
100742.31848
100742.28895
100742.260418
100742.232829
100742.206193
100742.180399
100742.155419
100742.131113
100742.107419
100742.084175
100742.061298
100742.038617
100742.01604
100741.993398
100741.970602
100741.947495
100741.923997
100741.899973
100741.875359
100741.850046
100741.823994
100741.797121
100741.769411
100741.740814
100741.711338
100741.680961
100741.64971
100741.617589
100741.584637
100741.550874
100741.51634
100741.481043
100741.444981
100741.408075
100741.370123
100741.330675
100741.288942
100741.244098
100741.195963
100741.145126
100741.092605
100741.039332
100740.985905
100740.932649
100740.879751
100740.827284
100740.775298
100740.723791
100740.672785
100740.62227
100740.572278
100740.522807
100740.473907
100740.425593
100740.377929
100740.330949
100740.284734
100740.23933
100740.194831
100740.151296
100740.108828
100740.067488
100740.027384
100739.988578
100739.951172
100739.915221
100739.880816
100739.848
100739.816846
100739.787374
100739.759627
100739.733603
100739.709324
100739.686763
100739.665913
100739.646717
100739.629135
100739.613081
100739.59848
100739.585219
100739.573194
100739.56227
100739.552329
100739.543233
100739.534871
100739.527135
100739.519966
100739.513333
100739.507278
100739.501895
100739.497362
100739.493909
100739.491819
100739.491377
100739.492834
100739.496332
100739.501837
100739.509053
100739.517323
100739.5255
100739.531606
100739.59805
100743.259323
100743.308168
100743.302869
100743.294018
100743.281952
100743.267055
100743.249629
100743.23008
100743.208734
100743.185998
100743.162184
100743.137646
100743.112623
100743.087365
100743.061999
100743.036637
100743.011285
100742.985922
100742.960452
100742.934756
100742.908683
100742.882069
100742.854763
100742.826617
100742.797532
100742.767425
100742.73629
100742.70413
100742.671044
100742.637123
100742.602551
100742.567481
100742.532146
100742.49672
100742.461443
100742.426471
100742.392014
100742.358182
100742.325136
100742.292928
100742.261663
100742.231333
100742.201971
100742.173512
100742.145959
100742.119227
100742.093287
100742.068028
100742.043402
100742.019288
100741.995627
100741.972297
100741.949236
100741.926329
100741.903518
100741.8807
100741.857824
100741.8348
100741.811585
100741.788102
100741.764313
100741.740145
100741.715563
100741.690491
100741.664881
100741.638645
100741.611708
100741.583952
100741.555251
100741.525427
100741.494268
100741.46147
100741.426642
100741.389244
100741.348635
100741.304255
100741.25616
100741.204761
100741.150638
100741.094597
100741.037338
100740.979398
100740.921204
100740.863064
100740.805238
100740.747905
100740.691234
100740.635336
100740.580331
100740.52629
100740.473302
100740.421416
100740.370706
100740.321205
100740.272979
100740.226058
100740.180503
100740.136342
100740.093636
100740.052411
100740.012728
100739.974611
100739.938114
100739.903258
100739.87009
100739.838618
100739.808876
100739.780855
100739.754563
100739.729971
100739.70707
100739.685811
100739.666156
100739.648029
100739.63136
100739.616043
100739.601977
100739.589028
100739.57707
100739.565949
100739.555528
100739.54566
100739.536229
100739.527132
100739.518325
100739.509809
100739.501666
100739.494051
100739.487214
100739.481472
100739.477204
100739.474804
100739.474635
100739.476958
100739.481855
100739.489138
100739.498237
100739.508039
100739.516653
100739.587943
100743.274503
100743.322197
100743.316369
100743.307141
100743.294752
100743.279573
100743.261923
100743.2422
100743.220742
100743.197958
100743.174167
100743.149725
100743.12488
100743.099877
100743.074847
100743.049893
100743.025013
100743.000173
100742.975261
100742.950138
100742.924629
100742.898547
100742.871714
100742.843959
100742.815158
100742.785205
100742.754076
100742.721759
100742.688339
100742.653903
100742.618628
100742.582673
100742.546274
100742.509617
100742.472953
100742.436459
100742.40036
100742.364796
100742.329945
100742.295894
100742.262768
100742.230601
100742.19944
100742.169246
100742.14005
100742.111798
100742.084487
100742.058041
100742.032433
100742.007572
100741.983417
100741.959869
100741.936881
100741.914353
100741.892235
100741.870426
100741.848874
100741.827482
100741.806192
100741.784905
100741.763555
100741.742032
100741.720255
100741.698097
100741.675449
100741.652153
100741.628063
100741.602977
100741.576693
100741.54895
100741.519471
100741.487906
100741.453873
100741.41692
100741.376609
100741.332572
100741.284933
100741.23407
100741.180312
100741.124147
100741.06619
100741.00697
100740.946971
100740.886583
100740.826164
100740.765995
100740.706341
100740.647401
100740.589374
100740.532397
100740.476618
100740.422128
100740.369037
100740.317403
100740.267309
100740.218791
100740.171912
100740.126694
100740.083186
100740.041402
100740.00138
100739.963125
100739.926668
100739.892005
100739.859157
100739.828107
100739.798863
100739.771392
100739.745676
100739.721662
100739.69932
100739.678577
100739.659377
100739.641623
100739.625228
100739.61007
100739.596034
100739.582973
100739.570751
100739.559212
100739.548216
100739.537619
100739.527317
100739.517224
100739.507317
100739.497626
100739.48827
100739.479441
100739.471428
100739.464593
100739.459359
100739.456167
100739.455435
100739.457483
100739.46247
100739.470298
100739.480524
100739.492213
100739.503819
100739.578005
100743.302823
100743.350066
100743.343688
100743.33388
100743.320879
100743.305048
100743.286713
100743.266283
100743.244106
100743.220596
100743.196088
100743.170943
100743.145421
100743.119774
100743.094138
100743.06862
100743.043222
100743.017908
100742.99256
100742.967036
100742.94115
100742.914705
100742.887512
100742.859386
100742.83019
100742.799808
100742.7682
100742.735348
100742.701327
100742.666218
100742.630195
100742.593416
100742.556115
100742.518487
100742.480784
100742.443194
100742.405953
100742.369214
100742.333169
100742.297922
100742.263614
100742.230306
100742.198058
100742.16684
100742.136697
100742.107598
100742.079555
100742.05251
100742.026452
100742.001301
100741.97703
100741.953548
100741.930812
100741.908725
100741.887234
100741.866235
100741.845665
100741.825412
100741.805401
100741.785508
100741.765643
100741.745663
100741.725453
100741.704847
100741.683698
100741.661808
100741.63899
100741.615005
100741.589621
100741.562553
100741.533516
100741.502177
100741.468205
100741.431239
100741.390978
100741.347189
100741.299879
100741.249473
100741.196326
100741.140634
100741.082897
100741.023576
100740.963135
100740.901973
100740.840476
100740.778966
100740.717757
100740.657096
100740.597232
100740.538352
100740.480646
100740.424248
100740.3693
100740.315893
100740.264132
100740.214071
100740.165787
100740.119311
100740.074695
100740.031952
100739.991116
100739.952185
100739.915179
100739.880082
100739.846901
100739.815604
100739.786183
100739.758589
100739.732784
100739.708701
100739.686291
100739.665469
100739.646161
100739.62826
100739.611667
100739.59625
100739.581885
100739.568424
100739.555727
100739.54364
100739.532028
100739.520758
100739.509738
100739.498899
100739.488241
100739.477814
100739.467759
100739.458293
100739.449727
100739.442443
100739.436888
100739.433529
100739.432819
100739.435133
100739.440698
100739.44952
100739.461293
100739.475289
100739.490276
100739.564937
100743.341101
100743.388074
100743.381137
100743.37065
100743.356862
100743.340138
100743.320816
100743.299306
100743.275977
100743.251252
100743.22548
100743.199037
100743.172198
100743.145226
100743.118273
100743.091455
100743.064785
100743.038232
100743.011688
100742.985012
100742.95802
100742.930517
100742.902309
100742.87321
100742.84308
100742.811797
100742.779316
100742.745617
100742.710767
100742.674845
100742.638019
100742.600444
100742.562353
100742.523939
100742.485453
100742.447087
100742.409077
100742.371583
100742.334801
100742.298846
100742.263864
100742.229921
100742.197099
100742.165379
100742.134795
100742.105327
100742.076997
100742.049756
100742.023599
100741.998454
100741.974296
100741.951036
100741.928631
100741.906981
100741.886027
100741.865656
100741.845794
100741.826314
100741.807127
100741.788089
100741.769087
100741.749959
100741.730565
100741.710716
100741.690243
100741.668926
100741.64656
100741.622893
100741.597687
100741.570655
100741.54153
100741.510003
100741.475796
100741.438618
100741.398252
100741.35454
100741.307466
100741.257294
100741.204505
100741.149317
100741.091975
100741.032884
100740.972471
100740.911111
100740.849193
100740.787042
100740.724992
100740.663313
100740.602281
100740.542111
100740.483025
100740.425183
100740.368759
100740.313867
100740.260636
100740.20914
100740.159474
100740.11168
100740.065821
100740.021916
100739.980005
100739.940084
100739.902172
100739.866249
100739.832315
100739.800334
100739.770287
100739.742117
100739.715773
100739.691177
100739.66827
100739.646959
100739.627161
100739.608761
100739.591654
100739.575704
100739.560786
100739.546749
100739.533458
100739.520763
100739.508537
100739.496661
100739.485053
100739.473663
100739.462503
100739.451643
100739.441237
100739.431517
100739.422804
100739.415492
100739.41004
100739.406936
100739.406661
100739.409633
100739.416145
100739.42629
100739.439871
100739.456309
100739.474547
100739.547388
100743.388511
100743.435224
100743.427661
100743.416367
100743.401606
100743.383742
100743.363125
100743.340178
100743.315283
100743.288877
100743.261334
100743.233044
100743.204306
100743.175398
100743.146495
100743.117729
100743.089129
100743.060682
100743.03229
100743.003825
100742.975112
100742.945964
100742.916193
100742.885617
100742.854099
100742.821519
100742.787831
100742.753015
100742.717134
100742.680266
100742.642571
100742.604203
100742.565385
100742.526307
100742.487213
100742.448293
100742.409777
100742.371824
100742.334629
100742.298306
100742.263003
100742.228787
100742.195754
100742.16389
100742.133206
100742.103689
100742.075364
100742.048184
100742.022147
100741.997183
100741.973263
100741.950299
100741.928244
100741.906991
100741.886476
100741.866574
100741.847204
100741.828225
100741.809534
100741.790973
100741.772416
100741.753683
100741.734623
100741.71503
100741.694725
100741.673478
100741.651081
100741.627277
100741.601835
100741.574479
100741.544963
100741.513009
100741.478383
100741.440846
100741.400241
100741.356453
100741.309499
100741.259465
100741.206775
100741.151847
100741.09486
100741.036043
100740.975784
100740.914434
100740.852364
100740.789893
100740.727357
100740.665033
100740.60321
100740.542118
100740.481998
100740.42303
100740.365407
100740.309263
100740.254745
100740.201948
100740.15098
100740.101899
100740.054779
100740.009647
100739.966552
100739.925494
100739.886495
100739.849537
100739.814619
100739.781703
100739.750767
100739.721752
100739.694598
100739.669221
100739.645558
100739.623509
100739.602989
100739.583881
100739.566076
100739.549439
100739.533846
100739.519149
100739.50522
100739.491914
100739.479117
100739.466718
100739.45465
100739.442876
100739.431421
100739.420367
100739.40988
100739.400197
100739.391647
100739.384628
100739.379608
100739.377083
100739.377556
100739.381479
100739.38919
100739.400839
100739.416293
100739.435037
100739.456047
100739.525385
100743.444576
100743.490926
100743.48266
100743.470422
100743.454487
100743.435229
100743.413011
100743.388262
100743.361391
100743.332853
100743.303046
100743.272383
100743.24119
100743.209772
100743.178329
100743.147016
100743.115888
100743.084949
100743.054125
100743.023303
100742.992324
100742.961015
100742.929199
100742.896704
100742.863399
100742.829172
100742.79398
100742.757802
100742.7207
100742.68275
100742.644105
100742.604912
100742.565383
100742.525703
100742.486103
100742.446765
100742.407908
100742.369686
100742.332285
100742.295815
100742.260416
100742.226154
100742.193145
100742.161362
100742.130793
100742.101426
100742.073282
100742.046315
100742.02052
100741.995826
100741.972202
100741.949554
100741.927832
100741.906921
100741.88675
100741.867187
100741.848141
100741.829461
100741.811035
100741.792693
100741.774299
100741.755662
100741.736624
100741.716971
100741.696521
100741.675038
100741.652318
100741.628108
100741.602188
100741.574296
100741.54421
100741.511679
100741.476509
100741.4385
100741.397535
100741.35353
100741.306513
100741.256569
100741.203891
100741.148921
100741.09207
100741.033443
100740.973314
100740.912
100740.849855
100740.787186
100740.724321
100740.661538
100740.59913
100740.537332
100740.476397
100740.416516
100740.357896
100740.300685
100740.245046
100740.191087
100740.138929
100740.088642
100740.040313
100739.993979
100739.949695
100739.907469
100739.867329
100739.829259
100739.793262
100739.759301
100739.727356
100739.697367
100739.669273
100739.642984
100739.618434
100739.595526
100739.574174
100739.554258
100739.535675
100739.518289
100739.501983
100739.486613
100739.472058
100739.458184
100739.444885
100739.432064
100739.419665
100739.407662
100739.396092
100739.385047
100739.374699
100739.365289
100739.357147
100739.350673
100739.346333
100739.34463
100739.346075
100739.351137
100739.360178
100739.373372
100739.3906
100739.411335
100739.434478
100739.49931
100743.509112
100743.554906
100743.545851
100743.532521
100743.515208
100743.494292
100743.470151
100743.443235
100743.413973
100743.382843
100743.350278
100743.316718
100743.282523
100743.248031
100743.213472
100743.179035
100743.144802
100743.110807
100743.076999
100743.043288
100743.009537
100742.975589
100742.941283
100742.906461
100742.871003
100742.834804
100742.797824
100742.760048
100742.721534
100742.682354
100742.642652
100742.602569
100742.562303
100742.522025
100742.481954
100742.442259
100742.403146
100742.364755
100742.327261
100742.290765
100742.255398
100742.221215
100742.188355
100742.156778
100742.126446
100742.097337
100742.069468
100742.04279
100742.017294
100741.992905
100741.969588
100741.947245
100741.925818
100741.905189
100741.885279
100741.86595
100741.847101
100741.828574
100741.810249
100741.791948
100741.773529
100741.754795
100741.735581
100741.715671
100741.694883
100741.67298
100741.649765
100741.624991
100741.598451
100741.5699
100741.539138
100741.50594
100741.470141
100741.431573
100741.390151
100741.345809
100741.298587
100741.248559
100741.195905
100741.140827
100741.083799
100741.025166
100740.965072
100740.903747
100740.841515
100740.778672
100740.715537
100740.65238
100740.589494
100740.527117
100740.465507
100740.404861
100740.345396
100740.287269
100740.230653
100740.175667
100740.122442
100740.07106
100740.021617
100739.974157
100739.928745
100739.885395
100739.844142
100739.804974
100739.767898
100739.732881
100739.699906
100739.668918
100739.639854
100739.612621
100739.587155
100739.56336
100739.541151
100739.520414
100739.501046
100739.48292
100739.465921
100739.449915
100739.434789
100739.420418
100739.406708
100739.393572
100739.380967
100739.368876
100739.357348
100739.346479
100739.336445
100739.32749
100739.319941
100739.314192
100739.310707
100739.309981
100739.312526
100739.318808
100739.329194
100739.34385
100739.362633
100739.384946
100739.409545
100739.469433
100743.582176
100743.627146
100743.617207
100743.602629
100743.583716
100743.560863
100743.534467
100743.504994
100743.472904
100743.438708
100743.40287
100743.36587
100743.32811
100743.289965
100743.251708
100743.213563
100743.175651
100743.138036
100743.1007
100743.063579
100743.026561
100742.98951
100742.952284
100742.914742
100742.876773
100742.838283
100742.799238
100742.759623
100742.719494
100742.678917
100742.638028
100742.596953
100742.555879
100742.51496
100742.474399
100742.434346
100742.394993
100742.356464
100742.31892
100742.282448
100742.247167
100742.213123
100742.180439
100742.149102
100742.119073
100742.090274
100742.06272
100742.03636
100742.011178
100741.987095
100741.964072
100741.942006
100741.920834
100741.900431
100741.880712
100741.861533
100741.842788
100741.824311
100741.805976
100741.7876
100741.769036
100741.750081
100741.730571
100741.710287
100741.689047
100741.66662
100741.642813
100741.61739
100741.590157
100741.560882
100741.529389
100741.495472
100741.458995
100741.419812
100741.377861
100741.333092
100741.285553
100741.235312
100741.182538
100741.127407
100741.070189
100741.011268
100740.951024
100740.889601
100740.827246
100740.764216
100740.700822
100740.637327
100740.574023
100740.511147
100740.448956
100740.387655
100740.327462
100740.268543
100740.211078
100740.155193
100740.101028
100740.048673
100739.998229
100739.949752
100739.90331
100739.858926
100739.81664
100739.776445
100739.738352
100739.702333
100739.668374
100739.636428
100739.606435
100739.578296
100739.55195
100739.527304
100739.504277
100739.48276
100739.462655
100739.443842
100739.426211
100739.409639
100739.39402
100739.379241
100739.365218
100739.351875
100739.339178
100739.327122
100739.315762
100739.305198
100739.295609
100739.287236
100739.280401
100739.275489
100739.272951
100739.273272
100739.276948
100739.284435
100739.296079
100739.312021
100739.332063
100739.35551
100739.380934
100739.435824
100743.664028
100743.707845
100743.696914
100743.680911
100743.660161
100743.635067
100743.60605
100743.573604
100743.538218
100743.500438
100743.460777
100743.419757
100743.377831
100743.335421
100743.292849
100743.250386
100743.208194
100743.166377
100743.124954
100743.08389
100743.043103
100743.002481
100742.961902
100742.921241
100742.880401
100742.839296
100742.797896
100742.756188
100742.714223
100742.67206
100742.629823
100742.587625
100742.545634
100742.503989
100742.462869
100742.422411
100742.382783
100742.344094
100742.306487
100742.270034
100742.234842
100742.200947
100742.168423
100742.137319
100742.107608
100742.07913
100742.051899
100742.025855
100742.000981
100741.97719
100741.95444
100741.93262
100741.911665
100741.891443
100741.871865
100741.852778
100741.834075
100741.815582
100741.797169
100741.778648
100741.75987
100741.740628
100741.720758
100741.700039
100741.678294
100741.655295
100741.630857
100741.604752
100741.576799
100741.546781
100741.514539
100741.479888
100741.442713
100741.402886
100741.360366
100741.315113
100741.267182
100741.216638
100741.16364
100741.108351
100741.051014
100740.991874
100740.931265
100740.869565
100740.807021
100740.74379
100740.680137
100740.616321
100740.552637
100740.489317
100740.42662
100740.364749
100740.303928
100740.244326
100740.186127
100740.129464
100740.074482
100740.021277
100739.969958
100739.920584
100739.873232
100739.827928
100739.784717
100739.743598
100739.704587
100739.667659
100739.632803
100739.599982
100739.569144
100739.540179
100739.513031
100739.487612
100739.463846
100739.441627
100739.420865
100739.401446
100739.383269
100739.366218
100739.350197
100739.335103
100739.320863
100739.30741
100739.29472
100739.282797
100739.271699
100739.261531
100739.252471
100739.244754
100739.238693
100739.234661
100739.233092
100739.23445
100739.239211
100739.247805
100739.260548
100739.277539
100739.298512
100739.32266
100739.348367
100739.398428
100743.755108
100743.797381
100743.785335
100743.767714
100743.744857
100743.717187
100743.68515
100743.649263
100743.61006
100743.56813
100743.524036
100743.478357
100743.431606
100743.384261
100743.336705
100743.289262
100743.242145
100743.195505
100743.149398
100743.103831
100743.058747
100743.014063
100742.969677
100742.925482
100742.881391
100742.83733
100742.793269
100742.749194
100742.70515
100742.661187
100742.617415
100742.573931
100742.530883
100742.488389
100742.44661
100742.405659
100742.365683
100742.326774
100742.289053
100742.252577
100742.217435
100742.183649
100742.151274
100742.1204
100742.090979
100742.062808
100742.035888
100742.010149
100741.985569
100741.962054
100741.939557
100741.917963
100741.897201
100741.877134
100741.857668
100741.838645
100741.819953
100741.801414
100741.782895
100741.764202
100741.745185
100741.725635
100741.705387
100741.684222
100741.661966
100741.638393
100741.613329
100741.586551
100741.557893
100741.527149
100741.494178
100741.45881
100741.420948
100741.380481
100741.337382
100741.291621
100741.243259
100741.19236
100741.139076
100741.083559
100741.026039
100740.966731
100740.905937
100740.843833
100740.780951
100740.717504
100740.653549
100740.589432
100740.525401
100740.461688
100740.398549
100740.336187
100740.274827
100740.21464
100740.155816
100740.098489
100740.04281
100739.988877
100739.936807
100739.886663
100739.838525
100739.792426
100739.748414
100739.706491
100739.666679
100739.628954
100739.593311
100739.55972
100739.528139
100739.498453
100739.470607
100739.444516
100739.420109
100739.397287
100739.375964
100739.356035
100739.337406
100739.319969
100739.303639
100739.288321
100739.273951
100739.260472
100739.247868
100739.236149
100739.225377
100739.215659
100739.207169
100739.200134
100739.194856
100739.191691
100739.191051
100739.193377
100739.199116
100739.208664
100739.222301
100739.240076
100739.261651
100739.286105
100739.31165
100739.357163
100743.856021
100743.896304
100743.883
100743.863536
100743.838275
100743.807651
100743.772138
100743.732291
100743.688685
100743.641961
100743.592749
100743.541693
100743.489376
100743.436348
100743.383062
100743.329905
100743.277152
100743.225005
100743.173568
100743.122885
100743.072934
100743.023658
100742.974978
100742.926803
100742.879057
100742.831671
100742.784616
100742.737875
100742.691485
100742.645484
100742.599964
100742.555005
100742.510733
100742.467245
100742.424679
100742.383123
100742.342705
100742.303492
100742.265588
100742.229029
100742.193888
100742.160169
100742.127909
100742.097201
100742.068024
100742.04016
100742.013546
100741.988108
100741.963817
100741.940575
100741.918329
100741.896958
100741.876388
100741.856474
100741.83712
100741.818163
100741.799486
100741.780907
100741.762291
100741.743439
100741.7242
100741.704363
100741.683764
100741.662184
100741.639453
100741.615348
100741.589703
100741.562302
100741.532991
100741.501575
100741.467927
100741.431891
100741.393387
100741.352316
100741.308663
100741.262407
100741.213613
100741.162344
100741.10875
100741.052972
100740.99523
100740.935726
100740.874722
100740.812455
100740.749252
100740.685409
100740.621207
100740.556791
100740.492475
100740.428432
100740.364916
100740.30214
100740.240329
100740.179654
100740.120308
100740.062426
100740.006164
100739.951625
100739.898926
100739.848136
100739.799339
100739.75257
100739.707881
100739.66528
100739.624789
100739.58639
100739.550082
100739.515825
100739.483606
100739.453319
100739.42489
100739.398238
100739.373299
100739.349978
100739.328198
100739.307857
100739.288872
100739.271142
100739.254588
100739.239127
100739.224703
100739.211266
100739.198807
100739.18734
100739.17693
100739.167683
100739.159768
100739.153403
100739.148875
100739.146521
100739.146729
100739.149911
100739.156482
100739.1668
100739.181105
100739.199392
100739.221257
100739.245674
100739.270706
100739.311989
100743.96753
100744.005319
100743.990597
100743.969044
100743.941034
100743.907027
100743.867528
100743.823121
100743.774443
100743.722195
100743.66708
100743.609823
100743.551096
100743.491533
100743.431671
100743.371972
100743.312782
100743.254364
100743.196873
100743.140397
100743.08495
100743.030502
100742.976994
100742.924351
100742.872506
100742.821392
100742.770981
100742.721248
100742.672218
100742.623915
100742.576412
100742.529768
100742.484087
100742.439441
100742.395944
100742.353659
100742.312691
100742.273083
100742.234919
100742.198215
100742.163026
100742.129342
100742.097193
100742.066554
100742.037539
100742.009998
100741.983701
100741.958577
100741.93459
100741.911638
100741.889662
100741.868537
100741.848182
100741.828451
100741.809242
100741.790386
100741.771765
100741.75319
100741.734525
100741.715567
100741.696165
100741.676103
100741.655221
100741.633299
100741.61017
100741.585616
100741.559475
100741.53154
100741.501666
100741.469668
100741.435432
100741.398814
100741.359747
100741.318142
100741.273996
100741.227294
100741.178108
100741.126498
100741.072613
100741.016587
100740.958633
100740.898943
100740.837776
100740.77536
100740.711981
100740.647923
100740.583362
100740.518698
100740.454159
100740.389792
100740.325977
100740.262869
100740.200695
100740.139629
100740.079862
100740.021534
100739.964802
100739.909771
100739.856563
100739.805247
100739.755912
100739.708596
100739.663355
100739.620197
100739.579148
100739.540193
100739.503331
100739.468526
100739.435785
100739.405012
100739.376112
100739.34901
100739.323645
100739.299929
100739.277791
100739.257134
100739.237882
100739.219942
100739.203244
100739.18771
100739.173293
100739.159948
100739.147674
100739.136486
100739.126451
100739.117671
100739.11031
100739.104574
100739.100734
100739.099105
100739.100051
100739.103953
100739.111189
100739.122081
100739.136823
100739.155365
100739.177236
100739.201322
100739.225569
100739.262945
100744.090578
100744.125317
100744.108993
100744.085062
100744.053922
100744.016043
100743.971965
100743.92232
100743.867799
100743.809177
100743.747252
100743.682845
100743.616731
100743.549649
100743.482237
100743.415047
100743.348507
100743.282949
100743.218588
100743.155556
100743.093906
100743.033636
100742.974707
100742.917057
100742.860624
100742.805342
100742.751177
100742.698095
100742.646105
100742.595214
100742.545475
100742.496922
100742.449634
100742.403658
100742.359078
100742.315936
100742.274307
100742.234212
100742.195711
100742.158798
100742.12351
100742.089816
100742.057729
100742.027192
100741.99838
100741.971129
100741.945158
100741.920369
100741.896718
100741.874094
100741.852434
100741.831605
100741.811524
100741.792037
100741.77304
100741.754358
100741.735869
100741.717382
100741.698757
100741.679787
100741.660319
100741.640139
100741.619083
100741.596933
100741.573526
100741.548644
100741.522134
100741.493793
100741.463485
100741.431033
100741.396336
100741.359257
100741.319743
100741.277713
100741.233175
100741.186116
100741.136615
100741.084733
100741.030617
100740.974397
100740.91628
100740.85645
100740.795159
100740.732628
100740.669136
100740.604909
100740.540235
100740.475381
100740.410578
100740.346067
100740.282013
100740.218661
100740.156229
100740.094873
100740.034793
100739.976129
100739.91904
100739.863631
100739.810029
100739.758306
100739.708552
100739.660807
100739.615129
100739.571531
100739.53004
100739.490642
100739.453339
100739.418095
100739.384937
100739.353785
100739.324519
100739.29707
100739.27138
100739.247366
100739.224961
100739.204076
100739.184638
100739.166564
100739.149787
100739.134238
100739.119874
100739.106659
100739.094593
100739.083693
100739.074027
100739.065693
100739.058844
100739.053677
100739.050445
100739.049441
100739.051
100739.055473
100739.063202
100739.074471