/*--------------------------------*- C++ -*----------------------------------*\
| =========                 |                                                 |
| \\      /  F ield         | OpenFOAM: The Open Source CFD Toolbox           |
|  \\    /   O peration     | Version:  2206                                  |
|   \\  /    A nd           | Website:  www.openfoam.com                      |
|    \\/     M anipulation  |                                                 |
\*---------------------------------------------------------------------------*/
FoamFile
{
    version     2.0;
    format      ascii;
    arch        "LSB;label=64;scalar=64";
    class       volScalarField;
    location    "4.7/water";
    object      T.gas;
}
// * * * * * * * * * * * * * * * * * * * * * * * * * * * * * * * * * * * * * //

dimensions      [0 0 0 1 0 0 0];

internalField   nonuniform List<scalar> 
23300
(
333.211554759
333.211593242
333.211671637
333.211791304
333.211953853
333.212161108
333.212415107
333.212718114
333.213072634
333.213481414
333.213947437
333.214473894
333.215064136
333.215721601
333.216449705
333.217251709
333.218130544
333.219088605
333.220127513
333.22124786
333.222448942
333.223728509
333.225082546
333.226505135
333.227988405
333.229522611
333.231096358
333.232696956
333.234310907
333.235924459
333.237524194
333.239097575
333.240633407
333.242122163
333.243556162
333.244929603
333.246238473
333.247480357
333.2486542
333.249760036
333.250798723
333.251771698
333.252680458
333.253526307
333.254310739
333.255035349
333.255701753
333.256311541
333.256866246
333.257367326
333.257816153
333.258214018
333.258562132
333.258861639
333.259113627
333.259319143
333.259479208
333.259594828
333.259667016
333.259696796
333.259685221
333.259633377
333.259542389
333.259413425
333.259247685
333.259046392
333.258810772
333.258542027
333.258241296
333.257909615
333.257547863
333.257156706
333.256736501
333.256287134
333.255807676
333.255295789
333.254747841
333.254159952
333.253529067
333.252853081
333.25213053
333.251360377
333.250541872
333.249674452
333.248757691
333.247791262
333.246774937
333.245708574
333.244592121
333.243425602
333.242209104
333.240942754
333.239626696
333.238261066
333.236845961
333.235381419
333.233867386
333.232303704
333.230690083
333.229026091
333.22731114
333.22554448
333.223725201
333.221852243
333.219924417
333.217940441
333.215899006
333.213798878
333.21163859
333.209416714
333.207132125
333.204784199
333.202373049
333.199899814
333.19736697
333.194778679
333.192141145
333.189462937
333.186755238
333.184031971
333.181309727
333.178607455
333.175945883
333.173346666
333.170831337
333.168420143
333.166130932
333.163978227
333.161972615
333.160121291
333.158427775
333.15689214
333.155511926
333.154283119
333.153201109
333.152261525
333.151460873
333.150796868
333.1502684
333.149875145
333.21185572
333.211898188
333.211983544
333.212112885
333.212287699
333.212509785
333.212781231
333.2131044
333.213481929
333.213916712
333.214411885
333.214970784
333.215596881
333.216293707
333.217064723
333.217913179
333.218841929
333.219853213
333.220948415
333.222127803
333.223390264
333.224733058
333.226151618
333.227639416
333.229187946
333.230786819
333.23242401
333.234086236
333.235759455
333.237429429
333.239082317
333.240705219
333.242286627
333.243816747
333.245287674
333.24669342
333.248029816
333.249294334
333.250485842
333.251604344
333.25265072
333.253626487
333.254533325
333.255372648
333.256146102
333.256855459
333.257502544
333.258089173
333.258617127
333.259088127
333.259503826
333.259865802
333.260175569
333.260434577
333.260644227
333.260805882
333.260920879
333.26099054
333.261016188
333.260999154
333.260940785
333.260842454
333.260705563
333.260531536
333.260321823
333.260077878
333.259801147
333.259493037
333.259154881
333.258787898
333.258393136
333.257971419
333.257523257
333.257048722
333.256547223
333.25601719
333.255456155
333.254861
333.254228366
333.253555479
333.252840189
333.252080864
333.251276266
333.250425435
333.249527611
333.248582185
333.24758867
333.246546682
333.245455928
333.244316189
333.243127304
333.241889149
333.240601613
333.239264573
333.237877875
333.236441306
333.234954576
333.233417298
333.231828969
333.230188959
333.2284965
333.22675068
333.224950446
333.223094612
333.221181877
333.219210861
333.217180158
333.215088415
333.212934164
333.210715966
333.208432702
333.206083757
333.203669261
333.201190351
333.198649483
333.196050766
333.1934003
333.190706493
333.187980299
333.18523534
333.182487845
333.17975636
333.177061205
333.174423675
333.17186505
333.169405513
333.167063091
333.1648528
333.162786092
333.160870729
333.159110882
333.157507527
333.156059155
333.154762614
333.153613988
333.15260942
333.151745809
333.151021343
333.150435794
333.149990535
333.212234723
333.21228104
333.212374049
333.212514672
333.212704277
333.212944618
333.213237796
333.21358623
333.213992639
333.214460007
333.214991554
333.215590673
333.216260863
333.217005619
333.217828308
333.218732006
333.219719305
333.220792093
333.22195131
333.223196697
333.224526536
333.225937433
333.227424138
333.22897945
333.230594222
333.232257499
333.233956785
333.235678439
333.237408173
333.239131606
333.240834836
333.242504952
333.244130456
333.245701561
333.247210342
333.248650756
333.250018547
333.251311072
333.252527072
333.253666424
333.254729904
333.255718957
333.256635362
333.25748047
333.258255895
333.25896341
333.259604869
333.260182154
333.260697136
333.261151657
333.261547514
333.261886459
333.262170194
333.262400383
333.262578656
333.262706619
333.262785867
333.262817988
333.262804581
333.262747253
333.262647638
333.262507387
333.262328182
333.262111722
333.26185972
333.261573891
333.261255928
333.260907474
333.260530085
333.260125183
333.259693996
333.259237492
333.258756291
333.258250551
333.257719824
333.257162869
333.256577679
333.255962244
333.255313653
333.254629134
333.253906249
333.253142945
333.252337524
333.251488584
333.250594957
333.249655671
333.248669906
333.247636977
333.246556307
333.245427411
333.244249871
333.24302332
333.241747418
333.240421829
333.239046205
333.237620158
333.236143249
333.234614966
333.233034708
333.231401778
333.229715366
333.227974551
333.226178298
333.224325465
333.222414822
333.220445083
333.218414942
333.216323146
333.214168387
333.211949394
333.209665226
333.207315448
333.204900342
333.202421155
333.199880384
333.197282079
333.194632153
333.191938664
333.189212038
333.186465168
333.183713365
333.180974098
333.178266504
333.175610684
333.173026817
333.170534194
333.168150263
333.165889843
333.163764575
333.161782696
333.159949121
333.1582658
333.156732322
333.155346652
333.154105941
333.15300733
333.152048715
333.1512294
333.150550518
333.150014059
333.212699089
333.212749577
333.212850991
333.213004222
333.213210601
333.213471866
333.21379013
333.214167842
333.214607757
333.215112894
333.215686479
333.216331878
333.217052502
333.217851699
333.218732606
333.219697981
333.220750005
333.221890065
333.223118514
333.224434431
333.225835393
333.227317274
333.22887411
333.230498036
333.232179334
333.2339066
333.235667033
333.237446835
333.239231705
333.241007366
333.242760095
333.244477194
333.246147374
333.24776101
333.249310274
333.250789143
333.252193307
333.253520006
333.254767817
333.255936432
333.257026429
333.258039073
333.258976214
333.259839027
333.260628976
333.261347712
333.261996996
333.262578653
333.263094527
333.263546468
333.263936311
333.264265874
333.264536956
333.264751339
333.264910797
333.265017099
333.265072021
333.265077351
333.265034897
333.264946494
333.264814005
333.264639323
333.264424371
333.264171091
333.263881439
333.263557366
333.263200793
333.262813583
333.262397495
333.261954137
333.261484899
333.260990878
333.260472794
333.25993089
333.259364833
333.25877362
333.25815554
333.257509085
333.256832203
333.256122399
333.255377283
333.254594667
333.253772603
333.252909382
333.252003517
333.251053713
333.250058851
333.249017959
333.247930193
333.246794818
333.24561119
333.244378731
333.243096912
333.241765234
333.240383211
333.238950345
333.237466115
333.235929959
333.234341261
333.232699337
333.231003428
333.229252694
333.227446217
333.225583004
333.223662003
333.22168213
333.219642305
333.21754151
333.215378695
333.213152863
333.210863352
333.208509995
333.206093309
333.203614714
333.201076789
333.198483532
333.195840636
333.193155728
333.190438558
333.187701084
333.184957422
333.182223619
333.179517228
333.176856702
333.174260627
333.171746886
333.169331826
333.167029545
333.164851379
333.162805652
333.160897699
333.159130151
333.157503435
333.15601643
333.1546672
333.153453788
333.152375002
333.151431181
333.150624894
333.149960021
333.213248494
333.213303676
333.213414471
333.213581766
333.213806882
333.214091554
333.214437891
333.214848342
333.215325651
333.215872803
333.216492955
333.217189354
333.217965233
333.218823683
333.219767506
333.220799036
333.221919943
333.223131021
333.22443196
333.225821126
333.227295358
333.228849807
333.230477827
333.232170962
333.233919026
333.235710291
333.237531802
333.239369767
333.241210032
333.243038578
333.244842001
333.246607937
333.248325401
333.249985002
333.251579058
333.253101594
333.254548254
333.255916149
333.25720367
333.258410277
333.259536302
333.260582744
333.261551483
333.262443505
333.263260059
333.264002591
333.264672685
333.265272018
333.265802326
333.266265381
333.266662972
333.266996904
333.267268988
333.267481045
333.267634913
333.267732444
333.267775518
333.267766046
333.267705971
333.267597277
333.267441989
333.267242168
333.266999911
333.266717339
333.266396585
333.266039776
333.265649005
333.265226298
333.264773569
333.264292569
333.26378482
333.263251541
333.26269357
333.262111283
333.261504519
333.260872531
333.26021397
333.259527128
333.258811099
333.258063751
333.257282908
333.256466446
333.255612367
333.254718831
333.25378417
333.252806888
333.251785652
333.250719283
333.249606739
333.248447098
333.247239545
333.245983353
333.244677865
333.243322479
333.24191663
333.240459771
333.238951362
333.237390853
333.23577767
333.234111205
333.232390811
333.230615789
333.228785399
333.226898854
333.224955344
333.22295405
333.220894181
333.218775022
333.216595851
333.214355993
333.212055111
333.209693346
333.207271484
333.204791147
333.202255011
333.19966703
333.197032666
333.194359087
333.191655323
333.188932328
333.186202932
333.183481637
333.18078426
333.178127414
333.175527862
333.1730018
333.170564145
333.168227899
333.166003682
333.163899467
333.161920556
333.160069774
333.158347879
333.156754106
333.155286843
333.153944375
333.152725718
333.151631579
333.150665476
333.14983371
333.213885263
333.213945541
333.214066518
333.214249068
333.214494503
333.214804539
333.215181261
333.215627081
333.216144684
333.216736962
333.217406937
333.218157665
333.218992122
333.21991307
333.220922901
333.222023459
333.223215851
333.224500236
333.225875619
333.227339654
333.228888467
333.230516528
333.232216587
333.233979687
333.235795278
333.23765143
333.239535147
333.241432757
333.243330352
333.245214251
333.247071432
333.248889909
333.250659026
333.252369642
333.254014224
333.255586839
333.257083075
333.258499902
333.259835505
333.2610891
333.262260755
333.263351226
333.264361895
333.265294108
333.266148773
333.266927049
333.267630279
333.268259933
333.268817576
333.269304842
333.269723415
333.270075021
333.270361422
333.270584412
333.270745825
333.27084753
333.270891438
333.27087951
333.270813751
333.270696217
333.270529017
333.270314301
333.27005426
333.269751115
333.269407097
333.269024429
333.268605298
333.268151819
333.267665993
333.267149652
333.2666044
333.266031549
333.265432046
333.26480641
333.264154677
333.263476365
333.262770468
333.262035491
333.261270322
333.260474065
333.259644836
333.258780713
333.257879804
333.2569403
333.255960507
333.254938863
333.253873951
333.252764492
333.251609345
333.250407493
333.249158036
333.247860173
333.246513194
333.245116462
333.243669398
333.24217147
333.240622174
333.239021027
333.237367548
333.235661255
333.233901651
333.232088225
333.230220447
333.228297777
333.226319675
333.224285618
333.222195137
333.220047849
333.217843395
333.215581438
333.213261976
333.210885466
333.208452966
333.2059663
333.20342824
333.200842694
333.198214891
333.195551548
333.192860979
333.19015315
333.187439613
333.184733342
333.182048417
333.179399589
333.176801739
333.174269265
333.171815476
333.169452036
333.167188529
333.165032195
333.162987845
333.16105798
333.159243071
333.157542005
333.155952643
333.154472503
333.153099606
333.151833641
333.150677716
333.14963986
333.214609594
333.21467527
333.214807027
333.215005724
333.215272647
333.215609478
333.216018255
333.216501318
333.217061251
333.217700807
333.218422821
333.219230105
333.220125328
333.221110872
333.222188679
333.223360073
333.224625575
333.225984707
333.227435807
333.228975846
333.230600292
333.232303007
333.234076217
333.235910561
333.237795223
333.239718165
333.241666436
333.243626546
333.245584884
333.247528132
333.249443657
333.251319844
333.253146346
333.254914251
333.256616147
333.25824612
333.25979968
333.261273634
333.26266594
333.263975546
333.265202227
333.26634644
333.267409187
333.268392094
333.269295728
333.270120942
333.270868804
333.271540544
333.272137517
333.272661178
333.273113061
333.273494769
333.273807964
333.274054364
333.274235742
333.274353926
333.274410802
333.274408312
333.274348458
333.274233298
333.274064949
333.273845575
333.273577382
333.273262609
333.272903503
333.272502304
333.272061214
333.271582361
333.27106776
333.270519265
333.269938512
333.269326863
333.268685351
333.268014624
333.267314907
333.266585977
333.26582716
333.265037352
333.26421507
333.263359833
333.26247082
333.261546414
333.260584961
333.259584825
333.258544431
333.257462295
333.256337047
333.255167436
333.253952336
333.252690744
333.251381772
333.25002464
333.248618667
333.247163258
333.245657893
333.244102115
333.242495517
333.240837734
333.239128426
333.237367275
333.235553974
333.233688226
333.231769741
333.229798245
333.227773485
333.22569525
333.223563396
333.221377885
333.219138736
333.216845947
333.214499841
333.212101175
333.209651263
333.207152114
333.204606583
333.202018524
333.199392938
333.196736103
333.194055656
333.19136062
333.188661347
333.185969362
333.183297092
333.180657504
333.178063637
333.175528096
333.173062518
333.170677091
333.168380152
333.166177908
333.164074304
333.162071042
333.160167739
333.158362219
333.156650919
333.155029429
333.153493266
333.152039151
333.150667461
333.149385901
333.215419936
333.215491218
333.215634169
333.215849623
333.216138833
333.216503431
333.216945383
333.217466933
333.218070534
333.218758765
333.219534239
333.220399491
333.221356849
333.222408295
333.223555302
333.224798669
333.226138339
333.227573222
333.229101021
333.230718086
333.232419289
333.234197964
333.236045902
333.237953421
333.239909522
333.241902126
333.243918376
333.245944996
333.247968675
333.249976444
333.251956032
333.253896149
333.255786715
333.257618994
333.259385658
333.261080775
333.262699745
333.26423919
333.265696822
333.267071299
333.268362082
333.269569299
333.270693627
333.271736963
333.272699538
333.273581895
333.274384814
333.275109267
333.275756373
333.276327382
333.276823645
333.277246609
333.2775978
333.277878819
333.278091339
333.278237102
333.278317914
333.278335651
333.278292252
333.278189718
333.27803011
333.277815537
333.277548153
333.277230139
333.27686369
333.276450988
333.275994179
333.275495339
333.274956437
333.274379291
333.273765523
333.273116509
333.272433333
333.271716749
333.270967144
333.270184522
333.269368507
333.268518351
333.267632961
333.266710941
333.265752421
333.264756785
333.26372272
333.262648884
333.261533952
333.260376645
333.259175766
333.257930214
333.256638998
333.255301237
333.253916161
333.252483107
333.251001511
333.249470904
333.247890898
333.246261178
333.244581497
333.242851657
333.241071507
333.239240932
333.237359849
333.235428203
333.233445965
333.23141314
333.229329774
333.22719597
333.225011909
333.222777892
333.220494335
333.218161551
333.215780164
333.213351208
333.210876225
333.208357385
333.205797605
333.203200674
333.200571368
333.197915547
333.195240214
333.192553521
333.189864711
333.187183971
333.184522206
333.181890715
333.179300806
333.176763353
333.174288339
333.171884428
333.169558583
333.167315783
333.165158827
333.163088259
333.161102382
333.159197355
333.157367386
333.155605016
333.153901658
333.152248787
333.150640968
333.149082357
333.216313503
333.216390518
333.216544915
333.216777499
333.21708948
333.217482431
333.217958231
333.218519008
333.219167065
333.219904787
333.220734546
333.221658581
333.22267887
333.223796986
333.22501394
333.22633002
333.227744619
333.229256074
333.230861511
333.232556715
333.234336042
333.236192375
333.238117144
333.240100422
333.242131083
333.244197049
333.246285576
333.2483836
333.250478084
333.252556367
333.25460648
333.256617399
333.258579244
333.260483399
333.262322564
333.264090749
333.265783212
333.267396365
333.268927656
333.270375441
333.27173885
333.273017667
333.274212203
333.275324623
333.276354914
333.277303331
333.278170364
333.278956708
333.279663235
333.280290965
333.280841051
333.281314756
333.281713446
333.28203858
333.282291698
333.28247442
333.282588443
333.282635531
333.282617518
333.282536302
333.282393836
333.282192125
333.281933213
333.28161917
333.281252077
333.280834005
333.280366988
333.279852997
333.279293906
333.278691456
333.278047215
333.277362538
333.276638533
333.275876023
333.275075528
333.274237243
333.273361048
333.272446507
333.271492895
333.270499213
333.269464218
333.268388498
333.267271886
333.26611343
333.264912156
333.2636671
333.262377344
333.261042044
333.259660446
333.258231895
333.256755837
333.255231818
333.253659481
333.252038559
333.250368875
333.248650325
333.246882877
333.24506656
333.243201458
333.241287701
333.239325464
333.23731496
333.235256443
333.233150213
333.230996621
333.228796085
333.226549111
333.224256325
333.221918562
333.219536427
333.217110821
333.214643024
333.212134779
333.209588389
333.20700681
333.204393754
333.201753775
333.199092338
333.196415856
333.193731683
333.191048052
333.188373937
333.185718853
333.183092578
333.180504817
333.177964819
333.17548098
333.17306045
333.170708774
333.16842959
333.166224381
333.16409229
333.162029979
333.160031509
333.158088224
333.156188667
333.154318649
333.152462034
333.150604068
333.14874132
333.217286761
333.217369567
333.217535527
333.217785414
333.218120392
333.218541965
333.219051922
333.219652266
333.220345139
333.221132725
333.222017148
333.223000351
333.224083964
333.225269164
333.22655652
333.227945838
333.229436004
333.231024831
333.232708928
333.234483587
333.236342714
333.238278812
333.240283016
333.242345201
333.244454157
333.246597816
333.248763546
333.250938463
333.253109758
333.255265015
333.257392493
333.259481357
333.261521854
333.263505421
333.265424731
333.267273688
333.269047374
333.270741969
333.272354644
333.273883446
333.275327185
333.276685321
333.277957864
333.279146357
333.280251569
333.28127336
333.282211885
333.283067542
333.283840937
333.284532851
333.285144222
333.285676122
333.286129742
333.286506379
333.286807424
333.287034357
333.287188736
333.287272193
333.287286429
333.287233205
333.287114337
333.286931687
333.286687154
333.286382659
333.286020132
333.285601493
333.285128629
333.284603371
333.284027466
333.283402546
333.282730096
333.282011425
333.281247634
333.280439592
333.279587914
333.278692955
333.277754806
333.276773302
333.275748043
333.274678403
333.273563552
333.272402464
333.271195857
333.269944413
333.268647597
333.267304833
333.265915559
333.264479271
333.262995538
333.261464014
333.259884442
333.258256657
333.256580585
333.254856241
333.253083721
333.2512632
333.249394922
333.247479196
333.245516388
333.243506918
333.241451252
333.239349903
333.237203432
333.23501245
333.232777625
333.230499695
333.228179486
333.225817938
333.223416333
333.220975549
333.218496744
333.215981421
333.213431494
333.210849373
333.208238035
333.205601105
333.202942916
333.200268561
333.197583909
333.194895587
333.192210911
333.189537761
333.1868844
333.184259227
333.181670483
333.17912592
333.176632436
333.174195724
333.171819922
333.169507288
333.167257902
333.165069374
333.162936534
333.160851062
333.158801013
333.156770204
333.154737569
333.152677124
333.150561157
333.148374324
333.218335896
333.218424495
333.218602019
333.218869213
333.219227196
333.219677404
333.220221531
333.220861459
333.22159917
333.222436649
333.22337578
333.224418221
333.225565271
333.226817736
333.228175774
333.229638752
333.231205096
333.232872153
333.234636076
333.236491725
333.238432623
333.240450948
333.242537587
333.244682254
333.246873661
333.249099752
333.251347975
333.253605577
333.255859914
333.258098737
333.26031045
333.262484325
333.264610656
333.266680861
333.268687527
333.270624402
333.272486359
333.274269317
333.275970155
333.277586607
333.279117165
333.280560983
333.281917808
333.283187926
333.284373625
333.285474314
333.286489795
333.287420165
333.288265763
333.289027134
333.289705
333.29030024
333.290813865
333.291247008
333.291600906
333.291876889
333.29207637
333.292200838
333.292251844
333.292231003
333.292139976
333.291980467
333.29175421
333.291462959
333.291108475
333.290692508
333.290216778
333.28968296
333.289092655
333.28844737
333.287748491
333.286997259
333.28619475
333.28534185
333.284439247
333.283487417
333.282486626
333.281436939
333.280338233
333.279190211
333.277992421
333.276744266
333.275445013
333.274094982
333.272696301
333.271248822
333.269752354
333.268206797
333.266612112
333.264968321
333.263275526
333.261533911
333.259743746
333.257905384
333.256019256
333.254085868
333.252105797
333.25007968
333.248008213
333.245892143
333.24373227
333.241529438
333.23928454
333.236998522
333.234672384
333.232307193
333.229904097
333.227464338
333.224989665
333.222481237
333.219940459
333.217369039
333.214769044
333.212142968
333.209493795
333.206825053
333.204140865
333.201445972
333.198745743
333.196046143
333.19335366
333.190675193
333.188017879
333.185388874
333.182795098
333.180242926
333.177737874
333.175284258
333.172884855
333.170540563
333.168250038
333.166009308
333.163811284
333.161645126
333.159495343
333.157340529
333.155151741
333.152891164
333.150514631
333.147990784
333.219457281
333.219551621
333.219740612
333.220024971
333.220405778
333.220884408
333.221462469
333.222141728
333.222924019
333.223811142
333.224804759
333.225906264
333.227116655
333.228436399
333.229865286
333.23140229
333.23304543
333.234791643
333.236636682
333.238575036
333.240599893
333.242703151
333.244875481
333.247106445
333.249384677
333.251698105
333.25403421
333.256380313
333.258723852
333.261052662
333.263355203
333.265620763
333.267839605
333.270003053
333.272103546
333.27413463
333.276090928
333.277968073
333.279762631
333.281472003
333.283094337
333.284628429
333.286073639
333.287429801
333.28869985
333.289882991
333.290978771
333.291987032
333.29290787
333.293741608
333.294488762
333.295150025
333.295726241
333.296218385
333.296627547
333.296954913
333.297201758
333.297369427
333.297459332
333.297472935
333.297411746
333.29727731
333.297071195
333.296794988
333.296450276
333.296038636
333.295561623
333.295020747
333.294417461
333.293753141
333.293029066
333.2922464
333.291406176
333.290509282
333.289556449
333.288548246
333.287485082
333.286367209
333.285194734
333.283967639
333.282685794
333.281348977
333.279956894
333.278509214
333.277005211
333.275449163
333.273840921
333.27218092
333.270469583
333.268707341
333.266894687
333.265032194
333.263120512
333.261160374
333.259152588
333.257098035
333.254997662
333.252852478
333.250663547
333.248431987
333.246158961
333.243845679
333.241493397
333.239103419
333.236677101
333.23421586
333.231721176
333.229194586
333.226638234
333.224053678
333.221442578
333.218806832
333.216148642
333.213470573
333.210775606
333.208067173
333.205349195
333.202626089
333.199902765
333.197184588
333.194477303
333.191786924
333.189119582
333.18648132
333.183877862
333.18131434
333.178794996
333.176322868
333.173899445
333.171524313
333.169194736
333.166905167
333.164646591
333.162405606
333.160163059
333.157892022
333.155554932
333.153100483
333.150464905
333.147597413
333.220647939
333.220747921
333.220948182
333.221249425
333.221652698
333.222159327
333.222770852
333.22348894
333.224315296
333.225251562
333.226299201
333.227459378
333.228732826
333.230119714
333.23161951
333.233230844
333.234951379
333.236777698
333.238705206
333.240728067
333.242839175
333.245030175
333.247291534
333.249612663
333.251982094
333.254387696
333.256816928
333.259257105
333.26169567
333.264120444
333.266519853
333.268883113
333.271200366
333.273462776
333.27566257
333.277793044
333.279848536
333.281824368
333.283716779
333.285522834
333.28724034
333.288867754
333.29040409
333.291848829
333.293204614
333.294471426
333.295648541
333.296735543
333.297732293
333.298638904
333.299455706
333.300183227
333.300822162
333.30137335
333.30183775
333.302216428
333.302510535
333.302721293
333.302849984
333.30289794
333.302866528
333.302757148
333.302571215
333.302310156
333.301975398
333.301568354
333.301090417
333.300542944
333.299927242
333.299244558
333.298496064
333.29768284
333.296805868
333.295866021
333.294864053
333.2938006
333.292676176
333.291491186
333.290245928
333.28894061
333.287575367
333.286150278
333.28466538
333.283120676
333.281516108
333.279851608
333.278129861
333.276353218
333.274522607
333.272638804
333.270702718
333.268715333
333.2666777
333.264590953
333.262456298
333.260275014
333.258048449
333.255778009
333.253465161
333.251111417
333.248718338
333.246287528
333.243820634
333.241319345
333.238785396
333.236220578
333.233626745
333.231005831
333.228359901
333.225691454
333.223002317
333.220294552
333.217570485
333.214832754
333.212084335
333.209328574
333.206569204
333.203810348
333.2010565
333.198312484
333.195583379
333.19287441
333.190190805
333.187537612
333.184919483
333.182340424
333.179803521
333.17731063
333.174862042
333.1724561
333.170088734
333.167752872
333.165437612
333.163127012
333.16079824
333.158418692
333.155941679
333.15330109
333.150410868
333.147198434
333.221906028
333.222011498
333.222222731
333.222540425
333.222965613
333.223499595
333.224143862
333.224900008
333.225769641
333.226754276
333.227855217
333.229073435
333.230409442
333.231863158
333.233433773
333.235119626
333.236918076
333.238825396
333.240836688
333.242945827
333.24514544
333.247426934
333.249780569
333.252195588
333.254660383
333.257162713
333.259689943
333.262229304
333.264768146
333.267294187
333.269795721
333.272261801
333.274682371
333.277048358
333.27935172
333.281585457
333.283743587
333.285821103
333.287813905
333.28971873
333.291533072
333.293255105
333.294883627
333.296418025
333.2978583
333.299207695
333.300464941
333.301629286
333.302700351
333.303678059
333.304562586
333.305354325
333.306053854
333.306661907
333.307179347
333.307607147
333.307946363
333.308198121
333.308363601
333.308444027
333.308440648
333.308354738
333.308187579
333.307940459
333.307614657
333.307211441
333.306732055
333.306177711
333.305549583
333.304848793
333.304076405
333.303233416
333.302320748
333.301339245
333.300289665
333.299172683
333.297988893
333.296738811
333.295422887
333.294041513
333.292595041
333.291083796
333.289508095
333.28786826
333.286164636
333.2843976
333.28256758
333.280674685
333.278725186
333.276719563
333.274659306
333.272545834
333.270380614
333.268165186
333.265901164
333.263590232
333.261234146
333.258834728
333.256393856
333.253913464
333.251395529
333.248842072
333.246255154
333.24363687
333.240989359
333.238314796
333.235615409
333.23289348
333.230151365
333.227392222
333.224618118
333.221831307
333.219034258
333.216229688
333.213420586
333.210610225
333.207802177
333.205000302
333.202208724
333.199431784
333.196673968
333.193939798
333.191233699
333.18855983
333.185921884
333.183322853
333.180764774
333.178248424
333.175772986
333.173335641
333.170931059
333.168550708
333.166181866
333.163806119
333.161396995
333.158916169
333.156307512
333.153489114
333.150350505
333.146796171
333.223231396
333.223342134
333.22356391
333.223897434
333.224343749
333.224904157
333.225580132
333.226373236
333.22728502
333.228316912
333.229470104
333.230745423
333.232143208
333.233663177
333.235304295
333.237064656
333.238941359
333.24093041
333.243026641
333.245223663
333.24751385
333.249888371
333.252337266
333.254849575
333.257413503
333.260016635
333.262646164
333.265289148
333.267932753
333.270564494
333.27317244
333.275745392
333.278273013
333.280745928
333.283155768
333.285495193
333.287757872
333.289938449
333.292032482
333.294036373
333.295947296
333.297763116
333.299482317
333.301103918
333.302627389
333.304056911
333.30539125
333.306629549
333.307771301
333.308816309
333.309764641
333.310616603
333.3113727
333.312033602
333.312600118
333.313073163
333.313453737
333.313742904
333.313941775
333.314051491
333.314073215
333.314008119
333.313857374
333.313622149
333.313303596
333.31290285
333.312421024
333.311859196
333.311218411
333.310499675
333.309703944
333.308832128
333.307885082
333.306863605
333.305768442
333.304600282
333.303359766
333.302047489
333.30066401
333.299209865
333.297685573
333.296091658
333.294428655
333.292697135
333.290897712
333.289031053
333.287097872
333.28509889
333.283034897
333.280909349
333.278726619
333.27648832
333.274196301
333.271852538
333.269459043
333.267017903
333.264531279
333.262001403
333.259430575
333.25682115
333.254175538
333.251496189
333.248785593
333.246046275
333.243280789
333.240491722
333.237681688
333.234853335
333.23200935
333.229153585
333.226288372
333.223416189
333.220539674
333.217661644
333.214785116
333.21191332
333.209049692
333.206197869
333.203361654
333.200544963
333.197751758
333.19498594
333.192251221
333.18955097
333.186888023
333.184264466
333.181681384
333.179138575
333.176634201
333.174164367
333.171722558
333.16929886
333.166878809
333.164441602