/*--------------------------------*- C++ -*----------------------------------*\
| =========                 |                                                 |
| \\      /  F ield         | OpenFOAM: The Open Source CFD Toolbox           |
|  \\    /   O peration     | Version:  2212                                  |
|   \\  /    A nd           | Website:  www.openfoam.com                      |
|    \\/     M anipulation  |                                                 |
\*---------------------------------------------------------------------------*/
FoamFile
{
    version     2.0;
    format      ascii;
    arch        "LSB;label=64;scalar=64";
    class       volScalarField;
    location    "1000";
    object      epsilon;
}
// * * * * * * * * * * * * * * * * * * * * * * * * * * * * * * * * * * * * * //

dimensions      [0 2 -3 0 0 0 0];

internalField   nonuniform List<scalar> 
125000
(
1.23726249208
1.26431582151
1.23726246224
0.448403516068
1.27069515057
1.26431575281
0.480594964616
1.23726246232
0.448403516399
0.240348577645
1.26858247395
1.2706951286
0.489487767994
1.26431575093
0.480594968645
0.255256033143
1.23726246224
0.448403516282
0.240348582554
0.160234932237
1.26274228572
1.26858245909
0.491682616977
1.2706951313
0.489487775622
0.262042167612
1.26431575281
0.480594968324
0.255256040671
0.165985992308
1.23726249208
0.448403516399
0.240348582354
0.160234935947
0.118870528766
1.25472296242
1.26274226939
0.491661416227
1.26858246117
0.491682617565
0.265069824456
1.2706951286
0.48948777579
0.262042175532
0.169692212642
1.26431582151
0.480594968645
0.255256040513
0.165985993874
0.120947809413
0.448403516068
0.240348582554
0.160234935858
0.118870529975
0.0933805936015
1.24773256067
1.25472293726
0.491200420894
1.26274227044
0.491661413743
0.266283115984
1.26858245909
0.491682617391
0.265069828488
0.171875461107
1.27069515057
0.489487775622
0.262042175573
0.16969221607
0.122719905843
0.480594964616
0.255256040671
0.165985993737
0.120947809229
0.094106023348
0.240348577645
0.160234935947
0.118870529951
0.0933805943109
0.075943780484
1.24225661086
1.24773253177
0.490631575524
1.25472293872
0.491200413594
0.266798721705
1.26274226939
0.491661413702
0.266283117422
0.173029072654
1.26858247395
0.491682617565
0.265069828245
0.171875463706
0.123989734527
0.489487767994
0.262042175532
0.169692216085
0.122719906808
0.0949158084616
0.255256033143
0.165985993874
0.12094780912
0.0941060228849
0.076223095011
0.160234932237
0.118870529975
0.0933805943034
0.0759437810764
0.0632555187551
1.23803809559
1.24225657681
0.490348314136
1.24773253361
0.490631565586
0.267093963165
1.25472293726
0.491200413627
0.266798720797
0.17362203927
1.26274228572
0.491661413743
0.266283117257
0.17302907429
0.124784720676
0.491682616977
0.265069828488
0.171875463558
0.123989735447
0.0955848080841
0.262042167612
0.16969221607
0.122719906805
0.0949158085826
0.0765871073288
0.165985992308
0.120947809229
0.094106022815
0.0762230949097
0.0633775553664
0.118870528766
0.0933805943109
0.075943781077
0.0632555198138
0.0536225784988
1.23472272791
1.23803805969
0.490204562501
1.24225657845
0.490348302086
0.267409296647
1.24773253177
0.49063156556
0.267093960445
0.17396540774
1.25472296242
0.491200413594
0.266798720638
0.173622039871
0.125234559163
0.491661416227
0.266283117422
0.173029074142
0.12478472142
0.0960631596323
0.265069824456
0.171875463706
0.123989735358
0.0955848081613
0.0769231184832
0.169692212642
0.122719906808
0.0949158085753
0.0765871073203
0.0635481421031
0.120947809413
0.0941060228849
0.0762230948664
0.0633775550784
0.0536811868978
0.0933805936015
0.0759437810764
0.0632555198315
0.0536225794584
0.0460741971124
1.23214493805
1.23472269098
0.490100272146
1.23803806138
0.490204549653
0.267754777326
1.24225657681
0.490348301977
0.267409292395
0.174247979335
1.24773256067
0.490631565586
0.267093960229
0.17396540734
0.125485974066
0.491200420894
0.266798720797
0.173622039714
0.125234559592
0.0963558024328
0.266283115984
0.17302907429
0.124784721314
0.0960631597097
0.0771926433876
0.171875461107
0.123989735447
0.0955848081043
0.0769231183165
0.0637163254178
0.122719905843
0.0949158085826
0.0765871073143
0.0635481420153
0.0537670776762
0.094106023348
0.0762230949097
0.0633775550416
0.0536811866845
0.0461055070088
0.0759437804841
0.0632555198138
0.0536225794808
0.046074197856
0.0400135395761
1.23002019509
1.23214490052
0.490035016996
1.23472269252
0.490100258633
0.268121598519
1.23803805969
0.490204549547
0.26775477225
0.174526345737
1.24225661086
0.490348302086
0.2674092921
0.174247977942
0.125657239947
0.490631575524
0.267093960445
0.173965407141
0.125485974071
0.0965166625028
0.266798721705
0.173622039871
0.125234559469
0.0963558024637
0.0773694051012
0.173029072654
0.12478472142
0.0960631596362
0.0771926431833
0.063865146393
0.123989734527
0.0955848081613
0.0769231182766
0.0637163252122
0.0538545745126
0.0949158084616
0.0765871073203
0.0635481420083
0.0537670775755
0.0461513630115
0.076223095011
0.0633775550784
0.0536811866552
0.0461055068556
0.0400322544556
0.0632555187551
0.0536225794584
0.0460741978781
0.040013540122
0.0350522399877
1.22824925184
1.23002015733
0.489944118278
1.2321449019
0.490035003151
0.26847412295
1.23472269098
0.490100258474
0.268121592741
0.17482616493
1.23803809559
0.490204549653
0.267754771925
0.174526343694
0.125804250381
0.490348314136
0.267409292395
0.174247977678
0.125657239444
0.0966050212197
0.267093963165
0.17396540734
0.125485973914
0.0965166623947
0.0774679310253
0.17362203927
0.125234559592
0.0963558023699
0.0773694048888
0.0639696166631
0.124784720676
0.0960631597097
0.0771926431311
0.0638651461242
0.0539376987899
0.0955848080841
0.0769231183165
0.0637163251819
0.0538545743219
0.046199722652
0.0765871073289
0.0635481420153
0.0537670775678
0.0461513629083
0.0400579691695
0.0633775553664
0.0536811866845
0.0461055068316
0.0400322543404
0.0350644932651
0.0536225784988
0.046074197856
0.0400135401421
0.035052240378
0.0309262524525
1.22672501693
1.22824921396
0.489838486989
1.23002015849
0.489944104189
0.268794632282
1.23214490052
0.49003500297
0.268474116805
0.175134577832
1.23472272791
0.490100258633
0.268121592346
0.174826162315
0.125960554584
0.490204562501
0.26775477225
0.174526343392
0.125804249481
0.0966605935744
0.267409296647
0.174247977942
0.125657239239
0.0966050208947
0.0775087455692
0.17396540774
0.125485974071
0.0965166622739
0.0774679307739
0.0640314749639
0.125234559163
0.0963558024637
0.0773694048151
0.0639696163624
0.0540002685984
0.0960631596323
0.0771926431833
0.0638651460851
0.053937698538
0.0462474890237
0.0769231184832
0.0637163252122
0.053854574297
0.0461997224801
0.0400861033716
0.0635481421031
0.0537670775755
0.0461513628995
0.0400579690645
0.0350797538247
0.0536811868977
0.0461055068556
0.0400322543204
0.0350644931811
0.0309347139008
0.0460741971124
0.040013540122
0.0350522403955
0.0309262527251
0.0274496351444
1.22538676972
1.22672497907
0.489709944766
1.22824921488
0.489838472765
0.269086673733
1.23002015733
0.489944103956
0.268794625824
0.175438533973
1.23214493805
0.490035003151
0.268474116377
0.175134574863
0.126133188459
0.490100272146
0.268121592741
0.174826161947
0.125960553317
0.0967127599589
0.267754777326
0.174526343694
0.125804249237
0.0966605930337
0.0775172724132
0.174247979335
0.125657239444
0.0966050207379
0.0775087452273
0.0640479696949
0.125485974066
0.0965166623947
0.0774679306804
0.064031474648
0.0540414711033
0.0963558024328
0.0773694048888
0.0639696163014
0.0540002682978
0.0462861291541
0.0771926433876
0.0638651461242
0.0539376985065
0.0462474888053
0.0401145707378
0.0637163254178
0.0538545743219
0.0461997224586
0.0400861032163
0.0350966788565
0.0537670776762
0.0461513629083
0.040057969054
0.0350797537239
0.030944383824
0.0461055070088
0.0400322543404
0.0350644931643
0.0309347138457
0.0274556234563
0.0400135395761
0.035052240378
0.0309262527397
0.0274496353286
0.0244876301012
1.22418602924
1.22538673194
0.489560660646
1.22672497968
0.489709930501
0.269339093042
1.22824921396
0.48983847248
0.269086667069
0.175737813807
1.23002019509
0.489944104189
0.268794625352
0.175438530706
0.126316631851
0.490035016996
0.268474116805
0.175134574453
0.126133186923
0.096775521204
0.268121598519
0.174826162315
0.12596055302
0.0967127592332
0.0775159591642
0.174526345737
0.125804249481
0.0966605928383
0.0775172719528
0.0640410296141
0.125657239947
0.0966050208947
0.0775087451025
0.0640479693145
0.0540495967305
0.0965166625028
0.0774679307739
0.0640314745749
0.0540414707839
0.0463147952352
0.0773694051012
0.0639696163624
0.0540002682455
0.0462861288864
0.0401392102919
0.063865146393
0.053937698538
0.0462474887777
0.0401145705493
0.0351142003313
0.0538545745126
0.0461997224801
0.0400861031972
0.0350966787188
0.0309548916671
0.0461513630115
0.0400579690645
0.0350797537117
0.0309443837351
0.0274621239687
0.0400322544556
0.0350644931811
0.0309347138316
0.0274556234273
0.0244919241375
0.0350522399877
0.0309262527251
0.0274496353405
0.0244876302199
0.0219401952381
1.22311258749
1.22418599166
0.489395114307
1.22538673233
0.489560646353
0.269552343895
1.22672497907
0.489709930153
0.269339086262
0.176018809417
1.22824925184
0.489838472765
0.269086666553
0.175737810341
0.126510972517
0.489944118278
0.268794625824
0.175438530241
0.12631663009
0.0968500373323
0.26847412295
0.175134574863
0.126133186583
0.0967755202972
0.0775155733365
0.17482616493
0.125960553317
0.0967127590028
0.0775159586474
0.064021617139
0.125804250381
0.0966605930337
0.0775172717919
0.0640410292039
0.0540416495615
0.0966050212197
0.0775087452273
0.0640479692053
0.0540495963597
0.0463227435102
0.0774679310253
0.064031474648
0.0540414707236
0.0463147949441
0.0401591768915
0.0639696166631
0.0540002682978
0.0462861288407
0.0401392100642
0.0351302889699
0.0539376987899
0.0462474888053
0.0401145705233
0.0351142001705
0.030965892497
0.046199722652
0.0400861032163
0.0350966787013
0.0309548915507
0.0274689164998
0.0400579691695
0.0350797537239
0.0309443837219
0.0274621238972
0.0244964776125
0.0350644932651
0.0309347138457
0.0274556234156
0.0244919241309
0.0219433123376
0.0309262524525
0.0274496353286
0.0244876302293
0.0219401953091
0.0197315098667
1.22213777711
1.22311255001
0.489224397584
1.22418599171
0.489395100028
0.269729717552
1.22538673194
0.489560645958
0.269552337026
0.176280821331
1.22672501693
0.489709930501
0.269339085703
0.176018805814
0.126707878941
0.489838486989
0.269086667069
0.175737809835
0.126510970595
0.0969379274911
0.268794632282
0.175438530706
0.126316629699
0.0968500362885
0.0775200952942
0.175134577832
0.126133186923
0.0967755200227
0.0775155726896
0.0639923992975
0.125960554584
0.0967127592332
0.0775159584689
0.0640216166854
0.0540211188334
0.0966605935744
0.0775172719528
0.0640410290796
0.054041649178
0.0463176410626
0.0775087455692
0.0640479693145
0.0540495962658
0.0463227431761
0.0401688228754
0.0640314749639
0.0540414707839
0.0463147948913
0.0401591766406
0.035144006385
0.0540002685984
0.0462861288864
0.0401392100236
0.035130288781
0.0309765332661
0.0462474890237
0.0401145705493
0.0351142001457
0.0309658923652
0.0274759474098
0.0400861033716
0.0350966787188
0.0309548915344
0.0274689164081
0.0245010655619
0.0350797538247
0.0309443837351
0.0274621238837
0.0244964775607
0.0219465825068
0.0309347139008
0.0274556234273
0.0244919241214
0.0219433123492
0.0197338042396
0.0274496351444
0.0244876302199
0.0219401953162
0.0197315099038
0.017803062068
1.22125105499
1.22213773995
0.489046169721
1.22311254977
0.489224383336
0.269878953824
1.22418599166
0.489395099539
0.269729710631
0.176520945323
1.22538676972
0.489560646353
0.269552336436
0.176280817616
0.126903773056
0.489709944766
0.269339086262
0.176018805267
0.126707876899
0.0970381078127
0.269086673733
0.175737810341
0.126510970163
0.0969379263394
0.0775335218463
0.175438533973
0.12631663009
0.096850035974
0.077520094598
0.0639637977677
0.126133188459
0.0967755202972
0.0775155724634
0.0639923987854
0.0539872833814
0.0967127599589
0.0775159586474
0.0640216165362
0.0540211184261
0.0463032896046
0.0775172724132
0.0640410292039
0.0540416490734
0.0463176407194
0.0401670119495
0.0640479696949
0.0540495963597
0.0463227430948
0.0401688225902
0.0351537633034
0.0540414711033
0.0463147949441
0.0401591765922
0.0351440061757
0.0309859640381
0.0462861291541
0.0401392100642
0.0351302887446
0.0309765331144
0.0274829975764
0.0401145707378
0.0351142001705
0.0309658923419
0.0274759473086
0.0245056849274
0.0350966788565
0.0309548915507
0.0274689163929
0.0245010654959
0.0219497989275
0.030944383824
0.0274621238972
0.0244964775476
0.0219465824749
0.0197361914405
0.0274556234563
0.0244919241309
0.0219433123416
0.019733804265
0.0178047747677
0.0244876301012
0.0219401953091
0.019731509909
0.017803062082
0.016108971196
1.22043857403
1.22125101801
0.488866466947
1.22213773933
0.489046155569
0.270000135313
1.22311255001
0.489224382772
0.269878946877
0.176741059673
1.22418602924
0.489395100028
0.269729709985
0.17652094154
0.127095688556
0.489560660646
0.269552337026
0.176280817031
0.126903770915
0.0971466853603
0.269339093042
0.176018805814
0.126707876424
0.0970381065678
0.0775608618169
0.175737813807
0.126510970595
0.0969379259891
0.0775335210852
0.063939045471
0.126316631851
0.0968500362885
0.0775200943501
0.0639637972219
0.0539495175137
0.096775521204
0.0775155726896
0.0639923986044
0.0539872829456
0.0462761651981
0.0775159591642
0.0640216166854
0.0540211183006
0.0463032892457
0.040159400679
0.0640410296141
0.054041649178
0.0463176406291
0.0401670116558
0.0351551697246
0.0540495967305
0.0463227431761
0.0401688225199
0.0351537630731
0.0309938933177
0.0463147952352
0.0401591766406
0.0351440061298
0.0309859638709
0.0274895060495
0.0401392102919
0.035130288781
0.0309765330814
0.0274829974616
0.0245103555035
0.0351142003313
0.0309658923652
0.0274759472871
0.0245056848571
0.0219529430709
0.0309548916671
0.0274689164081
0.0245010654819
0.0219497988862
0.0197385076527
0.0274621239687
0.0244964775607
0.0219465824626
0.0197361914268
0.0178065407307
0.0244919241375
0.0219433123492
0.0197338042593
0.0178047748027
0.0161102657623
0.0219401952381
0.0197315099038
0.0178030620856
0.0161089711951
0.0146127489297
1.21968945665
1.22043853751
0.488685354142
1.22125101713
0.488866452853
0.270099119683
1.22213773995
0.489046154897
0.270000128388
0.176939285382
1.22311258749
0.489224383336
0.269878946192
0.176741055843
0.127281110054
0.489395114307
0.269729710631
0.176520940906
0.127095686352
0.0972619961897
0.269552343895
0.176280817616
0.126903770404
0.0971466840435
0.0775983493221
0.176018809417
0.126707876899
0.0970381061735
0.0775608609785
0.0639224584262
0.126510972517
0.0969379263394
0.0775335208051
0.0639390448951
0.0539110094606
0.0968500373323
0.077520094598
0.0639637970151
0.0539495170607
0.0462424662763
0.0775155733365
0.0639923987854
0.0539872827958
0.0462761648228
0.0401426288722
0.064021617139
0.0540211184261
0.0463032891382
0.0401594003752
0.0351522789702
0.0540416495615
0.0463176407194
0.0401670115763
0.0351551694798
0.0309979701948
0.0463227435102
0.0401688225902
0.0351537630151
0.0309938931385
0.0274953501112
0.0401591768915
0.0351440061757
0.0309859638283
0.0274895059236
0.0245148373296
0.0351302889699
0.0309765331144
0.027482997432
0.0245103554247
0.0219560731062
0.030965892497
0.0274759473086
0.0245056848378
0.0219529430296
0.0197407213656
0.0274689164998
0.0245010654959
0.0219497988737
0.0197385076335
0.0178082407052
0.0244964776125
0.0219465824749
0.0197361914157
0.0178065407326
0.0161115882695
0.0219433123376
0.019733804265
0.0178047747988
0.0161102658033
0.0146137375598
0.0197315098667
0.017803062082
0.0161089711972
0.0146127489198
0.0132850093078
1.21900221938
1.21968942046
0.488505414349
1.22043853623
0.488685340218
0.270178083913
1.22125101801
0.488866452116
0.270099112766
0.177118264537
1.22213777711
0.489046155569
0.270000127645
0.176939281544
0.127456958056
0.489224397584
0.269878946877
0.176741055176
0.127281107803
0.0973807207451
0.269729717552
0.17652094154
0.127095685791
0.0972619948274
0.0776462733366
0.176280821331
0.126903770915
0.0971466836144
0.077598348445
0.0639141924142
0.126707878941
0.0970381065678
0.0775608606542
0.0639224578198
0.0538754731723
0.0969379274911
0.0775335210852
0.0639390446616
0.0539110089935
0.0462049550618
0.0775200952942
0.0639637972219
0.0539495168875
0.0462424658937
0.0401179519566
0.0639923992976
0.0539872829456
0.0462761646952
0.0401426285553
0.0351442056201
0.0540211188334
0.0463032892457
0.0401594002826
0.035152278722
0.0309975717026
0.0463176410626
0.0401670116558
0.0351551694049
0.0309979700028
0.0274997752938
0.0401688228754
0.0351537630731
0.0309938930882
0.0274953499793
0.0245189974681
0.035144006385
0.0309859638709
0.0274895058853
0.0245148372433
0.0219591396185
0.0309765332661
0.0274829974616
0.0245103553987
0.0219560730608
0.0197428707417
0.0274759474098
0.0245056848571
0.0219529430128
0.0197407213499
0.0178098416513
0.0245010655619
0.0219497988862
0.0197385076226
0.0178082407045
0.0161128546612
0.0219465825068
0.0197361914268
0.0178065407229
0.0161115882837
0.0146147391868
0.0197338042396
0.0178047748027
0.0161102658009
0.0146137376034
0.0132857705787
0.017803062068
0.0161089711951
0.014612748921
0.0132850092935
0.0121018185552
1.21836761604
1.21900218359
0.488330268986
1.21968941887
0.488505400528
0.270240197547
1.22043853751
0.488685339357
0.270178077059
0.177278991525
1.22125105499
0.488866452853
0.27009911199
0.177118260686
0.127623805205
0.489046169721
0.270000128388
0.176939280832
0.127456955788
0.0974998402391
0.269878953824
0.176741055843
0.127281107211
0.0973807193478
0.0777012312309
0.176520945323
0.127095686352
0.0972619943555
0.077646272436
0.0639157799577
0.126903773056
0.0971466840435
0.0775983480873
0.0639141917823
0.0538441300487
0.0970381078127
0.0775608609785
0.0639224575576
0.0538754726971
0.0461665688569
0.0775335218463
0.0639390448951
0.0539110087973
0.0462049546737
0.0400882895154
0.0639637977677
0.0539495170607
0.0462424657466
0.0401179516376
0.0351290282143
0.0539872833814
0.0462761648228
0.040142628444
0.0351442053652
0.030994642925
0.0463032896046
0.0401594003752
0.0351522786404
0.0309975715089
0.0275015368569
0.0401670119495
0.0351551694798
0.0309979699368
0.0274997751542
0.0245226364749
0.0351537633034
0.0309938931385
0.0274953499342
0.0245189973797
0.0219620621487
0.0309859640381
0.0274895059236
0.0245148372101
0.021959139569
0.0197449724606
0.0274829975764
0.0245103554247
0.0219560730384
0.0197428707257
0.0178113609153
0.0245056849274
0.0219529430296
0.0197407213359
0.0178098416568
0.0161140359797
0.0219497989275
0.0197385076335
0.0178082406954
0.016112854675
0.0146156947222
0.0197361914405
0.0178065407326
0.0161115882757
0.0146147392099
0.0132865367561
0.0178047747677
0.0161102658033
0.0146137376023
0.0132857706221
0.0121024087185
0.016108971196
0.0146127489198
0.0132850092939
0.0121018185395
0.011043485187
1.21777871752
1.21836758063
0.488158461932
1.21900218172
0.488330255305
0.270289239094
1.21968942046
0.488505399589
0.270240190745
0.177422980436
1.22043857403
0.488685340218
0.270178076227
0.177278987697
0.127780638496
0.488866466947
0.270099112766
0.177118259945
0.127623802919
0.0976186905514
0.270000135313
0.176939281544
0.127456955157
0.0974998388307
0.077762245212
0.176741059673
0.127281107803
0.0973807188464
0.0777012303114
0.0639229770512
0.127095688556
0.0972619948274
0.077646272046
0.0639157793206
0.0538192356036
0.0971466853603
0.077598348445
0.0639141914823
0.0538441295646
0.0461288507638
0.0775608618169
0.0639224578198
0.0538754724786
0.0461665684707
0.0400555738356
0.063939045471
0.0539110089935
0.0462049545075
0.0400882891958
0.0351088770276
0.0539495175137
0.0462424658937
0.040117951511
0.0351290279577
0.0309874843145
0.0462761651981
0.0401426285553
0.0351442052703
0.0309946427295
0.0275009527558
0.040159400679
0.035152278722
0.0309975714368
0.0275015367149
0.0245251882421
0.0351551697246
0.0309979700028
0.0274997750994
0.0245226363836
0.0219647746133
0.0309938933177
0.0274953499793
0.0245189973402
0.0219620620996
0.0197470088445
0.0274895060495
0.0245148372433
0.0219591395411
0.0197449724436
0.0178128229331
0.0245103555035
0.0219560730608
0.0197428707071
0.0178113609234
0.0161151382179
0.0219529430709
0.0197407213499
0.0178098416457
0.0161140360015
0.0146165804401
0.0197385076527
0.0178082407045
0.0161128546678
0.0146156947465
0.0132872659184
0.0178065407307
0.0161115882837
0.0146147392037
0.0132865367848
0.0121029998019
0.0161102657623
0.0146137376034
0.013285770622
0.0121024087597
0.0110439452724
0.0146127489297
0.0132850092935
0.0121018185394
0.0110434851717
0.0100936590021
1.21722982154
1.21777868272
0.487990359372
1.21836757844
0.488158448403
0.270325989207
1.21900218359
0.488330254289
0.270289232367
0.177552470139
1.21968945665
0.488505400528
0.270240189868
0.177422976633
0.12792746497
0.488685354142
0.270178077059
0.17727898692
0.127780636222
0.0977355643395
0.270099119683
0.177118260686
0.127623802258
0.0976186891283
0.0778281037202
0.176939285382
0.127456955788
0.0974998382923
0.0777622442907
0.0639387496024
0.127281110054
0.0973807193478
0.0777012298959
0.0639229764091
0.0537994641044
0.0972619961897
0.077646272436
0.0639157790031
0.053819235123
0.0460938838906
0.0775983493221
0.0639141917823
0.0538441293193
0.0461288503783
0.040021173935
0.0639224584262
0.0538754726971
0.0461665682857
0.0400555735218
0.0350849131198
0.0539110094606
0.0462049546737
0.0400882890539
0.0351088767722
0.030975567795
0.0462424662763
0.0401179516376
0.035129027849
0.0309874841179
0.0274984481176
0.0401426288722
0.0351442053652
0.0309946426484
0.0275009526148
0.0245261123603
0.0351522789702
0.0309975715089
0.0275015366498
0.0245251881489
0.0219670769202
0.0309979701948
0.0274997751542
0.0245226363373
0.0219647745646
0.0197489552447
0.0274953501112
0.0245189973797
0.0219620620664
0.0197470088297
0.017814240568
0.0245148373296
0.021959139569
0.0197449724208
0.0178128229428
0.0161161786258
0.0219560731062
0.0197428707257
0.0178113609088
0.0161151382445
0.0146173971685
0.0197407213656
0.0178098416568
0.0161140359932
0.0146165804734
0.0132879391212
0.0178082407052
0.016112854675
0.0146156947411
0.0132872659493
0.0121035617132
0.0161115882695
0.0146147392099
0.0132865367804
0.0121029998335
0.0110444045714
0.0146137375598
0.0132857706221
0.0121024087604
0.01104394531
0.010094019385
0.0132850093078
0.0121018185395
0.0110434851713
0.0100936589883
0.00923865064933
1.21671896844
1.21722978716
0.487826504948
1.2177786802
0.487990346063
0.270352576092
1.21836758063
0.488158447283
0.27032598254
0.177667975041
1.21900221938
0.488330255305
0.270289231454
0.177552466385
0.128064804077
0.488505414349
0.270240190745
0.17742297582
0.127927462708
0.0978498416902
0.270178083913
0.177278987697
0.127780635529
0.0977355629295
0.0778974122138
0.177118264538
0.127623802919
0.0976186885619
0.0778281027916
0.0639610677884
0.127456958056
0.0974998388307
0.0777622438394
0.0639387489633
0.0537862427125
0.0973807207451
0.0777012303114
0.0639229760675
0.0537994636264
0.0460618782653
0.0776462733366
0.0639157793206
0.0538192348555
0.0460938835148
0.0399867197832
0.0639141924142
0.0538441295646
0.0461288501739
0.0400211736264
0.0350581186372
0.0538754731723
0.0461665684707
0.0400555733643
0.0350849128715
0.0309601108846
0.0462049550618
0.0400882891958
0.0351088766508
0.0309755676009
0.0274928494868
0.0401179519566
0.0351290279577
0.0309874840242
0.0274984479784
0.0245256241085
0.0351442056201
0.0309946427295
0.0275009525448
0.0245261122702
0.0219686761613
0.0309975717026
0.0275015367149
0.0245251880953
0.0219670768719
0.0197507433255
0.0274997752938
0.0245226363836
0.021964774526
0.0197489552323
0.0178156152276
0.0245189974681
0.0219620620996
0.0197470088029
0.0178142405815
0.0161171760763
0.0219591396185
0.0197449724436
0.0178128229252
0.0161161786561
0.0146181553041
0.0197428707417
0.0178113609234
0.0161151382338
0.0146173972081
0.0132885547944
0.0178098416513
0.0161140360015
0.0146165804678
0.0132879391617
0.0121040795321
0.0161128546612
0.0146156947465
0.0132872659456
0.0121035617475
0.0110448412508
0.0146147391868
0.0132865367848
0.0121029998306
0.0110444046036
0.010094378456
0.0132857705787
0.0121024087597
0.0110439453114
0.0100940194183
0.00923893408796
0.0121018185552
0.0110434851717
0.0100936589878
0.00923865063754
0.0084669112174
1.21623935927
1.21671893466
0.487667576789
1.21722978435
0.48782649179
0.270370198377
1.21777868272
0.487990344845
0.270352569544
0.177771363027
1.21836761604
0.488158448403
0.270325981586
0.177667971315
0.128192276321
0.488330268986
0.270289232367
0.177552465546
0.12806480185
0.097960328443
0.270240197547
0.177422976633
0.127927461985
0.0978498402889
0.077969094286
0.177278991525
0.127780636222
0.0977355623319
0.0778974113028
0.0639894856037
0.127623805205
0.0976186891283
0.0778281023159
0.0639610671512
0.0537783756994
0.0974998402391
0.0777622442907
0.0639387485858
0.0537862422488
0.0460340064361
0.0777012312309
0.0639229764091
0.0537994633411
0.0460618778971
0.0399529712307
0.0639157799577
0.053819235123
0.0460938832906
0.0399867194869
0.0350296198125
0.0538441300487
0.0461288503783
0.040021173454
0.0350581183959
0.0309416459351
0.0461665688569
0.0400555735218
0.0350849127374
0.0309601106977
0.027484114393
0.0400882895154
0.0351088767722
0.0309755674972
0.0274928493506
0.0245237723644
0.0351290282143
0.0309874841179
0.0274984479008
0.0245256240209
0.0219692722793
0.030994642925
0.0275009526148
0.0245261122087
0.0219686761152
0.0197522595777
0.0275015368569
0.0245251881489
0.0219670768281
0.0197507433155
0.0178169245186
0.0245226364749
0.0219647745646
0.0197489552014
0.0178156152449
0.0161181433468
0.0219620621487
0.0197470088297
0.0178142405611
0.0161171761116
0.0146188704474
0.0197449724606
0.0178128229428
0.0161161786433
0.0146181553487
0.0132891190426
0.0178113609153
0.0161151382445
0.0146173972009
0.0132885548418
0.0121045505165
0.0161140359797
0.0146165804734
0.0132879391584
0.0121040795758
0.0110452436835
0.0146156947222
0.0132872659493
0.0121035617453
0.0110448412858
0.0100947202379
0.0132865367561
0.0121029998335
0.011044404602
0.0100943784869
0.00923921624396
0.0121024087185
0.01104394531
0.01009401942
0.00923893411669
0.00846713493266
0.011043485187
0.0100936589883
0.00923865063693
0.00846691120774
0.00776862958911
1.21579232701
1.21623932603
0.487513225535
1.21671893156
0.487667563854
0.27038056085
1.21722978716
0.487826490487
0.27037019191
0.177863397142
1.21777871752
0.487990346063
0.270352568545
0.177771359376
0.128310893011
0.488158461932
0.27032598254
0.177667970452
0.128192274113
0.0980665138771
0.270289239094
0.177552466385
0.128064801102
0.097960327069
0.0780415068934
0.177422980436
0.127927462708
0.0978498396652
0.0779690933858
0.0640221622835
0.127780638496
0.0977355629295
0.0778974107977
0.0639894849896
0.0537777736932
0.0976186905514
0.0778281027916
0.0639610667552
0.0537783752419
0.046009889897
0.077762245212
0.0639387489633
0.0537862419369
0.0460340060862
0.0399209928564
0.0639229770512
0.0537994636264
0.0460618776577
0.0399529709449
0.0350001996492
0.0538192356036
0.0460938835148
0.0399867192987
0.0350296195837
0.0309208361633
0.0461288507638
0.0400211736264
0.03505811825
0.0309416457558
0.0274727800818
0.0400555738356
0.0350849128715
0.030960110584
0.0274841142635
0.0245197689361
0.0351088770276
0.0309755676009
0.027492849263
0.0245237722808
0.0219689554368
0.0309874843145
0.0274984479784
0.0245256239558
0.0219692722388
0.0197533306813
0.0275009527558
0.0245261122702
0.0219686760661
0.0197522595708
0.0178181289254
0.0245251882421
0.0219670768719
0.0197507432808
0.0178169245395
0.0161190794686
0.0219647746133
0.0197489552323
0.0178156152215
0.0161181433869
0.0146195569166
0.0197470088445
0.0178142405815
0.0161171760971
0.014618870498
0.0132896429421
0.0178128229331
0.0161161786561
0.0146181553404
0.0132891190959
0.0121049781595
0.0161151382179
0.0146173972081
0.0132885548378
0.0121045505674
0.0110456086374
0.0146165804401
0.0132879391617
0.0121040795745
0.0110452437274
0.0100950357469
0.0132872659184
0.0121035617475
0.0110448412849
0.0100947202716
0.00923948535781
0.0121029998019
0.0110444046036
0.0100943784864
0.00923921627253
0.00846735760932
0.0110439452724
0.0100940194183
0.00923893411849
0.00846713495683
0.00776880672043
0.0100936590021
0.00923865063754
0.00846691120716
0.00776862958143
0.00713541758873
1.21537233725
1.21579229431
0.487364644979
1.21623932266
0.487513212793
0.270384215452
1.21671893466
0.487667562462
0.270380554499
0.177945520136
1.21722982154
0.48782649179
0.270370190873
0.177863393542
0.128420721529
0.487990359372
0.270352569544
0.177771358484
0.128310890856
0.098168529486
0.270325989207
0.177667971315
0.128192273345
0.0980665125232
0.0781141467988
0.177552470139
0.12806480185
0.097960326422
0.078041506019
0.0640580698548
0.12792746497
0.0978498402889
0.0779690928578
0.0640221616825
0.0537805169722
0.0977355643395
0.0778974113028
0.0639894845664
0.0537777732644
0.0459907361201
0.0778281037202
0.0639610671512
0.053778374914
0.0460098895584
0.0398910243008
0.0639387496024
0.0537862422488
0.046034005827
0.0399209925894
0.0349707298013
0.0537994641044
0.0460618778971
0.0399529707437
0.0350001994319
0.0308982623442
0.0460938838906
0.0399867194869
0.0350296194256
0.0309208359955
0.0274591556423
0.040021173935
0.0350581183959
0.0309416456328
0.0274727799598
0.0245136553461
0.0350849131198
0.0309601106977
0.0274841141682
0.0245197688589
0.0219677276407
0.030975567795
0.0274928493506
0.0245237722101
0.0219689553996
0.0197537985553
0.0274984481176
0.0245256240209
0.0219692721841
0.0197533306786
0.01781916093
0.0245261123603
0.0219686761152
0.0197522595325
0.0178181289504
0.0161199721039
0.0219670769202
0.0197507433155
0.0178169245134
0.016119079513
0.0146202216559
0.0197489552447
0.0178156152449
0.0161181433705
0.0146195569726
0.0132901384156
0.017814240568
0.0161171761116
0.0146188704888
0.0132896430017
0.0121053700091
0.0161161786258
0.0146181553487
0.0132891190914
0.0121049782165
0.0110459379078
0.0146173971685
0.0132885548418
0.0121045505661
0.0110456086883
0.010095321698
0.0132879391212
0.0121040795758
0.0110452437277
0.0100950357887