/*--------------------------------*- C++ -*----------------------------------*\
| =========                 |                                                 |
| \\      /  F ield         | OpenFOAM: The Open Source CFD Toolbox           |
|  \\    /   O peration     | Version:  2206                                  |
|   \\  /    A nd           | Website:  www.openfoam.com                      |
|    \\/     M anipulation  |                                                 |
\*---------------------------------------------------------------------------*/
FoamFile
{
    version     2.0;
    format      ascii;
    arch        "LSB;label=64;scalar=64";
    class       volVectorField;
    location    "748800";
    object      U;
}
// * * * * * * * * * * * * * * * * * * * * * * * * * * * * * * * * * * * * * //

dimensions      [0 1 -1 0 0 0 0];

internalField   nonuniform List<vector> 
16
(
(-1.16822e-07 6.88104e-08 0)
(-1.02679e-07 -5.44118e-08 0)
(5.97925e-08 -4.72836e-08 0)
(3.30725e-08 4.15219e-08 0)
(-2.97252e-08 1.53367e-07 0)
(-2.43077e-08 -1.21967e-07 0)
(-2.8963e-08 -8.97834e-08 0)
(-3.00678e-08 5.15064e-08 0)
(6.57401e-08 1.19378e-07 0)
(5.51041e-08 -5.5496e-08 0)
(-5.53287e-08 -4.22494e-08 0)
(-2.12611e-08 -1.66644e-08 0)
(7.52813e-08 3.4995e-08 0)
(7.84352e-08 -1.9958e-09 0)
(1.71448e-08 -1.12714e-08 0)
(2.57073e-08 -2.5007e-08 0)
)
;

boundaryField
{
    movingWall
    {
        type            noSlip;
    }
    fixedWalls
    {
        type            noSlip;
    }
    frontAndBack
    {
        type            empty;
    }
}


// ************************************************************************* //
