/*--------------------------------*- C++ -*----------------------------------*\
| =========                 |                                                 |
| \\      /  F ield         | OpenFOAM: The Open Source CFD Toolbox           |
|  \\    /   O peration     | Version:  2206                                  |
|   \\  /    A nd           | Website:  www.openfoam.com                      |
|    \\/     M anipulation  |                                                 |
\*---------------------------------------------------------------------------*/
FoamFile
{
    version     2.0;
    format      ascii;
    arch        "LSB;label=64;scalar=64";
    class       surfaceScalarField;
    location    "730800";
    object      phi;
}
// * * * * * * * * * * * * * * * * * * * * * * * * * * * * * * * * * * * * * //

dimensions      [0 3 -1 0 0 0 0];

oriented        oriented;

internalField   nonuniform List<scalar> 
24
(
-2.85268e-10
2.85268e-10
-1.0827e-10
-1.76998e-10
1.37357e-10
-2.45627e-10
1.37357e-10
8.01026e-11
2.05166e-10
4.55162e-11
-1.42412e-10
1.8328e-11
-2.18439e-10
1.55685e-10
1.42006e-10
6.31597e-11
3.73961e-11
-3.7802e-11
-1.20261e-10
-6.07818e-11
3.5424e-11
6.31597e-11
2.53578e-11
-3.5424e-11
)
;

boundaryField
{
    movingWall
    {
        type            calculated;
        value           uniform 0;
    }
    fixedWalls
    {
        type            calculated;
        value           uniform 0;
    }
    frontAndBack
    {
        type            empty;
        value           nonuniform List<scalar> 0();
    }
}


// ************************************************************************* //
