/*--------------------------------*- C++ -*----------------------------------*\
| =========                 |                                                 |
| \\      /  F ield         | OpenFOAM: The Open Source CFD Toolbox           |
|  \\    /   O peration     | Version:  2206                                  |
|   \\  /    A nd           | Website:  www.openfoam.com                      |
|    \\/     M anipulation  |                                                 |
\*---------------------------------------------------------------------------*/
FoamFile
{
    version     2.0;
    format      ascii;
    arch        "LSB;label=64;scalar=64";
    class       surfaceScalarField;
    location    "360000";
    object      phi;
}
// * * * * * * * * * * * * * * * * * * * * * * * * * * * * * * * * * * * * * //

dimensions      [0 3 -1 0 0 0 0];

oriented        oriented;

internalField   nonuniform List<scalar> 
24
(
4.26017e-10
-4.26017e-10
4.87324e-10
-6.13068e-11
4.182e-10
6.91234e-11
4.182e-10
1.83354e-10
-6.09371e-10
7.74103e-11
4.4637e-11
-9.30542e-12
1.55839e-10
4.08895e-10
-2.33661e-10
-3.7571e-10
-2.74978e-10
8.5954e-11
-2.56468e-10
1.37329e-10
1.52427e-10
-3.7571e-10
-2.89756e-10
-1.52427e-10
)
;

boundaryField
{
    movingWall
    {
        type            calculated;
        value           nonuniform List<scalar> 4(0 0 0 -5.04871e-29);
    }
    fixedWalls
    {
        type            calculated;
        value           uniform 0;
    }
    frontAndBack
    {
        type            empty;
        value           nonuniform List<scalar> 0();
    }
}


// ************************************************************************* //
