/*--------------------------------*- C++ -*----------------------------------*\
| =========                 |                                                 |
| \\      /  F ield         | OpenFOAM: The Open Source CFD Toolbox           |
|  \\    /   O peration     | Version:  2206                                  |
|   \\  /    A nd           | Website:  www.openfoam.com                      |
|    \\/     M anipulation  |                                                 |
\*---------------------------------------------------------------------------*/
FoamFile
{
    version     2.0;
    format      ascii;
    arch        "LSB;label=64;scalar=64";
    class       volVectorField;
    location    "360000";
    object      U;
}
// * * * * * * * * * * * * * * * * * * * * * * * * * * * * * * * * * * * * * //

dimensions      [0 1 -1 0 0 0 0];

internalField   nonuniform List<vector> 
16
(
(1.39194e-07 -9.0283e-08 0)
(2.00691e-07 -3.50778e-08 0)
(1.91373e-07 6.7434e-09 0)
(1.39964e-07 1.16554e-07 0)
(7.0336e-08 -2.5295e-07 0)
(7.40893e-08 -1.29108e-08 0)
(-1.0541e-08 4.82867e-08 0)
(2.65898e-09 2.157e-07 0)
(-7.91411e-08 -2.31131e-07 0)
(-1.07477e-07 4.8045e-08 0)
(-1.14027e-07 7.75061e-08 0)
(-8.91634e-08 1.09332e-07 0)
(-1.32905e-07 -7.07768e-08 0)
(-1.64337e-07 2.00749e-08 0)
(-7.04873e-08 3.16722e-08 0)
(-4.97088e-08 1.41026e-08 0)
)
;

boundaryField
{
    movingWall
    {
        type            noSlip;
    }
    fixedWalls
    {
        type            noSlip;
    }
    frontAndBack
    {
        type            empty;
    }
}


// ************************************************************************* //
