/*--------------------------------*- C++ -*----------------------------------*\
| =========                 |                                                 |
| \\      /  F ield         | OpenFOAM: The Open Source CFD Toolbox           |
|  \\    /   O peration     | Version:  2212                                  |
|   \\  /    A nd           | Website:  www.openfoam.com                      |
|    \\/     M anipulation  |                                                 |
\*---------------------------------------------------------------------------*/
FoamFile
{
    version     2.0;
    format      ascii;
    arch        "LSB;label=64;scalar=64";
    class       volScalarField;
    location    "1430";
    object      p;
}
// * * * * * * * * * * * * * * * * * * * * * * * * * * * * * * * * * * * * * //

dimensions      [0 2 -2 0 0 0 0];

internalField   nonuniform List<scalar> 
1024
(
0
-1.74274e-06
-3.36766e-06
-3.18112e-06
2.092e-07
8.05328e-06
2.17127e-05
4.25466e-05
7.06626e-05
0.000100563
0.000120738
0.000115633
8.49565e-05
3.39026e-05
-2.78993e-05
-9.54978e-05
-0.000162509
-0.0002187
-0.000257101
-0.000279217
-0.000290184
-0.000294688
-0.000295885
-0.000295681
-0.000295121
-0.000294601
-0.000294065
-0.000293285
-0.000292144
-0.000290794
-0.000289576
-0.000288951
-0.092811
-0.0928128
-0.0928142
-0.0928139
-0.0928109
-0.0928039
-0.0927915
-0.0927723
-0.0927459
-0.0927178
-0.0926988
-0.0927034
-0.0927329
-0.0927828
-0.0928437
-0.0929106
-0.0929771
-0.0930327
-0.0930705
-0.0930921
-0.0931026
-0.0931068
-0.0931078
-0.0931074
-0.0931066
-0.0931059
-0.0931052
-0.0931044
-0.0931034
-0.0931022
-0.0931011
-0.0931004
-0.199425
-0.199427
-0.199429
-0.199429
-0.199427
-0.199421
-0.199411
-0.199394
-0.19937
-0.199344
-0.199327
-0.199331
-0.199359
-0.199407
-0.199466
-0.199532
-0.199597
-0.199652
-0.199689
-0.199709
-0.199719
-0.199723
-0.199723
-0.199722
-0.199721
-0.19972
-0.199719
-0.199718
-0.199717
-0.199716
-0.199714
-0.199713
-0.321898
-0.3219
-0.321903
-0.321903
-0.321902
-0.321899
-0.321891
-0.321876
-0.321855
-0.321832
-0.321817
-0.321821
-0.321847
-0.321893
-0.32195
-0.322014
-0.322077
-0.322131
-0.322166
-0.322185
-0.322194
-0.322196
-0.322195
-0.322193
-0.322191
-0.322189
-0.322188
-0.322186
-0.322185
-0.322184
-0.322182
-0.322181
-0.46259
-0.462593
-0.462595
-0.462597
-0.462598
-0.462596
-0.462591
-0.46258
-0.462562
-0.462542
-0.462529
-0.462533
-0.462558
-0.462601
-0.462655
-0.462716
-0.462777
-0.462829
-0.462863
-0.46288
-0.462886
-0.462886
-0.462884
-0.46288
-0.462877
-0.462873
-0.462871
-0.462869
-0.462867
-0.462866
-0.462864
-0.462862
-0.624212
-0.624215
-0.624218
-0.624221
-0.624223
-0.624224
-0.624222
-0.624214
-0.624199
-0.624182
-0.624173
-0.624178
-0.624201
-0.624241
-0.624291
-0.624348
-0.624407
-0.624457
-0.624488
-0.624503
-0.624507
-0.624504
-0.624499
-0.624493
-0.624487
-0.624482
-0.624478
-0.624475
-0.624473
-0.624471
-0.624469
-0.624466
-0.809878
-0.80988
-0.809883
-0.809886
-0.80989
-0.809893
-0.809894
-0.809889
-0.809878
-0.809865
-0.809859
-0.809865
-0.809889
-0.809925
-0.809971
-0.810024
-0.81008
-0.810127
-0.810157
-0.810169
-0.810169
-0.810163
-0.810154
-0.810145
-0.810137
-0.810129
-0.810124
-0.810119
-0.810116
-0.810113
-0.81011
-0.810108
-1.02316
-1.02316
-1.02316
-1.02317
-1.02317
-1.02318
-1.02318
-1.02318
-1.02317
-1.02316
-1.02316
-1.02317
-1.02319
-1.02323
-1.02327
-1.02332
-1.02337
-1.02342
-1.02344
-1.02345
-1.02345
-1.02344
-1.02343
-1.02341
-1.0234
-1.02339
-1.02338
-1.02338
-1.02337
-1.02337
-1.02337
-1.02336
-1.26816
-1.26816
-1.26816
-1.26817
-1.26817
-1.26818
-1.26818
-1.26818
-1.26818
-1.26817
-1.26818
-1.26819
-1.26821
-1.26825
-1.26829
-1.26833
-1.26838
-1.26842
-1.26845
-1.26846
-1.26845
-1.26843
-1.26842
-1.2684
-1.26839
-1.26837
-1.26836
-1.26836
-1.26835
-1.26835
-1.26835
-1.26834
-1.54959
-1.54959
-1.54959
-1.5496
-1.5496
-1.5496
-1.54961
-1.54961
-1.54961
-1.54961
-1.54962
-1.54964
-1.54967
-1.5497
-1.54973
-1.54978
-1.54982
-1.54987
-1.54989
-1.5499
-1.54988
-1.54987
-1.54985
-1.54983
-1.54981
-1.5498
-1.54978
-1.54977
-1.54977
-1.54976
-1.54976
-1.54976
-1.87287
-1.87287
-1.87287
-1.87287
-1.87288
-1.87288
-1.87288
-1.87288
-1.87289
-1.8729
-1.87291
-1.87294
-1.87296
-1.873
-1.87303
-1.87307
-1.87311
-1.87316
-1.87318
-1.87318
-1.87317
-1.87314
-1.87312
-1.8731
-1.87308
-1.87306
-1.87305
-1.87304
-1.87303
-1.87303
-1.87303
-1.87303
-2.24423
-2.24423
-2.24423
-2.24423
-2.24423
-2.24423
-2.24423
-2.24423
-2.24424
-2.24425
-2.24427
-2.2443
-2.24433
-2.24436
-2.2444
-2.24444
-2.24447
-2.24451
-2.24453
-2.24453
-2.24451
-2.24448
-2.24446
-2.24443
-2.24441
-2.24439
-2.24438
-2.24437
-2.24436
-2.24436
-2.24436
-2.24436
-2.6708
-2.6708
-2.6708
-2.6708
-2.6708
-2.6708
-2.6708
-2.67081
-2.67081
-2.67083
-2.67086
-2.67089
-2.67092
-2.67095
-2.67099
-2.67102
-2.67105
-2.67108
-2.67108
-2.67107
-2.67105
-2.67101
-2.67098
-2.67096
-2.67093
-2.67092
-2.67091
-2.6709
-2.6709
-2.6709
-2.6709
-2.6709
-3.16083
-3.16083
-3.16083
-3.16083
-3.16083
-3.16083
-3.16083
-3.16083
-3.16084
-3.16086
-3.16089
-3.16092
-3.16095
-3.16099
-3.16103
-3.16106
-3.16108
-3.16109
-3.16107
-3.16104
-3.16099
-3.16095
-3.16091
-3.16088
-3.16086
-3.16085
-3.16084
-3.16084
-3.16084
-3.16085
-3.16085
-3.16085
-3.72373
-3.72373
-3.72374
-3.72374
-3.72374
-3.72374
-3.72374
-3.72375
-3.72376
-3.72378
-3.72381
-3.72384
-3.72388
-3.72392
-3.72397
-3.724
-3.72402
-3.72402
-3.72398
-3.72393
-3.72386
-3.72379
-3.72373
-3.72369
-3.72366
-3.72365
-3.72365
-3.72365
-3.72365
-3.72366
-3.72366
-3.72366
-4.37039
-4.3704
-4.3704
-4.3704
-4.3704
-4.3704
-4.37041
-4.37042
-4.37043
-4.37045
-4.37048
-4.37052
-4.37056
-4.37061
-4.37066
-4.37071
-4.37074
-4.37073
-4.3707
-4.37064
-4.37056
-4.37048
-4.3704
-4.37034
-4.37029
-4.37026
-4.37025
-4.37025
-4.37026
-4.37026
-4.37027
-4.37027
-5.06185
-5.06185
-5.06186
-5.06186
-5.06186
-5.06187
-5.06187
-5.06189
-5.0619
-5.06193
-5.06196
-5.06199
-5.06204
-5.0621
-5.06215
-5.06221
-5.06224
-5.06225
-5.06223
-5.06218
-5.06211
-5.06204
-5.06196
-5.06188
-5.06182
-5.06178
-5.06175
-5.06174
-5.06174
-5.06175
-5.06175
-5.06176
-5.70858
-5.70858
-5.70858
-5.70858
-5.70858
-5.70859
-5.7086
-5.70861
-5.70863
-5.70865
-5.70869
-5.70873
-5.70878
-5.70883
-5.70889
-5.70895
-5.709
-5.70901
-5.709
-5.70897
-5.70892
-5.70886
-5.70879
-5.70871
-5.70864
-5.70859
-5.70855
-5.70854
-5.70853
-5.70853
-5.70854
-5.70855
-6.27158
-6.27158
-6.27158
-6.27158
-6.27158
-6.27159
-6.2716
-6.27161
-6.27163
-6.27166
-6.27169
-6.27173
-6.27178
-6.27184
-6.2719
-6.27196
-6.27201
-6.27202
-6.27202
-6.272
-6.27197
-6.27192
-6.27187
-6.2718
-6.27174
-6.27168
-6.27163
-6.27161
-6.2716
-6.2716
-6.2716
-6.27161
-6.76168
-6.76168
-6.76168
-6.76168
-6.76168
-6.76169
-6.7617
-6.76172
-6.76173
-6.76176
-6.76179
-6.76183
-6.76188
-6.76194
-6.76201
-6.76207
-6.76212
-6.76214
-6.76213
-6.76211
-6.76209
-6.76206
-6.76202
-6.76196
-6.7619
-6.76185
-6.7618
-6.76176
-6.76175
-6.76174
-6.76175
-6.76176
-7.18833
-7.18833
-7.18833
-7.18833
-7.18833
-7.18834
-7.18835
-7.18836
-7.18838
-7.1884
-7.18843
-7.18847
-7.18853
-7.18859
-7.18866
-7.18873
-7.18877
-7.18879
-7.18879
-7.18877
-7.18874
-7.18871
-7.18868
-7.18863
-7.18858
-7.18852
-7.18846
-7.18842
-7.1884
-7.18839
-7.1884
-7.18841
-7.55974
-7.55974
-7.55974
-7.55974
-7.55974
-7.55974
-7.55975
-7.55976
-7.55978
-7.5598
-7.55983
-7.55988
-7.55993
-7.56
-7.56007
-7.56014
-7.56019
-7.56021
-7.5602
-7.56018
-7.56015
-7.56012
-7.56008
-7.56003
-7.55998
-7.55991
-7.55985
-7.5598
-7.55976
-7.55975
-7.55976
-7.55977
-7.88307
-7.88307
-7.88307
-7.88307
-7.88307
-7.88307
-7.88307
-7.88307
-7.88309
-7.88311
-7.88314
-7.88319
-7.88325
-7.88332
-7.8834
-7.88347
-7.88353
-7.88354
-7.88354
-7.88351
-7.88348
-7.88343
-7.88338
-7.88332
-7.88326
-7.88318
-7.88311
-7.88304
-7.88299
-7.88296
-7.88296
-7.88298
-8.16454
-8.16454
-8.16454
-8.16454
-8.16453
-8.16453
-8.16453
-8.16453
-8.16454
-8.16456
-8.16459
-8.16464
-8.16471
-8.16478
-8.16487
-8.16494
-8.165
-8.16502
-8.16502
-8.16499
-8.16495
-8.16489
-8.16482
-8.16474
-8.16465
-8.16456
-8.16446
-8.16436
-8.16429
-8.16425
-8.16424
-8.16425
-8.40958
-8.40958
-8.40958
-8.40957
-8.40956
-8.40955
-8.40954
-8.40954
-8.40954
-8.40957
-8.40961
-8.40966
-8.40973
-8.40981
-8.4099
-8.40998
-8.41004
-8.41006
-8.41006
-8.41003
-8.40998
-8.40991
-8.40983
-8.40972
-8.4096
-8.40946
-8.40932
-8.40919
-8.40908
-8.40901
-8.40899
-8.40899
-8.6229
-8.6229
-8.6229
-8.62289
-8.62287
-8.62286
-8.62284
-8.62283
-8.62283
-8.62285
-8.6229
-8.62296
-8.62303
-8.62312
-8.62321
-8.6233
-8.62336
-8.62338
-8.62337
-8.62334
-8.62329
-8.62321
-8.62311
-8.62298
-8.62282
-8.62263
-8.62243
-8.62224
-8.62208
-8.62196
-8.62191
-8.6219
-8.80861
-8.80862
-8.80861
-8.8086
-8.80857
-8.80854
-8.80852
-8.8085
-8.8085
-8.80853
-8.80858
-8.80864
-8.80872
-8.80881
-8.80891
-8.809
-8.80906
-8.80909
-8.80908
-8.80905
-8.80899
-8.8089
-8.80878
-8.80862
-8.80842
-8.80818
-8.80791
-8.80764
-8.8074
-8.8072
-8.8071
-8.80706
-8.97031
-8.97031
-8.9703
-8.97027
-8.97023
-8.97019
-8.97015
-8.97014
-8.97014
-8.97017
-8.97022
-8.97029
-8.97037
-8.97047
-8.97056
-8.97066
-8.97072
-8.97075
-8.97074
-8.97071
-8.97065
-8.97055
-8.97041
-8.97023
-8.96999
-8.96969
-8.96935
-8.96899
-8.96864
-8.96834
-8.96813
-8.96803
-9.11113
-9.11112
-9.11108
-9.11103
-9.11096
-9.11091
-9.11087
-9.11084
-9.11085
-9.11088
-9.11094
-9.11101
-9.1111
-9.1112
-9.1113
-9.11139
-9.11146
-9.11149
-9.11148
-9.11144
-9.11138
-9.11127
-9.11113
-9.11092
-9.11065
-9.1103
-9.1099
-9.10944
-9.10895
-9.10849
-9.10813
-9.10791
-9.23384
-9.23376
-9.23366
-9.23356
-9.23347
-9.2334
-9.23336
-9.23334
-9.23334
-9.23338
-9.23344
-9.23352
-9.23361
-9.23371
-9.23381
-9.2339
-9.23397
-9.234
-9.234
-9.23396
-9.23389
-9.23378
-9.23363
-9.23341
-9.23311
-9.23274
-9.23228
-9.23173
-9.23111
-9.23043
-9.2298
-9.22925
-9.34098
-9.34059
-9.34035
-9.3402
-9.3401
-9.34003
-9.33998
-9.33996
-9.33998
-9.34002
-9.34008
-9.34016
-9.34025
-9.34036
-9.34046
-9.34056
-9.34063
-9.34066
-9.34065
-9.34062
-9.34055
-9.34044
-9.34028
-9.34005
-9.33975
-9.33935
-9.33886
-9.33826
-9.33752
-9.33661
-9.33551
-9.33425
-9.43485
-9.43362
-9.43315
-9.433
-9.4329
-9.43284
-9.4328
-9.43279
-9.43281
-9.43285
-9.43292
-9.433
-9.4331
-9.4332
-9.43331
-9.43341
-9.43348
-9.43351
-9.43351
-9.43347
-9.4334
-9.43329
-9.43313
-9.4329
-9.4326
-9.4322
-9.4317
-9.43107
-9.43026
-9.42916
-9.42755
-9.42529
)
;

boundaryField
{
    movingWall
    {
        type            calculated;
        value           nonuniform List<scalar> 
32
(
-9.47807
-9.47683
-9.47636
-9.47621
-9.47612
-9.47605
-9.47601
-9.476
-9.47602
-9.47606
-9.47613
-9.47621
-9.47631
-9.47641
-9.47652
-9.47662
-9.47669
-9.47672
-9.47672
-9.47668
-9.47661
-9.4765
-9.47634
-9.47611
-9.47581
-9.47541
-9.47491
-9.47428
-9.47347
-9.47237
-9.47077
-9.4685
)
;
    }
    fixedWalls
    {
        type            calculated;
        value           nonuniform List<scalar> 
64
(
6.93889e-18
-0.092811
-0.199425
-0.321898
-0.46259
-0.624212
-0.809878
-1.02316
-1.26816
-1.54959
-1.87287
-2.24423
-2.6708
-3.16083
-3.72373
-4.37039
-5.06185
-5.70858
-6.27158
-6.76168
-7.18833
-7.55974
-7.88307
-8.16454
-8.40958
-8.6229
-8.80861
-8.97031
-9.11113
-9.23384
-9.34098
-9.43485
-0.000288951
-0.0931004
-0.199713
-0.322181
-0.462862
-0.624466
-0.810108
-1.02336
-1.26834
-1.54976
-1.87303
-2.24436
-2.6709
-3.16085
-3.72366
-4.37027
-5.06176
-5.70855
-6.27161
-6.76176
-7.18841
-7.55977
-7.88298
-8.16425
-8.40899
-8.6219
-8.80706
-8.96803
-9.10791
-9.22925
-9.33425
-9.42529
)
;
    }
    floor
    {
        type            calculated;
        value           nonuniform List<scalar> 
32
(
0.0431945
0.0431928
0.0431912
0.0431914
0.0431948
0.0432027
0.0432165
0.0432375
0.0432657
0.0432957
0.043316
0.0433109
0.0432802
0.043229
0.0431671
0.0430994
0.0430324
0.0429761
0.0429376
0.0429155
0.0429045
0.0428999
0.0428987
0.0428988
0.0428994
0.0428998
0.0429003
0.0429011
0.0429022
0.0429036
0.0429048
0.0429054
)
;
    }
    frontAndBack
    {
        type            empty;
    }
}


// ************************************************************************* //
