/*--------------------------------*- C++ -*----------------------------------*\
| =========                 |                                                 |
| \\      /  F ield         | OpenFOAM: The Open Source CFD Toolbox           |
|  \\    /   O peration     | Version:  2212                                  |
|   \\  /    A nd           | Website:  www.openfoam.com                      |
|    \\/     M anipulation  |                                                 |
\*---------------------------------------------------------------------------*/
FoamFile
{
    version     2.0;
    format      ascii;
    arch        "LSB;label=64;scalar=64";
    class       volScalarField;
    location    "1430";
    object      p_rgh;
}
// * * * * * * * * * * * * * * * * * * * * * * * * * * * * * * * * * * * * * //

dimensions      [0 2 -2 0 0 0 0];

internalField   nonuniform List<scalar> 
1024
(
0.0431945
0.0431928
0.0431912
0.0431914
0.0431948
0.0432027
0.0432165
0.0432375
0.0432657
0.0432957
0.043316
0.0433109
0.0432802
0.043229
0.0431671
0.0430994
0.0430324
0.0429761
0.0429376
0.0429155
0.0429045
0.0428999
0.0428987
0.0428988
0.0428994
0.0428998
0.0429003
0.0429011
0.0429022
0.0429036
0.0429048
0.0429054
0.0431977
0.043196
0.0431948
0.0431954
0.043199
0.0432068
0.0432202
0.0432406
0.0432683
0.0432978
0.0433177
0.043313
0.0432828
0.043232
0.0431702
0.0431025
0.0430353
0.0429792
0.0429408
0.0429187
0.0429076
0.042903
0.0429016
0.0429016
0.042902
0.0429023
0.0429027
0.0429033
0.0429041
0.0429052
0.0429062
0.0429069
0.0432028
0.0432008
0.0431998
0.043201
0.0432051
0.0432132
0.0432267
0.0432474
0.0432755
0.0433053
0.0433254
0.0433211
0.0432911
0.0432402
0.0431782
0.0431101
0.0430426
0.042986
0.0429474
0.0429251
0.0429138
0.0429089
0.0429072
0.0429069
0.0429069
0.0429069
0.0429069
0.0429071
0.0429075
0.0429083
0.0429093
0.0429102
0.043208
0.0432057
0.0432048
0.0432066
0.0432117
0.0432209
0.0432359
0.0432582
0.0432882
0.0433195
0.0433403
0.0433362
0.043306
0.0432548
0.0431923
0.0431236
0.0430552
0.0429977
0.0429582
0.0429354
0.0429236
0.0429183
0.0429161
0.0429152
0.0429146
0.0429139
0.0429131
0.0429126
0.0429125
0.042913
0.0429142
0.0429154
0.043211
0.0432088
0.0432083
0.0432111
0.0432178
0.0432293
0.0432469
0.0432723
0.0433052
0.0433385
0.0433602
0.0433566
0.0433263
0.0432753
0.0432127
0.0431434
0.0430741
0.0430149
0.042974
0.0429501
0.0429376
0.0429315
0.0429285
0.0429269
0.0429253
0.0429235
0.0429216
0.0429199
0.042919
0.0429191
0.0429204
0.042922
0.04321
0.0432083
0.0432086
0.0432128
0.0432218
0.0432365
0.0432581
0.0432876
0.0433238
0.0433591
0.0433811
0.0433779
0.0433482
0.0432985
0.0432371
0.0431683
0.0430983
0.0430374
0.0429945
0.0429691
0.0429556
0.0429485
0.0429446
0.0429417
0.0429388
0.0429353
0.0429316
0.0429283
0.0429262
0.0429257
0.0429269
0.0429289
0.0432041
0.0432032
0.0432047
0.0432106
0.0432224
0.043241
0.0432674
0.0433016
0.0433411
0.0433779
0.0433994
0.043396
0.0433673
0.04332
0.0432611
0.0431942
0.0431246
0.0430626
0.0430175
0.0429908
0.0429763
0.0429681
0.0429628
0.0429583
0.0429534
0.0429477
0.0429416
0.042936
0.0429322
0.0429307
0.0429316
0.0429337
0.0431948
0.0431948
0.0431975
0.0432051
0.0432195
0.0432423
0.0432737
0.0433129
0.0433558
0.0433942
0.0434139
0.043409
0.0433806
0.0433356
0.0432799
0.0432156
0.0431474
0.0430853
0.0430387
0.0430115
0.0429964
0.0429872
0.0429803
0.0429737
0.0429662
0.0429574
0.0429481
0.0429398
0.0429338
0.042931
0.0429312
0.042933
0.043186
0.0431868
0.0431903
0.0431992
0.0432159
0.0432423
0.0432787
0.0433232
0.0433706
0.0434098
0.0434269
0.0434184
0.0433882
0.0433438
0.0432902
0.0432281
0.0431608
0.0430984
0.0430519
0.0430254
0.0430111
0.0430014
0.0429929
0.0429837
0.0429727
0.0429601
0.0429471
0.0429356
0.0429274
0.0429231
0.0429224
0.0429235
0.0431836
0.0431847
0.0431888
0.0431984
0.0432169
0.0432463
0.0432875
0.0433383
0.0433906
0.0434297
0.0434427
0.0434276
0.0433926
0.0433462
0.0432923
0.0432303
0.0431621
0.0430976
0.0430517
0.0430271
0.0430151
0.0430059
0.042996
0.0429839
0.0429691
0.0429523
0.0429355
0.0429212
0.0429112
0.0429058
0.0429041
0.0429043
0.0431931
0.0431943
0.0431984
0.0432087
0.0432289
0.0432618
0.0433083
0.0433655
0.0434224
0.0434602
0.0434651
0.0434395
0.0433968
0.0433457
0.043289
0.0432252
0.0431543
0.0430859
0.0430348
0.043014
0.0430059
0.0429979
0.0429871
0.0429723
0.042954
0.0429338
0.0429144
0.0428988
0.0428882
0.0428823
0.0428798
0.0428791
0.0432201
0.0432211
0.0432251
0.043236
0.0432584
0.0432958
0.0433493
0.0434135
0.0434721
0.0435028
0.0434933
0.0434555
0.043404
0.0433468
0.0432858
0.0432193
0.0431462
0.0430744
0.0430193
0.0429935
0.0429852
0.0429788
0.0429681
0.0429524
0.0429329
0.042912
0.0428929
0.042878
0.0428682
0.0428625
0.0428596
0.0428582
0.0432699
0.0432705
0.0432747
0.0432869
0.0433127
0.0433563
0.0434171
0.043485
0.0435361
0.043548
0.0435227
0.0434751
0.0434177
0.043357
0.0432946
0.0432295
0.043161
0.0430938
0.0430373
0.0429969
0.0429744
0.0429655
0.0429556
0.0429413
0.0429238
0.0429046
0.0428871
0.0428737
0.0428652
0.0428606
0.0428582
0.042857
0.0433446
0.0433451
0.0433503
0.0433662
0.0433985
0.0434505
0.0435154
0.0435722
0.0435975
0.0435882
0.0435531
0.043504
0.043449
0.0433921
0.0433363
0.0432837
0.0432351
0.0431931
0.0431595
0.0431326
0.0431054
0.0430704
0.0430344
0.0430046
0.0429807
0.0429546
0.0429313
0.0429153
0.042907
0.0429043
0.0429041
0.0429044
0.0434312
0.0434317
0.0434385
0.0434581
0.0434957
0.0435501
0.0436091
0.0436521
0.0436652
0.0436508
0.0436196
0.0435802
0.0435368
0.0434916
0.0434466
0.0434068
0.0433864
0.0433846
0.0433978
0.0434219
0.0434482
0.0434641
0.0434552
0.0434099
0.0433317
0.0432429
0.0431637
0.0431146
0.0430917
0.0430839
0.0430836
0.0430853
0.0434736
0.0434739
0.0434807
0.0435002
0.0435366
0.0435871
0.0436402
0.0436798
0.0436971
0.0436937
0.0436766
0.043652
0.0436234
0.0435922
0.0435603
0.043532
0.0435174
0.0435291
0.0435627
0.043614
0.0436766
0.0437411
0.0437967
0.0438329
0.0438417
0.0438186
0.043764
0.0436835
0.0436029
0.0435452
0.0435158
0.0435066
0.0434523
0.0434527
0.0434586
0.0434761
0.0435093
0.0435568
0.0436088
0.0436516
0.0436764
0.0436834
0.0436776
0.043664
0.0436452
0.0436218
0.043595
0.0435685
0.0435526
0.043553
0.0435741
0.0436129
0.0436662
0.043729
0.0437941
0.0438531
0.0438982
0.0439247
0.043932
0.0439228
0.0439023
0.0438773
0.043855
0.043842
0.0434048
0.0434053
0.0434103
0.0434252
0.0434548
0.0434996
0.0435522
0.0436003
0.0436339
0.0436505
0.0436538
0.0436484
0.0436368
0.0436199
0.0435988
0.0435771
0.0435646
0.0435595
0.0435649
0.0435794
0.0436043
0.0436407
0.0436871
0.0437383
0.0437867
0.043825
0.0438491
0.0438584
0.0438561
0.043847
0.0438361
0.0438278
0.0433671
0.0433677
0.0433718
0.043384
0.0434095
0.0434508
0.0435033
0.0435561
0.0435981
0.0436243
0.0436361
0.0436378
0.0436323
0.0436215
0.0436079
0.0435961
0.043596
0.0435995
0.0435983
0.0435945
0.0435919
0.043596
0.0436118
0.0436397
0.0436753
0.0437107
0.0437386
0.0437545
0.0437585
0.0437539
0.0437451
0.0437371
0.043348
0.0433487
0.0433523
0.0433626
0.0433846
0.0434216
0.0434718
0.043527
0.043576
0.0436116
0.0436317
0.0436395
0.043638
0.043631
0.0436212
0.0436154
0.0436237
0.043641
0.0436446
0.043638
0.0436245
0.0436079
0.0435966
0.0435985
0.0436149
0.0436406
0.0436666
0.0436852
0.0436929
0.0436908
0.0436825
0.0436737
0.043344
0.0433449
0.0433481
0.0433571
0.0433766
0.0434104
0.0434582
0.0435142
0.0435679
0.0436106
0.0436377
0.0436505
0.0436517
0.043645
0.0436344
0.0436275
0.0436322
0.0436495
0.043663
0.0436684
0.0436645
0.043649
0.043624
0.0436079
0.0436081
0.0436242
0.0436478
0.0436687
0.04368
0.0436803
0.0436724
0.0436626
0.0433492
0.04335
0.0433529
0.0433612
0.0433794
0.0434113
0.0434578
0.0435141
0.0435706
0.0436178
0.0436497
0.0436654
0.043667
0.0436579
0.043643
0.0436298
0.0436265
0.0436385
0.0436573
0.0436726
0.0436811
0.0436795
0.0436681
0.0436526
0.0436448
0.0436565
0.043682
0.0437089
0.0437266
0.0437312
0.0437243
0.0437133
0.0433587
0.0433593
0.043362
0.0433701
0.0433881
0.04342
0.0434668
0.0435239
0.043582
0.0436311
0.0436644
0.04368
0.0436792
0.0436655
0.0436438
0.0436218
0.0436095
0.0436153
0.0436346
0.0436565
0.0436764
0.0436912
0.0437002
0.0437057
0.0437145
0.0437299
0.0437647
0.0438055
0.0438364
0.0438494
0.0438452
0.0438334
0.0433686
0.0433687
0.0433713
0.0433801
0.0433997
0.0434338
0.043483
0.0435417
0.0436003
0.0436483
0.0436793
0.0436913
0.0436852
0.0436646
0.0436344
0.0436027
0.0435812
0.0435807
0.0435981
0.0436246
0.0436546
0.043686
0.0437183
0.0437534
0.043794
0.0438404
0.0438957
0.0439589
0.0440134
0.0440428
0.0440449
0.0440338
0.0433766
0.0433758
0.0433784
0.0433893
0.0434126
0.0434517
0.0435049
0.0435657
0.0436231
0.0436671
0.043692
0.0436966
0.0436825
0.0436529
0.0436131
0.0435712
0.0435411
0.0435348
0.0435495
0.0435794
0.0436184
0.0436663
0.0437239
0.0437935
0.0438766
0.0439711
0.0440712
0.0441707
0.0442611
0.0443201
0.0443359
0.0443295
0.0433798
0.0433778
0.0433814
0.0433966
0.0434266
0.0434716
0.0435306
0.0435931
0.0436474
0.043684
0.0436993
0.0436935
0.0436689
0.0436288
0.0435785
0.0435267
0.043489
0.0434779
0.0434912
0.0435237
0.0435711
0.0436351
0.0437187
0.0438257
0.0439578
0.0441115
0.0442764
0.0444373
0.0445801
0.0446882
0.044733
0.04474
0.0433722
0.0433695
0.0433762
0.0433995
0.0434399
0.0434938
0.0435569
0.0436197
0.0436681
0.0436943
0.0436973
0.0436791
0.0436424
0.0435911
0.0435306
0.0434702
0.0434268
0.0434126
0.0434257
0.043461
0.0435171
0.0435966
0.0437052
0.0438494
0.0440325
0.0442514
0.0444939
0.0447393
0.044963
0.0451462
0.0452471
0.0452838
0.0433407
0.0433408
0.0433565
0.0433946
0.0434502
0.0435142
0.0435809
0.0436407
0.0436799
0.0436934
0.0436829
0.0436515
0.0436029
0.0435412
0.0434721
0.0434057
0.0433592
0.0433442
0.0433584
0.0433978
0.043462
0.0435555
0.0436866
0.0438642
0.0440948
0.0443777
0.0447029
0.045049
0.0453859
0.0456773
0.0458764
0.0459729
0.0432597
0.0432745
0.043315
0.0433801
0.0434558
0.04353
0.0435987
0.0436515
0.0436791
0.0436795
0.043656
0.0436127
0.043554
0.0434844
0.0434098
0.0433404
0.0432936
0.0432796
0.0432961
0.04334
0.0434117
0.0435169
0.0436659
0.0438704
0.0441395
0.044477
0.0448788
0.0453303
0.0458053
0.0462589
0.0466119
0.0468383
0.0430745
0.043151
0.0432569
0.0433652
0.0434615
0.0435445
0.0436099
0.0436528
0.0436684
0.043657
0.0436228
0.0435706
0.043505
0.0434306
0.0433534
0.0432837
0.0432384
0.0432266
0.0432458
0.0432938
0.0433712
0.0434848
0.043646
0.0438685
0.0441637
0.0445399
0.0450003
0.0455442
0.0461645
0.0468331
0.0474635
0.0480136
0.0425839
0.042977
0.0432238
0.0433782
0.0434851
0.0435667
0.0436235
0.0436547
0.0436591
0.0436379
0.0435956
0.0435374
0.0434676
0.0433909
0.0433131
0.0432442
0.0432006
0.0431908
0.0432121
0.0432628
0.0433436
0.0434615
0.043629
0.0438604
0.0441684
0.0445642
0.0450575
0.0456622
0.0464015
0.0473098
0.0484163
0.0496736
0.0415646
0.0428025
0.0432709
0.0434241
0.0435228
0.043597
0.0436434
0.0436642
0.0436599
0.0436319
0.0435844
0.0435223
0.0434503
0.0433724
0.0432942
0.0432256
0.0431829
0.043174
0.0431964
0.0432481
0.0433299
0.0434491
0.0436182
0.0438515
0.0441625
0.044563
0.045067
0.0456995
0.0465127
0.0476139
0.0492213
0.0514824
)
;

boundaryField
{
    movingWall
    {
        type            fixedFluxPressure;
        gradient        uniform 0;
        value           nonuniform List<scalar> 
32
(
0.0415646
0.0428025
0.0432709
0.0434241
0.0435228
0.043597
0.0436434
0.0436642
0.0436599
0.0436319
0.0435844
0.0435223
0.0434503
0.0433724
0.0432942
0.0432256
0.0431829
0.043174
0.0431964
0.0432481
0.0433299
0.0434491
0.0436182
0.0438515
0.0441625
0.044563
0.045067
0.0456995
0.0465127
0.0476139
0.0492213
0.0514824
)
;
    }
    fixedWalls
    {
        type            fixedFluxPressure;
        gradient        uniform 0;
        value           nonuniform List<scalar> 
64
(
0.0431945
0.0431977
0.0432028
0.043208
0.043211
0.04321
0.0432041
0.0431948
0.043186
0.0431836
0.0431931
0.0432201
0.0432699
0.0433446
0.0434312
0.0434736
0.0434523
0.0434048
0.0433671
0.043348
0.043344
0.0433492
0.0433587
0.0433686
0.0433766
0.0433798
0.0433722
0.0433407
0.0432597
0.0430745
0.0425839
0.0415646
0.0429054
0.0429069
0.0429102
0.0429154
0.042922
0.0429289
0.0429337
0.042933
0.0429235
0.0429043
0.0428791
0.0428582
0.042857
0.0429044
0.0430853
0.0435066
0.043842
0.0438278
0.0437371
0.0436737
0.0436626
0.0437133
0.0438334
0.0440338
0.0443295
0.04474
0.0452838
0.0459729
0.0468383
0.0480136
0.0496736
0.0514824
)
;
    }
    floor
    {
        type            fixedFluxPressure;
        gradient        uniform 0;
        value           nonuniform List<scalar> 
32
(
0.0431945
0.0431928
0.0431912
0.0431914
0.0431948
0.0432027
0.0432165
0.0432375
0.0432657
0.0432957
0.043316
0.0433109
0.0432802
0.043229
0.0431671
0.0430994
0.0430324
0.0429761
0.0429376
0.0429155
0.0429045
0.0428999
0.0428987
0.0428988
0.0428994
0.0428998
0.0429003
0.0429011
0.0429022
0.0429036
0.0429048
0.0429054
)
;
    }
    frontAndBack
    {
        type            empty;
    }
}


// ************************************************************************* //
