/*--------------------------------*- C++ -*----------------------------------*\
| =========                 |                                                 |
| \\      /  F ield         | OpenFOAM: The Open Source CFD Toolbox           |
|  \\    /   O peration     | Version:  2212                                  |
|   \\  /    A nd           | Website:  www.openfoam.com                      |
|    \\/     M anipulation  |                                                 |
\*---------------------------------------------------------------------------*/
FoamFile
{
    version     2.0;
    format      ascii;
    arch        "LSB;label=64;scalar=64";
    class       surfaceScalarField;
    location    "1430";
    object      phi;
}
// * * * * * * * * * * * * * * * * * * * * * * * * * * * * * * * * * * * * * //

dimensions      [0 3 -1 0 0 0 0];

oriented        oriented;

internalField   nonuniform List<scalar> 
1984
(
-9.4213e-10
9.42042e-10
-9.10306e-09
8.16091e-09
-2.58747e-08
1.67717e-08
-4.89194e-08
2.30446e-08
-7.4595e-08
2.56756e-08
-9.88604e-08
2.42654e-08
-1.16868e-07
1.80077e-08
-1.21813e-07
4.94467e-09
-1.03139e-07
-1.86741e-08
-5.27674e-08
-5.03714e-08
2.42286e-08
-7.6996e-08
9.70558e-08
-7.28272e-08
1.48929e-07
-5.18733e-08
1.79555e-07
-3.06254e-08
1.95868e-07
-1.6313e-08
2.03595e-07
-7.72778e-09
2.01649e-07
1.94665e-09
1.87566e-07
1.4083e-08
1.64263e-07
2.33032e-08
1.37976e-07
2.62869e-08
1.12947e-07
2.5029e-08
9.09612e-08
2.19855e-08
7.24185e-08
1.85427e-08
5.69626e-08
1.5456e-08
4.37475e-08
1.3215e-08
3.18551e-08
1.18924e-08
2.09e-08
1.0955e-08
1.13262e-08
9.57376e-09
4.15363e-09
7.17247e-09
2.2355e-10
3.92994e-09
-6.70945e-10
8.94447e-10
-6.70986e-10
-8.69776e-09
9.63978e-09
-3.77876e-08
3.72507e-08
-8.81764e-08
6.71604e-08
-1.54753e-07
8.96213e-08
-2.27866e-07
9.87879e-08
-2.95138e-07
9.1538e-08
-3.41491e-07
6.43609e-08
-3.47614e-07
1.10674e-08
-2.8757e-07
-7.87185e-08
-1.40952e-07
-1.96989e-07
7.84909e-08
-2.96439e-07
2.91877e-07
-2.86213e-07
4.51229e-07
-2.11225e-07
5.5462e-07
-1.34017e-07
6.16644e-07
-7.83369e-08
6.5102e-07
-4.21032e-08
6.5332e-07
-3.5395e-10
6.17728e-07
4.96755e-08
5.52288e-07
8.8743e-08
4.73892e-07
1.04683e-07
3.95546e-07
1.03375e-07
3.23856e-07
9.36755e-08
2.61131e-07
8.12671e-08
2.07115e-07
6.94724e-08
1.59994e-07
6.03356e-08
1.17761e-07
5.4126e-08
7.9739e-08
4.89763e-08
4.72195e-08
4.2093e-08
2.25701e-08
3.18218e-08
7.36378e-09
1.91363e-08
9.49965e-10
7.30822e-09
2.78965e-10
-1.9311e-08
2.89508e-08
-7.37274e-08
9.1667e-08
-1.60464e-07
1.53897e-07
-2.70675e-07
1.99833e-07
-3.88876e-07
2.16988e-07
-4.94229e-07
1.96892e-07
-5.6119e-07
1.31321e-07
-5.58637e-07
8.51504e-09
-4.49732e-07
-1.87623e-07
-2.07259e-07
-4.39462e-07
1.45445e-07
-6.49143e-07
4.94634e-07
-6.35403e-07
7.69309e-07
-4.859e-07
9.62924e-07
-3.27632e-07
1.09126e-06
-2.0667e-07
1.17153e-06
-1.22377e-07
1.19261e-06
-2.14376e-08
1.14532e-06
9.69743e-08
1.04331e-06
1.90745e-07
9.12849e-07
2.35147e-07
7.75954e-07
2.4027e-07
6.45433e-07
2.24197e-07
5.27007e-07
1.99693e-07
4.2182e-07
1.74659e-07
3.28255e-07
1.539e-07
2.4417e-07
1.38211e-07
1.69074e-07
1.24072e-07
1.0502e-07
1.06147e-07
5.53355e-08
8.15064e-08
2.21674e-08
5.23044e-08
4.80773e-09
2.46678e-08
5.08674e-09
-2.89116e-08
5.78624e-08
-1.07156e-07
1.69911e-07
-2.27617e-07
2.74358e-07
-3.76638e-07
3.48854e-07
-5.32729e-07
3.7308e-07
-6.67079e-07
3.31241e-07
-7.44561e-07
2.08804e-07
-7.23793e-07
-1.22529e-08
-5.62255e-07
-3.49162e-07
-2.33801e-07
-7.67915e-07
2.23892e-07
-1.10684e-06
6.83321e-07
-1.09483e-06
1.06742e-06
-8.69997e-07
1.361e-06
-6.21214e-07
1.57514e-06
-4.20811e-07
1.72501e-06
-2.72246e-07
1.78721e-06
-8.36386e-08
1.74633e-06
1.37855e-07
1.62158e-06
3.15495e-07
1.4474e-06
4.09327e-07
1.25409e-06
4.33585e-07
1.06109e-06
4.17198e-07
8.78762e-07
3.82019e-07
7.11215e-07
3.42207e-07
5.58662e-07
3.06453e-07
4.20184e-07
2.7669e-07
2.96157e-07
2.48099e-07
1.8951e-07
2.12794e-07
1.04637e-07
1.6638e-07
4.49161e-08
1.12025e-07
1.0848e-08
5.87358e-08
1.59348e-08
-3.42929e-08
9.21553e-08
-1.27346e-07
2.62965e-07
-2.70196e-07
4.17207e-07
-4.45714e-07
5.24373e-07
-6.27212e-07
5.54578e-07
-7.78697e-07
4.82725e-07
-8.56454e-07
2.86561e-07
-8.11755e-07
-5.69512e-08
-6.01145e-07
-5.59772e-07
-2.07897e-07
-1.16116e-06
3.09514e-07
-1.62425e-06
8.35486e-07
-1.6208e-06
1.30487e-06
-1.33938e-06
1.69282e-06
-1.00916e-06
2.00286e-06
-7.30847e-07
2.24418e-06
-5.13564e-07
2.37559e-06
-2.1505e-07
2.36776e-06
1.45682e-07
2.24256e-06
4.40697e-07
2.04219e-06
6.09693e-07
1.80409e-06
6.71688e-07
1.55377e-06
6.67518e-07
1.30664e-06
6.29144e-07
1.07094e-06
5.77913e-07
8.5031e-07
5.27079e-07
6.46568e-07
4.80433e-07
4.62085e-07
4.32581e-07
3.0136e-07
3.73519e-07
1.70593e-07
2.97147e-07
7.55006e-08
2.07118e-07
1.89486e-08
1.15288e-07
3.48834e-08
-3.2973e-08
1.25128e-07
-1.25322e-07
3.55314e-07
-2.70666e-07
5.62551e-07
-4.52475e-07
7.06182e-07
-6.41758e-07
7.43861e-07
-7.97115e-07
6.38083e-07
-8.67612e-07
3.57058e-07
-7.99619e-07
-1.24944e-07
-5.5304e-07
-8.06352e-07
-1.27548e-07
-1.58665e-06
3.95446e-07
-2.14724e-06
9.34436e-07
-2.15979e-06
1.44603e-06
-1.85098e-06
1.90114e-06
-1.46428e-06
2.2978e-06
-1.12751e-06
2.63989e-06
-8.5565e-07
2.86743e-06
-4.42588e-07
2.925e-06
8.8106e-08
2.82807e-06
5.37632e-07
2.62682e-06
8.10941e-07
2.36481e-06
9.33692e-07
2.07248e-06
9.59857e-07
1.76976e-06
9.31858e-07
1.46935e-06
8.78327e-07
1.17932e-06
8.17108e-07
9.05478e-07
7.54273e-07
6.53632e-07
6.84427e-07
4.31207e-07
5.95944e-07
2.47393e-07
4.80961e-07
1.11174e-07
3.43336e-07
2.84126e-08
1.98049e-07
6.3296e-08
-2.44234e-08
1.49552e-07
-9.797e-08
4.28861e-07
-2.21026e-07
6.85607e-07
-3.83089e-07
8.68244e-07
-5.58087e-07
9.1886e-07
-7.03087e-07
7.83082e-07
-7.62224e-07
4.16195e-07
-6.78312e-07
-2.08856e-07
-4.17328e-07
-1.06734e-06
-2.10327e-09
-2.00188e-06
4.70736e-07
-2.62008e-06
9.66528e-07
-2.65559e-06
1.46246e-06
-2.34691e-06
1.93566e-06
-1.93748e-06
2.38469e-06
-1.57654e-06
2.81379e-06
-1.28475e-06
3.15114e-06
-7.79938e-07
3.30524e-06
-6.59947e-08
3.26861e-06
5.74267e-07
3.09651e-06
9.83033e-07
2.83836e-06
1.19184e-06
2.52826e-06
1.26996e-06
2.18959e-06
1.27053e-06
1.83902e-06
1.22889e-06
1.48923e-06
1.1669e-06
1.15093e-06
1.09257e-06
8.34804e-07
1.00056e-06
5.5289e-07
8.77857e-07
3.18466e-07
7.15385e-07
1.43799e-07
5.18003e-07
3.69959e-08
3.04852e-07
1.00292e-07
-1.0873e-08
1.60425e-07
-5.0943e-08
4.68931e-07
-1.28642e-07
7.63305e-07
-2.43643e-07
9.83245e-07
-3.79144e-07
1.05436e-06
-4.97245e-07
9.01183e-07
-5.41512e-07
4.60462e-07
-4.52327e-07
-2.98041e-07
-2.04158e-07
-1.3155e-06
1.46288e-07
-2.35233e-06
5.14841e-07
-2.98864e-06
9.09527e-07
-3.05027e-06
1.32245e-06
-2.75983e-06
1.74796e-06
-2.36299e-06
2.19188e-06
-2.02046e-06
2.66651e-06
-1.75939e-06
3.10111e-06
-1.21454e-06
3.37393e-06
-3.38808e-07
3.43142e-06
5.16772e-07
3.31968e-06
1.09478e-06
3.097e-06
1.41452e-06
2.80012e-06
1.56684e-06
2.45426e-06
1.61639e-06
2.07906e-06
1.60409e-06
1.69151e-06
1.55445e-06
1.30792e-06
1.47616e-06
9.45383e-07
1.36309e-06
6.22054e-07
1.20119e-06
3.5543e-07
9.82009e-07
1.59227e-07
7.14205e-07
4.06852e-08
4.23395e-07
1.40977e-07
3.22339e-09
1.57201e-07
1.55377e-09
4.706e-07
-1.80421e-08
7.82901e-07
-6.49085e-08
1.03011e-06
-1.35963e-07
1.12542e-06
-2.06426e-07
9.71645e-07
-2.27202e-07
4.81239e-07
-1.41831e-07
-3.83412e-07
5.17032e-08
-1.50904e-06
2.78525e-07
-2.57915e-06
4.92956e-07
-3.20307e-06
7.17903e-07
-3.27522e-06
9.72791e-07
-3.01471e-06
1.27408e-06
-2.66429e-06
1.63777e-06
-2.38414e-06
2.08968e-06
-2.2113e-06
2.58216e-06
-1.70703e-06
2.98616e-06
-7.428e-07
3.168e-06
3.34932e-07
3.14518e-06
1.1176e-06
2.99266e-06
1.56705e-06
2.74647e-06
1.81303e-06
2.43119e-06
1.93166e-06
2.06797e-06
1.96732e-06
1.67797e-06
1.94444e-06
1.28425e-06
1.86988e-06
9.1195e-07
1.73539e-06
5.85823e-07
1.52731e-06
3.25557e-07
1.24227e-06
1.41709e-07
8.98054e-07
3.5146e-08
5.29957e-07
1.76123e-07
1.34919e-08
1.43709e-07
4.35035e-08
4.40589e-07
7.80058e-08
7.48399e-07
1.03186e-07
1.00493e-06
1.10826e-07
1.11778e-06
1.0884e-07
9.73631e-07
1.25234e-07
4.64844e-07
1.8786e-07
-4.46037e-07
2.75988e-07
-1.59717e-06
3.30833e-07
-2.63399e-06
3.27089e-07
-3.19932e-06
3.04276e-07
-3.25241e-06
3.22037e-07
-3.03247e-06
4.16388e-07
-2.75864e-06
6.11647e-07
-2.5794e-06
9.46387e-07
-2.54604e-06
1.41798e-06
-2.17862e-06
1.9426e-06
-1.26742e-06
2.29067e-06
-1.31352e-08
2.39592e-06
1.01235e-06
2.36194e-06
1.60103e-06
2.21682e-06
1.95815e-06
1.98316e-06
2.16532e-06
1.68273e-06
2.26775e-06
1.34227e-06
2.28491e-06
9.93814e-07
2.21834e-06
6.71469e-07
2.05774e-06
4.04149e-07
1.79463e-06
2.07851e-07
1.43857e-06
8.30416e-08
1.02286e-06
1.86279e-08
5.94371e-07
1.94751e-07
1.78209e-08
1.25889e-07
6.47714e-08
3.93638e-07
1.32738e-07
6.80432e-07
2.09119e-07
9.28551e-07
2.81377e-07
1.04552e-06
3.42838e-07
9.1217e-07
3.91585e-07
4.16098e-07
4.12751e-07
-4.67204e-07
3.60795e-07
-1.54521e-06
1.81548e-07
-2.45475e-06
-1.28571e-07
-2.8892e-06
-4.73221e-07
-2.90776e-06
-7.67587e-07
-2.73811e-06
-9.63429e-07
-2.56279e-06
-1.03304e-06
-2.50979e-06
-9.30417e-07
-2.64866e-06
-6.08075e-07
-2.50096e-06
-1.16166e-07
-1.75933e-06
4.75342e-07
-6.04643e-07
8.66493e-07
6.21198e-07
1.03317e-06
1.43435e-06
1.06743e-06
1.92388e-06
9.90497e-07
2.24226e-06
8.27051e-07
2.43119e-06
6.14105e-07
2.49785e-06
3.95223e-07
2.43722e-06
2.10218e-07
2.24274e-06
8.28928e-08
1.92196e-06
1.54764e-08
1.50599e-06
-6.77324e-09
1.04511e-06
-5.33285e-09
5.92931e-07
1.89418e-07
1.51956e-08
1.10693e-07
5.84798e-08
3.50354e-07
1.26678e-07
6.12233e-07
2.11375e-07
8.43854e-07
3.00079e-07
9.56815e-07
3.76613e-07
8.35636e-07
4.13449e-07
3.79262e-07
3.57702e-07
-4.11458e-07
1.04196e-07
-1.2917e-06
-4.0682e-07
-1.94373e-06
-1.09722e-06
-2.19881e-06
-1.82603e-06
-2.17894e-06
-2.4993e-06
-2.06484e-06
-3.06683e-06
-1.99526e-06
-3.49184e-06
-2.08477e-06
-3.71558e-06
-2.42492e-06
-3.62028e-06
-2.59626e-06
-3.20037e-06
-2.17924e-06
-2.48649e-06
-1.31852e-06
-1.73896e-06
-1.2634e-07
-1.20069e-06
8.96086e-07
-8.37984e-07
1.56118e-06
-6.22105e-07
2.02638e-06
-5.17334e-07
2.32642e-06
-4.73016e-07
2.45354e-06
-4.41982e-07
2.40618e-06
-3.89946e-07
2.19071e-06
-3.06035e-07
1.83805e-06
-2.02119e-07
1.40207e-06
-1.02e-07
9.44994e-07
-2.90751e-08
5.20006e-07
1.60343e-07
4.9281e-09
1.05765e-07
1.97191e-08
3.35563e-07
4.45416e-08
5.87411e-07
7.74053e-08
8.1099e-07
1.11104e-07
9.23116e-07
1.23579e-07
8.2316e-07
5.33038e-08
4.49538e-07
-2.2571e-07
-1.32444e-07
-8.29157e-07
-6.88258e-07
-1.75784e-06
-1.01505e-06
-2.86435e-06
-1.09229e-06
-4.00793e-06
-1.03537e-06
-5.10401e-06
-9.68764e-07
-6.10167e-06
-9.97594e-07
-6.95087e-06
-1.23558e-06
-7.58235e-06
-1.79344e-06
-7.80343e-06
-2.37518e-06
-7.54151e-06
-2.44116e-06
-6.81891e-06
-2.04112e-06
-5.68795e-06
-1.2573e-06
-4.52555e-06
-2.66314e-07
-3.5537e-06
5.89328e-07
-2.80016e-06
1.27284e-06
-2.21047e-06
1.73674e-06
-1.72484e-06
1.9679e-06
-1.31673e-06
1.99807e-06
-9.60439e-07
1.83442e-06
-6.4444e-07
1.52205e-06
-3.76068e-07
1.1337e-06
-1.71527e-07
7.40453e-07
-4.44452e-08
3.92924e-07
1.15898e-07
-1.66607e-08
1.22425e-07
-6.8849e-08
3.87751e-07
-1.57851e-07
6.76413e-07
-2.82341e-07
9.3548e-07
-4.49848e-07
1.09062e-06
-6.99678e-07
1.07299e-06
-1.1267e-06
8.76555e-07
-1.86211e-06
6.02968e-07
-2.94763e-06
3.97261e-07
-4.30196e-06
3.3929e-07
-5.78505e-06
3.90797e-07
-7.2837e-06
4.63277e-07
-8.72861e-06
4.76152e-07
-1.00794e-05
3.53245e-07
-1.12917e-05
-2.33638e-08
-1.23026e-05
-7.8255e-07
-1.28452e-05
-1.83251e-06
-1.27823e-05
-2.50411e-06
-1.21239e-05
-2.69949e-06
-1.08918e-05
-2.48936e-06
-9.16951e-06
-1.98864e-06
-7.29227e-06
-1.28791e-06
-5.51728e-06
-5.0215e-07
-3.9921e-06
2.11558e-07
-2.7631e-06
7.389e-07
-1.83694e-06
1.07192e-06
-1.16903e-06
1.1665e-06
-6.89254e-07
1.04228e-06
-3.56258e-07
8.00704e-07
-1.45532e-07
5.29728e-07
-3.39928e-08
2.81385e-07
8.19052e-08
-5.46626e-08
1.77088e-07
-2.17562e-07
5.5065e-07
-4.95504e-07
9.54355e-07
-8.93248e-07
1.33322e-06
-1.42457e-06
1.62194e-06
-2.13004e-06
1.77846e-06
-3.07662e-06
1.82314e-06
-4.30861e-06
1.83496e-06
-5.79413e-06
1.88279e-06
-7.43104e-06
1.9762e-06
-9.12449e-06
2.08425e-06
-1.08222e-05
2.16098e-06
-1.24905e-05
2.14451e-06
-1.40836e-05
1.94629e-06
-1.55432e-05
1.43625e-06
-1.67594e-05
4.33607e-07
-1.74929e-05
-1.09893e-06
-1.76147e-05
-2.38237e-06
-1.71108e-05
-3.20336e-06
-1.59875e-05
-3.61272e-06
-1.42952e-05
-3.68088e-06
-1.21225e-05
-3.46067e-06
-9.62431e-06
-3.0003e-06
-7.06638e-06
-2.34637e-06
-4.75119e-06
-1.57629e-06
-2.85729e-06
-8.2198e-07
-1.48902e-06
-2.01773e-07
-6.43536e-07
1.9679e-07
-2.09979e-07
3.67147e-07
-3.6583e-08
3.56333e-07
4.53097e-09
2.40271e-07
8.64362e-08
-6.61568e-08
2.43245e-07
-2.68952e-07
7.53445e-07
-6.25244e-07
1.31065e-06
-1.14924e-06
1.85722e-06
-1.85458e-06
2.32729e-06
-2.75615e-06
2.68003e-06
-3.8629e-06
2.92988e-06
-5.16481e-06
3.13687e-06
-6.63694e-06
3.35492e-06
-8.25362e-06
3.59287e-06
-9.98811e-06
3.81874e-06
-1.18065e-05
3.97941e-06
-1.36671e-05
4.00505e-06
-1.55173e-05
3.7965e-06
-1.72863e-05
3.20529e-06
-1.8862e-05
2.00926e-06
-1.98293e-05
-1.31631e-07
-2.01744e-05
-2.03721e-06
-1.99594e-05
-3.41839e-06
-1.91831e-05
-4.389e-06
-1.78476e-05
-5.01646e-06
-1.59842e-05
-5.32402e-06
-1.36769e-05
-5.30758e-06
-1.10578e-05
-4.96548e-06
-8.3102e-06
-4.32391e-06
-5.68526e-06
-3.44692e-06
-3.44707e-06
-2.43996e-06
-1.79968e-06
-1.4506e-06
-7.72328e-07
-6.60205e-07
-2.44293e-07
-1.71702e-07
-3.76392e-08
3.36165e-08
4.87971e-08
-3.80006e-08
2.81245e-07
-1.64801e-07
8.80245e-07
-4.06e-07
1.55185e-06
-7.88032e-07
2.23925e-06
-1.33208e-06
2.87133e-06
-2.04595e-06
3.3939e-06
-2.91904e-06
3.80297e-06
-3.92742e-06
4.14524e-06
-5.04786e-06
4.47536e-06
-6.2669e-06
4.81191e-06
-7.57694e-06
5.12878e-06
-8.9676e-06
5.37008e-06
-1.04215e-05
5.45896e-06
-1.19141e-05
5.28908e-06
-1.3413e-05
4.70416e-06
-1.48653e-05
3.46162e-06
-1.60158e-05
1.01881e-06
-1.66485e-05
-1.4045e-06
-1.69127e-05
-3.15418e-06
-1.68208e-05
-4.4809e-06
-1.632e-05
-5.51723e-06
-1.53547e-05
-6.28929e-06
-1.3909e-05
-6.7533e-06
-1.20271e-05
-6.84736e-06
-9.81951e-06
-6.53155e-06
-7.45718e-06
-5.80925e-06
-5.15139e-06
-4.74576e-06
-3.1245e-06
-3.47748e-06
-1.57939e-06
-2.20531e-06
-6.02683e-07
-1.14841e-06
-1.25736e-07
-4.43331e-07
-7.69385e-08
-3.78163e-09
2.85027e-07
-3.17706e-08
9.08234e-07
-1.10467e-07
1.63054e-06
-2.7253e-07
2.40131e-06
-5.49021e-07
3.14782e-06
-9.55848e-07
3.80073e-06
-1.48045e-06
4.32757e-06
-2.09205e-06
4.75684e-06
-2.75942e-06
5.14273e-06
-3.46307e-06
5.51556e-06
-4.19468e-06
5.86039e-06
-4.9491e-06
6.1245e-06
-5.71868e-06
6.22854e-06
-6.49237e-06
6.06277e-06
-7.26167e-06
5.47346e-06
-8.04137e-06
4.24132e-06
-8.80579e-06
1.78323e-06
-9.45315e-06
-7.57137e-07
-1.0017e-05
-2.5903e-06
-1.05225e-05
-3.97545e-06
-1.08794e-05
-5.16029e-06
-1.09557e-05
-6.21304e-06
-1.06328e-05
-7.07616e-06
-9.84879e-06
-7.63138e-06
-8.61082e-06
-7.76951e-06
-7.00562e-06
-7.41445e-06
-5.19388e-06
-6.5575e-06
-3.39468e-06
-5.27668e-06
-1.8516e-06
-3.74839e-06
-7.58066e-07
-2.24194e-06
-1.68377e-07
-1.03302e-06
-2.45315e-07
1.75462e-08
2.67481e-07
5.41347e-08
8.71645e-07
8.72228e-08
1.59746e-06
8.50885e-08
2.40345e-06
1.30269e-08
3.21988e-06
-1.53084e-07
3.96684e-06
-4.11812e-07
4.5863e-06
-7.33513e-07
5.07854e-06
-1.07708e-06
5.4863e-06
-1.41046e-06
5.84894e-06
-1.7202e-06
6.17013e-06
-2.00386e-06
6.40816e-06
-2.26347e-06
6.48815e-06
-2.49856e-06
6.29786e-06
-2.71251e-06
5.68741e-06
-2.91637e-06
4.44518e-06
-3.20312e-06
2.06998e-06
-3.65773e-06
-3.02533e-07
-4.23134e-06
-2.01669e-06
-4.95106e-06
-3.25573e-06
-5.7502e-06
-4.36114e-06
-6.48774e-06
-5.47551e-06
-6.98275e-06
-6.58114e-06
-7.09875e-06
-7.51539e-06
-6.74835e-06
-8.11991e-06
-5.93031e-06
-8.23249e-06
-4.73229e-06
-7.75551e-06
-3.32355e-06
-6.68543e-06
-1.94191e-06
-5.13003e-06
-8.44099e-07
-3.33976e-06
-1.9753e-07
-1.67959e-06
-4.42846e-07
2.63709e-08
2.4111e-07
9.41678e-08
8.03848e-07
1.87512e-07
1.50411e-06
2.80263e-07
2.3107e-06
3.41215e-07
3.15893e-06
3.44375e-07
3.96368e-06
2.81096e-07
4.64958e-06
1.72246e-07
5.18739e-06
5.92603e-08
5.59928e-06
-1.79868e-08
5.92618e-06
-3.79973e-08
6.19014e-06
-5.32737e-10
6.37069e-06
9.30568e-08
6.39456e-06
2.19278e-07
6.17163e-06
3.54786e-07
5.5519e-06
4.83723e-07
4.31625e-06
4.61854e-07
2.09185e-06
1.56558e-07
2.76253e-09
-3.46477e-07
-1.51365e-06
-1.01806e-06
-2.58415e-06
-1.85892e-06
-3.52028e-06
-2.81744e-06
-4.51699e-06
-3.73251e-06
-5.66607e-06
-4.43553e-06
-6.81238e-06
-4.7562e-06
-7.79924e-06
-4.61061e-06
-8.37808e-06
-4.0068e-06
-8.35932e-06
-3.04245e-06
-7.64978e-06
-1.9119e-06
-6.26058e-06
-8.85477e-07
-4.36618e-06
-2.17682e-07
-2.34738e-06
-6.60528e-07
2.68518e-08
2.14258e-07
1.0182e-07
7.2888e-07
2.16585e-07
1.38935e-06
3.52732e-07
2.17455e-06
4.85469e-07
3.02619e-06
5.92258e-07
3.85689e-06
6.63616e-07
4.57822e-06
7.1311e-07
5.1379e-06
7.74866e-07
5.53753e-06
8.8696e-07
5.81409e-06
1.07408e-06
6.00302e-06
1.34028e-06
6.10449e-06
1.66485e-06
6.06999e-06
2.01943e-06
5.81705e-06
2.35855e-06
5.21279e-06
2.61468e-06
4.06011e-06
2.63434e-06
2.07219e-06
2.38414e-06
2.52965e-07
1.91416e-06
-1.04368e-06
1.33233e-06
-2.00232e-06
6.27154e-07
-2.8151e-06
-2.34655e-07
-3.65518e-06
-1.22006e-06
-4.68067e-06
-2.18362e-06
-5.84881e-06
-2.92628e-06
-7.05658e-06
-3.28433e-06
-8.02003e-06
-3.18995e-06
-8.4537e-06
-2.65789e-06
-8.18185e-06
-1.81466e-06
-7.10381e-06
-9.04376e-07
-5.27646e-06
-2.34915e-07
-3.01684e-06
-8.95443e-07
2.22604e-08
1.91998e-07
8.80303e-08
6.6311e-07
1.95838e-07
1.28154e-06
3.36594e-07
2.03379e-06
4.95331e-07
2.86746e-06
6.57444e-07
3.69478e-06
8.17102e-07
4.41856e-06
9.83979e-07
4.97102e-06
1.18232e-06
5.33918e-06
1.44019e-06
5.55622e-06
1.77618e-06
5.66703e-06
2.18997e-06
5.6907e-06
2.65898e-06
5.60097e-06
3.14435e-06
5.33168e-06
3.58671e-06
4.77042e-06
3.89197e-06
3.75485e-06
3.91675e-06
2.04741e-06
3.66415e-06
5.05565e-07
3.21408e-06
-5.93605e-07
2.65648e-06
-1.44472e-06
2.03533e-06
-2.19395e-06
1.34727e-06
-2.96713e-06
5.22511e-07
-3.85591e-06
-4.0754e-07
-4.91876e-06
-1.34449e-06
-6.11963e-06
-2.03899e-06
-7.32553e-06
-2.35528e-06
-8.13741e-06
-2.21947e-06
-8.31765e-06
-1.67607e-06
-7.64721e-06
-9.13182e-07
-6.03935e-06
-2.54754e-07
-3.67527e-06
-1.1502e-06
1.38363e-08
1.78161e-07
5.76966e-08
6.1925e-07
1.36603e-07
1.20263e-06
2.5306e-07
1.91734e-06
4.05613e-07
2.7149e-06
5.90678e-07
3.50972e-06
8.08393e-07
4.20085e-06
1.06556e-06
4.71385e-06
1.37466e-06
5.03009e-06
1.74848e-06
5.1824e-06
2.19365e-06
5.22186e-06
2.70385e-06
5.1805e-06
3.25502e-06
5.0498e-06
3.80595e-06
4.78076e-06
4.29289e-06
4.28348e-06
4.61731e-06
3.43044e-06
4.65752e-06
2.00719e-06
4.4407e-06
7.22393e-07
4.04211e-06
-1.95021e-07
3.53258e-06
-9.35186e-07
2.95255e-06
-1.61391e-06
2.32313e-06
-2.33771e-06
1.64261e-06
-3.17539e-06
8.76779e-07
-4.15293e-06
1.1282e-09
-5.24398e-06
-8.77749e-07
-6.44666e-06
-1.50826e-06
-7.5069e-06
-1.7304e-06
-8.09551e-06
-1.49477e-06
-7.88284e-06
-9.10835e-07
-6.62329e-06
-2.80792e-07
-4.30532e-06
-1.43099e-06
5.62674e-10
1.77599e-07
8.55046e-09
6.11263e-07
3.88537e-08
1.17233e-06
1.1133e-07
1.84486e-06
2.40804e-07
2.58543e-06
4.33346e-07
3.31717e-06
6.94093e-07
3.9401e-06
1.02575e-06
4.3822e-06
1.42673e-06
4.62911e-06
1.89225e-06
4.71687e-06
2.41564e-06
4.69848e-06
2.98487e-06
4.61127e-06
3.57672e-06
4.45795e-06
4.1531e-06
4.20437e-06
4.65454e-06
3.78204e-06
4.99275e-06
3.09223e-06
5.0699e-06
1.93004e-06
4.92372e-06
8.68573e-07
4.61385e-06
1.14844e-07
4.1904e-06
-5.11738e-07
3.68885e-06
-1.11236e-06
3.12782e-06
-1.77667e-06
2.51115e-06
-2.55872e-06
1.8312e-06
-3.47298e-06
1.08159e-06
-4.49438e-06
2.14008e-07
-5.57907e-06
-6.22705e-07
-6.67018e-06
-1.17e-06
-7.54822e-06
-1.25399e-06
-7.79885e-06
-8.87031e-07
-6.99024e-06
-3.14428e-07
-4.87792e-06
-1.74542e-06
-1.97454e-08
1.97344e-07
-6.37772e-08
6.55294e-07
-9.92404e-08
1.20779e-06
-8.22363e-08
1.82786e-06
2.15923e-08
2.4816e-06
2.2258e-07
3.11619e-06
5.2427e-07
3.63841e-06
9.22067e-07
3.9844e-06
1.39908e-06
4.1521e-06
1.93417e-06
4.18178e-06
2.51029e-06
4.12236e-06
3.11248e-06
4.00908e-06
3.72085e-06
3.84958e-06
4.30421e-06
3.62101e-06
4.81313e-06
3.27313e-06
5.17625e-06
2.72911e-06
5.31311e-06
1.79317e-06
5.25972e-06
9.21961e-07
5.06158e-06
3.1299e-07
4.75319e-06
-2.03351e-07
4.36328e-06
-7.22454e-07
3.89821e-06
-1.3116e-06
3.35387e-06
-2.01438e-06
2.72255e-06
-2.84165e-06
2.00035e-06
-3.77218e-06
1.18721e-06
-4.76593e-06
2.9321e-07
-5.77619e-06
-5.13131e-07
-6.74187e-06
-9.31973e-07
-7.38001e-06
-8.26406e-07
-7.09581e-06
-3.5346e-07
-5.35087e-06
-2.09888e-06
-5.36082e-08
2.50952e-07
-1.6905e-07
7.70736e-07
-2.79165e-07
1.31791e-06
-3.14236e-07
1.86293e-06
-2.2757e-07
2.39493e-06
-2.13194e-09
2.89075e-06
3.46217e-07
3.29006e-06
8.06244e-07
3.52437e-06
1.34553e-06
3.61281e-06
1.93147e-06
3.59585e-06
2.54254e-06
3.51129e-06
3.16453e-06
3.38709e-06
3.78271e-06
3.2314e-06
4.37439e-06
3.02934e-06
4.90221e-06
2.7453e-06
5.31152e-06
2.31981e-06
5.52848e-06
1.57621e-06
5.57522e-06
8.75223e-07
5.49506e-06
3.93152e-07
5.31407e-06
-2.23546e-08
5.04666e-06
-4.55052e-07
4.68733e-06
-9.52271e-07
4.22249e-06
-1.54954e-06
3.63808e-06
-2.25725e-06
2.92857e-06
-3.06266e-06
2.1025e-06
-3.93986e-06
1.18737e-06
-4.86106e-06
2.41233e-07
-5.79574e-06
-5.00905e-07
-6.63787e-06
-7.06019e-07
-6.8907e-06
-3.88253e-07
-5.66863e-06
-2.48713e-06
-1.116e-07
3.62553e-07
-3.17632e-07
9.76768e-07
-4.94612e-07
1.49489e-06
-5.55073e-07
1.92339e-06
-4.57267e-07
2.29713e-06
-1.95979e-07
2.62946e-06
2.14646e-07
2.87944e-06
7.39853e-07
2.99917e-06
1.33252e-06
3.02015e-06
1.95921e-06
2.96916e-06
2.6001e-06
2.8704e-06
3.24398e-06
2.74321e-06
3.88107e-06
2.5943e-06
4.49582e-06
2.41459e-06
5.06092e-06
2.1802e-06
5.53332e-06
1.84741e-06
5.83662e-06
1.2729e-06
5.97937e-06
7.32476e-07
6.00815e-06
3.6437e-07
5.93917e-06
4.66227e-08
5.77541e-06
-2.91286e-07
5.50766e-06
-6.84527e-07
5.11559e-06
-1.15746e-06
4.57884e-06
-1.7205e-06
3.88635e-06
-2.37017e-06
3.04368e-06
-3.09719e-06
2.0781e-06
-3.89548e-06
1.04684e-06
-4.76448e-06
7.67982e-08
-5.66783e-06
-4.91463e-07
-6.32243e-06
-3.98881e-07
-5.76121e-06
-2.88601e-06
-2.03349e-07
5.65901e-07
-5.03035e-07
1.27645e-06
-7.08024e-07
1.69988e-06
-7.40683e-07
1.95605e-06
-5.85041e-07
2.14149e-06
-2.52695e-07
2.29711e-06
2.36499e-07
2.39025e-06
8.29017e-07
2.40665e-06
1.47346e-06
2.37571e-06
2.14261e-06
2.3e-06
2.82008e-06
2.19293e-06
3.49665e-06
2.06664e-06
4.16467e-06
1.92628e-06
4.81197e-06
1.76729e-06
5.41699e-06
1.57519e-06
5.94294e-06
1.32146e-06
6.30956e-06
9.06288e-07
6.51837e-06
5.23659e-07
6.6174e-06
2.65343e-07
6.62266e-06
4.13658e-08
6.53125e-06
-1.99878e-07
6.32936e-06
-4.82638e-07
5.99543e-06
-8.23523e-07
5.50633e-06
-1.2314e-06
4.8449e-06
-1.70874e-06
4.00723e-06
-2.25952e-06
3.00938e-06
-2.89763e-06
1.8955e-06
-3.6506e-06
7.64514e-07
-4.53684e-06
-1.33036e-07
-5.42488e-06
-3.54841e-07
-5.53941e-06
-3.24085e-06
-3.22686e-07
8.88588e-07
-6.74894e-07
1.62866e-06
-8.11762e-07
1.83674e-06
-7.23526e-07
1.86781e-06
-4.41063e-07
1.85902e-06
1.51816e-08
1.84087e-06
6.04141e-07
1.80129e-06
1.26201e-06
1.74878e-06
1.95942e-06
1.67829e-06
2.67273e-06
1.58669e-06
3.38621e-06
1.47944e-06
4.08981e-06
1.36305e-06
4.77491e-06
1.24118e-06
5.42999e-06
1.11221e-06
6.03683e-06
9.68346e-07
6.5642e-06
7.94084e-07
6.93735e-06
5.33132e-07
7.16003e-06
3.00985e-07
7.28014e-06
1.45234e-07
7.31339e-06
8.10952e-09
7.25513e-06
-1.41618e-07
7.09089e-06
-3.18391e-07
6.801e-06
-5.33635e-07
6.3627e-06
-7.93101e-07
5.75485e-06
-1.10089e-06
4.96249e-06
-1.46717e-06
3.98237e-06
-1.91751e-06
2.83307e-06
-2.50129e-06
1.58038e-06
-3.28416e-06
4.08667e-07
-4.25317e-06
-2.15212e-07
-4.91553e-06
-3.45606e-06
-4.4306e-07
1.33165e-06
-6.77531e-07
1.86313e-06
-5.45633e-07
1.70485e-06
-1.86586e-07
1.50877e-06
3.17246e-07
1.35519e-06
9.25599e-07
1.23252e-06
1.59912e-06
1.12776e-06
2.31031e-06
1.0376e-06
3.03631e-06
9.52293e-07
3.7572e-06
8.65805e-07
4.45811e-06
7.78525e-07
5.12854e-06
6.92627e-07
5.76013e-06
6.09582e-07
6.34392e-06
5.28426e-07
6.86727e-06
4.44998e-07
7.30884e-06
3.52511e-07
7.61399e-06
2.27982e-07
7.79322e-06
1.21758e-07
7.88878e-06
4.96677e-08
7.91191e-06
-1.50164e-08
7.85768e-06
-8.73865e-08
7.71487e-06
-1.75587e-07
7.4663e-06
-2.85067e-07
7.09165e-06
-4.18442e-07
6.56948e-06
-5.78733e-07
5.87769e-06
-7.75366e-07
4.99338e-06
-1.0332e-06
3.89663e-06
-1.40455e-06
2.59123e-06
-1.97876e-06
1.18936e-06
-2.8513e-06
1.16361e-07
-3.84253e-06
-3.3397e-06
-3.76998e-07
1.70865e-06
1.70247e-08
1.46911e-06
7.27969e-07
9.93902e-07
1.44545e-06
7.91285e-07
2.15513e-06
6.45511e-07
2.86155e-06
5.26095e-07
3.55432e-06
4.34991e-07
4.22573e-06
3.66197e-07
4.86703e-06
3.10991e-07
5.46874e-06
2.64089e-07
6.02375e-06
2.23516e-07
6.52795e-06
1.88429e-07
6.97945e-06
1.58079e-07
7.3767e-06
1.31184e-07
7.71601e-06
1.05682e-07
7.98897e-06
7.95523e-08
8.16877e-06
4.81771e-08
8.26808e-06
2.2448e-08
8.3136e-06
4.15221e-09
8.31157e-06
-1.29863e-08
8.25757e-06
-3.33882e-08
8.14198e-06
-5.99946e-08
7.95102e-06
-9.41034e-08
7.66889e-06
-1.36315e-07
7.278e-06
-1.8784e-07
6.75606e-06
-2.5343e-07
6.06978e-06
-3.46922e-07
5.16631e-06
-5.01076e-07
3.96946e-06
-7.81908e-07
2.41938e-06
-1.30122e-06
7.46602e-07
-2.16975e-06
-2.5931e-06
1.70865e-06
3.17775e-06
4.17166e-06
4.96294e-06
5.60845e-06
6.13455e-06
6.56954e-06
6.93574e-06
7.24673e-06
7.51082e-06
7.73433e-06
7.92276e-06
8.08084e-06
8.21202e-06
8.31771e-06
8.39726e-06
8.44544e-06
8.46788e-06
8.47204e-06
8.45905e-06
8.42566e-06
8.36567e-06
8.27156e-06
8.13525e-06
7.94741e-06
7.69398e-06
7.34706e-06
6.84598e-06
6.06407e-06
4.76285e-06
2.5931e-06
)
;

boundaryField
{
    movingWall
    {
        type            calculated;
        value           uniform 0;
    }
    fixedWalls
    {
        type            calculated;
        value           uniform 0;
    }
    floor
    {
        type            calculated;
        value           uniform 0;
    }
    frontAndBack
    {
        type            empty;
        value           nonuniform List<scalar> 0();
    }
}


// ************************************************************************* //
