/*--------------------------------*- C++ -*----------------------------------*\
| =========                 |                                                 |
| \\      /  F ield         | OpenFOAM: The Open Source CFD Toolbox           |
|  \\    /   O peration     | Version:  2212                                  |
|   \\  /    A nd           | Website:  www.openfoam.com                      |
|    \\/     M anipulation  |                                                 |
\*---------------------------------------------------------------------------*/
FoamFile
{
    version     2.0;
    format      ascii;
    arch        "LSB;label=64;scalar=64";
    class       volScalarField;
    location    "1430";
    object      Saa;
}
// * * * * * * * * * * * * * * * * * * * * * * * * * * * * * * * * * * * * * //

dimensions      [1 -3 0 0 0 0 0];

internalField   nonuniform List<scalar> 
1024
(
0.00546435
0.00546438
0.00546445
0.00546458
0.00546478
0.00546507
0.00546546
0.00546594
0.00546649
0.00546708
0.00546764
0.00546815
0.00546856
0.00546884
0.00546897
0.00546893
0.00546868
0.00546822
0.00546762
0.00546688
0.00546603
0.0054651
0.00546415
0.00546324
0.00546245
0.00546179
0.00546129
0.00546093
0.00546068
0.00546053
0.00546044
0.00546041
0.00546436
0.00546439
0.00546446
0.00546459
0.00546479
0.00546509
0.00546548
0.00546597
0.00546653
0.00546712
0.00546769
0.00546819
0.0054686
0.00546888
0.00546901
0.00546896
0.00546871
0.00546825
0.00546765
0.00546692
0.00546607
0.00546514
0.00546418
0.00546328
0.00546247
0.00546182
0.00546131
0.00546094
0.00546069
0.00546053
0.00546045
0.00546041
0.00546438
0.00546441
0.00546449
0.00546462
0.00546483
0.00546513
0.00546554
0.00546604
0.00546661
0.00546721
0.00546779
0.0054683
0.0054687
0.00546897
0.00546909
0.00546904
0.00546878
0.00546832
0.00546772
0.00546699
0.00546614
0.00546521
0.00546426
0.00546334
0.00546253
0.00546186
0.00546134
0.00546096
0.00546071
0.00546055
0.00546046
0.00546043
0.00546442
0.00546445
0.00546453
0.00546467
0.00546489
0.0054652
0.00546562
0.00546615
0.00546674
0.00546737
0.00546798
0.0054685
0.0054689
0.00546915
0.00546926
0.00546918
0.0054689
0.00546843
0.00546782
0.00546709
0.00546625
0.00546532
0.00546437
0.00546344
0.00546262
0.00546193
0.00546139
0.005461
0.00546074
0.00546057
0.00546048
0.00546045
0.00546448
0.00546452
0.00546459
0.00546474
0.00546497
0.0054653
0.00546575
0.0054663
0.00546694
0.00546762
0.00546828
0.00546882
0.00546922
0.00546945
0.00546952
0.00546941
0.00546909
0.00546859
0.00546796
0.00546723
0.00546639
0.00546547
0.00546451
0.00546357
0.00546273
0.00546202
0.00546146
0.00546106
0.00546078
0.00546061
0.00546051
0.00546048
0.00546458
0.00546461
0.00546469
0.00546484
0.00546508
0.00546543
0.00546591
0.00546652
0.00546722
0.00546798
0.00546871
0.0054693
0.0054697
0.0054699
0.00546991
0.00546974
0.00546936
0.0054688
0.00546813
0.00546738
0.00546653
0.00546561
0.00546465
0.00546371
0.00546285
0.00546212
0.00546154
0.00546112
0.00546083
0.00546065
0.00546055
0.00546051
0.00546471
0.00546475
0.00546483
0.00546498
0.00546523
0.00546561
0.00546613
0.0054668
0.0054676
0.00546847
0.0054693
0.00546995
0.00547036
0.00547051
0.00547045
0.00547018
0.0054697
0.00546905
0.00546832
0.00546752
0.00546666
0.00546574
0.00546478
0.00546383
0.00546296
0.00546221
0.00546162
0.00546118
0.00546088
0.0054607
0.00546059
0.00546055
0.00546491
0.00546494
0.00546502
0.00546518
0.00546545
0.00546585
0.00546642
0.00546718
0.00546809
0.0054691
0.00547005
0.00547079
0.00547121
0.00547131
0.00547115
0.00547076
0.00547013
0.00546935
0.00546851
0.00546764
0.00546674
0.0054658
0.00546483
0.00546389
0.00546302
0.00546227
0.00546167
0.00546123
0.00546092
0.00546073
0.00546063
0.00546059
0.00546521
0.00546524
0.00546532
0.00546548
0.00546576
0.00546619
0.00546682
0.00546767
0.00546872
0.00546989
0.00547098
0.0054718
0.00547223
0.00547227
0.005472
0.00547144
0.00547063
0.00546966
0.00546866
0.00546769
0.00546672
0.00546575
0.00546478
0.00546384
0.00546298
0.00546225
0.00546166
0.00546123
0.00546093
0.00546075
0.00546065
0.00546061
0.00546566
0.00546569
0.00546577
0.00546593
0.00546622
0.00546669
0.00546739
0.00546835
0.00546954
0.00547086
0.00547209
0.00547298
0.00547341
0.00547338
0.00547297
0.00547224
0.0054712
0.00546999
0.00546879
0.00546765
0.00546658
0.00546556
0.00546457
0.00546365
0.00546283
0.00546213
0.00546158
0.00546118
0.00546091
0.00546074
0.00546065
0.00546062
0.00546633
0.00546636
0.00546644
0.00546661
0.00546692
0.00546743
0.0054682
0.00546927
0.0054706
0.00547205
0.00547338
0.00547432
0.00547472
0.00547461
0.00547407
0.00547316
0.00547189
0.00547042
0.00546896
0.00546761
0.00546639
0.00546527
0.00546426
0.00546335
0.00546258
0.00546194
0.00546146
0.00546112
0.00546089
0.00546075
0.00546068
0.00546066
0.00546731
0.00546734
0.00546743
0.00546761
0.00546795
0.00546851
0.00546936
0.00547053
0.00547197
0.00547352
0.00547489
0.00547582
0.00547618
0.00547599
0.00547538
0.00547437
0.00547295
0.00547125
0.00546953
0.00546791
0.00546645
0.00546518
0.00546408
0.00546316
0.00546242
0.00546186
0.00546146
0.00546119
0.00546104
0.00546096
0.00546092
0.00546092
0.00546865
0.00546868
0.00546878
0.00546899
0.00546937
0.00547
0.00547093
0.00547219
0.0054737
0.00547528
0.00547664
0.00547753
0.00547785
0.00547768
0.00547714
0.00547623
0.0054749
0.0054732
0.00547135
0.00546949
0.00546776
0.00546621
0.0054649
0.00546384
0.00546305
0.00546251
0.00546217
0.00546199
0.00546193
0.00546193
0.00546196
0.00546198
0.00547033
0.00547037
0.00547049
0.00547073
0.00547117
0.00547186
0.00547288
0.00547421
0.00547577
0.00547734
0.00547865
0.00547952
0.00547991
0.00547995
0.00547976
0.00547932
0.00547853
0.00547733
0.00547581
0.00547409
0.0054723
0.00547056
0.00546895
0.00546758
0.00546651
0.00546575
0.0054653
0.00546509
0.00546505
0.0054651
0.00546516
0.0054652
0.0054722
0.00547224
0.00547237
0.00547265
0.00547313
0.0054739
0.00547499
0.00547638
0.00547797
0.00547953
0.00548085
0.00548183
0.0054825
0.005483
0.00548345
0.00548385
0.00548408
0.00548397
0.00548348
0.00548263
0.00548149
0.00548013
0.00547865
0.00547716
0.00547577
0.00547457
0.00547366
0.00547305
0.00547271
0.00547257
0.00547254
0.00547254
0.00547395
0.00547399
0.00547413
0.00547441
0.0054749
0.00547567
0.00547676
0.00547815
0.00547974
0.00548137
0.00548285
0.00548411
0.00548519
0.00548621
0.00548727
0.00548843
0.00548957
0.00549051
0.00549117
0.00549154
0.00549159
0.00549132
0.00549074
0.00548988
0.00548883
0.00548768
0.00548657
0.00548562
0.00548489
0.00548442
0.00548418
0.00548409
0.00547529
0.00547533
0.00547545
0.0054757
0.00547615
0.00547686
0.00547788
0.0054792
0.00548076
0.00548241
0.00548402
0.00548546
0.00548673
0.00548791
0.00548906
0.00549022
0.00549135
0.00549239
0.00549334
0.00549422
0.00549499
0.00549561
0.00549602
0.00549621
0.00549615
0.00549586
0.0054954
0.00549486
0.00549435
0.00549394
0.00549369
0.00549358
0.00547613
0.00547617
0.00547628
0.0054765
0.00547689
0.00547752
0.00547842
0.00547962
0.00548106
0.00548266
0.00548425
0.00548571
0.00548697
0.00548804
0.00548895
0.00548971
0.00549035
0.00549098
0.00549173
0.0054926
0.00549353
0.00549446
0.00549532
0.00549603
0.00549658
0.00549694
0.00549713
0.00549717
0.00549712
0.00549702
0.00549693
0.00549689
0.00547662
0.00547665
0.00547675
0.00547694
0.00547728
0.00547782
0.0054786
0.00547965
0.00548095
0.00548242
0.00548393
0.00548533
0.00548653
0.00548747
0.00548816
0.0054886
0.0054889
0.00548925
0.00548985
0.00549073
0.00549182
0.00549302
0.00549419
0.00549523
0.00549608
0.00549671
0.00549714
0.00549741
0.00549754
0.00549759
0.0054976
0.0054976
0.00547688
0.00547691
0.005477
0.00547717
0.00547746
0.00547792
0.00547858
0.00547949
0.00548064
0.00548195
0.00548333
0.00548464
0.00548576
0.00548662
0.00548719
0.0054875
0.00548766
0.00548792
0.00548845
0.00548932
0.00549047
0.00549181
0.0054932
0.00549451
0.00549563
0.00549651
0.00549713
0.00549752
0.00549775
0.00549786
0.00549789
0.0054979
0.00547701
0.00547704
0.00547711
0.00547726
0.00547751
0.0054779
0.00547847
0.00547925
0.00548023
0.00548138
0.00548261
0.0054838
0.00548485
0.00548568
0.00548624
0.00548656
0.00548677
0.00548709
0.00548764
0.0054885
0.00548964
0.005491
0.00549247
0.00549393
0.00549524
0.00549631
0.0054971
0.00549763
0.00549794
0.00549809
0.00549815
0.00549816
0.00547712
0.00547714
0.0054772
0.00547731
0.00547752
0.00547784
0.00547832
0.00547898
0.00547982
0.00548081
0.00548189
0.00548297
0.00548396
0.00548479
0.00548542
0.00548588
0.00548627
0.00548673
0.00548737
0.00548823
0.00548934
0.00549065
0.0054921
0.00549358
0.00549497
0.00549616
0.00549708
0.00549772
0.00549811
0.00549832
0.0054984
0.00549842
0.00547732
0.00547733
0.00547736
0.00547743
0.00547758
0.00547783
0.00547822
0.00547878
0.00547949
0.00548035
0.00548131
0.00548231
0.00548328
0.00548416
0.00548492
0.00548558
0.0054862
0.00548684
0.00548756
0.00548844
0.00548949
0.00549071
0.00549207
0.00549348
0.00549485
0.00549608
0.00549708
0.00549781
0.00549828
0.00549853
0.00549863
0.00549866
0.00547774
0.00547773
0.00547771
0.00547773
0.00547781
0.00547798
0.00547829
0.00547875
0.00547938
0.00548016
0.00548105
0.00548202
0.00548302
0.00548398
0.0054849
0.00548577
0.00548661
0.0054874
0.00548818
0.00548904
0.00549001
0.00549111
0.00549233
0.00549362
0.00549491
0.0054961
0.00549712
0.0054979
0.00549843
0.00549872
0.00549885
0.00549888
0.00547849
0.00547845
0.00547839
0.00547834
0.00547834
0.00547844
0.00547869
0.0054791
0.00547969
0.00548044
0.00548133
0.00548233
0.00548337
0.00548443
0.00548548
0.00548651
0.00548749
0.00548837
0.00548917
0.00548998
0.00549084
0.00549179
0.00549284
0.00549397
0.00549512
0.00549622
0.00549721
0.00549801
0.00549857
0.0054989
0.00549905
0.00549909
0.00547966
0.00547958
0.00547947
0.00547936
0.00547932
0.00547939
0.00547962
0.00548004
0.00548064
0.00548142
0.00548234
0.00548336
0.00548445
0.00548556
0.00548667
0.00548777
0.0054888
0.00548969
0.00549045
0.00549117
0.00549191
0.0054927
0.00549357
0.0054945
0.00549548
0.00549646
0.00549736
0.00549813
0.0054987
0.00549906
0.00549923
0.00549927
0.00548128
0.00548117
0.00548103
0.00548091
0.00548089
0.005481
0.00548127
0.00548174
0.00548239
0.00548319
0.00548412
0.00548514
0.00548622
0.0054873
0.00548838
0.00548945
0.00549043
0.00549125
0.00549193
0.00549254
0.00549314
0.00549377
0.00549446
0.0054952
0.00549599
0.00549681
0.00549759
0.00549829
0.00549884
0.0054992
0.00549939
0.00549944
0.00548337
0.00548324
0.00548311
0.00548307
0.00548315
0.00548337
0.00548373
0.00548425
0.00548492
0.00548571
0.00548659
0.00548753
0.00548851
0.00548949
0.00549045
0.00549139
0.00549225
0.00549295
0.00549351
0.005494
0.00549447
0.00549495
0.00549547
0.00549603
0.00549663
0.00549727
0.0054979
0.0054985
0.005499
0.00549934
0.00549953
0.00549959
0.00548595
0.00548583
0.0054858
0.00548592
0.00548615
0.00548648
0.00548691
0.00548744
0.00548806
0.00548876
0.00548952
0.00549031
0.00549111
0.00549191
0.00549269
0.00549345
0.00549413
0.00549468
0.00549511
0.00549548
0.00549583
0.00549617
0.00549654
0.00549693
0.00549736
0.00549782
0.00549829
0.00549876
0.00549917
0.00549948
0.00549965
0.00549971
0.00548908
0.00548904
0.00548918
0.00548945
0.0054898
0.00549018
0.0054906
0.00549105
0.00549155
0.00549209
0.00549265
0.00549323
0.00549382
0.00549439
0.00549495
0.00549549
0.00549597
0.00549636
0.00549666
0.00549691
0.00549714
0.00549737
0.00549761
0.00549786
0.00549814
0.00549843
0.00549875
0.00549907
0.00549937
0.00549961
0.00549976
0.00549982
0.00549289
0.00549298
0.00549324
0.00549355
0.00549386
0.00549416
0.00549446
0.00549477
0.00549508
0.00549541
0.00549575
0.00549609
0.00549644
0.00549678
0.00549711
0.00549742
0.0054977
0.00549793
0.0054981
0.00549824
0.00549837
0.0054985
0.00549863
0.00549876
0.00549891
0.00549908
0.00549925
0.00549943
0.00549961
0.00549976
0.00549986
0.0054999
0.00549751
0.00549758
0.00549772
0.00549785
0.00549797
0.00549809
0.0054982
0.0054983
0.00549841
0.00549852
0.00549863
0.00549874
0.00549886
0.00549897
0.00549907
0.00549918
0.00549927
0.00549934
0.00549939
0.00549944
0.00549948
0.00549952
0.00549956
0.0054996
0.00549965
0.0054997
0.00549975
0.00549981
0.00549987
0.00549992
0.00549995
0.00549997
)
;

boundaryField
{
    movingWall
    {
        type            fixedValue;
        value           uniform 0.0055;
    }
    fixedWalls
    {
        type            zeroGradient;
    }
    floor
    {
        type            zeroGradient;
    }
    frontAndBack
    {
        type            empty;
    }
}


// ************************************************************************* //
