/*--------------------------------*- C++ -*----------------------------------*\
| =========                 |                                                 |
| \\      /  F ield         | OpenFOAM: The Open Source CFD Toolbox           |
|  \\    /   O peration     | Version:  2212                                  |
|   \\  /    A nd           | Website:  www.openfoam.com                      |
|    \\/     M anipulation  |                                                 |
\*---------------------------------------------------------------------------*/
FoamFile
{
    version     2.0;
    format      ascii;
    arch        "LSB;label=64;scalar=64";
    class       volScalarField;
    location    "1430";
    object      Sch4;
}
// * * * * * * * * * * * * * * * * * * * * * * * * * * * * * * * * * * * * * //

dimensions      [1 -3 0 0 0 0 0];

internalField   nonuniform List<scalar> 
1024
(
0.0351266
0.0351365
0.0351607
0.0352047
0.0352745
0.0353756
0.0355108
0.0356791
0.0358733
0.0360811
0.0362864
0.0364725
0.0366272
0.0367427
0.0368132
0.0368314
0.0367802
0.036654
0.0364684
0.0362329
0.0359573
0.0356568
0.0353519
0.0350648
0.0348136
0.0346081
0.0344504
0.0343366
0.0342597
0.0342119
0.0341857
0.0341751
0.0351298
0.0351398
0.0351644
0.0352091
0.0352801
0.0353827
0.03552
0.0356903
0.0358864
0.036096
0.0363024
0.0364888
0.0366431
0.0367577
0.0368273
0.0368448
0.0367929
0.0366663
0.0364807
0.0362454
0.0359701
0.0356695
0.0353638
0.0350754
0.0348223
0.0346148
0.0344554
0.0343403
0.0342625
0.0342141
0.0341876
0.0341769
0.0351374
0.0351477
0.0351729
0.035219
0.0352922
0.0353981
0.0355394
0.0357144
0.0359157
0.0361305
0.0363413
0.0365297
0.0366835
0.036796
0.0368628
0.0368774
0.036823
0.0366944
0.0365076
0.0362722
0.0359972
0.0356964
0.0353893
0.035098
0.0348411
0.0346296
0.0344666
0.0343486
0.0342689
0.0342193
0.0341922
0.0341812
0.0351511
0.0351617
0.0351878
0.0352356
0.0353119
0.0354225
0.0355703
0.0357536
0.0359649
0.0361909
0.0364119
0.0366059
0.0367597
0.0368682
0.036929
0.0369371
0.0368763
0.0367421
0.0365515
0.0363144
0.036039
0.0357376
0.0354284
0.0351331
0.0348706
0.0346531
0.0344845
0.0343623
0.0342795
0.034228
0.0342
0.0341886
0.0351728
0.0351836
0.0352106
0.0352604
0.0353405
0.0354572
0.0356142
0.0358104
0.0360386
0.0362843
0.0365242
0.0367296
0.036885
0.0369873
0.0370377
0.0370337
0.03696
0.0368137
0.036614
0.0363715
0.0360937
0.0357908
0.0354789
0.0351787
0.0349094
0.0346844
0.034509
0.0343812
0.0342945
0.0342407
0.0342113
0.0341994
0.0352052
0.0352161
0.0352437
0.0352956
0.0353799
0.0355042
0.0356736
0.0358884
0.0361421
0.0364185
0.0366881
0.0369129
0.0370729
0.0371671
0.0372017
0.0371779
0.037082
0.0369136
0.0366959
0.0364415
0.0361573
0.0358507
0.0355353
0.0352298
0.0349535
0.0347206
0.0345378
0.0344041
0.0343132
0.0342567
0.034226
0.0342135
0.0352525
0.0352633
0.0352914
0.035345
0.0354338
0.0355672
0.0357525
0.0359924
0.0362813
0.0366006
0.0369117
0.0371652
0.0373346
0.0374198
0.0374331
0.0373803
0.0372495
0.0370449
0.0367965
0.0365203
0.0362228
0.0359088
0.0355883
0.0352777
0.0349952
0.0347558
0.0345667
0.0344278
0.0343333
0.0342746
0.0342427
0.0342298
0.0353216
0.0353322
0.0353605
0.0354157
0.0355092
0.0356531
0.0358579
0.0361294
0.0364635
0.036837
0.0372005
0.037492
0.037676
0.0377523
0.0377395
0.0376479
0.0374675
0.037209
0.0369131
0.0366013
0.0362806
0.0359532
0.0356254
0.0353102
0.035024
0.034781
0.0345889
0.0344476
0.0343515
0.0342918
0.0342595
0.0342465
0.0354244
0.0354346
0.0354628
0.0355196
0.0356183
0.0357742
0.0360019
0.0363111
0.0366984
0.0371349
0.0375584
0.037894
0.0380965
0.0381648
0.0381226
0.0379833
0.0377373
0.0374049
0.0370412
0.0366767
0.0363201
0.0359713
0.0356328
0.0353139
0.0350279
0.0347868
0.0345972
0.0344583
0.0343643
0.0343061
0.0342747
0.0342622
0.0355789
0.0355889
0.0356174
0.0356762
0.0357812
0.0359511
0.0362049
0.0365565
0.0370021
0.0375052
0.0379903
0.0383702
0.0385916
0.0386523
0.0385796
0.0383868
0.038062
0.037636
0.0371825
0.0367449
0.0363365
0.0359559
0.0356024
0.0352808
0.0349998
0.0347678
0.0345883
0.0344587
0.0343721
0.0343193
0.0342913
0.0342803
0.0358108
0.035821
0.0358508
0.0359134
0.0360272
0.0362143
0.036498
0.0368949
0.0373991
0.0379651
0.0385051
0.0389224
0.0391586
0.0392127
0.0391141
0.0388716
0.0384657
0.0379345
0.037372
0.0368382
0.0363569
0.0359288
0.0355513
0.035225
0.0349527
0.0347368
0.0345757
0.0344638
0.0343921
0.0343507
0.0343302
0.0343227
0.0361499
0.0361611
0.0361939
0.0362634
0.0363902
0.0365995
0.0369174
0.0373607
0.0379187
0.0385365
0.0391168
0.0395584
0.0398048
0.0398606
0.0397565
0.0394925
0.0390361
0.0384207
0.0377494
0.0370977
0.0365126
0.0360074
0.0355818
0.035235
0.0349647
0.0347655
0.0346289
0.0345438
0.0344973
0.0344766
0.0344706
0.0344704
0.0366179
0.0366312
0.0366695
0.0367497
0.0368948
0.0371323
0.0374889
0.0379784
0.0385826
0.039237
0.0398397
0.0402942
0.0405572
0.040645
0.0405898
0.0403827
0.0399745
0.0393704
0.0386564
0.0379125
0.0372065
0.0365805
0.0360515
0.0356322
0.035324
0.0351174
0.0349962
0.03494
0.0349271
0.034937
0.0349533
0.0349646
0.037209
0.0372253
0.0372714
0.0373666
0.0375363
0.0378091
0.0382102
0.0387465
0.0393897
0.0400666
0.0406797
0.0411518
0.0414648
0.041652
0.0417482
0.0417443
0.0415785
0.0412041
0.0406539
0.0399863
0.0392662
0.0385524
0.0378889
0.0373204
0.0368764
0.0365661
0.0363836
0.0363047
0.036294
0.0363172
0.0363473
0.0363669
0.0378662
0.0378856
0.0379401
0.0380515
0.0382472
0.0385561
0.0389992
0.0395754
0.0402479
0.0409437
0.0415806
0.0421093
0.0425375
0.0429112
0.0432713
0.0436246
0.0439131
0.0440393
0.043968
0.0437129
0.0433001
0.0427653
0.0421557
0.0415252
0.0409272
0.0404104
0.0400127
0.0397469
0.0395977
0.0395334
0.039518
0.039521
0.038477
0.0384975
0.0385546
0.0386706
0.0388729
0.0391894
0.0396391
0.0402205
0.0409019
0.0416232
0.0423183
0.0429491
0.0435262
0.0440951
0.0447017
0.045375
0.0460798
0.0467163
0.0472218
0.047576
0.0477599
0.0477627
0.047587
0.0472527
0.0468
0.046287
0.045778
0.0453328
0.0449932
0.0447721
0.0446551
0.0446124
0.0389195
0.0389391
0.0389928
0.0391007
0.0392879
0.0395806
0.0399986
0.0405453
0.0411988
0.0419111
0.0426233
0.0432917
0.0439091
0.0445009
0.0451031
0.0457515
0.0464499
0.0471725
0.0478981
0.0486038
0.0492471
0.0497835
0.0501758
0.0504005
0.0504524
0.0503487
0.0501293
0.0498518
0.0495798
0.0493631
0.0492256
0.0491654
0.0391682
0.0391866
0.0392352
0.0393309
0.0394949
0.0397507
0.040118
0.0406041
0.0411955
0.0418542
0.0425256
0.0431569
0.0437183
0.0442079
0.0446421
0.0450519
0.0454787
0.0459952
0.0466467
0.0474223
0.0482639
0.0490991
0.0498592
0.0504905
0.0509606
0.0512613
0.0514063
0.0514284
0.0513737
0.0512913
0.0512209
0.0511838
0.0392807
0.0392978
0.0393418
0.0394259
0.0395676
0.0397867
0.0401014
0.0405211
0.0410383
0.0416237
0.0422287
0.042798
0.0432875
0.0436757
0.043964
0.0441803
0.0443937
0.0447334
0.045284
0.0460619
0.0470168
0.0480621
0.0490957
0.0500243
0.050782
0.0513403
0.0517041
0.0519032
0.051982
0.0519893
0.051969
0.0519516
0.0393119
0.0393278
0.0393674
0.0394414
0.0395637
0.0397505
0.0400174
0.0403741
0.0408171
0.0413243
0.041855
0.042358
0.0427857
0.0431075
0.0433176
0.0434435
0.0435698
0.0438366
0.0443248
0.0450662
0.0460374
0.0471745
0.0483774
0.0495312
0.0505332
0.0513195
0.0518717
0.0522107
0.0523824
0.0524434
0.0524483
0.0524388
0.0393071
0.0393207
0.0393547
0.0394179
0.0395219
0.03968
0.039905
0.0402054
0.0405798
0.0410118
0.0414697
0.0419109
0.042293
0.0425863
0.0427846
0.0429173
0.0430697
0.0433589
0.043843
0.0445543
0.045491
0.0466198
0.0478688
0.0491324
0.0502935
0.0512585
0.0519781
0.0524512
0.052715
0.0528282
0.0528553
0.0528512
0.0393192
0.0393282
0.0393521
0.0393997
0.0394816
0.0396099
0.0397957
0.040046
0.0403604
0.0407272
0.0411236
0.0415184
0.0418792
0.0421834
0.0424281
0.0426441
0.0429014
0.0432725
0.0437905
0.0444868
0.0453744
0.0464434
0.047651
0.0489185
0.0501418
0.0512152
0.0520616
0.0526517
0.053004
0.0531712
0.0532222
0.0532236
0.0394167
0.0394169
0.0394232
0.0394451
0.0394954
0.0395874
0.0397328
0.0399388
0.0402059
0.0405271
0.0408875
0.0412664
0.0416419
0.0419984
0.0423361
0.0426834
0.0430825
0.0435545
0.0441133
0.0447929
0.0456192
0.0466013
0.0477188
0.0489174
0.0501166
0.0512224
0.0521445
0.0528253
0.0532573
0.0534784
0.0535555
0.0535633
0.0396782
0.0396643
0.0396432
0.0396278
0.0396353
0.0396839
0.0397895
0.0399617
0.0402035
0.0405111
0.0408746
0.0412794
0.0417091
0.0421515
0.0426061
0.0430954
0.0436297
0.0441861
0.0447683
0.0454161
0.0461642
0.0470363
0.0480313
0.0491167
0.0502332
0.0513048
0.0522466
0.0529839
0.0534809
0.0537531
0.0538579
0.0538733
0.0401774
0.0401442
0.0400882
0.0400288
0.0399908
0.04
0.0400783
0.0402401
0.0404898
0.0408236
0.0412309
0.0416966
0.0422042
0.0427409
0.0433031
0.0439058
0.0445331
0.045134
0.0457094
0.0463044
0.0469593
0.0477054
0.0485555
0.0494967
0.0504906
0.0514788
0.0523882
0.0531417
0.0536821
0.0539985
0.0541311
0.0541555
0.0409696
0.0409135
0.0408226
0.040728
0.0406632
0.0406595
0.0407427
0.0409296
0.0412224
0.0416123
0.0420836
0.0426173
0.0431941
0.0437995
0.0444271
0.0450862
0.0457453
0.0463418
0.0468781
0.0474015
0.0479536
0.0485676
0.0492635
0.0500426
0.0508854
0.0517527
0.0525863
0.0533144
0.0538699
0.0542181
0.0543768
0.0544112
0.042087
0.0420083
0.0418971
0.0418001
0.0417541
0.0417861
0.0419177
0.0421618
0.0425141
0.04296
0.0434798
0.0440519
0.0446562
0.0452781
0.0459103
0.046559
0.0471876
0.0477348
0.0482054
0.0486447
0.0490914
0.0495763
0.0501211
0.050735
0.0514124
0.0521319
0.0528537
0.0535177
0.0540556
0.0544171
0.0545962
0.0546412
0.0435473
0.0434543
0.0433582
0.0433148
0.0433471
0.043463
0.0436716
0.0439773
0.0443705
0.0448369
0.0453578
0.0459134
0.0464863
0.0470638
0.0476398
0.0482187
0.0487666
0.0492311
0.0496186
0.0499684
0.0503131
0.0506787
0.0510848
0.051543
0.0520558
0.0526152
0.053199
0.0537647
0.0542517
0.0546023
0.0547916
0.0548462
0.0453715
0.0452863
0.0452611
0.0453291
0.0454767
0.0456879
0.0459599
0.0462915
0.0466767
0.0471068
0.0475692
0.0480494
0.0485347
0.049016
0.0494885
0.0499557
0.0503905
0.0507528
0.0510489
0.0513096
0.0515602
0.0518201
0.0521052
0.0524258
0.0527874
0.0531896
0.0536236
0.0540651
0.0544694
0.0547821
0.0549661
0.0550268
0.0476057
0.0475715
0.0476693
0.0478581
0.0480912
0.0483473
0.0486231
0.0489196
0.0492379
0.0495765
0.0499298
0.0502897
0.0506482
0.0509996
0.0513408
0.0516742
0.0519809
0.0522338
0.0524378
0.0526144
0.0527807
0.0529501
0.0531333
0.0533383
0.0535698
0.0538302
0.0541179
0.0544228
0.054719
0.0549657
0.0551244
0.055184
0.0503402
0.0504045
0.050595
0.05081
0.0510251
0.0512335
0.0514363
0.0516377
0.0518423
0.0520528
0.0522679
0.0524844
0.0526982
0.0529063
0.0531069
0.0533015
0.0534792
0.0536249
0.0537416
0.0538414
0.0539342
0.0540273
0.0541269
0.0542376
0.0543623
0.054503
0.0546604
0.0548318
0.0550064
0.0551624
0.0552727
0.0553199
0.0536869
0.0537382
0.0538368
0.053931
0.054018
0.054098
0.0541721
0.0542428
0.0543125
0.0543828
0.0544539
0.0545249
0.0545948
0.0546625
0.0547276
0.0547905
0.0548477
0.0548945
0.0549319
0.0549637
0.054993
0.0550222
0.0550532
0.0550875
0.055126
0.0551694
0.055218
0.0552714
0.0553271
0.0553792
0.0554191
0.0554384
)
;

boundaryField
{
    movingWall
    {
        type            fixedValue;
        value           uniform 0.0555;
    }
    fixedWalls
    {
        type            zeroGradient;
    }
    floor
    {
        type            zeroGradient;
    }
    frontAndBack
    {
        type            empty;
    }
}


// ************************************************************************* //
