/*--------------------------------*- C++ -*----------------------------------*\
| =========                 |                                                 |
| \\      /  F ield         | OpenFOAM: The Open Source CFD Toolbox           |
|  \\    /   O peration     | Version:  2212                                  |
|   \\  /    A nd           | Website:  www.openfoam.com                      |
|    \\/     M anipulation  |                                                 |
\*---------------------------------------------------------------------------*/
FoamFile
{
    version     2.0;
    format      ascii;
    arch        "LSB;label=64;scalar=64";
    class       volScalarField;
    location    "1430";
    object      Sco2;
}
// * * * * * * * * * * * * * * * * * * * * * * * * * * * * * * * * * * * * * //

dimensions      [1 -3 0 0 0 0 0];

internalField   nonuniform List<scalar> 
1024
(
0.00558349
0.00558535
0.00558991
0.0055982
0.00561135
0.00563038
0.00565587
0.00568755
0.00572414
0.00576329
0.00580196
0.00583701
0.00586616
0.00588793
0.00590124
0.00590474
0.00589516
0.00587144
0.00583651
0.00579216
0.00574026
0.00568363
0.00562618
0.00557208
0.00552472
0.00548598
0.00545625
0.0054348
0.00542031
0.00541129
0.00540636
0.00540434
0.00558409
0.00558597
0.0055906
0.00559903
0.0056124
0.00563174
0.00565759
0.00568966
0.00572662
0.00576608
0.00580497
0.00584008
0.00586915
0.00589077
0.00590391
0.00590726
0.00589755
0.00587376
0.00583882
0.00579452
0.00574267
0.00568603
0.00562843
0.00557407
0.00552636
0.00548725
0.0054572
0.00543549
0.00542083
0.0054117
0.00540671
0.00540468
0.00558553
0.00558746
0.00559222
0.00560089
0.00561468
0.00563462
0.00566124
0.00569421
0.00573214
0.00577259
0.0058123
0.00584779
0.00587677
0.00589799
0.0059106
0.00591341
0.00590322
0.00587905
0.00584391
0.00579958
0.00574779
0.0056911
0.00563323
0.00557834
0.00552991
0.00549004
0.0054593
0.00543706
0.00542203
0.00541268
0.00540757
0.00540549
0.00558811
0.0055901
0.00559501
0.00560402
0.0056184
0.00563923
0.00566707
0.0057016
0.00574141
0.00578397
0.00582561
0.00586216
0.00589113
0.00591159
0.00592308
0.00592467
0.00591329
0.00588805
0.00585218
0.00580753
0.00575566
0.00569887
0.00564061
0.00558495
0.00553547
0.00549447
0.00546269
0.00543964
0.00542403
0.00541433
0.00540904
0.00540688
0.0055922
0.00559423
0.00559931
0.0056087
0.00562378
0.00564577
0.00567535
0.00571231
0.0057553
0.00580159
0.00584678
0.00588547
0.00591475
0.00593404
0.00594357
0.00594288
0.00592908
0.00590157
0.00586397
0.00581829
0.00576597
0.0057089
0.00565014
0.00559355
0.00554279
0.00550038
0.0054673
0.00544321
0.00542687
0.00541671
0.00541118
0.00540893
0.0055983
0.00560035
0.00560557
0.00561533
0.00563121
0.00565463
0.00568655
0.00572702
0.00577481
0.00582689
0.00587766
0.00592001
0.00595017
0.00596794
0.00597451
0.0059701
0.00595209
0.0059204
0.00587941
0.0058315
0.00577796
0.0057202
0.00566077
0.00560319
0.0055511
0.00550721
0.00547274
0.00544752
0.00543039
0.00541973
0.00541393
0.00541159
0.00560721
0.00560926
0.00561455
0.00562466
0.00564138
0.00566651
0.00570143
0.00574663
0.00580107
0.00586122
0.00591981
0.00596758
0.0059995
0.00601558
0.00601815
0.00600827
0.0059837
0.00594519
0.0058984
0.00584636
0.00579031
0.00573114
0.00567076
0.00561222
0.00555897
0.00551383
0.00547818
0.005452
0.00543418
0.0054231
0.00541709
0.00541466
0.00562026
0.00562225
0.00562757
0.00563798
0.0056556
0.00568271
0.0057213
0.00577248
0.00583541
0.00590579
0.00597426
0.00602918
0.00606385
0.00607828
0.00607594
0.00605876
0.00602482
0.00597614
0.00592038
0.00586164
0.00580121
0.00573952
0.00567774
0.00561833
0.00556439
0.00551859
0.00548237
0.00545573
0.00543761
0.00542635
0.00542026
0.0054178
0.00563962
0.00564155
0.00564687
0.00565757
0.00567617
0.00570554
0.00574845
0.00580673
0.0058797
0.00596194
0.00604173
0.00610496
0.00614313
0.00615605
0.00614818
0.00612202
0.00607571
0.00601309
0.00594454
0.00587585
0.00580864
0.00574291
0.00567913
0.00561903
0.00556511
0.00551967
0.00548392
0.00545774
0.00544
0.00542904
0.00542312
0.00542075
0.00566873
0.00567062
0.00567598
0.00568708
0.00570687
0.00573888
0.00578673
0.00585299
0.00593696
0.00603175
0.00612314
0.00619473
0.00623648
0.00624797
0.00623437
0.00619814
0.00613696
0.00605667
0.00597118
0.00588869
0.00581171
0.00573999
0.00567337
0.00561276
0.00555981
0.00551608
0.00548222
0.00545779
0.00544146
0.00543152
0.00542623
0.00542414
0.00571243
0.00571435
0.00571995
0.00573177
0.00575322
0.00578848
0.00584196
0.00591676
0.00601178
0.00611844
0.00622019
0.00629882
0.00634337
0.00635364
0.00633517
0.00628954
0.00621305
0.0061129
0.00600683
0.00590619
0.00581548
0.00573481
0.00566368
0.00560219
0.00555088
0.00551018
0.00547982
0.00545872
0.0054452
0.0054374
0.00543352
0.00543211
0.00577628
0.0057784
0.00578458
0.00579768
0.00582158
0.00586104
0.00592097
0.00600451
0.00610968
0.00622611
0.00633547
0.0064187
0.00646519
0.0064758
0.00645626
0.00640654
0.00632049
0.00620441
0.00607781
0.00595494
0.00584467
0.00574947
0.00566929
0.00560396
0.00555304
0.0055155
0.00548977
0.00547372
0.00546495
0.00546105
0.00545991
0.00545987
0.00586441
0.00586693
0.00587414
0.00588926
0.00591662
0.00596139
0.0060286
0.00612087
0.00623475
0.00635808
0.00647166
0.00655736
0.00660698
0.00662359
0.00661322
0.00657417
0.00649713
0.00638316
0.00624847
0.00610819
0.00597511
0.00585717
0.00575752
0.00567856
0.00562053
0.00558161
0.00555879
0.00554822
0.00554578
0.00554765
0.00555072
0.00555285
0.00597572
0.00597879
0.00598748
0.00600543
0.00603741
0.00608884
0.00616443
0.00626554
0.00638676
0.00651435
0.00662989
0.00671889
0.00677793
0.00681321
0.00683132
0.00683048
0.00679905
0.00672829
0.0066244
0.00649848
0.0063627
0.00622819
0.00610322
0.00599617
0.00591259
0.00585419
0.00581985
0.00580503
0.00580304
0.00580742
0.00581311
0.0058168
0.00609944
0.00610311
0.00611338
0.00613437
0.00617125
0.00622947
0.00631298
0.00642158
0.00654832
0.00667946
0.0067995
0.00689913
0.00697981
0.00705017
0.00711792
0.0071843
0.00723843
0.00726198
0.00724832
0.00720009
0.00712218
0.00702137
0.00690651
0.00678778
0.00667519
0.00657792
0.00650309
0.00645311
0.00642506
0.00641297
0.00641011
0.00641067
0.00621445
0.00621831
0.00622907
0.00625093
0.00628906
0.00634869
0.00643343
0.006543
0.0066714
0.00680731
0.00693827
0.00705708
0.00716574
0.00727281
0.00738692
0.00751358
0.00764619
0.00776596
0.00786105
0.00792767
0.00796221
0.00796265
0.0079295
0.00786651
0.00778126
0.00768466
0.00758883
0.00750504
0.00744111
0.0073995
0.00737749
0.00736946
0.00629776
0.00630145
0.00631157
0.00633191
0.00636719
0.00642233
0.0065011
0.00660411
0.00672721
0.00686139
0.00699553
0.00712137
0.00723756
0.00734891
0.00746217
0.00758419
0.00771568
0.00785182
0.00798851
0.00812143
0.00824256
0.00834354
0.00841739
0.00845966
0.00846939
0.00844983
0.00840848
0.00835622
0.00830499
0.00826418
0.00823829
0.00822695
0.00634461
0.00634805
0.00635722
0.00637524
0.00640615
0.00645435
0.00652354
0.00661512
0.00672652
0.00685059
0.006977
0.00709584
0.00720146
0.00729353
0.00737516
0.00745226
0.00753268
0.00763006
0.00775289
0.00789903
0.00805754
0.00821481
0.00835792
0.00847676
0.00856527
0.00862185
0.00864912
0.00865327
0.00864295
0.00862743
0.00861417
0.00860717
0.00636577
0.006369
0.00637728
0.00639314
0.00641984
0.00646112
0.0065204
0.00659945
0.00669687
0.00680712
0.00692102
0.00702816
0.00712025
0.00719323
0.00724739
0.00728805
0.00732829
0.00739241
0.00749624
0.00764284
0.00782271
0.00801957
0.00821418
0.00838901
0.00853167
0.00863676
0.00870524
0.00874273
0.00875755
0.00875892
0.00875509
0.00875181
0.00637164
0.00637463
0.00638209
0.00639604
0.00641908
0.00645427
0.00650455
0.00657174
0.00665518
0.00675068
0.0068506
0.00694526
0.00702571
0.00708621
0.00712565
0.0071493
0.00717313
0.00722351
0.00731558
0.00745531
0.00763827
0.00785242
0.00807893
0.00829617
0.00848482
0.00863285
0.00873682
0.00880064
0.00883295
0.00884444
0.00884536
0.00884356
0.00637072
0.0063733
0.00637969
0.00639161
0.0064112
0.00644098
0.00648337
0.00653995
0.00661046
0.00669182
0.00677801
0.00686105
0.00693292
0.00698808
0.00702533
0.00705027
0.007079
0.00713355
0.00722484
0.00735888
0.00753532
0.00774793
0.00798313
0.00822106
0.00843968
0.00862137
0.00875685
0.00884593
0.00889558
0.00891691
0.00892201
0.00892122
0.00637299
0.00637468
0.0063792
0.00638816
0.00640359
0.00642776
0.00646276
0.00650992
0.00656912
0.0066382
0.00671282
0.00678712
0.00685502
0.00691223
0.00695824
0.00699889
0.00704738
0.00711732
0.00721496
0.00734614
0.00751334
0.00771467
0.00794209
0.00818077
0.00841109
0.00861321
0.00877257
0.00888368
0.00895001
0.00898148
0.00899109
0.00899135
0.00639132
0.00639136
0.00639254
0.00639669
0.00640616
0.0064235
0.0064509
0.00648969
0.00654
0.00660048
0.00666833
0.00673965
0.00681033
0.00687743
0.00694098
0.00700638
0.00708156
0.00717047
0.00727575
0.00740378
0.0075594
0.00774438
0.00795482
0.00818052
0.00840634
0.00861454
0.00878817
0.00891636
0.0089977
0.00903933
0.00905384
0.00905532
0.00644052
0.00643791
0.00643395
0.00643105
0.00643246
0.00644164
0.00646152
0.00649396
0.0065395
0.00659743
0.00666588
0.00674209
0.00682299
0.00690628
0.00699189
0.00708402
0.00718465
0.00728945
0.00739911
0.00752112
0.00766203
0.00782627
0.00801364
0.00821803
0.00842828
0.00863005
0.00880739
0.00894623
0.00903981
0.00909106
0.00911078
0.00911369
0.0065345
0.00652825
0.00651771
0.00650652
0.00649938
0.00650111
0.00651587
0.00654633
0.00659337
0.00665623
0.00673294
0.00682063
0.00691624
0.0070173
0.00712317
0.00723667
0.00735481
0.00746797
0.00757634
0.0076884
0.00781174
0.00795225
0.00811234
0.00828957
0.00847673
0.00866282
0.00883405
0.00897593
0.00907769
0.00913726
0.00916224
0.00916683
0.00668365
0.00667308
0.00665596
0.00663814
0.00662595
0.00662524
0.00664092
0.00667612
0.00673127
0.0068047
0.00689348
0.00699399
0.00710263
0.00721665
0.00733485
0.00745897
0.0075831
0.00769543
0.00779642
0.007895
0.00799897
0.00811459
0.00824565
0.00839236
0.00855107
0.00871439
0.00887134
0.00900845
0.00911305
0.00917862
0.00920849
0.00921497
0.00689405
0.00687923
0.00685829
0.00684001
0.00683134
0.00683736
0.00686213
0.00690812
0.00697446
0.00705845
0.00715637
0.00726412
0.00737795
0.00749509
0.00761416
0.00773632
0.00785471
0.00795776
0.00804637
0.0081291
0.00821322
0.00830453
0.00840713
0.00852274
0.00865029
0.00878578
0.00892169
0.00904672
0.00914802
0.00921608
0.00924981
0.00925829
0.00716904
0.00715153
0.00713343
0.00712524
0.0071313
0.00715312
0.0071924
0.00724996
0.00732402
0.00741187
0.00751
0.00761466
0.00772256
0.00783135
0.00793984
0.00804886
0.00815205
0.00823953
0.0083125
0.00837835
0.00844327
0.00851212
0.00858859
0.00867489
0.00877144
0.00887678
0.00898672
0.00909324
0.00918493
0.00925097
0.00928661
0.00929689
0.00751258
0.00749654
0.00749178
0.00750458
0.00753235
0.0075721
0.00762331
0.00768578
0.00775832
0.00783934
0.00792643
0.0080169
0.00810832
0.00819897
0.00828797
0.00837596
0.00845784
0.00852606
0.00858183
0.00863092
0.0086781
0.00872706
0.00878073
0.00884112
0.00890921
0.00898494
0.00906667
0.00914981
0.00922594
0.00928482
0.00931947
0.00933089
0.00793333
0.00792689
0.0079453
0.00798083
0.00802473
0.00807295
0.00812488
0.00818072
0.00824065
0.00830444
0.00837098
0.00843878
0.00850632
0.00857251
0.00863678
0.00869957
0.00875733
0.00880495
0.00884337
0.00887662
0.00890793
0.00893983
0.00897434
0.00901294
0.00905654
0.00910557
0.00915974
0.00921716
0.00927294
0.0093194
0.00934928
0.00936049
0.00844829
0.00846041
0.00849627
0.00853676
0.00857726
0.0086165
0.00865468
0.0086926
0.00873115
0.00877079
0.00881132
0.0088521
0.00889237
0.00893156
0.00896936
0.009006
0.00903948
0.00906691
0.00908888
0.00910768
0.00912514
0.00914268
0.00916145
0.00918228
0.00920577
0.00923227
0.0092619
0.00929417
0.00932705
0.00935643
0.0093772
0.00938609
0.00907855
0.00908821
0.00910678
0.00912452
0.0091409
0.00915596
0.00916992
0.00918323
0.00919635
0.0092096
0.00922299
0.00923637
0.00924953
0.00926229
0.00927455
0.00928639
0.00929717
0.00930599
0.00931302
0.00931901
0.00932453
0.00933003
0.00933587
0.00934233
0.00934958
0.00935774
0.00936689
0.00937695
0.00938744
0.00939725
0.00940476
0.00940841
)
;

boundaryField
{
    movingWall
    {
        type            fixedValue;
        value           uniform 0.00942;
    }
    fixedWalls
    {
        type            zeroGradient;
    }
    floor
    {
        type            zeroGradient;
    }
    frontAndBack
    {
        type            empty;
    }
}


// ************************************************************************* //
