/*--------------------------------*- C++ -*----------------------------------*\
| =========                 |                                                 |
| \\      /  F ield         | OpenFOAM: The Open Source CFD Toolbox           |
|  \\    /   O peration     | Version:  2212                                  |
|   \\  /    A nd           | Website:  www.openfoam.com                      |
|    \\/     M anipulation  |                                                 |
\*---------------------------------------------------------------------------*/
FoamFile
{
    version     2.0;
    format      ascii;
    arch        "LSB;label=64;scalar=64";
    class       volScalarField;
    location    "1430";
    object      Xli;
}
// * * * * * * * * * * * * * * * * * * * * * * * * * * * * * * * * * * * * * //

dimensions      [1 -3 0 0 0 0 0];

internalField   nonuniform List<scalar> 
1024
(
0.0423265
0.0423272
0.042329
0.0423322
0.0423372
0.0423445
0.0423543
0.0423665
0.0423805
0.0423955
0.0424102
0.0424234
0.0424343
0.0424422
0.0424467
0.0424472
0.0424426
0.0424327
0.0424186
0.0424011
0.0423806
0.0423582
0.0423355
0.042314
0.0422952
0.0422798
0.0422679
0.0422594
0.0422536
0.04225
0.042248
0.0422472
0.0423267
0.0423274
0.0423292
0.0423325
0.0423376
0.0423451
0.042355
0.0423673
0.0423815
0.0423965
0.0424113
0.0424245
0.0424354
0.0424432
0.0424477
0.0424481
0.0424435
0.0424335
0.0424195
0.0424019
0.0423815
0.0423591
0.0423364
0.0423148
0.0422958
0.0422803
0.0422683
0.0422596
0.0422538
0.0422501
0.0422481
0.0422473
0.0423273
0.042328
0.0423298
0.0423332
0.0423385
0.0423462
0.0423564
0.042369
0.0423835
0.042399
0.042414
0.0424274
0.0424382
0.0424459
0.0424501
0.0424504
0.0424455
0.0424354
0.0424213
0.0424038
0.0423834
0.0423611
0.0423382
0.0423165
0.0422972
0.0422814
0.0422691
0.0422602
0.0422542
0.0422505
0.0422485
0.0422476
0.0423283
0.042329
0.0423309
0.0423344
0.0423399
0.0423479
0.0423586
0.0423718
0.042387
0.0424032
0.042419
0.0424328
0.0424435
0.0424509
0.0424547
0.0424544
0.0424491
0.0424386
0.0424243
0.0424067
0.0423864
0.042364
0.042341
0.042319
0.0422994
0.0422831
0.0422704
0.0422612
0.042255
0.0422511
0.042249
0.0422482
0.0423298
0.0423306
0.0423326
0.0423362
0.042342
0.0423504
0.0423618
0.0423759
0.0423923
0.0424099
0.0424269
0.0424414
0.0424522
0.0424591
0.0424621
0.042461
0.0424547
0.0424434
0.0424285
0.0424106
0.0423901
0.0423678
0.0423446
0.0423223
0.0423022
0.0422854
0.0422722
0.0422626
0.0422561
0.042252
0.0422498
0.0422489
0.0423322
0.042333
0.042335
0.0423387
0.0423448
0.0423538
0.042366
0.0423815
0.0423996
0.0424194
0.0424385
0.0424543
0.0424653
0.0424715
0.0424733
0.0424707
0.0424628
0.04245
0.0424339
0.0424152
0.0423944
0.0423719
0.0423486
0.0423259
0.0423053
0.042288
0.0422743
0.0422642
0.0422574
0.0422532
0.0422509
0.0422499
0.0423356
0.0423364
0.0423384
0.0423423
0.0423487
0.0423583
0.0423717
0.0423889
0.0424095
0.0424322
0.0424542
0.0424719
0.0424835
0.0424889
0.0424889
0.0424841
0.0424738
0.0424584
0.0424403
0.0424202
0.0423986
0.0423757
0.0423522
0.0423292
0.0423083
0.0422904
0.0422763
0.0422659
0.0422588
0.0422544
0.042252
0.042251
0.0423406
0.0423414
0.0423434
0.0423474
0.0423541
0.0423645
0.0423792
0.0423986
0.0424224
0.0424489
0.0424745
0.0424947
0.042507
0.0425116
0.0425096
0.0425018
0.0424878
0.0424687
0.0424474
0.0424251
0.042402
0.0423783
0.0423544
0.0423313
0.0423101
0.0422921
0.0422778
0.0422672
0.04226
0.0422555
0.0422531
0.0422521
0.0423481
0.0423488
0.0423509
0.0423549
0.042362
0.0423732
0.0423895
0.0424116
0.0424391
0.0424699
0.0424995
0.0425226
0.0425359
0.0425395
0.0425351
0.0425237
0.042505
0.0424807
0.0424549
0.0424291
0.0424037
0.0423788
0.0423543
0.042331
0.04231
0.0422922
0.0422781
0.0422678
0.0422607
0.0422564
0.042254
0.0422531
0.0423593
0.04236
0.0423621
0.0423663
0.0423738
0.0423859
0.042404
0.042429
0.0424606
0.0424959
0.0425296
0.0425554
0.0425696
0.0425722
0.0425652
0.0425497
0.0425253
0.0424946
0.0424626
0.042432
0.0424033
0.0423764
0.0423511
0.0423278
0.0423073
0.0422903
0.042277
0.0422674
0.0422609
0.042257
0.0422548
0.042254
0.0423762
0.0423769
0.042379
0.0423834
0.0423916
0.0424049
0.042425
0.0424531
0.0424886
0.0425281
0.0425653
0.0425932
0.0426079
0.0426095
0.0426001
0.0425807
0.0425505
0.0425124
0.0424731
0.0424361
0.0424026
0.0423726
0.0423459
0.0423226
0.0423029
0.0422872
0.0422753
0.042267
0.0422617
0.0422585
0.0422569
0.0422563
0.0424007
0.0424015
0.0424038
0.0424088
0.0424177
0.0424325
0.042455
0.0424862
0.0425252
0.0425679
0.0426074
0.0426364
0.0426512
0.0426523
0.042642
0.0426207
0.0425867
0.0425427
0.0424959
0.0424509
0.0424105
0.0423755
0.0423458
0.0423213
0.0423021
0.0422878
0.0422778
0.0422715
0.0422679
0.0422663
0.0422657
0.0422656
0.0424346
0.0424355
0.0424382
0.0424438
0.042454
0.0424707
0.0424957
0.0425299
0.0425717
0.0426165
0.0426569
0.0426862
0.0427014
0.0427041
0.0426968
0.042679
0.042648
0.0426047
0.0425547
0.0425033
0.0424548
0.0424117
0.0423752
0.0423461
0.0423246
0.0423101
0.0423014
0.0422972
0.0422961
0.0422966
0.0422976
0.0422983
0.0424773
0.0424784
0.0424816
0.0424882
0.0425
0.042519
0.0425469
0.0425839
0.042628
0.0426737
0.0427142
0.0427441
0.0427623
0.0427716
0.0427744
0.0427704
0.0427556
0.0427274
0.0426881
0.0426415
0.0425918
0.0425428
0.0424975
0.0424586
0.0424282
0.042407
0.0423944
0.0423888
0.042388
0.0423895
0.0423915
0.0423928
0.0425246
0.042526
0.0425297
0.0425374
0.0425509
0.0425722
0.0426027
0.0426421
0.0426878
0.0427343
0.042776
0.0428096
0.0428357
0.0428577
0.0428787
0.0428988
0.0429145
0.0429195
0.0429118
0.0428923
0.0428628
0.0428257
0.0427839
0.0427411
0.0427006
0.0426658
0.042639
0.0426211
0.0426111
0.0426068
0.0426058
0.042606
0.0425688
0.0425702
0.0425741
0.042582
0.0425959
0.0426176
0.0426484
0.042688
0.0427342
0.0427825
0.0428284
0.0428692
0.0429059
0.0429417
0.0429797
0.0430216
0.0430648
0.0431031
0.0431327
0.0431526
0.0431618
0.0431595
0.0431461
0.0431229
0.0430923
0.043058
0.0430243
0.0429949
0.0429725
0.042958
0.0429503
0.0429475
0.0426015
0.0426028
0.0426064
0.0426137
0.0426265
0.0426465
0.0426752
0.0427126
0.0427571
0.0428053
0.0428529
0.0428971
0.0429374
0.0429757
0.0430142
0.043055
0.0430978
0.043141
0.0431836
0.0432246
0.0432617
0.0432924
0.0433146
0.0433268
0.0433287
0.0433213
0.0433069
0.0432891
0.0432718
0.043258
0.0432493
0.0432455
0.0426206
0.0426218
0.0426251
0.0426315
0.0426427
0.0426603
0.0426855
0.042719
0.0427596
0.0428047
0.0428503
0.0428929
0.0429305
0.042963
0.0429913
0.0430173
0.0430431
0.043073
0.0431102
0.0431545
0.0432024
0.04325
0.0432933
0.0433294
0.0433564
0.0433737
0.0433823
0.0433837
0.0433806
0.0433759
0.0433718
0.0433697
0.0426302
0.0426313
0.0426342
0.0426399
0.0426495
0.0426646
0.0426863
0.0427153
0.0427512
0.0427917
0.0428335
0.0428726
0.0429062
0.0429328
0.0429524
0.0429664
0.042979
0.0429982
0.0430294
0.0430738
0.0431285
0.0431883
0.0432473
0.0433003
0.0433435
0.0433754
0.0433963
0.043408
0.0434129
0.0434138
0.0434129
0.043412
0.0426339
0.0426349
0.0426376
0.0426425
0.0426509
0.0426637
0.0426822
0.042707
0.0427379
0.0427734
0.0428105
0.0428457
0.0428758
0.0428985
0.0429134
0.042922
0.0429293
0.0429441
0.0429718
0.0430144
0.0430703
0.0431358
0.0432047
0.0432707
0.0433278
0.0433726
0.043404
0.0434235
0.0434336
0.0434374
0.043438
0.0434376
0.0426348
0.0426357
0.042638
0.0426422
0.0426493
0.0426602
0.0426758
0.0426968
0.0427232
0.0427536
0.042786
0.0428173
0.0428445
0.0428656
0.0428798
0.0428889
0.0428979
0.0429142
0.042942
0.042983
0.0430372
0.0431025
0.0431743
0.0432467
0.043313
0.0433679
0.0434088
0.0434357
0.0434509
0.0434576
0.0434594
0.0434593
0.0426363
0.0426369
0.0426385
0.0426418
0.0426475
0.0426564
0.0426694
0.042687
0.0427092
0.0427352
0.0427633
0.0427915
0.0428172
0.0428387
0.0428558
0.04287
0.0428855
0.042907
0.042937
0.0429775
0.0430291
0.0430911
0.0431608
0.0432336
0.0433034
0.0433645
0.0434125
0.043446
0.043466
0.0434757
0.0434788
0.043479
0.0426426
0.0426427
0.0426433
0.042645
0.0426486
0.0426552
0.0426655
0.0426801
0.042699
0.0427217
0.0427471
0.0427737
0.0427999
0.0428244
0.042847
0.0428692
0.0428934
0.0429213
0.042954
0.0429937
0.0430419
0.043099
0.0431637
0.0432326
0.0433012
0.0433642
0.0434164
0.0434549
0.0434794
0.043492
0.0434965
0.0434971
0.0426586
0.0426579
0.0426568
0.0426562
0.0426572
0.0426611
0.0426688
0.042681
0.0426979
0.0427192
0.0427442
0.0427718
0.0428008
0.0428301
0.0428596
0.0428903
0.0429228
0.042956
0.0429903
0.0430284
0.0430722
0.043123
0.0431807
0.0432432
0.0433072
0.0433682
0.0434215
0.0434632
0.0434912
0.0435066
0.0435127
0.0435137
0.0426888
0.0426869
0.0426837
0.0426804
0.0426787
0.04268
0.0426859
0.0426971
0.0427141
0.0427364
0.0427635
0.0427941
0.0428272
0.0428618
0.0428975
0.042935
0.0429732
0.0430092
0.0430434
0.0430785
0.043117
0.0431606
0.0432099
0.0432642
0.0433212
0.0433775
0.043429
0.0434715
0.0435019
0.0435197
0.0435273
0.0435288
0.0427364
0.0427331
0.0427278
0.0427224
0.042719
0.0427194
0.0427254
0.0427378
0.042757
0.0427822
0.0428125
0.0428466
0.0428834
0.0429217
0.042961
0.0430017
0.0430419
0.0430777
0.0431097
0.0431407
0.0431732
0.0432092
0.0432496
0.0432946
0.043343
0.0433924
0.0434397
0.0434807
0.0435119
0.0435314
0.0435404
0.0435424
0.0428033
0.0427986
0.0427921
0.0427866
0.0427842
0.0427866
0.0427953
0.0428109
0.0428332
0.0428613
0.042894
0.0429299
0.0429678
0.0430067
0.043046
0.0430859
0.0431242
0.0431571
0.0431853
0.0432114
0.0432378
0.0432662
0.0432979
0.0433334
0.0433723
0.0434133
0.0434543
0.0434917
0.0435219
0.0435421
0.0435521
0.0435547
0.0428905
0.042885
0.0428793
0.0428769
0.0428792
0.0428865
0.0428995
0.0429185
0.0429429
0.0429718
0.0430042
0.0430386
0.0430742
0.04311
0.0431456
0.0431812
0.0432145
0.0432426
0.0432658
0.0432867
0.043307
0.0433285
0.0433522
0.0433787
0.0434082
0.0434401
0.0434733
0.0435051
0.0435324
0.043552
0.0435625
0.0435656
0.0429992
0.0429941
0.0429927
0.0429969
0.0430059
0.0430188
0.0430354
0.0430557
0.0430793
0.0431057
0.0431341
0.0431637
0.0431937
0.0432234
0.0432525
0.0432811
0.0433076
0.0433295
0.0433473
0.0433629
0.0433777
0.043393
0.0434096
0.0434282
0.043449
0.043472
0.0434967
0.0435216
0.0435442
0.0435616
0.0435718
0.0435752
0.043132
0.04313
0.0431358
0.0431471
0.0431611
0.0431766
0.0431933
0.0432113
0.0432306
0.0432513
0.0432729
0.043295
0.043317
0.0433387
0.0433597
0.0433801
0.0433988
0.0434141
0.0434264
0.0434369
0.0434468
0.0434568
0.0434675
0.0434794
0.0434927
0.0435076
0.043524
0.0435412
0.0435578
0.0435715
0.0435802
0.0435835
0.0432943
0.0432981
0.0433095
0.0433223
0.0433351
0.0433476
0.0433598
0.043372
0.0433844
0.0433972
0.0434103
0.0434236
0.0434367
0.0434495
0.0434618
0.0434738
0.0434846
0.0434934
0.0435004
0.0435064
0.0435119
0.0435174
0.0435233
0.0435297
0.0435369
0.0435449
0.0435539
0.0435636
0.0435733
0.043582
0.0435881
0.0435907
0.0434927
0.0434957
0.0435016
0.0435072
0.0435124
0.0435171
0.0435216
0.0435259
0.0435301
0.0435343
0.0435387
0.043543
0.0435473
0.0435515
0.0435555
0.0435593
0.0435628
0.0435657
0.0435679
0.0435698
0.0435716
0.0435733
0.0435751
0.0435771
0.0435793
0.0435818
0.0435846
0.0435876
0.0435907
0.0435936
0.0435958
0.0435969
)
;

boundaryField
{
    movingWall
    {
        type            fixedValue;
        value           uniform 0.0436;
    }
    fixedWalls
    {
        type            zeroGradient;
    }
    floor
    {
        type            zeroGradient;
    }
    frontAndBack
    {
        type            empty;
    }
}


// ************************************************************************* //
