/*--------------------------------*- C++ -*----------------------------------*\
| =========                 |                                                 |
| \\      /  F ield         | OpenFOAM: The Open Source CFD Toolbox           |
|  \\    /   O peration     | Version:  2212                                  |
|   \\  /    A nd           | Website:  www.openfoam.com                      |
|    \\/     M anipulation  |                                                 |
\*---------------------------------------------------------------------------*/
FoamFile
{
    version     2.0;
    format      ascii;
    arch        "LSB;label=64;scalar=64";
    class       volScalarField::Internal;
    location    "280";
    object      dGch4;
}
// * * * * * * * * * * * * * * * * * * * * * * * * * * * * * * * * * * * * * //

dimensions      [1 -3 -1 0 0 0 0];

value           nonuniform List<scalar> 
1024
(
0.00103976
0.00104025
0.0010414
0.00104335
0.0010461
0.00104951
0.00105328
0.00105714
0.00106083
0.00106411
0.00106658
0.00106805
0.00106855
0.00106804
0.00106645
0.00106366
0.00105974
0.00105528
0.00105079
0.00104635
0.00104199
0.00103768
0.0010334
0.00102915
0.00102503
0.00102121
0.0010179
0.00101525
0.00101332
0.00101205
0.00101134
0.00101104
0.00103986
0.00104037
0.00104158
0.00104363
0.0010465
0.00105
0.00105386
0.00105779
0.00106157
0.00106492
0.00106742
0.00106887
0.00106934
0.00106878
0.00106714
0.0010643
0.00106032
0.00105582
0.0010513
0.00104685
0.00104247
0.00103817
0.00103388
0.00102962
0.00102547
0.00102161
0.00101823
0.0010155
0.0010135
0.00101219
0.00101145
0.00101114
0.00104005
0.0010406
0.00104192
0.00104412
0.00104717
0.00105087
0.00105494
0.00105911
0.00106318
0.00106683
0.00106947
0.00107089
0.00107125
0.00107055
0.00106874
0.00106571
0.00106157
0.00105695
0.00105235
0.00104785
0.00104346
0.00103914
0.00103487
0.0010306
0.0010264
0.00102244
0.00101893
0.00101605
0.00101391
0.00101249
0.0010117
0.00101137
0.00104034
0.00104093
0.00104234
0.00104471
0.001048
0.001052
0.00105645
0.00106112
0.00106578
0.00107004
0.00107303
0.00107447
0.00107465
0.00107365
0.00107147
0.00106805
0.00106354
0.00105865
0.00105389
0.0010493
0.00104487
0.00104055
0.00103628
0.00103202
0.00102778
0.00102371
0.00102
0.0010169
0.00101456
0.00101299
0.00101211
0.00101175
0.00104068
0.00104129
0.00104278
0.00104531
0.00104886
0.00105327
0.0010583
0.00106376
0.00106938
0.0010746
0.00107821
0.00107981
0.00107978
0.00107831
0.00107552
0.00107141
0.00106625
0.00106088
0.00105582
0.00105106
0.00104655
0.00104222
0.00103797
0.00103373
0.00102948
0.00102529
0.00102138
0.00101802
0.00101542
0.00101367
0.00101269
0.00101229
0.00104103
0.00104166
0.0010432
0.00104586
0.00104969
0.00105458
0.00106038
0.0010669
0.00107379
0.00108026
0.0010848
0.00108679
0.00108659
0.00108453
0.00108087
0.00107572
0.00106957
0.00106347
0.00105794
0.00105291
0.00104827
0.0010439
0.00103968
0.00103548
0.00103124
0.00102697
0.00102288
0.00101927
0.00101643
0.00101449
0.00101339
0.00101295
0.00104139
0.00104202
0.00104357
0.00104633
0.00105043
0.00105585
0.00106253
0.00107027
0.00107863
0.00108656
0.00109227
0.00109489
0.0010946
0.00109186
0.00108711
0.00108061
0.00107312
0.00106604
0.00105989
0.00105451
0.0010497
0.00104528
0.00104109
0.00103696
0.00103277
0.00102848
0.00102428
0.00102049
0.00101744
0.00101534
0.00101415
0.00101368
0.00104175
0.00104236
0.00104392
0.00104673
0.00105106
0.001057
0.00106457
0.0010736
0.00108353
0.00109301
0.0011
0.00110333
0.00110296
0.00109941
0.00109334
0.00108519
0.0010761
0.00106789
0.00106109
0.00105536
0.0010504
0.00104597
0.00104185
0.00103784
0.00103376
0.00102953
0.00102531
0.00102144
0.0010183
0.00101612
0.00101488
0.00101439
0.0010421
0.0010427
0.00104424
0.00104708
0.00105158
0.00105799
0.00106642
0.00107674
0.00108828
0.00109933
0.00110752
0.00111135
0.00111062
0.00110597
0.00109824
0.00108813
0.00107723
0.00106792
0.00106061
0.00105472
0.00104979
0.0010455
0.00104159
0.0010378
0.00103392
0.00102987
0.00102577
0.00102197
0.00101887
0.0010167
0.00101547
0.00101498
0.00104247
0.00104306
0.00104456
0.0010474
0.00105202
0.00105884
0.00106811
0.00107976
0.00109296
0.00110552
0.00111462
0.00111845
0.00111677
0.00111044
0.00110053
0.00108799
0.00107504
0.0010648
0.00105738
0.00105174
0.0010472
0.00104336
0.0010399
0.00103653
0.00103303
0.00102931
0.0010255
0.00102194
0.00101904
0.001017
0.00101584
0.00101537
0.00104291
0.00104347
0.00104493
0.00104774
0.00105246
0.00105967
0.00106983
0.00108295
0.0010979
0.00111182
0.00112135
0.00112445
0.00112106
0.00111238
0.00109968
0.0010841
0.00106866
0.00105756
0.00105052
0.00104568
0.00104205
0.0010391
0.00103645
0.00103381
0.00103093
0.00102776
0.00102443
0.00102131
0.00101874
0.00101694
0.00101589
0.00101545
0.00104356
0.0010441
0.00104552
0.00104832
0.00105317
0.00106085
0.00107208
0.00108689
0.00110361
0.00111856
0.00112788
0.00112954
0.00112392
0.00111261
0.00109687
0.00107777
0.00105913
0.00104674
0.0010402
0.00103652
0.00103423
0.0010326
0.00103115
0.00102956
0.00102758
0.00102519
0.00102255
0.00102002
0.00101791
0.00101641
0.00101551
0.0010151
0.00104484
0.00104535
0.00104679
0.0010497
0.0010549
0.00106335
0.00107595
0.00109255
0.00111074
0.00112608
0.0011345
0.0011344
0.00112689
0.00111373
0.00109572
0.00107334
0.00105074
0.00103558
0.00102852
0.00102562
0.0010246
0.00102439
0.00102433
0.00102401
0.00102319
0.00102183
0.00102011
0.0010183
0.00101669
0.00101546
0.00101466
0.00101427
0.00104756
0.00104809
0.00104964
0.0010529
0.00105884
0.00106857
0.00108286
0.00110101
0.00111986
0.00113463
0.00114165
0.00114037
0.00113268
0.00112005
0.00110215
0.00107812
0.00105132
0.00103091
0.00102029
0.0010161
0.00101525
0.00101592
0.00101693
0.00101755
0.00101751
0.00101689
0.00101593
0.00101488
0.00101392
0.00101313
0.00101256
0.00101226
0.00105279
0.00105339
0.00105519
0.00105906
0.00106609
0.00107738
0.00109329
0.0011123
0.00113065
0.00114393
0.00114974
0.00114904
0.00114419
0.00113586
0.00112214
0.00110006
0.00107033
0.00104233
0.0010235
0.00101332
0.00100957
0.00100976
0.00101178
0.00101399
0.00101545
0.00101586
0.00101538
0.00101433
0.00101306
0.00101186
0.00101097
0.00101051
0.00106119
0.00106189
0.00106403
0.0010686
0.00107673
0.00108927
0.00110597
0.00112458
0.00114123
0.00115257
0.00115804
0.00115993
0.00116074
0.00116057
0.00115655
0.00114356
0.00111733
0.00108352
0.00105281
0.0010291
0.00101323
0.00100439
0.00100036
0.000999182
0.000999234
0.000999542
0.000999816
0.00100019
0.00100085
0.00100179
0.00100272
0.00100329
0.00107127
0.00107207
0.00107445
0.00107939
0.00108787
0.00110033
0.00111596
0.00113241
0.00114643
0.00115577
0.00116092
0.00116466
0.00117
0.00117816
0.00118785
0.00119439
0.001189
0.00116801
0.00113933
0.00110968
0.00108279
0.00106064
0.00104404
0.00103273
0.00102644
0.0010246
0.00102662
0.00103158
0.00103816
0.00104471
0.00104971
0.00105226
0.00107861
0.00107939
0.00108165
0.00108621
0.00109382
0.00110465
0.00111787
0.00113157
0.00114326
0.00115098
0.0011547
0.00115661
0.00116014
0.00116854
0.00118405
0.00120682
0.00123037
0.00124328
0.00124367
0.00123594
0.0012238
0.00121017
0.00119758
0.00118695
0.00117917
0.00117456
0.00117318
0.00117457
0.00117779
0.00118152
0.00118455
0.00118614
0.00108309
0.00108383
0.00108586
0.00108989
0.0010965
0.00110582
0.00111715
0.00112894
0.00113916
0.00114598
0.00114883
0.00114891
0.00114893
0.00115239
0.00116312
0.00118486
0.00121694
0.00124943
0.0012746
0.00129242
0.00130431
0.00131178
0.00131605
0.00131798
0.00131807
0.00131662
0.00131398
0.00131062
0.00130716
0.00130435
0.00130261
0.00130193
0.00108559
0.00108627
0.00108808
0.00109158
0.00109728
0.00110529
0.00111508
0.00112543
0.00113466
0.00114116
0.0011441
0.00114391
0.0011424
0.00114246
0.0011478
0.00116289
0.00119014
0.00122379
0.00125586
0.00128383
0.00130728
0.00132662
0.0013423
0.00135455
0.00136338
0.0013688
0.00137097
0.00137042
0.00136809
0.00136518
0.00136282
0.00136163
0.00108664
0.00108728
0.0010889
0.00109193
0.00109677
0.00110359
0.00111199
0.00112105
0.0011294
0.00113571
0.00113913
0.0011397
0.0011386
0.00113802
0.00114104
0.00115143
0.00117201
0.00120004
0.00122992
0.00125893
0.00128578
0.00131001
0.00133144
0.00134987
0.00136496
0.0013764
0.00138408
0.00138829
0.00138967
0.00138923
0.00138813
0.00138735
0.00108662
0.00108722
0.00108867
0.00109129
0.00109538
0.00110108
0.00110815
0.00111589
0.00112328
0.00112926
0.0011332
0.00113506
0.00113565
0.00113665
0.0011404
0.00114962
0.00116619
0.00118865
0.0012138
0.00123997
0.00126609
0.00129151
0.00131579
0.00133832
0.00135824
0.00137466
0.00138694
0.001395
0.00139933
0.00140088
0.00140086
0.00140046
0.00108596
0.00108649
0.00108774
0.00108997
0.0010934
0.0010981
0.00110391
0.00111034
0.0011167
0.00112233
0.0011269
0.00113052
0.00113382
0.00113798
0.00114459
0.00115531
0.00117078
0.00118974
0.00121067
0.00123308
0.0012565
0.00128056
0.00130489
0.00132885
0.00135145
0.00137137
0.00138737
0.00139878
0.0014057
0.00140895
0.0014098
0.00140966
0.00108575
0.00108603
0.00108686
0.00108852
0.00109122
0.001095
0.0010997
0.00110502
0.00111062
0.0011163
0.00112212
0.0011283
0.00113526
0.00114364
0.00115423
0.00116779
0.00118387
0.0012011
0.00121897
0.00123791
0.00125808
0.00127947
0.00130189
0.00132494
0.00134781
0.00136919
0.00138751
0.00140151
0.00141071
0.00141555
0.00141723
0.00141734
0.00108835
0.00108804
0.00108786
0.00108836
0.00108993
0.00109268
0.00109649
0.00110125
0.00110696
0.00111382
0.00112207
0.00113185
0.00114318
0.00115613
0.00117079
0.00118723
0.00120433
0.00122064
0.00123629
0.00125228
0.00126922
0.00128743
0.00130695
0.00132758
0.00134883
0.00136967
0.00138863
0.0014041
0.00141501
0.00142126
0.00142376
0.00142412
0.00109733
0.00109599
0.00109402
0.00109246
0.00109223
0.00109375
0.0010971
0.00110231
0.00110959
0.00111918
0.00113111
0.00114512
0.00116077
0.00117763
0.00119538
0.00121371
0.00123122
0.00124661
0.00126036
0.00127377
0.00128768
0.0013026
0.00131878
0.00133622
0.0013547
0.00137353
0.00139154
0.00140719
0.00141901
0.00142631
0.00142956
0.0014302
0.00111629
0.00111364
0.00110948
0.00110545
0.0011032
0.00110374
0.00110744
0.00111436
0.00112452
0.00113773
0.00115353
0.00117116
0.00118983
0.0012089
0.00122792
0.00124651
0.00126333
0.00127729
0.00128911
0.00130012
0.00131123
0.001323
0.00133579
0.00134974
0.00136483
0.00138073
0.00139663
0.00141124
0.00142303
0.00143089
0.00143474
0.00143566
0.00114752
0.00114379
0.00113822
0.00113281
0.00112966
0.00113029
0.00113523
0.00114439
0.00115733
0.00117331
0.00119139
0.00121053
0.00122986
0.00124878
0.00126693
0.00128402
0.00129894
0.00131087
0.00132058
0.0013293
0.00133783
0.00134673
0.00135634
0.00136687
0.00137843
0.00139091
0.00140392
0.00141653
0.00142737
0.00143516
0.00143933
0.00144051
0.00119175
0.00118788
0.00118319
0.0011791
0.00117721
0.00117909
0.0011853
0.00119563
0.00120937
0.00122552
0.00124299
0.00126075
0.00127809
0.00129456
0.00130993
0.00132407
0.00133613
0.00134554
0.001353
0.00135951
0.00136571
0.00137206
0.00137886
0.0013863
0.00139452
0.00140356
0.00141329
0.0014232
0.00143228
0.00143931
0.00144344
0.00144478
0.00124908
0.00124679
0.00124576
0.00124534
0.00124598
0.00124904
0.0012552
0.00126443
0.00127612
0.00128941
0.00130337
0.00131723
0.00133047
0.00134281
0.00135415
0.00136442
0.00137305
0.0013797
0.00138487
0.00138929
0.00139341
0.00139757
0.00140197
0.00140676
0.00141206
0.00141794
0.00142442
0.00143129
0.00143798
0.00144356
0.00144716
0.0014485
0.00132059
0.00132151
0.00132436
0.00132666
0.00132869
0.00133153
0.0013359
0.00134196
0.00134943
0.00135777
0.00136643
0.00137492
0.00138295
0.00139035
0.0013971
0.00140316
0.00140821
0.00141207
0.00141505
0.00141755
0.00141986
0.00142215
0.00142455
0.00142715
0.00143002
0.00143321
0.00143676
0.00144063
0.00144459
0.00144813
0.00145065
0.00145172
0.00140844
0.00140959
0.00141154
0.00141297
0.00141403
0.00141517
0.0014167
0.00141875
0.00142125
0.00142403
0.0014269
0.0014297
0.00143233
0.00143476
0.00143695
0.00143892
0.00144056
0.0014418
0.00144276
0.00144355
0.00144428
0.001445
0.00144575
0.00144656
0.00144745
0.00144843
0.00144953
0.00145074
0.001452
0.00145319
0.0014541
0.00145454
)
;


// ************************************************************************* //
