/*--------------------------------*- C++ -*----------------------------------*\
| =========                 |                                                 |
| \\      /  F ield         | OpenFOAM: The Open Source CFD Toolbox           |
|  \\    /   O peration     | Version:  2212                                  |
|   \\  /    A nd           | Website:  www.openfoam.com                      |
|    \\/     M anipulation  |                                                 |
\*---------------------------------------------------------------------------*/
FoamFile
{
    version     2.0;
    format      ascii;
    arch        "LSB;label=64;scalar=64";
    class       volScalarField;
    location    "280";
    object      Sch4;
}
// * * * * * * * * * * * * * * * * * * * * * * * * * * * * * * * * * * * * * //

dimensions      [1 -3 0 0 0 0 0];

internalField   nonuniform List<scalar> 
1024
(
0.03964
0.0396585
0.0397026
0.0397775
0.0398832
0.0400137
0.0401583
0.0403061
0.0404475
0.0405728
0.0406671
0.0407231
0.0407421
0.0407224
0.0406614
0.040554
0.0404034
0.0402325
0.0400604
0.0398905
0.0397236
0.039559
0.0393953
0.0392327
0.039075
0.038929
0.0388024
0.038701
0.038627
0.0385784
0.0385511
0.0385399
0.0396435
0.0396631
0.0397097
0.0397883
0.0398983
0.0400326
0.0401803
0.040331
0.0404755
0.0406038
0.0406993
0.0407545
0.0407721
0.0407507
0.0406878
0.0405783
0.0404257
0.0402531
0.04008
0.0399094
0.0397423
0.0395775
0.0394137
0.0392508
0.0390921
0.0389442
0.0388149
0.0387106
0.038634
0.0385836
0.0385553
0.0385436
0.0396511
0.0396722
0.0397225
0.039807
0.0399242
0.040066
0.0402216
0.0403814
0.0405368
0.0406763
0.0407771
0.0408313
0.0408449
0.0408179
0.0407485
0.0406322
0.0404732
0.040296
0.0401199
0.0399477
0.0397797
0.0396149
0.0394513
0.0392881
0.0391277
0.0389762
0.0388417
0.0387315
0.0386495
0.0385954
0.0385649
0.0385524
0.0396619
0.0396845
0.0397386
0.0398296
0.0399557
0.0401089
0.040279
0.0404577
0.040636
0.0407986
0.0409126
0.0409674
0.0409741
0.0409356
0.0408523
0.040721
0.0405481
0.0403609
0.0401786
0.040003
0.0398335
0.0396685
0.0395054
0.0393424
0.0391805
0.0390245
0.0388828
0.0387641
0.0386744
0.0386145
0.0385808
0.038567
0.0396748
0.0396983
0.0397554
0.0398524
0.0399886
0.0401571
0.0403496
0.0405582
0.040773
0.0409719
0.0411096
0.0411705
0.041169
0.0411127
0.041006
0.0408483
0.0406508
0.0404455
0.040252
0.04007
0.0398976
0.0397321
0.0395699
0.0394079
0.0392451
0.0390849
0.0389354
0.0388068
0.0387076
0.0386406
0.0386028
0.0385876
0.0396884
0.0397124
0.0397713
0.0398731
0.0400198
0.040207
0.0404285
0.0406773
0.0409403
0.041187
0.0413597
0.0414355
0.0414275
0.0413485
0.0412085
0.0410117
0.0407764
0.0405433
0.0403323
0.0401402
0.039963
0.0397962
0.039635
0.0394747
0.0393125
0.0391494
0.038993
0.0388549
0.0387462
0.0386718
0.0386297
0.0386129
0.0397021
0.039726
0.0397855
0.039891
0.0400476
0.040255
0.0405098
0.040805
0.041124
0.0414259
0.041643
0.0417426
0.0417313
0.0416263
0.0414445
0.0411961
0.0409102
0.0406401
0.040406
0.0402008
0.0400173
0.0398487
0.0396888
0.0395312
0.039371
0.0392072
0.0390465
0.0389013
0.0387849
0.0387044
0.0386588
0.0386408
0.0397155
0.039739
0.0397984
0.0399061
0.0400712
0.0402983
0.0405869
0.0409309
0.0413092
0.0416699
0.0419355
0.0420618
0.042047
0.0419113
0.0416791
0.0413682
0.0410216
0.0407091
0.0404503
0.0402322
0.0400435
0.0398747
0.0397178
0.0395647
0.0394088
0.0392473
0.039086
0.038938
0.0388178
0.0387341
0.0386867
0.038668
0.0397287
0.0397517
0.0398103
0.0399189
0.0400906
0.040335
0.0406562
0.041049
0.0414882
0.0419081
0.0422192
0.0423643
0.0423356
0.0421575
0.0418623
0.0414769
0.0410622
0.0407083
0.0404309
0.040207
0.0400196
0.0398564
0.0397074
0.0395629
0.0394151
0.0392602
0.0391034
0.0389581
0.0388394
0.0387566
0.0387096
0.0386909
0.0397425
0.0397649
0.0398222
0.0399303
0.0401066
0.0403662
0.0407189
0.041162
0.041664
0.0421412
0.0424866
0.042631
0.0425658
0.0423235
0.0419456
0.041468
0.0409762
0.0405875
0.0403064
0.0400923
0.0399201
0.0397741
0.0396425
0.0395144
0.0393811
0.0392389
0.0390931
0.0389572
0.038846
0.0387682
0.0387237
0.0387058
0.0397587
0.0397802
0.0398358
0.0399427
0.0401221
0.0403963
0.0407828
0.0412814
0.0418493
0.0423782
0.0427397
0.0428559
0.0427254
0.0423937
0.0419099
0.0413171
0.0407312
0.0403107
0.0400441
0.0398606
0.039723
0.0396111
0.0395109
0.0394103
0.0393008
0.0391795
0.0390525
0.038933
0.0388349
0.0387658
0.0387256
0.0387088
0.0397829
0.0398033
0.0398575
0.0399641
0.0401481
0.0404399
0.0408665
0.041429
0.042064
0.042632
0.0429853
0.0430469
0.0428319
0.0424004
0.0418012
0.0410749
0.0403677
0.0398982
0.0396505
0.0395114
0.0394248
0.039363
0.0393085
0.0392479
0.0391727
0.0390812
0.0389805
0.0388836
0.0388031
0.0387455
0.0387109
0.0386956
0.0398307
0.0398505
0.0399049
0.0400157
0.0402128
0.0405338
0.0410121
0.0416425
0.0423335
0.0429161
0.0432352
0.0432309
0.0429447
0.0424437
0.0417586
0.0409074
0.0400488
0.0394739
0.039206
0.0390959
0.0390574
0.0390497
0.039048
0.039036
0.039005
0.0389535
0.0388876
0.0388183
0.0387568
0.0387097
0.0386789
0.038664
0.0399341
0.0399543
0.0400131
0.0401371
0.0403625
0.0407316
0.041274
0.0419632
0.042679
0.04324
0.0435068
0.0434588
0.0431669
0.042687
0.0420062
0.0410916
0.0400715
0.0392953
0.0388916
0.0387325
0.0387006
0.0387266
0.0387654
0.0387891
0.0387876
0.0387637
0.0387269
0.0386869
0.0386502
0.03862
0.0385983
0.0385867
0.0401337
0.0401564
0.0402247
0.0403715
0.0406385
0.0410667
0.0416706
0.042392
0.043089
0.0435936
0.0438157
0.043791
0.0436087
0.0432928
0.0427698
0.0419266
0.0407922
0.039725
0.0390089
0.0386234
0.0384822
0.0384914
0.0385693
0.038654
0.0387095
0.0387252
0.0387071
0.0386673
0.0386189
0.0385733
0.0385393
0.0385216
0.0404545
0.040481
0.0405621
0.0407356
0.0410441
0.0415199
0.0421533
0.042859
0.0434911
0.0439226
0.0441328
0.0442079
0.044242
0.0442365
0.0440813
0.04358
0.0425726
0.0412789
0.0401082
0.0392084
0.03861
0.0382803
0.0381332
0.0380929
0.0380974
0.0381096
0.0381189
0.0381308
0.0381533
0.0381864
0.03822
0.0382405
0.0408398
0.0408701
0.0409601
0.0411476
0.0414691
0.0419414
0.0425344
0.0431578
0.0436896
0.0440453
0.0442435
0.0443904
0.0445985
0.0449128
0.0452809
0.0455212
0.045299
0.0444812
0.043375
0.0422366
0.0412079
0.0403638
0.0397345
0.0393078
0.0390722
0.0390055
0.0390844
0.039274
0.0395243
0.0397733
0.0399631
0.0400597
0.0411198
0.0411495
0.0412349
0.0414078
0.0416961
0.0421065
0.0426072
0.0431258
0.0435685
0.0438618
0.044005
0.0440826
0.044225
0.0445538
0.0451523
0.0460217
0.0469089
0.04738
0.0473719
0.047056
0.0465749
0.0460427
0.0455553
0.0451467
0.0448505
0.0446771
0.044629
0.0446875
0.0448153
0.0449622
0.0450807
0.0451426
0.0412907
0.0413184
0.0413954
0.0415479
0.0417984
0.0421513
0.0425799
0.0430259
0.0434118
0.0436697
0.0437786
0.0437849
0.0437925
0.0439343
0.0443556
0.0451958
0.0464238
0.0476562
0.0486029
0.0492672
0.0497055
0.0499775
0.0501309
0.0501979
0.0501977
0.0501406
0.0500401
0.0499127
0.0497827
0.049677
0.0496121
0.0495868
0.0413856
0.0414113
0.04148
0.0416126
0.041828
0.042131
0.0425013
0.0428922
0.0432407
0.0434859
0.0435968
0.043591
0.0435381
0.0435486
0.0437643
0.0443535
0.0454047
0.0466917
0.0479117
0.0489711
0.0498571
0.0505866
0.0511778
0.0516391
0.0519713
0.0521739
0.0522535
0.0522301
0.0521392
0.052027
0.0519362
0.0518907
0.0414258
0.0414499
0.0415111
0.0416257
0.041809
0.0420667
0.0423845
0.0427265
0.0430419
0.0432795
0.0434081
0.0434302
0.0433909
0.0433751
0.0434999
0.0439083
0.0447053
0.0457823
0.0469239
0.048028
0.0490468
0.0499642
0.0507751
0.0514718
0.0520421
0.0524741
0.0527639
0.0529218
0.0529729
0.052955
0.0529125
0.0528822
0.041425
0.0414478
0.0415027
0.0416017
0.0417564
0.041972
0.0422392
0.0425317
0.0428105
0.0430363
0.0431847
0.0432553
0.0432798
0.0433223
0.0434722
0.0438331
0.044475
0.045339
0.0463019
0.0473003
0.0482933
0.0492582
0.0501787
0.0510321
0.0517868
0.0524086
0.0528737
0.0531789
0.0533426
0.053401
0.0533999
0.0533844
0.0414002
0.04142
0.0414675
0.0415519
0.0416813
0.0418592
0.042079
0.0423222
0.0425623
0.0427751
0.0429483
0.0430861
0.0432132
0.0433751
0.0436321
0.0440475
0.044644
0.0453727
0.0461742
0.0470298
0.0479216
0.0488362
0.0497599
0.0506696
0.0515271
0.0522827
0.0528898
0.0533228
0.0535854
0.0537085
0.0537406
0.0537352
0.0413924
0.041403
0.0414342
0.0414969
0.041599
0.041742
0.04192
0.0421214
0.0423334
0.0425491
0.0427704
0.0430062
0.0432724
0.0435942
0.0440015
0.0445224
0.0451396
0.0457999
0.0464835
0.0472067
0.0479754
0.0487891
0.0496418
0.0505176
0.0513864
0.0521985
0.0528945
0.0534264
0.0537757
0.0539596
0.0540235
0.0540274
0.0414919
0.0414802
0.041473
0.0414914
0.0415508
0.0416547
0.0417993
0.0419797
0.0421968
0.042458
0.0427728
0.0431461
0.043579
0.044074
0.0446348
0.0452634
0.0459173
0.046541
0.0471388
0.047749
0.0483949
0.049088
0.0498306
0.0506153
0.0514232
0.0522155
0.0529361
0.0535245
0.0539392
0.0541767
0.0542717
0.0542855
0.0418345
0.0417835
0.0417082
0.0416487
0.0416396
0.0416972
0.0418243
0.0420229
0.0423004
0.0426659
0.0431211
0.0436557
0.0442527
0.0448962
0.0455735
0.0462728
0.0469412
0.0475283
0.048053
0.0485642
0.0490943
0.0496626
0.0502784
0.0509422
0.0516451
0.0523612
0.0530464
0.0536415
0.0540911
0.0543691
0.0544927
0.054517
0.0425569
0.0424563
0.0422978
0.0421445
0.0420588
0.0420796
0.0422206
0.0424848
0.0428721
0.043376
0.0439784
0.0446506
0.0453622
0.0460893
0.0468141
0.0475227
0.0481634
0.0486956
0.0491461
0.0495658
0.0499889
0.0504374
0.0509243
0.0514554
0.0520297
0.0526345
0.0532396
0.0537954
0.054244
0.0545432
0.0546895
0.0547246
0.0437469
0.0436049
0.043393
0.0431876
0.043068
0.0430927
0.0432817
0.0436313
0.0441246
0.0447339
0.0454228
0.046152
0.0468883
0.0476092
0.0483004
0.0489515
0.0495193
0.0499737
0.0503437
0.0506756
0.0510006
0.0513395
0.0517055
0.0521066
0.0525465
0.0530218
0.0535169
0.0539966
0.0544092
0.0547056
0.0548646
0.0549093
0.0454318
0.0452846
0.0451063
0.0449515
0.0448804
0.0449528
0.0451901
0.0455842
0.0461081
0.0467236
0.0473887
0.0480654
0.0487255
0.0493527
0.0499381
0.0504765
0.0509353
0.0512936
0.0515777
0.0518253
0.0520615
0.0523034
0.0525623
0.0528457
0.0531586
0.0535028
0.0538734
0.0542505
0.0545962
0.0548637
0.0550208
0.0550719
0.0476161
0.0475286
0.0474899
0.0474747
0.0475001
0.0476174
0.0478531
0.0482049
0.0486506
0.0491567
0.0496883
0.050216
0.0507201
0.0511901
0.0516216
0.0520126
0.0523412
0.052594
0.052791
0.0529591
0.0531162
0.0532745
0.053442
0.0536245
0.0538262
0.0540502
0.0542969
0.0545584
0.054813
0.0550255
0.0551624
0.0552135
0.0503403
0.0503752
0.050484
0.0505722
0.0506501
0.0507589
0.050926
0.0511571
0.0514417
0.0517595
0.0520891
0.0524125
0.052718
0.053
0.0532567
0.0534874
0.0536798
0.0538267
0.0539398
0.0540351
0.0541229
0.0542102
0.0543017
0.0544008
0.05451
0.0546315
0.0547667
0.0549141
0.0550645
0.0551995
0.0552952
0.0553362
0.0536871
0.053731
0.0538055
0.0538598
0.0539005
0.0539441
0.0540027
0.0540808
0.054176
0.0542818
0.0543911
0.0544978
0.0545982
0.0546904
0.054774
0.0548489
0.0549112
0.0549585
0.0549948
0.0550252
0.055053
0.0550804
0.055109
0.0551398
0.0551736
0.0552111
0.0552529
0.0552988
0.0553469
0.055392
0.0554268
0.0554437
)
;

boundaryField
{
    movingWall
    {
        type            fixedValue;
        value           uniform 0.0555;
    }
    fixedWalls
    {
        type            zeroGradient;
    }
    floor
    {
        type            zeroGradient;
    }
    frontAndBack
    {
        type            empty;
    }
}


// ************************************************************************* //
