/*--------------------------------*- C++ -*----------------------------------*\
| =========                 |                                                 |
| \\      /  F ield         | OpenFOAM: The Open Source CFD Toolbox           |
|  \\    /   O peration     | Version:  2212                                  |
|   \\  /    A nd           | Website:  www.openfoam.com                      |
|    \\/     M anipulation  |                                                 |
\*---------------------------------------------------------------------------*/
FoamFile
{
    version     2.0;
    format      ascii;
    arch        "LSB;label=64;scalar=64";
    class       volScalarField;
    location    "280";
    object      Xli;
}
// * * * * * * * * * * * * * * * * * * * * * * * * * * * * * * * * * * * * * //

dimensions      [1 -3 0 0 0 0 0];

internalField   nonuniform List<scalar> 
1024
(
0.0427484
0.0427495
0.042752
0.0427563
0.0427623
0.0427698
0.042778
0.0427865
0.0427945
0.0428016
0.042807
0.0428101
0.0428112
0.04281
0.0428064
0.0428001
0.0427913
0.0427814
0.0427715
0.0427617
0.042752
0.0427425
0.0427331
0.0427237
0.0427147
0.0427062
0.042699
0.0426931
0.0426888
0.0426861
0.0426845
0.0426838
0.0427486
0.0427498
0.0427524
0.0427569
0.0427632
0.0427709
0.0427793
0.0427879
0.0427961
0.0428034
0.0428088
0.0428119
0.0428129
0.0428116
0.0428079
0.0428015
0.0427926
0.0427826
0.0427726
0.0427627
0.0427531
0.0427436
0.0427342
0.0427248
0.0427156
0.0427071
0.0426997
0.0426937
0.0426893
0.0426864
0.0426847
0.0426841
0.0427491
0.0427503
0.0427532
0.042758
0.0427647
0.0427728
0.0427816
0.0427908
0.0427996
0.0428075
0.0428133
0.0428163
0.042817
0.0428154
0.0428113
0.0428045
0.0427953
0.042785
0.0427749
0.0427649
0.0427552
0.0427457
0.0427363
0.0427269
0.0427177
0.042709
0.0427012
0.0426949
0.0426902
0.042687
0.0426853
0.0426846
0.0427497
0.042751
0.0427541
0.0427593
0.0427665
0.0427752
0.0427849
0.0427951
0.0428053
0.0428145
0.042821
0.042824
0.0428243
0.042822
0.0428172
0.0428095
0.0427995
0.0427887
0.0427782
0.0427681
0.0427583
0.0427488
0.0427394
0.04273
0.0427207
0.0427117
0.0427036
0.0426967
0.0426916
0.0426881
0.0426862
0.0426854
0.0427504
0.0427518
0.042755
0.0427606
0.0427684
0.042778
0.0427889
0.0428008
0.0428131
0.0428244
0.0428322
0.0428355
0.0428354
0.0428321
0.0428258
0.0428167
0.0428053
0.0427935
0.0427823
0.0427718
0.0427619
0.0427524
0.0427431
0.0427338
0.0427244
0.0427152
0.0427066
0.0426992
0.0426935
0.0426896
0.0426875
0.0426866
0.0427512
0.0427526
0.0427559
0.0427618
0.0427701
0.0427808
0.0427934
0.0428076
0.0428226
0.0428366
0.0428463
0.0428506
0.04285
0.0428454
0.0428372
0.0428258
0.0428123
0.0427989
0.0427868
0.0427758
0.0427656
0.042756
0.0427468
0.0427376
0.0427282
0.0427189
0.0427099
0.0427019
0.0426957
0.0426914
0.042689
0.042688
0.042752
0.0427534
0.0427568
0.0427628
0.0427717
0.0427836
0.0427981
0.0428149
0.042833
0.0428501
0.0428624
0.0428679
0.0428671
0.042861
0.0428504
0.0428361
0.0428197
0.0428042
0.0427908
0.0427791
0.0427686
0.0427589
0.0427498
0.0427407
0.0427316
0.0427222
0.0427129
0.0427046
0.0426979
0.0426933
0.0426907
0.0426896
0.0427528
0.0427541
0.0427575
0.0427636
0.0427731
0.042786
0.0428025
0.042822
0.0428435
0.042864
0.0428789
0.0428859
0.0428849
0.0428769
0.0428634
0.0428455
0.0428256
0.0428078
0.042793
0.0427806
0.0427699
0.0427603
0.0427513
0.0427426
0.0427337
0.0427244
0.0427152
0.0427067
0.0426998
0.042695
0.0426922
0.0426912
0.0427535
0.0427548
0.0427582
0.0427644
0.0427742
0.0427881
0.0428064
0.0428287
0.0428537
0.0428774
0.0428949
0.0429029
0.0429009
0.0428905
0.0428734
0.0428512
0.0428275
0.0428073
0.0427916
0.0427789
0.0427683
0.042759
0.0427506
0.0427423
0.0427339
0.0427251
0.0427161
0.0427078
0.042701
0.0426962
0.0426935
0.0426925
0.0427543
0.0427556
0.0427589
0.042765
0.0427751
0.0427899
0.04281
0.0428351
0.0428636
0.0428906
0.0429099
0.0429177
0.0429136
0.0428993
0.0428774
0.04285
0.042822
0.0427999
0.042784
0.042772
0.0427623
0.0427541
0.0427467
0.0427394
0.0427319
0.0427238
0.0427155
0.0427077
0.0427013
0.0426969
0.0426943
0.0426933
0.0427552
0.0427565
0.0427596
0.0427657
0.042776
0.0427916
0.0428136
0.0428419
0.0428741
0.0429039
0.042924
0.0429301
0.0429221
0.0429026
0.0428747
0.0428407
0.0428073
0.0427836
0.0427686
0.0427584
0.0427507
0.0427445
0.0427389
0.0427333
0.0427271
0.0427203
0.0427131
0.0427063
0.0427007
0.0426967
0.0426944
0.0426934
0.0427566
0.0427578
0.0427609
0.0427669
0.0427774
0.0427941
0.0428183
0.0428502
0.0428862
0.0429181
0.0429376
0.0429404
0.0429274
0.0429022
0.0428677
0.0428262
0.042786
0.0427596
0.0427458
0.0427381
0.0427334
0.0427301
0.0427272
0.0427239
0.0427197
0.0427146
0.0427089
0.0427034
0.0426988
0.0426955
0.0426935
0.0426926
0.0427593
0.0427605
0.0427636
0.0427699
0.0427811
0.0427994
0.0428266
0.0428623
0.0429014
0.042934
0.0429515
0.0429503
0.0429332
0.042904
0.0428645
0.042816
0.0427673
0.042735
0.0427202
0.0427142
0.0427122
0.042712
0.0427121
0.0427116
0.04271
0.0427072
0.0427035
0.0426996
0.0426961
0.0426934
0.0426916
0.0426908
0.0427652
0.0427664
0.0427697
0.0427768
0.0427896
0.0428106
0.0428415
0.0428805
0.0429209
0.0429522
0.0429665
0.0429628
0.0429452
0.0429171
0.042878
0.0428258
0.0427682
0.0427246
0.0427021
0.0426934
0.0426918
0.0426935
0.0426959
0.0426974
0.0426975
0.0426963
0.0426942
0.042692
0.0426899
0.0426882
0.0426869
0.0426863
0.0427767
0.0427779
0.0427818
0.0427902
0.0428054
0.0428297
0.042864
0.0429049
0.0429441
0.0429721
0.0429837
0.0429813
0.0429699
0.042951
0.0429207
0.0428726
0.0428084
0.0427485
0.0427084
0.042687
0.0426793
0.0426801
0.0426847
0.0426897
0.0426929
0.0426939
0.0426929
0.0426907
0.042688
0.0426854
0.0426834
0.0426824
0.042795
0.0427965
0.0428011
0.042811
0.0428285
0.0428556
0.0428915
0.0429315
0.042967
0.0429908
0.0430017
0.0430049
0.0430058
0.0430043
0.0429945
0.0429654
0.0429082
0.0428354
0.0427698
0.0427196
0.0426863
0.0426681
0.0426601
0.042658
0.0426583
0.0426591
0.0426596
0.0426603
0.0426615
0.0426633
0.0426651
0.0426663
0.0428171
0.0428188
0.0428239
0.0428346
0.0428529
0.0428798
0.0429135
0.0429488
0.0429786
0.0429983
0.0430087
0.043016
0.0430267
0.0430432
0.0430625
0.0430745
0.0430608
0.0430143
0.0429521
0.0428884
0.0428311
0.0427841
0.0427492
0.0427255
0.0427125
0.0427088
0.0427132
0.0427238
0.0427377
0.0427515
0.0427621
0.0427675
0.0428332
0.0428349
0.0428397
0.0428496
0.0428661
0.0428895
0.042918
0.0429475
0.0429726
0.0429889
0.0429965
0.0430002
0.0430073
0.0430245
0.0430566
0.0431034
0.0431511
0.0431759
0.0431744
0.0431561
0.0431289
0.0430991
0.043072
0.0430493
0.043033
0.0430234
0.0430209
0.0430242
0.0430314
0.0430396
0.0430462
0.0430496
0.0428431
0.0428447
0.0428491
0.0428578
0.0428721
0.0428923
0.0429169
0.0429424
0.0429644
0.042979
0.0429849
0.0429848
0.0429846
0.0429915
0.0430137
0.0430588
0.0431252
0.0431919
0.0432428
0.0432783
0.0433015
0.0433157
0.0433236
0.0433269
0.0433267
0.0433235
0.0433181
0.0433112
0.0433043
0.0432986
0.0432952
0.0432938
0.0428487
0.0428502
0.0428541
0.0428617
0.042874
0.0428914
0.0429127
0.0429352
0.0429552
0.0429692
0.0429755
0.042975
0.0429715
0.0429712
0.042982
0.0430132
0.0430698
0.0431394
0.0432053
0.0432623
0.0433097
0.0433485
0.0433799
0.0434043
0.0434219
0.0434326
0.0434368
0.0434356
0.0434309
0.043425
0.0434203
0.0434179
0.0428512
0.0428525
0.042856
0.0428626
0.0428731
0.042888
0.0429063
0.042926
0.0429442
0.0429579
0.0429653
0.0429665
0.0429639
0.0429622
0.042968
0.0429892
0.0430317
0.0430898
0.0431514
0.0432109
0.0432655
0.0433145
0.0433575
0.0433944
0.0434244
0.0434472
0.0434625
0.043471
0.0434738
0.0434731
0.043471
0.0434695
0.0428512
0.0428525
0.0428557
0.0428614
0.0428702
0.0428827
0.0428981
0.042915
0.0429312
0.0429442
0.0429528
0.0429567
0.0429577
0.0429594
0.0429666
0.0429852
0.0430191
0.0430655
0.0431174
0.0431712
0.0432245
0.0432761
0.0433251
0.0433703
0.0434101
0.0434428
0.0434673
0.0434834
0.0434921
0.0434953
0.0434955
0.0434948
0.0428499
0.042851
0.0428538
0.0428586
0.0428661
0.0428763
0.042889
0.0429031
0.042917
0.0429293
0.0429392
0.0429468
0.0429535
0.0429617
0.0429749
0.0429965
0.043028
0.0430669
0.04311
0.0431561
0.043204
0.0432529
0.0433022
0.0433505
0.0433958
0.0434356
0.0434674
0.0434902
0.043504
0.0435106
0.0435124
0.0435122
0.0428493
0.04285
0.0428518
0.0428555
0.0428614
0.0428696
0.0428799
0.0428916
0.0429038
0.0429161
0.0429284
0.0429413
0.0429556
0.0429726
0.0429941
0.0430215
0.0430542
0.0430894
0.0431261
0.043165
0.0432063
0.0432498
0.0432953
0.0433419
0.0433879
0.0434306
0.0434672
0.043495
0.0435133
0.043523
0.0435265
0.0435268
0.0428545
0.0428539
0.0428537
0.0428549
0.0428585
0.0428646
0.0428729
0.0428832
0.0428955
0.04291
0.0429273
0.0429476
0.0429709
0.0429973
0.0430271
0.0430605
0.0430953
0.0431286
0.0431607
0.0431934
0.0432281
0.0432652
0.0433048
0.0433466
0.0433894
0.0434311
0.043469
0.0434998
0.0435214
0.0435338
0.0435389
0.0435397
0.0428726
0.0428699
0.042866
0.0428631
0.0428629
0.0428664
0.0428737
0.0428848
0.0429001
0.0429201
0.0429448
0.0429736
0.0430057
0.0430402
0.0430764
0.0431138
0.0431495
0.0431808
0.0432089
0.0432364
0.0432648
0.0432952
0.0433281
0.0433634
0.0434006
0.0434384
0.0434744
0.0435055
0.043529
0.0435434
0.0435499
0.0435512
0.042911
0.0429057
0.0428973
0.0428893
0.042885
0.0428864
0.0428943
0.0429088
0.0429299
0.0429571
0.0429896
0.0430257
0.043064
0.043103
0.0431418
0.0431797
0.043214
0.0432425
0.0432666
0.0432891
0.0433118
0.0433358
0.0433618
0.04339
0.0434205
0.0434524
0.0434842
0.0435132
0.0435366
0.0435521
0.0435597
0.0435616
0.0429744
0.0429669
0.0429557
0.0429448
0.0429386
0.0429402
0.0429505
0.0429694
0.0429961
0.0430288
0.0430658
0.043105
0.0431445
0.0431832
0.0432203
0.0432552
0.0432856
0.0433099
0.0433297
0.0433475
0.0433649
0.0433831
0.0434026
0.0434239
0.0434473
0.0434724
0.0434984
0.0435234
0.0435449
0.0435603
0.0435685
0.0435708
0.0430642
0.0430564
0.0430469
0.0430388
0.0430351
0.0430391
0.0430519
0.0430732
0.0431013
0.0431343
0.04317
0.0432063
0.0432417
0.0432754
0.0433068
0.0433356
0.0433602
0.0433794
0.0433947
0.0434079
0.0434206
0.0434335
0.0434473
0.0434624
0.043479
0.0434972
0.0435167
0.0435364
0.0435543
0.0435682
0.0435763
0.0435789
0.0431806
0.0431759
0.0431739
0.0431731
0.0431746
0.0431809
0.0431936
0.0432125
0.0432364
0.0432635
0.043292
0.0433203
0.0433473
0.0433725
0.0433957
0.0434166
0.0434343
0.0434478
0.0434584
0.0434674
0.0434758
0.0434843
0.0434932
0.0435029
0.0435136
0.0435254
0.0435384
0.0435521
0.0435653
0.0435763
0.0435833
0.043586
0.0433256
0.0433275
0.0433333
0.043338
0.0433422
0.043348
0.043357
0.0433694
0.0433846
0.0434016
0.0434193
0.0434366
0.043453
0.0434681
0.0434819
0.0434943
0.0435046
0.0435125
0.0435186
0.0435237
0.0435284
0.043533
0.0435379
0.0435432
0.043549
0.0435554
0.0435625
0.0435702
0.043578
0.043585
0.0435899
0.043592
0.0435036
0.043506
0.0435099
0.0435128
0.043515
0.0435174
0.0435205
0.0435247
0.0435298
0.0435354
0.0435413
0.043547
0.0435524
0.0435573
0.0435618
0.0435659
0.0435692
0.0435717
0.0435737
0.0435753
0.0435768
0.0435783
0.0435798
0.0435814
0.0435832
0.0435852
0.0435874
0.0435898
0.0435923
0.0435946
0.0435964
0.0435973
)
;

boundaryField
{
    movingWall
    {
        type            fixedValue;
        value           uniform 0.0436;
    }
    fixedWalls
    {
        type            zeroGradient;
    }
    floor
    {
        type            zeroGradient;
    }
    frontAndBack
    {
        type            empty;
    }
}


// ************************************************************************* //
