/*--------------------------------*- C++ -*----------------------------------*\
| =========                 |                                                 |
| \\      /  F ield         | OpenFOAM: The Open Source CFD Toolbox           |
|  \\    /   O peration     | Version:  2206                                  |
|   \\  /    A nd           | Website:  www.openfoam.com                      |
|    \\/     M anipulation  |                                                 |
\*---------------------------------------------------------------------------*/
FoamFile
{
    version     2.0;
    format      ascii;
    arch        "LSB;label=64;scalar=64";
    class       surfaceScalarField;
    location    "6";
    object      phi;
}
// * * * * * * * * * * * * * * * * * * * * * * * * * * * * * * * * * * * * * //

dimensions      [0 3 -1 0 0 0 0];

oriented        oriented;

internalField   nonuniform List<scalar> 
24
(
2.38935e-16
-2.20294e-16
2.85145e-16
-4.50639e-17
2.02696e-16
8.52799e-17
2.00795e-16
-2.24201e-16
-1.29171e-18
2.03265e-16
-4.69421e-16
5.20244e-16
-2.2884e-16
7.15482e-16
5.87115e-17
-6.71375e-17
-1.0606e-16
-2.98512e-16
-1.56569e-16
-1.90418e-16
5.59311e-16
-6.90676e-17
-3.58887e-16
-5.57808e-16
)
;

boundaryField
{
    movingWall
    {
        type            calculated;
        value           uniform 0;
    }
    fixedWalls
    {
        type            calculated;
        value           uniform 0;
    }
    frontAndBack
    {
        type            empty;
        value           nonuniform List<scalar> 0();
    }
}


// ************************************************************************* //
