/*--------------------------------*- C++ -*----------------------------------*\
| =========                 |                                                 |
| \\      /  F ield         | OpenFOAM: The Open Source CFD Toolbox           |
|  \\    /   O peration     | Version:  2206                                  |
|   \\  /    A nd           | Website:  www.openfoam.com                      |
|    \\/     M anipulation  |                                                 |
\*---------------------------------------------------------------------------*/
FoamFile
{
    version     2.0;
    format      ascii;
    arch        "LSB;label=64;scalar=64";
    class       volVectorField;
    location    "6";
    object      U;
}
// * * * * * * * * * * * * * * * * * * * * * * * * * * * * * * * * * * * * * //

dimensions      [0 1 -1 0 0 0 0];

internalField   nonuniform List<vector> 
16
(
(5.04023e-14 -4.97666e-14 0)
(1.07816e-13 -2.66468e-15 0)
(9.77608e-14 1.8053e-14 0)
(4.02807e-14 3.94153e-14 0)
(-5.54984e-14 -4.93592e-14 0)
(-1.16065e-14 -1.00781e-13 0)
(1.51209e-13 -2.78456e-14 0)
(1.06765e-13 1.85253e-13 0)
(1.14545e-14 -1.2406e-14 0)
(-9.99352e-15 -1.60827e-13 0)
(-5.29097e-14 -8.42111e-14 0)
(-3.15934e-14 2.58677e-13 0)
(-9.53613e-15 -1.28729e-14 0)
(-8.48866e-14 -6.22899e-14 0)
(-1.88688e-13 -3.80928e-14 0)
(-1.13116e-13 1.12735e-13 0)
)
;

boundaryField
{
    movingWall
    {
        type            noSlip;
    }
    fixedWalls
    {
        type            noSlip;
    }
    frontAndBack
    {
        type            empty;
    }
}


// ************************************************************************* //
