/*--------------------------------*- C++ -*----------------------------------*\
| =========                 |                                                 |
| \\      /  F ield         | OpenFOAM: The Open Source CFD Toolbox           |
|  \\    /   O peration     | Version:  2206                                  |
|   \\  /    A nd           | Website:  www.openfoam.com                      |
|    \\/     M anipulation  |                                                 |
\*---------------------------------------------------------------------------*/
FoamFile
{
    version     2.0;
    format      ascii;
    arch        "LSB;label=64;scalar=64";
    class       surfaceScalarField;
    location    "482400";
    object      phi;
}
// * * * * * * * * * * * * * * * * * * * * * * * * * * * * * * * * * * * * * //

dimensions      [0 3 -1 0 0 0 0];

oriented        oriented;

internalField   nonuniform List<scalar> 
24
(
7.5966e-12
-7.59657e-12
1.50824e-10
-1.43228e-10
2.71785e-10
-1.2096e-10
2.71785e-10
1.05022e-10
-1.12619e-10
1.32351e-10
-1.70557e-10
7.71543e-11
-6.57632e-11
3.48939e-10
1.54788e-11
-1.28097e-10
-6.38358e-11
-9.12423e-11
-1.65369e-10
3.57696e-11
1.8357e-10
-1.28097e-10
-2.1934e-10
-1.8357e-10
)
;

boundaryField
{
    movingWall
    {
        type            calculated;
        value           nonuniform List<scalar> 4(0 2.52435e-29 0 0);
    }
    fixedWalls
    {
        type            calculated;
        value           uniform 0;
    }
    frontAndBack
    {
        type            empty;
        value           nonuniform List<scalar> 0();
    }
}


// ************************************************************************* //
