/*--------------------------------*- C++ -*----------------------------------*\
| =========                 |                                                 |
| \\      /  F ield         | OpenFOAM: The Open Source CFD Toolbox           |
|  \\    /   O peration     | Version:  2212                                  |
|   \\  /    A nd           | Website:  www.openfoam.com                      |
|    \\/     M anipulation  |                                                 |
\*---------------------------------------------------------------------------*/
FoamFile
{
    version     2.0;
    format      ascii;
    arch        "LSB;label=64;scalar=64";
    class       surfaceScalarField;
    location    "0.45";
    object      phi;
}
// * * * * * * * * * * * * * * * * * * * * * * * * * * * * * * * * * * * * * //

dimensions      [0 3 -1 0 0 0 0];

oriented        oriented;

internalField   nonuniform List<scalar> 
65152
(
-5.01192e-13
5.01189e-13
-2.07905e-12
1.57785e-12
-4.25184e-12
2.17279e-12
-6.52949e-12
2.27764e-12
-8.64412e-12
2.11463e-12
-1.05325e-11
1.88835e-12
-1.22351e-11
1.70262e-12
-1.38152e-11
1.58013e-12
-1.53216e-11
1.50638e-12
-1.67818e-11
1.46015e-12
-1.82074e-11
1.42561e-12
-1.96013e-11
1.39388e-12
-2.09621e-11
1.36087e-12
-2.22872e-11
1.32506e-12
-2.35733e-11
1.28606e-12
-2.48171e-11
1.24387e-12
-2.60158e-11
1.19862e-12
-2.71662e-11
1.15045e-12
-2.82657e-11
1.09944e-12
-2.93114e-11
1.04571e-12
-3.03007e-11
9.89319e-13
-3.12311e-11
9.30337e-13
-3.20999e-11
8.68827e-13
-3.29047e-11
8.04842e-13
-3.36432e-11
7.38425e-13
-3.43128e-11
6.69618e-13
-3.49113e-11
5.98466e-13
-3.54363e-11
5.25018e-13
-3.58856e-11
4.49325e-13
-3.62571e-11
3.71454e-13
-3.65486e-11
2.91493e-13
-3.67582e-11
2.0958e-13
-3.68841e-11
1.25964e-13
-3.69254e-11
4.13055e-14
-3.68798e-11
-4.56575e-14
-3.67473e-11
-1.32506e-13
-3.65274e-11
-2.19943e-13
-3.62197e-11
-3.0765e-13
-3.58243e-11
-3.95447e-13
-3.53411e-11
-4.83173e-13
-3.47705e-11
-5.70646e-13
-3.41128e-11
-6.57672e-13
-3.33688e-11
-7.44032e-13
-3.25393e-11
-8.29475e-13
-3.16256e-11
-9.13723e-13
-3.06291e-11
-9.9649e-13
-2.95517e-11
-1.07749e-12
-2.83953e-11
-1.1564e-12
-2.71623e-11
-1.23293e-12
-2.58556e-11
-1.30675e-12
-2.4478e-11
-1.37756e-12
-2.3033e-11
-1.44504e-12
-2.15241e-11
-1.50889e-12
-1.99553e-11
-1.5688e-12
-1.83309e-11
-1.62449e-12
-1.66552e-11
-1.67572e-12
-1.49329e-11
-1.72222e-12
-1.31692e-11
-1.76378e-12
-1.1369e-11
-1.80019e-12
-9.53778e-12
-1.83123e-12
-7.68115e-12
-1.85664e-12
-5.80506e-12
-1.8761e-12
-3.91584e-12
-1.88923e-12
-2.02013e-12
-1.89572e-12
-1.24673e-13
-1.89546e-12
1.7639e-12
-1.88858e-12
3.63959e-12
-1.8757e-12
5.49705e-12
-1.85747e-12
7.33116e-12
-1.83412e-12
9.13698e-12
-1.80582e-12
1.09096e-11
-1.77266e-12
1.26443e-11
-1.73472e-12
1.43364e-11
-1.69212e-12
1.59814e-11
-1.64501e-12
1.7575e-11
-1.59357e-12
1.9113e-11
-1.53802e-12
2.05916e-11
-1.47858e-12
2.20071e-11
-1.41551e-12
2.33561e-11
-1.34905e-12
2.46356e-11
-1.27949e-12
2.58427e-11
-1.2071e-12
2.69749e-11
-1.13218e-12
2.80299e-11
-1.055e-12
2.90057e-11
-9.75848e-13
2.99007e-11
-8.94989e-13
3.07133e-11
-8.12682e-13
3.14425e-11
-7.29159e-13
3.20871e-11
-6.44619e-13
3.26463e-11
-5.59247e-13
3.31195e-11
-4.73217e-13
3.35062e-11
-3.8671e-13
3.38061e-11
-2.99901e-13
3.40191e-11
-2.13001e-13
3.41454e-11
-1.26307e-13
3.41857e-11
-4.03293e-14
3.41404e-11
4.53679e-14
3.40121e-11
1.28285e-13
3.38023e-11
2.09704e-13
3.35133e-11
2.89015e-13
3.31472e-11
3.66123e-13
3.27062e-11
4.40982e-13
3.21926e-11
5.13576e-13
3.16087e-11
5.83901e-13
3.09567e-11
6.51946e-13
3.0239e-11
7.1769e-13
2.94579e-11
7.81099e-13
2.86158e-11
8.42126e-13
2.77151e-11
9.00714e-13
2.67582e-11
9.56805e-13
2.57479e-11
1.01033e-12
2.46867e-11
1.06121e-12
2.35773e-11
1.10935e-12
2.24227e-11
1.15463e-12
2.12257e-11
1.19692e-12
1.99897e-11
1.23608e-12
1.87176e-11
1.27208e-12
1.74123e-11
1.30531e-12
1.60749e-11
1.3373e-12
1.47027e-11
1.37218e-12
1.32838e-11
1.41897e-12
1.179e-11
1.4938e-12
1.01715e-11
1.61846e-12
8.36335e-12
1.80812e-12
6.32292e-12
2.04042e-12
4.11242e-12
2.21048e-12
2.00075e-12
2.11166e-12
4.7613e-13
1.52461e-12
4.76127e-13
-1.00322e-12
1.5044e-12
-3.51123e-12
4.08586e-12
-6.66972e-12
5.33128e-12
-9.76685e-12
5.37477e-12
-1.24514e-11
4.79918e-12
-1.46753e-11
4.11226e-12
-1.6538e-11
3.56533e-12
-1.81644e-11
3.20653e-12
-1.96499e-11
2.99181e-12
-2.10513e-11
2.86156e-12
-2.23971e-11
2.77146e-12
-2.36993e-11
2.69602e-12
-2.49614e-11
2.62292e-12
-2.61833e-11
2.54703e-12
-2.73638e-11
2.46649e-12
-2.85007e-11
2.38081e-12
-2.9592e-11
2.28994e-12
-3.06356e-11
2.19396e-12
-3.16291e-11
2.09299e-12
-3.25705e-11
1.98712e-12
-3.34576e-11
1.87642e-12
-3.42883e-11
1.76099e-12
-3.50604e-11
1.64091e-12
-3.57718e-11
1.51625e-12
-3.64205e-11
1.38709e-12
-3.70043e-11
1.25349e-12
-3.75214e-11
1.11553e-12
-3.79697e-11
9.73313e-13
-3.83473e-11
8.26916e-13
-3.86523e-11
6.7645e-13
-3.88829e-11
5.22052e-13
-3.90372e-11
3.63896e-13
-3.91135e-11
2.02214e-13
-3.91096e-11
3.73807e-14
-3.90251e-11
-1.30107e-13
-3.88587e-11
-2.98923e-13
-3.86098e-11
-4.68897e-13
-3.82776e-11
-6.39821e-13
-3.78616e-11
-8.11464e-13
-3.73612e-11
-9.83561e-13
-3.67762e-11
-1.15571e-12
-3.61064e-11
-1.32751e-12
-3.53519e-11
-1.49852e-12
-3.45132e-11
-1.6682e-12
-3.35909e-11
-1.83595e-12
-3.25863e-11
-2.00119e-12
-3.15005e-11
-2.1633e-12
-3.03353e-11
-2.32162e-12
-2.90927e-11
-2.47549e-12
-2.77752e-11
-2.62424e-12
-2.63856e-11
-2.7672e-12
-2.4927e-11
-2.9037e-12
-2.34028e-11
-3.03305e-12
-2.1817e-11
-3.15461e-12
-2.01737e-11
-3.26777e-12
-1.84775e-11
-3.37195e-12
-1.67332e-11
-3.46657e-12
-1.49458e-11
-3.55115e-12
-1.31208e-11
-3.62521e-12
-1.12638e-11
-3.68827e-12
-9.38058e-12
-3.73984e-12
-7.47734e-12
-3.77935e-12
-5.56034e-12
-3.80624e-12
-3.6359e-12
-3.82017e-12
-1.71024e-12
-3.82114e-12
2.10704e-13
-3.80954e-12
2.121e-12
-3.786e-12
4.01495e-12
-3.75143e-12
5.88741e-12
-3.7066e-12
7.73339e-12
-3.65182e-12
9.54799e-12
-3.58727e-12
1.13265e-11
-3.5132e-12
1.30641e-11
-3.4298e-12
1.47565e-11
-3.33743e-12
1.63994e-11
-3.23644e-12
1.79887e-11
-3.1273e-12
1.95205e-11
-3.01046e-12
2.09914e-11
-2.88644e-12
2.23982e-11
-2.75579e-12
2.37377e-11
-2.61906e-12
2.50074e-11
-2.47683e-12
2.62049e-11
-2.32964e-12
2.7328e-11
-2.1781e-12
2.83749e-11
-2.02274e-12
2.9344e-11
-1.86411e-12
3.0234e-11
-1.70273e-12
3.10439e-11
-1.5391e-12
3.17729e-11
-1.37363e-12
3.24204e-11
-1.20675e-12
3.2986e-11
-1.03881e-12
3.34696e-11
-8.70285e-13
3.38712e-11
-7.01522e-13
3.41911e-11
-5.32961e-13
3.44299e-11
-3.65097e-13
3.45878e-11
-1.98253e-13
3.4666e-11
-3.28859e-14
3.46652e-11
1.29114e-13
3.45876e-11
2.87307e-13
3.44353e-11
4.41318e-13
3.42102e-11
5.91117e-13
3.39145e-11
7.3668e-13
3.35501e-11
8.78016e-13
3.31188e-11
1.01513e-12
3.26228e-11
1.148e-12
3.20639e-11
1.27659e-12
3.14441e-11
1.40088e-12
3.07654e-11
1.5208e-12
3.00298e-11
1.63628e-12
2.92393e-11
1.74725e-12
2.8396e-11
1.85364e-12
2.75019e-11
1.95533e-12
2.6559e-11
2.05221e-12
2.55695e-11
2.14417e-12
2.45353e-11
2.23108e-12
2.34584e-11
2.31294e-12
2.23402e-11
2.39024e-12
2.11807e-11
2.4648e-12
1.99762e-11
2.5418e-12
1.87147e-11
2.63368e-12
1.73674e-11
2.76632e-12
1.58763e-11
2.98488e-12
1.41443e-11
3.35043e-12
1.20435e-11
3.9089e-12
9.47089e-12
4.61299e-12
6.47254e-12
5.20883e-12
3.40098e-12
5.18321e-12
9.66792e-13
3.95878e-12
1.44292e-12
-9.26001e-13
2.4304e-12
-3.15572e-12
6.31557e-12
-5.82697e-12
8.00252e-12
-8.27109e-12
7.81889e-12
-1.01909e-11
6.71894e-12
-1.15817e-11
5.50314e-12
-1.25731e-11
4.55664e-12
-1.33091e-11
3.94255e-12
-1.38975e-11
3.58027e-12
-1.44036e-11
3.36761e-12
-1.48613e-11
3.22919e-12
-1.52868e-11
3.12144e-12
-1.56868e-11
3.02292e-12
-1.60641e-11
2.92437e-12
-1.64198e-11
2.8222e-12
-1.67542e-11
2.7152e-12
-1.70673e-11
2.60303e-12
-1.7359e-11
2.48563e-12
-1.76291e-11
2.36306e-12
-1.78773e-11
2.23536e-12
-1.81035e-11
2.10259e-12
-1.83073e-11
1.96483e-12
-1.84885e-11
1.82209e-12
-1.86468e-11
1.67454e-12
-1.87819e-11
1.52218e-12
-1.88936e-11
1.36512e-12
-1.89815e-11
1.20348e-12
-1.90456e-11
1.03736e-12
-1.90856e-11
8.6694e-13
-1.91015e-11
6.92379e-13
-1.90934e-11
5.13941e-13
-1.90614e-11
3.31812e-13
-1.90055e-11
1.464e-13
-1.89263e-11
-4.19044e-14
-1.88232e-11
-2.33199e-13
-1.86954e-11
-4.26737e-13
-1.85419e-11
-6.22352e-13
-1.83619e-11
-8.19825e-13
-1.81545e-11
-1.0189e-12
-1.79191e-11
-1.21897e-12
-1.76551e-11
-1.41972e-12
-1.7362e-11
-1.62059e-12
-1.70396e-11
-1.82099e-12
-1.66876e-11
-2.02024e-12
-1.63058e-11
-2.2177e-12
-1.58944e-11
-2.41262e-12
-1.54535e-11
-2.60424e-12
-1.49834e-11
-2.79176e-12
-1.44845e-11
-2.97439e-12
-1.39574e-11
-3.15128e-12
-1.34031e-11
-3.3216e-12
-1.28223e-11
-3.48448e-12
-1.22163e-11
-3.63909e-12
-1.15863e-11
-3.78461e-12
-1.09338e-11
-3.92021e-12
-1.02607e-11
-4.04514e-12
-9.56859e-12
-4.15867e-12
-8.85963e-12
-4.26013e-12
-8.13596e-12
-4.34889e-12
-7.39983e-12
-4.42441e-12
-6.65349e-12
-4.4862e-12
-5.89907e-12
-4.53378e-12
-5.1385e-12
-4.56682e-12
-4.37347e-12
-4.58521e-12
-3.60545e-12
-4.58916e-12
-2.83581e-12
-4.57919e-12
-2.06584e-12
-4.55599e-12
-1.29708e-12
-4.52021e-12
-5.31309e-13
-4.47238e-12
2.29648e-13
-4.41279e-12
9.84027e-13
-4.34166e-12
1.73005e-12
-4.25923e-12
2.4661e-12
-4.16587e-12
3.19058e-12
-4.06192e-12
3.90201e-12
-3.94788e-12
4.59895e-12
-3.82425e-12
5.28011e-12
-3.69163e-12
5.9442e-12
-3.55055e-12
6.59004e-12
-3.40165e-12
7.21654e-12
-3.24558e-12
7.82267e-12
-3.08297e-12
8.40755e-12
-2.91453e-12
8.97026e-12
-2.74082e-12
9.51003e-12
-2.56253e-12
1.00262e-11
-2.38027e-12
1.05181e-11
-2.19464e-12
1.09852e-11
-2.0062e-12
1.1427e-11
-1.8155e-12
1.18433e-11
-1.62304e-12
1.22338e-11
-1.42936e-12
1.25985e-11
-1.235e-12
1.29374e-11
-1.04045e-12
1.3251e-11
-8.46525e-13
1.35396e-11
-6.5377e-13
1.38042e-11
-4.62848e-13
1.40455e-11
-2.74219e-13
1.4263e-11
-8.83468e-14
1.4456e-11
9.43065e-14
1.46241e-11
2.732e-13
1.47673e-11
4.47871e-13
1.48857e-11
6.1827e-13
1.49794e-11
7.8432e-13
1.50485e-11
9.46017e-13
1.50932e-11
1.10328e-12
1.51137e-11
1.25608e-12
1.51102e-11
1.40439e-12
1.50828e-11
1.54816e-12
1.50317e-11
1.68735e-12
1.49571e-11
1.82185e-12
1.48591e-11
1.95162e-12
1.47378e-11
2.07658e-12
1.45933e-11
2.19667e-12
1.44258e-11
2.31175e-12
1.4235e-11
2.42186e-12
1.40206e-11
2.52726e-12
1.37817e-11
2.62911e-12
1.35155e-11
2.73101e-12
1.3215e-11
2.84227e-12
1.28642e-11
2.98454e-12
1.24284e-11
3.20205e-12
1.18417e-11
3.57157e-12
1.09945e-11
4.19765e-12
9.73944e-12
5.16393e-12
7.94365e-12
6.40877e-12
5.60929e-12
7.54317e-12
3.03433e-12
7.75815e-12
8.85541e-13
6.10755e-12
2.32845e-12
-8.27178e-13
3.25757e-12
-2.80639e-12
8.29477e-12
-5.11001e-12
1.03061e-11
-7.10529e-12
9.81415e-12
-8.53038e-12
8.14402e-12
-9.40683e-12
6.37959e-12
-9.87896e-12
5.02876e-12
-1.00981e-11
4.16167e-12
-1.01749e-11
3.65704e-12
-1.01757e-11
3.36846e-12
-1.01357e-11
3.18915e-12
-1.00717e-11
3.05743e-12
-9.99159e-12
2.94283e-12
-9.89932e-12
2.8321e-12
-9.79696e-12
2.71984e-12
-9.68601e-12
2.60424e-12
-9.56761e-12
2.48462e-12
-9.44277e-12
2.36078e-12
-9.31236e-12
2.23264e-12
-9.17726e-12
2.10024e-12
-9.03822e-12
1.96355e-12
-8.89606e-12
1.82266e-12
-8.75155e-12
1.67758e-12
-8.60531e-12
1.52829e-12
-8.45803e-12
1.37489e-12
-8.31035e-12
1.21743e-12
-8.16295e-12
1.05607e-12
-8.01645e-12
8.90852e-13
-7.87154e-12
7.22029e-13
-7.72894e-12
5.4977e-13
-7.58918e-12
3.74166e-13
-7.45303e-12
1.95654e-13
-7.32117e-12
1.45289e-14
-7.19353e-12
-1.69551e-13
-7.07076e-12
-3.55978e-13
-6.95266e-12
-5.44845e-13
-6.83888e-12
-7.36146e-13
-6.72922e-12
-9.29494e-13
-6.62374e-12
-1.12439e-12
-6.52194e-12
-1.32079e-12
-6.42373e-12
-1.51794e-12
-6.32891e-12
-1.71542e-12
-6.2372e-12
-1.91271e-12
-6.14831e-12
-2.10914e-12
-6.06191e-12
-2.3041e-12
-5.9777e-12
-2.49684e-12
-5.89535e-12
-2.68661e-12
-5.8145e-12
-2.87262e-12
-5.73486e-12
-3.05405e-12
-5.65613e-12
-3.23002e-12
-5.578e-12
-3.39973e-12
-5.50024e-12
-3.56224e-12
-5.42263e-12
-3.71672e-12
-5.345e-12
-3.86226e-12
-5.26722e-12
-3.998e-12
-5.18927e-12
-4.1231e-12
-5.11113e-12
-4.23682e-12
-5.03287e-12
-4.3384e-12
-4.95453e-12
-4.42724e-12
-4.87612e-12
-4.50283e-12
-4.79753e-12
-4.5648e-12
-4.71833e-12
-4.61299e-12
-4.63775e-12
-4.64742e-12
-4.55464e-12
-4.66833e-12
-4.46767e-12
-4.67615e-12
-4.37544e-12
-4.67143e-12
-4.27676e-12
-4.65468e-12
-4.17072e-12
-4.62626e-12
-4.0567e-12
-4.58641e-12
-3.93426e-12
-4.53524e-12
-3.80303e-12
-4.4729e-12
-3.66269e-12
-4.39958e-12
-3.51302e-12
-4.31555e-12
-3.35377e-12
-4.22118e-12
-3.18479e-12
-4.11688e-12
-3.00593e-12
-4.00312e-12
-2.81716e-12
-3.88041e-12
-2.61843e-12
-3.74929e-12
-2.40977e-12
-3.61032e-12
-2.19131e-12
-3.46405e-12
-1.96319e-12
-3.31111e-12
-1.72567e-12
-3.15207e-12
-1.47896e-12
-2.98754e-12
-1.22344e-12
-2.81806e-12
-9.59477e-13
-2.64425e-12
-6.87554e-13
-2.46658e-12
-4.08123e-13
-2.28564e-12
-1.21727e-13
-2.10191e-12
1.71127e-13
-1.91591e-12
4.6993e-13
-1.72818e-12
7.74171e-13
-1.53925e-12
1.08358e-12
-1.34988e-12
1.39763e-12
-1.16059e-12
1.71603e-12
-9.72188e-13
2.0385e-12
-7.85335e-13
2.36499e-12
-6.00716e-13
2.69525e-12
-4.18622e-13
3.02875e-12
-2.39207e-13
3.36447e-12
-6.25366e-14
3.70139e-12
1.10938e-13
4.03886e-12
2.80786e-13
4.37592e-12
4.47242e-13
4.71193e-12
6.09991e-13
5.04606e-12
7.69132e-13
5.3775e-12
9.24621e-13
5.70543e-12
1.07645e-12
6.02903e-12
1.22455e-12
6.34746e-12
1.3689e-12
6.6598e-12
1.50949e-12
6.96521e-12
1.64619e-12
7.26268e-12
1.7791e-12
7.55127e-12
1.90805e-12
7.82991e-12
2.0331e-12
8.09745e-12
2.15431e-12
8.35239e-12
2.27231e-12
8.59261e-12
2.38887e-12
8.8143e-12
2.5093e-12
9.0095e-12
2.64705e-12
9.16122e-12
2.8328e-12
9.23411e-12
3.12915e-12
9.16096e-12
3.6447e-12
8.82945e-12
4.52915e-12
8.08549e-12
5.90787e-12
6.78155e-12
7.71269e-12
4.89395e-12
9.43075e-12
2.68537e-12
9.96672e-12
7.86615e-13
8.00629e-12
3.11507e-12
-8.20871e-13
4.07844e-12
-2.76332e-12
1.02372e-11
-4.98905e-12
1.25319e-11
-6.86733e-12
1.16924e-11
-8.14701e-12
9.4237e-12
-8.86197e-12
7.09454e-12
-9.16594e-12
5.33272e-12
-9.21576e-12
4.21149e-12
-9.12485e-12
3.56613e-12
-8.96083e-12
3.20443e-12
-8.75904e-12
2.98735e-12
-8.53662e-12
2.83501e-12
-8.30173e-12
2.70793e-12
-8.0584e-12
2.58876e-12
-7.80913e-12
2.47057e-12
-7.55566e-12
2.35076e-12
-7.29939e-12
2.22834e-12
-7.04171e-12
2.1031e-12
-6.7838e-12
1.97473e-12
-6.52695e-12
1.84339e-12
-6.27222e-12
1.70882e-12
-6.02069e-12
1.57112e-12
-5.77346e-12
1.43033e-12
-5.53151e-12
1.28634e-12
-5.29579e-12
1.13917e-12
-5.06718e-12
9.8881e-13
-4.84654e-12
8.35423e-13
-4.63466e-12
6.78963e-13
-4.43225e-12
5.19615e-13
-4.23998e-12
3.5749e-13
-4.05866e-12
1.92837e-13
-3.88865e-12
2.56397e-14
-3.73018e-12
-1.43951e-13
-3.58404e-12
-3.15706e-13
-3.45026e-12
-4.89768e-13
-3.32905e-12
-6.66067e-13
-3.22085e-12
-8.44359e-13
-3.1259e-12
-1.02445e-12
-3.04417e-12
-1.20613e-12
-2.97616e-12
-1.38881e-12
-2.9217e-12
-1.57241e-12
-2.88065e-12
-1.75649e-12
-2.85291e-12
-1.94046e-12
-2.83815e-12
-2.12391e-12
-2.8362e-12
-2.30607e-12
-2.84663e-12
-2.48642e-12
-2.86897e-12
-2.66428e-12
-2.90268e-12
-2.83893e-12
-2.94729e-12
-3.00944e-12
-3.00223e-12
-3.17509e-12
-3.06694e-12
-3.33504e-12
-3.14076e-12
-3.48844e-12
-3.22309e-12
-3.6344e-12
-3.31325e-12
-3.77211e-12
-3.41068e-12
-3.90058e-12
-3.51469e-12
-4.0191e-12
-3.62468e-12
-4.12684e-12
-3.74007e-12
-4.22303e-12
-3.86018e-12
-4.30713e-12
-3.98428e-12
-4.37874e-12
-4.11142e-12
-4.43767e-12
-4.24037e-12
-4.48405e-12
-4.36954e-12
-4.51826e-12
-4.49698e-12
-4.5409e-12
-4.62055e-12
-4.5526e-12
-4.73806e-12
-4.55393e-12
-4.84749e-12
-4.54526e-12
-4.94707e-12
-4.5267e-12
-5.03527e-12
-4.49822e-12
-5.1108e-12
-4.45973e-12
-5.17252e-12
-4.41119e-12
-5.21942e-12
-4.35269e-12
-5.25058e-12
-4.28441e-12
-5.26527e-12
-4.20651e-12
-5.26276e-12
-4.1194e-12
-5.24243e-12
-4.02346e-12
-5.20375e-12
-3.9191e-12
-5.1464e-12
-3.80665e-12
-5.07001e-12
-3.68672e-12
-4.97444e-12
-3.55963e-12
-4.85956e-12
-3.426e-12
-4.72544e-12
-3.2862e-12
-4.57222e-12
-3.14078e-12
-4.40008e-12
-2.99022e-12
-4.2094e-12
-2.83493e-12
-4.00058e-12
-2.67541e-12
-3.77416e-12
-2.51208e-12
-3.53069e-12
-2.34539e-12
-3.27084e-12
-2.17577e-12
-2.99531e-12
-2.00372e-12
-2.7048e-12
-1.82978e-12
-2.4001e-12
-1.65459e-12
-2.08185e-12
-1.47885e-12
-1.75074e-12
-1.3033e-12
-1.40742e-12
-1.12867e-12
-1.0526e-12
-9.55549e-13
-6.86884e-13
-7.84351e-13
-3.10772e-13
-6.15333e-13
7.53182e-14
-4.48642e-13
4.7079e-13
-2.84548e-13
8.744e-13
-1.22838e-13
1.28512e-12
3.65098e-14
1.70209e-12
1.93006e-13
2.12418e-12
3.47028e-13
2.55026e-12
4.98521e-13
2.97933e-12
6.47372e-13
3.4102e-12
7.93665e-13
3.84161e-12
9.37479e-13
4.27243e-12
1.07865e-12
4.70129e-12
1.21731e-12
5.127e-12
1.35338e-12
5.5482e-12
1.48684e-12
5.96343e-12
1.61784e-12
6.37132e-12
1.74642e-12
6.77006e-12
1.87356e-12
7.15723e-12
2.00168e-12
7.52877e-12
2.13775e-12
7.87666e-12
2.29915e-12
8.18361e-12
2.52583e-12
8.41408e-12
2.89867e-12
8.49983e-12
3.55894e-12
8.32596e-12
4.703e-12
7.73328e-12
6.50054e-12
6.565e-12
8.88095e-12
4.78585e-12
1.12099e-11
2.64838e-12
1.21042e-11
7.81908e-13
9.87275e-12
3.89697e-12
-8.54029e-13
4.93246e-12
-2.86315e-12
1.22463e-11
-5.15228e-12
1.4821e-11
-7.0696e-12
1.36098e-11
-8.35986e-12
1.07139e-11
-9.06284e-12
7.79752e-12
-9.34047e-12
5.61034e-12
-9.35666e-12
4.22768e-12
-9.22923e-12
3.4387e-12
-9.02808e-12
3.00327e-12
-8.78981e-12
2.74907e-12
-8.53188e-12
2.57708e-12
-8.2627e-12
2.43875e-12
-7.98621e-12
2.31226e-12
-7.70496e-12
2.18931e-12
-7.42063e-12
2.06643e-12
-7.13496e-12
1.94266e-12
-6.84913e-12
1.81726e-12
-6.56472e-12
1.69031e-12
-6.28272e-12
1.56138e-12
-6.00448e-12
1.43058e-12
-5.73118e-12
1.29781e-12
-5.46378e-12
1.16293e-12
-5.20332e-12
1.02588e-12
-4.95086e-12
8.86705e-13
-4.70723e-12
7.45169e-13
-4.47334e-12
6.0152e-13
-4.24982e-12
4.55441e-13
-4.03747e-12
3.07255e-13
-3.83669e-12
1.56707e-13
-3.64811e-12
4.2413e-15
-3.47192e-12
-1.50557e-13
-3.30875e-12
-3.07133e-13
-3.15873e-12
-4.65734e-13
-3.02215e-12
-6.26354e-13
-2.89937e-12
-7.88855e-13
-2.79065e-12
-9.53095e-13
-2.69622e-12
-1.11889e-12
-2.61638e-12
-1.28599e-12
-2.55103e-12
-1.45417e-12
-2.50028e-12
-1.62317e-12
-2.46418e-12
-1.7926e-12
-2.44242e-12
-1.96223e-12
-2.43491e-12
-2.13144e-12
-2.44105e-12
-2.29994e-12
-2.46042e-12
-2.46706e-12
-2.49259e-12
-2.63212e-12
-2.53714e-12
-2.79439e-12
-2.59323e-12
-2.95337e-12
-2.66035e-12
-3.10798e-12
-2.73786e-12
-3.25755e-12
-2.82509e-12
-3.40122e-12
-2.92132e-12
-3.53818e-12
-3.02604e-12
-3.6674e-12
-3.13842e-12
-3.78821e-12
-3.25785e-12
-3.89969e-12
-3.38366e-12
-4.00104e-12
-3.5151e-12
-4.09159e-12
-3.65146e-12
-4.17079e-12
-3.79195e-12
-4.23827e-12
-3.93557e-12
-4.29406e-12
-4.08112e-12
-4.33852e-12
-4.22703e-12
-4.37236e-12
-4.37144e-12
-4.3965e-12
-4.51225e-12
-4.41179e-12
-4.64732e-12
-4.41888e-12
-4.77455e-12
-4.41804e-12
-4.89203e-12
-4.40923e-12
-4.99808e-12
-4.39218e-12
-5.09126e-12
-4.36656e-12
-5.1704e-12
-4.33205e-12
-5.23438e-12
-4.28873e-12
-5.28221e-12
-4.23659e-12
-5.31304e-12
-4.17569e-12
-5.32611e-12
-4.10634e-12
-5.32082e-12
-4.02876e-12
-5.2966e-12
-3.94334e-12
-5.25304e-12
-3.85023e-12
-5.18982e-12
-3.74995e-12
-5.10668e-12
-3.64279e-12
-5.00354e-12
-3.52915e-12
-4.88034e-12
-3.40942e-12
-4.73719e-12
-3.28395e-12
-4.57424e-12
-3.15317e-12
-4.39183e-12
-3.01736e-12
-4.19029e-12
-2.87697e-12
-3.97007e-12
-2.73231e-12
-3.73177e-12
-2.58371e-12
-3.47597e-12
-2.43159e-12
-3.20335e-12
-2.27636e-12
-2.91459e-12
-2.11856e-12
-2.61037e-12
-1.95883e-12
-2.29136e-12
-1.79788e-12
-1.9582e-12
-1.63648e-12
-1.61154e-12
-1.47535e-12
-1.25202e-12
-1.31508e-12
-8.80272e-13
-1.15612e-12
-4.96906e-13
-9.98714e-13
-1.02607e-13
-8.42955e-13
3.01753e-13
-6.88924e-13
7.15595e-13
-5.36694e-13
1.1381e-12
-3.86012e-13
1.56797e-12
-2.3688e-13
2.00428e-12
-8.92964e-14
2.44553e-12
5.72627e-14
2.89103e-12
2.0185e-13
3.33934e-12
3.45345e-13
3.78923e-12
4.87577e-13
4.23935e-12
6.28518e-13
4.68844e-12
7.68207e-13
5.1351e-12
9.06702e-13
5.57792e-12
1.04401e-12
6.01547e-12
1.18028e-12
6.44619e-12
1.31568e-12
6.86836e-12
1.45138e-12
7.27949e-12
1.59053e-12
7.67555e-12
1.74168e-12
8.04827e-12
1.92642e-12
8.38023e-12
2.19385e-12
8.63465e-12
2.64423e-12
8.74095e-12
3.45262e-12
8.5802e-12
4.86374e-12
7.98644e-12
7.09429e-12
6.79526e-12
1.00721e-11
4.96598e-12
1.30392e-11
2.75615e-12
1.4314e-11
8.17127e-13
1.18118e-11
4.71409e-12
-9.00688e-13
5.83314e-12
-3.01501e-12
1.43607e-11
-5.42057e-12
1.72265e-11
-7.43324e-12
1.56224e-11
-8.78645e-12
1.20671e-11
-9.52302e-12
8.53408e-12
-9.81382e-12
5.90114e-12
-9.83113e-12
4.24499e-12
-9.69862e-12
3.30617e-12
-9.48997e-12
2.79462e-12
-9.24345e-12
2.50255e-12
-8.97747e-12
2.31109e-12
-8.70061e-12
2.16188e-12
-8.41718e-12
2.02882e-12
-8.12943e-12
1.90156e-12
-7.83937e-12
1.77636e-12
-7.54831e-12
1.6516e-12
-7.25787e-12
1.52681e-12
-6.9692e-12
1.40164e-12
-6.68363e-12
1.27581e-12
-6.40241e-12
1.14935e-12
-6.12665e-12
1.02203e-12
-5.85744e-12
8.93711e-13
-5.59576e-12
7.64193e-13
-5.34244e-12
6.33376e-13
-5.09853e-12
5.01253e-13
-4.86463e-12
3.67611e-13
-4.64152e-12
2.32322e-13
-4.42973e-12
9.54548e-14
-4.22984e-12
-4.31882e-14
-4.04208e-12
-1.83528e-13
-3.86711e-12
-3.25537e-13
-3.705e-12
-4.69246e-13
-3.55589e-12
-6.14856e-13
-3.42003e-12
-7.62227e-13
-3.29766e-12
-9.11231e-13
-3.18872e-12
-1.06205e-12
-3.09333e-12
-1.21429e-12
-3.01164e-12
-1.36769e-12
-2.94351e-12
-1.52231e-12
-2.88892e-12
-1.67777e-12
-2.84763e-12
-1.83391e-12
-2.81937e-12
-1.99049e-12
-2.80369e-12
-2.14714e-12
-2.80022e-12
-2.30342e-12
-2.80832e-12
-2.45897e-12
-2.82749e-12
-2.61296e-12
-2.85694e-12
-2.76495e-12
-2.89631e-12
-2.91401e-12
-2.94483e-12
-3.05948e-12
-3.00172e-12
-3.20067e-12
-3.06644e-12
-3.3365e-12
-3.13847e-12
-3.46616e-12
-3.21695e-12
-3.58893e-12
-3.30131e-12
-3.70386e-12
-3.39106e-12
-3.80994e-12
-3.48576e-12
-3.90635e-12
-3.5848e-12
-3.99257e-12
-3.68769e-12
-4.06791e-12
-3.79378e-12
-4.13218e-12
-3.9023e-12
-4.18555e-12
-4.01221e-12
-4.22862e-12
-4.12221e-12
-4.26238e-12
-4.23067e-12
-4.28805e-12
-4.33577e-12
-4.3067e-12
-4.43555e-12
-4.3191e-12
-4.52809e-12
-4.32552e-12
-4.6116e-12
-4.32573e-12
-4.68453e-12
-4.31925e-12
-4.74551e-12
-4.3056e-12
-4.79347e-12
-4.2841e-12
-4.82745e-12
-4.25476e-12
-4.84656e-12
-4.21748e-12
-4.8502e-12
-4.17206e-12
-4.8376e-12
-4.11895e-12
-4.80836e-12
-4.05801e-12
-4.76193e-12
-3.98978e-12
-4.698e-12
-3.91417e-12
-4.61623e-12
-3.83173e-12
-4.51641e-12
-3.74262e-12
-4.39843e-12
-3.64714e-12
-4.26228e-12
-3.54558e-12
-4.10796e-12
-3.43828e-12
-3.93565e-12
-3.3255e-12
-3.74547e-12
-3.20755e-12
-3.53774e-12
-3.08471e-12
-3.31285e-12
-2.95722e-12
-3.07117e-12
-2.8254e-12
-2.81326e-12
-2.68952e-12
-2.53959e-12
-2.55004e-12
-2.25069e-12
-2.40747e-12
-1.94705e-12
-2.26248e-12
-1.62915e-12
-2.11579e-12
-1.2975e-12
-1.96815e-12
-9.52579e-13
-1.82028e-12
-5.94932e-13
-1.67274e-12
-2.2517e-13
-1.52589e-12
1.56088e-13
-1.37999e-12
5.48156e-13
-1.23504e-12
9.50401e-13
-1.09118e-12
1.36177e-12
-9.48082e-13
1.78155e-12
-8.05802e-13
2.20861e-12
-6.63955e-13
2.64181e-12
-5.22512e-13
3.08046e-12
-3.81397e-13
3.52285e-12
-2.40556e-13
3.96794e-12
-9.97602e-14
4.41418e-12
4.13204e-14
4.8606e-12
1.82083e-13
5.30593e-12
3.22856e-13
5.7486e-12
4.64021e-13
6.1872e-12
6.05399e-13
6.62051e-12
7.46954e-13
7.04691e-12
8.89256e-13
7.46456e-12
1.03372e-12
7.87097e-12
1.1841e-12
8.26208e-12
1.35055e-12
8.62955e-12
1.55894e-12
8.95473e-12
1.86866e-12
9.19948e-12
2.39946e-12
9.28972e-12
3.36237e-12
9.10071e-12
5.05273e-12
8.45843e-12
7.73655e-12
7.19025e-12
1.13403e-11
5.25311e-12
1.49763e-11
2.91674e-12
1.66503e-11
8.66001e-13
1.38625e-11
5.58009e-12
-9.54733e-13
6.78787e-12
-3.19454e-12
1.66005e-11
-5.74241e-12
1.97744e-11
-7.87479e-12
1.77548e-11
-9.31035e-12
1.35027e-11
-1.00943e-11
9.318e-12
-1.0407e-11
6.21382e-12
-1.04306e-11
4.26862e-12
-1.02962e-11
3.17172e-12
-1.00817e-11
2.58018e-12
-9.82794e-12
2.24875e-12
-9.55447e-12
2.03763e-12
-9.27015e-12
1.87755e-12
-8.97958e-12
1.73825e-12
-8.68541e-12
1.60739e-12
-8.38943e-12
1.48038e-12
-8.09321e-12
1.35537e-12
-7.79809e-12
1.23169e-12
-7.50537e-12
1.10892e-12
-7.2163e-12
9.86735e-13
-6.93229e-12
8.65329e-13
-6.65425e-12
7.43988e-13
-6.38309e-12
6.22547e-13
-6.11995e-12
5.01049e-13
-5.86588e-12
3.79293e-13
-5.62159e-12
2.56957e-13
-5.38772e-12
1.33733e-13
-5.16515e-12
9.74812e-15
-4.95396e-12
-1.15741e-13
-4.75497e-12
-2.42186e-13
-4.56859e-12
-3.69918e-13
-4.39496e-12
-4.99174e-13
-4.23413e-12
-6.30084e-13
-4.08641e-12
-7.62593e-13
-3.95177e-12
-8.96873e-13
-3.82996e-12
-1.03305e-12
-3.72114e-12
-1.17088e-12
-3.62511e-12
-1.31033e-12
-3.54153e-12
-1.45128e-12
-3.47043e-12
-1.59342e-12
-3.41131e-12
-1.73691e-12
-3.36391e-12
-1.88132e-12
-3.32782e-12
-2.02659e-12
-3.30252e-12
-2.17244e-12
-3.28719e-12
-2.31876e-12
-3.28156e-12
-2.46462e-12
-3.28463e-12
-2.6099e-12
-3.29586e-12
-2.75373e-12
-3.31438e-12
-2.8955e-12
-3.3394e-12
-3.03447e-12
-3.3705e-12
-3.16958e-12
-3.40686e-12
-3.30015e-12
-3.44793e-12
-3.42511e-12
-3.49313e-12
-3.54374e-12
-3.54207e-12
-3.65492e-12
-3.59428e-12
-3.75775e-12
-3.6494e-12
-3.85124e-12
-3.70725e-12
-3.93473e-12
-3.76745e-12
-4.00772e-12
-3.82964e-12
-4.07e-12
-3.89335e-12
-4.12186e-12
-3.95779e-12
-4.16418e-12
-4.02203e-12
-4.19815e-12
-4.08468e-12
-4.22541e-12
-4.14406e-12
-4.24733e-12
-4.19837e-12
-4.26481e-12
-4.24593e-12
-4.27797e-12
-4.28509e-12
-4.28658e-12
-4.31447e-12
-4.28989e-12
-4.33301e-12
-4.28707e-12
-4.33977e-12
-4.27735e-12
-4.33391e-12
-4.26064e-12
-4.31511e-12
-4.23629e-12
-4.28243e-12
-4.20475e-12
-4.23582e-12
-4.16558e-12
-4.17455e-12
-4.1193e-12
-4.0984e-12
-4.06595e-12
-4.00705e-12
-4.00553e-12
-3.90032e-12
-3.93848e-12
-3.77794e-12
-3.86502e-12
-3.63987e-12
-3.78523e-12
-3.48603e-12
-3.69943e-12
-3.31635e-12
-3.60798e-12
-3.13094e-12
-3.51093e-12
-2.92986e-12
-3.40864e-12
-2.71333e-12
-3.30126e-12
-2.48157e-12
-3.18898e-12
-2.23489e-12
-3.0721e-12
-1.97354e-12
-2.95088e-12
-1.69791e-12
-2.82569e-12
-1.40827e-12
-2.69713e-12
-1.1049e-12
-2.56587e-12
-7.88029e-13
-2.43267e-12
-4.5796e-13
-2.29823e-12
-1.15213e-13
-2.16304e-12
2.40025e-13
-2.028e-12
6.0716e-13
-1.89304e-12
9.85711e-13
-1.75855e-12
1.37506e-12
-1.6244e-12
1.77417e-12
-1.49031e-12
2.18231e-12
-1.35624e-12
2.59832e-12
-1.22182e-12
3.02142e-12
-1.08707e-12
3.45059e-12
-9.51693e-13
3.88466e-12
-8.15486e-13
4.32232e-12
-6.78231e-13
4.76247e-12
-5.39928e-13
5.20413e-12
-4.00357e-13
5.64568e-12
-2.59475e-13
6.0857e-12
-1.17179e-13
6.52255e-12
2.71513e-14
6.95537e-12
1.72568e-13
7.38257e-12
3.19735e-13
7.8026e-12
4.6921e-13
8.21368e-12
6.22622e-13
8.61321e-12
7.84547e-13
8.99709e-12
9.66665e-13
9.3561e-12
1.19992e-12
9.67111e-12
1.55363e-12
9.90116e-12
2.16939e-12
9.968e-12
3.29552e-12
9.73986e-12
5.28086e-12
9.03343e-12
8.44296e-12
7.66695e-12
1.27067e-11
5.59583e-12
1.70474e-11
3.10591e-12
1.91402e-11
9.22463e-13
1.60459e-11
6.50255e-12
-1.01632e-12
7.80418e-12
-3.3998e-12
1.89839e-11
-6.11085e-12
2.24854e-11
-8.38061e-12
2.00245e-11
-9.9101e-12
1.50322e-11
-1.07472e-11
1.01551e-11
-1.10831e-11
6.54977e-12
-1.11112e-11
4.29666e-12
-1.0971e-11
3.03158e-12
-1.07461e-11
2.35521e-12
-1.04799e-11
1.98262e-12
-1.01933e-11
1.751e-12
-9.89636e-12
1.58059e-12
-9.59354e-12
1.43541e-12
-9.28782e-12
1.30167e-12
-8.9807e-12
1.17325e-12
-8.67417e-12
1.04884e-12
-8.36938e-12
9.26889e-13
-8.06762e-12
8.07149e-13
-7.77036e-12
6.89469e-13
-7.47861e-12
5.73581e-13
-7.19361e-12
4.58979e-13
-6.91666e-12
3.45588e-13
-6.64851e-12
2.32892e-13
-6.39009e-12
1.20869e-13
-6.14242e-12
9.27446e-15
-5.90546e-12
-1.03228e-13
-5.68029e-12
-2.15434e-13
-5.46781e-12
-3.28224e-13
-5.26819e-12
-4.41815e-13
-5.08151e-12
-5.56613e-13
-4.90804e-12
-6.72645e-13
-4.74789e-12
-7.9025e-13
-4.60092e-12
-9.09571e-13
-4.46701e-12
-1.03079e-12
-4.34592e-12
-1.15415e-12
-4.23736e-12
-1.27945e-12
-4.14091e-12
-1.40679e-12
-4.05608e-12
-1.53612e-12
-3.98249e-12
-1.66702e-12
-3.91991e-12
-1.7995e-12
-3.8676e-12
-1.93364e-12
-3.8249e-12
-2.06931e-12
-3.79105e-12
-2.2063e-12
-3.7656e-12
-2.34422e-12
-3.74733e-12
-2.4829e-12
-3.73557e-12
-2.62167e-12
-3.72937e-12
-2.75994e-12
-3.72799e-12
-2.89689e-12
-3.73071e-12
-3.03176e-12
-3.7367e-12
-3.1636e-12
-3.74517e-12
-3.29169e-12
-3.75565e-12
-3.41463e-12
-3.76773e-12
-3.53168e-12
-3.7812e-12
-3.64146e-12
-3.79571e-12
-3.74325e-12
-3.81087e-12
-3.83609e-12
-3.82689e-12
-3.91872e-12
-3.84384e-12
-3.99079e-12
-3.8616e-12
-4.05225e-12
-3.87999e-12
-4.10348e-12
-3.89855e-12
-4.14563e-12
-3.91643e-12
-4.18028e-12
-3.93253e-12
-4.20932e-12
-3.94534e-12
-4.23453e-12
-3.95334e-12
-4.25683e-12
-3.95478e-12
-4.27653e-12
-3.94826e-12
-4.29312e-12
-3.93263e-12
-4.30552e-12
-3.90719e-12
-4.31252e-12
-3.87099e-12
-4.31357e-12
-3.82393e-12
-4.30771e-12
-3.76529e-12
-4.29495e-12
-3.69497e-12
-4.27508e-12
-3.61256e-12
-4.248e-12
-3.51793e-12
-4.21395e-12
-3.41079e-12
-4.1731e-12
-3.29096e-12
-4.12537e-12
-3.15825e-12
-4.0712e-12
-3.01257e-12
-4.01071e-12
-2.85369e-12
-3.94413e-12
-2.68146e-12
-3.87167e-12
-2.49593e-12
-3.79353e-12
-2.29693e-12
-3.70993e-12
-2.08463e-12
-3.62096e-12
-1.859e-12
-3.5269e-12
-1.62013e-12
-3.42787e-12
-1.36817e-12
-3.32407e-12
-1.10325e-12
-3.21582e-12
-8.25402e-13
-3.10354e-12
-5.34782e-13
-2.98777e-12
-2.31383e-13
-2.86928e-12
8.47838e-14
-2.74886e-12
4.13663e-13
-2.62713e-12
7.55508e-13
-2.5049e-12
1.10951e-12
-2.38202e-12
1.47551e-12
-2.25906e-12
1.85268e-12
-2.13574e-12
2.24032e-12
-2.01206e-12
2.63772e-12
-1.88773e-12
3.04403e-12
-1.76256e-12
3.45839e-12
-1.6362e-12
3.87968e-12
-1.50838e-12
4.30688e-12
-1.3789e-12
4.73886e-12
-1.24748e-12
5.17455e-12
-1.11394e-12
5.61259e-12
-9.7799e-13
6.05178e-12
-8.39555e-13
6.49076e-12
-6.98471e-13
6.92817e-12
-5.54613e-13
7.36314e-12
-4.07829e-13
7.79374e-12
-2.58053e-13
8.21848e-12
-1.05022e-13
8.63522e-12
5.24626e-14
9.04291e-12
2.14907e-13
9.43909e-12
3.88354e-13
9.81877e-12
5.86965e-13
1.01725e-11
8.46138e-13
1.04794e-11
1.24679e-12
1.06958e-11
1.95293e-12
1.07388e-11
3.25251e-12
1.04682e-11
5.55141e-12
9.68982e-12
9.22137e-12
8.21162e-12
1.41849e-11
5.98753e-12
1.92715e-11
3.32188e-12
2.18059e-11
9.86737e-13
1.8381e-11
7.48929e-12
-1.08633e-12
8.89051e-12
-3.63268e-12
2.15303e-11
-6.52804e-12
2.53808e-11
-8.95208e-12
2.24486e-11
-1.0586e-11
1.66662e-11
-1.14805e-11
1.10495e-11
-1.18393e-11
6.90851e-12
-1.18687e-11
4.32611e-12
-1.17181e-11
2.88096e-12
-1.14765e-11
2.11359e-12
-1.11912e-11
1.69734e-12
-1.0885e-11
1.44477e-12
-1.05686e-11
1.26419e-12
-1.02468e-11
1.11365e-12
-9.92239e-12
9.7721e-13