/*--------------------------------*- C++ -*----------------------------------*\
| =========                 |                                                 |
| \\      /  F ield         | OpenFOAM: The Open Source CFD Toolbox           |
|  \\    /   O peration     | Version:  2212                                  |
|   \\  /    A nd           | Website:  www.openfoam.com                      |
|    \\/     M anipulation  |                                                 |
\*---------------------------------------------------------------------------*/
FoamFile
{
    version     2.0;
    format      ascii;
    arch        "LSB;label=64;scalar=64";
    class       volVectorField;
    location    "0.45";
    object      U;
}
// * * * * * * * * * * * * * * * * * * * * * * * * * * * * * * * * * * * * * //

dimensions      [0 1 -1 0 0 0 0];

internalField   nonuniform List<vector> 
32768
(
(-2.01652e-07 1.35859e-06 0)
(-8.61e-06 6.47929e-06 0)
(-2.46775e-05 9.77598e-06 0)
(-4.32102e-05 1.08442e-05 0)
(-6.1079e-05 1.05987e-05 0)
(-7.71008e-05 9.95709e-06 0)
(-9.13618e-05 9.39318e-06 0)
(-0.000104387 9.02312e-06 0)
(-0.000116662 8.80123e-06 0)
(-0.000128492 8.65134e-06 0)
(-0.000140022 8.5178e-06 0)
(-0.000151298 8.37156e-06 0)
(-0.000162321 8.20147e-06 0)
(-0.00017307 8.00527e-06 0)
(-0.00018352 7.78411e-06 0)
(-0.000193645 7.53993e-06 0)
(-0.00020342 7.27456e-06 0)
(-0.000212822 6.98949e-06 0)
(-0.000221827 6.68584e-06 0)
(-0.000230412 6.36454e-06 0)
(-0.000238557 6.02636e-06 0)
(-0.00024624 5.67202e-06 0)
(-0.000253442 5.3021e-06 0)
(-0.000260141 4.91716e-06 0)
(-0.000266318 4.51762e-06 0)
(-0.000271955 4.1039e-06 0)
(-0.000277032 3.67643e-06 0)
(-0.00028153 3.23566e-06 0)
(-0.000285431 2.78209e-06 0)
(-0.000288718 2.31634e-06 0)
(-0.000291374 1.83922e-06 0)
(-0.000293382 1.35189e-06 0)
(-0.000294727 8.56175e-07 0)
(-0.000295399 3.54847e-07 0)
(-0.000295383 -1.49857e-07 0)
(-0.000294671 -6.59451e-07 0)
(-0.000293262 -1.17108e-06 0)
(-0.000291152 -1.68208e-06 0)
(-0.00028834 -2.19104e-06 0)
(-0.000284825 -2.69706e-06 0)
(-0.000280609 -3.19915e-06 0)
(-0.000275695 -3.69627e-06 0)
(-0.000270087 -4.18727e-06 0)
(-0.000263791 -4.67089e-06 0)
(-0.000256816 -5.14574e-06 0)
(-0.000249172 -5.61036e-06 0)
(-0.000240872 -6.06329e-06 0)
(-0.000231933 -6.50299e-06 0)
(-0.00022237 -6.92793e-06 0)
(-0.000212206 -7.33663e-06 0)
(-0.000201463 -7.72753e-06 0)
(-0.000190166 -8.09906e-06 0)
(-0.000178344 -8.44969e-06 0)
(-0.000166025 -8.77803e-06 0)
(-0.000153244 -9.08274e-06 0)
(-0.000140035 -9.36258e-06 0)
(-0.000126434 -9.61644e-06 0)
(-0.000112481 -9.84333e-06 0)
(-9.82151e-05 -1.00423e-05 0)
(-8.36792e-05 -1.02124e-05 0)
(-6.89168e-05 -1.03523e-05 0)
(-5.39745e-05 -1.04602e-05 0)
(-3.89018e-05 -1.05335e-05 0)
(-2.37511e-05 -1.05694e-05 0)
(-8.57643e-06 -1.05664e-05 0)
(6.58038e-06 -1.05253e-05 0)
(2.16443e-05 -1.04509e-05 0)
(3.65852e-05 -1.03472e-05 0)
(5.1361e-05 -1.02157e-05 0)
(6.593e-05 -1.00569e-05 0)
(8.02529e-05 -9.87113e-06 0)
(9.42911e-05 -9.65878e-06 0)
(0.000108007 -9.42029e-06 0)
(0.000121364 -9.15643e-06 0)
(0.000134326 -8.86816e-06 0)
(0.00014686 -8.55662e-06 0)
(0.000158933 -8.22294e-06 0)
(0.000170516 -7.86829e-06 0)
(0.00018158 -7.49396e-06 0)
(0.0001921 -7.10144e-06 0)
(0.000202051 -6.69227e-06 0)
(0.000211413 -6.26794e-06 0)
(0.000220165 -5.82992e-06 0)
(0.000228292 -5.37969e-06 0)
(0.000235778 -4.91873e-06 0)
(0.000242611 -4.4485e-06 0)
(0.000248781 -3.97018e-06 0)
(0.000254278 -3.48468e-06 0)
(0.000259094 -2.99289e-06 0)
(0.000263225 -2.49567e-06 0)
(0.000266665 -1.99392e-06 0)
(0.000269412 -1.48849e-06 0)
(0.000271463 -9.80517e-07 0)
(0.00027282 -4.72143e-07 0)
(0.000273485 3.27543e-08 0)
(0.000273463 5.30044e-07 0)
(0.000272764 1.0199e-06 0)
(0.000271408 1.50039e-06 0)
(0.000269409 1.96998e-06 0)
(0.000266785 2.42779e-06 0)
(0.000263552 2.87316e-06 0)
(0.00025973 3.30567e-06 0)
(0.000255335 3.72506e-06 0)
(0.000250388 4.13114e-06 0)
(0.000244905 4.52365e-06 0)
(0.000238905 4.90218e-06 0)
(0.000232408 5.26617e-06 0)
(0.000225432 5.61498e-06 0)
(0.000217997 5.94797e-06 0)
(0.000210124 6.26448e-06 0)
(0.000201833 6.5637e-06 0)
(0.000193145 6.84472e-06 0)
(0.000184084 7.1064e-06 0)
(0.000174672 7.34719e-06 0)
(0.000164935 7.56524e-06 0)
(0.000154897 7.75853e-06 0)
(0.000144584 7.92589e-06 0)
(0.000134015 8.06955e-06 0)
(0.000123191 8.20078e-06 0)
(0.000112063 8.34908e-06 0)
(0.000100484 8.57121e-06 0)
(8.8143e-05 8.9455e-06 0)
(7.4543e-05 9.52028e-06 0)
(5.9142e-05 1.01804e-05 0)
(4.18393e-05 1.04472e-05 0)
(2.38191e-05 9.39533e-06 0)
(8.21817e-06 6.13478e-06 0)
(1.48736e-07 1.19265e-06 0)
(-1.04689e-06 1.58082e-05 0)
(-1.6038e-05 4.58913e-05 0)
(-4.02667e-05 6.18044e-05 0)
(-6.63566e-05 6.40357e-05 0)
(-8.98233e-05 5.88997e-05 0)
(-0.000109339 5.2116e-05 0)
(-0.000125427 4.65827e-05 0)
(-0.000139158 4.29206e-05 0)
(-0.00015146 4.07041e-05 0)
(-0.00016293 3.93176e-05 0)
(-0.000173884 3.8301e-05 0)
(-0.000184464 3.73927e-05 0)
(-0.000194718 3.64698e-05 0)
(-0.000204655 3.5484e-05 0)
(-0.000214268 3.44201e-05 0)
(-0.000223541 3.32762e-05 0)
(-0.000232458 3.20539e-05 0)
(-0.000241002 3.07557e-05 0)
(-0.000249154 2.9384e-05 0)
(-0.000256897 2.79406e-05 0)
(-0.000264215 2.6427e-05 0)
(-0.00027109 2.48448e-05 0)
(-0.000277505 2.31952e-05 0)
(-0.000283443 2.14796e-05 0)
(-0.000288887 1.96988e-05 0)
(-0.00029382 1.78538e-05 0)
(-0.000298227 1.59457e-05 0)
(-0.000302092 1.39754e-05 0)
(-0.000305399 1.19442e-05 0)
(-0.000308133 9.85328e-06 0)
(-0.000310279 7.70468e-06 0)
(-0.000311822 5.50118e-06 0)
(-0.000312748 3.24729e-06 0)
(-0.000313043 9.50476e-07 0)
(-0.000312688 -1.37766e-06 0)
(-0.000311685 -3.72667e-06 0)
(-0.000310026 -6.08853e-06 0)
(-0.000307703 -8.45837e-06 0)
(-0.000304712 -1.08325e-05 0)
(-0.000301047 -1.32068e-05 0)
(-0.000296706 -1.55764e-05 0)
(-0.000291686 -1.79362e-05 0)
(-0.000285989 -2.02801e-05 0)
(-0.000279615 -2.26012e-05 0)
(-0.00027257 -2.48917e-05 0)
(-0.00026486 -2.71439e-05 0)
(-0.000256495 -2.93496e-05 0)
(-0.000247488 -3.15002e-05 0)
(-0.000237853 -3.35871e-05 0)
(-0.000227608 -3.56015e-05 0)
(-0.000216774 -3.75349e-05 0)
(-0.000205375 -3.93783e-05 0)
(-0.000193437 -4.11233e-05 0)
(-0.000180989 -4.27614e-05 0)
(-0.000168065 -4.4285e-05 0)
(-0.000154698 -4.56867e-05 0)
(-0.000140927 -4.69594e-05 0)
(-0.00012679 -4.8097e-05 0)
(-0.00011233 -4.90935e-05 0)
(-9.75917e-05 -4.99427e-05 0)
(-8.26196e-05 -5.06373e-05 0)
(-6.74624e-05 -5.11686e-05 0)
(-5.21699e-05 -5.15269e-05 0)
(-3.67931e-05 -5.1705e-05 0)
(-2.13828e-05 -5.17008e-05 0)
(-5.98634e-06 -5.15184e-05 0)
(9.35642e-06 -5.11708e-05 0)
(2.45791e-05 -5.06744e-05 0)
(3.96534e-05 -5.00383e-05 0)
(5.45365e-05 -4.9267e-05 0)
(6.91879e-05 -4.83632e-05 0)
(8.35689e-05 -4.73297e-05 0)
(9.76417e-05 -4.61693e-05 0)
(0.00011137 -4.48863e-05 0)
(0.000124719 -4.34857e-05 0)
(0.000137655 -4.19735e-05 0)
(0.000150146 -4.03558e-05 0)
(0.000162163 -3.86397e-05 0)
(0.00017368 -3.68324e-05 0)
(0.00018467 -3.49415e-05 0)
(0.000195112 -3.29747e-05 0)
(0.000204985 -3.09396e-05 0)
(0.00021427 -2.88443e-05 0)
(0.000222953 -2.66964e-05 0)
(0.00023102 -2.45031e-05 0)
(0.000238459 -2.22716e-05 0)
(0.000245261 -2.00082e-05 0)
(0.000251418 -1.77186e-05 0)
(0.000256924 -1.54079e-05 0)
(0.000261777 -1.30809e-05 0)
(0.000265973 -1.07427e-05 0)
(0.000269513 -8.39788e-06 0)
(0.000272399 -6.05203e-06 0)
(0.000274632 -3.71213e-06 0)
(0.000276218 -1.38806e-06 0)
(0.000277166 9.07444e-07 0)
(0.00027747 3.15994e-06 0)
(0.00027715 5.35657e-06 0)
(0.000276227 7.4925e-06 0)
(0.000274714 9.56688e-06 0)
(0.000272628 1.15794e-05 0)
(0.000269983 1.35303e-05 0)
(0.000266797 1.54196e-05 0)
(0.000263084 1.72474e-05 0)
(0.000258861 1.90133e-05 0)
(0.000254143 2.07165e-05 0)
(0.000248945 2.23562e-05 0)
(0.000243285 2.39312e-05 0)
(0.000237177 2.54401e-05 0)
(0.000230638 2.68817e-05 0)
(0.000223685 2.82539e-05 0)
(0.000216334 2.95549e-05 0)
(0.0002086 3.07822e-05 0)
(0.000200502 3.1933e-05 0)
(0.000192055 3.3005e-05 0)
(0.000183273 3.40003e-05 0)
(0.000174165 3.49333e-05 0)
(0.000164721 3.58528e-05 0)
(0.000154892 3.6883e-05 0)
(0.000144535 3.82895e-05 0)
(0.000133329 4.05414e-05 0)
(0.000120667 4.427e-05 0)
(0.000105602 4.9921e-05 0)
(8.70332e-05 5.68822e-05 0)
(6.44116e-05 6.22259e-05 0)
(3.90573e-05 6.01722e-05 0)
(1.54701e-05 4.44745e-05 0)
(9.87109e-07 1.51273e-05 0)
(-9.56848e-07 3.18961e-05 0)
(-1.47675e-05 8.44306e-05 0)
(-3.58775e-05 0.000108543 0)
(-5.73087e-05 0.00010787 0)
(-7.5e-05 9.47269e-05 0)
(-8.80399e-05 7.96304e-05 0)
(-9.72522e-05 6.77277e-05 0)
(-0.0001039 5.99481e-05 0)
(-0.000109031 5.53155e-05 0)
(-0.000113319 5.25448e-05 0)
(-0.00011713 5.06817e-05 0)
(-0.000120643 4.91745e-05 0)
(-0.000123937 4.77537e-05 0)
(-0.000127042 4.6304e-05 0)
(-0.000129973 4.47821e-05 0)
(-0.000132733 4.31743e-05 0)
(-0.000135323 4.14777e-05 0)
(-0.000137741 3.96927e-05 0)
(-0.000139988 3.78207e-05 0)
(-0.000142061 3.58629e-05 0)
(-0.000143959 3.38203e-05 0)
(-0.000145679 3.16942e-05 0)
(-0.000147219 2.94858e-05 0)
(-0.000148578 2.71968e-05 0)
(-0.000149751 2.48281e-05 0)
(-0.000150738 2.23812e-05 0)
(-0.000151537 1.98577e-05 0)
(-0.000152145 1.72593e-05 0)
(-0.000152561 1.45883e-05 0)
(-0.000152785 1.1847e-05 0)
(-0.000152816 9.03852e-06 0)
(-0.000152655 6.16601e-06 0)
(-0.000152303 3.23345e-06 0)
(-0.000151759 2.47115e-07 0)
(-0.000151032 -2.78242e-06 0)
(-0.000150112 -5.84519e-06 0)
(-0.000148989 -8.93603e-06 0)
(-0.000147657 -1.20517e-05 0)
(-0.000146109 -1.51879e-05 0)
(-0.000144339 -1.8338e-05 0)
(-0.000142342 -2.14952e-05 0)
(-0.000140114 -2.46516e-05 0)
(-0.000137654 -2.77982e-05 0)
(-0.000134957 -3.09246e-05 0)
(-0.000132022 -3.40201e-05 0)
(-0.000128849 -3.70731e-05 0)
(-0.00012544 -4.0072e-05 0)
(-0.000121795 -4.30045e-05 0)
(-0.000117917 -4.58577e-05 0)
(-0.000113813 -4.86191e-05 0)
(-0.000109486 -5.12758e-05 0)
(-0.000104943 -5.38147e-05 0)
(-0.000100194 -5.62229e-05 0)
(-9.52479e-05 -5.84881e-05 0)
(-9.01161e-05 -6.0598e-05 0)
(-8.48108e-05 -6.25412e-05 0)
(-7.93462e-05 -6.4307e-05 0)
(-7.37383e-05 -6.58854e-05 0)
(-6.80042e-05 -6.72671e-05 0)
(-6.21614e-05 -6.84432e-05 0)
(-5.6228e-05 -6.94047e-05 0)
(-5.02217e-05 -7.01422e-05 0)
(-4.41591e-05 -7.06478e-05 0)
(-3.80547e-05 -7.09168e-05 0)
(-3.19207e-05 -7.09511e-05 0)
(-2.57681e-05 -7.07583e-05 0)
(-1.96072e-05 -7.03496e-05 0)
(-1.345e-05 -6.97385e-05 0)
(-7.30908e-06 -6.89364e-05 0)
(-1.19908e-06 -6.79491e-05 0)
(4.86643e-06 -6.678e-05 0)
(1.08706e-05 -6.54338e-05 0)
(1.68009e-05 -6.39154e-05 0)
(2.26449e-05 -6.22309e-05 0)
(2.83908e-05 -6.03879e-05 0)
(3.40269e-05 -5.83945e-05 0)
(3.95413e-05 -5.62597e-05 0)
(4.49237e-05 -5.3993e-05 0)
(5.0165e-05 -5.16043e-05 0)
(5.52564e-05 -4.91041e-05 0)
(6.0189e-05 -4.65029e-05 0)
(6.49544e-05 -4.38114e-05 0)
(6.95454e-05 -4.10399e-05 0)
(7.39563e-05 -3.81988e-05 0)
(7.81811e-05 -3.52982e-05 0)
(8.22142e-05 -3.23476e-05 0)
(8.6051e-05 -2.93563e-05 0)
(8.96877e-05 -2.63326e-05 0)
(9.31213e-05 -2.32844e-05 0)
(9.63487e-05 -2.02194e-05 0)
(9.93687e-05 -1.71461e-05 0)
(0.000102182 -1.40719e-05 0)
(0.000104792 -1.10067e-05 0)
(0.000107199 -7.95884e-06 0)
(0.00010941 -4.93715e-06 0)
(0.00011143 -1.95012e-06 0)
(0.000113271 9.89146e-07 0)
(0.000114916 3.86732e-06 0)
(0.000116359 6.6759e-06 0)
(0.000117605 9.41175e-06 0)
(0.000118651 1.20742e-05 0)
(0.000119499 1.46629e-05 0)
(0.00012015 1.71778e-05 0)
(0.000120606 1.9618e-05 0)
(0.000120866 2.19831e-05 0)
(0.000120935 2.42723e-05 0)
(0.000120811 2.64849e-05 0)
(0.000120497 2.86197e-05 0)
(0.000119995 3.06756e-05 0)
(0.000119305 3.26513e-05 0)
(0.000118428 3.45454e-05 0)
(0.000117365 3.63563e-05 0)
(0.000116118 3.80823e-05 0)
(0.000114685 3.97221e-05 0)
(0.000113066 4.12779e-05 0)
(0.000111256 4.27629e-05 0)
(0.000109244 4.42201e-05 0)
(0.000106997 4.57654e-05 0)
(0.000104435 4.76716e-05 0)
(0.000101381 5.04985e-05 0)
(9.74601e-05 5.52183e-05 0)
(9.19904e-05 6.3147e-05 0)
(8.39049e-05 7.53001e-05 0)
(7.1912e-05 9.07669e-05 0)
(5.51589e-05 0.000104349 0)
(3.4546e-05 0.000105416 0)
(1.4142e-05 8.17609e-05 0)
(8.89265e-07 3.05956e-05 0)
(-8.21482e-07 4.56682e-05 0)
(-1.32354e-05 0.000117347 0)
(-3.1824e-05 0.000147206 0)
(-4.99114e-05 0.000142012 0)
(-6.37632e-05 0.000119984 0)
(-7.27252e-05 9.62061e-05 0)
(-7.77809e-05 7.78468e-05 0)
(-8.02739e-05 6.59934e-05 0)
(-8.12858e-05 5.90445e-05 0)
(-8.15031e-05 5.50176e-05 0)
(-8.13006e-05 5.24568e-05 0)
(-8.08627e-05 5.05207e-05 0)
(-8.02756e-05 4.87941e-05 0)
(-7.95802e-05 4.70957e-05 0)
(-7.87979e-05 4.53546e-05 0)
(-7.79421e-05 4.35454e-05 0)
(-7.70223e-05 4.16601e-05 0)
(-7.60468e-05 3.96967e-05 0)
(-7.50231e-05 3.76552e-05 0)
(-7.39588e-05 3.55361e-05 0)
(-7.28608e-05 3.33399e-05 0)
(-7.17351e-05 3.10675e-05 0)
(-7.05864e-05 2.87198e-05 0)
(-6.94206e-05 2.62979e-05 0)
(-6.82444e-05 2.38027e-05 0)
(-6.70629e-05 2.12355e-05 0)
(-6.58814e-05 1.85985e-05 0)
(-6.47048e-05 1.58938e-05 0)
(-6.3538e-05 1.31245e-05 0)
(-6.23859e-05 1.02936e-05 0)
(-6.1254e-05 7.4046e-06 0)
(-6.01487e-05 4.46263e-06 0)
(-5.9075e-05 1.47163e-06 0)
(-5.80351e-05 -1.56401e-06 0)
(-5.70368e-05 -4.64193e-06 0)
(-5.60737e-05 -7.76139e-06 0)
(-5.51454e-05 -1.09196e-05 0)
(-5.42533e-05 -1.41117e-05 0)
(-5.33933e-05 -1.73318e-05 0)
(-5.25628e-05 -2.05733e-05 0)
(-5.17627e-05 -2.38278e-05 0)
(-5.09914e-05 -2.70869e-05 0)
(-5.02462e-05 -3.03409e-05 0)
(-4.95245e-05 -3.35795e-05 0)
(-4.8824e-05 -3.67917e-05 0)
(-4.81426e-05 -3.99655e-05 0)
(-4.74775e-05 -4.30881e-05 0)
(-4.68256e-05 -4.61468e-05 0)
(-4.61845e-05 -4.91282e-05 0)
(-4.5552e-05 -5.20185e-05 0)
(-4.49256e-05 -5.48036e-05 0)
(-4.43029e-05 -5.74691e-05 0)
(-4.36823e-05 -6.00011e-05 0)
(-4.30621e-05 -6.23855e-05 0)
(-4.24413e-05 -6.46085e-05 0)
(-4.18192e-05 -6.66571e-05 0)
(-4.11956e-05 -6.85188e-05 0)
(-4.05706e-05 -7.01821e-05 0)
(-3.99447e-05 -7.16367e-05 0)
(-3.93185e-05 -7.28739e-05 0)
(-3.86917e-05 -7.38866e-05 0)
(-3.80625e-05 -7.46696e-05 0)
(-3.74263e-05 -7.52204e-05 0)
(-3.67752e-05 -7.55398e-05 0)
(-3.60986e-05 -7.56331e-05 0)
(-3.53851e-05 -7.55088e-05 0)
(-3.46243e-05 -7.51763e-05 0)
(-3.38078e-05 -7.46439e-05 0)
(-3.29295e-05 -7.39176e-05 0)
(-3.19853e-05 -7.30013e-05 0)
(-3.0972e-05 -7.18982e-05 0)
(-2.9887e-05 -7.0612e-05 0)
(-2.87282e-05 -6.91481e-05 0)
(-2.74936e-05 -6.75125e-05 0)
(-2.61816e-05 -6.57129e-05 0)
(-2.47911e-05 -6.37575e-05 0)
(-2.33212e-05 -6.16553e-05 0)
(-2.17718e-05 -5.94153e-05 0)
(-2.01426e-05 -5.70475e-05 0)
(-1.84343e-05 -5.45621e-05 0)
(-1.6648e-05 -5.19694e-05 0)
(-1.47853e-05 -4.92796e-05 0)
(-1.28481e-05 -4.65027e-05 0)
(-1.08388e-05 -4.36487e-05 0)
(-8.76017e-06 -4.07276e-05 0)
(-6.61586e-06 -3.77487e-05 0)
(-4.40953e-06 -3.47212e-05 0)
(-2.14509e-06 -3.16538e-05 0)
(1.74092e-07 -2.85552e-05 0)
(2.54246e-06 -2.54342e-05 0)
(4.95687e-06 -2.22997e-05 0)
(7.41242e-06 -1.91621e-05 0)
(9.90537e-06 -1.60325e-05 0)
(1.24358e-05 -1.29222e-05 0)
(1.50019e-05 -9.84169e-06 0)
(1.76e-05 -6.79929e-06 0)
(2.02254e-05 -3.79993e-06 0)
(2.28797e-05 -8.47374e-07 0)
(2.55596e-05 2.05184e-06 0)
(2.82528e-05 4.89272e-06 0)
(3.09519e-05 7.67045e-06 0)
(3.36516e-05 1.03837e-05 0)
(3.63457e-05 1.30307e-05 0)
(3.90275e-05 1.56113e-05 0)
(4.16916e-05 1.81248e-05 0)
(4.43317e-05 2.05707e-05 0)
(4.694e-05 2.29485e-05 0)
(4.95097e-05 2.52571e-05 0)
(5.20347e-05 2.74957e-05 0)
(5.4508e-05 2.96634e-05 0)
(5.69221e-05 3.17594e-05 0)
(5.92692e-05 3.37826e-05 0)
(6.15407e-05 3.57321e-05 0)
(6.37279e-05 3.76089e-05 0)
(6.58214e-05 3.94195e-05 0)
(6.78078e-05 4.11885e-05 0)
(6.96661e-05 4.29868e-05 0)
(7.13554e-05 4.49966e-05 0)
(7.27894e-05 4.76377e-05 0)
(7.37821e-05 5.17637e-05 0)
(7.39549e-05 5.88567e-05 0)
(7.26121e-05 7.09443e-05 0)
(6.86553e-05 8.96854e-05 0)
(6.0715e-05 0.000114021 0)
(4.77813e-05 0.000136712 0)
(3.04987e-05 0.000142515 0)
(1.2609e-05 0.000113362 0)
(7.53648e-07 4.37085e-05 0)
(-8.37526e-07 5.86237e-05 0)
(-1.3111e-05 0.000148127 0)
(-3.12513e-05 0.000182616 0)
(-4.85451e-05 0.000172068 0)
(-6.13237e-05 0.000140661 0)
(-6.90366e-05 0.000107988 0)
(-7.27587e-05 8.31298e-05 0)
(-7.38934e-05 6.72419e-05 0)
(-7.35533e-05 5.80465e-05 0)
(-7.24383e-05 5.28419e-05 0)
(-7.0928e-05 4.96657e-05 0)
(-6.9209e-05 4.73869e-05 0)
(-6.7369e-05 4.54472e-05 0)
(-6.54498e-05 4.3601e-05 0)
(-6.34747e-05 4.17503e-05 0)
(-6.14598e-05 3.9859e-05 0)
(-5.94176e-05 3.79145e-05 0)
(-5.73588e-05 3.59126e-05 0)
(-5.52935e-05 3.38518e-05 0)
(-5.32317e-05 3.17315e-05 0)
(-5.11828e-05 2.95515e-05 0)
(-4.91553e-05 2.7312e-05 0)
(-4.71574e-05 2.50136e-05 0)
(-4.51983e-05 2.26562e-05 0)
(-4.32857e-05 2.024e-05 0)
(-4.14264e-05 1.77659e-05 0)
(-3.96273e-05 1.52356e-05 0)
(-3.78954e-05 1.26508e-05 0)
(-3.62369e-05 1.0014e-05 0)
(-3.46583e-05 7.32796e-06 0)
(-3.31626e-05 4.5956e-06 0)
(-3.17545e-05 1.81987e-06 0)
(-3.04391e-05 -9.96215e-07 0)
(-2.9221e-05 -3.84964e-06 0)
(-2.81007e-05 -6.74239e-06 0)
(-2.70797e-05 -9.67349e-06 0)
(-2.61611e-05 -1.26403e-05 0)
(-2.53483e-05 -1.56384e-05 0)
(-2.46434e-05 -1.86623e-05 0)
(-2.40448e-05 -2.17065e-05 0)
(-2.35532e-05 -2.47645e-05 0)
(-2.31707e-05 -2.78293e-05 0)
(-2.28962e-05 -3.08917e-05 0)
(-2.27275e-05 -3.3943e-05 0)
(-2.26617e-05 -3.69724e-05 0)
(-2.26962e-05 -3.99693e-05 0)
(-2.28281e-05 -4.29219e-05 0)
(-2.30537e-05 -4.58183e-05 0)
(-2.33687e-05 -4.86452e-05 0)
(-2.37691e-05 -5.13894e-05 0)
(-2.42492e-05 -5.40373e-05 0)
(-2.48044e-05 -5.65747e-05 0)
(-2.54306e-05 -5.89876e-05 0)
(-2.61222e-05 -6.12623e-05 0)
(-2.68744e-05 -6.33847e-05 0)
(-2.7682e-05 -6.53417e-05 0)
(-2.85398e-05 -6.71206e-05 0)
(-2.9443e-05 -6.87095e-05 0)
(-3.0387e-05 -7.00985e-05 0)
(-3.13664e-05 -7.12804e-05 0)
(-3.23743e-05 -7.22511e-05 0)
(-3.34023e-05 -7.30103e-05 0)
(-3.44392e-05 -7.35616e-05 0)
(-3.54709e-05 -7.39117e-05 0)
(-3.64802e-05 -7.40693e-05 0)
(-3.74495e-05 -7.4043e-05 0)
(-3.83618e-05 -7.38393e-05 0)
(-3.9202e-05 -7.34621e-05 0)
(-3.99568e-05 -7.29124e-05 0)
(-4.0615e-05 -7.21908e-05 0)
(-4.11669e-05 -7.12982e-05 0)
(-4.1604e-05 -7.02367e-05 0)
(-4.19187e-05 -6.90105e-05 0)
(-4.21043e-05 -6.76243e-05 0)
(-4.21549e-05 -6.60843e-05 0)
(-4.20653e-05 -6.43972e-05 0)
(-4.18308e-05 -6.25704e-05 0)
(-4.1448e-05 -6.06117e-05 0)
(-4.0914e-05 -5.85293e-05 0)
(-4.02269e-05 -5.63319e-05 0)
(-3.93856e-05 -5.40278e-05 0)
(-3.83899e-05 -5.16258e-05 0)
(-3.72405e-05 -4.91344e-05 0)
(-3.59388e-05 -4.65621e-05 0)
(-3.44871e-05 -4.39172e-05 0)
(-3.28884e-05 -4.12078e-05 0)
(-3.11465e-05 -3.84415e-05 0)
(-2.92659e-05 -3.5626e-05 0)
(-2.72514e-05 -3.2769e-05 0)
(-2.51086e-05 -2.98789e-05 0)
(-2.2843e-05 -2.69643e-05 0)
(-2.04607e-05 -2.40363e-05 0)
(-1.79674e-05 -2.11049e-05 0)
(-1.53686e-05 -1.81825e-05 0)
(-1.26694e-05 -1.52804e-05 0)
(-9.87532e-06 -1.24087e-05 0)
(-6.99192e-06 -9.57351e-06 0)
(-4.02317e-06 -6.77797e-06 0)
(-9.69931e-07 -4.02421e-06 0)
(2.16056e-06 -1.31401e-06 0)
(5.35831e-06 1.35053e-06 0)
(8.61675e-06 3.96657e-06 0)
(1.19288e-05 6.5319e-06 0)
(1.52871e-05 9.04757e-06 0)
(1.86823e-05 1.15132e-05 0)
(2.21066e-05 1.39278e-05 0)
(2.55492e-05 1.6292e-05 0)
(2.90006e-05 1.86053e-05 0)
(3.24521e-05 2.08674e-05 0)
(3.58936e-05 2.30778e-05 0)
(3.9315e-05 2.52361e-05 0)
(4.27058e-05 2.73417e-05 0)
(4.60547e-05 2.9395e-05 0)
(4.93503e-05 3.13989e-05 0)
(5.25809e-05 3.33644e-05 0)
(5.57308e-05 3.53264e-05 0)
(5.87767e-05 3.73826e-05 0)
(6.16766e-05 3.97794e-05 0)
(6.43431e-05 4.30815e-05 0)
(6.65889e-05 4.84354e-05 0)
(6.80315e-05 5.78369e-05 0)
(6.79631e-05 7.40458e-05 0)
(6.52562e-05 9.94139e-05 0)
(5.8484e-05 0.000132823 0)
(4.65492e-05 0.0001651 0)
(2.99974e-05 0.000176447 0)
(1.25101e-05 0.000142881 0)
(7.71295e-07 5.60244e-05 0)
(-8.84672e-07 7.19384e-05 0)
(-1.36234e-05 0.000179524 0)
(-3.23359e-05 0.000218443 0)
(-5.00637e-05 0.000202118 0)
(-6.30382e-05 0.00016092 0)
(-7.07299e-05 0.000119058 0)
(-7.42824e-05 8.75381e-05 0)
(-7.51656e-05 6.75478e-05 0)
(-7.45378e-05 5.60925e-05 0)
(-7.31247e-05 4.97228e-05 0)
(-7.13184e-05 4.59536e-05 0)
(-6.93107e-05 4.33577e-05 0)
(-6.71909e-05 4.1231e-05 0)
(-6.50018e-05 3.92635e-05 0)
(-6.27664e-05 3.73305e-05 0)
(-6.05006e-05 3.53857e-05 0)
(-5.82172e-05 3.34122e-05 0)
(-5.59278e-05 3.14039e-05 0)
(-5.36435e-05 2.93577e-05 0)
(-5.13753e-05 2.72723e-05 0)
(-4.91327e-05 2.51467e-05 0)
(-4.69235e-05 2.298e-05 0)
(-4.47569e-05 2.07712e-05 0)
(-4.2643e-05 1.85196e-05 0)
(-4.05899e-05 1.6225e-05 0)
(-3.86037e-05 1.38875e-05 0)
(-3.66914e-05 1.15073e-05 0)
(-3.48599e-05 9.08509e-06 0)
(-3.31146e-05 6.62164e-06 0)
(-3.14608e-05 4.11854e-06 0)
(-2.9903e-05 1.57896e-06 0)
(-2.84449e-05 -9.96822e-07 0)
(-2.70868e-05 -3.60708e-06 0)
(-2.58323e-05 -6.25117e-06 0)
(-2.46855e-05 -8.9293e-06 0)
(-2.36467e-05 -1.16396e-05 0)
(-2.27193e-05 -1.43795e-05 0)
(-2.1907e-05 -1.71457e-05 0)
(-2.12097e-05 -1.9934e-05 0)
(-2.06283e-05 -2.2739e-05 0)
(-2.01655e-05 -2.55571e-05 0)
(-1.98195e-05 -2.83823e-05 0)
(-1.9589e-05 -3.12076e-05 0)
(-1.9472e-05 -3.40253e-05 0)
(-1.94657e-05 -3.68268e-05 0)
(-1.95685e-05 -3.96023e-05 0)
(-1.97768e-05 -4.23409e-05 0)
(-2.00852e-05 -4.50317e-05 0)
(-2.04887e-05 -4.76625e-05 0)
(-2.09834e-05 -5.02195e-05 0)
(-2.15638e-05 -5.26899e-05 0)
(-2.22244e-05 -5.50614e-05 0)
(-2.29604e-05 -5.73196e-05 0)
(-2.37659e-05 -5.94501e-05 0)
(-2.46362e-05 -6.14396e-05 0)
(-2.5566e-05 -6.32749e-05 0)
(-2.65485e-05 -6.49433e-05 0)
(-2.75787e-05 -6.64336e-05 0)
(-2.86519e-05 -6.77367e-05 0)
(-2.97619e-05 -6.88467e-05 0)
(-3.09014e-05 -6.97624e-05 0)
(-3.20616e-05 -7.04877e-05 0)
(-3.32317e-05 -7.10315e-05 0)
(-3.43979e-05 -7.14059e-05 0)
(-3.55441e-05 -7.1623e-05 0)
(-3.66527e-05 -7.16921e-05 0)
(-3.77068e-05 -7.16181e-05 0)
(-3.86901e-05 -7.14014e-05 0)
(-3.95881e-05 -7.10395e-05 0)
(-4.03885e-05 -7.05292e-05 0)
(-4.10809e-05 -6.98684e-05 0)
(-4.16561e-05 -6.90572e-05 0)
(-4.21059e-05 -6.80971e-05 0)
(-4.24229e-05 -6.69915e-05 0)
(-4.26006e-05 -6.57446e-05 0)
(-4.26335e-05 -6.43613e-05 0)
(-4.2517e-05 -6.28474e-05 0)
(-4.22473e-05 -6.12087e-05 0)
(-4.18213e-05 -5.94519e-05 0)
(-4.12367e-05 -5.75834e-05 0)
(-4.04922e-05 -5.56101e-05 0)
(-3.95872e-05 -5.35387e-05 0)
(-3.85219e-05 -5.13764e-05 0)
(-3.72974e-05 -4.91297e-05 0)
(-3.59157e-05 -4.68055e-05 0)
(-3.43793e-05 -4.44101e-05 0)
(-3.26915e-05 -4.19497e-05 0)
(-3.08564e-05 -3.94306e-05 0)
(-2.88787e-05 -3.68593e-05 0)
(-2.67638e-05 -3.42431e-05 0)
(-2.4517e-05 -3.15907e-05 0)
(-2.21437e-05 -2.89122e-05 0)
(-1.96494e-05 -2.62189e-05 0)
(-1.70394e-05 -2.35229e-05 0)
(-1.43187e-05 -2.08358e-05 0)
(-1.14925e-05 -1.81673e-05 0)
(-8.56594e-06 -1.55246e-05 0)
(-5.54383e-06 -1.29119e-05 0)
(-2.43113e-06 -1.03312e-05 0)
(7.67548e-07 -7.78565e-06 0)
(4.0449e-06 -5.27366e-06 0)
(7.39202e-06 -2.79467e-06 0)
(1.08037e-05 -3.4793e-07 0)
(1.42709e-05 2.06618e-06 0)
(1.77824e-05 4.44842e-06 0)
(2.13317e-05 6.79898e-06 0)
(2.49094e-05 9.11834e-06 0)
(2.85044e-05 1.14077e-05 0)
(3.21072e-05 1.3666e-05 0)
(3.57073e-05 1.58938e-05 0)
(3.92936e-05 1.8091e-05 0)
(4.28552e-05 2.02578e-05 0)
(4.63802e-05 2.23952e-05 0)
(4.98566e-05 2.45082e-05 0)
(5.32724e-05 2.66116e-05 0)
(5.66119e-05 2.87503e-05 0)
(5.98517e-05 3.10478e-05 0)
(6.29497e-05 3.38157e-05 0)
(6.58171e-05 3.77649e-05 0)
(6.8262e-05 4.43412e-05 0)
(6.98895e-05 5.60696e-05 0)
(6.99671e-05 7.64691e-05 0)
(6.73236e-05 0.000108623 0)
(6.04698e-05 0.000151388 0)
(4.82437e-05 0.000193644 0)
(3.1176e-05 0.000210926 0)
(1.30557e-05 0.000173106 0)
(8.20186e-07 6.87308e-05 0)
(-9.38752e-07 8.59402e-05 0)
(-1.43593e-05 0.00021242 0)
(-3.40338e-05 0.000255881 0)
(-5.26519e-05 0.000233441 0)
(-6.62653e-05 0.000181969 0)
(-7.43285e-05 0.000130499 0)
(-7.80493e-05 9.20301e-05 0)
(-7.89743e-05 6.77739e-05 0)
(-7.83212e-05 5.39809e-05 0)
(-7.68526e-05 4.64175e-05 0)
(-7.49807e-05 4.2051e-05 0)
(-7.29066e-05 3.91438e-05 0)
(-7.07238e-05 3.68397e-05 0)
(-6.84764e-05 3.47619e-05 0)
(-6.61872e-05 3.27586e-05 0)
(-6.38719e-05 3.07723e-05 0)
(-6.15438e-05 2.87818e-05 0)
(-5.92144e-05 2.67783e-05 0)
(-5.68948e-05 2.47578e-05 0)
(-5.45952e-05 2.27179e-05 0)
(-5.23252e-05 2.06573e-05 0)
(-5.00945e-05 1.85739e-05 0)
(-4.79119e-05 1.64651e-05 0)
(-4.57859e-05 1.43295e-05 0)
(-4.37239e-05 1.21667e-05 0)
(-4.17328e-05 9.97525e-06 0)
(-3.98195e-05 7.75371e-06 0)
(-3.79907e-05 5.50176e-06 0)
(-3.62514e-05 3.21862e-06 0)
(-3.46034e-05 9.04976e-07 0)
(-3.30511e-05 -1.43884e-06 0)
(-3.16002e-05 -3.81231e-06 0)
(-3.0251e-05 -6.21551e-06 0)
(-2.90063e-05 -8.6495e-06 0)
(-2.78671e-05 -1.11131e-05 0)
(-2.6833e-05 -1.36045e-05 0)
(-2.59065e-05 -1.6123e-05 0)
(-2.50893e-05 -1.86645e-05 0)
(-2.43809e-05 -2.12252e-05 0)
(-2.37812e-05 -2.38031e-05 0)
(-2.32908e-05 -2.6394e-05 0)
(-2.29078e-05 -2.8993e-05 0)
(-2.26303e-05 -3.15961e-05 0)
(-2.24559e-05 -3.41965e-05 0)
(-2.23807e-05 -3.67878e-05 0)
(-2.24001e-05 -3.9361e-05 0)
(-2.25111e-05 -4.19054e-05 0)
(-2.27094e-05 -4.44108e-05 0)
(-2.29862e-05 -4.68658e-05 0)
(-2.33373e-05 -4.92579e-05 0)
(-2.37616e-05 -5.1574e-05 0)
(-2.42515e-05 -5.38015e-05 0)
(-2.4799e-05 -5.59257e-05 0)
(-2.54009e-05 -5.79329e-05 0)
(-2.60538e-05 -5.98097e-05 0)
(-2.67522e-05 -6.15422e-05 0)
(-2.74916e-05 -6.31178e-05 0)
(-2.8268e-05 -6.45256e-05 0)
(-2.90775e-05 -6.57564e-05 0)
(-2.99158e-05 -6.6806e-05 0)
(-3.07768e-05 -6.76757e-05 0)
(-3.16536e-05 -6.83733e-05 0)
(-3.2537e-05 -6.89125e-05 0)
(-3.34154e-05 -6.93103e-05 0)
(-3.42745e-05 -6.95826e-05 0)
(-3.50987e-05 -6.97404e-05 0)
(-3.58725e-05 -6.97876e-05 0)
(-3.6581e-05 -6.97217e-05 0)
(-3.72105e-05 -6.95367e-05 0)
(-3.77494e-05 -6.92259e-05 0)
(-3.81881e-05 -6.87842e-05 0)
(-3.85183e-05 -6.82087e-05 0)
(-3.8733e-05 -6.7499e-05 0)
(-3.88261e-05 -6.66566e-05 0)
(-3.87921e-05 -6.5684e-05 0)
(-3.86264e-05 -6.45849e-05 0)
(-3.83251e-05 -6.33632e-05 0)
(-3.7885e-05 -6.20234e-05 0)
(-3.73033e-05 -6.05704e-05 0)
(-3.65778e-05 -5.90092e-05 0)
(-3.57072e-05 -5.73451e-05 0)
(-3.46911e-05 -5.55834e-05 0)
(-3.35295e-05 -5.37296e-05 0)
(-3.2223e-05 -5.17891e-05 0)
(-3.07729e-05 -4.97669e-05 0)
(-2.9181e-05 -4.7668e-05 0)
(-2.74499e-05 -4.54974e-05 0)
(-2.55829e-05 -4.32602e-05 0)
(-2.35837e-05 -4.09619e-05 0)
(-2.14564e-05 -3.8609e-05 0)
(-1.92051e-05 -3.62101e-05 0)
(-1.6834e-05 -3.37752e-05 0)
(-1.43468e-05 -3.13161e-05 0)
(-1.17475e-05 -2.88451e-05 0)
(-9.03997e-06 -2.63735e-05 0)
(-6.22831e-06 -2.39112e-05 0)
(-3.31694e-06 -2.14645e-05 0)
(-3.09587e-07 -1.90377e-05 0)
(2.78726e-06 -1.66318e-05 0)
(5.96653e-06 -1.42484e-05 0)
(9.22401e-06 -1.1886e-05 0)
(1.25508e-05 -9.54245e-06 0)
(1.59384e-05 -7.21559e-06 0)
(1.93812e-05 -4.9049e-06 0)
(2.28712e-05 -2.60826e-06 0)
(2.63977e-05 -3.23423e-07 0)
(2.99507e-05 1.94993e-06 0)
(3.35187e-05 4.21309e-06 0)
(3.70921e-05 6.46702e-06 0)
(4.06621e-05 8.71225e-06 0)
(4.42171e-05 1.09491e-05 0)
(4.77456e-05 1.31777e-05 0)
(5.1237e-05 1.54002e-05 0)
(5.46796e-05 1.76228e-05 0)
(5.80602e-05 1.98645e-05 0)
(6.13629e-05 2.21802e-05 0)
(6.45647e-05 2.47203e-05 0)
(6.76226e-05 2.78634e-05 0)
(7.04441e-05 3.24737e-05 0)
(7.28284e-05 4.03096e-05 0)
(7.43619e-05 5.44492e-05 0)
(7.42767e-05 7.92057e-05 0)
(7.13443e-05 0.00011843 0)
(6.40019e-05 0.00017096 0)
(5.10287e-05 0.000223654 0)
(3.29778e-05 0.000247173 0)
(1.38274e-05 0.000204931 0)
(8.75889e-07 8.21595e-05 0)
(-9.96821e-07 0.000100755 0)
(-1.52175e-05 0.000247185 0)
(-3.60544e-05 0.000295429 0)
(-5.57749e-05 0.000266532 0)
(-7.0206e-05 0.000204233 0)
(-7.87717e-05 0.000142641 0)
(-8.27475e-05 9.68534e-05 0)
(-8.37676e-05 6.8108e-05 0)
(-8.31202e-05 5.18608e-05 0)
(-8.16142e-05 4.30524e-05 0)
(-7.96871e-05 3.80715e-05 0)
(-7.75526e-05 3.48522e-05 0)
(-7.53089e-05 3.23764e-05 0)
(-7.30025e-05 3.01958e-05 0)
(-7.06586e-05 2.81294e-05 0)
(-6.82941e-05 2.61084e-05 0)
(-6.59219e-05 2.4107e-05 0)
(-6.35536e-05 2.21149e-05 0)
(-6.11996e-05 2.01272e-05 0)
(-5.88695e-05 1.81402e-05 0)
(-5.65737e-05 1.61511e-05 0)
(-5.43226e-05 1.41575e-05 0)
(-5.21238e-05 1.21564e-05 0)
(-4.99844e-05 1.01448e-05 0)
(-4.79128e-05 8.1203e-06 0)
(-4.5917e-05 6.08029e-06 0)
(-4.40026e-05 4.02208e-06 0)
(-4.21755e-05 1.94457e-06 0)
(-4.04397e-05 -1.54231e-07 0)
(-3.87981e-05 -2.27612e-06 0)
(-3.72557e-05 -4.42289e-06 0)
(-3.58151e-05 -6.59545e-06 0)
(-3.44781e-05 -8.79465e-06 0)
(-3.32455e-05 -1.10214e-05 0)
(-3.21158e-05 -1.32756e-05 0)
(-3.10904e-05 -1.55574e-05 0)
(-3.01687e-05 -1.78658e-05 0)
(-2.93477e-05 -2.01975e-05 0)
(-2.86293e-05 -2.25498e-05 0)
(-2.80117e-05 -2.49207e-05 0)
(-2.74911e-05 -2.73079e-05 0)
(-2.7066e-05 -2.97073e-05 0)
(-2.67333e-05 -3.21162e-05 0)
(-2.64891e-05 -3.45302e-05 0)
(-2.63296e-05 -3.69435e-05 0)
(-2.6247e-05 -3.93474e-05 0)
(-2.62375e-05 -4.1733e-05 0)
(-2.6297e-05 -4.40902e-05 0)
(-2.64172e-05 -4.64074e-05 0)
(-2.65929e-05 -4.86732e-05 0)
(-2.682e-05 -5.08739e-05 0)
(-2.70913e-05 -5.29952e-05 0)
(-2.74013e-05 -5.50235e-05 0)
(-2.77475e-05 -5.69449e-05 0)
(-2.81257e-05 -5.87439e-05 0)
(-2.85321e-05 -6.04064e-05 0)
(-2.89635e-05 -6.19195e-05 0)
(-2.94164e-05 -6.32709e-05 0)
(-2.98891e-05 -6.44522e-05 0)
(-3.03802e-05 -6.546e-05 0)
(-3.08859e-05 -6.6298e-05 0)
(-3.14009e-05 -6.69778e-05 0)
(-3.19189e-05 -6.7518e-05 0)
(-3.24306e-05 -6.79405e-05 0)
(-3.29232e-05 -6.82655e-05 0)
(-3.33825e-05 -6.85058e-05 0)
(-3.37941e-05 -6.86651e-05 0)
(-3.41448e-05 -6.87383e-05 0)
(-3.44225e-05 -6.87156e-05 0)
(-3.46171e-05 -6.85864e-05 0)
(-3.47206e-05 -6.83424e-05 0)
(-3.47265e-05 -6.79784e-05 0)
(-3.46296e-05 -6.7492e-05 0)
(-3.44255e-05 -6.6883e-05 0)
(-3.41101e-05 -6.61528e-05 0)
(-3.36798e-05 -6.53036e-05 0)
(-3.31315e-05 -6.43383e-05 0)
(-3.24627e-05 -6.32603e-05 0)
(-3.16713e-05 -6.20734e-05 0)
(-3.07557e-05 -6.07815e-05 0)
(-2.97147e-05 -5.93889e-05 0)
(-2.85476e-05 -5.78999e-05 0)
(-2.72539e-05 -5.63185e-05 0)
(-2.58337e-05 -5.46489e-05 0)
(-2.42878e-05 -5.2895e-05 0)
(-2.26172e-05 -5.10606e-05 0)
(-2.08238e-05 -4.91496e-05 0)
(-1.89096e-05 -4.7166e-05 0)
(-1.6877e-05 -4.51147e-05 0)
(-1.47286e-05 -4.30022e-05 0)
(-1.24669e-05 -4.08369e-05 0)
(-1.00943e-05 -3.86295e-05 0)
(-7.61265e-06 -3.63922e-05 0)
(-5.024e-06 -3.41362e-05 0)
(-2.33145e-06 -3.18716e-05 0)
(4.63514e-07 -2.96101e-05 0)
(3.35656e-06 -2.73548e-05 0)
(6.34266e-06 -2.51104e-05 0)
(9.41493e-06 -2.28768e-05 0)
(1.2568e-05 -2.06524e-05 0)
(1.57986e-05 -1.84344e-05 0)
(1.90982e-05 -1.62202e-05 0)
(2.24582e-05 -1.40067e-05 0)
(2.58696e-05 -1.17916e-05 0)
(2.93237e-05 -9.57237e-06 0)
(3.28119e-05 -7.34761e-06 0)
(3.63256e-05 -5.11571e-06 0)