/*--------------------------------*- C++ -*----------------------------------*\
| =========                 |                                                 |
| \\      /  F ield         | OpenFOAM: The Open Source CFD Toolbox           |
|  \\    /   O peration     | Version:  2206                                  |
|   \\  /    A nd           | Website:  www.openfoam.com                      |
|    \\/     M anipulation  |                                                 |
\*---------------------------------------------------------------------------*/
FoamFile
{
    version     2.0;
    format      ascii;
    arch        "LSB;label=64;scalar=64";
    class       surfaceScalarField;
    location    "378000";
    object      phi;
}
// * * * * * * * * * * * * * * * * * * * * * * * * * * * * * * * * * * * * * //

dimensions      [0 3 -1 0 0 0 0];

oriented        oriented;

internalField   nonuniform List<scalar> 
24
(
1.76359e-10
-1.76359e-10
4.57583e-10
-2.81224e-10
3.18251e-10
1.39332e-10
3.18251e-10
1.18895e-10
-2.95254e-10
1.06861e-10
-2.6919e-10
5.37956e-11
1.92397e-10
3.72046e-10
-8.64288e-11
-2.08825e-10
-2.747e-10
-8.0919e-11
-2.07599e-10
1.25296e-10
1.64447e-10
-2.08825e-10
-2.89744e-10
-1.64447e-10
)
;

boundaryField
{
    movingWall
    {
        type            calculated;
        value           uniform 0;
    }
    fixedWalls
    {
        type            calculated;
        value           uniform 0;
    }
    frontAndBack
    {
        type            empty;
        value           nonuniform List<scalar> 0();
    }
}


// ************************************************************************* //
