/*--------------------------------*- C++ -*----------------------------------*\
| =========                 |                                                 |
| \\      /  F ield         | OpenFOAM: The Open Source CFD Toolbox           |
|  \\    /   O peration     | Version:  2212                                  |
|   \\  /    A nd           | Website:  www.openfoam.com                      |
|    \\/     M anipulation  |                                                 |
\*---------------------------------------------------------------------------*/
FoamFile
{
    version     2.0;
    format      ascii;
    arch        "LSB;label=64;scalar=64";
    class       volScalarField;
    location    "1640";
    object      Gh2;
}
// * * * * * * * * * * * * * * * * * * * * * * * * * * * * * * * * * * * * * //

dimensions      [1 -3 0 0 0 0 0];

internalField   nonuniform List<scalar> 
1024
(
1.28286e-05
1.28279e-05
1.2826e-05
1.28225e-05
1.28168e-05
1.28083e-05
1.27962e-05
1.27797e-05
1.27584e-05
1.27315e-05
1.26984e-05
1.26585e-05
1.26121e-05
1.25609e-05
1.25096e-05
1.24654e-05
1.24395e-05
1.24357e-05
1.24481e-05
1.24718e-05
1.25032e-05
1.25392e-05
1.25767e-05
1.26126e-05
1.26442e-05
1.26702e-05
1.26902e-05
1.27046e-05
1.27143e-05
1.27203e-05
1.27236e-05
1.27249e-05
1.28282e-05
1.28274e-05
1.28255e-05
1.2822e-05
1.28162e-05
1.28076e-05
1.27954e-05
1.27789e-05
1.27574e-05
1.27303e-05
1.2697e-05
1.2657e-05
1.26104e-05
1.2559e-05
1.25076e-05
1.24634e-05
1.24374e-05
1.24337e-05
1.24462e-05
1.24699e-05
1.25013e-05
1.25374e-05
1.25751e-05
1.26112e-05
1.26431e-05
1.26693e-05
1.26895e-05
1.27041e-05
1.27139e-05
1.272e-05
1.27233e-05
1.27247e-05
1.28271e-05
1.28263e-05
1.28244e-05
1.28208e-05
1.28149e-05
1.28061e-05
1.27937e-05
1.27768e-05
1.2755e-05
1.27275e-05
1.26939e-05
1.26535e-05
1.26064e-05
1.25546e-05
1.25027e-05
1.24583e-05
1.24323e-05
1.24288e-05
1.24417e-05
1.24657e-05
1.24974e-05
1.25338e-05
1.25717e-05
1.26082e-05
1.26406e-05
1.26674e-05
1.2688e-05
1.2703e-05
1.2713e-05
1.27192e-05
1.27226e-05
1.2724e-05
1.28252e-05
1.28244e-05
1.28224e-05
1.28187e-05
1.28126e-05
1.28035e-05
1.27906e-05
1.27732e-05
1.27507e-05
1.27226e-05
1.26883e-05
1.26473e-05
1.25994e-05
1.25467e-05
1.24941e-05
1.2449e-05
1.24228e-05
1.24199e-05
1.24337e-05
1.24588e-05
1.24913e-05
1.25283e-05
1.25668e-05
1.26039e-05
1.26371e-05
1.26645e-05
1.26858e-05
1.27012e-05
1.27116e-05
1.2718e-05
1.27215e-05
1.27229e-05
1.28221e-05
1.28212e-05
1.28191e-05
1.28152e-05
1.28089e-05
1.27993e-05
1.27858e-05
1.27675e-05
1.27441e-05
1.27149e-05
1.26796e-05
1.26375e-05
1.25884e-05
1.25343e-05
1.24802e-05
1.2434e-05
1.24076e-05
1.24056e-05
1.24213e-05
1.24485e-05
1.24828e-05
1.25211e-05
1.25606e-05
1.25986e-05
1.26326e-05
1.26609e-05
1.26828e-05
1.26988e-05
1.27095e-05
1.27161e-05
1.27197e-05
1.27212e-05
1.28173e-05
1.28164e-05
1.28142e-05
1.28102e-05
1.28034e-05
1.27932e-05
1.27788e-05
1.27593e-05
1.27344e-05
1.27036e-05
1.26667e-05
1.2623e-05
1.25721e-05
1.25159e-05
1.24596e-05
1.24115e-05
1.23848e-05
1.23845e-05
1.24034e-05
1.24343e-05
1.24719e-05
1.25125e-05
1.25536e-05
1.25927e-05
1.26277e-05
1.26568e-05
1.26794e-05
1.26958e-05
1.27068e-05
1.27136e-05
1.27173e-05
1.27187e-05
1.28104e-05
1.28095e-05
1.28072e-05
1.28029e-05
1.27956e-05
1.27846e-05
1.27689e-05
1.27477e-05
1.27207e-05
1.26877e-05
1.26485e-05
1.26024e-05
1.25489e-05
1.24897e-05
1.24302e-05
1.23799e-05
1.23529e-05
1.23553e-05
1.23789e-05
1.24155e-05
1.24582e-05
1.25026e-05
1.25463e-05
1.2587e-05
1.2623e-05
1.26527e-05
1.26758e-05
1.26924e-05
1.27035e-05
1.27103e-05
1.27139e-05
1.27153e-05
1.28008e-05
1.27998e-05
1.27974e-05
1.27927e-05
1.27848e-05
1.27727e-05
1.27553e-05
1.27319e-05
1.27021e-05
1.2666e-05
1.26234e-05
1.25738e-05
1.25167e-05
1.24535e-05
1.23903e-05
1.23374e-05
1.23106e-05
1.23165e-05
1.23467e-05
1.23911e-05
1.24411e-05
1.24913e-05
1.25387e-05
1.25816e-05
1.26187e-05
1.26488e-05
1.26718e-05
1.26882e-05
1.26991e-05
1.27056e-05
1.2709e-05
1.27103e-05
1.27876e-05
1.27866e-05
1.2784e-05
1.27789e-05
1.27702e-05
1.27567e-05
1.27372e-05
1.27108e-05
1.26773e-05
1.26368e-05
1.25896e-05
1.25353e-05
1.24733e-05
1.24053e-05
1.2338e-05
1.22829e-05
1.22567e-05
1.22669e-05
1.23045e-05
1.23585e-05
1.24182e-05
1.24764e-05
1.25293e-05
1.25753e-05
1.26137e-05
1.2644e-05
1.26665e-05
1.26822e-05
1.26923e-05
1.26982e-05
1.27011e-05
1.27022e-05
1.27698e-05
1.27688e-05
1.2766e-05
1.27604e-05
1.27507e-05
1.27354e-05
1.27133e-05
1.26831e-05
1.26448e-05
1.25987e-05
1.25453e-05
1.24846e-05
1.24165e-05
1.23433e-05
1.22724e-05
1.22157e-05
1.21904e-05
1.22038e-05
1.2248e-05
1.23117e-05
1.23827e-05
1.24515e-05
1.25123e-05
1.25631e-05
1.26036e-05
1.26342e-05
1.26561e-05
1.26705e-05
1.26793e-05
1.26841e-05
1.26862e-05
1.26869e-05
1.27466e-05
1.27455e-05
1.27424e-05
1.27362e-05
1.27253e-05
1.27079e-05
1.26824e-05
1.26476e-05
1.26033e-05
1.255e-05
1.24888e-05
1.24204e-05
1.23454e-05
1.22673e-05
1.21937e-05
1.21361e-05
1.21099e-05
1.21228e-05
1.2169e-05
1.22386e-05
1.23196e-05
1.24002e-05
1.24722e-05
1.2531e-05
1.25759e-05
1.26084e-05
1.26301e-05
1.26435e-05
1.26507e-05
1.2654e-05
1.2655e-05
1.26551e-05
1.27171e-05
1.27159e-05
1.27125e-05
1.27055e-05
1.26931e-05
1.26731e-05
1.26437e-05
1.26033e-05
1.25518e-05
1.24901e-05
1.24199e-05
1.2343e-05
1.22614e-05
1.21795e-05
1.21045e-05
1.20452e-05
1.20141e-05
1.20186e-05
1.20567e-05
1.21219e-05
1.22046e-05
1.22931e-05
1.23766e-05
1.24474e-05
1.25018e-05
1.25403e-05
1.2565e-05
1.25791e-05
1.25858e-05
1.2588e-05
1.25881e-05
1.25876e-05
1.26811e-05
1.26798e-05
1.2676e-05
1.26681e-05
1.2654e-05
1.26311e-05
1.25973e-05
1.25508e-05
1.24915e-05
1.2421e-05
1.23418e-05
1.22571e-05
1.21705e-05
1.20865e-05
1.20107e-05
1.1948e-05
1.19064e-05
1.18925e-05
1.19083e-05
1.19518e-05
1.20181e-05
1.20988e-05
1.21839e-05
1.22638e-05
1.23311e-05
1.23823e-05
1.24171e-05
1.24378e-05
1.24482e-05
1.24521e-05
1.24527e-05
1.24523e-05
1.26395e-05
1.26381e-05
1.2634e-05
1.26252e-05
1.26094e-05
1.25838e-05
1.25457e-05
1.24935e-05
1.24271e-05
1.23488e-05
1.22623e-05
1.21723e-05
1.20833e-05
1.19997e-05
1.19245e-05
1.18589e-05
1.18055e-05
1.17684e-05
1.17513e-05
1.17562e-05
1.17838e-05
1.18315e-05
1.1894e-05
1.19639e-05
1.20332e-05
1.20946e-05
1.21433e-05
1.21776e-05
1.21987e-05
1.22097e-05
1.22142e-05
1.22154e-05
1.25946e-05
1.25931e-05
1.25888e-05
1.25795e-05
1.25627e-05
1.25353e-05
1.24944e-05
1.24385e-05
1.23676e-05
1.22846e-05
1.21943e-05
1.21027e-05
1.20153e-05
1.19361e-05
1.18668e-05
1.18056e-05
1.17502e-05
1.16989e-05
1.16535e-05
1.16182e-05
1.15978e-05
1.15954e-05
1.16113e-05
1.16433e-05
1.16868e-05
1.17357e-05
1.17832e-05
1.18234e-05
1.18532e-05
1.18722e-05
1.18822e-05
1.18859e-05
1.25502e-05
1.25488e-05
1.25445e-05
1.25354e-05
1.25188e-05
1.24916e-05
1.24511e-05
1.23953e-05
1.23244e-05
1.22415e-05
1.21522e-05
1.20636e-05
1.19825e-05
1.19136e-05
1.18587e-05
1.18152e-05
1.17761e-05
1.17302e-05
1.16747e-05
1.16149e-05
1.15585e-05
1.15119e-05
1.14794e-05
1.14628e-05
1.14617e-05
1.14734e-05
1.14937e-05
1.15174e-05
1.15393e-05
1.15559e-05
1.15662e-05
1.15706e-05
1.25138e-05
1.25124e-05
1.25085e-05
1.25002e-05
1.24852e-05
1.24606e-05
1.24237e-05
1.23724e-05
1.23068e-05
1.22294e-05
1.2146e-05
1.20643e-05
1.19923e-05
1.19364e-05
1.18996e-05
1.188e-05
1.18671e-05
1.18404e-05
1.17908e-05
1.17228e-05
1.16462e-05
1.15713e-05
1.15057e-05
1.14537e-05
1.14171e-05
1.13953e-05
1.1386e-05
1.13858e-05
1.13908e-05
1.1397e-05
1.14021e-05
1.14046e-05
1.24899e-05
1.24886e-05
1.2485e-05
1.24778e-05
1.24648e-05
1.24437e-05
1.24118e-05
1.23671e-05
1.23093e-05
1.22403e-05
1.21651e-05
1.20914e-05
1.20275e-05
1.19809e-05
1.1956e-05
1.19519e-05
1.19573e-05
1.19478e-05
1.19093e-05
1.18419e-05
1.17545e-05
1.16594e-05
1.15683e-05
1.149e-05
1.14291e-05
1.13861e-05
1.13593e-05
1.13453e-05
1.13399e-05
1.13394e-05
1.13407e-05
1.13417e-05
1.24763e-05
1.24751e-05
1.24719e-05
1.24656e-05
1.24545e-05
1.24365e-05
1.24095e-05
1.23715e-05
1.23217e-05
1.22616e-05
1.21953e-05
1.21294e-05
1.2072e-05
1.20306e-05
1.20105e-05
1.20114e-05
1.20228e-05
1.20206e-05
1.19904e-05
1.19288e-05
1.18405e-05
1.17359e-05
1.16275e-05
1.15278e-05
1.14452e-05
1.13835e-05
1.1342e-05
1.13176e-05
1.13056e-05
1.13015e-05
1.13011e-05
1.13016e-05
1.24693e-05
1.24682e-05
1.24653e-05
1.24598e-05
1.24503e-05
1.24352e-05
1.24124e-05
1.23804e-05
1.23382e-05
1.22867e-05
1.22292e-05
1.2171e-05
1.21193e-05
1.20811e-05
1.20611e-05
1.20598e-05
1.20673e-05
1.20631e-05
1.20345e-05
1.19774e-05
1.18931e-05
1.17882e-05
1.16732e-05
1.1561e-05
1.14626e-05
1.13848e-05
1.13296e-05
1.12949e-05
1.12764e-05
1.12687e-05
1.12668e-05
1.1267e-05
1.24648e-05
1.24639e-05
1.24616e-05
1.24571e-05
1.24493e-05
1.24366e-05
1.24176e-05
1.23908e-05
1.23554e-05
1.23119e-05
1.22627e-05
1.2212e-05
1.21655e-05
1.21289e-05
1.21061e-05
1.20972e-05
1.20939e-05
1.20808e-05
1.20483e-05
1.19923e-05
1.19123e-05
1.18118e-05
1.16983e-05
1.15823e-05
1.14753e-05
1.13863e-05
1.13197e-05
1.12756e-05
1.12505e-05
1.1239e-05
1.12356e-05
1.12355e-05
1.24579e-05
1.24575e-05
1.24562e-05
1.24532e-05
1.24475e-05
1.24377e-05
1.24223e-05
1.24002e-05
1.23707e-05
1.23342e-05
1.22922e-05
1.22479e-05
1.22052e-05
1.21682e-05
1.21397e-05
1.21191e-05
1.21007e-05
1.2075e-05
1.20358e-05
1.19793e-05
1.19034e-05
1.18094e-05
1.17021e-05
1.15894e-05
1.14809e-05
1.1386e-05
1.13112e-05
1.12591e-05
1.12276e-05
1.12123e-05
1.12072e-05
1.12066e-05
1.24426e-05
1.2443e-05
1.24433e-05
1.24427e-05
1.24401e-05
1.24338e-05
1.24225e-05
1.24048e-05
1.23803e-05
1.23491e-05
1.23121e-05
1.22714e-05
1.22296e-05
1.21893e-05
1.21523e-05
1.21177e-05
1.20827e-05
1.20441e-05
1.19984e-05
1.19416e-05
1.18707e-05
1.1785e-05
1.16869e-05
1.15819e-05
1.14776e-05
1.13822e-05
1.1303e-05
1.12447e-05
1.12076e-05
1.11883e-05
1.11813e-05
1.11803e-05
1.24123e-05
1.24139e-05
1.24166e-05
1.24194e-05
1.24207e-05
1.24186e-05
1.24114e-05
1.23975e-05
1.23763e-05
1.23478e-05
1.23125e-05
1.22717e-05
1.22272e-05
1.21807e-05
1.21336e-05
1.20852e-05
1.20359e-05
1.19871e-05
1.19372e-05
1.18818e-05
1.18174e-05
1.17416e-05
1.1655e-05
1.15608e-05
1.14647e-05
1.13734e-05
1.12938e-05
1.12317e-05
1.11899e-05
1.11669e-05
1.11578e-05
1.11562e-05
1.23616e-05
1.23647e-05
1.23703e-05
1.23768e-05
1.2382e-05
1.23835e-05
1.23792e-05
1.23672e-05
1.23466e-05
1.23173e-05
1.22801e-05
1.22359e-05
1.21864e-05
1.21331e-05
1.20771e-05
1.20183e-05
1.19594e-05
1.19051e-05
1.18545e-05
1.18028e-05
1.17461e-05
1.16815e-05
1.1608e-05
1.15268e-05
1.14418e-05
1.13581e-05
1.12818e-05
1.1219e-05
1.11742e-05
1.11479e-05
1.11367e-05
1.11344e-05
1.22866e-05
1.22916e-05
1.22999e-05
1.23089e-05
1.23159e-05
1.23183e-05
1.23139e-05
1.23005e-05
1.22774e-05
1.22448e-05
1.22036e-05
1.21552e-05
1.21012e-05
1.20432e-05
1.19824e-05
1.19188e-05
1.18568e-05
1.18022e-05
1.17543e-05
1.17083e-05
1.16603e-05
1.16072e-05
1.15472e-05
1.14804e-05
1.14086e-05
1.13354e-05
1.12657e-05
1.12053e-05
1.11595e-05
1.11309e-05
1.11177e-05
1.11147e-05
1.21854e-05
1.21921e-05
1.22016e-05
1.22102e-05
1.22148e-05
1.22136e-05
1.22049e-05
1.2187e-05
1.21596e-05
1.21233e-05
1.20792e-05
1.20288e-05
1.19738e-05
1.19157e-05
1.18556e-05
1.17937e-05
1.17346e-05
1.16842e-05
1.16418e-05
1.16029e-05
1.15639e-05
1.1522e-05
1.14751e-05
1.14226e-05
1.1365e-05
1.13044e-05
1.12441e-05
1.11892e-05
1.1145e-05
1.11155e-05
1.11008e-05
1.1097e-05
1.20566e-05
1.20644e-05
1.20722e-05
1.20754e-05
1.20725e-05
1.20634e-05
1.20477e-05
1.20245e-05
1.19939e-05
1.19564e-05
1.1913e-05
1.18651e-05
1.1814e-05
1.17609e-05
1.1707e-05
1.16523e-05
1.16009e-05
1.1558e-05
1.15228e-05
1.14916e-05
1.14614e-05
1.14298e-05
1.13949e-05
1.13557e-05
1.13122e-05
1.12651e-05
1.12164e-05
1.11696e-05
1.11297e-05
1.11012e-05
1.10858e-05
1.10813e-05
1.18984e-05
1.19054e-05
1.19068e-05
1.19001e-05
1.18869e-05
1.1869e-05
1.18473e-05
1.18214e-05
1.17912e-05
1.17568e-05
1.17188e-05
1.16779e-05
1.16353e-05
1.15917e-05
1.15479e-05
1.1504e-05
1.14633e-05
1.14298e-05
1.14028e-05
1.13795e-05
1.13574e-05
1.13349e-05
1.13104e-05
1.1283e-05
1.12524e-05
1.12185e-05
1.11823e-05
1.11458e-05
1.11127e-05
1.10873e-05
1.10724e-05
1.10675e-05
1.17063e-05
1.1709e-05
1.16999e-05
1.16829e-05
1.16623e-05
1.16403e-05
1.16176e-05
1.15939e-05
1.15688e-05
1.15418e-05
1.15129e-05
1.14826e-05
1.14515e-05
1.14199e-05
1.13886e-05
1.13574e-05
1.13287e-05
1.13053e-05
1.12867e-05
1.12708e-05
1.12561e-05
1.12414e-05
1.12256e-05
1.12082e-05
1.11885e-05
1.11666e-05
1.11425e-05
1.11173e-05
1.10931e-05
1.10731e-05
1.10603e-05
1.10555e-05
1.14723e-05
1.14666e-05
1.14499e-05
1.1431e-05
1.14121e-05
1.13941e-05
1.13772e-05
1.13609e-05
1.13446e-05
1.13278e-05
1.13103e-05
1.12922e-05
1.12738e-05
1.12552e-05
1.12369e-05
1.12188e-05
1.12021e-05
1.11886e-05
1.1178e-05
1.1169e-05
1.11608e-05
1.11526e-05
1.11441e-05
1.11346e-05
1.1124e-05
1.11122e-05
1.1099e-05
1.10848e-05
1.10705e-05
1.10579e-05
1.10491e-05
1.10453e-05
1.11866e-05
1.11821e-05
1.11736e-05
1.11653e-05
1.11577e-05
1.11508e-05
1.11446e-05
1.11388e-05
1.11332e-05
1.11276e-05
1.11219e-05
1.1116e-05
1.11099e-05
1.11039e-05
1.1098e-05
1.10921e-05
1.10868e-05
1.10824e-05
1.1079e-05
1.10762e-05
1.10736e-05
1.1071e-05
1.10683e-05
1.10654e-05
1.10621e-05
1.10585e-05
1.10544e-05
1.105e-05
1.10454e-05
1.10412e-05
1.1038e-05
1.10365e-05
)
;

boundaryField
{
    movingWall
    {
        type            fixedValue;
        value           uniform 1.1032e-05;
    }
    fixedWalls
    {
        type            zeroGradient;
    }
    floor
    {
        type            zeroGradient;
    }
    frontAndBack
    {
        type            empty;
    }
}


// ************************************************************************* //
