/*--------------------------------*- C++ -*----------------------------------*\
| =========                 |                                                 |
| \\      /  F ield         | OpenFOAM: The Open Source CFD Toolbox           |
|  \\    /   O peration     | Version:  2212                                  |
|   \\  /    A nd           | Website:  www.openfoam.com                      |
|    \\/     M anipulation  |                                                 |
\*---------------------------------------------------------------------------*/
FoamFile
{
    version     2.0;
    format      ascii;
    arch        "LSB;label=64;scalar=64";
    class       volScalarField;
    location    "1640";
    object      p_rgh;
}
// * * * * * * * * * * * * * * * * * * * * * * * * * * * * * * * * * * * * * //

dimensions      [0 2 -2 0 0 0 0];

internalField   nonuniform List<scalar> 
1024
(
0.0431943
0.0431938
0.0431933
0.0431931
0.0431938
0.0431957
0.0431989
0.0432029
0.0432071
0.0432109
0.0432145
0.0432201
0.0432303
0.0432468
0.0432683
0.043284
0.0432831
0.0432542
0.0432029
0.043145
0.0430965
0.0430645
0.0430459
0.0430359
0.0430307
0.0430281
0.0430271
0.0430272
0.0430281
0.0430295
0.043031
0.0430319
0.0431958
0.0431953
0.0431948
0.0431948
0.0431956
0.0431974
0.0432004
0.0432043
0.0432085
0.0432123
0.043216
0.0432218
0.0432321
0.0432485
0.0432698
0.0432853
0.0432844
0.0432554
0.0432044
0.0431469
0.0430989
0.0430672
0.0430488
0.0430388
0.0430336
0.0430309
0.0430297
0.0430296
0.0430302
0.0430313
0.0430325
0.0430334
0.0431987
0.0431981
0.0431977
0.0431978
0.0431987
0.0432007
0.0432037
0.0432077
0.0432119
0.0432157
0.0432196
0.0432254
0.0432359
0.0432525
0.0432741
0.04329
0.0432893
0.0432604
0.0432093
0.0431517
0.0431036
0.043072
0.0430537
0.0430437
0.0430383
0.0430353
0.0430338
0.0430332
0.0430334
0.0430341
0.0430353
0.0430364
0.0432031
0.0432023
0.0432018
0.0432021
0.0432033
0.0432057
0.0432093
0.0432136
0.0432181
0.043222
0.0432258
0.0432317
0.0432425
0.0432598
0.0432825
0.0432994
0.0432991
0.0432702
0.0432187
0.0431602
0.043111
0.0430789
0.0430604
0.0430501
0.0430444
0.043041
0.0430389
0.0430377
0.0430373
0.0430377
0.043039
0.0430406
0.0432089
0.043208
0.0432075
0.0432081
0.0432099
0.0432131
0.0432176
0.0432229
0.0432279
0.0432319
0.0432356
0.0432414
0.0432528
0.0432716
0.043296
0.0433142
0.0433143
0.0432851
0.0432326
0.0431723
0.0431209
0.0430875
0.0430684
0.0430578
0.0430515
0.0430474
0.0430445
0.0430424
0.0430413
0.0430415
0.0430429
0.0430448
0.043216
0.0432151
0.0432148
0.0432158
0.0432185
0.0432231
0.0432292
0.0432361
0.0432421
0.0432464
0.0432498
0.0432556
0.043268
0.0432888
0.0433152
0.0433345
0.0433338
0.0433034
0.0432495
0.0431868
0.0431324
0.0430968
0.0430768
0.0430654
0.0430584
0.0430533
0.0430492
0.0430461
0.0430442
0.0430439
0.0430451
0.0430472
0.0432245
0.0432236
0.0432236
0.0432253
0.0432294
0.043236
0.0432446
0.0432537
0.0432613
0.043266
0.0432693
0.0432755
0.0432893
0.0433123
0.0433399
0.0433589
0.0433556
0.0433227
0.0432664
0.0432009
0.043143
0.0431045
0.0430832
0.043071
0.0430629
0.0430564
0.0430509
0.0430465
0.0430436
0.0430426
0.0430435
0.0430454
0.0432343
0.0432336
0.043234
0.0432366
0.0432425
0.0432518
0.0432637
0.0432759
0.0432857
0.0432914
0.043295
0.043302
0.0433175
0.0433421
0.0433689
0.0433846
0.0433769
0.0433401
0.0432802
0.0432114
0.0431494
0.0431078
0.043085
0.0430719
0.0430623
0.0430542
0.043047
0.0430413
0.0430374
0.0430357
0.043036
0.0430372
0.0432456
0.0432451
0.0432459
0.0432498
0.0432578
0.0432705
0.0432864
0.0433026
0.0433151
0.0433224
0.0433271
0.0433356
0.0433526
0.0433766
0.0433991
0.0434086
0.043395
0.0433537
0.0432908
0.0432182
0.043151
0.0431062
0.0430804
0.0430663
0.0430552
0.0430453
0.0430365
0.0430296
0.0430249
0.0430226
0.0430221
0.0430226
0.0432588
0.0432583
0.0432597
0.0432648
0.0432753
0.0432918
0.0433124
0.043333
0.043349
0.0433585
0.0433652
0.0433754
0.0433926
0.0434129
0.0434268
0.0434282
0.0434091
0.0433651
0.0433007
0.0432262
0.0431561
0.0431026
0.0430713
0.0430564
0.0430436
0.043032
0.0430219
0.0430142
0.0430091
0.0430063
0.0430051
0.0430049
0.0432739
0.0432734
0.0432752
0.0432816
0.0432949
0.0433155
0.0433411
0.0433665
0.0433861
0.0433984
0.0434073
0.0434183
0.0434328
0.0434454
0.043449
0.0434428
0.0434211
0.0433792
0.0433191
0.0432483
0.043177
0.0431158
0.0430745
0.0430521
0.043036
0.0430222
0.0430108
0.0430024
0.042997
0.042994
0.0429924
0.0429916
0.0432901
0.0432895
0.0432916
0.0432993
0.0433154
0.0433404
0.043371
0.0434009
0.0434241
0.0434391
0.0434496
0.0434595
0.0434688
0.0434728
0.0434676
0.0434545
0.0434346
0.0434013
0.0433552
0.0433006
0.0432421
0.0431838
0.0431285
0.04308
0.0430532
0.0430321
0.0430165
0.0430058
0.0429994
0.0429962
0.0429949
0.0429942
0.0433042
0.0433035
0.0433057
0.0433148
0.0433336
0.0433625
0.0433976
0.0434316
0.043458
0.0434752
0.043486
0.0434933
0.0434969
0.0434939
0.0434827
0.0434662
0.0434503
0.0434309
0.0434081
0.0433838
0.043358
0.0433275
0.0432863
0.0432298
0.0431595
0.0431059
0.0430725
0.0430512
0.0430399
0.0430354
0.0430345
0.0430345
0.043309
0.0433081
0.0433104
0.0433204
0.0433414
0.0433736
0.0434126
0.0434502
0.0434796
0.0434989
0.0435101
0.0435154
0.043515
0.043508
0.043494
0.0434755
0.0434597
0.0434529
0.0434537
0.0434625
0.0434769
0.0434907
0.043494
0.0434769
0.0434318
0.0433577
0.0432738
0.0432096
0.0431767
0.0431616
0.0431566
0.043156
0.0432939
0.043293
0.0432954
0.0433057
0.0433278
0.0433623
0.0434044
0.0434458
0.0434791
0.0435013
0.0435138
0.0435183
0.0435154
0.0435048
0.0434871
0.0434651
0.0434472
0.0434439
0.0434563
0.0434831
0.0435212
0.0435647
0.043605
0.0436332
0.043642
0.0436279
0.0435908
0.0435359
0.0434746
0.0434301
0.0434072
0.0433995
0.0432523
0.0432515
0.0432537
0.0432636
0.0432853
0.0433206
0.0433653
0.0434111
0.0434496
0.0434766
0.0434923
0.043498
0.0434942
0.0434809
0.0434592
0.0434327
0.0434104
0.0434033
0.0434134
0.0434381
0.0434755
0.0435218
0.0435711
0.0436163
0.0436511
0.0436717
0.0436776
0.043671
0.0436561
0.0436383
0.0436225
0.0436136
0.0431936
0.043193
0.0431948
0.0432032
0.043223
0.0432569
0.0433027
0.0433527
0.0433975
0.0434311
0.0434521
0.0434614
0.0434597
0.0434474
0.0434262
0.0434011
0.0433826
0.0433723
0.043373
0.0433832
0.043403
0.0434328
0.0434704
0.0435109
0.0435481
0.0435769
0.0435948
0.0436023
0.0436022
0.0435977
0.0435916
0.0435868
0.0431465
0.043146
0.0431472
0.0431536
0.0431701
0.0432004
0.043245
0.0432974
0.0433478
0.0433885
0.0434162
0.0434309
0.0434335
0.0434251
0.0434086
0.0433902
0.0433827
0.0433781
0.0433749
0.0433725
0.0433721
0.043378
0.0433929
0.0434166
0.0434446
0.0434706
0.0434899
0.0435004
0.0435033
0.0435012
0.0434966
0.043492
0.043124
0.0431237
0.0431243
0.0431291
0.0431425
0.0431688
0.0432095
0.0432606
0.043314
0.0433607
0.0433951
0.0434157
0.0434228
0.0434179
0.0434048
0.0433906
0.0433894
0.0433953
0.0433963
0.0433931
0.0433849
0.0433737
0.043367
0.0433702
0.0433834
0.0434015
0.0434183
0.0434292
0.0434332
0.0434316
0.0434266
0.0434213
0.0431217
0.0431214
0.0431216
0.0431251
0.0431361
0.0431588
0.0431957
0.0432445
0.0432986
0.0433487
0.043388
0.0434128
0.0434228
0.0434193
0.0434064
0.0433919
0.043388
0.0433965
0.0434066
0.0434144
0.0434148
0.0434009
0.0433825
0.0433702
0.0433698
0.0433796
0.0433931
0.0434038
0.0434084
0.0434071
0.0434015
0.0433952
0.0431321
0.0431318
0.0431316
0.0431341
0.0431432
0.0431633
0.0431972
0.0432439
0.0432975
0.043349
0.0433907
0.0434174
0.0434278
0.043423
0.0434073
0.0433889
0.0433801
0.0433882
0.0434047
0.0434217
0.0434328
0.0434325
0.0434218
0.043402
0.043394
0.0433995
0.0434128
0.0434256
0.0434324
0.0434321
0.043426
0.0434184
0.0431487
0.0431482
0.0431476
0.0431494
0.0431575
0.0431763
0.0432088
0.0432543
0.0433073
0.0433587
0.0434001
0.0434257
0.0434337
0.0434249
0.0434042
0.0433801
0.043366
0.0433722
0.0433925
0.0434168
0.0434385
0.0434526
0.043457
0.0434526
0.0434465
0.0434537
0.043473
0.0434937
0.043507
0.0435101
0.0435043
0.0434952
0.043167
0.0431661
0.0431651
0.0431667
0.0431747
0.0431938
0.0432269
0.0432728
0.0433255
0.0433756
0.0434142
0.0434356
0.0434381
0.043423
0.0433955
0.0433646
0.0433455
0.0433493
0.0433715
0.0434012
0.0434326
0.043461
0.043484
0.0435021
0.0435182
0.0435386
0.0435708
0.0436079
0.0436355
0.0436469
0.0436433
0.043633
0.0431835
0.0431819
0.0431806
0.0431827
0.0431923
0.0432139
0.0432496
0.0432976
0.0433502
0.0433975
0.0434307
0.043445
0.0434392
0.0434157
0.0433801
0.0433419
0.0433176
0.0433188
0.0433411
0.043375
0.0434151
0.043458
0.0435021
0.0435479
0.0435969
0.04365
0.0437078
0.0437702
0.0438231
0.0438513
0.0438536
0.0438437
0.043196
0.0431932
0.0431918
0.0431957
0.0432091
0.0432355
0.043276
0.0433269
0.0433792
0.043422
0.0434473
0.0434518
0.0434357
0.0434022
0.0433574
0.0433116
0.0432819
0.04328
0.0433013
0.0433391
0.0433872
0.0434445
0.0435112
0.043589
0.0436789
0.0437789
0.0438831
0.0439845
0.0440752
0.0441338
0.0441499
0.0441444
0.0432019
0.0431977
0.0431966
0.0432044
0.0432245
0.0432583
0.0433042
0.0433586
0.0434096
0.0434458
0.0434609
0.0434537
0.0434258
0.0433812
0.0433268
0.0432732
0.0432385
0.0432339
0.0432549
0.0432954
0.043351
0.0434223
0.0435123
0.0436245
0.043761
0.0439182
0.0440864
0.04425
0.0443945
0.0445034
0.0445487
0.0445563
0.0431951
0.0431899
0.0431914
0.0432067
0.0432373
0.0432812
0.0433329
0.0433898
0.0434374
0.0434648
0.0434682
0.0434482
0.0434078
0.043352
0.0432881
0.0432274
0.0431886
0.0431821
0.0432034
0.0432467
0.0433097
0.0433945
0.043507
0.0436536
0.0438382
0.0440584
0.0443025
0.04455
0.044776
0.0449607
0.0450625
0.0450999
0.0431623
0.0431597
0.0431696
0.0431996
0.0432459
0.0433019
0.0433597
0.0434164
0.0434582
0.043475
0.043466
0.0434334
0.0433811
0.0433151
0.043243
0.0431769
0.0431357
0.0431286
0.0431509
0.0431975
0.0432675
0.0433646
0.0434973
0.0436749
0.0439045
0.0441865
0.0445115
0.0448586
0.0451973
0.0454906
0.045691
0.0457882
0.0430784
0.0430903
0.0431249
0.0431822
0.0432498
0.0433185
0.0433821
0.0434355
0.0434689
0.0434748
0.0434541
0.0434102
0.043348
0.0432739
0.043196
0.0431268
0.0430849
0.0430785
0.0431025
0.0431528
0.0432289
0.0433363
0.0434852
0.0436877
0.043954
0.044289
0.044689
0.0451403
0.0456162
0.0460715
0.046426
0.0466533
0.0428898
0.0429637
0.0430642
0.0431658
0.0432557
0.0433353
0.043401
0.043448
0.0434718
0.0434675
0.0434369
0.0433842
0.0433147
0.0432352
0.0431541
0.0430837
0.0430425
0.0430374
0.0430633
0.0431168
0.0431978
0.0433124
0.0434724
0.0436918
0.0439831
0.0443555
0.0448131
0.0453557
0.0459763
0.0466459
0.0472776
0.0478287
0.0423977
0.042789
0.0430309
0.0431797
0.0432822
0.0433628
0.0434234
0.0434614
0.0434753
0.0434621
0.0434235
0.0433643
0.04329
0.0432074
0.0431245
0.0430539
0.0430135
0.0430096
0.0430371
0.0430926
0.0431763
0.0432947
0.0434603
0.0436879
0.0439915
0.0443829
0.0448729
0.0454757
0.0462145
0.0471233
0.0482309
0.0494891
0.0413793
0.0426156
0.0430798
0.0432278
0.0433232
0.0433979
0.0434496
0.0434785
0.0434842
0.0434643
0.0434203
0.0433569
0.0432796
0.043195
0.0431111
0.0430402
0.043
0.0429967
0.0430248
0.0430811
0.0431655
0.0432849
0.0434518
0.0436813
0.0439875
0.0443836
0.044884
0.0455142
0.0463266
0.0474279
0.049036
0.0512981
)
;

boundaryField
{
    movingWall
    {
        type            fixedFluxPressure;
        gradient        uniform 0;
        value           nonuniform List<scalar> 
32
(
0.0413793
0.0426156
0.0430798
0.0432278
0.0433232
0.0433979
0.0434496
0.0434785
0.0434842
0.0434643
0.0434203
0.0433569
0.0432796
0.043195
0.0431111
0.0430402
0.043
0.0429967
0.0430248
0.0430811
0.0431655
0.0432849
0.0434518
0.0436813
0.0439875
0.0443836
0.044884
0.0455142
0.0463266
0.0474279
0.049036
0.0512981
)
;
    }
    fixedWalls
    {
        type            fixedFluxPressure;
        gradient        uniform 0;
        value           nonuniform List<scalar> 
64
(
0.0431943
0.0431958
0.0431987
0.0432031
0.0432089
0.043216
0.0432245
0.0432343
0.0432456
0.0432588
0.0432739
0.0432901
0.0433042
0.043309
0.0432939
0.0432523
0.0431936
0.0431465
0.043124
0.0431217
0.0431321
0.0431487
0.043167
0.0431835
0.043196
0.0432019
0.0431951
0.0431623
0.0430784
0.0428898
0.0423977
0.0413793
0.0430319
0.0430334
0.0430364
0.0430406
0.0430448
0.0430472
0.0430454
0.0430372
0.0430226
0.0430049
0.0429916
0.0429942
0.0430345
0.043156
0.0433995
0.0436136
0.0435868
0.043492
0.0434213
0.0433952
0.0434184
0.0434952
0.043633
0.0438437
0.0441444
0.0445563
0.0450999
0.0457882
0.0466533
0.0478287
0.0494891
0.0512981
)
;
    }
    floor
    {
        type            fixedFluxPressure;
        gradient        uniform 0;
        value           nonuniform List<scalar> 
32
(
0.0431943
0.0431938
0.0431933
0.0431931
0.0431938
0.0431957
0.0431989
0.0432029
0.0432071
0.0432109
0.0432145
0.0432201
0.0432303
0.0432468
0.0432683
0.043284
0.0432831
0.0432542
0.0432029
0.043145
0.0430965
0.0430645
0.0430459
0.0430359
0.0430307
0.0430281
0.0430271
0.0430272
0.0430281
0.0430295
0.043031
0.0430319
)
;
    }
    frontAndBack
    {
        type            empty;
    }
}


// ************************************************************************* //
