/*--------------------------------*- C++ -*----------------------------------*\
| =========                 |                                                 |
| \\      /  F ield         | OpenFOAM: The Open Source CFD Toolbox           |
|  \\    /   O peration     | Version:  2212                                  |
|   \\  /    A nd           | Website:  www.openfoam.com                      |
|    \\/     M anipulation  |                                                 |
\*---------------------------------------------------------------------------*/
FoamFile
{
    version     2.0;
    format      ascii;
    arch        "LSB;label=64;scalar=64";
    class       volScalarField;
    location    "1640";
    object      Sco2;
}
// * * * * * * * * * * * * * * * * * * * * * * * * * * * * * * * * * * * * * //

dimensions      [1 -3 0 0 0 0 0];

internalField   nonuniform List<scalar> 
1024
(
0.00548352
0.00548493
0.00548843
0.00549489
0.0055054
0.00552123
0.00554375
0.00557433
0.00561424
0.00566473
0.00572712
0.0058027
0.00589164
0.0059908
0.00609165
0.00618028
0.00623471
0.00624554
0.00622385
0.00617958
0.00612
0.00605137
0.00598002
0.00591203
0.00585221
0.00580322
0.00576567
0.00573863
0.00572041
0.00570909
0.00570292
0.0057004
0.00548429
0.00548572
0.00548926
0.00549579
0.00550642
0.00552241
0.00554514
0.00557598
0.00561617
0.00566696
0.00572966
0.00580558
0.00589492
0.00599448
0.00609565
0.00618447
0.00623893
0.00624967
0.00622782
0.0061834
0.00612368
0.00605487
0.00598323
0.00591482
0.00585448
0.00580498
0.00576698
0.0057396
0.00572116
0.00570971
0.00570347
0.00570093
0.00548622
0.00548768
0.0054913
0.00549797
0.00550884
0.00552519
0.00554841
0.00557985
0.00562072
0.00567221
0.00573564
0.00581235
0.0059026
0.00600315
0.00610523
0.0061947
0.00624936
0.00625974
0.00623719
0.00619198
0.00613158
0.00606218
0.00598985
0.00592056
0.00585921
0.00580869
0.00576981
0.00574177
0.00572288
0.00571117
0.0057048
0.00570221
0.00548978
0.00549128
0.00549501
0.00550191
0.00551316
0.0055301
0.00555416
0.00558665
0.00562873
0.0056815
0.00574623
0.00582433
0.00591617
0.00601854
0.00612246
0.00621342
0.00626858
0.00627809
0.00625372
0.00620639
0.00614416
0.00607335
0.00599975
0.00592911
0.0058663
0.00581435
0.00577424
0.00574527
0.00572575
0.00571368
0.00570712
0.00570446
0.00549557
0.00549713
0.00550101
0.00550822
0.00552002
0.00553784
0.00556314
0.00559726
0.00564125
0.00569608
0.0057629
0.00584319
0.00593755
0.00604289
0.00614998
0.00624365
0.00629975
0.00630754
0.00627953
0.00622787
0.00616185
0.00608819
0.00601243
0.00593989
0.00587527
0.00582164
0.00578013
0.0057501
0.00572989
0.00571741
0.00571066
0.00570794
0.00550435
0.00550596
0.00551003
0.00551765
0.0055302
0.00554924
0.00557632
0.00561279
0.00565961
0.00571753
0.00578752
0.00587111
0.00596923
0.00607907
0.00619107
0.00628891
0.00634632
0.00635117
0.00631694
0.00625781
0.00618505
0.00610638
0.00602708
0.00595195
0.00588526
0.00582993
0.00578709
0.00575613
0.00573535
0.00572257
0.00571569
0.00571293
0.00551707
0.00551875
0.00552305
0.00553119
0.00554472
0.00556537
0.00559487
0.00563461
0.00568544
0.00574782
0.00582244
0.00591089
0.00601448
0.00613072
0.00624953
0.00635289
0.00641169
0.00641198
0.0063684
0.00629782
0.00621443
0.00612768
0.00604293
0.00596427
0.0058953
0.0058385
0.00579474
0.00576328
0.00574229
0.0057295
0.00572268
0.00571998
0.00553494
0.0055367
0.00554127
0.00555006
0.00556484
0.0055876
0.00562029
0.00566442
0.00572072
0.00578934
0.00587061
0.00596605
0.0060773
0.00620206
0.00632936
0.00643896
0.00649869
0.00649269
0.00643657
0.00635026
0.00625167
0.00615294
0.00606011
0.00597662
0.00590511
0.00584724
0.00580327
0.00577207
0.00575155
0.00573925
0.00573282
0.00573034
0.00555945
0.00556131
0.00556622
0.00557582
0.00559217
0.0056176
0.00565441
0.00570427
0.00576786
0.00584498
0.00593553
0.00604075
0.00616229
0.00629749
0.00643413
0.00654972
0.00660957
0.00659627
0.00652564
0.00642014
0.00630175
0.00618636
0.00608185
0.00599157
0.00591694
0.00585833
0.00581497
0.00578502
0.00576589
0.00575481
0.00574928
0.00574725
0.00559236
0.00559434
0.00559966
0.00561026
0.00562858
0.00565738
0.00569939
0.00575658
0.00582963
0.00591799
0.006021
0.00613927
0.00627371
0.00642054
0.00656603
0.00668645
0.00674648
0.00672767
0.00664432
0.00651948
0.00637811
0.00624084
0.00611966
0.00601922
0.00593972
0.00587992
0.0058376
0.00580975
0.00579299
0.00578404
0.00578005
0.00577882
0.00563553
0.00563765
0.0056435
0.00565535
0.0056761
0.00570908
0.00575755
0.00582389
0.00590883
0.00601146
0.00613029
0.00626468
0.0064138
0.00657201
0.00672454
0.00684888
0.00691219
0.00689559
0.00680894
0.00667247
0.00651108
0.0063493
0.00620499
0.00608766
0.00599834
0.00593435
0.00589172
0.0058658
0.00585189
0.00584575
0.00584392
0.00584383
0.00569046
0.00569276
0.00569927
0.00571265
0.00573638
0.00577444
0.00583071
0.00590803
0.00600719
0.00612675
0.00626396
0.0064161
0.00657977
0.00674737
0.00690476
0.00703403
0.00710869
0.00711025
0.00704092
0.00691388
0.00674919
0.00657131
0.00640303
0.0062605
0.00615121
0.00607419
0.00602501
0.00599722
0.00598418
0.00598002
0.00598007
0.00598108
0.00575756
0.00576009
0.00576735
0.00578252
0.00580968
0.00585351
0.00591856
0.00600806
0.00612272
0.00626021
0.00641596
0.00658451
0.00675966
0.00693297
0.00709345
0.00723079
0.00732776
0.00736803
0.0073456
0.00726395
0.00713326
0.00697119
0.00679911
0.00663706
0.00650051
0.00639677
0.00632639
0.00628452
0.00626367
0.00625592
0.00625478
0.00625563
0.00583517
0.00583791
0.00584593
0.00586285
0.00589335
0.00594278
0.00601627
0.00611728
0.00624618
0.00639945
0.00657028
0.00675034
0.00693116
0.00710466
0.00726435
0.00740829
0.00753007
0.00761939
0.00766655
0.0076662
0.00761653
0.00752284
0.00739688
0.00725443
0.0071125
0.00698653
0.00688645
0.00681596
0.00677262
0.00674992
0.00674057
0.0067382
0.00591872
0.00592161
0.00593013
0.00594818
0.00598084
0.00603394
0.00611297
0.00622153
0.00635958
0.00652238
0.00670099
0.00688438
0.00706208
0.00722622
0.00737342
0.00750773
0.00763387
0.00775448
0.00786342
0.0079502
0.00800339
0.00801623
0.00798808
0.00792409
0.00783432
0.00773244
0.00763317
0.00754883
0.00748625
0.00744625
0.00742516
0.00741735
0.00600074
0.00600365
0.00601213
0.00603002
0.00606236
0.00611502
0.00619366
0.00630201
0.00643997
0.0066022
0.00677826
0.00695472
0.0071185
0.00726002
0.00737577
0.00747178
0.00756324
0.0076738
0.00780707
0.0079503
0.00808524
0.00819663
0.00827482
0.00831591
0.0083212
0.00829686
0.00825286
0.00820127
0.00815336
0.00811683
0.00809434
0.00808468
0.00606689
0.00606967
0.00607756
0.00609391
0.00612325
0.006171
0.0062426
0.00634191
0.00646928
0.0066198
0.00678289
0.00694372
0.00708661
0.00719885
0.00727412
0.00731713
0.00735074
0.00741946
0.00754128
0.00770565
0.00788928
0.0080685
0.00822524
0.00834872
0.00843502
0.00848568
0.00850638
0.00850559
0.00849302
0.00847755
0.00846532
0.00845913
0.00610871
0.00611134
0.00611848
0.00613289
0.00615835
0.00619952
0.00626131
0.00634758
0.0064593
0.00659263
0.00673808
0.00688119
0.00700536
0.00709579
0.00714355
0.00715091
0.00714259
0.00717171
0.00726785
0.0074306
0.00763982
0.00786714
0.00808489
0.00827214
0.00841782
0.00851986
0.0085827
0.00861465
0.00862562
0.00862519
0.00862102
0.00861791
0.00613079
0.00613325
0.00613971
0.00615237
0.00617427
0.00620926
0.00626159
0.00633487
0.0064305
0.00654584
0.00667307
0.00679932
0.00690885
0.00698663
0.00702259
0.00701723
0.00699447
0.00700582
0.00708222
0.00723102
0.00744155
0.00769076
0.00794907
0.00818736
0.00838514
0.00853313
0.00863208
0.00868961
0.0087168
0.00872529
0.00872511
0.00872318
0.00614072
0.00614296
0.00614869
0.00615971
0.00617848
0.00620813
0.0062522
0.00631386
0.00639462
0.00649279
0.00660226
0.0067124
0.00680958
0.00688022
0.00691477
0.00691333
0.00689796
0.00691296
0.00698447
0.00712197
0.00732234
0.00757131
0.00784475
0.00811257
0.00834824
0.00853494
0.0086675
0.00875034
0.00879395
0.00881127
0.00881464
0.00881352
0.00614661
0.00614837
0.00615297
0.00616195
0.00617745
0.00620211
0.00623887
0.00629036
0.00635795
0.00644053
0.00653353
0.00662875
0.00671547
0.00678283
0.00682332
0.00683798
0.0068457
0.00687963
0.00695885
0.00709252
0.00728186
0.00751957
0.00778892
0.00806521
0.00832138
0.00853535
0.0086956
0.00880167
0.00886161
0.00888825
0.0088955
0.00889523
0.00615912
0.00615987
0.00616234
0.00616802
0.00617904
0.00619794
0.00622736
0.00626955
0.00632561
0.00639483
0.00647397
0.00655732
0.00663737
0.00670657
0.00676013
0.00680045
0.00684126
0.00690228
0.00699533
0.00712905
0.00730778
0.00752949
0.00778345
0.0080515
0.00831102
0.00853921
0.00871942
0.00884537
0.00892095
0.00895731
0.0089689
0.00896963
0.0061917
0.00619066
0.00618945
0.00618976
0.0061941
0.00620541
0.0062266
0.00625988
0.00630639
0.00636577
0.00643604
0.00651365
0.00659388
0.00667209
0.00674567
0.00681762
0.00689485
0.00698374
0.00709039
0.00722346
0.00738959
0.00759116
0.00782301
0.00807236
0.00832157
0.00855089
0.00874198
0.00888315
0.00897289
0.00901908
0.00903548
0.0090374
0.00625874
0.00625497
0.00624839
0.0062412
0.00623674
0.00623893
0.00625151
0.0062773
0.00631781
0.00637313
0.0064421
0.00652244
0.00661108
0.00670494
0.00680235
0.00690581
0.00701516
0.00712603
0.00724117
0.00736985
0.00752024
0.00769782
0.00790211
0.00812556
0.00835508
0.00857451
0.00876676
0.00891711
0.00901847
0.0090741
0.00909569
0.00909905
0.00637276
0.0063654
0.00635231
0.00633688
0.00632375
0.00631805
0.00632458
0.00634715
0.00638772
0.00644643
0.00652208
0.00661248
0.00671481
0.00682624
0.00694505
0.00707265
0.00720334
0.007326
0.00744202
0.00756143
0.00769314
0.00784424
0.00801745
0.00820969
0.00841251
0.0086135
0.00879775
0.00895002
0.00905913
0.00912304
0.00914995
0.00915501
0.00654244
0.00653094
0.00651178
0.00649055
0.00647336
0.00646593
0.00647336
0.00649995
0.00654757
0.00661564
0.00670224
0.0068045
0.00691915
0.00704315
0.00717439
0.0073134
0.00745139
0.00757445
0.00768373
0.00778948
0.00790063
0.00802451
0.00816551
0.00832374
0.00849483
0.00867047
0.00883871
0.00898522
0.00909679
0.00916669
0.00919859
0.0092056
0.00677261
0.00675715
0.00673509
0.00671506
0.00670348
0.00670472
0.00672237
0.00676004
0.00681863
0.00689671
0.00699175
0.00710048
0.00721942
0.00734549
0.00747652
0.00761262
0.00774424
0.00785763
0.00795407
0.00804322
0.00813327
0.00823089
0.00834083
0.00846498
0.008602
0.00874733
0.00889269
0.00902602
0.00913379
0.00920611
0.00924196
0.00925104
0.00706635
0.00704851
0.00703047
0.00702263
0.00702842
0.00704807
0.00708226
0.00713294
0.00719997
0.00728208
0.00737704
0.00748194
0.00759373
0.00770979
0.00782822
0.00794902
0.00806355
0.00815997
0.00823964
0.00831083
0.00838043
0.00845396
0.00853568
0.00862807
0.00873153
0.00884431
0.00896177
0.00907525
0.00917269
0.00924274
0.00928053
0.00929148
0.00742839
0.00741232
0.00740883
0.00742389
0.00745364
0.00749358
0.00754206
0.0075998
0.00766679
0.00774292
0.00782699
0.0079171
0.00801108
0.00810703
0.00820351
0.00830051
0.00839121
0.00846645
0.00852745
0.00858065
0.0086313
0.00868358
0.00874084
0.00880536
0.00887819
0.00895917
0.00904643
0.00913498
0.00921585
0.00927826
0.00931494
0.00932706
0.00786884
0.00786275
0.00788338
0.00792223
0.00796918
0.008019
0.00807014
0.00812342
0.00817965
0.00823986
0.00830395
0.0083711
0.00844006
0.00850965
0.00857891
0.00864785
0.00871172
0.00876425
0.00880633
0.00884241
0.00887608
0.00891015
0.00894694
0.00898812
0.0090347
0.00908709
0.00914491
0.00920605
0.0092653
0.00931453
0.00934614
0.009358
0.00840648
0.0084195
0.0084578
0.00850119
0.00854433
0.0085853
0.00862369
0.00866058
0.00869717
0.00873471
0.00877368
0.00881388
0.00885479
0.00889579
0.00893635
0.00897646
0.00901343
0.00904369
0.00906778
0.00908821
0.009107
0.00912575
0.00914575
0.00916796
0.00919303
0.00922133
0.00925296
0.00928733
0.00932225
0.00935338
0.00937534
0.00938473
0.00906393
0.0090741
0.00909374
0.00911262
0.00913003
0.00914583
0.00916001
0.00917309
0.00918564
0.0091982
0.00921106
0.00922422
0.00923755
0.00925086
0.00926399
0.00927693
0.00928883
0.00929855
0.00930627
0.00931278
0.00931872
0.00932461
0.00933083
0.00933771
0.00934545
0.00935417
0.00936393
0.00937465
0.00938579
0.00939619
0.00940413
0.00940797
)
;

boundaryField
{
    movingWall
    {
        type            fixedValue;
        value           uniform 0.00942;
    }
    fixedWalls
    {
        type            zeroGradient;
    }
    floor
    {
        type            zeroGradient;
    }
    frontAndBack
    {
        type            empty;
    }
}


// ************************************************************************* //
