/*--------------------------------*- C++ -*----------------------------------*\
| =========                 |                                                 |
| \\      /  F ield         | OpenFOAM: The Open Source CFD Toolbox           |
|  \\    /   O peration     | Version:  2206                                  |
|   \\  /    A nd           | Website:  www.openfoam.com                      |
|    \\/     M anipulation  |                                                 |
\*---------------------------------------------------------------------------*/
FoamFile
{
    version     2.0;
    format      ascii;
    arch        "LSB;label=64;scalar=64";
    class       volScalarField;
    location    "9";
    object      Gch4;
}
// * * * * * * * * * * * * * * * * * * * * * * * * * * * * * * * * * * * * * //

dimensions      [0 0 0 0 0 0 0];

internalField   nonuniform List<scalar> 
1024
(
3.32237e-13
3.57921e-13
4.38484e-13
5.90258e-13
8.38025e-13
1.21538e-12
1.7634e-12
2.52619e-12
3.54187e-12
4.82862e-12
6.36799e-12
8.0921e-12
9.88374e-12
1.15933e-11
1.30555e-11
1.40531e-11
1.4201e-11
1.34629e-11
1.21846e-11
1.05741e-11
8.8052e-12
7.04633e-12
5.43688e-12
4.06431e-12
2.96104e-12
2.11745e-12
1.50008e-12
1.06733e-12
7.79538e-13
6.03697e-13
5.14761e-13
4.95585e-13
4.1896e-13
4.50642e-13
5.50259e-13
7.37631e-13
1.04268e-12
1.50577e-12
2.17592e-12
3.10537e-12
4.33865e-12
5.8959e-12
7.75317e-12
9.82752e-12
1.19778e-11
1.40253e-11
1.57739e-11
1.6967e-11
1.71473e-11
1.62702e-11
1.47445e-11
1.28166e-11
1.06929e-11
8.57492e-12
6.63128e-12
4.96905e-12
3.62933e-12
2.60231e-12
1.8489e-12
1.31968e-12
9.67127e-13
7.51356e-13
6.41961e-13
6.17997e-13
6.80685e-13
7.30247e-13
8.8674e-13
1.18028e-12
1.65597e-12
2.37404e-12
3.40693e-12
4.83069e-12
6.70858e-12
9.06639e-12
1.18637e-11
1.49731e-11
1.81827e-11
2.12283e-11
2.38229e-11
2.55932e-11
2.58698e-11
2.45831e-11
2.23278e-11
1.94629e-11
1.62907e-11
1.31112e-11
1.01788e-11
7.65895e-12
5.61852e-12
4.04739e-12
2.89009e-12
2.07425e-12
1.52905e-12
1.19435e-12
1.02392e-12
9.85676e-13
1.28813e-12
1.37801e-12
1.66327e-12
2.19677e-12
3.05693e-12
4.34744e-12
6.19144e-12
8.71621e-12
1.20245e-11
1.61525e-11
2.10215e-11
2.64051e-11
3.1936e-11
3.71634e-11
4.16044e-11
4.46348e-11
4.51262e-11
4.29532e-11
3.91105e-11
3.41995e-11
2.87301e-11
2.32163e-11
1.81026e-11
1.36842e-11
1.00877e-11
7.30469e-12
5.2454e-12
3.78785e-12
2.81034e-12
2.20811e-12
1.89993e-12
1.82902e-12
2.6668e-12
2.8448e-12
3.41289e-12
4.47233e-12
6.17187e-12
8.70622e-12
1.23039e-11
1.7197e-11
2.3567e-11
3.14662e-11
4.07294e-11
5.09163e-11
6.13313e-11
7.11347e-11
7.94399e-11
8.51088e-11
8.60632e-11
8.20578e-11
7.49101e-11
6.57174e-11
5.54164e-11
4.49688e-11
3.52218e-11
2.6752e-11
1.98205e-11
1.44292e-11
1.04214e-11
7.57286e-12
5.65535e-12
4.46964e-12
3.85988e-12
3.71643e-12
5.92665e-12
6.30409e-12
7.51604e-12
9.76974e-12
1.3367e-11
1.86987e-11
2.62181e-11
3.63776e-11
4.95184e-11
6.57122e-11
8.45903e-11
1.05236e-10
1.26236e-10
1.4592e-10
1.62547e-10
1.73903e-10
1.7589e-10
1.67999e-10
1.53783e-10
1.35376e-10
1.14615e-10
9.34202e-11
7.352e-11
5.61217e-11
4.18004e-11
3.06014e-11
2.2235e-11
1.62627e-11
1.22263e-11
9.72077e-12
8.42626e-12
8.11616e-12
1.41665e-11
1.50241e-11
1.77964e-11
2.29369e-11
3.11001e-11
4.31254e-11
5.99735e-11
8.25852e-11
1.11639e-10
1.47214e-10
1.88428e-10
2.33234e-10
2.78563e-10
3.20852e-10
3.5647e-10
3.80813e-10
3.85251e-10
3.68654e-10
3.3845e-10
2.99061e-10
2.54307e-10
2.08284e-10
1.64765e-10
1.2646e-10
9.47276e-11
6.97671e-11
5.10202e-11
3.75736e-11
2.84464e-11
2.2758e-11
1.98059e-11
1.90889e-11
3.67662e-11
3.88726e-11
4.57317e-11
5.84135e-11
7.84481e-11
1.07777e-10
1.48593e-10
2.02996e-10
2.72419e-10
3.56847e-10
4.54009e-10
5.58954e-10
6.6448e-10
7.62427e-10
8.44659e-10
9.00913e-10
9.11622e-10
8.74109e-10
8.05082e-10
7.14337e-10
6.10387e-10
5.02606e-10
3.99871e-10
3.08751e-10
2.32728e-10
1.72536e-10
1.27059e-10
9.42658e-11
7.19013e-11
5.79033e-11
5.06076e-11
4.88175e-11
1.04825e-10
1.10478e-10
1.29037e-10
1.63252e-10
2.17018e-10
2.95225e-10
4.03305e-10
5.46329e-10
7.27515e-10
9.46253e-10
1.19614e-09
1.4641e-09
1.73171e-09
1.97866e-09
2.18525e-09
2.32673e-09
2.35493e-09
2.26299e-09
2.0917e-09
1.86449e-09
1.6018e-09
1.32687e-09
1.0624e-09
8.25802e-10
6.26808e-10
4.68083e-10
3.4736e-10
2.59789e-10
1.99752e-10
1.62002e-10
1.42244e-10
1.37362e-10
3.32355e-10
3.49114e-10
4.04658e-10
5.06759e-10
6.66328e-10
8.9689e-10
1.2132e-09
1.62859e-09
2.1507e-09
2.77596e-09
3.48443e-09
4.23793e-09
4.9846e-09
5.66912e-09
6.23943e-09
6.63047e-09
6.7123e-09
6.46571e-09
5.99982e-09
5.37555e-09
4.64619e-09
3.87463e-09
3.12467e-09
2.44707e-09
1.87191e-09
1.40929e-09
1.05476e-09
7.95858e-10
6.17315e-10
5.04485e-10
4.45184e-10
4.30473e-10
1.18578e-09
1.24126e-09
1.42711e-09
1.76775e-09
2.29709e-09
3.0566e-09
4.09052e-09
5.43713e-09
7.11513e-09
9.10668e-09
1.13424e-08
1.36982e-08
1.60118e-08
1.81169e-08
1.98626e-08
2.10611e-08
2.13251e-08
2.05953e-08
1.91943e-08
1.72955e-08
1.50505e-08
1.26463e-08
1.02814e-08
8.12031e-09
6.26661e-09
4.76124e-09
3.59762e-09
2.74135e-09
2.14692e-09
1.76919e-09
1.56981e-09
1.52026e-09
4.81356e-09
5.02053e-09
5.72248e-09
7.00531e-09
8.98697e-09
1.18091e-08
1.56188e-08
2.0536e-08
2.66046e-08
3.37345e-08
4.16543e-08
4.99101e-08
5.79359e-08
6.51755e-08
7.11471e-08
7.52519e-08
7.62055e-08
7.38059e-08
6.91138e-08
6.26723e-08
5.49523e-08
4.65693e-08
3.82092e-08
3.04697e-08
2.37504e-08
1.82334e-08
1.39264e-08
1.07292e-08
8.49293e-09
7.06301e-09
6.30484e-09
6.11655e-09
2.24496e-08
2.33262e-08
2.63427e-08
3.18396e-08
4.02775e-08
5.21979e-08
6.81432e-08
8.85179e-08
1.13392e-07
1.4228e-07
1.73981e-07
2.06622e-07
2.37983e-07
2.65994e-07
2.88957e-07
3.0476e-07
3.08638e-07
2.99826e-07
2.8223e-07
2.57724e-07
2.27902e-07
1.94999e-07
1.61666e-07
1.30342e-07
1.02767e-07
7.98356e-08
6.17286e-08
4.8151e-08
3.85718e-08
3.24035e-08
2.91169e-08
2.83029e-08
1.21241e-07
1.25477e-07
1.40309e-07
1.67259e-07
2.08352e-07
2.65901e-07
3.42104e-07
4.38378e-07
5.54468e-07
6.87508e-07
8.31479e-07
9.77634e-07
1.11618e-06
1.23853e-06
1.33812e-06
1.4067e-06
1.42448e-06
1.38824e-06
1.31416e-06
1.20933e-06
1.07954e-06
9.33731e-07
7.83334e-07
6.3954e-07
5.10898e-07
4.02335e-07
3.15469e-07
2.49567e-07
2.02605e-07
1.72121e-07
1.55791e-07
1.51766e-07
7.62315e-07
7.85699e-07
8.69342e-07
1.02091e-06
1.25035e-06
1.5686e-06
1.98522e-06
2.50482e-06
3.1225e-06
3.81958e-06
4.56186e-06
5.3032e-06
5.99513e-06
6.59823e-06
7.08496e-06
7.42008e-06
7.51154e-06
7.34472e-06
6.99489e-06
6.49123e-06
5.85564e-06
5.12682e-06
4.35938e-06
3.61083e-06
2.92852e-06
2.34274e-06
1.86671e-06
1.50061e-06
1.23668e-06
1.06375e-06
9.70553e-07
9.47739e-07
5.59238e-06
5.73951e-06
6.27956e-06
7.25559e-06
8.7214e-06
1.07326e-05
1.33313e-05
1.65243e-05
2.02578e-05
2.43967e-05
2.87219e-05
3.29603e-05
3.68452e-05
4.01796e-05
4.28422e-05
4.46714e-05
4.51929e-05
4.43364e-05
4.24947e-05
3.97955e-05
3.63172e-05
3.22358e-05
2.78349e-05
2.34419e-05
1.9349e-05
1.57635e-05
1.27962e-05
1.04772e-05
8.78235e-06
7.65976e-06
7.05054e-06
6.90285e-06
4.48615e-05
4.58465e-05
4.95735e-05
5.62891e-05
6.62839e-05
7.98273e-05
9.70646e-05
0.00011788
0.000141755
0.000167677
0.000194177
0.000219571
0.000242354
0.000261545
0.000276659
0.000286979
0.000289998
0.000285405
0.000275342
0.00026035
0.000240607
0.000216846
0.000190528
0.000163548
0.000137761
0.000114629
9.5071e-05
7.94941e-05
6.79257e-05
6.01663e-05
5.5923e-05
5.49093e-05
0.000314727
0.000320341
0.000342323
0.000381801
0.00043998
0.000517749
0.000615102
0.000730449
0.000859976
0.000997403
0.00113452
0.00126268
0.00137494
0.00146751
0.00153924
0.00158774
0.00160206
0.00158124
0.00153517
0.00146561
0.00137207
0.00125652
0.00112483
0.00098582
0.000849144
0.00072324
0.000614179
0.000525446
0.000458351
0.000412711
0.000387548
0.000381656
0.00165902
0.00168244
0.00177779
0.00194857
0.00219785
0.0025266
0.00293139
0.0034019
0.00391903
0.00445499
0.00497655
0.00545179
0.00585795
0.0061857
0.00643543
0.00660259
0.00665218
0.00658277
0.00642817
0.00619218
0.00586884
0.0054594
0.00497935
0.00445735
0.00392874
0.00342789
0.00298267
0.00261203
0.00232627
0.00212893
0.00201915
0.00199399
0.00671914
0.00679217
0.00710293
0.00765856
0.00846261
0.00950979
0.0107792
0.0122279
0.0137873
0.0153663
0.0168652
0.0181965
0.0193067
0.0201835
0.0208406
0.0212759
0.0214053
0.0212296
0.0208373
0.0202339
0.0193945
0.0183079
0.0169999
0.015536
0.0140093
0.0125204
0.0111605
0.0100006
0.00908765
0.00844685
0.0080869
0.00800619
0.0213754
0.0215493
0.0223269
0.0237172
0.0257158
0.0282915
0.0313718
0.0348294
0.0384789
0.0420934
0.0454419
0.0483424
0.0507039
0.0525308
0.0538786
0.0547627
0.0550251
0.0546766
0.0538986
0.0526979
0.0510088
0.048784
0.0460455
0.042901
0.0395289
0.0361457
0.0329694
0.0301906
0.0279548
0.0263579
0.025451
0.0252513
0.0548734
0.0551977
0.0567334
0.0594873
0.0634318
0.0684792
0.0744522
0.0810625
0.0879167
0.0945631
0.100577
0.105663
0.109709
0.11278
0.115014
0.116465
0.116894
0.116331
0.115079
0.113146
0.11041
0.106766
0.102206
0.0968646
0.0909992
0.0849588
0.0791322
0.0738993
0.0695887
0.0664498
0.0646435
0.0642503
0.117158
0.117645
0.120116
0.12458
0.130981
0.139148
0.148745
0.159241
0.169944
0.180113
0.189107
0.196539
0.202329
0.206646
0.209747
0.211746
0.212332
0.211562
0.20986
0.207241
0.203529
0.198558
0.192287
0.18485
0.176548
0.167815
0.159178
0.15121
0.144474
0.139458
0.136521
0.13588
0.214564
0.215165
0.21851
0.224642
0.233501
0.244823
0.258066
0.272389
0.286755
0.300124
0.311687
0.321036
0.328181
0.33343
0.337158
0.339546
0.340239
0.339315
0.337295
0.334199
0.32982
0.323956
0.316552
0.307749
0.297864
0.287336
0.276713
0.26665
0.257889
0.251177
0.247152
0.246251
0.346991
0.347605
0.351533
0.358923
0.369748
0.383649
0.399833
0.417117
0.434136
0.449639
0.462761
0.473161
0.480978
0.486646
0.490639
0.493182
0.493909
0.492913
0.490759
0.487475
0.482846
0.476668
0.468904
0.459737
0.44951
0.438633
0.427552
0.416813
0.407148
0.399463
0.394681
0.393546
0.508292
0.508798
0.512917
0.520981
0.533015
0.548524
0.566426
0.585227
0.603358
0.61952
0.632927
0.643369
0.65111
0.656665
0.660552
0.663017
0.663711
0.66273
0.660628
0.657439
0.652959
0.647006
0.63958
0.630925
0.621448
0.611563
0.601585
0.591806
0.582701
0.575096
0.57009
0.568775
0.688865
0.689171
0.69315
0.701348
0.713776
0.729722
0.747834
0.76645
0.784005
0.799337
0.811834
0.82143
0.828465
0.833475
0.836963
0.839168
0.839781
0.838887
0.836989
0.834121
0.830105
0.824785
0.818193
0.810618
0.802536
0.794413
0.786518
0.778899
0.771635
0.765191
0.760583
0.759176
0.878497
0.878594
0.882275
0.890193
0.902187
0.917291
0.934029
0.950818
0.966315
0.979615
0.990306
0.998427
1.00433
1.00852
1.01142
1.01325
1.01375
1.013
1.01141
1.00901
1.00566
1.00124
0.995771
0.98956
0.983096
0.976896
0.971267
0.96618
0.961401
0.956901
0.953292
0.951948
1.06824
1.06824
1.07163
1.07887
1.08952
1.10249
1.11644
1.1301
1.1425
1.153
1.16136
1.16766
1.17222
1.17544
1.17766
1.17907
1.17945
1.17886
1.17763
1.17579
1.17321
1.1698
1.1656
1.16086
1.156
1.15153
1.1478
1.14485
1.14238
1.14003
1.13785
1.13679
1.25121
1.25131
1.25437
1.26038
1.26869
1.27841
1.28858
1.29837
1.30715
1.31452
1.32035
1.32473
1.32789
1.33011
1.33164
1.33261
1.33287
1.33246
1.33161
1.33033
1.32855
1.32619
1.32328
1.31999
1.31666
1.31366
1.31133
1.30978
1.30886
1.30819
1.30744
1.3069
1.42256
1.42292
1.42527
1.42925
1.43441
1.44025
1.44624
1.45195
1.45704
1.4613
1.46465
1.46717
1.46897
1.47025
1.47112
1.47168
1.47183
1.47159
1.4711
1.47037
1.46934
1.46799
1.46632
1.46443
1.46251
1.4608
1.45951
1.45876
1.45853
1.45863
1.45879
1.4588
1.57917
1.5794
1.5803
1.58167
1.58339
1.58529
1.58723
1.58908
1.59072
1.59208
1.59316
1.59397
1.59455
1.59495
1.59523
1.59541
1.59546
1.59538
1.59523
1.59499
1.59466
1.59423
1.59369
1.59308
1.59246
1.59191
1.59149
1.59126
1.59122
1.59134
1.59152
1.59164
)
;

boundaryField
{
    movingWall
    {
        type            fixedValue;
        value           uniform 1.6535;
    }
    fixedWalls
    {
        type            zeroGradient;
    }
    frontAndBack
    {
        type            empty;
    }
}


// ************************************************************************* //
