/*--------------------------------*- C++ -*----------------------------------*\
| =========                 |                                                 |
| \\      /  F ield         | OpenFOAM: The Open Source CFD Toolbox           |
|  \\    /   O peration     | Version:  2206                                  |
|   \\  /    A nd           | Website:  www.openfoam.com                      |
|    \\/     M anipulation  |                                                 |
\*---------------------------------------------------------------------------*/
FoamFile
{
    version     2.0;
    format      ascii;
    arch        "LSB;label=64;scalar=64";
    class       surfaceScalarField;
    location    "9";
    object      phi;
}
// * * * * * * * * * * * * * * * * * * * * * * * * * * * * * * * * * * * * * //

dimensions      [0 3 -1 0 0 0 0];

oriented        oriented;

internalField   nonuniform List<scalar> 
1984
(
1.93809e-12
-1.94661e-12
-7.46457e-12
9.4023e-12
-3.61191e-11
2.86541e-11
-8.56647e-11
4.9545e-11
-1.54233e-10
6.85674e-11
-2.38851e-10
8.46177e-11
-3.3739e-10
9.85386e-11
-4.49141e-10
1.1175e-10
-5.74027e-10
1.24885e-10
-7.11479e-10
1.37451e-10
-8.59506e-10
1.48027e-10
-1.0138e-09
1.5429e-10
-1.1666e-09
1.52804e-10
-1.30526e-09
1.38661e-10
-1.41068e-09
1.05413e-10
-1.45518e-09
4.45047e-11
-1.41491e-09
-4.02771e-11
-1.31241e-09
-1.02499e-10
-1.17529e-09
-1.37122e-10
-1.02289e-09
-1.52394e-10
-8.68212e-10
-1.54681e-10
-7.19301e-10
-1.48913e-10
-5.8071e-10
-1.38592e-10
-4.54598e-10
-1.26113e-10
-3.41645e-10
-1.12954e-10
-2.41994e-10
-9.96521e-11
-1.56394e-10
-8.56002e-11
-8.70038e-11
-6.93915e-11
-3.68176e-11
-5.0187e-11
-7.7267e-12
-2.90917e-11
1.89731e-12
-9.62469e-12
1.89707e-12
-9.39409e-12
7.44719e-12
-5.37604e-11
5.37682e-11
-1.49272e-10
1.24165e-10
-3.0272e-10
2.02993e-10
-5.12351e-10
2.78198e-10
-7.72034e-10
3.44299e-10
-1.07631e-09
4.02811e-10
-1.42273e-09
4.58167e-10
-1.81046e-09
5.12616e-10
-2.23732e-09
5.64308e-10
-2.69688e-09
6.0759e-10
-3.17561e-09
6.33021e-10
-3.6493e-09
6.26489e-10
-4.07866e-09
5.68025e-10
-4.40411e-09
4.30858e-10
-4.54043e-09
1.80821e-10
-4.41533e-09
-1.65376e-10
-4.09764e-09
-4.2019e-10
-3.6724e-09
-5.62369e-10
-3.19983e-09
-6.24964e-10
-2.72009e-09
-6.34426e-10
-2.25819e-09
-6.10809e-10
-1.82832e-09
-5.68465e-10
-1.43734e-09
-5.17092e-10
-1.08774e-09
-4.62559e-10
-7.80522e-10
-4.06871e-10
-5.18248e-10
-3.47875e-10
-3.06453e-10
-2.81188e-10
-1.5132e-10
-2.05321e-10
-5.46357e-11
-1.25777e-10
-9.60324e-12
-5.46581e-11
-7.70641e-12
-2.86421e-11
3.60891e-11
-1.24217e-10
1.49343e-10
-3.03653e-10
3.036e-10
-5.77066e-10
4.76405e-10
-9.44397e-10
6.45528e-10
-1.3986e-09
7.98502e-10
-1.93219e-09
9.36405e-10
-2.54119e-09
1.06716e-09
-3.22364e-09
1.19507e-09
-3.97519e-09
1.31586e-09
-4.7842e-09
1.4166e-09
-5.62663e-09
1.47545e-09
-6.45969e-09
1.45955e-09
-7.21421e-09
1.32254e-09
-7.78513e-09
1.00178e-09
-8.0231e-09
4.18794e-10
-7.8024e-09
-3.86076e-10
-7.24344e-09
-9.79154e-10
-6.49528e-09
-1.31053e-09
-5.66396e-09
-1.45628e-09
-4.81999e-09
-1.4784e-09
-4.00741e-09
-1.4234e-09
-3.25123e-09
-1.32464e-09
-2.5638e-09
-1.20453e-09
-1.9499e-09
-1.07645e-09
-1.41179e-09
-9.44988e-10
-9.53615e-10
-8.06049e-10
-5.82976e-10
-6.51828e-10
-3.0698e-10
-4.81318e-10
-1.25709e-10
-3.07048e-10
-2.9034e-11
-1.51334e-10
-3.67406e-11
-4.96524e-11
8.57411e-11
-2.03658e-10
3.03347e-10
-4.77939e-10
5.7788e-10
-8.82629e-10
8.81095e-10
-1.41808e-09
1.18098e-09
-2.07702e-09
1.45744e-09
-2.85117e-09
1.71056e-09
-3.73577e-09
1.95176e-09
-4.72788e-09
2.18717e-09
-5.82074e-09
2.40871e-09
-6.99706e-09
2.59293e-09
-8.22162e-09
2.7e-09
-9.43202e-09
2.66995e-09
-1.05276e-08
2.41813e-09
-1.13557e-08
1.82987e-09
-1.16998e-08
7.62863e-10
-1.1378e-08
-7.07813e-10
-1.05654e-08
-1.7918e-09
-9.47802e-09
-2.3979e-09
-8.26987e-09
-2.66444e-09
-7.04333e-09
-2.70494e-09
-5.86239e-09
-2.60434e-09
-4.76356e-09
-2.42348e-09
-3.765e-09
-2.20309e-09
-2.87408e-09
-1.96738e-09
-2.09409e-09
-1.72498e-09
-1.43004e-09
-1.4701e-09
-8.90328e-10
-1.19154e-09
-4.82307e-10
-8.8934e-10
-2.05637e-10
-5.83719e-10
-5.01768e-11
-3.06796e-10
-8.69176e-11
-6.91477e-11
1.54888e-10
-2.80976e-10
5.15175e-10
-6.52133e-10
9.49037e-10
-1.19157e-09
1.42053e-09
-1.89817e-09
1.88758e-09
-2.76355e-09
2.32281e-09
-3.77888e-09
2.72589e-09
-4.93924e-09
3.11212e-09
-6.2411e-09
3.48903e-09
-7.67537e-09
3.84299e-09
-9.21906e-09
4.13661e-09
-1.08256e-08
4.30657e-09
-1.24131e-08
4.25739e-09
-1.38492e-08
3.85425e-09
-1.49339e-08
2.91459e-09
-1.53837e-08
1.2127e-09
-1.49607e-08
-1.13084e-09
-1.38945e-08
-2.85801e-09
-1.24682e-08
-3.82418e-09
-1.08835e-08
-4.24919e-09
-9.27452e-09
-4.3139e-09
-7.72529e-09
-4.15357e-09
-6.28384e-09
-3.86493e-09
-4.97424e-09
-3.51268e-09
-3.80628e-09
-3.13534e-09
-2.78393e-09
-2.74733e-09
-1.91242e-09
-2.34161e-09
-1.20073e-09
-1.90324e-09
-6.57315e-10
-1.43275e-09
-2.83311e-10
-9.57725e-10
-6.97586e-11
-5.20349e-10
-1.56676e-10
-8.64179e-11
2.41306e-10
-3.52317e-10
7.81074e-10
-8.17583e-10
1.4143e-09
-1.49081e-09
2.09376e-09
-2.36859e-09
2.76536e-09
-3.44016e-09
3.39438e-09
-4.69547e-09
3.98121e-09
-6.12941e-09
4.54606e-09
-7.73813e-09
5.09774e-09
-9.51042e-09
5.61528e-09
-1.14177e-08
6.04384e-09
-1.34021e-08
6.29099e-09
-1.53622e-08
6.21752e-09
-1.71347e-08
5.62676e-09
-1.8473e-08
4.25285e-09
-1.90275e-08
1.76724e-09
-1.85045e-08
-1.65384e-09
-1.7188e-08
-4.1745e-09
-1.54271e-08
-5.58512e-09
-1.34701e-08
-6.20616e-09
-1.14829e-08
-6.30114e-09
-9.56912e-09
-6.06733e-09
-7.78836e-09
-5.64569e-09
-6.1705e-09
-5.13054e-09
-4.72758e-09
-4.57826e-09
-3.46399e-09
-4.01092e-09
-2.38519e-09
-3.42042e-09
-1.50142e-09
-2.787e-09
-8.23543e-10
-2.11063e-09
-3.54977e-10
-1.42629e-09
-8.71035e-11
-7.88223e-10
-2.4378e-10
-1.02939e-10
3.44243e-10
-4.21824e-10
1.09996e-09
-9.81528e-10
1.97401e-09
-1.79176e-09
2.90399e-09
-2.84706e-09
3.82066e-09
-4.13351e-09
4.68082e-09
-5.63887e-09
5.48657e-09
-7.35733e-09
6.26452e-09
-9.28459e-09
7.025e-09
-1.14073e-08
7.73802e-09
-1.36911e-08
8.32762e-09
-1.60665e-08
8.6664e-09
-1.84119e-08
8.56291e-09
-2.05319e-08
7.7467e-09
-2.2132e-08
5.85301e-09
-2.27952e-08
2.43041e-09
-2.21697e-08
-2.27935e-09
-2.05955e-08
-5.74865e-09
-1.84894e-08
-7.69121e-09
-1.61479e-08
-8.54776e-09
-1.37691e-08
-8.67991e-09
-1.14775e-08
-8.35893e-09
-9.34461e-09
-7.77858e-09
-7.40638e-09
-7.06876e-09
-5.67715e-09
-6.30749e-09
-4.16186e-09
-5.52622e-09
-2.86673e-09
-4.71554e-09
-1.80428e-09
-3.84946e-09
-9.88515e-10
-2.9264e-09
-4.24917e-10
-1.98989e-09
-1.03729e-10
-1.10941e-09
-3.47509e-10
-1.21154e-10
4.65396e-10
-4.98169e-10
1.47697e-09
-1.16183e-09
2.63767e-09
-2.12405e-09
3.86622e-09
-3.37785e-09
5.07445e-09
-4.90582e-09
6.20879e-09
-6.69276e-09
7.2735e-09
-8.73148e-09
8.30324e-09
-1.10168e-08
9.31036e-09
-1.35329e-08
1.02541e-08
-1.62387e-08
1.10334e-08
-1.90515e-08
1.14792e-08
-2.18272e-08
1.13386e-08
-2.43344e-08
1.0254e-08
-2.62264e-08
7.74496e-09
-2.70111e-08
3.21511e-09
-2.62727e-08
-3.01776e-09
-2.44128e-08
-7.60858e-09
-2.19226e-08
-1.01814e-08
-1.91518e-08
-1.13186e-08
-1.63349e-08
-1.14968e-08
-1.36195e-08
-1.10743e-08
-1.10909e-08
-1.03072e-08
-8.79201e-09
-9.36766e-09
-6.73996e-09
-8.35954e-09
-4.94072e-09
-7.32546e-09
-3.40202e-09
-6.25424e-09
-2.13939e-09
-5.11209e-09
-1.17036e-09
-3.89543e-09
-5.01932e-10
-2.65832e-09
-1.22111e-10
-1.48923e-09
-4.6962e-10
-1.43358e-10
6.08753e-10
-5.90471e-10
1.92408e-09
-1.37885e-09
3.42605e-09
-2.52325e-09
5.01061e-09
-4.01534e-09
6.56654e-09
-5.83389e-09
8.02734e-09
-7.96008e-09
9.3997e-09
-1.03847e-08
1.07279e-08
-1.31012e-08
1.20268e-08
-1.60901e-08
1.3243e-08
-1.93019e-08
1.42452e-08
-2.26381e-08
1.48154e-08
-2.59271e-08
1.46275e-08
-2.88952e-08
1.32221e-08
-3.11336e-08
9.98338e-09
-3.20631e-08
4.14454e-09
-3.11924e-08
-3.88839e-09
-2.89948e-08
-9.80616e-09
-2.60487e-08
-1.31275e-08
-2.2766e-08
-1.46013e-08
-1.94248e-08
-1.4838e-08
-1.62008e-08
-1.42983e-08
-1.3196e-08
-1.3312e-08
-1.04622e-08
-1.21014e-08
-8.02052e-09
-1.08013e-08
-5.87856e-09
-9.46742e-09
-4.04625e-09
-8.08655e-09
-2.54284e-09
-6.6155e-09
-1.38974e-09
-5.04853e-09
-5.95265e-10
-3.45279e-09
-1.44576e-10
-1.93992e-09
-6.14197e-10
-1.71737e-10
7.80489e-10
-7.07928e-10
2.46027e-09
-1.65416e-09
4.37228e-09
-3.02857e-09
6.38502e-09
-4.82122e-09
8.35919e-09
-7.00625e-09
1.02124e-08
-9.56038e-09
1.19538e-08
-1.24717e-08
1.36392e-08
-1.57311e-08
1.52863e-08
-1.93143e-08
1.68262e-08
-2.31607e-08
1.80916e-08
-2.71507e-08
1.88054e-08
-3.10785e-08
1.85553e-08
-3.46179e-08
1.67615e-08
-3.72843e-08
1.26498e-08
-3.83928e-08
5.25312e-09
-3.73615e-08
-4.9197e-09
-3.47491e-08
-1.24186e-08
-3.12391e-08
-1.66375e-08
-2.732e-08
-1.85204e-08
-2.33237e-08
-1.88344e-08
-1.94614e-08
-1.81605e-08
-1.58572e-08
-1.69162e-08
-1.25748e-08
-1.53838e-08
-9.64085e-09
-1.37352e-08
-7.06574e-09
-1.20425e-08
-4.86238e-09
-1.02899e-08
-3.05465e-09
-8.42323e-09
-1.66865e-09
-6.43454e-09
-7.14305e-10
-4.40714e-09
-1.73357e-10
-2.48087e-09
-7.87554e-10
-2.09154e-10
9.89642e-10
-8.62554e-10
3.11367e-09
-2.01611e-09
5.52583e-09
-3.69211e-09
8.06103e-09
-5.87837e-09
1.05454e-08
-8.54291e-09
1.28769e-08
-1.16565e-08
1.50674e-08
-1.52032e-08
1.71859e-08
-1.91704e-08
1.92535e-08
-2.35262e-08
2.11819e-08
-2.81943e-08
2.27597e-08
-3.30272e-08
2.36383e-08
-3.77739e-08
2.3302e-08
-4.20415e-08
2.10291e-08
-4.52509e-08
1.58592e-08
-4.65873e-08
6.58949e-09
-4.53563e-08
-6.15069e-09
-4.2221e-08
-1.55539e-08
-3.79944e-08
-2.08642e-08
-3.32603e-08
-2.32544e-08
-2.84194e-08
-2.36753e-08
-2.37298e-08
-2.28501e-08
-1.93452e-08
-2.13008e-08
-1.53464e-08
-1.93827e-08
-1.17682e-08
-1.73134e-08
-8.62559e-09
-1.51852e-08
-5.9356e-09
-1.29799e-08
-3.72837e-09
-1.06305e-08
-2.03624e-09
-8.12667e-09
-8.71417e-10
-5.57196e-09
-2.11405e-10
-3.14088e-09
-9.98959e-10
-2.60137e-10
1.24978e-09
-1.07311e-09
3.92664e-09
-2.50865e-09
6.96137e-09
-4.59448e-09
1.01469e-08
-7.31504e-09
1.3266e-08
-1.06297e-08
1.61916e-08
-1.45006e-08
1.89383e-08
-1.89059e-08
2.15912e-08
-2.38266e-08
2.41743e-08
-2.92192e-08
2.65745e-08
-3.49844e-08
2.85249e-08
-4.09352e-08
2.95892e-08
-4.676e-08
2.91267e-08
-5.19783e-08
2.62475e-08
-5.58919e-08
1.97728e-08
-5.75245e-08
8.22205e-09
-5.60414e-08
-7.63379e-09
-5.22339e-08
-1.93613e-08
-4.70754e-08
-2.60227e-08
-4.12704e-08
-2.90594e-08
-3.53092e-08
-2.96365e-08
-2.9514e-08
-2.86453e-08
-2.40804e-08
-2.67344e-08
-1.9114e-08
-2.4349e-08
-1.46633e-08
-2.17641e-08
-1.07501e-08
-1.90984e-08
-7.39842e-09
-1.63316e-08
-4.6473e-09
-1.33816e-08
-2.53797e-09
-1.0236e-08
-1.08601e-09
-7.02392e-09
-2.63414e-10
-3.96348e-09
-1.26237e-09
-3.32242e-10
1.58202e-09
-1.37083e-09
4.96523e-09
-3.20487e-09
8.7954e-09
-5.86934e-09
1.28113e-08
-9.34343e-09
1.67401e-08
-1.35735e-08
2.04217e-08
-1.85086e-08
2.38733e-08
-2.41165e-08
2.71991e-08
-3.03674e-08
3.04252e-08
-3.7198e-08
3.3405e-08
-4.44732e-08
3.58001e-08
-5.19483e-08
3.70643e-08
-5.92266e-08
3.6405e-08
-6.5712e-08
3.27329e-08
-7.0555e-08
2.46158e-08
-7.25798e-08
1.02468e-08
-7.0776e-08
-9.43759e-09
-6.60919e-08
-2.40454e-08
-5.96984e-08
-3.24163e-08
-5.24529e-08
-3.63049e-08
-4.4965e-08
-3.71243e-08
-3.76464e-08
-3.5964e-08
-3.07548e-08
-3.3626e-08
-2.44351e-08
-3.06687e-08
-1.8758e-08
-2.74412e-08
-1.37583e-08
-2.40981e-08
-9.47138e-09
-2.06185e-08
-5.95038e-09
-1.69026e-08
-3.24984e-09
-1.29365e-08
-1.39061e-09
-8.88315e-09
-3.37258e-10
-5.01683e-09
-1.59963e-09
-4.38687e-10
2.0207e-09
-1.81011e-09
6.33665e-09
-4.23155e-09
1.12168e-08
-7.74814e-09
1.63279e-08
-1.23304e-08
2.13223e-08
-1.7904e-08
2.59953e-08
-2.43961e-08
3.03654e-08
-3.17559e-08
3.45589e-08
-3.9932e-08
3.86013e-08
-4.88256e-08
4.22986e-08
-5.82427e-08
4.52172e-08
-6.78492e-08
4.66708e-08
-7.71261e-08
4.56819e-08
-8.53233e-08
4.09301e-08
-9.14034e-08
3.06959e-08
-9.39519e-08
1.27953e-08
-9.17437e-08
-1.16457e-08
-8.59131e-08
-2.9876e-08
-7.78654e-08
-4.04639e-08
-6.86472e-08
-4.55231e-08
-5.9027e-08
-4.67445e-08
-4.95456e-08
-4.54454e-08
-4.05571e-08
-4.26145e-08
-3.2272e-08
-3.89538e-08
-2.48011e-08
-3.49121e-08
-1.82043e-08
-3.06948e-08
-1.25384e-08
-2.62845e-08
-7.87983e-09
-2.15611e-08
-4.30454e-09
-1.65118e-08
-1.84217e-09
-1.13455e-08
-4.46809e-10
-6.41219e-09
-2.04644e-09
-6.03635e-10
2.62434e-09
-2.49088e-09
8.22389e-09
-5.82216e-09
1.45481e-08
-1.0657e-08
2.11627e-08
-1.695e-08
2.76153e-08
-2.45911e-08
3.36365e-08
-3.34676e-08
3.92419e-08
-4.3491e-08
4.45822e-08
-5.45645e-08
4.96748e-08
-6.65205e-08
5.42546e-08
-7.90597e-08
5.77564e-08
-9.1703e-08
5.93142e-08
-1.03753e-07
5.77314e-08
-1.14257e-07
5.14348e-08
-1.21965e-07
3.84033e-08
-1.25205e-07
1.60356e-08
-1.22511e-07
-1.43401e-08
-1.15214e-07
-3.71728e-08
-1.04968e-07
-5.07098e-08
-9.30329e-08
-5.74582e-08
-8.03831e-08
-5.93942e-08
-6.77481e-08
-5.80805e-08
-5.56391e-08
-5.47235e-08
-4.43833e-08
-5.02096e-08
-3.41704e-08
-4.51249e-08
-2.51133e-08
-3.97519e-08
-1.73117e-08
-3.40861e-08
-1.08858e-08
-2.79871e-08
-5.94873e-09
-2.14489e-08
-2.54632e-09
-1.47479e-08
-6.17635e-10
-8.34088e-09
-2.66408e-09
-8.75587e-10
3.49993e-09
-3.61282e-09
1.09611e-08
-8.44136e-09
1.93767e-08
-1.54405e-08
2.81619e-08
-2.45325e-08
3.67073e-08
-3.55383e-08
4.46422e-08
-4.82641e-08
5.19677e-08
-6.25373e-08
5.88554e-08
-7.81573e-08
6.52949e-08
-9.48098e-08
7.0907e-08
-1.11994e-07
7.4941e-08
-1.28986e-07
7.63056e-08
-1.44825e-07
7.35704e-08
-1.58325e-07
6.49353e-08
-1.68051e-07
4.81288e-08
-1.72154e-07
2.01383e-08
-1.68958e-07
-1.75353e-08
-1.59942e-07
-4.61894e-08
-1.46921e-07
-6.37304e-08
-1.31329e-07
-7.30507e-08
-1.14372e-07
-7.6351e-08
-9.70519e-08
-7.54003e-08
-8.01459e-08
-7.16296e-08
-6.42045e-08
-6.6151e-08
-4.95857e-08
-5.97438e-08
-3.65236e-08
-5.2814e-08
-2.52159e-08
-4.53938e-08
-1.58724e-08
-3.73306e-08
-8.67975e-09
-2.86415e-08
-3.71691e-09
-1.97108e-08
-9.01763e-10
-1.1156e-08
-3.56584e-09
-1.16607e-09
4.666e-09
-4.80554e-09
1.46006e-08
-1.12153e-08
2.57864e-08
-2.04857e-08
3.74323e-08
-3.24873e-08
4.87089e-08
-4.69404e-08
5.90953e-08
-6.35221e-08
6.85494e-08
-8.19076e-08
7.72409e-08
-1.01706e-07
8.50933e-08
-1.22362e-07
9.15625e-08
-1.43098e-07
9.56771e-08
-1.62929e-07
9.61368e-08
-1.80731e-07
9.13723e-08
-1.95328e-07
7.95328e-08
-2.05513e-07
5.83134e-08
-2.09824e-07
2.44497e-08
-2.06827e-07
-2.05326e-08
-1.97727e-07
-5.52889e-08
-1.8394e-07
-7.75177e-08
-1.66634e-07
-9.03573e-08
-1.46973e-07
-9.60118e-08
-1.26113e-07
-9.62599e-08
-1.05104e-07
-9.26385e-08
-8.48021e-08
-8.64532e-08
-6.58409e-08
-7.87049e-08
-4.86799e-08
-6.9975e-08
-3.36968e-08
-6.03769e-08
-2.12498e-08
-4.97777e-08
-1.16363e-08
-3.82551e-08
-4.9889e-09
-2.63582e-08
-1.21206e-09
-1.49329e-08
-4.7779e-09
-1.3895e-09
6.0555e-09
-5.71843e-09
1.89295e-08
-1.33257e-08
3.33937e-08
-2.42911e-08
4.83977e-08
-3.84113e-08
6.28291e-08
-5.52731e-08
7.59571e-08
-7.43718e-08
8.76481e-08
-9.51549e-08
9.80241e-08
-1.16959e-07
1.06897e-07
-1.38933e-07
1.13537e-07
-1.60047e-07
1.1679e-07
-1.79195e-07
1.15285e-07
-1.95369e-07
1.07547e-07
-2.07812e-07
9.19753e-08
-2.16033e-07
6.65352e-08
-2.19531e-07
2.79478e-08
-2.17583e-07
-2.24808e-08
-2.10737e-07
-6.21353e-08
-1.99453e-07
-8.88016e-08
-1.84127e-07
-1.05683e-07
-1.65434e-07
-1.14705e-07
-1.44353e-07
-1.17341e-07
-1.22026e-07
-1.14965e-07
-9.95773e-08
-1.08902e-07
-7.79756e-08
-1.00307e-07
-5.80045e-08
-8.99461e-08
-4.0319e-08
-7.80623e-08
-2.54966e-08
-6.46001e-08
-1.39881e-08
-4.97636e-08
-6.00572e-09
-3.43406e-08
-1.46123e-09
-1.94775e-08
-6.23913e-09
-1.67111e-09
7.72661e-09
-6.87142e-09
2.41298e-08
-1.59863e-08
4.25085e-08
-2.9061e-08
6.14725e-08
-4.57605e-08
7.95285e-08
-6.54452e-08
9.56418e-08
-8.73069e-08
1.0951e-07
-1.10432e-07
1.21149e-07
-1.3377e-07
1.30235e-07
-1.56121e-07
1.35888e-07
-1.76253e-07
1.36922e-07
-1.93111e-07
1.32143e-07
-2.06057e-07
1.20492e-07
-2.15001e-07
1.0092e-07
-2.20354e-07
7.18874e-08
-2.22664e-07
3.02581e-08
-2.22008e-07
-2.31362e-08
-2.18253e-07
-6.58907e-08
-2.1084e-07
-9.6215e-08
-1.99225e-07
-1.17298e-07
-1.83313e-07
-1.30617e-07
-1.63593e-07
-1.37061e-07
-1.41067e-07
-1.37492e-07
-1.17026e-07
-1.32943e-07
-9.28192e-08
-1.24514e-07
-6.9692e-08
-1.13073e-07
-4.87507e-08
-9.90036e-08
-3.09528e-08
-8.2398e-08
-1.70219e-08
-6.36945e-08
-7.31753e-09
-4.4045e-08
-1.78142e-09
-2.50136e-08
-8.02055e-09
-2.04284e-09
9.76945e-09
-8.38662e-09
3.04736e-08
-1.94604e-08
5.35824e-08
-3.52273e-08
7.72393e-08
-5.51159e-08
9.94171e-08
-7.81048e-08
1.18631e-07
-1.029e-07
1.34305e-07
-1.28061e-07
1.46311e-07
-1.52063e-07
1.54236e-07
-1.73404e-07
1.5723e-07
-1.90848e-07
1.54366e-07
-2.03694e-07
1.44989e-07
-2.1197e-07
1.28768e-07
-2.16434e-07
1.05384e-07
-2.18386e-07
7.38396e-08
-2.19302e-07
3.11736e-08
-2.19983e-07
-2.24552e-08
-2.19723e-07
-6.61501e-08
-2.17118e-07
-9.88203e-08
-2.10736e-07
-1.2368e-07
-1.9955e-07
-1.41803e-07
-1.83222e-07
-1.53389e-07
-1.62212e-07
-1.58502e-07
-1.3768e-07
-1.57474e-07
-1.11243e-07
-1.50951e-07
-8.46983e-08
-1.39618e-07
-5.98254e-08
-1.23876e-07
-3.82203e-08
-1.04003e-07
-2.10937e-08
-8.08211e-08
-9.08428e-09
-5.60545e-08
-2.21323e-09
-3.18846e-08
-1.02338e-08
-2.55396e-09
1.23234e-08
-1.04604e-08
3.83801e-08
-2.41741e-08
6.72961e-08
-4.34722e-08
9.65374e-08
-6.735e-08
1.23295e-07
-9.41436e-08
1.45424e-07
-1.21819e-07
1.6198e-07
-1.48259e-07
1.72751e-07
-1.71494e-07
1.77471e-07
-1.89964e-07
1.75701e-07
-2.02818e-07
1.67219e-07
-2.10097e-07
1.52268e-07
-2.12728e-07
1.31399e-07
-2.12309e-07
1.04966e-07
-2.1082e-07
7.23502e-08
-2.10342e-07
3.06957e-08
-2.12201e-07
-2.05956e-08
-2.1532e-07
-6.30317e-08
-2.17795e-07
-9.63455e-08
-2.17599e-07
-1.23875e-07
-2.1286e-07
-1.46542e-07
-2.022e-07
-1.64048e-07
-1.85074e-07
-1.75629e-07
-1.61961e-07
-1.80587e-07
-1.34334e-07
-1.78578e-07
-1.04426e-07
-1.69525e-07
-7.48821e-08
-1.53421e-07
-4.83161e-08
-1.30569e-07
-2.68185e-08
-1.02319e-07
-1.15804e-08
-7.12924e-08
-2.82326e-09
-4.06417e-08
-1.3057e-08
-3.28981e-09
1.56132e-08
-1.34206e-08
4.85109e-08
-3.08073e-08
8.46828e-08
-5.48163e-08
1.20546e-07
-8.3645e-08
1.52124e-07
-1.14583e-07
1.76362e-07
-1.44576e-07
1.91973e-07
-1.70813e-07
1.98988e-07
-1.91178e-07
1.97836e-07
-2.04566e-07
1.89088e-07
-2.1103e-07
1.73684e-07
-2.11684e-07
1.52922e-07
-2.08381e-07
1.28095e-07
-2.03327e-07
9.9912e-08
-1.9881e-07
6.7833e-08
-1.97122e-07
2.90075e-08
-1.99861e-07
-1.78558e-08
-2.05784e-07
-5.71087e-08
-2.12892e-07
-8.92378e-08
-2.19008e-07
-1.17759e-07
-2.21781e-07
-1.43769e-07
-2.18896e-07
-1.66933e-07
-2.08504e-07
-1.86021e-07
-1.89728e-07
-1.99363e-07
-1.63093e-07
-2.05213e-07
-1.30689e-07
-2.01929e-07
-9.59514e-08
-1.88159e-07
-6.29395e-08
-1.63581e-07
-3.52873e-08
-1.29971e-07
-1.53114e-08
-9.12682e-08
-3.73755e-09
-5.22156e-08
-1.67946e-08
-4.40881e-09
2.0022e-08
-1.78464e-08
6.19485e-08
-4.04818e-08
1.07318e-07
-7.07826e-08
1.50847e-07
-1.05507e-07
1.86848e-07
-1.40371e-07
2.11227e-07
-1.7116e-07
2.22762e-07
-1.9472e-07
2.22548e-07
-2.09483e-07
2.12599e-07
-2.1553e-07
1.95135e-07
-2.14293e-07
1.72447e-07
-2.08021e-07
1.4665e-07
-1.99233e-07
1.19307e-07
-1.90332e-07
9.10111e-08
-1.83502e-07
6.10027e-08
-1.80896e-07
2.64014e-08
-1.84159e-07
-1.45925e-08
-1.9204e-07
-4.92276e-08
-2.0276e-07
-7.85179e-08
-2.14434e-07
-1.06086e-07
-2.24778e-07
-1.33425e-07
-2.31034e-07
-1.60676e-07
-2.30201e-07
-1.86855e-07
-2.19603e-07
-2.09961e-07
-1.97774e-07
-2.27042e-07
-1.6541e-07
-2.34293e-07
-1.25921e-07
-2.27647e-07
-8.4924e-08
-2.04578e-07
-4.85162e-08
-1.66379e-07
-2.12773e-08
-1.18507e-07
-5.21771e-09
-6.82751e-08
-2.20123e-08
-6.21609e-09
2.62381e-08
-2.47476e-08
8.048e-08
-5.49238e-08
1.37494e-07
-9.33121e-08
1.89235e-07
-1.34259e-07
2.27794e-07
-1.71482e-07
2.4845e-07
-1.99982e-07
2.51262e-07
-2.17236e-07
2.39803e-07
-2.23304e-07
2.18667e-07
-2.20149e-07
1.9198e-07
-2.10705e-07
1.63003e-07
-1.98026e-07
1.33971e-07
-1.84788e-07
1.06069e-07
-1.73123e-07
7.93464e-08
-1.64789e-07
5.26684e-08
-1.61573e-07
2.31858e-08
-1.65008e-07
-1.11574e-08
-1.73924e-07
-4.03116e-08
-1.86921e-07
-6.55215e-08
-2.02686e-07
-9.03206e-08
-2.19521e-07
-1.1659e-07
-2.34966e-07
-1.45231e-07
-2.45603e-07
-1.76217e-07
-2.47238e-07
-2.08326e-07
-2.35733e-07
-2.38547e-07
-2.0867e-07
-2.61357e-07
-1.67412e-07
-2.68905e-07
-1.18054e-07
-2.53936e-07
-6.97955e-08
-2.14637e-07
-3.13375e-08
-1.56965e-07
-7.80269e-09
-9.18099e-08
-2.9815e-08
-9.24276e-09
3.54809e-08
-3.55766e-08
1.06814e-07
-7.59927e-08
1.7791e-07
-1.23396e-07
2.36638e-07
-1.68705e-07
2.73103e-07
-2.03965e-07
2.8371e-07
-2.2481e-07
2.72107e-07
-2.31022e-07
2.46014e-07
-2.25379e-07
2.13024e-07
-2.11936e-07
1.78537e-07
-1.94666e-07
1.45733e-07
-1.76724e-07
1.16029e-07
-1.60338e-07
8.96832e-08
-1.47003e-07
6.60112e-08
-1.37876e-07
4.35411e-08
-1.34285e-07
1.95952e-08
-1.37565e-07
-7.87801e-09
-1.4665e-07
-3.12262e-08
-1.60521e-07
-5.16503e-08
-1.78495e-07
-7.2347e-08
-1.99729e-07
-9.5356e-08
-2.22717e-07
-1.22243e-07
-2.44717e-07
-1.54217e-07
-2.61241e-07
-1.91802e-07
-2.66062e-07
-2.33726e-07
-2.52598e-07
-2.7482e-07
-2.17299e-07
-3.04205e-07
-1.63491e-07
-3.07744e-07
-1.02193e-07
-2.75935e-07
-4.79606e-08
-2.11198e-07
-1.23768e-08
-1.27394e-07
-4.21918e-08
-1.41851e-08
4.9666e-08
-5.14335e-08
1.44062e-07
-1.03288e-07
2.29765e-07
-1.56765e-07
2.90115e-07
-1.99455e-07
3.15793e-07
-2.239e-07
3.08155e-07
-2.29109e-07
2.77317e-07
-2.18976e-07
2.35882e-07
-1.99334e-07
1.93382e-07
-1.75587e-07
1.5479e-07
-1.51658e-07
1.21805e-07
-1.29933e-07
9.43038e-08
-1.11694e-07
7.1444e-08
-9.76098e-08
5.19271e-08
-8.82124e-08
3.41436e-08
-8.4375e-08
1.57578e-08
-8.72013e-08
-5.05171e-09
-9.57161e-08
-2.27114e-08
-1.09177e-07
-3.81899e-08
-1.27387e-07
-5.41366e-08
-1.50301e-07
-7.24417e-08
-1.77607e-07
-9.49374e-08
-2.08091e-07
-1.23733e-07
-2.38659e-07
-1.61234e-07
-2.63212e-07
-2.09172e-07
-2.72339e-07
-2.65693e-07
-2.56106e-07
-3.20438e-07
-2.10339e-07
-3.53511e-07
-1.42636e-07
-3.43638e-07
-7.19029e-08
-2.81931e-07
-1.97853e-08
-1.79511e-07
-6.19771e-08
-2.16424e-08
7.13084e-08
-7.12205e-08
1.9364e-07
-1.2989e-07
2.88435e-07
-1.7801e-07
3.38235e-07
-2.03302e-07
3.41085e-07
-2.03561e-07
3.08414e-07
-1.84308e-07
2.58065e-07
-1.54025e-07
2.05598e-07
-1.20221e-07
1.59578e-07
-8.78151e-08
1.22384e-07
-5.93079e-08
9.32976e-08
-3.56003e-08
7.05962e-08
-1.68099e-08
5.26536e-08
-2.80296e-09
3.79201e-08
6.42443e-09
2.49163e-08
1.03627e-08
1.18195e-08
8.23966e-09
-2.92864e-09
8.61127e-10
-1.53329e-08
-1.11565e-08
-2.61722e-08
-2.78767e-08
-3.74165e-08
-4.97508e-08
-5.05676e-08
-7.74036e-08
-6.72845e-08
-1.11257e-07
-8.98797e-08
-1.50683e-07
-1.21809e-07
-1.92464e-07
-1.67391e-07
-2.28381e-07
-2.29776e-07
-2.44999e-07
-3.0382e-07
-2.28427e-07
-3.70082e-07
-1.74689e-07
-3.97377e-07
-9.84033e-08
-3.58216e-07
-3.00664e-08
-2.47848e-07
-9.20435e-08
-3.18155e-08
1.03124e-07
-8.98337e-08
2.51659e-07
-1.39788e-07
3.3839e-07
-1.6045e-07
3.58896e-07
-1.48346e-07
3.28981e-07
-1.12114e-07
2.72182e-07
-6.43804e-08
2.10331e-07
-1.55292e-08
1.56747e-07
2.84936e-08
1.15555e-07
6.54544e-08
8.54228e-08
9.52717e-08
6.34803e-08
1.18634e-07
4.7234e-08
1.36447e-07
3.48407e-08
1.49429e-07
2.49381e-08
1.57951e-07
1.63943e-08
1.61824e-07
7.94628e-09
1.60392e-07
-1.49689e-09
1.54466e-07
-9.40666e-09
1.44565e-07
-1.62714e-08
1.30547e-07
-2.33986e-08
1.11795e-07
-3.18154e-08
8.72534e-08
-4.27428e-08
5.54358e-08
-5.80621e-08
1.46526e-08
-8.10255e-08
-3.5677e-08
-1.17062e-07
-9.30539e-08
-1.72399e-07
-1.47284e-07
-2.4959e-07
-1.79613e-07
-3.37753e-07
-1.70307e-07
-4.06683e-07
-1.15519e-07
-4.13005e-07
-4.18627e-08
-3.21504e-07
-1.33906e-07
-4.31262e-08
1.4625e-07
-9.56334e-08
3.04166e-07
-1.08463e-07
3.5122e-07
-7.53376e-08
3.25771e-07
-1.22765e-08
2.6592e-07
6.093e-08
1.98976e-07
1.2986e-07
1.414e-07
1.87843e-07
9.87641e-08
2.3381e-07
6.95887e-08
2.69244e-07
4.9989e-08
2.96218e-07
3.65057e-08
3.1658e-07
2.68725e-08
3.31731e-07
1.96893e-08
3.42625e-07
1.40442e-08
3.49777e-07
9.24202e-09
3.53173e-07
4.55015e-09
3.52347e-07
-6.70862e-10
3.47971e-07
-5.03017e-09
3.40491e-07
-8.79119e-09
3.29785e-07
-1.26929e-08
3.15294e-07
-1.73244e-08
2.95968e-07
-2.34168e-08
2.70074e-07
-3.21678e-08
2.34901e-07
-4.58523e-08
1.8657e-07
-6.87314e-08
1.21541e-07
-1.0737e-07
4.084e-08
-1.68888e-07
-4.26506e-08
-2.54263e-07
-1.01308e-07
-3.48026e-07
-1.04608e-07
-4.09705e-07
-5.08529e-08
-3.75259e-07
-1.84759e-07
-5.0845e-08
1.97095e-07
-6.30899e-08
3.16411e-07
-2.31379e-09
2.90444e-07
9.73219e-08
2.26135e-07
2.02322e-07
1.6092e-07
2.93677e-07
1.0762e-07
3.64972e-07
7.01052e-08
4.17637e-07
4.6099e-08
4.55896e-07
3.13305e-08
4.8379e-07
2.20943e-08
5.04304e-07
1.59922e-08
5.19457e-07
1.17195e-08
5.30581e-07
8.56505e-09
5.38523e-07
6.10243e-09
5.43744e-07
4.02057e-09
5.46297e-07
1.99747e-09
5.45876e-07
-2.50149e-10
5.42969e-07
-2.12314e-09
5.37912e-07
-3.73422e-09
5.30626e-07
-5.40668e-09
5.20702e-07
-7.3998e-09
5.07331e-07
-1.00463e-08
4.89073e-07
-1.39093e-08
4.63338e-07
-2.01179e-08
4.25563e-07
-3.09563e-08
3.68778e-07
-5.05854e-08
2.85338e-07
-8.54479e-08
1.73834e-07
-1.42759e-07
5.08244e-08
-2.25016e-07
-4.0815e-08
-3.18065e-07
-4.99648e-08
-3.66109e-07
-2.34724e-07
-2.72458e-08
2.24341e-07
7.08656e-08
2.18299e-07
2.20557e-07
1.40752e-07
3.58212e-07
8.84799e-08
4.65541e-07
5.35906e-08
5.41853e-07
3.1308e-08
5.93468e-07
1.84912e-08
6.28089e-07
1.1478e-08
6.51814e-07
7.6054e-09
6.68579e-07
5.32859e-09
6.80712e-07
3.85902e-09
6.89598e-07
2.83371e-09
6.96089e-07
2.07422e-09
7.00712e-07
1.47944e-09
7.03757e-07
9.75972e-10
7.05268e-07
4.85786e-10
7.05078e-07
-5.95643e-11
7.03468e-07
-5.1375e-10
7.00639e-07
-9.0493e-10
6.96545e-07
-1.31307e-09
6.90948e-07
-1.80235e-09
6.83361e-07
-2.4588e-09
6.72882e-07
-3.43055e-09
6.57789e-07
-5.02563e-09
6.34733e-07
-7.90021e-09
5.97539e-07
-1.33906e-08
5.3617e-07
-2.40791e-08
4.37985e-07
-4.45741e-08
2.94864e-07
-8.18955e-08
1.21815e-07
-1.45016e-07
-8.17558e-09
-2.36119e-07
-2.429e-07
2.24341e-07
4.4264e-07
5.83392e-07
6.71872e-07
7.25463e-07
7.56771e-07
7.75262e-07
7.8674e-07
7.94345e-07
7.99674e-07
8.03533e-07
8.06367e-07
8.08441e-07
8.0992e-07
8.10896e-07
8.11382e-07
8.11323e-07
8.10809e-07
8.09904e-07
8.08591e-07
8.06789e-07
8.0433e-07
8.00899e-07
7.95874e-07
7.87973e-07
7.74583e-07
7.50504e-07
7.0593e-07
6.24034e-07
4.79019e-07
2.429e-07
)
;

boundaryField
{
    movingWall
    {
        type            calculated;
        value           uniform 0;
    }
    fixedWalls
    {
        type            calculated;
        value           uniform 0;
    }
    frontAndBack
    {
        type            empty;
        value           nonuniform List<scalar> 0();
    }
}


// ************************************************************************* //
