/*--------------------------------*- C++ -*----------------------------------*\
| =========                 |                                                 |
| \\      /  F ield         | OpenFOAM: The Open Source CFD Toolbox           |
|  \\    /   O peration     | Version:  2206                                  |
|   \\  /    A nd           | Website:  www.openfoam.com                      |
|    \\/     M anipulation  |                                                 |
\*---------------------------------------------------------------------------*/
FoamFile
{
    version     2.0;
    format      ascii;
    arch        "LSB;label=64;scalar=64";
    class       volScalarField;
    location    "9";
    object      Sch4;
}
// * * * * * * * * * * * * * * * * * * * * * * * * * * * * * * * * * * * * * //

dimensions      [0 0 0 0 0 0 0];

internalField   nonuniform List<scalar> 
1024
(
1.11516e-14
1.20137e-14
1.47178e-14
1.98121e-14
2.81285e-14
4.07944e-14
5.91887e-14
8.47919e-14
1.18884e-13
1.62073e-13
2.13743e-13
2.71613e-13
3.3175e-13
3.89131e-13
4.38209e-13
4.71693e-13
4.76658e-13
4.51886e-13
4.08977e-13
3.54921e-13
2.95548e-13
2.36511e-13
1.8249e-13
1.36419e-13
9.93879e-14
7.10726e-14
5.03505e-14
3.5825e-14
2.61653e-14
2.02632e-14
1.7278e-14
1.66344e-14
1.40625e-14
1.51259e-14
1.84696e-14
2.47587e-14
3.49978e-14
5.05413e-14
7.3035e-14
1.04232e-13
1.45628e-13
1.97897e-13
2.60237e-13
3.29862e-13
4.02036e-13
4.70761e-13
5.29455e-13
5.69501e-13
5.75552e-13
5.46112e-13
4.94902e-13
4.30192e-13
3.58908e-13
2.87818e-13
2.2258e-13
1.66787e-13
1.21819e-13
8.73469e-14
6.20586e-14
4.42954e-14
3.24618e-14
2.52194e-14
2.15475e-14
2.07432e-14
2.28473e-14
2.45108e-14
2.97636e-14
3.96164e-14
5.55829e-14
7.96852e-14
1.14354e-13
1.62143e-13
2.25175e-13
3.04315e-13
3.98208e-13
5.02575e-13
6.10307e-13
7.12532e-13
7.9962e-13
8.5904e-13
8.68324e-13
8.25136e-13
7.49437e-13
6.53275e-13
5.468e-13
4.40079e-13
3.41655e-13
2.57074e-13
1.88587e-13
1.35851e-13
9.70064e-14
6.96225e-14
5.13227e-14
4.00885e-14
3.4368e-14
3.30844e-14
4.32362e-14
4.62531e-14
5.58278e-14
7.37348e-14
1.02606e-13
1.45922e-13
2.07817e-13
2.92561e-13
4.03605e-13
5.4216e-13
7.05592e-13
8.86292e-13
1.07194e-12
1.2474e-12
1.39646e-12
1.49818e-12
1.51467e-12
1.44173e-12
1.31275e-12
1.14791e-12
9.64331e-13
7.7926e-13
6.07617e-13
4.59311e-13
3.38596e-13
2.45183e-13
1.76063e-13
1.2714e-13
9.43294e-14
7.41157e-14
6.37715e-14
6.13914e-14
8.95115e-14
9.54861e-14
1.14554e-13
1.50115e-13
2.0716e-13
2.92226e-13
4.12981e-13
5.77219e-13
7.91032e-13
1.05617e-12
1.36709e-12
1.70901e-12
2.05859e-12
2.38765e-12
2.66641e-12
2.85669e-12
2.88873e-12
2.75428e-12
2.51437e-12
2.20582e-12
1.86006e-12
1.50939e-12
1.18223e-12
8.97937e-13
6.65277e-13
4.84319e-13
3.49794e-13
2.54184e-13
1.89823e-13
1.50024e-13
1.29558e-13
1.24743e-13
1.98929e-13
2.11598e-13
2.52277e-13
3.27923e-13
4.48665e-13
6.27624e-13
8.80013e-13
1.22102e-12
1.66209e-12
2.20564e-12
2.83929e-12
3.53225e-12
4.23714e-12
4.89781e-12
5.45593e-12
5.83707e-12
5.90378e-12
5.6389e-12
5.16174e-12
4.54393e-12
3.84708e-12
3.13566e-12
2.46771e-12
1.88373e-12
1.40304e-12
1.02714e-12
7.46321e-13
5.45859e-13
4.10377e-13
3.26279e-13
2.82829e-13
2.7242e-13
4.755e-13
5.04287e-13
5.9734e-13
7.69881e-13
1.04388e-12
1.44751e-12
2.01302e-12
2.77198e-12
3.74718e-12
4.94125e-12
6.32462e-12
7.82855e-12
9.35e-12
1.07694e-11
1.1965e-11
1.2782e-11
1.2931e-11
1.23739e-11
1.13601e-11
1.0038e-11
8.53586e-12
6.99108e-12
5.53037e-12
4.24464e-12
3.17955e-12
2.34175e-12
1.7125e-12
1.26116e-12
9.54808e-13
7.63877e-13
6.6479e-13
6.40722e-13
1.23406e-12
1.30476e-12
1.53499e-12
1.96066e-12
2.63312e-12
3.61757e-12
4.98756e-12
6.81359e-12
9.14378e-12
1.19776e-11
1.52389e-11
1.87614e-11
2.23034e-11
2.5591e-11
2.83511e-11
3.02393e-11
3.05988e-11
2.93396e-11
2.70227e-11
2.39768e-11
2.04877e-11
1.68701e-11
1.34217e-11
1.03633e-11
7.81156e-12
5.7912e-12
4.26475e-12
3.16405e-12
2.41338e-12
1.94353e-12
1.69865e-12
1.63857e-12
3.51848e-12
3.7082e-12
4.33115e-12
5.47958e-12
7.28426e-12
9.90928e-12
1.3537e-11
1.83376e-11
2.44192e-11
3.17612e-11
4.01487e-11
4.91428e-11
5.8125e-11
6.64141e-11
7.33482e-11
7.80971e-11
7.90436e-11
7.59576e-11
7.02083e-11
6.25819e-11
5.37647e-11
4.45365e-11
3.56597e-11
2.77182e-11
2.10389e-11
1.57113e-11
1.16592e-11
8.71985e-12
6.7047e-12
5.43761e-12
4.77444e-12
4.61059e-12
1.11555e-11
1.17181e-11
1.35824e-11
1.70094e-11
2.23654e-11
3.01043e-11
4.07214e-11
5.46641e-11
7.21886e-11
9.31756e-11
1.16955e-10
1.42247e-10
1.67309e-10
1.90285e-10
2.09427e-10
2.22553e-10
2.253e-10
2.17023e-10
2.01385e-10
1.80431e-10
1.5595e-10
1.30053e-10
1.0488e-10
8.21362e-11
6.28311e-11
4.73031e-11
3.54033e-11
2.67131e-11
2.07203e-11
1.69331e-11
1.49427e-11
1.44489e-11
3.9801e-11
4.16632e-11
4.79012e-11
5.93347e-11
7.71023e-11
1.02595e-10
1.37299e-10
1.82498e-10
2.38821e-10
3.05667e-10
3.8071e-10
4.59781e-10
5.37438e-10
6.08097e-10
6.66693e-10
7.06921e-10
7.15781e-10
6.91286e-10
6.44261e-10
5.80527e-10
5.05172e-10
4.24476e-10
3.45097e-10
2.7256e-10
2.1034e-10
1.59812e-10
1.20755e-10
9.20137e-11
7.20617e-11
5.9383e-11
5.26908e-11
5.10279e-11
1.61568e-10
1.68515e-10
1.92076e-10
2.35134e-10
3.01649e-10
3.96374e-10
5.24248e-10
6.89295e-10
8.92989e-10
1.1323e-09
1.39813e-09
1.67524e-09
1.94463e-09
2.18763e-09
2.38806e-09
2.52584e-09
2.55785e-09
2.47731e-09
2.31982e-09
2.10361e-09
1.84448e-09
1.56311e-09
1.2825e-09
1.02272e-09
7.97186e-10
6.12006e-10
4.67442e-10
3.60128e-10
2.85066e-10
2.37071e-10
2.11623e-10
2.05303e-10
7.53523e-10
7.82946e-10
8.84197e-10
1.0687e-09
1.35192e-09
1.75203e-09
2.28724e-09
2.97112e-09
3.80602e-09
4.77564e-09
5.83969e-09
6.9353e-09
7.98794e-09
8.92814e-09
9.69891e-09
1.02293e-08
1.03595e-08
1.00637e-08
9.47311e-09
8.65056e-09
7.64956e-09
6.54517e-09
5.42635e-09
4.37496e-09
3.44938e-09
2.6797e-09
2.07193e-09
1.6162e-09
1.29467e-09
1.08763e-09
9.77315e-10
9.49992e-10
4.06948e-09
4.21164e-09
4.70948e-09
5.61409e-09
6.99338e-09
8.92502e-09
1.14828e-08
1.47142e-08
1.86108e-08
2.30763e-08
2.79087e-08
3.28145e-08
3.74648e-08
4.15716e-08
4.49143e-08
4.72162e-08
4.78129e-08
4.65965e-08
4.411e-08
4.05913e-08
3.62349e-08
3.13408e-08
2.62927e-08
2.14663e-08
1.71484e-08
1.35045e-08
1.05888e-08
8.37675e-09
6.80047e-09
5.77728e-09
5.22917e-09
5.09405e-09
2.55872e-08
2.63721e-08
2.91796e-08
3.42671e-08
4.19684e-08
5.26503e-08
6.66341e-08
8.40746e-08
1.04807e-07
1.28205e-07
1.5312e-07
1.78003e-07
2.01227e-07
2.21471e-07
2.37808e-07
2.49056e-07
2.52126e-07
2.46527e-07
2.34785e-07
2.17879e-07
1.96546e-07
1.72083e-07
1.46323e-07
1.21198e-07
9.82963e-08
7.86343e-08
6.26564e-08
5.03682e-08
4.15092e-08
3.5705e-08
3.25768e-08
3.1811e-08
1.87709e-07
1.92647e-07
2.10775e-07
2.43535e-07
2.92735e-07
3.60241e-07
4.47466e-07
5.54641e-07
6.79958e-07
8.18879e-07
9.64055e-07
1.10632e-06
1.23672e-06
1.34863e-06
1.438e-06
1.4994e-06
1.51691e-06
1.48816e-06
1.42634e-06
1.33574e-06
1.21899e-06
1.082e-06
9.34283e-07
7.8683e-07
6.49451e-07
5.29103e-07
4.29507e-07
3.51669e-07
2.94781e-07
2.57101e-07
2.36653e-07
2.31695e-07
1.50578e-06
1.53885e-06
1.66394e-06
1.88935e-06
2.22483e-06
2.67942e-06
3.25799e-06
3.95667e-06
4.75804e-06
5.6281e-06
6.51757e-06
7.36993e-06
8.13464e-06
8.77879e-06
9.28612e-06
9.63251e-06
9.73384e-06
9.57966e-06
9.24191e-06
8.73868e-06
8.07601e-06
7.27846e-06
6.39512e-06
5.48951e-06
4.62396e-06
3.84754e-06
3.19107e-06
2.66823e-06
2.27994e-06
2.01949e-06
1.87706e-06
1.84304e-06
1.05639e-05
1.07523e-05
1.14901e-05
1.28152e-05
1.4768e-05
1.73783e-05
2.0646e-05
2.45176e-05
2.88652e-05
3.3478e-05
3.80802e-05
4.23821e-05
4.61501e-05
4.92574e-05
5.16648e-05
5.32928e-05
5.37734e-05
5.30746e-05
5.15284e-05
4.91934e-05
4.60536e-05
4.21752e-05
3.7755e-05
3.30892e-05
2.85017e-05
2.42757e-05
2.0615e-05
1.76367e-05
1.53846e-05
1.38527e-05
1.30081e-05
1.28103e-05
5.56853e-05
5.64714e-05
5.96719e-05
6.54041e-05
7.37712e-05
8.48057e-05
9.83926e-05
0.000114185
0.000131543
0.000149533
0.000167039
0.00018299
0.000196623
0.000207624
0.000216006
0.000221617
0.000223282
0.000220952
0.000215762
0.000207841
0.000196989
0.000183246
0.000167133
0.000149612
0.000131869
0.000115058
0.000100114
8.76731e-05
7.80816e-05
7.14578e-05
6.77731e-05
6.69288e-05
0.000225529
0.00022798
0.000238411
0.000257061
0.000284049
0.000319198
0.000361807
0.000410432
0.000462772
0.000515774
0.000566084
0.000610769
0.000648032
0.000677462
0.000699518
0.00071413
0.000718471
0.000712575
0.000699406
0.000679156
0.000650979
0.000614506
0.000570603
0.00052147
0.000470224
0.000420248
0.000374604
0.000335672
0.000305028
0.00028352
0.000271438
0.000268729
0.000717469
0.000723305
0.000749405
0.000796073
0.000863153
0.000949609
0.001053
0.00116905
0.00129155
0.00141287
0.00152527
0.00162262
0.00170189
0.0017632
0.00180844
0.00183812
0.00184693
0.00183523
0.00180912
0.00176881
0.00171212
0.00163744
0.00154553
0.00143998
0.00132679
0.00121324
0.00110662
0.00101335
0.000938308
0.000884708
0.000854266
0.000847565
0.00184183
0.00185272
0.00190427
0.0019967
0.0021291
0.00229852
0.002499
0.00272088
0.00295094
0.00317402
0.0033759
0.00354658
0.00368241
0.00378549
0.00386045
0.00390918
0.00392358
0.00390468
0.00386264
0.00379776
0.00370594
0.0035836
0.00343058
0.00325128
0.0030544
0.00285166
0.00265609
0.00248044
0.00233576
0.0022304
0.00216977
0.00215657
0.00393243
0.00394878
0.00403171
0.00418154
0.00439639
0.00467054
0.00499266
0.00534494
0.00570421
0.00604553
0.00634742
0.00659685
0.00679119
0.00693611
0.00704018
0.00710729
0.00712697
0.00710111
0.007044
0.00695608
0.0068315
0.00666464
0.00645415
0.00620451
0.00592585
0.00563275
0.00534285
0.0050754
0.00484931
0.00468093
0.00458236
0.00456085
0.00720186
0.00722205
0.00733431
0.00754016
0.00783749
0.00821752
0.00866202
0.00914279
0.00962498
0.0100737
0.0104618
0.0107756
0.0110155
0.0111916
0.0113168
0.0113969
0.0114202
0.0113892
0.0113214
0.0112174
0.0110705
0.0108736
0.0106251
0.0103297
0.00999785
0.00964448
0.00928791
0.00895014
0.00865608
0.00843081
0.0082957
0.00826546
0.0116468
0.0116674
0.0117993
0.0120473
0.0124107
0.0128772
0.0134205
0.0140006
0.0145718
0.0150922
0.0155327
0.0158817
0.0161441
0.0163344
0.0164684
0.0165537
0.0165781
0.0165447
0.0164724
0.0163622
0.0162068
0.0159994
0.0157389
0.0154312
0.0150879
0.0147228
0.0143509
0.0139904
0.013666
0.013408
0.0132475
0.0132094
0.0170609
0.0170779
0.0172162
0.0174868
0.0178907
0.0184113
0.0190122
0.0196433
0.0202518
0.0207943
0.0212443
0.0215948
0.0218546
0.0220411
0.0221715
0.0222543
0.0222776
0.0222446
0.0221741
0.022067
0.0219167
0.0217169
0.0214676
0.0211771
0.020859
0.0205272
0.0201923
0.0198641
0.0195585
0.0193032
0.0191352
0.019091
0.0231219
0.0231321
0.0232657
0.0235409
0.023958
0.0244932
0.0251012
0.025726
0.0263153
0.0268299
0.0272493
0.0275714
0.0278076
0.0279757
0.0280928
0.0281668
0.0281874
0.0281574
0.0280937
0.0279974
0.0278626
0.0276841
0.0274628
0.0272085
0.0269372
0.0266646
0.0263996
0.0261439
0.0259001
0.0256838
0.0255291
0.0254819
0.0294869
0.0294902
0.0296137
0.0298795
0.030282
0.030789
0.0313508
0.0319144
0.0324345
0.0328809
0.0332398
0.0335124
0.0337106
0.033851
0.0339484
0.0340099
0.0340267
0.0340014
0.033948
0.0338676
0.0337553
0.0336066
0.0334232
0.0332147
0.0329978
0.0327897
0.0326008
0.03243
0.0322696
0.0321186
0.0319974
0.0319523
0.0358558
0.0358557
0.0359693
0.0362126
0.0365699
0.0370051
0.0374733
0.0379321
0.0383482
0.0387007
0.0389813
0.0391928
0.0393458
0.0394538
0.0395285
0.0395756
0.0395884
0.0395687
0.0395275
0.0394655
0.039379
0.0392647
0.0391237
0.0389644
0.0388014
0.0386513
0.0385261
0.0384271
0.0383443
0.0382654
0.038192
0.0381564
0.041997
0.0420006
0.0421032
0.0423047
0.0425837
0.0429099
0.0432514
0.0435801
0.0438746
0.0441221
0.0443179
0.0444648
0.0445707
0.0446453
0.0446968
0.0447293
0.0447381
0.0447243
0.0446957
0.0446528
0.0445929
0.0445138
0.0444161
0.0443058
0.0441938
0.0440932
0.0440149
0.043963
0.043932
0.0439096
0.0438845
0.0438662
0.0477486
0.0477606
0.0478394
0.0479731
0.0481463
0.0483421
0.0485433
0.048735
0.0489058
0.0490486
0.0491613
0.0492457
0.0493064
0.049349
0.0493785
0.049397
0.0494021
0.0493941
0.0493777
0.0493531
0.0493187
0.0492733
0.0492172
0.0491537
0.0490893
0.0490319
0.0489886
0.0489636
0.0489558
0.0489592
0.0489645
0.048965
0.0530051
0.0530128
0.0530429
0.0530891
0.0531466
0.0532106
0.0532758
0.0533377
0.0533926
0.0534386
0.0534747
0.0535018
0.0535212
0.0535349
0.0535443
0.0535502
0.0535518
0.0535493
0.053544
0.0535361
0.0535251
0.0535105
0.0534924
0.053472
0.0534512
0.0534326
0.0534187
0.053411
0.0534097
0.0534134
0.0534197
0.0534236
)
;

boundaryField
{
    movingWall
    {
        type            fixedValue;
        value           uniform 0.0555;
    }
    fixedWalls
    {
        type            zeroGradient;
    }
    frontAndBack
    {
        type            empty;
    }
}


// ************************************************************************* //
