/*--------------------------------*- C++ -*----------------------------------*\
| =========                 |                                                 |
| \\      /  F ield         | OpenFOAM: The Open Source CFD Toolbox           |
|  \\    /   O peration     | Version:  2206                                  |
|   \\  /    A nd           | Website:  www.openfoam.com                      |
|    \\/     M anipulation  |                                                 |
\*---------------------------------------------------------------------------*/
FoamFile
{
    version     2.0;
    format      ascii;
    arch        "LSB;label=64;scalar=64";
    class       volScalarField;
    location    "9";
    object      Sch4_0;
}
// * * * * * * * * * * * * * * * * * * * * * * * * * * * * * * * * * * * * * //

dimensions      [0 0 0 0 0 0 0];

internalField   nonuniform List<scalar> 
1024
(
5.01003e-15
5.41688e-15
6.69125e-15
9.10135e-15
1.3057e-14
1.91177e-14
2.79717e-14
4.03633e-14
5.69404e-14
7.80177e-14
1.03294e-13
1.31638e-13
1.61095e-13
1.89189e-13
2.13201e-13
2.29556e-13
2.31878e-13
2.19609e-13
1.98514e-13
1.72018e-13
1.42961e-13
1.14108e-13
8.7752e-14
6.53301e-14
4.73638e-14
3.3677e-14
2.37009e-14
1.67366e-14
1.21229e-14
9.31337e-15
7.89695e-15
7.59509e-15
6.37724e-15
6.88395e-15
8.4747e-15
1.1478e-14
1.63932e-14
2.38983e-14
3.48223e-14
5.00536e-14
7.03551e-14
9.60781e-14
1.26826e-13
1.61202e-13
1.96837e-13
2.30747e-13
2.59686e-13
2.79397e-13
2.82251e-13
2.67557e-13
2.42184e-13
2.10215e-13
1.7505e-13
1.40023e-13
1.07932e-13
8.05504e-14
5.85486e-14
4.17427e-14
2.94629e-14
2.08718e-14
1.51702e-14
1.16924e-14
9.93484e-15
9.55422e-15
1.05258e-14
1.13316e-14
1.38714e-14
1.86526e-14
2.64398e-14
3.82612e-14
5.536e-14
7.90493e-14
1.10428e-13
1.49953e-13
1.96939e-13
2.49208e-13
3.0315e-13
3.54293e-13
3.97826e-13
4.27476e-13
4.31921e-13
4.10062e-13
3.7203e-13
3.23852e-13
2.70577e-13
2.17234e-13
1.68111e-13
1.25988e-13
9.19797e-14
6.58842e-14
4.67365e-14
3.32913e-14
2.43398e-14
1.8863e-14
1.60833e-14
1.54662e-14
2.02523e-14
2.17396e-14
2.64497e-14
3.52889e-14
4.961e-14
7.12124e-14
1.02245e-13
1.44941e-13
2.01112e-13
2.71407e-13
3.54469e-13
4.46358e-13
5.4072e-13
6.29818e-13
7.05437e-13
7.56941e-13
7.64965e-13
7.27485e-13
6.61706e-13
5.77865e-13
4.846e-13
3.90663e-13
3.03657e-13
2.28634e-13
1.67737e-13
1.20774e-13
8.61539e-14
6.17453e-14
4.54361e-14
3.54221e-14
3.03144e-14
2.91511e-14
4.26237e-14
4.56206e-14
5.51624e-14
7.30139e-14
1.01785e-13
1.4491e-13
2.06442e-13
2.90514e-13
4.00375e-13
5.36973e-13
6.97398e-13
8.73874e-13
1.05418e-12
1.2237e-12
1.36716e-12
1.46488e-12
1.48071e-12
1.4106e-12
1.28645e-12
1.12719e-12
9.48913e-13
7.68233e-13
5.99865e-13
4.53837e-13
3.34644e-13
2.42241e-13
1.73801e-13
1.25343e-13
9.2842e-14
7.28123e-14
6.25457e-14
6.01531e-14
9.63533e-14
1.02822e-13
1.23538e-13
1.62176e-13
2.2412e-13
3.16382e-13
4.47127e-13
6.24537e-13
8.54799e-13
1.13923e-12
1.47121e-12
1.83427e-12
2.20325e-12
2.54862e-12
2.84001e-12
3.0386e-12
3.07208e-12
2.93188e-12
2.68128e-12
2.35764e-12
1.9929e-12
1.62075e-12
1.27168e-12
9.67015e-13
7.16854e-13
5.21843e-13
3.76673e-13
2.73426e-13
2.03899e-13
1.60885e-13
1.38733e-13
1.33473e-13
2.34562e-13
2.49542e-13
2.97824e-13
3.87596e-13
5.30745e-13
7.42592e-13
1.04073e-12
1.44245e-12
1.96023e-12
2.59551e-12
3.33217e-12
4.1328e-12
4.94183e-12
5.69544e-12
6.3293e-12
6.7616e-12
6.83762e-12
6.53807e-12
5.9972e-12
5.29358e-12
4.49471e-12
3.67347e-12
2.89751e-12
2.21553e-12
1.65187e-12
1.20981e-12
8.78922e-13
6.42435e-13
4.82481e-13
3.83119e-13
3.31719e-13
3.19336e-13
6.21036e-13
6.58593e-13
7.80506e-13
1.00647e-12
1.36483e-12
1.89168e-12
2.62792e-12
3.61276e-12
4.87301e-12
6.40827e-12
8.17609e-12
1.00845e-11
1.20007e-11
1.37762e-11
1.52646e-11
1.62807e-11
1.64675e-11
1.57785e-11
1.45209e-11
1.28715e-11
1.09832e-11
9.0256e-12
7.16063e-12
5.50863e-12
4.13323e-12
3.04725e-12
2.22941e-12
1.64172e-12
1.2423e-12
9.93104e-13
8.63634e-13
8.3211e-13
1.80998e-12
1.91307e-12
2.25039e-12
2.87366e-12
3.85655e-12
5.29186e-12
7.28296e-12
9.92638e-12
1.32833e-11
1.73415e-11
2.19788e-11
2.69473e-11
3.19011e-11
3.64639e-11
4.02749e-11
4.28794e-11
4.33815e-11
4.16592e-11
3.84774e-11
3.4267e-11
2.94012e-11
2.43083e-11
1.94109e-11
1.5034e-11
1.13597e-11
8.4365e-12
6.22003e-12
4.61758e-12
3.52264e-12
2.83634e-12
2.47824e-12
2.39041e-12
5.87947e-12
6.1928e-12
7.22751e-12
9.1333e-12
1.21214e-11
1.64544e-11
2.24195e-11
3.02757e-11
4.01709e-11
5.20337e-11
6.54747e-11
7.97542e-11
9.38777e-11
1.06799e-10
1.17547e-10
1.24902e-10
1.26392e-10
1.21669e-10
1.12824e-10
1.01001e-10
8.71929e-11
7.25821e-11
5.83812e-11
4.5561e-11
3.46971e-11
2.59797e-11
1.93186e-11
1.44697e-11
1.11366e-11
9.0368e-12
7.9365e-12
7.66545e-12
2.15462e-11
2.26123e-11
2.617e-11
3.2702e-11
4.28823e-11
5.75364e-11
7.75469e-11
1.03676e-10
1.36293e-10
1.75035e-10
2.18513e-10
2.64262e-10
3.091e-10
3.49808e-10
3.83511e-10
4.06602e-10
4.11531e-10
3.97196e-10
3.69934e-10
3.33084e-10
2.89525e-10
2.4286e-10
1.96948e-10
1.55018e-10
1.19104e-10
9.00022e-11
6.7569e-11
5.11114e-11
3.97224e-11
3.25067e-11
2.87092e-11
2.77719e-11
9.00907e-11
9.41896e-11
1.08038e-10
1.33383e-10
1.72637e-10
2.28702e-10
3.04596e-10
4.02772e-10
5.24116e-10
6.66748e-10
8.25088e-10
9.89877e-10
1.14971e-09
1.29355e-09
1.41201e-09
1.49327e-09
1.51158e-09
1.46308e-09
1.36921e-09
1.2407e-09
1.08674e-09
9.19448e-10
7.52555e-10
5.98103e-10
4.64174e-10
3.54426e-10
2.68971e-10
2.05719e-10
1.61611e-10
1.33489e-10
1.18621e-10
1.14953e-10
4.34112e-10
4.52061e-10
5.13591e-10
6.25851e-10
7.98564e-10
1.04319e-09
1.37122e-09
1.79118e-09
2.3045e-09
2.90075e-09
3.55449e-09
4.22635e-09
4.87026e-09
5.44401e-09
5.91361e-09
6.23612e-09
6.31295e-09
6.12892e-09
5.76572e-09
5.26148e-09
4.64802e-09
3.97072e-09
3.28417e-09
2.63907e-09
2.07173e-09
1.60077e-09
1.22979e-09
9.52373e-10
7.57217e-10
6.31903e-10
5.65317e-10
5.48934e-10
2.4304e-09
2.52039e-09
2.8343e-09
3.40529e-09
4.27761e-09
5.50205e-09
7.12684e-09
9.18302e-09
1.16646e-08
1.45082e-08
1.75818e-08
2.06954e-08
2.36388e-08
2.62319e-08
2.83393e-08
2.97877e-08
3.01522e-08
2.9367e-08
2.77829e-08
2.55494e-08
2.27853e-08
1.96777e-08
1.64698e-08
1.34023e-08
1.06602e-08
8.34967e-09
6.505e-09
5.10918e-09
4.11727e-09
3.47512e-09
3.13205e-09
3.04804e-09
1.58996e-08
1.64171e-08
1.82615e-08
2.16064e-08
2.66785e-08
3.37277e-08
4.29729e-08
5.4519e-08
6.82528e-08
8.37455e-08
1.00218e-07
1.16629e-07
1.31902e-07
1.45182e-07
1.55884e-07
1.63238e-07
1.65187e-07
1.61417e-07
1.53632e-07
1.42472e-07
1.28398e-07
1.12247e-07
9.52237e-08
7.86143e-08
6.34824e-08
5.05089e-08
3.99876e-08
3.19158e-08
2.61118e-08
2.23188e-08
2.02799e-08
1.97842e-08
1.2185e-07
1.25257e-07
1.37723e-07
1.60266e-07
1.9417e-07
2.40768e-07
3.01072e-07
3.75244e-07
4.61994e-07
5.58087e-07
6.5832e-07
7.56272e-07
8.45787e-07
9.22427e-07
9.83552e-07
1.02547e-06
1.03706e-06
1.01676e-06
9.73877e-07
9.11351e-07
8.30865e-07
7.36352e-07
6.34338e-07
5.32454e-07
4.3756e-07
3.54526e-07
2.85937e-07
2.32456e-07
1.93465e-07
1.67702e-07
1.53756e-07
1.50399e-07
1.02539e-06
1.04938e-06
1.13989e-06
1.30306e-06
1.54621e-06
1.87613e-06
2.29655e-06
2.8046e-06
3.38723e-06
4.01906e-06
4.66355e-06
5.27928e-06
5.82999e-06
6.29281e-06
6.65697e-06
6.9052e-06
6.97549e-06
6.86056e-06
6.61395e-06
6.2488e-06
5.76872e-06
5.19062e-06
4.54969e-06
3.89216e-06
3.26381e-06
2.70072e-06
2.22541e-06
1.84766e-06
1.56777e-06
1.38047e-06
1.27829e-06
1.25407e-06
7.56353e-06
7.70772e-06
8.2712e-06
9.28355e-06
1.07768e-05
1.27749e-05
1.52782e-05
1.82447e-05
2.15739e-05
2.51002e-05
2.86089e-05
3.18778e-05
3.47319e-05
3.70805e-05
3.88992e-05
4.01272e-05
4.0477e-05
3.99251e-05
3.87326e-05
3.6945e-05
3.45467e-05
3.15834e-05
2.82029e-05
2.46318e-05
2.11204e-05
1.78883e-05
1.50928e-05
1.28227e-05
1.11098e-05
9.94719e-06
9.30768e-06
9.15923e-06
4.18976e-05
4.25318e-05
4.51119e-05
4.97338e-05
5.64837e-05
6.53901e-05
7.63588e-05
8.91026e-05
0.00010309
0.000117553
0.00013158
0.000144314
0.000155161
0.000163897
0.000170553
0.000175002
0.000176271
0.000174322
0.000170097
0.000163703
0.000154966
0.000143903
0.000130919
0.000116788
0.000102473
8.89167e-05
7.68813e-05
6.68788e-05
5.91817e-05
5.38764e-05
5.09319e-05
5.02639e-05
0.000177981
0.000180062
0.000188925
0.00020477
0.000227699
0.000257555
0.000293726
0.000334947
0.000379213
0.000423892
0.000466128
0.000503481
0.000534522
0.000558996
0.000577343
0.000589482
0.000592937
0.00058773
0.000576442
0.000559248
0.000535404
0.000504541
0.000467345
0.000425667
0.00038217
0.000339759
0.00030106
0.000268096
0.000242192
0.000224041
0.000213868
0.000211614
0.000591908
0.000597106
0.000620404
0.000662041
0.000721844
0.00079883
0.000890734
0.000993623
0.00110184
0.00120854
0.0013069
0.00139167
0.00146044
0.00151357
0.00155279
0.00157848
0.00158576
0.00157491
0.00155147
0.00151566
0.00146545
0.0013993
0.00131775
0.00122394
0.00112323
0.00102216
0.000927332
0.000844455
0.000777861
0.000730366
0.000703451
0.000697613
0.00158115
0.00159128
0.00163937
0.00172553
0.00184871
0.00200595
0.00219143
0.00239587
0.0026068
0.00281017
0.00299309
0.00314691
0.00326886
0.00336128
0.00342856
0.00347226
0.00348455
0.00346629
0.00342705
0.00336709
0.00328252
0.00316976
0.00302835
0.00286222
0.00267948
0.00249116
0.00230955
0.00214658
0.00201249
0.00191498
0.001859
0.00184703
0.00349347
0.00350924
0.00358963
0.00373457
0.00394177
0.00420512
0.00451306
0.00484794
0.00518729
0.00550747
0.00578874
0.00601974
0.00619903
0.0063326
0.00642866
0.00649057
0.0065078
0.006482
0.00642697
0.00634313
0.00622464
0.00606567
0.00586435
0.00562464
0.0053563
0.00507369
0.00479419
0.00453658
0.00431909
0.00415736
0.00406295
0.00404281
0.00658237
0.00660249
0.0067148
0.00692002
0.00721507
0.00759007
0.00802586
0.0084939
0.00895979
0.00938997
0.0097593
0.010056
0.010282
0.0104478
0.0105658
0.0106414
0.0106622
0.0106305
0.0105636
0.010462
0.0103187
0.0101262
0.00988176
0.00958945
0.0092597
0.00890777
0.00855266
0.00821676
0.00792493
0.00770191
0.00756866
0.00753966
0.0108913
0.0109125
0.0110478
0.0113009
0.0116692
0.0121388
0.0126813
0.0132559
0.013817
0.0143238
0.0147495
0.0150847
0.0153357
0.0155177
0.0156462
0.015728
0.0157501
0.0157154
0.0156428
0.0155331
0.0153787
0.0151718
0.0149098
0.0145979
0.0142475
0.0138734
0.0134921
0.0131235
0.0127931
0.0125314
0.0123696
0.0123324
0.016244
0.0162621
0.0164068
0.0166877
0.0171034
0.0176345
0.0182422
0.0188748
0.0194795
0.0200139
0.0204536
0.020794
0.0210454
0.0212258
0.0213524
0.0214327
0.021454
0.0214194
0.0213476
0.0212397
0.0210882
0.0208859
0.0206312
0.020331
0.0199989
0.0196501
0.0192974
0.018953
0.0186344
0.0183702
0.0181979
0.0181544
0.0223243
0.0223359
0.0224777
0.0227665
0.0231999
0.0237508
0.0243708
0.0250023
0.0255925
0.0261034
0.0265165
0.0268317
0.027062
0.0272261
0.0273407
0.0274132
0.0274322
0.0274003
0.0273349
0.027237
0.0270999
0.0269173
0.0266885
0.026422
0.0261337
0.0258404
0.0255537
0.0252779
0.0250177
0.0247898
0.0246291
0.0245821
0.0287769
0.0287814
0.0289136
0.0291941
0.0296145
0.0301392
0.0307154
0.0312881
0.0318119
0.0322575
0.0326128
0.032881
0.0330754
0.0332132
0.0333091
0.0333697
0.0333854
0.0333583
0.0333032
0.0332209
0.0331059
0.0329528
0.0327617
0.0325412
0.0323075
0.0320793
0.0318693
0.0316791
0.0315027
0.0313402
0.0312128
0.0311675
0.035281
0.0352819
0.0354035
0.0356605
0.0360346
0.0364864
0.0369683
0.0374363
0.0378569
0.0382101
0.0384889
0.0386978
0.0388484
0.0389548
0.0390286
0.0390752
0.0390872
0.0390661
0.0390233
0.0389597
0.0388708
0.0387525
0.038605
0.0384354
0.0382584
0.0380916
0.0379489
0.037834
0.0377384
0.0376504
0.0375718
0.0375359
0.0415837
0.041588
0.0416972
0.0419099
0.0422023
0.0425415
0.0428939
0.0432299
0.0435284
0.0437769
0.0439719
0.0441173
0.0442218
0.0442955
0.0443465
0.0443788
0.044387
0.0443723
0.0443425
0.0442983
0.0442366
0.0441545
0.0440521
0.0439344
0.0438122
0.0436995
0.0436087
0.0435455
0.0435059
0.0434776
0.0434493
0.0434309
0.047505
0.0475177
0.0476009
0.0477417
0.0479233
0.0481272
0.0483351
0.0485314
0.0487047
0.0488484
0.0489607
0.0490443
0.0491043
0.0491465
0.0491758
0.0491942
0.0491989
0.0491904
0.0491733
0.0491479
0.0491125
0.0490653
0.0490063
0.0489385
0.0488681
0.0488036
0.0487531
0.0487215
0.0487089
0.0487093
0.0487134
0.048714
0.0529256
0.0529336
0.0529653
0.0530139
0.0530742
0.0531409
0.0532083
0.0532717
0.0533276
0.0533738
0.0534098
0.0534367
0.0534559
0.0534694
0.0534788
0.0534847
0.0534862
0.0534834
0.0534779
0.0534698
0.0534584
0.0534432
0.0534243
0.0534024
0.0533797
0.0533588
0.0533425
0.0533327
0.0533298
0.0533327
0.0533387
0.0533428
)
;

boundaryField
{
    movingWall
    {
        type            fixedValue;
        value           uniform 0.0555;
    }
    fixedWalls
    {
        type            zeroGradient;
    }
    frontAndBack
    {
        type            empty;
    }
}


// ************************************************************************* //
