/*--------------------------------*- C++ -*----------------------------------*\
| =========                 |                                                 |
| \\      /  F ield         | OpenFOAM: The Open Source CFD Toolbox           |
|  \\    /   O peration     | Version:  2206                                  |
|   \\  /    A nd           | Website:  www.openfoam.com                      |
|    \\/     M anipulation  |                                                 |
\*---------------------------------------------------------------------------*/
FoamFile
{
    version     2.0;
    format      ascii;
    arch        "LSB;label=64;scalar=64";
    class       volVectorField;
    location    "9";
    object      U;
}
// * * * * * * * * * * * * * * * * * * * * * * * * * * * * * * * * * * * * * //

dimensions      [0 1 -1 0 0 0 0];

internalField   nonuniform List<vector> 
1024
(
(2.57088e-08 -2.57559e-08 0)
(2.51471e-09 -1.714e-09 0)
(-2.02434e-07 3.52386e-08 0)
(-6.39499e-07 6.35976e-08 0)
(-1.30187e-06 8.01061e-08 0)
(-2.15718e-06 8.7138e-08 0)
(-3.1741e-06 8.87302e-08 0)
(-4.33755e-06 8.79824e-08 0)
(-5.64585e-06 8.60621e-08 0)
(-7.09777e-06 8.29294e-08 0)
(-8.68089e-06 7.81708e-08 0)
(-1.03621e-05 7.12868e-08 0)
(-1.20771e-05 6.17894e-08 0)
(-1.37148e-05 4.90588e-08 0)
(-1.51051e-05 3.28248e-08 0)
(-1.59851e-05 1.23718e-08 0)
(-1.60093e-05 -1.08133e-08 0)
(-1.51698e-05 -3.16018e-08 0)
(-1.38041e-05 -4.83189e-08 0)
(-1.21769e-05 -6.15625e-08 0)
(-1.04615e-05 -7.153e-08 0)
(-8.77292e-06 -7.88036e-08 0)
(-7.17831e-06 -8.38617e-08 0)
(-5.71312e-06 -8.7208e-08 0)
(-4.39126e-06 -8.9266e-08 0)
(-3.21493e-06 -9.00861e-08 0)
(-2.18639e-06 -8.8505e-08 0)
(-1.32104e-06 -8.14155e-08 0)
(-6.50507e-07 -6.47557e-08 0)
(-2.07415e-07 -3.61096e-08 0)
(1.20669e-09 1.27569e-09 0)
(2.57484e-08 2.57344e-08 0)
(1.7564e-09 -2.65181e-09 0)
(-2.22377e-07 2.22469e-07 0)
(-8.78312e-07 5.23609e-07 0)
(-2.08611e-06 7.76736e-07 0)
(-3.85527e-06 9.36773e-07 0)
(-6.13507e-06 1.01042e-06 0)
(-8.86137e-06 1.02809e-06 0)
(-1.19966e-05 1.01754e-06 0)
(-1.55315e-05 9.91469e-07 0)
(-1.94576e-05 9.50905e-07 0)
(-2.37386e-05 8.92089e-07 0)
(-2.82832e-05 8.0982e-07 0)
(-3.29168e-05 6.98337e-07 0)
(-3.73382e-05 5.51717e-07 0)
(-4.10874e-05 3.64901e-07 0)
(-4.34542e-05 1.33856e-07 0)
(-4.35104e-05 -1.21408e-07 0)
(-4.12374e-05 -3.55019e-07 0)
(-3.75454e-05 -5.45682e-07 0)
(-3.31483e-05 -6.96432e-07 0)
(-2.85141e-05 -8.11728e-07 0)
(-2.39525e-05 -8.9719e-07 0)
(-1.9645e-05 -9.5849e-07 0)
(-1.56883e-05 -1.00085e-06 0)
(-1.21221e-05 -1.02812e-06 0)
(-8.95712e-06 -1.03932e-06 0)
(-6.20401e-06 -1.02179e-06 0)
(-3.90117e-06 -9.47698e-07 0)
(-2.11331e-06 -7.86492e-07 0)
(-8.91595e-07 -5.31275e-07 0)
(-2.26822e-07 -2.27128e-07 0)
(1.38103e-09 1.26215e-09 0)
(-3.50891e-08 2.02032e-07 0)
(-5.23616e-07 8.78242e-07 0)
(-1.65122e-06 1.65018e-06 0)
(-3.561e-06 2.30606e-06 0)
(-6.2732e-06 2.74056e-06 0)
(-9.74315e-06 2.95458e-06 0)
(-1.38992e-05 3.01393e-06 0)
(-1.86929e-05 2.98778e-06 0)
(-2.41074e-05 2.91184e-06 0)
(-3.01254e-05 2.79121e-06 0)
(-3.66876e-05 2.61646e-06 0)
(-4.36522e-05 2.37307e-06 0)
(-5.07501e-05 2.04435e-06 0)
(-5.75193e-05 1.61336e-06 0)
(-6.32537e-05 1.06477e-06 0)
(-6.68664e-05 3.88426e-07 0)
(-6.69418e-05 -3.56184e-07 0)
(-6.34548e-05 -1.03915e-06 0)
(-5.77972e-05 -1.59769e-06 0)
(-5.10608e-05 -2.03939e-06 0)
(-4.39622e-05 -2.378e-06 0)
(-3.69749e-05 -2.6297e-06 0)
(-3.03773e-05 -2.81092e-06 0)
(-2.43183e-05 -2.93626e-06 0)
(-1.88619e-05 -3.01532e-06 0)
(-1.40285e-05 -3.04318e-06 0)
(-9.83661e-06 -2.98417e-06 0)
(-6.33597e-06 -2.76897e-06 0)
(-3.59888e-06 -2.33149e-06 0)
(-1.6704e-06 -1.67056e-06 0)
(-5.30536e-07 -8.91506e-07 0)
(-3.58368e-08 -2.06826e-07 0)
(-6.34794e-08 6.39105e-07 0)
(-7.78806e-07 2.08752e-06 0)
(-2.31424e-06 3.56118e-06 0)
(-4.80784e-06 4.79327e-06 0)
(-8.26833e-06 5.62565e-06 0)
(-1.26552e-05 6.05305e-06 0)
(-1.79018e-05 6.18316e-06 0)
(-2.39601e-05 6.13837e-06 0)
(-3.08107e-05 5.9863e-06 0)
(-3.84287e-05 5.73869e-06 0)
(-4.6736e-05 5.37817e-06 0)
(-5.55509e-05 4.876e-06 0)
(-6.45309e-05 4.19843e-06 0)
(-7.30909e-05 3.31117e-06 0)
(-8.03361e-05 2.18245e-06 0)
(-8.4893e-05 7.93286e-07 0)
(-8.49778e-05 -7.33286e-07 0)
(-8.05624e-05 -2.13476e-06 0)
(-7.34034e-05 -3.28201e-06 0)
(-6.48804e-05 -4.18922e-06 0)
(-5.58997e-05 -4.88522e-06 0)
(-4.70592e-05 -5.40287e-06 0)
(-3.87122e-05 -5.77546e-06 0)
(-3.10481e-05 -6.03186e-06 0)
(-2.41504e-05 -6.18977e-06 0)
(-1.80474e-05 -6.23771e-06 0)
(-1.27606e-05 -6.10813e-06 0)
(-8.33932e-06 -5.67846e-06 0)
(-4.85094e-06 -4.84063e-06 0)
(-2.33629e-06 -3.59959e-06 0)
(-7.86883e-07 -2.11336e-06 0)
(-6.4382e-08 -6.49085e-07 0)
(-8.03721e-08 1.30412e-06 0)
(-9.45277e-07 3.86663e-06 0)
(-2.769e-06 6.28778e-06 0)
(-5.68276e-06 8.26137e-06 0)
(-9.67483e-06 9.59683e-06 0)
(-1.46981e-05 1.02969e-05 0)
(-2.06896e-05 1.05217e-05 0)
(-2.76064e-05 1.04553e-05 0)
(-3.5431e-05 1.02023e-05 0)
(-4.41343e-05 9.7822e-06 0)
(-5.36252e-05 9.16703e-06 0)
(-6.3694e-05 8.30924e-06 0)
(-7.39476e-05 7.15219e-06 0)
(-8.37172e-05 5.63804e-06 0)
(-9.19804e-05 3.7129e-06 0)
(-9.71702e-05 1.3462e-06 0)
(-9.72587e-05 -1.25206e-06 0)
(-9.22163e-05 -3.63811e-06 0)
(-8.40432e-05 -5.59235e-06 0)
(-7.43121e-05 -7.1378e-06 0)
(-6.40578e-05 -8.32379e-06 0)
(-5.39624e-05 -9.20588e-06 0)
(-4.443e-05 -9.84001e-06 0)
(-3.56785e-05 -1.0274e-05 0)
(-2.78047e-05 -1.0536e-05 0)
(-2.08411e-05 -1.06073e-05 0)
(-1.48075e-05 -1.03833e-05 0)
(-9.74842e-06 -9.67951e-06 0)
(-5.72735e-06 -8.33558e-06 0)
(-2.79173e-06 -6.34832e-06 0)
(-9.5355e-07 -3.90794e-06 0)
(-8.12899e-08 -1.32045e-06 0)
(-8.84056e-08 2.17044e-06 0)
(-1.03268e-06 6.18077e-06 0)
(-3.02494e-06 9.8104e-06 0)
(-6.19796e-06 1.27024e-05 0)
(-1.0525e-05 1.46448e-05 0)
(-1.5947e-05 1.56685e-05 0)
(-2.23988e-05 1.60041e-05 0)
(-2.98407e-05 1.59091e-05 0)
(-3.82578e-05 1.55296e-05 0)
(-4.76201e-05 1.48919e-05 0)
(-5.78284e-05 1.39546e-05 0)
(-6.86558e-05 1.26464e-05 0)
(-7.96779e-05 1.08824e-05 0)
(-9.01751e-05 8.57525e-06 0)
(-9.90478e-05 5.64376e-06 0)
(-0.000104615 2.04284e-06 0)
(-0.000104705 -1.90852e-06 0)
(-9.9289e-05 -5.53712e-06 0)
(-9.05085e-05 -8.51013e-06 0)
(-8.00508e-05 -1.0862e-05 0)
(-6.90281e-05 -1.26673e-05 0)
(-5.81734e-05 -1.40101e-05 0)
(-4.79225e-05 -1.49745e-05 0)
(-3.85108e-05 -1.56319e-05 0)
(-3.00431e-05 -1.60245e-05 0)
(-2.25532e-05 -1.61264e-05 0)
(-1.60582e-05 -1.57917e-05 0)
(-1.05995e-05 -1.47626e-05 0)
(-6.24279e-06 -1.28079e-05 0)
(-3.04761e-06 -9.89663e-06 0)
(-1.04084e-06 -6.23985e-06 0)
(-8.92984e-08 -2.19393e-06 0)
(-9.19224e-08 3.21792e-06 0)
(-1.07492e-06 8.99674e-06 0)
(-3.15819e-06 1.41056e-05 0)
(-6.4822e-06 1.81114e-05 0)
(-1.10144e-05 2.07783e-05 0)
(-1.66853e-05 2.21802e-05 0)
(-2.34238e-05 2.26406e-05 0)
(-3.11895e-05 2.25067e-05 0)
(-3.99688e-05 2.19726e-05 0)
(-4.97314e-05 2.10708e-05 0)
(-6.03734e-05 1.97428e-05 0)
(-7.1657e-05 1.78887e-05 0)
(-8.31381e-05 1.53895e-05 0)
(-9.40667e-05 1.21227e-05 0)
(-0.000103298 7.97509e-06 0)
(-0.000109084 2.88378e-06 0)
(-0.000109178 -2.70204e-06 0)
(-0.000103548 -7.83084e-06 0)
(-9.44128e-05 -1.20346e-05 0)
(-8.35255e-05 -1.53618e-05 0)
(-7.2044e-05 -1.79169e-05 0)
(-6.07322e-05 -1.98179e-05 0)
(-5.0046e-05 -2.11827e-05 0)
(-4.02319e-05 -2.21111e-05 0)
(-3.13998e-05 -2.2663e-05 0)
(-2.35839e-05 -2.28063e-05 0)
(-1.68002e-05 -2.23469e-05 0)
(-1.1091e-05 -2.09373e-05 0)
(-6.5281e-06 -1.82537e-05 0)
(-3.18124e-06 -1.42216e-05 0)
(-1.08315e-06 -9.07617e-06 0)
(-9.28151e-08 -3.24949e-06 0)
(-9.4414e-08 4.45149e-06 0)
(-1.10425e-06 1.2332e-05 0)
(-3.25109e-06 1.92101e-05 0)
(-6.68482e-06 2.45493e-05 0)
(-1.13724e-05 2.80787e-05 0)
(-1.72377e-05 2.99257e-05 0)
(-2.42035e-05 3.05281e-05 0)
(-3.22259e-05 3.03429e-05 0)
(-4.12905e-05 2.96219e-05 0)
(-5.13657e-05 2.84044e-05 0)
(-6.23434e-05 2.66103e-05 0)
(-7.39766e-05 2.41059e-05 0)
(-8.58054e-05 2.07324e-05 0)
(-9.7057e-05 1.63258e-05 0)
(-0.000106553 1.07368e-05 0)
(-0.0001125 3.88054e-06 0)
(-0.0001126 -3.64135e-06 0)
(-0.00010682 -1.05469e-05 0)
(-9.74274e-05 -1.62097e-05 0)
(-8.62206e-05 -2.06958e-05 0)
(-7.43918e-05 -2.41429e-05 0)
(-6.27287e-05 -2.67092e-05 0)
(-5.17037e-05 -2.85516e-05 0)
(-4.15732e-05 -2.98045e-05 0)
(-3.24517e-05 -3.0549e-05 0)
(-2.43752e-05 -3.07465e-05 0)
(-1.73609e-05 -3.01452e-05 0)
(-1.14543e-05 -2.82878e-05 0)
(-6.73371e-06 -2.47359e-05 0)
(-3.27555e-06 -1.93619e-05 0)
(-1.11296e-06 -1.24356e-05 0)
(-9.53548e-08 -4.49257e-06 0)
(-9.75797e-08 5.9037e-06 0)
(-1.13942e-06 1.62709e-05 0)
(-3.35705e-06 2.52523e-05 0)
(-6.90973e-06 3.21811e-05 0)
(-1.17652e-05 3.67389e-05 0)
(-1.78428e-05 3.9114e-05 0)
(-2.50595e-05 3.98815e-05 0)
(-3.33675e-05 3.96311e-05 0)
(-4.27498e-05 3.8684e-05 0)
(-5.31716e-05 3.7088e-05 0)
(-6.45188e-05 3.47376e-05 0)
(-7.65336e-05 3.1459e-05 0)
(-8.8738e-05 2.70468e-05 0)
(-0.000100334 2.12896e-05 0)
(-0.00011011 1.3997e-05 0)
(-0.000116224 5.05842e-06 0)
(-0.000116335 -4.74741e-06 0)
(-0.000110405 -1.37499e-05 0)
(-0.000100744 -2.11382e-05 0)
(-8.91986e-05 -2.69987e-05 0)
(-7.6995e-05 -3.15067e-05 0)
(-6.49476e-05 -3.4866e-05 0)
(-5.3548e-05 -3.72797e-05 0)
(-4.30648e-05 -3.89219e-05 0)
(-3.36192e-05 -3.98998e-05 0)
(-2.52509e-05 -4.01663e-05 0)
(-1.798e-05 -3.94001e-05 0)
(-1.18563e-05 -3.70108e-05 0)
(-6.96405e-06 -3.24233e-05 0)
(-3.3842e-06 -2.54487e-05 0)
(-1.14908e-06 -1.64047e-05 0)
(-9.86218e-08 -5.95661e-06 0)
(-1.02105e-07 7.63071e-06 0)
(-1.18967e-06 2.0962e-05 0)
(-3.50523e-06 3.24565e-05 0)
(-7.21799e-06 4.12886e-05 0)
(-1.22958e-05 4.70791e-05 0)
(-1.86533e-05 5.00864e-05 0)
(-2.62016e-05 5.10491e-05 0)
(-3.48881e-05 5.07161e-05 0)
(-4.46919e-05 4.9493e-05 0)
(-5.55731e-05 4.74383e-05 0)
(-6.74085e-05 4.44166e-05 0)
(-7.99243e-05 4.0207e-05 0)
(-9.26183e-05 3.45506e-05 0)
(-0.00010466 2.71816e-05 0)
(-0.000114793 1.78638e-05 0)
(-0.000121122 6.45724e-06 0)
(-0.000121248 -6.05335e-06 0)
(-0.000115131 -1.75424e-05 0)
(-0.00010513 -2.69839e-05 0)
(-9.31481e-05 -3.44868e-05 0)
(-8.04563e-05 -4.0268e-05 0)
(-6.79038e-05 -4.4583e-05 0)
(-5.60087e-05 -4.76875e-05 0)
(-4.50567e-05 -4.98028e-05 0)
(-3.51798e-05 -5.10663e-05 0)
(-2.64234e-05 -5.14205e-05 0)
(-1.88123e-05 -5.04592e-05 0)
(-1.24014e-05 -4.7433e-05 0)
(-7.28093e-06 -4.16032e-05 0)
(-3.53667e-06 -3.27112e-05 0)
(-1.20086e-06 -2.11351e-05 0)
(-1.03311e-07 -7.69901e-06 0)
(-1.08554e-07 9.71454e-06 0)
(-1.26243e-06 2.66263e-05 0)
(-3.71892e-06 4.11599e-05 0)
(-7.6594e-06 5.2296e-05 0)
(-1.30505e-05 5.95794e-05 0)
(-1.98004e-05 6.33513e-05 0)
(-2.78128e-05 6.45469e-05 0)
(-3.70287e-05 6.41077e-05 0)
(-4.74218e-05 6.25416e-05 0)
(-5.89442e-05 5.99209e-05 0)
(-7.14583e-05 5.60748e-05 0)
(-8.4667e-05 5.07275e-05 0)
(-9.80334e-05 4.35586e-05 0)
(-0.000110682 3.4242e-05 0)
(-0.000121298 2.24914e-05 0)
(-0.000127917 8.13372e-06 0)
(-0.000128066 -7.60537e-06 0)
(-0.000121699 -2.20698e-05 0)
(-0.000111242 -3.3981e-05 0)
(-9.86672e-05 -4.34726e-05 0)
(-8.53055e-05 -5.08051e-05 0)
(-7.20544e-05 -5.62914e-05 0)
(-5.94694e-05 -6.02471e-05 0)
(-4.78624e-05 -6.29485e-05 0)
(-3.73814e-05 -6.45683e-05 0)
(-2.80812e-05 -6.50357e-05 0)
(-1.99929e-05 -6.38419e-05 0)
(-1.31784e-05 -6.00447e-05 0)
(-7.73556e-06 -5.2709e-05 0)
(-3.75695e-06 -4.14936e-05 0)
(-1.27596e-06 -2.68526e-05 0)
(-1.10009e-07 -9.80371e-06 0)
(-1.17797e-07 1.2276e-05 0)
(-1.36783e-06 3.35912e-05 0)
(-4.02849e-06 5.18646e-05 0)
(-8.2973e-06 6.58364e-05 0)
(-1.41382e-05 7.49563e-05 0)
(-2.14498e-05 7.9666e-05 0)
(-3.01249e-05 8.11412e-05 0)
(-4.00954e-05 8.05599e-05 0)
(-5.13263e-05 7.85557e-05 0)
(-6.37569e-05 7.52179e-05 0)
(-7.72276e-05 7.03343e-05 0)
(-9.1406e-05 6.35654e-05 0)
(-0.000105705 5.45212e-05 0)
(-0.000119186 4.28106e-05 0)
(-0.000130459 2.80956e-05 0)
(-0.000137471 1.01676e-05 0)
(-0.000137655 -9.46591e-06 0)
(-0.000130955 -2.75332e-05 0)
(-0.000119882 -4.24593e-05 0)
(-0.000106496 -5.44015e-05 0)
(-9.22065e-05 -6.36641e-05 0)
(-7.79776e-05 -7.06199e-05 0)
(-6.44197e-05 -7.56516e-05 0)
(-5.18835e-05 -7.90989e-05 0)
(-4.05421e-05 -8.11764e-05 0)
(-3.04652e-05 -8.17962e-05 0)
(-2.1694e-05 -8.03236e-05 0)
(-1.43004e-05 -7.55797e-05 0)
(-8.39388e-06 -6.63889e-05 0)
(-4.07668e-06 -5.23103e-05 0)
(-1.38497e-06 -3.38932e-05 0)
(-1.19636e-07 -1.23948e-05 0)
(-1.3116e-07 1.54985e-05 0)
(-1.52167e-06 4.23553e-05 0)
(-4.48057e-06 6.53355e-05 0)
(-9.22794e-06 8.28756e-05 0)
(-1.57227e-05 9.43032e-05 0)
(-2.38491e-05 0.000100185 0)
(-3.34832e-05 0.000101997 0)
(-4.45421e-05 0.000101215 0)
(-5.69765e-05 9.86288e-05 0)
(-7.07045e-05 9.43503e-05 0)
(-8.55311e-05 8.81181e-05 0)
(-0.00010107 7.95191e-05 0)
(-0.000116661 6.80885e-05 0)
(-0.000131277 5.33705e-05 0)
(-0.000143432 3.4979e-05 0)
(-0.000150967 1.2671e-05 0)
(-0.000151203 -1.17181e-05 0)
(-0.000144072 -3.42102e-05 0)
(-0.000132181 -5.28835e-05 0)
(-0.000117695 -6.79146e-05 0)
(-0.000102122 -7.96441e-05 0)
(-8.65221e-05 -8.85013e-05 0)
(-7.15838e-05 -9.49402e-05 0)
(-5.77181e-05 -9.93725e-05 0)
(-4.51378e-05 -0.000102062 0)
(-3.39375e-05 -0.000102899 0)
(-2.41752e-05 -0.000101091 0)
(-1.59393e-05 -9.51621e-05 0)
(-9.35686e-06 -8.36362e-05 0)
(-4.54485e-06 -6.59483e-05 0)
(-1.54451e-06 -4.27698e-05 0)
(-1.33601e-07 -1.56614e-05 0)
(-1.5097e-07 1.96749e-05 0)
(-1.74983e-06 5.37136e-05 0)
(-5.15084e-06 8.27922e-05 0)
(-1.06064e-05 0.000104951 0)
(-1.8067e-05 0.000119358 0)
(-2.73945e-05 0.000126737 0)
(-3.8438e-05 0.000128955 0)
(-5.10901e-05 0.000127866 0)
(-6.52751e-05 0.000124465 0)
(-8.08735e-05 0.000118891 0)
(-9.76314e-05 0.000110827 0)
(-0.000115077 9.97781e-05 0)
(-0.000132443 8.52078e-05 0)
(-0.000148581 6.66081e-05 0)
(-0.000161889 4.35631e-05 0)
(-0.000170098 1.5801e-05 0)
(-0.000170414 -1.44683e-05 0)
(-0.00016275 -4.24773e-05 0)
(-0.000149808 -6.59062e-05 0)
(-0.000133859 -8.49404e-05 0)
(-0.000116532 -9.99329e-05 0)
(-9.90119e-05 -0.000111352 0)
(-8.2106e-05 -0.000119717 0)
(-6.63191e-05 -0.000125517 0)
(-5.19313e-05 -0.000129072 0)
(-3.90808e-05 -0.000130243 0)
(-2.78561e-05 -0.000128034 0)
(-1.83735e-05 -0.000120587 0)
(-1.07887e-05 -0.000106039 0)
(-5.24156e-06 -8.36675e-05 0)
(-1.78201e-06 -5.4305e-05 0)
(-1.54396e-07 -1.9907e-05 0)
(-1.80936e-07 2.5285e-05 0)
(-2.09694e-06 6.89681e-05 0)
(-6.17086e-06 0.00010623 0)
(-1.27031e-05 0.000134577 0)
(-2.16291e-05 0.000152956 0)
(-3.27733e-05 0.000162301 0)
(-4.59392e-05 0.000164993 0)
(-6.09733e-05 0.000163395 0)
(-7.77494e-05 0.000158768 0)
(-9.6077e-05 0.000151297 0)
(-0.000115598 0.000140602 0)
(-0.000135703 0.000126111 0)
(-0.00015546 0.000107239 0)
(-0.000173566 8.3471e-05 0)
(-0.0001883 5.44089e-05 0)
(-0.000197319 1.97681e-05 0)
(-0.000197759 -1.78373e-05 0)
(-0.000189507 -5.28132e-05 0)
(-0.000175309 -8.24088e-05 0)
(-0.0001575 -0.000106798 0)
(-0.000137826 -0.000126289 0)
(-0.000117637 -0.000141338 0)
(-9.79144e-05 -0.000152496 0)
(-7.93168e-05 -0.00016032 0)
(-6.22424e-05 -0.000165191 0)
(-4.69116e-05 -0.000166923 0)
(-3.34723e-05 -0.000164248 0)
(-2.2093e-05 -0.000154803 0)
(-1.29784e-05 -0.000136211 0)
(-6.30754e-06 -0.000107543 0)
(-2.14526e-06 -6.98532e-05 0)
(-1.86027e-07 -2.56318e-05 0)
(-2.28534e-07 3.31762e-05 0)
(-2.64886e-06 9.04187e-05 0)
(-7.79174e-06 0.000139173 0)
(-1.60306e-05 0.000176185 0)
(-2.72714e-05 0.000200083 0)
(-4.1271e-05 0.000212086 0)
(-5.77478e-05 0.000215289 0)
(-7.64565e-05 0.000212753 0)
(-9.71647e-05 0.000206113 0)
(-0.000119538 0.000195626 0)
(-0.000143023 0.000180863 0)
(-0.000166773 0.000161217 0)
(-0.000189618 0.000136138 0)
(-0.000210073 0.000105224 0)
(-0.000226352 6.82119e-05 0)
(-0.00023619 2.48348e-05 0)
(-0.000236824 -2.19224e-05 0)
(-0.000228112 -6.57526e-05 0)
(-0.000212661 -0.000103514 0)
(-0.000192713 -0.000135338 0)
(-0.000170062 -0.000161368 0)
(-0.000146239 -0.000181906 0)
(-0.00012248 -0.000197432 0)
(-9.97035e-05 -0.00020852 0)
(-7.85286e-05 -0.000215584 0)
(-5.93432e-05 -0.000218359 0)
(-4.24205e-05 -0.000215201 0)
(-2.80341e-05 -0.000203044 0)
(-1.64825e-05 -0.0001788 0)
(-8.01537e-06 -0.00014127 0)
(-2.72757e-06 -9.18286e-05 0)
(-2.3672e-07 -3.37271e-05 0)
(-3.05783e-07 4.41183e-05 0)
(-3.52644e-06 0.000120143 0)
(-1.03606e-05 0.000184777 0)
(-2.12887e-05 0.000233692 0)
(-3.6158e-05 0.000265061 0)
(-5.46001e-05 0.000280471 0)
(-7.61678e-05 0.000283983 0)
(-0.000100425 0.000279603 0)
(-0.000126906 0.000269482 0)
(-0.000154979 0.000254018 0)
(-0.000183722 0.000232818 0)
(-0.000211902 0.000205398 0)
(-0.000238038 0.000171485 0)
(-0.000260526 0.000131063 0)
(-0.000277756 8.42141e-05 0)
(-0.000287934 3.07232e-05 0)
(-0.000288845 -2.62987e-05 0)
(-0.000280331 -8.03619e-05 0)
(-0.000264423 -0.000128217 0)
(-0.00024285 -0.000169954 0)
(-0.000217182 -0.000205339 0)
(-0.000189036 -0.000234228 0)
(-0.000159957 -0.000256758 0)
(-0.000131283 -0.000273315 0)
(-0.000104045 -0.000284237 0)
(-7.89784e-05 -0.000289091 0)
(-5.66335e-05 -0.000285701 0)
(-3.75084e-05 -0.000270049 0)
(-2.20874e-05 -0.0002381 0)
(-1.07548e-05 -0.000188302 0)
(-3.66465e-06 -0.000122505 0)
(-3.20122e-07 -4.5038e-05 0)
(-4.20118e-07 5.79789e-05 0)
(-4.82473e-06 0.00015775 0)
(-1.41561e-05 0.000242378 0)
(-2.90376e-05 0.000306132 0)
(-4.92007e-05 0.000346563 0)
(-7.40419e-05 0.000365688 0)
(-0.000102792 0.000368737 0)
(-0.000134624 0.000360892 0)
(-0.000168603 0.000344983 0)
(-0.00020354 0.000321721 0)
(-0.000237917 0.000291005 0)
(-0.000269997 0.000252846 0)
(-0.00029806 0.000207674 0)
(-0.00032069 0.000156239 0)
(-0.00033696 9.91706e-05 0)
(-0.000346205 3.62382e-05 0)
(-0.000347424 -2.98448e-05 0)
(-0.000340495 -9.33889e-05 0)
(-0.000326255 -0.000151644 0)
(-0.000305246 -0.000204804 0)
(-0.000278246 -0.000252116 0)
(-0.00024657 -0.000292614 0)
(-0.00021194 -0.000325614 0)
(-0.000176201 -0.000350879 0)
(-0.00014104 -0.000368338 0)
(-0.000107842 -0.000377162 0)
(-7.77224e-05 -0.000374437 0)
(-5.16497e-05 -0.000354964 0)
(-3.04834e-05 -0.000313562 0)
(-1.48664e-05 -0.000248305 0)
(-5.07227e-06 -0.000161707 0)
(-4.45628e-07 -5.9513e-05 0)
(-5.80308e-07 7.45809e-05 0)
(-6.6649e-06 0.000202733 0)
(-1.95337e-05 0.000311122 0)
(-3.99839e-05 0.000392255 0)
(-6.7518e-05 0.00044285 0)
(-0.000101092 0.000465354 0)
(-0.000139327 0.000466349 0)
(-0.000180658 0.000452429 0)
(-0.000223313 0.000427386 0)
(-0.000265225 0.000392612 0)
(-0.000304119 0.000348801 0)
(-0.000337842 0.000297031 0)
(-0.000364812 0.000238937 0)
(-0.000384385 0.000176299 0)
(-0.000396959 0.00011027 0)
(-0.000403603 4.03569e-05 0)
(-0.000405078 -3.17443e-05 0)
(-0.000401364 -0.000102137 0)
(-0.000391655 -0.000169289 0)
(-0.000374738 -0.000233865 0)
(-0.000349907 -0.000294739 0)
(-0.000317477 -0.00034994 0)
(-0.000278831 -0.000397464 0)
(-0.000236119 -0.000435783 0)
(-0.000191809 -0.000463778 0)
(-0.000148291 -0.00047971 0)
(-0.000107704 -0.000479547 0)
(-7.19362e-05 -0.000456622 0)
(-4.25871e-05 -0.000404466 0)
(-2.08044e-05 -0.000320839 0)
(-7.10307e-06 -0.000209188 0)
(-6.24476e-07 -7.70672e-05 0)
(-8.16472e-07 9.46471e-05 0)
(-9.35675e-06 0.000257017 0)
(-2.73717e-05 0.000393826 0)
(-5.58425e-05 0.000495287 0)
(-9.38066e-05 0.000556953 0)
(-0.000139376 0.000581681 0)
(-0.000190026 0.000577675 0)
(-0.000242867 0.000553405 0)
(-0.000294774 0.000514221 0)
(-0.000342517 0.000462932 0)
(-0.000383142 0.000401843 0)
(-0.000414566 0.000333779 0)
(-0.000436104 0.000261916 0)
(-0.000448673 0.000188987 0)
(-0.000454576 0.000116293 0)
(-0.000456945 4.2653e-05 0)
(-0.00045855 -3.17792e-05 0)
(-0.00045954 -0.000105543 0)
(-0.000457344 -0.000178905 0)
(-0.000448757 -0.000253538 0)
(-0.000431045 -0.000328499 0)
(-0.000402653 -0.000401094 0)
(-0.000363649 -0.000467785 0)
(-0.000315751 -0.000525048 0)
(-0.000261938 -0.000569701 0)
(-0.000205852 -0.000598061 0)
(-0.000151285 -0.000604107 0)
(-0.000101836 -0.000579098 0)
(-6.05721e-05 -0.000515026 0)
(-2.96634e-05 -0.000409492 0)
(-1.01363e-05 -0.000267351 0)
(-8.92927e-07 -9.85918e-05 0)
(-1.1757e-06 0.000119387 0)
(-1.34345e-05 0.000323779 0)
(-3.91848e-05 0.000495057 0)
(-7.95278e-05 0.000620296 0)
(-0.000132512 0.000693373 0)
(-0.000194589 0.000717581 0)
(-0.000261116 0.00070333 0)
(-0.000326988 0.000661947 0)
(-0.000387203 0.000601545 0)
(-0.000437428 0.000527613 0)
(-0.00047471 0.00044508 0)
(-0.000498117 0.000359005 0)
(-0.000508959 0.000273945 0)
(-0.000510457 0.000192958 0)
(-0.000507058 0.000116755 0)
(-0.000503828 4.2977e-05 0)
(-0.000505384 -3.00244e-05 0)
(-0.000512084 -0.000103346 0)
(-0.000519846 -0.000179297 0)
(-0.000523767 -0.000261071 0)
(-0.000519029 -0.00034881 0)
(-0.000501526 -0.000440042 0)
(-0.000468747 -0.000530222 0)
(-0.000420487 -0.000613554 0)
(-0.000359068 -0.000683658 0)
(-0.000289 -0.000733174 0)
(-0.000216269 -0.000752244 0)
(-0.000147403 -0.000728605 0)
(-8.83438e-05 -0.000652046 0)
(-4.34313e-05 -0.000520222 0)
(-1.48558e-05 -0.000340237 0)
(-1.31024e-06 -0.000125591 0)
(-1.74858e-06 0.000150662 0)
(-1.9873e-05 0.000407858 0)
(-5.76662e-05 0.000621583 0)
(-0.000116035 0.000774386 0)
(-0.000190864 0.000857736 0)
(-0.000275326 0.000875699 0)
(-0.000361052 0.000842288 0)
(-0.000439675 0.000773737 0)
(-0.000504264 0.000683064 0)
(-0.000550361 0.00058011 0)
(-0.000576645 0.000473204 0)
(-0.00058498 0.000369379 0)
(-0.000579748 0.000273593 0)
(-0.000566774 0.000188042 0)
(-0.000552319 0.000111959 0)
(-0.00054277 4.14637e-05 0)
(-0.000544084 -2.6807e-05 0)
(-0.000556803 -9.61088e-05 0)
(-0.000575877 -0.000170594 0)
(-0.000595489 -0.000255205 0)
(-0.000609398 -0.000352081 0)
(-0.000610992 -0.00046046 0)
(-0.00059422 -0.000576388 0)
(-0.000554955 -0.000692749 0)
(-0.000492386 -0.000799533 0)
(-0.000409944 -0.000883598 0)
(-0.000315331 -0.000927941 0)
(-0.000219312 -0.00091345 0)
(-0.000133179 -0.00082572 0)
(-6.59366e-05 -0.000662412 0)
(-2.26026e-05 -0.000434327 0)
(-1.9972e-06 -0.000160476 0)
(-2.71951e-06 0.00019155 0)
(-3.05708e-05 0.000517046 0)
(-8.7826e-05 0.000783788 0)
(-0.000174118 0.000967504 0)
(-0.00028053 0.00105652 0)
(-0.000393982 0.00105714 0)
(-0.000500189 0.000990273 0)
(-0.000587068 0.00088089 0)
(-0.000647178 0.000749964 0)
(-0.00067851 0.000613092 0)
(-0.000683963 0.000481655 0)
(-0.000669859 0.000363114 0)
(-0.000644089 0.000260993 0)
(-0.000614578 0.000175215 0)
(-0.000588468 0.00010284 0)
(-0.000572546 3.84578e-05 0)
(-0.000573432 -2.25972e-05 0)
(-0.000591782 -8.50019e-05 0)
(-0.00062217 -0.000154169 0)
(-0.000658888 -0.000236551 0)
(-0.000695559 -0.000336747 0)
(-0.000724215 -0.000457162 0)
(-0.000735517 -0.000596883 0)
(-0.000719968 -0.000750274 0)
(-0.000670237 -0.000905438 0)
(-0.000584257 -0.00104249 0)
(-0.000468064 -0.00113283 0)
(-0.000336384 -0.00114389 0)
(-0.00020914 -0.00105155 0)
(-0.00010506 -0.000851703 0)
(-3.62622e-05 -0.000560898 0)
(-3.22493e-06 -0.000207524 0)
(-4.5007e-06 0.000247485 0)
(-4.93841e-05 0.000664315 0)
(-0.000138999 0.000997519 0)
(-0.000268506 0.00121259 0)
(-0.000418641 0.00129519 0)
(-0.000565428 0.00125855 0)
(-0.000687053 0.00113724 0)
(-0.000769683 0.000970913 0)
(-0.000809608 0.000791397 0)
(-0.000811576 0.000619671 0)
(-0.000785402 0.000467697 0)
(-0.000742516 0.000340424 0)
(-0.000693494 0.000237754 0)
(-0.000646972 0.000156256 0)
(-0.000609674 9.06625e-05 0)
(-0.000587826 3.43944e-05 0)
(-0.000588079 -1.78984e-05 0)
(-0.000611089 -7.14786e-05 0)
(-0.000651503 -0.000132243 0)
(-0.00070459 -0.000207478 0)
(-0.000765316 -0.000303925 0)
(-0.000826439 -0.000427783 0)
(-0.000877441 -0.000583464 0)
(-0.000904257 -0.000771049 0)
(-0.000890789 -0.000981943 0)
(-0.000823316 -0.0011927 0)
(-0.000697898 -0.00136035 0)
(-0.000527402 -0.00142883 0)
(-0.000341487 -0.00135146 0)
(-0.000176666 -0.00111439 0)
(-6.21978e-05 -0.000740689 0)
(-5.6548e-06 -0.000275076 0)
(-8.01977e-06 0.000328494 0)
(-8.37202e-05 0.000871118 0)
(-0.00022656 0.00128514 0)
(-0.000419123 0.00152272 0)
(-0.000621847 0.00157254 0)
(-0.000795225 0.00146635 0)
(-0.000912424 0.00126399 0)
(-0.000965137 0.00102621 0)
(-0.000960984 0.00079572 0)
(-0.000916075 0.000594785 0)
(-0.000848101 0.000431043 0)
(-0.000772103 0.000303365 0)
(-0.000699051 0.000206422 0)
(-0.000636321 0.000133227 0)
(-0.000588913 7.66744e-05 0)
(-0.000561732 2.96646e-05 0)
(-0.000560987 -1.31858e-05 0)
(-0.000587198 -5.69931e-05 0)
(-0.000635259 -0.000107384 0)
(-0.000701832 -0.00017159 0)
(-0.000784266 -0.00025746 0)
(-0.000878209 -0.000374255 0)
(-0.0009755 -0.000532377 0)
(-0.00106164 -0.000741308 0)
(-0.00111406 -0.00100354 0)
(-0.00110393 -0.0013021 0)
(-0.00100582 -0.00158485 0)
(-0.000815157 -0.00176396 0)
(-0.000561946 -0.00174789 0)
(-0.000306219 -0.00148973 0)
(-0.00011257 -0.0010104 0)
(-1.07765e-05 -0.00037965 0)
(-1.51771e-05 0.000452114 0)
(-0.000145208 0.00116829 0)
(-0.000367611 0.00166926 0)
(-0.000635926 0.00189826 0)
(-0.000877947 0.00186648 0)
(-0.00104113 0.00164672 0)
(-0.00110674 0.00133825 0)
(-0.00108619 0.00102452 0)
(-0.0010067 0.000752229 0)
(-0.000896931 0.000536215 0)
(-0.000779363 0.000373764 0)
(-0.00066848 0.000255154 0)
(-0.000572294 0.000169779 0)
(-0.000494919 0.000107998 0)
(-0.000438637 6.18651e-05 0)
(-0.000406553 2.45205e-05 0)
(-0.000404151 -8.89223e-06 0)
(-0.000431648 -4.2832e-05 0)
(-0.000484083 -8.20873e-05 0)
(-0.000559378 -0.000133026 0)
(-0.00065742 -0.000203282 0)
(-0.000777875 -0.000303311 0)
(-0.000918068 -0.000447751 0)
(-0.00106919 -0.000655829 0)
(-0.00121074 -0.000947187 0)
(-0.00130511 -0.00132612 0)
(-0.00130092 -0.00175007 0)
(-0.00115536 -0.00210618 0)
(-0.000869947 -0.00223605 0)
(-0.000513799 -0.00201401 0)
(-0.000203603 -0.00142109 0)
(-2.13243e-05 -0.000549451 0)
(-2.96008e-05 0.000644314 0)
(-0.000246852 0.00158521 0)
(-0.000562494 0.00214726 0)
(-0.00087801 0.00229631 0)
(-0.00108774 0.00211106 0)
(-0.0011506 0.00173598 0)
(-0.00108399 0.00131554 0)
(-0.000934463 0.000943684 0)
(-0.000749493 0.000654937 0)
(-0.000563108 0.000446053 0)
(-0.000394287 0.000300238 0)
(-0.000250971 0.000199724 0)
(-0.000134932 0.000130522 0)
(-4.56525e-05 8.21272e-05 0)
(1.77627e-05 4.69667e-05 0)
(5.41809e-05 1.91318e-05 0)
(5.89797e-05 -5.40097e-06 0)
(3.23793e-05 -3.00311e-05 0)
(-2.0571e-05 -5.84835e-05 0)
(-9.85486e-05 -9.57427e-05 0)
(-0.000203292 -0.000148144 0)
(-0.000338009 -0.00022524 0)
(-0.000506292 -0.000342429 0)
(-0.00070923 -0.000524524 0)
(-0.000939273 -0.000806915 0)
(-0.00116796 -0.00122518 0)
(-0.00133433 -0.00177332 0)
(-0.00135284 -0.00234753 0)
(-0.00115771 -0.00272971 0)
(-0.000772385 -0.00266538 0)
(-0.000345084 -0.00200852 0)
(-4.17112e-05 -0.000820169 0)
(-5.70199e-05 0.000934989 0)
(-0.000395721 0.002119 0)
(-0.00076246 0.00264414 0)
(-0.00100156 0.00259462 0)
(-0.001019 0.00218687 0)
(-0.00084275 0.00165247 0)
(-0.000555912 0.00115773 0)
(-0.000238159 0.000775762 0)
(5.98675e-05 0.000509727 0)
(0.00031573 0.000333244 0)
(0.000524651 0.000217813 0)
(0.00069009 0.000141991 0)
(0.000817994 9.15469e-05 0)
(0.000913557 5.71667e-05 0)
(0.000980521 3.27026e-05 0)
(0.00101951 1.36796e-05 0)
(0.00102683 -2.89774e-06 0)
(0.00100314 -1.93072e-05 0)
(0.000953595 -3.81632e-05 0)
(0.000879309 -6.29189e-05 0)
(0.000777713 -9.81017e-05 0)
(0.000643611 -0.000150962 0)
(0.000468939 -0.000234297 0)
(0.000243354 -0.000371756 0)
(-4.38744e-05 -0.000604931 0)
(-0.000392047 -0.000993328 0)
(-0.000766009 -0.00158345 0)
(-0.00107258 -0.00233226 0)
(-0.00117088 -0.00302653 0)
(-0.000961451 -0.003288 0)
(-0.000522747 -0.00273071 0)
(-7.691e-05 -0.00121783 0)
(-0.000100258 0.00136295 0)
(-0.000568661 0.0026976 0)
(-0.000817369 0.00297235 0)
(-0.000725437 0.00259503 0)
(-0.000337741 0.00196377 0)
(0.000191357 0.00134627 0)
(0.000725102 0.000867019 0)
(0.00118906 0.000542706 0)
(0.00156252 0.000339093 0)
(0.00185232 0.000214257 0)
(0.00207364 0.00013695 0)
(0.00224127 8.8017e-05 0)
(0.00236713 5.62355e-05 0)
(0.00245949 3.49488e-05 0)
(0.00252375 2.00161e-05 0)
(0.00256169 8.54758e-06 0)
(0.0025705 -1.34037e-06 0)
(0.00255111 -1.10291e-05 0)
(0.00250847 -2.20871e-05 0)
(0.00244369 -3.65937e-05 0)
(0.00235421 -5.7311e-05 0)
(0.0022345 -8.88206e-05 0)
(0.00207493 -0.000139673 0)
(0.00185998 -0.000227146 0)
(0.00156542 -0.000386367 0)
(0.00116059 -0.000678679 0)
(0.000626315 -0.00118605 0)
(3.48745e-07 -0.00195446 0)
(-0.0005673 -0.00287943 0)
(-0.000838497 -0.0035851 0)
(-0.000663161 -0.00342668 0)
(-0.000125272 -0.00176162 0)
(-0.000171354 0.0020259 0)
(-0.000627542 0.00314649 0)
(-0.000363188 0.00284737 0)
(0.000383602 0.00212004 0)
(0.0012885 0.00140655 0)
(0.00212936 0.000863215 0)
(0.00280726 0.000508314 0)
(0.00331311 0.000297736 0)
(0.00368017 0.000178115 0)
(0.00394664 0.000109749 0)
(0.00414193 6.9185e-05 0)
(0.00428613 4.41206e-05 0)
(0.00439267 2.80597e-05 0)
(0.0044701 1.74003e-05 0)
(0.00452379 9.98024e-06 0)
(0.00455581 4.32161e-06 0)
(0.00456421 -5.26111e-07 0)
(0.00454985 -5.24318e-06 0)
(0.00451693 -1.06007e-05 0)
(0.00446645 -1.76237e-05 0)
(0.00439634 -2.76814e-05 0)
(0.00430186 -4.30979e-05 0)
(0.00417435 -6.83535e-05 0)
(0.00399833 -0.000113034 0)
(0.00374583 -0.000198231 0)
(0.00336933 -0.000366959 0)
(0.0028019 -0.000695037 0)
(0.00198873 -0.00128141 0)
(0.000970377 -0.00218116 0)
(-2.49771e-05 -0.00323689 0)
(-0.000563979 -0.00380419 0)
(-0.000192581 -0.00250068 0)
(-0.000116098 0.00261515 0)
(1.52044e-05 0.00296745 0)
(0.00137421 0.0020355 0)
(0.00285367 0.00123038 0)
(0.00404546 0.000690717 0)
(0.00491206 0.000369089 0)
(0.00550402 0.000195642 0)
(0.00589756 0.000107051 0)
(0.00616312 6.18359e-05 0)
(0.00634845 3.76011e-05 0)
(0.00648161 2.36264e-05 0)
(0.00657894 1.50657e-05 0)
(0.00665043 9.58636e-06 0)
(0.00670221 5.94884e-06 0)
(0.0067381 3.41777e-06 0)
(0.00675963 1.48834e-06 0)
(0.0067656 -1.63838e-07 0)
(0.00675665 -1.76824e-06 0)
(0.00673556 -3.58848e-06 0)
(0.00670304 -5.9794e-06 0)
(0.00665771 -9.41643e-06 0)
(0.00659635 -1.47251e-05 0)
(0.0065129 -2.35292e-05 0)
(0.00639602 -3.94263e-05 0)
(0.00622371 -7.07706e-05 0)
(0.00595358 -0.000136476 0)
(0.00550962 -0.000277095 0)
(0.00477872 -0.000570806 0)
(0.00363775 -0.00114307 0)
(0.00203491 -0.00211213 0)
(0.000355015 -0.00326762 0)
(-4.34868e-05 -0.00292705 0)
(0.00261988 0.00119915 0)
(0.0037734 0.000986332 0)
(0.00568647 0.000443788 0)
(0.00701583 0.00019641 0)
(0.00777373 8.99925e-05 0)
(0.00821106 3.96422e-05 0)
(0.00846643 1.78921e-05 0)
(0.00861964 8.96105e-06 0)
(0.00871797 5.03885e-06 0)
(0.00878557 3.08397e-06 0)
(0.00883412 1.97074e-06 0)
(0.00886973 1.27586e-06 0)
(0.00889595 8.20378e-07 0)