/*--------------------------------*- C++ -*----------------------------------*\
| =========                 |                                                 |
| \\      /  F ield         | OpenFOAM: The Open Source CFD Toolbox           |
|  \\    /   O peration     | Version:  2206                                  |
|   \\  /    A nd           | Website:  www.openfoam.com                      |
|    \\/     M anipulation  |                                                 |
\*---------------------------------------------------------------------------*/
FoamFile
{
    version     2.0;
    format      ascii;
    arch        "LSB;label=64;scalar=64";
    class       volVectorField;
    location    "352800";
    object      U;
}
// * * * * * * * * * * * * * * * * * * * * * * * * * * * * * * * * * * * * * //

dimensions      [0 1 -1 0 0 0 0];

internalField   nonuniform List<vector> 
16
(
(1.92349e-07 -1.30101e-07 0)
(2.59863e-07 -1.48235e-08 0)
(1.96098e-07 1.84859e-08 0)
(1.39865e-07 1.21104e-07 0)
(6.18665e-08 -3.2905e-07 0)
(9.75971e-08 2.10173e-08 0)
(9.9019e-09 9.29769e-08 0)
(-1.16074e-08 2.15996e-07 0)
(-1.12187e-07 -2.8534e-07 0)
(-1.32367e-07 4.03503e-08 0)
(-9.87902e-08 1.26252e-07 0)
(-8.61658e-08 1.22304e-07 0)
(-1.44073e-07 -8.80763e-08 0)
(-2.23249e-07 3.14906e-09 0)
(-1.08762e-07 4.94976e-08 0)
(-4.08416e-08 3.03255e-08 0)
)
;

boundaryField
{
    movingWall
    {
        type            noSlip;
    }
    fixedWalls
    {
        type            noSlip;
    }
    frontAndBack
    {
        type            empty;
    }
}


// ************************************************************************* //
