/*--------------------------------*- C++ -*----------------------------------*\
| =========                 |                                                 |
| \\      /  F ield         | OpenFOAM: The Open Source CFD Toolbox           |
|  \\    /   O peration     | Version:  2212                                  |
|   \\  /    A nd           | Website:  www.openfoam.com                      |
|    \\/     M anipulation  |                                                 |
\*---------------------------------------------------------------------------*/
FoamFile
{
    version     2.0;
    format      ascii;
    arch        "LSB;label=64;scalar=64";
    class       surfaceScalarField;
    location    "200";
    object      phi;
}
// * * * * * * * * * * * * * * * * * * * * * * * * * * * * * * * * * * * * * //

dimensions      [0 3 -1 0 0 0 0];

oriented        oriented;

internalField   nonuniform List<scalar> 
1984
(
-4.61516e-09
4.61734e-09
-3.94856e-08
3.48703e-08
-9.70697e-08
5.75839e-08
-1.60376e-07
6.33057e-08
-2.23859e-07
6.34829e-08
-2.91036e-07
6.71757e-08
-3.65762e-07
7.47267e-08
-4.48227e-07
8.24632e-08
-5.35114e-07
8.68872e-08
-6.20255e-07
8.51408e-08
-6.92351e-07
7.20949e-08
-7.30434e-07
3.80839e-08
-6.98695e-07
-3.17397e-08
-5.59212e-07
-1.39483e-07
-3.02468e-07
-2.56743e-07
-2.16721e-08
-2.80796e-07
1.28439e-07
-1.50112e-07
2.17435e-07
-8.89953e-08
2.70826e-07
-5.33915e-08
3.06995e-07
-3.61688e-08
3.36051e-07
-2.90559e-08
3.58757e-07
-2.27066e-08
3.70257e-07
-1.15002e-08
3.66139e-07
4.1182e-09
3.45946e-07
2.01925e-08
3.1046e-07
3.54869e-08
2.61199e-07
4.92605e-08
1.99266e-07
6.19334e-08
1.27683e-07
7.15835e-08
5.77194e-08
6.99637e-08
1.09249e-08
4.67944e-08
1.09248e-08
-4.72821e-08
5.18994e-08
-1.81788e-07
1.69376e-07
-3.73166e-07
2.48961e-07
-5.84699e-07
2.74838e-07
-8.00576e-07
2.79359e-07
-1.02223e-06
2.88826e-07
-1.25301e-06
3.05508e-07
-1.48948e-06
3.18939e-07
-1.72013e-06
3.17538e-07
-1.92515e-06
2.90158e-07
-2.0724e-06
2.19339e-07
-2.11081e-06
7.65004e-08
-1.96122e-06
-1.81331e-07
-1.54567e-06
-5.55033e-07
-8.52188e-07
-9.50225e-07
-6.85555e-08
-1.06443e-06
4.02354e-07
-6.2102e-07
6.69334e-07
-3.55975e-07
8.40193e-07
-2.24251e-07
9.57215e-07
-1.5319e-07
1.04662e-06
-1.18463e-07
1.11215e-06
-8.8237e-08
1.14409e-06
-4.34353e-08
1.13286e-06
1.53418e-08
1.0751e-06
7.79594e-08
9.70787e-07
1.39796e-07
8.22977e-07
1.97071e-07
6.36743e-07
2.48168e-07
4.24389e-07
2.83937e-07
2.15838e-07
2.78515e-07
5.98999e-08
2.02732e-07
7.08248e-08
-1.17643e-07
1.69542e-07
-3.96936e-07
4.4867e-07
-7.61961e-07
6.13985e-07
-1.15554e-06
6.6842e-07
-1.55219e-06
6.7601e-07
-1.9454e-06
6.82033e-07
-2.33155e-06
6.91662e-07
-2.70078e-06
6.8816e-07
-3.03373e-06
6.50496e-07
-3.29954e-06
5.5596e-07
-3.45084e-06
3.70648e-07
-3.41527e-06
4.0924e-08
-3.09628e-06
-5.0032e-07
-2.41047e-06
-1.24084e-06
-1.3587e-06
-2.002e-06
-1.36248e-07
-2.28687e-06
6.71375e-07
-1.42864e-06
1.13231e-06
-8.16913e-07
1.4384e-06
-5.30334e-07
1.65213e-06
-3.66921e-07
1.81166e-06
-2.77995e-07
1.92591e-06
-2.02491e-07
1.98394e-06
-1.01466e-07
1.97134e-06
2.79475e-08
1.88003e-06
1.69264e-07
1.70765e-06
3.1217e-07
1.45805e-06
4.46674e-07
1.14141e-06
5.64807e-07
7.7964e-07
6.45707e-07
4.16991e-07
6.41165e-07
1.27115e-07
4.92609e-07
1.97939e-07
-2.0305e-07
3.72593e-07
-6.52022e-07
8.97642e-07
-1.21321e-06
1.17517e-06
-1.8025e-06
1.25771e-06
-2.38165e-06
1.25516e-06
-2.93389e-06
1.23428e-06
-3.44717e-06
1.20493e-06
-3.90577e-06
1.14676e-06
-4.28592e-06
1.03065e-06
-4.55173e-06
8.21769e-07
-4.64906e-06
4.67979e-07
-4.4939e-06
-1.14234e-07
-3.99389e-06
-1.00033e-06
-3.08058e-06
-2.15415e-06
-1.77221e-06
-3.31037e-06
-2.35341e-07
-3.82374e-06
8.71848e-07
-2.53583e-06
1.53071e-06
-1.47578e-06
1.97691e-06
-9.76533e-07
2.29469e-06
-6.84694e-07
2.5307e-06
-5.14007e-07
2.70048e-06
-3.72272e-07
2.79439e-06
-1.95382e-07
2.79204e-06
3.03038e-08
2.67815e-06
2.83157e-07
2.4467e-06
5.4362e-07
2.10168e-06
7.91694e-07
1.65816e-06
1.00833e-06
1.14695e-06
1.15691e-06
6.26293e-07
1.16182e-06
1.97176e-07
9.21726e-07
3.95115e-07
-2.78562e-07
6.51155e-07
-8.81019e-07
1.5001e-06
-1.62394e-06
1.91809e-06
-2.39224e-06
2.02601e-06
-3.12967e-06
1.99259e-06
-3.80828e-06
1.91289e-06
-4.40918e-06
1.80583e-06
-4.91378e-06
1.65136e-06
-5.29821e-06
1.41508e-06
-5.52738e-06
1.05094e-06
-5.54701e-06
4.8761e-07
-5.27799e-06
-3.8326e-07
-4.63143e-06
-1.64689e-06
-3.54394e-06
-3.24164e-06
-2.05876e-06
-4.79556e-06
-3.45037e-07
-5.53746e-06
9.79946e-07
-3.86081e-06
1.81414e-06
-2.30997e-06
2.38411e-06
-1.5465e-06
2.7949e-06
-1.09549e-06
3.10072e-06
-8.19822e-07
3.32426e-06
-5.95816e-07
3.45971e-06
-3.30828e-07
3.48069e-06
9.3219e-09
3.36e-06
4.03843e-07
3.08604e-06
8.17584e-07
2.66139e-06
1.21635e-06
2.10536e-06
1.56435e-06
1.45886e-06
1.80341e-06
7.97848e-07
1.82284e-06
2.5196e-07
1.46761e-06
6.47076e-07
-3.15809e-07
9.66964e-07
-1.01525e-06
2.19954e-06
-1.89118e-06
2.79401e-06
-2.79719e-06
2.93202e-06
-3.65395e-06
2.84936e-06
-4.42144e-06
2.68037e-06
-5.07661e-06
2.461e-06
-5.60183e-06
2.17658e-06
-5.97746e-06
1.79072e-06
-6.1734e-06
1.24688e-06
-6.13865e-06
4.52861e-07
-5.79694e-06
-7.2497e-07
-5.04382e-06
-2.40001e-06
-3.81363e-06
-4.47183e-06
-2.18784e-06
-6.42134e-06
-3.9813e-07
-7.32717e-06
1.04838e-06
-5.30732e-06
2.00432e-06
-3.26591e-06
2.65624e-06
-2.19842e-06
3.12471e-06
-1.56397e-06
3.47184e-06
-1.16695e-06
3.72791e-06
-8.51891e-07
3.89383e-06
-4.96753e-07
3.94093e-06
-3.77712e-08
3.82677e-06
5.18e-07
3.52983e-06
1.11452e-06
3.04822e-06
1.69796e-06
2.40456e-06
2.20802e-06
1.65226e-06
2.55572e-06
8.89855e-07
2.58524e-06
2.74512e-07
2.08296e-06
9.21589e-07
-3.01191e-07
1.26816e-06
-1.01883e-06
2.91719e-06
-1.95878e-06
3.73396e-06
-2.94841e-06
3.92165e-06
-3.88167e-06
3.78262e-06
-4.70553e-06
3.50423e-06
-5.39537e-06
3.15084e-06
-5.93822e-06
2.71944e-06
-6.32115e-06
2.17365e-06
-6.51844e-06
1.44417e-06
-6.47606e-06
4.10481e-07
-6.09992e-06
-1.10111e-06
-5.25344e-06
-3.24649e-06
-3.88097e-06
-5.8443e-06
-2.12051e-06
-8.18181e-06
-3.05024e-07
-9.14265e-06
1.18597e-06
-6.79831e-06
2.19395e-06
-4.2739e-06
2.86985e-06
-2.87432e-06
3.34235e-06
-2.03646e-06
3.68224e-06
-1.50684e-06
3.92816e-06
-1.09781e-06
4.09052e-06
-6.59109e-07
4.14327e-06
-9.05271e-08
4.03603e-06
6.25242e-07
3.7294e-06
1.42115e-06
3.21314e-06
2.21421e-06
2.51168e-06
2.90948e-06
1.69319e-06
3.37421e-06
8.82318e-07
3.39611e-06
2.58279e-07
2.707e-06
1.17987e-06
-2.40611e-07
1.50877e-06
-8.95213e-07
3.57179e-06
-1.82382e-06
4.66257e-06
-2.84045e-06
4.93828e-06
-3.8104e-06
4.75257e-06
-4.66553e-06
4.35936e-06
-5.38085e-06
3.86616e-06
-5.95003e-06
3.28862e-06
-6.36599e-06
2.5896e-06
-6.60104e-06
1.67922e-06
-6.58326e-06
3.92702e-07
-6.18045e-06
-1.50393e-06
-5.22223e-06
-4.2047e-06
-3.69206e-06
-7.37446e-06
-1.80195e-06
-1.00719e-05
1.74737e-08
-1.09621e-05
1.5e-06
-8.28084e-06
2.49858e-06
-5.27248e-06
3.1409e-06
-3.51665e-06
3.55995e-06
-2.45551e-06
3.83635e-06
-1.78323e-06
4.01822e-06
-1.27968e-06
4.12648e-06
-7.67372e-07
4.14553e-06
-1.09579e-07
4.023e-06
7.47769e-07
3.70411e-06
1.74005e-06
3.16587e-06
2.75246e-06
2.43256e-06
3.64278e-06
1.58852e-06
4.21825e-06
7.84813e-07
4.19982e-06
2.10683e-07
3.28113e-06
1.39055e-06
-1.5103e-07
1.6598e-06
-6.70628e-07
4.09139e-06
-1.51321e-06
5.50514e-06
-2.50267e-06
5.92775e-06
-3.47512e-06
5.72502e-06
-4.34117e-06
5.22541e-06
-5.07238e-06
4.59737e-06
-5.66795e-06
3.88419e-06
-6.12381e-06
3.04546e-06
-6.40362e-06
1.95903e-06
-6.40423e-06
3.93314e-07
-5.94667e-06
-1.96149e-06
-4.83713e-06
-5.31425e-06
-3.14271e-06
-9.06888e-06
-1.15917e-06
-1.20555e-05
6.39226e-07
-1.27605e-05
2.07161e-06
-9.71322e-06
3.01247e-06
-6.21333e-06
3.57216e-06
-4.07635e-06
3.88769e-06
-2.77103e-06
4.04956e-06
-1.94511e-06
4.11603e-06
-1.34615e-06
4.11929e-06
-7.70633e-07
4.05367e-06
-4.39562e-08
3.87776e-06
9.23669e-07
3.52687e-06
2.09093e-06
2.96503e-06
3.3143e-06
2.21574e-06
4.39207e-06
1.37997e-06
5.05402e-06
6.30727e-07
4.94906e-06
1.48665e-07
3.76319e-06
1.53922e-06
-5.05957e-08
1.71039e-06
-3.69367e-07
4.41016e-06
-1.04638e-06
6.18216e-06
-1.95248e-06
6.83384e-06
-2.89769e-06
6.67023e-06
-3.75645e-06
6.08417e-06
-4.4845e-06
5.32541e-06
-5.08026e-06
4.47995e-06
-5.54124e-06
3.50644e-06
-5.82452e-06
2.24231e-06
-5.79062e-06
3.59412e-07
-5.21443e-06
-2.53768e-06
-3.90784e-06
-6.62083e-06
-2.07956e-06
-1.08972e-05
-1.0665e-07
-1.40284e-05
1.63659e-06
-1.45037e-05
2.97462e-06
-1.10513e-05
3.80108e-06
-7.03979e-06
4.23107e-06
-4.50633e-06
4.40093e-06
-2.9409e-06
4.40798e-06
-1.95216e-06
4.31807e-06
-1.25623e-06
4.17105e-06
-6.23617e-07
3.97654e-06
1.50554e-07
3.7034e-06
1.19681e-06
3.28975e-06
2.50458e-06
2.69055e-06
3.9135e-06
1.93037e-06
5.15226e-06
1.12606e-06
5.85833e-06
4.6253e-07
5.61259e-06
9.00508e-08
4.13567e-06
1.62927e-06
5.5104e-08
1.65529e-06
-8.91455e-09
4.47418e-06
-3.99842e-07
6.57309e-06
-1.12966e-06
7.56366e-06
-2.01466e-06
7.55524e-06
-2.85361e-06
6.92311e-06
-3.5585e-06
6.03031e-06
-4.10667e-06
5.02812e-06
-4.49317e-06
3.89295e-06
-4.681e-06
2.43014e-06
-4.50577e-06
1.84178e-07
-3.68727e-06
-3.35618e-06
-2.16629e-06
-8.14182e-06
-2.76038e-07
-1.27874e-05
1.53029e-06
-1.58347e-05
3.10206e-06
-1.60755e-05
4.27542e-06
-1.22246e-05
4.91364e-06
-7.67801e-06
5.15654e-06
-4.74924e-06
5.1391e-06
-2.92346e-06
4.95912e-06
-1.77217e-06
4.68409e-06
-9.81201e-07
4.35307e-06
-2.92593e-07
3.98969e-06
5.13933e-07
3.58116e-06
1.60534e-06
3.07176e-06
3.01398e-06
2.41572e-06
4.56954e-06
1.64238e-06
5.92559e-06
8.81737e-07
6.61897e-06
3.1586e-07
6.17847e-06
4.62923e-08
4.40524e-06
1.67556e-06
1.71879e-07
1.48341e-06
4.18607e-07
4.22745e-06
4.67739e-07
6.52396e-06
1.34183e-07
7.89721e-06
-5.30339e-07
8.21976e-06
-1.32427e-06
7.71704e-06
-2.04403e-06
6.75007e-06
-2.55556e-06
5.53965e-06
-2.79458e-06
4.13197e-06
-2.71899e-06
2.35454e-06
-2.12546e-06
-4.09355e-07
-9.08778e-07
-4.57286e-06
6.91866e-07
-9.74246e-06
2.34411e-06
-1.44396e-05
3.87775e-06
-1.73683e-05
5.18924e-06
-1.7387e-05
6.04413e-06
-1.30795e-05
6.3845e-06
-8.01838e-06
6.36425e-06
-4.72898e-06
6.11171e-06
-2.67093e-06
5.71459e-06
-1.37505e-06
5.22501e-06
-4.91626e-07
4.68443e-06
2.47989e-07
4.13011e-06
1.06825e-06
3.55828e-06
2.17717e-06
2.92453e-06
3.64773e-06
2.19156e-06
5.3025e-06
1.3984e-06
6.71876e-06
6.83178e-07
7.33419e-06
2.09117e-07
6.65253e-06
1.99417e-08
4.59441e-06
1.6955e-06
3.00966e-07
1.18244e-06
9.25394e-07
3.60302e-06
1.55875e-06
5.89061e-06
1.9178e-06
7.53815e-06
1.85661e-06
8.28096e-06
1.43456e-06
8.13909e-06
8.76117e-07
7.30851e-06
4.35176e-07
5.98059e-06
3.26028e-07
4.24112e-06
7.60824e-07
1.91975e-06
1.8223e-06
-1.47083e-06
3.2716e-06
-6.02216e-06
4.72045e-06
-1.11913e-05
6.06622e-06
-1.57854e-05
7.17885e-06
-1.8481e-05
7.96626e-06
-1.81744e-05
8.28901e-06
-1.34023e-05
8.18836e-06
-7.91773e-06
7.81475e-06
-4.35537e-06
7.27746e-06
-2.13364e-06
6.63191e-06
-7.29497e-07
5.90594e-06
2.34341e-07
5.15139e-06
1.00254e-06
4.39976e-06
1.81989e-06
3.64866e-06
2.92827e-06
2.86831e-06
4.42807e-06
2.03898e-06
6.13183e-06
1.215e-06
7.54274e-06
5.379e-07
8.0113e-06
1.39546e-07
7.05089e-06
6.41012e-09
4.72755e-06
1.70191e-06
4.09098e-07
7.73346e-07
1.41802e-06
2.5941e-06
2.72261e-06
4.58601e-06
3.9774e-06
6.28337e-06
4.92489e-06
7.33347e-06
5.47115e-06
7.59284e-06
5.7022e-06
7.07746e-06
5.8253e-06
5.85748e-06
6.10203e-06
3.96439e-06
6.73623e-06
1.28555e-06
7.86254e-06
-2.59714e-06
9.1762e-06
-7.33582e-06
1.02886e-05
-1.23037e-05
1.10313e-05
-1.65281e-05
1.13536e-05
-1.88032e-05
1.12662e-05
-1.8087e-05
1.08072e-05
-1.29433e-05
1.01174e-05
-7.22797e-06
9.31277e-06
-3.55071e-06
8.45754e-06
-1.27841e-06
7.5421e-06
1.85949e-07
6.59847e-06
1.17797e-06
5.66358e-06
1.93743e-06
4.73929e-06
2.74419e-06
3.81485e-06
3.85271e-06
2.87504e-06
5.36789e-06
1.9282e-06
7.07867e-06
1.05627e-06
8.41467e-06
4.08239e-07
8.65933e-06
7.94725e-08
7.37965e-06
-4.76046e-09
4.81178e-06
1.69715e-06
4.33633e-07
3.39712e-07
1.66444e-06
1.3633e-06
3.50679e-06
2.74366e-06
5.63161e-06
4.15854e-06
7.7218e-06
5.24329e-06
9.56865e-06
5.74598e-06
1.11046e-05
5.54147e-06
1.23849e-05
4.57718e-06
1.35389e-05
2.81042e-06
1.46482e-05
1.76245e-07
1.58298e-05
-3.77875e-06
1.66653e-05
-8.17127e-06
1.69297e-05
-1.25682e-05
1.65447e-05
-1.61432e-05
1.56061e-05
-1.78646e-05
1.42998e-05
-1.67806e-05
1.28865e-05
-1.153e-05
1.15437e-05
-5.88519e-06
1.03137e-05
-2.32073e-06
9.16475e-06
-1.2944e-07
8.04672e-06
1.30398e-06
7.00655e-06
2.21814e-06
6.00016e-06
2.94381e-06
4.98159e-06
3.76276e-06
3.91581e-06
4.91848e-06
2.7985e-06
6.4852e-06
1.69073e-06
8.18644e-06
7.44789e-07
9.36061e-06
1.63114e-07
9.241e-06
-3.92268e-08
7.58199e-06
-3.52721e-08
4.80783e-06
1.66188e-06
3.06217e-07
3.34953e-08
1.35823e-06
3.11288e-07
3.21963e-06
8.82257e-07
5.72294e-06
1.65524e-06
8.57646e-06
2.38977e-06
1.151e-05
2.81241e-06
1.43486e-05
2.70286e-06
1.70187e-05
1.90707e-06
1.94816e-05
3.4757e-07
2.16413e-05
-1.9835e-06
2.27871e-05
-4.92446e-06
2.28758e-05
-8.26003e-06
2.18818e-05
-1.15742e-05
1.99761e-05
-1.42375e-05
1.75282e-05
-1.54167e-05
1.50009e-05
-1.42533e-05
1.28573e-05
-9.38647e-06
1.11073e-05
-4.13513e-06
9.64862e-06
-8.62077e-07
8.44367e-06
1.07551e-06
7.49268e-06
2.25497e-06
6.63428e-06
3.07654e-06
5.73942e-06
3.83867e-06
4.69599e-06
4.80619e-06
3.41725e-06
6.19722e-06
1.90219e-06
8.00026e-06
5.80416e-07
9.50822e-06
-2.50695e-07
1.01917e-05
-5.05906e-07
9.49621e-06
-3.689e-07
7.44499e-06
-1.28787e-07
4.56771e-06
1.53309e-06
1.11044e-07
-7.75475e-08
6.33627e-07
-2.11296e-07
1.79626e-06
-2.80379e-07
3.69962e-06
-2.48119e-07
6.25429e-06
-1.64903e-07
9.21636e-06
-1.49658e-07
1.22591e-05
-3.39839e-07
1.50618e-05
-8.95658e-07
1.73558e-05
-1.94647e-06
1.87876e-05
-3.41526e-06
1.9145e-05
-5.28186e-06
1.83315e-05
-7.44653e-06
1.64311e-05
-9.67386e-06
1.37716e-05
-1.15779e-05
1.09046e-05
-1.25497e-05
8.49318e-06
-1.18418e-05
6.99982e-06
-7.89311e-06
6.06684e-06
-3.20215e-06
5.53139e-06
-3.26628e-07
5.12763e-06
1.47927e-06
4.68533e-06
2.69728e-06
4.01208e-06
3.74979e-06
2.96749e-06
4.88325e-06
1.54305e-06
6.23064e-06
-6.70697e-08
7.80734e-06
-1.48207e-06
9.41525e-06
-2.28776e-06
1.03139e-05
-2.32153e-06
1.02255e-05
-1.7698e-06
8.94448e-06
-9.81453e-07
6.65664e-06
-3.02341e-07
3.8886e-06
1.23075e-06
7.15983e-08
-1.49146e-07
3.42346e-07
-4.82045e-07
9.0216e-07
-8.40192e-07
1.81952e-06
-1.16548e-06
3.07298e-06
-1.41836e-06
4.52881e-06
-1.60549e-06
5.97964e-06
-1.79067e-06
7.16872e-06
-2.08473e-06
7.83616e-06
-2.61391e-06
7.87142e-06
-3.45052e-06
7.20395e-06
-4.61438e-06
5.82746e-06
-6.07005e-06
3.86599e-06
-7.71238e-06
1.62997e-06
-9.34191e-06
-3.04337e-07
-1.06154e-05
-1.25588e-06
-1.08903e-05
-1.10032e-06
-8.04868e-06
-5.61521e-07
-3.74095e-06
-2.6648e-07
-6.21669e-07
-4.93293e-07
1.70608e-06
-1.15288e-06
3.35686e-06
-2.15961e-06
4.75651e-06
-3.40386e-06
6.12751e-06
-4.67924e-06
7.50603e-06
-5.65376e-06
8.78184e-06
-5.93584e-06
9.69734e-06
-5.49543e-06
9.87351e-06
-4.41238e-06
9.14244e-06
-2.96418e-06
7.49628e-06
-1.52194e-06
5.2144e-06
-4.40982e-07
2.80764e-06
7.89768e-07
6.11514e-08
-2.10297e-07
1.94812e-07
-6.15705e-07
3.57158e-07
-1.00254e-06
5.03089e-07
-1.31141e-06
5.91457e-07
-1.50672e-06
5.89796e-07
-1.60383e-06
4.6513e-07
-1.66601e-06
1.65254e-07
-1.78485e-06
-3.88872e-07
-2.05978e-06
-1.26662e-06
-2.57277e-06
-2.49875e-06
-3.38225e-06
-4.03697e-06
-4.53182e-06
-5.73285e-06
-6.01651e-06
-7.34228e-06
-7.73248e-06
-8.56005e-06
-9.39759e-06
-9.03422e-06
-1.04161e-05
-8.62635e-06
-8.45654e-06
-8.07473e-06
-4.29258e-06
-8.03666e-06
-6.59741e-07
-8.44045e-06
2.10987e-06
-9.14594e-06
4.06236e-06
-9.94673e-06
5.55731e-06
-1.06061e-05
6.78686e-06
-1.08841e-05
7.784e-06
-1.05674e-05
8.46516e-06
-9.53825e-06
8.66822e-06
-7.88504e-06
8.2203e-06
-5.81425e-06
7.07165e-06
-3.64732e-06
5.32936e-06
-1.75329e-06
3.32036e-06
-4.6759e-07
1.52195e-06
3.22178e-07
-4.13232e-08
-1.68975e-07
-1.93056e-07
-4.63971e-07
-4.95588e-07
-7.00005e-07
-9.82321e-07
-8.24682e-07
-1.65587e-06
-8.33175e-07
-2.4847e-06
-7.74997e-07
-3.42802e-06
-7.22687e-07
-4.46689e-06
-7.45982e-07
-5.61551e-06
-9.11163e-07
-6.89872e-06
-1.28956e-06
-8.33109e-06
-1.94988e-06
-9.89038e-06
-2.97253e-06
-1.15099e-05
-4.39703e-06
-1.30534e-05
-6.18891e-06
-1.43207e-05
-8.13027e-06
-1.507e-05
-9.6669e-06
-1.51479e-05
-8.37862e-06
-1.49998e-05
-4.44069e-06
-1.50892e-05
-5.70371e-07
-1.53882e-05
2.40897e-06
-1.57845e-05
4.45865e-06
-1.60222e-05
5.79501e-06
-1.58381e-05
6.60269e-06
-1.5038e-05
6.98395e-06
-1.35366e-05
6.96379e-06
-1.1384e-05
6.51556e-06
-8.78213e-06
5.61846e-06
-6.03992e-06
4.32944e-06
-3.51336e-06
2.8028e-06
-1.5286e-06
1.3356e-06
-3.53275e-07
3.4662e-07
-3.10969e-08
-1.43268e-07
-2.57081e-08
-5.73089e-07
-3.4151e-08
-1.28652e-06
1.34306e-08
-2.22254e-06
1.1133e-07
-3.3042e-06
2.48487e-07
-4.46247e-06
3.83279e-07
-5.65816e-06
4.73e-07
-6.88332e-06
4.79178e-07
-8.15393e-06
3.59442e-07
-9.49919e-06
5.57036e-08
-1.09354e-05
-5.13706e-07
-1.2464e-05
-1.44392e-06
-1.40632e-05
-2.79777e-06
-1.56519e-05
-4.60029e-06
-1.70958e-05
-6.68628e-06
-1.82225e-05
-8.5402e-06
-1.87956e-05
-7.80552e-06
-1.89706e-05
-4.26579e-06
-1.90713e-05
-4.6962e-07
-1.91933e-05
2.53096e-06
-1.92592e-05
4.52451e-06
-1.90203e-05
5.5561e-06
-1.82209e-05
5.80332e-06
-1.66946e-05
5.45762e-06
-1.44159e-05
4.68514e-06
-1.15101e-05
3.60974e-06
-8.22611e-06
2.33447e-06
-5.00029e-06
1.10362e-06
-2.38252e-06
1.85027e-07
-7.68325e-07
-2.7859e-07
-1.05841e-07
-3.15864e-07
-1.36938e-07
-1.6974e-07
1.44032e-07
-6.42896e-07
4.39008e-07
-1.37864e-06
7.49171e-07
-2.30784e-06
1.04054e-06
-3.35186e-06
1.2925e-06
-4.46404e-06
1.49546e-06
-5.62894e-06
1.6379e-06
-6.84659e-06
1.69682e-06
-8.11895e-06
1.6318e-06
-9.44396e-06
1.38072e-06
-1.08181e-05
8.60464e-07
-1.22424e-05
-1.9617e-08
-1.37262e-05
-1.31404e-06
-1.52709e-05
-3.05553e-06
-1.67913e-05
-5.1659e-06
-1.81534e-05
-7.17808e-06
-1.90451e-05
-6.91385e-06
-1.94168e-05
-3.89406e-06
-1.94879e-05
-3.9855e-07
-1.94466e-05
2.48971e-06
-1.92684e-05
4.34629e-06
-1.87463e-05
5.03402e-06
-1.76473e-05
4.70429e-06
-1.58152e-05
3.6255e-06
-1.32318e-05
2.10177e-06
-1.00807e-05
4.58639e-07
-6.82167e-06
-9.24588e-07
-3.91842e-06
-1.79964e-06
-1.726e-06
-2.00739e-06
-4.58779e-07
-1.54581e-06
-8.95327e-09
-7.6569e-07
-1.45891e-07
-1.15476e-07
2.59508e-07
-4.32616e-07
7.56148e-07
-9.28427e-07
1.24498e-06
-1.57192e-06
1.68403e-06
-2.32832e-06
2.04891e-06
-3.16678e-06
2.33391e-06
-4.06805e-06
2.53917e-06
-5.02883e-06
2.65761e-06
-6.06171e-06
2.66468e-06
-7.19112e-06
2.51013e-06
-8.44183e-06
2.11118e-06
-9.81314e-06
1.35169e-06
-1.12045e-05
7.73683e-08
-1.26191e-05
-1.64103e-06
-1.4098e-05
-3.6869e-06
-1.5535e-05
-5.74115e-06
-1.65596e-05
-5.88925e-06
-1.70017e-05
-3.45188e-06
-1.70096e-05
-3.90697e-07
-1.68116e-05
2.29176e-06
-1.64516e-05
3.98625e-06
-1.58115e-05
4.39391e-06
-1.47302e-05
3.62299e-06
-1.31243e-05
2.01962e-06
-1.09432e-05
-7.93679e-08
-8.65826e-06
-1.8263e-06
-6.43441e-06
-3.14843e-06
-4.40485e-06
-3.8292e-06
-2.63192e-06
-3.78032e-06
-1.18095e-06
-2.99678e-06
-2.59573e-07
-1.68707e-06
-4.05464e-07
-5.73258e-08
3.16835e-07
-2.33565e-07
9.32387e-07
-5.29632e-07
1.54105e-06
-9.27665e-07
2.08206e-06
-1.39964e-06
2.52088e-06
-1.91742e-06
2.85169e-06
-2.46126e-06
3.08301e-06
-3.02668e-06
3.22303e-06
-3.62852e-06
3.26652e-06
-4.30253e-06
3.18413e-06
-5.10445e-06
2.9131e-06
-6.10159e-06
2.34883e-06
-7.35964e-06
1.33542e-06
-8.71221e-06
-2.88465e-07
-1.00953e-05
-2.30385e-06
-1.15275e-05
-4.30886e-06
-1.25917e-05
-4.82508e-06
-1.30325e-05
-3.01113e-06
-1.29596e-05
-4.63592e-07
-1.25971e-05
1.92923e-06
-1.20642e-05
3.45343e-06
-1.1368e-05
3.69766e-06
-1.04509e-05
2.70586e-06
-9.27559e-06
8.44362e-07
-8.11804e-06
-1.23693e-06
-6.97323e-06
-2.97111e-06
-5.80795e-06
-4.31371e-06
-4.52544e-06
-5.11172e-06
-3.10711e-06
-5.19865e-06
-1.64669e-06
-4.4572e-06
-4.57576e-07
-2.87618e-06
-8.6304e-07
-2.88317e-08
3.45667e-07
-1.25746e-07
1.0293e-06
-2.91911e-07
1.70721e-06
-5.09879e-07
2.30003e-06
-7.53027e-07
2.76403e-06
-9.94547e-07
3.09321e-06
-1.21453e-06
3.30299e-06
-1.40918e-06
3.41768e-06
-1.59256e-06
3.44991e-06
-1.79595e-06
3.38752e-06
-2.0731e-06
3.19024e-06
-2.51225e-06
2.78798e-06
-3.26111e-06
2.08428e-06
-4.38405e-06
8.3447e-07
-5.72102e-06
-9.66874e-07
-7.12803e-06
-2.90186e-06
-8.25208e-06
-3.70103e-06
-8.73304e-06
-2.53017e-06
-8.63008e-06
-5.66556e-07
-8.13693e-06
1.43608e-06
-7.45113e-06
2.76764e-06
-6.70366e-06
2.95018e-06
-5.95659e-06
1.9588e-06
-5.26143e-06
1.49198e-07
-4.78583e-06
-1.71252e-06
-4.46276e-06
-3.29418e-06
-4.14297e-06
-4.6335e-06
-3.63453e-06
-5.62016e-06
-2.82399e-06
-6.00919e-06
-1.71706e-06
-5.56413e-06
-5.76665e-07
-4.01657e-06
-1.43971e-06
-3.30223e-08
3.7869e-07
-1.16163e-07
1.11244e-06
-2.22186e-07
1.81324e-06
-3.20661e-07
2.39851e-06
-3.88196e-07
2.83157e-06
-4.06816e-07
3.11183e-06
-3.63014e-07
3.25919e-06
-2.62063e-07
3.31673e-06
-1.21693e-07
3.30954e-06
3.04875e-08
3.23534e-06
1.59407e-07
3.06132e-06
1.97825e-07
2.74956e-06
5.42462e-08
2.22786e-06
-5.33597e-07
1.42231e-06
-1.59882e-06
9.83444e-08
-2.89784e-06
-1.60283e-06
-4.09141e-06
-2.50745e-06
-4.69955e-06
-1.92203e-06
-4.68698e-06
-5.79121e-07
-4.17605e-06
9.25148e-07
-3.40036e-06
1.99195e-06
-2.59043e-06
2.14025e-06
-1.87633e-06
1.2447e-06
-1.47702e-06
-2.50113e-07
-1.4492e-06
-1.74035e-06
-1.67128e-06
-3.0721e-06
-1.99997e-06
-4.30482e-06
-2.20376e-06
-5.41636e-06
-2.08939e-06
-6.12357e-06
-1.51847e-06
-6.13505e-06
-6.28106e-07
-4.90694e-06
-2.06781e-06
-7.27522e-08
4.51441e-07
-1.97089e-07
1.23678e-06
-2.89275e-07
1.90542e-06
-3.02683e-07
2.41191e-06
-2.25337e-07
2.75422e-06
-5.21153e-08
2.93861e-06
2.10827e-07
2.99625e-06
5.41081e-07
2.98648e-06
9.16351e-07
2.93427e-06
1.31347e-06
2.83822e-06
1.69826e-06
2.67654e-06
2.02816e-06
2.41966e-06
2.23946e-06
2.01656e-06
2.23365e-06
1.42812e-06
1.78532e-06
5.46675e-07
8.13792e-07
-6.313e-07
-2.94329e-07
-1.39933e-06
-1.01663e-06
-1.19973e-06
-1.17167e-06
-4.24086e-07
-8.06472e-07
5.59952e-07
-9.60908e-08
1.28157e-06
6.96722e-07
1.34744e-06
1.3177e-06
6.23726e-07
1.52423e-06
-4.56643e-07
1.32878e-06
-1.5449e-06
8.56362e-07
-2.59968e-06
1.84215e-07
-3.63267e-06
-5.47841e-07
-4.68431e-06
-1.08319e-06
-5.58822e-06
-1.11708e-06
-6.10115e-06
-6.04941e-07
-5.41908e-06
-2.67275e-06
-1.5636e-07
6.07801e-07
-3.55484e-07
1.4359e-06
-4.38581e-07
1.98852e-06
-3.61494e-07
2.33483e-06
-1.35797e-07
2.52852e-06
2.19478e-07
2.58333e-06
6.64845e-07
2.55088e-06
1.16848e-06
2.48284e-06
1.71074e-06
2.39201e-06
2.27248e-06
2.27648e-06
2.82755e-06
2.12147e-06
3.34164e-06
1.90557e-06
3.76448e-06
1.59372e-06
4.03014e-06
1.16245e-06
3.99895e-06
5.77867e-07
3.5391e-06
-1.71451e-07
2.8317e-06
-6.91934e-07
2.2531e-06
-6.21129e-07
2.02355e-06
-1.94533e-07
2.21424e-06
3.69266e-07
2.72063e-06
7.75179e-07
3.30336e-06
7.64707e-07
3.68895e-06
2.38131e-07
3.73675e-06
-5.04438e-07
3.45495e-06
-1.2631e-06
2.88843e-06
-2.03316e-06
2.08899e-06
-2.83323e-06
1.10057e-06
-3.69589e-06
1.20833e-07
-4.60848e-06
-5.33159e-07
-5.44716e-06
-4.95909e-07
-5.45633e-06
-3.16866e-06
-2.82953e-07
8.90753e-07
-5.45056e-07
1.69801e-06
-5.58527e-07
2.00199e-06
-3.3505e-07
2.11135e-06
7.53415e-08
2.11813e-06
6.10084e-07
2.04859e-06
1.21013e-06
1.95083e-06
1.85134e-06
1.84163e-06
2.5173e-06
1.72604e-06
3.19226e-06
1.60152e-06
3.85505e-06
1.45868e-06
4.47681e-06
1.28381e-06
5.01478e-06
1.05576e-06
5.41561e-06
7.61618e-07
5.59725e-06
3.96229e-07
5.46181e-06
-3.60064e-08
5.0936e-06
-3.23729e-07
4.74969e-06
-2.77214e-07
4.59802e-06
-4.28686e-08
4.70811e-06
2.59183e-07
5.02541e-06
4.57874e-07
5.39047e-06
3.99645e-07
5.58771e-06
4.08921e-08
5.51564e-06
-4.32363e-07
5.16405e-06
-9.11512e-07
4.54026e-06
-1.40937e-06
3.66171e-06
-1.95468e-06
2.56181e-06
-2.59599e-06
1.34448e-06
-3.39115e-06
2.30122e-07
-4.3328e-06
-2.8759e-07
-4.93862e-06
-3.45625e-06
-4.25565e-07
1.31632e-06
-6.05658e-07
1.8781e-06
-3.75086e-07
1.77142e-06
1.14138e-07
1.62213e-06
7.45551e-07
1.48672e-06
1.4405e-06
1.35364e-06
2.16692e-06
1.22442e-06
2.90457e-06
1.10398e-06
3.63941e-06
9.91197e-07
4.35803e-06
8.82901e-07
5.04317e-06
7.73539e-07
5.67145e-06
6.55537e-07
6.20901e-06
5.182e-07
6.61475e-06
3.55876e-07
6.84067e-06
1.70311e-07
6.83281e-06
-2.81476e-08
6.65075e-06
-1.41668e-07
6.4761e-06
-1.02563e-07
6.41767e-06
1.55569e-08
6.51954e-06
1.57316e-07
6.7414e-06
2.36013e-07
6.96628e-06
1.74762e-07
7.03826e-06
-3.10808e-08
6.88827e-06
-2.82373e-07
6.50792e-06
-5.3117e-07
5.8905e-06
-7.91938e-07
5.02862e-06
-1.0928e-06
3.91839e-06
-1.48576e-06
2.58584e-06
-2.0586e-06
1.16437e-06
-2.91133e-06
1.01539e-07
-3.87579e-06
-3.35471e-06
-3.81867e-07
1.69818e-06
3.23056e-08
1.46393e-06
7.94067e-07
1.00965e-06
1.59311e-06
8.23087e-07
2.39398e-06
6.85839e-07
3.18102e-06
5.66604e-07
3.93633e-06
4.69104e-07
4.65027e-06
3.90043e-07
5.31677e-06
3.247e-07
5.93011e-06
2.69557e-07
6.48257e-06
2.21085e-07
6.96259e-06
1.75514e-07
7.35218e-06
1.28611e-07
7.62965e-06
7.84059e-08
7.77408e-06
2.58785e-08
7.76987e-06
-2.39371e-08
7.6715e-06
-4.32924e-08
7.59169e-06
-2.27608e-08
7.59045e-06
1.6802e-08
7.68805e-06
5.97198e-08
7.84686e-06
7.7196e-08
7.97657e-06
4.50532e-08
7.9761e-06
-3.06071e-08
7.80751e-06
-1.13789e-07
7.46921e-06
-1.9287e-07
6.95348e-06
-2.76207e-07
6.24033e-06
-3.79653e-07
5.29055e-06
-5.35976e-07
4.04328e-06
-8.11328e-07
2.45263e-06
-1.32067e-06
7.56477e-07
-2.17964e-06
-2.59823e-06
1.69818e-06
3.16211e-06
4.17176e-06
4.99485e-06
5.68069e-06
6.24729e-06
6.7164e-06
7.10644e-06
7.43114e-06
7.7007e-06
7.92178e-06
8.0973e-06
8.22591e-06
8.30431e-06
8.33019e-06
8.30626e-06
8.26296e-06
8.2402e-06
8.25701e-06
8.31673e-06
8.39392e-06
8.43897e-06
8.40837e-06
8.29458e-06
8.10171e-06
7.8255e-06
7.44585e-06
6.90987e-06
6.09855e-06
4.77787e-06
2.59823e-06
)
;

boundaryField
{
    movingWall
    {
        type            calculated;
        value           uniform 0;
    }
    fixedWalls
    {
        type            calculated;
        value           uniform 0;
    }
    floor
    {
        type            calculated;
        value           uniform 0;
    }
    frontAndBack
    {
        type            empty;
        value           nonuniform List<scalar> 0();
    }
}


// ************************************************************************* //
