/*--------------------------------*- C++ -*----------------------------------*\
| =========                 |                                                 |
| \\      /  F ield         | OpenFOAM: The Open Source CFD Toolbox           |
|  \\    /   O peration     | Version:  2212                                  |
|   \\  /    A nd           | Website:  www.openfoam.com                      |
|    \\/     M anipulation  |                                                 |
\*---------------------------------------------------------------------------*/
FoamFile
{
    version     2.0;
    format      ascii;
    arch        "LSB;label=64;scalar=64";
    class       volScalarField;
    location    "200";
    object      T;
}
// * * * * * * * * * * * * * * * * * * * * * * * * * * * * * * * * * * * * * //

dimensions      [0 0 0 1 0 0 0];

internalField   nonuniform List<scalar> 
1024
(
309.953
309.96
309.958
309.953
309.946
309.94
309.934
309.927
309.921
309.915
309.908
309.9
309.89
309.881
309.876
309.879
309.896
309.904
309.911
309.915
309.919
309.923
309.927
309.931
309.936
309.941
309.947
309.953
309.959
309.964
309.967
309.969
309.881
309.879
309.869
309.852
309.832
309.811
309.792
309.773
309.753
309.733
309.711
309.687
309.658
309.632
309.616
309.626
309.675
309.701
309.72
309.735
309.747
309.758
309.77
309.784
309.798
309.814
309.832
309.851
309.871
309.888
309.899
309.903
309.799
309.792
309.772
309.741
309.705
309.669
309.635
309.602
309.569
309.534
309.497
309.456
309.411
309.373
309.352
309.364
309.439
309.48
309.511
309.534
309.554
309.573
309.594
309.618
309.643
309.671
309.702
309.738
309.773
309.804
309.824
309.832
309.714
309.703
309.672
309.625
309.572
309.52
309.471
309.424
309.378
309.33
309.28
309.228
309.179
309.14
309.118
309.13
309.209
309.258
309.295
309.326
309.351
309.376
309.403
309.436
309.473
309.514
309.561
309.614
309.668
309.716
309.747
309.759
309.633
309.617
309.575
309.511
309.44
309.373
309.312
309.254
309.198
309.143
309.09
309.039
308.997
308.966
308.949
308.955
309.017
309.062
309.098
309.129
309.156
309.183
309.214
309.253
309.299
309.352
309.415
309.486
309.561
309.627
309.67
309.686
309.557
309.538
309.485
309.406
309.321
309.241
309.17
309.107
309.049
308.997
308.95
308.912
308.885
308.864
308.851
308.85
308.884
308.914
308.942
308.967
308.991
309.015
309.045
309.085
309.136
309.2
309.276
309.364
309.458
309.541
309.595
309.615
309.489
309.468
309.408
309.318
309.221
309.134
309.059
308.996
308.944
308.901
308.869
308.847
308.833
308.821
308.81
308.801
308.81
308.824
308.839
308.855
308.871
308.89
308.914
308.949
309
309.068
309.155
309.257
309.366
309.463
309.526
309.548
309.428
309.407
309.344
309.248
309.145
309.054
308.98
308.923
308.881
308.852
308.835
308.826
308.82
308.812
308.799
308.785
308.779
308.78
308.784
308.79
308.798
308.809
308.826
308.853
308.9
308.968
309.058
309.169
309.289
309.396
309.464
309.486
309.374
309.356
309.294
309.197
309.092
309
308.93
308.882
308.851
308.835
308.829
308.828
308.826
308.818
308.802
308.784
308.771
308.764
308.76
308.759
308.761
308.765
308.775
308.795
308.834
308.897
308.988
309.103
309.229
309.339
309.407
309.428
309.327
309.311
309.256
309.163
309.058
308.968
308.903
308.862
308.842
308.835
308.837
308.841
308.839
308.827
308.808
308.787
308.772
308.761
308.753
308.748
308.745
308.744
308.749
308.762
308.794
308.852
308.941
309.056
309.183
309.292
309.356
309.375
309.285
309.274
309.228
309.143
309.042
308.953
308.891
308.856
308.842
308.842
308.849
308.857
308.854
308.837
308.813
308.792
308.775
308.763
308.753
308.745
308.74
308.736
308.737
308.746
308.772
308.825
308.91
309.023
309.147
309.251
309.309
309.325
309.248
309.241
309.206
309.138
309.045
308.957
308.894
308.859
308.847
308.85
308.863
308.874
308.867
308.844
308.819
308.796
308.778
308.764
308.753
308.745
308.738
308.733
308.731
308.738
308.76
308.809
308.89
308.999
309.118
309.214
309.265
309.279
309.214
309.21
309.187
309.136
309.063
308.986
308.922
308.88
308.862
308.864
308.881
308.89
308.877
308.85
308.821
308.797
308.778
308.764
308.753
308.744
308.737
308.731
308.728
308.733
308.753
308.799
308.877
308.982
309.093
309.179
309.224
309.235
309.182
309.18
309.167
309.135
309.084
309.026
308.972
308.932
308.91
308.905
308.913
308.907
308.883
308.849
308.818
308.794
308.776
308.762
308.751
308.742
308.734
308.728
308.725
308.729
308.749
308.792
308.867
308.967
309.07
309.147
309.185
309.194
309.144
309.145
309.141
309.126
309.097
309.061
309.024
308.994
308.975
308.965
308.948
308.916
308.875
308.837
308.808
308.787
308.771
308.757
308.745
308.736
308.728
308.722
308.72
308.725
308.745
308.789
308.862
308.957
309.051
309.118
309.149
309.157
309.066
309.071
309.078
309.08
309.073
309.058
309.039
309.02
309.001
308.968
308.923
308.876
308.835
308.807
308.789
308.777
308.763
308.748
308.736
308.725
308.717
308.712
308.713
308.721
308.744
308.791
308.866
308.957
309.039
309.093
309.117
309.123
308.833
308.841
308.858
308.879
308.894
308.899
308.891
308.869
308.838
308.811
308.792
308.78
308.775
308.775
308.776
308.772
308.758
308.738
308.719
308.709
308.704
308.704
308.71
308.726
308.76
308.819
308.893
308.97
309.034
309.075
309.093
309.097
308.718
308.719
308.721
308.724
308.728
308.733
308.738
308.742
308.747
308.753
308.76
308.767
308.775
308.782
308.784
308.778
308.762
308.736
308.712
308.706
308.709
308.719
308.737
308.766
308.809
308.865
308.928
308.988
309.035
309.063
309.075
309.078
308.711
308.712
308.715
308.719
308.725
308.733
308.74
308.748
308.757
308.764
308.772
308.779
308.785
308.79
308.793
308.791
308.781
308.762
308.746
308.744
308.753
308.77
308.795
308.827
308.868
308.914
308.962
309.004
309.035
309.053
309.06
309.061
308.716
308.718
308.721
308.727
308.735
308.743
308.751
308.758
308.765
308.771
308.776
308.782
308.788
308.795
308.802
308.808
308.81
308.806
308.802
308.804
308.815
308.834
308.858
308.887
308.92
308.953
308.985
309.01
309.026
309.032
309.03
309.027
308.719
308.721
308.725
308.731
308.739
308.746
308.753
308.758
308.763
308.767
308.771
308.776
308.783
308.791
308.801
308.814
308.828
308.84
308.847
308.853
308.865
308.881
308.9
308.919
308.938
308.954
308.963
308.964
308.953
308.929
308.908
308.899
308.715
308.717
308.721
308.726
308.733
308.738
308.743
308.746
308.749
308.751
308.755
308.759
308.763
308.77
308.781
308.796
308.816
308.836
308.85
308.857
308.863
308.868
308.87
308.865
308.852
308.828
308.79
308.749
308.717
308.706
308.707
308.71
308.71
308.712
308.715
308.72
308.726
308.73
308.732
308.733
308.732
308.732
308.731
308.732
308.735
308.739
308.747
308.76
308.778
308.797
308.809
308.813
308.808
308.795
308.772
308.739
308.701
308.664
308.646
308.639
308.635
308.635
308.636
308.638
308.705
308.707
308.71
308.715
308.719
308.722
308.723
308.722
308.72
308.716
308.712
308.708
308.705
308.707
308.711
308.72
308.734
308.749
308.758
308.759
308.748
308.725
308.695
308.663
308.638
308.63
308.628
308.627
308.626
308.626
308.625
308.624
308.701
308.703
308.706
308.71
308.714
308.717
308.717
308.715
308.711
308.706
308.7
308.693
308.686
308.682
308.684
308.689
308.699
308.711
308.719
308.72
308.708
308.687
308.661
308.64
308.631
308.629
308.628
308.628
308.628
308.627
308.626
308.625
308.697
308.699
308.702
308.706
308.709
308.712
308.712
308.71
308.706
308.7
308.693
308.686
308.678
308.67
308.666
308.667
308.673
308.682
308.691
308.695
308.688
308.671
308.652
308.638
308.633
308.632
308.631
308.631
308.63
308.63
308.629
308.628
308.694
308.696
308.699
308.702
308.705
308.707
308.707
308.705
308.701
308.696
308.689
308.682
308.674
308.667
308.661
308.657
308.658
308.663
308.67
308.676
308.675
308.664
308.651
308.643
308.638
308.636
308.634
308.633
308.632
308.632
308.631
308.63
308.691
308.693
308.696
308.699
308.701
308.703
308.702
308.7
308.697
308.693
308.687
308.681
308.674
308.667
308.661
308.656
308.653
308.653
308.656
308.66
308.662
308.658
308.652
308.646
308.642
308.639
308.637
308.636
308.634
308.633
308.632
308.632
308.689
308.691
308.693
308.695
308.697
308.698
308.698
308.696
308.693
308.69
308.685
308.681
308.675
308.669
308.664
308.658
308.654
308.651
308.65
308.652
308.653
308.652
308.649
308.646
308.643
308.641
308.639
308.637
308.636
308.635
308.634
308.633
308.687
308.688
308.69
308.692
308.693
308.693
308.693
308.692
308.69
308.688
308.684
308.681
308.677
308.672
308.667
308.661
308.656
308.652
308.65
308.649
308.648
308.648
308.646
308.644
308.643
308.641
308.64
308.638
308.637
308.636
308.635
308.634
308.686
308.686
308.687
308.688
308.689
308.689
308.689
308.689
308.687
308.686
308.684
308.681
308.678
308.674
308.669
308.664
308.659
308.654
308.651
308.649
308.647
308.646
308.645
308.644
308.642
308.641
308.64
308.639
308.638
308.637
308.636
308.635
308.685
308.685
308.685
308.686
308.686
308.687
308.687
308.687
308.686
308.685
308.684
308.681
308.679
308.675
308.671
308.665
308.66
308.656
308.652
308.649
308.647
308.646
308.645
308.643
308.642
308.641
308.64
308.64
308.639
308.638
308.637
308.635
)
;

boundaryField
{
    movingWall
    {
        type            zeroGradient;
    }
    fixedWalls
    {
        type            zeroGradient;
    }
    floor
    {
        type            fixedValue;
        value           uniform 310;
    }
    frontAndBack
    {
        type            empty;
    }
}


// ************************************************************************* //
