/*--------------------------------*- C++ -*----------------------------------*\
| =========                 |                                                 |
| \\      /  F ield         | OpenFOAM: The Open Source CFD Toolbox           |
|  \\    /   O peration     | Version:  2212                                  |
|   \\  /    A nd           | Website:  www.openfoam.com                      |
|    \\/     M anipulation  |                                                 |
\*---------------------------------------------------------------------------*/
FoamFile
{
    version     2.0;
    format      ascii;
    arch        "LSB;label=64;scalar=64";
    class       volScalarField;
    location    "200";
    object      Xli;
}
// * * * * * * * * * * * * * * * * * * * * * * * * * * * * * * * * * * * * * //

dimensions      [1 -3 0 0 0 0 0];

internalField   nonuniform List<scalar> 
1024
(
0.0429219
0.0429224
0.0429231
0.042924
0.0429253
0.0429268
0.0429286
0.0429305
0.0429325
0.0429344
0.0429363
0.0429382
0.0429399
0.0429411
0.0429413
0.0429397
0.0429364
0.0429327
0.0429293
0.0429263
0.0429237
0.0429216
0.0429199
0.0429184
0.0429172
0.0429161
0.0429152
0.0429145
0.0429139
0.0429135
0.0429133
0.0429132
0.0429223
0.0429226
0.0429232
0.0429242
0.0429254
0.042927
0.0429288
0.0429307
0.0429327
0.0429346
0.0429365
0.0429384
0.0429401
0.0429413
0.0429415
0.04294
0.0429366
0.0429329
0.0429294
0.0429264
0.0429238
0.0429217
0.04292
0.0429185
0.0429173
0.0429162
0.0429153
0.0429145
0.0429139
0.0429136
0.0429133
0.0429132
0.0429226
0.0429229
0.0429234
0.0429244
0.0429257
0.0429273
0.0429292
0.0429311
0.042933
0.0429349
0.0429369
0.0429388
0.0429405
0.0429419
0.0429422
0.0429406
0.0429371
0.0429332
0.0429297
0.0429266
0.042924
0.0429219
0.0429201
0.0429186
0.0429174
0.0429163
0.0429154
0.0429146
0.042914
0.0429136
0.0429134
0.0429133
0.0429229
0.0429231
0.0429237
0.0429247
0.0429261
0.0429277
0.0429296
0.0429315
0.0429334
0.0429353
0.0429373
0.0429393
0.0429412
0.0429428
0.0429433
0.0429417
0.042938
0.0429339
0.0429301
0.0429269
0.0429242
0.042922
0.0429202
0.0429187
0.0429175
0.0429164
0.0429155
0.0429147
0.0429141
0.0429136
0.0429134
0.0429133
0.0429231
0.0429233
0.0429239
0.042925
0.0429264
0.0429281
0.04293
0.0429318
0.0429337
0.0429356
0.0429377
0.0429399
0.0429422
0.0429442
0.0429451
0.0429436
0.0429393
0.0429348
0.0429307
0.0429272
0.0429244
0.042922
0.0429202
0.0429187
0.0429175
0.0429164
0.0429155
0.0429147
0.0429141
0.0429137
0.0429134
0.0429133
0.0429232
0.0429235
0.0429241
0.0429252
0.0429266
0.0429283
0.0429301
0.0429319
0.0429338
0.0429357
0.0429379
0.0429404
0.0429432
0.0429459
0.0429476
0.0429461
0.0429413
0.042936
0.0429314
0.0429275
0.0429244
0.0429218
0.0429199
0.0429184
0.0429172
0.0429163
0.0429154
0.0429147
0.0429141
0.0429136
0.0429134
0.0429133
0.0429233
0.0429236
0.0429242
0.0429252
0.0429266
0.0429282
0.0429299
0.0429316
0.0429334
0.0429353
0.0429376
0.0429405
0.042944
0.0429479
0.0429505
0.0429494
0.0429439
0.0429376
0.0429322
0.0429277
0.0429241
0.0429213
0.0429192
0.0429178
0.0429167
0.0429158
0.0429151
0.0429145
0.042914
0.0429136
0.0429133
0.0429132
0.0429233
0.0429236
0.0429241
0.0429251
0.0429263
0.0429278
0.0429293
0.0429307
0.0429324
0.0429343
0.0429367
0.04294
0.0429444
0.0429496
0.0429538
0.0429533
0.0429471
0.0429396
0.0429331
0.0429278
0.0429236
0.0429204
0.0429182
0.0429167
0.0429158
0.0429151
0.0429146
0.0429141
0.0429137
0.0429134
0.0429132
0.0429131
0.0429231
0.0429234
0.0429239
0.0429247
0.0429257
0.0429269
0.0429281
0.0429293
0.0429306
0.0429323
0.0429348
0.0429385
0.0429439
0.0429509
0.0429571
0.0429575
0.0429507
0.0429419
0.042934
0.0429277
0.0429227
0.0429192
0.0429167
0.0429153
0.0429145
0.0429141
0.0429138
0.0429136
0.0429133
0.0429131
0.042913
0.0429129
0.0429227
0.042923
0.0429234
0.042924
0.0429248
0.0429256
0.0429264
0.0429272
0.0429281
0.0429295
0.0429318
0.0429358
0.0429423
0.0429516
0.0429603
0.042962
0.0429546
0.0429443
0.0429349
0.0429273
0.0429215
0.0429175
0.0429149
0.0429134
0.0429129
0.0429128
0.0429128
0.0429128
0.0429128
0.0429127
0.0429126
0.0429125
0.0429221
0.0429223
0.0429226
0.0429231
0.0429235
0.042924
0.0429243
0.0429245
0.0429249
0.0429257
0.0429278
0.042932
0.04294
0.0429521
0.0429637
0.0429665
0.0429585
0.0429465
0.0429354
0.0429265
0.0429199
0.0429153
0.0429126
0.0429113
0.042911
0.0429112
0.0429116
0.0429119
0.0429121
0.0429121
0.0429121
0.042912
0.0429211
0.0429212
0.0429215
0.0429218
0.042922
0.0429221
0.0429218
0.0429215
0.0429212
0.0429216
0.0429233
0.0429281
0.0429381
0.0429535
0.042968
0.0429713
0.0429618
0.0429479
0.0429352
0.042925
0.0429175
0.0429126
0.0429098
0.0429087
0.0429088
0.0429094
0.0429102
0.0429109
0.0429112
0.0429114
0.0429114
0.0429113
0.0429195
0.0429197
0.0429199
0.0429201
0.0429201
0.0429199
0.0429193
0.0429186
0.0429179
0.0429178
0.0429197
0.0429257
0.0429388
0.0429581
0.0429744
0.0429764
0.042964
0.0429477
0.0429333
0.0429221
0.0429141
0.0429091
0.0429065
0.0429058
0.0429063
0.0429074
0.0429086
0.0429096
0.0429102
0.0429104
0.0429105
0.0429104
0.0429175
0.0429178
0.0429181
0.0429185
0.0429186
0.0429184
0.0429177
0.0429166
0.0429156
0.0429156
0.0429187
0.0429278
0.0429455
0.0429684
0.0429841
0.0429811
0.0429636
0.0429443
0.0429286
0.0429169
0.0429091
0.0429044
0.0429024
0.0429023
0.0429035
0.0429052
0.0429068
0.0429081
0.0429089
0.0429092
0.0429093
0.0429093
0.042914
0.0429139
0.0429137
0.0429136
0.0429134
0.0429132
0.0429129
0.0429128
0.0429134
0.0429165
0.0429247
0.0429406
0.0429642
0.0429877
0.0429962
0.0429826
0.0429578
0.0429357
0.0429196
0.0429087
0.0429019
0.0428984
0.0428974
0.0428983
0.0429003
0.0429026
0.0429047
0.0429063
0.0429072
0.0429077
0.0429078
0.0429078
0.0429287
0.0429278
0.0429261
0.042924
0.042922
0.0429209
0.0429212
0.0429239
0.0429298
0.0429403
0.0429569
0.0429793
0.0430024
0.0430143
0.0430039
0.0429745
0.0429426
0.04292
0.0429058
0.0428973
0.0428929
0.0428913
0.0428919
0.042894
0.0428969
0.0428999
0.0429025
0.0429044
0.0429055
0.0429061
0.0429062
0.0429062
0.042996
0.0429955
0.0429944
0.0429928
0.0429913
0.0429908
0.0429922
0.0429966
0.0430046
0.0430161
0.0430297
0.0430409
0.043042
0.043025
0.0429915
0.0429523
0.042921
0.0429024
0.0428925
0.0428875
0.0428856
0.042886
0.042888
0.0428911
0.0428945
0.0428978
0.0429004
0.0429022
0.0429033
0.0429037
0.0429039
0.0429039
0.0430636
0.0430639
0.0430644
0.043065
0.0430655
0.0430661
0.0430671
0.0430687
0.0430707
0.0430717
0.043069
0.0430591
0.0430392
0.0430101
0.0429757
0.0429408
0.0429125
0.0428958
0.0428877
0.0428845
0.0428841
0.0428856
0.0428882
0.0428915
0.0428949
0.0428979
0.0429003
0.0429018
0.0429025
0.0429026
0.0429026
0.0429026
0.0430964
0.0430968
0.0430974
0.0430981
0.0430986
0.0430987
0.0430981
0.0430968
0.043094
0.043089
0.0430802
0.0430665
0.0430467
0.0430205
0.0429885
0.0429529
0.042921
0.0429008
0.042891
0.0428875
0.0428877
0.0428898
0.0428927
0.0428954
0.0428975
0.0428986
0.0428989
0.0428989
0.0428993
0.0429004
0.0429018
0.0429027
0.0431127
0.043113
0.0431135
0.0431141
0.0431147
0.043115
0.043115
0.0431143
0.0431124
0.0431087
0.0431023
0.043092
0.0430765
0.0430541
0.0430238
0.0429862
0.0429482
0.0429204
0.0429046
0.0428966
0.042893
0.0428914
0.0428908
0.0428907
0.0428917
0.0428945
0.0429
0.0429086
0.0429196
0.0429307
0.0429393
0.0429435
0.0431236
0.0431239
0.0431246
0.0431257
0.0431272
0.0431292
0.0431315
0.0431338
0.0431357
0.0431365
0.0431354
0.0431313
0.0431221
0.0431057
0.0430795
0.0430427
0.0430009
0.0429667
0.042945
0.0429332
0.0429286
0.0429297
0.0429359
0.0429473
0.0429639
0.0429854
0.0430103
0.043036
0.0430591
0.0430769
0.0430875
0.0430917
0.0431322
0.0431326
0.0431334
0.0431351
0.0431379
0.0431419
0.043147
0.0431531
0.0431597
0.0431661
0.0431716
0.043175
0.0431742
0.0431664
0.0431482
0.0431172
0.0430778
0.0430445
0.043026
0.0430217
0.0430307
0.0430518
0.0430834
0.0431227
0.0431656
0.0432078
0.043245
0.0432735
0.0432909
0.043298
0.0432984
0.043297
0.0431401
0.0431404
0.0431412
0.0431431
0.0431465
0.0431518
0.0431592
0.0431684
0.0431791
0.0431907
0.0432027
0.0432138
0.0432223
0.0432248
0.0432174
0.0431961
0.0431636
0.0431354
0.0431249
0.0431335
0.0431603
0.0432029
0.043256
0.0433126
0.0433655
0.0434088
0.0434402
0.0434585
0.0434649
0.0434625
0.043456
0.0434511
0.0431492
0.0431492
0.0431497
0.0431514
0.0431548
0.0431606
0.0431691
0.0431803
0.0431938
0.0432093
0.0432261
0.0432435
0.0432601
0.0432729
0.0432772
0.0432676
0.0432438
0.0432198
0.0432127
0.0432271
0.0432617
0.0433113
0.0433673
0.0434209
0.0434653
0.0434975
0.0435188
0.0435309
0.0435356
0.0435347
0.0435307
0.043527
0.0431621
0.0431616
0.0431614
0.0431623
0.0431653
0.0431712
0.0431803
0.0431927
0.0432081
0.043226
0.0432459
0.0432674
0.0432894
0.0433099
0.0433245
0.0433269
0.0433129
0.0432926
0.0432838
0.0432945
0.043325
0.043369
0.0434169
0.0434601
0.043494
0.0435186
0.043536
0.0435478
0.0435548
0.0435577
0.0435575
0.043556
0.0431816
0.0431804
0.0431791
0.0431791
0.0431817
0.0431876
0.0431975
0.043211
0.0432277
0.0432472
0.0432689
0.0432923
0.0433169
0.0433413
0.0433625
0.0433743
0.0433701
0.043355
0.0433443
0.0433475
0.0433677
0.0434004
0.0434373
0.043471
0.0434985
0.0435202
0.0435375
0.0435509
0.0435604
0.0435659
0.0435679
0.0435678
0.0432103
0.0432082
0.0432059
0.0432053
0.043208
0.0432148
0.0432257
0.0432404
0.0432582
0.0432784
0.0433005
0.0433241
0.0433488
0.0433738
0.043397
0.0434141
0.0434174
0.0434083
0.0433979
0.0433954
0.0434054
0.0434264
0.0434527
0.0434785
0.0435013
0.0435209
0.043538
0.0435524
0.0435636
0.0435708
0.0435742
0.0435749
0.0432498
0.043247
0.0432445
0.0432446
0.0432486
0.0432569
0.0432692
0.0432847
0.0433026
0.0433222
0.0433431
0.043365
0.0433876
0.0434105
0.0434324
0.0434503
0.0434578
0.0434538
0.0434457
0.0434408
0.0434439
0.0434555
0.0434729
0.0434917
0.0435097
0.0435264
0.0435417
0.0435555
0.043567
0.0435752
0.0435795
0.0435806
0.0433015
0.0432987
0.0432976
0.0433
0.0433063
0.0433162
0.043329
0.0433439
0.0433603
0.0433776
0.0433955
0.043414
0.0434327
0.0434516
0.0434698
0.0434855
0.0434939
0.0434931
0.0434878
0.043483
0.0434827
0.0434883
0.0434988
0.0435115
0.0435246
0.0435374
0.0435497
0.0435614
0.0435717
0.0435796
0.0435843
0.0435857
0.0433666
0.0433651
0.0433673
0.0433728
0.0433806
0.0433905
0.043402
0.0434144
0.0434274
0.0434407
0.0434542
0.0434678
0.0434815
0.0434952
0.0435084
0.0435202
0.0435272
0.0435278
0.0435248
0.0435212
0.0435199
0.0435222
0.043528
0.0435358
0.0435443
0.0435529
0.0435615
0.04357
0.043578
0.0435845
0.0435887
0.0435903
0.0434472
0.0434487
0.0434539
0.0434599
0.0434667
0.043474
0.0434818
0.0434899
0.043498
0.0435062
0.0435144
0.0435226
0.0435307
0.0435387
0.0435465
0.0435536
0.043558
0.0435588
0.0435573
0.0435553
0.0435542
0.043555
0.0435578
0.0435618
0.0435664
0.0435712
0.0435761
0.043581
0.0435858
0.0435901
0.0435931
0.0435944
0.0435462
0.0435476
0.0435504
0.043553
0.0435557
0.0435584
0.0435611
0.0435639
0.0435667
0.0435694
0.0435721
0.0435748
0.0435774
0.04358
0.0435825
0.0435848
0.0435863
0.0435867
0.0435862
0.0435856
0.0435852
0.0435854
0.0435862
0.0435874
0.0435888
0.0435903
0.0435918
0.0435934
0.043595
0.0435964
0.0435975
0.043598
)
;

boundaryField
{
    movingWall
    {
        type            fixedValue;
        value           uniform 0.0436;
    }
    fixedWalls
    {
        type            zeroGradient;
    }
    floor
    {
        type            zeroGradient;
    }
    frontAndBack
    {
        type            empty;
    }
}


// ************************************************************************* //
