/*--------------------------------*- C++ -*----------------------------------*\
| =========                 |                                                 |
| \\      /  F ield         | OpenFOAM: The Open Source CFD Toolbox           |
|  \\    /   O peration     | Version:  2212                                  |
|   \\  /    A nd           | Website:  www.openfoam.com                      |
|    \\/     M anipulation  |                                                 |
\*---------------------------------------------------------------------------*/
FoamFile
{
    version     2.0;
    format      ascii;
    arch        "LSB;label=64;scalar=64";
    class       volScalarField;
    location    "1310";
    object      Gh2;
}
// * * * * * * * * * * * * * * * * * * * * * * * * * * * * * * * * * * * * * //

dimensions      [1 -3 0 0 0 0 0];

internalField   nonuniform List<scalar> 
1024
(
1.28469e-05
1.28462e-05
1.28447e-05
1.2842e-05
1.28376e-05
1.28313e-05
1.28227e-05
1.28119e-05
1.27993e-05
1.27856e-05
1.27719e-05
1.27595e-05
1.27499e-05
1.27447e-05
1.27445e-05
1.27502e-05
1.27618e-05
1.27776e-05
1.27959e-05
1.28162e-05
1.28376e-05
1.28594e-05
1.28805e-05
1.28997e-05
1.29161e-05
1.29294e-05
1.29395e-05
1.29468e-05
1.29517e-05
1.29547e-05
1.29564e-05
1.29571e-05
1.28467e-05
1.28461e-05
1.28446e-05
1.28418e-05
1.28373e-05
1.28309e-05
1.28222e-05
1.28112e-05
1.27985e-05
1.27847e-05
1.27709e-05
1.27584e-05
1.27488e-05
1.27435e-05
1.27435e-05
1.27492e-05
1.27608e-05
1.27766e-05
1.2795e-05
1.28152e-05
1.28367e-05
1.28585e-05
1.28797e-05
1.28989e-05
1.29155e-05
1.29289e-05
1.29392e-05
1.29465e-05
1.29515e-05
1.29546e-05
1.29563e-05
1.2957e-05
1.28464e-05
1.28458e-05
1.28442e-05
1.28413e-05
1.28368e-05
1.28301e-05
1.28211e-05
1.28099e-05
1.27969e-05
1.27828e-05
1.27686e-05
1.27557e-05
1.27459e-05
1.27407e-05
1.27408e-05
1.27467e-05
1.27584e-05
1.27744e-05
1.27928e-05
1.28131e-05
1.28346e-05
1.28566e-05
1.28779e-05
1.28974e-05
1.29142e-05
1.29279e-05
1.29384e-05
1.2946e-05
1.29511e-05
1.29542e-05
1.2956e-05
1.29567e-05
1.28459e-05
1.28453e-05
1.28436e-05
1.28406e-05
1.28359e-05
1.28289e-05
1.28196e-05
1.28079e-05
1.27944e-05
1.27796e-05
1.27646e-05
1.27509e-05
1.27406e-05
1.27354e-05
1.27359e-05
1.27423e-05
1.27544e-05
1.27707e-05
1.27893e-05
1.28097e-05
1.28314e-05
1.28536e-05
1.28751e-05
1.2895e-05
1.29122e-05
1.29264e-05
1.29372e-05
1.29451e-05
1.29504e-05
1.29537e-05
1.29555e-05
1.29562e-05
1.28452e-05
1.28445e-05
1.28428e-05
1.28397e-05
1.28347e-05
1.28274e-05
1.28176e-05
1.28053e-05
1.27909e-05
1.2775e-05
1.27585e-05
1.27433e-05
1.27321e-05
1.2727e-05
1.27281e-05
1.27353e-05
1.27482e-05
1.27651e-05
1.27842e-05
1.28051e-05
1.28271e-05
1.28495e-05
1.28714e-05
1.28918e-05
1.29096e-05
1.29242e-05
1.29356e-05
1.29438e-05
1.29494e-05
1.29528e-05
1.29547e-05
1.29554e-05
1.28441e-05
1.28434e-05
1.28417e-05
1.28385e-05
1.28333e-05
1.28257e-05
1.28154e-05
1.28022e-05
1.27865e-05
1.27688e-05
1.275e-05
1.27323e-05
1.27195e-05
1.27143e-05
1.27163e-05
1.27249e-05
1.27391e-05
1.27572e-05
1.27774e-05
1.27991e-05
1.28217e-05
1.28446e-05
1.28671e-05
1.2888e-05
1.29064e-05
1.29217e-05
1.29336e-05
1.29422e-05
1.29481e-05
1.29517e-05
1.29536e-05
1.29544e-05
1.28426e-05
1.28419e-05
1.28402e-05
1.28369e-05
1.28316e-05
1.28237e-05
1.28128e-05
1.27985e-05
1.27811e-05
1.27607e-05
1.27385e-05
1.27173e-05
1.27022e-05
1.26966e-05
1.26998e-05
1.27103e-05
1.27265e-05
1.27466e-05
1.27686e-05
1.27918e-05
1.28155e-05
1.28393e-05
1.28625e-05
1.28841e-05
1.29032e-05
1.29191e-05
1.29314e-05
1.29405e-05
1.29466e-05
1.29503e-05
1.29524e-05
1.29532e-05
1.28403e-05
1.28396e-05
1.2838e-05
1.28348e-05
1.28295e-05
1.28213e-05
1.28097e-05
1.27941e-05
1.27743e-05
1.27503e-05
1.27236e-05
1.26978e-05
1.26795e-05
1.2673e-05
1.26775e-05
1.26904e-05
1.27094e-05
1.27324e-05
1.27573e-05
1.2783e-05
1.28087e-05
1.2834e-05
1.28582e-05
1.28806e-05
1.29003e-05
1.29167e-05
1.29295e-05
1.29388e-05
1.2945e-05
1.29489e-05
1.2951e-05
1.29518e-05
1.28366e-05
1.2836e-05
1.28345e-05
1.28315e-05
1.28262e-05
1.28178e-05
1.28055e-05
1.27883e-05
1.27655e-05
1.2737e-05
1.27045e-05
1.26731e-05
1.26509e-05
1.26431e-05
1.26486e-05
1.26639e-05
1.26862e-05
1.27134e-05
1.27428e-05
1.27725e-05
1.28014e-05
1.2829e-05
1.28548e-05
1.28781e-05
1.28984e-05
1.29151e-05
1.2928e-05
1.29373e-05
1.29435e-05
1.29473e-05
1.29493e-05
1.29501e-05
1.283e-05
1.28295e-05
1.28282e-05
1.28255e-05
1.28203e-05
1.28118e-05
1.27987e-05
1.27795e-05
1.27532e-05
1.27192e-05
1.26799e-05
1.26421e-05
1.26154e-05
1.26058e-05
1.26118e-05
1.26291e-05
1.26548e-05
1.26873e-05
1.27229e-05
1.27586e-05
1.27926e-05
1.28238e-05
1.2852e-05
1.28767e-05
1.28976e-05
1.29143e-05
1.29269e-05
1.29359e-05
1.29418e-05
1.29453e-05
1.29471e-05
1.29478e-05
1.28177e-05
1.28174e-05
1.28164e-05
1.28139e-05
1.28089e-05
1.28001e-05
1.27859e-05
1.27644e-05
1.27338e-05
1.26936e-05
1.26471e-05
1.26026e-05
1.25714e-05
1.25594e-05
1.25647e-05
1.25823e-05
1.26106e-05
1.26489e-05
1.26927e-05
1.27371e-05
1.27787e-05
1.28158e-05
1.28479e-05
1.28748e-05
1.28965e-05
1.29131e-05
1.29251e-05
1.29332e-05
1.29382e-05
1.2941e-05
1.29423e-05
1.29427e-05
1.27951e-05
1.27949e-05
1.27941e-05
1.27917e-05
1.27866e-05
1.27773e-05
1.27615e-05
1.2737e-05
1.27016e-05
1.26551e-05
1.26017e-05
1.25513e-05
1.25157e-05
1.25002e-05
1.25019e-05
1.25162e-05
1.25441e-05
1.25869e-05
1.26396e-05
1.26952e-05
1.2748e-05
1.27946e-05
1.28337e-05
1.2865e-05
1.28887e-05
1.29056e-05
1.29168e-05
1.29235e-05
1.29269e-05
1.29281e-05
1.29283e-05
1.29282e-05
1.27563e-05
1.27561e-05
1.27552e-05
1.27526e-05
1.27468e-05
1.27361e-05
1.2718e-05
1.26897e-05
1.26493e-05
1.25968e-05
1.25379e-05
1.2483e-05
1.24428e-05
1.2421e-05
1.24136e-05
1.24177e-05
1.24376e-05
1.24783e-05
1.25353e-05
1.26007e-05
1.26668e-05
1.27276e-05
1.27795e-05
1.28206e-05
1.28504e-05
1.28701e-05
1.28814e-05
1.28865e-05
1.28874e-05
1.28863e-05
1.28846e-05
1.28834e-05
1.26973e-05
1.26969e-05
1.26954e-05
1.26917e-05
1.26843e-05
1.26709e-05
1.2649e-05
1.26158e-05
1.25698e-05
1.2512e-05
1.24489e-05
1.23903e-05
1.23437e-05
1.23097e-05
1.22845e-05
1.22669e-05
1.22647e-05
1.22868e-05
1.23316e-05
1.23928e-05
1.2463e-05
1.25351e-05
1.2603e-05
1.26612e-05
1.27064e-05
1.27377e-05
1.27559e-05
1.27637e-05
1.27646e-05
1.27621e-05
1.2759e-05
1.2757e-05
1.26216e-05
1.26207e-05
1.26181e-05
1.26122e-05
1.2601e-05
1.25822e-05
1.2553e-05
1.25114e-05
1.24573e-05
1.23939e-05
1.23278e-05
1.22653e-05
1.22087e-05
1.21559e-05
1.21043e-05
1.20542e-05
1.20141e-05
1.19957e-05
1.20015e-05
1.20287e-05
1.20736e-05
1.21316e-05
1.21969e-05
1.22633e-05
1.23252e-05
1.23777e-05
1.24173e-05
1.24431e-05
1.24571e-05
1.24628e-05
1.24638e-05
1.24633e-05
1.25449e-05
1.25437e-05
1.25402e-05
1.25326e-05
1.25185e-05
1.24955e-05
1.2461e-05
1.24138e-05
1.23543e-05
1.22855e-05
1.2212e-05
1.21376e-05
1.20638e-05
1.19894e-05
1.19128e-05
1.18346e-05
1.17617e-05
1.17039e-05
1.16629e-05
1.16381e-05
1.163e-05
1.16388e-05
1.16638e-05
1.17027e-05
1.17514e-05
1.18043e-05
1.18556e-05
1.18997e-05
1.1933e-05
1.19544e-05
1.19656e-05
1.19696e-05
1.24847e-05
1.24835e-05
1.24798e-05
1.24718e-05
1.24572e-05
1.24332e-05
1.23976e-05
1.23486e-05
1.22867e-05
1.22142e-05
1.2135e-05
1.20533e-05
1.19716e-05
1.18911e-05
1.18132e-05
1.17393e-05
1.16739e-05
1.16176e-05
1.15648e-05
1.15141e-05
1.14679e-05
1.14297e-05
1.14027e-05
1.13893e-05
1.13901e-05
1.14037e-05
1.1427e-05
1.14548e-05
1.14814e-05
1.15024e-05
1.15157e-05
1.15214e-05
1.24454e-05
1.24442e-05
1.24407e-05
1.24332e-05
1.24195e-05
1.23971e-05
1.23635e-05
1.2317e-05
1.22573e-05
1.21864e-05
1.21082e-05
1.20273e-05
1.19483e-05
1.18749e-05
1.18108e-05
1.17593e-05
1.17227e-05
1.16916e-05
1.16527e-05
1.16029e-05
1.15456e-05
1.14865e-05
1.14313e-05
1.13846e-05
1.13493e-05
1.13266e-05
1.13158e-05
1.13146e-05
1.13196e-05
1.13267e-05
1.13328e-05
1.13361e-05
1.24214e-05
1.24203e-05
1.2417e-05
1.24103e-05
1.23982e-05
1.23783e-05
1.23484e-05
1.23064e-05
1.2252e-05
1.21864e-05
1.21132e-05
1.20374e-05
1.19645e-05
1.18996e-05
1.18477e-05
1.18126e-05
1.17949e-05
1.17802e-05
1.17519e-05
1.17045e-05
1.1641e-05
1.15678e-05
1.14934e-05
1.14253e-05
1.13691e-05
1.13271e-05
1.12992e-05
1.12836e-05
1.12769e-05
1.12758e-05
1.12769e-05
1.12781e-05
1.24068e-05
1.24058e-05
1.24029e-05
1.2397e-05
1.23866e-05
1.23695e-05
1.23436e-05
1.2307e-05
1.2259e-05
1.22006e-05
1.21347e-05
1.20659e-05
1.19998e-05
1.19419e-05
1.18972e-05
1.18693e-05
1.18576e-05
1.18473e-05
1.1823e-05
1.17785e-05
1.17144e-05
1.16353e-05
1.15489e-05
1.14645e-05
1.13903e-05
1.13315e-05
1.12898e-05
1.12639e-05
1.12504e-05
1.12452e-05
1.12443e-05
1.12448e-05
1.2397e-05
1.23961e-05
1.23938e-05
1.23889e-05
1.23802e-05
1.23658e-05
1.23439e-05
1.23128e-05
1.22716e-05
1.22209e-05
1.21631e-05
1.21022e-05
1.20429e-05
1.19901e-05
1.19484e-05
1.19205e-05
1.1905e-05
1.18897e-05
1.18629e-05
1.18188e-05
1.17564e-05
1.16776e-05
1.1588e-05
1.14958e-05
1.141e-05
1.13381e-05
1.12841e-05
1.12483e-05
1.1228e-05
1.1219e-05
1.12165e-05
1.12166e-05
1.2387e-05
1.23866e-05
1.23851e-05
1.23817e-05
1.23751e-05
1.23637e-05
1.23457e-05
1.23197e-05
1.2285e-05
1.22418e-05
1.21919e-05
1.21382e-05
1.20847e-05
1.2035e-05
1.19926e-05
1.19591e-05
1.19335e-05
1.19079e-05
1.18746e-05
1.18286e-05
1.17677e-05
1.16922e-05
1.16051e-05
1.15125e-05
1.14222e-05
1.13425e-05
1.12792e-05
1.12349e-05
1.12083e-05
1.11954e-05
1.11912e-05
1.11908e-05
1.23709e-05
1.23712e-05
1.23713e-05
1.23701e-05
1.23664e-05
1.23584e-05
1.23445e-05
1.23234e-05
1.22942e-05
1.22572e-05
1.22135e-05
1.21652e-05
1.21149e-05
1.20655e-05
1.2019e-05
1.19765e-05
1.19379e-05
1.19005e-05
1.186e-05
1.18117e-05
1.17529e-05
1.16823e-05
1.1601e-05
1.15131e-05
1.14245e-05
1.13425e-05
1.12739e-05
1.12231e-05
1.11907e-05
1.1174e-05
1.11679e-05
1.11671e-05
1.23422e-05
1.23437e-05
1.2346e-05
1.2348e-05
1.23479e-05
1.23439e-05
1.2334e-05
1.23169e-05
1.22917e-05
1.22584e-05
1.22179e-05
1.21715e-05
1.21212e-05
1.20691e-05
1.20165e-05
1.1964e-05
1.19133e-05
1.18661e-05
1.18202e-05
1.17712e-05
1.17158e-05
1.16518e-05
1.15787e-05
1.14986e-05
1.1416e-05
1.13366e-05
1.12668e-05
1.12121e-05
1.11751e-05
1.11547e-05
1.11467e-05
1.11454e-05
1.2295e-05
1.2298e-05
1.23031e-05
1.23087e-05
1.23124e-05
1.23119e-05
1.23048e-05
1.22897e-05
1.22657e-05
1.22328e-05
1.2192e-05
1.21444e-05
1.20917e-05
1.20356e-05
1.19772e-05
1.19169e-05
1.1858e-05
1.18052e-05
1.17573e-05
1.17101e-05
1.16598e-05
1.16038e-05
1.15406e-05
1.14708e-05
1.13971e-05
1.13239e-05
1.12566e-05
1.12009e-05
1.1161e-05
1.11375e-05
1.11275e-05
1.11256e-05
1.22251e-05
1.22298e-05
1.22377e-05
1.22459e-05
1.22516e-05
1.22522e-05
1.22452e-05
1.2229e-05
1.22031e-05
1.2168e-05
1.21247e-05
1.20747e-05
1.20196e-05
1.19609e-05
1.18997e-05
1.18363e-05
1.17748e-05
1.17213e-05
1.16752e-05
1.16321e-05
1.15884e-05
1.15413e-05
1.14889e-05
1.14307e-05
1.13681e-05
1.13038e-05
1.12422e-05
1.11885e-05
1.11477e-05
1.1122e-05
1.11103e-05
1.11076e-05
1.21298e-05
1.21364e-05
1.21456e-05
1.21538e-05
1.21577e-05
1.21552e-05
1.21445e-05
1.21244e-05
1.20949e-05
1.2057e-05
1.20119e-05
1.19611e-05
1.19063e-05
1.18487e-05
1.17893e-05
1.17283e-05
1.167e-05
1.16204e-05
1.15791e-05
1.15419e-05
1.15057e-05
1.14677e-05
1.14261e-05
1.138e-05
1.13295e-05
1.12761e-05
1.12228e-05
1.11739e-05
1.11345e-05
1.1108e-05
1.10949e-05
1.10915e-05
1.20079e-05
1.20156e-05
1.20234e-05
1.20268e-05
1.20241e-05
1.20145e-05
1.19977e-05
1.19729e-05
1.19409e-05
1.19025e-05
1.18587e-05
1.1811e-05
1.17606e-05
1.17086e-05
1.16558e-05
1.16022e-05
1.15515e-05
1.15093e-05
1.14748e-05
1.14446e-05
1.14161e-05
1.13869e-05
1.13555e-05
1.13208e-05
1.12825e-05
1.12409e-05
1.11978e-05
1.11562e-05
1.11205e-05
1.1095e-05
1.10812e-05
1.10771e-05
1.18575e-05
1.18644e-05
1.18663e-05
1.18605e-05
1.18481e-05
1.18308e-05
1.18087e-05
1.1782e-05
1.1751e-05
1.1716e-05
1.16779e-05
1.16375e-05
1.15956e-05
1.15531e-05
1.15104e-05
1.14676e-05
1.14275e-05
1.13945e-05
1.13679e-05
1.13451e-05
1.1324e-05
1.1303e-05
1.12807e-05
1.12563e-05
1.12291e-05
1.11991e-05
1.1167e-05
1.11346e-05
1.1105e-05
1.10823e-05
1.1069e-05
1.10645e-05
1.16746e-05
1.16773e-05
1.16691e-05
1.16534e-05
1.16341e-05
1.16131e-05
1.15907e-05
1.15668e-05
1.15412e-05
1.15139e-05
1.14851e-05
1.14552e-05
1.14246e-05
1.13939e-05
1.13634e-05
1.1333e-05
1.13049e-05
1.12817e-05
1.12633e-05
1.12478e-05
1.12336e-05
1.12198e-05
1.12053e-05
1.11896e-05
1.11721e-05
1.11527e-05
1.11313e-05
1.11089e-05
1.10873e-05
1.10694e-05
1.10579e-05
1.10536e-05
1.14516e-05
1.14463e-05
1.14307e-05
1.14129e-05
1.13952e-05
1.13781e-05
1.13616e-05
1.13453e-05
1.13289e-05
1.1312e-05
1.12945e-05
1.12767e-05
1.12586e-05
1.12405e-05
1.12227e-05
1.1205e-05
1.11887e-05
1.11754e-05
1.11648e-05
1.1156e-05
1.11481e-05
1.11404e-05
1.11324e-05
1.11239e-05
1.11144e-05
1.11039e-05
1.10923e-05
1.10796e-05
1.10669e-05
1.10556e-05
1.10476e-05
1.10442e-05
1.11793e-05
1.11751e-05
1.1167e-05
1.11593e-05
1.11522e-05
1.11456e-05
1.11395e-05
1.11338e-05
1.11282e-05
1.11226e-05
1.11168e-05
1.1111e-05
1.11051e-05
1.10992e-05
1.10935e-05
1.10878e-05
1.10825e-05
1.10782e-05
1.10748e-05
1.1072e-05
1.10695e-05
1.10671e-05
1.10646e-05
1.1062e-05
1.1059e-05
1.10558e-05
1.10522e-05
1.10482e-05
1.10442e-05
1.10404e-05
1.10375e-05
1.10361e-05
)
;

boundaryField
{
    movingWall
    {
        type            fixedValue;
        value           uniform 1.1032e-05;
    }
    fixedWalls
    {
        type            zeroGradient;
    }
    floor
    {
        type            zeroGradient;
    }
    frontAndBack
    {
        type            empty;
    }
}


// ************************************************************************* //
