/*--------------------------------*- C++ -*----------------------------------*\
| =========                 |                                                 |
| \\      /  F ield         | OpenFOAM: The Open Source CFD Toolbox           |
|  \\    /   O peration     | Version:  2212                                  |
|   \\  /    A nd           | Website:  www.openfoam.com                      |
|    \\/     M anipulation  |                                                 |
\*---------------------------------------------------------------------------*/
FoamFile
{
    version     2.0;
    format      ascii;
    arch        "LSB;label=64;scalar=64";
    class       volScalarField;
    location    "1310";
    object      Saa;
}
// * * * * * * * * * * * * * * * * * * * * * * * * * * * * * * * * * * * * * //

dimensions      [1 -3 0 0 0 0 0];

internalField   nonuniform List<scalar> 
1024
(
0.00546268
0.0054627
0.00546274
0.00546281
0.00546293
0.00546311
0.00546334
0.00546363
0.00546397
0.00546433
0.00546469
0.00546502
0.00546526
0.00546538
0.00546536
0.00546517
0.00546482
0.00546435
0.00546381
0.00546322
0.0054626
0.00546195
0.00546133
0.00546076
0.00546026
0.00545986
0.00545956
0.00545934
0.00545919
0.0054591
0.00545905
0.00545903
0.00546268
0.0054627
0.00546274
0.00546282
0.00546294
0.00546312
0.00546335
0.00546365
0.00546399
0.00546436
0.00546472
0.00546505
0.00546529
0.00546541
0.00546538
0.00546519
0.00546484
0.00546437
0.00546384
0.00546325
0.00546262
0.00546198
0.00546135
0.00546078
0.00546028
0.00545988
0.00545957
0.00545934
0.00545919
0.0054591
0.00545905
0.00545903
0.00546269
0.00546271
0.00546275
0.00546283
0.00546296
0.00546314
0.00546338
0.00546368
0.00546403
0.00546441
0.00546478
0.00546512
0.00546537
0.00546548
0.00546545
0.00546526
0.0054649
0.00546443
0.00546389
0.00546331
0.00546268
0.00546203
0.0054614
0.00546082
0.00546032
0.00545991
0.00545959
0.00545936
0.00545921
0.00545911
0.00545906
0.00545904
0.00546271
0.00546272
0.00546277
0.00546285
0.00546298
0.00546317
0.00546342
0.00546374
0.0054641
0.00546449
0.00546489
0.00546524
0.0054655
0.00546562
0.00546558
0.00546537
0.005465
0.00546452
0.00546398
0.00546339
0.00546276
0.00546212
0.00546148
0.00546089
0.00546037
0.00545995
0.00545962
0.00545939
0.00545923
0.00545913
0.00545907
0.00545905
0.00546273
0.00546275
0.00546279
0.00546288
0.00546301
0.00546321
0.00546347
0.00546381
0.00546419
0.00546462
0.00546505
0.00546544
0.00546572
0.00546584
0.00546577
0.00546554
0.00546515
0.00546466
0.00546411
0.00546351
0.00546288
0.00546222
0.00546158
0.00546098
0.00546045
0.00546001
0.00545967
0.00545942
0.00545925
0.00545915
0.00545909
0.00545907
0.00546276
0.00546278
0.00546282
0.00546291
0.00546305
0.00546326
0.00546354
0.00546389
0.00546431
0.00546478
0.00546527
0.00546573
0.00546605
0.00546616
0.00546607
0.0054658
0.00546537
0.00546485
0.00546427
0.00546366
0.00546301
0.00546235
0.00546169
0.00546108
0.00546053
0.00546008
0.00545972
0.00545946
0.00545929
0.00545918
0.00545912
0.0054591
0.0054628
0.00546282
0.00546287
0.00546295
0.0054631
0.00546331
0.00546361
0.00546399
0.00546446
0.005465
0.00546558
0.00546612
0.00546649
0.00546661
0.00546648
0.00546616
0.00546567
0.0054651
0.00546448
0.00546383
0.00546316
0.00546248
0.00546181
0.00546118
0.00546062
0.00546015
0.00545978
0.00545951
0.00545933
0.00545921
0.00545915
0.00545913
0.00546287
0.00546288
0.00546293
0.00546301
0.00546316
0.00546338
0.00546369
0.00546411
0.00546464
0.00546527
0.00546597
0.00546663
0.00546708
0.0054672
0.00546703
0.00546664
0.00546608
0.00546542
0.00546473
0.00546402
0.0054633
0.00546259
0.0054619
0.00546126
0.00546069
0.0054602
0.00545983
0.00545955
0.00545936
0.00545925
0.00545919
0.00545916
0.00546297
0.00546298
0.00546302
0.00546311
0.00546325
0.00546347
0.00546381
0.00546427
0.00546487
0.00546563
0.00546647
0.00546727
0.00546781
0.00546796
0.00546774
0.00546727
0.00546661
0.00546585
0.00546504
0.00546424
0.00546345
0.00546268
0.00546196
0.0054613
0.00546072
0.00546023
0.00545985
0.00545958
0.00545939
0.00545928
0.00545922
0.0054592
0.00546315
0.00546317
0.0054632
0.00546328
0.00546341
0.00546364
0.00546399
0.00546451
0.00546521
0.0054661
0.00546712
0.00546807
0.00546871
0.00546888
0.00546864
0.00546809
0.00546734
0.00546643
0.00546547
0.00546451
0.0054636
0.00546276
0.00546198
0.00546129
0.0054607
0.00546022
0.00545986
0.0054596
0.00545942
0.00545932
0.00545926
0.00545924
0.0054635
0.00546351
0.00546353
0.0054636
0.00546373
0.00546397
0.00546435
0.00546492
0.00546573
0.00546678
0.00546797
0.00546909
0.00546982
0.00547003
0.00546978
0.0054692
0.00546836
0.00546729
0.00546612
0.00546495
0.00546385
0.00546287
0.00546201
0.00546128
0.00546068
0.00546021
0.00545987
0.00545963
0.00545948
0.0054594
0.00545936
0.00545934
0.00546413
0.00546413
0.00546415
0.00546421
0.00546435
0.0054646
0.00546501
0.00546566
0.00546659
0.0054678
0.00546915
0.0054704
0.00547122
0.00547149
0.0054713
0.00547078
0.00546992
0.00546872
0.00546732
0.00546587
0.0054645
0.00546329
0.00546226
0.00546144
0.0054608
0.00546034
0.00546003
0.00545983
0.00545973
0.00545969
0.00545967
0.00545967
0.0054652
0.0054652
0.00546523
0.00546529
0.00546544
0.00546572
0.0054662
0.00546693
0.00546798
0.00546932
0.0054708
0.00547213
0.00547303
0.00547344
0.00547345
0.00547317
0.00547249
0.00547132
0.00546979
0.00546809
0.00546639
0.00546483
0.0054635
0.00546245
0.00546167
0.00546115
0.00546085
0.00546071
0.00546067
0.00546069
0.00546073
0.00546075
0.00546682
0.00546683
0.00546687
0.00546696
0.00546715
0.00546749
0.00546805
0.0054689
0.00547007
0.00547152
0.00547307
0.00547446
0.00547551
0.0054762
0.00547665
0.00547689
0.00547674
0.00547601
0.00547475
0.00547313
0.00547132
0.00546949
0.00546778
0.00546631
0.00546518
0.00546439
0.00546392
0.00546372
0.00546369
0.00546375
0.00546383
0.00546387
0.00546888
0.0054689
0.00546896
0.00546911
0.00546939
0.00546986
0.0054706
0.00547164
0.00547299
0.00547455
0.00547616
0.00547763
0.00547893
0.0054801
0.00548122
0.00548226
0.00548302
0.00548324
0.00548289
0.00548206
0.00548084
0.00547933
0.00547768
0.00547603
0.00547451
0.00547322
0.00547225
0.00547162
0.00547128
0.00547115
0.00547112
0.00547114
0.00547096
0.00547098
0.00547107
0.00547125
0.0054716
0.00547218
0.00547304
0.00547421
0.00547569
0.00547739
0.00547919
0.00548099
0.00548274
0.00548449
0.00548625
0.00548799
0.00548952
0.00549063
0.00549132
0.00549164
0.0054916
0.0054912
0.00549048
0.00548947
0.00548827
0.005487
0.00548579
0.00548475
0.00548398
0.00548348
0.00548322
0.00548313
0.00547261
0.00547264
0.00547273
0.00547292
0.00547328
0.00547388
0.00547477
0.005476
0.00547756
0.00547938
0.00548135
0.00548338
0.00548539
0.00548735
0.0054892
0.00549089
0.00549225
0.00549327
0.00549412
0.00549488
0.00549555
0.00549608
0.00549642
0.00549653
0.00549639
0.00549603
0.00549549
0.00549488
0.0054943
0.00549385
0.00549357
0.00549345
0.00547373
0.00547376
0.00547384
0.00547402
0.00547436
0.00547492
0.00547577
0.00547695
0.00547847
0.00548028
0.00548227
0.00548434
0.00548635
0.00548821
0.00548981
0.00549104
0.00549181
0.00549228
0.00549279
0.00549343
0.00549419
0.00549498
0.00549574
0.00549639
0.00549689
0.00549723
0.0054974
0.00549742
0.00549735
0.00549724
0.00549714
0.00549709
0.00547446
0.00547448
0.00547456
0.00547472
0.00547502
0.00547551
0.00547627
0.00547735
0.00547875
0.00548045
0.00548235
0.00548433
0.00548624
0.00548795
0.00548933
0.00549025
0.00549065
0.00549083
0.00549115
0.00549176
0.00549262
0.00549362
0.00549464
0.00549558
0.00549636
0.00549695
0.00549736
0.00549761
0.00549774
0.00549779
0.0054978
0.0054978
0.00547493
0.00547496
0.00547502
0.00547516
0.00547542
0.00547584
0.0054765
0.00547745
0.00547869
0.00548022
0.00548196
0.00548379
0.00548556
0.00548714
0.00548838
0.00548917
0.00548948
0.0054896
0.00548989
0.00549048
0.00549138
0.0054925
0.00549371
0.0054949
0.00549593
0.00549674
0.00549732
0.0054977
0.00549792
0.00549802
0.00549806
0.00549807
0.00547527
0.00547529
0.00547534
0.00547546
0.00547567
0.00547603
0.00547659
0.00547739
0.00547847
0.00547981
0.00548135
0.00548299
0.00548461
0.00548606
0.00548724
0.00548803
0.00548843
0.00548867
0.00548904
0.00548967
0.00549059
0.00549173
0.00549303
0.00549434
0.00549554
0.00549653
0.00549728
0.00549778
0.00549808
0.00549823
0.00549829
0.0054983
0.00547557
0.00547558
0.00547562
0.0054757
0.00547587
0.00547616
0.00547662
0.00547729
0.00547821
0.00547935
0.00548069
0.00548214
0.0054836
0.00548496
0.00548612
0.00548701
0.00548761
0.00548808
0.00548861
0.00548932
0.00549024
0.00549138
0.00549266
0.005494
0.00549528
0.00549639
0.00549725
0.00549786
0.00549824
0.00549843
0.00549851
0.00549853
0.00547596
0.00547596
0.00547596
0.005476
0.00547611
0.00547632
0.00547669
0.00547724
0.00547801
0.00547899
0.00548015
0.00548143
0.00548277
0.00548408
0.00548528
0.00548633
0.00548717
0.00548788
0.00548858
0.00548937
0.0054903
0.00549139
0.00549261
0.0054939
0.00549516
0.00549631
0.00549725
0.00549794
0.00549839
0.00549863
0.00549873
0.00549875
0.00547657
0.00547654
0.0054765
0.00547648
0.00547651
0.00547664
0.00547692
0.00547737
0.00547803
0.00547888
0.00547992
0.00548111
0.00548238
0.00548368
0.00548495
0.00548616
0.00548723
0.00548814
0.00548896
0.0054898
0.0054907
0.00549171
0.00549283
0.00549402
0.00549521
0.00549633
0.00549729
0.00549803
0.00549853
0.00549881
0.00549893
0.00549896
0.00547749
0.00547743
0.00547735
0.00547726
0.00547722
0.00547727
0.00547748
0.00547787
0.00547847
0.00547927
0.00548026
0.0054814
0.00548265
0.00548396
0.00548529
0.00548662
0.00548783
0.00548886
0.00548973
0.00549056
0.0054914
0.0054923
0.00549328
0.00549433
0.00549541
0.00549645
0.00549737
0.00549813
0.00549866
0.00549897
0.00549911
0.00549915
0.0054788
0.00547872
0.00547858
0.00547844
0.00547836
0.00547839
0.00547858
0.00547897
0.00547957
0.00548037
0.00548135
0.00548247
0.00548371
0.00548501
0.00548634
0.00548769
0.00548894
0.00548997
0.00549083
0.0054916
0.00549235
0.00549312
0.00549394
0.00549483
0.00549575
0.00549667
0.00549752
0.00549824
0.00549878
0.00549912
0.00549928
0.00549932
0.00548056
0.00548044
0.00548028
0.00548014
0.00548009
0.00548017
0.00548041
0.00548085
0.00548148
0.00548229
0.00548326
0.00548434
0.00548551
0.00548674
0.005488
0.00548926
0.00549043
0.0054914
0.00549217
0.00549285
0.00549347
0.00549411
0.00549477
0.00549548
0.00549623
0.00549699
0.00549774
0.0054984
0.00549891
0.00549926
0.00549943
0.00549948
0.00548277
0.00548263
0.0054825
0.00548244
0.00548251
0.0054827
0.00548305
0.00548355
0.0054842
0.00548498
0.00548588
0.00548686
0.0054879
0.00548898
0.00549008
0.00549117
0.00549218
0.00549301
0.00549366
0.00549421
0.00549471
0.0054952
0.00549571
0.00549625
0.00549682
0.00549743
0.00549803
0.00549859
0.00549906
0.00549938
0.00549956
0.00549962
0.00548546
0.00548534
0.00548531
0.00548542
0.00548565
0.00548598
0.0054864
0.00548692
0.00548753
0.00548822
0.00548898
0.00548979
0.00549064
0.00549151
0.00549238
0.00549325
0.00549405
0.00549469
0.0054952
0.00549562
0.00549599
0.00549635
0.00549671
0.0054971
0.00549751
0.00549795
0.0054984
0.00549884
0.00549922
0.00549951
0.00549968
0.00549973
0.00548872
0.00548867
0.00548881
0.0054891
0.00548945
0.00548983
0.00549025
0.0054907
0.00549119
0.00549172
0.00549228
0.00549288
0.00549349
0.00549411
0.00549473
0.00549534
0.0054959
0.00549635
0.0054967
0.00549699
0.00549725
0.00549749
0.00549772
0.00549797
0.00549824
0.00549853
0.00549883
0.00549913
0.00549941
0.00549964
0.00549978
0.00549983
0.00549265
0.00549274
0.00549302
0.00549334
0.00549365
0.00549396
0.00549427
0.00549457
0.00549488
0.0054952
0.00549554
0.00549589
0.00549625
0.00549661
0.00549698
0.00549733
0.00549766
0.00549792
0.00549812
0.00549828
0.00549843
0.00549856
0.00549869
0.00549883
0.00549897
0.00549913
0.0054993
0.00549947
0.00549963
0.00549978
0.00549987
0.00549991
0.00549743
0.0054975
0.00549764
0.00549778
0.00549791
0.00549803
0.00549814
0.00549824
0.00549835
0.00549845
0.00549857
0.00549868
0.0054988
0.00549891
0.00549903
0.00549915
0.00549925
0.00549933
0.0054994
0.00549945
0.0054995
0.00549954
0.00549958
0.00549962
0.00549967
0.00549972
0.00549977
0.00549982
0.00549988
0.00549992
0.00549996
0.00549997
)
;

boundaryField
{
    movingWall
    {
        type            fixedValue;
        value           uniform 0.0055;
    }
    fixedWalls
    {
        type            zeroGradient;
    }
    floor
    {
        type            zeroGradient;
    }
    frontAndBack
    {
        type            empty;
    }
}


// ************************************************************************* //
