/*--------------------------------*- C++ -*----------------------------------*\
| =========                 |                                                 |
| \\      /  F ield         | OpenFOAM: The Open Source CFD Toolbox           |
|  \\    /   O peration     | Version:  2212                                  |
|   \\  /    A nd           | Website:  www.openfoam.com                      |
|    \\/     M anipulation  |                                                 |
\*---------------------------------------------------------------------------*/
FoamFile
{
    version     2.0;
    format      ascii;
    arch        "LSB;label=64;scalar=64";
    class       volScalarField;
    location    "1310";
    object      Sch4;
}
// * * * * * * * * * * * * * * * * * * * * * * * * * * * * * * * * * * * * * //

dimensions      [1 -3 0 0 0 0 0];

internalField   nonuniform List<scalar> 
1024
(
0.0344942
0.0345005
0.0345159
0.034544
0.0345886
0.0346537
0.0347415
0.034852
0.0349814
0.0351224
0.0352645
0.0353946
0.0354961
0.0355542
0.0355608
0.0355094
0.0353986
0.0352441
0.0350638
0.0348646
0.0346536
0.0344401
0.034235
0.0340491
0.0338901
0.0337618
0.0336642
0.0335943
0.0335472
0.033518
0.033502
0.0334955
0.0344955
0.0345018
0.0345175
0.034546
0.0345915
0.0346577
0.0347469
0.0348588
0.0349896
0.0351318
0.0352752
0.0354063
0.0355083
0.0355663
0.0355723
0.0355203
0.0354092
0.0352545
0.035074
0.0348746
0.0346633
0.0344493
0.0342434
0.0340563
0.0338959
0.0337663
0.0336676
0.0335967
0.033549
0.0335195
0.0335033
0.0334967
0.0344984
0.034505
0.0345211
0.0345505
0.0345975
0.0346657
0.0347576
0.0348725
0.0350064
0.0351521
0.0352994
0.0354344
0.0355385
0.0355961
0.0356005
0.0355465
0.0354339
0.035278
0.0350967
0.0348965
0.0346844
0.0344691
0.0342614
0.0340718
0.0339086
0.0337762
0.033675
0.0336023
0.0335533
0.0335229
0.0335064
0.0334996
0.0345035
0.0345102
0.034527
0.0345576
0.0346065
0.0346777
0.0347733
0.0348928
0.0350324
0.0351851
0.0353409
0.0354846
0.035594
0.0356512
0.035652
0.0355935
0.035477
0.0353179
0.0351339
0.0349316
0.0347176
0.0345002
0.0342895
0.0340961
0.0339286
0.033792
0.0336871
0.0336115
0.0335605
0.0335289
0.0335117
0.0335047
0.0345112
0.0345181
0.0345354
0.0345673
0.0346184
0.0346929
0.0347932
0.0349193
0.0350679
0.0352327
0.0354038
0.0355636
0.035683
0.0357407
0.0357353
0.0356683
0.035544
0.035378
0.0351882
0.0349812
0.0347633
0.0345421
0.0343271
0.0341286
0.0339555
0.0338134
0.0337037
0.0336244
0.0335708
0.0335376
0.0335196
0.0335123
0.0345221
0.0345292
0.0345468
0.0345797
0.0346327
0.0347105
0.0348165
0.0349514
0.0351133
0.0352971
0.0354927
0.0356782
0.0358146
0.0358745
0.0358602
0.0357796
0.0356417
0.0354632
0.0352621
0.0350458
0.0348206
0.0345933
0.0343723
0.0341674
0.0339877
0.0338392
0.0337241
0.0336406
0.0335842
0.0335493
0.0335303
0.0335227
0.0345376
0.0345445
0.0345621
0.0345953
0.0346496
0.0347307
0.034843
0.0349892
0.0351696
0.035381
0.0356122
0.0358346
0.0359965
0.0360621
0.0360371
0.0359376
0.0357792
0.0355798
0.0353592
0.0351264
0.0348882
0.0346507
0.0344212
0.0342086
0.0340217
0.0338668
0.0337464
0.0336589
0.0335999
0.0335634
0.0335437
0.0335358
0.0345606
0.0345671
0.034584
0.0346167
0.0346714
0.0347551
0.0348744
0.0350347
0.0352395
0.035488
0.0357673
0.0360388
0.0362355
0.0363118
0.0362758
0.0361537
0.0359676
0.0357372
0.0354852
0.0352248
0.0349647
0.0347108
0.0344691
0.0342472
0.034053
0.0338924
0.0337679
0.0336775
0.0336168
0.0335794
0.0335594
0.0335514
0.0345979
0.0346036
0.0346191
0.0346503
0.0347044
0.0347901
0.0349169
0.0350941
0.0353297
0.0356257
0.0359656
0.0362977
0.036538
0.036631
0.0365868
0.0364418
0.0362229
0.0359496
0.0356504
0.0353466
0.0350515
0.0347715
0.0345117
0.0342781
0.0340768
0.0339123
0.0337858
0.033695
0.0336344
0.0335976
0.0335781
0.0335704
0.0346642
0.0346687
0.0346821
0.0347108
0.0347635
0.034851
0.0349862
0.0351837
0.0354567
0.0358101
0.0362218
0.0366236
0.0369139
0.0370295
0.0369842
0.0368226
0.0365706
0.0362432
0.0358774
0.0355083
0.0351587
0.034838
0.0345509
0.0343013
0.0340925
0.0339261
0.0338011
0.0337133
0.0336561
0.0336222
0.0336048
0.0335983
0.0347878
0.0347908
0.0348017
0.0348278
0.0348793
0.0349696
0.035116
0.0353384
0.035656
0.0360749
0.0365647
0.0370389
0.0373813
0.0375269
0.0374951
0.0373347
0.0370596
0.0366723
0.0362201
0.0357578
0.0353256
0.0349408
0.0346097
0.0343345
0.0341148
0.0339477
0.0338279
0.0337479
0.0336991
0.0336725
0.0336605
0.0336567
0.0350158
0.0350177
0.0350269
0.0350516
0.0351043
0.0352015
0.0353647
0.0356191
0.0359876
0.0364752
0.0370404
0.0375811
0.0379747
0.0381635
0.0381751
0.0380547
0.0377893
0.037357
0.0368124
0.0362306
0.0356778
0.0351898
0.0347812
0.0344565
0.0342122
0.0340395
0.0339267
0.0338606
0.0338281
0.0338169
0.0338164
0.0338187
0.0354087
0.0354108
0.0354209
0.0354488
0.0355088
0.0356207
0.0358099
0.036105
0.0365294
0.0370826
0.037711
0.0383054
0.0387534
0.0390156
0.039128
0.0391219
0.0389457
0.0385407
0.0379535
0.0372688
0.0365727
0.0359313
0.0353833
0.034951
0.034638
0.0344327
0.0343163
0.0342658
0.034258
0.0342722
0.0342915
0.0343044
0.0360099
0.0360143
0.0360304
0.0360695
0.0361482
0.0362891
0.0365197
0.0368692
0.0373567
0.0379721
0.0386503
0.0392903
0.0398122
0.0402065
0.0405119
0.0407395
0.0408046
0.0406056
0.0401546
0.0395195
0.0387802
0.0380165
0.0372955
0.0366759
0.0361946
0.0358615
0.0356686
0.0355877
0.0355792
0.0356063
0.0356401
0.0356618
0.0367842
0.0367936
0.0368223
0.0368856
0.0370043
0.0372047
0.0375152
0.0379582
0.0385361
0.0392169
0.0399321
0.0406162
0.0412445
0.0418367
0.0424226
0.0430005
0.0434776
0.043722
0.043701
0.0434416
0.0429821
0.042374
0.0416804
0.0409697
0.0403048
0.0397392
0.0393117
0.0390326
0.0388803
0.0388185
0.0388074
0.0388132
0.0375698
0.0375826
0.037621
0.0377035
0.0378541
0.0381004
0.0384681
0.0389725
0.0396087
0.040347
0.0411403
0.0419465
0.0427521
0.0435706
0.0444186
0.0452973
0.0461337
0.0468185
0.0473239
0.0476499
0.0477858
0.0477265
0.04748
0.047072
0.0465483
0.0459721
0.0454108
0.044926
0.0445595
0.044323
0.0441992
0.0441548
0.0381813
0.038195
0.0382356
0.0383222
0.0384793
0.0387349
0.0391151
0.0396363
0.0402957
0.0410688
0.041914
0.0427894
0.0436681
0.0445384
0.0453904
0.046213
0.0469663
0.047646
0.0483032
0.0489458
0.0495377
0.050032
0.0503871
0.0505758
0.0505912
0.0504497
0.0501921
0.0498783
0.0495755
0.0493359
0.0491846
0.0491186
0.0385732
0.0385867
0.0386255
0.0387069
0.0388537
0.0390925
0.0394495
0.0399429
0.0405745
0.0413241
0.0421512
0.0430062
0.0438427
0.0446219
0.0453067
0.0458671
0.0462893
0.0466833
0.0471919
0.0478445
0.0485925
0.0493617
0.0500773
0.0506798
0.0511317
0.0514205
0.0515566
0.0515704
0.0515071
0.0514168
0.0513404
0.0513003
0.0388047
0.0388176
0.0388532
0.0389264
0.0390567
0.0392682
0.0395858
0.0400285
0.0406018
0.0412904
0.0420571
0.0428494
0.0436102
0.0442854
0.0448245
0.0451902
0.045388
0.0455841
0.0459638
0.0465852
0.0474113
0.0483585
0.0493217
0.0502028
0.0509306
0.0514714
0.0518265
0.0520222
0.0521001
0.0521072
0.0520867
0.0520691
0.0389388
0.0389505
0.0389823
0.0390463
0.0391591
0.0393413
0.0396154
0.0399999
0.0405025
0.0411125
0.0417984
0.0425109
0.0431923
0.0437855
0.0442387
0.0445174
0.0446401
0.0447781
0.0451021
0.0456812
0.0465078
0.0475255
0.0486367
0.0497255
0.0506846
0.0514447
0.0519823
0.052314
0.0524828
0.0525432
0.0525483
0.052539
0.0390255
0.039035
0.0390611
0.0391141
0.0392082
0.0393614
0.0395929
0.0399196
0.0403496
0.0408762
0.041474
0.0421017
0.0427087
0.0432441
0.0436639
0.0439434
0.0441078
0.0442991
0.0446455
0.0452108
0.0460086
0.0470143
0.0481611
0.0493467
0.0504529
0.0513825
0.0520812
0.0525431
0.0528016
0.0529131
0.05294
0.0529359
0.039121
0.0391259
0.0391417
0.0391783
0.039249
0.0393704
0.0395595
0.0398312
0.0401929
0.0406405
0.0411556
0.0417068
0.0422551
0.0427616
0.0431943
0.043541
0.0438236
0.0441324
0.0445494
0.0451298
0.0458995
0.0468572
0.0479663
0.0491525
0.0503138
0.051344
0.0521627
0.0527366
0.0530805
0.0532441
0.0532941
0.0532955
0.0392952
0.0392912
0.0392892
0.0392996
0.0393374
0.0394198
0.0395643
0.0397846
0.0400878
0.0404719
0.040925
0.0414255
0.0419466
0.0424611
0.0429487
0.0434067
0.0438427
0.0442874
0.0447847
0.0453843
0.0461209
0.0470113
0.0480421
0.0491643
0.0503008
0.0513586
0.052247
0.0529064
0.0533261
0.0535414
0.0536165
0.0536241
0.039625
0.0396073
0.0395784
0.0395517
0.039546
0.039583
0.0396829
0.0398611
0.0401252
0.040475
0.0409025
0.0413927
0.0419267
0.0424852
0.0430545
0.0436367
0.044218
0.0447769
0.045333
0.0459348
0.0466225
0.0474254
0.0483491
0.0493673
0.0504251
0.051448
0.0523522
0.0530633
0.0535442
0.0538079
0.0539094
0.0539242
0.0401813
0.040145
0.0400825
0.0400132
0.0399631
0.0399599
0.0400286
0.0401875
0.0404447
0.040799
0.041242
0.04176
0.0423362
0.0429542
0.0436027
0.0442843
0.0449657
0.0455902
0.0461656
0.0467418
0.0473617
0.0480605
0.0488561
0.0497414
0.0506829
0.0516249
0.0524958
0.05322
0.0537409
0.0540463
0.0541743
0.0541976
0.0410159
0.0409578
0.0408626
0.0407611
0.040687
0.0406719
0.040743
0.0409192
0.0412058
0.0415967
0.0420799
0.0426392
0.043257
0.0439175
0.0446099
0.0453359
0.0460509
0.0466824
0.0472346
0.0477576
0.0482937
0.0488786
0.049536
0.0502715
0.0510701
0.0518958
0.0526927
0.0533908
0.0539247
0.0542597
0.0544123
0.0544452
0.0421594
0.0420801
0.0419674
0.0418672
0.0418157
0.0418389
0.0419573
0.0421854
0.0425214
0.0429545
0.0434694
0.0440485
0.0446744
0.0453323
0.0460124
0.0467163
0.0473969
0.0479819
0.0484753
0.0489241
0.0493672
0.0498366
0.0503562
0.0509384
0.0515809
0.0522655
0.0529545
0.05359
0.054106
0.054453
0.054625
0.054668
0.0436301
0.0435378
0.0434425
0.0433992
0.0434294
0.0435391
0.0437352
0.044023
0.0443955
0.0448421
0.045349
0.0459006
0.0464824
0.0470822
0.0476923
0.0483142
0.048906
0.049405
0.0498157
0.0501786
0.0505263
0.0508852
0.0512762
0.0517131
0.0522003
0.0527325
0.0532893
0.0538301
0.0542964
0.0546327
0.0548143
0.0548664
0.0454514
0.0453675
0.0453441
0.0454137
0.0455609
0.0457677
0.0460293
0.046345
0.0467102
0.0471201
0.0475659
0.0480375
0.0485243
0.0490182
0.0495136
0.050012
0.0504803
0.0508703
0.0511861
0.0514594
0.0517152
0.0519734
0.0522503
0.0525576
0.052902
0.0532847
0.0536984
0.0541202
0.0545071
0.0548068
0.0549832
0.0550412
0.047672
0.0476389
0.0477379
0.0479276
0.0481605
0.0484137
0.0486821
0.0489668
0.0492698
0.0495921
0.0499313
0.0502823
0.0506391
0.0509969
0.0513521
0.0517059
0.0520355
0.0523079
0.0525263
0.0527125
0.0528837
0.0530534
0.0532327
0.0534301
0.0536512
0.0538991
0.0541733
0.0544644
0.0547478
0.0549842
0.0551364
0.0551934
0.0503848
0.0504491
0.0506392
0.0508541
0.0510687
0.0512754
0.051474
0.0516687
0.0518643
0.0520647
0.0522709
0.0524811
0.0526929
0.0529036
0.0531116
0.0533174
0.0535081
0.053665
0.0537901
0.0538958
0.0539918
0.0540856
0.0541836
0.0542905
0.0544099
0.054544
0.0546939
0.0548575
0.0550245
0.055174
0.0552798
0.0553251
0.0537027
0.0537537
0.0538518
0.0539458
0.0540325
0.0541119
0.0541848
0.0542534
0.0543202
0.0543872
0.0544552
0.0545241
0.0545931
0.0546616
0.0547289
0.0547953
0.0548567
0.0549071
0.0549471
0.0549808
0.0550112
0.0550408
0.0550714
0.0551046
0.0551414
0.0551828
0.0552291
0.05528
0.0553333
0.0553832
0.0554215
0.0554401
)
;

boundaryField
{
    movingWall
    {
        type            fixedValue;
        value           uniform 0.0555;
    }
    fixedWalls
    {
        type            zeroGradient;
    }
    floor
    {
        type            zeroGradient;
    }
    frontAndBack
    {
        type            empty;
    }
}


// ************************************************************************* //
