/*--------------------------------*- C++ -*----------------------------------*\
| =========                 |                                                 |
| \\      /  F ield         | OpenFOAM: The Open Source CFD Toolbox           |
|  \\    /   O peration     | Version:  2212                                  |
|   \\  /    A nd           | Website:  www.openfoam.com                      |
|    \\/     M anipulation  |                                                 |
\*---------------------------------------------------------------------------*/
FoamFile
{
    version     2.0;
    format      ascii;
    arch        "LSB;label=64;scalar=64";
    class       volScalarField;
    location    "1310";
    object      SIC;
}
// * * * * * * * * * * * * * * * * * * * * * * * * * * * * * * * * * * * * * //

dimensions      [1 -3 0 0 0 0 0];

internalField   nonuniform List<scalar> 
1024
(
0.0911446
0.0911458
0.0911487
0.091154
0.0911624
0.0911747
0.0911912
0.091212
0.0912364
0.0912629
0.0912897
0.0913141
0.0913332
0.0913442
0.0913454
0.0913358
0.0913149
0.0912858
0.0912518
0.0912143
0.0911746
0.0911344
0.0910958
0.0910608
0.0910308
0.0910067
0.0909883
0.0909751
0.0909663
0.0909608
0.0909578
0.0909565
0.0911449
0.0911461
0.091149
0.0911544
0.091163
0.0911754
0.0911922
0.0912133
0.0912379
0.0912647
0.0912917
0.0913164
0.0913356
0.0913465
0.0913476
0.0913378
0.0913169
0.0912878
0.0912538
0.0912162
0.0911764
0.0911361
0.0910974
0.0910621
0.0910319
0.0910075
0.0909889
0.0909756
0.0909666
0.090961
0.090958
0.0909568
0.0911454
0.0911467
0.0911497
0.0911552
0.0911641
0.0911769
0.0911942
0.0912158
0.0912411
0.0912685
0.0912962
0.0913216
0.0913412
0.0913521
0.0913529
0.0913427
0.0913215
0.0912922
0.091258
0.0912203
0.0911804
0.0911399
0.0911007
0.091065
0.0910343
0.0910094
0.0909903
0.0909766
0.0909674
0.0909617
0.0909586
0.0909573
0.0911464
0.0911477
0.0911508
0.0911566
0.0911658
0.0911792
0.0911972
0.0912197
0.091246
0.0912747
0.091304
0.0913311
0.0913517
0.0913625
0.0913626
0.0913516
0.0913297
0.0912997
0.0912651
0.091227
0.0911867
0.0911457
0.091106
0.0910696
0.0910381
0.0910124
0.0909926
0.0909784
0.0909688
0.0909628
0.0909596
0.0909583
0.0911478
0.0911491
0.0911524
0.0911584
0.091168
0.091182
0.0912009
0.0912247
0.0912526
0.0912837
0.0913159
0.091346
0.0913685
0.0913793
0.0913783
0.0913657
0.0913423
0.091311
0.0912753
0.0912363
0.0911953
0.0911536
0.0911131
0.0910758
0.0910432
0.0910164
0.0909957
0.0909808
0.0909707
0.0909645
0.0909611
0.0909597
0.0911499
0.0911512
0.0911546
0.0911607
0.0911707
0.0911854
0.0912053
0.0912307
0.0912612
0.0912958
0.0913326
0.0913675
0.0913932
0.0914045
0.0914018
0.0913866
0.0913607
0.091327
0.0912892
0.0912485
0.0912061
0.0911632
0.0911216
0.0910831
0.0910492
0.0910212
0.0909996
0.0909839
0.0909732
0.0909667
0.0909631
0.0909617
0.0911528
0.0911541
0.0911574
0.0911637
0.0911739
0.0911892
0.0912103
0.0912378
0.0912718
0.0913116
0.0913551
0.091397
0.0914275
0.0914398
0.0914351
0.0914164
0.0913866
0.091349
0.0913075
0.0912636
0.0912188
0.0911741
0.0911308
0.0910908
0.0910556
0.0910264
0.0910038
0.0909873
0.0909762
0.0909693
0.0909656
0.0909641
0.0911571
0.0911584
0.0911616
0.0911677
0.091178
0.0911938
0.0912162
0.0912464
0.091285
0.0913317
0.0913843
0.0914355
0.0914725
0.0914869
0.0914801
0.0914571
0.091422
0.0913786
0.0913312
0.0912822
0.0912332
0.0911854
0.0911399
0.0910981
0.0910615
0.0910313
0.0910078
0.0909908
0.0909794
0.0909723
0.0909686
0.0909671
0.0911642
0.0911652
0.0911682
0.091174
0.0911842
0.0912004
0.0912242
0.0912576
0.0913019
0.0913577
0.0914217
0.0914842
0.0915295
0.091547
0.0915386
0.0915113
0.0914701
0.0914186
0.0913623
0.0913051
0.0912495
0.0911968
0.0911479
0.0911039
0.091066
0.091035
0.0910112
0.0909941
0.0909827
0.0909758
0.0909721
0.0909706
0.0911767
0.0911775
0.09118
0.0911854
0.0911954
0.0912118
0.0912373
0.0912745
0.0913259
0.0913924
0.0914699
0.0915456
0.0916002
0.091622
0.0916135
0.091583
0.0915356
0.0914739
0.0914051
0.0913355
0.0912697
0.0912093
0.0911553
0.0911083
0.0910689
0.0910376
0.0910141
0.0909975
0.0909868
0.0909804
0.0909771
0.0909759
0.0911999
0.0912005
0.0912025
0.0912074
0.0912171
0.0912342
0.0912617
0.0913036
0.0913634
0.0914423
0.0915345
0.0916238
0.0916882
0.0917157
0.0917097
0.0916795
0.0916277
0.0915547
0.0914696
0.0913825
0.0913011
0.0912287
0.0911663
0.0911145
0.0910732
0.0910417
0.0910191
0.0910041
0.0909949
0.0909899
0.0909876
0.0909869
0.0912429
0.0912432
0.0912449
0.0912496
0.0912595
0.0912778
0.0913085
0.0913564
0.0914258
0.0915176
0.0916241
0.0917259
0.0918
0.0918355
0.0918377
0.091815
0.0917651
0.0916837
0.0915811
0.0914716
0.0913675
0.0912756
0.0911986
0.0911375
0.0910915
0.091059
0.0910377
0.0910253
0.0910192
0.091017
0.091017
0.0910174
0.0913168
0.0913172
0.0913191
0.0913244
0.0913357
0.0913567
0.0913924
0.0914479
0.0915278
0.091632
0.0917503
0.0918622
0.0919466
0.091996
0.0920171
0.092016
0.0919828
0.0919066
0.091796
0.091667
0.091536
0.0914152
0.091312
0.0912306
0.0911717
0.091133
0.0911111
0.0911016
0.0911001
0.0911028
0.0911064
0.0911088
0.09143
0.0914309
0.0914339
0.0914412
0.0914561
0.0914826
0.091526
0.0915918
0.0916836
0.0917995
0.0919272
0.0920477
0.092146
0.0922202
0.0922777
0.0923206
0.0923328
0.0922954
0.0922104
0.0920909
0.0919517
0.0918078
0.0916721
0.0915554
0.0914648
0.091402
0.0913657
0.0913505
0.0913489
0.091354
0.0913604
0.0913644
0.0915758
0.0915776
0.091583
0.0915949
0.0916173
0.091655
0.0917135
0.0917969
0.0919057
0.0920339
0.0921686
0.0922974
0.0924157
0.0925272
0.0926375
0.0927463
0.0928362
0.0928822
0.0928782
0.0928294
0.0927429
0.0926284
0.0924978
0.0923639
0.0922387
0.0921322
0.0920517
0.0919992
0.0919705
0.0919589
0.0919568
0.0919579
0.0917237
0.0917261
0.0917334
0.0917489
0.0917773
0.0918236
0.0918929
0.0919879
0.0921077
0.0922467
0.0923961
0.0925479
0.0926996
0.0928537
0.0930134
0.0931788
0.0933363
0.0934653
0.0935604
0.0936218
0.0936474
0.0936362
0.0935898
0.093513
0.0934144
0.0933059
0.0932002
0.0931089
0.0930399
0.0929954
0.0929721
0.0929637
0.0918389
0.0918415
0.0918491
0.0918654
0.091895
0.0919431
0.0920147
0.0921129
0.092237
0.0923826
0.0925417
0.0927066
0.092872
0.0930359
0.0931964
0.0933513
0.0934931
0.0936211
0.0937448
0.0938658
0.0939773
0.0940704
0.0941372
0.0941728
0.0941757
0.094149
0.0941005
0.0940414
0.0939844
0.0939393
0.0939108
0.0938984
0.0919127
0.0919152
0.0919225
0.0919379
0.0919655
0.0920105
0.0920777
0.0921706
0.0922895
0.0924307
0.0925864
0.0927474
0.0929049
0.0930517
0.0931806
0.0932861
0.0933656
0.0934398
0.0935356
0.0936585
0.0937993
0.0939442
0.0940789
0.0941924
0.0942775
0.0943318
0.0943575
0.0943601
0.0943481
0.0943311
0.0943168
0.0943092
0.0919563
0.0919587
0.0919654
0.0919792
0.0920037
0.0920435
0.0921033
0.0921867
0.0922947
0.0924243
0.0925687
0.0927179
0.0928611
0.0929883
0.0930898
0.0931587
0.0931959
0.0932328
0.0933043
0.0934213
0.0935769
0.0937552
0.0939366
0.0941025
0.0942396
0.0943414
0.0944083
0.0944451
0.0944598
0.0944611
0.0944573
0.094454
0.0919815
0.0919837
0.0919897
0.0920018
0.092023
0.0920573
0.0921089
0.0921813
0.092276
0.0923908
0.09252
0.0926541
0.0927825
0.0928942
0.0929795
0.093032
0.0930551
0.0930811
0.0931421
0.0932511
0.0934068
0.0935984
0.0938076
0.0940127
0.0941933
0.0943364
0.0944376
0.0945001
0.0945319
0.0945432
0.0945442
0.0945424
0.0919978
0.0919996
0.0920045
0.0920145
0.0920323
0.0920611
0.0921047
0.0921662
0.0922472
0.0923463
0.0924589
0.0925771
0.0926914
0.0927922
0.0928713
0.0929239
0.0929549
0.0929909
0.0930561
0.0931625
0.0933128
0.0935021
0.0937181
0.0939413
0.0941496
0.0943247
0.0944562
0.0945432
0.0945919
0.0946129
0.0946179
0.0946172
0.0920158
0.0920167
0.0920197
0.0920266
0.0920399
0.0920628
0.0920984
0.0921496
0.0922177
0.092302
0.092399
0.0925027
0.092606
0.0927014
0.0927828
0.0928481
0.0929013
0.0929595
0.093038
0.0931473
0.0932922
0.0934726
0.0936814
0.0939048
0.0941234
0.0943174
0.0944716
0.0945797
0.0946444
0.0946752
0.0946846
0.0946849
0.0920486
0.0920479
0.0920475
0.0920495
0.0920566
0.0920721
0.0920993
0.0921408
0.0921979
0.0922702
0.0923555
0.0924498
0.0925479
0.0926448
0.0927366
0.0928228
0.0929049
0.0929887
0.0930823
0.0931952
0.0933339
0.0935016
0.0936957
0.093907
0.094121
0.0943202
0.0944875
0.0946116
0.0946907
0.0947312
0.0947453
0.0947468
0.0921107
0.0921074
0.092102
0.0920969
0.0920958
0.0921028
0.0921216
0.0921552
0.0922049
0.0922708
0.0923513
0.0924436
0.0925441
0.0926493
0.0927565
0.0928661
0.0929756
0.0930808
0.0931856
0.0932989
0.0934284
0.0935796
0.0937535
0.0939452
0.0941444
0.094337
0.0945073
0.0946412
0.0947317
0.0947814
0.0948005
0.0948033
0.0922155
0.0922086
0.0921969
0.0921838
0.0921744
0.0921738
0.0921867
0.0922167
0.0922651
0.0923318
0.0924152
0.0925127
0.0926212
0.0927376
0.0928597
0.0929881
0.0931164
0.093234
0.0933423
0.0934508
0.0935676
0.0936991
0.093849
0.0940157
0.0941929
0.0943703
0.0945343
0.0946707
0.0947688
0.0948263
0.0948504
0.0948548
0.0923726
0.0923617
0.0923438
0.0923247
0.0923107
0.0923079
0.0923212
0.0923544
0.0924084
0.092482
0.092573
0.0926783
0.0927946
0.092919
0.0930494
0.0931861
0.0933207
0.0934396
0.0935436
0.0936421
0.0937431
0.0938532
0.093977
0.0941155
0.0942658
0.0944213
0.0945714
0.0947028
0.0948034
0.0948665
0.0948952
0.0949014
0.092588
0.092573
0.0925518
0.0925329
0.0925232
0.0925276
0.0925499
0.0925929
0.0926561
0.0927377
0.0928346
0.0929437
0.0930615
0.0931854
0.0933135
0.093446
0.0935742
0.0936843
0.0937773
0.0938618
0.0939452
0.0940336
0.0941314
0.0942411
0.094362
0.0944909
0.0946207
0.0947404
0.0948375
0.0949029
0.0949352
0.0949433
0.0928649
0.0928475
0.0928296
0.0928214
0.0928271
0.0928478
0.0928847
0.0929389
0.093009
0.0930931
0.0931886
0.0932924
0.093402
0.0935149
0.0936298
0.0937469
0.0938584
0.0939523
0.0940297
0.094098
0.0941635
0.094231
0.0943047
0.0943869
0.0944787
0.0945789
0.0946837
0.0947855
0.0948734
0.0949367
0.0949709
0.0949807
0.0932078
0.093192
0.0931876
0.0932007
0.0932285
0.0932674
0.0933167
0.0933761
0.0934449
0.0935221
0.093606
0.0936948
0.0937865
0.0938795
0.0939728
0.0940666
0.0941548
0.0942282
0.0942877
0.0943392
0.0943873
0.0944359
0.0944881
0.0945459
0.0946108
0.0946829
0.0947608
0.0948402
0.094913
0.0949695
0.0950027
0.0950136
0.093626
0.0936198
0.0936384
0.0936741
0.093718
0.0937656
0.0938162
0.0938698
0.0939268
0.0939875
0.0940514
0.0941175
0.0941847
0.0942521
0.0943189
0.0943856
0.0944476
0.0944989
0.0945401
0.0945751
0.0946074
0.0946393
0.0946731
0.0947102
0.0947519
0.0947986
0.0948502
0.094905
0.0949584
0.0950029
0.0950315
0.0950423
0.0941368
0.0941489
0.0941847
0.0942252
0.0942656
0.0943045
0.0943419
0.0943786
0.0944154
0.0944531
0.094492
0.0945315
0.0945714
0.0946111
0.0946503
0.094689
0.0947249
0.0947545
0.094778
0.0947979
0.094816
0.0948337
0.0948521
0.0948723
0.0948947
0.09492
0.0949482
0.094979
0.0950105
0.0950386
0.0950585
0.0950671
0.0947616
0.0947712
0.0947896
0.0948073
0.0948237
0.0948386
0.0948524
0.0948653
0.0948778
0.0948905
0.0949033
0.0949162
0.0949292
0.0949421
0.0949548
0.0949673
0.0949789
0.0949883
0.0949959
0.0950022
0.095008
0.0950135
0.0950193
0.0950255
0.0950325
0.0950403
0.095049
0.0950586
0.0950686
0.095078
0.0950852
0.0950887
)
;

boundaryField
{
    movingWall
    {
        type            fixedValue;
        value           uniform 0.0951;
    }
    fixedWalls
    {
        type            zeroGradient;
    }
    floor
    {
        type            zeroGradient;
    }
    frontAndBack
    {
        type            empty;
    }
}


// ************************************************************************* //
