/*--------------------------------*- C++ -*----------------------------------*\
| =========                 |                                                 |
| \\      /  F ield         | OpenFOAM: The Open Source CFD Toolbox           |
|  \\    /   O peration     | Version:  2206                                  |
|   \\  /    A nd           | Website:  www.openfoam.com                      |
|    \\/     M anipulation  |                                                 |
\*---------------------------------------------------------------------------*/
FoamFile
{
    version     2.0;
    format      ascii;
    arch        "LSB;label=64;scalar=64";
    class       volScalarField;
    location    "2.7/water";
    object      d.gas;
}
// * * * * * * * * * * * * * * * * * * * * * * * * * * * * * * * * * * * * * //

dimensions      [0 1 0 0 0 0 0];

internalField   nonuniform List<scalar> 
23300
(
0.00498785981388
0.00498785914514
0.00498785918421
0.00498785922492
0.00498785927084
0.00498785931732
0.00498785936295
0.00498785940471
0.0049878594444
0.00498785948096
0.00498785951704
0.00498785955124
0.00498785958515
0.00498785961612
0.0049878596445
0.00498785966676
0.00498785968272
0.00498785968875
0.00498785968484
0.00498785966779
0.00498785963805
0.00498785959293
0.00498785953331
0.00498785945682
0.00498785936447
0.00498785925388
0.00498785912593
0.00498785897802
0.00498785881071
0.00498785862111
0.00498785840948
0.00498785817271
0.00498785791094
0.00498785762106
0.00498785730329
0.00498785695477
0.004987856576
0.00498785616458
0.00498785572151
0.00498785524499
0.00498785473658
0.0049878541952
0.004987853623
0.00498785301963
0.00498785238785
0.00498785172829
0.00498785104483
0.00498785033884
0.00498784961419
0.00498784887266
0.00498784811868
0.00498784735467
0.00498784658551
0.00498784581415
0.00498784504575
0.00498784428369
0.00498784353329
0.00498784279815
0.00498784208364
0.00498784139344
0.00498784073278
0.00498784010528
0.00498783951588
0.00498783896796
0.00498783846604
0.00498783801309
0.00498783761311
0.00498783726853
0.00498783698268
0.00498783675737
0.0049878365952
0.00498783649722
0.00498783646522
0.0049878364994
0.00498783660058
0.00498783676793
0.00498783700108
0.00498783729784
0.00498783765618
0.004987838072
0.00498783854095
0.00498783905616
0.00498783961009
0.00498784019233
0.00498784079208
0.00498784139764
0.00498784200361
0.00498784261083
0.00498784321783
0.00498784381201
0.00498784438437
0.00498784493629
0.00498784547741
0.00498784601722
0.00498784656445
0.00498784712473
0.00498784770214
0.00498784829802
0.0049878489126
0.00498784954412
0.00498785019031
0.00498785084755
0.00498785151217
0.00498785217965
0.00498785284574
0.00498785350567
0.00498785415513
0.00498785478953
0.00498785540483
0.00498785599686
0.00498785656206
0.00498785709688
0.00498785759838
0.00498785806376
0.00498785849088
0.00498785887781
0.00498785922331
0.00498785952638
0.00498785978658
0.00498786000373
0.00498786017819
0.00498786031058
0.00498786040205
0.00498786045402
0.00498786046837
0.00498786044721
0.00498786039302
0.00498786030844
0.00498786019639
0.00498786005986
0.00498785990191
0.00498785972539
0.00498785953256
0.00498785932435
0.00498785909972
0.00498785885628
0.00498785859437
0.00498785832712
0.00498785809475
0.0049878573459
0.00498799234217
0.00498799163039
0.00498799158126
0.00498799152774
0.00498799147193
0.00498799141517
0.00498799135978
0.00498799130588
0.0049879912553
0.00498799120757
0.0049879911638
0.00498799112258
0.00498799108414
0.00498799104641
0.00498799100919
0.00498799097041
0.00498799093013
0.00498799088677
0.00498799084092
0.00498799079154
0.00498799073963
0.00498799068436
0.00498799062678
0.00498799056584
0.00498799050219
0.00498799043424
0.00498799036197
0.00498799028311
0.00498799019696
0.00498799010065
0.00498798999299
0.00498798987081
0.00498798973277
0.00498798957572
0.00498798939848
0.00498798919828
0.00498798897437
0.00498798872457
0.00498798844875
0.00498798814544
0.00498798781523
0.00498798745741
0.00498798707328
0.00498798666292
0.00498798622826
0.00498798577025
0.00498798529169
0.00498798479414
0.00498798428072
0.00498798375346
0.00498798321586
0.00498798267036
0.00498798212076
0.00498798156984
0.00498798102158
0.00498798047896
0.004987979946
0.00498797942575
0.00498797892214
0.00498797843809
0.00498797797731
0.00498797754247
0.00498797713687
0.00498797676279
0.00498797642298
0.00498797611918
0.00498797585349
0.004987975627
0.00498797544105
0.004987975296
0.0049879751924
0.00498797512983
0.00498797510807
0.00498797512592
0.00498797518243
0.00498797527575
0.00498797540427
0.00498797556562
0.00498797575777
0.0049879759781
0.00498797622457
0.00498797649496
0.00498797678834
0.00498797710482
0.00498797744786
0.0049879778253
0.00498797825232
0.00498797874576
0.0049879793087
0.00498797992762
0.00498798058171
0.00498798124988
0.00498798191949
0.00498798258319
0.00498798323734
0.00498798387974
0.00498798450942
0.00498798512552
0.00498798572763
0.00498798631507
0.00498798688739
0.00498798744379
0.0049879879836
0.00498798850579
0.00498798900944
0.00498798949329
0.00498798995616
0.0049879903966
0.00498799081325
0.00498799120454
0.00498799156906
0.00498799190527
0.00498799221184
0.00498799248743
0.00498799273097
0.00498799294151
0.00498799311864
0.00498799326211
0.00498799337194
0.00498799344837
0.00498799349208
0.00498799350407
0.00498799348579
0.004987993439
0.00498799336591
0.00498799326902
0.00498799315119
0.00498799301554
0.00498799286545
0.00498799270447
0.00498799253625
0.00498799236423
0.00498799219111
0.00498799201776
0.00498799184195
0.00498799165768
0.00498799145757
0.00498799124111
0.00498799103182
0.00498799028106
0.00498812597715
0.00498812527114
0.00498812521427
0.00498812514802
0.00498812507438
0.0049881249943
0.00498812491037
0.00498812482361
0.00498812473637
0.00498812464905
0.00498812456323
0.00498812447832
0.00498812439493
0.00498812431171
0.00498812422879
0.00498812414473
0.00498812405986
0.0049881239732
0.00498812388564
0.00498812379671
0.00498812370773
0.00498812361846
0.00498812353023
0.00498812344258
0.00498812335637
0.00498812327053
0.00498812318519
0.00498812309849
0.00498812300977
0.00498812291646
0.0049881228173
0.0049881227093
0.00498812259092
0.00498812245908
0.00498812231232
0.00498812214781
0.00498812196446
0.00498812175992
0.00498812153364
0.00498812128395
0.00498812101092
0.00498812071357
0.00498812039265
0.00498812004786
0.00498811968056
0.00498811929131
0.00498811888243
0.00498811845516
0.00498811801191
0.00498811755417
0.0049881170847
0.00498811660537
0.00498811611921
0.00498811562838
0.00498811513606
0.00498811464457
0.00498811415713
0.00498811367612
0.00498811320469
0.00498811274512
0.00498811230037
0.00498811187254
0.00498811146424
0.00498811107729
0.00498811071389
0.00498811037543
0.00498811006367
0.00498810977952
0.00498810952422
0.00498810929824
0.00498810910231
0.00498810893649
0.00498810880112
0.00498810869595
0.00498810862108
0.00498810857616
0.0049881085613
0.00498810857634
0.00498810862175
0.00498810869799
0.00498810880645
0.00498810894894
0.00498810912877
0.00498810935049
0.00498810962123
0.00498810995047
0.00498811035026
0.0049881108316
0.00498811139282
0.00498811202214
0.00498811270665
0.00498811342917
0.00498811417457
0.00498811493084
0.0049881156891
0.0049881164423
0.00498811718514
0.00498811791322
0.00498811862323
0.00498811931229
0.00498811997825
0.00498812061919
0.0049881212337
0.00498812182045
0.00498812237848
0.00498812290681
0.00498812340474
0.00498812387147
0.00498812430643
0.00498812470895
0.00498812507853
0.00498812541462
0.00498812571688
0.00498812598491
0.0049881262186
0.00498812641787
0.00498812658314
0.00498812671503
0.00498812681425
0.0049881268817
0.00498812691866
0.00498812692666
0.00498812690762
0.00498812686372
0.00498812679751
0.00498812671177
0.00498812660957
0.00498812649409
0.00498812636861
0.00498812623629
0.00498812609994
0.00498812596149
0.00498812582117
0.00498812567629
0.00498812551992
0.00498812534055
0.00498812512512
0.00498812486788
0.00498812458652
0.00498812379723
0.00498825941866
0.00498825870272
0.00498825864918
0.0049882585821
0.00498825850372
0.00498825841499
0.00498825831854
0.00498825821559
0.00498825810884
0.00498825799911
0.00498825788838
0.00498825777655
0.00498825766471
0.00498825755204
0.00498825743913
0.00498825732505
0.00498825721057
0.00498825709512
0.00498825697995
0.00498825686496
0.00498825675178
0.0049882566405
0.00498825653269
0.00498825642817
0.00498825632807
0.00498825623152
0.00498825613887
0.00498825604844
0.00498825595974
0.00498825587034
0.00498825577909
0.00498825568305
0.00498825558073
0.00498825546903
0.00498825534644
0.00498825521003
0.00498825505856
0.00498825488951
0.0049882547021
0.00498825449436
0.00498825426607
0.00498825401589
0.00498825374419
0.00498825345025
0.00498825313499
0.00498825279844
0.00498825244258
0.00498825206837
0.00498825167768
0.00498825127146
0.00498825085195
0.00498825042048
0.00498824997952
0.00498824953069
0.00498824907665
0.0049882486192
0.00498824816107
0.00498824770416
0.00498824725117
0.004988246804
0.00498824636523
0.00498824593665
0.00498824552064
0.0049882451188
0.00498824473323
0.00498824436531
0.00498824401681
0.00498824368884
0.00498824338288
0.00498824309977
0.00498824284075
0.00498824260651
0.00498824239815
0.00498824221634
0.00498824206224
0.00498824193671
0.00498824184121
0.00498824177707
0.00498824174637
0.00498824175123
0.00498824179474
0.00498824188033
0.00498824201263
0.00498824219703
0.0049882424404
0.00498824275031
0.00498824313484
0.00498824359977
0.00498824414407
0.00498824475633
0.0049882454264
0.00498824614476
0.00498824689827
0.00498824767499
0.00498824846477
0.00498824925868
0.00498825004934
0.00498825083021
0.004988251596
0.00498825234203
0.0049882530646
0.00498825376046
0.00498825442714
0.00498825506249
0.00498825566496
0.00498825623318
0.00498825676625
0.00498825726336
0.00498825772404
0.00498825814789
0.00498825853474
0.00498825888446
0.00498825919718
0.00498825947304
0.00498825971243
0.00498825991579
0.00498826008414
0.00498826021866
0.00498826032051
0.00498826039103
0.00498826043186
0.00498826044485
0.00498826043217
0.00498826039619
0.00498826033957
0.00498826026513
0.00498826017587
0.00498826007478
0.00498825996483
0.00498825984864
0.00498825972822
0.00498825960427
0.00498825947536
0.00498825933657
0.00498825917825
0.00498825898575
0.00498825874237
0.00498825843824
0.00498825808714
0.00498825730532
0.00498839278339
0.00498839204704
0.00498839199916
0.00498839193522
0.00498839185752
0.00498839176697
0.00498839166619
0.00498839155645
0.00498839144051
0.00498839131935
0.00498839119518
0.00498839106822
0.00498839093991
0.0049883908098
0.00498839067893
0.00498839054673
0.00498839041435
0.00498839028153
0.00498839014983
0.00498839001939
0.00498838989204
0.00498838976805
0.00498838964916
0.00498838953534
0.00498838942782
0.00498838932589
0.00498838923001
0.00498838913861
0.00498838905134
0.00498838896583
0.00498838888107
0.00498838879417
0.00498838870372
0.00498838860663
0.00498838850141
0.00498838838507
0.00498838825631
0.00498838811247
0.00498838795265
0.00498838777465
0.00498838757805
0.00498838736122
0.00498838712425
0.00498838686608
0.00498838658729
0.00498838628733
0.004988385968
0.00498838563012
0.00498838527517
0.00498838490367
0.00498838451744
0.0049883841174
0.00498838370564
0.00498838328338
0.0049883828529
0.00498838241567
0.00498838197408
0.00498838152977
0.00498838108518
0.004988380642
0.00498838020264
0.00498837976879
0.00498837934277
0.00498837892619
0.00498837852122
0.00498837812934
0.00498837775257
0.00498837739226
0.00498837705026
0.00498837672786
0.00498837642679
0.00498837614832
0.00498837589422
0.00498837566588
0.00498837546525
0.004988375294
0.00498837515446
0.00498837504881
0.00498837497994
0.00498837495076
0.00498837496498
0.00498837502645
0.00498837513992
0.00498837531037
0.00498837554357
0.00498837584513
0.00498837622032
0.00498837667207
0.00498837720046
0.00498837779691
0.00498837844971
0.00498837915155
0.0049883798945
0.00498838066768
0.00498838146132
0.0049883822662
0.00498838307427
0.00498838387812
0.00498838467144
0.0049883854485
0.00498838620456
0.00498838693542
0.00498838763771
0.0049883883085
0.00498838894558
0.00498838954704
0.00498839011157
0.00498839063805
0.00498839112584
0.00498839157443
0.00498839198369
0.00498839235356
0.00498839268432
0.0049883929763
0.00498839323013
0.00498839344649
0.00498839362673
0.00498839377237
0.00498839388483
0.00498839396565
0.00498839401665
0.00498839403984
0.00498839403747
0.00498839401195
0.00498839396593
0.00498839390214
0.00498839382342
0.00498839373255
0.00498839363216
0.00498839352437
0.0049883934105
0.00498839329033
0.00498839316114
0.00498839301636
0.00498839284437
0.00498839262825
0.00498839234896
0.00498839199531
0.00498839158407
0.00498839083832
0.00498852612921
0.0049885253665
0.00498852532513
0.004988525266
0.0049885251915
0.00498852510266
0.00498852500211
0.00498852489105
0.00498852477228
0.00498852464683
0.00498852451702
0.00498852438323
0.00498852424714
0.00498852410858
0.00498852396887
0.00498852382771
0.00498852368652
0.00498852354526
0.00498852340567
0.004988523268
0.00498852313423
0.00498852300466
0.00498852288112
0.0049885227636
0.00498852265339
0.00498852254981
0.00498852245338
0.00498852236259
0.00498852227716
0.00498852219482
0.00498852211463
0.00498852203378
0.00498852195095
0.0049885218631
0.00498852176878
0.00498852166501
0.0049885215505
0.00498852142251
0.00498852128008
0.00498852112089
0.00498852094437
0.00498852074871
0.00498852053381
0.00498852029837
0.00498852004278
0.00498851976587
0.00498851946928
0.00498851915387
0.00498851882089
0.00498851847056
0.0049885181044
0.00498851772302
0.00498851732822
0.00498851692095
0.00498851650325
0.00498851607635
0.00498851564248
0.00498851520306
0.00498851476044
0.0049885143162
0.00498851387272
0.00498851343167
0.00498851299541
0.00498851256564
0.00498851214467
0.00498851173419
0.00498851133642
0.00498851095304
0.00498851058622
0.00498851023763
0.00498850990945
0.00498850960341
0.00498850932177
0.00498850906643
0.00498850883985
0.00498850864422
0.00498850848236
0.00498850835688
0.00498850827105
0.00498850822803
0.00498850823168
0.00498850828577
0.00498850839475
0.00498850856291
0.00498850879497
0.00498850909501
0.00498850946651
0.00498850991096
0.00498851042748
0.00498851101226
0.00498851165427
0.00498851234276
0.00498851307279
0.00498851383667
0.00498851462533
0.0049885154299
0.00498851624236
0.0049885170551
0.00498851786144
0.00498851865516
0.00498851943099
0.00498852018412
0.00498852091059
0.00498852160691
0.00498852227032
0.00498852289843
0.0049885234895
0.00498852404207
0.00498852455519
0.00498852502815
0.00498852546066
0.00498852585257
0.00498852620412
0.00498852651565
0.0049885267878
0.00498852702134
0.00498852721773
0.00498852737871
0.00498852750578
0.00498852760053
0.00498852766486
0.00498852770075
0.00498852771047
0.00498852769637
0.00498852766101
0.00498852760698
0.00498852753695
0.00498852745343
0.00498852735872
0.00498852725451
0.00498852714152
0.0049885270187
0.00498852688229
0.00498852672446
0.0049885265322
0.00498852628728
0.00498852597018
0.00498852557189
0.004988525118
0.00498852442285
0.00498865949465
0.00498865870282
0.00498865866805
0.0049886586144
0.0049886585444
0.00498865845918
0.00498865836141
0.00498865825236
0.0049886581348
0.00498865800973
0.00498865787955
0.00498865774472
0.00498865760707
0.00498865746658
0.00498865732475
0.00498865718144
0.00498865703822
0.00498865689515
0.00498865675405
0.00498865661521
0.0049886564806
0.00498865635053
0.0049886562268
0.00498865610933
0.00498865599945
0.00498865589641
0.00498865580079
0.00498865571106
0.00498865562704
0.00498865554649
0.0049886554686
0.00498865539062
0.00498865531135
0.00498865522782
0.0049886551387
0.00498865504104
0.0049886549336
0.00498865481366
0.00498865468024
0.00498865453098
0.00498865436524
0.00498865418112
0.00498865397838
0.00498865375559
0.00498865351296
0.00498865324921
0.00498865296535
0.00498865266203
0.00498865234092
0.00498865200198
0.00498865164651
0.00498865127486
0.00498865088866
0.00498865048865
0.00498865007671
0.00498864965391
0.00498864922235
0.00498864878338
0.00498864833928
0.00498864789161
0.00498864744274
0.0049886469944
0.00498864654904
0.00498864610846
0.00498864567514
0.00498864525095
0.00498864483836
0.00498864443931
0.00498864405626
0.00498864369119
0.00498864334662
0.00498864302463
0.00498864272784
0.00498864245849
0.00498864221937
0.00498864201299
0.0049886418424
0.00498864171042
0.00498864162043
0.00498864157562
0.00498864157973
0.00498864163627
0.00498864174922
0.00498864192221
0.00498864215898
0.00498864246248
0.00498864283501
0.00498864327705
0.00498864378745
0.0049886443625
0.00498864499692
0.00498864567882
0.00498864639905
0.00498864715346
0.00498864793489
0.00498864873514
0.00498864954643
0.00498865036133
0.00498865117309
0.00498865197539
0.00498865276267
0.00498865352985
0.00498865427261
0.00498865498708
0.00498865567011
0.00498865631895
0.00498865693151
0.00498865750598
0.00498865804115
0.00498865853605
0.00498865899018
0.00498865940324
0.00498865977532
0.00498866010667
0.00498866039786
0.00498866064959
0.00498866086335
0.00498866104096
0.00498866118391
0.00498866129379
0.00498866137243
0.00498866142178
0.004988661444
0.00498866144135
0.00498866141627
0.00498866137117
0.00498866130853
0.00498866123061
0.00498866113938
0.00498866103615
0.00498866092108
0.00498866079245
0.00498866064568
0.00498866047206
0.00498866025779
0.00498865998441
0.00498865963355
0.00498865920086
0.00498865872313
0.00498865808346
0.00498879291119
0.00498879209002
0.00498879206151
0.00498879201338
0.00498879194828
0.00498879186752
0.00498879177389
0.00498879166865
0.00498879155461
0.0049887914328
0.00498879130561
0.00498879117353
0.00498879103847
0.00498879090046
0.0049887907611
0.0049887906203
0.00498879047968
0.00498879033929
0.00498879020095
0.00498879006489
0.00498878993303
0.00498878980557
0.00498878968424
0.00498878956889
0.00498878946076
0.00498878935907
0.00498878926441
0.00498878917525
0.00498878909147
0.0049887890109
0.00498878893284
0.00498878885465
0.00498878877528
0.00498878869186
0.00498878860321
0.00498878850646
0.00498878840048
0.00498878828261
0.00498878815191
0.00498878800603
0.00498878784434
0.00498878766487
0.00498878746734
0.00498878725022
0.00498878701359
0.00498878675632
0.00498878647849
0.00498878618046
0.00498878586471
0.00498878553094
0.00498878518028
0.00498878481293
0.00498878443035
0.00498878403312
0.00498878362301
0.00498878320099
0.00498878276909
0.00498878232859
0.00498878188174
0.00498878143011
0.00498878097612
0.00498878052155
0.00498878006893
0.0049887796202
0.00498877917798
0.00498877874433
0.00498877832193
0.0049887779129
0.00498877751999
0.00498877714541
0.00498877679195
0.00498877646194
0.00498877615825
0.00498877588335
0.00498877564025
0.00498877543161
0.00498877526061
0.00498877513013
0.00498877504354
0.00498877500391
0.00498877501478
0.00498877507931
0.00498877520101
0.00498877538285
0.00498877562782
0.00498877593796
0.00498877631473
0.00498877675796
0.00498877726621
0.00498877783606
0.00498877846268
0.00498877913966
0.00498877985622
0.0049887806038
0.00498878137846
0.00498878217327
0.00498878298125
0.00498878379512
0.00498878460832
0.00498878541453
0.00498878620816
0.00498878698396
0.00498878773747
0.00498878846456
0.00498878916186
0.00498878982634
0.00498879045563
0.0049887910477
0.00498879160106
0.00498879211453
0.0049887925874
0.00498879301919
0.00498879340984
0.00498879375945
0.00498879406847
0.00498879433749
0.00498879456792
0.0049887947616
0.00498879492002
0.00498879504466
0.00498879513728
0.00498879519972
0.00498879523405
0.00498879524238
0.00498879522701
0.00498879519018
0.00498879513416
0.00498879506098
0.00498879497234
0.00498879486914
0.00498879475113
0.00498879461605
0.00498879445872
0.00498879426994
0.00498879403572
0.00498879373821
0.00498879336142
0.00498879290681
0.00498879242191
0.00498879183826
0.00498892640628
0.00498892555786
0.00498892553488
0.00498892549181
0.00498892543146
0.00498892535522
0.00498892526606
0.00498892516535
0.00498892505591
0.00498892493875
0.00498892481632
0.00498892468911
0.00498892455902
0.00498892442609
0.00498892429191
0.00498892415636
0.00498892402103
0.00498892388588
0.00498892375265
0.00498892362145
0.00498892349408
0.00498892337059
0.00498892325263
0.00498892313991
0.00498892303362
0.00498892293291
0.00498892283839
0.00498892274853
0.00498892266331
0.00498892258063
0.00498892249996
0.00498892241876
0.00498892233618
0.00498892224947
0.00498892215765
0.00498892205795
0.00498892194941
0.00498892182943
0.00498892169721
0.00498892155039
0.00498892138841
0.00498892120928
0.00498892101272
0.00498892079713
0.00498892056257
0.00498892030785
0.00498892003208
0.00498891973578
0.0049889194219
0.00498891909004
0.00498891874124
0.00498891837552
0.00498891799424
0.00498891759785
0.00498891718804
0.00498891676567
0.00498891633272
0.00498891589044
0.00498891544107
0.00498891498618
0.00498891452824
0.00498891406908
0.00498891361133
0.00498891315704
0.00498891270897
0.00498891226933
0.00498891184097
0.00498891142622
0.00498891102799
0.00498891064871
0.00498891029137
0.00498890995849
0.00498890965312
0.00498890937789
0.00498890913595
0.00498890893003
0.00498890876337
0.00498890863881
0.00498890855966
0.00498890852883
0.0049889085496
0.00498890862479
0.00498890875744
0.00498890894998
0.00498890920473
0.00498890952306
0.00498890990578
0.00498891035226
0.00498891086088
0.00498891142829
0.00498891205013
0.00498891272061
0.00498891343309
0.00498891417852
0.00498891494859
0.00498891573828
0.00498891654185
0.004988917353
0.00498891816532
0.0049889189725
0.00498891976903
0.00498892054964
0.00498892130977
0.0049889220452
0.00498892275238
0.00498892342813
0.00498892406988
0.00498892467541
0.00498892524305
0.00498892577141
0.00498892625962
0.00498892670704
0.00498892711344
0.0049889274788
0.00498892780344
0.00498892808781
0.00498892833315
0.0049889285413
0.00498892871376
0.00498892885191
0.00498892895741
0.00498892903197
0.00498892907754
0.00498892909612
0.00498892908982
0.00498892906075
0.00498892901097
0.00498892894231
0.00498892885619
0.00498892875321
0.00498892863277
0.00498892849221
0.00498892832602
0.00498892812481
0.00498892787492
0.00498892755978
0.00498892716642
0.00498892670236
0.00498892622388
0.00498892569523
0.00498906000397
0.00498905913243
0.00498905911412
0.00498905907538
0.00498905901908
0.00498905894685
0.00498905886183
0.00498905876542
0.00498905866059
0.0049890585484
0.00498905843127
0.00498905830967
0.00498905818548
0.00498905805868
0.0049890579308
0.0049890578016
0.00498905767258
0.00498905754355
0.00498905741611
0.0049890572902
0.00498905716749
0.00498905704785
0.00498905693282
0.00498905682198
0.0049890567165
0.00498905661546
0.00498905651951
0.00498905642717
0.00498905633852
0.00498905625158
0.00498905616599
0.00498905607938
0.0049890559911
0.00498905589856
0.00498905580099
0.00498905569578
0.00498905558213
0.00498905545756
0.00498905532136
0.00498905517125
0.00498905500674
0.00498905482582
0.00498905462823
0.00498905441233
0.00498905417817
0.00498905392459
0.00498905364995
0.00498905335433
0.00498905304105
0.00498905271007
0.0049890523623
0.00498905199765
0.00498905161732
0.00498905122167
0.00498905081229
0.00498905038997
0.00498904995662
0.00498904951345
0.00498904906271
0.00498904860596
0.0049890481457
0.00498904768383
0.00498904722305
0.00498904676552
0.00498904631411
0.00498904587115
0.00498904543966
0.00498904502211
0.00498904462158
0.00498904424068
0.00498904388254
0.00498904354983
0.00498904324576
0.00498904297304
0.00498904273492
0.00498904253418
0.00498904237405
0.00498904225734
0.00498904218722
0.00498904216645
0.00498904219803
0.00498904228448
0.00498904242842
0.00498904263178
0.00498904289636
0.00498904322299
0.004989043612
0.0049890440624
0.00498904457239
0.00498904513872
0.00498904575726
0.00498904642268
0.00498904712913
0.0049890478695
0.0049890486376
0.00498904942364
0.00498905022229
0.00498905102983
0.0049890518394
0.00498905264534
0.00498905344207
0.00498905422444
0.00498905498785
0.00498905572804
0.00498905644137
0.00498905712456
0.00498905777491
0.00498905839006
0.0049890589682
0.00498905950782
0.00498906000788
0.00498906046761
0.00498906088666
0.00498906126489
0.00498906160249
0.00498906189982
0.00498906215782
0.00498906237833
0.00498906256292
0.00498906271288
0.00498906282974
0.00498906291513
0.00498906297086
0.0049890629988
0.00498906300092
0.00498906297919
0.00498906293548
0.00498906287144
0.00498906278825
0.00498906268629
0.00498906256466
0.00498906242047
0.00498906224807
0.00498906203822
0.00498906177795
0.00498906145241
0.00498906105199
0.00498906058975
0.00498906012823
0.00498905965301
0.00498919372547
0.00498919283689
0.00498919282223
0.00498919278679
0.00498919273359
0.00498919266439
0.00498919258252
0.0049891924896
0.00498919238868
0.00498919228082
0.00498919216852
0.0049891920522
0.00498919193368
0.00498919181283
0.00498919169106
0.00498919156797
0.00498919144489
0.00498919132146
0.0049891911991
0.00498919107755
0.00498919095834
0.00498919084118
0.00498919072751
0.0049891906168
0.00498919051023
0.00498919040685
0.00498919030738
0.00498919021042
0.00498919011621
0.00498919002291
0.00498918993037
0.00498918983641
0.00498918974059
0.00498918964054
0.00498918953568
0.00498918942358
0.00498918930361
0.00498918917339
0.00498918903235
0.00498918887828
0.00498918871071
0.00498918852765
0.00498918832883
0.00498918811256
0.0049891878788
0.00498918762615
0.00498918735459
0.00498918706158
0.00498918674901
0.00498918641946
0.00498918607347
0.00498918571078
0.00498918533246
0.00498918493875
0.00498918453109
0.00498918411021
0.00498918367796
0.00498918323549
0.00498918278502
0.00498918232813
0.00498918186735
0.00498918140459
0.00498918094266
0.00498918048376
0.0049891800309
0.00498917958652
0.00498917915375
0.00498917873521
0.00498917833414
0.00498917795325
0.00498917759583
0.00498917726468
0.00498917696311
0.00498917669394
0.00498917646044
0.00498917626544
0.00498917611216
0.00498917600332
0.00498917594202
0.00498917593079
0.00498917597245
0.00498917606918
0.00498917622325
0.00498917643619
0.00498917670936
0.00498917704316
0.00498917743753
0.00498917789121
0.00498917840227
0.00498917896748
0.00498917958295
0.00498918024364
0.0049891809441
0.00498918167822
0.00498918243944
0.00498918322166
0.00498918401655
0.00498918481842
0.00498918562425
0.0049891864265
0.00498918722087
0.00498918800223
0.00498918876589
0.00498918950761
0.00498919022371
0.00498919091085
0.00498919156626
0.00498919218747
0.00498919277259
0.00498919331997
0.0049891938285
0.00498919429729
0.00498919472589
0.00498919511405
0.00498919546188
0.00498919576965
0.00498919603794
0.00498919626853
0.00498919646317
0.00498919662306
0.00498919674964
0.00498919684442
0.00498919690911
0.00498919694546
0.00498919695534
0.00498919694054
0.00498919690282
0.00498919684363
0.00498919676398
0.00498919666407
0.0049891965428
0.00498919639719
0.00498919622162
0.00498919600726
0.00498919574212
0.00498919541337
0.00498919501471
0.00498919456397
0.00498919412724
0.00498919370353
0.0049893275895
0.00498932669174
0.00498932667971
0.00498932664644
0.00498932659503
0.00498932652753
0.00498932644751
0.00498932635668
0.0049893262583
0.00498932615354
0.00498932604487
0.00498932593267
0.00498932581869
0.00498932570263
0.00498932558575
0.00498932546743
0.00498932534882
0.00498932522932
0.00498932511019
0.00498932499096
0.00498932487304
0.00498932475598
0.00498932464119
0.00498932452808
0.00498932441785
0.0049893243096
0.00498932420417
0.00498932410027
0.00498932399837
0.00498932389677
0.00498932379558
0.00498932369281
0.0049893235883
0.00498932347985
0.00498932336711
0.0049893232478
0.00498932312148
0.00498932298586
0.0049893228405
0.0049893226832
0.00498932251357
0.0049893223296
0.00498932213099
0.004989321916
0.00498932168451
0.00498932143506
0.00498932116782
0.00498932087882
0.00498932056978
0.00498932024389
0.00498931990185
0.00498931954327
0.00498931916909
0.00498931877939
0.00498931837553
0.00498931795812
0.00498931752894
0.0049893170891
0.00498931664077
0.00498931618553
0.00498931572591
0.00498931526387
0.00498931480226
0.00498931434338
0.00498931389031
0.0049893134456
0.00498931301251
0.00498931259377
0.00498931219275
0.00498931181229
0.00498931145582
0.00498931112624
0.00498931082696
0.00498931056087
0.00498931033132
0.00498931014113
0.0049893099935
0.00498930989112
0.00498930983696
0.0049893098334
0.00498930988303
0.00498930998778
0.00498931014962
0.00498931036973
0.0049893106491
0.00498931098779
0.00498931138544
0.00498931184058
0.00498931235117
0.004989312914
0.00498931352532
0.00498931418036
0.004989314874
0.0049893156004
0.00498931635373
0.0049893171277
0.00498931791531
0.00498931871228
0.00498931951099
0.00498932030702
0.00498932109723
0.00498932187463
0.00498932263554
0.00498932337569
0.00498932409133
0.00498932477912
0.00498932543624
0.00498932606016
0.00498932664892
0.0049893272008
0.0049893277146
0.00498932818935
0.00498932862452
0.00498932901979
0.00498932937521
0.00498932969098
0.00498932996725
0.00498933020568
0.00498933040831
0.00498933057626
0.00498933071088
0.00498933081361
0.00498933088606
0.00498933092988
0.00498933094682
0.00498933093856
0.00498933090673
0.00498933085265
0.00498933077718
0.00498933068037
0.00498933056107
0.00498933041627
0.0049893302406
0.0049893300258
0.00498932976112
0.0049893294358
0.00498932904672
0.0049893286154
0.00498932820903
0.00498932783459
0.00498946161313
0.0049894607157
0.00498946070519
0.00498946067273
0.00498946062171
0.00498946055429
0.00498946047436
0.00498946038391
0.00498946028634
0.00498946018287
0.00498946007608
0.00498945996624
0.00498945985499
0.00498945974183
0.00498945962783
0.0049894595121
0.00498945939559
0.00498945927745
0.00498945915877
0.00498945903891
0.00498945891918
0.00498945879905
0.00498945867994
0.00498945856126
0.00498945844431
0.0049894583283
0.00498945821424
0.00498945810102
0.00498945798935
0.00498945787775
0.00498945776658
0.00498945765409
0.00498945754036
0.00498945742338
0.00498945730304
0.00498945717717
0.00498945704551
0.00498945690585
0.00498945675782
0.00498945659925
0.00498945642975