/*--------------------------------*- C++ -*----------------------------------*\
| =========                 |                                                 |
| \\      /  F ield         | OpenFOAM: The Open Source CFD Toolbox           |
|  \\    /   O peration     | Version:  2206                                  |
|   \\  /    A nd           | Website:  www.openfoam.com                      |
|    \\/     M anipulation  |                                                 |
\*---------------------------------------------------------------------------*/
FoamFile
{
    version     2.0;
    format      ascii;
    arch        "LSB;label=64;scalar=64";
    class       volScalarField;
    location    "2.7/water";
    object      p_rgh;
}
// * * * * * * * * * * * * * * * * * * * * * * * * * * * * * * * * * * * * * //

dimensions      [1 -1 -2 0 0 0 0];

internalField   nonuniform List<scalar> 
23300
(
100735.315332
100735.356073
100735.354092
100735.352177
100735.350189
100735.348321
100735.346755
100735.345564
100735.344752
100735.344264
100735.344064
100735.344111
100735.344432
100735.345062
100735.346099
100735.347628
100735.349778
100735.352638
100735.356326
100735.360903
100735.366458
100735.373021
100735.380656
100735.389373
100735.399228
100735.410232
100735.422448
100735.435903
100735.450677
100735.466818
100735.484423
100735.503552
100735.524311
100735.546762
100735.571003
100735.597085
100735.625086
100735.655033
100735.686971
100735.720894
100735.75681
100735.794674
100735.834453
100735.876066
100735.919437
100735.96443
100736.010896
100736.058662
100736.107574
100736.157441
100736.208068
100736.259232
100736.310706
100736.36224
100736.413583
100736.46447
100736.514632
100736.563796
100736.611686
100736.658029
100736.702552
100736.744993
100736.78509
100736.822602
100736.857288
100736.888934
100736.91733
100736.942297
100736.963661
100736.981286
100736.99504
100737.004834
100737.010584
100737.012255
100737.009818
100737.003304
100736.992754
100736.978285
100736.960035
100736.938237
100736.913171
100736.885238
100736.854909
100736.822801
100736.789581
100736.755944
100736.722228
100736.688369
100736.654467
100736.621278
100736.589353
100736.558599
100736.528441
100736.498293
100736.467635
100736.43612
100736.403505
100736.369707
100736.334715
100736.298633
100736.261603
100736.223841
100736.185574
100736.147073
100736.1086
100736.070439
100736.032857
100735.996129
100735.960503
100735.926229
100735.893527
100735.862608
100735.833655
100735.806833
100735.782277
100735.760101
100735.740381
100735.723178
100735.70852
100735.696416
100735.686847
100735.679774
100735.675127
100735.672822
100735.672744
100735.674766
100735.678737
100735.684497
100735.691871
100735.700678
100735.71073
100735.721856
100735.73392
100735.746866
100735.760755
100735.775735
100735.791785
100735.80811
100735.822275
100735.867689
100735.364657
100735.408007
100735.411368
100735.415173
100735.419341
100735.42374
100735.428283
100735.432902
100735.43755
100735.44219
100735.446822
100735.451462
100735.456163
100735.460982
100735.465992
100735.471246
100735.476803
100735.482684
100735.488912
100735.495476
100735.502374
100735.509581
100735.517092
100735.524895
100735.533011
100735.54146
100735.550303
100735.559602
100735.56946
100735.579976
100735.591281
100735.603494
100735.616756
100735.631185
100735.64691
100735.66403
100735.682646
100735.702825
100735.724627
100735.748077
100735.773193
100735.799956
100735.828336
100735.858274
100735.889696
100735.922494
100735.956542
100735.991694
100736.027803
100736.064702
100736.102214
100736.140151
100736.178316
100736.216505
100736.254507
100736.292107
100736.329091
100736.365243
100736.400352
100736.434212
100736.466622
100736.497396
100736.526356
100736.553341
100736.578203
100736.600819
100736.621077
100736.638895
100736.654206
100736.666975
100736.67718
100736.684835
100736.689964
100736.69263
100736.6929
100736.690877
100736.686668
100736.680408
100736.672228
100736.662279
100736.650694
100736.637599
100736.623058
100736.607055
100736.589389
100736.569575
100736.546698
100736.519732
100736.488498
100736.45381
100736.416934
100736.379142
100736.341202
100736.303554
100736.266423
100736.229939
100736.194162
100736.159144
100736.124911
100736.091504
100736.058953
100736.027304
100735.996602
100735.966907
100735.938278
100735.910789
100735.884515
100735.859541
100735.835953
100735.813844
100735.793302
100735.774419
100735.757277
100735.741956
100735.728523
100735.717035
100735.707517
100735.699985
100735.694437
100735.69086
100735.689212
100735.689433
100735.691436
100735.695114
100735.700333
100735.706943
100735.714769
100735.723624
100735.733302
100735.743588
100735.754262
100735.765114
100735.775983
100735.786815
100735.797745
100735.809139
100735.821442
100735.834688
100735.847451
100735.892976
100735.347114
100735.390104
100735.393934
100735.398513
100735.403761
100735.409577
100735.415851
100735.422474
100735.429355
100735.436415
100735.443615
100735.450931
100735.458383
100735.465992
100735.473801
100735.481837
100735.490128
100735.49867
100735.507459
100735.516458
100735.525636
100735.534942
100735.544344
100735.553805
100735.56332
100735.572892
100735.582559
100735.592371
100735.602416
100735.612787
100735.623607
100735.634997
100735.647096
100735.660031
100735.673936
100735.688926
100735.70511
100735.722576
100735.741398
100735.761628
100735.7833
100735.806424
100735.830994
100735.856981
100735.88434
100735.912993
100735.942833
100735.973746
100736.005617
100736.03832
100736.071716
100736.105659
100736.139991
100736.174552
100736.209174
100736.243688
100736.277922
100736.311707
100736.344873
100736.377259
100736.408705
100736.439063
100736.468192
100736.495964
100736.522262
100736.546984
100736.570038
100736.591356
100736.610874
100736.628551
100736.644354
100736.65827
100736.670287
100736.68041
100736.688644
100736.695
100736.699479
100736.702086
100736.702797
100736.701579
100736.698354
100736.693006
100736.685339
100736.675073
100736.661778
100736.644878
100736.623642
100736.597403
100736.566265
100736.530941
100736.492215
100736.451125
100736.40859
100736.365333
100736.321894
100736.278699
100736.23607
100736.194272
100736.153507
100736.11395
100736.075731
100736.038966
100736.003744
100735.970143
100735.938224
100735.908045
100735.87965
100735.853088
100735.828393
100735.805608
100735.784761
100735.765887
100735.749009
100735.734147
100735.721312
100735.710508
100735.701709
100735.694878
100735.689974
100735.68694
100735.685701
100735.686163
100735.688212
100735.691714
100735.696515
100735.702448
100735.709326
100735.716957
100735.725143
100735.733692
100735.742433
100735.751251
100735.760132
100735.769238
100735.77899
100735.790086
100735.803316
100735.81903
100735.836157
100735.884012
100735.34158
100735.385163
100735.388791
100735.393422
100735.398959
100735.405305
100735.412349
100735.419968
100735.428051
100735.436497
100735.445238
100735.454223
100735.463439
100735.472877
100735.48255
100735.492454
100735.502589
100735.512928
100735.523443
100735.534074
100735.544772
100735.555466
100735.566108
100735.576645
100735.587057
100735.597332
100735.607495
100735.617586
100735.627682
100735.637867
100735.648258
100735.658973
100735.670147
100735.681909
100735.694396
100735.707727
100735.722022
100735.737379
100735.753887
100735.771613
100735.790611
100735.810912
100735.832533
100735.855471
100735.879708
100735.905196
100735.931851
100735.959575
100735.988286
100736.017889
100736.04828
100736.079343
100736.110956
100736.14299
100736.175308
100736.207776
100736.240248
100736.272587
100736.304647
100736.336294
100736.367387
100736.397801
100736.427406
100736.456089
100736.483736
100736.51025
100736.535536
100736.559515
100736.582107
100736.603251
100736.62288
100736.640945
100736.657387
100736.672156
100736.685192
100736.696433
100736.705799
100736.713203
100736.718525
100736.72163
100736.722338
100736.720434
100736.715643
100736.707634
100736.695994
100736.680259
100736.659946
100736.634697
100736.604583
100736.570288
100736.532435
100736.491595
100736.448566
100736.40407
100736.358722
100736.313062
100736.267538
100736.222544
100736.178403
100736.135398
100736.093754
100736.053666
100736.015287
100735.978746
100735.944138
100735.911546
100735.881026
100735.852626
100735.826376
100735.802301
100735.78041
100735.760712
100735.7432
100735.727866
100735.714686
100735.703634
100735.694649
100735.68766
100735.682595
100735.679375
100735.677901
100735.678061
100735.679723
100735.682744
100735.686963
100735.69221
100735.698304
100735.705062
100735.712305
100735.719875
100735.727651
100735.735589
100735.743778
100735.752514
100735.762383
100735.774273
100735.789195
100735.807746
100735.829095
100735.876493
100735.340948
100735.385761
100735.389049
100735.393493
100735.398999
100735.405467
100735.412791
100735.420846
100735.429517
100735.438691
100735.448288
100735.458239
100735.468506
100735.479058
100735.48988
100735.500945
100735.512231
100735.523691
100735.535277
100735.546916
100735.558544
100735.570081
100735.581467
100735.592642
100735.603576
100735.61425
100735.624681
100735.634903
100735.644983
100735.655002
100735.665069
100735.675297
100735.685817
100735.696758
100735.708254
100735.72043
100735.733408
100735.747293
100735.762184
100735.77816
100735.795287
100735.813616
100735.833179
100735.853994
100735.876061
100735.899372
100735.923851
100735.949409
100735.975987
100736.003519
100736.031922
100736.061108
100736.090977
100736.121426
100736.152339
100736.183602
100736.215091
100736.246683
100736.278251
100736.309671
100736.340813
100736.371558
100736.40178
100736.431366
100736.460198
100736.488172
100736.515178
100736.541121
100736.565902
100736.58943
100736.611612
100736.632359
100736.651574
100736.669164
100736.68502
100736.699031
100736.711066
100736.720984
100736.728617
100736.733783
100736.736262
100736.735817
100736.732164
100736.724996
100736.713969
100736.698737
100736.678987
100736.654535
100736.625383
100736.592046
100736.555237
100736.515396
100736.473007
100736.428724
100736.383143
100736.336819
100736.290241
100736.243857
100736.19805
100736.153168
100736.109497
100736.067292
100736.026759
100735.988074
100735.951372
100735.916769
100735.884346
100735.854169
100735.826279
100735.800706
100735.777459
100735.756542
100735.737939
100735.721628
100735.707575
100735.695736
100735.686031
100735.678367
100735.67266
100735.668816
100735.666725
100735.666266
100735.667302
100735.669689
100735.673265
100735.677866
100735.683319
100735.689456
100735.69612
100735.70318
100735.710557
100735.718265
100735.72647
100735.735568
100735.746263
100735.759582
100735.776677
100735.798225
100735.823213
100735.868422
100735.341676
100735.388082
100735.390983
100735.395147
100735.400474
100735.40686
100735.414199
100735.422367
100735.43125
100735.440732
100735.450726
100735.461151
100735.471957
100735.483092
100735.494526
100735.506213
100735.518116
100735.530173
100735.542325
100735.554492
100735.5666
100735.578568
100735.590328
100735.601821
100735.613011
100735.623877
100735.634434
100735.644711
100735.654769
100735.664686
100735.674563
100735.68451
100735.694652
100735.705115
100735.716029
100735.727521
100735.739709
100735.752706
100735.766612
100735.781515
100735.79749
100735.814596
100735.83288
100735.852373
100735.873087
100735.895052
100735.9182
100735.94244
100735.967729
100735.994018
100736.021242
100736.049332
100736.078206
100736.107776
100736.137942
100736.168605
100736.19965
100736.230968
100736.262436
100736.293938
100736.325346
100736.356542
100736.387398
100736.417794
100736.447606
100736.476716
100736.505002
100736.53235
100736.55864
100736.58376
100736.607587
100736.630007
100736.650893
100736.670121
100736.687549
100736.703037
100736.716423
100736.727541
100736.7362
100736.742202
100736.745319
100736.745317
100736.741934
100736.734901
100736.72394
100736.708798
100736.689268
100736.665257
100736.636822
100736.60419
100736.568033
100736.529
100736.487391
100736.443671
100736.398391
100736.352085
100736.305242
100736.25832
100736.211727
100736.165836
100736.120969
100736.077418
100736.035421
100735.995192
100735.956897
100735.920682
100735.886652
100735.854897
100735.825474
100735.798426
100735.773773
100735.751522
100735.73166
100735.714166
100735.699003
100735.686124
100735.67544
100735.666847
100735.660255
100735.655566
100735.652668
100735.651438
100735.651742
100735.653435
100735.656365
100735.660373
100735.665299
100735.67099
100735.677308
100735.684149
100735.691473
100735.69934
100735.70798
100735.717866
100735.729789
100735.744849
100735.764231
100735.788481
100735.816049
100735.858187
100735.341405
100735.389574
100735.392086
100735.395934
100735.401013
100735.407211
100735.414418
100735.42251
100735.431374
100735.440894
100735.450979
100735.461541
100735.472523
100735.483862
100735.495516
100735.507431
100735.519558
100735.53183
100735.54418
100735.556528
100735.568798
100735.580909
100735.592796
100735.604398
100735.615683
100735.626631
100735.637252
100735.647576
100735.65766
100735.667577
100735.677422
100735.6873
100735.697328
100735.707629
100735.718326
100735.729541
100735.741391
100735.753988
100735.767432
100735.781814
100735.797213
100735.813695
100735.831312
100735.850105
100735.870098
100735.891326
100735.91376
100735.937322
100735.961942
100735.987587
100736.014208
100736.041749
100736.07014
100736.099306
100736.129157
100736.159602
100736.190535
100736.221851
100736.253432
100736.285163
100736.316917
100736.348571
100736.379994
100736.411059
100736.441631
100736.471581
100736.500774
100736.529079
100736.556358
100736.582481
100736.607305
100736.630695
100736.652501
100736.672578
100736.690765
100736.706905
100736.720819
100736.732329
100736.741237
100736.747344
100736.750431
100736.750277
100736.746649
100736.73932
100736.72807
100736.712714
100736.693119
100736.669251
100736.641184
100736.60914
100736.573441
100736.534805
100736.493788
100736.45064
100736.405796
100736.359751
100736.312978
100736.265926
100736.219003
100736.172594
100736.127034
100736.082632
100736.039651
100735.998323
100735.958841
100735.921372
100735.886042
100735.852961
100735.822204
100735.793828
100735.767866
100735.744335
100735.72323
100735.704536
100735.68822
100735.674239
100735.662503
100735.652903
100735.645348
100735.639742
100735.635976
100735.633931
100735.633476
100735.634475
100735.636781
100735.640247
100735.644724
100735.650074
100735.65618
100735.662961
100735.670409
100735.678626
100735.687892
100735.698734
100735.711987
100735.728769
100735.750193
100735.776522
100735.805531
100735.844304
100735.338199
100735.388147
100735.390296
100735.393833
100735.398646
100735.404613
100735.41162
100735.419538
100735.428254
100735.437652
100735.447639
100735.458126
100735.469048
100735.480342
100735.491957
100735.503836
100735.515926
100735.52816
100735.540471
100735.552781
100735.565018
100735.577106
100735.588983
100735.600594
100735.611909
100735.622911
100735.63361
100735.644034
100735.654235
100735.664284
100735.674266
100735.684282
100735.694438
100735.70485
100735.715634
100735.726905
100735.738775
100735.75135
100735.764729
100735.779001
100735.794246
100735.810534
100735.827918
100735.846447
100735.866151
100735.887056
100735.909191
100735.932495
100735.95685
100735.982238
100736.008618
100736.035947
100736.064163
100736.093202
100736.122979
100736.153412
100736.184398
100736.215836
100736.24761
100736.279604
100736.31169
100736.343741
100736.375621
100736.407194
100736.438318
100736.468853
100736.49865
100736.527566
100736.55545
100736.582154
100736.607521
100736.631399
100736.653624
100736.674038
100736.692467
100736.708742
100736.722679
100736.734096
100736.742795
100736.748585
100736.751259
100736.750617
100736.746454
100736.738585
100736.726834
100736.711072
100736.691217
100736.667273
100736.639333
100736.6076
100736.57237
100736.53403
100736.493233
100736.450496
100736.40606
100736.360342
100736.313769
100736.266777
100736.219767
100736.17312
100736.127176
100736.082252
100736.03862
100735.996528
100735.956183
100735.917767
100735.881424
100735.847278
100735.81542
100735.78592
100735.758823
100735.734157
100735.711928
100735.692129
100735.674732
100735.659704
100735.646958
100735.636384
100735.627892
100735.621391
100735.616777
100735.613938
100735.612749
100735.613082
100735.614798
100735.617762
100735.621837
100735.626898
100735.632846
100735.639624
100735.647248
100735.655855
100735.665759
100735.677517
100735.691976
100735.710217
100735.733208
100735.760861
100735.790301
100735.825678
100735.330368
100735.381972
100735.383804
100735.387062
100735.391628
100735.397371
100735.404166
100735.411881
100735.4204
100735.429606
100735.439403
100735.449703
100735.46044
100735.471549
100735.482981
100735.494679
100735.506591
100735.518654
100735.530806
100735.542976
100735.555098
100735.567103
100735.578936
100735.590549
100735.601913
100735.613015
100735.623865
100735.634488
100735.644932
100735.65526
100735.66555
100735.675894
100735.686388
100735.697137
100735.708247
100735.719827
100735.731977
100735.744799
100735.758386
100735.772826
100735.788194
100735.804562
100735.821983
100735.84051
100735.860175
100735.881007
100735.903094
100735.926364
100735.950673
100735.976007
100736.002333
100736.029618
100736.057805
100736.086839
100736.116642
100736.147134
100736.178219
100736.209797
100736.241753
100736.273971
100736.30632
100736.33867
100736.370878
100736.402805
100736.434296
100736.465206
100736.495373
100736.524646
100736.552858
100736.579851
100736.605456
100736.629511
100736.651839
100736.672272
100736.690631
100736.706739
100736.720411
100736.731466
100736.739711
100736.744964
100736.747033
100736.745741
100736.74091
100736.732388
100736.720039
100736.703776
100736.683555
100736.65941
100736.631444
100736.599854
100736.56491
100736.526959
100736.486406
100736.443796
100736.399635
100736.354225
100736.307917
100736.261088
100736.21413
100736.167423
100736.121302
100736.076086
100736.032052
100735.989455
100735.948511
100735.909412
100735.872315
100735.837354
100735.804631
100735.774229
100735.746203
100735.720591
100735.697407
100735.676653
100735.658311
100735.642352
100735.628702
100735.617251
100735.607907
100735.600588
100735.595193
100735.591619
100735.589747
100735.589458
100735.590624
100735.593116
100735.596811
100735.601598
100735.607392
100735.614155
100735.621925
100735.630862
100735.641301
100735.653809
100735.669215
100735.688521
100735.712512
100735.740735
100735.769783
100735.801826
100735.316414
100735.369426
100735.370998
100735.374031
100735.378399
100735.383959
100735.390577
100735.398115
100735.406449
100735.415461
100735.425055
100735.435142
100735.445657
100735.45654
100735.467743
100735.479214
100735.49091
100735.502773
100735.51475
100735.526779
100735.538802
100735.550758
100735.5626
100735.574284
100735.585786
100735.597094
100735.608213
100735.619169
100735.63
100735.640762
100735.651523
100735.662362
100735.673366
100735.684627
100735.69624
100735.708301
100735.720904
100735.734144
100735.748103
100735.762868
100735.778511
100735.795101
100735.812693
100735.831341
100735.851079
100735.871933
100735.894038
100735.917349
100735.941695
100735.967046
100735.993374
100736.020655
100736.04884
100736.07788
100736.107703
100736.138236
100736.169384
100736.201051
100736.233122
100736.265481
100736.297994
100736.330531
100736.362941
100736.395081
100736.426789
100736.457912
100736.488279
100736.517728
100736.546085
100736.573181
100736.598838
100736.622883
100736.645133
100736.665413
100736.683538
100736.699331
100736.712603
100736.723179
100736.730872
100736.735511
100736.736919
100736.734939
100736.729419
100736.720235
100736.707285
100736.690513
100736.669906
100736.645518
100736.617463
100736.585934
100736.551185
100736.513536
100736.473344
100736.431036
100736.386991
100736.341798
100736.295784
100736.249171
100736.202377
100736.155743
100736.109608
100736.064284
100736.02005
100735.977164
100735.935846
100735.896296
100735.858677
100735.823132
100735.789772
100735.758688
100735.729944
100735.703585
100735.679634
100735.658101
100735.638972
100735.622228
100735.60781
100735.595609
100735.58553
100735.577494
100735.571409
100735.567178
100735.56469
100735.563833
100735.564487
100735.566534
100735.569859
100735.574365
100735.57998
100735.586679
100735.59452
100735.603675
100735.614488
100735.627518
100735.64355
100735.663482
100735.687898
100735.716007
100735.744026
100735.77283
100735.295014
100735.349069
100735.350448
100735.353322
100735.357561
100735.363009
100735.36952
100735.376946
100735.385158
100735.394031
100735.403468
100735.413383
100735.423713
100735.434403
100735.445412
100735.456699
100735.468225
100735.479947
100735.49182
100735.503791
100735.515812
100735.527831
100735.539804
100735.551695
100735.563477
100735.57514
100735.586684
100735.598127
100735.6095
100735.620849
100735.632228
100735.643705
100735.655351
100735.667249
100735.679478
100735.692126
100735.705274
100735.719011
100735.733413
100735.74856
100735.764523
100735.781371
100735.79916
100735.817945
100735.837767
100735.858667
100735.88068
100735.903921
100735.928308
100735.95365
100735.979942
100736.007169
100736.035293
100736.064272
100736.094041
100736.124532
100736.155655
100736.187317
100736.219404
100736.251801
100736.284373
100736.316986
100736.349486
100736.381725
100736.413535
100736.444755
100736.475208
100736.504725
100736.53312
100736.560219
100736.585833
100736.609784
100736.631882
100736.651946
100736.669787
100736.685228
100736.698081
100736.708173
100736.715327
100736.719381
100736.720173
100736.717563
100736.711422
100736.701651
100736.688173
100736.670961
100736.650022
100736.625428
100736.597302
100736.565834
100736.531266
100736.493897
100736.454062
100736.412127
100736.368494
100736.323528
100736.277737
100736.231464
100736.184893
100736.138479
100736.092485
100736.047219
100736.002968
100735.959987
100735.918499
100735.878708
100735.840781
100735.804868
100735.771084
100735.739528
100735.710269
100735.68336
100735.65883
100735.636694
100735.616944
100735.599566
100735.584524
100735.571711
100735.561021
100735.552382
100735.545708
100735.540906
100735.537874
100735.536506
100735.536688
100735.538313
100735.541275
100735.545485
100735.550883
100735.557458
100735.565274
100735.574514
100735.585517
100735.598818
100735.615142
100735.635267
100735.659573
100735.686983
100735.713498
100735.739181
100735.264988
100735.319614
100735.320867
100735.32366
100735.327856
100735.333284
100735.339785
100735.347198
100735.355385
100735.364215
100735.37359
100735.383426
100735.393664
100735.404257
100735.415174
100735.426383
100735.437859
100735.44957
100735.46148
100735.473548
100735.485732
100735.497988
100735.510274
100735.522555
100735.534804
100735.547004
100735.55915
100735.57125
100735.583323
100735.595403
100735.607529
100735.619756
100735.63214
100735.644751
100735.657654
100735.670928
100735.684643
100735.698881
100735.713711
100735.729212
100735.74545
100735.762496
100735.780407
100735.799243
100735.819047
100735.839864
100735.86172
100735.884816
100735.90908
100735.934283
100735.960413
100735.987462
100736.015401
100736.044195
100736.073788
100736.104117
100736.135098
100736.16664
100736.198632
100736.23096
100736.263488
100736.29608
100736.32858
100736.360833
100736.39267
100736.42392
100736.454402
100736.483936
100736.512332
100736.539406
100736.564963
100736.588818
100736.610774
100736.630647
100736.648245
100736.663389
100736.675892
100736.685587
100736.692301
100736.695882
100736.696182
100736.693078
100736.686458
100736.676244
100736.662383
100736.644865
100736.623719
100736.599029
100736.570923
100736.539592
100736.505267
100736.468234
100736.428805
100736.387332
100736.34417
100736.299699
100736.254344
100736.208362
100736.162217
100736.116176
100736.07043
100736.0254
100735.981311
100735.938422
100735.89696
100735.857126
100735.819093
100735.783013
100735.749007
100735.717176
100735.687596
100735.660325
100735.635395
100735.612825
100735.592614
100735.57475
100735.559222
100735.545933
100735.534757
100735.525629
100735.518465
100735.51318
100735.509676
100735.507853
100735.507607
100735.508834
100735.511437
100735.515336
100735.52048
100735.526864
100735.53456
100735.543748
100735.554756
100735.568081
100735.584375
100735.60429
100735.628013
100735.654244
100735.678919
100735.701617
100735.225254
100735.279879
100735.281077
100735.283877
100735.288128
100735.293647
100735.300255
100735.30778
100735.316068
100735.324985
100735.334428
100735.344317
100735.354599
100735.365237
100735.376213
100735.387509
100735.39911
100735.410998
100735.423147
100735.435524
100735.448093
100735.460811
100735.473638
100735.486535
100735.499469
100735.512415
100735.525355
100735.538288
100735.551216
100735.564159
100735.577141
100735.5902
100735.60338
100735.616735
100735.630319
100735.644201
100735.658443
100735.673118
100735.688295
100735.704048
100735.720445
100735.737557
100735.755447
100735.774178
100735.793801
100735.814367
100735.835904
100735.858615
100735.882525
100735.907433
100735.933238
100735.959946
100735.98754
100736.015995
100736.045264
100736.07529
100736.105996
100736.137296
100736.169082
100736.20124
100736.233636
100736.266131
100736.298568
100736.330788
100736.362615
100736.393875
100736.424378
100736.453938
100736.482358
100736.509446
100736.535001
100736.558828
100736.580728
100736.600511
100736.617981
100736.632958
100736.645257
100736.654713
100736.661159
100736.664452
100736.664455
100736.661058
100736.654164
100736.643715
100736.629674
100736.612049
100736.590882
100736.566268
100736.538342
100736.507291
100736.473341
100736.436765
100736.39786
100736.35696
100736.314405
100736.270556
100736.22576
100736.180392
100736.134786
100736.089224
100736.044034
100735.999398
100735.955641
100735.913045
100735.871802
100735.832122
100735.79418
100735.758129
100735.724091
100735.692175
100735.662457
100735.634999
100735.609838
100735.586996
100735.566474
100735.548263
100735.53238
100735.518741
100735.507196
100735.497684
100735.490126
100735.484441
100735.480535
100735.478315
100735.477679
100735.478533
100735.480784
100735.48436
100735.489214
100735.495348
100735.502832
100735.51184
100735.522677
100735.535796
100735.551765
100735.57111
100735.59385
100735.618525
100735.641139
100735.661005
100735.174791
100735.228749
100735.229965
100735.232866
100735.237286
100735.243022
100735.249876
100735.257656
100735.266195
100735.275352
100735.28502
100735.295122
100735.305617
100735.31648
100735.327707
100735.339295
100735.351245
100735.363548
100735.376188
100735.389137
100735.402359
100735.415811
100735.429446
100735.443218
100735.457081
100735.471
100735.48494
100735.498883
100735.512816
100735.52674
100735.540664
100735.55461
100735.568606
100735.582694
100735.596919
100735.611338
100735.626009
100735.641001
100735.656379
100735.672221
100735.688595
100735.70558
100735.723242
100735.741656
100735.760881
100735.780981
100735.802005
100735.824022
100735.847276
100735.871686
100735.896961
100735.923131
100735.950191
100735.978129
100736.006907
100736.036478
100736.066773
100736.09771
100736.129185
100736.161087
100736.193282
100736.225631
100736.257973
100736.290147
100736.321971
100736.353265
100736.383833
100736.413482
100736.442006
100736.469207
100736.494874
100736.518809
100736.540803
100736.560662
100736.578187
100736.593195
100736.605502
100736.614943
100736.621359
100736.624611
100736.624571
100736.621141
100736.614239
100736.603819
100736.589858
100736.572379
100736.551435
100736.527129
100736.499598
100736.469032
100736.435648
100736.399711
100736.361506
100736.321349
100736.279566
100736.2365
100736.192489
100736.147874
100736.10298
100736.058177
100736.013647
100735.969699
100735.926595
100735.884443
100735.843608
100735.804289
100735.766633
100735.730803
100735.696924
100735.665105
100735.635425
100735.60795
100735.582719
100735.559758
100735.539068
100735.52064
100735.504517
100735.490642
100735.478835
100735.469037
100735.461173
100735.455165
100735.450923
100735.448358
100735.447373
100735.447878
100735.449787
100735.45303
100735.457566
100735.463395
100735.470585
100735.479296
100735.489804
100735.502508
100735.517893
100735.53636
100735.557787
100735.580622
100735.601048
100735.618251
100735.112588
100735.165128
100735.166441
100735.169548
100735.174262
100735.180359
100735.187612
100735.195811
100735.204769
100735.214338
100735.224406
100735.234906
100735.245807
100735.257102
100735.268803
100735.280929
100735.29349
100735.306491
100735.319918
100735.333747
100735.347936
100735.362434
100735.377181
100735.392118
100735.40718
100735.422315
100735.437468
100735.452601
100735.46768
100735.482689
100735.497618
100735.512476
100735.527273
100735.542044
100735.556821
100735.571658
100735.586607
100735.601738
100735.617117
100735.632825
100735.648937
100735.665539
100735.682708
100735.700529
100735.719074
100735.738418
100735.758623
100735.779738
100735.802102
100735.825688
100735.850178
100735.875575
100735.901885
100735.929108
100735.957218
100735.986178
100736.015925
100736.046384
100736.077457
100736.109034
100736.140983
100736.173162
100736.205411
100736.237562
100736.26943
100736.300828
100736.331553
100736.361404
100736.390167
100736.417635
100736.44359
100736.467825
100736.490124
100736.510287
100736.528111
100736.54341
100736.555997
100736.565711
100736.572391
100736.575906
100736.576136
100736.57299
100736.566397
100736.556323
100736.542755
100736.525728
100736.505303
100736.481589
100736.454727
100736.424903
100736.392331
100736.357268
100736.319987
100736.280792
100736.239995
100736.197923
100736.154901
100736.111258
100736.067311
100736.023364
100735.979707
100735.936685
100735.89438
100735.853075
100735.812992
100735.774191
100735.737006
100735.701599
100735.668067
100735.636525
100735.607058
100735.579732
100735.554588
100735.531655
100735.510937
100735.492425
100735.476165
100735.462139
100735.450167
100735.440174
100735.432086
100735.425826
100735.42131
100735.418449
100735.417153
100735.417334
100735.41891
100735.421816
100735.426008
100735.431488
100735.438313
100735.446625
100735.456663
100735.468772
100735.48335