/*--------------------------------*- C++ -*----------------------------------*\
| =========                 |                                                 |
| \\      /  F ield         | OpenFOAM: The Open Source CFD Toolbox           |
|  \\    /   O peration     | Version:  2206                                  |
|   \\  /    A nd           | Website:  www.openfoam.com                      |
|    \\/     M anipulation  |                                                 |
\*---------------------------------------------------------------------------*/
FoamFile
{
    version     2.0;
    format      ascii;
    arch        "LSB;label=64;scalar=64";
    class       volVectorField;
    location    "316800";
    object      U;
}
// * * * * * * * * * * * * * * * * * * * * * * * * * * * * * * * * * * * * * //

dimensions      [0 1 -1 0 0 0 0];

internalField   nonuniform List<vector> 
16
(
(1.50058e-07 -1.57278e-07 0)
(3.18883e-07 -9.91551e-09 0)
(1.72235e-07 8.61062e-08 0)
(1.75869e-08 7.27198e-08 0)
(-1.02814e-08 -3.12315e-07 0)
(3.88899e-08 -1.00879e-08 0)
(6.66968e-09 2.16789e-07 0)
(-4.07943e-08 1.14066e-07 0)
(-9.38596e-08 -1.85665e-07 0)
(-1.83005e-07 -2.88463e-08 0)
(-8.67852e-08 1.70013e-07 0)
(-1.89571e-08 4.0677e-08 0)
(-4.12239e-08 -3.7177e-08 0)
(-1.81432e-07 -2.14817e-08 0)
(-8.73658e-08 5.37386e-08 0)
(3.93974e-08 6.48175e-09 0)
)
;

boundaryField
{
    movingWall
    {
        type            noSlip;
    }
    fixedWalls
    {
        type            noSlip;
    }
    frontAndBack
    {
        type            empty;
    }
}


// ************************************************************************* //
