/*--------------------------------*- C++ -*----------------------------------*\
| =========                 |                                                 |
| \\      /  F ield         | OpenFOAM: The Open Source CFD Toolbox           |
|  \\    /   O peration     | Version:  2212                                  |
|   \\  /    A nd           | Website:  www.openfoam.com                      |
|    \\/     M anipulation  |                                                 |
\*---------------------------------------------------------------------------*/
FoamFile
{
    version     2.0;
    format      ascii;
    arch        "LSB;label=64;scalar=64";
    class       volScalarField::Internal;
    location    "1810";
    object      dGco2;
}
// * * * * * * * * * * * * * * * * * * * * * * * * * * * * * * * * * * * * * //

dimensions      [1 -3 -1 0 0 0 0];

value           nonuniform List<scalar> 
1024
(
0.000161633
0.00016169
0.000161831
0.000162088
0.000162505
0.000163131
0.000164015
0.000165202
0.000166715
0.000168543
0.000170632
0.000172883
0.00017517
0.000177362
0.000179344
0.00018101
0.000182124
0.000182513
0.000182264
0.000181501
0.000180347
0.000178931
0.000177391
0.000175871
0.000174495
0.000173345
0.000172451
0.000171802
0.000171363
0.00017109
0.000170941
0.00017088
0.000161651
0.000161709
0.00016185
0.00016211
0.000162532
0.000163164
0.000164057
0.000165254
0.000166778
0.000168617
0.000170714
0.000172971
0.00017526
0.000177451
0.000179433
0.0001811
0.000182217
0.000182611
0.000182365
0.000181603
0.000180446
0.000179025
0.000177478
0.000175948
0.00017456
0.000173397
0.000172492
0.000171835
0.000171391
0.000171115
0.000170964
0.000170903
0.000161695
0.000161754
0.000161898
0.000162164
0.000162594
0.00016324
0.000164152
0.000165373
0.000166922
0.000168784
0.000170901
0.000173169
0.000175463
0.000177656
0.000179638
0.000181311
0.000182441
0.00018285
0.000182612
0.000181845
0.000180672
0.000179231
0.000177663
0.000176109
0.000174696
0.000173509
0.000172583
0.00017191
0.000171456
0.000171174
0.000171021
0.000170959
0.000161774
0.000161834
0.000161983
0.000162258
0.000162704
0.000163373
0.000164316
0.000165574
0.000167165
0.000169066
0.000171213
0.000173501
0.000175804
0.000178001
0.000179991
0.000181682
0.000182844
0.000183287
0.000183064
0.000182279
0.000181064
0.000179572
0.000177955
0.000176358
0.000174905
0.000173683
0.000172729
0.000172036
0.000171568
0.000171279
0.000171124
0.000171061
0.000161898
0.000161961
0.000162117
0.000162405
0.000162872
0.000163574
0.000164562
0.000165874
0.000167523
0.00016948
0.000171672
0.000173989
0.000176308
0.000178516
0.000180525
0.000182257
0.000183485
0.000183991
0.000183791
0.000182969
0.000181669
0.000180078
0.00017837
0.0001767
0.00017519
0.000173923
0.000172936
0.000172221
0.000171741
0.000171447
0.000171289
0.000171226
0.000162078
0.000162144
0.000162308
0.000162613
0.000163109
0.000163854
0.0001649
0.000166285
0.000168011
0.000170041
0.000172292
0.000174649
0.000176994
0.000179228
0.00018128
0.000183089
0.000184428
0.000185036
0.000184869
0.000183988
0.000182551
0.000180796
0.000178938
0.000177153
0.00017556
0.000174238
0.000173217
0.000172483
0.000171995
0.0001717
0.000171544
0.000171483
0.000162323
0.000162393
0.000162567
0.000162892
0.000163424
0.000164221
0.00016534
0.000166812
0.000168634
0.000170755
0.00017308
0.000175493
0.000177881
0.000180163
0.000182294
0.000184228
0.000185736
0.000186492
0.000186373
0.000185414
0.000183793
0.000181801
0.000179721
0.000177763
0.000176055
0.000174664
0.000173607
0.00017286
0.000172373
0.000172085
0.000171937
0.000171881
0.000162641
0.000162714
0.0001629
0.000163248
0.000163819
0.000164678
0.00016588
0.000167455
0.000169389
0.000171618
0.000174037
0.000176524
0.00017898
0.000181343
0.000183593
0.000185708
0.000187447
0.000188401
0.000188361
0.000187334
0.000185508
0.000183226
0.000180847
0.000178647
0.000176776
0.000175293
0.000174196
0.000173442
0.000172965
0.000172693
0.000172561
0.000172514
0.000163033
0.00016311
0.000163307
0.000163679
0.000164293
0.000165218
0.000166513
0.000168201
0.000170262
0.000172617
0.000175149
0.000177736
0.000180288
0.000182769
0.000185181
0.000187525
0.000189546
0.000190757
0.000190864
0.00018984
0.000187862
0.000185295
0.000182572
0.000180056
0.000177955
0.000176339
0.000175183
0.000174418
0.000173956
0.000173708
0.000173597
0.000173563
0.000163497
0.000163578
0.000163786
0.000164181
0.000164838
0.000165831
0.000167221
0.00016903
0.000171227
0.000173723
0.000176389
0.0001791
0.000181776
0.0001844
0.000186999
0.000189593
0.000191926
0.000193465
0.000193851
0.00019301
0.000191062
0.000188346
0.000185329
0.000182465
0.000180059
0.000178237
0.000176969
0.000176162
0.0001757
0.00017547
0.00017538
0.000175359
0.000164027
0.00016411
0.000164327
0.000164743
0.00016544
0.000166496
0.000167978
0.000169907
0.000172245
0.000174891
0.000177703
0.000180551
0.00018336
0.000186125
0.000188889
0.000191701
0.000194337
0.000196285
0.00019716
0.000196816
0.000195263
0.000192741
0.000189684
0.000186587
0.000183859
0.000181734
0.00018025
0.000179316
0.000178794
0.000178546
0.000178456
0.00017844
0.000164605
0.00016469
0.000164914
0.000165348
0.000166075
0.000167185
0.000168747
0.000170783
0.000173252
0.000176039
0.000178991
0.000181963
0.000184872
0.000187716
0.000190552
0.000193465
0.000196328
0.00019875
0.000200357
0.000200908
0.000200264
0.000198505
0.000195933
0.000192994
0.000190142
0.000187727
0.000185924
0.000184728
0.000184028
0.000183675
0.000183533
0.000183498
0.00016521
0.000165296
0.000165524
0.000165966
0.000166712
0.000167856
0.00016947
0.000171583
0.000174148
0.000177041
0.000180088
0.000183123
0.00018604
0.000188824
0.000191539
0.000194325
0.000197231
0.000200093
0.000202581
0.00020435
0.000205104
0.000204734
0.00020335
0.000201243
0.000198804
0.000196426
0.000194413
0.000192918
0.00019194
0.000191384
0.000191122
0.000191035
0.000165802
0.000165888
0.000166115
0.000166556
0.0001673
0.000168444
0.000170067
0.000172198
0.000174791
0.000177712
0.000180764
0.000183746
0.000186515
0.000189023
0.000191331
0.000193653
0.000196275
0.000199368
0.000202667
0.000205723
0.000208087
0.00020948
0.000209824
0.000209222
0.000207916
0.000206229
0.000204497
0.000202993
0.000201866
0.000201138
0.000200748
0.000200598
0.000166322
0.000166407
0.000166628
0.000167052
0.000167767
0.000168866
0.00017043
0.000172491
0.000175006
0.000177834
0.000180758
0.000183535
0.000185968
0.000187958
0.000189552
0.000191027
0.000192948
0.000195903
0.000199735
0.000203895
0.000207776
0.00021093
0.00021312
0.0002143
0.000214572
0.000214147
0.000213299
0.000212312
0.000211418
0.000210753
0.000210351
0.00021018
0.00016668
0.000166762
0.00016697
0.000167363
0.000168016
0.000169015
0.000170436
0.000172316
0.000174617
0.000177205
0.000179853
0.000182285
0.000184243
0.000185564
0.000186254
0.000186616
0.000187462
0.000189845
0.000193823
0.00019881
0.000204042
0.000208857
0.000212818
0.00021573
0.000217595
0.000218545
0.000218801
0.000218616
0.000218237
0.000217855
0.00021758
0.000217448
0.000166749
0.000166828
0.00016702
0.000167374
0.000167948
0.000168812
0.000170034
0.000171649
0.000173633
0.000175871
0.000178149
0.000180185
0.000181685
0.000182425
0.000182346
0.000181707
0.000181418
0.00018288
0.000186484
0.000191816
0.000198093
0.00020445
0.000210162
0.000214792
0.000218185
0.000220405
0.000221651
0.000222188
0.000222288
0.000222186
0.000222047
0.000221962
0.000166519
0.000166595
0.000166774
0.000167093
0.000167596
0.000168336
0.000169366
0.000170719
0.000172381
0.000174261
0.000176175
0.000177865
0.000179041
0.000179455
0.000179
0.000177864
0.000176921
0.000177614
0.000180541
0.000185597
0.000192227
0.000199587
0.000206747
0.000212977
0.000217873
0.000221345
0.000223536
0.000224721
0.000225219
0.000225327
0.000225279
0.00022522
0.00016609
0.000166163
0.000166332
0.000166625
0.000167074
0.000167717
0.000168594
0.000169729
0.000171114
0.000172678
0.000174275
0.000175684
0.000176647
0.00017693
0.000176413
0.000175238
0.000174208
0.000174629
0.000177098
0.000181699
0.000188139
0.000195783
0.000203727
0.000211088
0.000217224
0.000221838
0.000224949
0.000226786
0.000227686
0.000228001
0.000228032
0.000227991
0.000165562
0.000165631
0.000165787
0.000166055
0.00016646
0.000167028
0.000167784
0.000168746
0.000169904
0.000171202
0.000172524
0.000173697
0.000174511
0.000174775
0.000174392
0.000173502
0.000172818
0.000173413
0.000175771
0.000180041
0.000186104
0.000193548
0.000201667
0.000209605
0.000216585
0.000222117
0.000226053
0.000228525
0.000229842
0.000230381
0.000230501
0.000230479
0.000165083
0.000165139
0.000165271
0.0001655
0.000165849
0.000166342
0.000166994
0.000167812
0.000168783
0.00016986
0.000170955
0.000171938
0.000172664
0.000173006
0.000172922
0.000172577
0.000172565
0.000173647
0.000176152
0.000180243
0.000185917
0.000192929
0.000200781
0.00020878
0.000216167
0.000222328
0.000226941
0.000229999
0.000231735
0.000232516
0.000232737
0.000232736
0.000164891
0.000164921
0.000164998
0.000165149
0.000165402
0.000165785
0.000166315
0.000166994
0.000167804
0.000168705
0.000169635
0.000170516
0.000171268
0.000171838
0.000172245
0.000172672
0.000173548
0.000175282
0.000178051
0.000182022
0.000187285
0.000193747
0.000201076
0.000208743
0.000216119
0.000222584
0.000227683
0.000231248
0.000233391
0.000234427
0.000234763
0.000234789
0.000165318
0.0001653
0.000165279
0.000165288
0.000165373
0.000165578
0.000165937
0.000166458
0.000167129
0.000167921
0.000168802
0.00016974
0.000170714
0.000171723
0.000172818
0.00017417
0.000175999
0.000178388
0.000181402
0.000185225
0.000190018
0.000195818
0.000202448
0.000209528
0.00021656
0.000223003
0.000228361
0.000232317
0.000234832
0.000236131
0.000236596
0.000236654
0.000166727
0.000166634
0.000166467
0.000166271
0.000166114
0.000166076
0.00016622
0.000166582
0.00016717
0.000167974
0.000168986
0.000170203
0.000171627
0.000173266
0.000175161
0.000177434
0.000180103
0.000183001
0.000186138
0.000189729
0.000193982
0.000199026
0.000204818
0.000211126
0.000217573
0.000223713
0.000229077
0.000233268
0.000236093
0.000237645
0.000238251
0.000238347
0.00016943
0.000169241
0.000168896
0.000168466
0.000168056
0.000167781
0.000167745
0.000168024
0.000168655
0.000169643
0.000170983
0.000172668
0.000174679
0.000176999
0.000179626
0.000182626
0.000185863
0.000189023
0.00019211
0.000195367
0.000199026
0.000203265
0.000208136
0.000213535
0.000219213
0.000224822
0.000229951
0.000234183
0.000237214
0.00023899
0.00023974
0.000239883
0.000173637
0.000173339
0.000172826
0.000172225
0.000171676
0.000171313
0.00017126
0.000171626
0.000172467
0.000173784
0.000175555
0.000177739
0.000180281
0.000183125
0.000186229
0.000189614
0.000193063
0.000196212
0.000199075
0.000201911
0.000204953
0.000208389
0.000212325
0.000216748
0.000221523
0.000226415
0.000231092
0.000235158
0.000238251
0.000240188
0.000241074
0.00024127
0.000179451
0.00017905
0.000178456
0.000177871
0.000177443
0.000177272
0.000177454
0.000178099
0.000179257
0.000180917
0.000183035
0.000185544
0.000188364
0.000191413
0.000194629
0.000198012
0.000201323
0.000204215
0.000206717
0.000209079
0.000211513
0.000214194
0.000217242
0.000220696
0.000224511
0.000228551
0.000232587
0.000236284
0.000239268
0.00024127
0.000242263
0.000242515
0.000186928
0.000186467
0.000185977
0.000185706
0.000185722
0.000186025
0.000186638
0.000187639
0.000189063
0.000190903
0.000193119
0.000195642
0.000198389
0.000201278
0.000204246
0.000207285
0.000210179
0.000212635
0.00021469
0.000216559
0.000218422
0.000220425
0.000222676
0.000225236
0.000228108
0.00023124
0.000234498
0.000237642
0.000240338
0.000242274
0.000243319
0.000243622
0.000196173
0.000195759
0.00019565
0.00019598
0.000196633
0.000197488
0.000198511
0.000199746
0.000201229
0.000202982
0.000204988
0.000207199
0.000209548
0.000211973
0.000214419
0.000216877
0.000219175
0.00022109
0.000222657
0.000224045
0.000225391
0.000226805
0.000228373
0.000230154
0.000232172
0.000234418
0.000236836
0.000239288
0.000241524
0.000243248
0.000244261
0.000244596
0.000207433
0.000207278
0.000207796
0.000208756
0.000209885
0.000211045
0.000212201
0.000213392
0.000214665
0.000216069
0.000217611
0.000219271
0.000221007
0.000222777
0.000224543
0.000226297
0.000227918
0.000229254
0.000230332
0.00023127
0.000232159
0.000233076
0.000234079
0.000235213
0.000236501
0.000237952
0.000239553
0.000241246
0.000242884
0.000244243
0.000245114
0.000245442
0.000221188
0.000221522
0.000222499
0.000223594
0.000224661
0.000225648
0.000226545
0.00022739
0.000228228
0.000229107
0.000230046
0.00023104
0.000232072
0.000233117
0.000234153
0.000235175
0.000236114
0.000236884
0.0002375
0.000238029
0.000238524
0.000239027
0.000239571
0.000240181
0.000240873
0.000241656
0.000242532
0.000243483
0.000244448
0.000245307
0.000245912
0.000246171
0.000238015
0.000238276
0.000238778
0.000239258
0.000239692
0.000240078
0.000240415
0.000240718
0.000241007
0.000241301
0.00024161
0.000241936
0.000242272
0.000242611
0.000242946
0.000243276
0.000243579
0.000243826
0.000244023
0.000244192
0.000244348
0.000244505
0.000244674
0.000244863
0.000245077
0.000245318
0.000245588
0.000245885
0.000246193
0.000246479
0.000246698
0.000246804
)
;


// ************************************************************************* //
