/*--------------------------------*- C++ -*----------------------------------*\
| =========                 |                                                 |
| \\      /  F ield         | OpenFOAM: The Open Source CFD Toolbox           |
|  \\    /   O peration     | Version:  2212                                  |
|   \\  /    A nd           | Website:  www.openfoam.com                      |
|    \\/     M anipulation  |                                                 |
\*---------------------------------------------------------------------------*/
FoamFile
{
    version     2.0;
    format      ascii;
    arch        "LSB;label=64;scalar=64";
    class       volScalarField;
    location    "1810";
    object      Gch4;
}
// * * * * * * * * * * * * * * * * * * * * * * * * * * * * * * * * * * * * * //

dimensions      [1 -3 0 0 0 0 0];

internalField   nonuniform List<scalar> 
1024
(
1.88434
1.88419
1.8838
1.88308
1.88193
1.8802
1.87775
1.87447
1.87028
1.86523
1.85947
1.85327
1.84699
1.84099
1.83559
1.83107
1.82807
1.82704
1.82775
1.82986
1.83304
1.83693
1.84115
1.84533
1.84911
1.85227
1.85473
1.85651
1.85772
1.85847
1.85888
1.85905
1.88429
1.88414
1.88374
1.88302
1.88186
1.88011
1.87763
1.87432
1.87011
1.86503
1.85925
1.85303
1.84675
1.84075
1.83535
1.83082
1.82781
1.82678
1.82748
1.82959
1.83277
1.83667
1.84092
1.84512
1.84893
1.85212
1.85461
1.85642
1.85764
1.8584
1.85881
1.85898
1.88417
1.88401
1.88361
1.88287
1.88168
1.87989
1.87737
1.87399
1.86971
1.86457
1.85873
1.85249
1.84619
1.84019
1.83479
1.83025
1.82721
1.82613
1.82681
1.82893
1.83215
1.83611
1.84041
1.84468
1.84856
1.85182
1.85436
1.85621
1.85746
1.85824
1.85866
1.85883
1.88396
1.88379
1.88337
1.88261
1.88138
1.87953
1.87692
1.87344
1.86904
1.86379
1.85787
1.85158
1.84526
1.83925
1.83383
1.82924
1.82611
1.82494
1.82558
1.82775
1.83109
1.83518
1.83962
1.844
1.84799
1.85134
1.85397
1.85587
1.85716
1.85795
1.85838
1.85855
1.88361
1.88344
1.88301
1.88221
1.88091
1.87897
1.87624
1.87261
1.86805
1.86265
1.85661
1.85024
1.84388
1.83784
1.83237
1.82768
1.82437
1.82303
1.82361
1.82588
1.82945
1.83381
1.83849
1.84307
1.84721
1.85069
1.8534
1.85537
1.85668
1.85749
1.85793
1.8581
1.88311
1.88293
1.88247
1.88163
1.88026
1.8782
1.8753
1.87148
1.86671
1.86111
1.85491
1.84843
1.842
1.8359
1.83032
1.82541
1.82181
1.82019
1.82068
1.82311
1.82705
1.83186
1.83695
1.84184
1.8462
1.84983
1.85264
1.85465
1.85599
1.8568
1.85723
1.8574
1.88243
1.88224
1.88176
1.88086
1.87939
1.87718
1.87409
1.87002
1.86499
1.85914
1.85274
1.84612
1.83958
1.83335
1.82756
1.82232
1.81825
1.81624
1.8166
1.81924
1.82369
1.82913
1.83482
1.84018
1.84486
1.84867
1.85157
1.85362
1.85496
1.85575
1.85616
1.85631
1.88156
1.88135
1.88084
1.87988
1.8783
1.87592
1.8726
1.86825
1.86291
1.85677
1.85012
1.84329
1.83657
1.83013
1.82402
1.81829
1.81361
1.81105
1.8112
1.81403
1.81903
1.82527
1.83177
1.83778
1.8429
1.84696
1.84997
1.85204
1.85334
1.85409
1.85445
1.85458
1.88047
1.88026
1.87971
1.87868
1.87699
1.87443
1.87085
1.86619
1.86051
1.85402
1.84707
1.83997
1.833
1.82624
1.8197
1.81335
1.8079
1.80466
1.80441
1.80723
1.81264
1.81965
1.82708
1.83395
1.8397
1.84411
1.84728
1.84937
1.85064
1.85132
1.85163
1.85172
1.87918
1.87896
1.87839
1.87729
1.87548
1.87274
1.8689
1.86391
1.85785
1.85098
1.84366
1.83624
1.82894
1.8218
1.81475
1.80773
1.80144
1.79731
1.7963
1.79862
1.80395
1.81136
1.81959
1.8274
1.83397
1.83895
1.84241
1.84462
1.84588
1.84651
1.84676
1.84682
1.87772
1.87749
1.87689
1.87574
1.87382
1.8709
1.86681
1.86149
1.85505
1.84778
1.84006
1.83227
1.82461
1.8171
1.80961
1.80201
1.7949
1.78966
1.78733
1.7883
1.79254
1.79942
1.80775
1.81619
1.82362
1.82942
1.83347
1.83602
1.83744
1.83812
1.83836
1.83841
1.87612
1.87589
1.87527
1.87407
1.87206
1.869
1.86469
1.85908
1.85229
1.84463
1.83654
1.82841
1.82049
1.81276
1.80509
1.79723
1.78951
1.78299
1.77867
1.77721
1.77898
1.78377
1.79077
1.79876
1.80652
1.8131
1.81801
1.82126
1.82317
1.82413
1.82452
1.82462
1.87445
1.87421
1.87358
1.87236
1.8703
1.86715
1.8627
1.85688
1.84983
1.84188
1.83353
1.82524
1.8173
1.80975
1.80241
1.7949
1.78709
1.77938
1.77267
1.76791
1.76588
1.76689
1.77065
1.77637
1.78299
1.78944
1.79491
1.79897
1.80163
1.80314
1.80385
1.80409
1.87281
1.87257
1.87195
1.87073
1.86868
1.86553
1.86106
1.85519
1.84806
1.84004
1.83168
1.82353
1.816
1.80921
1.80299
1.79675
1.78972
1.78139
1.7725
1.76425
1.75786
1.75409
1.75316
1.75478
1.75831
1.76287
1.76755
1.77162
1.77467
1.77664
1.7777
1.7781
1.87137
1.87114
1.87053
1.86936
1.86739
1.86436
1.86005
1.85438
1.84746
1.8397
1.83168
1.8241
1.81748
1.81211
1.80783
1.80391
1.79879
1.79085
1.78052
1.76929
1.7588
1.75028
1.74435
1.74114
1.74039
1.74151
1.74378
1.74644
1.74884
1.75063
1.75171
1.75217
1.87038
1.87015
1.86958
1.8685
1.8667
1.86394
1.86003
1.85485
1.84852
1.84141
1.83415
1.8275
1.82217
1.81861
1.8168
1.8159
1.8137
1.80732
1.7966
1.78313
1.769
1.756
1.7453
1.73742
1.73237
1.72978
1.72906
1.72953
1.73053
1.73154
1.73228
1.73263
1.87018
1.86996
1.86943
1.86846
1.86687
1.86449
1.86112
1.85668
1.85121
1.84506
1.8388
1.83322
1.82913
1.82714
1.82741
1.82923
1.8301
1.82622
1.81651
1.80211
1.78516
1.76799
1.75257
1.74007
1.7309
1.7249
1.72151
1.72004
1.71975
1.72001
1.72037
1.72059
1.8708
1.87059
1.8701
1.86922
1.86783
1.86579
1.86295
1.85922
1.85464
1.84946
1.84419
1.83955
1.83633
1.83522
1.83649
1.83965
1.8423
1.8405
1.83263
1.81898
1.80106
1.78118
1.76185
1.74503
1.73182
1.72245
1.71653
1.71332
1.71196
1.71165
1.71177
1.71192
1.87197
1.87177
1.87131
1.8705
1.86926
1.86749
1.86507
1.86194
1.85812
1.8538
1.8494
1.84552
1.84287
1.84209
1.84353
1.84678
1.84966
1.8486
1.84197
1.82955
1.81215
1.79149
1.77004
1.75018
1.73363
1.72119
1.7128
1.70784
1.7054
1.70453
1.70444
1.70454
1.87342
1.87324
1.8728
1.87206
1.87095
1.86938
1.86729
1.86464
1.86144
1.85785
1.8542
1.85096
1.84871
1.84798
1.84904
1.85151
1.85344
1.85191
1.84558
1.83406
1.81767
1.79756
1.77563
1.75421
1.73539
1.72048
1.70988
1.70321
1.69965
1.69819
1.69785
1.69791
1.87475
1.87459
1.87423
1.8736
1.87263
1.87127
1.86947
1.8672
1.86452
1.86154
1.85851
1.85579
1.85378
1.85284
1.85308
1.85406
1.85416
1.8513
1.84457
1.83353
1.8182
1.79925
1.77805
1.75647
1.73655
1.71995
1.70753
1.69929
1.69461
1.6925
1.69189
1.69189
1.8753
1.87521
1.875
1.87458
1.87387
1.87281
1.87134
1.86946
1.86722
1.86472
1.86215
1.85972
1.85764
1.85608
1.85498
1.85386
1.85155
1.84691
1.83946
1.82874
1.81453
1.79707
1.77728
1.75659
1.7367
1.71929
1.70556
1.69596
1.69019
1.6874
1.68649
1.68641
1.87417
1.87422
1.87427
1.87423
1.87398
1.8734
1.8724
1.87095
1.86909
1.8669
1.86447
1.86189
1.85922
1.85647
1.85351
1.84987
1.84497
1.83855
1.83043
1.82011
1.80717
1.7915
1.7736
1.75449
1.73554
1.71818
1.70376
1.69312
1.68635
1.68285
1.68159
1.68143
1.87039
1.87064
1.87108
1.8716
1.87201
1.87209
1.87167
1.87065
1.86903
1.86681
1.86403
1.86071
1.85683
1.85238
1.84725
1.84112
1.83393
1.82612
1.81767
1.80797
1.79649
1.78286
1.76723
1.75021
1.73283
1.71629
1.70185
1.69058
1.68299
1.67881
1.67718
1.67691
1.8631
1.86361
1.86454
1.86569
1.86678
1.8675
1.86758
1.86679
1.86506
1.86235
1.8587
1.85412
1.84866
1.84237
1.83526
1.82716
1.81842
1.8099
1.80157
1.79278
1.7829
1.77145
1.7583
1.74374
1.72843
1.71333
1.69952
1.68814
1.68
1.67522
1.6732
1.67281
1.85175
1.85256
1.85393
1.85555
1.85702
1.85798
1.85811
1.85709
1.8548
1.85121
1.8464
1.84048
1.83359
1.82589
1.81749
1.80835
1.79903
1.79053
1.78281
1.77515
1.76694
1.75766
1.74703
1.7351
1.72223
1.70906
1.69647
1.68554
1.67723
1.67203
1.66964
1.66911
1.83606
1.83714
1.83874
1.84031
1.84146
1.84191
1.8414
1.83964
1.8365
1.83199
1.82625
1.81946
1.81182
1.80357
1.79487
1.78573
1.77679
1.76898
1.76222
1.75585
1.74927
1.74204
1.73381
1.72449
1.71421
1.70333
1.69247
1.68253
1.67451
1.66914
1.66647
1.66579
1.81588
1.81713
1.81844
1.81917
1.81912
1.8183
1.81663
1.81391
1.81005
1.80507
1.79907
1.79224
1.78481
1.777
1.76897
1.76075
1.75294
1.7463
1.74076
1.73571
1.73068
1.72527
1.7192
1.71229
1.70455
1.69612
1.68735
1.6789
1.67166
1.66646
1.66365
1.66284
1.79094
1.79205
1.79234
1.79145
1.78968
1.78737
1.7846
1.78126
1.77725
1.7725
1.76708
1.7611
1.75474
1.74818
1.74157
1.73493
1.72872
1.72354
1.71931
1.71556
1.71193
1.70811
1.70388
1.69908
1.69364
1.68759
1.68108
1.67449
1.66848
1.66386
1.66114
1.66024
1.76056
1.76098
1.75958
1.75699
1.75394
1.7508
1.74768
1.74446
1.74101
1.73722
1.73305
1.72856
1.72386
1.71908
1.7143
1.70956
1.70518
1.70157
1.69866
1.69613
1.69373
1.69125
1.68855
1.68549
1.68202
1.67811
1.6738
1.66925
1.66485
1.6612
1.65887
1.65799
1.72346
1.72255
1.71992
1.71697
1.71409
1.71142
1.709
1.70671
1.70445
1.70207
1.69953
1.69684
1.69405
1.69123
1.68843
1.68566
1.68313
1.68105
1.67938
1.67795
1.67662
1.67526
1.67379
1.67215
1.67028
1.66817
1.66582
1.66326
1.66067
1.65836
1.65674
1.65605
1.67808
1.67737
1.67602
1.67473
1.67355
1.67251
1.6716
1.67078
1.67
1.66921
1.66837
1.66749
1.66658
1.66567
1.66476
1.66387
1.66305
1.66238
1.66185
1.66139
1.66097
1.66055
1.66009
1.65958
1.65901
1.65836
1.65763
1.65683
1.656
1.65523
1.65465
1.65437
)
;

boundaryField
{
    movingWall
    {
        type            fixedValue;
        value           uniform 1.6535;
    }
    fixedWalls
    {
        type            zeroGradient;
    }
    floor
    {
        type            zeroGradient;
    }
    frontAndBack
    {
        type            empty;
    }
}


// ************************************************************************* //
