/*--------------------------------*- C++ -*----------------------------------*\
| =========                 |                                                 |
| \\      /  F ield         | OpenFOAM: The Open Source CFD Toolbox           |
|  \\    /   O peration     | Version:  2212                                  |
|   \\  /    A nd           | Website:  www.openfoam.com                      |
|    \\/     M anipulation  |                                                 |
\*---------------------------------------------------------------------------*/
FoamFile
{
    version     2.0;
    format      ascii;
    arch        "LSB;label=64;scalar=64";
    class       volScalarField;
    location    "1810";
    object      Gco2;
}
// * * * * * * * * * * * * * * * * * * * * * * * * * * * * * * * * * * * * * //

dimensions      [1 -3 0 0 0 0 0];

internalField   nonuniform List<scalar> 
1024
(
0.0512714
0.0512461
0.0511838
0.0510696
0.0508845
0.0506071
0.0502149
0.0496886
0.0490179
0.0482073
0.0472814
0.0462838
0.0452709
0.0443007
0.0434237
0.0426871
0.0421951
0.0420234
0.0421342
0.0424724
0.0429836
0.0436106
0.0442925
0.0449659
0.0455753
0.0460847
0.0464807
0.0467681
0.0469626
0.0470835
0.0471496
0.0471765
0.0512634
0.0512379
0.051175
0.0510597
0.0508728
0.0505926
0.0501965
0.0496656
0.0489899
0.0481746
0.0472449
0.046245
0.0452312
0.044261
0.0433843
0.0426473
0.042154
0.0419803
0.0420896
0.0424276
0.04294
0.043569
0.044254
0.0449316
0.0455464
0.0460614
0.0464622
0.0467534
0.0469503
0.0470725
0.0471392
0.0471663
0.051244
0.051218
0.0511539
0.051036
0.050845
0.0505586
0.0501541
0.0496129
0.0489261
0.0481004
0.0471623
0.0461571
0.0451411
0.0441706
0.0432934
0.0425539
0.0420549
0.0418746
0.0419804
0.0423205
0.0428398
0.0434778
0.0441723
0.0448604
0.0454861
0.0460119
0.046422
0.0467201
0.0469215
0.0470463
0.0471141
0.0471415
0.0512091
0.0511822
0.051116
0.0509942
0.0507964
0.0504998
0.0500815
0.0495235
0.0488184
0.0479755
0.0470238
0.04601
0.04499
0.0440177
0.0431375
0.04239
0.0418766
0.0416813
0.0417807
0.0421283
0.0426666
0.0433271
0.044043
0.0447502
0.0453935
0.0459347
0.0463575
0.0466646
0.0468717
0.0469995
0.0470686
0.0470964
0.051154
0.051126
0.0510569
0.0509293
0.0507218
0.0504107
0.0499727
0.0493905
0.0486594
0.0477918
0.0468206
0.0457941
0.0447673
0.04379
0.042901
0.0421354
0.0415933
0.04137
0.0414594
0.0418232
0.0423989
0.0431033
0.0438593
0.0445988
0.0452676
0.0458286
0.0462659
0.0465827
0.0467952
0.0469255
0.0469953
0.0470231
0.0510741
0.0510448
0.0509719
0.0508368
0.0506167
0.0502864
0.0498224
0.0492086
0.0484431
0.0475433
0.0465461
0.0455018
0.0444635
0.043475
0.0425671
0.0417675
0.0411761
0.0409079
0.0409827
0.041373
0.0420088
0.0427859
0.0436082
0.0443987
0.0451037
0.0456891
0.0461416
0.0464667
0.0466827
0.0468134
0.0468824
0.0469093
0.0509653
0.0509344
0.050857
0.0507129
0.0504773
0.0501235
0.0496276
0.0489748
0.0481671
0.0472271
0.0461967
0.0451282
0.044071
0.0430609
0.042119
0.0412641
0.0405979
0.0402644
0.0403178
0.0407424
0.0414599
0.0423411
0.0432622
0.0441288
0.044885
0.0455009
0.0459689
0.0462996
0.0465153
0.046643
0.0467085
0.0467332
0.0508246
0.050792
0.0507097
0.0505554
0.0503021
0.0499212
0.0493881
0.0486899
0.0478326
0.0468447
0.0457732
0.0446716
0.0435847
0.042539
0.0415442
0.0406096
0.0398417
0.0394203
0.0394385
0.0398933
0.0407014
0.0417112
0.0427639
0.0437376
0.044566
0.0452225
0.0457081
0.046042
0.0462532
0.0463736
0.0464323
0.046453
0.0506506
0.0506164
0.0505291
0.0503641
0.0500918
0.0496815
0.0491077
0.048359
0.0474458
0.0464024
0.0452808
0.0441353
0.0430057
0.0419086
0.0408422
0.0398064
0.0389137
0.0383788
0.0383321
0.0387851
0.0396605
0.0407962
0.042001
0.0431144
0.0440441
0.0447593
0.0452711
0.0456099
0.0458146
0.0459244
0.0459735
0.0459886
0.0504446
0.0504089
0.0503169
0.0501414
0.0498502
0.0494099
0.0487939
0.0479919
0.0470181
0.0459123
0.0447317
0.0435316
0.0423475
0.0411871
0.0400384
0.0388922
0.0378614
0.0371821
0.0370119
0.0373837
0.0382453
0.0394469
0.0407812
0.0420485
0.043113
0.0439196
0.0444807
0.044838
0.0450428
0.0451444
0.0451842
0.0451935
0.05021
0.0501731
0.050077
0.0498922
0.0495835
0.049115
0.0484583
0.0476033
0.0465673
0.0453954
0.04415
0.0428894
0.041647
0.0404247
0.0392029
0.0379607
0.0367962
0.0359359
0.0355493
0.0357014
0.0363883
0.0375033
0.0388552
0.040225
0.0414319
0.0423719
0.0430289
0.0434423
0.0436734
0.0437832
0.0438228
0.04383
0.0499535
0.0499157
0.0498165
0.0496244
0.0493018
0.0488098
0.0481178
0.0472153
0.0461217
0.0448869
0.0435801
0.0422651
0.0409785
0.0397212
0.0384682
0.0371817
0.0359171
0.0348474
0.0341374
0.0338937
0.034178
0.0349554
0.0360921
0.0373916
0.0386527
0.0397206
0.0405186
0.0410475
0.0413574
0.0415136
0.0415763
0.0415918
0.0496856
0.0496473
0.0495464
0.0493504
0.0490196
0.0485129
0.0477973
0.0468611
0.0457249
0.0444436
0.0430946
0.0417521
0.0404622
0.0392318
0.0380329
0.0368026
0.0355197
0.0342554
0.0331562
0.0323741
0.0320404
0.0322033
0.0328143
0.0337451
0.034823
0.0358741
0.0367641
0.0374253
0.0378576
0.0381035
0.0382196
0.0382578
0.0494231
0.0493848
0.0492843
0.0490891
0.0487591
0.0482521
0.0475331
0.0465888
0.0454403
0.0441468
0.0427958
0.0414766
0.0402526
0.0391448
0.0381258
0.0371015
0.0359442
0.0345782
0.0331207
0.0317703
0.0307249
0.0301085
0.0299556
0.0302208
0.0307975
0.0315424
0.0323073
0.0329719
0.0334699
0.0337913
0.033964
0.0340301
0.0491926
0.0491549
0.0490572
0.048869
0.0485522
0.0480651
0.0473724
0.0464592
0.0453453
0.044093
0.0427988
0.0415703
0.0404951
0.0396163
0.0389135
0.0382638
0.0374171
0.0361127
0.0344196
0.0325815
0.030866
0.0294717
0.0285033
0.027981
0.0278596
0.0280466
0.0284206
0.0288559
0.0292503
0.0295439
0.0297213
0.0297968
0.0490342
0.0489978
0.0489056
0.0487315
0.0484419
0.0479992
0.0473696
0.046537
0.0455178
0.0443718
0.0431996
0.0421239
0.0412585
0.0406756
0.0403727
0.040215
0.0398437
0.038792
0.0370348
0.0348313
0.032519
0.0303911
0.0286407
0.0273532
0.0265288
0.0261079
0.0259942
0.0260749
0.0262415
0.0264098
0.0265312
0.0265895
0.0490033
0.0489684
0.0488832
0.0487267
0.0484723
0.0480891
0.047548
0.0468324
0.0459535
0.0449623
0.0439536
0.0430528
0.0423899
0.0420638
0.0421005
0.0423855
0.0425157
0.0418713
0.0402795
0.0379234
0.0351495
0.0323407
0.0298166
0.0277706
0.0262711
0.0252898
0.0247387
0.0245008
0.0244561
0.0245008
0.0245618
0.0245992
0.0491052
0.0490716
0.0489922
0.048851
0.0486282
0.0483001
0.0478436
0.0472441
0.0465078
0.0456753
0.0448275
0.0440793
0.0435593
0.0433771
0.0435799
0.0440841
0.0445033
0.0441989
0.0429066
0.0406726
0.0377428
0.0344903
0.0313267
0.0285738
0.0264107
0.0248767
0.0239083
0.0233845
0.0231642
0.0231158
0.0231369
0.0231629
0.0492952
0.0492629
0.049188
0.0490584
0.0488594
0.0485742
0.0481858
0.0476828
0.0470691
0.046376
0.0456688
0.0450449
0.0446185
0.0444936
0.0447235
0.0452448
0.0457025
0.0455181
0.0444281
0.0423953
0.0395494
0.0361717
0.0326617
0.0294095
0.0266989
0.0246603
0.0232861
0.0224743
0.0220766
0.0219371
0.0219229
0.021941
0.0495292
0.0494989
0.0494295
0.0493107
0.0491314
0.0488798
0.0485444
0.0481182
0.0476052
0.0470299
0.0464438
0.0459244
0.0455638
0.0454474
0.0456174
0.0460125
0.0463166
0.0460557
0.0450145
0.0431283
0.0404493
0.0371598
0.0335724
0.0300652
0.0269818
0.0245382
0.0227998
0.0217077
0.0211257
0.0208873
0.020834
0.0208439
0.0497419
0.0497169
0.0496586
0.0495571
0.0494021
0.0491838
0.0488946
0.0485319
0.0481014
0.0476241
0.0471391
0.0467032
0.0463816
0.0462304
0.0462681
0.046422
0.0464289
0.0459523
0.0448464
0.043039
0.0405318
0.0374335
0.0339643
0.0304304
0.027167
0.0244459
0.0224085
0.0210578
0.0202908
0.0199457
0.0198479
0.0198481
0.0498273
0.0498141
0.0497797
0.0497129
0.0496006
0.0494307
0.0491956
0.0488946
0.0485356
0.0481361
0.0477239
0.0473335
0.0470002
0.0467481
0.0465689
0.0463809
0.0459955
0.0452302
0.0440078
0.0422535
0.0399278
0.0370723
0.0338344
0.0304471
0.0271888
0.0243335
0.0220813
0.0205073
0.0195608
0.019103
0.0189544
0.0189429
0.0496393
0.0496475
0.0496565
0.049652
0.0496142
0.0495228
0.0493636
0.0491324
0.048835
0.0484839
0.0480937
0.0476782
0.0472471
0.0468008
0.0463171
0.0457203
0.0449132
0.0438584
0.0425275
0.0408384
0.0387206
0.0361581
0.0332287
0.0301006
0.0269945
0.0241489
0.0217827
0.0200359
0.018925
0.0183515
0.018146
0.0181203
0.0490176
0.0490583
0.049132
0.0492186
0.0492873
0.0493038
0.0492395
0.0490785
0.048818
0.0484617
0.0480137
0.0474752
0.0468457
0.0461208
0.0452836
0.0442794
0.0431006
0.0418209
0.0404354
0.0388487
0.0369696
0.0347413
0.0321821
0.0293955
0.0265476
0.023836
0.0214668
0.0196164
0.0183691
0.0176836
0.0174161
0.0173733
0.0478236
0.0479068
0.0480594
0.048249
0.0484297
0.0485509
0.0485663
0.0484424
0.0481631
0.0477259
0.0471328
0.046388
0.0454989
0.0444735
0.0433125
0.0419872
0.0405571
0.039161
0.0377976
0.0363585
0.0347418
0.0328691
0.0307168
0.0283318
0.0258239
0.0233467
0.0210816
0.0192127
0.0178745
0.0170905
0.0167593
0.016696
0.0459651
0.0460967
0.0463232
0.0465885
0.0468307
0.0469909
0.047014
0.0468517
0.0464796
0.045897
0.0451141
0.0441488
0.0430252
0.0417684
0.0403968
0.0389009
0.0373769
0.035986
0.0347212
0.0334681
0.0321242
0.0306059
0.028867
0.0269134
0.024804
0.0226434
0.0205783
0.0187829
0.0174173
0.0165619
0.0161709
0.0160841
0.0433966
0.0435739
0.0438361
0.0440942
0.0442832
0.0443584
0.0442776
0.0439924
0.0434804
0.0427469
0.0418108
0.0407016
0.0394555
0.0381081
0.0366866
0.035192
0.033729
0.0324514
0.0313458
0.0303025
0.0292269
0.0280423
0.0266959
0.0251699
0.0234852
0.0217005
0.0199183
0.0182861
0.0169685
0.0160849
0.0156466
0.015535
0.0400933
0.0402971
0.0405133
0.0406331
0.0406258
0.040492
0.040221
0.0397784
0.039149
0.0383357
0.0373565
0.0362415
0.0350278
0.0337511
0.0324392
0.0310963
0.0298175
0.0287326
0.0278249
0.0269991
0.0261758
0.0252911
0.0242966
0.0231657
0.0218968
0.0205139
0.0190752
0.017687
0.0164966
0.0156418
0.0151807
0.0150467
0.0360096
0.0361921
0.0362402
0.0360945
0.035806
0.0354279
0.034976
0.0344303
0.033775
0.0330002
0.0321139
0.0311371
0.0300987
0.0290275
0.0279465
0.0268604
0.0258448
0.0249988
0.0243064
0.0236933
0.0230985
0.0224739
0.0217808
0.0209941
0.0201029
0.0191112
0.0180432
0.0169606
0.0159732
0.0152122
0.0147653
0.0146174
0.0310353
0.0311038
0.0308748
0.0304509
0.0299521
0.0294393
0.0289285
0.0284026
0.0278398
0.0272196
0.0265382
0.0258049
0.0250375
0.0242554
0.023475
0.0227002
0.0219838
0.0213935
0.020917
0.0205029
0.0201098
0.0197048
0.0192615
0.0187609
0.0181921
0.0175512
0.0168439
0.0160966
0.0153736
0.0147736
0.014389
0.0142445
0.0249594
0.0248116
0.0243799
0.0238964
0.0234251
0.022989
0.0225926
0.0222195
0.021849
0.0214607
0.0210459
0.0206064
0.0201505
0.0196888
0.0192308
0.0187792
0.0183643
0.0180243
0.017752
0.0175182
0.0172994
0.0170775
0.0168372
0.0165678
0.016262
0.0159161
0.0155293
0.0151094
0.0146833
0.014304
0.014037
0.0139229
0.0175265
0.0174112
0.0171893
0.0169775
0.0167854
0.0166149
0.0164662
0.0163324
0.0162047
0.0160747
0.0159381
0.0157943
0.0156459
0.0154959
0.0153476
0.0152018
0.0150682
0.014959
0.0148718
0.0147974
0.0147284
0.0146588
0.0145841
0.0145008
0.0144065
0.0142999
0.0141806
0.0140497
0.0139137
0.0137871
0.0136905
0.0136439
)
;

boundaryField
{
    movingWall
    {
        type            fixedValue;
        value           uniform 0.0135;
    }
    fixedWalls
    {
        type            zeroGradient;
    }
    floor
    {
        type            zeroGradient;
    }
    frontAndBack
    {
        type            empty;
    }
}


// ************************************************************************* //
