/*--------------------------------*- C++ -*----------------------------------*\
| =========                 |                                                 |
| \\      /  F ield         | OpenFOAM: The Open Source CFD Toolbox           |
|  \\    /   O peration     | Version:  2212                                  |
|   \\  /    A nd           | Website:  www.openfoam.com                      |
|    \\/     M anipulation  |                                                 |
\*---------------------------------------------------------------------------*/
FoamFile
{
    version     2.0;
    format      ascii;
    arch        "LSB;label=64;scalar=64";
    class       volVectorField;
    location    "1810";
    object      U;
}
// * * * * * * * * * * * * * * * * * * * * * * * * * * * * * * * * * * * * * //

dimensions      [0 1 -1 0 0 0 0];

internalField   nonuniform List<vector> 
1024
(
(3.14904e-06 -3.17434e-06 0)
(3.90926e-06 -9.86444e-07 0)
(-1.32777e-05 2.85848e-06 0)
(-5.4594e-05 5.86585e-06 0)
(-0.000117588 7.05994e-06 0)
(-0.000193782 6.60644e-06 0)
(-0.000272859 5.30504e-06 0)
(-0.000348382 4.07302e-06 0)
(-0.000421327 3.4838e-06 0)
(-0.000499239 3.59778e-06 0)
(-0.000592137 4.15436e-06 0)
(-0.00070792 4.79865e-06 0)
(-0.000850115 5.35472e-06 0)
(-0.00101502 5.52575e-06 0)
(-0.00118031 4.66294e-06 0)
(-0.00128152 1.60757e-06 0)
(-0.00118875 -5.52819e-06 0)
(-0.000745043 -1.75615e-05 0)
(1.79121e-06 -2.70662e-05 0)
(0.000884381 -2.91487e-05 0)
(0.00152658 -1.87148e-05 0)
(0.00180145 5.34506e-07 0)
(0.00173809 1.56683e-05 0)
(0.00149403 2.20184e-05 0)
(0.00119672 2.36994e-05 0)
(0.000904528 2.36642e-05 0)
(0.000637597 2.32597e-05 0)
(0.000403754 2.24292e-05 0)
(0.000212228 1.95896e-05 0)
(7.64218e-05 1.26241e-05 0)
(5.86079e-06 1.40662e-06 0)
(-6.94819e-06 -7.07688e-06 0)
(1.11724e-06 -4.14432e-06 0)
(-1.70012e-05 1.65093e-05 0)
(-8.05878e-05 4.82452e-05 0)
(-0.000203657 7.48827e-05 0)
(-0.000383071 8.76578e-05 0)
(-0.000601111 8.58251e-05 0)
(-0.00083393 7.48952e-05 0)
(-0.0010649 6.28226e-05 0)
(-0.00129438 5.55165e-05 0)
(-0.00153919 5.45072e-05 0)
(-0.00182306 5.77751e-05 0)
(-0.00216447 6.19158e-05 0)
(-0.0025687 6.4038e-05 0)
(-0.00301784 6.01764e-05 0)
(-0.0034414 4.3501e-05 0)
(-0.0036631 3.58009e-06 0)
(-0.00335772 -7.45411e-05 0)
(-0.0021599 -0.000191363 0)
(-0.000217426 -0.000295706 0)
(0.00210126 -0.000314137 0)
(0.00378803 -0.000213969 0)
(0.00459724 -4.68527e-05 0)
(0.00456813 0.000105026 0)
(0.00404328 0.000196959 0)
(0.00332143 0.000243904 0)
(0.00256571 0.000265656 0)
(0.00185091 0.000273126 0)
(0.00121586 0.000265998 0)
(0.000692363 0.000234795 0)
(0.000310656 0.000170835 0)
(8.7298e-05 8.17812e-05 0)
(2.22885e-06 6.04146e-06 0)
(-3.02231e-06 1.34957e-05 0)
(-5.39244e-05 8.11548e-05 0)
(-0.000178861 0.000165569 0)
(-0.000393932 0.00023553 0)
(-0.000693965 0.000270739 0)
(-0.00105595 0.000267862 0)
(-0.00144809 0.000239676 0)
(-0.00184694 0.000206538 0)
(-0.00225123 0.000184592 0)
(-0.00268208 0.000178815 0)
(-0.00317023 0.00018425 0)
(-0.00373842 0.000191497 0)
(-0.0043871 0.000191494 0)
(-0.00507707 0.000172439 0)
(-0.0056876 0.000116015 0)
(-0.00595115 -3.95319e-06 0)
(-0.00540358 -0.000226413 0)
(-0.00358462 -0.000545772 0)
(-0.000777811 -0.00084151 0)
(0.00263852 -0.000898053 0)
(0.00517209 -0.000634827 0)
(0.00654123 -0.000199217 0)
(0.0067192 0.000220422 0)
(0.00611608 0.000502628 0)
(0.00514519 0.000669047 0)
(0.0040569 0.000759861 0)
(0.00298703 0.000799291 0)
(0.00201571 0.000787335 0)
(0.00120079 0.000706029 0)
(0.000586467 0.000542072 0)
(0.000198172 0.00031432 0)
(1.63032e-05 8.56732e-05 0)
(-7.60638e-06 6.19686e-05 0)
(-9.7633e-05 0.000221581 0)
(-0.00029494 0.000391403 0)
(-0.000614079 0.00052645 0)
(-0.00104364 0.000594342 0)
(-0.00155517 0.000589695 0)
(-0.00211238 0.000535744 0)
(-0.00268857 0.000470159 0)
(-0.0032809 0.000423572 0)
(-0.00391024 0.000406131 0)
(-0.00460694 0.000408847 0)
(-0.00539032 0.000413385 0)
(-0.00624942 0.000400644 0)
(-0.00711991 0.000346781 0)
(-0.00783681 0.000217726 0)
(-0.0080716 -3.33432e-05 0)
(-0.00728652 -0.000477764 0)
(-0.00503555 -0.00108897 0)
(-0.00177407 -0.00166908 0)
(0.00227558 -0.00180803 0)
(0.00545014 -0.0013363 0)
(0.00738966 -0.00053018 0)
(0.00794363 0.000294707 0)
(0.00745663 0.000891694 0)
(0.00642737 0.00127607 0)
(0.00517205 0.00150714 0)
(0.00388022 0.00162244 0)
(0.00267329 0.00162236 0)
(0.00163622 0.00148136 0)
(0.000830161 0.00118185 0)
(0.000297144 0.000748618 0)
(2.82993e-05 0.000254499 0)
(-1.21765e-05 0.000152403 0)
(-0.000143761 0.000467196 0)
(-0.000419787 0.000766275 0)
(-0.000851892 0.00099116 0)
(-0.00141912 0.00110008 0)
(-0.00208569 0.00109004 0)
(-0.0028119 0.000999887 0)
(-0.00356988 0.000888949 0)
(-0.00435506 0.000804931 0)
(-0.00518401 0.000763823 0)
(-0.00607984 0.00075165 0)
(-0.00705167 0.000738983 0)
(-0.00807332 0.000693621 0)
(-0.00905776 0.000576907 0)
(-0.00981055 0.000337075 0)
(-0.00997761 -9.63269e-05 0)
(-0.00901483 -0.00082549 0)
(-0.00656527 -0.00178774 0)
(-0.00320165 -0.00270405 0)
(0.000879847 -0.0030006 0)
(0.00450551 -0.00235053 0)
(0.00698232 -0.00112052 0)
(0.0080525 0.000235267 0)
(0.00784647 0.00127406 0)
(0.0069343 0.00198551 0)
(0.00568585 0.00244357 0)
(0.00433083 0.0026961 0)
(0.00302432 0.0027422 0)
(0.00187628 0.00254844 0)
(0.000965956 0.0020899 0)
(0.00035182 0.00138775 0)
(3.47556e-05 0.000512778 0)
(-1.66464e-05 0.000296944 0)
(-0.000189765 0.000850178 0)
(-0.000545639 0.00133654 0)
(-0.00109296 0.00168198 0)
(-0.00179987 0.00183948 0)
(-0.00262182 0.00181654 0)
(-0.00351525 0.00167559 0)
(-0.00445122 0.00150232 0)
(-0.00542233 0.00136282 0)
(-0.0064377 0.00127856 0)
(-0.00750882 0.0012299 0)
(-0.00863142 0.00117547 0)
(-0.0097653 0.00106863 0)
(-0.0108097 0.000855186 0)
(-0.0115612 0.000465979 0)
(-0.0116743 -0.000192833 0)
(-0.0106554 -0.00124892 0)
(-0.00825279 -0.00259256 0)
(-0.00504639 -0.0038466 0)
(-0.00139732 -0.00438279 0)
(0.00238218 -0.00369184 0)
(0.00529675 -0.00205237 0)
(0.00694628 -6.85677e-05 0)
(0.00716945 0.0015418 0)
(0.00651875 0.00269353 0)
(0.00543484 0.00346979 0)
(0.00417915 0.00392647 0)
(0.00293081 0.00405887 0)
(0.00181867 0.0038244 0)
(0.000933599 0.00318928 0)
(0.000338282 0.00216832 0)
(3.30646e-05 0.000829636 0)
(-2.07901e-05 0.00050805 0)
(-0.000232371 0.00140296 0)
(-0.000662662 0.00214891 0)
(-0.00131803 0.00265275 0)
(-0.00215636 0.00286698 0)
(-0.00312419 0.0028201 0)
(-0.00417339 0.00260838 0)
(-0.00527264 0.00234947 0)
(-0.00641026 0.00212896 0)
(-0.00758666 0.00197328 0)
(-0.00880134 0.0018572 0)
(-0.0100383 0.00172811 0)
(-0.0112494 0.00152553 0)
(-0.0123325 0.00118087 0)
(-0.0130955 0.000609262 0)
(-0.0132263 -0.00030414 0)
(-0.0123113 -0.00170826 0)
(-0.0101668 -0.00344477 0)
(-0.00730585 -0.00502174 0)
(-0.0041272 -0.00582353 0)
(-0.000746425 -0.00531401 0)
(0.0024486 -0.00339644 0)
(0.00465729 -0.000742787 0)
(0.00546282 0.00156934 0)
(0.00518539 0.00327616 0)
(0.00439409 0.00445322 0)
(0.00338604 0.00516811 0)
(0.00235457 0.00541208 0)
(0.00143645 0.00513662 0)
(0.000719953 0.00430852 0)
(0.000252887 0.00294963 0)
(2.3005e-05 0.00113987 0)
(-2.41238e-05 0.000795921 0)
(-0.000266823 0.00215199 0)
(-0.000757985 0.00324185 0)
(-0.00150302 0.00394901 0)
(-0.00245206 0.00423037 0)
(-0.00354426 0.0041467 0)
(-0.00472661 0.00383939 0)
(-0.00596427 0.00346486 0)
(-0.00724069 0.00313043 0)
(-0.00854887 0.00286794 0)
(-0.00987974 0.00264764 0)
(-0.011211 0.00240765 0)
(-0.0124945 0.0020755 0)
(-0.0136377 0.00157011 0)
(-0.0144719 0.000792613 0)
(-0.0147264 -0.000390726 0)
(-0.0140629 -0.0021506 0)
(-0.0123155 -0.004286 0)
(-0.00989978 -0.00618984 0)
(-0.00716194 -0.00726281 0)
(-0.00426052 -0.00699031 0)
(-0.00134447 -0.00519828 0)
(0.001358 -0.00192902 0)
(0.00290076 0.00123821 0)
(0.00310956 0.00360347 0)
(0.00271496 0.00523205 0)
(0.00208201 0.0062246 0)
(0.00140563 0.00657221 0)
(0.000815795 0.00623502 0)
(0.000381685 0.00520574 0)
(0.000121892 0.00354254 0)
(8.28921e-06 0.00136044 0)
(-2.606e-05 0.00116434 0)
(-0.000287942 0.00310878 0)
(-0.000818313 0.00463493 0)
(-0.00162398 0.00559783 0)
(-0.00265171 0.00596216 0)
(-0.00383627 0.00583089 0)
(-0.00512069 0.00540176 0)
(-0.00646659 0.00487814 0)
(-0.0078536 0.00439326 0)
(-0.00927052 0.00398653 0)
(-0.010705 0.00362553 0)
(-0.0121343 0.00324113 0)
(-0.0135157 0.00275082 0)
(-0.0147707 0.00206205 0)
(-0.0157545 0.00106226 0)
(-0.0162271 -0.000401312 0)
(-0.0159027 -0.00252283 0)
(-0.0146125 -0.0050646 0)
(-0.0126825 -0.00731353 0)
(-0.0103935 -0.00868051 0)
(-0.00789219 -0.00866425 0)
(-0.00529813 -0.00702834 0)
(-0.00273949 -0.00386554 0)
(-0.000496328 0.000147672 0)
(0.000532668 0.00349408 0)
(0.000689777 0.00561854 0)
(0.000556894 0.00686836 0)
(0.000334574 0.00727912 0)
(0.000145211 0.00685414 0)
(3.43525e-05 0.0056481 0)
(-4.95258e-06 0.00378429 0)
(-4.44558e-06 0.00142838 0)
(-2.62149e-05 0.00160719 0)
(-0.00029226 0.00426238 0)
(-0.000834739 0.00632013 0)
(-0.001665 0.0076001 0)
(-0.00273227 0.00807405 0)
(-0.00397126 0.00789314 0)
(-0.00532322 0.00732135 0)
(-0.00674743 0.00661833 0)
(-0.00822169 0.00594964 0)
(-0.0097341 0.00536575 0)
(-0.011273 0.00483345 0)
(-0.0128186 0.00427741 0)
(-0.014334 0.00360554 0)
(-0.0157502 0.00271311 0)
(-0.0169379 0.00147244 0)
(-0.0176741 -0.000288071 0)
(-0.0177006 -0.00278137 0)
(-0.0168696 -0.00573351 0)
(-0.0154356 -0.00834511 0)
(-0.0136112 -0.0100469 0)
(-0.0114933 -0.0103587 0)
(-0.0091507 -0.00899667 0)
(-0.00667788 -0.00597366 0)
(-0.0042808 -0.00181589 0)
(-0.00227878 0.00234428 0)
(-0.00133281 0.00514472 0)
(-0.000853349 0.00673141 0)
(-0.000580661 0.00723951 0)
(-0.000383061 0.00678394 0)
(-0.000217275 0.00551666 0)
(-8.86286e-05 0.00363331 0)
(-1.12223e-05 0.00134209 0)
(-2.45764e-05 0.00210773 0)
(-0.0002792 0.00557733 0)
(-0.000805298 0.00825893 0)
(-0.00162195 0.0099277 0)
(-0.00268721 0.0105551 0)
(-0.00394091 0.0103397 0)
(-0.0053253 0.00961821 0)
(-0.00679878 0.00871628 0)
(-0.00833883 0.00783987 0)
(-0.00993455 0.00705479 0)
(-0.0115762 0.00632809 0)
(-0.0132458 0.0055777 0)
(-0.0149081 0.00470082 0)
(-0.0164968 0.00357903 0)
(-0.0178903 0.0020693 0)
(-0.0188831 -1.4149e-05 0)
(-0.0192112 -0.00289432 0)
(-0.0188054 -0.00624794 0)
(-0.0178532 -0.0092313 0)
(-0.0164889 -0.0113174 0)
(-0.0147405 -0.0120656 0)
(-0.0126123 -0.0111829 0)
(-0.0101524 -0.00862007 0)
(-0.00751323 -0.00470623 0)
(-0.00495312 -0.000221969 0)
(-0.0030253 0.00343542 0)
(-0.00187658 0.00552134 0)
(-0.00114689 0.00629447 0)
(-0.000654194 0.00598867 0)
(-0.000319101 0.00485515 0)
(-0.000111662 0.00316024 0)
(-1.1021e-05 0.00114675 0)
(-2.13576e-05 0.00263946 0)
(-0.00024993 0.0069944 0)
(-0.000732059 0.0103815 0)
(-0.00149701 0.012521 0)
(-0.0025178 0.0133683 0)
(-0.00374461 0.0131583 0)
(-0.00512326 0.0123006 0)
(-0.00661161 0.0111957 0)
(-0.00818612 0.0100992 0)
(-0.00983597 0.00909686 0)
(-0.0115516 0.00815665 0)
(-0.0133141 0.00718834 0)
(-0.0150858 0.00607734 0)
(-0.0167988 0.00469163 0)
(-0.0183389 0.00287557 0)
(-0.0195271 0.000437826 0)
(-0.0201095 -0.00283728 0)
(-0.0200718 -0.00656828 0)
(-0.019563 -0.00992476 0)
(-0.0186313 -0.0124536 0)
(-0.0172351 -0.0137762 0)
(-0.0153265 -0.0136138 0)
(-0.0129219 -0.011861 0)
(-0.0101478 -0.00867198 0)
(-0.00725481 -0.00451849 0)
(-0.00459019 -0.000200137 0)
(-0.00262033 0.00299254 0)
(-0.00140566 0.00444837 0)
(-0.000684741 0.00463358 0)
(-0.000280182 0.00390762 0)
(-7.85997e-05 0.00259343 0)
(-3.90594e-06 0.000952765 0)
(-1.6691e-05 0.00316479 0)
(-0.000205058 0.0084255 0)
(-0.000615446 0.0125773 0)
(-0.00128864 0.0152755 0)
(-0.00221812 0.0164346 0)
(-0.00336969 0.0163002 0)
(-0.00469467 0.0153444 0)
(-0.00614885 0.0140479 0)
(-0.00770445 0.0127266 0)
(-0.00934764 0.0114938 0)
(-0.011067 0.01032 0)
(-0.0128418 0.00910665 0)
(-0.0146325 0.00772782 0)
(-0.0163728 0.00604073 0)
(-0.0179622 0.0038829 0)
(-0.0192558 0.00106815 0)
(-0.0200497 -0.00258921 0)
(-0.02031 -0.00666183 0)
(-0.0201945 -0.0103819 0)
(-0.0196674 -0.0134068 0)
(-0.0186313 -0.0154389 0)
(-0.0170024 -0.0162156 0)
(-0.0147801 -0.0155602 0)
(-0.0120802 -0.0134508 0)
(-0.00913074 -0.0100943 0)
(-0.00623778 -0.00598886 0)
(-0.00373936 -0.00190461 0)
(-0.00192609 0.0011963 0)
(-0.000852666 0.00264395 0)
(-0.0003011 0.00278804 0)
(-6.58082e-05 0.00207984 0)
(9.95235e-07 0.000834145 0)
(-1.05544e-05 0.00362879 0)
(-0.000144058 0.00973688 0)
(-0.000452661 0.0146689 0)
(-0.000988396 0.0180095 0)
(-0.00176995 0.0195985 0)
(-0.00278469 0.0196465 0)
(-0.00399223 0.0186594 0)
(-0.00534392 0.0171966 0)
(-0.00680273 0.0156487 0)
(-0.00834779 0.0141706 0)
(-0.00996512 0.0127422 0)
(-0.0116348 0.0112588 0)
(-0.0133216 0.0095854 0)
(-0.0149693 0.00757297 0)
(-0.0164986 0.00505941 0)
(-0.0178032 0.00187244 0)
(-0.0187418 -0.00213873 0)
(-0.0192212 -0.0064989 0)
(-0.0194535 -0.0105442 0)
(-0.0193292 -0.014082 0)
(-0.0187096 -0.0169126 0)
(-0.0174809 -0.0187889 0)
(-0.0156172 -0.01945 0)
(-0.0132071 -0.0186832 0)
(-0.010447 -0.016418 0)
(-0.00760916 -0.0128425 0)
(-0.00499316 -0.00850494 0)
(-0.00286673 -0.00427224 0)
(-0.00138599 -0.00100581 0)
(-0.000532473 0.000777585 0)
(-0.000134415 0.00119138 0)
(-3.7801e-06 0.000634837 0)
(-3.13352e-06 0.00395347 0)
(-6.79862e-05 0.0107308 0)
(-0.000244353 0.0163792 0)
(-0.000592203 0.020418 0)
(-0.00115778 0.022575 0)
(-0.00195718 0.0229579 0)
(-0.00296506 0.0220471 0)
(-0.00412875 0.0204635 0)
(-0.00539663 0.0186908 0)
(-0.00673537 0.0169514 0)
(-0.00812721 0.0152516 0)
(-0.00955743 0.013487 0)
(-0.0110034 0.0115159 0)
(-0.0124294 0.00918634 0)
(-0.0137837 0.0063408 0)
(-0.0149976 0.00282209 0)
(-0.0159989 -0.00148539 0)
(-0.0166172 -0.0060479 0)
(-0.0171626 -0.0103183 0)
(-0.017467 -0.0143037 0)
(-0.0173606 -0.017928 0)
(-0.0166939 -0.0209763 0)
(-0.0153947 -0.0231201 0)
(-0.0134959 -0.0239725 0)
(-0.0111349 -0.0231934 0)
(-0.00853331 -0.0206301 0)
(-0.00596446 -0.01649 0)
(-0.00370632 -0.0114674 0)
(-0.00197195 -0.00662605 0)
(-0.000838781 -0.00291517 0)
(-0.000238571 -0.000715757 0)
(-1.24545e-05 0.000104922 0)
(4.26944e-06 0.00404203 0)
(1.13728e-05 0.0111472 0)
(-1.66531e-05 0.0173231 0)
(-0.0001355 0.0220427 0)
(-0.00041482 0.0249018 0)
(-0.000904603 0.0258268 0)
(-0.00160966 0.0251735 0)
(-0.00248314 0.0235671 0)
(-0.00345776 0.0215936 0)
(-0.00448127 0.0195829 0)
(-0.00552559 0.0176027 0)
(-0.00657984 0.0155669 0)
(-0.00763933 0.0133309 0)
(-0.0086989 0.0107375 0)
(-0.00974898 0.0076273 0)
(-0.0107687 0.00384475 0)
(-0.0117625 -0.000692304 0)
(-0.0124557 -0.00530241 0)
(-0.0132745 -0.00959129 0)
(-0.0140371 -0.0138217 0)
(-0.0145481 -0.0180744 0)
(-0.0146145 -0.0222068 0)
(-0.0140912 -0.0258736 0)
(-0.0129274 -0.0285549 0)
(-0.0111812 -0.0296708 0)
(-0.0090095 -0.0287253 0)
(-0.0066483 -0.0255098 0)
(-0.0043788 -0.020339 0)
(-0.00247429 -0.0141725 0)
(-0.00111878 -0.00832834 0)
(-0.000341457 -0.00379635 0)
(-2.24345e-05 -0.000851114 0)
(1.06456e-05 0.00385571 0)
(8.26053e-05 0.0108453 0)
(0.000189361 0.0171774 0)
(0.00028547 0.0223357 0)
(0.000299243 0.0258482 0)
(0.000163514 0.0274686 0)
(-0.000176104 0.0273033 0)
(-0.00070166 0.0258498 0)
(-0.00133887 0.0237661 0)
(-0.00201463 0.0215155 0)
(-0.00267134 0.0192732 0)
(-0.00328603 0.0170048 0)
(-0.00386366 0.0145771 0)
(-0.00441867 0.0118352 0)
(-0.00497156 0.00862647 0)
(-0.00552917 0.00480378 0)
(-0.00606398 0.000276576 0)
(-0.00693762 -0.00422442 0)
(-0.00793341 -0.00825783 0)
(-0.0091078 -0.012378 0)
(-0.0102644 -0.0168839 0)
(-0.0111834 -0.0217825 0)
(-0.0116268 -0.0268126 0)
(-0.0114237 -0.03138 0)
(-0.0105242 -0.0347071 0)
(-0.00899986 -0.035959 0)
(-0.00703536 -0.0344591 0)
(-0.00490257 -0.0299862 0)
(-0.00292086 -0.0231059 0)
(-0.00138231 -0.0152294 0)
(-0.000439479 -0.00796617 0)
(-3.15754e-05 -0.00222345 0)
(1.50608e-05 0.00346705 0)
(0.000136862 0.00998216 0)
(0.000351941 0.0161587 0)
(0.000624727 0.0214941 0)
(0.00088364 0.0254602 0)
(0.00105074 0.0276815 0)
(0.00105946 0.0280948 0)
(0.000889458 0.0270199 0)
(0.000584227 0.0250185 0)
(0.000227922 0.0226179 0)
(-9.17246e-05 0.0201135 0)
(-0.000318794 0.0176277 0)
(-0.000450259 0.0150544 0)
(-0.000510527 0.0122315 0)
(-0.000537982 0.00899614 0)
(-0.000615001 0.00519307 0)
(-0.000562863 0.000832309 0)
(-0.00140425 -0.00322828 0)
(-0.00242671 -0.00675226 0)
(-0.00373975 -0.0103342 0)
(-0.00527851 -0.0145188 0)
(-0.0068749 -0.01953 0)
(-0.00824188 -0.0253776 0)
(-0.00906543 -0.0314904 0)
(-0.00915935 -0.0369779 0)
(-0.00847269 -0.040717 0)
(-0.00710284 -0.0415732 0)
(-0.00527777 -0.0387073 0)
(-0.00333153 -0.0320352 0)
(-0.00165191 -0.0226784 0)
(-0.000543625 -0.0127039 0)
(-4.11349e-05 -0.00384095 0)
(1.71007e-05 0.00299585 0)
(0.000170947 0.00884082 0)
(0.000464089 0.0146433 0)
(0.000873564 0.0199418 0)
(0.00133134 0.0241808 0)
(0.00175469 0.0268847 0)
(0.002067 0.0278404 0)
(0.00222634 0.027198 0)
(0.00225095 0.0254012 0)
(0.00221606 0.0229734 0)
(0.00221999 0.0203095 0)
(0.00233946 0.0176254 0)
(0.00260031 0.0149061 0)
(0.00297109 0.0120215 0)
(0.00337647 0.00880614 0)
(0.00367715 0.00508322 0)
(0.00383135 0.00116288 0)
(0.00308684 -0.0023306 0)
(0.0020255 -0.0054335 0)
(0.000769395 -0.00842796 0)
(-0.000853819 -0.0120659 0)
(-0.00270522 -0.0165398 0)
(-0.00466751 -0.0224612 0)
(-0.00632483 -0.0294193 0)
(-0.00735556 -0.0365656 0)
(-0.0075585 -0.0425952 0)
(-0.00690445 -0.0460084 0)
(-0.00553111 -0.0453869 0)
(-0.0037361 -0.0398719 0)
(-0.00196039 -0.0299013 0)
(-0.000672037 -0.0176013 0)
(-5.38021e-05 -0.00557947 0)
(1.70492e-05 0.00252678 0)
(0.000183949 0.00764269 0)
(0.000519622 0.0129516 0)
(0.00101723 0.0180559 0)
(0.00161952 0.0224054 0)
(0.00224682 0.0254561 0)
(0.00281873 0.0268692 0)
(0.0032816 0.0266455 0)
(0.00363531 0.0251083 0)
(0.00393893 0.0227428 0)
(0.00428478 0.019997 0)
(0.00475499 0.0171726 0)
(0.00538368 0.0143515 0)
(0.00613082 0.011459 0)
(0.00688342 0.0083494 0)
(0.00743948 0.0048707 0)
(0.00754711 0.00140822 0)
(0.0067653 -0.00164365 0)
(0.00558475 -0.00439599 0)
(0.00420739 -0.00704109 0)
(0.00266186 -0.00991089 0)
(0.000913099 -0.0135324 0)
(-0.00126979 -0.0190418 0)
(-0.00346935 -0.0261454 0)
(-0.00528085 -0.0343181 0)
(-0.00634528 -0.0422163 0)
(-0.00647375 -0.0481026 0)
(-0.00566964 -0.0500784 0)
(-0.00414172 -0.0464963 0)
(-0.00232626 -0.0368154 0)
(-0.00083782 -0.0226841 0)
(-7.02569e-05 -0.00746608 0)
(1.52729e-05 0.00211301 0)
(0.000176876 0.00654036 0)
(0.000517433 0.0113218 0)
(0.00104808 0.016133 0)
(0.0017305 0.0204559 0)
(0.00249872 0.0237093 0)
(0.00327921 0.025458 0)
(0.00401759 0.0255794 0)
(0.00470327 0.0242917 0)
(0.00537654 0.0220337 0)
(0.0061084 0.0192786 0)
(0.00696381 0.0163913 0)
(0.00796479 0.0135364 0)
(0.00905726 0.0107011 0)
(0.010099 0.00777486 0)
(0.0108404 0.00464148 0)
(0.0109284 0.0016721 0)
(0.0101073 -0.000905748 0)
(0.00880006 -0.0032778 0)
(0.00721861 -0.005625 0)
(0.00549847 -0.00820361 0)
(0.00371105 -0.0113484 0)
(0.00177033 -0.015699 0)
(-0.000591431 -0.0223776 0)
(-0.00294555 -0.0309289 0)
(-0.00479423 -0.0401252 0)
(-0.00575496 -0.0481733 0)
(-0.00564491 -0.0528445 0)
(-0.00452635 -0.051779 0)
(-0.00276272 -0.0432956 0)
(-0.00106373 -0.0279802 0)
(-9.46226e-05 -0.00954456 0)
(1.18704e-05 0.00178605 0)
(0.000148747 0.00563446 0)
(0.000452399 0.00992365 0)
(0.000953128 0.0143961 0)
(0.00164159 0.0185802 0)
(0.00247971 0.0218875 0)
(0.00341507 0.0238194 0)
(0.00440441 0.0241646 0)
(0.00543301 0.023064 0)
(0.00651809 0.0209192 0)
(0.00769295 0.0182124 0)
(0.00898245 0.015346 0)
(0.010377 0.0125397 0)
(0.0118022 0.00983155 0)
(0.0130971 0.00714636 0)
(0.0139895 0.00439485 0)
(0.0140939 0.00189478 0)
(0.0132968 -0.000233609 0)
(0.0119235 -0.00220658 0)
(0.0102093 -0.00420521 0)
(0.00830564 -0.00647754 0)
(0.00633354 -0.00934622 0)
(0.00433964 -0.0132731 0)
(0.0022036 -0.0188527 0)
(-0.000302163 -0.0269551 0)
(-0.00277344 -0.0368089 0)
(-0.00459161 -0.0465214 0)
(-0.00532246 -0.0537501 0)
(-0.00480376 -0.0555765 0)
(-0.00324599 -0.0491547 0)
(-0.00136975 -0.0334913 0)
(-0.000132492 -0.0118834 0)
(6.11907e-06 0.00156836 0)
(9.21921e-05 0.00499972 0)
(0.000304724 0.00888543 0)
(0.000698708 0.0130115 0)
(0.00131149 0.0169579 0)
(0.00215098 0.0201602 0)
(0.0031991 0.0220981 0)
(0.00443165 0.0225134 0)
(0.00582985 0.0215066 0)
(0.00737769 0.0194583 0)
(0.00905303 0.0168475 0)
(0.0108224 0.0140848 0)
(0.0126324 0.0114129 0)
(0.0143866 0.00889979 0)
(0.0159158 0.0064974 0)
(0.016951 0.00413236 0)
(0.0171124 0.00205724 0)
(0.0164534 0.00035557 0)
(0.0150778 -0.00123401 0)
(0.0133405 -0.00288609 0)
(0.0113685 -0.00484283 0)
(0.00927874 -0.00742505 0)
(0.00714964 -0.0110413 0)
(0.0049711 -0.0161495 0)
(0.00260142 -0.0231818 0)
(-0.00013755 -0.0326637 0)
(-0.00275945 -0.043408 0)
(-0.0044848 -0.0528309 0)
(-0.0048183 -0.0576968 0)
(-0.00370656 -0.0540987 0)
(-0.00177077 -0.0391111 0)
(-0.000193756 -0.0145564 0)
(-4.19596e-06 0.00148594 0)
(-1.58851e-05 0.00471149 0)
(1.94342e-05 0.00832066 0)
(0.000206401 0.0121064 0)
(0.000665912 0.0157044 0)
(0.00146636 0.0186172 0)
(0.0026206 0.020366 0)
(0.00411995 0.0206877 0)
(0.00593477 0.0196771 0)
(0.00800021 0.0177085 0)
(0.0102223 0.01524 0)
(0.0125011 0.0126587 0)
(0.0147392 0.0101993 0)
(0.0168227 0.00793839 0)
(0.0185873 0.00584456 0)
(0.0197882 0.0038521 0)
(0.0200801 0.00215039 0)
(0.0195645 0.000809496 0)
(0.0183629 -0.000430161 0)
(0.0167761 -0.00176263 0)
(0.0149116 -0.00340898 0)
(0.0128585 -0.00568409 0)
(0.0106781 -0.00896644 0)
(0.00837617 -0.0136511 0)
(0.00589262 -0.0200724 0)
(0.00310944 -0.0284601 0)
(-4.02138e-05 -0.0390523 0)
(-0.00285634 -0.0501052 0)
(-0.00434531 -0.0579124 0)
(-0.00402369 -0.0577401 0)
(-0.00226967 -0.0445899 0)
(-0.000296231 -0.0176421 0)
(-2.54022e-05 0.00160408 0)
(-0.000222162 0.00492362 0)
(-0.000484826 0.00838077 0)
(-0.000615134 0.0117503 0)
(-0.000386478 0.0147987 0)
(0.000380118 0.0172512 0)
(0.00169969 0.018625 0)
(0.0035318 0.0187084 0)
(0.0058286 0.0176192 0)
(0.00846318 0.0157314 0)
(0.0112609 0.0134546 0)
(0.0140616 0.0111221 0)
(0.016736 0.00893603 0)
(0.0191663 0.00696555 0)
(0.0212068 0.00518728 0)
(0.0226569 0.00353885 0)
(0.0232129 0.00215847 0)
(0.0229799 0.00110689 0)
(0.0221713 0.000163203 0)
(0.0208634 -0.000891304 0)
(0.0192655 -0.00225193 0)
(0.0174059 -0.0042086 0)
(0.0152948 -0.0071054 0)
(0.0129051 -0.0112938 0)
(0.0101862 -0.0170727 0)
(0.00709312 -0.0246555 0)
(0.00360766 -0.0341695 0)
(-0.000147286 -0.0455856 0)
(-0.00309017 -0.0559816 0)
(-0.00400947 -0.0596265 0)
(-0.00283361 -0.0495292 0)
(-0.000467386 -0.0212101 0)
(-7.52479e-05 0.00202659 0)
(-0.000616452 0.00578692 0)
(-0.00132986 0.00916557 0)
(-0.00185811 0.011987 0)
(-0.00184461 0.0142508 0)
(-0.00108408 0.015933 0)
(0.000499554 0.0168041 0)
(0.00279297 0.0165659 0)
(0.00565263 0.0153699 0)
(0.00890403 0.0135905 0)
(0.0122983 0.0115555 0)
(0.0156381 0.0095218 0)
(0.0187839 0.00764547 0)
(0.0216298 0.00597957 0)
(0.0240607 0.00450429 0)
(0.0259296 0.00316062 0)
(0.0269482 0.00204907 0)
(0.0271827 0.00122236 0)
(0.0268665 0.000505119 0)
(0.0260185 -0.000307775 0)
(0.0248353 -0.00141048 0)
(0.0232952 -0.00304297 0)
(0.0213492 -0.00550163 0)
(0.0189208 -0.00909608 0)
(0.0159373 -0.0141076 0)
(0.012372 -0.020775 0)
(0.00827268 -0.0293091 0)
(0.00377908 -0.0398261 0)
(-0.000682694 -0.0516775 0)
(-0.00337109 -0.0592683 0)
(-0.00334726 -0.0533934 0)
(-0.000734859 -0.0252623 0)
(-0.00019345 0.00297256 0)
(-0.00134782 0.00751558 0)
(-0.00264557 0.0106665 0)
(-0.00354468 0.0126387 0)
(-0.00361729 0.0138663 0)
(-0.0026931 0.014607 0)
(-0.000758159 0.0148265 0)
(0.00220353 0.0142309 0)
(0.00572041 0.0129613 0)
(0.00964839 0.0113394 0)
(0.0136881 0.00958708 0)
(0.0176358 0.00787879 0)
(0.0213608 0.00632243 0)
(0.024776 0.00495401 0)
(0.0277945 0.00375687 0)
(0.0303103 0.00267955 0)
(0.0319977 0.00179654 0)
(0.0328512 0.00115303 0)
(0.0331011 0.000614227 0)
(0.0328197 -8.87828e-07 0)
(0.0320965 -0.000868055 0)
(0.0309059 -0.00217328 0)
(0.0291477 -0.00415504 0)
(0.026698 -0.00707446 0)
(0.0234472 -0.0111928 0)
(0.019351 -0.0167764 0)
(0.0144672 -0.0241292 0)
(0.00897275 -0.0336001 0)
(0.00322868 -0.0451738 0)
(-0.00164099 -0.0561688 0)
(-0.0035454 -0.0555429 0)
(-0.00109226 -0.029663 0)
(-0.000446004 0.00477446 0)
(-0.00255854 0.0102391 0)
(-0.00440401 0.0126729 0)
(-0.00541264 0.0133703 0)
(-0.00523995 0.0133592 0)
(-0.00384952 0.0130985 0)
(-0.00129219 0.0126181 0)
(0.0025387 0.0116685 0)
(0.00683911 0.0104129 0)
(0.0115463 0.00900174 0)
(0.0163479 0.00755599 0)
(0.0210506 0.00617835 0)
(0.0255312 0.00493571 0)
(0.0297079 0.00385086 0)
(0.0334992 0.00291158 0)
(0.0368098 0.00207843 0)
(0.039237 0.00140562 0)
(0.0407124 0.000925503 0)
(0.0414874 0.000533942 0)
(0.0417033 8.53321e-05 0)
(0.0413749 -0.000558443 0)
(0.0404634 -0.00153675 0)
(0.0388448 -0.00302671 0)
(0.0363626 -0.00523207 0)
(0.0328689 -0.00837804 0)
(0.0282733 -0.0127362 0)
(0.0225873 -0.0186793 0)
(0.0159608 -0.0267442 0)
(0.00876294 -0.0374802 0)
(0.00185741 -0.049911 0)
(-0.00293749 -0.0552665 0)
(-0.00144276 -0.0341567 0)
(-0.000891231 0.00789298 0)
(-0.00419935 0.0137535 0)
(-0.00607323 0.0145584 0)
(-0.00643835 0.0135897 0)
(-0.00531062 0.0123185 0)
(-0.00288393 0.0111431 0)
(0.000861692 0.010015 0)
(0.00565127 0.00886687 0)
(0.0108974 0.00772497 0)
(0.0165056 0.00656785 0)
(0.0221884 0.00544206 0)
(0.0277515 0.00439625 0)
(0.0330585 0.0034661 0)
(0.0380079 0.00266447 0)
(0.0425027 0.00198252 0)
(0.0464418 0.00139322 0)
(0.0493741 0.000930155 0)
(0.0512303 0.000607263 0)
(0.0523078 0.000347536 0)
(0.0527853 4.69713e-05 0)
(0.0526748 -0.000386511 0)
(0.0519024 -0.00104976 0)
(0.0503427 -0.00206331 0)
(0.0478263 -0.00356937 0)
(0.0441763 -0.00573893 0)
(0.0392441 -0.00881081 0)
(0.0329454 -0.0131701 0)
(0.0253115 -0.0194644 0)
(0.016607 -0.0286393 0)
(0.00757088 -0.0410821 0)
(-0.000683268 -0.0516414 0)
(-0.00149183 -0.0381749 0)
(-0.00161454 0.013076 0)
(-0.00557189 0.0171643 0)
(-0.00571324 0.0151397 0)
(-0.00372824 0.0124545 0)
(-0.000308314 0.010171 0)
(0.00417605 0.00837045 0)
(0.00937004 0.00699324 0)
(0.0152138 0.00587364 0)
(0.021404 0.00492989 0)
(0.0277934 0.00407019 0)
(0.034137 0.00328698 0)
(0.0402363 0.00258924 0)
(0.045939 0.00198778 0)
(0.0511318 0.00148496 0)
(0.0557209 0.00107153 0)
(0.0596261 0.000729213 0)
(0.0624594 0.000471054 0)
(0.0642239 0.000295141 0)
(0.0652403 0.000152697 0)
(0.0656991 -1.57309e-05 0)
(0.0655716 -0.000261849 0)
(0.0648047 -0.000643483 0)
(0.0632707 -0.0012315 0)
(0.0607989 -0.00210963 0)
(0.0572021 -0.00338564 0)
(0.0522882 -0.00523125 0)
(0.045862 -0.00796895 0)
(0.0377419 -0.012229 0)
(0.0278732 -0.0191461 0)
(0.0165675 -0.0301251 0)
(0.004428 -0.0435205 0)
(-0.000166321 -0.0396491 0)
(-0.00120811 0.0183418 0)
(-0.00296116 0.0182024 0)
(0.0033363 0.0125832 0)
(0.0103026 0.00917476 0)
(0.0170764 0.00679925 0)
(0.0236795 0.00505914 0)
(0.0301813 0.00382571 0)
(0.0366305 0.00294388 0)
(0.0429578 0.00229685 0)
(0.0490979 0.00178485 0)
(0.05491 0.00136694 0)
(0.0602592 0.00102481 0)
(0.0650451 0.000749652 0)
(0.0692076 0.000533718 0)
(0.0727155 0.000366474 0)
(0.0755557 0.00023627 0)
(0.0775178 0.000143105 0)
(0.0786802 8.04148e-05 0)
(0.0792991 2.65833e-05 0)
(0.0794992 -3.96084e-05 0)
(0.0792538 -0.000141506 0)
(0.078504 -0.000304647 0)
(0.0771273 -0.000559899 0)
(0.0749709 -0.00094348 0)
(0.0718661 -0.00150504 0)
(0.0676197 -0.00233533 0)
(0.0619711 -0.00363397 0)
(0.0545228 -0.00585517 0)
(0.0446755 -0.00996604 0)
(0.0316795 -0.0176602 0)
(0.0155351 -0.0298046 0)
(0.00632324 -0.0334757 0)
(0.020811 0.0113819 0)
(0.027229 0.00930965 0)
(0.0402919 0.00543093 0)
(0.0508692 0.00328537 0)
(0.058745 0.00204037 0)
(0.0649366 0.0012539 0)
(0.0700055 0.000769478 0)
(0.0742739 0.00047918 0)
(0.0779457 0.0003071 0)
(0.0811487 0.000199911 0)
(0.0839274 0.000130483 0)
(0.086297 8.42771e-05 0)
(0.0882738 5.33417e-05 0)
(0.0898834 3.28216e-05 0)
(0.0911558 1.90162e-05 0)
(0.0921188 9.49544e-06 0)
(0.0927346 3.40095e-06 0)
(0.093061 -9.4268e-07 0)
(0.0931896 -6.08666e-06 0)
(0.0931476 -1.34386e-05 0)
(0.092916 -2.69328e-05 0)
(0.0924418 -5.0415e-05 0)
(0.0916451 -8.84006e-05 0)
(0.0904345 -0.000146114 0)
(0.0887114 -0.000231192 0)
(0.086351 -0.000360094 0)
(0.0831414 -0.00057564 0)
(0.0786449 -0.0009896 0)
(0.0719075 -0.00188129 0)
(0.0609246 -0.00399645 0)
(0.0433091 -0.00920304 0)
(0.0286018 -0.0145397 0)
)
;

boundaryField
{
    movingWall
    {
        type            fixedValue;
        value           uniform (0.1 0 0);
    }
    fixedWalls
    {
        type            noSlip;
    }
    floor
    {
        type            noSlip;
    }
    frontAndBack
    {
        type            empty;
    }
}


// ************************************************************************* //
