/*--------------------------------*- C++ -*----------------------------------*\
| =========                 |                                                 |
| \\      /  F ield         | OpenFOAM: The Open Source CFD Toolbox           |
|  \\    /   O peration     | Version:  2212                                  |
|   \\  /    A nd           | Website:  www.openfoam.com                      |
|    \\/     M anipulation  |                                                 |
\*---------------------------------------------------------------------------*/
FoamFile
{
    version     2.0;
    format      ascii;
    arch        "LSB;label=64;scalar=64";
    class       volScalarField;
    location    "570";
    object      Gco2;
}
// * * * * * * * * * * * * * * * * * * * * * * * * * * * * * * * * * * * * * //

dimensions      [1 -3 0 0 0 0 0];

internalField   nonuniform List<scalar> 
1024
(
0.0575745
0.0575633
0.0575363
0.0574884
0.0574148
0.0573135
0.0571869
0.0570429
0.0568925
0.0567469
0.0566126
0.0564937
0.0563948
0.0563267
0.0563111
0.0563819
0.0565639
0.056813
0.0570693
0.0573153
0.0575441
0.0577542
0.0579466
0.0581227
0.0582828
0.0584242
0.058543
0.0586361
0.0587033
0.058747
0.0587715
0.0587816
0.0575717
0.0575602
0.0575325
0.0574831
0.0574075
0.0573038
0.057175
0.0570296
0.0568789
0.0567337
0.0566
0.0564813
0.0563821
0.0563132
0.0562965
0.0563668
0.0565494
0.0567997
0.0570569
0.0573034
0.0575325
0.0577428
0.0579354
0.0581118
0.0582726
0.0584151
0.0585355
0.0586305
0.0586994
0.0587443
0.0587695
0.0587799
0.0575655
0.0575535
0.0575241
0.0574718
0.057392
0.0572837
0.057151
0.0570034
0.0568524
0.056708
0.0565751
0.0564559
0.0563545
0.0562816
0.0562602
0.0563281
0.0565128
0.0567677
0.0570284
0.057277
0.0575076
0.057719
0.0579125
0.05809
0.0582525
0.0583975
0.0585211
0.0586195
0.0586915
0.0587386
0.0587651
0.0587761
0.0575557
0.0575427
0.0575109
0.0574544
0.0573689
0.0572546
0.0571171
0.0569671
0.0568162
0.0566729
0.05654
0.0564182
0.0563103
0.056227
0.056194
0.0562557
0.0564448
0.0567102
0.0569791
0.0572333
0.0574678
0.0576822
0.0578783
0.0580585
0.0582241
0.0583729
0.058501
0.0586041
0.05868
0.0587301
0.0587582
0.0587698
0.0575423
0.0575283
0.0574938
0.0574326
0.0573409
0.0572202
0.0570781
0.0569264
0.0567761
0.0566335
0.0564986
0.0563699
0.0562484
0.056145
0.0560899
0.0561392
0.0563356
0.0566194
0.0569038
0.057169
0.0574117
0.0576325
0.0578342
0.0580194
0.05819
0.0583442
0.0584777
0.058586
0.0586662
0.0587193
0.0587491
0.0587612
0.057527
0.057512
0.057475
0.0574096
0.0573125
0.0571867
0.0570415
0.0568892
0.0567397
0.0565966
0.0564568
0.0563156
0.0561716
0.0560352
0.0559437
0.0559715
0.0561774
0.0564881
0.056797
0.0570808
0.0573379
0.0575703
0.0577818
0.0579756
0.0581537
0.0583145
0.0584541
0.0585675
0.0586517
0.0587073
0.0587385
0.0587511
0.057512
0.0574964
0.0574579
0.05739
0.05729
0.0571619
0.057016
0.0568647
0.0567163
0.0565716
0.056424
0.0562649
0.0560889
0.0559051
0.0557596
0.0557531
0.0559678
0.056312
0.0566546
0.0569662
0.0572456
0.0574965
0.0577234
0.0579301
0.0581186
0.0582876
0.0584332
0.058551
0.0586381
0.0586955
0.0587275
0.0587404
0.0575009
0.0574852
0.0574466
0.0573789
0.0572797
0.0571533
0.0570102
0.0568625
0.0567166
0.0565708
0.0564146
0.0562344
0.0560188
0.0557726
0.0555523
0.0554943
0.0557131
0.0560932
0.0564769
0.0568252
0.0571356
0.0574125
0.0576613
0.0578858
0.0580878
0.0582661
0.0584176
0.0585386
0.0586273
0.0586853
0.0587175
0.0587305
0.0574977
0.0574823
0.0574452
0.0573808
0.0572869
0.0571674
0.0570322
0.0568923
0.0567528
0.0566096
0.056448
0.0562477
0.0559875
0.0556634
0.0553439
0.0552142
0.0554285
0.0558432
0.0562721
0.0566639
0.0570125
0.0573223
0.0575989
0.0578454
0.0580633
0.0582517
0.0584085
0.0585315
0.0586203
0.0586779
0.0587097
0.0587226
0.0575072
0.0574924
0.0574582
0.0574
0.0573158
0.057209
0.0570881
0.0569627
0.0568367
0.0567036
0.0565439
0.0563281
0.0560194
0.0555984
0.0551518
0.0549309
0.0551346
0.0555836
0.0560596
0.0564981
0.0568886
0.0572349
0.057542
0.0578124
0.0580471
0.0582454
0.0584064
0.05853
0.0586178
0.0586741
0.0587052
0.0587178
0.0575358
0.0575216
0.0574908
0.0574407
0.0573701
0.0572816
0.057182
0.0570793
0.0569757
0.0568623
0.0567134
0.0564856
0.0561184
0.0555716
0.0549675
0.0546474
0.0548498
0.0553433
0.055871
0.0563564
0.0567871
0.0571674
0.0575024
0.0577939
0.0580427
0.0582484
0.0584116
0.0585343
0.0586201
0.0586747
0.0587049
0.0587173
0.0575922
0.0575786
0.057551
0.0575093
0.0574538
0.0573871
0.0573142
0.0572409
0.0571675
0.0570809
0.0569458
0.0566981
0.0562429
0.0555257
0.0547406
0.0543419
0.0545843
0.0551551
0.0557487
0.0562815
0.0567455
0.0571496
0.0575014
0.0578039
0.0580582
0.058265
0.0584263
0.0585458
0.0586286
0.0586811
0.0587103
0.0587224
0.0576882
0.0576751
0.0576496
0.0576136
0.0575703
0.0575236
0.0574782
0.0574368
0.0573953
0.0573318
0.0571935
0.0568839
0.0562726
0.055332
0.054378
0.0539764
0.0543466
0.0550554
0.0557427
0.0563275
0.0568149
0.0572255
0.0575739
0.0578675
0.0581107
0.0583062
0.0584576
0.0585693
0.0586467
0.0586963
0.0587244
0.0587364
0.0578222
0.0578177
0.0578066
0.0577872
0.0577604
0.05773
0.0577011
0.0576745
0.0576377
0.0575518
0.0573352
0.056855
0.0559851
0.0547993
0.0537714
0.0535305
0.0541668
0.0550915
0.0559059
0.0565497
0.057051
0.0574473
0.0577654
0.0580219
0.0582286
0.0583938
0.0585224
0.0586182
0.0586859
0.0587304
0.0587565
0.0587681
0.0576144
0.0576412
0.0576902
0.0577502
0.0578056
0.0578416
0.0578457
0.0578024
0.0576841
0.0574351
0.0569641
0.0561528
0.0549773
0.0536816
0.0528594
0.0530567
0.0541116
0.0552994
0.0562487
0.0569509
0.0574634
0.0578362
0.0581058
0.0582995
0.0584406
0.058548
0.0586332
0.0587014
0.0587548
0.0587939
0.0588189
0.0588307
0.0557021
0.0557483
0.0558434
0.0559772
0.0561249
0.0562492
0.056306
0.0562485
0.056029
0.0555946
0.0548979
0.0539224
0.052804
0.0519242
0.0518078
0.0527003
0.0541551
0.055486
0.0564923
0.0572409
0.0578008
0.058211
0.0584947
0.0586765
0.0587885
0.0588624
0.0589166
0.0589556
0.0589769
0.0589805
0.0589734
0.0589658
0.0520802
0.0521001
0.0521466
0.0522206
0.0523109
0.0523915
0.0524237
0.0523605
0.052164
0.0518079
0.051309
0.0507563
0.0503548
0.050388
0.0510407
0.0521994
0.0533719
0.0542393
0.0549072
0.0555403
0.0561944
0.0568486
0.0574559
0.0579623
0.0583215
0.0585079
0.0585235
0.0583977
0.0581843
0.0579531
0.0577683
0.0576706
0.049375
0.0493697
0.0493625
0.0493581
0.0493588
0.0493617
0.049356
0.0493233
0.0492495
0.0491295
0.0489901
0.0488898
0.0488951
0.0490132
0.0491506
0.0491157
0.0487238
0.0480558
0.0473846
0.0468881
0.0466397
0.0466324
0.046841
0.0472057
0.0476372
0.0480455
0.0483627
0.0485473
0.0485967
0.0485488
0.0484648
0.0484044
0.047977
0.0479684
0.0479524
0.0479313
0.0479069
0.0478793
0.0478442
0.0477916
0.0477081
0.0475784
0.0473879
0.0471187
0.0467296
0.0461339
0.0451859
0.0436413
0.0413924
0.0387699
0.0362646
0.0340989
0.0323761
0.031107
0.0302779
0.0298752
0.0298601
0.030178
0.030759
0.0314994
0.032262
0.0329011
0.0333161
0.0334941
0.0471551
0.0471477
0.0471305
0.0471004
0.0470526
0.0469802
0.0468735
0.0467202
0.0465051
0.0462077
0.0457969
0.0452248
0.0444146
0.0432475
0.0415507
0.0390818
0.0358099
0.0322765
0.0290991
0.0264656
0.0243903
0.0227936
0.0215879
0.0207395
0.0202379
0.0200835
0.0202656
0.0207342
0.0213813
0.0220443
0.0225546
0.02281
0.0465265
0.046521
0.0465034
0.0464644
0.0463916
0.0462705
0.0460858
0.0458229
0.0454678
0.0450041
0.0444039
0.0436206
0.0425768
0.0411533
0.039181
0.0364432
0.0329949
0.0295074
0.0266142
0.0244169
0.0227936
0.0215435
0.0205161
0.0196408
0.0189071
0.0183415
0.0179796
0.0178404
0.0179062
0.0181095
0.0183396
0.0184841
0.0459152
0.0459143
0.0459018
0.045862
0.0457748
0.0456179
0.0453704
0.0450161
0.0445445
0.0439485
0.0432141
0.0423115
0.0411816
0.0397246
0.0377915
0.0351932
0.0320144
0.0289231
0.0264811
0.0247077
0.0234043
0.0223323
0.0213348
0.0203517
0.0194024
0.0185523
0.0178722
0.0174055
0.0171542
0.0170799
0.0171105
0.0171591
0.0452049
0.0452137
0.0452156
0.0451869
0.0450979
0.0449177
0.0446191
0.044185
0.0436103
0.0429002
0.0420588
0.0410795
0.0399297
0.0385385
0.0367859
0.0345079
0.0317669
0.0291252
0.0270379
0.0254917
0.0242947
0.0232385
0.0221852
0.021078
0.0199407
0.0188563
0.0179282
0.0172345
0.0167993
0.0165909
0.0165374
0.0165492
0.0442833
0.0443096
0.0443378
0.044332
0.0442493
0.0440479
0.0436952
0.0431754
0.0424923
0.0416657
0.0407193
0.0396693
0.0385102
0.0372009
0.0356544
0.0337316
0.0314539
0.0292335
0.0274126
0.0259815
0.0248041
0.0237288
0.0226434
0.0214906
0.0202768
0.0190693
0.0179769
0.0171059
0.0165154
0.0161973
0.0160849
0.0160778
0.043036
0.043089
0.043155
0.043178
0.0430972
0.0428595
0.0424311
0.0418037
0.0409955
0.0400439
0.0389907
0.0378702
0.0366975
0.0354564
0.0340902
0.0324844
0.0306246
0.0287816
0.0271952
0.0258698
0.0247276
0.0236674
0.0226038
0.0214833
0.0202964
0.019084
0.0179354
0.016963
0.016257
0.0158441
0.0156765
0.0156522
0.0413553
0.0414441
0.0415519
0.0415931
0.0414873
0.0411771
0.0406374
0.0398778
0.0389366
0.0378682
0.0367268
0.0355561
0.0343819
0.0332038
0.0319886
0.0306459
0.0291409
0.0276362
0.0262879
0.0251075
0.0240572
0.0230732
0.0220932
0.021071
0.0199877
0.0188618
0.0177559
0.0167685
0.016003
0.0155198
0.0153025
0.0152601
0.0391499
0.039279
0.0394135
0.0394325
0.0392476
0.0388153
0.0381352
0.0372418
0.0361931
0.0350523
0.0338758
0.0327063
0.0315711
0.0304764
0.0294043
0.0282866
0.0270838
0.0258853
0.0247838
0.0237887
0.022884
0.022031
0.0211861
0.0203124
0.0193877
0.018413
0.0174247
0.016499
0.0157363
0.0152181
0.0149618
0.0149008
0.0363441
0.0365042
0.0366159
0.0365384
0.0362083
0.0356219
0.0348122
0.0338337
0.0327512
0.0316225
0.0304952
0.0294034
0.0283694
0.0274001
0.0264858
0.0255776
0.0246408
0.02372
0.0228637
0.0220748
0.0213474
0.0206586
0.0199794
0.0192824
0.0185464
0.0177627
0.0169452
0.0161434
0.0154422
0.0149306
0.0146533
0.0145757
0.0328613
0.0330149
0.0330123
0.0327566
0.0322534
0.0315465
0.0306867
0.0297292
0.0287255
0.0277168
0.0267359
0.0258054
0.0249401
0.0241447
0.0234135
0.0227135
0.0220187
0.0213479
0.0207225
0.02014
0.0195982
0.0190843
0.0185798
0.0180655
0.0175248
0.0169457
0.0163278
0.0156953
0.0151081
0.0146475
0.0143742
0.0142854
0.0285943
0.0286589
0.0284456
0.0280058
0.0274099
0.0267095
0.0259412
0.0251408
0.0243367
0.0235517
0.0228037
0.022105
0.0214637
0.020882
0.0203563
0.019866
0.0193938
0.0189458
0.018529
0.0181389
0.0177744
0.0174289
0.0170912
0.0167493
0.0163918
0.0160086
0.0155938
0.015154
0.0147217
0.0143563
0.0141184
0.0140295
0.0233668
0.0232464
0.0228737
0.0224248
0.0219343
0.0214201
0.0208946
0.0203717
0.0198617
0.0193735
0.0189148
0.0184907
0.018105
0.017758
0.0174476
0.0171629
0.0168942
0.0166425
0.0164093
0.0161906
0.0159861
0.0157926
0.0156043
0.0154148
0.0152179
0.0150076
0.0147786
0.0145304
0.014275
0.0140432
0.0138768
0.0138052
0.0169676
0.0168709
0.0166815
0.0164915
0.0163022
0.0161139
0.0159282
0.0157478
0.0155748
0.015411
0.0152583
0.0151181
0.0149912
0.0148776
0.0147765
0.0146845
0.0145985
0.0145185
0.0144446
0.0143753
0.0143105
0.0142493
0.0141899
0.0141305
0.014069
0.0140037
0.0139327
0.0138552
0.0137737
0.0136962
0.0136358
0.0136063
)
;

boundaryField
{
    movingWall
    {
        type            fixedValue;
        value           uniform 0.0135;
    }
    fixedWalls
    {
        type            zeroGradient;
    }
    floor
    {
        type            zeroGradient;
    }
    frontAndBack
    {
        type            empty;
    }
}


// ************************************************************************* //
