/*--------------------------------*- C++ -*----------------------------------*\
| =========                 |                                                 |
| \\      /  F ield         | OpenFOAM: The Open Source CFD Toolbox           |
|  \\    /   O peration     | Version:  2212                                  |
|   \\  /    A nd           | Website:  www.openfoam.com                      |
|    \\/     M anipulation  |                                                 |
\*---------------------------------------------------------------------------*/
FoamFile
{
    version     2.0;
    format      ascii;
    arch        "LSB;label=64;scalar=64";
    class       volScalarField;
    location    "570";
    object      Gh2;
}
// * * * * * * * * * * * * * * * * * * * * * * * * * * * * * * * * * * * * * //

dimensions      [1 -3 0 0 0 0 0];

internalField   nonuniform List<scalar> 
1024
(
1.26867e-05
1.26862e-05
1.2685e-05
1.2683e-05
1.268e-05
1.26758e-05
1.26705e-05
1.26645e-05
1.26584e-05
1.26524e-05
1.26469e-05
1.26422e-05
1.26382e-05
1.26356e-05
1.26352e-05
1.26384e-05
1.26463e-05
1.26569e-05
1.26679e-05
1.26784e-05
1.26883e-05
1.26975e-05
1.27058e-05
1.27135e-05
1.27205e-05
1.27267e-05
1.27319e-05
1.2736e-05
1.27389e-05
1.27408e-05
1.27419e-05
1.27423e-05
1.26865e-05
1.2686e-05
1.26849e-05
1.26828e-05
1.26797e-05
1.26754e-05
1.267e-05
1.2664e-05
1.26578e-05
1.26519e-05
1.26464e-05
1.26416e-05
1.26377e-05
1.26351e-05
1.26346e-05
1.26378e-05
1.26457e-05
1.26563e-05
1.26674e-05
1.26779e-05
1.26879e-05
1.2697e-05
1.27054e-05
1.2713e-05
1.27201e-05
1.27263e-05
1.27316e-05
1.27357e-05
1.27387e-05
1.27407e-05
1.27418e-05
1.27423e-05
1.26863e-05
1.26858e-05
1.26845e-05
1.26823e-05
1.2679e-05
1.26745e-05
1.2669e-05
1.26629e-05
1.26567e-05
1.26508e-05
1.26454e-05
1.26406e-05
1.26366e-05
1.26338e-05
1.26332e-05
1.26363e-05
1.26442e-05
1.26551e-05
1.26662e-05
1.26769e-05
1.26868e-05
1.2696e-05
1.27044e-05
1.27121e-05
1.27192e-05
1.27255e-05
1.27309e-05
1.27352e-05
1.27384e-05
1.27404e-05
1.27416e-05
1.27421e-05
1.26858e-05
1.26853e-05
1.2684e-05
1.26816e-05
1.26781e-05
1.26733e-05
1.26676e-05
1.26614e-05
1.26552e-05
1.26494e-05
1.2644e-05
1.26391e-05
1.26348e-05
1.26316e-05
1.26305e-05
1.26333e-05
1.26415e-05
1.26527e-05
1.26642e-05
1.26751e-05
1.26852e-05
1.26944e-05
1.2703e-05
1.27108e-05
1.2718e-05
1.27245e-05
1.27301e-05
1.27346e-05
1.27379e-05
1.27401e-05
1.27413e-05
1.27418e-05
1.26853e-05
1.26847e-05
1.26833e-05
1.26807e-05
1.26769e-05
1.26719e-05
1.2666e-05
1.26598e-05
1.26536e-05
1.26478e-05
1.26423e-05
1.26371e-05
1.26323e-05
1.26283e-05
1.26263e-05
1.26286e-05
1.2637e-05
1.26491e-05
1.26611e-05
1.26725e-05
1.26829e-05
1.26924e-05
1.27011e-05
1.27092e-05
1.27166e-05
1.27233e-05
1.27291e-05
1.27338e-05
1.27373e-05
1.27396e-05
1.27409e-05
1.27415e-05
1.26846e-05
1.2684e-05
1.26825e-05
1.26798e-05
1.26757e-05
1.26705e-05
1.26645e-05
1.26582e-05
1.26521e-05
1.26463e-05
1.26406e-05
1.26349e-05
1.26292e-05
1.26238e-05
1.26203e-05
1.26218e-05
1.26307e-05
1.26438e-05
1.26568e-05
1.26689e-05
1.26799e-05
1.26899e-05
1.2699e-05
1.27074e-05
1.27151e-05
1.27221e-05
1.27281e-05
1.2733e-05
1.27367e-05
1.27391e-05
1.27405e-05
1.2741e-05
1.2684e-05
1.26834e-05
1.26818e-05
1.26789e-05
1.26748e-05
1.26695e-05
1.26635e-05
1.26572e-05
1.26511e-05
1.26453e-05
1.26393e-05
1.26329e-05
1.26258e-05
1.26185e-05
1.26129e-05
1.2613e-05
1.26222e-05
1.26367e-05
1.26511e-05
1.26643e-05
1.26762e-05
1.26869e-05
1.26967e-05
1.27056e-05
1.27137e-05
1.2721e-05
1.27273e-05
1.27324e-05
1.27362e-05
1.27386e-05
1.274e-05
1.27406e-05
1.26835e-05
1.26829e-05
1.26813e-05
1.26785e-05
1.26744e-05
1.26691e-05
1.26632e-05
1.26571e-05
1.26512e-05
1.26452e-05
1.26389e-05
1.26317e-05
1.2623e-05
1.26132e-05
1.26045e-05
1.26026e-05
1.26121e-05
1.2628e-05
1.26441e-05
1.26587e-05
1.26718e-05
1.26836e-05
1.26942e-05
1.27038e-05
1.27125e-05
1.27202e-05
1.27267e-05
1.27319e-05
1.27357e-05
1.27382e-05
1.27396e-05
1.27402e-05
1.26834e-05
1.26828e-05
1.26812e-05
1.26786e-05
1.26747e-05
1.26697e-05
1.26641e-05
1.26584e-05
1.26527e-05
1.26469e-05
1.26403e-05
1.26322e-05
1.26218e-05
1.26088e-05
1.25961e-05
1.25914e-05
1.26008e-05
1.26181e-05
1.2636e-05
1.26524e-05
1.2667e-05
1.26801e-05
1.26919e-05
1.27024e-05
1.27117e-05
1.27197e-05
1.27264e-05
1.27317e-05
1.27355e-05
1.2738e-05
1.27394e-05
1.27399e-05
1.26838e-05
1.26832e-05
1.26818e-05
1.26794e-05
1.26759e-05
1.26714e-05
1.26664e-05
1.26613e-05
1.26561e-05
1.26507e-05
1.26443e-05
1.26356e-05
1.26231e-05
1.26062e-05
1.25885e-05
1.25802e-05
1.25892e-05
1.2608e-05
1.26278e-05
1.2646e-05
1.26623e-05
1.26769e-05
1.26898e-05
1.27013e-05
1.27112e-05
1.27196e-05
1.27265e-05
1.27317e-05
1.27355e-05
1.27379e-05
1.27392e-05
1.27398e-05
1.2685e-05
1.26844e-05
1.26831e-05
1.2681e-05
1.26781e-05
1.26745e-05
1.26703e-05
1.26661e-05
1.26619e-05
1.26573e-05
1.26513e-05
1.26421e-05
1.26273e-05
1.26053e-05
1.25813e-05
1.25691e-05
1.25783e-05
1.25989e-05
1.26208e-05
1.26409e-05
1.26587e-05
1.26746e-05
1.26886e-05
1.27009e-05
1.27113e-05
1.272e-05
1.27269e-05
1.2732e-05
1.27357e-05
1.2738e-05
1.27393e-05
1.27399e-05
1.26874e-05
1.26868e-05
1.26856e-05
1.26839e-05
1.26816e-05
1.26788e-05
1.26758e-05
1.26728e-05
1.26698e-05
1.26664e-05
1.26609e-05
1.26509e-05
1.26325e-05
1.26036e-05
1.25724e-05
1.25573e-05
1.25684e-05
1.25923e-05
1.26168e-05
1.26387e-05
1.26578e-05
1.26745e-05
1.26892e-05
1.27017e-05
1.27123e-05
1.2721e-05
1.27277e-05
1.27327e-05
1.27362e-05
1.27384e-05
1.27397e-05
1.27402e-05
1.26914e-05
1.26908e-05
1.26898e-05
1.26883e-05
1.26865e-05
1.26845e-05
1.26826e-05
1.2681e-05
1.26793e-05
1.26768e-05
1.26712e-05
1.26586e-05
1.26339e-05
1.2596e-05
1.25582e-05
1.25434e-05
1.256e-05
1.25896e-05
1.26179e-05
1.26418e-05
1.26617e-05
1.26785e-05
1.26929e-05
1.27049e-05
1.2715e-05
1.2723e-05
1.27293e-05
1.27339e-05
1.27372e-05
1.27393e-05
1.27405e-05
1.2741e-05
1.2697e-05
1.26968e-05
1.26964e-05
1.26955e-05
1.26944e-05
1.26931e-05
1.2692e-05
1.26909e-05
1.26894e-05
1.26859e-05
1.26771e-05
1.26576e-05
1.26223e-05
1.25747e-05
1.25344e-05
1.25268e-05
1.25545e-05
1.25929e-05
1.26263e-05
1.26525e-05
1.26727e-05
1.26888e-05
1.27016e-05
1.2712e-05
1.27204e-05
1.27271e-05
1.27323e-05
1.27363e-05
1.27391e-05
1.27409e-05
1.2742e-05
1.27425e-05
1.26886e-05
1.26897e-05
1.26917e-05
1.26941e-05
1.26964e-05
1.26979e-05
1.26981e-05
1.26963e-05
1.26915e-05
1.26813e-05
1.26621e-05
1.26291e-05
1.25816e-05
1.25302e-05
1.24991e-05
1.25099e-05
1.25547e-05
1.26038e-05
1.26424e-05
1.26707e-05
1.26911e-05
1.27059e-05
1.27166e-05
1.27242e-05
1.27297e-05
1.27339e-05
1.27373e-05
1.27401e-05
1.27423e-05
1.2744e-05
1.2745e-05
1.27455e-05
1.26097e-05
1.26116e-05
1.26156e-05
1.26211e-05
1.26272e-05
1.26323e-05
1.26347e-05
1.26324e-05
1.26235e-05
1.26059e-05
1.25778e-05
1.25387e-05
1.24946e-05
1.24613e-05
1.24599e-05
1.24992e-05
1.25599e-05
1.26143e-05
1.26548e-05
1.26846e-05
1.27066e-05
1.27225e-05
1.27334e-05
1.27403e-05
1.27445e-05
1.27473e-05
1.27494e-05
1.2751e-05
1.27519e-05
1.27522e-05
1.2752e-05
1.27517e-05
1.24615e-05
1.24623e-05
1.24643e-05
1.24674e-05
1.24712e-05
1.24746e-05
1.24762e-05
1.24739e-05
1.24664e-05
1.24527e-05
1.24336e-05
1.24131e-05
1.23996e-05
1.24045e-05
1.24344e-05
1.24837e-05
1.25322e-05
1.25675e-05
1.25942e-05
1.26192e-05
1.26449e-05
1.26704e-05
1.2694e-05
1.27137e-05
1.27276e-05
1.27348e-05
1.27354e-05
1.27305e-05
1.27223e-05
1.27133e-05
1.27061e-05
1.27023e-05
1.23525e-05
1.23523e-05
1.23521e-05
1.23521e-05
1.23525e-05
1.2353e-05
1.23534e-05
1.2353e-05
1.23513e-05
1.23481e-05
1.23447e-05
1.23435e-05
1.2347e-05
1.23549e-05
1.23631e-05
1.23639e-05
1.235e-05
1.23247e-05
1.22992e-05
1.22804e-05
1.22712e-05
1.22714e-05
1.22799e-05
1.22943e-05
1.23112e-05
1.23271e-05
1.23395e-05
1.23466e-05
1.23484e-05
1.23465e-05
1.23432e-05
1.23408e-05
1.22971e-05
1.22968e-05
1.22964e-05
1.22959e-05
1.22954e-05
1.22951e-05
1.22949e-05
1.22942e-05
1.22927e-05
1.22897e-05
1.22846e-05
1.22764e-05
1.22634e-05
1.22421e-05
1.22067e-05
1.21476e-05
1.20609e-05
1.19596e-05
1.18631e-05
1.17801e-05
1.17145e-05
1.16666e-05
1.16356e-05
1.1621e-05
1.16211e-05
1.16339e-05
1.16565e-05
1.16851e-05
1.17144e-05
1.1739e-05
1.17549e-05
1.17617e-05
1.22647e-05
1.22645e-05
1.22641e-05
1.22633e-05
1.22621e-05
1.22602e-05
1.22572e-05
1.22527e-05
1.2246e-05
1.22363e-05
1.2222e-05
1.22014e-05
1.21712e-05
1.21268e-05
1.20616e-05
1.19661e-05
1.18393e-05
1.17028e-05
1.15807e-05
1.14803e-05
1.14023e-05
1.13432e-05
1.12993e-05
1.1269e-05
1.12517e-05
1.12472e-05
1.1255e-05
1.12732e-05
1.12979e-05
1.13231e-05
1.13424e-05
1.1352e-05
1.22398e-05
1.22397e-05
1.22392e-05
1.22381e-05
1.22358e-05
1.2232e-05
1.22259e-05
1.2217e-05
1.22047e-05
1.21881e-05
1.21661e-05
1.21367e-05
1.20969e-05
1.20421e-05
1.19657e-05
1.18594e-05
1.17256e-05
1.15907e-05
1.14797e-05
1.13965e-05
1.13366e-05
1.12919e-05
1.12563e-05
1.12268e-05
1.12023e-05
1.11836e-05
1.11717e-05
1.11674e-05
1.11701e-05
1.11776e-05
1.1186e-05
1.11912e-05
1.22156e-05
1.22156e-05
1.22153e-05
1.22141e-05
1.22113e-05
1.22059e-05
1.21973e-05
1.21847e-05
1.21676e-05
1.21456e-05
1.21181e-05
1.20838e-05
1.20404e-05
1.1984e-05
1.19089e-05
1.18078e-05
1.16842e-05
1.15644e-05
1.14706e-05
1.14037e-05
1.13561e-05
1.13185e-05
1.12847e-05
1.1252e-05
1.12206e-05
1.11925e-05
1.117e-05
1.11544e-05
1.11459e-05
1.11432e-05
1.11441e-05
1.11457e-05
1.21879e-05
1.21883e-05
1.21885e-05
1.21877e-05
1.21847e-05
1.21783e-05
1.21676e-05
1.21517e-05
1.21305e-05
1.2104e-05
1.20722e-05
1.20349e-05
1.19907e-05
1.19368e-05
1.18686e-05
1.17797e-05
1.1673e-05
1.15705e-05
1.14903e-05
1.1432e-05
1.13882e-05
1.13511e-05
1.13151e-05
1.12779e-05
1.124e-05
1.12039e-05
1.11731e-05
1.115e-05
1.11355e-05
1.11283e-05
1.11263e-05
1.11265e-05
1.21527e-05
1.21537e-05
1.21549e-05
1.21548e-05
1.2152e-05
1.21447e-05
1.21318e-05
1.21127e-05
1.20872e-05
1.20563e-05
1.20205e-05
1.19806e-05
1.19361e-05
1.18855e-05
1.18254e-05
1.17504e-05
1.16616e-05
1.15754e-05
1.15055e-05
1.14516e-05
1.14084e-05
1.13702e-05
1.13326e-05
1.12934e-05
1.12525e-05
1.12121e-05
1.11757e-05
1.11467e-05
1.11271e-05
1.11164e-05
1.11124e-05
1.1112e-05
1.21058e-05
1.21078e-05
1.21104e-05
1.21113e-05
1.21085e-05
1.20998e-05
1.2084e-05
1.20608e-05
1.20307e-05
1.19951e-05
1.19555e-05
1.19131e-05
1.18683e-05
1.18206e-05
1.17677e-05
1.17052e-05
1.16327e-05
1.15613e-05
1.15005e-05
1.14506e-05
1.14085e-05
1.13705e-05
1.13333e-05
1.12948e-05
1.12545e-05
1.12136e-05
1.11752e-05
1.11428e-05
1.11193e-05
1.11055e-05
1.10998e-05
1.10989e-05
1.20434e-05
1.20467e-05
1.20508e-05
1.20524e-05
1.20485e-05
1.20372e-05
1.20173e-05
1.19892e-05
1.19542e-05
1.19144e-05
1.18717e-05
1.18277e-05
1.17832e-05
1.17382e-05
1.16914e-05
1.16393e-05
1.15808e-05
1.15226e-05
1.14711e-05
1.14266e-05
1.13879e-05
1.13524e-05
1.13178e-05
1.12823e-05
1.12452e-05
1.12071e-05
1.11699e-05
1.11369e-05
1.11115e-05
1.10955e-05
1.10882e-05
1.10866e-05
1.19623e-05
1.1967e-05
1.1972e-05
1.19728e-05
1.1966e-05
1.19502e-05
1.19252e-05
1.18922e-05
1.18534e-05
1.18111e-05
1.17673e-05
1.17236e-05
1.16809e-05
1.16394e-05
1.15984e-05
1.15553e-05
1.15087e-05
1.14624e-05
1.14204e-05
1.13829e-05
1.13494e-05
1.13185e-05
1.12884e-05
1.12579e-05
1.1226e-05
1.11929e-05
1.11595e-05
1.11285e-05
1.11032e-05
1.1086e-05
1.10775e-05
1.10754e-05
1.18596e-05
1.18655e-05
1.18696e-05
1.18668e-05
1.18548e-05
1.18333e-05
1.18037e-05
1.17677e-05
1.17278e-05
1.16861e-05
1.16444e-05
1.16037e-05
1.15651e-05
1.15285e-05
1.14938e-05
1.1459e-05
1.14228e-05
1.13874e-05
1.13547e-05
1.1325e-05
1.1298e-05
1.12729e-05
1.12486e-05
1.12241e-05
1.11986e-05
1.11718e-05
1.11441e-05
1.11172e-05
1.10939e-05
1.1077e-05
1.10679e-05
1.10652e-05
1.17328e-05
1.17384e-05
1.17383e-05
1.17291e-05
1.17107e-05
1.1685e-05
1.16535e-05
1.16185e-05
1.15816e-05
1.15445e-05
1.15082e-05
1.14737e-05
1.14415e-05
1.14117e-05
1.13841e-05
1.13573e-05
1.13306e-05
1.13048e-05
1.1281e-05
1.1259e-05
1.12389e-05
1.12201e-05
1.1202e-05
1.11838e-05
1.11649e-05
1.1145e-05
1.11241e-05
1.11028e-05
1.10833e-05
1.10681e-05
1.10591e-05
1.10562e-05
1.15779e-05
1.15802e-05
1.15725e-05
1.15566e-05
1.15349e-05
1.15094e-05
1.14814e-05
1.14522e-05
1.14227e-05
1.13939e-05
1.13663e-05
1.13405e-05
1.13167e-05
1.12949e-05
1.12752e-05
1.12565e-05
1.12384e-05
1.12212e-05
1.12053e-05
1.11906e-05
1.1177e-05
1.11643e-05
1.11521e-05
1.114e-05
1.11275e-05
1.11143e-05
1.11001e-05
1.10853e-05
1.10709e-05
1.10589e-05
1.10511e-05
1.10482e-05
1.13885e-05
1.13842e-05
1.13707e-05
1.13544e-05
1.13366e-05
1.1318e-05
1.12988e-05
1.12798e-05
1.12611e-05
1.12432e-05
1.12263e-05
1.12107e-05
1.11964e-05
1.11834e-05
1.11718e-05
1.1161e-05
1.11507e-05
1.1141e-05
1.11321e-05
1.11238e-05
1.11162e-05
1.11091e-05
1.11023e-05
1.10955e-05
1.10886e-05
1.10814e-05
1.10735e-05
1.10652e-05
1.10567e-05
1.1049e-05
1.10436e-05
1.10413e-05
1.11572e-05
1.11537e-05
1.11468e-05
1.114e-05
1.11331e-05
1.11263e-05
1.11195e-05
1.11129e-05
1.11066e-05
1.11006e-05
1.1095e-05
1.10898e-05
1.10851e-05
1.10809e-05
1.10771e-05
1.10736e-05
1.10703e-05
1.10672e-05
1.10644e-05
1.10618e-05
1.10594e-05
1.10571e-05
1.1055e-05
1.10529e-05
1.10507e-05
1.10484e-05
1.1046e-05
1.10434e-05
1.10407e-05
1.10381e-05
1.10362e-05
1.10352e-05
)
;

boundaryField
{
    movingWall
    {
        type            fixedValue;
        value           uniform 1.1032e-05;
    }
    fixedWalls
    {
        type            zeroGradient;
    }
    floor
    {
        type            zeroGradient;
    }
    frontAndBack
    {
        type            empty;
    }
}


// ************************************************************************* //
