/*--------------------------------*- C++ -*----------------------------------*\
| =========                 |                                                 |
| \\      /  F ield         | OpenFOAM: The Open Source CFD Toolbox           |
|  \\    /   O peration     | Version:  2212                                  |
|   \\  /    A nd           | Website:  www.openfoam.com                      |
|    \\/     M anipulation  |                                                 |
\*---------------------------------------------------------------------------*/
FoamFile
{
    version     2.0;
    format      ascii;
    arch        "LSB;label=64;scalar=64";
    class       volVectorField;
    location    "570";
    object      U;
}
// * * * * * * * * * * * * * * * * * * * * * * * * * * * * * * * * * * * * * //

dimensions      [0 1 -1 0 0 0 0];

internalField   nonuniform List<vector> 
1024
(
(1.97485e-05 -2.10262e-05 0)
(-1.58763e-05 1.07488e-06 0)
(-0.000197367 2.66195e-05 0)
(-0.000500497 3.35253e-05 0)
(-0.000864487 3.08725e-05 0)
(-0.00126511 3.0251e-05 0)
(-0.00172509 3.45628e-05 0)
(-0.00227778 4.11165e-05 0)
(-0.00293732 4.68485e-05 0)
(-0.00368895 4.98446e-05 0)
(-0.00448445 4.87665e-05 0)
(-0.00522445 4.15467e-05 0)
(-0.0057171 2.4559e-05 0)
(-0.00569476 -3.41385e-06 0)
(-0.00482216 -3.60383e-05 0)
(-0.00307535 -5.37719e-05 0)
(-0.000963657 -4.86427e-05 0)
(0.00057595 -2.53646e-05 0)
(0.00116542 -1.57166e-05 0)
(0.00155104 -8.0515e-06 0)
(0.00176364 -6.55702e-06 0)
(0.00193785 -7.71209e-06 0)
(0.00209726 -8.28714e-06 0)
(0.00220508 -4.16061e-06 0)
(0.00221373 4.63764e-06 0)
(0.00209559 1.75196e-05 0)
(0.001838 3.39362e-05 0)
(0.00145075 5.2317e-05 0)
(0.00097288 6.75681e-05 0)
(0.000491537 6.73539e-05 0)
(0.000136772 3.68305e-05 0)
(-5.54047e-06 -6.87213e-06 0)
(-6.60785e-06 1.52182e-05 0)
(-0.000266922 0.000219597 0)
(-0.000890911 0.000415036 0)
(-0.00182342 0.000491804 0)
(-0.00293536 0.000489699 0)
(-0.00417201 0.000480636 0)
(-0.00556075 0.000491873 0)
(-0.00714357 0.000510347 0)
(-0.00891813 0.000514245 0)
(-0.0108133 0.000487919 0)
(-0.012676 0.000420289 0)
(-0.0142382 0.000298565 0)
(-0.0150611 0.00011061 0)
(-0.0146005 -0.000141855 0)
(-0.0121857 -0.000398619 0)
(-0.00784938 -0.000541286 0)
(-0.00264812 -0.000511147 0)
(0.0013983 -0.000309233 0)
(0.00300805 -0.000178218 0)
(0.00408273 -0.000116018 0)
(0.00471627 -9.07629e-05 0)
(0.00521295 -9.06368e-05 0)
(0.00563408 -8.35264e-05 0)
(0.00590232 -3.86793e-05 0)
(0.00591453 5.17016e-05 0)
(0.00560259 0.000186934 0)
(0.00493538 0.000360081 0)
(0.00394348 0.000547232 0)
(0.0027313 0.000691848 0)
(0.00150275 0.000697792 0)
(0.000545172 0.000487567 0)
(4.56161e-05 0.000140919 0)
(-5.6228e-05 0.000268994 0)
(-0.000672398 0.000922327 0)
(-0.00186239 0.00141994 0)
(-0.00350584 0.00161104 0)
(-0.0054149 0.00160522 0)
(-0.00751075 0.00156088 0)
(-0.0097942 0.00153964 0)
(-0.0122687 0.0015169 0)
(-0.0148822 0.00144678 0)
(-0.0174988 0.00129545 0)
(-0.0198808 0.00104033 0)
(-0.0216546 0.000659814 0)
(-0.0222626 0.000137621 0)
(-0.0210303 -0.000512654 0)
(-0.0172841 -0.00113483 0)
(-0.0112007 -0.0014769 0)
(-0.00405655 -0.00142081 0)
(0.00184021 -0.000899873 0)
(0.00433532 -0.000529871 0)
(0.006034 -0.000361281 0)
(0.00708969 -0.000284927 0)
(0.00789165 -0.000269601 0)
(0.00853202 -0.000235287 0)
(0.00892528 -0.000104986 0)
(0.00893936 0.000148995 0)
(0.00847625 0.00052831 0)
(0.00749645 0.00101174 0)
(0.00604813 0.00152981 0)
(0.00427874 0.00193571 0)
(0.00245703 0.00200118 0)
(0.000970562 0.00153195 0)
(0.000103458 0.000591052 0)
(-0.000116121 0.000886239 0)
(-0.00115019 0.00238511 0)
(-0.00296825 0.00332668 0)
(-0.00534473 0.00363445 0)
(-0.00801493 0.00357168 0)
(-0.0108668 0.00341142 0)
(-0.0138572 0.00325534 0)
(-0.0169344 0.00307239 0)
(-0.0199943 0.00279762 0)
(-0.0228571 0.00238201 0)
(-0.0252469 0.00179339 0)
(-0.0267573 0.00100319 0)
(-0.0268109 -9.50239e-06 0)
(-0.0246755 -0.00119405 0)
(-0.0199518 -0.00226331 0)
(-0.0129326 -0.00283372 0)
(-0.0049798 -0.0027501 0)
(0.00185793 -0.00181819 0)
(0.00504191 -0.00110827 0)
(0.00725019 -0.000780509 0)
(0.00868459 -0.000620916 0)
(0.00975174 -0.000566539 0)
(0.0105665 -0.000476754 0)
(0.0110594 -0.000211013 0)
(0.0110861 0.000293914 0)
(0.0105268 0.00104584 0)
(0.00934003 0.00199993 0)
(0.00758421 0.00302078 0)
(0.0054293 0.00384005 0)
(0.00317864 0.0040498 0)
(0.00129239 0.00325609 0)
(0.0001449 0.00138759 0)
(-0.000172245 0.00198539 0)
(-0.00158404 0.00481743 0)
(-0.00395474 0.00633161 0)
(-0.00694634 0.00670003 0)
(-0.0102083 0.00645711 0)
(-0.0135844 0.00603014 0)
(-0.0169871 0.00557269 0)
(-0.0203197 0.00505878 0)
(-0.023447 0.00441516 0)
(-0.0261756 0.00358362 0)
(-0.0282337 0.00252424 0)
(-0.0292321 0.00120073 0)
(-0.0286128 -0.000413151 0)
(-0.0257588 -0.0021956 0)
(-0.020475 -0.00372405 0)
(-0.0131546 -0.00449693 0)
(-0.00524784 -0.00435496 0)
(0.00159187 -0.00300092 0)
(0.00518097 -0.00191211 0)
(0.00771887 -0.00138332 0)
(0.00942538 -0.00111088 0)
(0.0106804 -0.00098874 0)
(0.0116114 -0.000811828 0)
(0.0121756 -0.000363471 0)
(0.0122273 0.000473306 0)
(0.0116277 0.00171839 0)
(0.0103335 0.00329393 0)
(0.00840725 0.00498063 0)
(0.00603383 0.00636012 0)
(0.00354256 0.00679522 0)
(0.00144303 0.00560796 0)
(0.000161089 0.00249599 0)
(-0.000201467 0.0035817 0)
(-0.00182576 0.00823951 0)
(-0.00452184 0.0104508 0)
(-0.00787547 0.0108011 0)
(-0.0114617 0.010213 0)
(-0.0150762 0.00932403 0)
(-0.0185934 0.00836574 0)
(-0.0218909 0.00733331 0)
(-0.0248251 0.00615585 0)
(-0.0272161 0.00477103 0)
(-0.0288251 0.00313077 0)
(-0.0293061 0.00118837 0)
(-0.0281326 -0.00108199 0)
(-0.0248805 -0.00348326 0)
(-0.0193829 -0.0054572 0)
(-0.0121631 -0.00636963 0)
(-0.00479135 -0.00608448 0)
(0.0013713 -0.00434295 0)
(0.00500711 -0.00290256 0)
(0.00763272 -0.0021491 0)
(0.00943952 -0.00174137 0)
(0.0107573 -0.00152518 0)
(0.0117158 -0.00123319 0)
(0.0122991 -0.000563991 0)
(0.0123702 0.000674315 0)
(0.0117723 0.00252282 0)
(0.0104537 0.00486021 0)
(0.00847758 0.00736046 0)
(0.00604427 0.00941766 0)
(0.00350864 0.0101122 0)
(0.00140294 0.00842823 0)
(0.000149493 0.00381257 0)
(-0.000186798 0.00552002 0)
(-0.00177757 0.0124021 0)
(-0.00448466 0.0154698 0)
(-0.00788435 0.0157705 0)
(-0.0115046 0.0146911 0)
(-0.0150933 0.0131487 0)
(-0.0184931 0.0114969 0)
(-0.0215708 0.00977476 0)
(-0.0241933 0.00792413 0)
(-0.0262123 0.0058819 0)
(-0.0274366 0.00358779 0)
(-0.0275631 0.00097622 0)
(-0.0260747 -0.00197728 0)
(-0.0226728 -0.00502093 0)
(-0.017168 -0.00742989 0)
(-0.0102671 -0.00839573 0)
(-0.00363247 -0.007831 0)
(0.00154913 -0.00573116 0)
(0.00489696 -0.00400079 0)
(0.00735014 -0.00301708 0)
(0.00904836 -0.00245948 0)
(0.0102662 -0.00212931 0)
(0.0111286 -0.00170312 0)
(0.0116432 -0.000790444 0)
(0.0116914 0.000898848 0)
(0.0111059 0.00344186 0)
(0.00981749 0.00666088 0)
(0.0078872 0.0100897 0)
(0.00553227 0.0128841 0)
(0.00313003 0.0137936 0)
(0.00120357 0.0114655 0)
(0.000116519 0.0051808 0)
(-0.000132725 0.00749575 0)
(-0.00145133 0.0168193 0)
(-0.00385671 0.02097 0)
(-0.0069968 0.0213047 0)
(-0.0103926 0.0196701 0)
(-0.0137475 0.0173354 0)
(-0.016875 0.01484 0)
(-0.0196396 0.0122995 0)
(-0.0219299 0.00968146 0)
(-0.0236392 0.0069221 0)
(-0.0246226 0.0039382 0)
(-0.024591 0.000624121 0)
(-0.0229776 -0.00305715 0)
(-0.0195353 -0.00679934 0)
(-0.0141325 -0.00963242 0)
(-0.0076943 -0.0105426 0)
(-0.00184865 -0.00952537 0)
(0.00230509 -0.0070858 0)
(0.00517611 -0.00510832 0)
(0.00724516 -0.0038929 0)
(0.00864148 -0.00317138 0)
(0.00959405 -0.00271036 0)
(0.0102234 -0.00213864 0)
(0.0105574 -0.000977557 0)
(0.0105025 0.00118432 0)
(0.00989991 0.00448028 0)
(0.00865887 0.00866225 0)
(0.00683606 0.0130787 0)
(0.00466367 0.0165867 0)
(0.00253048 0.0175749 0)
(0.000914064 0.0144259 0)
(7.49641e-05 0.00643351 0)
(-5.99629e-05 0.00914671 0)
(-0.00094299 0.0208621 0)
(-0.00279477 0.026375 0)
(-0.00541793 0.0269882 0)
(-0.0083825 0.0248728 0)
(-0.0113549 0.0217002 0)
(-0.0141145 0.0182781 0)
(-0.0165221 0.0148489 0)
(-0.0184897 0.0114222 0)
(-0.0199524 0.00793112 0)
(-0.020803 0.00425262 0)
(-0.0207216 0.000207101 0)
(-0.0190597 -0.00430968 0)
(-0.0155934 -0.0088369 0)
(-0.0103999 -0.0120518 0)
(-0.00458667 -0.0127601 0)
(0.000409645 -0.011121 0)
(0.00364909 -0.0083696 0)
(0.00598312 -0.00613582 0)
(0.00754906 -0.00467143 0)
(0.00851342 -0.00375983 0)
(0.00907599 -0.00314433 0)
(0.00935791 -0.00241569 0)
(0.00940464 -0.001012 0)
(0.00915167 0.00161855 0)
(0.00847172 0.00568215 0)
(0.00726073 0.0108507 0)
(0.0055716 0.0162353 0)
(0.00364449 0.020335 0)
(0.00185978 0.0211838 0)
(0.000612889 0.0170442 0)
(3.74495e-05 0.00744358 0)
(9.04792e-06 0.0101545 0)
(-0.000372906 0.0238594 0)
(-0.00149779 0.0309857 0)
(-0.00339163 0.0322965 0)
(-0.00575501 0.0299665 0)
(-0.00824028 0.0260414 0)
(-0.0105774 0.0216887 0)
(-0.0126041 0.0173546 0)
(-0.0142432 0.01312 0)
(-0.015464 0.00891143 0)
(-0.0161877 0.00454253 0)
(-0.0160193 -0.000288617 0)
(-0.0142851 -0.00577075 0)
(-0.0108067 -0.0111536 0)
(-0.00601042 -0.0146274 0)
(-0.00102468 -0.0149283 0)
(0.00293219 -0.0126254 0)
(0.00549404 -0.00953434 0)
(0.00725304 -0.00701092 0)
(0.00828436 -0.00525891 0)
(0.00876889 -0.00411122 0)
(0.0088869 -0.0033009 0)
(0.00876157 -0.00239284 0)
(0.00844874 -0.000751092 0)
(0.00791806 0.00233194 0)
(0.00709195 0.00713233 0)
(0.00587494 0.0132404 0)
(0.00431865 0.0194812 0)
(0.00266008 0.0239536 0)
(0.00124545 0.0243964 0)
(0.00035922 0.0191477 0)
(1.10996e-05 0.0081561 0)
(5.61295e-05 0.0103083 0)
(0.000134207 0.0251357 0)
(-0.000175734 0.0339704 0)
(-0.00112549 0.036545 0)
(-0.00268272 0.0345209 0)
(-0.00457037 0.0301152 0)
(-0.00644953 0.0249217 0)
(-0.00808632 0.0197081 0)
(-0.00937948 0.0146834 0)
(-0.0103109 0.0097794 0)
(-0.0108365 0.00473041 0)
(-0.010433 -0.000946972 0)
(-0.00846943 -0.00753642 0)
(-0.0051133 -0.0137058 0)
(-0.00101744 -0.0171766 0)
(0.00282232 -0.0168866 0)
(0.00568454 -0.0140052 0)
(0.00761703 -0.0105372 0)
(0.00877906 -0.00767107 0)
(0.00929244 -0.00558366 0)
(0.00932029 -0.00414032 0)
(0.0090157 -0.0030752 0)
(0.00849144 -0.00193908 0)
(0.00779509 -2.25465e-05 0)
(0.00694993 0.00348815 0)
(0.00592536 0.00894964 0)
(0.00466412 0.0158737 0)
(0.00322314 0.022764 0)
(0.00182486 0.0273128 0)
(0.000755977 0.0270794 0)
(0.000176044 0.0206831 0)
(-3.83819e-06 0.00858621 0)
(8.97125e-05 0.00959136 0)
(0.000538468 0.0244151 0)
(0.000980325 0.0343439 0)
(0.00108631 0.038575 0)
(0.000647661 0.0378387 0)
(-0.000333121 0.0336773 0)
(-0.00160322 0.0278783 0)
(-0.00283055 0.0218178 0)
(-0.00380915 0.0159734 0)
(-0.00444228 0.0103701 0)
(-0.00469938 0.0046876 0)
(-0.00365206 -0.00188592 0)
(-0.00149675 -0.0096833 0)
(0.0014338 -0.0162656 0)
(0.00435404 -0.0193041 0)
(0.00679079 -0.0185259 0)
(0.00860342 -0.0151115 0)
(0.00973566 -0.0112703 0)
(0.010255 -0.0080396 0)
(0.0102789 -0.00559308 0)
(0.00992165 -0.00380925 0)
(0.00928399 -0.00242454 0)
(0.00843395 -0.000982663 0)
(0.00740103 0.00131243 0)
(0.0062491 0.00524037 0)
(0.00500126 0.0112661 0)
(0.00365983 0.0188187 0)
(0.00230515 0.0260684 0)
(0.00114247 0.0303412 0)
(0.000379542 0.0291861 0)
(4.81273e-05 0.0216793 0)
(-1.15225e-05 0.00878107 0)
(0.000104408 0.00796875 0)
(0.00081231 0.0213857 0)
(0.00186387 0.0315593 0)
(0.00293873 0.037168 0)
(0.00370706 0.0381121 0)
(0.00399208 0.0352985 0)
(0.00381244 0.0300922 0)
(0.00335601 0.0238046 0)
(0.00288944 0.017249 0)
(0.00265322 0.010731 0)
(0.00274892 0.00396485 0)
(0.00439454 -0.00382759 0)
(0.00633166 -0.0118254 0)
(0.00824811 -0.0179589 0)
(0.00981951 -0.0207658 0)
(0.0108093 -0.0195676 0)
(0.0112946 -0.015718 0)
(0.0114104 -0.0115513 0)
(0.0112125 -0.00800704 0)
(0.0107771 -0.00523939 0)
(0.0101421 -0.00312689 0)
(0.00930932 -0.00138101 0)
(0.00823635 0.000549431 0)
(0.0069688 0.00329589 0)
(0.00557093 0.00769898 0)
(0.00410272 0.0142229 0)
(0.00265367 0.0221728 0)
(0.00137111 0.029397 0)
(0.000460089 0.032958 0)
(2.00393e-05 0.0306243 0)
(-6.9781e-05 0.0220939 0)
(-1.91542e-05 0.00874831 0)
(9.70916e-05 0.00564188 0)
(0.000909262 0.0161914 0)
(0.00233969 0.025402 0)
(0.00414317 0.0317015 0)
(0.00596559 0.0342738 0)
(0.00753498 0.0332861 0)
(0.00871167 0.0295375 0)
(0.00950524 0.0240305 0)
(0.010057 0.01759 0)
(0.0105759 0.0106783 0)
(0.0112941 0.00322295 0)
(0.012737 -0.00515217 0)
(0.0140443 -0.0131294 0)
(0.0148783 -0.018938 0)
(0.0149368 -0.0212392 0)
(0.0141365 -0.0195753 0)
(0.0129526 -0.0154306 0)
(0.011826 -0.0111146 0)
(0.0108385 -0.00744651 0)
(0.00997791 -0.00447707 0)
(0.00918115 -0.00205294 0)
(0.00824542 0.000160019 0)
(0.00709397 0.00257379 0)
(0.00574674 0.00584458 0)
(0.00415828 0.0108358 0)
(0.00243865 0.0178978 0)
(0.000921564 0.0260091 0)
(-9.81715e-05 0.0326162 0)
(-0.000514296 0.0346826 0)
(-0.000479469 0.0309211 0)
(-0.000248961 0.0216682 0)
(-3.69415e-05 0.00836301 0)
(7.35926e-05 0.00297021 0)
(0.000800954 0.00948643 0)
(0.0022572 0.0163538 0)
(0.00434156 0.0222174 0)
(0.00677084 0.0258186 0)
(0.00926003 0.0266167 0)
(0.0115904 0.0247663 0)
(0.0136401 0.0208115 0)
(0.0153954 0.0153607 0)
(0.0169366 0.00884536 0)
(0.0185089 0.00135275 0)
(0.0198338 -0.00665961 0)
(0.0204292 -0.0137382 0)
(0.0199125 -0.0185298 0)
(0.0181446 -0.0200523 0)
(0.0152001 -0.0179563 0)
(0.0120425 -0.0137577 0)
(0.00945864 -0.00960196 0)
(0.00765123 -0.00624201 0)
(0.00645595 -0.00356431 0)
(0.00547642 -0.00107893 0)
(0.0042153 0.00152664 0)
(0.00292669 0.00452182 0)
(0.00143412 0.00874711 0)
(-0.000191911 0.0151439 0)
(-0.00155358 0.0227841 0)
(-0.00231706 0.0296401 0)
(-0.00240387 0.033957 0)
(-0.00193885 0.0339245 0)
(-0.00120606 0.0288824 0)
(-0.000512086 0.0194916 0)
(-6.50325e-05 0.00724051 0)
(3.16473e-05 0.000729139 0)
(0.000475394 0.00317601 0)
(0.00152483 0.00674474 0)
(0.0032718 0.0107955 0)
(0.00561288 0.0142184 0)
(0.00833791 0.0160612 0)
(0.0112229 0.0158969 0)
(0.0140879 0.0137622 0)
(0.0168244 0.00993931 0)
(0.0194143 0.00473991 0)
(0.0216126 -0.00164427 0)
(0.022749 -0.00790667 0)
(0.0223884 -0.013095 0)
(0.0202588 -0.0162367 0)
(0.0164869 -0.0166969 0)
(0.0111296 -0.014153 0)
(0.00590486 -0.0102052 0)
(0.00163188 -0.00649419 0)
(-0.00140812 -0.00312873 0)
(-0.00369999 -0.000570411 0)
(-0.00529677 0.00179309 0)
(-0.00617262 0.00458749 0)
(-0.0069406 0.00832922 0)
(-0.00749903 0.0131511 0)
(-0.00766852 0.0188363 0)
(-0.00731044 0.0245415 0)
(-0.00640657 0.0288987 0)
(-0.00505252 0.0305812 0)
(-0.00346361 0.0286112 0)
(-0.00193085 0.0229599 0)
(-0.000747853 0.0146157 0)
(-8.13654e-05 0.00507368 0)
(1.85937e-06 -0.000285788 0)
(0.000172949 -0.00038596 0)
(0.000683984 0.000144531 0)
(0.00171345 0.00136625 0)
(0.00336328 0.0029787 0)
(0.00559472 0.00431105 0)
(0.00822179 0.00466483 0)
(0.0110124 0.00364851 0)
(0.0136389 0.00119258 0)
(0.0156723 -0.0022923 0)
(0.0168798 -0.00574531 0)
(0.0167594 -0.00887629 0)
(0.0148754 -0.0111606 0)
(0.0110288 -0.0119796 0)
(0.00547492 -0.0108869 0)
(-0.00311478 -0.00686503 0)
(-0.00990692 -0.00340704 0)
(-0.0154953 -0.00106686 0)
(-0.018648 0.000233538 0)
(-0.0201189 0.00127649 0)
(-0.0204625 0.00263279 0)
(-0.0200002 0.0046807 0)
(-0.0188092 0.00756643 0)
(-0.0170019 0.0111615 0)
(-0.0146947 0.0150555 0)
(-0.0120403 0.0185085 0)
(-0.00923654 0.0205557 0)
(-0.00649649 0.0203444 0)
(-0.00403116 0.0175262 0)
(-0.00204575 0.0126368 0)
(-0.000715584 0.00698954 0)
(-7.04785e-05 0.00197534 0)
(7.3844e-06 -0.000591133 0)
(0.000101076 -0.00167821 0)
(0.000340149 -0.00258538 0)
(0.000788568 -0.00314821 0)
(0.00149227 -0.00328771 0)
(0.00245329 -0.00307841 0)
(0.00360376 -0.00274939 0)
(0.00470712 -0.00263121 0)
(0.00547316 -0.00290892 0)
(0.00553064 -0.0036423 0)
(0.00453885 -0.00457612 0)
(0.0020747 -0.00526976 0)
(-0.0028331 -0.00484176 0)
(-0.00917243 -0.00334539 0)
(-0.0165131 -0.00130522 0)
(-0.0231507 0.000578816 0)
(-0.0284614 0.00199117 0)
(-0.0320191 0.00273352 0)
(-0.0341406 0.00289923 0)
(-0.0348596 0.00277077 0)
(-0.0341907 0.00265481 0)
(-0.0322239 0.00274434 0)
(-0.0290258 0.00326795 0)
(-0.0248099 0.00438325 0)
(-0.019924 0.00596729 0)
(-0.0148076 0.00763369 0)
(-0.00995143 0.00877545 0)
(-0.00581378 0.00873603 0)
(-0.00275603 0.00717064 0)
(-0.000923069 0.0046614 0)
(-0.000135514 0.00223874 0)
(2.83925e-05 0.000512945 0)
(3.58084e-06 -0.000832411 0)
(-3.43524e-05 -0.00223342 0)
(-0.000156065 -0.00328483 0)
(-0.000413578 -0.00382357 0)
(-0.000853439 -0.00377669 0)
(-0.00151581 -0.00321396 0)
(-0.0024364 -0.00232046 0)
(-0.00371237 -0.0012866 0)
(-0.00540457 -0.000364105 0)
(-0.0076363 0.000374176 0)
(-0.0104967 0.00103563 0)
(-0.0139139 0.00172525 0)
(-0.0177361 0.00239213 0)
(-0.0217779 0.0029583 0)
(-0.0257689 0.00349226 0)
(-0.0300203 0.00427018 0)
(-0.0343215 0.00486688 0)
(-0.0378809 0.00462512 0)
(-0.0401054 0.00330076 0)
(-0.0408372 0.00108921 0)
(-0.039984 -0.00169812 0)
(-0.0377126 -0.00471703 0)
(-0.0343041 -0.00764708 0)
(-0.0298661 -0.0102085 0)
(-0.0246223 -0.0120519 0)
(-0.0189391 -0.0127738 0)
(-0.0132903 -0.0119735 0)
(-0.00818801 -0.00943165 0)
(-0.0041232 -0.00549036 0)
(-0.00148744 -0.00158129 0)
(-0.000274276 0.000656942 0)
(1.93608e-05 0.000796455 0)
(-3.07149e-05 -0.000329255 0)
(-0.000332984 -0.000759818 0)
(-0.000971447 -0.000852647 0)
(-0.00198043 -0.000488895 0)
(-0.00331428 0.000326727 0)
(-0.00488918 0.00141999 0)
(-0.00660652 0.00251967 0)
(-0.0083481 0.00338018 0)
(-0.0101249 0.00399146 0)
(-0.0119865 0.00439237 0)
(-0.0140009 0.00464505 0)
(-0.0162272 0.00485058 0)
(-0.0186986 0.0051148 0)
(-0.0214272 0.00555474 0)
(-0.0243778 0.00625325 0)
(-0.0275051 0.00705901 0)
(-0.0306605 0.00754629 0)
(-0.0332617 0.00694574 0)
(-0.0348764 0.0049389 0)
(-0.0354713 0.00167799 0)
(-0.0349739 -0.00249255 0)
(-0.0336651 -0.007166 0)
(-0.0316401 -0.0120836 0)
(-0.0288611 -0.0169849 0)
(-0.0253451 -0.0214063 0)
(-0.0211911 -0.0246572 0)
(-0.0165933 -0.0258996 0)
(-0.0118391 -0.0243358 0)
(-0.00731795 -0.019599 0)
(-0.0035476 -0.0124566 0)
(-0.00108581 -0.00530588 0)
(-6.21459e-05 -0.000759708 0)
(-3.38669e-05 0.000651819 0)
(-0.000389866 0.00184279 0)
(-0.00111516 0.00294486 0)
(-0.00220938 0.00389979 0)
(-0.00357125 0.00468767 0)
(-0.00507992 0.00532635 0)
(-0.00664666 0.00583664 0)
(-0.00822897 0.00622875 0)
(-0.00981333 0.00651906 0)
(-0.0113916 0.0067219 0)
(-0.0129636 0.00685679 0)
(-0.0145427 0.00696537 0)
(-0.0161531 0.00712135 0)
(-0.0178165 0.00742043 0)
(-0.0195294 0.00794172 0)
(-0.0212514 0.00859218 0)
(-0.0228986 0.00889753 0)
(-0.0241522 0.00798235 0)
(-0.0248848 0.00546199 0)
(-0.025178 0.00150107 0)
(-0.0250966 -0.00331756 0)
(-0.0248427 -0.00860431 0)
(-0.0243861 -0.0144303 0)
(-0.0235322 -0.0207202 0)
(-0.0220734 -0.0270754 0)
(-0.0198533 -0.0327311 0)
(-0.016819 -0.0366165 0)
(-0.0130659 -0.0374573 0)
(-0.00888579 -0.034011 0)
(-0.00482489 -0.0258068 0)
(-0.00169529 -0.0144592 0)
(-0.000129014 -0.00389072 0)
(-2.91239e-05 0.00135189 0)
(-0.00032658 0.00365907 0)
(-0.000932938 0.00557342 0)
(-0.0018564 0.00698871 0)
(-0.00302631 0.00790383 0)
(-0.00434622 0.00840779 0)
(-0.00572165 0.00861929 0)
(-0.00707899 0.00863962 0)
(-0.0083686 0.00854706 0)
(-0.00955778 0.00839962 0)
(-0.0106263 0.00824448 0)
(-0.0115651 0.00812874 0)
(-0.012372 0.00811045 0)
(-0.0130398 0.00825704 0)
(-0.013543 0.00861627 0)
(-0.0138424 0.00910483 0)
(-0.0139048 0.00926276 0)
(-0.0136527 0.00826357 0)
(-0.0132678 0.00577132 0)
(-0.0129353 0.00191168 0)
(-0.0130283 -0.00279846 0)
(-0.0136122 -0.0079871 0)
(-0.0144513 -0.0138929 0)
(-0.0153089 -0.0206906 0)
(-0.0158399 -0.0281932 0)
(-0.0157047 -0.0357352 0)
(-0.0146251 -0.0422097 0)
(-0.0124619 -0.0460642 0)
(-0.00930352 -0.0452758 0)
(-0.0055903 -0.0379864 0)
(-0.00221101 -0.0241225 0)
(-0.000209689 -0.00759595 0)
(-2.13618e-05 0.00186348 0)
(-0.00026598 0.00501113 0)
(-0.000775235 0.00755949 0)
(-0.00155582 0.00934059 0)
(-0.00254041 0.0103467 0)
(-0.00363613 0.0107156 0)
(-0.00474752 0.0106459 0)
(-0.00579141 0.0103179 0)
(-0.00670379 0.00986564 0)
(-0.0074399 0.00938152 0)
(-0.00797009 0.00893166 0)
(-0.00827312 0.00857033 0)
(-0.00832914 0.00835258 0)
(-0.0081029 0.00832768 0)
(-0.00753553 0.0085228 0)
(-0.00656526 0.00884351 0)
(-0.0051767 0.00885109 0)
(-0.00353124 0.00782564 0)
(-0.00210643 0.00548477 0)
(-0.0011034 0.00196502 0)
(-0.00118546 -0.00218416 0)
(-0.00235291 -0.0067421 0)
(-0.00398324 -0.0121112 0)
(-0.00595582 -0.0186248 0)
(-0.007987 -0.0264003 0)
(-0.00969967 -0.0349944 0)
(-0.0106337 -0.0434425 0)
(-0.010387 -0.0502211 0)
(-0.00873671 -0.0527593 0)
(-0.00588343 -0.0479127 0)
(-0.00264131 -0.0334465 0)
(-0.000296163 -0.011713 0)
(-2.14748e-05 0.00223614 0)
(-0.000258592 0.00601732 0)
(-0.000738207 0.00904437 0)
(-0.00144167 0.0110802 0)
(-0.0022806 0.0121092 0)
(-0.00315302 0.0123146 0)
(-0.00396377 0.0119653 0)
(-0.00463404 0.0113101 0)
(-0.00510614 0.0105334 0)
(-0.00534264 0.00975694 0)
(-0.00531824 0.00905693 0)
(-0.00500738 0.00848415 0)
(-0.00438048 0.0080869 0)
(-0.00337097 0.00789565 0)
(-0.00189142 0.00792297 0)
(0.000203612 0.00806655 0)
(0.00294824 0.00788773 0)
(0.00569162 0.00679966 0)
(0.00777839 0.00463426 0)
(0.00895104 0.00166059 0)
(0.00874924 -0.00166193 0)
(0.00744844 -0.0054215 0)
(0.00552973 -0.00996975 0)
(0.00315206 -0.0156297 0)
(0.000338132 -0.0229471 0)
(-0.00268552 -0.0317641 0)
(-0.00535933 -0.0412549 0)
(-0.00711023 -0.0503685 0)
(-0.00730906 -0.0563098 0)
(-0.00575218 -0.0549163 0)
(-0.00302187 -0.041671 0)
(-0.000404927 -0.0160259 0)
(-3.37737e-05 0.00260048 0)
(-0.000346509 0.00694764 0)
(-0.000902144 0.0103207 0)
(-0.0016125 0.0124471 0)
(-0.0023385 0.0133591 0)
(-0.00296938 0.0133185 0)
(-0.00342618 0.012666 0)
(-0.00365378 0.0117035 0)
(-0.00361824 0.0106502 0)
(-0.00330341 0.00964248 0)
(-0.00269696 0.00875521 0)
(-0.00177206 0.00802234 0)
(-0.000498111 0.0074743 0)
(0.00128177 0.00713206 0)
(0.00361407 0.0070116 0)
(0.00668988 0.00696674 0)
(0.0104127 0.00663235 0)
(0.0138923 0.00561667 0)
(0.0163774 0.00381511 0)
(0.0175724 0.00147341 0)
(0.0173189 -0.00119791 0)
(0.0159954 -0.00435173 0)
(0.0139563 -0.00827058 0)
(0.0113701 -0.0132187 0)
(0.00828328 -0.0194566 0)
(0.00473019 -0.0271648 0)
(0.000872648 -0.0366061 0)
(-0.00272349 -0.0471929 0)
(-0.00501041 -0.0561571 0)
(-0.00517632 -0.058763 0)
(-0.00337693 -0.0483518 0)
(-0.000562181 -0.0204801 0)
(-7.15304e-05 0.00310173 0)
(-0.000600267 0.00806572 0)
(-0.00136595 0.0116298 0)
(-0.00215275 0.0136032 0)
(-0.00275357 0.0141916 0)
(-0.00307112 0.0137896 0)
(-0.0030731 0.0128052 0)
(-0.00275019 0.0115645 0)
(-0.00210502 0.010296 0)
(-0.00114793 0.00912468 0)
(0.000128756 0.00809913 0)
(0.00174838 0.00725696 0)
(0.00371853 0.00661168 0)
(0.00618494 0.00616429 0)
(0.00926606 0.00591581 0)
(0.0131702 0.00572669 0)
(0.0176264 0.00531946 0)
(0.021595 0.00445377 0)
(0.0243647 0.00305379 0)
(0.0256797 0.00127977 0)
(0.0255912 -0.000790452 0)
(0.0244205 -0.00333023 0)
(0.0224032 -0.00657584 0)
(0.0196403 -0.0107751 0)
(0.0161852 -0.0161694 0)
(0.0121177 -0.0229384 0)
(0.00756955 -0.0312732 0)
(0.0027875 -0.04133 0)
(-0.00166935 -0.0525815 0)
(-0.00399557 -0.059333 0)
(-0.00365267 -0.0531259 0)
(-0.000798806 -0.0250556 0)
(-0.000168733 0.00395169 0)
(-0.00114979 0.00963897 0)
(-0.00224939 0.0131154 0)
(-0.00309892 0.0145801 0)
(-0.00345498 0.0145935 0)
(-0.00328822 0.0137183 0)
(-0.00264975 0.0123942 0)
(-0.00158596 0.0109213 0)
(-0.000142007 0.00948677 0)
(0.00164228 0.00820848 0)
(0.00369505 0.00714126 0)
(0.00607215 0.00626653 0)
(0.00880295 0.00557652 0)
(0.0120026 0.00506477 0)
(0.0157973 0.00473017 0)
(0.0204038 0.00445552 0)
(0.0254029 0.00404505 0)
(0.0297087 0.00335428 0)
(0.0327262 0.00231754 0)
(0.0342632 0.0010145 0)
(0.0344742 -0.000545683 0)
(0.0335559 -0.00251301 0)
(0.03165 -0.00507414 0)
(0.028789 -0.00844127 0)
(0.0249896 -0.0128383 0)
(0.0203152 -0.0184973 0)
(0.0149101 -0.0257132 0)
(0.00902091 -0.0348436 0)
(0.00304043 -0.0459528 0)
(-0.00184807 -0.0564938 0)
(-0.00364472 -0.0556049 0)
(-0.00111706 -0.0296703 0)
(-0.000391311 0.00548367 0)
(-0.00217083 0.011883 0)
(-0.00359788 0.014724 0)
(-0.00428329 0.0152171 0)
(-0.0040682 0.0144216 0)
(-0.0030756 0.0130131 0)
(-0.001455 0.0113772 0)
(0.000709846 0.00969576 0)
(0.00319464 0.00821381 0)
(0.0059556 0.00695702 0)
(0.00896278 0.00591669 0)
(0.012251 0.00506695 0)
(0.0158475 0.00439172 0)
(0.0198336 0.0038764 0)
(0.0243115 0.00351433 0)
(0.0294815 0.00321631 0)
(0.0348252 0.00285348 0)
(0.0393108 0.00233569 0)
(0.0424881 0.00160306 0)
(0.0442241 0.000680495 0)
(0.0446982 -0.000446924 0)
(0.0439757 -0.00188601 0)
(0.0421457 -0.0037762 0)
(0.0391962 -0.00628514 0)
(0.0351001 -0.00960932 0)
(0.0298716 -0.0139996 0)
(0.0236063 -0.0198239 0)
(0.0165142 -0.0276332 0)
(0.00899537 -0.0380334 0)
(0.00193104 -0.0501376 0)
(-0.00291383 -0.0553351 0)
(-0.00143855 -0.0341772 0)
(-0.000817319 0.00824014 0)
(-0.00372221 0.0147765 0)
(-0.00505265 0.0160135 0)
(-0.0048903 0.0150741 0)
(-0.00339361 0.0133744 0)
(-0.000954304 0.0114505 0)
(0.0022665 0.00954654 0)
(0.00580134 0.00789313 0)
(0.00957857 0.00650543 0)
(0.0135437 0.00535972 0)
(0.0176644 0.0044289 0)
(0.0219458 0.00368045 0)
(0.0263973 0.00309195 0)
(0.0310678 0.00264366 0)
(0.0360326 0.00232181 0)
(0.0414633 0.00206308 0)
(0.046812 0.00178688 0)
(0.0511859 0.00143219 0)
(0.0542769 0.000949797 0)
(0.0560026 0.000338401 0)
(0.0565064 -0.000413186 0)
(0.0557901 -0.0013703 0)
(0.0539219 -0.00263244 0)
(0.0508696 -0.00431849 0)
(0.0465728 -0.00658014 0)
(0.0409816 -0.00964449 0)
(0.0340884 -0.0138966 0)
(0.0259761 -0.0199985 0)
(0.016936 -0.0289353 0)
(0.00771073 -0.0411617 0)
(-0.000622516 -0.0516115 0)
(-0.00147713 -0.0381327 0)
(-0.00157004 0.0131384 0)
(-0.00521775 0.0176522 0)
(-0.00484997 0.0159742 0)
(-0.00225992 0.0134187 0)
(0.001903 0.0108901 0)
(0.00657033 0.0087612 0)
(0.0116386 0.00697339 0)
(0.016806 0.00553298 0)
(0.0219862 0.0043811 0)
(0.0271202 0.00346767 0)
(0.0321705 0.00275256 0)
(0.0371274 0.00219849 0)
(0.0419978 0.00177755 0)
(0.046825 0.00146654 0)
(0.0516841 0.00124691 0)
(0.0567288 0.00107753 0)
(0.06148 0.000910749 0)
(0.0652496 0.000704734 0)
(0.06784 0.000427984 0)
(0.0692074 7.53128e-05 0)
(0.0694255 -0.000351682 0)
(0.0685284 -0.00089094 0)
(0.0665659 -0.00160628 0)
(0.0634968 -0.00256879 0)
(0.0592412 -0.00387498 0)
(0.0536955 -0.00569099 0)
(0.0467285 -0.00834207 0)
(0.0381969 -0.0124716 0)
(0.0280588 -0.0192422 0)
(0.0166168 -0.0300996 0)
(0.00443997 -0.0434345 0)
(-0.000160935 -0.0395696 0)
(-0.00122372 0.0182758 0)
(-0.00287316 0.0183041 0)
(0.00376368 0.0129006 0)
(0.011247 0.00957837 0)
(0.0186192 0.00715179 0)
(0.025617 0.00530435 0)
(0.0322973 0.00390775 0)
(0.0385436 0.00287914 0)
(0.0443248 0.00212176 0)
(0.0496412 0.00156732 0)
(0.0545121 0.00116641 0)
(0.0589792 0.000879494 0)
(0.0631012 0.000677369 0)
(0.0669608 0.000538057 0)
(0.0706606 0.000445048 0)
(0.0743423 0.000377224 0)
(0.0776917 0.000311397 0)
(0.0802587 0.000224837 0)
(0.0819051 0.000104834 0)
(0.0826143 -4.54987e-05 0)
(0.0823927 -0.000222467 0)
(0.0813412 -0.000444966 0)
(0.079476 -0.000744139 0)
(0.0767468 -0.00115105 0)
(0.0730697 -0.00171032 0)
(0.068319 -0.00251106 0)
(0.0622795 -0.00375625 0)
(0.0545739 -0.00590966 0)
(0.0445979 -0.00995472 0)
(0.0315761 -0.0176042 0)
(0.0154681 -0.0297327 0)
(0.00630528 -0.0334115 0)
(0.0207749 0.0113233 0)
(0.0271625 0.00927872 0)
(0.0403126 0.00544869 0)
(0.0511285 0.0033252 0)
(0.0593193 0.00208059 0)
(0.0657832 0.0012866 0)
(0.0710213 0.000781761 0)
(0.0752703 0.000472946 0)
(0.0787283 0.000286978 0)
(0.0815646 0.000176322 0)
(0.0839187 0.00011152 0)
(0.0859076 7.38865e-05 0)
(0.0876291 5.22484e-05 0)
(0.0891685 3.999e-05 0)
(0.0906017 3.31235e-05 0)
(0.092003 2.86076e-05 0)
(0.0932588 2.28698e-05 0)
(0.0941745 1.14629e-05 0)
(0.0946601 -6.24278e-06 0)
(0.0946967 -2.62928e-05 0)
(0.0943225 -4.88822e-05 0)
(0.0935824 -7.78924e-05 0)
(0.0924659 -0.000118936 0)
(0.0909302 -0.000176224 0)
(0.088917 -0.000256473 0)
(0.086333 -0.00037615 0)
(0.0829838 -0.000579233 0)
(0.0784323 -0.000979809 0)
(0.0717085 -0.00186023 0)
(0.0607788 -0.00396896 0)
(0.0432273 -0.00917451 0)
(0.0285765 -0.014513 0)
)
;

boundaryField
{
    movingWall
    {
        type            fixedValue;
        value           uniform (0.1 0 0);
    }
    fixedWalls
    {
        type            noSlip;
    }
    floor
    {
        type            noSlip;
    }
    frontAndBack
    {
        type            empty;
    }
}


// ************************************************************************* //
