/*--------------------------------*- C++ -*----------------------------------*\
| =========                 |                                                 |
| \\      /  F ield         | OpenFOAM: The Open Source CFD Toolbox           |
|  \\    /   O peration     | Version:  2212                                  |
|   \\  /    A nd           | Website:  www.openfoam.com                      |
|    \\/     M anipulation  |                                                 |
\*---------------------------------------------------------------------------*/
FoamFile
{
    version     2.0;
    format      ascii;
    arch        "LSB;label=64;scalar=64";
    class       volScalarField;
    location    "570";
    object      Xch;
}
// * * * * * * * * * * * * * * * * * * * * * * * * * * * * * * * * * * * * * //

dimensions      [1 -3 0 0 0 0 0];

internalField   nonuniform List<scalar> 
1024
(
0.0199453
0.0199455
0.0199458
0.0199465
0.0199475
0.0199488
0.0199506
0.0199526
0.0199546
0.0199566
0.0199584
0.01996
0.0199614
0.0199622
0.0199624
0.0199613
0.0199587
0.0199552
0.0199515
0.019948
0.0199447
0.0199416
0.0199389
0.0199363
0.019934
0.0199319
0.0199302
0.0199288
0.0199278
0.0199272
0.0199268
0.0199267
0.0199454
0.0199455
0.0199459
0.0199465
0.0199476
0.019949
0.0199508
0.0199527
0.0199548
0.0199568
0.0199586
0.0199602
0.0199615
0.0199624
0.0199626
0.0199615
0.0199589
0.0199553
0.0199517
0.0199481
0.0199448
0.0199418
0.019939
0.0199365
0.0199341
0.019932
0.0199303
0.0199289
0.0199279
0.0199272
0.0199269
0.0199267
0.0199454
0.0199456
0.019946
0.0199467
0.0199478
0.0199493
0.0199511
0.0199531
0.0199552
0.0199571
0.019959
0.0199606
0.0199619
0.0199628
0.0199631
0.019962
0.0199594
0.0199558
0.0199521
0.0199485
0.0199452
0.0199421
0.0199393
0.0199368
0.0199344
0.0199323
0.0199305
0.0199291
0.019928
0.0199273
0.0199269
0.0199268
0.0199455
0.0199457
0.0199461
0.0199469
0.0199481
0.0199497
0.0199515
0.0199536
0.0199557
0.0199576
0.0199594
0.0199611
0.0199625
0.0199636
0.0199639
0.019963
0.0199603
0.0199565
0.0199527
0.0199491
0.0199457
0.0199426
0.0199398
0.0199372
0.0199348
0.0199326
0.0199308
0.0199293
0.0199282
0.0199274
0.019927
0.0199269
0.0199457
0.0199459
0.0199464
0.0199472
0.0199485
0.0199501
0.0199521
0.0199542
0.0199562
0.0199582
0.01996
0.0199617
0.0199633
0.0199647
0.0199654
0.0199646
0.0199618
0.0199578
0.0199537
0.01995
0.0199465
0.0199433
0.0199404
0.0199377
0.0199353
0.019933
0.0199311
0.0199295
0.0199284
0.0199276
0.0199272
0.019927
0.0199459
0.0199461
0.0199466
0.0199475
0.0199489
0.0199506
0.0199526
0.0199547
0.0199567
0.0199587
0.0199606
0.0199625
0.0199644
0.0199662
0.0199673
0.0199668
0.0199639
0.0199595
0.0199552
0.0199512
0.0199475
0.0199442
0.0199411
0.0199383
0.0199358
0.0199335
0.0199314
0.0199298
0.0199286
0.0199278
0.0199273
0.0199271
0.0199461
0.0199463
0.0199468
0.0199478
0.0199492
0.0199509
0.0199529
0.019955
0.019957
0.019959
0.019961
0.0199631
0.0199655
0.0199679
0.0199698
0.0199698
0.0199667
0.0199619
0.0199571
0.0199527
0.0199487
0.0199452
0.0199419
0.019939
0.0199362
0.0199338
0.0199317
0.01993
0.0199288
0.0199279
0.0199275
0.0199273
0.0199462
0.0199465
0.019947
0.0199479
0.0199493
0.019951
0.019953
0.019955
0.019957
0.019959
0.0199611
0.0199635
0.0199664
0.0199697
0.0199726
0.0199733
0.0199701
0.0199648
0.0199595
0.0199546
0.0199502
0.0199463
0.0199427
0.0199395
0.0199366
0.0199341
0.0199319
0.0199302
0.0199289
0.0199281
0.0199276
0.0199274
0.0199463
0.0199465
0.019947
0.0199479
0.0199492
0.0199508
0.0199527
0.0199546
0.0199565
0.0199585
0.0199607
0.0199634
0.0199669
0.0199712
0.0199754
0.019977
0.0199739
0.0199681
0.0199622
0.0199567
0.0199518
0.0199474
0.0199435
0.01994
0.0199369
0.0199342
0.019932
0.0199303
0.019929
0.0199282
0.0199277
0.0199275
0.0199461
0.0199463
0.0199468
0.0199476
0.0199488
0.0199503
0.0199519
0.0199536
0.0199554
0.0199572
0.0199593
0.0199622
0.0199664
0.019972
0.019978
0.0199808
0.0199778
0.0199715
0.0199649
0.0199588
0.0199534
0.0199485
0.0199442
0.0199404
0.0199371
0.0199343
0.019932
0.0199302
0.019929
0.0199282
0.0199277
0.0199276
0.0199457
0.0199459
0.0199464
0.0199471
0.019948
0.0199493
0.0199506
0.019952
0.0199534
0.019955
0.019957
0.0199601
0.019965
0.0199724
0.0199804
0.0199845
0.0199814
0.0199745
0.0199673
0.0199606
0.0199546
0.0199493
0.0199446
0.0199405
0.019937
0.0199342
0.0199319
0.0199301
0.0199289
0.0199281
0.0199277
0.0199275
0.019945
0.0199451
0.0199455
0.0199461
0.0199469
0.0199478
0.0199488
0.0199498
0.0199508
0.019952
0.0199538
0.0199571
0.0199633
0.0199729
0.0199834
0.0199884
0.0199848
0.0199768
0.0199686
0.0199613
0.0199549
0.0199493
0.0199445
0.0199403
0.0199367
0.0199338
0.0199316
0.0199299
0.0199288
0.019928
0.0199276
0.0199274
0.0199436
0.0199438
0.0199441
0.0199446
0.0199452
0.0199459
0.0199465
0.0199471
0.0199476
0.0199485
0.0199503
0.0199545
0.0199628
0.0199755
0.0199881
0.0199931
0.0199876
0.0199777
0.0199683
0.0199603
0.0199536
0.019948
0.0199432
0.0199392
0.0199358
0.0199332
0.0199311
0.0199295
0.0199284
0.0199277
0.0199273
0.0199272
0.0199417
0.0199418
0.0199419
0.0199422
0.0199426
0.019943
0.0199434
0.0199438
0.0199443
0.0199454
0.0199484
0.0199549
0.0199667
0.0199826
0.0199961
0.0199987
0.0199895
0.0199766
0.0199655
0.0199567
0.01995
0.0199446
0.0199403
0.0199369
0.0199341
0.0199318
0.0199301
0.0199287
0.0199278
0.0199272
0.0199268
0.0199266
0.0199445
0.0199442
0.0199435
0.0199427
0.0199419
0.0199414
0.0199414
0.019942
0.0199436
0.019947
0.0199534
0.0199644
0.0199803
0.0199975
0.0200079
0.0200043
0.0199894
0.019973
0.0199601
0.0199507
0.0199439
0.0199389
0.0199353
0.0199328
0.0199309
0.0199295
0.0199284
0.0199275
0.0199267
0.0199262
0.0199258
0.0199257
0.0199709
0.0199702
0.0199689
0.0199671
0.019965
0.0199633
0.0199625
0.0199633
0.0199663
0.0199722
0.0199816
0.0199946
0.0200094
0.0200205
0.0200211
0.020008
0.0199877
0.0199696
0.019956
0.0199461
0.0199387
0.0199334
0.0199297
0.0199274
0.019926
0.0199251
0.0199244
0.0199238
0.0199235
0.0199235
0.0199235
0.0199236
0.0200204
0.0200201
0.0200194
0.0200184
0.0200171
0.020016
0.0200155
0.0200162
0.0200188
0.0200233
0.0200297
0.0200366
0.0200412
0.0200396
0.0200297
0.0200132
0.0199971
0.0199853
0.0199764
0.019968
0.0199594
0.0199509
0.0199429
0.0199364
0.0199317
0.0199293
0.0199291
0.0199307
0.0199335
0.0199365
0.0199389
0.0199402
0.0200568
0.0200569
0.0200569
0.0200569
0.0200568
0.0200566
0.0200565
0.0200567
0.0200573
0.0200583
0.0200595
0.02006
0.0200589
0.0200563
0.0200536
0.0200534
0.020058
0.0200665
0.0200751
0.0200813
0.0200844
0.0200844
0.0200815
0.0200767
0.0200711
0.0200657
0.0200616
0.0200592
0.0200586
0.0200592
0.0200603
0.0200611
0.0200753
0.0200754
0.0200756
0.0200757
0.0200759
0.020076
0.0200761
0.0200764
0.0200769
0.0200779
0.0200797
0.0200825
0.0200868
0.020094
0.0201059
0.0201257
0.0201547
0.0201886
0.0202209
0.0202488
0.0202707
0.0202868
0.0202972
0.0203021
0.020302
0.0202978
0.0202902
0.0202807
0.0202708
0.0202626
0.0202573
0.020255
0.0200861
0.0200862
0.0200864
0.0200866
0.0200871
0.0200877
0.0200887
0.0200902
0.0200925
0.0200958
0.0201006
0.0201076
0.0201177
0.0201326
0.0201544
0.0201864
0.0202288
0.0202745
0.0203154
0.020349
0.0203752
0.020395
0.0204098
0.0204199
0.0204258
0.0204273
0.0204247
0.0204186
0.0204103
0.0204019
0.0203954
0.0203922
0.0200945
0.0200945
0.0200947
0.0200951
0.0200958
0.0200971
0.0200992
0.0201022
0.0201063
0.0201119
0.0201193
0.0201292
0.0201425
0.0201609
0.0201864
0.020222
0.0202668
0.020312
0.0203492
0.020377
0.0203971
0.0204122
0.0204241
0.0204341
0.0204424
0.0204487
0.0204527
0.0204541
0.0204532
0.0204507
0.0204479
0.0204462
0.0201026
0.0201026
0.0201027
0.0201031
0.020104
0.0201058
0.0201088
0.020113
0.0201187
0.0201261
0.0201354
0.0201468
0.0201614
0.0201802
0.0202054
0.0202392
0.0202806
0.0203207
0.0203521
0.0203746
0.0203905
0.0204032
0.0204146
0.0204256
0.0204362
0.0204457
0.0204533
0.0204586
0.0204614
0.0204623
0.020462
0.0204615
0.0201118
0.0201117
0.0201116
0.0201119
0.0201129
0.0201151
0.0201187
0.020124
0.0201311
0.02014
0.0201507
0.0201632
0.020178
0.020196
0.0202189
0.0202486
0.0202843
0.0203186
0.0203455
0.0203651
0.0203797
0.0203922
0.0204044
0.0204169
0.0204297
0.0204419
0.0204523
0.0204601
0.020465
0.0204674
0.020468
0.020468
0.0201236
0.0201233
0.0201229
0.0201229
0.0201239
0.0201263
0.0201307
0.0201371
0.0201456
0.020156
0.020168
0.0201814
0.0201963
0.0202132
0.0202333
0.0202585
0.0202882
0.020317
0.0203404
0.0203585
0.020373
0.0203858
0.0203985
0.0204117
0.0204255
0.0204391
0.0204514
0.0204612
0.0204678
0.0204714
0.0204728
0.0204729
0.0201394
0.0201387
0.0201378
0.0201375
0.0201385
0.0201414
0.0201467
0.0201545
0.0201646
0.0201765
0.0201898
0.020204
0.020219
0.020235
0.0202527
0.0202736
0.0202979
0.0203218
0.0203422
0.0203589
0.020373
0.0203858
0.0203983
0.0204113
0.0204249
0.0204386
0.0204516
0.0204625
0.0204705
0.0204751
0.020477
0.0204774
0.0201603
0.0201592
0.0201578
0.0201573
0.0201586
0.0201624
0.0201691
0.0201785
0.0201902
0.0202036
0.0202179
0.0202327
0.0202476
0.0202626
0.0202783
0.0202958
0.0203153
0.0203348
0.0203521
0.020367
0.02038
0.0203919
0.0204036
0.0204155
0.020428
0.0204409
0.0204534
0.0204645
0.0204731
0.0204785
0.020481
0.0204815
0.0201875
0.0201859
0.0201843
0.020184
0.0201863
0.0201916
0.0202
0.020211
0.0202241
0.0202383
0.020253
0.0202676
0.0202819
0.0202958
0.0203096
0.020324
0.0203396
0.0203551
0.0203692
0.0203818
0.020393
0.0204034
0.0204135
0.0204238
0.0204345
0.0204457
0.0204569
0.0204674
0.0204759
0.0204817
0.0204846
0.0204853
0.020222
0.02022
0.0202186
0.0202196
0.0202236
0.0202308
0.0202408
0.0202529
0.0202662
0.0202802
0.0202942
0.0203079
0.0203208
0.0203331
0.0203447
0.0203564
0.0203685
0.0203804
0.0203913
0.0204013
0.0204103
0.0204188
0.0204269
0.0204352
0.0204438
0.0204528
0.0204621
0.0204712
0.0204791
0.0204848
0.0204879
0.0204887
0.0202646
0.0202627
0.0202627
0.0202658
0.020272
0.0202806
0.0202912
0.020303
0.0203153
0.0203278
0.02034
0.0203515
0.0203624
0.0203724
0.0203816
0.0203906
0.0203995
0.0204082
0.0204162
0.0204235
0.0204303
0.0204366
0.0204427
0.0204488
0.0204551
0.0204618
0.0204689
0.0204761
0.0204827
0.0204878
0.0204908
0.0204918
0.0203166
0.0203158
0.0203184
0.0203238
0.020331
0.0203396
0.020349
0.0203588
0.0203687
0.0203784
0.0203876
0.0203963
0.0204043
0.0204116
0.0204182
0.0204245
0.0204306
0.0204363
0.0204416
0.0204466
0.0204511
0.0204554
0.0204595
0.0204636
0.0204678
0.0204722
0.020477
0.020482
0.0204868
0.0204909
0.0204935
0.0204945
0.0203802
0.0203817
0.0203862
0.0203917
0.0203977
0.0204039
0.0204104
0.0204168
0.020423
0.020429
0.0204347
0.0204399
0.0204447
0.0204491
0.020453
0.0204566
0.0204601
0.0204633
0.0204663
0.0204691
0.0204716
0.020474
0.0204763
0.0204786
0.0204809
0.0204833
0.020486
0.0204888
0.0204917
0.0204942
0.0204961
0.0204968
0.0204579
0.0204591
0.0204614
0.0204637
0.020466
0.0204683
0.0204706
0.0204728
0.0204749
0.0204769
0.0204788
0.0204806
0.0204821
0.0204836
0.0204848
0.020486
0.0204871
0.0204881
0.0204891
0.02049
0.0204908
0.0204915
0.0204922
0.020493
0.0204937
0.0204944
0.0204953
0.0204961
0.0204971
0.0204979
0.0204986
0.0204989
)
;

boundaryField
{
    movingWall
    {
        type            fixedValue;
        value           uniform 0.0205;
    }
    fixedWalls
    {
        type            zeroGradient;
    }
    floor
    {
        type            zeroGradient;
    }
    frontAndBack
    {
        type            empty;
    }
}


// ************************************************************************* //
