/*--------------------------------*- C++ -*----------------------------------*\
| =========                 |                                                 |
| \\      /  F ield         | OpenFOAM: The Open Source CFD Toolbox           |
|  \\    /   O peration     | Version:  2212                                  |
|   \\  /    A nd           | Website:  www.openfoam.com                      |
|    \\/     M anipulation  |                                                 |
\*---------------------------------------------------------------------------*/
FoamFile
{
    version     2.0;
    format      ascii;
    arch        "LSB;label=64;scalar=64";
    class       volScalarField;
    location    "1030";
    object      Gch4;
}
// * * * * * * * * * * * * * * * * * * * * * * * * * * * * * * * * * * * * * //

dimensions      [1 -3 0 0 0 0 0];

internalField   nonuniform List<scalar> 
1024
(
1.92098
1.92078
1.92031
1.91946
1.91815
1.91632
1.914
1.91129
1.90837
1.90546
1.90283
1.90073
1.89933
1.89875
1.8991
1.90055
1.90313
1.90643
1.91002
1.91381
1.91778
1.92191
1.92609
1.93013
1.93378
1.93688
1.93932
1.94113
1.94237
1.94314
1.94357
1.94375
1.92094
1.92074
1.92026
1.91938
1.91804
1.91617
1.91381
1.91106
1.90811
1.90517
1.90251
1.9004
1.899
1.89844
1.89881
1.90028
1.90287
1.90618
1.90978
1.91356
1.91753
1.92166
1.92585
1.9299
1.93359
1.93672
1.9392
1.94104
1.9423
1.94309
1.94352
1.9437
1.92086
1.92065
1.92014
1.91923
1.91783
1.91589
1.91344
1.9106
1.90755
1.9045
1.90173
1.89957
1.89819
1.89767
1.89811
1.89965
1.90232
1.90567
1.90928
1.91307
1.91702
1.92114
1.92533
1.92942
1.93316
1.93637
1.93893
1.94083
1.94214
1.94296
1.94341
1.9436
1.92072
1.9205
1.91997
1.91901
1.91753
1.91549
1.91291
1.9099
1.90664
1.90335
1.90035
1.89807
1.8967
1.89628
1.89687
1.89859
1.90141
1.90487
1.90854
1.91234
1.91627
1.92036
1.92454
1.92866
1.93249
1.93581
1.93849
1.94049
1.94187
1.94274
1.94322
1.94341
1.92052
1.9203
1.91974
1.91873
1.91717
1.91499
1.91223
1.90896
1.90535
1.90162
1.89821
1.8957
1.89431
1.89406
1.89494
1.89698
1.90012
1.90381
1.9076
1.91144
1.91535
1.9194
1.92355
1.92769
1.9316
1.93505
1.93787
1.94001
1.94149
1.94243
1.94294
1.94315
1.92027
1.92004
1.91946
1.91841
1.91676
1.91443
1.91142
1.90778
1.90364
1.89926
1.89522
1.89232
1.89088
1.89087
1.89218
1.89477
1.89844
1.90252
1.90653
1.91047
1.91439
1.91838
1.92248
1.92661
1.93059
1.93416
1.93714
1.93942
1.94102
1.94203
1.94258
1.9428
1.91995
1.91972
1.91913
1.91805
1.91631
1.91382
1.9105
1.90636
1.9015
1.89625
1.89138
1.88793
1.88637
1.88665
1.88857
1.89195
1.89642
1.90111
1.90549
1.9096
1.91355
1.91749
1.92151
1.9256
1.9296
1.93327
1.93637
1.93879
1.94049
1.94158
1.94217
1.94241
1.91955
1.91932
1.91873
1.91762
1.91581
1.91313
1.90945
1.9047
1.89896
1.89264
1.88676
1.88262
1.88088
1.88153
1.88422
1.88865
1.89422
1.89977
1.90468
1.90905
1.91308
1.91697
1.9209
1.9249
1.92886
1.93255
1.93573
1.93823
1.94001
1.94114
1.94177
1.94202
1.91899
1.91877
1.91819
1.91707
1.91519
1.91231
1.90822
1.90276
1.89598
1.88844
1.88143
1.87653
1.87464
1.87575
1.87941
1.88517
1.89216
1.89883
1.90443
1.90913
1.91325
1.91709
1.9209
1.92476
1.92861
1.93224
1.93539
1.93788
1.93967
1.94082
1.94145
1.94171
1.91815
1.91794
1.91737
1.91623
1.91428
1.91118
1.90662
1.90035
1.89241
1.88354
1.87539
1.86982
1.86791
1.86967
1.87452
1.88189
1.89066
1.89872
1.90513
1.91022
1.91442
1.91817
1.92179
1.92544
1.92908
1.93252
1.93552
1.9379
1.93962
1.94073
1.94135
1.9416
1.91673
1.91653
1.91597
1.91481
1.91274
1.90936
1.90425
1.89705
1.88785
1.87765
1.86848
1.86249
1.86085
1.86351
1.86981
1.87911
1.89003
1.8998
1.90718
1.91268
1.91693
1.92051
1.92386
1.92719
1.93048
1.93359
1.93629
1.93844
1.93999
1.94101
1.94159
1.94183
1.91427
1.91407
1.91348
1.91224
1.90997
1.90619
1.90035
1.89209
1.88162
1.87028
1.86045
1.85444
1.85342
1.85721
1.8651
1.87655
1.89002
1.90195
1.9106
1.91663
1.92095
1.92431
1.92728
1.93015
1.93294
1.93555
1.93781
1.93961
1.94093
1.94182
1.94234
1.94257
1.91006
1.90985
1.9092
1.90778
1.90516
1.90076
1.89401
1.8846
1.87301
1.86096
1.85102
1.8455
1.84533
1.85017
1.85942
1.87285
1.88901
1.90366
1.91426
1.92136
1.92607
1.92938
1.93199
1.93431
1.93647
1.93846
1.94017
1.94155
1.94259
1.9433
1.94372
1.94391
1.90346
1.9032
1.90242
1.90072
1.89758
1.89239
1.88459
1.87409
1.86174
1.84956
1.84013
1.83539
1.83585
1.84102
1.85059
1.86489
1.88294
1.90041
1.91393
1.92342
1.92978
1.93403
1.93696
1.93913
1.94084
1.94223
1.94332
1.94409
1.94457
1.9448
1.94487
1.94488
1.89422
1.89389
1.89292
1.89084
1.88708
1.881
1.87221
1.86091
1.84832
1.83661
1.82802
1.82379
1.82386
1.82766
1.83523
1.84749
1.86442
1.88265
1.89862
1.91156
1.92146
1.92891
1.93433
1.93803
1.94026
1.9413
1.9414
1.94082
1.93986
1.93883
1.93802
1.93758
1.88301
1.8826
1.88141
1.87893
1.87456
1.86775
1.85832
1.8468
1.83462
1.82374
1.81574
1.81106
1.80911
1.80924
1.81146
1.81669
1.82579
1.83755
1.84951
1.86063
1.87043
1.87902
1.88633
1.89223
1.89651
1.89925
1.9005
1.90048
1.8996
1.89839
1.89732
1.89673
1.87355
1.87313
1.87192
1.86943
1.86514
1.85858
1.84969
1.83896
1.82758
1.81709
1.80873
1.80275
1.7984
1.79462
1.79066
1.78631
1.78228
1.77969
1.7785
1.77831
1.77903
1.78072
1.78339
1.78695
1.79117
1.79582
1.8004
1.80437
1.80734
1.80916
1.81002
1.81027
1.86774
1.86734
1.86624
1.86402
1.86022
1.85446
1.84666
1.83721
1.82705
1.81745
1.80952
1.80363
1.79925
1.79519
1.79012
1.78272
1.77263
1.76156
1.75114
1.74176
1.73368
1.72719
1.72258
1.72005
1.71968
1.72128
1.72438
1.72829
1.73219
1.73534
1.73735
1.73821
1.86469
1.86432
1.86334
1.86142
1.85819
1.85329
1.84664
1.8385
1.82961
1.82103
1.8138
1.8085
1.80492
1.80214
1.79874
1.79298
1.78362
1.77175
1.75949
1.74766
1.73661
1.7266
1.71787
1.71072
1.70543
1.70212
1.70073
1.70093
1.70215
1.70371
1.705
1.70567
1.86334
1.86301
1.86214
1.8605
1.85777
1.85368
1.84809
1.84119
1.83352
1.82596
1.81945
1.81464
1.8116
1.80971
1.80775
1.80401
1.7969
1.78671
1.77511
1.76289
1.75048
1.73822
1.72655
1.71605
1.70729
1.70063
1.69616
1.69369
1.69276
1.69281
1.69324
1.69356
1.86305
1.86274
1.86198
1.86057
1.85827
1.85486
1.85022
1.84444
1.83792
1.83136
1.82552
1.82103
1.81806
1.81623
1.81456
1.8116
1.80586
1.79726
1.78691
1.77531
1.76271
1.74937
1.73578
1.72271
1.71108
1.70161
1.69469
1.69026
1.68793
1.68708
1.68703
1.68718
1.86322
1.86296
1.86232
1.86114
1.85923
1.8564
1.85257
1.84777
1.8423
1.83665
1.83138
1.827
1.82365
1.82109
1.8186
1.81505
1.80937
1.80154
1.79222
1.78157
1.76961
1.75644
1.74238
1.72815
1.71474
1.70314
1.69411
1.6879
1.68427
1.68263
1.68221
1.68226
1.86307
1.86291
1.86249
1.86162
1.86014
1.85787
1.85474
1.85078
1.84615
1.84118
1.83622
1.83156
1.82735
1.82341
1.81927
1.8142
1.80767
1.79993
1.79128
1.78158
1.77065
1.7584
1.74498
1.73089
1.71697
1.70425
1.69374
1.68604
1.68121
1.67878
1.67798
1.67793
1.86147
1.86151
1.86146
1.8611
1.86021
1.85857
1.85609
1.85274
1.84861
1.84386
1.83866
1.83321
1.82762
1.82185
1.81571
1.80878
1.80111
1.79318
1.78505
1.7763
1.76658
1.75564
1.74349
1.73044
1.71708
1.70429
1.6931
1.68438
1.67854
1.67537
1.67418
1.67402
1.85704
1.8574
1.85792
1.8583
1.85818
1.85723
1.85526
1.8522
1.84804
1.84286
1.8368
1.83005
1.82279
1.81516
1.80717
1.79868
1.79009
1.78207
1.7745
1.76676
1.75837
1.74899
1.73848
1.72699
1.7149
1.70288
1.69182
1.68267
1.67613
1.67232
1.67074
1.67047
1.84852
1.84928
1.85049
1.85168
1.8523
1.85189
1.85011
1.84682
1.84205
1.83591
1.82861
1.82045
1.81173
1.8027
1.79351
1.78416
1.77526
1.7675
1.76064
1.75398
1.74697
1.73924
1.73057
1.72095
1.71058
1.69992
1.68966
1.68069
1.67386
1.66959
1.66766
1.66724
1.83504
1.83622
1.83798
1.83964
1.84054
1.84012
1.83799
1.83404
1.82835
1.82118
1.81287
1.80379
1.79434
1.78479
1.77533
1.76604
1.75753
1.75045
1.74449
1.73896
1.73332
1.7272
1.72038
1.71274
1.70435
1.69544
1.68649
1.67826
1.67159
1.66711
1.66489
1.66434
1.8162
1.81766
1.81945
1.82076
1.82105
1.8199
1.81698
1.81228
1.80597
1.79836
1.78983
1.78081
1.77165
1.76262
1.75387
1.74549
1.73801
1.73197
1.72706
1.72267
1.71832
1.71371
1.7086
1.70287
1.69649
1.68953
1.68227
1.67522
1.66915
1.66479
1.66243
1.66175
1.7918
1.79318
1.79409
1.79402
1.79292
1.79065
1.78705
1.78212
1.77599
1.76893
1.76127
1.75337
1.7455
1.73788
1.73063
1.72379
1.71779
1.71305
1.70928
1.706
1.70285
1.69956
1.69597
1.69194
1.68742
1.68241
1.677
1.67149
1.66644
1.66253
1.66023
1.65947
1.76143
1.76208
1.76121
1.75935
1.75695
1.75403
1.75046
1.74617
1.74118
1.73564
1.72977
1.72381
1.71796
1.71235
1.70707
1.70214
1.69788
1.69454
1.69193
1.6897
1.68761
1.68546
1.68315
1.68057
1.67767
1.67441
1.67082
1.66701
1.66331
1.66022
1.65824
1.65749
1.72407
1.72328
1.72095
1.71844
1.71598
1.71353
1.71094
1.70809
1.70494
1.70152
1.69796
1.69436
1.69086
1.68752
1.6844
1.68151
1.67902
1.67708
1.67559
1.67432
1.67315
1.67198
1.67072
1.66932
1.66776
1.666
1.66403
1.66189
1.6597
1.65775
1.65637
1.65577
1.67829
1.67762
1.67634
1.67519
1.67416
1.6732
1.67227
1.67128
1.67022
1.66909
1.66792
1.66674
1.66559
1.6645
1.66349
1.66255
1.66174
1.66112
1.66064
1.66024
1.65987
1.6595
1.6591
1.65867
1.65819
1.65765
1.65704
1.65637
1.65567
1.65502
1.65452
1.65428
)
;

boundaryField
{
    movingWall
    {
        type            fixedValue;
        value           uniform 1.6535;
    }
    fixedWalls
    {
        type            zeroGradient;
    }
    floor
    {
        type            zeroGradient;
    }
    frontAndBack
    {
        type            empty;
    }
}


// ************************************************************************* //
