/*--------------------------------*- C++ -*----------------------------------*\
| =========                 |                                                 |
| \\      /  F ield         | OpenFOAM: The Open Source CFD Toolbox           |
|  \\    /   O peration     | Version:  2212                                  |
|   \\  /    A nd           | Website:  www.openfoam.com                      |
|    \\/     M anipulation  |                                                 |
\*---------------------------------------------------------------------------*/
FoamFile
{
    version     2.0;
    format      ascii;
    arch        "LSB;label=64;scalar=64";
    class       volScalarField;
    location    "1030";
    object      Gco2;
}
// * * * * * * * * * * * * * * * * * * * * * * * * * * * * * * * * * * * * * //

dimensions      [1 -3 0 0 0 0 0];

internalField   nonuniform List<scalar> 
1024
(
0.0568572
0.0568263
0.056751
0.0566158
0.0564069
0.0561162
0.0557469
0.0553155
0.0548503
0.054387
0.0539666
0.0536313
0.0534076
0.0533134
0.0533681
0.0535962
0.0540043
0.0545271
0.0550965
0.055698
0.0563285
0.0569838
0.0576472
0.058287
0.0588664
0.0593565
0.0597436
0.0600292
0.0602252
0.0603483
0.060416
0.0604436
0.0568515
0.0568198
0.0567425
0.0566038
0.0563898
0.0560928
0.0557169
0.0552793
0.0548086
0.0543401
0.0539153
0.0535786
0.0533558
0.0532638
0.0533214
0.0535525
0.0539634
0.0544881
0.0550582
0.0556595
0.0562893
0.0569442
0.0576084
0.0582512
0.0588355
0.0593315
0.0597245
0.060015
0.0602144
0.0603397
0.0604085
0.0604366
0.0568381
0.0568051
0.0567244
0.0565795
0.0563562
0.0560473
0.0556579
0.0552058
0.054719
0.0542327
0.0537914
0.0534473
0.0532262
0.0531417
0.0532098
0.0534526
0.053874
0.0544056
0.054979
0.0555804
0.0562083
0.0568612
0.0575261
0.058174
0.0587678
0.059276
0.0596813
0.0599822
0.0601893
0.0603195
0.0603908
0.0604199
0.056816
0.0567815
0.0566967
0.056544
0.0563086
0.0559832
0.0555727
0.0550943
0.0545745
0.054049
0.0535705
0.053207
0.0529871
0.0529186
0.0530111
0.0532817
0.0537286
0.054278
0.0548603
0.0554637
0.0560887
0.0567375
0.0574012
0.0580546
0.0586611
0.0591869
0.0596108
0.0599279
0.0601471
0.0602849
0.0603605
0.0603911
0.0567848
0.056749
0.0566602
0.0564996
0.0562507
0.0559045
0.0554643
0.0549442
0.0543681
0.0537739
0.0532292
0.0528277
0.0526057
0.052564
0.0527009
0.0530245
0.0535215
0.0541068
0.054709
0.0553192
0.0559417
0.0565839
0.0572432
0.0579001
0.05852
0.0590665
0.0595136
0.0598517
0.0600868
0.060235
0.0603161
0.060349
0.0567445
0.0567078
0.0566161
0.0564485
0.0561857
0.0558153
0.0553356
0.0547554
0.054095
0.053397
0.0527526
0.052289
0.0520574
0.0520532
0.0522592
0.052669
0.0532508
0.053899
0.0545379
0.0551638
0.0557869
0.0564211
0.0570722
0.0577283
0.0583585
0.058925
0.0593966
0.0597579
0.0600112
0.0601714
0.060259
0.0602943
0.0566941
0.0566572
0.0565639
0.0563908
0.0561148
0.0557172
0.0551883
0.0545286
0.0537544
0.0529171
0.0521396
0.0515873
0.0513354
0.051378
0.0516799
0.0522149
0.0529246
0.0536704
0.0543687
0.055023
0.0556521
0.0562786
0.0569181
0.0575676
0.0582018
0.0587829
0.0592752
0.0596576
0.0599282
0.0600999
0.0601938
0.0602314
0.0566298
0.0565934
0.0564998
0.0563232
0.0560349
0.0556079
0.055021
0.0542639
0.0533486
0.0523404
0.051401
0.0507374
0.0504567
0.050556
0.050981
0.0516829
0.0525687
0.0534521
0.0542353
0.0549323
0.0555739
0.0561939
0.0568186
0.0574548
0.0580838
0.0586694
0.0591729
0.0595688
0.0598511
0.0600311
0.0601296
0.0601691
0.0565414
0.0565061
0.0564136
0.0562349
0.0559352
0.0554768
0.0548243
0.0539537
0.0528735
0.0516695
0.0505494
0.0497648
0.0494576
0.0496294
0.0502074
0.0511196
0.0522326
0.0532955
0.0541885
0.0549402
0.0555983
0.056211
0.0568164
0.0574312
0.0580429
0.0586183
0.059118
0.059514
0.059798
0.05998
0.06008
0.0601204
0.0564066
0.056373
0.0562821
0.0561016
0.0557897
0.0552965
0.0545699
0.0535702
0.052304
0.050888
0.0495836
0.0486901
0.0483785
0.0486515
0.0494181
0.0505874
0.0519827
0.0532686
0.0542936
0.0551068
0.0557797
0.0563791
0.0569566
0.057538
0.0581167
0.0586628
0.0591387
0.059517
0.0597894
0.0599652
0.0600629
0.060103
0.0561814
0.0561493
0.0560593
0.0558743
0.0555446
0.0550071
0.0541917
0.0530434
0.0515751
0.049947
0.0484799
0.0475165
0.047245
0.0476598
0.0486543
0.0501301
0.0518697
0.0534301
0.0546118
0.0554917
0.0561733
0.0567476
0.0572824
0.0578126
0.0583373
0.0588306
0.0592595
0.0596004
0.0598472
0.0600085
0.0601003
0.0601392
0.0557885
0.0557567
0.0556637
0.0554661
0.0551041
0.0545008
0.0535711
0.0522531
0.0505817
0.0487701
0.0471953
0.0462276
0.0460521
0.0466438
0.0478904
0.0497091
0.0518557
0.0537623
0.0551482
0.0561153
0.0568084
0.0573483
0.0578235
0.0582807
0.0587261
0.0591409
0.0594998
0.0597857
0.0599955
0.0601361
0.0602189
0.0602554
0.0551197
0.0550852
0.0549813
0.0547562
0.0543379
0.0536368
0.0525603
0.0510585
0.0492088
0.047281
0.0456873
0.0447935
0.0447511
0.0455084
0.0469698
0.0491043
0.0516806
0.054023
0.0557225
0.0568611
0.0576186
0.0581502
0.0585687
0.0589397
0.0592853
0.059601
0.0598735
0.0600931
0.0602571
0.0603691
0.060436
0.0604657
0.0540691
0.0540277
0.0539027
0.0536318
0.0531312
0.0523027
0.0510594
0.0493835
0.0474105
0.0454607
0.0439447
0.0431736
0.0432292
0.0440368
0.0455477
0.0478189
0.0506977
0.0534909
0.0556568
0.0571804
0.0582015
0.0588841
0.0593553
0.0597024
0.0599761
0.0601972
0.0603698
0.0604924
0.0605671
0.060603
0.0606141
0.0606146
0.0525984
0.0525467
0.0523918
0.0520603
0.051459
0.05049
0.0490873
0.0472821
0.0452687
0.0433918
0.0420083
0.0413173
0.0413085
0.0418948
0.0430854
0.0450285
0.0477239
0.050637
0.0531943
0.0552684
0.056856
0.058051
0.0589215
0.059514
0.0598711
0.0600369
0.0600515
0.0599575
0.0598029
0.0596378
0.0595059
0.0594351
0.050815
0.0507502
0.0505607
0.0501649
0.0494667
0.04838
0.0468746
0.0450342
0.0430847
0.0413395
0.0400497
0.0392854
0.0389554
0.0389533
0.0392858
0.0400985
0.0415345
0.0434056
0.0453149
0.0470923
0.0486614
0.0500374
0.0512107
0.0521568
0.0528432
0.0532829
0.0534834
0.0534803
0.0533392
0.0531443
0.0529734
0.0528778
0.0493129
0.0492451
0.0490518
0.0486555
0.0479698
0.0469241
0.045504
0.0437907
0.0419708
0.0402905
0.0389459
0.0379773
0.0372656
0.0366396
0.0359794
0.0352525
0.034576
0.0341356
0.0339253
0.0338807
0.0339866
0.0342505
0.0346731
0.0352432
0.0359204
0.0366672
0.0374032
0.0380433
0.0385211
0.0388148
0.0389535
0.0389936
0.048393
0.0483293
0.0481528
0.0477982
0.047192
0.0462739
0.04503
0.0435229
0.0419011
0.0403669
0.0390961
0.038149
0.0374374
0.0367734
0.0359388
0.0347224
0.0330687
0.0312562
0.0295535
0.0280206
0.0267005
0.0256392
0.0248828
0.0244671
0.0244016
0.0246553
0.0251541
0.0257855
0.0264153
0.0269249
0.0272498
0.0273897
0.0479119
0.0478534
0.0476973
0.0473912
0.0468747
0.0460954
0.0450356
0.0437392
0.0423222
0.0409541
0.0398015
0.0389539
0.0383776
0.0379238
0.0373647
0.0364166
0.034881
0.0329389
0.0309337
0.0289975
0.0271904
0.0255507
0.0241203
0.022949
0.0220812
0.0215392
0.0213108
0.0213423
0.0215418
0.0217967
0.0220065
0.0221149
0.0477034
0.0476495
0.0475117
0.0472495
0.0468146
0.0461627
0.0452738
0.0441755
0.0429558
0.0417535
0.0407183
0.0399538
0.0394686
0.0391623
0.0388386
0.0382206
0.0370526
0.0353827
0.033483
0.0314843
0.0294532
0.0274449
0.0255323
0.0238112
0.0223743
0.0212829
0.0205514
0.0201466
0.0199969
0.0200067
0.0200769
0.0201307
0.0476611
0.0476121
0.0474906
0.0472655
0.0468996
0.046357
0.0456183
0.0446995
0.0436648
0.0426224
0.0416966
0.0409844
0.0405137
0.0402197
0.0399466
0.0394574
0.0385121
0.0371019
0.0354072
0.0335092
0.0314468
0.0292629
0.0270364
0.0248955
0.0229881
0.0214356
0.0203007
0.0195759
0.0191952
0.0190572
0.0190494
0.0190754
0.0476917
0.0476506
0.0475487
0.0473604
0.0470559
0.0466067
0.0459967
0.0452353
0.0443672
0.0434704
0.0426364
0.0419405
0.0414091
0.0409992
0.0405939
0.0400108
0.0390774
0.0377941
0.0362681
0.034525
0.0325688
0.0304135
0.0281127
0.0257816
0.0235829
0.0216821
0.0202007
0.0191819
0.0185873
0.0183192
0.0182508
0.0182599
0.0476688
0.0476443
0.0475764
0.0474391
0.0472034
0.0468438
0.0463466
0.045717
0.0449831
0.0441937
0.0434055
0.0426654
0.0419917
0.0413579
0.0406875
0.0398584
0.0387898
0.0375223
0.036108
0.0345214
0.0327336
0.0307293
0.0285333
0.0262268
0.023945
0.0218598
0.0201352
0.0188718
0.018079
0.0176816
0.0175512
0.0175444
0.0474079
0.0474156
0.0474089
0.0473543
0.0472135
0.0469547
0.04656
0.0460282
0.0453719
0.0446146
0.0437856
0.0429131
0.0420143
0.0410841
0.0400877
0.03896
0.0377063
0.0364099
0.0350814
0.0336515
0.0320621
0.0302732
0.0282852
0.0261482
0.0239592
0.0218624
0.0200261
0.0185951
0.0176366
0.017117
0.0169221
0.0168975
0.0466865
0.0467449
0.0468318
0.0468968
0.046881
0.0467332
0.0464212
0.0459323
0.0452674
0.0444378
0.043465
0.0423782
0.0412076
0.0399731
0.038676
0.0372943
0.0358945
0.0345863
0.03335
0.0320853
0.030714
0.0291797
0.0274613
0.0255794
0.0235985
0.0216281
0.0198139
0.0183121
0.0172383
0.0166132
0.0163542
0.0163094
0.045298
0.0454223
0.0456207
0.0458162
0.0459218
0.0458594
0.0455762
0.0450501
0.0442824
0.0432922
0.0421148
0.0407963
0.0393855
0.037922
0.0364294
0.0349099
0.0334599
0.0321951
0.0310763
0.029988
0.0288432
0.0275791
0.0261609
0.0245862
0.022888
0.0211397
0.0194568
0.017985
0.0168627
0.016161
0.0158434
0.0157763
0.0431015
0.043294
0.043582
0.0438539
0.0440042
0.0439402
0.0435983
0.0429604
0.0420418
0.0408815
0.0395351
0.0380656
0.0365327
0.0349835
0.0334486
0.0319382
0.0305531
0.0293991
0.0284278
0.027524
0.0266028
0.0256037
0.0244872
0.0232371
0.0218622
0.020402
0.0189349
0.0175829
0.0164866
0.0157503
0.0153864
0.0152962
0.0400305
0.0402696
0.0405621
0.0407761
0.0408264
0.0406413
0.0401704
0.0394094
0.0383862
0.0371515
0.0357693
0.0343059
0.0328193
0.0313524
0.0299327
0.0285697
0.0273527
0.0263689
0.0255696
0.0248525
0.0241431
0.0233891
0.0225538
0.0216158
0.0205698
0.0194298
0.0182384
0.0170819
0.0160849
0.0153664
0.014979
0.0148681
0.0360527
0.0362793
0.0364283
0.0364176
0.036239
0.0358713
0.0352874
0.0344868
0.0334917
0.0323454
0.0311029
0.0298197
0.0285426
0.0273048
0.0261268
0.0250152
0.0240399
0.0232668
0.0226535
0.0221186
0.0216033
0.0210666
0.0204788
0.01982
0.0190798
0.0182581
0.0173705
0.0164659
0.015636
0.0149933
0.0146151
0.0144908
0.0311017
0.0312075
0.0310669
0.0307649
0.030374
0.029899
0.0293189
0.0286214
0.0278107
0.0269109
0.0259578
0.0249896
0.0240386
0.0231275
0.0222699
0.0214697
0.0207754
0.0202316
0.0198068
0.0194438
0.0191017
0.0187518
0.0183732
0.0179511
0.017476
0.0169431
0.016354
0.0157287
0.0151199
0.0146119
0.0142848
0.0141622
0.0250094
0.0248817
0.0245013
0.0240923
0.0236927
0.023293
0.0228716
0.0224087
0.0218962
0.0213414
0.0207617
0.0201779
0.0196086
0.0190667
0.0185597
0.0180898
0.0176847
0.0173695
0.0171255
0.0169199
0.016729
0.0165366
0.0163305
0.0161022
0.015846
0.0155577
0.0152352
0.0148836
0.0145246
0.014203
0.0139753
0.0138778
0.0175442
0.0174338
0.0172266
0.0170382
0.0168705
0.016715
0.0165622
0.0164024
0.0162302
0.0160461
0.015855
0.0156633
0.015477
0.0153003
0.0151354
0.0149831
0.0148521
0.0147506
0.0146723
0.0146067
0.0145464
0.014486
0.0144218
0.014351
0.0142719
0.014183
0.0140834
0.0139739
0.0138593
0.0137519
0.0136694
0.0136294
)
;

boundaryField
{
    movingWall
    {
        type            fixedValue;
        value           uniform 0.0135;
    }
    fixedWalls
    {
        type            zeroGradient;
    }
    floor
    {
        type            zeroGradient;
    }
    frontAndBack
    {
        type            empty;
    }
}


// ************************************************************************* //
