/*--------------------------------*- C++ -*----------------------------------*\
| =========                 |                                                 |
| \\      /  F ield         | OpenFOAM: The Open Source CFD Toolbox           |
|  \\    /   O peration     | Version:  2212                                  |
|   \\  /    A nd           | Website:  www.openfoam.com                      |
|    \\/     M anipulation  |                                                 |
\*---------------------------------------------------------------------------*/
FoamFile
{
    version     2.0;
    format      ascii;
    arch        "LSB;label=64;scalar=64";
    class       volScalarField;
    location    "1030";
    object      p;
}
// * * * * * * * * * * * * * * * * * * * * * * * * * * * * * * * * * * * * * //

dimensions      [0 2 -2 0 0 0 0];

internalField   nonuniform List<scalar> 
1024
(
0
-3.67961e-06
-6.64769e-06
-5.54161e-06
1.85884e-06
1.78004e-05
4.546e-05
8.85221e-05
0.000147706
0.000210958
0.000254163
0.000243536
0.00017966
6.59903e-05
-8.013e-05
-0.000246004
-0.000403293
-0.00051622
-0.0005809
-0.000611227
-0.00062065
-0.000618906
-0.000612245
-0.000604398
-0.000597377
-0.000592023
-0.000588275
-0.000585514
-0.000583068
-0.000580719
-0.000578718
-0.00057774
-0.0928109
-0.0928148
-0.0928176
-0.0928169
-0.0928109
-0.0927972
-0.0927724
-0.0927325
-0.0926766
-0.0926168
-0.092576
-0.0925855
-0.092647
-0.0927585
-0.0929026
-0.0930667
-0.0932223
-0.0933339
-0.0933973
-0.0934267
-0.0934353
-0.0934329
-0.0934258
-0.0934176
-0.0934103
-0.0934046
-0.0934006
-0.0933976
-0.0933952
-0.093393
-0.0933912
-0.0933901
-0.199429
-0.199434
-0.199437
-0.199438
-0.199435
-0.199425
-0.199404
-0.199369
-0.199318
-0.199263
-0.199226
-0.199234
-0.199292
-0.1994
-0.199541
-0.199701
-0.199854
-0.199963
-0.200024
-0.200052
-0.200058
-0.200055
-0.200046
-0.200037
-0.200028
-0.200022
-0.200017
-0.200014
-0.200011
-0.200009
-0.200007
-0.200005
-0.321913
-0.321919
-0.321925
-0.321928
-0.321929
-0.321924
-0.321909
-0.32188
-0.321834
-0.321784
-0.321751
-0.321758
-0.321813
-0.321916
-0.322052
-0.322207
-0.322356
-0.322461
-0.322519
-0.322543
-0.322547
-0.32254
-0.322529
-0.322517
-0.322507
-0.322499
-0.322492
-0.322488
-0.322485
-0.322482
-0.322479
-0.322477
-0.462631
-0.462638
-0.462645
-0.462651
-0.462656
-0.462658
-0.462649
-0.462626
-0.462587
-0.462542
-0.462514
-0.46252
-0.462571
-0.462669
-0.462798
-0.462948
-0.46309
-0.463191
-0.463244
-0.463263
-0.463262
-0.463251
-0.463236
-0.463221
-0.463207
-0.463195
-0.463187
-0.463181
-0.463176
-0.463173
-0.463169
-0.463165
-0.624298
-0.624304
-0.624312
-0.624321
-0.624331
-0.624338
-0.624336
-0.624318
-0.624285
-0.624247
-0.624224
-0.624229
-0.624278
-0.62437
-0.624493
-0.624635
-0.624771
-0.624866
-0.624913
-0.624926
-0.624919
-0.624902
-0.624882
-0.624861
-0.624842
-0.624826
-0.624813
-0.624804
-0.624798
-0.624793
-0.624788
-0.624783
-0.810028
-0.810032
-0.81004
-0.810051
-0.810064
-0.810075
-0.810078
-0.810066
-0.810038
-0.810006
-0.809988
-0.809996
-0.810044
-0.81013
-0.810246
-0.810382
-0.810512
-0.810601
-0.810642
-0.810648
-0.810635
-0.810611
-0.810583
-0.810555
-0.810529
-0.810508
-0.81049
-0.810477
-0.810468
-0.810461
-0.810455
-0.81045
-1.02339
-1.02339
-1.0234
-1.02341
-1.02343
-1.02344
-1.02345
-1.02344
-1.02342
-1.02339
-1.02338
-1.02339
-1.02344
-1.02352
-1.02363
-1.02376
-1.02389
-1.02397
-1.02401
-1.02401
-1.02399
-1.02395
-1.02392
-1.02388
-1.02385
-1.02382
-1.0238
-1.02378
-1.02377
-1.02376
-1.02375
-1.02375
-1.26849
-1.26849
-1.26849
-1.2685
-1.26852
-1.26853
-1.26854
-1.26853
-1.26852
-1.2685
-1.26849
-1.26851
-1.26856
-1.26864
-1.26875
-1.26887
-1.269
-1.26908
-1.26911
-1.26911
-1.26908
-1.26904
-1.269
-1.26896
-1.26892
-1.26889
-1.26886
-1.26884
-1.26882
-1.26881
-1.2688
-1.2688
-1.55002
-1.55002
-1.55002
-1.55003
-1.55004
-1.55005
-1.55006
-1.55006
-1.55005
-1.55004
-1.55005
-1.55008
-1.55013
-1.55021
-1.55031
-1.55044
-1.55056
-1.55064
-1.55067
-1.55066
-1.55063
-1.55059
-1.55054
-1.5505
-1.55045
-1.55042
-1.55038
-1.55036
-1.55034
-1.55033
-1.55032
-1.55032
-1.8734
-1.8734
-1.8734
-1.8734
-1.87341
-1.87342
-1.87343
-1.87343
-1.87343
-1.87344
-1.87345
-1.87349
-1.87355
-1.87363
-1.87373
-1.87386
-1.87398
-1.87406
-1.87409
-1.87408
-1.87405
-1.87401
-1.87396
-1.87391
-1.87386
-1.87382
-1.87379
-1.87376
-1.87374
-1.87373
-1.87373
-1.87372
-2.24486
-2.24486
-2.24485
-2.24486
-2.24486
-2.24486
-2.24487
-2.24487
-2.24488
-2.2449
-2.24493
-2.24498
-2.24505
-2.24513
-2.24523
-2.24535
-2.24547
-2.24556
-2.2456
-2.24558
-2.24555
-2.24551
-2.24546
-2.24541
-2.24536
-2.24532
-2.24528
-2.24525
-2.24523
-2.24523
-2.24522
-2.24522
-2.67154
-2.67154
-2.67154
-2.67154
-2.67154
-2.67154
-2.67154
-2.67155
-2.67156
-2.67159
-2.67163
-2.67169
-2.67176
-2.67185
-2.67195
-2.67207
-2.67219
-2.67228
-2.67231
-2.6723
-2.67226
-2.67222
-2.67217
-2.67211
-2.67206
-2.67202
-2.67198
-2.67195
-2.67194
-2.67193
-2.67193
-2.67193
-3.16168
-3.16168
-3.16168
-3.16167
-3.16167
-3.16167
-3.16167
-3.16168
-3.1617
-3.16173
-3.16178
-3.16185
-3.16192
-3.16201
-3.16211
-3.16222
-3.16233
-3.16241
-3.16244
-3.16242
-3.16238
-3.16233
-3.16226
-3.1622
-3.16215
-3.1621
-3.16207
-3.16204
-3.16203
-3.16203
-3.16203
-3.16203
-3.72472
-3.72473
-3.72473
-3.72473
-3.72472
-3.72472
-3.72472
-3.72473
-3.72475
-3.72479
-3.72484
-3.7249
-3.72497
-3.72505
-3.72514
-3.72524
-3.72533
-3.72538
-3.72539
-3.72537
-3.72531
-3.72524
-3.72516
-3.7251
-3.72504
-3.725
-3.72497
-3.72496
-3.72495
-3.72495
-3.72495
-3.72496
-4.37154
-4.37155
-4.37155
-4.37155
-4.37155
-4.37155
-4.37155
-4.37157
-4.37159
-4.37163
-4.37167
-4.37173
-4.37179
-4.37186
-4.37193
-4.37201
-4.37206
-4.37207
-4.37205
-4.37198
-4.37189
-4.37179
-4.3717
-4.37161
-4.37156
-4.37153
-4.37152
-4.37152
-4.37152
-4.37153
-4.37153
-4.37153
-5.06322
-5.06322
-5.06322
-5.06322
-5.06322
-5.06323
-5.06324
-5.06325
-5.06327
-5.0633
-5.06334
-5.06338
-5.06344
-5.0635
-5.06356
-5.06361
-5.06364
-5.06363
-5.06359
-5.06351
-5.0634
-5.06328
-5.06316
-5.06307
-5.063
-5.06297
-5.06296
-5.06296
-5.06297
-5.06297
-5.06298
-5.06298
-5.71018
-5.71018
-5.71018
-5.71018
-5.71019
-5.71019
-5.7102
-5.71022
-5.71024
-5.71026
-5.7103
-5.71034
-5.71038
-5.71043
-5.71047
-5.71051
-5.71053
-5.71053
-5.7105
-5.71045
-5.71037
-5.71027
-5.71016
-5.71006
-5.70997
-5.70991
-5.70988
-5.70987
-5.70987
-5.70988
-5.70989
-5.70989
-6.2734
-6.2734
-6.27341
-6.27341
-6.27342
-6.27342
-6.27344
-6.27345
-6.27347
-6.2735
-6.27353
-6.27356
-6.2736
-6.27364
-6.27367
-6.2737
-6.27371
-6.27371
-6.2737
-6.27368
-6.27363
-6.27356
-6.27347
-6.27337
-6.27328
-6.27321
-6.27316
-6.27313
-6.27312
-6.27312
-6.27313
-6.27314
-6.76371
-6.76371
-6.76371
-6.76371
-6.76372
-6.76373
-6.76375
-6.76377
-6.76379
-6.76381
-6.76384
-6.76388
-6.76391
-6.76395
-6.76398
-6.764
-6.764
-6.764
-6.764
-6.76399
-6.76397
-6.76392
-6.76386
-6.76377
-6.76369
-6.7636
-6.76354
-6.7635
-6.76348
-6.76347
-6.76348
-6.76349
-7.19052
-7.19052
-7.19052
-7.19053
-7.19053
-7.19055
-7.19056
-7.19059
-7.19061
-7.19064
-7.19067
-7.19071
-7.19075
-7.19078
-7.19081
-7.19083
-7.19084
-7.19083
-7.19083
-7.19082
-7.1908
-7.19077
-7.19073
-7.19066
-7.19058
-7.1905
-7.19042
-7.19036
-7.19033
-7.19032
-7.19033
-7.19034
-7.56207
-7.56207
-7.56207
-7.56207
-7.56207
-7.56209
-7.56211
-7.56213
-7.56216
-7.56219
-7.56223
-7.56227
-7.56232
-7.56236
-7.56239
-7.56241
-7.56242
-7.56241
-7.5624
-7.56239
-7.56237
-7.56234
-7.5623
-7.56224
-7.56217
-7.56208
-7.562
-7.56193
-7.56188
-7.56186
-7.56187
-7.56188
-7.8855
-7.8855
-7.8855
-7.8855
-7.88551
-7.88551
-7.88553
-7.88556
-7.88559
-7.88563
-7.88567
-7.88572
-7.88577
-7.88582
-7.88586
-7.88589
-7.88589
-7.88588
-7.88587
-7.88585
-7.88582
-7.88579
-7.88574
-7.88568
-7.8856
-7.88551
-7.88541
-7.88532
-7.88526
-7.88523
-7.88523
-7.88525
-8.16706
-8.16706
-8.16706
-8.16706
-8.16706
-8.16706
-8.16707
-8.1671
-8.16713
-8.16718
-8.16723
-8.16729
-8.16735
-8.16741
-8.16745
-8.16748
-8.16749
-8.16748
-8.16746
-8.16744
-8.1674
-8.16735
-8.16729
-8.16721
-8.16711
-8.167
-8.16689
-8.16678
-8.16669
-8.16665
-8.16664
-8.16665
-8.41217
-8.41217
-8.41216
-8.41216
-8.41215
-8.41215
-8.41215
-8.41217
-8.41221
-8.41227
-8.41233
-8.4124
-8.41247
-8.41253
-8.41259
-8.41262
-8.41263
-8.41262
-8.4126
-8.41257
-8.41252
-8.41246
-8.41238
-8.41227
-8.41214
-8.412
-8.41185
-8.41171
-8.41159
-8.41151
-8.41149
-8.41149
-8.62555
-8.62555
-8.62554
-8.62553
-8.62552
-8.6255
-8.6255
-8.62551
-8.62556
-8.62562
-8.62569
-8.62577
-8.62585
-8.62592
-8.62598
-8.62602
-8.62603
-8.62602
-8.626
-8.62596
-8.62591
-8.62584
-8.62573
-8.6256
-8.62543
-8.62524
-8.62504
-8.62484
-8.62467
-8.62455
-8.6245
-8.62449
-8.81131
-8.81131
-8.8113
-8.81128
-8.81125
-8.81123
-8.81121
-8.81123
-8.81127
-8.81134
-8.81143
-8.81152
-8.81161
-8.81169
-8.81175
-8.81179
-8.81181
-8.8118
-8.81177
-8.81173
-8.81167
-8.81159
-8.81147
-8.8113
-8.81109
-8.81084
-8.81058
-8.81031
-8.81006
-8.80986
-8.80975
-8.80972
-8.97304
-8.97304
-8.97302
-8.97299
-8.97294
-8.9729
-8.97288
-8.97289
-8.97294
-8.97303
-8.97312
-8.97322
-8.97332
-8.9734
-8.97347
-8.97351
-8.97353
-8.97352
-8.97349
-8.97345
-8.97339
-8.97329
-8.97315
-8.97296
-8.97271
-8.97241
-8.97207
-8.97171
-8.97136
-8.97105
-8.97085
-8.97075
-9.11389
-9.11387
-9.11383
-9.11376
-9.11369
-9.11364
-9.11361
-9.11363
-9.11369
-9.11378
-9.11388
-9.11399
-9.11409
-9.11418
-9.11425
-9.11429
-9.11431
-9.1143
-9.11428
-9.11423
-9.11416
-9.11406
-9.11391
-9.1137
-9.11342
-9.11307
-9.11266
-9.1122
-9.11172
-9.11126
-9.1109
-9.11067
-9.23661
-9.23654
-9.23643
-9.23631
-9.23622
-9.23615
-9.23612
-9.23614
-9.23621
-9.23631
-9.23642
-9.23653
-9.23664
-9.23673
-9.2368
-9.23685
-9.23687
-9.23686
-9.23684
-9.23679
-9.23672
-9.23661
-9.23645
-9.23622
-9.23592
-9.23554
-9.23508
-9.23453
-9.23391
-9.23324
-9.23261
-9.23206
-9.34379
-9.34339
-9.34314
-9.34298
-9.34286
-9.34279
-9.34277
-9.3428
-9.34287
-9.34297
-9.34309
-9.34321
-9.34332
-9.34341
-9.34349
-9.34354
-9.34356
-9.34355
-9.34353
-9.34348
-9.34341
-9.3433
-9.34313
-9.3429
-9.34259
-9.34219
-9.3417
-9.3411
-9.34036
-9.33945
-9.33835
-9.33709
-9.43768
-9.43645
-9.43597
-9.4358
-9.43569
-9.43563
-9.43561
-9.43564
-9.43572
-9.43583
-9.43595
-9.43608
-9.43619
-9.43629
-9.43637
-9.43642
-9.43644
-9.43643
-9.43641
-9.43636
-9.43629
-9.43618
-9.43601
-9.43578
-9.43547
-9.43507
-9.43456
-9.43393
-9.43312
-9.43203
-9.43042
-9.42816
)
;

boundaryField
{
    movingWall
    {
        type            calculated;
        value           nonuniform List<scalar> 
32
(
-9.48091
-9.47967
-9.47919
-9.47902
-9.47892
-9.47885
-9.47883
-9.47887
-9.47895
-9.47906
-9.47918
-9.4793
-9.47942
-9.47951
-9.47959
-9.47964
-9.47966
-9.47966
-9.47964
-9.47959
-9.47952
-9.4794
-9.47924
-9.47901
-9.47869
-9.47829
-9.47779
-9.47716
-9.47635
-9.47525
-9.47365
-9.47139
)
;
    }
    fixedWalls
    {
        type            calculated;
        value           nonuniform List<scalar> 
64
(
6.93889e-18
-0.0928109
-0.199429
-0.321913
-0.462631
-0.624298
-0.810028
-1.02339
-1.26849
-1.55002
-1.8734
-2.24486
-2.67154
-3.16168
-3.72472
-4.37154
-5.06322
-5.71018
-6.2734
-6.76371
-7.19052
-7.56207
-7.8855
-8.16706
-8.41217
-8.62555
-8.81131
-8.97304
-9.11389
-9.23661
-9.34379
-9.43768
-0.00057774
-0.0933901
-0.200005
-0.322477
-0.463165
-0.624783
-0.81045
-1.02375
-1.2688
-1.55032
-1.87372
-2.24522
-2.67193
-3.16203
-3.72496
-4.37153
-5.06298
-5.70989
-6.27314
-6.76349
-7.19034
-7.56188
-7.88525
-8.16665
-8.41149
-8.62449
-8.80972
-8.97075
-9.11067
-9.23206
-9.33709
-9.42816
)
;
    }
    floor
    {
        type            calculated;
        value           nonuniform List<scalar> 
32
(
0.043195
0.0431913
0.0431884
0.0431896
0.0431972
0.0432134
0.0432413
0.0432846
0.0433442
0.0434077
0.0434512
0.0434405
0.0433764
0.0432625
0.0431162
0.0429501
0.0427926
0.0426795
0.0426147
0.0425842
0.0425747
0.0425763
0.0425829
0.0425906
0.0425976
0.0426028
0.0426065
0.0426092
0.0426116
0.0426139
0.0426159
0.0426169
)
;
    }
    frontAndBack
    {
        type            empty;
    }
}


// ************************************************************************* //
