/*--------------------------------*- C++ -*----------------------------------*\
| =========                 |                                                 |
| \\      /  F ield         | OpenFOAM: The Open Source CFD Toolbox           |
|  \\    /   O peration     | Version:  2212                                  |
|   \\  /    A nd           | Website:  www.openfoam.com                      |
|    \\/     M anipulation  |                                                 |
\*---------------------------------------------------------------------------*/
FoamFile
{
    version     2.0;
    format      ascii;
    arch        "LSB;label=64;scalar=64";
    class       surfaceScalarField;
    location    "1030";
    object      phi;
}
// * * * * * * * * * * * * * * * * * * * * * * * * * * * * * * * * * * * * * //

dimensions      [0 3 -1 0 0 0 0];

oriented        oriented;

internalField   nonuniform List<scalar> 
1984
(
-2.96969e-09
2.97057e-09
-2.20553e-08
1.90856e-08
-5.74492e-08
3.53938e-08
-1.02173e-07
4.4724e-08
-1.49046e-07
4.68723e-08
-1.91906e-07
4.28599e-08
-2.23265e-07
3.13597e-08
-2.3127e-07
8.00471e-09
-1.96079e-07
-3.51916e-08
-1.02701e-07
-9.33776e-08
4.23714e-08
-1.45073e-07
1.79573e-07
-1.37202e-07
2.83475e-07
-1.03902e-07
3.52007e-07
-6.85313e-08
3.89662e-07
-3.76556e-08
3.96542e-07
-6.87978e-09
3.71707e-07
2.48351e-08
3.27013e-07
4.4694e-08
2.73967e-07
5.30457e-08
2.21447e-07
5.25204e-08
1.74149e-07
4.72975e-08
1.34045e-07
4.01047e-08
1.016e-07
3.24453e-08
7.62777e-08
2.53218e-08
5.67174e-08
1.95603e-08
4.09376e-08
1.57797e-08
2.71623e-08
1.37752e-08
1.48927e-08
1.22695e-08
5.24491e-09
9.64782e-09
-1.57779e-10
5.40264e-09
-1.19975e-09
1.04181e-09
-1.19977e-09
-2.15382e-08
2.45088e-08
-8.75533e-08
8.51006e-08
-1.9284e-07
1.40681e-07
-3.21036e-07
1.72919e-07
-4.52136e-07
1.77972e-07
-5.65989e-07
1.56713e-07
-6.39512e-07
1.04883e-07
-6.4181e-07
1.03029e-08
-5.28839e-07
-1.48162e-07
-2.65031e-07
-3.57186e-07
1.33359e-07
-5.43462e-07
5.22698e-07
-5.26541e-07
8.29799e-07
-4.11004e-07
1.05104e-06
-2.89775e-07
1.18923e-06
-1.75841e-07
1.2382e-06
-5.58476e-08
1.19054e-06
7.249e-08
1.07729e-06
1.57949e-07
9.30091e-07
2.00242e-07
7.75047e-07
2.07565e-07
6.28241e-07
1.94104e-07
4.98082e-07
1.70264e-07
3.88034e-07
1.42493e-07
2.9804e-07
1.15316e-07
2.25228e-07
9.23725e-08
1.64926e-07
7.60813e-08
1.12953e-07
6.57483e-08
6.81851e-08
5.70373e-08
3.30116e-08
4.48212e-08
1.05856e-08
2.78286e-08
1.18519e-09
1.04422e-08
-1.46303e-11
-4.61835e-08
7.06922e-08
-1.67543e-07
2.0646e-07
-3.46244e-07
3.19382e-07
-5.54991e-07
3.81666e-07
-7.61483e-07
3.84464e-07
-9.31495e-07
3.26725e-07
-1.02714e-06
2.00526e-07
-1.00163e-06
-1.52059e-08
-7.98792e-07
-3.51e-07
-3.75678e-07
-7.80301e-07
2.38954e-07
-1.15809e-06
8.5282e-07
-1.14041e-06
1.36381e-06
-9.21995e-07
1.76202e-06
-6.87985e-07
2.0397e-06
-4.53521e-07
2.17486e-06
-1.91002e-07
2.14255e-06
1.04794e-07
1.98828e-06
3.12222e-07
1.76327e-06
4.25254e-07
1.5101e-06
4.60736e-07
1.25771e-06
4.46491e-07
1.02353e-06
4.0444e-07
8.16684e-07
3.49342e-07
6.39955e-07
2.92044e-07
4.91116e-07
2.41212e-07
3.64765e-07
2.02433e-07
2.5564e-07
1.74873e-07
1.62155e-07
1.50522e-07
8.72777e-08
1.19698e-07
3.53757e-08
7.97306e-08
7.58906e-09
3.82288e-08
7.57436e-09
-6.77151e-08
1.38407e-07
-2.38935e-07
3.7768e-07
-4.82786e-07
5.63233e-07
-7.5959e-07
6.5847e-07
-1.02477e-06
6.49642e-07
-1.23124e-06
5.33198e-07
-1.32859e-06
2.9788e-07
-1.25957e-06
-8.42303e-08
-9.66088e-07
-6.44482e-07
-4.10558e-07
-1.33583e-06
3.5448e-07
-1.92313e-06
1.13207e-06
-1.91799e-06
1.82268e-06
-1.6126e-06
2.40199e-06
-1.2673e-06
2.84901e-06
-9.00544e-07
3.12014e-06
-4.6213e-07
3.15556e-06
6.93722e-08
3.00334e-06
4.64443e-07
2.73475e-06
6.93845e-07
2.40652e-06
7.88962e-07
2.05951e-06
7.93505e-07
1.72084e-06
7.43111e-07
1.40704e-06
6.63142e-07
1.12616e-06
5.72924e-07
8.79452e-07
4.87915e-07
6.63668e-07
4.18216e-07
4.74543e-07
3.63999e-07
3.10781e-07
3.14285e-07
1.76092e-07
2.54387e-07
7.71976e-08
1.78625e-07
1.8841e-08
9.65854e-08
2.64153e-08
-7.81865e-08
2.16594e-07
-2.77634e-07
5.77127e-07
-5.62633e-07
8.48232e-07
-8.84614e-07
9.80451e-07
-1.18752e-06
9.5255e-07
-1.41217e-06
7.57843e-07
-1.49769e-06
3.83399e-07
-1.38255e-06
-1.99363e-07
-1.01312e-06
-1.01392e-06
-3.6443e-07
-1.98452e-06
4.74825e-07
-2.76239e-06
1.34276e-06
-2.78593e-06
2.16516e-06
-2.435e-06
2.9017e-06
-2.00384e-06
3.5221e-06
-1.52094e-06
3.96619e-06
-9.06224e-07
4.12357e-06
-8.80115e-08
4.02415e-06
5.63865e-07
3.75841e-06
9.59583e-07
3.39413e-06
1.15325e-06
2.98141e-06
1.20622e-06
2.55566e-06
1.16886e-06
2.14073e-06
1.07807e-06
1.75105e-06
9.62602e-07
1.39351e-06
8.45462e-07
1.06966e-06
7.42061e-07
7.78796e-07
6.54865e-07
5.21801e-07
5.7128e-07
3.04715e-07
4.71473e-07
1.3884e-07
3.445e-07
3.56642e-08
1.99761e-07
6.20794e-08
-7.27511e-08
2.89345e-07
-2.67662e-07
7.72038e-07
-5.57459e-07
1.13803e-06
-8.93565e-07
1.31656e-06
-1.21203e-06
1.27102e-06
-1.44249e-06
9.88301e-07
-1.5148e-06
4.55709e-07
-1.36541e-06
-3.48755e-07
-9.45467e-07
-1.43386e-06
-2.48488e-07
-2.6815e-06
5.97564e-07
-3.60844e-06
1.49029e-06
-3.67865e-06
2.38351e-06
-3.32822e-06
3.22897e-06
-2.8493e-06
3.99418e-06
-2.28615e-06
4.61326e-06
-1.52531e-06
4.92786e-06
-4.02605e-07
4.92893e-06
5.62795e-07
4.71382e-06
1.17469e-06
4.35895e-06
1.50812e-06
3.92061e-06
1.64456e-06
3.43974e-06
1.64973e-06
2.94586e-06
1.57195e-06
2.45934e-06
1.44912e-06
1.9932e-06
1.3116e-06
1.55517e-06
1.18009e-06
1.15006e-06
1.05997e-06
7.8348e-07
9.37865e-07
4.66459e-07
7.88493e-07
2.1748e-07
5.93479e-07
5.75051e-08
3.59736e-07
1.19584e-07
-5.21822e-08
3.41527e-07
-2.07866e-07
9.27721e-07
-4.60655e-07
1.39082e-06
-7.74536e-07
1.63044e-06
-1.08563e-06
1.58211e-06
-1.31502e-06
1.21769e-06
-1.38262e-06
5.23315e-07
-1.21922e-06
-5.12156e-07
-7.76998e-07
-1.87608e-06
-7.8225e-08
-3.38027e-06
7.20474e-07
-4.40714e-06
1.58458e-06
-4.54276e-06
2.4857e-06
-4.22934e-06
3.37989e-06
-3.74349e-06
4.23876e-06
-3.14501e-06
5.00045e-06
-2.28699e-06
5.47545e-06
-8.77609e-07
5.60422e-06
4.34033e-07
5.47417e-06
1.30474e-06
5.16782e-06
1.81447e-06
4.74384e-06
2.06855e-06
4.24514e-06
2.14843e-06
3.70431e-06
2.11278e-06
3.14605e-06
2.00739e-06
2.58877e-06
1.86888e-06
2.04629e-06
1.72257e-06
1.53001e-06
1.57626e-06
1.05252e-06
1.41535e-06
6.32764e-07
1.20825e-06
2.98333e-07
9.2791e-07
8.00623e-08
5.78006e-07
1.99646e-07
-2.25766e-08
3.64104e-07
-1.11931e-07
1.01708e-06
-2.88161e-07
1.56705e-06
-5.40239e-07
1.88252e-06
-8.17337e-07
1.85921e-06
-1.03811e-06
1.43846e-06
-1.11116e-06
5.96368e-07
-9.53672e-07
-6.69647e-07
-5.14525e-07
-2.31523e-06
1.31956e-07
-4.02675e-06
8.34473e-07
-5.10965e-06
1.61975e-06
-5.32804e-06
2.46602e-06
-5.07562e-06
3.34562e-06
-4.62309e-06
4.23908e-06
-4.03847e-06
5.09548e-06
-3.14339e-06
5.70783e-06
-1.48996e-06
5.96189e-06
1.7998e-07
5.92773e-06
1.33889e-06
5.69295e-06
2.04925e-06
5.31375e-06
2.44774e-06
4.83089e-06
2.63128e-06
4.27688e-06
2.66679e-06
3.67851e-06
2.60576e-06
3.05811e-06
2.48928e-06
2.43493e-06
2.34574e-06
1.82751e-06
2.18369e-06
1.25754e-06
1.98531e-06
7.54245e-07
1.71155e-06
3.54508e-07
1.32765e-06
9.49873e-08
8.37526e-07
2.94634e-07
7.57151e-09
3.56532e-07
-5.04169e-09
1.02969e-06
-7.61872e-08
1.63819e-06
-2.26169e-07
2.0325e-06
-4.33769e-07
2.06681e-06
-6.28388e-07
1.63308e-06
-7.08027e-07
6.76007e-07
-5.70895e-07
-8.0678e-07
-1.66049e-07
-2.72008e-06
3.61477e-07
-4.55428e-06
9.21556e-07
-5.66973e-06
1.56361e-06
-5.9701e-06
2.28546e-06
-5.79746e-06
3.08272e-06
-5.42035e-06
3.94825e-06
-4.904e-06
4.84763e-06
-4.04278e-06
5.55804e-06
-2.20037e-06
5.91282e-06
-1.74801e-07
5.97187e-06
1.27984e-06
5.81787e-06
2.20324e-06
5.50268e-06
2.76293e-06
5.06234e-06
3.07163e-06
4.52653e-06
3.2026e-06
3.92184e-06
3.21044e-06
3.27291e-06
3.13821e-06
2.60387e-06
3.01479e-06
1.94129e-06
2.84626e-06
1.31821e-06
2.6084e-06
7.75557e-07
2.2542e-06
3.56298e-07
1.74691e-06
9.31857e-08
1.10064e-06
3.8782e-07
3.01147e-08
3.26417e-07
8.44974e-08
9.75306e-07
1.21151e-07
1.60154e-06
9.79777e-08
2.05567e-06
4.58465e-10
2.16433e-06
-1.23385e-07
1.75692e-06
-1.84822e-07
7.37444e-07
-6.2528e-08
-9.29075e-07
2.3129e-07
-3.0139e-06
5.74566e-07
-4.89756e-06
9.31889e-07
-6.02706e-06
1.3487e-06
-6.38692e-06
1.86356e-06
-6.31232e-06
2.50008e-06
-6.05687e-06
3.26489e-06
-5.66882e-06
4.147e-06
-4.92488e-06
4.92299e-06
-2.97636e-06
5.36247e-06
-6.1428e-07
5.50489e-06
1.13743e-06
5.43068e-06
2.27745e-06
5.19035e-06
3.00327e-06
4.81412e-06
3.44785e-06
4.32631e-06
3.69041e-06
3.75101e-06
3.78574e-06
3.11385e-06
3.77537e-06
2.44413e-06
3.6845e-06
1.77869e-06
3.5117e-06
1.1644e-06
3.22269e-06
6.52643e-07
2.76595e-06
2.83162e-07
2.11639e-06
6.93694e-08
1.31443e-06
4.57189e-07
4.1352e-08
2.85065e-07
1.38177e-07
8.78481e-07
2.5492e-07
1.4848e-06
3.48298e-07
1.96229e-06
3.88744e-07
2.12389e-06
3.75321e-07
1.77034e-06
3.73145e-07
7.39621e-07
4.5996e-07
-1.01589e-06
5.97902e-07
-3.15184e-06
7.01535e-07
-5.00119e-06
7.63309e-07
-6.08883e-06
8.57077e-07
-6.48068e-06
1.07144e-06
-6.52668e-06
1.45462e-06
-6.44005e-06
2.02586e-06
-6.24006e-06
2.80117e-06
-5.70019e-06
3.6043e-06
-3.77949e-06
4.1413e-06
-1.15128e-06
4.37015e-06
9.08582e-07
4.3806e-06
2.26699e-06
4.23213e-06
3.15175e-06
3.94783e-06
3.73215e-06
3.54374e-06
4.09449e-06
3.03994e-06
4.28954e-06
2.46393e-06
4.35138e-06
1.85384e-06
4.2946e-06
1.26129e-06
4.10426e-06
7.47601e-07
3.73637e-06
3.66036e-07
3.14752e-06
1.33444e-07
2.34898e-06
2.55598e-08
1.42232e-06
4.82749e-07
3.87746e-08
2.46291e-07
1.41541e-07
7.75714e-07
2.86791e-07
1.33955e-06
4.39866e-07
1.80922e-06
5.69595e-07
1.99416e-06
6.67523e-07
1.67242e-06
7.53416e-07
6.53727e-07
8.19236e-07
-1.08171e-06
7.80431e-07
-3.11303e-06
5.67848e-07
-4.78861e-06
2.19303e-07
-5.74028e-06
-1.03278e-07
-6.1581e-06
-2.78076e-07
-6.35188e-06
-2.52845e-07
-6.46528e-06
-8.53424e-09
-6.48437e-06
5.21472e-07
-6.2302e-06
1.24374e-06
-4.50176e-06
1.92086e-06
-1.8284e-06
2.29969e-06
5.29747e-07
2.42418e-06
2.1425e-06
2.41467e-06
3.16126e-06
2.27362e-06
3.87321e-06
2.0058e-06
4.36232e-06
1.63032e-06
4.66502e-06
1.18644e-06
4.79526e-06
7.33817e-07
4.74722e-06
3.43045e-07
4.49503e-06
7.33791e-08
4.00604e-06
-5.41129e-08
3.27501e-06
-6.80904e-08
2.36296e-06
-2.94087e-08
1.38363e-06
4.5334e-07
2.37223e-08
2.22568e-07
9.30883e-08
7.06348e-07
2.02657e-07
1.22998e-06
3.36224e-07
1.67565e-06
4.76066e-07
1.85431e-06
6.13257e-07
1.53523e-06
7.32464e-07
5.3452e-07
7.43047e-07
-1.09229e-06
4.6785e-07
-2.83783e-06
-1.73396e-07
-4.14736e-06
-1.00514e-06
-4.90853e-06
-1.80469e-06
-5.35856e-06
-2.44557e-06
-5.711e-06
-2.87329e-06
-6.03756e-06
-3.04959e-06
-6.30807e-06
-2.92302e-06
-6.35677e-06
-2.46129e-06
-4.96348e-06
-1.824e-06
-2.46568e-06
-1.24007e-06
-5.41817e-08
-8.46511e-07
1.74893e-06
-6.13103e-07
2.92785e-06
-5.14586e-07
3.77469e-06
-5.42077e-07
4.38981e-06
-6.5906e-07
4.78201e-06
-8.03659e-07
4.93986e-06
-9.02942e-07
4.84651e-06
-8.9628e-07
4.48836e-06
-7.62535e-07
3.87229e-06
-5.34549e-07
3.04702e-06
-2.82484e-07
2.11089e-06
-8.35214e-08
1.18467e-06
3.69819e-07
-2.26261e-09
2.24831e-07
-1.91594e-09
7.06001e-07
1.06434e-08
1.21742e-06
4.48103e-08
1.64148e-06
1.05857e-07
1.79327e-06
1.81767e-07
1.45932e-06
1.94789e-07
5.21498e-07
-5.9082e-08
-8.38422e-07
-7.86094e-07
-2.11082e-06
-1.94272e-06
-2.99073e-06
-3.27663e-06
-3.57463e-06
-4.58386e-06
-4.05133e-06
-5.76441e-06
-4.53044e-06
-6.75538e-06
-5.04659e-06
-7.49691e-06
-5.56654e-06
-7.9029e-06
-5.95078e-06
-7.8264e-06
-5.03998e-06
-7.34963e-06
-2.94245e-06
-6.59963e-06
-8.0418e-07
-5.86212e-06
1.01143e-06
-5.23105e-06
2.29678e-06
-4.68829e-06
3.23193e-06
-4.21936e-06
3.92088e-06
-3.7866e-06
4.34924e-06
-3.33756e-06
4.49082e-06
-2.8283e-06
4.33725e-06
-2.24261e-06
3.90268e-06
-1.60628e-06
3.23596e-06
-9.85741e-07
2.42649e-06
-4.66505e-07
1.59165e-06
-1.24035e-07
8.42202e-07
2.45784e-07
-3.45712e-08
2.59402e-07
-1.31782e-07
8.03213e-07
-2.74846e-07
1.36048e-06
-4.33452e-07
1.80009e-06
-5.89264e-07
1.94908e-06
-7.86125e-07
1.65618e-06
-1.19052e-06
9.25892e-07
-2.05642e-06
2.74816e-08
-3.40889e-06
-7.5835e-07
-5.07993e-06
-1.31969e-06
-6.8707e-06
-1.78386e-06
-8.66589e-06
-2.25615e-06
-1.04014e-05
-2.79491e-06
-1.20066e-05
-3.44138e-06
-1.34094e-05
-4.1638e-06
-1.45038e-05
-4.85635e-06
-1.49861e-05
-4.55771e-06
-1.47342e-05
-3.19429e-06
-1.38377e-05
-1.70076e-06
-1.26314e-05
-1.94796e-07
-1.12866e-05
9.51965e-07
-9.91065e-06
1.85596e-06
-8.53187e-06
2.54211e-06
-7.1656e-06
2.98296e-06
-5.80615e-06
3.13137e-06
-4.48405e-06
3.01514e-06
-3.24119e-06
2.65982e-06
-2.12941e-06
2.12418e-06
-1.20879e-06
1.50587e-06
-5.34177e-07
9.17038e-07
-1.33603e-07
4.41628e-07
1.12181e-07
-8.29657e-08
3.42368e-07
-3.18279e-07
1.03853e-06
-6.96251e-07
1.73846e-06
-1.19985e-06
2.30369e-06
-1.83296e-06
2.5822e-06
-2.66815e-06
2.49137e-06
-3.85007e-06
2.10781e-06
-5.45004e-06
1.62745e-06
-7.37125e-06
1.16286e-06
-9.44336e-06
7.52419e-07
-1.15735e-05
3.46246e-07
-1.37125e-05
-1.17069e-07
-1.58246e-05
-6.82893e-07
-1.78964e-05
-1.36957e-06
-1.98896e-05
-2.17054e-06
-2.17147e-05
-3.0313e-06
-2.29291e-05
-3.34329e-06
-2.32168e-05
-2.90658e-06
-2.25597e-05
-2.35784e-06
-2.09328e-05
-1.82171e-06
-1.86539e-05
-1.32697e-06
-1.59439e-05
-8.53994e-07
-1.29988e-05
-4.03028e-07
-1.00497e-05
3.38619e-08
-7.26349e-06
3.45158e-07
-4.84438e-06
5.96033e-07
-2.92576e-06
7.41201e-07
-1.55805e-06
7.56479e-07
-6.98144e-07
6.45963e-07
-2.35252e-07
4.54146e-07
-4.01626e-08
2.46538e-07
7.20182e-08
-7.49823e-08
4.1735e-07
-3.01684e-07
1.26523e-06
-6.9517e-07
2.13194e-06
-1.26793e-06
2.87644e-06
-2.03845e-06
3.35272e-06
-3.04142e-06
3.49434e-06
-4.3114e-06
3.37779e-06
-5.84767e-06
3.16372e-06
-7.64095e-06
2.95615e-06
-9.6437e-06
2.75517e-06
-1.17953e-05
2.49781e-06
-1.40248e-05
2.11248e-06
-1.62522e-05
1.54452e-06
-1.84119e-05
7.90073e-07
-2.04405e-05
-1.41904e-07
-2.23436e-05
-1.12824e-06
-2.38148e-05
-1.87204e-06
-2.45401e-05
-2.18131e-06
-2.44547e-05
-2.44321e-06
-2.35253e-05
-2.75111e-06
-2.1771e-05
-3.08132e-06
-1.92674e-05
-3.35757e-06
-1.61761e-05
-3.49431e-06
-1.27242e-05
-3.41809e-06
-9.29356e-06
-3.08544e-06
-6.16753e-06
-2.53e-06
-3.60235e-06
-1.82398e-06
-1.76168e-06
-1.08419e-06
-6.60119e-07
-4.55593e-07
-1.48115e-07
-5.78581e-08
-9.53823e-10
9.93768e-08
7.10642e-08
-3.18157e-08
4.49166e-07
-1.453e-07
1.37871e-06
-3.76044e-07
2.36269e-06
-7.61576e-07
3.26197e-06
-1.33019e-06
3.92133e-06
-2.09006e-06
4.2542e-06
-3.02199e-06
4.30973e-06
-4.08879e-06
4.23051e-06
-5.26145e-06
4.12881e-06
-6.52752e-06
4.02123e-06
-7.88329e-06
3.85359e-06
-9.32547e-06
3.55467e-06
-1.08501e-05
3.06918e-06
-1.24335e-05
2.37343e-06
-1.40429e-05
1.46752e-06
-1.55591e-05
3.87939e-07
-1.6783e-05
-6.48131e-07
-1.76198e-05
-1.34455e-06
-1.80442e-05
-2.01874e-06
-1.79949e-05
-2.80041e-06
-1.74235e-05
-3.65275e-06
-1.63117e-05
-4.46935e-06
-1.4687e-05
-5.11905e-06
-1.26239e-05
-5.48123e-06
-1.02383e-05
-5.47102e-06
-7.71105e-06
-5.05723e-06
-5.26521e-06
-4.26983e-06
-3.14107e-06
-3.20833e-06
-1.54473e-06
-2.05194e-06
-5.65393e-07
-1.03719e-06
-1.09616e-07
-3.56399e-07
-3.85523e-08
6.61023e-09
4.42556e-07
-8.10114e-10
1.38613e-06
-6.41506e-08
2.42603e-06
-2.35166e-07
3.43299e-06
-5.60307e-07
4.24648e-06
-1.05315e-06
4.74705e-06
-1.67721e-06
4.93379e-06
-2.37747e-06
4.93077e-06
-3.1117e-06
4.86303e-06
-3.8649e-06
4.77443e-06
-4.64205e-06
4.63074e-06
-5.45099e-06
4.36361e-06
-6.29247e-06
3.91066e-06
-7.1574e-06
3.23837e-06
-8.05005e-06
2.36017e-06
-9.01244e-06
1.35033e-06
-9.86008e-06
1.99504e-07
-1.057e-05
-6.34624e-07
-1.11883e-05
-1.40044e-06
-1.16598e-05
-2.3289e-06
-1.19027e-05
-3.40988e-06
-1.1829e-05
-4.54307e-06
-1.13663e-05
-5.58168e-06
-1.04742e-05
-6.37334e-06
-9.16072e-06
-6.78452e-06
-7.49837e-06
-6.71958e-06
-5.62228e-06
-6.14591e-06
-3.72953e-06
-5.10108e-06
-2.06202e-06
-3.71944e-06
-8.47431e-07
-2.25178e-06
-1.85697e-07
-1.01813e-06
-2.24249e-07
3.12503e-08
4.11305e-07
9.79434e-08
1.31944e-06
1.62798e-07
2.36117e-06
1.72546e-07
3.42324e-06
7.08604e-08
4.34816e-06
-1.738e-07
4.99171e-06
-5.41192e-07
5.30118e-06
-9.69079e-07
5.35866e-06
-1.39342e-06
5.28738e-06
-1.78324e-06
5.16425e-06
-2.14744e-06
4.99493e-06
-2.50498e-06
4.72116e-06
-2.87441e-06
4.28008e-06
-3.26745e-06
3.6314e-06
-3.68688e-06
2.77961e-06
-4.12775e-06
1.7912e-06
-4.5613e-06
6.33056e-07
-4.9829e-06
-2.13032e-07
-5.47843e-06
-9.049e-07
-6.06804e-06
-1.73929e-06
-6.6968e-06
-2.78112e-06
-7.24705e-06
-3.99281e-06
-7.59377e-06
-5.23496e-06
-7.61516e-06
-6.35195e-06
-7.22278e-06
-7.1769e-06
-6.39687e-06
-7.54548e-06
-5.18615e-06
-7.35664e-06
-3.72485e-06
-6.56238e-06
-2.23382e-06
-5.21048e-06
-9.92206e-07
-3.49339e-06
-2.337e-07
-1.77664e-06
-4.57949e-07
4.34854e-08
3.6782e-07
1.52779e-07
1.21015e-06
2.97501e-07
2.21645e-06
4.3061e-07
3.29013e-06
4.99119e-07
4.27965e-06
4.62789e-07
5.02804e-06
3.1831e-07
5.44566e-06
1.14949e-07
5.56202e-06
-7.89752e-08
5.4813e-06
-2.17365e-07
5.30264e-06
-2.95558e-07
5.07312e-06
-3.37774e-07
4.76337e-06
-3.78437e-07
4.32074e-06
-4.50407e-07
3.70337e-06
-5.75958e-07
2.90516e-06
-7.57207e-07
1.97245e-06
-1.02709e-06
9.02937e-07
-1.29133e-06
5.12139e-08
-1.58263e-06
-6.13603e-07
-2.01898e-06
-1.30294e-06
-2.63635e-06
-2.16375e-06
-3.37085e-06
-3.25832e-06
-4.11421e-06
-4.4916e-06
-4.71355e-06
-5.75262e-06
-5.00203e-06
-6.88842e-06
-4.88862e-06
-7.6589e-06
-4.33164e-06
-7.91362e-06
-3.38307e-06
-7.51096e-06
-2.20299e-06
-6.39056e-06
-1.05937e-06
-4.637e-06
-2.67156e-07
-2.56886e-06
-7.25105e-07
4.54827e-08
3.22337e-07
1.69219e-07
1.08641e-06
3.51225e-07
2.03444e-06
5.54127e-07
3.08723e-06
7.32385e-07
4.1014e-06
8.48134e-07
4.91229e-06
8.89706e-07
5.40409e-06
8.85461e-07
5.56627e-06
8.87553e-07
5.47921e-06
9.40404e-07
5.24979e-06
1.06064e-06
4.95289e-06
1.22697e-06
4.59705e-06
1.39712e-06
4.15059e-06
1.52369e-06
3.5768e-06
1.5657e-06
2.86314e-06
1.50099e-06
2.03717e-06
1.32071e-06
1.08322e-06
1.08833e-06
2.83589e-07
8.36123e-07
-3.61395e-07
5.18919e-07
-9.85736e-07
5.49837e-08
-1.69981e-06
-5.73381e-07
-2.62995e-06
-1.35095e-06
-3.71403e-06
-2.18075e-06
-4.92282e-06
-2.87283e-06
-6.19634e-06
-3.28856e-06
-7.24316e-06
-3.2945e-06
-7.90768e-06
-2.85259e-06
-7.95287e-06
-2.04028e-06
-7.20287e-06
-1.07245e-06
-5.60483e-06
-2.92217e-07
-3.34909e-06
-1.01732e-06
3.99583e-08
2.82379e-07
1.55532e-07
9.70837e-07
3.38484e-07
1.85149e-06
5.65294e-07
2.86042e-06
8.03479e-07
3.86321e-06
1.0237e-06
4.69206e-06
1.21237e-06
5.21542e-06
1.38039e-06
5.39825e-06
1.55681e-06
5.30278e-06
1.77066e-06
5.03595e-06
2.03432e-06
4.68922e-06
2.33142e-06
4.29995e-06
2.62313e-06
3.85889e-06
2.86111e-06
3.33883e-06
2.99907e-06
2.72518e-06
3.00501e-06
2.03123e-06
2.88743e-06
1.2008e-06
2.68432e-06
4.86695e-07
2.42263e-06
-9.96991e-08
2.11757e-06
-6.80677e-07
1.75042e-06
-1.33267e-06
1.25529e-06
-2.13482e-06
6.16972e-07
-3.07571e-06
-1.59195e-07
-4.14665e-06
-1.00725e-06
-5.34828e-06
-1.75067e-06
-6.49974e-06
-2.1999e-06
-7.45846e-06
-2.21942e-06
-7.93334e-06
-1.79131e-06
-7.63097e-06
-1.04886e-06
-6.34728e-06
-3.15941e-07
-4.08202e-06
-1.33326e-06
2.7959e-08
2.5442e-07
1.15668e-07
8.83128e-07
2.68544e-07
1.69862e-06
4.82049e-07
2.64691e-06
7.42017e-07
3.60324e-06
1.03158e-06
4.4025e-06
1.33725e-06
4.90975e-06
1.65351e-06
5.08199e-06
1.98337e-06
4.97292e-06
2.33357e-06
4.68574e-06
2.70572e-06
4.31708e-06
3.08596e-06
3.9197e-06
3.44404e-06
3.50081e-06
3.73996e-06
3.04292e-06
3.93341e-06
2.53172e-06
3.99627e-06
1.96837e-06
3.93847e-06
1.2586e-06
3.79437e-06
6.30798e-07
3.57411e-06
1.20563e-07
3.29122e-06
-3.97788e-07
2.9422e-06
-9.83647e-07
2.50184e-06
-1.69446e-06
1.96466e-06
-2.53854e-06
1.32172e-06
-3.50371e-06
5.30334e-07
-4.5569e-06
-3.22222e-07
-5.64718e-06
-1.09199e-06
-6.68869e-06
-1.51558e-06
-7.50975e-06
-1.47326e-06
-7.67329e-06
-9.94344e-07
-6.8262e-06
-3.43586e-07
-4.73277e-06
-1.67685e-06
7.36321e-09
2.47057e-07
4.52096e-08
8.45282e-07
1.4145e-07
1.60238e-06
3.17327e-07
2.47104e-06
5.77873e-07
3.3427e-06
9.17552e-07
4.06283e-06
1.32076e-06
4.50655e-06
1.76344e-06
4.63931e-06
2.22265e-06
4.51371e-06
2.68358e-06
4.22481e-06
3.13734e-06
3.86332e-06
3.57223e-06
3.48481e-06
3.96841e-06
3.10463e-06
4.29889e-06
2.71244e-06
4.53551e-06
2.2951e-06
4.65951e-06
1.84437e-06
4.67484e-06
1.24327e-06
4.61162e-06
6.94019e-07
4.46893e-06
2.63255e-07
4.24802e-06
-1.76881e-07
3.95141e-06
-6.87036e-07
3.56252e-06
-1.30557e-06
3.06928e-06
-2.0453e-06
2.46355e-06
-2.89798e-06
1.74278e-06
-3.83612e-06
9.14585e-07
-4.81899e-06
2.66399e-08
-5.80074e-06
-7.41248e-07
-6.74187e-06
-1.08305e-06
-7.33149e-06
-9.03776e-07
-7.00547e-06
-3.75807e-07
-5.26074e-06
-2.05266e-06
-2.71319e-08
2.74189e-07
-6.51188e-08
8.83269e-07
-4.78562e-08
1.58511e-06
8.25579e-08
2.34062e-06
3.44603e-07
3.08065e-06
7.31801e-07
3.67563e-06
1.22193e-06
4.01642e-06
1.77011e-06
4.09113e-06
2.33183e-06
3.952e-06
2.8775e-06
3.67913e-06
3.39255e-06
3.34828e-06
3.86892e-06
3.00844e-06
4.29725e-06
2.67629e-06
4.66378e-06
2.3459e-06
4.95284e-06
2.00603e-06
5.15355e-06
1.64366e-06
5.25689e-06
1.13993e-06
5.2787e-06
6.72212e-07
5.2238e-06
3.18154e-07
5.08949e-06
-4.25662e-08
4.87016e-06
-4.67709e-07
4.54715e-06
-9.82567e-07
4.1023e-06
-1.60044e-06
3.52324e-06
-2.31892e-06
2.80866e-06
-3.12155e-06
1.97355e-06
-3.98388e-06
1.05613e-06
-4.88333e-06
1.11863e-07
-5.7976e-06
-6.00865e-07
-6.61876e-06
-7.58622e-07
-6.84771e-06
-4.04189e-07
-5.61518e-06
-2.45685e-06
-8.6698e-08
3.60887e-07
-2.25584e-07
1.02215e-06
-2.91827e-07
1.65136e-06
-1.96782e-07
2.24558e-06
8.48958e-08
2.79897e-06
5.32391e-07
3.22813e-06
1.10498e-06
3.44383e-06
1.73953e-06
3.45658e-06
2.37962e-06
3.3119e-06
2.99072e-06
3.06803e-06
3.55829e-06
2.78071e-06
4.07892e-06
2.48781e-06
4.55127e-06
2.20395e-06
4.97074e-06
1.92643e-06
5.3295e-06
1.64727e-06
5.61901e-06
1.35414e-06
5.81339e-06
9.45557e-07
5.91668e-06
5.6892e-07
5.94292e-06
2.91915e-07
5.889e-06
1.13542e-08
5.74318e-06
-3.21892e-07
5.48472e-06
-7.24101e-07
5.0914e-06
-1.20712e-06
4.54555e-06
-1.77307e-06
3.84038e-06
-2.41638e-06
2.98628e-06
-3.12977e-06
2.01451e-06
-3.91156e-06
9.83289e-07
-4.76638e-06
2.41385e-08
-5.65961e-06
-5.23451e-07
-6.30012e-06
-4.09257e-07
-5.72937e-06
-2.8661e-06
-1.85058e-07
5.45945e-07
-4.35519e-07
1.27262e-06
-5.53089e-07
1.76893e-06
-4.52492e-07
2.14498e-06
-1.21873e-07
2.46835e-06
4.06063e-07
2.7002e-06
1.06189e-06
2.788e-06
1.76969e-06
2.74879e-06
2.47482e-06
2.60677e-06
3.14594e-06
2.39691e-06
3.77094e-06
2.15571e-06
4.34872e-06
1.91002e-06
4.88051e-06
1.67216e-06
5.36438e-06
1.44256e-06
5.79439e-06
1.21727e-06
6.16036e-06
9.88171e-07
6.42321e-06
6.82709e-07
6.5833e-06
4.0883e-07
6.66456e-06
2.10649e-07
6.66531e-06
1.06112e-08
6.57109e-06
-2.27671e-07
6.36199e-06
-5.15004e-07
6.01545e-06
-8.60584e-07
5.51052e-06
-1.26813e-06
4.8333e-06
-1.73916e-06
3.983e-06
-2.27948e-06
2.97753e-06
-2.90609e-06
1.86075e-06
-3.6496e-06
7.30844e-07
-4.52971e-06
-1.55565e-07
-5.41371e-06
-3.62381e-07
-5.52255e-06
-3.22848e-06
-3.17553e-07
8.63498e-07
-6.46024e-07
1.60109e-06
-7.26066e-07
1.84897e-06
-5.36803e-07
1.95572e-06
-1.00243e-07
2.03179e-06
5.30616e-07
2.06934e-06
1.26706e-06
2.05156e-06
2.04101e-06
1.97483e-06
2.807e-06
1.84078e-06
3.53775e-06
1.66617e-06
4.22093e-06
1.47252e-06
4.85301e-06
1.27794e-06
5.43269e-06
1.09248e-06
5.95673e-06
9.18519e-07
6.41928e-06
7.54715e-07
6.81052e-06
5.96934e-07
7.0904e-06
4.02834e-07
7.26386e-06
2.35365e-07
7.36062e-06
1.13892e-07
7.38103e-06
-9.8008e-09
7.31126e-06
-1.57897e-07
7.13405e-06
-3.37799e-07
6.82899e-06
-5.55527e-07
6.37487e-06
-8.14007e-07
5.75285e-06
-1.11715e-06
4.94993e-06
-1.47655e-06
3.96374e-06
-1.9199e-06
2.81252e-06
-2.49838e-06
1.56131e-06
-3.27849e-06
3.94199e-07
-4.24661e-06
-2.2087e-07
-4.90749e-06
-3.44935e-06
-4.51021e-07
1.31452e-06
-6.87861e-07
1.83793e-06
-5.3334e-07
1.69445e-06
-1.11116e-07
1.53349e-06
4.98922e-07
1.42176e-06
1.23264e-06
1.33562e-06
2.03182e-06
1.25237e-06
2.84944e-06
1.15721e-06
3.64739e-06
1.04282e-06
4.39989e-06
9.1367e-07
5.09224e-06
7.80176e-07
5.71767e-06
6.52516e-07
6.27344e-06
5.36709e-07
6.75788e-06
4.3408e-07
7.16932e-06
3.43279e-07
7.50438e-06
2.61868e-07
7.73607e-06
1.71149e-07
7.87591e-06
9.55242e-08
7.9512e-06
3.86004e-08
7.96231e-06
-2.09074e-08
7.89794e-06
-9.35284e-08
7.74415e-06
-1.84012e-07
7.48351e-06
-2.94882e-07
7.09704e-06
-4.27535e-07
6.56504e-06
-5.85153e-07
5.86662e-06
-7.7813e-07
4.97925e-06
-1.03253e-06
3.88248e-06
-1.40161e-06
2.57906e-06
-1.97508e-06
1.18043e-06
-2.84797e-06
1.12394e-07
-3.83945e-06
-3.33696e-06
-3.89308e-07
1.70383e-06
-9.75428e-09
1.45837e-06
6.9831e-07
9.86384e-07
1.43855e-06
7.93252e-07
2.19985e-06
6.60458e-07
2.98123e-06
5.54242e-07
3.76127e-06
4.72328e-07
4.51521e-06
4.03279e-07
5.21915e-06
3.38882e-07
5.855e-06
2.77821e-07
6.41296e-06
2.22214e-07
6.89107e-06
1.74408e-07
7.2926e-06
1.35172e-07
7.62312e-06
1.03565e-07
7.88851e-06
7.78872e-08
8.09364e-06
5.67407e-08
8.22916e-06
3.56307e-08
8.30661e-06
1.80739e-08
8.34188e-06
3.3239e-09
8.33418e-06
-1.31995e-08
8.27505e-06
-3.44058e-08
8.15313e-06
-6.20872e-08
7.95496e-06
-9.67102e-08
7.66602e-06
-1.38597e-07
7.27e-06
-1.89134e-07
6.74536e-06
-2.53491e-07
6.05879e-06
-3.45961e-07
5.1568e-06
-4.99619e-07
3.96228e-06
-7.80551e-07
2.41463e-06
-1.30032e-06
7.44417e-07
-2.16924e-06
-2.59254e-06
1.70383e-06
3.1622e-06
4.14858e-06
4.94184e-06
5.60229e-06
6.15654e-06
6.62886e-06
7.03214e-06
7.37103e-06
7.64885e-06
7.87106e-06
8.04547e-06
8.18064e-06
8.28421e-06
8.36209e-06
8.41883e-06
8.45447e-06
8.47254e-06
8.47586e-06
8.46266e-06
8.42826e-06
8.36617e-06
8.26946e-06
8.13086e-06
7.94173e-06
7.68824e-06
7.34228e-06
6.84266e-06
6.06211e-06
4.76178e-06
2.59254e-06
)
;

boundaryField
{
    movingWall
    {
        type            calculated;
        value           uniform 0;
    }
    fixedWalls
    {
        type            calculated;
        value           uniform 0;
    }
    floor
    {
        type            calculated;
        value           uniform 0;
    }
    frontAndBack
    {
        type            empty;
        value           nonuniform List<scalar> 0();
    }
}


// ************************************************************************* //
