/*--------------------------------*- C++ -*----------------------------------*\
| =========                 |                                                 |
| \\      /  F ield         | OpenFOAM: The Open Source CFD Toolbox           |
|  \\    /   O peration     | Version:  2212                                  |
|   \\  /    A nd           | Website:  www.openfoam.com                      |
|    \\/     M anipulation  |                                                 |
\*---------------------------------------------------------------------------*/
FoamFile
{
    version     2.0;
    format      ascii;
    arch        "LSB;label=64;scalar=64";
    class       volScalarField;
    location    "1040";
    object      Gch4;
}
// * * * * * * * * * * * * * * * * * * * * * * * * * * * * * * * * * * * * * //

dimensions      [1 -3 0 0 0 0 0];

internalField   nonuniform List<scalar> 
1024
(
1.9169
1.91669
1.91618
1.91525
1.91383
1.91185
1.90934
1.90641
1.90326
1.9001
1.89721
1.89486
1.89326
1.89256
1.89292
1.89454
1.89744
1.90109
1.90498
1.90904
1.91326
1.91761
1.922
1.9262
1.92999
1.93318
1.93569
1.93754
1.9388
1.9396
1.94004
1.94021
1.91687
1.91665
1.91612
1.91518
1.91372
1.9117
1.90915
1.90619
1.903
1.89982
1.8969
1.89454
1.89294
1.89225
1.89263
1.89427
1.89719
1.90085
1.90475
1.9088
1.91301
1.91736
1.92175
1.92597
1.92979
1.93302
1.93557
1.93745
1.93873
1.93954
1.93999
1.94017
1.91679
1.91657
1.91602
1.91503
1.91351
1.91142
1.90879
1.90575
1.90247
1.89918
1.89616
1.89373
1.89214
1.89149
1.89194
1.89367
1.89665
1.90034
1.90425
1.9083
1.9125
1.91683
1.92122
1.92548
1.92936
1.93266
1.93529
1.93723
1.93857
1.93941
1.93987
1.94005
1.91667
1.91643
1.91586
1.91482
1.91323
1.91105
1.9083
1.90511
1.90165
1.89813
1.89485
1.89227
1.89066
1.89012
1.89073
1.89265
1.89579
1.89957
1.90352
1.90757
1.91173
1.91604
1.92042
1.92471
1.92867
1.93209
1.93483
1.93688
1.93829
1.93918
1.93966
1.93986
1.9165
1.91626
1.91566
1.91458
1.91292
1.91062
1.90771
1.9043
1.90053
1.89659
1.89287
1.88999
1.88833
1.88795
1.88887
1.89114
1.8946
1.89858
1.90261
1.90667
1.9108
1.91504
1.91939
1.9237
1.92775
1.9313
1.9342
1.93638
1.93789
1.93884
1.93936
1.93957
1.9163
1.91605
1.91544
1.91433
1.9126
1.91019
1.90708
1.90335
1.89911
1.89455
1.89017
1.88682
1.88503
1.88488
1.88627
1.88913
1.89311
1.89743
1.90163
1.90573
1.90981
1.91398
1.91826
1.92256
1.92668
1.93037
1.93342
1.93575
1.93738
1.93841
1.93897
1.93919
1.91607
1.91582
1.91521
1.91409
1.91232
1.90978
1.90644
1.90231
1.89743
1.89205
1.88679
1.88279
1.88079
1.88093
1.88298
1.88668
1.89143
1.89627
1.90074
1.90493
1.90898
1.91305
1.91723
1.92148
1.92562
1.9294
1.93259
1.93506
1.93681
1.93791
1.93851
1.93875
1.9158
1.91556
1.91496
1.91385
1.91205
1.90941
1.90581
1.90119
1.89555
1.88915
1.88285
1.87807
1.87582
1.87632
1.87922
1.88402
1.88982
1.89536
1.9002
1.90452
1.90855
1.91251
1.91654
1.92068
1.92479
1.9286
1.93187
1.93443
1.93626
1.93742
1.93805
1.9383
1.91543
1.91521
1.91464
1.91355
1.91174
1.90901
1.90513
1.89995
1.89343
1.88588
1.87844
1.87286
1.87044
1.87146
1.87543
1.88161
1.8887
1.8951
1.90037
1.90484
1.90883
1.91264
1.91649
1.92045
1.92443
1.92818
1.93143
1.934
1.93584
1.93702
1.93767
1.93792
1.91483
1.91462
1.91408
1.91303
1.91122
1.90839
1.90421
1.8984
1.89086
1.88208
1.87353
1.86731
1.86498
1.86682
1.87217
1.88
1.88862
1.89599
1.90171
1.90629
1.91017
1.91376
1.91735
1.92106
1.9248
1.92836
1.93146
1.93393
1.9357
1.93684
1.93748
1.93773
1.91366
1.91347
1.91297
1.91193
1.91009
1.90709
1.90252
1.89596
1.88732
1.87733
1.86787
1.86142
1.85966
1.86278
1.86988
1.87969
1.89006
1.89851
1.90466
1.90926
1.91293
1.91619
1.91941
1.92273
1.92611
1.92932
1.93213
1.93436
1.93598
1.93703
1.93763
1.93788
1.91133
1.91116
1.91066
1.90959
1.90761
1.90431
1.89915
1.8917
1.88196
1.87101
1.86116
1.85511
1.85453
1.8594
1.86856
1.88059
1.89298
1.90268
1.90933
1.91392
1.9173
1.92013
1.92285
1.92565
1.9285
1.9312
1.93356
1.93545
1.93683
1.93775
1.93829
1.93853
1.90699
1.90681
1.90626
1.90505
1.90279
1.89897
1.89303
1.8846
1.87396
1.8626
1.85314
1.84829
1.8494
1.85616
1.8673
1.88148
1.89606
1.90741
1.91491
1.91977
1.92303
1.92548
1.92767
1.92983
1.93201
1.93406
1.93587
1.93734
1.93844
1.9392
1.93966
1.93986
1.89987
1.89964
1.89896
1.8975
1.89479
1.89028
1.88346
1.87419
1.86314
1.85216
1.84394
1.84079
1.84353
1.85153
1.86371
1.87919
1.89561
1.90906
1.91834
1.92445
1.92845
1.93119
1.93326
1.93499
1.93656
1.93796
1.93915
1.94008
1.94072
1.94111
1.94131
1.94138
1.88983
1.88954
1.88869
1.88688
1.88364
1.87841
1.87085
1.86112
1.8503
1.84041
1.83381
1.83203
1.83517
1.8425
1.85344
1.86785
1.88422
1.89907
1.91067
1.91941
1.92597
1.9309
1.93452
1.93707
1.93872
1.93959
1.93979
1.93948
1.93886
1.93815
1.93756
1.93724
1.87797
1.8776
1.87657
1.87444
1.87072
1.86496
1.857
1.8473
1.83718
1.82848
1.82282
1.82077
1.82183
1.82534
1.83116
1.83965
1.85041
1.86135
1.87098
1.87928
1.88649
1.89275
1.89803
1.90225
1.9054
1.90736
1.90812
1.90784
1.90688
1.90568
1.90467
1.90411
1.86795
1.86756
1.86646
1.86426
1.86049
1.85478
1.84709
1.83792
1.82839
1.81994
1.81358
1.80936
1.80649
1.8041
1.8018
1.79963
1.79783
1.79644
1.79535
1.79468
1.79467
1.79552
1.79734
1.80014
1.80383
1.80804
1.81227
1.81598
1.81876
1.82045
1.82124
1.82146
1.86212
1.86175
1.86075
1.85876
1.85541
1.85038
1.84364
1.83555
1.82694
1.81887
1.81213
1.80679
1.80209
1.79696
1.79047
1.78198
1.77173
1.76116
1.75128
1.74235
1.73469
1.72864
1.72449
1.72246
1.72259
1.72469
1.72831
1.73271
1.73702
1.74049
1.74268
1.74363
1.85925
1.85891
1.85802
1.8563
1.85343
1.84915
1.84339
1.8364
1.8288
1.82146
1.81511
1.80996
1.80551
1.80074
1.79451
1.78574
1.77435
1.76214
1.7506
1.73992
1.73013
1.72131
1.71365
1.70741
1.70287
1.70021
1.69939
1.70009
1.70175
1.70366
1.70518
1.70595
1.85814
1.85782
1.85704
1.85555
1.85312
1.84952
1.84467
1.83872
1.83216
1.82568
1.81996
1.81533
1.81154
1.80778
1.80295
1.79583
1.78599
1.77485
1.76379
1.75297
1.74227
1.7317
1.72151
1.71221
1.70435
1.69833
1.69429
1.69209
1.69136
1.69154
1.69204
1.69241
1.85803
1.85775
1.85705
1.85577
1.85372
1.8507
1.84664
1.84165
1.83606
1.83043
1.82533
1.82112
1.8177
1.81448
1.81051
1.80463
1.79626
1.78643
1.77624
1.76571
1.7546
1.74285
1.73071
1.71888
1.7082
1.69943
1.69299
1.68885
1.68668
1.6859
1.68587
1.68603
1.85832
1.85808
1.8575
1.85643
1.85471
1.85221
1.84884
1.84466
1.83993
1.83504
1.8304
1.82631
1.82274
1.81928
1.81518
1.80948
1.80171
1.79268
1.78321
1.77319
1.76232
1.75041
1.73759
1.72446
1.71196
1.70107
1.69254
1.68665
1.68321
1.68165
1.68125
1.6813
1.85819
1.85805
1.85767
1.8569
1.85557
1.85356
1.85079
1.84729
1.8432
1.83876
1.83424
1.82983
1.82554
1.8211
1.816
1.80958
1.80163
1.79292
1.784
1.7746
1.76437
1.75303
1.74059
1.72743
1.71432
1.70228
1.69228
1.68492
1.6803
1.67797
1.67721
1.67717
1.85654
1.85659
1.85657
1.85627
1.85548
1.85401
1.85176
1.84871
1.8449
1.84045
1.83552
1.83025
1.82471
1.81879
1.81225
1.80469
1.79621
1.78763
1.77924
1.7706
1.76129
1.75098
1.73956
1.72725
1.71459
1.70242
1.69172
1.68336
1.67775
1.6747
1.67356
1.67341
1.85209
1.85243
1.85294
1.85331
1.8532
1.8523
1.85041
1.84745
1.8434
1.83836
1.83246
1.8259
1.81885
1.81139
1.80346
1.79488
1.786
1.77764
1.76988
1.76217
1.75402
1.74504
1.73506
1.72413
1.71261
1.70113
1.69053
1.68174
1.67544
1.67177
1.67025
1.66998
1.84365
1.84438
1.84551
1.84658
1.84708
1.84655
1.84468
1.84133
1.83654
1.83045
1.82332
1.81545
1.80711
1.7985
1.7897
1.78064
1.7718
1.76393
1.75698
1.75033
1.74346
1.73599
1.72767
1.71847
1.70855
1.69833
1.68848
1.67985
1.67326
1.66913
1.66726
1.66687
1.83044
1.83156
1.83318
1.83463
1.83527
1.83459
1.83222
1.82809
1.82234
1.81524
1.80717
1.79849
1.78955
1.78058
1.7717
1.76289
1.75464
1.7476
1.74163
1.73611
1.73056
1.72461
1.71801
1.71067
1.7026
1.69404
1.68544
1.6775
1.67106
1.66673
1.66459
1.66406
1.81205
1.81344
1.81507
1.81612
1.81609
1.81459
1.81138
1.80648
1.80012
1.79263
1.7844
1.77584
1.76724
1.75881
1.75068
1.74281
1.73567
1.72975
1.72488
1.72051
1.71622
1.71171
1.70675
1.70121
1.69506
1.68836
1.68136
1.67457
1.66871
1.66448
1.6622
1.66154
1.78827
1.7896
1.79038
1.79009
1.7887
1.78611
1.78224
1.77714
1.77099
1.76407
1.75671
1.74923
1.74186
1.73478
1.72806
1.72169
1.71601
1.7114
1.70769
1.70443
1.70132
1.6981
1.6946
1.69069
1.68632
1.68148
1.67627
1.67095
1.66607
1.66229
1.66006
1.65933
1.75869
1.7593
1.75839
1.75642
1.75383
1.75069
1.74692
1.74251
1.73751
1.73209
1.72645
1.72081
1.71533
1.71012
1.70524
1.70066
1.69664
1.69342
1.69086
1.68865
1.68658
1.68448
1.68222
1.67971
1.6769
1.67376
1.67029
1.66661
1.66303
1.66004
1.65812
1.6574
1.72228
1.72151
1.7192
1.71667
1.71414
1.71157
1.70887
1.70595
1.70279
1.69944
1.69601
1.6926
1.68932
1.68622
1.68333
1.68065
1.67831
1.67645
1.67498
1.67373
1.67258
1.67142
1.67019
1.66883
1.66731
1.66561
1.66371
1.66164
1.65953
1.65764
1.6563
1.65572
1.67767
1.67701
1.67576
1.67461
1.67356
1.67258
1.6716
1.67059
1.66953
1.66842
1.66728
1.66617
1.66509
1.66408
1.66314
1.66227
1.66151
1.66092
1.66045
1.66005
1.65968
1.65932
1.65893
1.65851
1.65804
1.65752
1.65693
1.65629
1.65561
1.65498
1.6545
1.65426
)
;

boundaryField
{
    movingWall
    {
        type            fixedValue;
        value           uniform 1.6535;
    }
    fixedWalls
    {
        type            zeroGradient;
    }
    floor
    {
        type            zeroGradient;
    }
    frontAndBack
    {
        type            empty;
    }
}


// ************************************************************************* //
