/*--------------------------------*- C++ -*----------------------------------*\
| =========                 |                                                 |
| \\      /  F ield         | OpenFOAM: The Open Source CFD Toolbox           |
|  \\    /   O peration     | Version:  2212                                  |
|   \\  /    A nd           | Website:  www.openfoam.com                      |
|    \\/     M anipulation  |                                                 |
\*---------------------------------------------------------------------------*/
FoamFile
{
    version     2.0;
    format      ascii;
    arch        "LSB;label=64;scalar=64";
    class       volScalarField;
    location    "1040";
    object      p;
}
// * * * * * * * * * * * * * * * * * * * * * * * * * * * * * * * * * * * * * //

dimensions      [0 2 -2 0 0 0 0];

internalField   nonuniform List<scalar> 
1024
(
0
-3.76906e-06
-7.02532e-06
-6.48077e-06
4.45408e-09
1.46541e-05
4.09102e-05
8.33818e-05
0.00014504
0.000218037
0.000276239
0.000280024
0.000225787
0.000112026
-3.53944e-05
-0.000196079
-0.000335939
-0.000426824
-0.000474349
-0.000494005
-0.000497655
-0.000493242
-0.000485696
-0.000477917
-0.000471382
-0.000466617
-0.00046341
-0.00046108
-0.000458965
-0.000456875
-0.000455064
-0.000454175
-0.0928108
-0.0928148
-0.0928179
-0.0928177
-0.0928125
-0.0928001
-0.0927766
-0.0927373
-0.092679
-0.0926096
-0.0925546
-0.0925501
-0.0926017
-0.0927129
-0.092858
-0.0930166
-0.0931547
-0.0932442
-0.0932906
-0.0933094
-0.0933123
-0.0933074
-0.0932994
-0.0932913
-0.0932844
-0.0932793
-0.0932758
-0.0932733
-0.0932712
-0.0932693
-0.0932676
-0.0932667
-0.199428
-0.199433
-0.199437
-0.199438
-0.199436
-0.199427
-0.199408
-0.199374
-0.199321
-0.199256
-0.199205
-0.1992
-0.199248
-0.199355
-0.199496
-0.199651
-0.199786
-0.199873
-0.199917
-0.199934
-0.199935
-0.199929
-0.19992
-0.19991
-0.199903
-0.199897
-0.199893
-0.19989
-0.199887
-0.199885
-0.199883
-0.199882
-0.321913
-0.321919
-0.321925
-0.321928
-0.32193
-0.321926
-0.321913
-0.321885
-0.321838
-0.321779
-0.321733
-0.321727
-0.321771
-0.321873
-0.322009
-0.322157
-0.322287
-0.32237
-0.322411
-0.322424
-0.322423
-0.322414
-0.322402
-0.322391
-0.322381
-0.322373
-0.322368
-0.322364
-0.322361
-0.322359
-0.322356
-0.322354
-0.462631
-0.462637
-0.462645
-0.462652
-0.462658
-0.462661
-0.462655
-0.462633
-0.462592
-0.462539
-0.462498
-0.462491
-0.462532
-0.462628
-0.462757
-0.462899
-0.463021
-0.463099
-0.463134
-0.463143
-0.463137
-0.463124
-0.463108
-0.463093
-0.46308
-0.46307
-0.463062
-0.463056
-0.463053
-0.463049
-0.463046
-0.463042
-0.624298
-0.624304
-0.624312
-0.624322
-0.624334
-0.624342
-0.624342
-0.624327
-0.624292
-0.624246
-0.62421
-0.624203
-0.624243
-0.624332
-0.624454
-0.624587
-0.624701
-0.624772
-0.624801
-0.624803
-0.624792
-0.624773
-0.624752
-0.624732
-0.624714
-0.624699
-0.624688
-0.62468
-0.624674
-0.624669
-0.624665
-0.62466
-0.810028
-0.810033
-0.810041
-0.810053
-0.810068
-0.810081
-0.810087
-0.810077
-0.810048
-0.810007
-0.809977
-0.809972
-0.810011
-0.810096
-0.81021
-0.810335
-0.810441
-0.810504
-0.810526
-0.810522
-0.810503
-0.810478
-0.81045
-0.810423
-0.810399
-0.810379
-0.810363
-0.810351
-0.810343
-0.810336
-0.810331
-0.810325
-1.02339
-1.0234
-1.0234
-1.02341
-1.02343
-1.02345
-1.02346
-1.02345
-1.02343
-1.02339
-1.02337
-1.02337
-1.02341
-1.02349
-1.0236
-1.02371
-1.02381
-1.02387
-1.02389
-1.02388
-1.02385
-1.02382
-1.02378
-1.02375
-1.02372
-1.02369
-1.02367
-1.02365
-1.02364
-1.02363
-1.02363
-1.02362
-1.26849
-1.26849
-1.26849
-1.2685
-1.26852
-1.26853
-1.26855
-1.26854
-1.26853
-1.2685
-1.26848
-1.26849
-1.26854
-1.26861
-1.26872
-1.26883
-1.26892
-1.26898
-1.26899
-1.26897
-1.26894
-1.2689
-1.26886
-1.26882
-1.26878
-1.26875
-1.26872
-1.2687
-1.26869
-1.26868
-1.26867
-1.26867
-1.55001
-1.55001
-1.55002
-1.55002
-1.55004
-1.55005
-1.55006
-1.55007
-1.55006
-1.55004
-1.55004
-1.55006
-1.55011
-1.55018
-1.55028
-1.55039
-1.55048
-1.55053
-1.55054
-1.55052
-1.55048
-1.55044
-1.55039
-1.55035
-1.55031
-1.55027
-1.55024
-1.55022
-1.5502
-1.55019
-1.55018
-1.55018
-1.87339
-1.87338
-1.87338
-1.87339
-1.8734
-1.87341
-1.87342
-1.87343
-1.87343
-1.87343
-1.87344
-1.87347
-1.87353
-1.87361
-1.8737
-1.87381
-1.8739
-1.87395
-1.87396
-1.87393
-1.8739
-1.87385
-1.8738
-1.87376
-1.87371
-1.87367
-1.87364
-1.87362
-1.8736
-1.87359
-1.87358
-1.87358
-2.24483
-2.24482
-2.24482
-2.24482
-2.24483
-2.24483
-2.24484
-2.24485
-2.24486
-2.24487
-2.2449
-2.24495
-2.24502
-2.2451
-2.2452
-2.2453
-2.24539
-2.24545
-2.24545
-2.24543
-2.24539
-2.24535
-2.2453
-2.24525
-2.24521
-2.24517
-2.24513
-2.2451
-2.24509
-2.24508
-2.24507
-2.24507
-2.67149
-2.67149
-2.67149
-2.67149
-2.67149
-2.67149
-2.67149
-2.6715
-2.67152
-2.67154
-2.67159
-2.67165
-2.67173
-2.67181
-2.67191
-2.67201
-2.67211
-2.67216
-2.67217
-2.67214
-2.67211
-2.67206
-2.67201
-2.67196
-2.67191
-2.67187
-2.67183
-2.6718
-2.67179
-2.67178
-2.67178
-2.67178
-3.1616
-3.1616
-3.1616
-3.1616
-3.1616
-3.1616
-3.1616
-3.16161
-3.16163
-3.16166
-3.16172
-3.16178
-3.16186
-3.16195
-3.16205
-3.16215
-3.16224
-3.16229
-3.1623
-3.16227
-3.16223
-3.16217
-3.16211
-3.16206
-3.162
-3.16196
-3.16192
-3.1619
-3.16189
-3.16188
-3.16188
-3.16189
-3.72462
-3.72462
-3.72462
-3.72462
-3.72462
-3.72462
-3.72462
-3.72463
-3.72465
-3.72469
-3.72474
-3.7248
-3.72488
-3.72496
-3.72506
-3.72515
-3.72523
-3.72527
-3.72527
-3.72523
-3.72517
-3.7251
-3.72502
-3.72495
-3.7249
-3.72485
-3.72483
-3.72481
-3.72481
-3.7248
-3.72481
-3.72481
-4.37141
-4.37141
-4.37141
-4.37141
-4.37141
-4.37141
-4.37141
-4.37143
-4.37145
-4.37148
-4.37153
-4.37158
-4.37165
-4.37172
-4.3718
-4.37187
-4.37192
-4.37193
-4.3719
-4.37184
-4.37175
-4.37165
-4.37155
-4.37147
-4.37141
-4.37138
-4.37137
-4.37137
-4.37138
-4.37138
-4.37138
-4.37139
-5.06302
-5.06302
-5.06302
-5.06302
-5.06302
-5.06303
-5.06303
-5.06305
-5.06307
-5.0631
-5.06314
-5.06319
-5.06325
-5.06331
-5.06337
-5.06343
-5.06347
-5.06346
-5.06342
-5.06333
-5.06322
-5.0631
-5.06299
-5.06289
-5.06283
-5.0628
-5.06279
-5.06279
-5.06279
-5.0628
-5.0628
-5.06281
-5.70994
-5.70994
-5.70994
-5.70994
-5.70995
-5.70995
-5.70996
-5.70997
-5.70999
-5.71002
-5.71005
-5.7101
-5.71015
-5.7102
-5.71025
-5.71031
-5.71034
-5.71035
-5.71033
-5.71028
-5.7102
-5.71009
-5.70997
-5.70987
-5.70978
-5.70972
-5.70969
-5.70968
-5.70969
-5.70969
-5.7097
-5.7097
-6.27314
-6.27314
-6.27315
-6.27315
-6.27315
-6.27316
-6.27317
-6.27319
-6.27321
-6.27323
-6.27326
-6.2733
-6.27334
-6.27338
-6.27343
-6.27348
-6.27352
-6.27354
-6.27354
-6.27352
-6.27347
-6.2734
-6.2733
-6.2732
-6.27311
-6.27303
-6.27298
-6.27295
-6.27294
-6.27295
-6.27295
-6.27296
-6.76344
-6.76344
-6.76344
-6.76345
-6.76345
-6.76346
-6.76347
-6.76349
-6.76351
-6.76353
-6.76356
-6.7636
-6.76364
-6.76368
-6.76372
-6.76376
-6.7638
-6.76383
-6.76384
-6.76384
-6.76382
-6.76377
-6.76371
-6.76362
-6.76353
-6.76344
-6.76337
-6.76333
-6.76331
-6.76331
-6.76332
-6.76333
-7.19026
-7.19026
-7.19026
-7.19026
-7.19027
-7.19028
-7.19029
-7.19031
-7.19033
-7.19036
-7.19039
-7.19042
-7.19046
-7.1905
-7.19055
-7.19059
-7.19062
-7.19065
-7.19066
-7.19067
-7.19066
-7.19063
-7.19059
-7.19052
-7.19044
-7.19035
-7.19027
-7.19021
-7.19018
-7.19017
-7.19018
-7.19019
-7.56181
-7.56181
-7.56181
-7.56181
-7.56182
-7.56183
-7.56184
-7.56186
-7.56188
-7.56191
-7.56194
-7.56198
-7.56203
-7.56207
-7.56212
-7.56216
-7.56219
-7.56222
-7.56223
-7.56223
-7.56222
-7.5622
-7.56216
-7.56211
-7.56203
-7.56194
-7.56186
-7.56178
-7.56174
-7.56172
-7.56173
-7.56174
-7.88525
-7.88525
-7.88525
-7.88525
-7.88526
-7.88526
-7.88528
-7.8853
-7.88532
-7.88535
-7.88539
-7.88544
-7.88548
-7.88553
-7.88558
-7.88563
-7.88566
-7.88568
-7.88569
-7.88569
-7.88567
-7.88565
-7.8856
-7.88554
-7.88547
-7.88538
-7.88528
-7.88519
-7.88513
-7.8851
-7.8851
-7.88511
-8.16682
-8.16682
-8.16682
-8.16682
-8.16682
-8.16682
-8.16683
-8.16685
-8.16688
-8.16691
-8.16696
-8.16701
-8.16706
-8.16712
-8.16717
-8.16722
-8.16726
-8.16728
-8.16728
-8.16727
-8.16725
-8.16721
-8.16715
-8.16708
-8.16698
-8.16688
-8.16676
-8.16665
-8.16656
-8.16651
-8.1665
-8.16652
-8.41194
-8.41194
-8.41193
-8.41193
-8.41192
-8.41192
-8.41192
-8.41194
-8.41197
-8.41201
-8.41206
-8.41212
-8.41219
-8.41225
-8.41231
-8.41236
-8.4124
-8.41242
-8.41242
-8.41241
-8.41238
-8.41232
-8.41225
-8.41214
-8.41202
-8.41188
-8.41173
-8.41158
-8.41146
-8.41138
-8.41136
-8.41137
-8.62532
-8.62532
-8.62532
-8.62531
-8.62529
-8.62528
-8.62528
-8.62529
-8.62532
-8.62537
-8.62543
-8.6255
-8.62557
-8.62564
-8.62571
-8.62576
-8.6258
-8.62582
-8.62582
-8.6258
-8.62577
-8.6257
-8.6256
-8.62547
-8.62531
-8.62512
-8.62492
-8.62472
-8.62455
-8.62442
-8.62437
-8.62436
-8.81109
-8.81109
-8.81109
-8.81107
-8.81104
-8.81101
-8.811
-8.81101
-8.81105
-8.81111
-8.81118
-8.81126
-8.81133
-8.81141
-8.81148
-8.81153
-8.81157
-8.81159
-8.81159
-8.81157
-8.81153
-8.81145
-8.81134
-8.81118
-8.81097
-8.81072
-8.81045
-8.81018
-8.80994
-8.80973
-8.80963
-8.80959
-8.97283
-8.97283
-8.97281
-8.97278
-8.97274
-8.9727
-8.97268
-8.97269
-8.97273
-8.9728
-8.97288
-8.97296
-8.97304
-8.97312
-8.9732
-8.97326
-8.9733
-8.97332
-8.97332
-8.97329
-8.97324
-8.97316
-8.97303
-8.97284
-8.97259
-8.97229
-8.97195
-8.97158
-8.97123
-8.97093
-8.97072
-8.97062
-9.11368
-9.11367
-9.11363
-9.11356
-9.11349
-9.11344
-9.11342
-9.11343
-9.11348
-9.11355
-9.11364
-9.11373
-9.11382
-9.1139
-9.11398
-9.11404
-9.11408
-9.1141
-9.1141
-9.11408
-9.11402
-9.11393
-9.11378
-9.11358
-9.1133
-9.11295
-9.11254
-9.11207
-9.11159
-9.11113
-9.11077
-9.11054
-9.23641
-9.23633
-9.23623
-9.23612
-9.23603
-9.23596
-9.23594
-9.23595
-9.23601
-9.23609
-9.23618
-9.23628
-9.23637
-9.23646
-9.23653
-9.2366
-9.23664
-9.23666
-9.23666
-9.23664
-9.23658
-9.23648
-9.23632
-9.2361
-9.23581
-9.23542
-9.23496
-9.23441
-9.23378
-9.23311
-9.23248
-9.23193
-9.34359
-9.34319
-9.34294
-9.34278
-9.34267
-9.34261
-9.34259
-9.34261
-9.34267
-9.34276
-9.34285
-9.34296
-9.34305
-9.34314
-9.34322
-9.34329
-9.34333
-9.34335
-9.34335
-9.34333
-9.34327
-9.34317
-9.34301
-9.34278
-9.34247
-9.34208
-9.34158
-9.34097
-9.34023
-9.33932
-9.33822
-9.33696
-9.43748
-9.43625
-9.43577
-9.4356
-9.4355
-9.43544
-9.43543
-9.43546
-9.43552
-9.43562
-9.43572
-9.43582
-9.43593
-9.43602
-9.4361
-9.43617
-9.43621
-9.43624
-9.43624
-9.43621
-9.43615
-9.43605
-9.43589
-9.43566
-9.43535
-9.43495
-9.43445
-9.43381
-9.433
-9.4319
-9.4303
-9.42804
)
;

boundaryField
{
    movingWall
    {
        type            calculated;
        value           nonuniform List<scalar> 
32
(
-9.48071
-9.47947
-9.47899
-9.47883
-9.47873
-9.47867
-9.47865
-9.47868
-9.47875
-9.47884
-9.47895
-9.47905
-9.47915
-9.47924
-9.47933
-9.47939
-9.47944
-9.47946
-9.47946
-9.47944
-9.47938
-9.47928
-9.47912
-9.47889
-9.47858
-9.47818
-9.47767
-9.47704
-9.47623
-9.47513
-9.47352
-9.47126
)
;
    }
    fixedWalls
    {
        type            calculated;
        value           nonuniform List<scalar> 
64
(
6.93889e-18
-0.0928108
-0.199428
-0.321913
-0.462631
-0.624298
-0.810028
-1.02339
-1.26849
-1.55001
-1.87339
-2.24483
-2.67149
-3.1616
-3.72462
-4.37141
-5.06302
-5.70994
-6.27314
-6.76344
-7.19026
-7.56181
-7.88525
-8.16682
-8.41194
-8.62532
-8.81109
-8.97283
-9.11368
-9.23641
-9.34359
-9.43748
-0.000454175
-0.0932667
-0.199882
-0.322354
-0.463042
-0.62466
-0.810325
-1.02362
-1.26867
-1.55018
-1.87358
-2.24507
-2.67178
-3.16189
-3.72481
-4.37139
-5.06281
-5.7097
-6.27296
-6.76333
-7.19019
-7.56174
-7.88511
-8.16652
-8.41137
-8.62436
-8.80959
-8.97062
-9.11054
-9.23193
-9.33696
-9.42804
)
;
    }
    floor
    {
        type            calculated;
        value           nonuniform List<scalar> 
32
(
0.043195
0.0431912
0.043188
0.0431887
0.0431954
0.0432102
0.0432368
0.0432795
0.0433415
0.0434148
0.0434733
0.0434771
0.0434226
0.0433086
0.0431609
0.043
0.0428599
0.0427689
0.0427212
0.0427014
0.0426976
0.042702
0.0427094
0.0427171
0.0427235
0.0427282
0.0427314
0.0427336
0.0427357
0.0427378
0.0427396
0.0427404
)
;
    }
    frontAndBack
    {
        type            empty;
    }
}


// ************************************************************************* //
