/*--------------------------------*- C++ -*----------------------------------*\
| =========                 |                                                 |
| \\      /  F ield         | OpenFOAM: The Open Source CFD Toolbox           |
|  \\    /   O peration     | Version:  2212                                  |
|   \\  /    A nd           | Website:  www.openfoam.com                      |
|    \\/     M anipulation  |                                                 |
\*---------------------------------------------------------------------------*/
FoamFile
{
    version     2.0;
    format      ascii;
    arch        "LSB;label=64;scalar=64";
    class       surfaceScalarField;
    location    "1040";
    object      phi;
}
// * * * * * * * * * * * * * * * * * * * * * * * * * * * * * * * * * * * * * //

dimensions      [0 3 -1 0 0 0 0];

oriented        oriented;

internalField   nonuniform List<scalar> 
1984
(
-2.72248e-09
2.72206e-09
-2.1481e-08
1.87586e-08
-5.68025e-08
3.53216e-08
-1.01922e-07
4.51194e-08
-1.50085e-07
4.81633e-08
-1.95888e-07
4.58024e-08
-2.32767e-07
3.68792e-08
-2.49486e-07
1.67191e-08
-2.25801e-07
-2.36845e-08
-1.39773e-07
-8.60283e-08
1.20356e-08
-1.51809e-07
1.6669e-07
-1.54655e-07
2.85374e-07
-1.18684e-07
3.58869e-07
-7.34951e-08
3.90655e-07
-3.17853e-08
3.84403e-07
6.25169e-09
3.48345e-07
3.60572e-08
2.99504e-07
4.88414e-08
2.47787e-07
5.17164e-08
1.99078e-07
4.87091e-08
1.56213e-07
4.28652e-08
1.20307e-07
3.59057e-08
9.15065e-08
2.88008e-08
6.91372e-08
2.23693e-08
5.18438e-08
1.72935e-08
3.77545e-08
1.40893e-08
2.52276e-08
1.25268e-08
1.39096e-08
1.13181e-08
4.96029e-09
8.94934e-09
-6.70881e-11
5.02744e-09
-1.07343e-09
1.00639e-09
-1.07345e-09
-2.13407e-08
2.40628e-08
-8.7517e-08
8.49352e-08
-1.93877e-07
1.41682e-07
-3.24683e-07
1.75925e-07
-4.6101e-07
1.8449e-07
-5.84288e-07
1.69081e-07
-6.73048e-07
1.25638e-07
-6.96992e-07
4.06636e-08
-6.09665e-07
-1.11012e-07
-3.62639e-07
-3.33054e-07
5.53762e-08
-5.69824e-07
4.91797e-07
-5.91075e-07
8.36563e-07
-4.63451e-07
1.0732e-06
-3.10131e-07
1.19815e-06
-1.56737e-07
1.21245e-06
-8.04728e-09
1.13184e-06
1.16669e-07
1.00239e-06
1.78293e-07
8.54062e-07
2.00041e-07
7.06394e-07
1.96377e-07
5.70386e-07
1.78873e-07
4.5161e-07
1.54681e-07
3.52155e-07
1.28255e-07
2.71278e-07
1.03247e-07
2.05902e-07
8.2669e-08
1.51462e-07
6.85295e-08
1.04071e-07
5.99179e-08
6.2904e-08
5.24846e-08
3.04623e-08
4.1391e-08
9.78586e-09
2.57038e-08
1.11326e-09
9.67897e-09
3.99647e-11
-4.6654e-08
7.0717e-08
-1.6981e-07
2.08091e-07
-3.5205e-07
3.23922e-07
-5.66862e-07
3.90737e-07
-7.83352e-07
4.00981e-07
-9.69115e-07
3.54844e-07
-1.08772e-06
2.44247e-07
-1.09257e-06
4.55073e-08
-9.22464e-07
-2.81116e-07
-5.18825e-07
-7.36692e-07
1.27426e-07
-1.21608e-06
8.10439e-07
-1.27409e-06
1.37677e-06
-1.02979e-06
1.80153e-06
-7.34888e-07
2.06421e-06
-4.19415e-07
2.14779e-06
-9.16336e-08
2.06064e-06
2.03824e-07
1.87487e-06
3.64062e-07
1.64106e-06
4.33854e-07
1.39392e-06
4.43511e-07
1.15517e-06
4.17625e-07
9.37521e-07
3.72332e-07
7.47391e-07
3.18386e-07
5.8605e-07
2.64588e-07
4.50538e-07
2.18181e-07
3.35272e-07
1.83795e-07
2.35223e-07
1.59967e-07
1.49133e-07
1.38574e-07
8.01131e-08
1.10411e-07
3.23897e-08
7.34272e-08
6.93274e-09
3.51361e-08
6.97281e-09
-6.91801e-08
1.39897e-07
-2.44363e-07
3.83274e-07
-4.94683e-07
5.74242e-07
-7.81153e-07
6.77207e-07
-1.06065e-06
6.80474e-07
-1.28785e-06
5.8205e-07
-1.41368e-06
3.70072e-07
-1.37858e-06
1.04125e-08
-1.11834e-06
-5.41357e-07
-5.7665e-07
-1.27838e-06
2.30134e-07
-2.02286e-06
1.08723e-06
-2.13119e-06
1.8456e-06
-1.78816e-06
2.46159e-06
-1.35087e-06
2.89676e-06
-8.54585e-07
3.10541e-06
-3.00284e-07
3.06671e-06
2.42521e-07
2.86731e-06
5.63466e-07
2.57889e-06
7.22275e-07
2.25062e-06
7.71779e-07
1.9154e-06
7.52845e-07
1.59459e-06
6.93139e-07
1.30097e-06
6.12007e-07
1.04024e-06
5.25324e-07
8.12209e-07
4.46209e-07
6.12948e-07
3.83056e-07
4.38058e-07
3.34858e-07
2.86414e-07
2.90218e-07
1.61805e-07
2.3502e-07
7.06597e-08
1.64573e-07
1.71673e-08
8.86286e-08
2.41402e-08
-8.0252e-08
2.20149e-07
-2.84994e-07
5.88016e-07
-5.78342e-07
8.6759e-07
-9.12328e-07
1.01119e-06
-1.23226e-06
1.0004e-06
-1.48056e-06
8.30354e-07
-1.59686e-06
4.86371e-07
-1.5168e-06
-6.96465e-08
-1.17576e-06
-8.82399e-07
-5.28158e-07
-1.92598e-06
3.62012e-07
-2.91303e-06
1.31067e-06
-3.07985e-06
2.20849e-06
-2.68598e-06
2.98877e-06
-2.13115e-06
3.60187e-06
-1.46769e-06
3.97769e-06
-6.76108e-07
4.04592e-06
1.74299e-07
3.88536e-06
7.2402e-07
3.5881e-06
1.01954e-06
3.21505e-06
1.14482e-06
2.80852e-06
1.15938e-06
2.39793e-06
1.10373e-06
2.00293e-06
1.00701e-06
1.63512e-06
8.93137e-07
1.29942e-06
7.81904e-07
9.96251e-07
6.86227e-07
7.2424e-07
6.06868e-07
4.84086e-07
5.30372e-07
2.81697e-07
4.37409e-07
1.27765e-07
3.18505e-07
3.26349e-08
1.83759e-07
5.6775e-08
-7.42304e-08
2.9438e-07
-2.73339e-07
7.87125e-07
-5.70549e-07
1.1648e-06
-9.1825e-07
1.35889e-06
-1.25383e-06
1.33598e-06
-1.50823e-06
1.08476e-06
-1.61117e-06
5.8931e-07
-1.49477e-06
-1.86049e-07
-1.09718e-06
-1.27999e-06
-3.8386e-07
-2.6393e-06
5.22563e-07
-3.81945e-06
1.49505e-06
-4.05234e-06
2.46779e-06
-3.65872e-06
3.35984e-06
-3.0232e-06
4.11942e-06
-2.22727e-06
4.66867e-06
-1.22535e-06
4.88312e-06
-4.01544e-08
4.80837e-06
7.98777e-07
4.55066e-06
1.27725e-06
4.17807e-06
1.51741e-06
3.73877e-06
1.59868e-06
3.26782e-06
1.57467e-06
2.79057e-06
1.48425e-06
2.32444e-06
1.35927e-06
1.88036e-06
1.22599e-06
1.4646e-06
1.10198e-06
1.081e-06
9.90471e-07
7.34537e-07
8.76832e-07
4.35795e-07
7.36151e-07
2.02266e-07
5.52034e-07
5.31753e-08
3.3285e-07
1.0995e-07
-5.14884e-08
3.45868e-07
-2.06638e-07
9.42274e-07
-4.61218e-07
1.41938e-06
-7.81634e-07
1.67931e-06
-1.10594e-06
1.66028e-06
-1.35652e-06
1.33535e-06
-1.45241e-06
6.85194e-07
-1.31795e-06
-3.20511e-07
-8.89834e-07
-1.7081e-06
-1.5482e-07
-3.37431e-06
7.13015e-07
-4.68729e-06
1.65887e-06
-4.99819e-06
2.64123e-06
-4.64108e-06
3.58095e-06
-3.96293e-06
4.43059e-06
-3.0769e-06
5.11683e-06
-1.9116e-06
5.4788e-06
-4.02116e-07
5.51877e-06
7.58805e-07
5.33767e-06
1.45834e-06
5.00652e-06
1.84857e-06
4.5751e-06
2.0301e-06
4.08058e-06
2.06919e-06
3.55164e-06
2.01319e-06
3.01019e-06
1.90072e-06
2.47265e-06
1.76353e-06
1.95134e-06
1.62329e-06
1.45651e-06
1.4853e-06
9.99863e-07
1.33348e-06
5.99436e-07
1.13658e-06
2.81595e-07
8.69876e-07
7.52057e-08
5.39239e-07
1.85156e-07
-1.8541e-08
3.64409e-07
-9.89007e-08
1.02263e-06
-2.64822e-07
1.5853e-06
-5.10999e-07
1.92549e-06
-7.90367e-07
1.93965e-06
-1.02477e-06
1.56975e-06
-1.12079e-06
7.81216e-07
-9.83926e-07
-4.57375e-07
-5.46091e-07
-2.14594e-06
1.53362e-07
-4.07377e-06
9.31216e-07
-5.46514e-06
1.80381e-06
-5.87078e-06
2.73055e-06
-5.56782e-06
3.6509e-06
-4.88328e-06
4.52692e-06
-3.95292e-06
5.29466e-06
-2.67934e-06
5.77505e-06
-8.82502e-07
5.92739e-06
6.06464e-07
5.83642e-06
1.54931e-06
5.5717e-06
2.11329e-06
5.17987e-06
2.42194e-06
4.69593e-06
2.55313e-06
4.14873e-06
2.56039e-06
3.56254e-06
2.4869e-06
2.95788e-06
2.36819e-06
2.35258e-06
2.22859e-06
1.76393e-06
2.07394e-06
1.21249e-06
1.88492e-06
7.26223e-07
1.62285e-06
3.40682e-07
1.25542e-06
9.10135e-08
7.88907e-07
2.7617e-07
1.51305e-08
3.49279e-07
2.15903e-08
1.01617e-06
-2.27176e-08
1.62961e-06
-1.44075e-07
2.04685e-06
-3.30069e-07
2.12564e-06
-5.20249e-07
1.75993e-06
-6.12428e-07
8.73394e-07
-4.75743e-07
-5.94059e-07
-4.81394e-08
-2.57354e-06
5.30344e-07
-4.65225e-06
1.1714e-06
-6.1062e-06
1.90581e-06
-6.60519e-06
2.70226e-06
-6.36427e-06
3.53067e-06
-5.71169e-06
4.36805e-06
-4.7903e-06
5.16287e-06
-3.47416e-06
5.72329e-06
-1.44292e-06
5.96299e-06
3.66769e-07
5.95184e-06
1.56045e-06
5.75994e-06
2.30519e-06
5.42631e-06
2.75556e-06
4.9795e-06
2.99995e-06
4.44505e-06
3.09484e-06
3.84712e-06
3.08484e-06
3.20859e-06
3.00672e-06
2.55221e-06
2.88498e-06
1.90321e-06
2.72295e-06
1.29317e-06
2.49496e-06
7.61524e-07
2.15449e-06
3.50166e-07
1.66677e-06
9.16086e-08
1.04746e-06
3.67778e-07
4.05448e-08
3.08734e-07
1.23291e-07
9.33428e-07
2.03785e-07
1.54911e-06
2.36429e-07
2.0142e-06
1.98225e-07
2.16385e-06
1.16506e-07
1.84165e-06
8.10808e-08
9.08819e-07
2.14259e-07
-7.27237e-07
5.39099e-07
-2.89838e-06
9.47866e-07
-5.06102e-06
1.39927e-06
-6.5576e-06
1.90492e-06
-7.11085e-06
2.47849e-06
-6.93784e-06
3.13021e-06
-6.36341e-06
3.85626e-06
-5.51635e-06
4.62334e-06
-4.24124e-06
5.22992e-06
-2.0495e-06
5.52769e-06
6.89931e-08
5.57699e-06
1.51116e-06
5.45712e-06
2.42506e-06
5.19399e-06
3.01869e-06
4.80658e-06
3.38736e-06
4.31453e-06
3.58689e-06
3.73961e-06
3.65976e-06
3.10593e-06
3.64039e-06
2.44146e-06
3.54945e-06
1.78147e-06
3.38294e-06
1.171e-06
3.10543e-06
6.59984e-07
2.66551e-06
2.883e-07
2.03846e-06
7.11799e-08
1.26458e-06
4.38958e-07
5.28102e-08
2.55923e-07
1.83882e-07
8.02356e-07
3.57236e-07
1.37576e-06
5.25874e-07
1.84556e-06
6.5314e-07
2.03658e-06
7.3735e-07
1.75744e-06
8.1855e-07
8.27619e-07
9.56079e-07
-8.64766e-07
1.15588e-06
-3.09818e-06
1.3521e-06
-5.25724e-06
1.51573e-06
-6.72123e-06
1.68159e-06
-7.27671e-06
1.92497e-06
-7.18122e-06
2.30224e-06
-6.74068e-06
2.82825e-06
-6.04236e-06
3.49532e-06
-4.90831e-06
4.10307e-06
-2.65725e-06
4.43447e-06
-2.62412e-07
4.55679e-06
1.38884e-06
4.52242e-06
2.45942e-06
4.34902e-06
3.19209e-06
4.04768e-06
3.6887e-06
3.63125e-06
4.00332e-06
3.11843e-06
4.17259e-06
2.53559e-06
4.22323e-06
1.91932e-06
4.16572e-06
1.31928e-06
3.98297e-06
7.94785e-07
3.62992e-06
3.98006e-07
3.06229e-06
1.50221e-07
2.28624e-06
3.05492e-08
1.38426e-06
4.69507e-07
5.02617e-08
2.05662e-07
1.90013e-07
6.62605e-07
4.00539e-07
1.16524e-06
6.45677e-07
1.60042e-06
8.8855e-07
1.79371e-06
1.11271e-06
1.53328e-06
1.32583e-06
6.14495e-07
1.51886e-06
-1.05779e-06
1.61283e-06
-3.19216e-06
1.54193e-06
-5.18633e-06
1.30966e-06
-6.48896e-06
1.02176e-06
-6.98881e-06
8.31548e-07
-6.99101e-06
8.32993e-07
-6.74212e-06
1.05096e-06
-6.26033e-06
1.50708e-06
-5.36443e-06
2.06541e-06
-3.21558e-06
2.4669e-06
-6.63908e-07
2.67994e-06
1.1758e-06
2.75578e-06
2.38359e-06
2.70503e-06
3.24283e-06
2.52893e-06
3.8648e-06
2.23116e-06
4.30109e-06
1.82937e-06
4.57437e-06
1.36016e-06
4.69244e-06
8.80491e-07
4.64539e-06
4.59653e-07
4.40381e-06
1.57509e-07
3.93207e-06
-2.06128e-09
3.22186e-06
-4.30266e-08
2.32721e-06
-2.24931e-08
1.36372e-06
4.47014e-07
3.54056e-08
1.70256e-07
1.43843e-07
5.54168e-07
3.24878e-07
9.84201e-07
5.63236e-07
1.36207e-06
8.37249e-07
1.51969e-06
1.13231e-06
1.23822e-06
1.43063e-06
3.16177e-07
1.63463e-06
-1.26179e-06
1.57154e-06
-3.12906e-06
1.1463e-06
-4.76109e-06
4.0529e-07
-5.74796e-06
-4.13275e-07
-6.17024e-06
-1.09671e-06
-6.30757e-06
-1.55304e-06
-6.2858e-06
-1.75378e-06
-6.0596e-06
-1.65718e-06
-5.46103e-06
-1.29084e-06
-3.58192e-06
-8.08444e-07
-1.1463e-06
-4.38482e-07
8.0584e-07
-2.10662e-07
2.15577e-06
-7.87615e-08
3.11093e-06
-6.23943e-08
3.84843e-06
-1.58979e-07
4.39768e-06
-3.36711e-07
4.7521e-06
-5.38521e-07
4.89426e-06
-6.94141e-07
4.80101e-06
-7.42575e-07
4.45225e-06
-6.59794e-07
3.84929e-06
-4.74194e-07
3.03626e-06
-2.54822e-07
2.10784e-06
-7.63489e-08
1.18525e-06
3.70665e-07
1.24588e-08
1.57798e-07
5.86701e-08
5.07956e-07
1.50917e-07
8.91953e-07
2.97248e-07
1.21574e-06
4.9932e-07
1.31762e-06
7.48013e-07
9.89526e-07
9.85877e-07
7.83122e-08
1.01657e-06
-1.29248e-06
5.91729e-07
-2.70423e-06
-3.70976e-07
-3.79839e-06
-1.67477e-06
-4.44416e-06
-3.02225e-06
-4.82276e-06
-4.23723e-06
-5.09258e-06
-5.24402e-06
-5.27901e-06
-5.98224e-06
-5.32137e-06
-6.36954e-06
-5.07372e-06
-6.29504e-06
-3.65643e-06
-5.90343e-06
-1.53791e-06
-5.4147e-06
3.17114e-07
-4.93578e-06
1.67684e-06
-4.49374e-06
2.6689e-06
-4.10283e-06
3.45752e-06
-3.7541e-06
4.04895e-06
-3.41832e-06
4.41632e-06
-3.0533e-06
4.52923e-06
-2.61869e-06
4.36641e-06
-2.09808e-06
3.93163e-06
-1.51571e-06
3.26692e-06
-9.36549e-07
2.4571e-06
-4.45964e-07
1.61725e-06
-1.19364e-07
8.58649e-07
2.51301e-07
-1.71791e-08
1.74977e-07
-6.09347e-08
5.51712e-07
-1.14655e-07
9.45674e-07
-1.51775e-07
1.25286e-06
-1.53799e-07
1.31965e-06
-1.52189e-07
9.87916e-07
-2.92733e-07
2.18857e-07
-8.17927e-07
-7.67285e-07
-1.89111e-06
-1.63104e-06
-3.46362e-06
-2.22588e-06
-5.29002e-06
-2.61776e-06
-7.15884e-06
-2.95394e-06
-8.9524e-06
-3.29903e-06
-1.05917e-05
-3.63968e-06
-1.19937e-05
-3.91938e-06
-1.304e-05
-4.02746e-06
-1.34632e-05
-3.23324e-06
-1.32328e-05
-1.76831e-06
-1.25495e-05
-3.66121e-07
-1.16217e-05
7.4901e-07
-1.0568e-05
1.61519e-06
-9.42171e-06
2.31124e-06
-8.20297e-06
2.83021e-06
-6.93404e-06
3.1474e-06
-5.65195e-06
3.24714e-06
-4.39211e-06
3.10657e-06
-3.19466e-06
2.73418e-06
-2.11128e-06
2.18354e-06
-1.20466e-06
1.55048e-06
-5.34417e-07
9.47011e-07
-1.3392e-07
4.58152e-07
1.17381e-07
-6.17959e-08
2.36773e-07
-2.40944e-07
7.3086e-07
-5.27788e-07
1.23252e-06
-9.01256e-07
1.62632e-06
-1.35888e-06
1.77727e-06
-1.97113e-06
1.60017e-06
-2.90561e-06
1.15334e-06
-4.30351e-06
6.30614e-07
-6.13908e-06
2.0452e-07
-8.26379e-06
-1.01159e-07
-1.05184e-05
-3.63169e-07
-1.28213e-05
-6.5101e-07
-1.51208e-05
-9.99568e-07
-1.73575e-05
-1.40298e-06
-1.94476e-05
-1.82927e-06
-2.12569e-05
-2.21817e-06
-2.23311e-05
-2.15907e-06
-2.24206e-05
-1.67878e-06
-2.15559e-05
-1.23077e-06
-1.99577e-05
-8.492e-07
-1.78345e-05
-5.08064e-07
-1.53407e-05
-1.82536e-07
-1.26267e-05
1.1623e-07
-9.84818e-06
3.68853e-07
-7.20489e-06
6.03843e-07
-4.87864e-06
7.80318e-07
-3.00515e-06
8.60689e-07
-1.64319e-06
8.21581e-07
-7.62925e-07
6.70215e-07
-2.70171e-07
4.54257e-07
-5.04858e-08
2.38467e-07
6.68947e-08
-8.48268e-08
3.21599e-07
-3.32339e-07
9.78372e-07
-7.49128e-07
1.64931e-06
-1.3411e-06
2.2183e-06
-2.12898e-06
2.56515e-06
-3.16843e-06
2.63962e-06
-4.53291e-06
2.51781e-06
-6.24744e-06
2.34515e-06
-8.2456e-06
2.20268e-06
-1.04151e-05
2.06837e-06
-1.26688e-05
1.89047e-06
-1.49637e-05
1.64394e-06
-1.72673e-05
1.30399e-06
-1.95312e-05
8.6094e-07
-2.16827e-05
3.22195e-07
-2.36296e-05
-2.71265e-07
-2.49798e-05
-8.08817e-07
-2.54597e-05
-1.19891e-06
-2.50815e-05
-1.60893e-06
-2.38641e-05
-2.06663e-06
-2.18538e-05
-2.51834e-06
-1.91501e-05
-2.88627e-06
-1.59447e-05
-3.08917e-06
-1.25088e-05
-3.06701e-06
-9.1039e-06
-2.80107e-06
-6.01279e-06
-2.31079e-06
-3.48707e-06
-1.66503e-06
-1.68568e-06
-9.79803e-07
-6.18148e-07
-3.97321e-07
-1.29573e-07
-3.4318e-08
3.37717e-09
1.05516e-07
7.02718e-08
-4.96853e-08
3.71285e-07
-2.0874e-07
1.13743e-06
-5.01806e-07
1.94237e-06
-9.53694e-07
2.67019e-06
-1.58485e-06
3.1963e-06
-2.40425e-06
3.45902e-06
-3.39858e-06
3.51215e-06
-4.53351e-06
3.48008e-06
-5.78068e-06
3.44985e-06
-7.13581e-06
3.4235e-06
-8.60191e-06
3.35656e-06
-1.01644e-05
3.20643e-06
-1.18069e-05
2.94645e-06
-1.35139e-05
2.56798e-06
-1.52663e-05
2.07458e-06
-1.6994e-05
1.45644e-06
-1.83374e-05
5.34637e-07
-1.90883e-05
-4.47993e-07
-1.93159e-05
-1.38139e-06
-1.90285e-05
-2.35404e-06
-1.82138e-05
-3.33305e-06
-1.68765e-05
-4.22353e-06
-1.50521e-05
-4.9136e-06
-1.28183e-05
-5.30083e-06
-1.03072e-05
-5.31212e-06
-7.69928e-06
-4.91873e-06
-5.21233e-06
-4.15199e-06
-3.07964e-06
-3.11249e-06
-1.49693e-06
-1.98003e-06
-5.40907e-07
-9.9034e-07
-1.02748e-07
-3.32643e-07
-3.24758e-08
-1.16212e-08
3.82906e-07
-6.72439e-08
1.19305e-06
-2.01692e-07
2.07682e-06
-4.55829e-07
2.92432e-06
-8.61129e-07
3.6016e-06
-1.41883e-06
4.01672e-06
-2.09647e-06
4.18979e-06
-2.84527e-06
4.22889e-06
-3.63067e-06
4.23524e-06
-4.44371e-06
4.23655e-06
-5.28742e-06
4.20028e-06
-6.15957e-06
4.07858e-06
-7.05112e-06
3.838e-06
-7.95422e-06
3.47108e-06
-8.87706e-06
2.99742e-06
-9.86753e-06
2.44691e-06
-1.08573e-05
1.52436e-06
-1.16545e-05
3.49249e-07
-1.22234e-05
-8.1249e-07
-1.25673e-05
-2.01016e-06
-1.26553e-05
-3.24507e-06
-1.24276e-05
-4.45119e-06
-1.18246e-05
-5.51656e-06
-1.08106e-05
-6.31483e-06
-9.39673e-06
-6.72603e-06
-7.655e-06
-6.66045e-06
-5.71868e-06
-6.08831e-06
-3.7825e-06
-5.04867e-06
-2.08625e-06
-3.67628e-06
-8.55521e-07
-2.22107e-06
-1.87037e-07
-1.00113e-06
-2.19513e-07
1.4653e-08
3.68253e-07
3.61062e-08
1.1716e-06
3.04498e-08
2.08248e-06
-4.73684e-08
3.00214e-06
-2.40383e-07
3.79462e-06
-5.65288e-07
4.34162e-06
-9.92107e-07
4.6166e-06
-1.45966e-06
4.69644e-06
-1.92229e-06
4.69787e-06
-2.36146e-06
4.67571e-06
-2.77931e-06
4.61813e-06
-3.1831e-06
4.48237e-06
-3.57478e-06
4.22968e-06
-3.94874e-06
3.84504e-06
-4.29734e-06
3.34602e-06
-4.62469e-06
2.77425e-06
-4.95792e-06
1.8576e-06
-5.41909e-06
8.10413e-07
-5.97976e-06
-2.51815e-07
-6.5713e-06
-1.41862e-06
-7.16306e-06
-2.65332e-06
-7.65471e-06
-3.95954e-06
-7.93619e-06
-5.23507e-06
-7.89312e-06
-6.3579e-06
-7.44004e-06
-7.17911e-06
-6.55865e-06
-7.54184e-06
-5.29876e-06
-7.3482e-06
-3.79577e-06
-6.55165e-06
-2.27182e-06
-5.20023e-06
-1.0074e-06
-3.48549e-06
-2.36813e-07
-1.77171e-06
-4.56327e-07
2.90094e-08
3.39243e-07
9.68479e-08
1.10376e-06
1.75756e-07
2.00357e-06
2.25666e-07
2.95223e-06
2.02311e-07
3.81797e-06
7.61232e-08
4.46781e-06
-1.40586e-07
4.83331e-06
-3.93947e-07
4.9498e-06
-6.25023e-07
4.92895e-06
-8.0192e-07
4.85261e-06
-9.24563e-07
4.74077e-06
-1.00966e-06
4.56747e-06
-1.07547e-06
4.29549e-06
-1.13348e-06
3.90305e-06
-1.1834e-06
3.39594e-06
-1.21107e-06
2.80192e-06
-1.23653e-06
1.88305e-06
-1.33615e-06
9.1004e-07
-1.61792e-06
2.99477e-08
-2.09549e-06
-9.41051e-07
-2.76379e-06
-1.98501e-06
-3.52603e-06
-3.19731e-06
-4.27674e-06
-4.48436e-06
-4.86864e-06
-5.766e-06
-5.13871e-06
-6.90903e-06
-5.0007e-06
-7.67986e-06
-4.41658e-06
-7.93232e-06
-3.44131e-06
-7.52693e-06
-2.23739e-06
-6.40415e-06
-1.0749e-06
-4.64798e-06
-2.70864e-07
-2.57575e-06
-7.2719e-07
3.3599e-08
3.05644e-07
1.21627e-07
1.01573e-06
2.44712e-07
1.88049e-06
3.70472e-07
2.82647e-06
4.61345e-07
3.7271e-06
4.88978e-07
4.44018e-06
4.51349e-07
4.87094e-06
3.81678e-07
5.01947e-06
3.35283e-07
4.97535e-06
3.50532e-07
4.83736e-06
4.33301e-07
4.658e-06
5.63925e-07
4.43685e-06
7.12521e-07
4.1469e-06
8.51245e-07
3.76432e-06
9.62319e-07
3.28486e-06
1.04577e-06
2.71847e-06
1.08426e-06
1.84456e-06
1.05634e-06
9.37954e-07
9.29441e-07
1.56851e-07
6.30205e-07
-6.41815e-07
1.34814e-07
-1.48962e-06
-5.48168e-07
-2.51432e-06
-1.37079e-06
-3.66174e-06
-2.22869e-06
-4.90809e-06
-2.93118e-06
-6.20654e-06
-3.3458e-06
-7.26524e-06
-3.34332e-06
-7.9348e-06
-2.88953e-06
-7.98071e-06
-2.0644e-06
-7.22928e-06
-1.08468e-06
-5.62771e-06
-2.95549e-07
-3.36488e-06
-1.02274e-06
3.05958e-08
2.75049e-07
1.1666e-07
9.29666e-07
2.48871e-07
1.74827e-06
4.0673e-07
2.66861e-06
5.64073e-07
3.56975e-06
6.99405e-07
4.30485e-06
8.06994e-07
4.76335e-06
9.02933e-07
4.92353e-06
1.02135e-06
4.85693e-06
1.1914e-06
4.66732e-06
1.41988e-06
4.42952e-06
1.68935e-06
4.16737e-06
1.96807e-06
3.86818e-06
2.22201e-06
3.51038e-06
2.42346e-06
3.08341e-06
2.55836e-06
2.58358e-06
2.60867e-06
1.79425e-06
2.57203e-06
9.74586e-07
2.43829e-06
2.90596e-07
2.1892e-06
-3.92727e-07
1.83427e-06
-1.13469e-06
1.32422e-06
-2.00427e-06
6.57194e-07
-2.99471e-06
-1.47135e-07
-4.10376e-06
-1.01534e-06
-5.33834e-06
-1.76861e-06
-6.51197e-06
-2.21988e-06
-7.48353e-06
-2.23731e-06
-7.96328e-06
-1.80485e-06
-7.66174e-06
-1.05691e-06
-6.37565e-06
-3.18591e-07
-4.1032e-06
-1.34133e-06
2.08228e-08
2.54226e-07
8.49805e-08
8.65508e-07
1.95752e-07
1.6375e-06
3.50144e-07
2.51422e-06
5.38077e-07
3.38182e-06
7.48682e-07
4.09424e-06
9.74789e-07
4.53725e-06
1.21616e-06
4.68216e-06
1.48144e-06
4.59164e-06
1.78103e-06
4.36773e-06
2.1161e-06
4.09445e-06
2.47276e-06
3.81072e-06
2.82486e-06
3.51607e-06
3.14185e-06
3.19339e-06
3.39622e-06
2.82905e-06
3.57078e-06
2.40902e-06
3.64597e-06
1.71906e-06
3.62454e-06
9.9602e-07
3.50366e-06
4.11475e-07
3.28106e-06
-1.70126e-07
2.96323e-06
-8.16855e-07
2.53338e-06
-1.57443e-06
1.99447e-06
-2.4558e-06
1.34435e-06
-3.45364e-06
5.42455e-07
-4.53645e-06
-3.18575e-07
-5.65094e-06
-1.09339e-06
-6.70872e-06
-1.51963e-06
-7.53703e-06
-1.4782e-06
-7.70317e-06
-9.98524e-07
-6.85533e-06
-3.45509e-07
-4.75621e-06
-1.68684e-06
1.97828e-09
2.52247e-07
2.1621e-08
8.45866e-07
8.42436e-08
1.57488e-06
2.11955e-07
2.38651e-06
4.11105e-07
3.18267e-06
6.79545e-07
3.8258e-06
1.00681e-06
4.20999e-06
1.37424e-06
4.31473e-06
1.76519e-06
4.20069e-06
2.17062e-06
3.96229e-06
2.5847e-06
3.68037e-06
2.99751e-06
3.39791e-06
3.39214e-06
3.12144e-06
3.74742e-06
2.83811e-06
4.0429e-06
2.53357e-06
4.2649e-06
2.18702e-06
4.38957e-06
1.59439e-06
4.41555e-06
9.70044e-07
4.34574e-06
4.81282e-07
4.18087e-06
-5.25238e-09
3.92155e-06
-5.57543e-07
3.55488e-06
-1.20775e-06
3.07424e-06
-1.97516e-06
2.47482e-06
-2.85422e-06
1.75563e-06
-3.81726e-06
9.25984e-07
-4.82129e-06
3.50431e-08
-5.81778e-06
-7.35632e-07
-6.76636e-06
-1.08107e-06
-7.35773e-06
-9.04297e-07
-7.0321e-06
-3.76803e-07
-5.28371e-06
-2.06364e-06
-3.07011e-08
2.82948e-07
-8.09886e-08
8.96153e-07
-8.76983e-08
1.58159e-06
5.78546e-09
2.29303e-06
2.14927e-07
2.97353e-06
5.39277e-07
3.50145e-06
9.58285e-07
3.79098e-06
1.43308e-06
3.83993e-06
1.92612e-06
3.70766e-06
2.41476e-06
3.47365e-06
2.88949e-06
3.20564e-06
3.3453e-06
2.9421e-06
3.77514e-06
2.69159e-06
4.16844e-06
2.44481e-06
4.51332e-06
2.18869e-06
4.79995e-06
1.90039e-06
4.99497e-06
1.39936e-06
5.08959e-06
8.75427e-07
5.09671e-06
4.74162e-07
5.00985e-06
8.16024e-08
4.8217e-06
-3.69392e-07
4.52196e-06
-9.08009e-07
4.09447e-06
-1.54768e-06
3.52752e-06
-2.28727e-06
2.82006e-06
-3.1098e-06
1.98776e-06
-3.98898e-06
1.07011e-06
-4.90013e-06
1.23697e-07
-5.81995e-06
-5.92491e-07
-6.64154e-06
-7.55557e-07
-6.86904e-06
-4.03997e-07
-5.63527e-06
-2.46764e-06
-8.84155e-08
3.71364e-07
-2.33445e-07
1.04118e-06
-3.14216e-07
1.66236e-06
-2.48265e-07
2.22708e-06
-6.48038e-09
2.73174e-06
3.84635e-07
3.11033e-06
8.9184e-07
3.28377e-06
1.45759e-06
3.27418e-06
2.0324e-06
3.13284e-06
2.58919e-06
2.91686e-06
3.11912e-06
2.67572e-06
3.62202e-06
2.4392e-06
4.09812e-06
2.21549e-06
4.54416e-06
1.99877e-06
4.95362e-06
1.77923e-06
5.31692e-06
1.53709e-06
5.5878e-06
1.12848e-06
5.75159e-06
7.11636e-07
5.82692e-06
3.98834e-07
5.81205e-06
9.64719e-08
5.69531e-06
-2.52654e-07
5.45984e-06
-6.72539e-07
5.08456e-06
-1.1724e-06
4.55181e-06
-1.75452e-06
3.85476e-06
-2.41275e-06
3.00416e-06
-3.13839e-06
2.03226e-06
-3.92822e-06
9.98298e-07
-4.78599e-06
3.44303e-08
-5.67768e-06
-5.17918e-07
-6.31669e-06
-4.07882e-07
-5.7453e-06
-2.87552e-06
-1.84251e-07
5.55615e-07
-4.34981e-07
1.29191e-06
-5.5872e-07
1.7861e-06
-4.76418e-07
2.14477e-06
-1.79872e-07
2.4352e-06
3.01529e-07
2.62893e-06
9.01137e-07
2.68417e-06
1.54802e-06
2.6273e-06
2.19525e-06
2.48561e-06
2.81861e-06
2.29351e-06
3.41112e-06
2.0832e-06
3.97437e-06
1.87595e-06
4.51054e-06
1.67932e-06
5.01809e-06
1.49123e-06
5.49139e-06
1.30592e-06
5.91865e-06
1.10983e-06
6.24422e-06
8.02922e-07
6.45412e-06
5.0173e-07
6.57357e-06
2.79381e-07
6.60575e-06
6.42942e-08
6.53785e-06
-1.84755e-07
6.34965e-06
-4.84337e-07
6.01902e-06
-8.41762e-07
5.52509e-06
-1.26059e-06
4.85407e-06
-1.74173e-06
4.00565e-06
-2.28997e-06
2.99874e-06
-2.92132e-06
1.87863e-06
-3.66588e-06
7.4483e-07
-4.54387e-06
-1.47173e-07
-5.42468e-06
-3.59756e-07
-5.53272e-06
-3.23528e-06
-3.14232e-07
8.69847e-07
-6.38118e-07
1.6158e-06
-7.17251e-07
1.86523e-06
-5.36458e-07
1.96398e-06
-1.22339e-07
2.02108e-06
4.72221e-07
2.03437e-06
1.16287e-06
1.99352e-06
1.88669e-06
1.90347e-06
2.60484e-06
1.76746e-06
3.29596e-06
1.60239e-06
3.95192e-06
1.42725e-06
4.57139e-06
1.25647e-06
5.15396e-06
1.09675e-06
5.69677e-06
9.48417e-07
6.19414e-06
8.08561e-07
6.63449e-06
6.69474e-07
6.96439e-06
4.7303e-07
7.17766e-06
2.88455e-07
7.30421e-06
1.52831e-07
7.34915e-06
1.93506e-08
7.30058e-06
-1.3618e-07
7.1396e-06
-3.23357e-07
6.84605e-06
-5.48216e-07
6.39893e-06
-8.13467e-07
5.7797e-06
-1.1225e-06
4.97595e-06
-1.48622e-06
3.98633e-06
-1.9317e-06
2.83036e-06
-2.50991e-06
1.57424e-06
-3.28776e-06
4.02517e-07
-4.25296e-06
-2.1772e-07
-4.91249e-06
-3.453e-06
-4.47001e-07
1.31685e-06
-6.77147e-07
1.84594e-06
-5.1676e-07
1.70485e-06
-9.40864e-08
1.54131e-06
5.05612e-07
1.42138e-06
1.21639e-06
1.3236e-06
1.98287e-06
1.22704e-06
2.76303e-06
1.12332e-06
3.52393e-06
1.00656e-06
4.24466e-06
8.81661e-07
4.91422e-06
7.57685e-07
5.52818e-06
6.42513e-07
6.08494e-06
5.39986e-07
6.58329e-06
4.50068e-07
7.02143e-06
3.70421e-07
7.39398e-06
2.96924e-07
7.66322e-06
2.03785e-07
7.83248e-06
1.19192e-07
7.92986e-06
5.54574e-08
7.95837e-06
-9.15699e-09
7.90794e-06
-8.57504e-08
7.7641e-06
-1.79526e-07
7.50963e-06
-2.93742e-07
7.12576e-06
-4.29594e-07
6.59315e-06
-5.89892e-07
5.89155e-06
-7.84614e-07
4.99937e-06
-1.03952e-06
3.89727e-06
-1.40781e-06
2.58905e-06
-1.97954e-06
1.18659e-06
-2.85049e-06
1.14969e-07
-3.84087e-06
-3.33803e-06
-3.86994e-07
1.70384e-06
-1.68135e-09
1.46063e-06
7.13347e-07
9.89818e-07
1.45795e-06
7.96704e-07
2.21763e-06
6.61705e-07
2.98929e-06
5.51938e-07
3.75086e-06
4.65468e-07
4.48084e-06
3.93334e-07
5.15932e-06
3.28075e-07
5.77242e-06
2.68563e-07
6.31382e-06
2.16292e-07
6.78373e-06
1.72601e-07
7.18633e-06
1.37384e-07
7.52714e-06
1.0926e-07
7.81127e-06
8.62901e-08
8.04146e-06
6.67346e-08
8.20093e-06
4.43089e-08
8.29626e-06
2.38688e-08
8.34468e-06
7.03755e-09
8.34645e-06
-1.09293e-08
8.29386e-06
-3.31647e-08
8.17604e-06
-6.17021e-08
7.97955e-06
-9.72552e-08
7.69e-06
-1.4004e-07
7.29139e-06
-1.91281e-07
6.76276e-06
-2.55988e-07
6.0716e-06
-3.48352e-07
5.16525e-06
-5.01466e-07
3.9673e-06
-7.81582e-07
2.41739e-06
-1.30059e-06
7.45587e-07
-2.16907e-06
-2.59244e-06
1.70384e-06
3.16447e-06
4.15429e-06
4.951e-06
5.6127e-06
6.16464e-06
6.63011e-06
7.02344e-06
7.35152e-06
7.62008e-06
7.83637e-06
8.00897e-06
8.14635e-06
8.25561e-06
8.3419e-06
8.40864e-06
8.45295e-06
8.47682e-06
8.48385e-06
8.47293e-06
8.43976e-06
8.37806e-06
8.2808e-06
8.14076e-06
7.94948e-06
7.69349e-06
7.34514e-06
6.84368e-06
6.0621e-06
4.76151e-06
2.59244e-06
)
;

boundaryField
{
    movingWall
    {
        type            calculated;
        value           uniform 0;
    }
    fixedWalls
    {
        type            calculated;
        value           uniform 0;
    }
    floor
    {
        type            calculated;
        value           uniform 0;
    }
    frontAndBack
    {
        type            empty;
        value           nonuniform List<scalar> 0();
    }
}


// ************************************************************************* //
