/*--------------------------------*- C++ -*----------------------------------*\
| =========                 |                                                 |
| \\      /  F ield         | OpenFOAM: The Open Source CFD Toolbox           |
|  \\    /   O peration     | Version:  2212                                  |
|   \\  /    A nd           | Website:  www.openfoam.com                      |
|    \\/     M anipulation  |                                                 |
\*---------------------------------------------------------------------------*/
FoamFile
{
    version     2.0;
    format      ascii;
    arch        "LSB;label=64;scalar=64";
    class       volScalarField;
    location    "1040";
    object      T;
}
// * * * * * * * * * * * * * * * * * * * * * * * * * * * * * * * * * * * * * //

dimensions      [0 0 0 1 0 0 0];

internalField   nonuniform List<scalar> 
1024
(
309.994
309.994
309.993
309.992
309.991
309.989
309.987
309.985
309.983
309.98
309.978
309.978
309.98
309.982
309.984
309.985
309.987
309.988
309.99
309.991
309.991
309.992
309.993
309.994
309.994
309.995
309.995
309.996
309.996
309.996
309.996
309.996
309.981
309.981
309.979
309.976
309.972
309.966
309.96
309.954
309.946
309.938
309.932
309.933
309.937
309.943
309.948
309.954
309.96
309.964
309.967
309.97
309.973
309.975
309.978
309.98
309.982
309.984
309.985
309.987
309.988
309.988
309.989
309.989
309.967
309.966
309.963
309.958
309.95
309.941
309.93
309.919
309.906
309.894
309.885
309.885
309.892
309.9
309.91
309.92
309.928
309.936
309.942
309.947
309.952
309.956
309.96
309.964
309.967
309.971
309.974
309.976
309.978
309.98
309.98
309.98
309.953
309.952
309.947
309.94
309.928
309.915
309.9
309.884
309.868
309.853
309.842
309.842
309.849
309.859
309.87
309.883
309.895
309.905
309.914
309.922
309.929
309.935
309.941
309.946
309.951
309.956
309.961
309.965
309.968
309.97
309.971
309.971
309.939
309.937
309.932
309.922
309.907
309.89
309.871
309.853
309.835
309.821
309.81
309.809
309.814
309.823
309.834
309.847
309.861
309.873
309.884
309.894
309.903
309.912
309.919
309.927
309.934
309.94
309.947
309.952
309.957
309.959
309.961
309.961
309.925
309.924
309.918
309.906
309.889
309.87
309.849
309.829
309.813
309.8
309.79
309.788
309.792
309.798
309.806
309.818
309.831
309.844
309.856
309.867
309.878
309.888
309.897
309.906
309.915
309.923
309.931
309.939
309.945
309.948
309.95
309.951
309.913
309.911
309.905
309.894
309.876
309.855
309.834
309.816
309.801
309.789
309.78
309.778
309.78
309.784
309.789
309.798
309.807
309.819
309.83
309.842
309.853
309.864
309.875
309.885
309.895
309.906
309.916
309.925
309.932
309.937
309.94
309.94
309.902
309.901
309.895
309.884
309.868
309.848
309.827
309.81
309.797
309.785
309.777
309.774
309.775
309.778
309.782
309.787
309.794
309.802
309.811
309.822
309.833
309.844
309.855
309.866
309.877
309.889
309.901
309.912
309.921
309.927
309.929
309.93
309.892
309.891
309.887
309.878
309.863
309.845
309.826
309.81
309.796
309.784
309.776
309.773
309.774
309.777
309.781
309.785
309.789
309.794
309.8
309.808
309.817
309.827
309.838
309.85
309.862
309.875
309.888
309.9
309.91
309.917
309.92
309.921
309.884
309.883
309.88
309.873
309.861
309.846
309.829
309.813
309.797
309.784
309.775
309.773
309.775
309.78
309.784
309.788
309.791
309.792
309.796
309.801
309.808
309.816
309.826
309.838
309.85
309.864
309.878
309.891
309.902
309.909
309.912
309.913
309.875
309.875
309.873
309.868
309.859
309.846
309.832
309.815
309.798
309.783
309.775
309.774
309.778
309.783
309.789
309.794
309.796
309.797
309.797
309.799
309.804
309.811
309.819
309.83
309.843
309.857
309.871
309.885
309.895
309.902
309.905
309.906
309.867
309.867
309.865
309.862
309.855
309.844
309.831
309.814
309.795
309.78
309.774
309.775
309.781
309.788
309.794
309.8
309.804
309.804
309.802
309.802
309.804
309.81
309.818
309.828
309.841
309.855
309.869
309.882
309.891
309.897
309.899
309.9
309.857
309.857
309.856
309.853
309.847
309.838
309.824
309.806
309.788
309.776
309.773
309.777
309.785
309.793
309.8
309.807
309.811
309.811
309.808
309.807
309.809
309.814
309.822
309.832
309.845
309.858
309.871
309.881
309.889
309.893
309.894
309.895
309.845
309.845
309.844
309.841
309.835
309.825
309.811
309.793
309.779
309.772
309.774
309.78
309.788
309.796
309.804
309.812
309.818
309.82
309.819
309.818
309.82
309.825
309.833
309.842
309.853
309.864
309.874
309.881
309.886
309.889
309.89
309.89
309.829
309.829
309.828
309.825
309.818
309.807
309.792
309.778
309.771
309.77
309.775
309.782
309.79
309.797
309.805
309.814
309.822
309.828
309.832
309.834
309.837
309.841
309.847
309.854
309.862
309.869
309.876
309.88
309.883
309.884
309.885
309.884
309.811
309.81
309.809
309.804
309.797
309.786
309.774
309.767
309.766
309.769
309.774
309.779
309.785
309.791
309.798
309.805
309.813
309.821
309.829
309.835
309.841
309.847
309.852
309.857
309.861
309.865
309.868
309.87
309.87
309.87
309.869
309.869
309.796
309.796
309.794
309.789
309.782
309.772
309.763
309.757
309.756
309.758
309.761
309.765
309.768
309.771
309.774
309.776
309.778
309.779
309.78
309.781
309.782
309.784
309.787
309.791
309.796
309.802
309.808
309.814
309.818
309.821
309.822
309.822
309.788
309.787
309.785
309.781
309.774
309.765
309.757
309.751
309.748
309.748
309.749
309.75
309.752
309.754
309.755
309.757
309.758
309.758
309.757
309.756
309.756
309.756
309.756
309.757
309.758
309.759
309.761
309.764
309.767
309.77
309.772
309.774
309.782
309.782
309.78
309.777
309.771
309.762
309.754
309.747
309.743
309.741
309.74
309.74
309.74
309.741
309.742
309.744
309.746
309.747
309.747
309.747
309.747
309.747
309.748
309.749
309.75
309.751
309.752
309.753
309.754
309.756
309.757
309.758
309.779
309.779
309.777
309.774
309.769
309.761
309.753
309.745
309.74
309.737
309.734
309.733
309.731
309.731
309.73
309.731
309.733
309.736
309.738
309.74
309.741
309.742
309.743
309.745
309.746
309.748
309.749
309.75
309.751
309.752
309.753
309.753
309.777
309.776
309.775
309.773
309.768
309.761
309.753
309.745
309.739
309.734
309.731
309.728
309.726
309.724
309.722
309.722
309.723
309.725
309.729
309.731
309.734
309.737
309.739
309.742
309.744
309.746
309.747
309.748
309.749
309.75
309.751
309.751
309.775
309.775
309.774
309.771
309.767
309.761
309.754
309.746
309.739
309.734
309.729
309.726
309.723
309.72
309.718
309.717
309.717
309.719
309.721
309.725
309.728
309.732
309.735
309.738
309.742
309.744
309.746
309.748
309.749
309.749
309.75
309.75
309.774
309.774
309.773
309.771
309.767
309.762
309.755
309.747
309.74
309.734
309.73
309.726
309.723
309.72
309.717
309.716
309.716
309.717
309.719
309.722
309.725
309.728
309.732
309.736
309.74
309.743
309.745
309.747
309.748
309.749
309.749
309.75
309.773
309.773
309.772
309.77
309.767
309.762
309.756
309.749
309.742
309.736
309.731
309.727
309.724
309.721
309.719
309.718
309.717
309.718
309.72
309.722
309.725
309.728
309.731
309.735
309.738
309.742
309.744
309.746
309.748
309.748
309.749
309.749
309.772
309.772
309.771
309.77
309.767
309.762
309.757
309.751
309.744
309.739
309.734
309.73
309.727
309.724
309.723
309.721
309.721
309.722
309.723
309.725
309.727
309.729
309.732
309.735
309.738
309.741
309.744
309.746
309.747
309.748
309.749
309.749
309.772
309.772
309.771
309.769
309.767
309.763
309.758
309.752
309.747
309.742
309.738
309.734
309.731
309.729
309.727
309.726
309.726
309.727
309.728
309.729
309.73
309.732
309.734
309.737
309.739
309.741
309.744
309.746
309.747
309.748
309.749
309.749
309.771
309.771
309.77
309.769
309.766
309.763
309.759
309.754
309.749
309.745
309.742
309.739
309.736
309.734
309.733
309.732
309.732
309.732
309.733
309.734
309.735
309.736
309.737
309.739
309.741
309.742
309.744
309.746
309.747
309.748
309.748
309.749
309.771
309.771
309.77
309.768
309.766
309.763
309.76
309.756
309.752
309.749
309.746
309.744
309.742
309.74
309.739
309.738
309.738
309.738
309.738
309.738
309.739
309.74
309.74
309.741
309.743
309.744
309.745
309.746
309.747
309.748
309.748
309.749
309.771
309.77
309.77
309.768
309.767
309.764
309.761
309.758
309.756
309.753
309.751
309.749
309.748
309.746
309.745
309.744
309.744
309.743
309.743
309.743
309.743
309.743
309.744
309.744
309.745
309.745
309.746
309.747
309.747
309.748
309.748
309.748
309.771
309.77
309.77
309.769
309.767
309.766
309.764
309.762
309.76
309.758
309.756
309.755
309.753
309.752
309.75
309.749
309.748
309.747
309.747
309.746
309.746
309.746
309.746
309.746
309.746
309.746
309.747
309.747
309.748
309.748
309.748
309.748
309.771
309.771
309.77
309.769
309.769
309.767
309.766
309.765
309.763
309.762
309.76
309.759
309.757
309.756
309.754
309.752
309.751
309.75
309.749
309.749
309.748
309.748
309.748
309.748
309.748
309.748
309.748
309.748
309.748
309.748
309.748
309.748
309.771
309.771
309.77
309.77
309.77
309.769
309.768
309.767
309.766
309.764
309.763
309.761
309.759
309.758
309.756
309.754
309.752
309.751
309.75
309.75
309.749
309.749
309.748
309.748
309.748
309.748
309.748
309.748
309.748
309.748
309.748
309.748
)
;

boundaryField
{
    movingWall
    {
        type            zeroGradient;
    }
    fixedWalls
    {
        type            zeroGradient;
    }
    floor
    {
        type            fixedValue;
        value           uniform 310;
    }
    frontAndBack
    {
        type            empty;
    }
}


// ************************************************************************* //
