/*--------------------------------*- C++ -*----------------------------------*\
| =========                 |                                                 |
| \\      /  F ield         | OpenFOAM: The Open Source CFD Toolbox           |
|  \\    /   O peration     | Version:  2206                                  |
|   \\  /    A nd           | Website:  www.openfoam.com                      |
|    \\/     M anipulation  |                                                 |
\*---------------------------------------------------------------------------*/
FoamFile
{
    version     2.0;
    format      ascii;
    arch        "LSB;label=64;scalar=64";
    class       surfaceScalarField;
    location    "784800";
    object      phi;
}
// * * * * * * * * * * * * * * * * * * * * * * * * * * * * * * * * * * * * * //

dimensions      [0 3 -1 0 0 0 0];

oriented        oriented;

internalField   nonuniform List<scalar> 
24
(
1.61546e-10
-1.61546e-10
2.47712e-10
-8.6166e-11
1.48077e-10
9.96344e-11
1.48077e-10
-1.42499e-11
-1.47296e-10
-2.91523e-11
-7.12636e-11
-5.58212e-11
1.26303e-10
9.22563e-11
-6.4682e-11
-8.26139e-11
-1.19531e-10
-1.64149e-11
-7.83847e-11
8.51572e-11
1.38716e-11
-8.26139e-11
-9.90288e-11
-1.38716e-11
)
;

boundaryField
{
    movingWall
    {
        type            calculated;
        value           uniform 0;
    }
    fixedWalls
    {
        type            calculated;
        value           uniform 0;
    }
    frontAndBack
    {
        type            empty;
        value           nonuniform List<scalar> 0();
    }
}


// ************************************************************************* //
