/*--------------------------------*- C++ -*----------------------------------*\
| =========                 |                                                 |
| \\      /  F ield         | OpenFOAM: The Open Source CFD Toolbox           |
|  \\    /   O peration     | Version:  2206                                  |
|   \\  /    A nd           | Website:  www.openfoam.com                      |
|    \\/     M anipulation  |                                                 |
\*---------------------------------------------------------------------------*/
FoamFile
{
    version     2.0;
    format      ascii;
    arch        "LSB;label=64;scalar=64";
    class       volVectorField;
    location    "784800";
    object      U;
}
// * * * * * * * * * * * * * * * * * * * * * * * * * * * * * * * * * * * * * //

dimensions      [0 1 -1 0 0 0 0];

internalField   nonuniform List<vector> 
16
(
(2.91562e-08 -5.09712e-08 0)
(9.93685e-08 -2.46435e-08 0)
(9.63943e-08 2.61003e-08 0)
(2.35285e-08 5.21686e-08 0)
(-7.88121e-09 -7.60681e-08 0)
(-2.90376e-09 -4.49652e-08 0)
(-2.13678e-08 5.25463e-08 0)
(-2.22859e-08 6.48479e-08 0)
(-8.95768e-09 -4.30963e-08 0)
(-4.23341e-08 -1.11736e-08 0)
(-5.27761e-08 4.80713e-08 0)
(-9.90737e-09 9.57899e-09 0)
(-1.57538e-08 -2.29085e-08 0)
(-5.17445e-08 -1.91932e-09 0)
(-2.53871e-08 1.96428e-08 0)
(1.36479e-08 1.59449e-09 0)
)
;

boundaryField
{
    movingWall
    {
        type            noSlip;
    }
    fixedWalls
    {
        type            noSlip;
    }
    frontAndBack
    {
        type            empty;
    }
}


// ************************************************************************* //
