/*--------------------------------*- C++ -*----------------------------------*\
| =========                 |                                                 |
| \\      /  F ield         | OpenFOAM: The Open Source CFD Toolbox           |
|  \\    /   O peration     | Version:  2212                                  |
|   \\  /    A nd           | Website:  www.openfoam.com                      |
|    \\/     M anipulation  |                                                 |
\*---------------------------------------------------------------------------*/
FoamFile
{
    version     2.0;
    format      ascii;
    arch        "LSB;label=64;scalar=64";
    class       volScalarField;
    location    "1280";
    object      Gh2;
}
// * * * * * * * * * * * * * * * * * * * * * * * * * * * * * * * * * * * * * //

dimensions      [1 -3 0 0 0 0 0];

internalField   nonuniform List<scalar> 
1024
(
1.27673e-05
1.27666e-05
1.27651e-05
1.27624e-05
1.2758e-05
1.27518e-05
1.27435e-05
1.27332e-05
1.27215e-05
1.2709e-05
1.26967e-05
1.26857e-05
1.26773e-05
1.26725e-05
1.26725e-05
1.26784e-05
1.26905e-05
1.27068e-05
1.27254e-05
1.27458e-05
1.27677e-05
1.27904e-05
1.28127e-05
1.28334e-05
1.28514e-05
1.28662e-05
1.28775e-05
1.28857e-05
1.28913e-05
1.28948e-05
1.28966e-05
1.28974e-05
1.27672e-05
1.27665e-05
1.2765e-05
1.27622e-05
1.27578e-05
1.27515e-05
1.27431e-05
1.27327e-05
1.27209e-05
1.27083e-05
1.2696e-05
1.2685e-05
1.26765e-05
1.26718e-05
1.26719e-05
1.26778e-05
1.26899e-05
1.27062e-05
1.27248e-05
1.27451e-05
1.2767e-05
1.27896e-05
1.28119e-05
1.28327e-05
1.28508e-05
1.28657e-05
1.28772e-05
1.28855e-05
1.28911e-05
1.28946e-05
1.28965e-05
1.28973e-05
1.27669e-05
1.27663e-05
1.27647e-05
1.27618e-05
1.27573e-05
1.27509e-05
1.27423e-05
1.27317e-05
1.27197e-05
1.27069e-05
1.26944e-05
1.26832e-05
1.26747e-05
1.267e-05
1.26703e-05
1.26764e-05
1.26886e-05
1.27049e-05
1.27234e-05
1.27437e-05
1.27654e-05
1.2788e-05
1.28104e-05
1.28313e-05
1.28496e-05
1.28647e-05
1.28764e-05
1.28849e-05
1.28907e-05
1.28943e-05
1.28963e-05
1.28971e-05
1.27665e-05
1.27658e-05
1.27642e-05
1.27613e-05
1.27567e-05
1.275e-05
1.27411e-05
1.27303e-05
1.27179e-05
1.27047e-05
1.26916e-05
1.26799e-05
1.26712e-05
1.26667e-05
1.26674e-05
1.2674e-05
1.26866e-05
1.2703e-05
1.27214e-05
1.27416e-05
1.27631e-05
1.27856e-05
1.2808e-05
1.28291e-05
1.28477e-05
1.28632e-05
1.28753e-05
1.28841e-05
1.289e-05
1.28938e-05
1.28958e-05
1.28966e-05
1.27659e-05
1.27652e-05
1.27636e-05
1.27606e-05
1.27558e-05
1.27489e-05
1.27398e-05
1.27285e-05
1.27156e-05
1.27015e-05
1.26874e-05
1.26747e-05
1.26655e-05
1.26613e-05
1.26629e-05
1.26704e-05
1.26837e-05
1.27005e-05
1.2719e-05
1.2739e-05
1.27603e-05
1.27826e-05
1.2805e-05
1.28263e-05
1.28453e-05
1.28612e-05
1.28737e-05
1.28829e-05
1.28891e-05
1.2893e-05
1.28951e-05
1.2896e-05
1.2765e-05
1.27643e-05
1.27627e-05
1.27597e-05
1.27548e-05
1.27478e-05
1.27384e-05
1.27265e-05
1.27127e-05
1.26973e-05
1.26814e-05
1.26671e-05
1.26571e-05
1.26534e-05
1.26562e-05
1.26653e-05
1.26799e-05
1.26974e-05
1.27162e-05
1.27362e-05
1.27574e-05
1.27795e-05
1.28018e-05
1.28232e-05
1.28426e-05
1.2859e-05
1.28719e-05
1.28815e-05
1.2888e-05
1.28921e-05
1.28943e-05
1.28952e-05
1.27636e-05
1.2763e-05
1.27614e-05
1.27585e-05
1.27536e-05
1.27465e-05
1.27367e-05
1.27242e-05
1.2709e-05
1.26917e-05
1.26733e-05
1.26567e-05
1.26456e-05
1.26424e-05
1.26471e-05
1.26587e-05
1.26753e-05
1.26941e-05
1.27136e-05
1.27339e-05
1.2755e-05
1.2777e-05
1.27992e-05
1.28206e-05
1.28402e-05
1.28569e-05
1.28703e-05
1.28801e-05
1.28869e-05
1.28911e-05
1.28934e-05
1.28944e-05
1.27613e-05
1.27608e-05
1.27593e-05
1.27565e-05
1.27518e-05
1.27446e-05
1.27345e-05
1.2721e-05
1.27041e-05
1.26841e-05
1.26625e-05
1.2643e-05
1.26305e-05
1.26281e-05
1.26354e-05
1.26502e-05
1.26698e-05
1.26907e-05
1.27115e-05
1.27324e-05
1.27539e-05
1.27758e-05
1.27979e-05
1.28192e-05
1.28388e-05
1.28557e-05
1.28691e-05
1.28791e-05
1.2886e-05
1.28904e-05
1.28927e-05
1.28937e-05
1.27571e-05
1.27567e-05
1.27554e-05
1.27528e-05
1.27483e-05
1.27411e-05
1.27305e-05
1.27159e-05
1.26967e-05
1.26734e-05
1.26481e-05
1.26254e-05
1.26117e-05
1.26105e-05
1.2621e-05
1.26399e-05
1.26632e-05
1.2687e-05
1.27099e-05
1.27323e-05
1.27546e-05
1.27768e-05
1.27989e-05
1.282e-05
1.28393e-05
1.28559e-05
1.28692e-05
1.2879e-05
1.28858e-05
1.28901e-05
1.28924e-05
1.28934e-05
1.27491e-05
1.27487e-05
1.27477e-05
1.27453e-05
1.2741e-05
1.27337e-05
1.27225e-05
1.27064e-05
1.26846e-05
1.26577e-05
1.26284e-05
1.2603e-05
1.25886e-05
1.25894e-05
1.26037e-05
1.26271e-05
1.26546e-05
1.26821e-05
1.27082e-05
1.27332e-05
1.27572e-05
1.27805e-05
1.28028e-05
1.28237e-05
1.28424e-05
1.28583e-05
1.28708e-05
1.28801e-05
1.28865e-05
1.28905e-05
1.28927e-05
1.28936e-05
1.27337e-05
1.27334e-05
1.27325e-05
1.27303e-05
1.2726e-05
1.27184e-05
1.27062e-05
1.26883e-05
1.26638e-05
1.26334e-05
1.26011e-05
1.25741e-05
1.25606e-05
1.25642e-05
1.25823e-05
1.26095e-05
1.26406e-05
1.26723e-05
1.27029e-05
1.27322e-05
1.27598e-05
1.27854e-05
1.28089e-05
1.28298e-05
1.28478e-05
1.28626e-05
1.2874e-05
1.28823e-05
1.28878e-05
1.28912e-05
1.2893e-05
1.28938e-05
1.27059e-05
1.27056e-05
1.27047e-05
1.27023e-05
1.26976e-05
1.26892e-05
1.26758e-05
1.2656e-05
1.26291e-05
1.25967e-05
1.25632e-05
1.25369e-05
1.25257e-05
1.25322e-05
1.25523e-05
1.25804e-05
1.26128e-05
1.2648e-05
1.26844e-05
1.27205e-05
1.27545e-05
1.27853e-05
1.28121e-05
1.28345e-05
1.28525e-05
1.28662e-05
1.28762e-05
1.28828e-05
1.28869e-05
1.28891e-05
1.28901e-05
1.28903e-05
1.26612e-05
1.26607e-05
1.26593e-05
1.26563e-05
1.26507e-05
1.26412e-05
1.26264e-05
1.2605e-05
1.2577e-05
1.25443e-05
1.25122e-05
1.24886e-05
1.24799e-05
1.24864e-05
1.2503e-05
1.25251e-05
1.25523e-05
1.25868e-05
1.26278e-05
1.26723e-05
1.27166e-05
1.27575e-05
1.27926e-05
1.28207e-05
1.28417e-05
1.2856e-05
1.28647e-05
1.28693e-05
1.28708e-05
1.28707e-05
1.287e-05
1.28694e-05
1.2599e-05
1.25982e-05
1.25962e-05
1.25922e-05
1.25853e-05
1.25743e-05
1.2558e-05
1.25355e-05
1.25071e-05
1.24754e-05
1.24455e-05
1.24237e-05
1.2413e-05
1.24111e-05
1.24129e-05
1.24159e-05
1.24243e-05
1.24456e-05
1.24812e-05
1.25279e-05
1.25808e-05
1.26349e-05
1.26849e-05
1.27271e-05
1.27591e-05
1.27803e-05
1.27917e-05
1.27957e-05
1.27952e-05
1.27925e-05
1.27896e-05
1.27879e-05
1.25268e-05
1.25258e-05
1.25231e-05
1.2518e-05
1.25093e-05
1.24959e-05
1.24768e-05
1.24515e-05
1.24209e-05
1.23879e-05
1.23561e-05
1.23284e-05
1.2304e-05
1.22792e-05
1.22505e-05
1.22174e-05
1.21873e-05
1.2173e-05
1.21794e-05
1.22046e-05
1.22453e-05
1.22966e-05
1.2353e-05
1.24093e-05
1.24601e-05
1.25012e-05
1.25302e-05
1.25477e-05
1.25559e-05
1.25579e-05
1.2557e-05
1.25557e-05
1.24579e-05
1.24567e-05
1.24535e-05
1.24472e-05
1.24363e-05
1.24196e-05
1.2396e-05
1.23653e-05
1.23285e-05
1.22875e-05
1.2244e-05
1.2198e-05
1.21475e-05
1.20899e-05
1.20233e-05
1.19479e-05
1.18724e-05
1.18118e-05
1.17714e-05
1.17502e-05
1.17475e-05
1.17623e-05
1.17927e-05
1.18353e-05
1.18855e-05
1.19381e-05
1.19874e-05
1.20288e-05
1.2059e-05
1.20778e-05
1.20872e-05
1.20903e-05
1.24068e-05
1.24056e-05
1.24023e-05
1.23956e-05
1.23837e-05
1.2365e-05
1.23381e-05
1.23022e-05
1.22578e-05
1.22061e-05
1.21485e-05
1.20853e-05
1.2016e-05
1.19397e-05
1.18569e-05
1.17698e-05
1.16866e-05
1.16165e-05
1.1558e-05
1.15076e-05
1.14659e-05
1.1435e-05
1.14171e-05
1.14134e-05
1.14241e-05
1.14472e-05
1.14787e-05
1.15129e-05
1.15441e-05
1.15678e-05
1.15824e-05
1.15886e-05
1.23742e-05
1.23731e-05
1.23699e-05
1.23633e-05
1.23517e-05
1.23331e-05
1.23058e-05
1.22687e-05
1.22217e-05
1.2166e-05
1.21033e-05
1.20352e-05
1.19631e-05
1.18888e-05
1.18154e-05
1.17473e-05
1.16918e-05
1.1648e-05
1.16047e-05
1.15565e-05
1.15044e-05
1.1452e-05
1.14038e-05
1.13638e-05
1.13347e-05
1.13178e-05
1.13125e-05
1.13164e-05
1.13257e-05
1.13362e-05
1.13443e-05
1.13484e-05
1.23545e-05
1.23534e-05
1.23505e-05
1.23444e-05
1.23338e-05
1.23166e-05
1.22912e-05
1.22561e-05
1.22111e-05
1.2157e-05
1.20958e-05
1.20301e-05
1.19627e-05
1.18969e-05
1.18372e-05
1.17886e-05
1.17565e-05
1.17332e-05
1.17026e-05
1.16578e-05
1.16e-05
1.15341e-05
1.14671e-05
1.14056e-05
1.13547e-05
1.13166e-05
1.12916e-05
1.12779e-05
1.12727e-05
1.12727e-05
1.12746e-05
1.12761e-05
1.23428e-05
1.23419e-05
1.23392e-05
1.23338e-05
1.23244e-05
1.23093e-05
1.22867e-05
1.22553e-05
1.22145e-05
1.2165e-05
1.21088e-05
1.20487e-05
1.19882e-05
1.1931e-05
1.18816e-05
1.18445e-05
1.1823e-05
1.18071e-05
1.17814e-05
1.17389e-05
1.16789e-05
1.16052e-05
1.15248e-05
1.1446e-05
1.13767e-05
1.13217e-05
1.12828e-05
1.12586e-05
1.12462e-05
1.12415e-05
1.12409e-05
1.12415e-05
1.23353e-05
1.23345e-05
1.23323e-05
1.23278e-05
1.23198e-05
1.23069e-05
1.22875e-05
1.22603e-05
1.22247e-05
1.21812e-05
1.21314e-05
1.20781e-05
1.20245e-05
1.19741e-05
1.19306e-05
1.18973e-05
1.18757e-05
1.18569e-05
1.18294e-05
1.17868e-05
1.17274e-05
1.16528e-05
1.15677e-05
1.14799e-05
1.13982e-05
1.13295e-05
1.12779e-05
1.12437e-05
1.12244e-05
1.12159e-05
1.12136e-05
1.12137e-05
1.23276e-05
1.23272e-05
1.23257e-05
1.23225e-05
1.23163e-05
1.23059e-05
1.22898e-05
1.22669e-05
1.22365e-05
1.21991e-05
1.21558e-05
1.21089e-05
1.2061e-05
1.20148e-05
1.19729e-05
1.19372e-05
1.19084e-05
1.18809e-05
1.18474e-05
1.18027e-05
1.17443e-05
1.1672e-05
1.15885e-05
1.14993e-05
1.14122e-05
1.13352e-05
1.1274e-05
1.12311e-05
1.12052e-05
1.11928e-05
1.11887e-05
1.11884e-05
1.23141e-05
1.23143e-05
1.23143e-05
1.23131e-05
1.23095e-05
1.23021e-05
1.22896e-05
1.22707e-05
1.2245e-05
1.22125e-05
1.21743e-05
1.21318e-05
1.2087e-05
1.20416e-05
1.19974e-05
1.19551e-05
1.19157e-05
1.18778e-05
1.18375e-05
1.17905e-05
1.17336e-05
1.16655e-05
1.15871e-05
1.15019e-05
1.1416e-05
1.13362e-05
1.12694e-05
1.12198e-05
1.11882e-05
1.11718e-05
1.11659e-05
1.11652e-05
1.22885e-05
1.22898e-05
1.22919e-05
1.22937e-05
1.22935e-05
1.22897e-05
1.22806e-05
1.2265e-05
1.22424e-05
1.22128e-05
1.21768e-05
1.21355e-05
1.20903e-05
1.20426e-05
1.19934e-05
1.19429e-05
1.18931e-05
1.18464e-05
1.18013e-05
1.17534e-05
1.16997e-05
1.16376e-05
1.15667e-05
1.14889e-05
1.14085e-05
1.1331e-05
1.12627e-05
1.12091e-05
1.11729e-05
1.11529e-05
1.11451e-05
1.11438e-05
1.2245e-05
1.22478e-05
1.22527e-05
1.22578e-05
1.22612e-05
1.22605e-05
1.22538e-05
1.22397e-05
1.22176e-05
1.21877e-05
1.21507e-05
1.21076e-05
1.20597e-05
1.20081e-05
1.19538e-05
1.18966e-05
1.18397e-05
1.17881e-05
1.17412e-05
1.16951e-05
1.16461e-05
1.15916e-05
1.15301e-05
1.14622e-05
1.13903e-05
1.13188e-05
1.12528e-05
1.11982e-05
1.1159e-05
1.1136e-05
1.11262e-05
1.11243e-05
1.21793e-05
1.21839e-05
1.21914e-05
1.21992e-05
1.22045e-05
1.22048e-05
1.21979e-05
1.21824e-05
1.2158e-05
1.21253e-05
1.20852e-05
1.20392e-05
1.19884e-05
1.19342e-05
1.18772e-05
1.18173e-05
1.17584e-05
1.17066e-05
1.16616e-05
1.16195e-05
1.15769e-05
1.15309e-05
1.14798e-05
1.14231e-05
1.1362e-05
1.12991e-05
1.12387e-05
1.11861e-05
1.11459e-05
1.11207e-05
1.11092e-05
1.11066e-05
1.20888e-05
1.20951e-05
1.21041e-05
1.21119e-05
1.21157e-05
1.2113e-05
1.21024e-05
1.20828e-05
1.20545e-05
1.20186e-05
1.19762e-05
1.19289e-05
1.18779e-05
1.18244e-05
1.17689e-05
1.17115e-05
1.16558e-05
1.1608e-05
1.15678e-05
1.15315e-05
1.14961e-05
1.1459e-05
1.14184e-05
1.13734e-05
1.13241e-05
1.12719e-05
1.12196e-05
1.11717e-05
1.11329e-05
1.11069e-05
1.1094e-05
1.10907e-05
1.19721e-05
1.19795e-05
1.19872e-05
1.19907e-05
1.19881e-05
1.19788e-05
1.19622e-05
1.1938e-05
1.19069e-05
1.18701e-05
1.18286e-05
1.17837e-05
1.17365e-05
1.1688e-05
1.16385e-05
1.1588e-05
1.15398e-05
1.14991e-05
1.14657e-05
1.14363e-05
1.14084e-05
1.13799e-05
1.13493e-05
1.13154e-05
1.12779e-05
1.12372e-05
1.11949e-05
1.11541e-05
1.11192e-05
1.1094e-05
1.10805e-05
1.10765e-05
1.18276e-05
1.18343e-05
1.18364e-05
1.1831e-05
1.18193e-05
1.18024e-05
1.17808e-05
1.17547e-05
1.17245e-05
1.16909e-05
1.16545e-05
1.16162e-05
1.15768e-05
1.15369e-05
1.14969e-05
1.14565e-05
1.14185e-05
1.13867e-05
1.1361e-05
1.13389e-05
1.13183e-05
1.12977e-05
1.12759e-05
1.1252e-05
1.12254e-05
1.11962e-05
1.11647e-05
1.11329e-05
1.11039e-05
1.10816e-05
1.10685e-05
1.10641e-05
1.16514e-05
1.16541e-05
1.16465e-05
1.16316e-05
1.16131e-05
1.15928e-05
1.1571e-05
1.15477e-05
1.15228e-05
1.14963e-05
1.14687e-05
1.14402e-05
1.14114e-05
1.13825e-05
1.13539e-05
1.13253e-05
1.12985e-05
1.12764e-05
1.12586e-05
1.12435e-05
1.12297e-05
1.12161e-05
1.1202e-05
1.11866e-05
1.11695e-05
1.11505e-05
1.11296e-05
1.11076e-05
1.10864e-05
1.10688e-05
1.10576e-05
1.10533e-05
1.14365e-05
1.14315e-05
1.14165e-05
1.13996e-05
1.13826e-05
1.13662e-05
1.13501e-05
1.13343e-05
1.13183e-05
1.13019e-05
1.12851e-05
1.1268e-05
1.12509e-05
1.12339e-05
1.12171e-05
1.12005e-05
1.11851e-05
1.11723e-05
1.11621e-05
1.11535e-05
1.11458e-05
1.11383e-05
1.11305e-05
1.11222e-05
1.11129e-05
1.11026e-05
1.10912e-05
1.10788e-05
1.10663e-05
1.10552e-05
1.10474e-05
1.10441e-05
1.1174e-05
1.117e-05
1.11623e-05
1.11549e-05
1.1148e-05
1.11417e-05
1.11358e-05
1.11303e-05
1.11248e-05
1.11193e-05
1.11138e-05
1.11082e-05
1.11026e-05
1.10971e-05
1.10917e-05
1.10863e-05
1.10813e-05
1.10772e-05
1.1074e-05
1.10712e-05
1.10688e-05
1.10664e-05
1.1064e-05
1.10614e-05
1.10585e-05
1.10554e-05
1.10518e-05
1.1048e-05
1.1044e-05
1.10403e-05
1.10375e-05
1.10361e-05
)
;

boundaryField
{
    movingWall
    {
        type            fixedValue;
        value           uniform 1.1032e-05;
    }
    fixedWalls
    {
        type            zeroGradient;
    }
    floor
    {
        type            zeroGradient;
    }
    frontAndBack
    {
        type            empty;
    }
}


// ************************************************************************* //
