/*--------------------------------*- C++ -*----------------------------------*\
| =========                 |                                                 |
| \\      /  F ield         | OpenFOAM: The Open Source CFD Toolbox           |
|  \\    /   O peration     | Version:  2212                                  |
|   \\  /    A nd           | Website:  www.openfoam.com                      |
|    \\/     M anipulation  |                                                 |
\*---------------------------------------------------------------------------*/
FoamFile
{
    version     2.0;
    format      ascii;
    arch        "LSB;label=64;scalar=64";
    class       volScalarField;
    location    "1280";
    object      p;
}
// * * * * * * * * * * * * * * * * * * * * * * * * * * * * * * * * * * * * * //

dimensions      [0 2 -2 0 0 0 0];

internalField   nonuniform List<scalar> 
1024
(
0
-1.89433e-06
-3.98232e-06
-4.58187e-06
-2.37639e-06
3.76913e-06
1.53543e-05
3.46432e-05
6.44737e-05
0.000106216
0.00015329
0.000188905
0.000192644
0.000163447
0.000107824
4.34033e-05
-1.42683e-05
-5.61132e-05
-8.35647e-05
-0.000101093
-0.00011204
-0.000118736
-0.000122829
-0.000125475
-0.000127387
-0.000128848
-0.000129792
-0.000130016
-0.00012945
-0.000128317
-0.000127095
-0.000126349
-0.0928107
-0.0928128
-0.0928147
-0.0928151
-0.0928132
-0.0928078
-0.0927974
-0.0927796
-0.0927514
-0.0927116
-0.0926665
-0.0926322
-0.0926278
-0.0926553
-0.0927094
-0.0927726
-0.0928294
-0.0928706
-0.0928976
-0.0929147
-0.0929253
-0.0929317
-0.0929356
-0.0929379
-0.0929395
-0.0929407
-0.0929414
-0.0929414
-0.0929409
-0.0929399
-0.0929389
-0.0929381
-0.199425
-0.199427
-0.19943
-0.19943
-0.199429
-0.199425
-0.199417
-0.199401
-0.199376
-0.199338
-0.199296
-0.199263
-0.199258
-0.199283
-0.199335
-0.199396
-0.199451
-0.199491
-0.199517
-0.199533
-0.199543
-0.199549
-0.199552
-0.199554
-0.199555
-0.199556
-0.199556
-0.199556
-0.199555
-0.199554
-0.199553
-0.199552
-0.321898
-0.321901
-0.321904
-0.321905
-0.321905
-0.321904
-0.321898
-0.321886
-0.321863
-0.321829
-0.321789
-0.321759
-0.321753
-0.321776
-0.321824
-0.321882
-0.321934
-0.321972
-0.321997
-0.322012
-0.32202
-0.322025
-0.322027
-0.322028
-0.322028
-0.322027
-0.322027
-0.322026
-0.322025
-0.322024
-0.322023
-0.322021
-0.462591
-0.462595
-0.462598
-0.462601
-0.462603
-0.462604
-0.462602
-0.462593
-0.462575
-0.462544
-0.462507
-0.462479
-0.462472
-0.462493
-0.462538
-0.462591
-0.462639
-0.462674
-0.462696
-0.462709
-0.462716
-0.462719
-0.462719
-0.462718
-0.462717
-0.462715
-0.462713
-0.462712
-0.462711
-0.462709
-0.462707
-0.462705
-0.624217
-0.624221
-0.624224
-0.624228
-0.624232
-0.624236
-0.624238
-0.624234
-0.624219
-0.624192
-0.624159
-0.624134
-0.624126
-0.624145
-0.624185
-0.624233
-0.624276
-0.624307
-0.624326
-0.624336
-0.624341
-0.624341
-0.624339
-0.624336
-0.624333
-0.624329
-0.624326
-0.624324
-0.624321
-0.624319
-0.624317
-0.624314
-0.809889
-0.809891
-0.809895
-0.809899
-0.809905
-0.809912
-0.809918
-0.809918
-0.809907
-0.809884
-0.809854
-0.809832
-0.809825
-0.809843
-0.80988
-0.809922
-0.80996
-0.809986
-0.810001
-0.810007
-0.810009
-0.810006
-0.810001
-0.809996
-0.809989
-0.809983
-0.809978
-0.809975
-0.809971
-0.809969
-0.809966
-0.809963
-1.02318
-1.02318
-1.02318
-1.02319
-1.02319
-1.0232
-1.02321
-1.02321
-1.02321
-1.02319
-1.02316
-1.02315
-1.02314
-1.02316
-1.02319
-1.02323
-1.02326
-1.02328
-1.0233
-1.0233
-1.0233
-1.02329
-1.02328
-1.02327
-1.02326
-1.02326
-1.02325
-1.02324
-1.02324
-1.02323
-1.02323
-1.02323
-1.26819
-1.26819
-1.26819
-1.26819
-1.2682
-1.26821
-1.26822
-1.26822
-1.26822
-1.26821
-1.26819
-1.26818
-1.26818
-1.2682
-1.26823
-1.26826
-1.26829
-1.26831
-1.26832
-1.26831
-1.26831
-1.2683
-1.26829
-1.26828
-1.26826
-1.26825
-1.26824
-1.26824
-1.26823
-1.26823
-1.26822
-1.26822
-1.54962
-1.54962
-1.54962
-1.54962
-1.54963
-1.54964
-1.54965
-1.54965
-1.54965
-1.54965
-1.54964
-1.54964
-1.54965
-1.54967
-1.5497
-1.54973
-1.54976
-1.54977
-1.54978
-1.54977
-1.54976
-1.54975
-1.54974
-1.54972
-1.54971
-1.54969
-1.54968
-1.54967
-1.54967
-1.54966
-1.54966
-1.54966
-1.87291
-1.8729
-1.8729
-1.8729
-1.87291
-1.87291
-1.87292
-1.87292
-1.87293
-1.87293
-1.87293
-1.87294
-1.87296
-1.87299
-1.87303
-1.87305
-1.87308
-1.87309
-1.87309
-1.87308
-1.87307
-1.87306
-1.87304
-1.87302
-1.873
-1.87299
-1.87297
-1.87296
-1.87296
-1.87295
-1.87295
-1.87295
-2.24426
-2.24425
-2.24425
-2.24425
-2.24425
-2.24426
-2.24426
-2.24427
-2.24427
-2.24428
-2.2443
-2.24432
-2.24435
-2.24438
-2.24442
-2.24444
-2.24447
-2.24448
-2.24448
-2.24447
-2.24445
-2.24443
-2.24441
-2.24439
-2.24437
-2.24435
-2.24434
-2.24433
-2.24432
-2.24432
-2.24432
-2.24432
-2.67084
-2.67083
-2.67083
-2.67083
-2.67083
-2.67083
-2.67084
-2.67084
-2.67085
-2.67087
-2.67089
-2.67092
-2.67096
-2.67099
-2.67103
-2.67106
-2.67107
-2.67108
-2.67108
-2.67106
-2.67104
-2.67101
-2.67099
-2.67096
-2.67094
-2.67092
-2.6709
-2.6709
-2.67089
-2.67089
-2.67089
-2.67089
-3.16087
-3.16087
-3.16087
-3.16086
-3.16086
-3.16087
-3.16087
-3.16088
-3.16089
-3.16091
-3.16093
-3.16097
-3.161
-3.16104
-3.16108
-3.16111
-3.16112
-3.16112
-3.1611
-3.16107
-3.16104
-3.161
-3.16096
-3.16093
-3.16091
-3.16089
-3.16088
-3.16088
-3.16088
-3.16088
-3.16088
-3.16088
-3.72379
-3.72379
-3.72379
-3.72379
-3.72379
-3.72379
-3.7238
-3.7238
-3.72381
-3.72383
-3.72386
-3.7239
-3.72395
-3.72399
-3.72403
-3.72407
-3.72408
-3.72407
-3.72403
-3.72398
-3.72392
-3.72385
-3.7238
-3.72375
-3.72372
-3.72371
-3.7237
-3.72371
-3.72371
-3.72372
-3.72372
-3.72372
-4.37044
-4.37044
-4.37045
-4.37045
-4.37045
-4.37046
-4.37047
-4.37048
-4.3705
-4.37053
-4.37056
-4.3706
-4.37065
-4.3707
-4.37076
-4.37081
-4.37084
-4.37083
-4.37079
-4.37073
-4.37065
-4.37056
-4.37047
-4.37041
-4.37036
-4.37034
-4.37033
-4.37033
-4.37033
-4.37034
-4.37034
-4.37034
-5.06193
-5.06193
-5.06193
-5.06193
-5.06194
-5.06195
-5.06196
-5.06197
-5.062
-5.06203
-5.06207
-5.06211
-5.06217
-5.06224
-5.06231
-5.06238
-5.06243
-5.06244
-5.06241
-5.06236
-5.06228
-5.06219
-5.0621
-5.06202
-5.06195
-5.06191
-5.06188
-5.06187
-5.06187
-5.06188
-5.06188
-5.06189
-5.70871
-5.70871
-5.70871
-5.70871
-5.70872
-5.70873
-5.70874
-5.70876
-5.70878
-5.70882
-5.70886
-5.70891
-5.70897
-5.70905
-5.70913
-5.70921
-5.70927
-5.7093
-5.70929
-5.70925
-5.70919
-5.70911
-5.70903
-5.70894
-5.70886
-5.7088
-5.70876
-5.70874
-5.70874
-5.70874
-5.70875
-5.70875
-6.27177
-6.27178
-6.27178
-6.27178
-6.27178
-6.27179
-6.27181
-6.27183
-6.27185
-6.27188
-6.27193
-6.27198
-6.27205
-6.27213
-6.27221
-6.2723
-6.27237
-6.2724
-6.27239
-6.27236
-6.27232
-6.27226
-6.27219
-6.27212
-6.27204
-6.27197
-6.27192
-6.27189
-6.27188
-6.27188
-6.27188
-6.27189
-6.76194
-6.76194
-6.76194
-6.76195
-6.76195
-6.76196
-6.76197
-6.76199
-6.76201
-6.76205
-6.76209
-6.76215
-6.76221
-6.76229
-6.76238
-6.76247
-6.76255
-6.76258
-6.76257
-6.76255
-6.76251
-6.76247
-6.76241
-6.76235
-6.76228
-6.76221
-6.76215
-6.76211
-6.76209
-6.76209
-6.76209
-6.7621
-7.18865
-7.18864
-7.18864
-7.18865
-7.18865
-7.18866
-7.18867
-7.18868
-7.18871
-7.18874
-7.18878
-7.18884
-7.18891
-7.18899
-7.18908
-7.18918
-7.18925
-7.18928
-7.18927
-7.18925
-7.18921
-7.18917
-7.18912
-7.18907
-7.189
-7.18893
-7.18887
-7.18882
-7.1888
-7.18879
-7.18879
-7.1888
-7.5601
-7.5601
-7.5601
-7.5601
-7.5601
-7.56011
-7.56011
-7.56013
-7.56015
-7.56018
-7.56022
-7.56028
-7.56035
-7.56044
-7.56053
-7.56063
-7.56071
-7.56073
-7.56073
-7.5607
-7.56066
-7.56061
-7.56056
-7.5605
-7.56044
-7.56036
-7.56029
-7.56024
-7.5602
-7.56019
-7.56019
-7.5602
-7.88346
-7.88346
-7.88346
-7.88346
-7.88346
-7.88346
-7.88347
-7.88348
-7.88349
-7.88352
-7.88357
-7.88363
-7.8837
-7.88379
-7.88389
-7.88399
-7.88407
-7.8841
-7.88409
-7.88405
-7.88401
-7.88395
-7.88388
-7.88381
-7.88374
-7.88366
-7.88358
-7.8835
-7.88345
-7.88343
-7.88343
-7.88344
-8.16497
-8.16497
-8.16497
-8.16496
-8.16496
-8.16496
-8.16495
-8.16496
-8.16497
-8.165
-8.16504
-8.1651
-8.16518
-8.16528
-8.16538
-8.16549
-8.16557
-8.1656
-8.16559
-8.16555
-8.1655
-8.16543
-8.16535
-8.16525
-8.16515
-8.16505
-8.16495
-8.16485
-8.16477
-8.16473
-8.16472
-8.16473
-8.41003
-8.41003
-8.41003
-8.41002
-8.41002
-8.41001
-8.41
-8.40999
-8.41
-8.41003
-8.41007
-8.41014
-8.41022
-8.41032
-8.41044
-8.41054
-8.41063
-8.41066
-8.41065
-8.41061
-8.41055
-8.41047
-8.41037
-8.41025
-8.41011
-8.40997
-8.40983
-8.40969
-8.40958
-8.40951
-8.40948
-8.40949
-8.62337
-8.62337
-8.62337
-8.62336
-8.62335
-8.62333
-8.62331
-8.6233
-8.62331
-8.62333
-8.62338
-8.62345
-8.62354
-8.62365
-8.62376
-8.62388
-8.62396
-8.62399
-8.62398
-8.62394
-8.62388
-8.62378
-8.62367
-8.62352
-8.62334
-8.62315
-8.62295
-8.62276
-8.62259
-8.62247
-8.62242
-8.62241
-8.80911
-8.80911
-8.80911
-8.80909
-8.80906
-8.80903
-8.80901
-8.80899
-8.809
-8.80902
-8.80908
-8.80915
-8.80925
-8.80936
-8.80948
-8.80959
-8.80968
-8.80971
-8.8097
-8.80966
-8.80959
-8.80949
-8.80935
-8.80917
-8.80896
-8.80871
-8.80844
-8.80817
-8.80792
-8.80773
-8.80762
-8.80759
-8.97082
-8.97082
-8.97081
-8.97078
-8.97074
-8.9707
-8.97066
-8.97064
-8.97065
-8.97068
-8.97073
-8.97081
-8.97091
-8.97102
-8.97115
-8.97127
-8.97135
-8.97139
-8.97138
-8.97134
-8.97126
-8.97115
-8.971
-8.9708
-8.97054
-8.97024
-8.96989
-8.96953
-8.96918
-8.96888
-8.96867
-8.96858
-9.11166
-9.11164
-9.11161
-9.11155
-9.11149
-9.11143
-9.11139
-9.11137
-9.11137
-9.1114
-9.11146
-9.11154
-9.11165
-9.11177
-9.11189
-9.11201
-9.1121
-9.11214
-9.11213
-9.11209
-9.11201
-9.11189
-9.11172
-9.1115
-9.11121
-9.11086
-9.11045
-9.10999
-9.10951
-9.10905
-9.10869
-9.10846
-9.23437
-9.2343
-9.2342
-9.23409
-9.23401
-9.23394
-9.23389
-9.23387
-9.23388
-9.23391
-9.23397
-9.23406
-9.23417
-9.23429
-9.23441
-9.23454
-9.23463
-9.23467
-9.23466
-9.23461
-9.23453
-9.23441
-9.23423
-9.234
-9.23369
-9.23331
-9.23284
-9.2323
-9.23167
-9.231
-9.23037
-9.22982
-9.34153
-9.34114
-9.3409
-9.34075
-9.34065
-9.34057
-9.34053
-9.34051
-9.34052
-9.34056
-9.34063
-9.34072
-9.34082
-9.34095
-9.34108
-9.3412
-9.34129
-9.34133
-9.34133
-9.34128
-9.3412
-9.34107
-9.34089
-9.34065
-9.34034
-9.33994
-9.33944
-9.33884
-9.3381
-9.33719
-9.33609
-9.33483
-9.43541
-9.43417
-9.43371
-9.43356
-9.43346
-9.43339
-9.43335
-9.43334
-9.43336
-9.4334
-9.43347
-9.43356
-9.43368
-9.4338
-9.43393
-9.43406
-9.43415
-9.43419
-9.43419
-9.43414
-9.43406
-9.43393
-9.43376
-9.43351
-9.4332
-9.43279
-9.43229
-9.43166
-9.43085
-9.42975
-9.42814
-9.42589
)
;

boundaryField
{
    movingWall
    {
        type            calculated;
        value           nonuniform List<scalar> 
32
(
-9.47863
-9.47739
-9.47692
-9.47677
-9.47668
-9.47661
-9.47657
-9.47656
-9.47657
-9.47662
-9.47669
-9.47678
-9.47689
-9.47702
-9.47715
-9.47728
-9.47737
-9.47741
-9.47741
-9.47736
-9.47728
-9.47715
-9.47697
-9.47673
-9.47641
-9.47601
-9.47551
-9.47488
-9.47407
-9.47297
-9.47136
-9.4691
)
;
    }
    fixedWalls
    {
        type            calculated;
        value           nonuniform List<scalar> 
64
(
6.93889e-18
-0.0928107
-0.199425
-0.321898
-0.462591
-0.624217
-0.809889
-1.02318
-1.26819
-1.54962
-1.87291
-2.24426
-2.67084
-3.16087
-3.72379
-4.37044
-5.06193
-5.70871
-6.27177
-6.76194
-7.18865
-7.5601
-7.88346
-8.16497
-8.41003
-8.62337
-8.80911
-8.97082
-9.11166
-9.23437
-9.34153
-9.43541
-0.000126349
-0.0929381
-0.199552
-0.322021
-0.462705
-0.624314
-0.809963
-1.02323
-1.26822
-1.54966
-1.87295
-2.24432
-2.67089
-3.16088
-3.72372
-4.37034
-5.06189
-5.70875
-6.27189
-6.7621
-7.1888
-7.5602
-7.88344
-8.16473
-8.40949
-8.62241
-8.80759
-8.96858
-9.10846
-9.22982
-9.33483
-9.42589
)
;
    }
    floor
    {
        type            calculated;
        value           nonuniform List<scalar> 
32
(
0.0431943
0.0431926
0.0431906
0.04319
0.0431923
0.0431985
0.0432102
0.0432296
0.0432596
0.0433015
0.0433487
0.0433844
0.0433882
0.0433589
0.0433031
0.0432385
0.0431808
0.0431388
0.0431113
0.0430937
0.0430827
0.043076
0.0430718
0.0430691
0.0430672
0.0430657
0.0430647
0.0430645
0.043065
0.0430661
0.0430673
0.0430681
)
;
    }
    frontAndBack
    {
        type            empty;
    }
}


// ************************************************************************* //
