/*--------------------------------*- C++ -*----------------------------------*\
| =========                 |                                                 |
| \\      /  F ield         | OpenFOAM: The Open Source CFD Toolbox           |
|  \\    /   O peration     | Version:  2212                                  |
|   \\  /    A nd           | Website:  www.openfoam.com                      |
|    \\/     M anipulation  |                                                 |
\*---------------------------------------------------------------------------*/
FoamFile
{
    version     2.0;
    format      ascii;
    arch        "LSB;label=64;scalar=64";
    class       volScalarField;
    location    "1280";
    object      Xli;
}
// * * * * * * * * * * * * * * * * * * * * * * * * * * * * * * * * * * * * * //

dimensions      [1 -3 0 0 0 0 0];

internalField   nonuniform List<scalar> 
1024
(
0.0423396
0.0423399
0.0423409
0.0423429
0.042346
0.0423504
0.0423564
0.0423638
0.0423723
0.0423813
0.0423902
0.0423981
0.0424042
0.0424077
0.0424077
0.0424035
0.0423948
0.042383
0.0423696
0.0423549
0.0423391
0.0423228
0.0423068
0.0422919
0.0422789
0.0422683
0.0422602
0.0422542
0.0422502
0.0422478
0.0422464
0.0422458
0.0423395
0.0423399
0.042341
0.042343
0.0423461
0.0423507
0.0423567
0.0423642
0.0423728
0.0423818
0.0423907
0.0423987
0.0424048
0.0424082
0.0424082
0.0424039
0.0423952
0.0423835
0.0423701
0.0423554
0.0423397
0.0423234
0.0423073
0.0422924
0.0422793
0.0422686
0.0422604
0.0422544
0.0422504
0.0422478
0.0422465
0.0422459
0.0423396
0.0423401
0.0423412
0.0423432
0.0423465
0.0423511
0.0423573
0.0423649
0.0423736
0.0423828
0.0423919
0.0424
0.0424062
0.0424095
0.0424093
0.042405
0.0423961
0.0423844
0.0423711
0.0423564
0.0423408
0.0423245
0.0423085
0.0422934
0.0422802
0.0422693
0.0422609
0.0422548
0.0422507
0.0422481
0.0422467
0.0422461
0.0423399
0.0423404
0.0423415
0.0423436
0.0423469
0.0423517
0.0423581
0.042366
0.0423749
0.0423844
0.0423939
0.0424024
0.0424087
0.0424119
0.0424114
0.0424067
0.0423976
0.0423858
0.0423725
0.042358
0.0423424
0.0423263
0.0423102
0.042295
0.0422816
0.0422704
0.0422618
0.0422554
0.0422511
0.0422485
0.042247
0.0422464
0.0423403
0.0423408
0.042342
0.0423441
0.0423475
0.0423525
0.0423591
0.0423672
0.0423766
0.0423867
0.0423969
0.0424061
0.0424128
0.0424158
0.0424147
0.0424093
0.0423997
0.0423876
0.0423743
0.0423599
0.0423445
0.0423284
0.0423123
0.042297
0.0422833
0.0422719
0.0422629
0.0422563
0.0422518
0.042249
0.0422475
0.0422469
0.0423409
0.0423414
0.0423426
0.0423448
0.0423482
0.0423533
0.0423601
0.0423687
0.0423787
0.0423898
0.0424012
0.0424116
0.0424188
0.0424216
0.0424196
0.042413
0.0424025
0.0423898
0.0423763
0.0423619
0.0423466
0.0423307
0.0423146
0.0422992
0.0422853
0.0422735
0.0422642
0.0422573
0.0422526
0.0422497
0.0422481
0.0422474
0.0423419
0.0423424
0.0423435
0.0423456
0.0423491
0.0423543
0.0423613
0.0423704
0.0423813
0.0423939
0.0424071
0.0424191
0.0424272
0.0424295
0.0424262
0.0424178
0.0424058
0.0423923
0.0423782
0.0423636
0.0423483
0.0423325
0.0423165
0.0423011
0.042287
0.042275
0.0422654
0.0422583
0.0422534
0.0422504
0.0422487
0.042248
0.0423436
0.042344
0.042345
0.042347
0.0423504
0.0423556
0.0423629
0.0423727
0.0423849
0.0423993
0.0424149
0.042429
0.0424381
0.0424399
0.0424347
0.042424
0.0424099
0.0423948
0.0423798
0.0423647
0.0423492
0.0423334
0.0423175
0.0423021
0.042288
0.0422759
0.0422662
0.042259
0.042254
0.0422509
0.0422492
0.0422485
0.0423466
0.0423469
0.0423478
0.0423497
0.0423529
0.0423581
0.0423658
0.0423764
0.0423902
0.042407
0.0424254
0.0424418
0.0424518
0.0424527
0.0424451
0.0424315
0.0424147
0.0423975
0.042381
0.0423648
0.0423487
0.0423327
0.0423168
0.0423016
0.0422877
0.0422757
0.0422662
0.0422591
0.0422542
0.0422511
0.0422495
0.0422488
0.0423524
0.0423526
0.0423534
0.0423551
0.0423582
0.0423635
0.0423715
0.0423832
0.042399
0.0424184
0.0424396
0.042458
0.0424685
0.042468
0.0424577
0.0424408
0.042421
0.0424011
0.0423823
0.0423643
0.0423469
0.0423301
0.042314
0.042299
0.0422855
0.042274
0.042265
0.0422583
0.0422537
0.0422508
0.0422493
0.0422486
0.0423635
0.0423637
0.0423643
0.0423659
0.0423691
0.0423745
0.0423833
0.0423963
0.042414
0.042436
0.0424593
0.0424789
0.0424888
0.0424863
0.0424733
0.0424537
0.0424312
0.0424083
0.0423862
0.042365
0.0423451
0.0423266
0.0423097
0.0422946
0.0422816
0.0422709
0.0422627
0.0422568
0.0422528
0.0422503
0.042249
0.0422485
0.0423835
0.0423837
0.0423844
0.0423861
0.0423895
0.0423956
0.0424053
0.0424196
0.042439
0.0424626
0.0424868
0.0425059
0.0425141
0.0425095
0.042495
0.0424748
0.0424514
0.042426
0.0423997
0.0423737
0.0423491
0.0423268
0.0423075
0.0422913
0.0422783
0.0422684
0.0422612
0.0422564
0.0422535
0.0422519
0.0422512
0.042251
0.0424158
0.0424161
0.0424171
0.0424193
0.0424234
0.0424303
0.042441
0.0424564
0.0424767
0.0425005
0.0425237
0.0425409
0.0425473
0.0425427
0.0425308
0.0425149
0.0424953
0.0424704
0.0424408
0.0424086
0.0423766
0.042347
0.0423217
0.0423013
0.0422862
0.0422759
0.0422696
0.0422663
0.0422652
0.0422653
0.0422658
0.0422663
0.0424607
0.0424613
0.0424628
0.0424656
0.0424706
0.0424786
0.0424904
0.0425067
0.0425273
0.0425503
0.042572
0.0425879
0.0425958
0.0425972
0.042596
0.042594
0.042588
0.0425727
0.042547
0.0425132
0.042475
0.0424359
0.0423997
0.0423692
0.042346
0.0423307
0.0423225
0.0423196
0.04232
0.0423219
0.042324
0.0423253
0.0425128
0.0425136
0.0425155
0.0425193
0.0425255
0.0425352
0.0425491
0.0425675
0.0425896
0.0426137
0.0426367
0.0426569
0.0426746
0.0426926
0.0427136
0.0427376
0.0427595
0.0427699
0.0427654
0.0427473
0.0427179
0.0426807
0.04264
0.0425993
0.0425625
0.0425328
0.0425118
0.0424991
0.0424932
0.0424918
0.0424924
0.0424933
0.0425627
0.0425635
0.0425658
0.0425704
0.0425783
0.0425904
0.0426076
0.0426298
0.0426565
0.0426862
0.0427178
0.0427512
0.0427877
0.0428295
0.0428778
0.0429324
0.0429871
0.0430311
0.0430605
0.0430761
0.0430781
0.0430675
0.0430456
0.0430148
0.0429784
0.0429404
0.0429047
0.0428747
0.0428528
0.0428392
0.0428324
0.0428302
0.0425995
0.0426004
0.0426028
0.0426077
0.0426163
0.0426298
0.0426494
0.0426754
0.0427076
0.042745
0.0427867
0.0428324
0.0428827
0.0429379
0.0429978
0.0430609
0.0431213
0.0431722
0.0432148
0.0432515
0.0432819
0.0433045
0.0433177
0.0433205
0.0433128
0.0432961
0.0432733
0.0432485
0.0432259
0.0432087
0.0431981
0.0431936
0.0426231
0.0426239
0.0426262
0.042631
0.0426394
0.0426529
0.0426727
0.0426995
0.0427335
0.0427738
0.0428192
0.0428685
0.0429206
0.0429744
0.0430275
0.0430768
0.043117
0.0431489
0.0431804
0.0432157
0.0432538
0.0432921
0.0433274
0.0433566
0.0433778
0.0433902
0.0433941
0.0433913
0.0433845
0.0433769
0.043371
0.043368
0.0426372
0.042638
0.0426401
0.0426445
0.0426522
0.0426647
0.0426831
0.0427085
0.0427411
0.0427802
0.0428245
0.042872
0.0429207
0.0429682
0.0430114
0.0430464
0.0430697
0.0430867
0.0431091
0.0431418
0.0431841
0.0432323
0.0432813
0.0433262
0.0433635
0.0433913
0.0434096
0.0434196
0.0434233
0.0434233
0.0434219
0.0434208
0.0426455
0.0426463
0.0426482
0.0426521
0.0426589
0.0426699
0.0426862
0.0427089
0.0427385
0.0427743
0.0428149
0.0428583
0.0429021
0.0429433
0.042979
0.0430057
0.0430213
0.0430329
0.0430516
0.0430827
0.0431265
0.0431804
0.0432392
0.0432968
0.0433475
0.0433876
0.0434161
0.0434338
0.0434428
0.0434462
0.0434466
0.0434462
0.0426509
0.0426515
0.0426531
0.0426564
0.0426622
0.0426715
0.0426856
0.0427052
0.042731
0.0427625
0.0427985
0.042837
0.0428757
0.042912
0.0429434
0.0429674
0.042983
0.0429967
0.0430167
0.0430478
0.0430912
0.0431457
0.0432079
0.043272
0.0433318
0.043382
0.0434197
0.0434447
0.0434589
0.0434651
0.0434667
0.0434666
0.0426564
0.0426567
0.0426578
0.0426601
0.0426646
0.0426722
0.0426838
0.0427004
0.0427224
0.0427494
0.0427807
0.0428146
0.0428492
0.0428825
0.0429128
0.0429385
0.0429593
0.0429793
0.0430037
0.0430363
0.043079
0.0431318
0.0431928
0.0432579
0.0433216
0.0433779
0.0434227
0.0434541
0.0434729
0.043482
0.043485
0.0434852
0.0426662
0.042666
0.042666
0.0426669
0.0426695
0.0426748
0.0426839
0.0426976
0.0427162
0.0427396
0.0427673
0.042798
0.0428304
0.0428632
0.0428951
0.0429257
0.0429543
0.0429818
0.0430111
0.0430454
0.0430869
0.0431366
0.0431939
0.0432561
0.0433189
0.0433772
0.0434261
0.0434624
0.0434855
0.0434974
0.0435017
0.0435023
0.0426847
0.0426838
0.0426822
0.042681
0.0426811
0.0426838
0.0426904
0.0427017
0.0427181
0.0427395
0.0427655
0.0427954
0.0428281
0.0428626
0.0428982
0.0429348
0.0429709
0.0430049
0.0430377
0.0430726
0.0431118
0.0431571
0.0432089
0.0432657
0.0433244
0.0433811
0.043431
0.0434702
0.0434967
0.0435113
0.043517
0.0435179
0.0427164
0.0427143
0.0427108
0.042707
0.0427046
0.0427051
0.0427099
0.0427201
0.0427361
0.0427577
0.0427846
0.0428158
0.0428505
0.0428879
0.0429273
0.0429688
0.0430101
0.0430476
0.0430817
0.0431153
0.043151
0.0431908
0.0432357
0.0432853
0.0433378
0.0433901
0.0434383
0.0434782
0.0435069
0.0435237
0.0435309
0.0435323
0.0427642
0.0427608
0.0427554
0.0427497
0.0427458
0.0427456
0.0427506
0.0427618
0.0427795
0.0428033
0.0428323
0.0428657
0.0429025
0.0429419
0.0429832
0.0430267
0.0430695
0.0431072
0.0431399
0.0431706
0.0432017
0.0432352
0.0432725
0.0433139
0.0433585
0.0434045
0.0434486
0.0434871
0.0435165
0.0435349
0.0435433
0.0435452
0.0428301
0.0428254
0.0428189
0.0428132
0.0428105
0.0428124
0.0428201
0.0428343
0.0428549
0.042881
0.0429117
0.0429461
0.0429831
0.043022
0.0430623
0.043104
0.0431445
0.0431793
0.0432085
0.0432349
0.0432607
0.0432878
0.0433174
0.0433503
0.0433863
0.0434244
0.0434626
0.0434977
0.043526
0.043545
0.0435545
0.0435569
0.042915
0.0429096
0.042904
0.0429015
0.0429034
0.0429101
0.0429222
0.0429398
0.0429624
0.0429892
0.0430193
0.043052
0.0430862
0.0431215
0.0431575
0.0431942
0.0432292
0.0432588
0.0432831
0.0433045
0.0433248
0.0433456
0.043368
0.0433927
0.0434201
0.0434498
0.0434807
0.0435105
0.0435361
0.0435545
0.0435644
0.0435673
0.0430203
0.0430154
0.0430139
0.0430178
0.0430264
0.0430386
0.0430543
0.0430734
0.0430953
0.0431198
0.0431463
0.0431741
0.0432027
0.0432317
0.0432608
0.0432901
0.0433178
0.0433409
0.0433596
0.0433757
0.0433907
0.0434057
0.0434216
0.043439
0.0434584
0.0434798
0.0435028
0.0435261
0.0435473
0.0435636
0.0435732
0.0435764
0.0431486
0.0431467
0.0431523
0.0431631
0.0431765
0.0431913
0.0432072
0.0432242
0.0432423
0.0432615
0.0432817
0.0433024
0.0433233
0.0433443
0.0433652
0.0433859
0.0434054
0.0434215
0.0434344
0.0434454
0.0434555
0.0434653
0.0434757
0.0434869
0.0434994
0.0435133
0.0435285
0.0435446
0.0435601
0.043573
0.0435812
0.0435843
0.0433052
0.0433089
0.0433198
0.0433321
0.0433445
0.0433565
0.0433682
0.0433797
0.0433914
0.0434033
0.0434155
0.0434279
0.0434404
0.0434527
0.0434649
0.043477
0.0434882
0.0434975
0.0435049
0.0435112
0.0435168
0.0435223
0.0435279
0.043534
0.0435408
0.0435483
0.0435566
0.0435657
0.0435748
0.043583
0.0435887
0.0435911
0.0434965
0.0434994
0.0435051
0.0435105
0.0435155
0.0435201
0.0435243
0.0435284
0.0435324
0.0435363
0.0435404
0.0435444
0.0435485
0.0435525
0.0435565
0.0435604
0.043564
0.0435669
0.0435693
0.0435713
0.0435731
0.0435748
0.0435766
0.0435785
0.0435806
0.0435829
0.0435855
0.0435883
0.0435912
0.0435939
0.043596
0.043597
)
;

boundaryField
{
    movingWall
    {
        type            fixedValue;
        value           uniform 0.0436;
    }
    fixedWalls
    {
        type            zeroGradient;
    }
    floor
    {
        type            zeroGradient;
    }
    frontAndBack
    {
        type            empty;
    }
}


// ************************************************************************* //
