/*--------------------------------*- C++ -*----------------------------------*\
| =========                 |                                                 |
| \\      /  F ield         | OpenFOAM: The Open Source CFD Toolbox           |
|  \\    /   O peration     | Version:  2212                                  |
|   \\  /    A nd           | Website:  www.openfoam.com                      |
|    \\/     M anipulation  |                                                 |
\*---------------------------------------------------------------------------*/
FoamFile
{
    version     2.0;
    format      ascii;
    arch        "LSB;label=64;scalar=64";
    class       volScalarField::Internal;
    location    "930";
    object      dGco2;
}
// * * * * * * * * * * * * * * * * * * * * * * * * * * * * * * * * * * * * * //

dimensions      [1 -3 -1 0 0 0 0];

value           nonuniform List<scalar> 
1024
(
0.000147305
0.000147325
0.000147371
0.000147453
0.000147581
0.000147762
0.000148001
0.000148292
0.000148623
0.000148974
0.00014933
0.000149665
0.000149944
0.000150101
0.000150058
0.00014977
0.000149267
0.000148683
0.000148118
0.000147593
0.000147109
0.000146662
0.000146248
0.000145871
0.000145539
0.00014526
0.000145039
0.000144876
0.000144764
0.000144694
0.000144656
0.00014464
0.000147308
0.000147328
0.000147374
0.000147458
0.000147589
0.000147775
0.000148018
0.000148312
0.000148646
0.000149
0.000149359
0.000149699
0.000149982
0.000150143
0.0001501
0.000149809
0.000149301
0.000148714
0.000148146
0.000147618
0.000147133
0.000146684
0.000146269
0.00014589
0.000145555
0.000145273
0.000145049
0.000144883
0.000144769
0.000144698
0.000144659
0.000144642
0.000147314
0.000147333
0.000147382
0.000147469
0.000147605
0.000147798
0.000148048
0.00014835
0.00014869
0.000149052
0.00014942
0.000149774
0.000150073
0.000150245
0.000150201
0.0001499
0.000149379
0.000148781
0.000148205
0.000147672
0.000147182
0.00014673
0.000146312
0.00014593
0.000145589
0.000145301
0.000145071
0.000144899
0.000144781
0.000144706
0.000144665
0.000144648
0.000147321
0.000147341
0.000147392
0.000147484
0.000147627
0.000147828
0.000148088
0.0001484
0.00014875
0.000149126
0.000149516
0.000149899
0.000150234
0.000150431
0.000150383
0.000150059
0.00014951
0.000148889
0.000148297
0.000147751
0.000147254
0.000146797
0.000146375
0.000145988
0.00014564
0.000145343
0.000145103
0.000144924
0.000144799
0.00014472
0.000144677
0.000144659
0.000147328
0.00014735
0.000147403
0.0001475
0.000147649
0.000147859
0.000148129
0.000148452
0.000148819
0.000149219
0.000149646
0.000150084
0.000150482
0.000150723
0.000150672
0.000150306
0.000149705
0.000149042
0.000148419
0.000147854
0.000147344
0.00014688
0.000146453
0.00014606
0.000145704
0.000145397
0.000145146
0.000144956
0.000144824
0.00014474
0.000144693
0.000144675
0.000147334
0.000147356
0.000147411
0.000147511
0.000147665
0.000147881
0.00014816
0.000148497
0.000148885
0.000149322
0.00014981
0.000150335
0.000150834
0.000151145
0.000151094
0.000150663
0.000149976
0.000149242
0.00014857
0.000147972
0.000147443
0.000146968
0.000146534
0.000146136
0.000145773
0.000145455
0.000145194
0.000144994
0.000144853
0.000144763
0.000144714
0.000144694
0.000147334
0.000147357
0.000147412
0.000147511
0.000147666
0.000147884
0.000148169
0.000148519
0.000148936
0.000149427
0.000150002
0.000150653
0.000151296
0.000151713
0.000151669
0.000151149
0.000150335
0.000149493
0.000148744
0.000148096
0.000147536
0.000147045
0.000146603
0.0001462
0.000145833
0.000145509
0.000145239
0.00014503
0.000144882
0.000144788
0.000144736
0.000144715
0.000147326
0.000147347
0.0001474
0.000147496
0.000147645
0.00014786
0.000148146
0.000148509
0.000148961
0.000149522
0.000150216
0.000151038
0.000151875
0.000152435
0.000152411
0.000151778
0.00015079
0.000149795
0.000148935
0.000148213
0.000147607
0.000147092
0.000146642
0.000146236
0.000145868
0.000145542
0.000145269
0.000145056
0.000144905
0.000144808
0.000144754
0.000144733
0.000147309
0.000147329
0.000147377
0.000147464
0.000147603
0.000147806
0.000148087
0.000148462
0.000148955
0.000149605
0.000150455
0.000151501
0.000152584
0.000153324
0.000153329
0.000152557
0.000151348
0.000150149
0.000149137
0.000148309
0.00014764
0.000147092
0.000146629
0.000146224
0.000145861
0.000145541
0.000145273
0.000145063
0.000144913
0.000144817
0.000144763
0.000144741
0.000147302
0.000147317
0.000147356
0.000147429
0.000147551
0.000147738
0.00014801
0.000148398
0.000148943
0.00014971
0.000150762
0.000152089
0.000153469
0.00015441
0.000154434
0.000153491
0.000152013
0.000150558
0.000149346
0.000148377
0.000147619
0.000147025
0.000146548
0.000146146
0.000145795
0.000145491
0.000145238
0.00014504
0.000144898
0.000144805
0.000144753
0.000144732
0.000147375
0.000147381
0.000147403
0.000147454
0.000147553
0.000147721
0.000147989
0.000148402
0.000149027
0.000149957
0.000151272
0.000152935
0.000154634
0.000155761
0.00015576
0.000154602
0.000152812
0.000151048
0.000149581
0.000148423
0.000147542
0.000146884
0.000146385
0.00014599
0.00014566
0.000145382
0.000145153
0.000144976
0.000144847
0.000144763
0.000144714
0.000144693
0.000147738
0.000147731
0.000147727
0.000147747
0.000147817
0.00014797
0.000148252
0.000148727
0.000149486
0.000150642
0.000152271
0.000154286
0.000156267
0.000157496
0.000157384
0.000155968
0.000153841
0.000151717
0.000149921
0.000148499
0.000147437
0.000146678
0.000146142
0.000145751
0.000145448
0.000145206
0.000145011
0.000144861
0.000144751
0.000144677
0.000144633
0.000144613
0.000148857
0.000148838
0.000148814
0.000148809
0.000148859
0.000149016
0.000149347
0.000149937
0.000150887
0.000152304
0.000154234
0.000156518
0.00015863
0.000159796
0.00015948
0.000157822
0.000155396
0.000152874
0.00015064
0.000148816
0.000147445
0.000146489
0.000145858
0.000145445
0.000145165
0.00014496
0.000144805
0.000144687
0.000144601
0.000144544
0.000144512
0.000144498
0.000151373
0.000151363
0.000151355
0.000151374
0.000151464
0.000151683
0.000152112
0.000152844
0.000153975
0.000155589
0.000157683
0.000160024
0.000162016
0.00016295
0.000162469
0.00016079
0.000158274
0.000155397
0.000152598
0.000150131
0.000148167
0.000146748
0.000145803
0.000145219
0.000144874
0.00014467
0.000144552
0.000144494
0.000144482
0.000144502
0.000144534
0.000144556
0.000155528
0.000155549
0.000155606
0.000155723
0.000155936
0.000156299
0.000156885
0.000157775
0.000159051
0.000160764
0.000162862
0.00016506
0.000166812
0.000167654
0.000167473
0.000166399
0.000164398
0.000161621
0.00015848
0.000155313
0.000152412
0.000149993
0.000148097
0.00014676
0.000145942
0.000145557
0.000145496
0.000145658
0.000145944
0.000146255
0.000146507
0.000146645
0.000160498
0.000160553
0.000160684
0.000160922
0.00016131
0.000161907
0.000162781
0.000164002
0.000165617
0.00016762
0.000169891
0.000172166
0.000174149
0.000175721
0.000176886
0.000177616
0.000177605
0.000176618
0.000174811
0.000172431
0.000169732
0.00016697
0.000164307
0.000161956
0.000160076
0.000158779
0.000158028
0.00015777
0.000157876
0.000158169
0.000158469
0.00015865
0.00016467
0.00016475
0.000164955
0.000165339
0.000165977
0.000166945
0.000168314
0.000170118
0.00017234
0.000174921
0.000177774
0.000180802
0.000183933
0.000187152
0.000190484
0.000193944
0.000197223
0.000199789
0.000201477
0.000202369
0.000202511
0.000201975
0.000200849
0.00019925
0.000197317
0.000195243
0.000193196
0.000191399
0.000190029
0.000189155
0.000188718
0.000188576
0.000167023
0.000167108
0.000167334
0.000167774
0.000168519
0.000169662
0.000171283
0.000173425
0.000176073
0.000179162
0.000182595
0.000186288
0.000190183
0.00019426
0.000198516
0.000202968
0.000207359
0.000211288
0.00021473
0.000217789
0.000220414
0.000222507
0.000223955
0.000224668
0.000224605
0.000223816
0.000222462
0.0002208
0.000219146
0.000217793
0.000216919
0.000216535
0.000168298
0.000168382
0.000168606
0.000169046
0.000169794
0.000170952
0.00017261
0.000174819
0.000177574
0.000180808
0.000184408
0.000188256
0.000192248
0.000196291
0.000200295
0.000204174
0.000207667
0.000210679
0.000213548
0.000216495
0.000219516
0.000222497
0.000225271
0.000227655
0.000229484
0.000230658
0.000231161
0.000231082
0.000230608
0.000229992
0.000229474
0.000229201
0.000168985
0.000169065
0.000169274
0.000169682
0.000170376
0.000171454
0.000173008
0.000175099
0.00017773
0.000180841
0.000184312
0.000188
0.000191762
0.000195462
0.000198953
0.000202096
0.000204654
0.000206765
0.000208985
0.000211631
0.000214755
0.000218244
0.000221864
0.000225322
0.00022833
0.000230688
0.000232317
0.000233255
0.000233634
0.000233649
0.000233513
0.000233399
0.000169361
0.000169431
0.000169615
0.000169973
0.000170584
0.000171537
0.00017292
0.000174796
0.000177175
0.000180008
0.000183185
0.000186561
0.000189989
0.000193325
0.000196422
0.000199147
0.000201311
0.000203125
0.000205119
0.000207629
0.000210777
0.000214531
0.000218696
0.000222952
0.000226903
0.000230211
0.000232681
0.00023429
0.000235157
0.000235491
0.000235529
0.000235481
0.000169688
0.000169738
0.000169876
0.00017016
0.000170662
0.000171464
0.000172648
0.00017427
0.00017635
0.000178847
0.000181674
0.000184707
0.00018782
0.000190891
0.000193806
0.000196471
0.000198737
0.000200747
0.000202875
0.00020542
0.000208543
0.000212296
0.000216586
0.000221169
0.000225662
0.000229656
0.000232833
0.000235053
0.000236367
0.000236972
0.000237136
0.000237123
0.000170291
0.0001703
0.000170358
0.000170525
0.000170877
0.000171499
0.000172469
0.000173842
0.000175638
0.000177833
0.000180361
0.000183132
0.000186049
0.000189021
0.000191972
0.000194853
0.000197522
0.000199962
0.00020238
0.000205041
0.000208124
0.000211734
0.000215872
0.000220396
0.000225013
0.000229338
0.000232985
0.000235694
0.000237414
0.000238285
0.000238577
0.000238596
0.000171557
0.0001715
0.00017143
0.000171423
0.000171577
0.000171993
0.000172758
0.00017393
0.000175531
0.000177545
0.000179924
0.0001826
0.000185496
0.000188543
0.000191688
0.000194917
0.00019806
0.000200923
0.000203598
0.000206328
0.000209305
0.000212674
0.000216498
0.000220712
0.000225126
0.000229435
0.000233271
0.0002363
0.000238348
0.000239467
0.00023989
0.000239944
0.000173877
0.000173725
0.000173485
0.000173267
0.000173206
0.000173433
0.000174058
0.000175143
0.000176706
0.000178723
0.000181142
0.000183895
0.00018691
0.000190125
0.000193497
0.000197029
0.000200512
0.000203628
0.000206402
0.000209076
0.000211845
0.000214871
0.000218255
0.000222
0.000225998
0.000230031
0.000233791
0.000236936
0.000239203
0.000240531
0.000241083
0.000241179
0.000177566
0.000177297
0.000176879
0.000176479
0.000176276
0.000176432
0.000177068
0.00017824
0.00017994
0.000182117
0.000184697
0.000187599
0.000190747
0.000194079
0.000197558
0.000201194
0.000204758
0.000207877
0.000210556
0.000213029
0.000215488
0.000218091
0.000220954
0.000224123
0.00022756
0.000231132
0.000234604
0.000237665
0.000240015
0.000241491
0.000242161
0.000242302
0.000182824
0.000182439
0.000181905
0.000181466
0.000181323
0.000181625
0.000182472
0.000183884
0.000185812
0.000188175
0.000190883
0.000193846
0.000196989
0.000200256
0.000203615
0.000207083
0.000210438
0.000213317
0.000215724
0.000217877
0.000219951
0.000222088
0.000224398
0.000226946
0.000229742
0.000232725
0.000235743
0.000238543
0.000240826
0.000242366
0.000243128
0.000243316
0.000189764
0.000189302
0.000188819
0.000188606
0.000188802
0.000189473
0.000190657
0.000192325
0.000194404
0.00019681
0.000199457
0.000202264
0.000205169
0.000208128
0.000211119
0.000214161
0.000217063
0.000219515
0.000221528
0.000223287
0.00022494
0.000226603
0.000228371
0.000230308
0.000232448
0.00023478
0.000237228
0.000239617
0.000241686
0.000243182
0.000243991
0.000244221
0.00019849
0.000198061
0.000197905
0.000198203
0.000198923
0.000200015
0.000201459
0.000203209
0.00020521
0.000207402
0.000209726
0.000212125
0.000214555
0.000216988
0.00021941
0.00022184
0.000224131
0.000226047
0.000227599
0.000228933
0.000230162
0.000231375
0.000232643
0.000234022
0.000235546
0.000237231
0.000239054
0.000240919
0.000242638
0.000243974
0.000244762
0.00024502
0.000209211
0.000209029
0.000209463
0.000210337
0.000211452
0.000212725
0.00021414
0.000215674
0.000217311
0.000219029
0.000220798
0.000222588
0.000224372
0.000226136
0.000227872
0.000229595
0.000231207
0.000232544
0.000233619
0.000234532
0.00023536
0.000236165
0.000236994
0.000237887
0.000238872
0.000239968
0.000241178
0.000242467
0.000243726
0.000244781
0.000245462
0.000245718
0.000222345
0.000222643
0.000223535
0.000224545
0.000225569
0.000226588
0.000227609
0.000228638
0.000229685
0.000230752
0.000231829
0.000232904
0.000233965
0.000235006
0.000236023
0.000237025
0.000237957
0.000238727
0.000239344
0.000239863
0.000240329
0.000240776
0.000241233
0.000241719
0.000242253
0.000242848
0.00024351
0.000244235
0.000244977
0.000245645
0.000246119
0.000246322
0.000238421
0.000238664
0.000239131
0.000239575
0.000239989
0.000240377
0.000240747
0.000241106
0.000241461
0.000241818
0.000242174
0.000242526
0.000242873
0.000243211
0.000243541
0.000243864
0.000244164
0.000244411
0.000244609
0.000244774
0.000244922
0.000245064
0.000245207
0.000245358
0.000245523
0.000245707
0.000245912
0.000246137
0.000246374
0.000246597
0.000246769
0.000246852
)
;


// ************************************************************************* //
