/*--------------------------------*- C++ -*----------------------------------*\
| =========                 |                                                 |
| \\      /  F ield         | OpenFOAM: The Open Source CFD Toolbox           |
|  \\    /   O peration     | Version:  2212                                  |
|   \\  /    A nd           | Website:  www.openfoam.com                      |
|    \\/     M anipulation  |                                                 |
\*---------------------------------------------------------------------------*/
FoamFile
{
    version     2.0;
    format      ascii;
    arch        "LSB;label=64;scalar=64";
    class       surfaceScalarField;
    location    "930";
    object      phi;
}
// * * * * * * * * * * * * * * * * * * * * * * * * * * * * * * * * * * * * * //

dimensions      [0 3 -1 0 0 0 0];

oriented        oriented;

internalField   nonuniform List<scalar> 
1984
(
-3.27453e-10
3.28401e-10
-1.0964e-08
1.06364e-08
-3.44855e-08
2.35213e-08
-6.68863e-08
3.24008e-08
-1.03848e-07
3.69622e-08
-1.43349e-07
3.9501e-08
-1.84765e-07
4.14162e-08
-2.26597e-07
4.18319e-08
-2.64361e-07
3.77638e-08
-2.88405e-07
2.40441e-08
-2.81148e-07
-7.25703e-09
-2.21152e-07
-5.99963e-08
-1.03254e-07
-1.17898e-07
4.17978e-08
-1.45051e-07
1.55262e-07
-1.13464e-07
2.18436e-07
-6.31736e-08
2.38652e-07
-2.02162e-08
2.35023e-07
3.62924e-09
2.19746e-07
1.52771e-08
1.99138e-07
2.06076e-08
1.76203e-07
2.29356e-08
1.52621e-07
2.35823e-08
1.29696e-07
2.29248e-08
1.08244e-07
2.1452e-08
8.83194e-08
1.99245e-08
6.9207e-08
1.91124e-08
5.01157e-08
1.90913e-08
3.13341e-08
1.87816e-08
1.48929e-08
1.64411e-08
3.7344e-09
1.11584e-08
-5.33022e-10
4.26736e-09
-5.32986e-10
-1.2311e-08
1.26393e-08
-5.65613e-08
5.48865e-08
-1.33909e-07
1.00869e-07
-2.35994e-07
1.34486e-07
-3.52067e-07
1.53036e-07
-4.74444e-07
1.61878e-07
-5.97684e-07
1.64657e-07
-7.14e-07
1.58147e-07
-8.08398e-07
1.32162e-07
-8.54366e-07
7.0012e-08
-8.08902e-07
-5.27214e-08
-6.23864e-07
-2.45034e-07
-2.83736e-07
-4.58026e-07
1.34967e-07
-5.63754e-07
4.73167e-07
-4.51665e-07
6.73616e-07
-2.63623e-07
7.50781e-07
-9.73808e-08
7.52991e-07
1.41934e-09
7.16464e-07
5.18044e-08
6.59659e-07
7.7413e-08
5.92283e-07
9.03116e-08
5.20075e-07
9.57899e-08
4.47278e-07
9.57221e-08
3.76649e-07
9.20807e-08
3.08945e-07
8.76285e-08
2.43171e-07
8.48871e-08
1.78419e-07
8.38425e-08
1.16506e-07
8.06942e-08
6.29652e-08
6.99822e-08
2.45786e-08
4.95449e-08
4.67446e-09
2.41715e-08
4.14145e-09
-3.27475e-08
4.53867e-08
-1.25514e-07
1.47653e-07
-2.71286e-07
2.46641e-07
-4.55058e-07
3.18258e-07
-6.59588e-07
3.57566e-07
-8.70093e-07
3.72382e-07
-1.07331e-06
3.67876e-07
-1.25246e-06
3.37294e-07
-1.3814e-06
2.61103e-07
-1.41942e-06
1.08026e-07
-1.30631e-06
-1.65827e-07
-9.82538e-07
-5.68805e-07
-4.26979e-07
-1.01359e-06
2.50087e-07
-1.24082e-06
8.13505e-07
-1.01508e-06
1.17224e-06
-6.22358e-07
1.33265e-06
-2.57791e-07
1.36091e-06
-2.68444e-08
1.31628e-06
9.6435e-08
1.23053e-06
1.63164e-07
1.12056e-06
2.00288e-07
9.96915e-07
2.19431e-07
8.67327e-07
2.2531e-07
7.37082e-07
2.22326e-07
6.08621e-07
2.1609e-07
4.82146e-07
2.11362e-07
3.58111e-07
2.07878e-07
2.40488e-07
1.98317e-07
1.37881e-07
1.72589e-07
6.04902e-08
1.26936e-07
1.46838e-08
6.9978e-08
1.88253e-08
-5.63322e-08
1.01719e-07
-2.05274e-07
2.96594e-07
-4.2763e-07
4.68997e-07
-6.98128e-07
5.88757e-07
-9.91142e-07
6.5058e-07
-1.28355e-06
6.64792e-07
-1.55303e-06
6.37358e-07
-1.77334e-06
5.57602e-07
-1.90862e-06
3.96385e-07
-1.90735e-06
1.06753e-07
-1.70268e-06
-3.70496e-07
-1.23805e-06
-1.03344e-06
-4.94892e-07
-1.75674e-06
3.88737e-07
-2.12445e-06
1.14769e-06
-1.77404e-06
1.67353e-06
-1.1482e-06
1.94197e-06
-5.2623e-07
2.02157e-06
-1.06446e-07
1.98969e-06
1.28314e-07
1.89038e-06
2.62478e-07
1.74752e-06
3.43149e-07
1.57652e-06
3.90424e-07
1.38875e-06
4.1308e-07
1.19249e-06
4.18585e-07
9.92923e-07
4.1566e-07
7.92975e-07
4.1131e-07
5.9581e-07
4.05043e-07
4.08075e-07
3.86052e-07
2.41553e-07
3.3911e-07
1.10998e-07
2.57491e-07
2.87565e-08
1.5222e-07
4.75818e-08
-7.6328e-08
1.78047e-07
-2.74379e-07
4.94646e-07
-5.65159e-07
7.59777e-07
-9.12987e-07
9.36585e-07
-1.28221e-06
1.0198e-06
-1.63999e-06
1.02257e-06
-1.95468e-06
9.52044e-07
-2.19163e-06
7.94551e-07
-2.30796e-06
5.12715e-07
-2.24471e-06
4.35089e-08
-1.93875e-06
-6.76454e-07
-1.34574e-06
-1.62645e-06
-4.59624e-07
-2.64286e-06
5.54358e-07
-3.13843e-06
1.45467e-06
-2.67435e-06
2.13537e-06
-1.8289e-06
2.52424e-06
-9.15099e-07
2.67787e-06
-2.60083e-07
2.68314e-06
1.23053e-07
2.59149e-06
3.54121e-07
2.43271e-06
5.0193e-07
2.22614e-06
5.97e-07
1.98625e-06
6.52961e-07
1.72438e-06
6.80458e-07
1.44911e-06
6.90931e-07
1.16722e-06
6.93199e-07
8.85734e-07
6.86532e-07
6.1489e-07
6.56897e-07
3.70688e-07
5.83311e-07
1.74248e-07
4.53931e-07
4.63927e-08
2.80075e-07
9.39745e-08
-8.40519e-08
2.62099e-07
-3.05666e-07
7.16259e-07
-6.35914e-07
1.09002e-06
-1.03414e-06
1.33481e-06
-1.45526e-06
1.44092e-06
-1.85551e-06
1.42282e-06
-2.19342e-06
1.28995e-06
-2.42698e-06
1.02812e-06
-2.50858e-06
5.94317e-07
-2.3791e-06
-8.59731e-08
-1.97984e-06
-1.07571e-06
-1.28167e-06
-2.32462e-06
-3.0689e-07
-3.61764e-06
7.58137e-07
-4.20346e-06
1.7364e-06
-3.6526e-06
2.53394e-06
-2.62644e-06
3.03208e-06
-1.41324e-06
3.26769e-06
-4.95693e-07
3.32837e-06
6.23675e-08
3.26485e-06
4.17649e-07
3.10998e-06
6.56795e-07
2.88484e-06
8.22141e-07
2.60565e-06
9.32155e-07
2.2861e-06
1e-06
1.9382e-06
1.03883e-06
1.57303e-06
1.05837e-06
1.20233e-06
1.05723e-06
8.41337e-07
1.01789e-06
5.1198e-07
9.12669e-07
2.43328e-07
7.22583e-07
6.56483e-08
4.57754e-07
1.59623e-07
-7.28653e-08
3.34964e-07
-2.76915e-07
9.20309e-07
-5.98158e-07
1.41127e-06
-1.00237e-06
1.73903e-06
-1.43992e-06
1.87847e-06
-1.85627e-06
1.83917e-06
-2.19901e-06
1.63269e-06
-2.41858e-06
1.24769e-06
-2.46411e-06
6.39843e-07
-2.27969e-06
-2.70389e-07
-1.80549e-06
-1.54992e-06
-1.02989e-06
-3.10022e-06
-2.83911e-08
-4.61914e-06
1.01842e-06
-5.25027e-06
2.01511e-06
-4.64929e-06
2.87182e-06
-3.48315e-06
3.44255e-06
-1.98397e-06
3.74418e-06
-7.97321e-07
3.86072e-06
-5.41701e-08
3.83597e-06
4.42401e-07
3.70047e-06
7.92291e-07
3.47354e-06
1.04907e-06
3.17079e-06
1.2349e-06
2.80689e-06
1.36391e-06
2.39646e-06
1.44926e-06
1.9547e-06
1.50013e-06
1.49873e-06
1.51319e-06
1.05043e-06
1.4662e-06
6.39669e-07
1.32343e-06
3.04217e-07
1.05803e-06
8.22156e-08
6.79756e-07
2.41838e-07
-4.23773e-08
3.77341e-07
-1.81355e-07
1.05929e-06
-4.30837e-07
1.66075e-06
-7.78741e-07
2.08693e-06
-1.18306e-06
2.28278e-06
-1.58325e-06
2.23936e-06
-1.91473e-06
1.96417e-06
-2.11857e-06
1.45153e-06
-2.13881e-06
6.60075e-07
-1.91681e-06
-4.92389e-07
-1.38422e-06
-2.08251e-06
-5.64703e-07
-3.91973e-06
3.87845e-07
-5.57169e-06
1.35043e-06
-6.21286e-06
2.31238e-06
-5.61124e-06
3.16188e-06
-4.33265e-06
3.75287e-06
-2.57496e-06
4.08356e-06
-1.12801e-06
4.23401e-06
-2.04619e-07
4.24287e-06
4.33536e-07
4.13118e-06
9.03987e-07
3.91286e-06
1.26739e-06
3.60008e-06
1.54769e-06
3.20639e-06
1.75759e-06
2.74766e-06
1.90799e-06
2.24266e-06
2.00514e-06
1.71454e-06
2.04131e-06
1.19367e-06
1.98707e-06
7.19691e-07
1.79741e-06
3.38232e-07
1.43949e-06
9.02705e-08
9.27717e-07
3.32109e-07
2.33976e-10
3.77107e-07
-3.53984e-08
1.09492e-06
-1.46735e-07
1.77209e-06
-3.56875e-07
2.29707e-06
-6.53525e-07
2.57943e-06
-9.86057e-07
2.5719e-06
-1.27938e-06
2.2575e-06
-1.46229e-06
1.63444e-06
-1.46682e-06
6.64601e-07
-1.22239e-06
-7.36817e-07
-6.54558e-07
-2.65034e-06
1.2676e-07
-4.70105e-06
9.47082e-07
-6.39201e-06
1.77737e-06
-7.04315e-06
2.6251e-06
-6.45897e-06
3.39284e-06
-5.10039e-06
3.94864e-06
-3.13077e-06
4.2683e-06
-1.44767e-06
4.42026e-06
-3.56581e-07
4.44182e-06
4.11974e-07
4.3453e-06
1.00051e-06
4.13635e-06
1.47633e-06
3.82104e-06
1.863e-06
3.40955e-06
2.16908e-06
2.91742e-06
2.40012e-06
2.36667e-06
2.55589e-06
1.78764e-06
2.62034e-06
1.22136e-06
2.55334e-06
7.18102e-07
2.30067e-06
3.27687e-07
1.82991e-06
8.46509e-08
1.17075e-06
4.1676e-07
4.19825e-08
3.35125e-07
1.23528e-07
1.01337e-06
1.92931e-07
1.70268e-06
1.98499e-07
2.2915e-06
1.12084e-07
2.66585e-06
-5.22717e-08
2.73625e-06
-2.34639e-07
2.43987e-06
-3.60774e-07
1.76058e-06
-3.34685e-07
6.38513e-07
-4.81087e-08
-1.02339e-06
4.39115e-07
-3.13756e-06
1.04375e-06
-5.30568e-06
1.65393e-06
-7.00219e-06
2.27263e-06
-7.66185e-06
2.89714e-06
-7.08348e-06
3.49166e-06
-5.69491e-06
3.95791e-06
-3.59701e-06
4.23705e-06
-1.7268e-06
4.36641e-06
-4.85944e-07
4.38048e-06
3.97905e-07
4.28669e-06
1.0943e-06
4.08268e-06
1.68034e-06
3.76742e-06
2.17825e-06
3.34647e-06
2.59003e-06
2.83452e-06
2.91207e-06
2.25812e-06
3.1323e-06
1.65766e-06
3.2208e-06
1.08739e-06
3.12362e-06
6.06578e-07
2.78148e-06
2.60256e-07
2.17623e-06
6.26006e-08
1.36841e-06
4.7936e-07
7.46439e-08
2.60481e-07
2.60621e-07
8.27397e-07
5.10897e-07
1.45241e-06
7.64413e-07
2.03799e-06
9.67611e-07
2.46265e-06
1.09411e-06
2.60975e-06
1.14994e-06
2.38403e-06
1.19299e-06
1.71752e-06
1.2952e-06
5.36307e-07
1.53176e-06
-1.25995e-06
1.85152e-06
-3.45733e-06
2.19161e-06
-5.64577e-06
2.48438e-06
-7.29497e-06
2.73639e-06
-7.91385e-06
2.98324e-06
-7.33033e-06
3.28449e-06
-5.99615e-06
3.60402e-06
-3.91655e-06
3.83043e-06
-1.95321e-06
3.93734e-06
-5.92851e-07
3.94473e-06
3.90519e-07
3.85387e-06
1.18516e-06
3.65612e-06
1.87809e-06
3.34493e-06
2.48945e-06
2.92225e-06
3.01271e-06
2.40392e-06
3.4304e-06
1.82831e-06
3.70791e-06
1.25215e-06
3.79696e-06
7.4385e-07
3.63192e-06
3.62646e-07
3.16268e-06
1.311e-07
2.40778e-06
2.47581e-08
1.47475e-06
5.04118e-07
8.92859e-08
1.71195e-07
3.40533e-07
5.76151e-07
7.28351e-07
1.06459e-06
1.19905e-06
1.56729e-06
1.68734e-06
1.97436e-06
2.13786e-06
2.15924e-06
2.5206e-06
2.00129e-06
2.84277e-06
1.39535e-06
3.12526e-06
2.53822e-07
3.356e-06
-1.49069e-06
3.46939e-06
-3.57072e-06
3.4348e-06
-5.61119e-06
3.23347e-06
-7.09364e-06
2.91395e-06
-7.59433e-06
2.58331e-06
-6.99969e-06
2.4418e-06
-5.85464e-06
2.54954e-06
-4.0243e-06
2.72874e-06
-2.13241e-06
2.84478e-06
-7.08889e-07
2.88199e-06
3.53305e-07
2.81692e-06
1.25023e-06
2.64152e-06
2.0535e-06
2.34885e-06
2.78211e-06
1.94239e-06
3.41917e-06
1.44022e-06
3.93257e-06
9.21989e-07
4.22614e-06
4.69764e-07
4.24918e-06
1.49902e-07
3.95178e-06
-1.39783e-08
3.32656e-06
-5.11157e-08
2.44491e-06
-2.51486e-08
1.44878e-06
4.7897e-07
8.16509e-08
8.95442e-08
3.36538e-07
3.21263e-07
7.72868e-07
6.28259e-07
1.36537e-06
9.74785e-07
2.05958e-06
1.28015e-06
2.78959e-06
1.42922e-06
3.49672e-06
1.29417e-06
4.14163e-06
7.5043e-07
4.67366e-06
-2.78205e-07
4.91761e-06
-1.73464e-06
4.78507e-06
-3.43818e-06
4.26087e-06
-5.08699e-06
3.37043e-06
-6.2032e-06
2.25442e-06
-6.47832e-06
1.14166e-06
-5.88693e-06
4.08939e-07
-5.12192e-06
2.01303e-07
-3.81666e-06
3.33278e-07
-2.26439e-06
5.43121e-07
-9.18732e-07
6.50941e-07
2.45485e-07
6.44302e-07
1.25686e-06
5.26358e-07
2.17144e-06
2.97234e-07
3.01124e-06
-1.32861e-08
3.72969e-06
-3.42745e-07
4.26203e-06
-5.98126e-07
4.48152e-06
-7.11428e-07
4.36249e-06
-6.61358e-07
3.90171e-06
-4.85565e-07
3.15077e-06
-2.63844e-07
2.22319e-06
-7.96604e-08
1.2646e-06
3.9931e-07
5.84555e-08
3.10887e-08
2.6237e-07
1.17349e-07
6.51789e-07
2.38839e-07
1.24493e-06
3.81641e-07
2.02418e-06
5.00908e-07
2.93531e-06
5.18096e-07
3.88878e-06
3.40697e-07
4.75049e-06
-1.11289e-07
5.31149e-06
-8.39201e-07
5.36563e-06
-1.78878e-06
4.80257e-06
-2.87512e-06
3.61916e-06
-3.90357e-06
1.83123e-06
-4.41527e-06
-3.07458e-07
-4.33963e-06
-2.24357e-06
-3.95083e-06
-3.59199e-06
-3.7735e-06
-4.20522e-06
-3.20343e-06
-4.25297e-06
-2.21664e-06
-4.02103e-06
-1.15067e-06
-3.77115e-06
-4.39974e-09
-3.58874e-06
1.07445e-06
-3.42983e-06
2.01253e-06
-3.30133e-06
2.88273e-06
-3.16273e-06
3.5911e-06
-2.9376e-06
4.03689e-06
-2.59513e-06
4.13905e-06
-2.12415e-06
3.89151e-06
-1.55823e-06
3.33579e-06
-9.7384e-07
2.56638e-06
-4.67944e-07
1.7173e-06
-1.263e-07
9.22956e-07
2.7301e-07
4.22546e-08
-1.11661e-08
1.98254e-07
-3.86506e-08
5.06051e-07
-6.89581e-08
9.90794e-07
-1.03102e-07
1.64556e-06
-1.53858e-07
2.40931e-06
-2.45659e-07
3.1517e-06
-4.01689e-07
3.66481e-06
-6.24394e-07
3.72546e-06
-8.9986e-07
3.14023e-06
-1.20354e-06
1.76342e-06
-1.49831e-06
-4.64657e-07
-1.6755e-06
-3.27509e-06
-1.60484e-06
-6.09978e-06
-1.51494e-06
-8.53499e-06
-1.51562e-06
-1.05426e-05
-1.76589e-06
-1.17673e-05
-1.97872e-06
-1.21414e-05
-1.84255e-06
-1.18589e-05
-1.43312e-06
-1.11234e-05
-7.3998e-07
-1.02114e-05
1.62506e-07
-9.17583e-06
9.76943e-07
-8.0734e-06
1.78031e-06
-6.92323e-06
2.44093e-06
-5.73369e-06
2.84735e-06
-4.50951e-06
2.91487e-06
-3.31017e-06
2.69216e-06
-2.20446e-06
2.23009e-06
-1.26703e-06
1.62894e-06
-5.6649e-07
1.01676e-06
-1.43401e-07
4.99867e-07
1.29609e-07
1.35996e-08
-2.47657e-08
3.10709e-08
-5.61218e-08
3.38294e-08
-7.17166e-08
-8.58362e-09
-6.06892e-08
-1.56602e-07
-5.83926e-09
-4.61036e-07
5.87756e-08
-1.02427e-06
1.61541e-07
-1.96894e-06
3.20284e-07
-3.42223e-06
5.53431e-07
-5.44039e-06
8.14623e-07
-7.97275e-06
1.03405e-06
-1.0824e-05
1.17574e-06
-1.3648e-05
1.21921e-06
-1.63129e-05
1.14998e-06
-1.87399e-05
9.11315e-07
-2.08802e-05
3.74409e-07
-2.22983e-05
-5.60641e-07
-2.2758e-05
-1.38285e-06
-2.23201e-05
-1.87095e-06
-2.10314e-05
-2.02873e-06
-1.89646e-05
-1.90424e-06
-1.64259e-05
-1.56178e-06
-1.3571e-05
-1.07456e-06
-1.06046e-05
-5.25514e-07
-7.77721e-06
1.99501e-08
-5.25353e-06
3.91202e-07
-3.21465e-06
6.53276e-07
-1.73472e-06
7.50159e-07
-7.87651e-07
6.81873e-07
-2.68998e-07
4.98105e-07
-4.6599e-08
2.77468e-07
8.30096e-08
-1.23994e-07
9.92287e-08
-4.87802e-07
3.07685e-07
-1.10618e-06
5.46657e-07
-1.97956e-06
8.12696e-07
-3.08824e-06
1.10284e-06
-4.44066e-06
1.41119e-06
-6.00816e-06
1.72904e-06
-7.74021e-06
2.05234e-06
-9.57075e-06
2.38397e-06
-1.14762e-05
2.72008e-06
-1.3482e-05
3.03985e-06
-1.56135e-05
3.30725e-06
-1.78601e-05
3.46577e-06
-2.01584e-05
3.44831e-06
-2.23996e-05
3.15247e-06
-2.44236e-05
2.3984e-06
-2.5738e-05
7.53757e-07
-2.61691e-05
-9.51715e-07
-2.58581e-05
-2.18193e-06
-2.48124e-05
-3.07448e-06
-2.3032e-05
-3.68466e-06
-2.05479e-05
-4.04584e-06
-1.74607e-05
-4.16175e-06
-1.39655e-05
-4.02068e-06
-1.03315e-05
-3.61412e-06
-6.98302e-06
-2.95726e-06
-4.17913e-06
-2.15061e-06
-2.11436e-06
-1.31461e-06
-8.35929e-07
-5.96558e-07
-2.13687e-07
-1.24137e-07
-1.31692e-08
7.695e-08
6.98404e-08
-1.09278e-07
2.08507e-07
-4.35557e-07
6.33964e-07
-9.80607e-07
1.09171e-06
-1.72081e-06
1.5529e-06
-2.61639e-06
1.99842e-06
-3.63181e-06
2.42661e-06
-4.74971e-06
2.84694e-06
-5.96579e-06
3.26841e-06
-7.27409e-06
3.69227e-06
-8.66305e-06
4.10904e-06
-1.01195e-05
4.49626e-06
-1.16314e-05
4.81916e-06
-1.31928e-05
5.02722e-06
-1.4788e-05
5.04352e-06
-1.63815e-05
4.74599e-06
-1.79107e-05
3.92754e-06
-1.907e-05
1.91309e-06
-1.96083e-05
-4.13458e-07
-1.96843e-05
-2.10587e-06
-1.9357e-05
-3.40185e-06
-1.86e-05
-4.44166e-06
-1.73736e-05
-5.27222e-06
-1.56708e-05
-5.86449e-06
-1.35396e-05
-6.15189e-06
-1.10806e-05
-6.07313e-06
-8.4408e-06
-5.59707e-06
-5.84441e-06
-4.747e-06
-3.54727e-06
-3.61176e-06
-1.78133e-06
-2.36249e-06
-6.6633e-07
-1.23914e-06
-1.33585e-07
-4.55795e-07
-6.37442e-08
-5.08773e-08
2.59384e-07
-2.14274e-07
7.97361e-07
-5.09266e-07
1.3867e-06
-9.43938e-07
1.98757e-06
-1.50955e-06
2.56403e-06
-2.18253e-06
3.09959e-06
-2.93472e-06
3.59913e-06
-3.74259e-06
4.07628e-06
-4.58896e-06
4.53864e-06
-5.46049e-06
4.98058e-06
-6.34597e-06
5.38174e-06
-7.23584e-06
5.70903e-06
-8.12282e-06
5.9142e-06
-9.00109e-06
5.92179e-06
-9.86315e-06
5.60804e-06
-1.07039e-05
4.76828e-06
-1.14265e-05
2.6357e-06
-1.19006e-05
6.06641e-08
-1.22127e-05
-1.79382e-06
-1.24209e-05
-3.19367e-06
-1.24802e-05
-4.38231e-06
-1.23007e-05
-5.45176e-06
-1.17867e-05
-6.37847e-06
-1.08775e-05
-7.06104e-06
-9.55663e-06
-7.39403e-06
-7.87436e-06
-7.27934e-06
-5.95539e-06
-6.66597e-06
-3.99493e-06
-5.57223e-06
-2.24019e-06
-4.11722e-06
-9.3606e-07
-2.54327e-06
-2.09175e-07
-1.18268e-06
-2.72919e-07
-9.00919e-09
2.68394e-07
-5.5256e-08
8.43607e-07
-1.64845e-07
1.49629e-06
-3.60826e-07
2.18355e-06
-6.53701e-07
2.85691e-06
-1.0323e-06
3.47819e-06
-1.47099e-06
4.03782e-06
-1.93977e-06
4.54506e-06
-2.41177e-06
5.01064e-06
-2.86612e-06
5.43493e-06
-3.28841e-06
5.80403e-06
-3.6704e-06
6.09101e-06
-4.00947e-06
6.25326e-06
-4.30806e-06
6.22038e-06
-4.56991e-06
5.8699e-06
-4.78869e-06
4.98706e-06
-5.0019e-06
2.84891e-06
-5.32012e-06
3.78884e-07
-5.70287e-06
-1.41106e-06
-6.16749e-06
-2.72905e-06
-6.68755e-06
-3.86225e-06
-7.18093e-06
-4.95838e-06
-7.50699e-06
-6.05242e-06
-7.55366e-06
-7.01436e-06
-7.21331e-06
-7.73439e-06
-6.44087e-06
-8.05177e-06
-5.2694e-06
-7.83744e-06
-3.82455e-06
-7.01708e-06
-2.32221e-06
-5.61957e-06
-1.04675e-06
-3.81873e-06
-2.50812e-07
-1.97862e-06
-5.23731e-07
1.25237e-08
2.5587e-07
3.19927e-08
8.24138e-07
3.49449e-08
1.49334e-06
-4.3563e-09
2.22285e-06
-1.04028e-07
2.95658e-06
-2.64096e-07
3.63825e-06
-4.64458e-07
4.23818e-06
-6.73159e-07
4.75376e-06
-8.58102e-07
5.19558e-06
-9.94731e-07
5.57156e-06
-1.06855e-06
5.87785e-06
-1.07485e-06
6.09731e-06
-1.0178e-06
6.19621e-06
-9.09954e-07
6.11254e-06
-7.70969e-07
5.73091e-06
-6.16455e-07
4.83255e-06
-5.12773e-07
2.74522e-06
-6.80534e-07
5.46645e-07
-1.06187e-06
-1.02973e-06
-1.57484e-06
-2.21608e-06
-2.21546e-06
-3.22163e-06
-2.96632e-06
-4.20752e-06
-3.71324e-06
-5.30549e-06
-4.35271e-06
-6.37489e-06
-4.71936e-06
-7.36774e-06
-4.69456e-06
-8.07656e-06
-4.22158e-06
-8.31041e-06
-3.34274e-06
-7.89592e-06
-2.20626e-06
-6.75605e-06
-1.07655e-06
-4.94845e-06
-2.76244e-07
-2.77892e-06
-7.99975e-07
1.94495e-08
2.3642e-07
6.49771e-08
7.78611e-07
1.20236e-07
1.43808e-06
1.65127e-07
2.17796e-06
1.84038e-07
2.93767e-06
1.72847e-07
3.64945e-06
1.46488e-07
4.26454e-06
1.34224e-07
4.76603e-06
1.67729e-07
5.16208e-06
2.70668e-07
5.46862e-06
4.54036e-07
5.69449e-06
7.16541e-07
5.83481e-06
1.04639e-06
5.86636e-06
1.42241e-06
5.73651e-06
1.81364e-06
5.33968e-06
2.1793e-06
4.46688e-06
2.35345e-06
2.57108e-06
2.21891e-06
6.81178e-07
1.85879e-06
-6.69602e-07
1.35917e-06
-1.71646e-06
7.4729e-07
-2.60975e-06
1.11873e-08
-3.47142e-06
-8.20843e-07
-4.47346e-06
-1.69373e-06
-5.50201e-06
-2.45916e-06
-6.60231e-06
-2.96565e-06
-7.57008e-06
-3.06594e-06
-8.21012e-06
-2.71664e-06
-8.24521e-06
-1.97794e-06
-7.49476e-06
-1.05611e-06
-5.87027e-06
-2.92728e-07
-3.5423e-06
-1.0927e-06
1.68625e-08
2.19558e-07
6.11187e-08
7.34354e-07
1.25463e-07
1.37373e-06
2.00099e-07
2.10333e-06
2.77655e-07
2.86011e-06
3.59236e-07
3.56786e-06
4.58628e-07
4.16515e-06
5.99197e-07
4.62546e-06
8.04518e-07
4.95676e-06
1.0899e-06
5.18324e-06
1.45877e-06
5.32562e-06
1.90328e-06
5.3903e-06
2.40601e-06
5.36363e-06
2.93999e-06
5.20253e-06
3.46455e-06
4.81513e-06
3.9123e-06
4.01914e-06
4.0983e-06
2.38508e-06
3.97629e-06
8.0319e-07
3.6331e-06
-3.26411e-07
3.14491e-06
-1.22827e-06
2.56387e-06
-2.02871e-06
1.92432e-06
-2.83187e-06
1.16661e-06
-3.71576e-06
3.26242e-07
-4.66164e-06
-5.65182e-07
-5.71089e-06
-1.3899e-06
-6.74537e-06
-1.92079e-06
-7.67923e-06
-2.03456e-06
-8.13144e-06
-1.68936e-06
-7.83996e-06
-1.00853e-06
-6.5511e-06
-3.0903e-07
-4.2418e-06
-1.40173e-06
6.58508e-09
2.12973e-07
2.70672e-08
7.13872e-07
6.69332e-08
1.33387e-06
1.3325e-07
2.03701e-06
2.31737e-07
2.76163e-06
3.70507e-07
3.42909e-06
5.63103e-07
3.97255e-06
8.2469e-07
4.36387e-06
1.16531e-06
4.61614e-06
1.58717e-06
4.76138e-06
2.0846e-06
4.82819e-06
2.64464e-06
4.83026e-06
3.24739e-06
4.76089e-06
3.86394e-06
4.58598e-06
4.4493e-06
4.22976e-06
4.92494e-06
3.54349e-06
5.12549e-06
2.18454e-06
5.04138e-06
8.87295e-07
4.75299e-06
-3.80206e-08
4.3227e-06
-7.9798e-07
3.78933e-06
-1.49534e-06
3.17889e-06
-2.22143e-06
2.49022e-06
-3.02708e-06
1.74319e-06
-3.91461e-06
9.06119e-07
-4.87381e-06
1.43214e-08
-5.85357e-06
-8.15456e-07
-6.84945e-06
-1.32185e-06
-7.62505e-06
-1.3567e-06
-7.80511e-06
-9.41328e-07
-6.96648e-06
-3.31325e-07
-4.8518e-06
-1.73306e-06
-1.23957e-08
2.25368e-07
-3.75141e-08
7.38991e-07
-4.90683e-08
1.34542e-06
-1.44522e-08
2.00239e-06
8.79588e-08
2.65922e-06
2.68529e-07
3.24852e-06
5.37117e-07
3.70397e-06
8.97941e-07
4.00305e-06
1.3442e-06
4.16987e-06
1.86448e-06
4.2411e-06
2.44568e-06
4.24699e-06
3.07264e-06
4.2033e-06
3.72631e-06
4.10722e-06
4.3797e-06
3.93259e-06
4.9895e-06
3.61997e-06
5.48015e-06
3.05284e-06
5.71285e-06
1.95184e-06
5.69935e-06
9.00795e-07
5.50163e-06
1.59703e-07
5.16198e-06
-4.58331e-07
4.71694e-06
-1.0503e-06
4.17962e-06
-1.68411e-06
3.55124e-06
-2.3987e-06
2.8369e-06
-3.20027e-06
2.03784e-06
-4.07476e-06
1.17478e-06
-4.99051e-06
2.46313e-07
-5.92099e-06
-5.63408e-07
-6.81532e-06
-9.69924e-07
-7.39859e-06
-8.47566e-07
-7.08883e-06
-3.603e-07
-5.33907e-06
-2.09336e-06
-4.52793e-08
2.70648e-07
-1.38873e-07
8.32584e-07
-2.18536e-07
1.42508e-06
-2.23173e-07
2.00703e-06
-1.15822e-07
2.55186e-06
1.08441e-07
3.02426e-06
4.48807e-07
3.3636e-06
8.94122e-07
3.55773e-06
1.42148e-06
3.64252e-06
2.0098e-06
3.65278e-06
2.64273e-06
3.61406e-06
3.30617e-06
3.53986e-06
3.98444e-06
3.42895e-06
4.65514e-06
3.26188e-06
5.28087e-06
2.99425e-06
5.79606e-06
2.53765e-06
6.08115e-06
1.66674e-06
6.14723e-06
8.34723e-07
6.05209e-06
2.54837e-07
5.82823e-06
-2.34471e-07
5.49648e-06
-7.18556e-07
5.05804e-06
-1.24566e-06
4.50597e-06
-1.84663e-06
3.83608e-06
-2.53039e-06
3.05098e-06
-3.28965e-06
2.16748e-06
-4.10701e-06
1.21316e-06
-4.96666e-06
2.45435e-07
-5.8476e-06
-5.02482e-07
-6.65067e-06
-7.0761e-07
-6.88371e-06
-3.88381e-07
-5.6583e-06
-2.48174e-06
-1.02454e-07
3.73102e-07
-2.85713e-07
1.01584e-06
-4.30485e-07
1.56985e-06
-4.55316e-07
2.03186e-06
-3.26491e-07
2.42304e-06
-4.60088e-08
2.74378e-06
3.70664e-07
2.94693e-06
8.91596e-07
3.0368e-06
1.48262e-06
3.0515e-06
2.12008e-06
3.01531e-06
2.78878e-06
2.94536e-06
3.47755e-06
2.85109e-06
4.17474e-06
2.73177e-06
4.86283e-06
2.57379e-06
5.51121e-06
2.34586e-06
6.06449e-06
1.98437e-06
6.41263e-06
1.3186e-06
6.55959e-06
6.87763e-07
6.56203e-06
2.52397e-07
6.44604e-06
-1.18478e-07
6.21989e-06
-4.924e-07
5.87671e-06
-9.02493e-07
5.40307e-06
-1.37299e-06
4.78698e-06
-1.91429e-06
4.02452e-06
-2.52719e-06
3.12672e-06
-3.20921e-06
2.12236e-06
-3.9623e-06
1.06751e-06
-4.79276e-06
8.60971e-08
-5.66926e-06
-4.86437e-07
-6.31117e-06
-3.9644e-07
-5.7483e-06
-2.87818e-06
-1.94656e-07
5.67758e-07
-4.73737e-07
1.29492e-06
-6.48811e-07
1.74493e-06
-6.46072e-07
2.02912e-06
-4.55545e-07
2.23251e-06
-9.25703e-08
2.3808e-06
4.11305e-07
2.44305e-06
1.00508e-06
2.44303e-06
1.65304e-06
2.40354e-06
2.33506e-06
2.33329e-06
3.03855e-06
2.24187e-06
3.75451e-06
2.13513e-06
4.47343e-06
2.01284e-06
5.18064e-06
1.86658e-06
5.85039e-06
1.67612e-06
6.43473e-06
1.40003e-06
6.82926e-06
9.24069e-07
7.03393e-06
4.83087e-07
7.10558e-06
1.80755e-07
7.06522e-06
-7.81267e-08
6.91422e-06
-3.41391e-07
6.64356e-06
-6.31833e-07
6.23768e-06
-9.67111e-07
5.68003e-06
-1.35664e-06
4.95902e-06
-1.80618e-06
4.07456e-06
-2.32475e-06
3.04398e-06
-2.93173e-06
1.91055e-06
-3.65932e-06
7.70538e-07
-4.52925e-06
-1.30062e-07
-5.41057e-06
-3.53185e-07
-5.52517e-06
-3.23136e-06
-3.17055e-07
8.84813e-07
-6.54569e-07
1.63244e-06
-7.67479e-07
1.85784e-06
-6.47845e-07
1.90949e-06
-3.28375e-07
1.91304e-06
1.59666e-07
1.89276e-06
7.62559e-07
1.84016e-06
1.42799e-06
1.77759e-06
2.13194e-06
1.69959e-06
2.85691e-06
1.60832e-06
3.59084e-06
1.50794e-06
4.32445e-06
1.40153e-06
5.04802e-06
1.28927e-06
5.74789e-06
1.16671e-06
6.40189e-06
1.02212e-06
6.96942e-06
8.32502e-07
7.35842e-06
5.35069e-07
7.57228e-06
2.69229e-07
7.66597e-06
8.70615e-08
7.657e-06
-6.91587e-08
7.54466e-06
-2.2905e-07
7.3211e-06
-4.08277e-07
6.97161e-06
-6.1762e-07
6.47843e-06
-8.63462e-07
5.82453e-06
-1.15228e-06
4.99744e-06
-1.49765e-06
3.99445e-06
-1.92874e-06
2.83297e-06
-2.49784e-06
1.57624e-06
-3.27252e-06
4.05372e-07
-4.23971e-06
-2.1622e-07
-4.90358e-06
-3.44758e-06
-4.42234e-07
1.32705e-06
-6.70627e-07
1.86083e-06
-5.23866e-07
1.71108e-06
-1.40074e-07
1.5257e-06
3.93634e-07
1.37934e-06
1.0272e-06
1.2592e-06
1.71729e-06
1.15007e-06
2.43968e-06
1.0552e-06
3.17407e-06
9.65198e-07
3.90494e-06
8.77451e-07
4.62062e-06
7.92264e-07
5.31189e-06
7.10257e-07
5.97009e-06
6.31067e-07
6.58468e-06
5.52121e-07
7.1396e-06
4.67191e-07
7.60605e-06
3.66059e-07
7.91743e-06
2.23686e-07
8.08477e-06
1.01889e-07
8.15417e-06
1.76566e-08
8.13997e-06
-5.49536e-08
8.0417e-06
-1.30781e-07
7.85234e-06
-2.18914e-07
7.55881e-06
-3.24095e-07
7.14467e-06
-4.49321e-07
6.5914e-06
-5.99012e-07
5.8783e-06
-7.84544e-07
4.98231e-06
-1.03275e-06
3.88196e-06
-1.39749e-06
2.57842e-06
-1.96897e-06
1.18096e-06
-2.84225e-06
1.12875e-07
-3.8355e-06
-3.33471e-06
-3.79595e-07
1.70664e-06
1.43079e-08
1.46693e-06
7.30921e-07
9.94465e-07
1.46134e-06
7.95279e-07
2.18856e-06
6.52113e-07
2.91354e-06
5.34224e-07
3.62131e-06
4.42293e-07
4.30438e-06
3.72136e-07
4.95432e-06
3.15251e-07
5.56412e-06
2.67653e-07
6.12896e-06
2.27423e-07
6.64602e-06
1.93201e-07
7.11344e-06
1.63644e-07
7.52858e-06
1.36983e-07
7.8852e-06
1.10569e-07
8.16976e-06
8.14987e-08
8.34854e-06
4.49074e-08
8.43554e-06
1.48829e-08
8.45951e-06
-6.30907e-09
8.42958e-06
-2.50265e-08
8.34491e-06
-4.61075e-08
8.19827e-06
-7.22714e-08
7.97876e-06
-1.04588e-07
7.67324e-06
-1.43807e-07
7.2659e-06
-1.91673e-07
6.73502e-06
-2.53663e-07
6.0466e-06
-3.44328e-07
5.14606e-06
-4.96949e-07
3.95482e-06
-7.77733e-07
2.41067e-06
-1.2981e-06
7.43021e-07
-2.16785e-06
-2.59169e-06
1.70664e-06
3.17357e-06
4.16803e-06
4.96331e-06
5.61543e-06
6.14965e-06
6.59194e-06
6.96408e-06
7.27933e-06
7.54698e-06
7.77441e-06
7.96761e-06
8.13125e-06
8.26823e-06
8.3788e-06
8.4603e-06
8.50521e-06
8.52009e-06
8.51378e-06
8.48876e-06
8.44265e-06
8.37038e-06
8.26579e-06
8.12198e-06
7.93031e-06
7.67665e-06
7.33232e-06
6.83537e-06
6.05764e-06
4.75954e-06
2.59169e-06
)
;

boundaryField
{
    movingWall
    {
        type            calculated;
        value           uniform 0;
    }
    fixedWalls
    {
        type            calculated;
        value           uniform 0;
    }
    floor
    {
        type            calculated;
        value           uniform 0;
    }
    frontAndBack
    {
        type            empty;
        value           nonuniform List<scalar> 0();
    }
}


// ************************************************************************* //
