/*--------------------------------*- C++ -*----------------------------------*\
| =========                 |                                                 |
| \\      /  F ield         | OpenFOAM: The Open Source CFD Toolbox           |
|  \\    /   O peration     | Version:  2212                                  |
|   \\  /    A nd           | Website:  www.openfoam.com                      |
|    \\/     M anipulation  |                                                 |
\*---------------------------------------------------------------------------*/
FoamFile
{
    version     2.0;
    format      ascii;
    arch        "LSB;label=64;scalar=64";
    class       volVectorField;
    location    "930";
    object      U;
}
// * * * * * * * * * * * * * * * * * * * * * * * * * * * * * * * * * * * * * //

dimensions      [0 1 -1 0 0 0 0];

internalField   nonuniform List<vector> 
1024
(
(1.46259e-05 -1.53263e-05 0)
(-3.69302e-05 8.6695e-06 0)
(-0.000232023 3.38502e-05 0)
(-0.000552295 4.31503e-05 0)
(-0.000944802 4.27749e-05 0)
(-0.00137192 4.08742e-05 0)
(-0.00182223 4.01669e-05 0)
(-0.00228848 3.92879e-05 0)
(-0.00274102 3.56145e-05 0)
(-0.00310238 2.5959e-05 0)
(-0.00322028 6.33043e-06 0)
(-0.00286312 -2.49085e-05 0)
(-0.00187131 -4.99009e-05 0)
(-0.000283899 -5.39812e-05 0)
(0.00123799 -3.48999e-05 0)
(0.00217298 -1.47684e-05 0)
(0.00259024 -2.52781e-06 0)
(0.0026464 3.45852e-06 0)
(0.00253017 7.51303e-06 0)
(0.00232414 9.84825e-06 0)
(0.00207997 1.15664e-05 0)
(0.0018206 1.28575e-05 0)
(0.00156174 1.35085e-05 0)
(0.00131571 1.35478e-05 0)
(0.00108783 1.3465e-05 0)
(0.000873805 1.43044e-05 0)
(0.000663155 1.68632e-05 0)
(0.000450887 2.02646e-05 0)
(0.000250043 2.10852e-05 0)
(9.15887e-05 1.49416e-05 0)
(4.921e-06 1.29158e-06 0)
(-9.5153e-06 -9.58469e-06 0)
(-1.29698e-05 3.80859e-05 0)
(-0.000273159 0.000243164 0)
(-0.000867724 0.000431622 0)
(-0.00176129 0.00051607 0)
(-0.00283664 0.000516593 0)
(-0.00399883 0.00048221 0)
(-0.00519255 0.000438253 0)
(-0.00636437 0.000381492 0)
(-0.00741168 0.000295349 0)
(-0.00813293 0.000159636 0)
(-0.00819188 -4.55868e-05 0)
(-0.00710049 -0.00030582 0)
(-0.00457291 -0.000522592 0)
(-0.00057571 -0.00056217 0)
(0.00331432 -0.000386216 0)
(0.0057998 -0.000187687 0)
(0.00702906 -6.11993e-05 0)
(0.00731789 1.08342e-05 0)
(0.00712043 5.96901e-05 0)
(0.0066506 9.38773e-05 0)
(0.00604274 0.000120935 0)
(0.00536456 0.000143538 0)
(0.0046618 0.000161025 0)
(0.0039693 0.000173958 0)
(0.00330509 0.000186487 0)
(0.00266632 0.000205668 0)
(0.00203859 0.000234481 0)
(0.00142095 0.000261833 0)
(0.000849144 0.000260614 0)
(0.00039132 0.000204623 0)
(0.000109041 9.94416e-05 0)
(1.7076e-06 4.17101e-06 0)
(-5.34327e-05 0.00028292 0)
(-0.00058073 0.000886873 0)
(-0.00159554 0.00134907 0)
(-0.00302267 0.00154638 0)
(-0.00468935 0.001529 0)
(-0.00645399 0.00140333 0)
(-0.00820883 0.00123079 0)
(-0.00983983 0.00101231 0)
(-0.0111751 0.000717724 0)
(-0.0119314 0.000309094 0)
(-0.0116745 -0.000249974 0)
(-0.00983652 -0.000907337 0)
(-0.00618301 -0.00145617 0)
(-0.000540226 -0.00156213 0)
(0.00497089 -0.00109632 0)
(0.00870989 -0.000563567 0)
(0.0107492 -0.000215063 0)
(0.0114144 -5.17811e-06 0)
(0.0112942 0.000139882 0)
(0.010719 0.000247325 0)
(0.00988319 0.000336289 0)
(0.0088948 0.000413762 0)
(0.00782687 0.000479069 0)
(0.00673474 0.000533839 0)
(0.00565182 0.000587683 0)
(0.00458682 0.000655527 0)
(0.00353598 0.000740914 0)
(0.00251114 0.000813832 0)
(0.00156467 0.000809385 0)
(0.000786626 0.000668063 0)
(0.000267053 0.000398598 0)
(2.06213e-05 0.000104827 0)
(-8.83943e-05 0.000780854 0)
(-0.00085397 0.00206295 0)
(-0.00223327 0.00290831 0)
(-0.00409316 0.00322306 0)
(-0.00620071 0.00313104 0)
(-0.00837118 0.00281732 0)
(-0.0104492 0.00239211 0)
(-0.0122689 0.00187063 0)
(-0.0136121 0.0012161 0)
(-0.0141576 0.000376447 0)
(-0.0134278 -0.000692812 0)
(-0.0109457 -0.00187449 0)
(-0.00660484 -0.00285023 0)
(-0.000133789 -0.00302905 0)
(0.00610013 -0.00217098 0)
(0.0107112 -0.00118212 0)
(0.0134786 -0.000508916 0)
(0.0146182 -8.2711e-05 0)
(0.0147307 0.000218617 0)
(0.0142193 0.000450694 0)
(0.0133174 0.000649897 0)
(0.0121618 0.000829597 0)
(0.010846 0.000990027 0)
(0.00944128 0.00113415 0)
(0.00799732 0.00127698 0)
(0.00654112 0.00144024 0)
(0.00508877 0.00162513 0)
(0.00366901 0.00177662 0)
(0.00234669 0.00178065 0)
(0.00122971 0.00152641 0)
(0.000445684 0.00100347 0)
(4.09547e-05 0.000340318 0)
(-0.000106405 0.00153214 0)
(-0.00100182 0.00377161 0)
(-0.00258719 0.00509919 0)
(-0.00469066 0.00551285 0)
(-0.00703019 0.00526153 0)
(-0.0093807 0.00463693 0)
(-0.0115478 0.00381501 0)
(-0.0133319 0.00283956 0)
(-0.0144956 0.00167832 0)
(-0.0147131 0.000272226 0)
(-0.0135034 -0.00141686 0)
(-0.0105875 -0.00317747 0)
(-0.00596967 -0.00460239 0)
(0.000602037 -0.00481291 0)
(0.0067497 -0.00352459 0)
(0.0117854 -0.00203608 0)
(0.0150808 -0.000970729 0)
(0.0166856 -0.000266859 0)
(0.0171362 0.000248866 0)
(0.0168283 0.000659488 0)
(0.0160147 0.00102321 0)
(0.0148451 0.00136253 0)
(0.0134218 0.00167994 0)
(0.0118254 0.00197963 0)
(0.0101189 0.00227988 0)
(0.00834849 0.00260536 0)
(0.00655295 0.00295093 0)
(0.00478 0.00323251 0)
(0.00310783 0.00327606 0)
(0.00166453 0.0028923 0)
(0.000620872 0.00201071 0)
(6.07044e-05 0.000754021 0)
(-9.87818e-05 0.00244685 0)
(-0.000961109 0.00585088 0)
(-0.00252071 0.00776135 0)
(-0.00461727 0.00827832 0)
(-0.00695348 0.0077982 0)
(-0.00927188 0.00674628 0)
(-0.0113454 0.00538968 0)
(-0.0129548 0.00382131 0)
(-0.0138633 0.00202756 0)
(-0.013754 -4.97102e-05 0)
(-0.0122127 -0.00241493 0)
(-0.00910683 -0.00475943 0)
(-0.00454057 -0.00659314 0)
(0.00156633 -0.00674776 0)
(0.00711042 -0.00504755 0)
(0.0121138 -0.00308276 0)
(0.0156315 -0.00160022 0)
(0.0175584 -0.000584561 0)
(0.0183473 0.000187778 0)
(0.0183089 0.000824843 0)
(0.01769 0.00140648 0)
(0.0166339 0.00196718 0)
(0.0152377 0.00251326 0)
(0.0135818 0.0030497 0)
(0.0117362 0.00359477 0)
(0.00976246 0.00417078 0)
(0.00771928 0.00476065 0)
(0.00567405 0.00524511 0)
(0.0037221 0.00537556 0)
(0.00201447 0.00485039 0)
(0.000761092 0.00349026 0)
(7.65196e-05 0.00137744 0)
(-6.6437e-05 0.0033458 0)
(-0.000730353 0.00797137 0)
(-0.00201899 0.0105697 0)
(-0.00384411 0.0112653 0)
(-0.00594634 0.0105587 0)
(-0.00805552 0.00901533 0)
(-0.00991734 0.00702379 0)
(-0.0112989 0.00475623 0)
(-0.0119722 0.00223808 0)
(-0.0116213 -0.00057584 0)
(-0.00994478 -0.00364528 0)
(-0.00685482 -0.00655976 0)
(-0.00257116 -0.00870085 0)
(0.00265252 -0.00869275 0)
(0.00739197 -0.0066398 0)
(0.0119787 -0.00425042 0)
(0.0153841 -0.00235975 0)
(0.0173984 -0.00102747 0)
(0.0183988 1.65883e-05 0)
(0.0185985 0.000911663 0)
(0.018203 0.00175435 0)
(0.017331 0.00259365 0)
(0.0160597 0.00344124 0)
(0.0144584 0.00430199 0)
(0.012596 0.00519058 0)
(0.0105422 0.00612078 0)
(0.00837068 0.00705539 0)
(0.00616795 0.007828 0)
(0.00405025 0.00809471 0)
(0.00219187 0.00740807 0)
(0.000827691 0.00544 0)
(8.32746e-05 0.00220693 0)
(-2.15396e-05 0.00400818 0)
(-0.000375086 0.0096927 0)
(-0.00119474 0.0130557 0)
(-0.00250752 0.0140959 0)
(-0.00415773 0.0132892 0)
(-0.00590389 0.0112956 0)
(-0.00747682 0.00864389 0)
(-0.00862895 0.00562463 0)
(-0.00913727 0.00233235 0)
(-0.00866642 -0.00125047 0)
(-0.00697934 -0.00506347 0)
(-0.00407043 -0.0085166 0)
(-0.000237323 -0.0107848 0)
(0.00376722 -0.0105378 0)
(0.00769891 -0.00821734 0)
(0.0115978 -0.00545309 0)
(0.0146147 -0.00318344 0)
(0.0164832 -0.00154807 0)
(0.0174912 -0.000244368 0)
(0.0178213 0.000915261 0)
(0.017601 0.00204274 0)
(0.0169163 0.00320361 0)
(0.0158136 0.00441616 0)
(0.0143412 0.00568408 0)
(0.0125589 0.00701457 0)
(0.0105371 0.00840551 0)
(0.00835928 0.00978709 0)
(0.00613024 0.0109255 0)
(0.00398964 0.0113547 0)
(0.00213121 0.0104565 0)
(0.000791485 0.00774495 0)
(7.69905e-05 0.00318019 0)
(1.69809e-05 0.00424235 0)
(-8.13026e-06 0.0105674 0)
(-0.000257975 0.0146614 0)
(-0.000872284 0.0162615 0)
(-0.00185446 0.0156267 0)
(-0.00306432 0.0133807 0)
(-0.00425385 0.010166 0)
(-0.00516041 0.00642093 0)
(-0.00555441 0.00234508 0)
(-0.00504377 -0.00203069 0)
(-0.00343326 -0.00662103 0)
(-0.00089084 -0.0105144 0)
(0.00212036 -0.0126732 0)
(0.00500105 -0.0121965 0)
(0.00799625 -0.00968223 0)
(0.011016 -0.00659738 0)
(0.0134561 -0.00399626 0)
(0.0150205 -0.00208039 0)
(0.0158839 -0.000536259 0)
(0.0162076 0.000868921 0)
(0.016069 0.00228054 0)
(0.0155244 0.00378404 0)
(0.0145847 0.00540609 0)
(0.0132719 0.00714829 0)
(0.0116302 0.00900602 0)
(0.00972521 0.0109512 0)
(0.00764784 0.0128621 0)
(0.00552171 0.0144075 0)
(0.00351051 0.0149687 0)
(0.00181742 0.0137541 0)
(0.000648588 0.0101651 0)
(5.7784e-05 0.00417175 0)
(4.46666e-05 0.00400647 0)
(0.000279964 0.0103451 0)
(0.000543414 0.0148639 0)
(0.000667077 0.0171102 0)
(0.000518899 0.0170419 0)
(8.75213e-05 0.0150009 0)
(-0.000518195 0.0114966 0)
(-0.00106345 0.00718725 0)
(-0.00129697 0.00237631 0)
(-0.000755139 -0.00284488 0)
(0.000634852 -0.00822462 0)
(0.00249399 -0.0122449 0)
(0.00439329 -0.0141722 0)
(0.00622974 -0.0135494 0)
(0.00811218 -0.0108866 0)
(0.0100884 -0.00757129 0)
(0.011824 -0.0047247 0)
(0.0130144 -0.00256819 0)
(0.0136794 -0.000802037 0)
(0.0139196 0.00082234 0)
(0.0137898 0.00249945 0)
(0.0133328 0.00434506 0)
(0.0125301 0.00639849 0)
(0.0113783 0.00865965 0)
(0.00990517 0.0111066 0)
(0.00817233 0.0136692 0)
(0.00628123 0.0161449 0)
(0.00437841 0.0180645 0)
(0.00264897 0.0186329 0)
(0.00128464 0.0169268 0)
(0.00042064 0.0123535 0)
(2.97769e-05 0.00501148 0)
(5.37617e-05 0.00333317 0)
(0.000442584 0.00900272 0)
(0.00106824 0.0134765 0)
(0.00178723 0.016147 0)
(0.00241863 0.016699 0)
(0.00285141 0.0152045 0)
(0.00306805 0.0120103 0)
(0.00316364 0.00760803 0)
(0.00334788 0.00231973 0)
(0.00394707 -0.00360851 0)
(0.0047953 -0.00916606 0)
(0.00574166 -0.0132889 0)
(0.00654575 -0.0151223 0)
(0.00717709 -0.0143721 0)
(0.00773879 -0.0116141 0)
(0.00850463 -0.00822114 0)
(0.00942855 -0.00528807 0)
(0.0102363 -0.00297749 0)
(0.0107423 -0.0010171 0)
(0.0109245 0.00080002 0)
(0.0107988 0.00271743 0)
(0.010416 0.00489289 0)
(0.00973761 0.00738331 0)
(0.00874266 0.0101882 0)
(0.00744883 0.0132596 0)
(0.00592589 0.0164535 0)
(0.00430233 0.0194428 0)
(0.00275403 0.0215779 0)
(0.00147245 0.0218973 0)
(0.00059732 0.0194654 0)
(0.000145362 0.0138874 0)
(-1.02939e-06 0.00551422 0)
(4.79363e-05 0.00237889 0)
(0.00046883 0.00677667 0)
(0.0012523 0.0106516 0)
(0.00231534 0.0133691 0)
(0.00348772 0.014411 0)
(0.00461537 0.0135753 0)
(0.00559933 0.0109768 0)
(0.0064257 0.0069309 0)
(0.00720261 0.00175709 0)
(0.00792773 -0.00415542 0)
(0.0083778 -0.00964408 0)
(0.00847636 -0.0135987 0)
(0.00809005 -0.0152069 0)
(0.00732907 -0.014321 0)
(0.0063708 -0.0115662 0)
(0.00578984 -0.0083313 0)
(0.00580423 -0.00557551 0)
(0.0062442 -0.00329596 0)
(0.00668796 -0.00120184 0)
(0.00693817 0.000784927 0)
(0.00687375 0.00291284 0)
(0.0065987 0.00539927 0)
(0.00606167 0.00831928 0)
(0.00523813 0.0116701 0)
(0.00414402 0.0153636 0)
(0.00289267 0.0191284 0)
(0.00168279 0.0224374 0)
(0.000707806 0.0244318 0)
(9.69376e-05 0.0240871 0)
(-0.000140121 0.0206925 0)
(-0.000125577 0.0143108 0)
(-2.72111e-05 0.00552129 0)
(3.22948e-05 0.00138627 0)
(0.000379418 0.00419915 0)
(0.00110474 0.00698646 0)
(0.00220765 0.0092558 0)
(0.00358209 0.0104417 0)
(0.00508728 0.0101428 0)
(0.00659164 0.00823558 0)
(0.00801299 0.00483212 0)
(0.00935013 0.000179734 0)
(0.0102288 -0.00497489 0)
(0.0103802 -0.00964307 0)
(0.00967531 -0.0129273 0)
(0.00804943 -0.0140664 0)
(0.00581335 -0.0129972 0)
(0.00322424 -0.0103844 0)
(0.0013087 -0.00765988 0)
(0.000361043 -0.00545705 0)
(0.000402237 -0.00352951 0)
(0.00084739 -0.00151796 0)
(0.00135654 0.000562496 0)
(0.00136833 0.00290579 0)
(0.00125262 0.00571964 0)
(0.000909424 0.00911541 0)
(0.000349518 0.013073 0)
(-0.000344078 0.0174416 0)
(-0.000981538 0.0214098 0)
(-0.00139731 0.024376 0)
(-0.00148324 0.025537 0)
(-0.00124697 0.0241717 0)
(-0.000808601 0.0199925 0)
(-0.000356804 0.0133316 0)
(-4.79324e-05 0.00494592 0)
(1.66819e-05 0.000577463 0)
(0.000240274 0.00187977 0)
(0.000770115 0.00333181 0)
(0.00167679 0.00467389 0)
(0.00295129 0.00548557 0)
(0.00451681 0.00533839 0)
(0.00624739 0.0039659 0)
(0.00796266 0.0013228 0)
(0.00932405 -0.00221296 0)
(0.00995587 -0.00580616 0)
(0.00952777 -0.00894892 0)
(0.00790861 -0.0110277 0)
(0.00497825 -0.01135 0)
(0.00134043 -0.0100011 0)
(-0.00281606 -0.00768983 0)
(-0.00562668 -0.00607158 0)
(-0.0074009 -0.00484073 0)
(-0.00797419 -0.00355533 0)
(-0.00773698 -0.00183751 0)
(-0.00704203 0.000428798 0)
(-0.00672426 0.00303464 0)
(-0.00640046 0.00613152 0)
(-0.00612063 0.00986946 0)
(-0.00587151 0.0140335 0)
(-0.00554608 0.0181809 0)
(-0.00505098 0.0216109 0)
(-0.00432818 0.0236763 0)
(-0.00338691 0.0237571 0)
(-0.00232132 0.0214835 0)
(-0.00129585 0.0169575 0)
(-0.000502557 0.0107803 0)
(-5.4285e-05 0.00379189 0)
(7.37081e-06 0.00012746 0)
(0.000155107 0.000359847 0)
(0.000512797 0.000580136 0)
(0.00114656 0.000721964 0)
(0.00207295 0.000625354 0)
(0.00323548 7.0229e-05 0)
(0.00446963 -0.00106434 0)
(0.00550081 -0.00261672 0)
(0.00602825 -0.00424197 0)
(0.0056727 -0.00578034 0)
(0.00416704 -0.00697078 0)
(0.00137089 -0.00739939 0)
(-0.00322996 -0.0064807 0)
(-0.00770412 -0.00520052 0)
(-0.0118995 -0.00427455 0)
(-0.0153935 -0.00381172 0)
(-0.0179822 -0.00357579 0)
(-0.0192537 -0.00317959 0)
(-0.0193147 -0.00222788 0)
(-0.0184855 -0.000520651 0)
(-0.016894 0.00193156 0)
(-0.0154026 0.00490507 0)
(-0.0136813 0.00834493 0)
(-0.0118814 0.0119847 0)
(-0.0100265 0.015349 0)
(-0.0081219 0.0178225 0)
(-0.00620656 0.018864 0)
(-0.00437074 0.0180764 0)
(-0.00272504 0.015425 0)
(-0.00139612 0.011354 0)
(-0.000498305 0.00665928 0)
(-5.07267e-05 0.00211984 0)
(1.02415e-05 -0.00052417 0)
(3.33584e-05 -0.00141234 0)
(5.28502e-05 -0.00215842 0)
(3.71414e-05 -0.00274011 0)
(-7.41762e-05 -0.00315491 0)
(-0.000357445 -0.00336106 0)
(-0.000919858 -0.00326987 0)
(-0.0019186 -0.00281742 0)
(-0.00355624 -0.00206227 0)
(-0.00601101 -0.00124626 0)
(-0.00928167 -0.000576512 0)
(-0.0131106 -0.000118803 0)
(-0.0170744 8.18155e-05 0)
(-0.0208657 3.91126e-05 0)
(-0.0243915 -0.00019601 0)
(-0.0275291 -0.000696938 0)
(-0.0300523 -0.00143573 0)
(-0.0314021 -0.00215191 0)
(-0.0314143 -0.00246124 0)
(-0.0302121 -0.00213888 0)
(-0.0278617 -0.00102366 0)
(-0.0245624 0.000918378 0)
(-0.0207453 0.00348654 0)
(-0.0166533 0.00636462 0)
(-0.0126096 0.00898831 0)
(-0.00894127 0.0105703 0)
(-0.00579187 0.0110778 0)
(-0.00334292 0.0103109 0)
(-0.00164711 0.008375 0)
(-0.00063655 0.00576723 0)
(-0.000153141 0.00313023 0)
(-2.93992e-07 0.000905461 0)
(-3.73225e-05 0.000181806 0)
(-0.00036266 0.000652035 0)
(-0.001028 0.00131206 0)
(-0.00206638 0.00218612 0)
(-0.0034552 0.00321821 0)
(-0.00518134 0.00425123 0)
(-0.00722744 0.00511147 0)
(-0.00952441 0.00571639 0)
(-0.0119722 0.00606105 0)
(-0.0145301 0.00616195 0)
(-0.0172298 0.00601302 0)
(-0.0201051 0.00561897 0)
(-0.0231545 0.00501237 0)
(-0.0263288 0.00419301 0)
(-0.0295216 0.00312113 0)
(-0.0325113 0.00170124 0)
(-0.0348914 -0.000182288 0)
(-0.0360828 -0.00229501 0)
(-0.0361475 -0.00432221 0)
(-0.0352157 -0.00619244 0)
(-0.0332497 -0.00781004 0)
(-0.0302653 -0.00906204 0)
(-0.026363 -0.00977286 0)
(-0.0217637 -0.00973316 0)
(-0.0168123 -0.00869307 0)
(-0.0119395 -0.00644155 0)
(-0.00763884 -0.00348045 0)
(-0.0042167 -0.000419285 0)
(-0.00187196 0.00191802 0)
(-0.000580462 0.00289189 0)
(-7.12644e-05 0.00247535 0)
(2.03885e-05 0.0010823 0)
(-3.31894e-05 0.00181564 0)
(-0.000372632 0.00482464 0)
(-0.00105758 0.00724284 0)
(-0.00209651 0.00898019 0)
(-0.00341924 0.0100963 0)
(-0.0049524 0.0107427 0)
(-0.00665526 0.0110708 0)
(-0.00851551 0.0111809 0)
(-0.0105237 0.0111246 0)
(-0.0126646 0.0109082 0)
(-0.0149206 0.0105004 0)
(-0.0172752 0.00986457 0)
(-0.0197189 0.00897835 0)
(-0.0222437 0.00781627 0)
(-0.0248152 0.00632677 0)
(-0.0273152 0.00440466 0)
(-0.0294955 0.00186638 0)
(-0.030903 -0.00112987 0)
(-0.0312796 -0.00414545 0)
(-0.0310938 -0.00722234 0)
(-0.0302447 -0.010422 0)
(-0.0286688 -0.0137052 0)
(-0.0263339 -0.0168709 0)
(-0.0232782 -0.0195442 0)
(-0.0196178 -0.0212179 0)
(-0.015549 -0.0213351 0)
(-0.011361 -0.0194546 0)
(-0.00741987 -0.0154957 0)
(-0.00411507 -0.0100809 0)
(-0.00177568 -0.00469347 0)
(-0.000492352 -0.000986009 0)
(-2.40217e-05 0.000344278 0)
(-1.50917e-05 0.0026638 0)
(-0.000198483 0.00708261 0)
(-0.000604713 0.0106369 0)
(-0.00127838 0.0131649 0)
(-0.00221038 0.0146996 0)
(-0.00335981 0.0154391 0)
(-0.00467332 0.0156346 0)
(-0.00610428 0.0154832 0)
(-0.00761797 0.0150956 0)
(-0.00918791 0.0145142 0)
(-0.0107919 0.0137409 0)
(-0.0124107 0.0127619 0)
(-0.0140316 0.0115559 0)
(-0.0156508 0.010086 0)
(-0.0172665 0.00828547 0)
(-0.0188391 0.00603101 0)
(-0.0202408 0.00309191 0)
(-0.0213416 -0.000380719 0)
(-0.0219778 -0.00381998 0)
(-0.0224662 -0.00733406 0)
(-0.0227455 -0.0112341 0)
(-0.0226628 -0.0156305 0)
(-0.0220482 -0.0203991 0)
(-0.0207664 -0.0251445 0)
(-0.0187428 -0.0292492 0)
(-0.0160052 -0.0318956 0)
(-0.0127055 -0.0322025 0)
(-0.00912246 -0.0294468 0)
(-0.00564808 -0.0234997 0)
(-0.00275775 -0.0154017 0)
(-0.000877924 -0.00744079 0)
(-5.89337e-05 -0.00168325 0)
(2.11263e-06 0.00297203 0)
(-4.19637e-05 0.00804189 0)
(-0.000191739 0.0122805 0)
(-0.000509291 0.0154274 0)
(-0.0010319 0.0174012 0)
(-0.0017541 0.018336 0)
(-0.00262937 0.0185028 0)
(-0.00359452 0.0181699 0)
(-0.00458935 0.0175177 0)
(-0.00556523 0.0166371 0)
(-0.00648642 0.0155617 0)
(-0.00732994 0.0143008 0)
(-0.00808605 0.0128478 0)
(-0.00875937 0.0111724 0)
(-0.00936712 0.0092089 0)
(-0.00991463 0.00684586 0)
(-0.0103369 0.00389908 0)
(-0.0106174 0.000460918 0)
(-0.0114846 -0.00290431 0)
(-0.0123567 -0.00627313 0)
(-0.0134323 -0.0101352 0)
(-0.0145348 -0.014799 0)
(-0.0154261 -0.0203272 0)
(-0.0158578 -0.026433 0)
(-0.015585 -0.0325622 0)
(-0.0144462 -0.0377742 0)
(-0.0124183 -0.0408631 0)
(-0.00965268 -0.0405099 0)
(-0.00648691 -0.035705 0)
(-0.0034477 -0.0264951 0)
(-0.0011944 -0.0149132 0)
(-9.49706e-05 -0.00426396 0)
(1.12237e-05 0.00292269 0)
(6.24602e-05 0.00809643 0)
(0.000102198 0.0126332 0)
(6.86496e-05 0.0162043 0)
(-0.000100488 0.0186034 0)
(-0.000427871 0.0198028 0)
(-0.00088282 0.0200262 0)
(-0.0013948 0.0195774 0)
(-0.00188251 0.0187083 0)
(-0.00227749 0.0175746 0)
(-0.0025341 0.0162535 0)
(-0.00263073 0.0147796 0)
(-0.00256822 0.0131602 0)
(-0.00236844 0.0113704 0)
(-0.00207451 0.00933883 0)
(-0.00172866 0.00692832 0)
(-0.001421 0.00400174 0)
(-0.00110502 0.000789756 0)
(-0.00199941 -0.00217677 0)
(-0.00306505 -0.00512052 0)
(-0.00448138 -0.00849337 0)
(-0.00617136 -0.0127529 0)
(-0.00801586 -0.0182533 0)
(-0.00974004 -0.0248478 0)
(-0.0110015 -0.0322386 0)
(-0.0114683 -0.0395218 0)
(-0.0109126 -0.0453546 0)
(-0.00929465 -0.0479527 0)
(-0.00681594 -0.0454828 0)
(-0.00395089 -0.0367413 0)
(-0.00149004 -0.0226864 0)
(-0.000134591 -0.00719874 0)
(1.46572e-05 0.00272556 0)
(0.000114019 0.00773156 0)
(0.000263288 0.0123182 0)
(0.00041385 0.0161069 0)
(0.000505546 0.0187865 0)
(0.000506348 0.0202284 0)
(0.000434199 0.0205516 0)
(0.000358128 0.0200367 0)
(0.000369923 0.0189853 0)
(0.000549209 0.0176262 0)
(0.000943086 0.0160948 0)
(0.00156265 0.0144578 0)
(0.00238739 0.0127345 0)
(0.00336984 0.0109006 0)
(0.00443126 0.00887786 0)
(0.00548522 0.0065039 0)
(0.00627455 0.00373197 0)
(0.00659255 0.00102527 0)
(0.00577119 -0.00147998 0)
(0.00453838 -0.00401783 0)
(0.00298765 -0.00685586 0)
(0.00121736 -0.0103816 0)
(-0.00103161 -0.0154957 0)
(-0.00343379 -0.0218142 0)
(-0.00575358 -0.0296116 0)
(-0.00758904 -0.0381801 0)
(-0.00851286 -0.0462799 0)
(-0.00822752 -0.0518453 0)
(-0.00671701 -0.0524002 0)
(-0.00429875 -0.0454488 0)
(-0.00178328 -0.0302706 0)
(-0.000179672 -0.0103466 0)
(1.2676e-05 0.00250622 0)
(0.000113983 0.00724983 0)
(0.000291436 0.0117489 0)
(0.000522141 0.0156001 0)
(0.000768875 0.0184193 0)
(0.00101471 0.0199883 0)
(0.00128348 0.0203472 0)
(0.00164198 0.0197523 0)
(0.00217413 0.0185405 0)
(0.00294613 0.0170008 0)
(0.00398684 0.0153197 0)
(0.00528628 0.013591 0)
(0.00680162 0.0118415 0)
(0.00846148 0.0100451 0)
(0.0101542 0.00812064 0)
(0.0117414 0.00590887 0)
(0.0128061 0.00345821 0)
(0.0130358 0.00121039 0)
(0.0122093 -0.000880675 0)
(0.0108427 -0.00305298 0)
(0.00912459 -0.00554994 0)
(0.00719482 -0.00866757 0)
(0.00499354 -0.0128279 0)
(0.0025057 -0.0183163 0)
(-0.000309208 -0.0258206 0)
(-0.00310141 -0.0348136 0)
(-0.00537071 -0.04444 0)
(-0.00651556 -0.0525817 0)
(-0.00621591 -0.0564162 0)
(-0.0045125 -0.052266 0)
(-0.00211205 -0.0373723 0)
(-0.000239918 -0.0136627 0)
(4.04936e-06 0.00235468 0)
(4.91487e-05 0.00688417 0)
(0.000155501 0.0112486 0)
(0.000351716 0.0150322 0)
(0.000655467 0.0178191 0)
(0.00108362 0.0193523 0)
(0.00167312 0.019631 0)
(0.00248366 0.0189048 0)
(0.00357091 0.0175423 0)
(0.00496074 0.015873 0)
(0.00664474 0.0141127 0)
(0.00858567 0.0123678 0)
(0.0107214 0.0106657 0)
(0.0129641 0.00897648 0)
(0.0151783 0.00722053 0)
(0.0171808 0.00525616 0)
(0.0184548 0.00318462 0)
(0.0187087 0.00137369 0)
(0.0179697 -0.000302023 0)
(0.0166188 -0.00208409 0)
(0.0148425 -0.00420322 0)
(0.0127591 -0.00695263 0)
(0.0104109 -0.0106753 0)
(0.00782616 -0.0156133 0)
(0.00496938 -0.022063 0)
(0.0018521 -0.0302255 0)
(-0.00148507 -0.0405753 0)
(-0.00407441 -0.0506167 0)
(-0.00522759 -0.0576243 0)
(-0.00455396 -0.0569794 0)
(-0.00250846 -0.0437651 0)
(-0.000334378 -0.0171877 0)
(-1.52018e-05 0.00235662 0)
(-0.000115055 0.00684262 0)
(-0.000212009 0.0110656 0)
(-0.000180006 0.0146216 0)
(0.000106329 0.0171742 0)
(0.00070437 0.0184724 0)
(0.00163991 0.0185268 0)
(0.00294992 0.0176066 0)
(0.00464026 0.0161089 0)
(0.0066732 0.0143734 0)
(0.00899345 0.0126131 0)
(0.011539 0.0109276 0)
(0.0142377 0.0093364 0)
(0.0169964 0.00780603 0)
(0.0196697 0.00626206 0)
(0.0220511 0.00458376 0)
(0.0235806 0.00288491 0)
(0.0240108 0.00145197 0)
(0.0235696 0.000150444 0)
(0.0223777 -0.0012678 0)
(0.0207252 -0.00301347 0)
(0.0186772 -0.00535198 0)
(0.0162628 -0.00857916 0)
(0.0134933 -0.0129614 0)
(0.0103726 -0.0187582 0)
(0.0069308 -0.0261375 0)
(0.00317891 -0.0353023 0)
(-0.000714587 -0.0463201 0)
(-0.0035391 -0.0561033 0)
(-0.00429152 -0.059377 0)
(-0.0029658 -0.0491757 0)
(-0.00049198 -0.0210042 0)
(-6.0983e-05 0.00263323 0)
(-0.000459589 0.00735679 0)
(-0.000918629 0.0114231 0)
(-0.00114775 0.0145169 0)
(-0.000903254 0.0165177 0)
(-0.000100773 0.0173735 0)
(0.00127832 0.0170818 0)
(0.00317229 0.01593 0)
(0.00552504 0.0143362 0)
(0.00822641 0.01261 0)
(0.0111809 0.0109287 0)
(0.0143142 0.00936803 0)
(0.0175562 0.00793533 0)
(0.0208207 0.00659474 0)
(0.0239668 0.00528017 0)
(0.0267881 0.00389081 0)
(0.0287045 0.00253035 0)
(0.02949 0.00141246 0)
(0.0294213 0.000419851 0)
(0.0285995 -0.000676247 0)
(0.0272623 -0.00207518 0)
(0.0254294 -0.00399669 0)
(0.023085 -0.00669403 0)
(0.0201996 -0.0104216 0)
(0.0167602 -0.0154283 0)
(0.0127988 -0.0219393 0)
(0.00839816 -0.0302009 0)
(0.00370551 -0.0403691 0)
(-0.000828336 -0.0518796 0)
(-0.00347128 -0.0591909 0)
(-0.00339323 -0.0532217 0)
(-0.000743852 -0.0251564 0)
(-0.000171388 0.00338726 0)
(-0.00113015 0.0086509 0)
(-0.00209637 0.0123896 0)
(-0.00259137 0.0146785 0)
(-0.00229189 0.0158209 0)
(-0.00116537 0.0160206 0)
(0.000829421 0.0152922 0)
(0.00344027 0.0139214 0)
(0.00653407 0.0123016 0)
(0.0099513 0.0106646 0)
(0.013577 0.00912974 0)
(0.0173396 0.00774194 0)
(0.0211795 0.00649665 0)
(0.0250229 0.00535863 0)
(0.02874 0.00427222 0)
(0.0321364 0.00315588 0)
(0.0345995 0.00209455 0)
(0.03589 0.0012425 0)
(0.0362895 0.000500476 0)
(0.0359432 -0.000326101 0)
(0.0350043 -0.00140979 0)
(0.0334601 -0.00292028 0)
(0.0312516 -0.00506384 0)
(0.0283054 -0.00806435 0)
(0.024569 -0.0121608 0)
(0.0200493 -0.0176159 0)
(0.014837 -0.0247553 0)
(0.00911955 -0.0339654 0)
(0.00325709 -0.0452857 0)
(-0.00164561 -0.0560977 0)
(-0.00354353 -0.0554032 0)
(-0.00108893 -0.0295675 0)
(-0.000416466 0.00496445 0)
(-0.00230382 0.0109106 0)
(-0.0037785 0.0138353 0)
(-0.00432152 0.0148659 0)
(-0.00367109 0.0148928 0)
(-0.00192228 0.0143074 0)
(0.000958485 0.0131145 0)
(0.00447331 0.0116009 0)
(0.00843683 0.0100494 0)
(0.0126821 0.00857516 0)
(0.0170942 0.0072382 0)
(0.0216077 0.00605592 0)
(0.0261687 0.00501583 0)
(0.0307074 0.00408647 0)
(0.0350985 0.00322346 0)
(0.0391548 0.0023649 0)
(0.0422155 0.00157415 0)
(0.0440216 0.000953818 0)
(0.0448709 0.000420827 0)
(0.0449614 -0.000176718 0)
(0.0443632 -0.00097008 0)
(0.0430585 -0.00208333 0)
(0.0409658 -0.00367276 0)
(0.0379793 -0.00591789 0)
(0.0340034 -0.00903005 0)
(0.0289914 -0.0132813 0)
(0.022983 -0.019061 0)
(0.0161372 -0.0269355 0)
(0.00881728 -0.0374954 0)
(0.00186786 -0.0498053 0)
(-0.00292988 -0.055115 0)
(-0.00143492 -0.0340425 0)
(-0.000868147 0.00788747 0)
(-0.00398792 0.0140322 0)
(-0.0055222 0.0152207 0)
(-0.00542805 0.0145602 0)
(-0.00376116 0.0133848 0)
(-0.000801015 0.0120149 0)
(0.00336724 0.0104548 0)
(0.007993 0.00896313 0)
(0.0130139 0.00758113 0)
(0.0182472 0.00633589 0)
(0.0235785 0.00524262 0)
(0.0289343 0.00429891 0)
(0.0342503 0.00348811 0)
(0.0394474 0.00278353 0)
(0.0443986 0.00215095 0)
(0.0489208 0.00154717 0)
(0.0523399 0.00101208 0)
(0.0544261 0.000601972 0)
(0.055512 0.000250922 0)
(0.0558269 -0.000143817 0)
(0.0553936 -0.000669522 0)
(0.054204 -0.0014122 0)
(0.052171 -0.00247879 0)
(0.0491722 -0.00399637 0)
(0.0450774 -0.00612819 0)
(0.0397741 -0.00911571 0)
(0.0331986 -0.0133573 0)
(0.0253861 -0.0195227 0)
(0.0165919 -0.0285872 0)
(0.00753436 -0.0409635 0)
(-0.000702556 -0.051498 0)
(-0.00148888 -0.0380595 0)
(-0.00162047 0.0129805 0)
(-0.00549548 0.0172027 0)
(-0.00541342 0.0154232 0)
(-0.0030704 0.0129602 0)
(0.000947074 0.0107427 0)
(0.00590955 0.0088977 0)
(0.0115373 0.00732529 0)
(0.017472 0.00602192 0)
(0.0235963 0.00491414 0)
(0.0297489 0.00397357 0)
(0.0358121 0.00318408 0)
(0.0417015 0.00252867 0)
(0.0473464 0.00198711 0)
(0.0526723 0.00153591 0)
(0.0575722 0.0011487 0)
(0.0618951 0.000797729 0)
(0.0650659 0.000500278 0)
(0.0669573 0.000276974 0)
(0.0679178 8.38724e-05 0)
(0.068155 -0.000134208 0)
(0.0676941 -0.000427003 0)
(0.0665243 -0.000847373 0)
(0.0645559 -0.00145738 0)
(0.061662 -0.00233211 0)
(0.0576955 -0.00357573 0)
(0.0524931 -0.00536312 0)
(0.045872 -0.00802656 0)
(0.0376475 -0.0122116 0)
(0.0277494 -0.0190719 0)
(0.0164657 -0.0300264 0)
(0.00437127 -0.0434212 0)
(-0.000175192 -0.0395645 0)
(-0.00123912 0.0182577 0)
(-0.00302042 0.0181429 0)
(0.00335752 0.0126341 0)
(0.0105303 0.00932904 0)
(0.0176737 0.00700781 0)
(0.0246789 0.00527444 0)
(0.0315816 0.00398395 0)
(0.038263 0.00303449 0)
(0.0446661 0.00231296 0)
(0.0507142 0.00175706 0)
(0.0563465 0.0013288 0)
(0.0615272 0.00100007 0)
(0.0662373 0.000747716 0)
(0.0704603 0.000551447 0)
(0.0741578 0.000392885 0)
(0.077256 0.000257217 0)
(0.0794051 0.000147023 0)
(0.0805968 6.47098e-05 0)
(0.0811149 -8.65131e-06 0)
(0.0810849 -9.38512e-05 0)
(0.0805464 -0.000212324 0)
(0.079465 -0.000388329 0)
(0.0777492 -0.000648282 0)
(0.0752813 -0.00102455 0)
(0.071924 -0.00156575 0)
(0.0675032 -0.00236511 0)
(0.0617629 -0.0036281 0)
(0.0542958 -0.00581731 0)
(0.044482 -0.0099091 0)
(0.0315463 -0.0176024 0)
(0.015464 -0.0297562 0)
(0.00630631 -0.0334358 0)
(0.0207875 0.011344 0)
(0.0271542 0.00926895 0)
(0.0402028 0.00541012 0)
(0.0508368 0.00328446 0)
(0.058859 0.00205262 0)
(0.0652508 0.00127306 0)
(0.0705337 0.000784088 0)
(0.0749536 0.000487492 0)
(0.0786904 0.000306248 0)
(0.0818641 0.000194426 0)
(0.084561 0.000125052 0)
(0.0868525 8.16255e-05 0)
(0.0887972 5.39023e-05 0)
(0.0904377 3.54044e-05 0)
(0.0917921 2.17731e-05 0)
(0.0928516 1.07074e-05 0)
(0.0935168 1.91829e-06 0)
(0.0938167 -5.06187e-06 0)
(0.0938586 -1.20357e-05 0)
(0.0936859 -2.14924e-05 0)
(0.0933017 -3.65849e-05 0)
(0.0926645 -6.10195e-05 0)
(0.0917105 -9.84293e-05 0)
(0.0903674 -0.000153419 0)
(0.0885521 -0.00023365 0)
(0.0861471 -0.000356306 0)
(0.0829383 -0.000565506 0)
(0.0784762 -0.000974577 0)
(0.0717894 -0.00186416 0)
(0.0608549 -0.00398048 0)
(0.0432749 -0.00919019 0)
(0.0285923 -0.0145284 0)
)
;

boundaryField
{
    movingWall
    {
        type            fixedValue;
        value           uniform (0.1 0 0);
    }
    fixedWalls
    {
        type            noSlip;
    }
    floor
    {
        type            noSlip;
    }
    frontAndBack
    {
        type            empty;
    }
}


// ************************************************************************* //
