/*--------------------------------*- C++ -*----------------------------------*\
| =========                 |                                                 |
| \\      /  F ield         | OpenFOAM: The Open Source CFD Toolbox           |
|  \\    /   O peration     | Version:  2212                                  |
|   \\  /    A nd           | Website:  www.openfoam.com                      |
|    \\/     M anipulation  |                                                 |
\*---------------------------------------------------------------------------*/
FoamFile
{
    version     2.0;
    format      ascii;
    arch        "LSB;label=64;scalar=64";
    class       volScalarField;
    location    "930";
    object      Xpr;
}
// * * * * * * * * * * * * * * * * * * * * * * * * * * * * * * * * * * * * * //

dimensions      [1 -3 0 0 0 0 0];

internalField   nonuniform List<scalar> 
1024
(
0.0817301
0.0817306
0.0817318
0.0817339
0.0817373
0.081742
0.0817483
0.0817558
0.0817644
0.0817735
0.0817827
0.0817912
0.081798
0.0818014
0.0817991
0.08179
0.081775
0.0817581
0.0817419
0.0817271
0.0817136
0.0817013
0.08169
0.0816798
0.0816708
0.0816633
0.0816574
0.081653
0.08165
0.0816481
0.081647
0.0816466
0.0817302
0.0817307
0.0817319
0.0817341
0.0817375
0.0817423
0.0817487
0.0817564
0.0817651
0.0817742
0.0817835
0.0817921
0.0817991
0.0818025
0.0818002
0.081791
0.0817759
0.0817589
0.0817427
0.0817278
0.0817143
0.0817019
0.0816906
0.0816803
0.0816713
0.0816637
0.0816576
0.0816532
0.0816501
0.0816482
0.0816471
0.0816467
0.0817303
0.0817308
0.0817321
0.0817344
0.0817379
0.081743
0.0817495
0.0817574
0.0817663
0.0817756
0.0817852
0.0817942
0.0818016
0.0818053
0.0818029
0.0817935
0.081778
0.0817607
0.0817442
0.0817292
0.0817156
0.0817031
0.0816917
0.0816814
0.0816722
0.0816644
0.0816582
0.0816536
0.0816504
0.0816484
0.0816473
0.0816468
0.0817305
0.081731
0.0817324
0.0817348
0.0817385
0.0817438
0.0817506
0.0817587
0.0817679
0.0817777
0.0817878
0.0817976
0.0818059
0.0818103
0.0818078
0.0817977
0.0817815
0.0817635
0.0817466
0.0817313
0.0817175
0.0817049
0.0816934
0.0816829
0.0816735
0.0816655
0.081659
0.0816542
0.0816509
0.0816487
0.0816476
0.0816471
0.0817307
0.0817313
0.0817327
0.0817352
0.0817391
0.0817446
0.0817517
0.0817602
0.0817698
0.0817803
0.0817914
0.0818027
0.0818127
0.0818182
0.0818156
0.0818042
0.0817866
0.0817675
0.0817498
0.0817339
0.0817198
0.081707
0.0816954
0.0816847
0.0816751
0.0816669
0.0816602
0.0816551
0.0816515
0.0816492
0.081648
0.0816475
0.0817309
0.0817315
0.0817329
0.0817355
0.0817396
0.0817453
0.0817526
0.0817615
0.0817718
0.0817833
0.0817961
0.0818097
0.0818224
0.0818297
0.0818268
0.0818136
0.0817936
0.0817726
0.0817536
0.0817368
0.0817222
0.0817092
0.0816974
0.0816866
0.0816769
0.0816684
0.0816614
0.081656
0.0816522
0.0816498
0.0816485
0.081648
0.081731
0.0817316
0.081733
0.0817356
0.0817397
0.0817455
0.081753
0.0817623
0.0817734
0.0817864
0.0818016
0.0818186
0.0818351
0.081845
0.0818422
0.0818264
0.0818028
0.0817788
0.0817578
0.0817398
0.0817243
0.0817109
0.081699
0.0816882
0.0816783
0.0816697
0.0816625
0.0816569
0.0816529
0.0816504
0.081649
0.0816485
0.0817308
0.0817314
0.0817328
0.0817353
0.0817393
0.081745
0.0817526
0.0817623
0.0817743
0.0817893
0.0818077
0.0818294
0.0818509
0.0818645
0.0818619
0.0818427
0.0818143
0.0817862
0.0817622
0.0817423
0.0817257
0.0817118
0.0816997
0.0816888
0.081679
0.0816704
0.0816631
0.0816575
0.0816535
0.0816509
0.0816494
0.0816489
0.0817305
0.081731
0.0817323
0.0817346
0.0817383
0.0817437
0.0817512
0.0817613
0.0817745
0.081792
0.0818146
0.0818422
0.0818703
0.0818884
0.0818862
0.081863
0.0818284
0.0817948
0.0817667
0.081744
0.0817259
0.0817111
0.0816988
0.0816881
0.0816785
0.0816701
0.0816631
0.0816575
0.0816536
0.081651
0.0816496
0.081649
0.0817305
0.0817309
0.0817319
0.0817338
0.0817371
0.0817421
0.0817495
0.0817599
0.0817746
0.0817952
0.0818234
0.0818584
0.0818942
0.0819174
0.0819153
0.0818871
0.0818451
0.0818046
0.0817712
0.0817448
0.0817244
0.0817086
0.081696
0.0816855
0.0816764
0.0816685
0.0816619
0.0816567
0.081653
0.0816505
0.0816492
0.0816486
0.0817328
0.0817329
0.0817335
0.0817348
0.0817375
0.081742
0.0817492
0.0817604
0.0817773
0.0818024
0.0818375
0.0818815
0.0819255
0.0819533
0.08195
0.0819157
0.0818652
0.0818163
0.0817762
0.0817449
0.0817214
0.081704
0.081691
0.0816808
0.0816724
0.0816653
0.0816594
0.0816548
0.0816514
0.0816492
0.0816479
0.0816473
0.0817431
0.0817428
0.0817427
0.0817432
0.081745
0.0817492
0.0817568
0.0817696
0.0817901
0.0818212
0.0818646
0.0819178
0.081969
0.081999
0.0819924
0.0819509
0.0818912
0.0818328
0.0817841
0.0817459
0.0817177
0.0816978
0.0816839
0.081674
0.0816663
0.0816602
0.0816553
0.0816514
0.0816486
0.0816467
0.0816455
0.081645
0.0817739
0.0817734
0.0817727
0.0817725
0.0817738
0.081778
0.0817869
0.0818028
0.0818283
0.0818662
0.0819174
0.0819773
0.0820315
0.0820594
0.082047
0.0819989
0.0819313
0.0818624
0.0818022
0.0817535
0.0817172
0.0816922
0.081676
0.0816655
0.0816585
0.0816534
0.0816495
0.0816465
0.0816443
0.0816428
0.0816419
0.0816416
0.0818427
0.0818424
0.0818421
0.0818426
0.0818449
0.0818507
0.0818621
0.0818816
0.0819117
0.0819544
0.0820094
0.0820702
0.0821206
0.0821418
0.082125
0.0820765
0.0820068
0.0819286
0.0818536
0.0817879
0.0817361
0.0816989
0.0816743
0.0816593
0.0816505
0.0816454
0.0816424
0.081641
0.0816407
0.0816412
0.081642
0.0816426
0.0819554
0.0819559
0.0819574
0.0819604
0.0819659
0.0819754
0.0819908
0.0820142
0.0820476
0.0820923
0.0821467
0.0822029
0.0822465
0.0822652
0.0822567
0.0822246
0.0821686
0.0820929
0.0820087
0.0819245
0.0818479
0.0817842
0.0817346
0.0816996
0.0816783
0.0816683
0.0816668
0.0816711
0.0816786
0.0816868
0.0816934
0.081697
0.0820894
0.0820908
0.0820942
0.0821004
0.0821104
0.0821259
0.0821486
0.0821802
0.082222
0.0822738
0.0823322
0.0823902
0.0824401
0.0824787
0.0825062
0.0825218
0.0825178
0.0824885
0.0824385
0.0823742
0.0823023
0.0822292
0.0821592
0.0820976
0.0820485
0.0820147
0.0819952
0.0819886
0.0819915
0.0819992
0.0820071
0.0820118
0.0822015
0.0822036
0.0822089
0.0822188
0.0822354
0.0822606
0.0822962
0.0823432
0.0824011
0.0824684
0.0825426
0.0826212
0.082702
0.0827846
0.0828692
0.0829561
0.0830371
0.083099
0.0831382
0.0831572
0.0831573
0.0831407
0.0831096
0.0830669
0.0830163
0.0829625
0.0829098
0.0828637
0.0828286
0.0828063
0.0827952
0.0827916
0.0822656
0.0822678
0.0822737
0.0822851
0.0823046
0.0823345
0.0823771
0.0824334
0.0825031
0.0825844
0.0826748
0.0827718
0.0828738
0.0829798
0.0830894
0.0832025
0.0833121
0.0834079
0.0834899
0.0835617
0.0836224
0.0836701
0.0837023
0.0837168
0.0837129
0.0836915
0.0836567
0.0836146
0.083573
0.0835391
0.0835172
0.0835076
0.0823012
0.0823034
0.0823092
0.0823207
0.0823403
0.0823708
0.0824146
0.0824731
0.0825461
0.082632
0.0827276
0.0828298
0.0829354
0.0830418
0.0831462
0.0832458
0.0833332
0.0834057
0.0834722
0.0835391
0.0836069
0.0836734
0.0837353
0.0837884
0.0838293
0.0838555
0.0838666
0.0838643
0.083853
0.0838383
0.0838261
0.0838196
0.0823211
0.0823232
0.0823286
0.0823393
0.0823576
0.0823861
0.0824273
0.0824829
0.0825531
0.0826362
0.0827291
0.0828278
0.0829283
0.0830268
0.0831191
0.0832011
0.0832657
0.0833162
0.083367
0.0834264
0.0834961
0.0835738
0.0836543
0.0837313
0.0837983
0.083851
0.0838877
0.0839092
0.0839184
0.0839193
0.0839166
0.0839143
0.0823326
0.0823344
0.0823392
0.0823486
0.0823647
0.08239
0.0824268
0.0824768
0.0825406
0.0826166
0.0827021
0.082793
0.0828854
0.0829749
0.0830577
0.0831295
0.0831848
0.0832286
0.0832745
0.0833314
0.0834023
0.0834866
0.0835801
0.0836753
0.0837637
0.0838376
0.0838928
0.083929
0.0839488
0.0839569
0.0839583
0.0839576
0.0823423
0.0823436
0.0823473
0.0823547
0.082368
0.0823894
0.0824209
0.0824644
0.0825202
0.0825875
0.0826637
0.0827457
0.0828297
0.0829124
0.0829904
0.0830607
0.0831186
0.0831676
0.0832176
0.0832763
0.0833475
0.0834327
0.0835297
0.0836328
0.0837336
0.083823
0.083894
0.0839436
0.0839732
0.0839872
0.0839913
0.0839914
0.0823583
0.0823586
0.0823602
0.0823648
0.0823743
0.082391
0.082417
0.0824538
0.0825021
0.0825611
0.0826292
0.0827037
0.0827821
0.0828615
0.0829398
0.083015
0.0830828
0.0831427
0.0832004
0.0832627
0.0833339
0.0834166
0.0835108
0.0836132
0.0837172
0.0838142
0.0838957
0.0839561
0.0839946
0.0840143
0.0840212
0.0840219
0.08239
0.0823887
0.0823872
0.0823875
0.082392
0.0824035
0.0824241
0.0824555
0.0824983
0.082552
0.0826153
0.0826864
0.0827631
0.0828434
0.0829256
0.0830087
0.0830879
0.0831584
0.0832228
0.0832875
0.083357
0.0834349
0.0835224
0.0836183
0.083718
0.0838149
0.0839007
0.0839682
0.0840139
0.0840389
0.0840487
0.0840501
0.0824468
0.0824432
0.0824376
0.0824328
0.082432
0.0824387
0.0824556
0.0824843
0.0825254
0.0825782
0.0826414
0.0827132
0.0827915
0.0828748
0.0829615
0.0830513
0.0831385
0.0832152
0.0832825
0.0833463
0.0834115
0.0834819
0.0835599
0.0836454
0.083736
0.0838269
0.0839111
0.0839812
0.0840316
0.0840612
0.0840737
0.084076
0.0825364
0.08253
0.0825201
0.0825108
0.0825065
0.0825112
0.0825281
0.0825584
0.082602
0.0826578
0.0827238
0.082798
0.0828784
0.0829633
0.0830517
0.0831433
0.0832321
0.0833089
0.083374
0.0834334
0.0834917
0.0835526
0.0836189
0.0836915
0.0837697
0.0838503
0.0839282
0.0839964
0.0840486
0.0840813
0.0840963
0.0840996
0.0826633
0.0826541
0.0826414
0.0826311
0.0826282
0.0826363
0.0826578
0.0826934
0.0827419
0.0828013
0.0828694
0.082944
0.0830232
0.0831055
0.0831901
0.0832769
0.0833602
0.0834311
0.0834897
0.0835416
0.083591
0.0836413
0.083695
0.0837536
0.0838173
0.0838848
0.0839526
0.0840151
0.0840657
0.0840997
0.0841166
0.0841209
0.0828302
0.0828192
0.0828077
0.0828028
0.0828079
0.0828246
0.0828539
0.0828952
0.0829467
0.0830064
0.0830722
0.0831421
0.0832146
0.0832886
0.0833634
0.0834392
0.0835111
0.0835715
0.0836206
0.0836632
0.0837027
0.0837419
0.0837832
0.0838279
0.0838768
0.0839297
0.0839848
0.0840381
0.0840839
0.0841169
0.0841347
0.0841399
0.0830394
0.0830292
0.0830255
0.0830328
0.0830504
0.083077
0.0831122
0.083155
0.0832041
0.083258
0.0833153
0.0833747
0.083435
0.0834955
0.0835558
0.0836162
0.083673
0.0837201
0.0837581
0.0837904
0.0838199
0.0838486
0.0838783
0.0839102
0.0839452
0.0839834
0.0840245
0.0840661
0.0841042
0.0841336
0.0841509
0.0841566
0.0832959
0.0832916
0.083302
0.083323
0.0833498
0.0833806
0.0834149
0.0834521
0.0834921
0.0835341
0.0835775
0.0836216
0.0836657
0.0837094
0.0837526
0.0837954
0.0838352
0.0838682
0.0838945
0.0839167
0.0839366
0.0839557
0.0839752
0.0839959
0.0840185
0.0840435
0.0840708
0.0840996
0.0841275
0.0841506
0.0841655
0.0841711
0.0836095
0.0836166
0.0836379
0.0836621
0.0836866
0.0837112
0.0837358
0.0837607
0.0837862
0.0838122
0.0838385
0.083865
0.0838912
0.0839169
0.0839421
0.083967
0.0839901
0.0840091
0.0840242
0.0840368
0.084048
0.0840587
0.0840694
0.0840807
0.084093
0.0841066
0.0841215
0.0841378
0.0841542
0.0841689
0.0841792
0.0841836
0.0839927
0.0839985
0.0840096
0.0840202
0.0840301
0.0840395
0.0840484
0.084057
0.0840657
0.0840744
0.0840831
0.0840917
0.0841003
0.0841086
0.0841168
0.0841248
0.0841323
0.0841384
0.0841432
0.0841472
0.0841508
0.0841542
0.0841575
0.0841611
0.0841649
0.0841691
0.0841737
0.0841787
0.084184
0.0841889
0.0841926
0.0841944
)
;

boundaryField
{
    movingWall
    {
        type            fixedValue;
        value           uniform 0.0842;
    }
    fixedWalls
    {
        type            zeroGradient;
    }
    floor
    {
        type            zeroGradient;
    }
    frontAndBack
    {
        type            empty;
    }
}


// ************************************************************************* //
