/*--------------------------------*- C++ -*----------------------------------*\
| =========                 |                                                 |
| \\      /  F ield         | OpenFOAM: The Open Source CFD Toolbox           |
|  \\    /   O peration     | Version:  2212                                  |
|   \\  /    A nd           | Website:  www.openfoam.com                      |
|    \\/     M anipulation  |                                                 |
\*---------------------------------------------------------------------------*/
FoamFile
{
    version     2.0;
    format      ascii;
    arch        "LSB;label=64;scalar=64";
    class       volScalarField;
    location    "180";
    object      p;
}
// * * * * * * * * * * * * * * * * * * * * * * * * * * * * * * * * * * * * * //

dimensions      [0 2 -2 0 0 0 0];

internalField   nonuniform List<scalar> 
1024
(
0
-1.0177e-05
-1.92999e-05
-2.31758e-05
-2.27423e-05
-1.66191e-05
1.99768e-06
4.53207e-05
0.000130881
0.0002818
0.00052186
0.000851213
0.00120247
0.00143477
0.0014227
0.00129583
0.00105006
0.000822972
0.000650365
0.00052863
0.000444165
0.000386078
0.000347395
0.000323084
0.000308697
0.000300119
0.000293928
0.00028834
0.000283976
0.000283226
0.000287228
0.000292703
-0.0928276
-0.0928399
-0.0928518
-0.0928606
-0.0928671
-0.0928687
-0.0928579
-0.0928226
-0.0927455
-0.092604
-0.0923743
-0.0920569
-0.0917154
-0.0914862
-0.091484
-0.0915971
-0.0918318
-0.0920503
-0.0922165
-0.0923332
-0.0924134
-0.0924676
-0.0925026
-0.0925233
-0.0925343
-0.0925393
-0.0925417
-0.0925434
-0.0925442
-0.0925428
-0.0925377
-0.0925313
-0.199499
-0.199517
-0.199536
-0.199556
-0.199577
-0.199594
-0.1996
-0.19958
-0.19952
-0.199396
-0.199186
-0.198888
-0.198561
-0.198336
-0.198308
-0.198396
-0.198609
-0.19881
-0.198962
-0.199067
-0.199138
-0.199184
-0.199211
-0.199224
-0.199228
-0.199225
-0.199219
-0.199213
-0.199207
-0.199201
-0.199192
-0.199183
-0.322106
-0.322131
-0.322163
-0.3222
-0.322242
-0.322283
-0.322311
-0.322315
-0.322278
-0.32218
-0.321995
-0.321717
-0.321405
-0.321183
-0.321122
-0.321179
-0.321361
-0.321536
-0.321666
-0.321754
-0.321809
-0.321841
-0.321855
-0.321856
-0.321846
-0.321831
-0.321812
-0.321793
-0.321776
-0.321762
-0.321748
-0.321735
-0.463061
-0.463091
-0.463136
-0.463193
-0.46326
-0.463326
-0.463381
-0.463411
-0.463401
-0.463329
-0.463169
-0.462909
-0.462609
-0.462388
-0.462295
-0.462321
-0.462469
-0.462613
-0.462715
-0.462778
-0.462812
-0.462825
-0.462821
-0.462804
-0.462777
-0.462743
-0.462706
-0.46267
-0.462639
-0.462614
-0.462592
-0.462574
-0.625124
-0.625157
-0.625211
-0.625285
-0.625372
-0.62546
-0.625538
-0.625591
-0.625605
-0.625555
-0.625413
-0.625166
-0.624873
-0.624649
-0.624527
-0.624529
-0.624646
-0.624762
-0.624835
-0.62487
-0.624879
-0.62487
-0.624845
-0.624808
-0.62476
-0.624705
-0.624647
-0.624591
-0.624542
-0.624504
-0.624474
-0.624452
-0.81144
-0.811472
-0.811529
-0.81161
-0.811707
-0.811808
-0.811898
-0.811966
-0.811995
-0.811961
-0.81183
-0.81159
-0.8113
-0.811067
-0.810923
-0.810909
-0.811002
-0.811095
-0.811144
-0.811154
-0.811139
-0.811107
-0.811062
-0.811004
-0.810936
-0.810861
-0.810783
-0.810708
-0.810643
-0.810593
-0.810556
-0.810532
-1.02559
-1.02561
-1.02566
-1.02574
-1.02584
-1.02594
-1.02603
-1.02611
-1.02614
-1.02611
-1.02599
-1.02575
-1.02546
-1.02522
-1.02505
-1.02503
-1.02511
-1.02518
-1.02521
-1.0252
-1.02517
-1.02512
-1.02506
-1.02499
-1.0249
-1.02481
-1.02472
-1.02463
-1.02456
-1.0245
-1.02446
-1.02443
-1.27164
-1.27166
-1.2717
-1.27178
-1.27187
-1.27196
-1.27204
-1.27211
-1.27215
-1.27212
-1.272
-1.27176
-1.27147
-1.27121
-1.27103
-1.271
-1.27106
-1.27113
-1.27115
-1.27113
-1.27108
-1.27102
-1.27095
-1.27087
-1.27078
-1.27068
-1.27058
-1.27049
-1.27041
-1.27035
-1.27031
-1.27029
-1.55428
-1.5543
-1.55433
-1.55439
-1.55448
-1.55456
-1.55463
-1.55469
-1.55473
-1.5547
-1.55458
-1.55434
-1.55405
-1.55378
-1.55359
-1.55355
-1.5536
-1.55365
-1.55366
-1.55364
-1.55359
-1.55352
-1.55345
-1.55337
-1.55328
-1.55319
-1.5531
-1.55301
-1.55293
-1.55288
-1.55284
-1.55283
-1.87888
-1.87888
-1.87891
-1.87897
-1.87905
-1.87913
-1.87921
-1.87926
-1.87929
-1.87925
-1.87913
-1.8789
-1.87861
-1.87833
-1.87815
-1.87811
-1.87815
-1.87819
-1.8782
-1.87817
-1.87812
-1.87806
-1.87799
-1.87791
-1.87784
-1.87776
-1.87768
-1.8776
-1.87754
-1.87749
-1.87746
-1.87745
-2.25159
-2.25159
-2.25161
-2.25166
-2.25174
-2.25184
-2.25192
-2.25198
-2.25202
-2.25199
-2.25186
-2.25164
-2.25137
-2.25112
-2.25096
-2.25092
-2.25096
-2.251
-2.251
-2.25097
-2.25092
-2.25086
-2.2508
-2.25074
-2.25067
-2.25061
-2.25055
-2.25048
-2.25043
-2.2504
-2.25038
-2.25037
-2.67952
-2.67952
-2.67952
-2.67956
-2.67964
-2.67974
-2.67984
-2.67993
-2.67998
-2.67996
-2.67985
-2.67967
-2.67946
-2.67927
-2.67916
-2.67916
-2.6792
-2.67923
-2.67923
-2.6792
-2.67916
-2.67911
-2.67906
-2.67901
-2.67896
-2.67891
-2.67886
-2.67882
-2.67878
-2.67875
-2.67873
-2.67873
-3.17086
-3.17085
-3.17085
-3.17087
-3.17092
-3.171
-3.1711
-3.1712
-3.17126
-3.17128
-3.17125
-3.17118
-3.17108
-3.17101
-3.171
-3.17105
-3.17111
-3.17113
-3.17113
-3.17111
-3.17107
-3.17104
-3.171
-3.17096
-3.17093
-3.17089
-3.17085
-3.17082
-3.17079
-3.17076
-3.17075
-3.17075
-3.73514
-3.73513
-3.73512
-3.73512
-3.73514
-3.73518
-3.73524
-3.73533
-3.73542
-3.73552
-3.7356
-3.73567
-3.73574
-3.73582
-3.73593
-3.73605
-3.73614
-3.73617
-3.73617
-3.73615
-3.73613
-3.73611
-3.73608
-3.73606
-3.73603
-3.736
-3.73597
-3.73594
-3.73591
-3.73589
-3.73588
-3.73588
-4.38339
-4.38338
-4.38337
-4.38336
-4.38337
-4.38339
-4.38345
-4.38354
-4.38368
-4.38384
-4.38402
-4.38421
-4.38442
-4.38463
-4.38485
-4.38504
-4.38517
-4.38522
-4.38522
-4.38522
-4.3852
-4.38519
-4.38518
-4.38516
-4.38513
-4.3851
-4.38506
-4.38501
-4.38497
-4.38495
-4.38494
-4.38494
-5.07698
-5.07698
-5.07697
-5.07697
-5.07698
-5.07701
-5.07707
-5.07716
-5.07729
-5.07744
-5.07763
-5.07785
-5.07811
-5.07838
-5.07866
-5.07891
-5.07908
-5.07916
-5.07919
-5.07919
-5.07918
-5.07917
-5.07915
-5.07911
-5.07905
-5.07898
-5.07889
-5.07881
-5.07875
-5.07872
-5.07871
-5.07871
-5.72594
-5.72594
-5.72594
-5.72595
-5.72596
-5.72599
-5.72604
-5.72611
-5.7262
-5.72632
-5.72647
-5.72667
-5.72692
-5.72721
-5.72751
-5.7278
-5.72804
-5.72817
-5.72821
-5.72821
-5.72819
-5.72815
-5.72808
-5.72797
-5.72782
-5.72766
-5.7275
-5.72736
-5.72727
-5.72723
-5.72722
-5.72723
-6.29084
-6.29084
-6.29084
-6.29085
-6.29087
-6.2909
-6.29094
-6.291
-6.29108
-6.29119
-6.29133
-6.29151
-6.29175
-6.29202
-6.29232
-6.29263
-6.29289
-6.29306
-6.29312
-6.2931
-6.29304
-6.29293
-6.29275
-6.29253
-6.29227
-6.292
-6.29176
-6.29159
-6.29149
-6.29145
-6.29145
-6.29146
-6.78258
-6.78258
-6.78259
-6.7826
-6.78262
-6.78266
-6.7827
-6.78276
-6.78284
-6.78295
-6.78309
-6.78326
-6.78347
-6.78372
-6.78398
-6.78426
-6.7845
-6.78466
-6.78472
-6.78467
-6.78455
-6.78435
-6.78407
-6.78373
-6.78337
-6.78303
-6.78276
-6.78258
-6.7825
-6.78247
-6.78248
-6.7825
-7.2107
-7.21071
-7.21072
-7.21074
-7.21077
-7.21081
-7.21086
-7.21093
-7.21102
-7.21112
-7.21125
-7.21141
-7.21159
-7.21179
-7.212
-7.21221
-7.21238
-7.21248
-7.2125
-7.21242
-7.21226
-7.212
-7.21166
-7.21125
-7.21084
-7.21046
-7.21019
-7.21004
-7.21
-7.21001
-7.21003
-7.21005
-7.58349
-7.5835
-7.58351
-7.58353
-7.58356
-7.5836
-7.58366
-7.58373
-7.58382
-7.58393
-7.58405
-7.58419
-7.58435
-7.5845
-7.58465
-7.58477
-7.58483
-7.58484
-7.5848
-7.5847
-7.58454
-7.5843
-7.58398
-7.58359
-7.58319
-7.58284
-7.58261
-7.58252
-7.58251
-7.58255
-7.58258
-7.58259
-7.9081
-7.90811
-7.90812
-7.90813
-7.90816
-7.9082
-7.90826
-7.90833
-7.90842
-7.90853
-7.90865
-7.90878
-7.90891
-7.90902
-7.90911
-7.90914
-7.9091
-7.90901
-7.90891
-7.9088
-7.90869
-7.90854
-7.90833
-7.90806
-7.90777
-7.9075
-7.90731
-7.90722
-7.90721
-7.90723
-7.90725
-7.90728
-8.19073
-8.19074
-8.19074
-8.19076
-8.19078
-8.19082
-8.19088
-8.19095
-8.19104
-8.19114
-8.19126
-8.19137
-8.19148
-8.19157
-8.19162
-8.19159
-8.19146
-8.19128
-8.19112
-8.19102
-8.19097
-8.19095
-8.19091
-8.19081
-8.19064
-8.19045
-8.19026
-8.1901
-8.19001
-8.18997
-8.18997
-8.19
-8.43678
-8.43679
-8.43679
-8.4368
-8.43682
-8.43686
-8.43691
-8.43698
-8.43706
-8.43717
-8.43728
-8.4374
-8.4375
-8.43757
-8.43759
-8.43751
-8.43733
-8.43709
-8.43689
-8.43679
-8.43679
-8.43688
-8.43698
-8.43701
-8.43694
-8.43678
-8.43657
-8.43636
-8.43618
-8.43608
-8.43605
-8.43608
-8.65098
-8.65098
-8.65098
-8.65099
-8.651
-8.65102
-8.65107
-8.65113
-8.65122
-8.65133
-8.65145
-8.65157
-8.65167
-8.65174
-8.65174
-8.65164
-8.65141
-8.65114
-8.65091
-8.6508
-8.65084
-8.65099
-8.65117
-8.65127
-8.65124
-8.65109
-8.65088
-8.65063
-8.65039
-8.65021
-8.65015
-8.65014
-8.83745
-8.83745
-8.83744
-8.83744
-8.83743
-8.83745
-8.83748
-8.83754
-8.83763
-8.83775
-8.83787
-8.838
-8.83811
-8.83818
-8.83818
-8.83806
-8.83782
-8.83753
-8.83728
-8.83716
-8.83721
-8.83739
-8.8376
-8.83772
-8.83769
-8.83753
-8.8373
-8.83701
-8.83672
-8.83646
-8.83632
-8.83627
-8.99979
-8.99979
-8.99977
-8.99974
-8.99972
-8.99972
-8.99975
-8.99981
-8.9999
-9.00002
-9.00016
-9.00029
-9.0004
-9.00048
-9.00048
-9.00037
-9.00012
-8.99982
-8.99956
-8.99944
-8.99948
-8.99966
-8.99987
-8.99998
-8.99994
-8.99975
-8.99947
-8.99912
-8.99874
-8.99838
-8.99814
-8.99803
-9.14116
-9.14113
-9.14109
-9.14103
-9.14098
-9.14097
-9.14099
-9.14106
-9.14116
-9.14129
-9.14143
-9.14157
-9.14169
-9.14177
-9.14177
-9.14166
-9.14141
-9.14111
-9.14086
-9.14073
-9.14076
-9.14093
-9.14113
-9.14123
-9.14116
-9.14093
-9.14059
-9.14015
-9.13965
-9.13916
-9.13876
-9.13853
-9.26432
-9.26423
-9.26412
-9.26401
-9.26394
-9.26392
-9.26395
-9.26402
-9.26413
-9.26426
-9.26441
-9.26455
-9.26468
-9.26476
-9.26477
-9.26466
-9.26442
-9.26412
-9.26387
-9.26374
-9.26377
-9.26393
-9.26412
-9.26419
-9.2641
-9.26384
-9.26344
-9.26291
-9.26227
-9.26158
-9.26092
-9.26036
-9.37186
-9.37146
-9.3712
-9.37104
-9.37097
-9.37094
-9.37098
-9.37106
-9.37117
-9.37132
-9.37147
-9.37162
-9.37175
-9.37184
-9.37185
-9.37174
-9.3715
-9.3712
-9.37095
-9.37082
-9.37085
-9.37101
-9.37118
-9.37124
-9.37114
-9.37086
-9.37043
-9.36984
-9.36909
-9.36816
-9.36704
-9.36577
-9.46609
-9.46484
-9.46435
-9.4642
-9.46412
-9.46411
-9.46415
-9.46424
-9.46436
-9.46451
-9.46467
-9.46483
-9.46496
-9.46505
-9.46506
-9.46496
-9.46472
-9.46443
-9.46418
-9.46405
-9.46408
-9.46423
-9.46439
-9.46445
-9.46434
-9.46407
-9.46363
-9.46301
-9.46219
-9.46107
-9.45945
-9.45718
)
;

boundaryField
{
    movingWall
    {
        type            calculated;
        value           nonuniform List<scalar> 
32
(
-9.50948
-9.50823
-9.50774
-9.50758
-9.5075
-9.50749
-9.50753
-9.50762
-9.50775
-9.50789
-9.50805
-9.50821
-9.50834
-9.50843
-9.50845
-9.50835
-9.50811
-9.50781
-9.50756
-9.50743
-9.50746
-9.50761
-9.50778
-9.50784
-9.50773
-9.50745
-9.50701
-9.5064
-9.50558
-9.50446
-9.50283
-9.50056
)
;
    }
    fixedWalls
    {
        type            calculated;
        value           nonuniform List<scalar> 
64
(
6.93889e-18
-0.0928276
-0.199499
-0.322106
-0.463061
-0.625124
-0.81144
-1.02559
-1.27164
-1.55428
-1.87888
-2.25159
-2.67952
-3.17086
-3.73514
-4.38339
-5.07698
-5.72594
-6.29084
-6.78258
-7.2107
-7.58349
-7.9081
-8.19073
-8.43678
-8.65098
-8.83745
-8.99979
-9.14116
-9.26432
-9.37186
-9.46609
0.000292703
-0.0925313
-0.199183
-0.321735
-0.462574
-0.624452
-0.810532
-1.02443
-1.27029
-1.55283
-1.87745
-2.25037
-2.67873
-3.17075
-3.73588
-4.38494
-5.07871
-5.72723
-6.29146
-6.7825
-7.21005
-7.58259
-7.90728
-8.19
-8.43608
-8.65014
-8.83627
-8.99803
-9.13853
-9.26036
-9.36577
-9.45718
)
;
    }
    floor
    {
        type            calculated;
        value           nonuniform List<scalar> 
32
(
0.0432005
0.0431907
0.0431822
0.0431794
0.0431811
0.0431884
0.0432082
0.0432528
0.0433396
0.043492
0.0437337
0.0440651
0.0444181
0.0446507
0.0446362
0.044507
0.0442592
0.0440305
0.0438567
0.043734
0.0436487
0.0435899
0.0435505
0.0435256
0.0435106
0.0435014
0.0434945
0.0434882
0.0434832
0.0434819
0.0434856
0.043491
)
;
    }
    frontAndBack
    {
        type            empty;
    }
}


// ************************************************************************* //
