/*--------------------------------*- C++ -*----------------------------------*\
| =========                 |                                                 |
| \\      /  F ield         | OpenFOAM: The Open Source CFD Toolbox           |
|  \\    /   O peration     | Version:  2212                                  |
|   \\  /    A nd           | Website:  www.openfoam.com                      |
|    \\/     M anipulation  |                                                 |
\*---------------------------------------------------------------------------*/
FoamFile
{
    version     2.0;
    format      ascii;
    arch        "LSB;label=64;scalar=64";
    class       volScalarField;
    location    "180";
    object      Xpr;
}
// * * * * * * * * * * * * * * * * * * * * * * * * * * * * * * * * * * * * * //

dimensions      [1 -3 0 0 0 0 0];

internalField   nonuniform List<scalar> 
1024
(
0.0830041
0.0830047
0.0830059
0.0830081
0.0830112
0.083015
0.0830193
0.0830237
0.083028
0.0830324
0.0830371
0.083042
0.083047
0.0830511
0.0830529
0.0830519
0.0830488
0.0830449
0.0830412
0.0830376
0.083034
0.0830301
0.0830257
0.0830204
0.0830144
0.0830078
0.0830014
0.0829958
0.0829915
0.0829885
0.0829868
0.0829861
0.0830042
0.0830048
0.0830061
0.0830084
0.0830115
0.0830154
0.0830197
0.083024
0.0830283
0.0830326
0.0830373
0.0830422
0.0830472
0.0830514
0.0830532
0.0830522
0.083049
0.0830451
0.0830413
0.0830378
0.0830342
0.0830304
0.0830261
0.083021
0.083015
0.0830085
0.0830021
0.0829964
0.0829919
0.0829888
0.082987
0.0829863
0.0830044
0.083005
0.0830064
0.0830088
0.0830121
0.083016
0.0830202
0.0830244
0.0830285
0.0830328
0.0830374
0.0830424
0.0830477
0.0830522
0.0830541
0.0830528
0.0830494
0.0830454
0.0830416
0.0830381
0.0830347
0.083031
0.083027
0.0830221
0.0830164
0.0830099
0.0830034
0.0829975
0.0829928
0.0829895
0.0829876
0.0829868
0.0830046
0.0830052
0.0830067
0.0830093
0.0830126
0.0830165
0.0830205
0.0830244
0.0830282
0.0830323
0.083037
0.0830424
0.0830483
0.0830536
0.0830555
0.0830539
0.0830499
0.0830457
0.0830418
0.0830384
0.0830351
0.0830317
0.083028
0.0830235
0.0830181
0.0830119
0.0830053
0.0829991
0.0829941
0.0829905
0.0829884
0.0829876
0.0830047
0.0830054
0.083007
0.0830095
0.0830128
0.0830165
0.0830201
0.0830236
0.0830271
0.083031
0.0830358
0.0830418
0.0830489
0.0830554
0.0830577
0.0830553
0.0830505
0.0830457
0.0830417
0.0830383
0.0830353
0.0830322
0.0830289
0.0830249
0.08302
0.0830141
0.0830075
0.0830011
0.0829957
0.0829919
0.0829896
0.0829887
0.0830047
0.0830054
0.0830069
0.0830093
0.0830123
0.0830156
0.0830187
0.0830216
0.0830246
0.0830283
0.0830333
0.0830403
0.0830493
0.0830578
0.0830605
0.083057
0.0830508
0.0830452
0.0830409
0.0830376
0.0830348
0.0830322
0.0830294
0.083026
0.0830216
0.0830161
0.0830097
0.0830032
0.0829975
0.0829934
0.082991
0.08299
0.0830044
0.083005
0.0830064
0.0830085
0.0830111
0.0830137
0.0830161
0.0830183
0.0830206
0.0830239
0.0830292
0.0830375
0.0830492
0.0830604
0.0830639
0.0830588
0.0830506
0.0830438
0.0830391
0.0830358
0.0830335
0.0830314
0.0830292
0.0830264
0.0830226
0.0830175
0.0830114
0.0830049
0.0829992
0.0829949
0.0829924
0.0829914
0.0830037
0.0830043
0.0830054
0.0830071
0.083009
0.0830108
0.0830123
0.0830134
0.0830149
0.0830177
0.0830233
0.0830335
0.0830486
0.0830632
0.0830675
0.0830603
0.0830493
0.0830408
0.0830356
0.0830326
0.0830307
0.0830294
0.0830279
0.0830259
0.0830227
0.0830182
0.0830124
0.0830061
0.0830005
0.0829962
0.0829937
0.0829927
0.0830024
0.0830029
0.0830038
0.083005
0.0830062
0.083007
0.0830073
0.0830073
0.0830077
0.0830099
0.0830159
0.0830282
0.0830477
0.0830664
0.0830715
0.0830612
0.0830464
0.0830358
0.08303
0.0830273
0.0830263
0.0830259
0.0830254
0.0830242
0.0830218
0.0830178
0.0830125
0.0830067
0.0830013
0.0829972
0.0829948
0.0829939
0.0830004
0.0830009
0.0830016
0.0830023
0.0830026
0.0830024
0.0830015
0.0830002
0.0829994
0.0830009
0.0830074
0.0830227
0.0830475
0.0830707
0.0830758
0.0830611
0.0830413
0.083028
0.0830217
0.0830197
0.0830199
0.0830209
0.0830216
0.0830215
0.0830198
0.0830165
0.0830118
0.0830064
0.0830015
0.0829978
0.0829956
0.0829947
0.0829975
0.082998
0.0829985
0.0829988
0.0829985
0.0829974
0.0829953
0.0829928
0.082991
0.0829918
0.0829992
0.0830184
0.0830495
0.0830769
0.0830806
0.0830598
0.0830337
0.0830172
0.0830104
0.0830096
0.0830115
0.0830142
0.0830165
0.0830175
0.0830168
0.0830142
0.0830102
0.0830055
0.0830012
0.0829979
0.082996
0.0829952
0.0829934
0.0829939
0.0829944
0.0829946
0.082994
0.0829923
0.0829895
0.0829862
0.0829835
0.0829842
0.0829935
0.0830181
0.083056
0.0830861
0.0830857
0.0830566
0.0830231
0.0830033
0.0829964
0.0829971
0.0830013
0.0830061
0.0830102
0.0830126
0.0830129
0.0830112
0.0830079
0.083004
0.0830003
0.0829976
0.0829959
0.0829952
0.0829874
0.082988
0.0829887
0.0829892
0.0829888
0.0829872
0.0829844
0.0829808
0.082978
0.0829799
0.0829934
0.0830256
0.0830702
0.0830994
0.08309
0.08305
0.0830091
0.0829866
0.0829804
0.0829832
0.0829899
0.082997
0.0830029
0.0830067
0.0830081
0.0830073
0.083005
0.0830019
0.0829989
0.0829966
0.0829952
0.0829945
0.0829772
0.0829779
0.0829789
0.0829799
0.0829802
0.0829793
0.0829773
0.0829749
0.0829748
0.0829823
0.0830056
0.0830486
0.0830965
0.0831162
0.0830907
0.0830377
0.082991
0.082968
0.0829637
0.0829692
0.0829784
0.0829876
0.0829951
0.0830002
0.0830027
0.083003
0.0830016
0.0829994
0.0829972
0.0829953
0.082994
0.0829934
0.0829652
0.0829653
0.0829655
0.0829657
0.0829661
0.0829667
0.0829684
0.0829731
0.0829844
0.0830076
0.0830474
0.0830986
0.0831363
0.0831308
0.0830815
0.0830171
0.0829696
0.0829498
0.0829487
0.0829569
0.0829679
0.0829785
0.0829872
0.0829932
0.0829967
0.0829978
0.0829973
0.0829959
0.0829943
0.0829928
0.0829918
0.0829912
0.0829957
0.0829958
0.082996
0.0829971
0.0829998
0.0830054
0.0830158
0.0830334
0.0830603
0.0830978
0.0831414
0.0831748
0.0831732
0.0831269
0.0830559
0.0829899
0.0829496
0.0829361
0.0829385
0.082948
0.0829596
0.0829705
0.0829795
0.0829862
0.0829905
0.0829927
0.0829933
0.0829927
0.0829916
0.0829904
0.0829894
0.0829889
0.0831117
0.0831134
0.0831171
0.0831229
0.0831315
0.0831434
0.0831596
0.0831806
0.0832048
0.0832269
0.0832358
0.0832172
0.0831662
0.0830958
0.0830267
0.0829726
0.0829421
0.0829334
0.0829367
0.0829454
0.0829558
0.0829658
0.0829744
0.0829809
0.0829851
0.0829872
0.0829877
0.0829873
0.0829864
0.0829855
0.0829846
0.0829841
0.0832243
0.0832269
0.083232
0.0832395
0.083249
0.0832599
0.0832713
0.0832808
0.0832846
0.0832764
0.083251
0.0832078
0.0831524
0.0830918
0.0830325
0.0829819
0.0829509
0.0829412
0.0829433
0.0829502
0.0829583
0.0829659
0.0829723
0.0829774
0.0829811
0.0829835
0.0829847
0.0829845
0.0829835
0.082982
0.0829809
0.0829803
0.0832837
0.0832859
0.0832901
0.0832963
0.0833039
0.0833122
0.0833194
0.0833226
0.0833183
0.0833032
0.0832763
0.0832379
0.0831896
0.083133
0.0830721
0.0830141
0.0829726
0.0829551
0.0829531
0.082958
0.0829652
0.0829721
0.0829777
0.0829812
0.0829823
0.0829809
0.0829779
0.0829749
0.0829734
0.0829739
0.0829757
0.082977
0.0833144
0.0833164
0.0833206
0.0833272
0.083336
0.0833462
0.0833555
0.083361
0.08336
0.0833503
0.0833313
0.0833023
0.0832619
0.0832094
0.0831459
0.0830766
0.0830165
0.0829809
0.0829661
0.0829617
0.0829612
0.0829612
0.0829602
0.0829585
0.0829579
0.0829606
0.0829692
0.0829847
0.0830057
0.0830274
0.0830439
0.0830519
0.0833321
0.0833342
0.0833391
0.0833474
0.0833592
0.0833736
0.0833883
0.0834006
0.0834081
0.0834092
0.0834028
0.0833872
0.0833594
0.0833161
0.0832557
0.08318
0.083103
0.0830465
0.0830139
0.0829972
0.0829904
0.0829913
0.0830002
0.0830191
0.0830495
0.0830914
0.0831426
0.0831973
0.0832473
0.0832852
0.0833078
0.0833166
0.0833415
0.0833438
0.0833492
0.0833588
0.0833731
0.0833914
0.0834121
0.0834325
0.0834504
0.0834644
0.0834731
0.0834743
0.0834639
0.083437
0.0833891
0.0833189
0.0832382
0.0831737
0.0831371
0.0831254
0.0831357
0.0831679
0.083221
0.083292
0.0833748
0.0834608
0.0835402
0.083604
0.0836461
0.0836664
0.0836715
0.0836707
0.0833466
0.0833487
0.083354
0.0833637
0.0833787
0.0833989
0.0834233
0.0834499
0.083477
0.083503
0.0835267
0.0835457
0.0835555
0.08355
0.0835224
0.0834681
0.083396
0.0833362
0.083309
0.0833159
0.0833559
0.083427
0.083522
0.0836292
0.0837344
0.0838248
0.0838921
0.0839334
0.0839509
0.0839505
0.0839417
0.0839342
0.0833521
0.0833537
0.0833582
0.0833669
0.083381
0.083401
0.0834267
0.0834566
0.0834895
0.0835242
0.0835596
0.0835941
0.0836232
0.0836402
0.0836364
0.0836042
0.083547
0.0834941
0.0834736
0.0834922
0.0835489
0.0836365
0.0837411
0.0838457
0.0839351
0.0840017
0.0840453
0.0840698
0.0840796
0.0840789
0.0840724
0.0840663
0.0833644
0.083365
0.0833677
0.0833743
0.0833866
0.0834054
0.083431
0.0834625
0.0834987
0.0835389
0.083582
0.0836268
0.0836703
0.0837062
0.0837251
0.0837168
0.0836779
0.0836321
0.0836104
0.0836255
0.0836785
0.0837592
0.0838505
0.0839351
0.0840023
0.0840505
0.0840833
0.0841048
0.0841171
0.084122
0.0841214
0.0841188
0.0833905
0.0833894
0.0833895
0.0833935
0.0834036
0.0834214
0.083447
0.0834797
0.0835185
0.0835622
0.0836098
0.0836601
0.083711
0.0837581
0.0837936
0.0838058
0.0837863
0.0837501
0.0837257
0.0837292
0.0837659
0.0838276
0.0838987
0.0839642
0.0840169
0.0840574
0.0840885
0.0841121
0.0841284
0.0841378
0.0841411
0.0841408
0.0834371
0.0834339
0.0834312
0.0834329
0.0834419
0.0834598
0.0834864
0.0835207
0.0835613
0.0836068
0.0836558
0.0837073
0.0837596
0.0838098
0.0838527
0.0838782
0.0838749
0.0838504
0.0838267
0.0838202
0.083839
0.0838795
0.0839305
0.0839803
0.0840233
0.0840593
0.0840898
0.0841152
0.0841346
0.0841471
0.0841529
0.084154
0.0835085
0.0835034
0.0834993
0.083501
0.0835112
0.0835309
0.0835592
0.0835944
0.0836348
0.083679
0.0837258
0.0837741
0.0838226
0.0838696
0.0839118
0.083942
0.0839489
0.0839352
0.0839161
0.083905
0.0839108
0.0839337
0.0839676
0.084004
0.0840379
0.0840685
0.0840961
0.0841207
0.0841408
0.0841551
0.0841626
0.0841645
0.0836071
0.0836015
0.0835996
0.0836048
0.0836185
0.0836402
0.0836685
0.0837018
0.0837386
0.0837776
0.0838179
0.0838588
0.0838994
0.0839386
0.0839746
0.0840026
0.0840137
0.0840076
0.0839942
0.0839835
0.0839826
0.0839937
0.0840143
0.084039
0.0840639
0.0840876
0.08411
0.0841308
0.0841491
0.0841631
0.0841712
0.0841738
0.0837347
0.0837318
0.083736
0.0837468
0.0837629
0.0837838
0.0838084
0.0838357
0.0838647
0.0838946
0.083925
0.0839553
0.0839852
0.0840138
0.0840404
0.084062
0.0840724
0.0840705
0.0840624
0.0840544
0.0840515
0.084056
0.0840674
0.0840826
0.0840989
0.084115
0.0841308
0.0841461
0.0841603
0.0841719
0.0841794
0.0841821
0.0838948
0.0838979
0.0839079
0.0839199
0.0839334
0.0839486
0.0839651
0.0839827
0.0840008
0.0840192
0.0840376
0.0840558
0.0840735
0.0840905
0.0841063
0.0841195
0.0841264
0.0841262
0.0841221
0.0841174
0.0841151
0.0841166
0.084122
0.0841299
0.0841388
0.0841478
0.0841568
0.0841657
0.0841743
0.0841819
0.0841873
0.0841896
0.0840926
0.0840954
0.0841008
0.084106
0.0841113
0.0841168
0.0841226
0.0841286
0.0841347
0.0841408
0.0841469
0.0841528
0.0841586
0.0841642
0.0841693
0.0841737
0.084176
0.0841761
0.0841748
0.0841733
0.0841725
0.0841728
0.0841744
0.0841768
0.0841795
0.0841824
0.0841852
0.084188
0.0841908
0.0841934
0.0841954
0.0841963
)
;

boundaryField
{
    movingWall
    {
        type            fixedValue;
        value           uniform 0.0842;
    }
    fixedWalls
    {
        type            zeroGradient;
    }
    floor
    {
        type            zeroGradient;
    }
    frontAndBack
    {
        type            empty;
    }
}


// ************************************************************************* //
