/*--------------------------------*- C++ -*----------------------------------*\
| =========                 |                                                 |
| \\      /  F ield         | OpenFOAM: The Open Source CFD Toolbox           |
|  \\    /   O peration     | Version:  2206                                  |
|   \\  /    A nd           | Website:  www.openfoam.com                      |
|    \\/     M anipulation  |                                                 |
\*---------------------------------------------------------------------------*/
FoamFile
{
    version     2.0;
    format      ascii;
    arch        "LSB;label=64;scalar=64";
    class       surfaceScalarField;
    location    "259200";
    object      phi;
}
// * * * * * * * * * * * * * * * * * * * * * * * * * * * * * * * * * * * * * //

dimensions      [0 3 -1 0 0 0 0];

oriented        oriented;

internalField   nonuniform List<scalar> 
24
(
2.40747e-10
-2.40747e-10
-4.32998e-11
2.84047e-10
2.92479e-11
-7.25477e-11
2.92479e-11
-5.53777e-13
-2.40193e-10
-6.69042e-11
3.50397e-10
5.85901e-11
-1.98042e-10
8.7838e-11
-1.1554e-10
-1.24653e-10
7.52352e-11
1.59622e-10
1.14572e-11
-1.34264e-10
9.92952e-11
-1.24653e-10
3.49689e-11
-9.92952e-11
)
;

boundaryField
{
    movingWall
    {
        type            calculated;
        value           uniform 0;
    }
    fixedWalls
    {
        type            calculated;
        value           uniform 0;
    }
    frontAndBack
    {
        type            empty;
        value           nonuniform List<scalar> 0();
    }
}


// ************************************************************************* //
