/*--------------------------------*- C++ -*----------------------------------*\
| =========                 |                                                 |
| \\      /  F ield         | OpenFOAM: The Open Source CFD Toolbox           |
|  \\    /   O peration     | Version:  2206                                  |
|   \\  /    A nd           | Website:  www.openfoam.com                      |
|    \\/     M anipulation  |                                                 |
\*---------------------------------------------------------------------------*/
FoamFile
{
    version     2.0;
    format      ascii;
    arch        "LSB;label=64;scalar=64";
    class       volVectorField;
    location    "259200";
    object      U;
}
// * * * * * * * * * * * * * * * * * * * * * * * * * * * * * * * * * * * * * //

dimensions      [0 1 -1 0 0 0 0];

internalField   nonuniform List<vector> 
16
(
(1.63194e-07 -7.29768e-08 0)
(2.50273e-08 5.82468e-08 0)
(-5.78056e-08 6.92954e-09 0)
(8.01719e-08 4.34989e-09 0)
(3.93072e-08 -1.17626e-07 0)
(-3.98592e-08 1.67523e-07 0)
(-1.22284e-08 -6.59221e-08 0)
(5.79951e-08 1.95344e-08 0)
(-9.37092e-08 -7.44254e-08 0)
(2.96908e-09 1.11283e-07 0)
(5.57767e-08 -9.08774e-08 0)
(-4.62411e-08 5.01971e-08 0)
(-1.05729e-07 -2.51292e-08 0)
(8.87248e-09 1.63757e-08 0)
(1.74694e-08 -1.72535e-08 0)
(-9.47874e-08 2.88581e-08 0)
)
;

boundaryField
{
    movingWall
    {
        type            noSlip;
    }
    fixedWalls
    {
        type            noSlip;
    }
    frontAndBack
    {
        type            empty;
    }
}


// ************************************************************************* //
