/*--------------------------------*- C++ -*----------------------------------*\
| =========                 |                                                 |
| \\      /  F ield         | OpenFOAM: The Open Source CFD Toolbox           |
|  \\    /   O peration     | Version:  2212                                  |
|   \\  /    A nd           | Website:  www.openfoam.com                      |
|    \\/     M anipulation  |                                                 |
\*---------------------------------------------------------------------------*/
FoamFile
{
    version     2.0;
    format      ascii;
    arch        "LSB;label=64;scalar=64";
    class       volScalarField;
    location    "0.06";
    object      alpha.air;
}
// * * * * * * * * * * * * * * * * * * * * * * * * * * * * * * * * * * * * * //

dimensions      [0 0 0 0 0 0 0];

internalField   nonuniform List<scalar> 
32768
(
1.30109e-162
3.22102e-151
7.80427e-147
1.05379e-143
6.91689e-141
3.28588e-138
1.24217e-135
3.88386e-133
1.02784e-130
2.33907e-128
4.62647e-126
8.01314e-124
1.22127e-121
1.64229e-119
1.95038e-117
2.04421e-115
1.88687e-113
1.52829e-111
1.08063e-109
6.62398e-108
3.48766e-106
1.55858e-104
5.82131e-103
1.78173e-101
4.35754e-100
8.24361e-99
1.15621e-97
1.13554e-96
7.20822e-96
2.62565e-95
4.53443e-95
2.64946e-95
2.83757e-96
5.31358e-98
9.36047e-100
1.59912e-101
2.66118e-103
4.32596e-105
6.87146e-107
1.06489e-108
1.60564e-110
2.3473e-112
3.31441e-114
4.50256e-116
5.8618e-118
7.28497e-120
8.60882e-122
9.63433e-124
1.01673e-125
1.00712e-127
9.31624e-130
8.00175e-132
6.33972e-134
4.59825e-136
3.02594e-138
1.78732e-140
9.35147e-143
4.26258e-145
1.6564e-147
5.32756e-150
1.35881e-152
2.56734e-155
3.16693e-158
1.84514e-161
2.30786e-161
3.37712e-158
2.56083e-155
1.30339e-152
4.97726e-150
1.51808e-147
3.84998e-145
8.35066e-143
1.58186e-140
2.65975e-138
4.02158e-136
5.5271e-134
6.96762e-132
8.12004e-130
8.80847e-128
8.94881e-126
8.5613e-124
7.75148e-122
6.67208e-120
5.48211e-118
4.31568e-116
3.266e-114
2.38318e-112
1.68139e-110
1.14993e-108
7.6427e-107
4.94861e-105
3.13013e-103
1.94037e-101
1.18377e-99
7.146e-98
3.5744e-96
3.07588e-95
4.99319e-95
2.78538e-95
7.42246e-96
1.13935e-96
1.13262e-97
7.89233e-99
4.08008e-100
1.63271e-101
5.22533e-103
1.37202e-104
3.01522e-106
5.63296e-108
9.05308e-110
1.26307e-111
1.54007e-113
1.64897e-115
1.55543e-117
1.29493e-119
9.51886e-122
6.17169e-124
3.51959e-126
1.75682e-128
7.61857e-131
2.83932e-133
8.95308e-136
2.33414e-138
4.84243e-141
7.27327e-144
5.29189e-147
2.12156e-151
7.91595e-163
5.74497e-159
8.74484e-148
1.95699e-143
2.60502e-140
1.70476e-137
8.1e-135
3.06894e-132
9.63555e-130
2.5655e-127
5.88556e-125
1.17591e-122
2.06176e-120
3.18816e-118
4.36035e-116
5.28019e-114
5.65865e-112
5.35649e-110
4.46385e-108
3.25916e-106
2.07124e-104
1.1359e-102
5.31575e-101
2.09237e-99
6.80021e-98
1.78216e-96
3.65346e-95
5.63081e-94
6.1869e-93
4.50015e-92
1.94242e-91
4.18087e-91
3.30671e-91
5.41955e-92
1.47107e-93
3.19522e-95
6.74753e-97
1.38936e-98
2.79314e-100
5.47913e-102
1.04652e-103
1.94027e-105
3.47921e-107
6.01104e-109
9.96779e-111
1.58044e-112
2.387e-114
3.42116e-116
4.63486e-118
5.91072e-120
7.06363e-122
7.87108e-124
8.13241e-126
7.74084e-128
6.73739e-130
5.31485e-132
3.75983e-134
2.35423e-136
1.28344e-138
5.96238e-141
2.29228e-143
6.99057e-146
1.5811e-148
2.34285e-151
1.66264e-154
1.85989e-154
2.33681e-151
1.50382e-148
6.46865e-146
2.08272e-143
5.34673e-141
1.13968e-138
2.07493e-136
3.29496e-134
4.63829e-132
5.86351e-130
6.72788e-128
7.06989e-126
6.8565e-124
6.17824e-122
5.20335e-120
4.11787e-118
3.07701e-116
2.18051e-114
1.4713e-112
9.48746e-111
5.86634e-109
3.48896e-107
2.00164e-105
1.11075e-103
5.97753e-102
3.12773e-100
1.59552e-98
7.95854e-97
3.89552e-95
1.87935e-93
6.63834e-92
3.76608e-91
4.53909e-91
2.03672e-91
4.58652e-92
6.14904e-93
5.4664e-94
3.46753e-95
1.65475e-96
6.18143e-98
1.86381e-99
4.64589e-101
9.75497e-103
1.7506e-104
2.71516e-106
3.67043e-108
4.35172e-110
4.54514e-112
4.19444e-114
3.42561e-116
2.47654e-118
1.58299e-120
8.92003e-123
4.40897e-125
1.89719e-127
7.02979e-130
2.20814e-132
5.74568e-135
1.19212e-137
1.7963e-140
1.32625e-143
5.75701e-148
3.48317e-159
1.11499e-155
1.04817e-144
2.17432e-140
2.86007e-137
1.86861e-134
8.8859e-132
3.37501e-129
1.06402e-126
2.84961e-124
6.58797e-122
1.32901e-119
2.35762e-117
3.69665e-115
5.13847e-113
6.34001e-111
6.94134e-109
6.73219e-107
5.7663e-105
4.34227e-103
2.85731e-101
1.62972e-99
7.97307e-98
3.30079e-96
1.13647e-94
3.18287e-93
7.04743e-92
1.18879e-90
1.45398e-89
1.20389e-88
6.1018e-88
1.61458e-87
1.68849e-87
4.05983e-88
1.32758e-89
3.07067e-91
6.91383e-93
1.51921e-94
3.25995e-96
6.82095e-98
1.3875e-99
2.73373e-101
5.19622e-103
9.49115e-105
1.65965e-106
2.76834e-108
4.38951e-110
6.59311e-112
9.34701e-114
1.24591e-115
1.55488e-117
1.80816e-119
1.9488e-121
1.93452e-123
1.75581e-125
1.44446e-127
1.06584e-129
6.96318e-132
3.96217e-134
1.92208e-136
7.7204e-139
2.46129e-141
5.82369e-144
9.03693e-147
6.73245e-150
7.48139e-150
9.0147e-147
5.55689e-144
2.28957e-141
7.06299e-139
1.73787e-136
3.55169e-134
6.20165e-132
9.44708e-130
1.27584e-127
1.54728e-125
1.70285e-123
1.71568e-121
1.5944e-119
1.37558e-117
1.10812e-115
8.37758e-114
5.9715e-112
4.02996e-110
2.58486e-108
1.58136e-106
9.25776e-105
5.20231e-103
2.8143e-101
1.4698e-99
7.43181e-98
3.64873e-96
1.74483e-94
8.15549e-93
3.74144e-91
1.69322e-89
4.90116e-88
1.89986e-87
1.73618e-87
6.34555e-88
1.2178e-88
1.43478e-89
1.14606e-90
6.64326e-92
2.93567e-93
1.02642e-94
2.92226e-96
6.92848e-98
1.39221e-99
2.40341e-101
3.60188e-103
4.723e-105
5.45025e-107
5.55779e-109
5.02181e-111
4.02628e-113
2.86459e-115
1.80617e-117
1.00615e-119
4.92661e-122
2.10421e-124
7.75338e-127
2.4261e-129
6.2991e-132
1.30621e-134
1.97179e-137
1.47377e-140
6.90232e-145
6.74516e-156
1.36089e-152
7.96318e-142
1.53313e-137
1.99304e-134
1.2999e-131
6.18578e-129
2.35482e-126
7.45273e-124
2.00712e-121
4.67469e-119
9.51841e-117
1.70773e-114
2.71392e-112
3.83233e-110
4.81533e-108
5.38311e-106
5.34608e-104
4.70341e-102
3.6505e-100
2.48526e-98
1.47299e-96
7.52608e-95
3.27332e-93
1.19238e-91
3.5632e-90
8.50589e-89
1.56697e-87
2.1278e-86
1.99898e-85
1.18463e-84
3.83118e-84
5.25626e-84
1.85778e-84
7.86125e-86
1.96252e-87
4.76056e-89
1.12445e-90
2.58612e-92
5.77936e-94
1.25087e-95
2.61246e-97
5.24569e-99
1.00923e-100
1.85456e-102
3.2454e-104
5.39285e-106
8.48427e-108
1.25979e-109
1.75944e-111
2.30227e-113
2.81001e-115
3.18254e-117
3.32437e-119
3.17963e-121
2.76067e-123
2.15302e-125
1.48875e-127
8.97784e-130
4.62115e-132
1.97158e-134
6.68242e-137
1.68242e-139
2.7806e-142
2.21095e-145
2.41961e-145
2.74678e-142
1.59341e-139
6.17944e-137
1.79544e-134
4.16484e-132
8.03382e-130
1.32578e-127
1.91141e-125
2.44667e-123
2.81645e-121
2.94619e-119
2.82496e-117
2.50113e-115
2.05757e-113
1.58137e-111
1.1409e-109
7.75977e-108
4.99439e-106
3.05239e-104
1.77696e-102
9.88182e-101
5.26354e-99
2.69219e-97
1.32559e-95
6.29966e-94
2.89764e-92
1.29414e-90
5.6338e-89
2.40237e-87
1.00982e-85
2.21147e-84
5.84962e-84
4.08387e-84
1.22266e-84
2.008e-85
2.0857e-86
1.50082e-87
7.96684e-89
3.26596e-90
1.07044e-91
2.88145e-93
6.50547e-95
1.25224e-96
2.08136e-98
3.01625e-100
3.83901e-102
4.31461e-104
4.29808e-106
3.8045e-108
2.99596e-110
2.09868e-112
1.30584e-114
7.19422e-117
3.49093e-119
1.48042e-121
5.42597e-124
1.69172e-126
4.38359e-129
9.08609e-132
1.37419e-134
1.03965e-137
5.24695e-142
8.21945e-153
1.20099e-149
4.38965e-139
7.84762e-135
1.00814e-131
6.56281e-129
3.12449e-126
1.19186e-123
3.78575e-121
1.02495e-118
2.40411e-116
4.93906e-114
8.9586e-112
1.44237e-109
2.06818e-107
2.64515e-105
3.01778e-103
3.06721e-101
2.77015e-99
2.21456e-97
1.55878e-95
9.59277e-94
5.11434e-92
2.33452e-90
8.9867e-89
2.86157e-87
7.3529e-86
1.47655e-84
2.22096e-83
2.36071e-82
1.62986e-81
6.41117e-81
1.14647e-80
5.95303e-81
3.67852e-82
1.00166e-83
2.63366e-85
6.70436e-87
1.65312e-88
3.9424e-90
9.07158e-92
2.0088e-93
4.27015e-95
8.69405e-97
1.69188e-98
3.14055e-100
5.54893e-102
9.30988e-104
1.47911e-105
2.21788e-107
3.1263e-109
4.1231e-111
5.05922e-113
5.73769e-115
5.96756e-117
5.6395e-119
4.78903e-121
3.60524e-123
2.3656e-125
1.3236e-127
6.13076e-130
2.25272e-132
6.13957e-135
1.09702e-137
9.43049e-141
1.01751e-140
1.07288e-137
5.75997e-135
2.06244e-132
5.52242e-130
1.17879e-127
2.09007e-125
3.16827e-123
4.19507e-121
4.9334e-119
5.22214e-117
5.03052e-115
4.45075e-113
3.64492e-111
2.78142e-109
1.98902e-107
1.33945e-105
8.52982e-104
5.15479e-102
2.9651e-100
1.62749e-98
8.54231e-97
4.29546e-95
2.07274e-93
9.61349e-92
4.29299e-90
1.84943e-88
7.70513e-87
3.11478e-85
1.22751e-83
4.74839e-82
6.98187e-81
1.26213e-80
6.77549e-81
1.66967e-81
2.3551e-82
2.16273e-83
1.40516e-84
6.84376e-86
2.60689e-87
8.02066e-89
2.04377e-90
4.39838e-92
8.11761e-94
1.30006e-95
1.82308e-97
2.25369e-99
2.46825e-101
2.40327e-103
2.08502e-105
1.61343e-107
1.1133e-109
6.83892e-112
3.72768e-114
1.79318e-116
7.55294e-119
2.75441e-121
8.5591e-124
2.21395e-126
4.58796e-129
6.95328e-132
5.32519e-135
2.89476e-139
7.24526e-150
8.23235e-147
1.88255e-136
3.12557e-132
3.96727e-129
2.57719e-126
1.22727e-123
4.68982e-121
1.49459e-118
4.06653e-116
9.60266e-114
1.98972e-111
3.64709e-109
5.94629e-107
8.65345e-105
1.12596e-102
1.31025e-100
1.3621e-98
1.26205e-96
1.03851e-94
7.55207e-93
4.8217e-91
2.6799e-89
1.2825e-87
5.21087e-86
1.76554e-84
4.87513e-83
1.06504e-81
1.77031e-80
2.12271e-79
1.70088e-78
8.0956e-78
1.87312e-77
1.41949e-77
1.4389e-78
4.25322e-80
1.2053e-81
3.28978e-83
8.66874e-85
2.20676e-86
5.42662e-88
1.28858e-89
2.95279e-91
6.52342e-93
1.38731e-94
2.83373e-96
5.54258e-98
1.03417e-99
1.83258e-101
3.06847e-103
4.82784e-105
7.09439e-107
9.67232e-109
1.21457e-110
1.39326e-112
1.44634e-114
1.3438e-116
1.10259e-118
7.85721e-121
4.75906e-123
2.37936e-125
9.41312e-128
2.75627e-130
5.28285e-133
4.87085e-136
5.29485e-136
5.22755e-133
2.61832e-130
8.72092e-128
2.16559e-125
4.27306e-123
6.97888e-121
9.70775e-119
1.17476e-116
1.2573e-114
1.20609e-112
1.04857e-110
8.34155e-109
6.12338e-107
4.17971e-105
2.67152e-103
1.60933e-101
9.19151e-100
5.00366e-98
2.60797e-96
1.30608e-94
6.30024e-93
2.93149e-91
1.31646e-89
5.70576e-88
2.3863e-86
9.63045e-85
3.75263e-83
1.41416e-81
5.17084e-80
1.84536e-78
1.63916e-77
2.03974e-77
8.48218e-78
1.72943e-78
2.10311e-79
1.71256e-80
1.00708e-81
4.50934e-83
1.59874e-84
4.62413e-86
1.11677e-87
2.29344e-89
4.06217e-91
6.27373e-93
8.51942e-95
1.02359e-96
1.09311e-98
1.04091e-100
8.85611e-103
6.73769e-105
4.58174e-107
2.77997e-109
1.49981e-111
7.15521e-114
2.99446e-116
1.08691e-118
3.36724e-121
8.69698e-124
1.8023e-126
2.73771e-129
2.12275e-132
1.24275e-136
4.96271e-147
4.5755e-144
6.5512e-134
1.01008e-129
1.26655e-126
8.20851e-124
3.90888e-121
1.49593e-118
4.78164e-116
1.30698e-113
3.10588e-111
6.48797e-109
1.2012e-106
1.98225e-104
2.92616e-102
3.87127e-100
4.59204e-98
4.87947e-96
4.63497e-94
3.92285e-92
2.94478e-90
1.9488e-88
1.12802e-86
5.65305e-85
2.42106e-83
8.71495e-82
2.58131e-80
6.12173e-79
1.12153e-77
1.51209e-76
1.40023e-75
8.01747e-75
2.37966e-74
2.60076e-74
4.63721e-75
1.47303e-76
4.47388e-78
1.31071e-79
3.73186e-81
1.03844e-82
2.83305e-84
7.57763e-86
1.98069e-87
5.03085e-89
1.23314e-90
2.89647e-92
6.47672e-94
1.37058e-95
2.73022e-97
5.09405e-99
8.85857e-101
1.42849e-102
2.12416e-104
2.89455e-106
3.58851e-108
4.013e-110
4.00642e-112
3.52558e-114
2.69073e-116
1.74373e-118
9.3218e-121
3.94201e-123
1.23381e-125
2.52884e-128
2.49765e-131
2.79534e-131
2.58668e-128
1.21296e-125
3.78092e-123
8.78323e-121
1.62031e-118
2.4719e-116
3.20762e-114
3.61455e-112
3.59378e-110
3.19267e-108
2.56051e-106
1.86983e-104
1.25251e-102
7.74634e-101
4.44972e-99
2.38759e-97
1.20348e-95
5.73228e-94
2.59625e-92
1.12562e-90
4.70367e-89
1.90673e-87
7.53779e-86
2.9155e-84
1.10412e-82
4.08768e-81
1.4751e-79
5.17372e-78
1.76163e-76
5.8361e-75
2.95602e-74
2.56316e-74
8.32784e-75
1.41306e-75
1.48779e-76
1.07781e-77
5.75169e-79
2.37289e-80
7.84483e-82
2.13641e-83
4.89692e-85
9.60769e-87
1.63482e-88
2.43708e-90
3.2074e-92
3.7482e-94
3.90578e-96
3.63977e-98
3.03874e-100
2.27427e-102
1.52497e-104
9.14373e-107
4.88509e-109
2.31233e-111
9.61894e-114
3.47637e-116
1.07406e-118
2.77077e-121
5.74348e-124
8.74633e-127
6.86724e-130
4.33021e-134
2.75738e-144
2.12102e-141
1.90219e-131
2.72321e-127
3.3725e-124
2.18012e-121
1.03787e-118
3.97658e-116
1.27444e-113
3.4981e-111
8.36182e-109
1.76011e-106
3.28982e-104
5.49174e-102
8.21826e-100
1.10477e-97
1.33489e-95
1.44877e-93
1.40972e-91
1.22614e-89
9.49258e-88
6.5048e-86
3.91667e-84
2.05282e-82
9.25345e-81
3.53275e-79
1.12018e-77
2.87699e-76
5.79255e-75
8.74962e-74
9.31976e-73
6.37785e-72
2.40456e-71
3.72983e-71
1.18839e-71
4.04723e-73
1.33546e-74
4.36267e-76
1.43129e-77
4.71984e-79
1.54716e-80
4.96078e-82
1.53298e-83
4.51596e-85
1.25911e-86
3.30728e-88
8.15824e-90
1.88513e-91
4.07058e-93
8.19198e-95
1.53179e-96
2.65142e-98
4.22957e-100
6.1846e-102
8.23554e-104
9.90787e-106
1.06638e-107
1.01423e-109
8.391e-112
5.91433e-114
3.45139e-116
1.59953e-118
5.50989e-121
1.24871e-123
1.37212e-126
1.62284e-126
1.35338e-123
5.73284e-121
1.62023e-118
3.42638e-116
5.77737e-114
8.08723e-112
9.66406e-110
1.00613e-107
9.26842e-106
7.64667e-104
5.70514e-102
3.87994e-100
2.42103e-98
1.39377e-96
7.43779e-95
3.69441e-93
1.7143e-91
7.45652e-90
3.0502e-88
1.17749e-86
4.3065e-85
1.49944e-83
5.00182e-82
1.6121e-80
5.07464e-79
1.57905e-77
4.90648e-76
1.52819e-74
4.74809e-73
1.45725e-71
4.17285e-71
2.56192e-71
6.5676e-72
9.3346e-73
8.54953e-74
5.53015e-75
2.68595e-76
1.02344e-77
3.16149e-79
8.12075e-81
1.76925e-82
3.32067e-84
5.43449e-86
7.82765e-88
9.99346e-90
1.13686e-91
1.15687e-93
1.05582e-95
8.6557e-98
6.37699e-100
4.21888e-102
2.50129e-104
1.32403e-106
6.22127e-109
2.57353e-111
9.26459e-114
2.85566e-116
7.36033e-119
1.52654e-121
2.33106e-124
1.85372e-127
1.25917e-131
1.27837e-141
8.36373e-139
4.6995e-129
6.2458e-125
7.63766e-122
4.92335e-119
2.34247e-116
8.9825e-114
2.88523e-111
7.94917e-109
1.91045e-106
4.05e-104
7.63763e-102
1.28889e-99
1.95398e-97
2.66704e-95
3.28005e-93
3.63297e-91
3.61796e-89
3.23072e-87
2.57682e-85
1.8263e-83
1.14245e-81
6.25335e-80
2.96201e-78
1.19709e-76
4.05451e-75
1.12478e-73
2.4809e-72
4.18167e-71
5.09681e-70
4.13871e-69
1.96038e-68
4.23471e-68
2.35945e-68
9.162e-70
3.72482e-71
1.55679e-72
6.46888e-74
2.60121e-75
9.9583e-77
3.59933e-78
1.22369e-79
3.90828e-81
1.17244e-82
3.30425e-84
8.74991e-86
2.17684e-87
5.08501e-89
1.11401e-90
2.28452e-92
4.37307e-94
7.78346e-96
1.28142e-97
1.93826e-99
2.67052e-101
3.31551e-103
3.6591e-105
3.52846e-107
2.90724e-109
1.98603e-111
1.07747e-113
4.33979e-116
1.14779e-118
1.47e-121
1.69054e-121
1.22223e-118
4.46192e-116
1.08287e-113
1.96236e-111
2.83392e-109
3.40145e-107
3.49521e-105
3.14343e-103
2.51686e-101
1.81836e-99
1.19812e-97
7.26103e-96
4.07443e-94
2.12792e-92
1.03847e-90
4.7501e-89
2.04114e-87
8.25385e-86
3.14497e-84
1.13023e-82
3.83356e-81
1.22785e-79
3.71545e-78
1.06304e-76
2.88109e-75
7.42798e-74
1.83853e-72
4.44968e-71
1.08821e-69
2.8145e-68
4.66542e-68
2.06638e-68
4.22537e-69
5.0668e-70
4.05795e-71
2.35306e-72
1.04351e-73
3.68208e-75
1.06517e-76
2.58559e-78
5.36325e-80
9.64345e-82
1.51985e-83
2.11761e-85
2.62532e-87
2.91014e-89
2.89445e-91
2.58924e-93
2.08602e-95
1.51397e-97
9.88918e-100
5.8011e-102
3.04427e-104
1.42071e-106
5.84714e-109
2.09764e-111
6.45297e-114
1.66234e-116
3.45057e-119
5.28507e-122
4.25771e-125
3.11621e-129
5.04388e-139
2.84605e-136
1.00221e-126
1.23627e-122
1.49236e-119
9.59015e-117
4.55879e-114
1.74892e-111
5.62781e-109
1.55561e-106
3.75686e-104
8.01624e-102
1.52428e-99
2.59858e-97
3.98787e-95
5.52218e-93
6.9065e-91
7.7993e-89
7.94128e-87
7.27258e-85
5.96905e-83
4.36992e-81
2.83598e-79
1.61858e-77
8.0416e-76
3.4333e-74
1.23911e-72
3.70229e-71
8.91472e-70
1.66946e-68
2.31522e-67
2.21332e-66
1.30154e-65
3.83426e-65
3.58603e-65
2.48243e-66
1.34736e-67
6.72869e-69
3.12605e-70
1.35943e-71
5.55587e-73
2.14196e-74
7.82091e-76
2.71537e-77
8.99602e-79
2.85068e-80
8.6456e-82
2.50585e-83
6.91653e-85
1.80842e-86
4.44986e-88
1.0229e-89
2.17942e-91
4.26812e-93
7.61422e-95
1.2252e-96
1.75819e-98
2.22003e-100
2.42587e-102
2.24533e-104
1.70998e-106
1.02755e-108
4.55982e-111
1.32325e-113
1.85535e-116
2.11333e-116
1.39956e-113
4.65813e-111
1.02568e-108
1.67668e-106
2.16926e-104
2.31399e-102
2.09412e-100
1.6423e-98
1.13479e-96
7.00264e-95
3.90368e-93
1.98585e-91
9.30452e-90
4.05012e-88
1.65124e-86
6.35338e-85
2.3224e-83
8.10781e-82
2.71281e-80
8.71173e-79
2.68352e-77
7.91142e-76
2.22483e-74
5.94462e-73
1.5031e-71
3.58369e-70
8.03987e-69
1.70064e-67
3.43543e-66
4.16451e-65
4.162e-65
1.35758e-65
2.24061e-66
2.28459e-67
1.60905e-68
8.40083e-70
3.41358e-71
1.11867e-72
3.03801e-74
6.98356e-76
1.38169e-77
2.38384e-79
3.62325e-81
4.88954e-83
5.89334e-85
6.37231e-87
6.20096e-89
5.4422e-91
4.31255e-93
3.08584e-95
1.99165e-97
1.15678e-99
6.02214e-102
2.793e-104
1.14428e-106
4.09281e-109
1.25715e-111
3.23799e-114
6.72898e-117
1.03406e-119
8.44137e-123
6.65852e-127
1.71817e-136
8.44813e-134
1.86515e-124
2.13498e-120
2.54343e-117
1.62891e-114
7.73363e-112
2.96705e-109
9.5605e-107
2.64991e-104
6.42705e-102
1.37943e-99
2.64286e-97
4.548e-95
7.05927e-93
9.9082e-91
1.25897e-88
1.44802e-86
1.50575e-84
1.41251e-82
1.19144e-80
8.99717e-79
6.0481e-77
3.59287e-75
1.86864e-73
8.40886e-72
3.22533e-70
1.03468e-68
2.70956e-67
5.61112e-66
8.79993e-65
9.82125e-64
7.07984e-63
2.78251e-62
4.16384e-62
7.70597e-63
4.4338e-64
2.32286e-65
1.13792e-66
5.3148e-68
2.40344e-69
1.06338e-70
4.61774e-72
1.95916e-73
8.04216e-75
3.15802e-76
1.17421e-77
4.10027e-79
1.33632e-80
4.04493e-82
1.13239e-83
2.92014e-85
6.90648e-87
1.49069e-88
2.91873e-90
5.14614e-92
8.09556e-94
1.12304e-95
1.35303e-97
1.38723e-99
1.17671e-101
7.92403e-104
3.96641e-106
1.30744e-108
2.09944e-111
2.72334e-111
1.57049e-108
4.57084e-106
8.85211e-104
1.28068e-101
1.47558e-99
1.41001e-97
1.14899e-95
8.14699e-94
5.10298e-92
2.85651e-90
1.44207e-88
6.61334e-87
2.77145e-85
1.0666e-83
3.78629e-82
1.24509e-80
3.81048e-79
1.09145e-77
2.9476e-76
7.57776e-75
1.87613e-73
4.52693e-72
1.07393e-70
2.50991e-69
5.74418e-68
1.2723e-66
2.69153e-65
5.3812e-64
1.01365e-62
4.71821e-62
2.9781e-62
7.30997e-63
9.86034e-64
8.62061e-65
5.37194e-66
2.53724e-67
9.48252e-69
2.89519e-70
7.40089e-72
1.61479e-73
3.05338e-75
5.06375e-77
7.43405e-79
9.7305e-81
1.14169e-82
1.20561e-84
1.14911e-86
9.9046e-89
7.72743e-91
5.45644e-93
3.48266e-95
2.00439e-97
1.0359e-99
4.77775e-102
1.94969e-104
6.95642e-107
2.13447e-109
5.49899e-112
1.14447e-114
1.76511e-117
1.46048e-120
1.24187e-124
5.10808e-134
2.20584e-131
3.05499e-122
3.24435e-118
3.81322e-115
2.43308e-112
1.15332e-109
4.42305e-107
1.42641e-104
3.96221e-102
9.64482e-100
2.08073e-97
4.01356e-95
6.96595e-93
1.09257e-90
1.55279e-88
2.00233e-86
2.3429e-84
2.48509e-82
2.38473e-80
2.06425e-78
1.60537e-76
1.11589e-74
6.88656e-73
3.74129e-71
1.77011e-69
7.19503e-68
2.46986e-66
7.00568e-65
1.59622e-63
2.81259e-62
3.63215e-61
3.16755e-60
1.62377e-59
3.70058e-59
1.69275e-59
1.00443e-60
5.67026e-62
3.20624e-63
1.86258e-64
1.09772e-65
6.3496e-67
3.50015e-68
1.80759e-69
8.68462e-71
3.87666e-72
1.6097e-73
6.22948e-75
2.25069e-76
7.59823e-78
2.39598e-79
7.04396e-81
1.92377e-82
4.85436e-84
1.12345e-85
2.36233e-87
4.46124e-89
7.45963e-91
1.08506e-92
1.3424e-94
1.37067e-96
1.10666e-98
6.60804e-101
2.58366e-103
4.89632e-106
6.16766e-106
3.06855e-103
7.64103e-101
1.25704e-98
1.53497e-96
1.48462e-94
1.18598e-92
8.06001e-91
4.76487e-89
2.49362e-87
1.17176e-85
5.00193e-84
1.9582e-82
7.08398e-81
2.38148e-79
7.46817e-78
2.18918e-76
6.00189e-75
1.53806e-73
3.67937e-72
8.20645e-71
1.70658e-69
3.32007e-68
6.10283e-67
1.08152e-65
1.90408e-64
3.42405e-63
6.31892e-62
1.16819e-60
2.0939e-59
4.10189e-59
1.71502e-59
3.23871e-60
3.61744e-61
2.73581e-62
1.51822e-63
6.51978e-65
2.25032e-66
6.42297e-68
1.54994e-69
3.21789e-71
5.82792e-73
9.30823e-75
1.32221e-76
1.68123e-78
1.92299e-80
1.98579e-82
1.85617e-84
1.57309e-86
1.20965e-88
8.43733e-91
5.33058e-93
3.04263e-95
1.5623e-97
7.17075e-100
2.91654e-102
1.03865e-104
3.18515e-107
8.21135e-110
1.71216e-112
2.65109e-115
2.22392e-118
2.03902e-122
1.33648e-131
5.09965e-129
4.43398e-120
4.36791e-116
5.06342e-113
3.21774e-110
1.52222e-107
5.83288e-105
1.88165e-102
5.23482e-100
1.278e-97
2.76918e-95
5.37321e-93
9.39682e-91
1.48778e-88
2.13871e-86
2.79551e-84
3.32342e-82
3.59076e-80
3.5197e-78
3.12163e-76
2.49592e-74
1.79056e-72
1.14555e-70
6.48552e-69
3.21757e-67
1.3817e-65
5.05689e-64
1.5469e-62
3.85712e-61
7.5836e-60
1.1227e-58
1.16845e-57
7.63762e-57
2.52763e-56
2.4395e-56
1.62623e-57
1.21587e-58
9.90697e-60
7.92981e-61
5.87871e-62
3.9892e-63
2.49722e-64
1.45957e-65
8.04532e-67
4.20599e-68
2.0875e-69
9.80869e-71
4.34105e-72
1.79846e-73
6.93023e-75
2.46825e-76
8.07385e-78
2.40979e-79
6.51587e-81
1.58304e-82
3.42191e-84
6.50174e-86
1.06915e-87
1.49074e-89
1.71343e-91
1.55791e-93
1.0495e-95
4.64359e-98
1.00065e-100
1.35603e-100
5.87217e-98
1.27562e-95
1.83575e-93
1.96526e-91
1.66852e-89
1.16994e-87
6.96702e-86
3.59602e-84
1.63379e-82
6.61364e-81
2.40897e-79
7.9611e-78
2.40459e-76
6.68322e-75
1.7207e-73
4.13196e-72
9.3189e-71
1.9873e-69
4.02985e-68
7.79416e-67
1.43646e-65
2.50818e-64
4.10689e-63
6.22678e-62
8.6564e-61
1.11034e-59
1.38164e-58
1.85751e-57
2.87266e-56
2.7473e-56
7.96745e-57
1.18361e-57
1.10953e-58
7.32615e-60
3.64548e-61
1.43105e-62
4.58153e-64
1.22694e-65
2.80365e-67
5.5536e-69
9.65651e-71
1.48849e-72
2.04963e-74
2.53607e-76
2.83227e-78
2.86431e-80
2.62921e-82
2.19368e-84
1.66455e-86
1.14813e-88
7.18741e-91
4.07248e-93
2.07935e-95
9.50513e-98
3.85589e-100
1.37143e-102
4.2056e-105
1.08544e-107
2.26837e-110
3.52741e-113
3.00085e-116
2.96725e-120
3.09774e-129
1.04943e-126
5.73416e-118
5.23901e-114
5.98811e-111
3.78867e-108
1.78801e-105
6.84209e-103
2.20659e-100
6.14424e-98
1.50329e-95
3.26885e-93
6.37446e-91
1.12214e-88
1.79148e-86
2.60166e-84
3.44257e-82
4.15247e-80
4.56321e-78
4.56157e-76
4.138e-74
3.39514e-72
2.50863e-70
1.66004e-68
9.76902e-67
5.06738e-65
2.2913e-63
8.90642e-62
2.92466e-60
7.93562e-59
1.72849e-57
2.90545e-56
3.55907e-55
2.90082e-54
1.33348e-53
2.3587e-53
3.16579e-54
3.8354e-55
3.81694e-56
3.35494e-57
2.75829e-58
2.18378e-59
1.67177e-60
1.22514e-61
8.48639e-63
5.50457e-64
3.32654e-65
1.86919e-66
9.7605e-68
4.73511e-69
2.13233e-70
8.89569e-72
3.42616e-73
1.21204e-74
3.9112e-76
1.14118e-77
2.97762e-79
6.85396e-81
1.36821e-82
2.3171e-84
3.23189e-86
3.55864e-88
2.89442e-90
1.54068e-92
3.98142e-95
5.33245e-95
1.96628e-92
3.61493e-90
4.38065e-88
3.93182e-86
2.78856e-84
1.62901e-82
8.0696e-81
3.46401e-79
1.31049e-77
4.42897e-76
1.35204e-74
3.76201e-73
9.61063e-72
2.26679e-70
4.95607e-69
1.00701e-67
1.90418e-66
3.35367e-65
5.50793e-64
8.46075e-63
1.22356e-61
1.685e-60
2.2425e-59
2.91524e-58
3.68145e-57
4.37941e-56
4.63439e-55
4.00721e-54
2.67676e-53
1.42463e-53
2.99158e-54
3.57354e-55
2.85012e-56
1.65882e-57
7.45462e-59
2.69019e-60
8.0259e-62
2.0245e-63
4.39531e-65
8.33092e-67
1.39428e-68
2.0789e-70
2.78068e-72
3.35435e-74
3.66396e-76
3.63462e-78
3.28117e-80
2.69893e-82
2.02346e-84
1.38186e-86
8.58092e-89
4.83142e-91
2.45526e-93
1.11873e-95
4.52981e-98
1.61016e-100
4.94044e-103
1.27718e-105
2.67617e-108
4.18098e-111
3.60816e-114
3.84838e-118
6.39437e-127
1.93063e-124
6.63809e-116
5.62442e-112
6.33648e-109
3.99001e-106
1.87767e-103
7.17172e-101
2.31081e-98
6.4355e-96
1.5767e-93
3.43747e-91
6.73006e-89
1.19124e-86
1.91535e-84
2.80639e-82
3.75397e-80
4.58727e-78
5.11886e-76
5.20931e-74
4.82434e-72
4.05355e-70
3.07796e-68
2.10152e-66
1.28197e-64
6.9313e-63
3.28842e-61
1.35199e-59
4.74269e-58
1.39207e-56
3.33412e-55
6.30092e-54
8.95906e-53
8.90874e-52
5.46049e-51
1.58068e-50
8.72697e-51
9.53486e-52
9.94328e-53
1.07532e-53
1.17754e-54
1.23808e-55
1.21341e-56
1.10129e-57
9.28489e-59
7.30279e-60
5.37002e-61
3.69019e-62
2.36419e-63
1.40726e-64
7.75149e-66
3.934e-67
1.83092e-68
7.77274e-70
2.99102e-71
1.03535e-72
3.19337e-74
8.67082e-76
2.04043e-77
4.07565e-79
6.71474e-81
8.75184e-83
8.44735e-85
5.35116e-87
1.65177e-89
2.44003e-89
7.5161e-87
1.15446e-84
1.17024e-82
8.79939e-81
5.23622e-79
2.56968e-77
1.07013e-75
3.86141e-74
1.22653e-72
3.47187e-71
8.84376e-70
2.04318e-68
4.30912e-67
8.34199e-66
1.48956e-64
2.46421e-63
3.79233e-62
5.44857e-61
7.32638e-60
9.22629e-59
1.08643e-57
1.19264e-56
1.21999e-55
1.17626e-54
1.1077e-53
1.07522e-52
1.09516e-51
1.09692e-50
1.74428e-50
5.74632e-51
9.09068e-52
8.92068e-53
6.1373e-54
3.17954e-55
1.30008e-56
4.33874e-58
1.21214e-59
2.89189e-61
5.98644e-63
1.08912e-64
1.75928e-66
2.54358e-68
3.31218e-70
3.90323e-72
4.17779e-74
4.07224e-76
3.62136e-78
2.94106e-80
2.18172e-82
1.47708e-84
9.10937e-87
5.10223e-89
2.58328e-91
1.17432e-93
4.74987e-96
1.68856e-98
5.18713e-101
1.34385e-103
2.82458e-106
4.43513e-109
3.88384e-112
4.46882e-116
1.1806e-124
3.18673e-122
6.90588e-114
5.42608e-110
6.02342e-107
3.77336e-104
1.76985e-101
6.74337e-99
2.16939e-96
6.03802e-94
1.48004e-91
3.23206e-89
6.34635e-87
1.12815e-84
1.82447e-82
2.6933e-80
3.63642e-78
4.49431e-76
5.08357e-74
5.25673e-72
4.95982e-70
4.25829e-68
3.31487e-66
2.32902e-64
1.46842e-62
8.24818e-61
4.09046e-59
1.77107e-57
6.60307e-56
2.0837e-54
5.44567e-53
1.14553e-51
1.86459e-50
2.21502e-49
1.74421e-48
7.55483e-48
1.08231e-47
1.38209e-48
2.18486e-49
3.51393e-50
5.19181e-51
7.01302e-52
8.75381e-53
1.0139e-53
1.0892e-54
1.0842e-55
9.99805e-57
8.54289e-58
6.76233e-59
4.95351e-60
3.35036e-61
2.08529e-62
1.18906e-63
6.17704e-65
2.90385e-66
1.22531e-67
4.59491e-69
1.51252e-70
4.30212e-72
1.03567e-73
2.05104e-75
3.20625e-77
3.70537e-79
2.80751e-81
1.0368e-83
1.47623e-83
3.8269e-81
4.94284e-79
4.21098e-77
2.65878e-75
1.32671e-73
5.44943e-72
1.89496e-70
5.6939e-69
1.50148e-67
3.5172e-66
7.39026e-65
1.40394e-63
2.4272e-62
3.83965e-61
5.58276e-60
7.4873e-59
9.28716e-58
1.06741e-56
1.13825e-55
1.12777e-54
1.04067e-53
8.97749e-53
7.2635e-52
5.49437e-51
3.83095e-50
2.44847e-49
1.56893e-48
1.26238e-47
8.15462e-48
1.81108e-48
2.23811e-49
1.84196e-50
1.10825e-51
5.16184e-53
1.93521e-54
6.00952e-56
1.58029e-57
3.58152e-59
7.09595e-61
1.24325e-62
1.94402e-64
2.73264e-66
3.47252e-68
4.00645e-70
4.2106e-72
4.04043e-74
3.54566e-76
2.84781e-78
2.09342e-80
1.40705e-82
8.62913e-85
4.81375e-87
2.4308e-89
1.10349e-91
4.4625e-94
1.58778e-96
4.88649e-99
1.2694e-101
2.67759e-104
4.22727e-107
3.75743e-110
4.66442e-114
1.95671e-122
4.73401e-120
6.47862e-112
4.72047e-108
5.16161e-105
3.21551e-102
1.50246e-99
5.70718e-97
1.83187e-94
5.0914e-92
1.24746e-89
2.72581e-87
5.3617e-85
9.55995e-83
1.5529e-80
2.30611e-78
3.13764e-76
3.91514e-74
4.48034e-72
4.69793e-70
4.50603e-68
3.94368e-66
3.13916e-64
2.26322e-62
1.4702e-60
8.54921e-59
4.41422e-57
2.00361e-55
7.89698e-54
2.66215e-52
7.53233e-51
1.74594e-49
3.20907e-48
4.46337e-47
4.36549e-46
2.63218e-45
7.21697e-45
2.40147e-45
5.58006e-46
1.09677e-46
2.05933e-47
3.68016e-48
6.11011e-49
9.33244e-50
1.31041e-50
1.69394e-51
2.01772e-52
2.21477e-53
2.23892e-54
2.08185e-55
1.77719e-56
1.38901e-57
9.90353e-59
6.41109e-60
3.74567e-61
1.96024e-62
9.10241e-64
3.70548e-65
1.30206e-66
3.86881e-68
9.44882e-70
1.82015e-71
2.59018e-73
2.41521e-75
1.09779e-77
1.49231e-77
3.18162e-75
3.37297e-73
2.3553e-71
1.21725e-69
4.9646e-68
1.66416e-66
4.71446e-65
1.15184e-63
2.46431e-62
4.67153e-61
7.91949e-60
1.20947e-58
1.67375e-57
2.10863e-56
2.42727e-55
2.56034e-54
2.4804e-53
2.21085e-52
1.81553e-51
1.3749e-50
9.60744e-50
6.2009e-49
3.71625e-48
2.10586e-47
1.16654e-46
6.31711e-46
2.88331e-45
8.0891e-45
2.79107e-45
4.47865e-46
4.46846e-47
3.14624e-48
1.67818e-49
7.09842e-51
2.45937e-52
7.15217e-54
1.77982e-55
3.84949e-57
7.32888e-59
1.24096e-60
1.88427e-62
2.58241e-64
3.21067e-66
3.63533e-68
3.75959e-70
3.55879e-72
3.08764e-74
2.45689e-76
1.79264e-78
1.19798e-80
7.31614e-83
4.06997e-85
2.05214e-87
9.31281e-90
3.76876e-92
1.34318e-94
4.14422e-97
1.08013e-99
2.28759e-102
3.63278e-105
3.27853e-108
4.39102e-112
2.92008e-120
6.3462e-118
5.4974e-110
3.71474e-106
3.99966e-103
2.47673e-100
1.15225e-97
4.36082e-95
1.39549e-92
3.86973e-90
9.46775e-88
2.06776e-85
4.06947e-83
7.26798e-81
1.18406e-78
1.76601e-76
2.41705e-74
3.0392e-72
3.5115e-70
3.72548e-68
3.62393e-66
3.22491e-64
2.61764e-62
1.93072e-60
1.28792e-58
7.72451e-57
4.13518e-55
1.95826e-53
8.1143e-52
2.90302e-50
8.8217e-49
2.23053e-47
4.56761e-46
7.29676e-45
8.59767e-44
6.80346e-43
2.98996e-42
4.02454e-42
9.14962e-43
2.52965e-43
7.04475e-44
1.79682e-44
4.13568e-45
8.60367e-46
1.6232e-46
2.78564e-47
4.35838e-48
6.22558e-49
8.12362e-50
9.68213e-51
1.05305e-51
1.04334e-52
9.3911e-54
7.64978e-55
5.60996e-56
3.67851e-57
2.13756e-58
1.0881e-59
4.7789e-61
1.77442e-62
5.41507e-64
1.30338e-65
2.3175e-67
2.70009e-69
1.53426e-71
2.07762e-71
3.56871e-69
3.04416e-67
1.70946e-65
7.10232e-64
2.32798e-62
6.26902e-61
1.42597e-59
2.79509e-58
4.792e-57
7.26735e-56
9.834e-55
1.19522e-53
1.31131e-52
1.30346e-51
1.177e-50
9.67224e-50
7.24189e-49
4.94388e-48
3.07867e-47
1.74925e-46
9.07024e-46
4.29372e-45
1.85741e-44
7.36177e-44
2.71667e-43
1.0237e-42
4.83582e-42
3.26859e-42
7.10732e-43
8.72339e-44
7.24092e-45
4.44553e-46
2.13051e-47
8.26725e-49
2.6684e-50
7.31544e-52
1.73238e-53
3.593e-55
6.60104e-57
1.08423e-58
1.60398e-60
2.14975e-62
2.62218e-64
2.92106e-66
2.97967e-68
2.78843e-70
2.39674e-72
1.89298e-74
1.37333e-76
9.13968e-79
5.5665e-81
3.0922e-83
1.55869e-85
7.0788e-88
2.86951e-90
1.02527e-92
3.17372e-95
8.30434e-98
1.76679e-100
2.82346e-103
2.58799e-106
3.73944e-110
3.93416e-118
7.69533e-116
4.23106e-108
2.65188e-104
2.81059e-101
1.7292e-98
8.00548e-96
3.01658e-93
9.61646e-91
2.65816e-88
6.48737e-86
1.41448e-83
2.78162e-81
4.96903e-79
8.10618e-77
1.2122e-74
1.66579e-72
2.1064e-70
2.45184e-68
2.62576e-66
2.58384e-64
2.3316e-62
1.9242e-60
1.44731e-58
9.87932e-57
6.08752e-55
3.36399e-53
1.65382e-51
7.16325e-50
2.70156e-48
8.74593e-47
2.38803e-45
5.37718e-44
9.68855e-43
1.33783e-41
1.32323e-40
8.29018e-40
2.46426e-39
1.17977e-39
4.98348e-40
1.93799e-40
7.13246e-41
2.39414e-41
7.18202e-42
1.91764e-42
4.56709e-43
9.73949e-44
1.86713e-44
3.22866e-45
5.04831e-46
7.14712e-47
9.16263e-48
1.06236e-48
1.11098e-49
1.04337e-50
8.7451e-52
6.48649e-53
4.20988e-54
2.35515e-55
1.11287e-56
4.31801e-58
1.3201e-59
2.97812e-61
4.39728e-63
3.16407e-65
3.93765e-65
5.33557e-63
3.58382e-61
1.58329e-59
5.17282e-58
1.33312e-56