/*--------------------------------*- C++ -*----------------------------------*\
| =========                 |                                                 |
| \\      /  F ield         | OpenFOAM: The Open Source CFD Toolbox           |
|  \\    /   O peration     | Version:  2212                                  |
|   \\  /    A nd           | Website:  www.openfoam.com                      |
|    \\/     M anipulation  |                                                 |
\*---------------------------------------------------------------------------*/
FoamFile
{
    version     2.0;
    format      ascii;
    arch        "LSB;label=64;scalar=64";
    class       surfaceScalarField;
    location    "0.06";
    object      phi;
}
// * * * * * * * * * * * * * * * * * * * * * * * * * * * * * * * * * * * * * //

dimensions      [0 3 -1 0 0 0 0];

oriented        oriented;

internalField   nonuniform List<scalar> 
65152
(
6.54309e-12
-6.54315e-12
1.91963e-11
-1.26533e-11
3.34147e-11
-1.42185e-11
4.78872e-11
-1.44726e-11
6.23251e-11
-1.4438e-11
7.66513e-11
-1.43262e-11
9.08255e-11
-1.41744e-11
1.04815e-10
-1.39894e-11
1.18588e-10
-1.37733e-11
1.32115e-10
-1.35269e-11
1.45366e-10
-1.32508e-11
1.58311e-10
-1.29456e-11
1.70923e-10
-1.26115e-11
1.83172e-10
-1.2249e-11
1.9503e-10
-1.18585e-11
2.0647e-10
-1.14402e-11
2.17465e-10
-1.09948e-11
2.27987e-10
-1.05226e-11
2.38011e-10
-1.00241e-11
2.47511e-10
-9.49998e-12
2.56462e-10
-8.95086e-12
2.64839e-10
-8.37746e-12
2.7262e-10
-7.78059e-12
2.79781e-10
-7.16111e-12
2.86301e-10
-6.52001e-12
2.92159e-10
-5.85835e-12
2.97337e-10
-5.1773e-12
3.01815e-10
-4.47811e-12
3.05577e-10
-3.76221e-12
3.08608e-10
-3.03113e-12
3.10894e-10
-2.28659e-12
3.12425e-10
-1.53059e-12
3.1319e-10
-7.65617e-13
3.13189e-10
1.71198e-15
3.12406e-10
7.8244e-13
3.10841e-10
1.56476e-12
3.08488e-10
2.35325e-12
3.05344e-10
3.14375e-12
3.0141e-10
3.93414e-12
2.96688e-10
4.72169e-12
2.91185e-10
5.50378e-12
2.84907e-10
6.27784e-12
2.77865e-10
7.04133e-12
2.70073e-10
7.79173e-12
2.61547e-10
8.5265e-12
2.52304e-10
9.24316e-12
2.42364e-10
9.9392e-12
2.31752e-10
1.06122e-11
2.20493e-10
1.12597e-11
2.08613e-10
1.18793e-11
1.96144e-10
1.24689e-11
1.83118e-10
1.30261e-11
1.69569e-10
1.35488e-11
1.55534e-10
1.40351e-11
1.41051e-10
1.44831e-11
1.2616e-10
1.4891e-11
1.10903e-10
1.52571e-11
9.53228e-11
1.558e-11
7.94644e-11
1.58584e-11
6.33734e-11
1.6091e-11
4.70966e-11
1.62767e-11
3.06819e-11
1.64147e-11
1.41781e-11
1.65038e-11
-2.36419e-12
1.65422e-11
-1.89053e-11
1.65411e-11
-3.54048e-11
1.64994e-11
-5.18106e-11
1.64058e-11
-6.80733e-11
1.62626e-11
-8.41444e-11
1.60711e-11
-9.9977e-11
1.58325e-11
-1.15525e-10
1.55479e-11
-1.30744e-10
1.52187e-11
-1.4559e-10
1.48463e-11
-1.60022e-10
1.44322e-11
-1.74001e-10
1.39781e-11
-1.87486e-10
1.34858e-11
-2.00444e-10
1.29572e-11
-2.12838e-10
1.23945e-11
-2.24638e-10
1.17997e-11
-2.35813e-10
1.1175e-11
-2.46336e-10
1.05229e-11
-2.56182e-10
9.84567e-12
-2.65328e-10
9.14577e-12
-2.73754e-10
8.42566e-12
-2.81442e-10
7.68787e-12
-2.88377e-10
6.93487e-12
-2.94546e-10
6.16923e-12
-2.9994e-10
5.39343e-12
-3.0455e-10
4.61006e-12
-3.08372e-10
3.82163e-12
-3.11403e-10
3.03077e-12
-3.13643e-10
2.24015e-12
-3.15095e-10
1.45187e-12
-3.15766e-10
6.70023e-13
-3.1566e-10
-1.05666e-13
-3.14785e-10
-8.75069e-13
-3.13147e-10
-1.6388e-12
-3.10754e-10
-2.39352e-12
-3.07617e-10
-3.13674e-12
-3.03751e-10
-3.86643e-12
-2.9917e-10
-4.58082e-12
-2.93892e-10
-5.27837e-12
-2.87935e-10
-5.95765e-12
-2.81318e-10
-6.6174e-12
-2.74062e-10
-7.25644e-12
-2.66189e-10
-7.87371e-12
-2.57721e-10
-8.46824e-12
-2.48682e-10
-9.03917e-12
-2.39096e-10
-9.5857e-12
-2.2899e-10
-1.01071e-11
-2.18387e-10
-1.06028e-11
-2.07316e-10
-1.10721e-11
-1.95801e-10
-1.15146e-11
-1.83872e-10
-1.19298e-11
-1.71555e-10
-1.23173e-11
-1.58879e-10
-1.26768e-11
-1.45871e-10
-1.30078e-11
-1.32562e-10
-1.331e-11
-1.18979e-10
-1.3583e-11
-1.05153e-10
-1.38265e-11
-9.1114e-11
-1.40397e-11
-7.68927e-11
-1.42218e-11
-6.25222e-11
-1.43709e-11
-4.80424e-11
-1.44802e-11
-3.35304e-11
-1.45125e-11
-1.92751e-11
-1.42558e-11
-6.58638e-12
-1.26892e-11
-6.58651e-12
8.4322e-12
-1.49754e-11
2.44339e-11
-2.8655e-11
4.22654e-11
-3.205e-11
6.03304e-11
-3.25378e-11
7.83059e-11
-3.24136e-11
9.61207e-11
-3.21411e-11
1.13739e-10
-3.17931e-11
1.31129e-10
-3.13794e-11
1.48257e-10
-3.09012e-11
1.65089e-10
-3.03588e-11
1.81591e-10
-2.97526e-11
1.97728e-10
-2.90829e-11
2.13466e-10
-2.83502e-11
2.28772e-10
-2.7555e-11
2.43612e-10
-2.6698e-11
2.57951e-10
-2.57796e-11
2.71757e-10
-2.48007e-11
2.84996e-10
-2.37621e-11
2.97637e-10
-2.26648e-11
3.09647e-10
-2.15099e-11
3.20995e-10
-2.02985e-11
3.31649e-10
-1.90321e-11
3.41581e-10
-1.77123e-11
3.5076e-10
-1.63407e-11
3.5916e-10
-1.49193e-11
3.66751e-10
-1.34502e-11
3.7351e-10
-1.19357e-11
3.7941e-10
-1.03784e-11
3.84429e-10
-8.78099e-12
3.88544e-10
-7.14649e-12
3.91735e-10
-5.47812e-12
3.93984e-10
-3.7793e-12
3.95272e-10
-2.05358e-12
3.95578e-10
-3.04222e-13
3.94896e-10
1.46419e-12
3.93216e-10
3.24517e-12
3.90528e-10
5.04101e-12
3.86832e-10
6.83929e-12
3.82129e-10
8.63751e-12
3.7642e-10
1.04306e-11
3.6971e-10
1.22133e-11
3.62008e-10
1.39801e-11
3.53324e-10
1.57253e-11
3.43672e-10
1.74432e-11
3.33071e-10
1.9128e-11
3.2154e-10
2.07738e-11
3.09104e-10
2.23748e-11
2.95791e-10
2.39252e-11
2.81632e-10
2.54193e-11
2.6666e-10
2.68512e-11
2.50913e-10
2.82157e-11
2.34432e-10
2.95072e-11
2.1726e-10
3.07206e-11
1.99444e-10
3.18509e-11
1.81034e-10
3.28937e-11
1.6208e-10
3.38444e-11
1.42638e-10
3.46991e-11
1.22764e-10
3.54542e-11
1.02516e-10
3.61063e-11
8.19543e-11
3.66526e-11
6.11401e-11
3.70908e-11
4.01359e-11
3.74189e-11
1.90044e-11
3.76353e-11
-2.19303e-12
3.77397e-11
-2.3387e-11
3.7735e-11
-4.45084e-11
3.76208e-11
-6.54961e-11
3.73935e-11
-8.62875e-11
3.70539e-11
-1.0682e-10
3.66037e-11
-1.27033e-10
3.60451e-11
-1.46865e-10
3.53805e-11
-1.6626e-10
3.46129e-11
-1.85159e-10
3.37458e-11
-2.0351e-10
3.27828e-11
-2.2126e-10
3.17281e-11
-2.3836e-10
3.05861e-11
-2.54765e-10
2.93615e-11
-2.7043e-10
2.80594e-11
-2.85315e-10
2.6685e-11
-2.99384e-10
2.52437e-11
-3.12603e-10
2.37411e-11
-3.2494e-10
2.21828e-11
-3.36369e-10
2.05748e-11
-3.46866e-10
1.89227e-11
-3.56411e-10
1.72326e-11
-3.64987e-10
1.55103e-11
-3.72579e-10
1.37615e-11
-3.79178e-10
1.1992e-11
-3.84776e-10
1.02076e-11
-3.89368e-10
8.41347e-12
-3.92953e-10
6.61516e-12
-3.95531e-10
4.8176e-12
-3.97102e-10
3.02339e-12
-3.97677e-10
1.24445e-12
-3.97263e-10
-5.20275e-13
-3.95871e-10
-2.26683e-12
-3.93521e-10
-3.98951e-12
-3.9023e-10
-5.68515e-12
-3.86017e-10
-7.35011e-12
-3.80903e-10
-8.98099e-12
-3.74909e-10
-1.05745e-11
-3.6806e-10
-1.21278e-11
-3.60381e-10
-1.36379e-11
-3.51896e-10
-1.51023e-11
-3.42634e-10
-1.65188e-11
-3.32623e-10
-1.78853e-11
-3.21892e-10
-1.91998e-11
-3.10471e-10
-2.04606e-11
-2.98391e-10
-2.16661e-11
-2.85683e-10
-2.28152e-11
-2.7238e-10
-2.39064e-11
-2.58514e-10
-2.49388e-11
-2.44118e-10
-2.59114e-11
-2.29225e-10
-2.68234e-11
-2.13868e-10
-2.76741e-11
-1.98083e-10
-2.84629e-11
-1.81902e-10
-2.91893e-11
-1.6536e-10
-2.98528e-11
-1.4849e-10
-3.04529e-11
-1.31328e-10
-3.09893e-11
-1.13907e-10
-3.14618e-11
-9.6259e-11
-3.187e-11
-7.84179e-11
-3.22127e-11
-6.04185e-11
-3.24802e-11
-4.23318e-11
-3.25997e-11
-2.4481e-11
-3.21072e-11
-8.46097e-12
-2.87099e-11
-1.50476e-11
8.8579e-12
-2.38334e-11
2.52648e-11
-4.50621e-11
4.35088e-11
-5.02941e-11
6.20121e-11
-5.10412e-11
8.04423e-11
-5.08439e-11
9.87188e-11
-5.04177e-11
1.16801e-10
-4.98753e-11
1.34653e-10
-4.92318e-11
1.52241e-10
-4.84889e-11
1.69529e-10
-4.76469e-11
1.86482e-10
-4.67062e-11
2.03067e-10
-4.56673e-11
2.19247e-10
-4.45305e-11
2.34988e-10
-4.32966e-11
2.50257e-10
-4.19662e-11
2.65017e-10
-4.05402e-11
2.79236e-10
-3.90196e-11
2.92879e-10
-3.74056e-11
3.05914e-10
-3.56995e-11
3.18307e-10
-3.39028e-11
3.30026e-10
-3.20173e-11
3.41038e-10
-3.0045e-11
3.51314e-10
-2.79881e-11
3.60823e-10
-2.58492e-11
3.69534e-10
-2.3631e-11
3.77421e-10
-2.13367e-11
3.84455e-10
-1.89698e-11
3.9061e-10
-1.6534e-11
3.95862e-10
-1.40334e-11
4.00189e-10
-1.14726e-11
4.03567e-10
-8.85645e-12
4.05978e-10
-6.19008e-12
4.07403e-10
-3.47902e-12
4.07827e-10
-7.28221e-13
4.07237e-10
2.05354e-12
4.05626e-10
4.85697e-12
4.02979e-10
7.68772e-12
3.99292e-10
1.05259e-11
3.94563e-10
1.33662e-11
3.88793e-10
1.62009e-11
3.81985e-10
1.90215e-11
3.74145e-10
2.18194e-11
3.65285e-10
2.45857e-11
3.55417e-10
2.73111e-11
3.44558e-10
2.99864e-11
3.3273e-10
3.26022e-11
3.19956e-10
3.51491e-11
3.06263e-10
3.76176e-11
2.91684e-10
3.99984e-11
2.76253e-10
4.22823e-11
2.60008e-10
4.44603e-11
2.42992e-10
4.65235e-11
2.25249e-10
4.84634e-11
2.06828e-10
5.0272e-11
1.8778e-10
5.19416e-11
1.68159e-10
5.3465e-11
1.48023e-10
5.48355e-11
1.2743e-10
5.60472e-11
1.06441e-10
5.70945e-11
8.5121e-11
5.79729e-11
6.35334e-11
5.86784e-11
4.17445e-11
5.92078e-11
1.98209e-11
5.95588e-11
-2.17e-12
5.97306e-11
-2.41578e-11
5.97228e-11
-4.60719e-11
5.95348e-11
-6.78449e-11
5.91664e-11
-8.94101e-11
5.8619e-11
-1.10701e-10
5.78951e-11
-1.31654e-10
5.69979e-11
-1.52206e-10
5.59317e-11
-1.72294e-10
5.47012e-11
-1.9186e-10
5.3312e-11
-2.10848e-10
5.17703e-11
-2.29203e-10
5.00829e-11
-2.46874e-10
4.8257e-11
-2.63813e-10
4.63005e-11
-2.79975e-10
4.42217e-11
-2.9532e-10
4.2029e-11
-3.09807e-10
3.97314e-11
-3.23405e-10
3.7338e-11
-3.3608e-10
3.4858e-11
-3.47806e-10
3.2301e-11
-3.5856e-10
2.96763e-11
-3.68321e-10
2.69934e-11
-3.77073e-10
2.42617e-11
-3.84802e-10
2.14906e-11
-3.91499e-10
1.8689e-11
-3.97158e-10
1.58661e-11
-4.01775e-10
1.30304e-11
-4.05351e-10
1.01903e-11
-4.07887e-10
7.35347e-12
-4.09389e-10
4.52522e-12
-4.09871e-10
1.726e-12
-4.0934e-10
-1.05151e-12
-4.0781e-10
-3.79737e-12
-4.05296e-10
-6.50346e-12
-4.01817e-10
-9.16455e-12
-3.97392e-10
-1.17751e-11
-3.92044e-10
-1.43299e-11
-3.85795e-10
-1.6824e-11
-3.7867e-10
-1.92531e-11
-3.70695e-10
-2.16128e-11
-3.61899e-10
-2.38995e-11
-3.52308e-10
-2.61098e-11
-3.41953e-10
-2.82404e-11
-3.30865e-10
-3.02887e-11
-3.19074e-10
-3.22521e-11
-3.06612e-10
-3.41284e-11
-2.93512e-10
-3.59157e-11
-2.79806e-10
-3.76123e-11
-2.65529e-10
-3.92166e-11
-2.50714e-10
-4.07274e-11
-2.35394e-10
-4.21435e-11
-2.19605e-10
-4.34641e-11
-2.0338e-10
-4.46882e-11
-1.86754e-10
-4.58153e-11
-1.69763e-10
-4.68447e-11
-1.52441e-10
-4.7776e-11
-1.34821e-10
-4.8609e-11
-1.16941e-10
-4.93431e-11
-9.88329e-11
-4.99783e-11
-8.05334e-11
-5.05127e-11
-6.20827e-11
-5.09315e-11
-4.35612e-11
-5.11217e-11
-2.53014e-11
-5.03676e-11
-8.88003e-12
-4.51319e-11
-2.39277e-11
9.09502e-12
-3.29285e-11
2.58681e-11
-6.18352e-11
4.45047e-11
-6.89308e-11
6.3408e-11
-6.99445e-11
8.22417e-11
-6.96777e-11
1.00924e-10
-6.90996e-11
1.19412e-10
-6.83636e-11
1.3767e-10
-6.74901e-11
1.55663e-10
-6.64817e-11
1.73355e-10
-6.53389e-11
1.9071e-10
-6.40621e-11
2.07695e-10
-6.26518e-11
2.24273e-10
-6.11084e-11
2.40409e-10
-5.94326e-11
2.56068e-10
-5.76254e-11
2.71215e-10
-5.56876e-11
2.85816e-10
-5.36205e-11
2.99836e-10
-5.14254e-11
3.1324e-10
-4.91041e-11
3.25996e-10
-4.66584e-11
3.38069e-10
-4.40905e-11
3.49427e-10
-4.14029e-11
3.60037e-10
-3.85985e-11
3.69868e-10
-3.56806e-11
3.7889e-10
-3.26528e-11
3.87072e-10
-2.95191e-11
3.94387e-10
-2.62841e-11
4.00806e-10
-2.29528e-11
4.06303e-10
-1.95307e-11
4.10854e-10
-1.60237e-11
4.14436e-10
-1.24384e-11
4.17027e-10
-8.78171e-12
4.18609e-10
-5.06126e-12
4.19165e-10
-1.28433e-12
4.1868e-10
2.53898e-12
4.17145e-10
6.39204e-12
4.14544e-10
1.02887e-11
4.10871e-10
1.41982e-11
4.06124e-10
1.81136e-11
4.00301e-10
2.20242e-11
3.93404e-10
2.59182e-11
3.8544e-10
2.97837e-11
3.76417e-10
3.36083e-11
3.66349e-10
3.73791e-11
3.55252e-10
4.10833e-11
3.43146e-10
4.47077e-11
3.30056e-10
4.8239e-11
3.1601e-10
5.16641e-11
3.01038e-10
5.49696e-11
2.85178e-10
5.81426e-11
2.68468e-10
6.11702e-11
2.50952e-10
6.40401e-11
2.32675e-10
6.674e-11
2.13688e-10
6.92586e-11
1.94045e-10
7.15848e-11
1.73802e-10
7.37084e-11
1.53017e-10
7.56199e-11
1.31754e-10
7.73106e-11
1.10076e-10
7.87728e-11
8.80487e-11
7.99997e-11
6.57414e-11
8.09856e-11
4.32231e-11
8.1726e-11
2.05644e-11
8.22175e-11
-2.16341e-12
8.24583e-11
-2.48883e-11
8.24476e-11
-4.75379e-11
8.21844e-11
-7.00407e-11
8.16692e-11
-9.23259e-11
8.09042e-11
-1.14324e-10
7.98931e-11
-1.35967e-10
7.86408e-11
-1.57188e-10
7.71532e-11
-1.77924e-10
7.54371e-11
-1.98113e-10
7.35006e-11
-2.17695e-10
7.13524e-11
-2.36615e-10
6.90023e-11
-2.54819e-10
6.64607e-11
-2.72257e-10
6.37386e-11
-2.88883e-10
6.08479e-11
-3.04655e-10
5.78007e-11
-3.19533e-10
5.46096e-11
-3.33483e-10
5.12874e-11
-3.46472e-10
4.78474e-11
-3.58474e-10
4.43027e-11
-3.69465e-10
4.06668e-11
-3.79425e-10
3.69527e-11
-3.88337e-10
3.31738e-11
-3.9619e-10
2.9343e-11
-4.02974e-10
2.54729e-11
-4.08684e-10
2.15761e-11
-4.13318e-10
1.76645e-11
-4.16878e-10
1.37496e-11
-4.19367e-10
9.84231e-12
-4.20792e-10
5.9496e-12
-4.21168e-10
2.10192e-12
-4.20504e-10
-1.71574e-12
-4.18816e-10
-5.48611e-12
-4.1612e-10
-9.19968e-12
-4.12436e-10
-1.28489e-11
-4.07785e-10
-1.64263e-11
-4.0219e-10
-1.99248e-11
-3.95677e-10
-2.33379e-11
-3.88271e-10
-2.66596e-11
-3.79999e-10
-2.98844e-11
-3.70892e-10
-3.30073e-11
-3.60978e-10
-3.6024e-11
-3.50289e-10
-3.89302e-11
-3.38855e-10
-4.17225e-11
-3.2671e-10
-4.43976e-11
-3.13886e-10
-4.69528e-11
-3.00417e-10
-4.93854e-11
-2.86336e-10
-5.16935e-11
-2.71678e-10
-5.38751e-11
-2.56478e-10
-5.59287e-11
-2.40769e-10
-5.78529e-11
-2.24587e-10
-5.96466e-11
-2.07967e-10
-6.1309e-11
-1.90943e-10
-6.28391e-11
-1.73552e-10
-6.42364e-11
-1.55828e-10
-6.55005e-11
-1.37807e-10
-6.66309e-11
-1.19523e-10
-6.76274e-11
-1.01012e-10
-6.84895e-11
-8.23109e-11
-6.92149e-11
-6.34601e-11
-6.97829e-11
-4.45423e-11
-7.004e-11
-2.58938e-11
-6.90166e-11
-9.11105e-12
-6.19153e-11
-3.30389e-11
9.3816e-12
-4.23102e-11
2.66393e-11
-7.9093e-11
4.58065e-11
-8.80981e-11
6.52488e-11
-8.93869e-11
8.46228e-11
-8.90518e-11
1.03845e-10
-8.83218e-11
1.22873e-10
-8.73917e-11
1.4167e-10
-8.62876e-11
1.60201e-10
-8.50128e-11
1.7843e-10
-8.35679e-11
1.96321e-10
-8.19532e-11
2.13839e-10
-8.01692e-11
2.30947e-10
-7.82164e-11
2.47609e-10
-7.60955e-11
2.63791e-10
-7.38074e-11
2.79457e-10
-7.1353e-11
2.9457e-10
-6.87337e-11
3.09096e-10
-6.5951e-11
3.22998e-10
-6.30068e-11
3.36243e-10
-5.99032e-11
3.48795e-10
-5.66427e-11
3.6062e-10
-5.32283e-11
3.71685e-10
-4.96634e-11
3.81956e-10
-4.59518e-11
3.91401e-10
-4.20979e-11
3.99989e-10
-3.81067e-11
4.07688e-10
-3.39836e-11
4.1447e-10
-2.97347e-11
4.20306e-10
-2.53669e-11
4.2517e-10
-2.08876e-11
4.29037e-10
-1.63049e-11
4.31883e-10
-1.16276e-11
4.33687e-10
-6.86523e-12
4.34429e-10
-2.02728e-12
4.34093e-10
2.87583e-12
4.32665e-10
7.81983e-12
4.30134e-10
1.28195e-11
4.26488e-10
1.78442e-11
4.21721e-10
2.28799e-11
4.15832e-10
2.79131e-11
4.08822e-10
3.29289e-11
4.00694e-10
3.79117e-11
3.91457e-10
4.28453e-11
3.81123e-10
4.77132e-11
3.69707e-10
5.24985e-11
3.57231e-10
5.71839e-11
3.43718e-10
6.17523e-11
3.29196e-10
6.61861e-11
3.13697e-10
7.0468e-11
2.97259e-10
7.45808e-11
2.79922e-10
7.85076e-11
2.6173e-10
8.22319e-11
2.42732e-10
8.57378e-11
2.22981e-10
8.90098e-11
2.02532e-10
9.20334e-11
1.81446e-10
9.4795e-11
1.59784e-10
9.72818e-11
1.37612e-10
9.94823e-11
1.14998e-10
1.01386e-10
9.20138e-11
1.02984e-10
6.87303e-11
1.04269e-10
4.52219e-11
1.05234e-10
2.15641e-11
1.05875e-10
-2.16732e-12
1.0619e-10
-2.58957e-11
1.06176e-10
-4.95445e-11
1.05833e-10
-7.30371e-11
1.05162e-10
-9.62982e-11
1.04165e-10
-1.19254e-10
1.02848e-10
-1.41831e-10
1.01218e-10
-1.6396e-10
9.92818e-11
-1.85572e-10
9.70492e-11
-2.06602e-10
9.45306e-11
-2.26987e-10
9.17379e-11
-2.46669e-10
8.86841e-11
-2.65592e-10
8.5383e-11
-2.83703e-10
8.18495e-11
-3.00954e-10
7.80989e-11
-3.17301e-10
7.41476e-11
-3.32703e-10
7.00121e-11
-3.47126e-10
6.57094e-11
-3.60535e-10
6.12569e-11
-3.72905e-10
5.66721e-11
-3.84211e-10
5.19723e-11
-3.94433e-10
4.71749e-11
-4.03557e-10
4.22972e-11
-4.1157e-10
3.73561e-11
-4.18465e-10
3.2368e-11
-4.24238e-10
2.73491e-11
-4.28889e-10
2.23149e-11
-4.3242e-10
1.72802e-11
-4.34837e-10
1.22586e-11
-4.36152e-10
7.26507e-12
-4.36378e-10
2.3272e-12
-4.35525e-10
-2.5686e-12
-4.33613e-10
-7.39835e-12
-4.30662e-10
-1.21519e-11
-4.26691e-10
-1.68196e-11
-4.21726e-10
-2.13919e-11
-4.15791e-10
-2.58601e-11
-4.08913e-10
-3.02159e-11
-4.01121e-10
-3.4452e-11
-3.92444e-10
-3.85617e-11
-3.82913e-10
-4.25389e-11
-3.72559e-10
-4.6378e-11
-3.61416e-10
-5.00743e-11
-3.49515e-10
-5.36235e-11
-3.36892e-10
-5.70216e-11
-3.23579e-10
-6.02654e-11
-3.09613e-10
-6.33521e-11
-2.95028e-10
-6.62791e-11
-2.79859e-10
-6.90444e-11
-2.64142e-10
-7.16461e-11
-2.47913e-10
-7.4083e-11
-2.31206e-10
-7.63537e-11
-2.14058e-10
-7.84572e-11
-1.96505e-10
-8.03929e-11
-1.78582e-10
-8.21601e-11
-1.60324e-10
-8.37584e-11
-1.41768e-10
-8.51875e-11
-1.22949e-10
-8.6447e-11
-1.03903e-10
-8.75366e-11
-8.46653e-11
-8.84529e-11
-6.52787e-11
-8.917e-11
-4.58266e-11
-8.94926e-11
-2.66526e-11
-8.81911e-11
-9.3909e-12
-7.91776e-11
-4.24299e-11
9.73788e-12
-5.20482e-11
2.76061e-11
-9.69612e-11
4.74445e-11
-1.07937e-10
6.75695e-11
-1.09512e-10
8.76277e-11
-1.0911e-10
1.07534e-10
-1.08228e-10
1.27245e-10
-1.07103e-10
1.46724e-10
-1.05767e-10
1.65937e-10
-1.04225e-10
1.84845e-10
-1.02477e-10
2.03414e-10
-1.00522e-10
2.21608e-10
-9.83627e-11
2.39389e-10
-9.59978e-11
2.56722e-10
-9.34283e-11
2.73569e-10
-9.0655e-11
2.89895e-10
-8.76789e-11
3.05663e-10
-8.45012e-11
3.20835e-10
-8.11234e-11
3.35376e-10
-7.75475e-11
3.49248e-10
-7.37757e-11
3.62416e-10
-6.98107e-11
3.74844e-10
-6.56559e-11
3.86495e-10
-6.13148e-11
3.97335e-10
-5.67919e-11
4.07329e-10
-5.20921e-11
4.16444e-10
-4.72211e-11
4.24645e-10
-4.21853e-11
4.31902e-10
-3.69917e-11
4.38184e-10
-3.16484e-11
4.4346e-10
-2.61641e-11
4.47704e-10
-2.05485e-11
4.50888e-10
-1.48121e-11
4.52989e-10
-8.96641e-12
4.53985e-10
-3.02301e-12
4.53853e-10
3.00792e-12
4.52583e-10
9.08984e-12
4.50155e-10
1.5247e-11
4.46558e-10
2.14421e-11
4.41781e-10
2.76562e-11
4.35822e-10
3.38724e-11
4.28678e-10
4.00723e-11
4.20353e-10
4.62367e-11
4.10853e-10
5.23453e-11
4.00189e-10
5.83775e-11
3.88376e-10
6.4312e-11
3.75432e-10
7.01274e-11
3.61383e-10
7.58017e-11
3.46256e-10
8.13131e-11
3.30084e-10
8.66394e-11
3.12906e-10
9.1759e-11
2.94763e-10
9.66503e-11
2.75703e-10
1.01292e-10
2.55776e-10
1.05665e-10
2.35038e-10
1.09748e-10
2.13548e-10
1.13523e-10
1.9137e-10
1.16973e-10
1.68571e-10
1.20081e-10
1.45221e-10
1.22832e-10
1.21393e-10
1.25214e-10
9.71642e-11
1.27214e-10
7.26114e-11
1.28822e-10
4.78152e-11
1.30031e-10
2.28568e-11
1.30834e-10
-2.18125e-12
1.31228e-10
-2.72163e-11
1.31211e-10
-5.21651e-11
1.30782e-10
-7.69451e-11
1.29942e-10
-1.01474e-10
1.28694e-10
-1.25673e-10
1.27047e-10
-1.49463e-10
1.25008e-10
-1.72767e-10
1.22587e-10
-1.95514e-10
1.19796e-10
-2.17633e-10
1.16649e-10
-2.39056e-10
1.13161e-10
-2.59721e-10
1.09349e-10
-2.79569e-10
1.05231e-10
-2.98545e-10
1.00825e-10
-3.16597e-10
9.61509e-11
-3.33679e-10
9.12299e-11
-3.49751e-10
8.6083e-11
-3.64773e-10
8.07317e-11
-3.78714e-10
7.5198e-11
-3.91546e-10
6.9504e-11
-4.03246e-10
6.36716e-11
-4.13794e-10
5.77228e-11
-4.23176e-10
5.16792e-11
-4.31382e-10
4.55619e-11
-4.38406e-10
3.93916e-11
-4.44245e-10
3.31884e-11
-4.48902e-10
2.69715e-11
-4.52382e-10
2.07592e-11
-4.54691e-10
1.45681e-11
-4.55848e-10
8.42122e-12
-4.55867e-10
2.346e-12
-4.54759e-10
-3.67708e-12
-4.52547e-10
-9.61041e-12
-4.49254e-10
-1.54451e-11
-4.44905e-10
-2.11694e-11
-4.39525e-10
-2.67719e-11
-4.33143e-10
-3.2242e-11
-4.25789e-10
-3.75702e-11
-4.17494e-10
-4.27477e-11
-4.08289e-10
-4.77667e-11
-3.98209e-10
-5.26199e-11
-3.87286e-10
-5.73011e-11
-3.75556e-10
-6.18048e-11
-3.63054e-10
-6.6126e-11
-3.49815e-10
-7.02605e-11
-3.35877e-10
-7.42046e-11
-3.21274e-10
-7.79551e-11
-3.06044e-10
-8.15095e-11
-2.90223e-10
-8.48656e-11
-2.73848e-10
-8.80215e-11
-2.56956e-10
-9.09758e-11
-2.39583e-10
-9.37274e-11
-2.21765e-10
-9.62754e-11
-2.03539e-10
-9.86192e-11
-1.84942e-10
-1.00758e-10
-1.66008e-10
-1.02692e-10
-1.46776e-10
-1.04421e-10
-1.27279e-10
-1.05944e-10
-1.07554e-10
-1.07262e-10
-8.76383e-11
-1.08369e-10
-6.75731e-11
-1.09236e-10
-4.7444e-11
-1.09622e-10
-2.7605e-11
-1.08031e-10
-9.73951e-12
-9.70436e-11
-5.21695e-11
1.01694e-11
-6.22177e-11
2.87749e-11
-1.15567e-10
4.94241e-11
-1.28586e-10
7.03745e-11
-1.30462e-10
9.12601e-11
-1.29996e-10
1.11993e-10
-1.28961e-10
1.32531e-10
-1.27641e-10
1.52837e-10
-1.26073e-10
1.72875e-10
-1.24263e-10
1.92609e-10
-1.2221e-10
2.12001e-10
-1.19915e-10
2.31016e-10
-1.17378e-10
2.49617e-10
-1.14599e-10
2.67766e-10
-1.11577e-10
2.85426e-10
-1.08315e-10
3.02559e-10
-1.04812e-10
3.19128e-10
-1.0107e-10
3.35093e-10
-9.70891e-11
3.50418e-10
-9.28722e-11
3.65064e-10
-8.84212e-11
3.78992e-10
-8.37388e-11
3.92164e-10
-7.88283e-11
4.04543e-10
-7.36935e-11
4.1609e-10
-6.83392e-11
4.26769e-10
-6.27708e-11
4.36542e-10
-5.69943e-11
4.45374e-10
-5.10169e-11
4.53229e-10
-4.48467e-11
4.60073e-10
-3.84924e-11
4.65873e-10
-3.19643e-11
4.70598e-10
-2.52734e-11
4.74217e-10
-1.84318e-11
4.76704e-10
-1.14529e-11
4.78031e-10
-4.35039e-12
4.78171e-10
2.86804e-12
4.77111e-10
1.015e-11
4.74836e-10
1.75222e-11
4.71319e-10
2.49591e-11
4.66552e-10
3.24233e-11
4.60526e-10
3.98975e-11
4.53239e-10
4.73593e-11
4.44691e-10
5.47855e-11
4.34884e-10
6.21516e-11
4.23829e-10
6.94324e-11
4.11539e-10
7.6602e-11
3.98033e-10
8.36339e-11
3.83333e-10
9.05013e-11
3.67469e-10
9.71772e-11
3.50474e-10
1.03634e-10
3.32387e-10
1.09846e-10
3.13253e-10
1.15785e-10
2.9312e-10
1.21425e-10
2.72043e-10
1.26742e-10
2.50081e-10
1.3171e-10
2.27298e-10
1.36306e-10
2.03763e-10
1.40508e-10
1.79547e-10
1.44296e-10
1.54728e-10
1.47652e-10
1.29385e-10
1.50557e-10
1.03601e-10
1.52998e-10
7.74614e-11
1.54961e-10
5.10541e-11
1.56438e-10
2.44684e-11
1.57419e-10
-2.20513e-12
1.57901e-10
-2.88754e-11
1.57881e-10
-5.54509e-11
1.57357e-10
-8.18408e-11
1.56331e-10
-1.07955e-10
1.54809e-10
-1.33707e-10
1.52798e-10
-1.59009e-10
1.5031e-10
-1.8378e-10
1.47357e-10
-2.0794e-10
1.43955e-10
-2.31412e-10
1.40121e-10
-2.54124e-10
1.35873e-10
-2.76008e-10
1.31233e-10
-2.97e-10
1.26223e-10
-3.17042e-10
1.20867e-10
-3.3608e-10
1.15189e-10
-3.54065e-10
1.09215e-10
-3.70953e-10
1.02971e-10
-3.86707e-10
9.64848e-11
-4.01292e-10
8.97829e-11
-4.14681e-10
8.28926e-11
-4.2685e-10
7.58412e-11
-4.37783e-10
6.86554e-11
-4.47466e-10
6.13618e-11
-4.5589e-10
5.39861e-11
-4.63053e-10
4.65536e-11
-4.68953e-10
3.90887e-11
-4.73597e-10
3.16145e-11
-4.76991e-10
2.41532e-11
-4.79144e-10
1.67215e-11
-4.80083e-10
9.35942e-12
-4.79831e-10
2.09344e-12
-4.78387e-10
-5.12068e-12
-4.75787e-10
-1.22107e-11
-4.72057e-10
-1.91761e-11
-4.67224e-10
-2.60028e-11
-4.61318e-10
-3.26775e-11
-4.54372e-10
-3.91882e-11
-4.46419e-10
-4.55238e-11
-4.37493e-10
-5.16744e-11
-4.27629e-10
-5.76309e-11
-4.16864e-10
-6.33855e-11
-4.05234e-10
-6.89312e-11
-3.92777e-10
-7.4262e-11
-3.79531e-10
-7.93724e-11
-3.65534e-10
-8.4258e-11
-3.50824e-10
-8.8915e-11
-3.35439e-10
-9.33402e-11
-3.19418e-10
-9.7531e-11
-3.02799e-10
-1.01485e-10
-2.8562e-10
-1.05201e-10
-2.67918e-10
-1.08678e-10
-2.49732e-10
-1.11914e-10
-2.31099e-10
-1.14909e-10
-2.12056e-10
-1.17663e-10
-1.9264e-10
-1.20175e-10
-1.72887e-10
-1.22446e-10
-1.52834e-10
-1.24475e-10
-1.32516e-10
-1.26262e-10
-1.11971e-10
-1.27808e-10
-9.12337e-11
-1.29107e-10
-7.03476e-11
-1.30122e-10
-4.94e-11
-1.3057e-10
-2.87573e-11
-1.28674e-10
-1.01624e-11
-1.15639e-10
-6.2332e-11
1.06787e-11
-7.28964e-11
3.01487e-11
-1.35037e-10
5.17478e-11
-1.50185e-10
7.36654e-11
-1.5238e-10
9.55211e-11
-1.51852e-10
1.17225e-10
-1.50665e-10
1.38734e-10
-1.4915e-10
1.60011e-10
-1.4735e-10
1.8102e-10
-1.45272e-10
2.01724e-10
-1.42915e-10
2.22088e-10
-1.40279e-10
2.42073e-10
-1.37363e-10
2.61642e-10
-1.34168e-10
2.80758e-10
-1.30693e-10
2.99381e-10
-1.26938e-10
3.17474e-10
-1.22904e-10
3.34996e-10
-1.18592e-10
3.51908e-10
-1.14001e-10
3.6817e-10
-1.09134e-10
3.83742e-10
-1.03993e-10
3.98582e-10
-9.85797e-11
4.12652e-10
-9.28975e-11
4.25909e-10
-8.69504e-11
4.38312e-10
-8.0743e-11
4.49822e-10
-7.42808e-11
4.60398e-10
-6.75703e-11
4.7e-10
-6.06191e-11
4.7859e-10
-5.34359e-11
4.86128e-10
-4.60304e-11
4.92577e-10
-3.84138e-11
4.97902e-10
-3.05985e-11
5.02069e-10
-2.25981e-11
5.05044e-10
-1.44278e-11
5.06797e-10
-6.10344e-12
5.07288e-10
2.37718e-12
5.06511e-10
1.0927e-11
5.04446e-10
1.95868e-11
5.01055e-10
2.83495e-11
4.96329e-10
3.71503e-11
4.90253e-10
4.59728e-11
4.82822e-10
5.47908e-11
4.74031e-10
6.35764e-11
4.63882e-10
7.23005e-11
4.52381e-10
8.0933e-11
4.39541e-10
8.94427e-11
4.25377e-10
9.77977e-11
4.09913e-10
1.05966e-10
3.93177e-10
1.13913e-10
3.75203e-10
1.21608e-10
3.56031e-10
1.29017e-10
3.35709e-10
1.36107e-10
3.14287e-10
1.42847e-10
2.91825e-10
1.49204e-10
2.68385e-10
1.5515e-10
2.44037e-10
1.60654e-10
2.18856e-10
1.6569e-10
1.92921e-10
1.70232e-10
1.66315e-10
1.74257e-10
1.39127e-10
1.77745e-10
1.11449e-10
1.80676e-10
8.33748e-11
1.83036e-10
5.50022e-11
1.84811e-10
2.64306e-11
1.85991e-10
-2.2391e-12
1.86571e-10
-3.09053e-11
1.86547e-10
-5.94659e-11
1.85918e-10
-8.78195e-11
1.84685e-10
-1.15866e-10
1.82856e-10
-1.43509e-10
1.80441e-10
-1.70653e-10
1.77454e-10
-1.97206e-10
1.7391e-10
-2.2308e-10
1.6983e-10
-2.48192e-10
1.65233e-10
-2.72463e-10
1.60144e-10
-2.95818e-10
1.54589e-10
-3.18189e-10
1.48594e-10
-3.39513e-10
1.4219e-10
-3.59731e-10
1.35407e-10
-3.78793e-10
1.28276e-10
-3.96652e-10
1.2083e-10
-4.13269e-10
1.13102e-10
-4.28611e-10
1.05124e-10
-4.42649e-10
9.69306e-11
-4.55362e-10
8.85537e-11
-4.66733e-10
8.00261e-11
-4.76751e-10
7.13797e-11
-4.85411e-10
6.26455e-11
-4.92711e-10
5.38538e-11
-4.98656e-10
4.50333e-11
-5.03253e-10
3.62119e-11
-5.06516e-10
2.74158e-11
-5.08455e-10
1.86602e-11
-5.09109e-10
1.00126e-11
-5.08495e-10
1.47912e-12
-5.06624e-10
-6.99185e-12
-5.03533e-10
-1.53022e-11
-4.99252e-10
-2.34564e-11
-4.93817e-10
-3.14389e-11
-4.8726e-10
-3.92346e-11
-4.79618e-10
-4.68301e-11
-4.70929e-10
-5.4213e-11
-4.61232e-10
-6.13724e-11
-4.50565e-10
-6.82984e-11
-4.38968e-10
-7.49825e-11
-4.26482e-10
-8.14173e-11
-4.13148e-10
-8.75964e-11
-3.99006e-10
-9.35144e-11
-3.84098e-10
-9.91667e-11
-3.68464e-10
-1.0455e-10
-3.52145e-10
-1.0966e-10
-3.3518e-10
-1.14496e-10
-3.17611e-10
-1.19055e-10
-2.99476e-10
-1.23336e-10
-2.80815e-10
-1.27339e-10
-2.61667e-10
-1.31062e-10
-2.4207e-10
-1.34506e-10
-2.22062e-10
-1.37671e-10
-2.01681e-10
-1.40557e-10
-1.80963e-10
-1.43164e-10
-1.59944e-10
-1.45493e-10
-1.38663e-10
-1.47544e-10
-1.17153e-10
-1.49318e-10
-9.54525e-11
-1.50808e-10
-7.36037e-11
-1.51972e-10
-5.16968e-11
-1.52477e-10
-3.01125e-11
-1.50259e-10
-1.0662e-11
-1.3509e-10
-7.29941e-11
1.12674e-11
-8.41638e-11
3.1729e-11
-1.55498e-10
5.44162e-11
-1.72872e-10
7.74418e-11
-1.75406e-10
1.0041e-10
-1.74819e-10
1.23227e-10
-1.73482e-10
1.4585e-10
-1.71773e-10
1.68243e-10
-1.69743e-10
1.90369e-10
-1.67398e-10
2.12192e-10
-1.64738e-10
2.33675e-10
-1.61762e-10
2.54781e-10
-1.58469e-10
2.75472e-10
-1.54858e-10
2.95708e-10
-1.50929e-10
3.15451e-10
-1.46681e-10
3.3466e-10
-1.42113e-10
3.53294e-10
-1.37226e-10
3.71313e-10
-1.3202e-10
3.88674e-10
-1.26495e-10
4.05335e-10
-1.20653e-10
4.21251e-10
-1.14496e-10
4.36381e-10
-1.08027e-10
4.50679e-10
-1.01248e-10
4.64101e-10
-9.41654e-11
4.76603e-10
-8.67831e-11
4.88141e-10
-7.91081e-11
4.9867e-10
-7.11481e-11
5.08147e-10
-6.29122e-11
5.16527e-10
-5.44108e-11
5.23769e-10
-4.56558e-11
5.29831e-10
-3.66606e-11
5.34674e-10
-2.74406e-11
5.38258e-10
-1.80124e-11
5.40549e-10
-8.39438e-12
5.41497e-10
1.42959e-12
5.41095e-10
1.13288e-11
5.3931e-10
2.13717e-11
5.3611e-10
3.15501e-11
5.3147e-10
4.17901e-11
5.25374e-10
5.20683e-11
5.17811e-10
6.23543e-11
5.08772e-10
7.26156e-11
4.98254e-10
8.28182e-11
4.86261e-10
9.29262e-11
4.72801e-10
1.02903e-10
4.57889e-10
1.1271e-10
4.41546e-10
1.22309e-10
4.238e-10
1.31659e-10
4.04686e-10
1.40722e-10
3.84245e-10
1.49458e-10
3.62526e-10
1.57826e-10
3.39584e-10
1.65788e-10
3.15483e-10
1.73306e-10
2.9029e-10
1.80343e-10
2.64081e-10
1.86862e-10
2.36939e-10
1.92832e-10
2.08951e-10
1.9822e-10
1.80209e-10
2.02998e-10
1.50813e-10
2.07141e-10
1.20865e-10
2.10624e-10
9.04708e-11
2.1343e-10
5.97396e-11
2.15542e-10
2.87835e-11
2.16947e-10
-2.28363e-12
2.17638e-10
-3.33468e-11
2.17611e-10
-6.42907e-11
2.16862e-10
-9.50009e-11
2.15395e-10
-1.25365e-10
2.1322e-10
-1.55274e-10
2.1035e-10
-1.84621e-10
2.06801e-10
-2.13304e-10
2.02593e-10
-2.41225e-10
1.97751e-10
-2.68291e-10
1.92299e-10
-2.94415e-10
1.86268e-10
-3.19515e-10
1.79689e-10
-3.43517e-10
1.72596e-10
-3.66351e-10
1.65024e-10
-3.87956e-10
1.57012e-10
-4.08277e-10
1.48597e-10
-4.27267e-10
1.3982e-10
-4.44884e-10
1.30719e-10
-4.61095e-10
1.21335e-10
-4.75872e-10
1.11707e-10
-4.89194e-10
1.01876e-10
-5.01049e-10
9.18804e-11
-5.11427e-10
8.17576e-11
-5.20327e-10
7.1545e-11
-5.27751e-10
6.1278e-11
-5.33709e-10
5.09907e-11
-5.38212e-10
4.07153e-11
-5.41278e-10
3.04817e-11
-5.42932e-10
2.03134e-11
-5.43199e-10
1.02797e-11
-5.4214e-10
4.192e-13
-5.39721e-10
-9.41051e-12
-5.36015e-10
-1.90092e-11
-5.31054e-10
-2.8417e-11
-5.24878e-10
-3.76151e-11
-5.17527e-10
-4.65866e-11
-5.09041e-10
-5.53162e-11
-4.99463e-10
-6.37906e-11
-4.88838e-10
-7.19979e-11
-4.77209e-10
-7.99278e-11
-4.6462e-10
-8.75715e-11
-4.51117e-10
-9.49212e-11
-4.36743e-10
-1.01971e-10
-4.21543e-10
-1.08715e-10
-4.05561e-10
-1.15149e-10
-3.88841e-10
-1.2127e-10
-3.71426e-10
-1.27076e-10
-3.53358e-10
-1.32564e-10
-3.3468e-10
-1.37733e-10
-3.15433e-10
-1.42584e-10
-2.95658e-10
-1.47114e-10
-2.75395e-10
-1.51326e-10
-2.54682e-10
-1.55219e-10
-2.3356e-10
-1.58795e-10
-2.12064e-10
-1.62053e-10
-1.90234e-10
-1.64995e-10
-1.68106e-10
-1.67622e-10
-1.45716e-10
-1.69935e-10
-1.23099e-10
-1.71934e-10
-1.00294e-10
-1.73614e-10
-7.73412e-11
-1.74924e-10
-5.43352e-11
-1.75484e-10
-3.16721e-11
-1.72922e-10
-1.124e-11
-1.55523e-10
-8.42342e-11
1.19369e-11
-9.61008e-11
3.35164e-11
-1.77078e-10
5.7428e-11
-1.96784e-10
8.17006e-11
-1.99678e-10
1.05921e-10
-1.99039e-10
1.29993e-10
-1.97554e-10
1.53873e-10
-1.95653e-10
1.77526e-10
-1.93396e-10
2.00916e-10
-1.90788e-10
2.24006e-10
-1.87828e-10
2.4676e-10
-1.84516e-10
2.69139e-10
-1.80849e-10
2.91106e-10
-1.76826e-10
3.12621e-10
-1.72444e-10
3.33644e-10
-1.67704e-10
3.54133e-10
-1.62602e-10
3.74046e-10
-1.57139e-10
3.9334e-10
-1.51314e-10
4.11971e-10
-1.45126e-10
4.29893e-10
-1.38575e-10
4.4706e-10
-1.31664e-10
4.63426e-10
-1.24393e-10
4.78942e-10
-1.16765e-10
4.93561e-10
-1.08784e-10