/*--------------------------------*- C++ -*----------------------------------*\
| =========                 |                                                 |
| \\      /  F ield         | OpenFOAM: The Open Source CFD Toolbox           |
|  \\    /   O peration     | Version:  2206                                  |
|   \\  /    A nd           | Website:  www.openfoam.com                      |
|    \\/     M anipulation  |                                                 |
\*---------------------------------------------------------------------------*/
FoamFile
{
    version     2.0;
    format      ascii;
    arch        "LSB;label=64;scalar=64";
    class       volScalarField;
    location    "16";
    object      p;
}
// * * * * * * * * * * * * * * * * * * * * * * * * * * * * * * * * * * * * * //

dimensions      [0 2 -2 0 0 0 0];

internalField   nonuniform List<scalar> 
1024
(
2.85662e-12
-2.97419e-09
-9.12119e-09
-1.64633e-08
-2.2483e-08
-2.40069e-08
-1.74978e-08
9.94282e-10
3.6157e-08
9.39579e-08
1.8214e-07
3.10467e-07
4.90561e-07
7.35303e-07
1.05679e-06
1.46336e-06
1.91775e-06
2.3306e-06
2.66109e-06
2.91516e-06
3.10357e-06
3.23865e-06
3.33195e-06
3.3934e-06
3.43103e-06
3.45108e-06
3.45849e-06
3.45741e-06
3.45156e-06
3.44421e-06
3.43799e-06
3.43495e-06
2.98249e-09
2.56783e-12
-5.14843e-09
-1.10356e-08
-1.56093e-08
-1.60538e-08
-8.94534e-09
9.72137e-09
4.47581e-08
1.02227e-07
1.89899e-07
3.17512e-07
4.96642e-07
7.40116e-07
1.05999e-06
1.46455e-06
1.91673e-06
2.32754e-06
2.65636e-06
2.9091e-06
3.0965e-06
3.23081e-06
3.32357e-06
3.38467e-06
3.42216e-06
3.44238e-06
3.45039e-06
3.45041e-06
3.44602e-06
3.44016e-06
3.43495e-06
3.43191e-06
9.1325e-09
5.14866e-09
-1.18123e-11
-4.96473e-09
-8.30519e-09
-7.68323e-09
1.03179e-10
1.90301e-08
5.39907e-08
1.11134e-07
1.98265e-07
3.25104e-07
5.03184e-07
7.45279e-07
1.06339e-06
1.46579e-06
1.91559e-06
2.32421e-06
2.65124e-06
2.90257e-06
3.08888e-06
3.2224e-06
3.31459e-06
3.37535e-06
3.41275e-06
3.43323e-06
3.44192e-06
3.44302e-06
3.43988e-06
3.43496e-06
3.42975e-06
3.4257e-06
1.65038e-08
1.10423e-08
4.90914e-09
-7.23395e-11
-2.89734e-09
-1.61942e-09
6.696e-09
2.5898e-08
6.08708e-08
1.17806e-07
2.04536e-07
3.30783e-07
5.08053e-07
7.49091e-07
1.06586e-06
1.46663e-06
1.91465e-06
2.32165e-06
2.64736e-06
2.89766e-06
3.08318e-06
3.21613e-06
3.30793e-06
3.36849e-06
3.40591e-06
3.42667e-06
3.43589e-06
3.43764e-06
3.43502e-06
3.43008e-06
3.42388e-06
3.41832e-06
2.26202e-08
1.56593e-08
8.21958e-09
2.63552e-09
-2.43345e-10
1.26849e-09
9.88369e-09
2.92983e-08
6.43321e-08
1.21177e-07
2.07688e-07
3.33596e-07
5.10412e-07
7.5087e-07
1.06693e-06
1.46687e-06
1.91402e-06
2.32025e-06
2.64536e-06
2.89518e-06
3.08034e-06
3.21302e-06
3.30466e-06
3.36518e-06
3.40268e-06
3.42366e-06
3.43319e-06
3.43517e-06
3.43249e-06
3.42693e-06
3.41941e-06
3.41234e-06
2.43617e-08
1.62131e-08
7.57259e-09
1.19668e-09
-2.05527e-09
-6.15018e-10
8.09526e-09
2.76505e-08
6.27962e-08
1.19706e-07
2.06253e-07
3.32197e-07
5.09081e-07
7.49666e-07
1.06595e-06
1.46623e-06
1.91383e-06
2.32055e-06
2.64607e-06
2.89624e-06
3.08166e-06
3.21453e-06
3.30633e-06
3.36699e-06
3.40466e-06
3.42581e-06
3.43544e-06
3.43735e-06
3.43428e-06
3.42792e-06
3.41919e-06
3.41092e-06
1.8225e-08
9.28098e-09
-2.67965e-10
-7.38478e-09
-1.11219e-08
-9.92193e-09
-1.251e-09
1.84082e-08
5.37568e-08
1.10962e-07
1.97928e-07
3.24474e-07
5.02217e-07
7.43997e-07
1.0619e-06
1.46428e-06
1.91433e-06
2.32338e-06
2.65086e-06
2.90258e-06
3.08919e-06
3.22293e-06
3.31535e-06
3.37645e-06
3.41442e-06
3.43572e-06
3.44534e-06
3.44701e-06
3.44345e-06
3.43634e-06
3.42669e-06
3.41762e-06
2.0336e-10
-9.24019e-09
-1.94219e-08
-2.71373e-08
-3.13385e-08
-3.04228e-08
-2.18306e-08
-2.03119e-09
3.36897e-08
9.15358e-08
1.79486e-07
3.07467e-07
4.87238e-07
7.3179e-07
1.05336e-06
1.46045e-06
1.91584e-06
2.32995e-06
2.66163e-06
2.91669e-06
3.10583e-06
3.24143e-06
3.33515e-06
3.39711e-06
3.43559e-06
3.45713e-06
3.46671e-06
3.46812e-06
3.46409e-06
3.45637e-06
3.44608e-06
3.43651e-06
-3.46916e-08
-4.45159e-08
-5.51943e-08
-6.3403e-08
-6.80073e-08
-6.73396e-08
-5.87695e-08
-3.86897e-08
-2.30126e-09
5.67078e-08
1.46465e-07
2.77089e-07
4.60579e-07
7.10177e-07
1.03838e-06
1.45389e-06
1.91881e-06
2.34188e-06
2.68099e-06
2.94194e-06
3.13557e-06
3.27444e-06
3.37045e-06
3.43391e-06
3.47329e-06
3.49524e-06
3.50487e-06
3.50606e-06
3.50164e-06
3.49342e-06
3.48262e-06
3.47266e-06
-9.32922e-08
-1.03545e-07
-1.14748e-07
-1.23446e-07
-1.28425e-07
-1.27941e-07
-1.19258e-07
-9.86338e-08
-6.11044e-08
-1.5301e-10
9.26068e-08
2.27615e-07
4.17246e-07
6.75144e-07
1.0142e-06
1.44344e-06
1.92383e-06
2.36143e-06
2.71258e-06
2.98308e-06
3.184e-06
3.3282e-06
3.42792e-06
3.49384e-06
3.5347e-06
3.5574e-06
3.56726e-06
3.56832e-06
3.56354e-06
3.55482e-06
3.54347e-06
3.53306e-06
-1.85436e-07
-1.96287e-07
-2.08184e-07
-2.17475e-07
-2.22862e-07
-2.225e-07
-2.13502e-07
-1.91922e-07
-1.52534e-07
-8.84901e-08
9.00989e-09
1.50906e-07
3.5015e-07
6.20992e-07
9.76909e-07
1.42739e-06
1.93169e-06
2.3917e-06
2.76147e-06
3.0468e-06
3.25904e-06
3.41154e-06
3.51708e-06
3.58686e-06
3.63009e-06
3.65406e-06
3.66441e-06
3.66542e-06
3.66026e-06
3.65094e-06
3.63887e-06
3.62782e-06
-3.25509e-07
-3.37238e-07
-3.50123e-07
-3.6022e-07
-3.66114e-07
-3.65818e-07
-3.56224e-07
-3.33083e-07
-2.90775e-07
-2.21949e-07
-1.17177e-07
3.52333e-08
2.49084e-07
5.39515e-07
9.20846e-07
1.40323e-06
1.94337e-06
2.43704e-06
2.83485e-06
3.14259e-06
3.37204e-06
3.53721e-06
3.65168e-06
3.72741e-06
3.77435e-06
3.80036e-06
3.81158e-06
3.81265e-06
3.80702e-06
3.79687e-06
3.78377e-06
3.77179e-06
-5.34879e-07
-5.47906e-07
-5.62231e-07
-5.73475e-07
-5.80054e-07
-5.79766e-07
-5.69172e-07
-5.43572e-07
-4.96763e-07
-4.20645e-07
-3.04862e-07
-1.36625e-07
9.90987e-08
4.18707e-07
8.37696e-07
1.36715e-06
1.9601e-06
2.50349e-06
2.94294e-06
3.28421e-06
3.53956e-06
3.72392e-06
3.852e-06
3.93689e-06
3.98956e-06
4.0188e-06
4.03144e-06
4.03271e-06
4.02644e-06
4.01512e-06
4.0005e-06
3.98714e-06
-8.46003e-07
-8.6097e-07
-8.77435e-07
-8.90357e-07
-8.97902e-07
-8.9754e-07
-8.85332e-07
-8.55903e-07
-8.02179e-07
-7.14957e-07
-5.82524e-07
-3.90512e-07
-1.22167e-07
2.4064e-07
7.14988e-07
1.31324e-06
1.98324e-06
2.59946e-06
3.10047e-06
3.49176e-06
3.78617e-06
3.99975e-06
4.1487e-06
4.24775e-06
4.30938e-06
4.3437e-06
4.35865e-06
4.36031e-06
4.35317e-06
4.34012e-06
4.32323e-06
4.3078e-06
-1.31001e-06
-1.32795e-06
-1.34767e-06
-1.36312e-06
-1.37209e-06
-1.37152e-06
-1.35671e-06
-1.32126e-06
-1.25678e-06
-1.15242e-06
-9.94506e-07
-7.66438e-07
-4.49119e-07
-2.21574e-08
5.3353e-07
1.232e-06
2.01392e-06
2.73663e-06
3.32877e-06
3.79526e-06
4.14927e-06
4.40808e-06
4.58975e-06
4.71121e-06
4.78715e-06
4.82967e-06
4.84841e-06
4.85082e-06
4.8424e-06
4.82673e-06
4.80635e-06
4.78771e-06
-2.01089e-06
-2.03356e-06
-2.05848e-06
-2.07793e-06
-2.08906e-06
-2.08801e-06
-2.06883e-06
-2.02351e-06
-1.94164e-06
-1.80992e-06
-1.61183e-06
-1.32775e-06
-9.3559e-07
-4.12304e-07
2.63448e-07
1.10784e-06
2.0519e-06
2.9303e-06
3.6582e-06
4.23934e-06
4.68643e-06
5.01745e-06
5.25239e-06
5.41092e-06
5.51084e-06
5.56729e-06
5.59262e-06
5.5965e-06
5.58615e-06
5.56628e-06
5.54027e-06
5.51644e-06
-3.01904e-06
-3.04927e-06
-3.0824e-06
-3.10811e-06
-3.12251e-06
-3.12041e-06
-3.09392e-06
-3.03255e-06
-2.9229e-06
-2.74825e-06
-2.4884e-06
-2.12012e-06
-1.61831e-06
-9.57693e-07
-1.15268e-07
9.27334e-07
2.08961e-06
3.18011e-06
4.09811e-06
4.84544e-06
5.43244e-06
5.87582e-06
6.19618e-06
6.41567e-06
6.55584e-06
6.63609e-06
6.67294e-06
6.67971e-06
6.66648e-06
6.63992e-06
6.60479e-06
6.57249e-06
-4.29089e-06
-4.33238e-06
-4.37767e-06
-4.41248e-06
-4.43138e-06
-4.42716e-06
-4.38911e-06
-4.30335e-06
-4.15263e-06
-3.91619e-06
-3.57002e-06
-3.08804e-06
-2.44374e-06
-1.61194e-06
-5.70141e-07
7.01343e-07
2.11131e-06
3.44583e-06
4.59098e-06
5.54702e-06
6.31944e-06
6.91966e-06
7.36494e-06
7.67713e-06
7.88043e-06
7.999e-06
8.05493e-06
8.06699e-06
8.04981e-06
8.01319e-06
7.96416e-06
7.91888e-06
-5.74857e-06
-5.80618e-06
-5.86879e-06
-5.91619e-06
-5.94059e-06
-5.93184e-06
-5.8754e-06
-5.75312e-06
-5.54356e-06
-5.22222e-06
-4.7627e-06
-4.13853e-06
-3.3253e-06
-2.30165e-06
-1.04855e-06
4.5397e-07
2.10723e-06
3.68399e-06
5.06471e-06
6.25097e-06
7.24268e-06
8.04194e-06
8.65658e-06
9.10204e-06
9.40075e-06
9.57968e-06
9.667e-06
9.68886e-06
9.66671e-06
9.61542e-06
9.54573e-06
9.48115e-06
-7.38578e-06
-7.46725e-06
-7.55512e-06
-7.62011e-06
-7.65066e-06
-7.63235e-06
-7.54558e-06
-7.36743e-06
-7.07271e-06
-6.63493e-06
-6.0282e-06
-5.22988e-06
-4.22212e-06
-2.99135e-06
-1.52434e-06
1.98827e-07
2.07596e-06
3.8762e-06
5.48364e-06
6.90664e-06
8.14239e-06
9.18231e-06
1.00192e-05
1.06534e-05
1.10967e-05
1.13728e-05
1.15138e-05
1.15546e-05
1.15267e-05
1.14534e-05
1.13517e-05
1.1257e-05
-9.21014e-06
-9.3283e-06
-9.45414e-06
-9.54366e-06
-9.57922e-06
-9.54036e-06
-9.40163e-06
-9.13612e-06
-8.71736e-06
-8.12071e-06
-7.32587e-06
-6.31928e-06
-5.09437e-06
-3.64812e-06
-1.97369e-06
-5.02574e-08
2.02055e-06
4.01234e-06
5.82125e-06
7.46908e-06
8.95711e-06
1.02704e-05
1.13854e-05
1.22796e-05
1.29412e-05
1.33769e-05
1.36141e-05
1.36945e-05
1.36629e-05
1.35558e-05
1.34019e-05
1.32573e-05
-1.12434e-05
-1.14201e-05
-1.16041e-05
-1.17265e-05
-1.17602e-05
-1.16775e-05
-1.14486e-05
-1.10465e-05
-1.04493e-05
-9.64062e-06
-8.61218e-06
-7.36495e-06
-5.90669e-06
-4.24523e-06
-2.37816e-06
-2.8152e-07
1.94728e-06
4.09127e-06
6.06384e-06
7.90567e-06
9.63088e-06
1.12286e-05
1.2667e-05
1.39003e-05
1.48812e-05
1.55786e-05
1.59936e-05
1.61618e-05
1.61395e-05
1.59826e-05
1.57403e-05
1.5508e-05
-1.35366e-05
-1.38084e-05
-1.40808e-05
-1.42411e-05
-1.42498e-05
-1.40756e-05
-1.36914e-05
-1.308e-05
-1.22333e-05
-1.11511e-05
-9.84359e-06
-8.32969e-06
-6.63148e-06
-4.76444e-06
-2.72622e-06
-4.86588e-07
1.86393e-06
4.1195e-06
6.21187e-06
8.20221e-06
1.01243e-05
1.19845e-05
1.37601e-05
1.53976e-05
1.68168e-05
1.79289e-05
1.86718e-05
1.90387e-05
1.90779e-05
1.88622e-05
1.84735e-05
1.80841e-05
-1.6203e-05
-1.66259e-05
-1.7022e-05
-1.72044e-05
-1.71263e-05
-1.67685e-05
-1.61253e-05
-1.52048e-05
-1.40227e-05
-1.26025e-05
-1.09765e-05
-9.18134e-06
-7.24876e-06
-5.19512e-06
-3.0121e-06
-6.60004e-07
1.77896e-06
4.10939e-06
6.27892e-06
8.36651e-06
1.04268e-05
1.24918e-05
1.45679e-05
1.66247e-05
1.85826e-05
2.03014e-05
2.16191e-05
2.24189e-05
2.2677e-05
2.24489e-05
2.18514e-05
2.12007e-05
-1.94871e-05
-2.01281e-05
-2.06607e-05
-2.07842e-05
-2.04751e-05
-1.97685e-05
-1.87119e-05
-1.73544e-05
-1.57429e-05
-1.39268e-05
-1.19593e-05
-9.88736e-06
-7.74175e-06
-5.5303e-06
-3.23265e-06
-7.97494e-07
1.70148e-06
4.07724e-06
6.28903e-06
8.42822e-06
1.05657e-05
1.27588e-05
1.50526e-05
1.74686e-05
1.99897e-05
2.24837e-05
2.47001e-05
2.63416e-05
2.71886e-05
2.71646e-05
2.63714e-05
2.53575e-05
-2.38589e-05
-2.47562e-05
-2.53381e-05
-2.5164e-05
-2.43273e-05
-2.29994e-05
-2.13175e-05
-1.93791e-05
-1.72576e-05
-1.50197e-05
-1.27247e-05
-1.04112e-05
-8.09442e-06
-5.76461e-06
-3.38589e-06
-8.95567e-07
1.64e-06
4.03982e-06
6.27015e-06
8.42951e-06
1.05989e-05
1.28543e-05
1.52778e-05
1.79438e-05
2.09626e-05
2.42971e-05
2.77096e-05
3.07332e-05
3.28246e-05
3.35544e-05
3.28187e-05
3.14429e-05
-3.01422e-05
-3.11861e-05
-3.1451e-05
-3.04214e-05
-2.8526e-05
-2.61843e-05
-2.36389e-05
-2.10119e-05
-1.83692e-05
-1.57573e-05
-1.3208e-05
-1.0726e-05
-8.29984e-06
-5.89903e-06
-3.47412e-06
-9.54112e-07
1.59925e-06
4.00897e-06
6.24423e-06
8.4074e-06
1.05851e-05
1.28665e-05
1.53693e-05
1.81869e-05
2.16137e-05
2.57507e-05
3.05272e-05
3.54602e-05
3.96893e-05
4.21954e-05
4.22656e-05
4.08319e-05
-3.98324e-05
-4.04039e-05
-3.93182e-05
-3.6339e-05
-3.25912e-05
-2.8798e-05
-2.52354e-05
-2.19513e-05
-1.89098e-05
-1.60693e-05
-1.3392e-05
-1.08392e-05
-8.37221e-06
-5.94698e-06
-3.50718e-06
-9.78657e-07
1.57866e-06
3.98835e-06
6.22117e-06
8.38096e-06
1.0558e-05
1.28498e-05
1.53894e-05
1.83593e-05
2.21019e-05
2.69579e-05
3.31283e-05
4.03642e-05
4.774e-05
5.36111e-05
5.61252e-05
5.57217e-05
-5.5489e-05
-5.36436e-05
-4.88629e-05
-4.21861e-05
-3.56921e-05
-3.01926e-05
-2.57245e-05
-2.20364e-05
-1.88556e-05
-1.59911e-05
-1.33279e-05
-1.07959e-05
-8.34565e-06
-5.93233e-06
-3.50092e-06
-9.79085e-07
1.57214e-06
3.97534e-06
6.20092e-06
8.35279e-06
1.05234e-05
1.28166e-05
1.53807e-05
1.84501e-05
2.24325e-05
2.78664e-05
3.53058e-05
4.50045e-05
5.64656e-05
6.78131e-05
7.57446e-05
7.90623e-05
-8.22234e-05
-7.19766e-05
-5.86637e-05
-4.62663e-05
-3.66464e-05
-2.97927e-05
-2.49614e-05
-2.1334e-05
-1.83337e-05
-1.56407e-05
-1.31038e-05
-1.06556e-05
-8.25891e-06
-5.87988e-06
-3.47113e-06
-9.6542e-07
1.57316e-06
3.96517e-06
6.17925e-06
8.31806e-06
1.04739e-05
1.27526e-05
1.5309e-05
1.8399e-05
2.24676e-05
2.81845e-05
3.64415e-05
4.82063e-05
6.40758e-05
8.31482e-05
0.000102006
0.000116141
-0.000142925
-9.70559e-05
-6.48117e-05
-4.58267e-05
-3.43022e-05
-2.73916e-05
-2.31233e-05
-2.00923e-05
-1.75461e-05
-1.51546e-05
-1.28045e-05
-1.047e-05
-8.14349e-06
-5.80904e-06
-3.42984e-06
-9.45208e-07
1.57692e-06
3.95438e-06
6.15326e-06
8.27354e-06
1.04047e-05
1.26485e-05
1.51527e-05
1.81624e-05
2.21026e-05
2.76549e-05
3.5873e-05
4.83546e-05
6.73283e-05
9.54409e-05
0.000136976
0.000192184
-0.000266513
-0.000129094
-6.67175e-05
-4.23759e-05
-3.03949e-05
-2.43686e-05
-2.11398e-05
-1.88777e-05
-1.68212e-05
-1.47211e-05
-1.25404e-05
-1.03059e-05
-8.04071e-06
-5.74543e-06
-3.39246e-06
-9.26734e-07
1.58049e-06
3.9446e-06
6.12921e-06
8.23141e-06
1.03368e-05
1.25403e-05
1.49761e-05
1.78617e-05
2.157e-05
2.67119e-05
3.43093e-05
4.62558e-05
6.63334e-05
0.000102489
0.000178356
0.000327518
)
;

boundaryField
{
    movingWall
    {
        type            zeroGradient;
    }
    fixedWalls
    {
        type            zeroGradient;
    }
    frontAndBack
    {
        type            empty;
    }
}


// ************************************************************************* //
