/*--------------------------------*- C++ -*----------------------------------*\
| =========                 |                                                 |
| \\      /  F ield         | OpenFOAM: The Open Source CFD Toolbox           |
|  \\    /   O peration     | Version:  2206                                  |
|   \\  /    A nd           | Website:  www.openfoam.com                      |
|    \\/     M anipulation  |                                                 |
\*---------------------------------------------------------------------------*/
FoamFile
{
    version     2.0;
    format      ascii;
    arch        "LSB;label=64;scalar=64";
    class       surfaceScalarField;
    location    "16";
    object      phi;
}
// * * * * * * * * * * * * * * * * * * * * * * * * * * * * * * * * * * * * * //

dimensions      [0 3 -1 0 0 0 0];

oriented        oriented;

internalField   nonuniform List<scalar> 
1984
(
3.52015e-12
-3.52726e-12
1.05952e-13
3.4139e-12
-1.90404e-11
1.9146e-11
-5.88556e-11
3.98148e-11
-1.20706e-10
6.18497e-11
-2.03536e-10
8.28295e-11
-3.05014e-10
1.01478e-10
-4.22858e-10
1.17843e-10
-5.55551e-10
1.32693e-10
-7.01897e-10
1.46345e-10
-8.59781e-10
1.57883e-10
-1.02479e-09
1.65008e-10
-1.18883e-09
1.64043e-10
-1.3385e-09
1.49664e-10
-1.45332e-09
1.14825e-10
-1.50351e-09
5.01892e-11
-1.46259e-09
-4.09246e-11
-1.35405e-09
-1.08543e-10
-1.20757e-09
-1.4648e-10
-1.04419e-09
-1.63384e-10
-8.78079e-10
-1.66108e-10
-7.18041e-10
-1.6004e-10
-5.69027e-10
-1.49015e-10
-4.33537e-10
-1.35491e-10
-3.13026e-10
-1.20512e-10
-2.09172e-10
-1.03855e-10
-1.24354e-10
-8.48198e-11
-6.09455e-11
-6.3409e-11
-2.00153e-11
-4.09311e-11
-1.9118e-13
-1.98249e-11
3.50913e-12
-3.70101e-12
3.50889e-12
-3.40336e-12
-1.24139e-13
-3.14273e-11
3.14374e-11
-1.04289e-10
9.20077e-11
-2.35968e-10
1.71493e-10
-4.3348e-10
2.59362e-10
-6.96674e-10
3.46022e-10
-1.02047e-09
4.2527e-10
-1.39852e-09
4.95894e-10
-1.82577e-09
5.5994e-10
-2.29771e-09
6.18285e-10
-2.80696e-09
6.67135e-10
-3.33895e-09
6.96996e-10
-3.86732e-09
6.92408e-10
-4.34873e-09
6.31075e-10
-4.71693e-09
4.83022e-10
-4.8763e-09
2.0956e-10
-4.74338e-09
-1.73848e-10
-4.39319e-09
-4.58737e-10
-3.92095e-09
-6.18722e-10
-3.39454e-09
-6.89789e-10
-2.85948e-09
-7.0117e-10
-2.34413e-09
-6.75399e-10
-1.86461e-09
-6.28538e-10
-1.4294e-09
-5.70693e-10
-1.04377e-09
-5.0615e-10
-7.13231e-10
-4.34394e-10
-4.44399e-10
-3.53653e-10
-2.4247e-10
-2.65339e-10
-1.07606e-10
-1.75796e-10
-3.27196e-11
-9.47127e-11
-3.67846e-12
-3.2743e-11
-1.69818e-13
-1.91146e-11
1.89903e-11
-9.19879e-11
1.0431e-10
-2.42463e-10
2.42482e-10
-4.92187e-10
4.21216e-10
-8.54834e-10
6.22009e-10
-1.3335e-09
8.24688e-10
-1.92238e-09
1.01415e-09
-2.6119e-09
1.18541e-09
-3.39309e-09
1.34114e-09
-4.2571e-09
1.48229e-09
-5.18966e-09
1.5997e-09
-6.16356e-09
1.6709e-09
-7.13019e-09
1.65903e-09
-8.01002e-09
1.51091e-09
-8.68154e-09
1.15454e-09
-8.97021e-09
4.98226e-10
-8.72503e-09
-4.1903e-10
-8.08316e-09
-1.10061e-09
-7.21846e-09
-1.48342e-09
-6.25513e-09
-1.65312e-09
-5.27624e-09
-1.68006e-09
-4.3337e-09
-1.61794e-09
-3.45728e-09
-1.50495e-09
-2.66307e-09
-1.36491e-09
-1.96114e-09
-1.20808e-09
-1.36123e-09
-1.0343e-09
-8.73359e-10
-8.41529e-10
-5.03482e-10
-6.35217e-10
-2.48483e-10
-4.30795e-10
-9.45323e-11
-2.48665e-10
-1.97383e-11
-1.07538e-10
-1.99083e-11
-3.98351e-11
5.88251e-11
-1.71836e-10
2.36311e-10
-4.22174e-10
4.9282e-10
-8.16778e-10
8.15819e-10
-1.37444e-09
1.17967e-09
-2.10193e-09
1.55218e-09
-2.99422e-09
1.90644e-09
-4.03981e-09
2.23099e-09
-5.22621e-09
2.52754e-09
-6.53964e-09
2.79572e-09
-7.95765e-09
3.0177e-09
-9.43816e-09
3.15142e-09
-1.09068e-08
3.12765e-09
-1.22424e-08
2.84649e-09
-1.32601e-08
2.17224e-09
-1.36951e-08
9.33272e-10
-1.33196e-08
-7.94509e-10
-1.23426e-08
-2.07769e-09
-1.10277e-08
-2.79824e-09
-9.56366e-09
-3.1172e-09
-8.07636e-09
-3.16737e-09
-6.64473e-09
-3.04957e-09
-5.31434e-09
-2.83534e-09
-4.11015e-09
-2.56911e-09
-3.04763e-09
-2.2706e-09
-2.14031e-09
-1.94162e-09
-1.40027e-09
-1.58157e-09
-8.32723e-10
-1.20276e-09
-4.30832e-10
-8.32686e-10
-1.75587e-10
-5.03911e-10
-4.07816e-11
-2.42344e-10
-6.06901e-11
-6.21991e-11
1.21024e-10
-2.61301e-10
4.35412e-10
-6.27e-10
8.58519e-10
-1.18809e-09
1.37691e-09
-1.96624e-09
1.95782e-09
-2.97054e-09
2.55648e-09
-4.19684e-09
3.13274e-09
-5.63261e-09
3.66675e-09
-7.26261e-09
4.15754e-09
-9.06811e-09
4.60122e-09
-1.10177e-08
4.96725e-09
-1.30527e-08
5.18644e-09
-1.50703e-08
5.14531e-09
-1.69038e-08
4.67991e-09
-1.82989e-08
3.56739e-09
-1.88927e-08
1.52701e-09
-1.83734e-08
-1.31378e-09
-1.7029e-08
-3.4221e-09
-1.52215e-08
-4.60572e-09
-1.32095e-08
-5.12918e-09
-1.1166e-08
-5.21088e-09
-9.19943e-09
-5.01615e-09
-7.37274e-09
-4.66203e-09
-5.72052e-09
-4.22132e-09
-4.26362e-09
-3.7275e-09
-3.01859e-09
-3.18666e-09
-1.99864e-09
-2.60151e-09
-1.20816e-09
-1.99324e-09
-6.37938e-10
-1.40291e-09
-2.66046e-10
-8.75804e-10
-6.33909e-11
-4.45e-10
-1.24081e-10
-8.41705e-11
2.05194e-10
-3.52417e-10
7.03658e-10
-8.40686e-10
1.34679e-09
-1.5814e-09
2.11762e-09
-2.59791e-09
2.97433e-09
-3.89983e-09
3.8584e-09
-5.48263e-09
4.71554e-09
-7.33262e-09
5.51675e-09
-9.43228e-09
6.2572e-09
-1.17582e-08
6.92718e-09
-1.42697e-08
7.4787e-09
-1.68906e-08
7.80731e-09
-1.94878e-08
7.74257e-09
-2.18462e-08
7.03833e-09
-2.3639e-08
5.36015e-09
-2.43995e-08
2.28756e-09
-2.37281e-08
-1.98524e-09
-2.1996e-08
-5.15419e-09
-1.96686e-08
-6.93313e-09
-1.70781e-08
-7.71969e-09
-1.4447e-08
-7.84195e-09
-1.19151e-08
-7.54803e-09
-9.56378e-09
-7.01339e-09
-7.4375e-09
-6.34761e-09
-5.56218e-09
-5.60282e-09
-3.95696e-09
-4.79188e-09
-2.63635e-09
-3.92212e-09
-1.60513e-09
-3.02447e-09
-8.53557e-10
-2.15449e-09
-3.57956e-10
-1.37141e-09
-8.55419e-11
-7.17415e-10
-2.09623e-10
-1.05121e-10
3.10314e-10
-4.41743e-10
1.04028e-09
-1.0548e-09
1.95984e-09
-1.98244e-09
3.04526e-09
-3.25027e-09
4.24217e-09
-4.86735e-09
5.47547e-09
-6.82714e-09
6.67532e-09
-9.11363e-09
7.80324e-09
-1.17067e-08
8.85023e-09
-1.45783e-08
9.7988e-09
-1.76782e-08
1.05786e-08
-2.0912e-08
1.10411e-08
-2.4115e-08
1.09456e-08
-2.70216e-08
9.9449e-09
-2.92293e-08
7.5679e-09
-3.01644e-08
3.22268e-09
-2.93352e-08
-2.81452e-09
-2.71995e-08
-7.28987e-09
-2.43298e-08
-9.80284e-09
-2.11348e-08
-1.09147e-08
-1.78888e-08
-1.10879e-08
-1.47646e-08
-1.06723e-08
-1.18627e-08
-9.91533e-09
-9.23783e-09
-8.97243e-09
-6.92111e-09
-7.91954e-09
-4.9346e-09
-6.7784e-09
-3.2953e-09
-5.56141e-09
-2.01007e-09
-4.30971e-09
-1.06966e-09
-3.0949e-09
-4.48071e-10
-1.99299e-09
-1.06664e-10
-1.05882e-09
-3.16288e-10
-1.26151e-10
4.36464e-10
-5.32569e-10
1.4467e-09
-1.27522e-09
2.70249e-09
-2.40037e-09
4.17041e-09
-3.93753e-09
5.77932e-09
-5.8954e-09
7.43334e-09
-8.26431e-09
9.04424e-09
-1.10244e-08
1.05633e-08
-1.41515e-08
1.19774e-08
-1.76126e-08
1.32599e-08
-2.1347e-08
1.4313e-08
-2.52407e-08
1.49347e-08
-2.90948e-08
1.47998e-08
-3.25899e-08
1.344e-08
-3.52433e-08
1.02212e-08
-3.63673e-08
4.34671e-09
-3.53717e-08
-3.81006e-09
-3.28061e-08
-9.85557e-09
-2.9356e-08
-1.32529e-08
-2.55117e-08
-1.47589e-08
-2.16034e-08
-1.49962e-08
-1.78393e-08
-1.44364e-08
-1.43412e-08
-1.34134e-08
-1.11751e-08
-1.21385e-08
-8.37814e-09
-1.07165e-08
-5.97658e-09
-9.17996e-09
-3.99164e-09
-7.54635e-09
-2.43338e-09
-5.86797e-09
-1.29285e-09
-4.23542e-09
-5.40017e-10
-2.74583e-09
-1.2795e-10
-1.47089e-09
-4.44238e-10
-1.49738e-10
5.86201e-10
-6.34227e-10
1.93118e-09
-1.5222e-09
3.59046e-09
-2.87017e-09
5.51839e-09
-4.71348e-09
7.62263e-09
-7.06141e-09
9.78127e-09
-9.90067e-09
1.18835e-08
-1.3206e-08
1.38686e-08
-1.69478e-08
1.57193e-08
-2.1086e-08
1.73981e-08
-2.55476e-08
1.87746e-08
-3.01956e-08
1.95827e-08
-3.47924e-08
1.93967e-08
-3.89573e-08
1.76049e-08
-4.21177e-08
1.33816e-08
-4.34589e-08
5.68794e-09
-4.22796e-08
-4.98933e-09
-3.92301e-08
-1.29051e-08
-3.51226e-08
-1.73605e-08
-3.05388e-08
-1.93427e-08
-2.58725e-08
-1.96625e-08
-2.13735e-08
-1.89354e-08
-1.71884e-08
-1.75986e-08
-1.33971e-08
-1.59297e-08
-1.00448e-08
-1.40689e-08
-7.16396e-09
-1.20608e-08
-4.78166e-09
-9.92866e-09
-2.91162e-09
-7.73801e-09
-1.54426e-09
-5.60278e-09
-6.43513e-10
-3.64658e-09
-1.51972e-10
-1.96243e-09
-5.9621e-10
-1.78976e-10
7.65176e-10
-7.59396e-10
2.5116e-09
-1.82509e-09
4.65615e-09
-3.44513e-09
7.13843e-09
-5.66251e-09
9.84001e-09
-8.48801e-09
1.26068e-08
-1.19044e-08
1.52999e-08
-1.58795e-08
1.78437e-08
-2.03761e-08
2.02159e-08
-2.53443e-08
2.23663e-08
-3.0695e-08
2.41253e-08
-3.62624e-08
2.51501e-08
-4.17612e-08
2.48954e-08
-4.67369e-08
2.25805e-08
-5.051e-08
1.71548e-08
-5.21165e-08
7.29444e-09
-5.07229e-08
-6.38301e-09
-4.70962e-08
-1.65318e-08
-4.21971e-08
-2.22596e-08
-3.67167e-08
-2.48232e-08
-3.11259e-08
-2.52532e-08
-2.57261e-08
-2.43352e-08
-2.06958e-08
-2.26289e-08
-1.61336e-08
-2.04919e-08
-1.20959e-08
-1.81066e-08
-8.62426e-09
-1.55324e-08
-5.753e-09
-1.27999e-08
-3.50008e-09
-9.99093e-09
-1.85431e-09
-7.24856e-09
-7.71681e-10
-4.72921e-09
-1.81929e-10
-2.55219e-09
-7.78138e-10
-2.17423e-10
9.82598e-10
-9.2329e-10
3.21747e-09
-2.22043e-09
5.95329e-09
-4.19369e-09
9.11169e-09
-6.89585e-09
1.25422e-08
-1.03397e-08
1.60507e-08
-1.45032e-08
1.94633e-08
-1.93451e-08
2.26856e-08
-2.48173e-08
2.56881e-08
-3.08562e-08
2.84052e-08
-3.73498e-08
3.06189e-08
-4.40939e-08
3.18942e-08
-5.07412e-08
3.15427e-08
-5.67442e-08
2.85836e-08
-6.12918e-08
2.17023e-08
-6.32369e-08
9.2396e-09
-6.15832e-08
-8.0367e-09
-5.72379e-08
-2.08771e-08
-5.13422e-08
-2.81553e-08
-4.47223e-08
-3.1443e-08
-3.79476e-08
-3.20279e-08
-3.1387e-08
-3.08958e-08
-2.52625e-08
-2.87533e-08
-1.96993e-08
-2.60552e-08
-1.47704e-08
-2.30355e-08
-1.05299e-08
-1.9773e-08
-7.02212e-09
-1.63077e-08
-4.27037e-09
-1.27427e-08
-2.26119e-09
-9.25773e-09
-9.4043e-10
-6.04997e-09
-2.21544e-10
-3.27108e-09
-9.99682e-10
-2.69981e-10
1.25258e-09
-1.14693e-09
4.09442e-09
-2.75903e-09
7.56539e-09
-5.212e-09
1.15647e-08
-8.57135e-09
1.59015e-08
-1.28523e-08
2.03316e-08
-1.80254e-08
2.46365e-08
-2.40366e-08
2.86968e-08
-3.0822e-08
3.24735e-08
-3.82969e-08
3.588e-08
-4.63163e-08
3.86383e-08
-5.46217e-08
4.01996e-08
-6.27819e-08
3.97029e-08
-7.01288e-08
3.59305e-08
-7.56846e-08
2.72581e-08
-7.80758e-08
1.16308e-08
-7.61007e-08
-1.00117e-08
-7.08366e-08
-2.61413e-08
-6.36478e-08
-3.5344e-08
-5.55312e-08
-3.95596e-08
-4.7185e-08
-4.03742e-08
-3.90707e-08
-3.90101e-08
-3.14726e-08
-3.63514e-08
-2.45551e-08
-3.29727e-08
-1.84168e-08
-2.91737e-08
-1.31309e-08
-2.50589e-08
-8.7565e-09
-2.06821e-08
-5.32445e-09
-1.61747e-08
-2.81881e-09
-1.17634e-08
-1.17207e-09
-7.69672e-09
-2.76026e-10
-4.16712e-09
-1.27571e-09
-3.44565e-10
1.59714e-09
-1.46408e-09
5.21393e-09
-3.52227e-09
9.62357e-09
-6.65378e-09
1.46962e-08
-1.09413e-08
2.0189e-08
-1.64021e-08
2.57924e-08
-2.29954e-08
3.12298e-08
-3.06467e-08
3.63481e-08
-3.92667e-08
4.10935e-08
-4.8737e-08
4.53503e-08
-5.88615e-08
4.87629e-08
-6.93019e-08
5.064e-08
-7.95097e-08
4.99107e-08
-8.86564e-08
4.50771e-08
-9.5553e-08
3.41547e-08
-9.85454e-08
1.46232e-08
-9.61727e-08
-1.23844e-08
-8.97164e-08
-3.25976e-08
-8.08153e-08
-4.42451e-08
-7.06822e-08
-4.96927e-08
-6.01874e-08
-5.0869e-08
-4.99233e-08
-4.92742e-08
-4.02674e-08
-4.60074e-08
-3.1446e-08
-4.1794e-08
-2.35997e-08
-3.702e-08
-1.68326e-08
-3.1826e-08
-1.12273e-08
-2.62873e-08
-6.82749e-09
-2.05746e-08
-3.6146e-09
-1.49763e-08
-1.50289e-09
-9.80843e-09
-3.53893e-10
-5.31611e-09
-1.6296e-09
-4.55007e-10
2.05215e-09
-1.93346e-09
6.69239e-09
-4.65113e-09
1.23412e-08
-8.78451e-09
1.88295e-08
-1.44401e-08
2.58446e-08
-2.16364e-08
3.29887e-08
-3.03119e-08
3.99053e-08
-4.03575e-08
4.63936e-08
-5.16394e-08
5.23754e-08
-6.39814e-08
5.76923e-08
-7.71027e-08
6.18842e-08
-9.05413e-08
6.40785e-08
-1.0358e-07
6.29492e-08
-1.15175e-07
5.66722e-08
-1.23875e-07
4.28549e-08
-1.27691e-07
1.84387e-08
-1.24838e-07
-1.52369e-08
-1.16835e-07
-4.06008e-08
-1.05644e-07
-5.54362e-08
-9.27441e-08
-6.25924e-08
-7.9236e-08
-6.43771e-08
-6.59028e-08
-6.26073e-08
-5.32681e-08
-5.86421e-08
-4.16626e-08
-5.33995e-08
-3.13004e-08
-4.73821e-08
-2.2341e-08
-4.07854e-08
-1.49083e-08
-3.37201e-08
-9.06862e-09
-2.64143e-08
-4.80199e-09
-1.92429e-08
-1.9968e-09
-1.26136e-08
-4.7022e-10
-6.8427e-09
-2.09982e-09
-6.26766e-10
2.67892e-09
-2.66316e-09
8.72878e-09
-6.40505e-09
1.60831e-08
-1.20921e-08
2.45166e-08
-1.98649e-08
3.36174e-08
-2.9738e-08
4.28617e-08
-4.16104e-08
5.17778e-08
-5.53071e-08
6.00903e-08
-7.06098e-08
6.76781e-08
-8.72326e-08
7.43151e-08
-1.04744e-07
7.93961e-08
-1.22481e-07
8.18155e-08
-1.39476e-07
7.99442e-08
-1.54405e-07
7.1601e-08
-1.65515e-07
5.39648e-08
-1.70457e-07
2.33802e-08
-1.67075e-07
-1.86189e-08
-1.57124e-07
-5.05513e-08
-1.42904e-07
-6.96568e-08
-1.2619e-07
-7.9306e-08
-1.08381e-07
-8.21861e-08
-9.05416e-08
-8.04468e-08
-7.3436e-08
-7.57477e-08
-5.75833e-08
-6.92522e-08
-4.33392e-08
-6.16262e-08
-3.09714e-08
-5.31532e-08
-2.06839e-08
-4.40076e-08
-1.25884e-08
-3.45098e-08
-6.66797e-09
-2.51633e-08
-2.77329e-09
-1.65083e-08
-6.53136e-10
-8.96285e-09
-2.75296e-09
-9.10624e-10
3.58954e-09
-3.86898e-09
1.16871e-08
-9.30153e-09
2.15157e-08
-1.75481e-08
3.27632e-08
-2.87965e-08
4.48658e-08
-4.30415e-08
5.71068e-08
-6.00951e-08
6.88314e-08
-7.96428e-08
7.96379e-08
-1.01286e-07
8.93217e-08
-1.24513e-07
9.75417e-08
-1.48603e-07
1.03486e-07
-1.72546e-07
1.05759e-07
-1.95008e-07
1.02406e-07
-2.14332e-07
9.09251e-08
-2.28507e-07
6.81397e-08
-2.34936e-07
2.9809e-08
-2.31129e-07
-2.24256e-08
-2.1898e-07
-6.27001e-08
-2.0099e-07
-8.76472e-08
-1.79159e-07
-1.01137e-07
-1.55215e-07
-1.0613e-07
-1.3063e-07
-1.05033e-07
-1.06577e-07
-9.98004e-08
-8.39411e-08
-9.1888e-08
-6.33766e-08
-8.21907e-08
-4.53878e-08
-7.11421e-08
-3.03541e-08
-5.90413e-08
-1.84899e-08
-4.6374e-08
-9.79911e-09
-3.38541e-08
-4.07663e-09
-2.22308e-08
-9.60126e-10
-1.20794e-08
-3.71308e-09
-1.21583e-09
4.80537e-09
-5.16093e-09
1.56322e-08
-1.23949e-08
2.87497e-08
-2.33516e-08
4.37198e-08
-3.82454e-08
5.97597e-08
-5.7009e-08
7.58704e-08
-7.92995e-08
9.11219e-08
-1.04567e-07
1.04905e-07
-1.32111e-07
1.16866e-07
-1.61059e-07
1.26489e-07
-1.90292e-07
1.32719e-07
-2.18427e-07
1.33893e-07
-2.43885e-07
1.27864e-07
-2.65015e-07
1.12055e-07
-2.80123e-07
8.32475e-08
-2.87168e-07
3.68538e-08
-2.83975e-07
-2.56181e-08
-2.72013e-07
-7.46625e-08
-2.53172e-07
-1.06488e-07
-2.29031e-07
-1.25278e-07
-2.01223e-07
-1.33937e-07
-1.71438e-07
-1.34818e-07
-1.41275e-07
-1.29963e-07
-1.12124e-07
-1.2104e-07
-8.51227e-08
-1.09192e-07
-6.1192e-08
-9.50727e-08
-4.10254e-08
-7.9208e-08
-2.50304e-08
-6.2369e-08
-1.32793e-08
-4.56052e-08
-5.5288e-09
-2.99813e-08
-1.30323e-09
-1.6305e-08
-5.01631e-09
-1.45468e-09
6.26005e-09
-6.16679e-09
2.03443e-08
-1.47881e-08
3.7371e-08
-2.78002e-08
5.67319e-08
-4.53904e-08
7.73499e-08
-6.73648e-08
9.78447e-08
-9.31445e-08
1.16902e-07
-1.21845e-07
1.33606e-07
-1.52357e-07
1.47378e-07
-1.83371e-07
1.57504e-07
-2.13393e-07
1.62741e-07
-2.40846e-07
1.61346e-07
-2.64288e-07
1.51305e-07
-2.82631e-07
1.30399e-07
-2.95189e-07
9.5805e-08
-3.01293e-07
4.29583e-08
-2.99814e-07
-2.70977e-08
-2.91311e-07
-8.31655e-08
-2.76302e-07
-1.21496e-07
-2.55194e-07
-1.46385e-07
-2.28837e-07
-1.60295e-07
-1.98607e-07
-1.65048e-07
-1.66239e-07
-1.62331e-07
-1.33565e-07
-1.53714e-07
-1.02318e-07
-1.40438e-07
-7.40114e-08
-1.2338e-07
-4.98201e-08
-1.03399e-07
-3.04717e-08
-8.17174e-08
-1.619e-08
-5.98869e-08
-6.74699e-09
-3.94245e-08
-1.59175e-09
-2.14603e-08
-6.60806e-09
-1.7596e-09
8.01965e-09
-7.4527e-09
2.60374e-08
-1.78397e-08
4.7758e-08
-3.34357e-08
7.2328e-08
-5.43416e-08
9.82558e-08
-8.0121e-08
1.23624e-07
-1.09792e-07
1.46572e-07
-1.41937e-07
1.65751e-07
-1.74864e-07
1.80305e-07
-2.06735e-07
1.89375e-07
-2.35728e-07
1.91734e-07
-2.60293e-07
1.85911e-07
-2.79469e-07
1.70481e-07
-2.93087e-07
1.44017e-07
-3.01729e-07
1.04446e-07
-3.06261e-07
4.74902e-08
-3.06767e-07
-2.6591e-08
-3.02922e-07
-8.70106e-08
-2.93804e-07
-1.30615e-07
-2.78408e-07
-1.61782e-07
-2.56344e-07
-1.82358e-07
-2.28146e-07
-1.93246e-07
-1.95251e-07
-1.95226e-07
-1.59759e-07
-1.89206e-07
-1.24093e-07
-1.76104e-07
-9.06398e-08
-1.56832e-07
-6.13976e-08
-1.32642e-07
-3.769e-08
-1.05425e-07
-2.0061e-08
-7.75159e-08
-8.36452e-09
-5.1121e-08
-1.97261e-09
-2.78522e-08
-8.58067e-09
-2.16945e-09
1.01891e-08
-9.17261e-09
3.30406e-08
-2.18917e-08
6.04771e-08
-4.08344e-08
9.12707e-08
-6.58959e-08
1.23317e-07
-9.61953e-08
1.53923e-07
-1.30088e-07
1.80465e-07
-1.65376e-07
2.0104e-07
-1.99634e-07
2.14562e-07
-2.3053e-07
2.20271e-07
-2.56169e-07
2.17373e-07
-2.75439e-07
2.05182e-07
-2.88274e-07
1.83316e-07
-2.95688e-07
1.51432e-07
-2.99545e-07
1.08303e-07
-3.02078e-07
5.00234e-08
-3.04517e-07
-2.41526e-08
-3.05851e-07
-8.56765e-08
-3.04019e-07
-1.32447e-07
-2.96726e-07
-1.69074e-07
-2.82114e-07
-1.96971e-07
-2.59289e-07
-2.1607e-07
-2.28669e-07
-2.25847e-07
-1.9204e-07
-2.25835e-07
-1.52317e-07
-2.15827e-07
-1.12982e-07
-1.96168e-07
-7.73251e-08
-1.68298e-07
-4.77595e-08
-1.34991e-07
-2.54972e-08
-9.97781e-08
-1.06401e-08
-6.59781e-08
-2.5077e-09
-3.59846e-08
-1.10884e-08
-2.74694e-09
1.2936e-08
-1.15804e-08
4.18741e-08
-2.75028e-08
7.63995e-08
-5.09052e-08
1.14673e-07
-8.12374e-08
1.53649e-07
-1.16827e-07
1.89513e-07
-1.55001e-07
2.18638e-07
-1.92534e-07
2.38573e-07
-2.26267e-07
2.48295e-07
-2.53676e-07
2.4768e-07
-2.73312e-07
2.37008e-07
-2.85045e-07
2.16915e-07
-2.90059e-07
1.88329e-07
-2.90573e-07
1.51946e-07
-2.89454e-07
1.07184e-07
-2.89855e-07
5.04242e-08
-2.93863e-07
-2.0145e-08
-3.00083e-07
-7.94564e-08
-3.05876e-07
-1.26655e-07
-3.08179e-07
-1.6677e-07
-3.03878e-07
-2.01272e-07
-2.90344e-07
-2.29604e-07
-2.66135e-07
-2.50056e-07
-2.31655e-07
-2.60315e-07
-1.89484e-07
-2.57998e-07
-1.44015e-07
-2.41636e-07
-1.00308e-07
-2.12006e-07
-6.26568e-08
-1.72642e-07
-3.36561e-08
-1.28779e-07
-1.40767e-08
-8.55574e-08
-3.31582e-09
-4.67454e-08
-1.44042e-08
-3.60393e-09
1.654e-08
-1.51045e-08
5.33746e-08
-3.55575e-08
9.68525e-08
-6.49697e-08
1.44085e-07
-1.01885e-07
1.90565e-07
-1.43299e-07
2.30927e-07
-1.85096e-07
2.60435e-07
-2.22945e-07
2.76422e-07
-2.533e-07
2.78651e-07
-2.74118e-07
2.68498e-07
-2.85124e-07
2.48014e-07
-2.87667e-07
2.19459e-07
-2.84269e-07
1.84931e-07
-2.78071e-07
1.45748e-07
-2.72428e-07
1.01541e-07
-2.7083e-07
4.88264e-08
-2.75831e-07
-1.51444e-08
-2.85924e-07
-6.93635e-08
-2.98492e-07
-1.14086e-07
-3.10468e-07
-1.54795e-07
-3.18197e-07
-1.93543e-07
-3.17639e-07
-2.30162e-07
-3.05044e-07
-2.62651e-07
-2.78145e-07
-2.87214e-07
-2.37535e-07
-2.98608e-07
-1.87351e-07
-2.9182e-07
-1.34364e-07
-2.64992e-07
-8.57103e-08
-2.21296e-07
-4.66617e-08
-1.67827e-07
-1.96585e-08
-1.12561e-07
-4.64384e-09
-6.176e-08
-1.9048e-08
-4.93267e-09
2.14727e-08
-2.042e-08
6.88619e-08
-4.73053e-08
1.23738e-07
-8.46063e-08
1.81386e-07
-1.2916e-07
2.35118e-07
-1.75941e-07
2.77708e-07
-2.19157e-07
3.03651e-07
-2.53764e-07
3.11029e-07
-2.7672e-07
3.01607e-07
-2.87466e-07
2.79244e-07
-2.87611e-07
2.48159e-07
-2.80158e-07
2.12006e-07
-2.68664e-07
1.73437e-07
-2.56627e-07
1.33711e-07
-2.473e-07
9.22144e-08
-2.43968e-07
4.54937e-08
-2.49264e-07
-9.84793e-09
-2.61736e-07
-5.68914e-08
-2.79203e-07
-9.66192e-08
-2.99271e-07
-1.34727e-07
-3.18739e-07
-1.74075e-07
-3.3321e-07
-2.15691e-07
-3.3718e-07
-2.58681e-07
-3.25074e-07
-2.9932e-07
-2.93485e-07
-3.30196e-07
-2.43757e-07
-3.41548e-07
-1.82787e-07
-3.25962e-07
-1.20818e-07
-2.83265e-07
-6.75162e-08
-2.21129e-07
-2.89567e-08
-1.5112e-07
-6.92612e-09
-8.37906e-08
-2.59741e-08
-7.01053e-09
2.84832e-08
-2.83391e-08
9.01905e-08
-6.38691e-08
1.59268e-07
-1.10448e-07
2.27965e-07
-1.62069e-07
2.86739e-07
-2.1117e-07
3.2681e-07
-2.50723e-07
3.43204e-07
-2.76198e-07
3.36504e-07
-2.86505e-07
3.11914e-07
-2.8361e-07
2.76349e-07
-2.71307e-07
2.35856e-07
-2.53887e-07
1.94587e-07
-2.35246e-07
1.54796e-07
-2.18555e-07
1.17021e-07
-2.06444e-07
8.01034e-08
-2.01599e-07
4.06487e-08
-2.06435e-07
-5.01172e-09
-2.19588e-07
-4.37387e-08
-2.39418e-07
-7.67898e-08
-2.64518e-07
-1.09626e-07
-2.92917e-07
-1.45677e-07
-3.21226e-07
-1.87382e-07
-3.4387e-07
-2.36037e-07
-3.5305e-07
-2.9014e-07
-3.40593e-07
-3.42653e-07
-3.02062e-07
-3.80079e-07
-2.40706e-07
-3.87319e-07
-1.67702e-07
-3.56269e-07
-9.77953e-08
-2.91036e-07
-4.33418e-08
-2.05573e-07
-1.06532e-08
-1.16479e-07
-3.66273e-08
-1.01341e-08
3.86173e-08
-3.93417e-08
1.19398e-07
-8.48821e-08
2.04808e-07
-1.39563e-07
2.82647e-07
-1.93499e-07
3.40674e-07
-2.37061e-07
3.70371e-07
-2.63758e-07
3.69902e-07
-2.71767e-07
3.44513e-07
-2.63539e-07
3.03686e-07
-2.44039e-07
2.56848e-07
-2.18729e-07
2.10546e-07
-1.92216e-07
1.68075e-07
-1.67815e-07
1.30394e-07
-1.47746e-07
9.69512e-08
-1.33677e-07
6.60343e-08
-1.27485e-07
3.44571e-08
-1.31177e-07
-1.31957e-09
-1.43433e-07
-3.14828e-08
-1.63009e-07
-5.72135e-08
-1.89358e-07
-8.32779e-08
-2.21896e-07
-1.13139e-07
-2.59126e-07
-1.50151e-07
-2.9737e-07
-1.97792e-07
-3.2945e-07
-2.5806e-07
-3.44568e-07
-3.27536e-07
-3.31784e-07
-3.92863e-07
-2.86323e-07
-4.32779e-07
-2.14602e-07
-4.27989e-07
-1.33283e-07
-3.72356e-07
-6.21958e-08
-2.7666e-07
-1.59892e-08
-1.62686e-07
-5.26166e-08
-1.46023e-08
5.32196e-08
-5.31348e-08
1.57931e-07
-1.07144e-07
2.58818e-07
-1.63282e-07
3.38784e-07
-2.0812e-07
3.85512e-07
-2.32584e-07
3.94835e-07
-2.34133e-07
3.71451e-07
-2.16119e-07
3.26499e-07
-1.85214e-07
2.72781e-07
-1.48524e-07
2.20159e-07
-1.1168e-07
1.73701e-07
-7.82496e-08
1.34645e-07
-5.01269e-08
1.02272e-07
-2.82163e-08
7.50405e-08
-1.31336e-08
5.09517e-08
-5.92229e-09
2.72459e-08
-8.10621e-09
8.64343e-10
-1.83756e-08
-2.12135e-08
-3.5677e-08
-3.99121e-08
-5.995e-08
-5.90049e-08
-9.16022e-08
-8.14867e-08
-1.30955e-07
-1.10799e-07
-1.77184e-07
-1.51563e-07
-2.26633e-07
-2.08611e-07
-2.70333e-07
-2.83836e-07
-2.9449e-07
-3.68706e-07
-2.85348e-07
-4.41921e-07
-2.37925e-07
-4.75412e-07
-1.62424e-07
-4.47857e-07
-8.21338e-08
-3.56951e-07
-2.26612e-08
-2.22158e-07
-7.52778e-08
-2.09963e-08
7.4216e-08
-6.87897e-08
2.05724e-07
-1.24448e-07
3.14477e-07
-1.67894e-07
3.8223e-07
-1.85972e-07
4.0359e-07
-1.75514e-07
3.84377e-07
-1.41737e-07
3.37674e-07
-9.40425e-08
2.78804e-07
-4.17854e-08
2.20523e-07
8.19975e-09
1.70174e-07
5.21604e-08
1.2974e-07
8.86655e-08
9.81394e-08
1.17616e-07
7.33213e-08
1.39382e-07
5.3275e-08
1.54224e-07
3.61091e-08
1.61788e-07
1.96824e-08
1.60999e-07
1.65332e-09
1.53123e-07
-1.3338e-08
1.39131e-07
-2.59195e-08
1.18918e-07
-3.87922e-08
9.16439e-08
-5.42127e-08
5.58808e-08
-7.50358e-08
9.93034e-09
-1.05612e-07
-4.64528e-08
-1.52228e-07
-1.10325e-07
-2.19963e-07
-1.71203e-07
-3.07828e-07
-2.11459e-07
-4.01665e-07
-2.13105e-07
-4.73767e-07
-1.70217e-07
-4.90744e-07
-9.82773e-08
-4.2889e-07
-3.04924e-08
-2.89943e-07
-1.0577e-07
-3.0274e-08
1.0449e-07
-8.3966e-08
2.59416e-07
-1.26573e-07
3.57083e-07
-1.36341e-07
3.91998e-07
-1.09237e-07
3.76487e-07
-5.39363e-08
3.29076e-07
1.57277e-08
2.6801e-07
8.71795e-08
2.07353e-07
1.52205e-07
1.55498e-07
2.0717e-07
1.15209e-07
2.51543e-07
8.53684e-08
2.86296e-07
6.33861e-08
3.12803e-07
4.68138e-08
3.32278e-07
3.38003e-08
3.45493e-07
2.28942e-08
3.52526e-07
1.26496e-08
3.5267e-07
1.50916e-09
3.47046e-07
-7.71394e-09
3.36525e-07
-1.53981e-08
3.20998e-07
-2.32652e-08
2.99588e-07
-3.2803e-08
2.70561e-07
-4.60093e-08
2.31151e-07
-6.62016e-08
1.77615e-07
-9.86926e-08
1.07374e-07
-1.49722e-07
2.29687e-08
-2.23423e-07
-6.2626e-08
-3.1607e-07
-1.25781e-07
-4.10612e-07
-1.41833e-07
-4.74693e-07
-1.04144e-07
-4.66579e-07
-3.93654e-08
-3.54722e-07
-1.45136e-07
-4.16581e-08
1.46148e-07
-8.9646e-08
3.07404e-07
-9.41756e-08
3.61613e-07
-4.81424e-08
3.45965e-07
3.27329e-08
2.95612e-07
1.27675e-07
2.34134e-07
2.19844e-07
1.7584e-07
2.99693e-07
1.27504e-07
3.64177e-07
9.10136e-08
4.14226e-07
6.51592e-08
4.52327e-07
4.72676e-08
4.81035e-07
3.46781e-08
5.02401e-07
2.54481e-08
5.17882e-07
1.83189e-08
5.28364e-07
1.24126e-08
5.34096e-07
6.91725e-09
5.34636e-07
9.69455e-10
5.30868e-07
-3.94566e-09
5.23495e-07
-8.02567e-09
5.12442e-07
-1.22118e-08
4.96977e-07
-1.73382e-08
4.75537e-07
-2.45693e-08
4.45266e-07
-3.59308e-08
4.01463e-07
-5.48888e-08
3.38052e-07
-8.63119e-08
2.50226e-07
-1.35596e-07
1.40405e-07
-2.0625e-07
2.54312e-08
-2.95638e-07
-6.20232e-08
-3.87238e-07
-8.72937e-08
-4.41309e-07
-4.65823e-08
-3.95434e-07
-1.91718e-07
-5.02521e-08
1.964e-07
-5.97791e-08
3.16931e-07
7.22778e-09
2.94606e-07
1.17751e-07
2.35442e-07
2.38379e-07
1.74983e-07
3.48521e-07
1.23993e-07
4.38868e-07
8.54933e-08
5.08144e-07
5.82278e-08
5.59339e-07
3.98188e-08
5.96713e-07
2.77847e-08
6.24079e-07
1.99019e-08
6.44228e-07
1.45289e-08
6.59029e-07
1.06471e-08
6.69683e-07
7.66514e-09
6.76894e-07
5.20093e-09
6.80901e-07
2.91087e-09
6.81437e-07
4.33522e-10
6.79106e-07
-1.61513e-09
6.74397e-07
-3.3166e-09
6.67257e-07
-5.07178e-09
6.57163e-07
-7.24382e-09
6.42948e-07
-1.03548e-08
6.22354e-07
-1.53364e-08
5.9131e-07
-2.38455e-08
5.43445e-07
-3.84468e-08
4.70599e-07
-6.27502e-08
3.6587e-07
-1.0152e-07
2.30601e-07
-1.6037e-07
8.49196e-08
-2.41557e-07
-2.49693e-08
-3.3142e-07
-4.58126e-08
-3.7459e-07
-2.3753e-07
-2.7534e-08
2.23934e-07
7.13006e-08
2.18096e-07
2.2425e-07
1.41656e-07
3.68769e-07
9.09228e-08
4.86424e-07
5.73282e-08
5.74911e-07
3.55059e-08
6.382e-07
2.22041e-08
6.82241e-07
1.41867e-08
7.12709e-07
9.35048e-09
7.34072e-07
6.42171e-09
7.49387e-07
4.58717e-09
7.60558e-07
3.3583e-09
7.68734e-07
2.47097e-09
7.74614e-07
1.78491e-09
7.78601e-07
1.21426e-09
7.80832e-07
6.79644e-10
7.81167e-07
9.90638e-11
7.79934e-07
-3.82831e-10
7.77403e-07
-7.85407e-10
7.73537e-07
-1.2055e-09
7.68026e-07
-1.73293e-09
7.60172e-07
-2.50129e-09
7.48589e-07
-3.75282e-09
7.30672e-07
-5.92863e-09
7.01977e-07
-9.75192e-09
6.55628e-07
-1.64015e-08
5.82104e-07
-2.79958e-08
4.70458e-07
-4.87234e-08
3.14525e-07
-8.56237e-08
1.31004e-07
-1.47899e-07
-5.75164e-09
-2.37835e-07
-2.43282e-07
2.23934e-07
4.4203e-07
5.83687e-07
6.7461e-07
7.31938e-07
7.67444e-07
7.89648e-07
8.03835e-07
8.13185e-07
8.19607e-07
8.24194e-07
8.27552e-07
8.30023e-07
8.31808e-07
8.33022e-07
8.33702e-07
8.33801e-07
8.33418e-07
8.32633e-07
8.31427e-07
8.29694e-07
8.27193e-07
8.2344e-07
8.17512e-07
8.0776e-07
7.91358e-07
7.63362e-07
7.14639e-07
6.29015e-07
4.81117e-07
2.43282e-07
)
;

boundaryField
{
    movingWall
    {
        type            calculated;
        value           uniform 0;
    }
    fixedWalls
    {
        type            calculated;
        value           uniform 0;
    }
    frontAndBack
    {
        type            empty;
        value           nonuniform List<scalar> 0();
    }
}


// ************************************************************************* //
