/*--------------------------------*- C++ -*----------------------------------*\
| =========                 |                                                 |
| \\      /  F ield         | OpenFOAM: The Open Source CFD Toolbox           |
|  \\    /   O peration     | Version:  2206                                  |
|   \\  /    A nd           | Website:  www.openfoam.com                      |
|    \\/     M anipulation  |                                                 |
\*---------------------------------------------------------------------------*/
FoamFile
{
    version     2.0;
    format      ascii;
    arch        "LSB;label=64;scalar=64";
    class       volScalarField;
    location    "16";
    object      Sch4;
}
// * * * * * * * * * * * * * * * * * * * * * * * * * * * * * * * * * * * * * //

dimensions      [0 0 0 0 0 0 0];

internalField   nonuniform List<scalar> 
1024
(
3.31174e-11
3.46186e-11
3.93082e-11
4.78311e-11
6.10944e-11
8.02505e-11
1.06628e-10
1.41579e-10
1.86216e-10
2.41016e-10
3.05331e-10
3.76929e-10
4.51761e-10
5.2413e-10
5.8696e-10
6.30831e-10
6.40109e-10
6.12267e-10
5.60312e-10
4.93441e-10
4.19477e-10
3.45419e-10
2.76723e-10
2.16805e-10
1.67131e-10
1.27701e-10
9.76298e-11
7.56534e-11
6.0466e-11
5.08862e-11
4.59204e-11
4.47963e-11
3.81792e-11
3.98727e-11
4.51816e-11
5.48266e-11
6.98171e-11
9.14309e-11
1.21136e-10
1.6042e-10
2.10496e-10
2.71864e-10
3.43771e-10
4.23705e-10
5.07143e-10
5.87748e-10
6.57679e-10
7.06524e-10
7.16978e-10
6.86198e-10
6.28527e-10
5.54135e-10
4.71692e-10
3.88993e-10
3.12145e-10
2.45e-10
1.89241e-10
1.44908e-10
1.11047e-10
8.62683e-11
6.91257e-11
5.82988e-11
5.26726e-11
5.13784e-11
5.26739e-11
5.49188e-11
6.19951e-11
7.48387e-11
9.47498e-11
1.23363e-10
1.62544e-10
2.14167e-10
2.79732e-10
3.5981e-10
4.53349e-10
5.57041e-10
6.65016e-10
7.69118e-10
8.59318e-10
9.22365e-10
9.36183e-10
8.97016e-10
8.2304e-10
7.27197e-10
6.20586e-10
5.13264e-10
4.13193e-10
3.25461e-10
2.52365e-10
1.94063e-10
1.49402e-10
1.16636e-10
9.39156e-11
7.95284e-11
7.20199e-11
7.02547e-11
8.31616e-11
8.65396e-11
9.72573e-11
1.16686e-10
1.46714e-10
1.89696e-10
2.48293e-10
3.2515e-10
4.22339e-10
5.40551e-10
6.78112e-10
8.30082e-10
9.87853e-10
1.13958e-09
1.27084e-09
1.36268e-09
1.38341e-09
1.32742e-09
1.22055e-09
1.08133e-09
9.25725e-10
7.68379e-10
6.21026e-10
4.91297e-10
3.82766e-10
2.95861e-10
2.29048e-10
1.79877e-10
1.4568e-10
1.23955e-10
1.1256e-10
1.09822e-10
1.43667e-10
1.49215e-10
1.66941e-10
1.99037e-10
2.48489e-10
3.18992e-10
4.14685e-10
5.39629e-10
6.96926e-10
8.87442e-10
1.10827e-09
1.35135e-09
1.6029e-09
1.84417e-09
2.05252e-09
2.19846e-09
2.23246e-09
2.14534e-09
1.97717e-09
1.7567e-09
1.509e-09
1.25729e-09
1.02045e-09
8.10991e-10
6.3499e-10
4.93476e-10
3.84268e-10
3.03628e-10
2.47367e-10
2.115e-10
1.92596e-10
1.87964e-10
2.65232e-10
2.74951e-10
3.06236e-10
3.62817e-10
4.49734e-10
5.73171e-10
7.39995e-10
9.56858e-10
1.22869e-09
1.55656e-09
1.9351e-09
2.35023e-09
2.77836e-09
3.18783e-09
3.54081e-09
3.78838e-09
3.84793e-09
3.70361e-09
3.4215e-09
3.04921e-09
2.62856e-09
2.19883e-09
1.79244e-09
1.43129e-09
1.12644e-09
8.80265e-10
6.89555e-10
5.48238e-10
4.49317e-10
3.8603e-10
3.52521e-10
3.44179e-10
5.20163e-10
5.38199e-10
5.96706e-10
7.02397e-10
8.64277e-10
1.0933e-09
1.40152e-09
1.80044e-09
2.29832e-09
2.89628e-09
3.58379e-09
4.33478e-09
5.10645e-09
5.84217e-09
6.47518e-09
6.9198e-09
7.03044e-09
6.7781e-09
6.27806e-09
5.61334e-09
4.85748e-09
4.08077e-09
3.34213e-09
2.68225e-09
2.12246e-09
1.66835e-09
1.31508e-09
1.05232e-09
8.6773e-10
7.49215e-10
6.86201e-10
6.70322e-10
1.08751e-09
1.12305e-09
1.23925e-09
1.44894e-09
1.76912e-09
2.22036e-09
2.82505e-09
3.60419e-09
4.57218e-09
5.72949e-09
7.05413e-09
8.49471e-09
9.9688e-09
1.13692e-08
1.25715e-08
1.34173e-08
1.36356e-08
1.31704e-08
1.22338e-08
1.09785e-08
9.54062e-09
8.05312e-09
6.62955e-09
5.35016e-09
4.2588e-09
3.36892e-09
2.67345e-09
2.15399e-09
1.78766e-09
1.55159e-09
1.42558e-09
1.39355e-09
2.44245e-09
2.51727e-09
2.76398e-09
3.20862e-09
3.88547e-09
4.83555e-09
6.10299e-09
7.72832e-09
9.73768e-09
1.2128e-08
1.485e-08
1.77953e-08
2.07946e-08
2.36321e-08
2.60619e-08
2.77744e-08
2.82343e-08
2.73268e-08
2.54658e-08
2.29469e-08
2.00376e-08
1.70042e-08
1.40798e-08
1.14335e-08
9.16164e-09
7.29844e-09
5.83462e-09
4.73607e-09
3.95804e-09
3.4547e-09
3.18505e-09
3.11609e-09
5.94577e-09
6.11534e-09
6.67958e-09
7.69517e-09
9.23606e-09
1.13897e-08
1.4249e-08
1.78965e-08
2.23813e-08
2.76859e-08
3.36915e-08
4.01516e-08
4.66931e-08
5.28513e-08
5.81086e-08
6.18212e-08
6.28621e-08
6.09807e-08
5.70359e-08
5.16357e-08
4.53368e-08
3.87089e-08
3.22641e-08
2.63854e-08
2.13014e-08
1.71038e-08
1.37859e-08
1.12824e-08
9.50082e-09
8.34341e-09
7.72112e-09
7.5614e-09
1.583e-08
1.62467e-08
1.76471e-08
2.01642e-08
2.39698e-08
2.92643e-08
3.62561e-08
4.5124e-08
5.59598e-08
6.86931e-08
8.30118e-08
9.8309e-08
1.13697e-07
1.281e-07
1.4035e-07
1.4902e-07
1.51568e-07
1.47406e-07
1.38441e-07
1.26003e-07
1.11327e-07
9.57181e-08
8.03876e-08
6.62731e-08
5.39613e-08
4.37164e-08
3.55618e-08
2.93705e-08
2.49405e-08
2.20492e-08
2.04891e-08
2.0088e-08
4.64757e-08
4.7593e-08
5.13884e-08
5.82006e-08
6.84604e-08
8.26622e-08
1.01306e-07
1.24799e-07
1.53302e-07
1.86546e-07
2.23638e-07
2.62949e-07
3.02189e-07
3.3867e-07
3.69567e-07
3.9148e-07
3.98252e-07
3.88405e-07
3.6648e-07
3.35578e-07
2.98623e-07
2.58821e-07
2.19267e-07
1.82451e-07
1.50014e-07
1.22776e-07
1.00919e-07
8.42035e-08
7.21691e-08
6.42745e-08
5.99984e-08
5.88993e-08
1.51521e-07
1.54801e-07
1.66083e-07
1.86303e-07
2.16627e-07
2.58368e-07
3.12804e-07
3.80889e-07
4.62833e-07
5.57581e-07
6.62341e-07
7.72353e-07
8.81182e-07
9.81562e-07
1.06614e-06
1.12626e-06
1.14586e-06
1.12095e-06
1.06317e-06
9.80209e-07
8.79417e-07
7.69254e-07
6.58263e-07
5.53625e-07
4.60344e-07
3.81175e-07
3.17037e-07
2.67577e-07
2.31713e-07
2.08049e-07
1.95179e-07
1.91877e-07
5.51319e-07
5.61878e-07
5.98718e-07
6.64639e-07
7.63053e-07
8.97676e-07
1.07194e-06
1.28808e-06
1.54582e-06
1.84089e-06
2.16374e-06
2.49918e-06
2.82756e-06
3.12766e-06
3.37894e-06
3.5579e-06
3.6196e-06
3.55258e-06
3.38884e-06
3.14855e-06
2.85119e-06
2.52055e-06
2.182e-06
1.85798e-06
1.56511e-06
1.31341e-06
1.1072e-06
9.46628e-07
8.2922e-07
7.51236e-07
7.08634e-07
6.97734e-07
2.24394e-06
2.28107e-06
2.41288e-06
2.64838e-06
2.9982e-06
3.47344e-06
4.0835e-06
4.83297e-06
5.71728e-06
6.7182e-06
7.80027e-06
8.91069e-06
9.98461e-06
1.09553e-05
1.17617e-05
1.23368e-05
1.25465e-05
1.23567e-05
1.18614e-05
1.11157e-05
1.01729e-05
9.10318e-06
7.98677e-06
6.89908e-06
5.89967e-06
5.02787e-06
4.30411e-06
3.73395e-06
3.31298e-06
3.0312e-06
2.87648e-06
2.83706e-06
1.01998e-05
1.03412e-05
1.08535e-05
1.17676e-05
1.31181e-05
1.49387e-05
1.72538e-05
2.00673e-05
2.33473e-05
2.70115e-05
3.0918e-05
3.48695e-05
3.86361e-05
4.19952e-05
4.47579e-05
4.67267e-05
4.74851e-05
4.69297e-05
4.53542e-05
4.29114e-05
3.9745e-05
3.60662e-05
3.21387e-05
2.82298e-05
2.45666e-05
2.13134e-05
1.85691e-05
1.63771e-05
1.47397e-05
1.36337e-05
1.30227e-05
1.28679e-05
4.85666e-05
4.91093e-05
5.11246e-05
5.4715e-05
5.99871e-05
6.70333e-05
7.59001e-05
8.65453e-05
9.87881e-05
0.000112264
0.000126403
0.000140465
0.000153639
0.000165192
0.000174564
0.000181213
0.000183896
0.00018234
0.000177457
0.000169638
0.000159217
0.000146777
0.000133138
0.000119214
0.000105853
9.3728e-05
8.33024e-05
7.48359e-05
6.84242e-05
6.40462e-05
6.16115e-05
6.09996e-05
0.000199703
0.000201443
0.000208076
0.000219877
0.000237104
0.000259934
0.000288367
0.000322097
0.000360371
0.000401872
0.000444706
0.00048655
0.000525012
0.000558106
0.000584515
0.000603107
0.000610897
0.000607399
0.000595015
0.00057454
0.000546483
0.000512025
0.00047315
0.000432336
0.000392117
0.000354721
0.000321861
0.000294675
0.000273767
0.000259322
0.000251231
0.000249218
0.000634356
0.000638555
0.000655052
0.000684408
0.000727081
0.000783277
0.000852712
0.000934313
0.00102589
0.00112393
0.00122364
0.0013194
0.00140582
0.00147877
0.00153602
0.00157597
0.00159325
0.00158745
0.00156362
0.00152304
0.00146606
0.00139424
0.00131096
0.00122104
0.00112995
0.00104306
0.000964917
0.000898969
0.000847414
0.000811341
0.000790969
0.000785936
0.00161626
0.00162419
0.00165646
0.00171401
0.00179756
0.00190724
0.00204217
0.00219981
0.00237535
0.00256134
0.002748
0.00292446
0.00308081
0.00321033
0.00331024
0.00337928
0.00340984
0.0034024
0.00336574
0.00330182
0.0032104
0.0030928
0.00295313
0.00279826
0.002637
0.00247892
0.00233318
0.00220747
0.00210742
0.00203642
0.00199594
0.00198595
0.00341791
0.00343006
0.00348155
0.00357396
0.00370844
0.00388524
0.00410274
0.00435637
0.00463742
0.00493271
0.00522544
0.00549779
0.00573473
0.00592733
0.00607338
0.00617322
0.00621809
0.00621025
0.00616284
0.00607894
0.00595786
0.00580028
0.00560997
0.0053942
0.00516348
0.00493078
0.00471021
0.00451516
0.00435662
0.00424225
0.00417623
0.00415979
0.00620342
0.00621892
0.00628837
0.00641446
0.00659949
0.00684441
0.00714718
0.00750075
0.00789136
0.00829839
0.00869669
0.00906115
0.00937232
0.00962053
0.00980565
0.0099308
0.00998741
0.00998011
0.00992613
0.00983015
0.00969192
0.00951211
0.00929382
0.00904292
0.00876851
0.0084836
0.00820485
0.00795076
0.0077387
0.00758239
0.00749058
0.00746718
0.00996152
0.00997825
0.0100598
0.0102111
0.0104365
0.0107389
0.011116
0.0115577
0.0120438
0.0125453
0.0130287
0.0134632
0.0138271
0.0141122
0.0143216
0.0144615
0.0145249
0.0145183
0.0144621
0.0143626
0.0142211
0.0140396
0.0138216
0.0135714
0.0132943
0.0129987
0.0126989
0.0124149
0.0121692
0.0119825
0.0118699
0.01184
0.0145238
0.014539
0.0146245
0.0147886
0.0150397
0.0153828
0.0158151
0.0163219
0.0168758
0.0174394
0.0179733
0.0184441
0.0188314
0.0191296
0.0193456
0.0194885
0.0195528
0.0195468
0.0194918
0.0193956
0.0192613
0.0190934
0.0188976
0.0186782
0.018437
0.0181752
0.0178992
0.0176244
0.0173743
0.0171754
0.0170506
0.0170149
0.0196352
0.0196461
0.0197277
0.0198934
0.020156
0.0205224
0.0209872
0.0215297
0.0221148
0.0227
0.0232437
0.0237144
0.0240949
0.0243838
0.0245904
0.024726
0.0247866
0.0247808
0.0247297
0.0246413
0.0245203
0.0243736
0.02421
0.0240362
0.0238529
0.0236555
0.0234401
0.0232118
0.0229886
0.0227984
0.0226713
0.022631
0.0250272
0.0250319
0.0251043
0.0252642
0.0255281
0.0259017
0.0263744
0.0269188
0.0274951
0.0280598
0.0285747
0.0290129
0.0293621
0.029624
0.0298095
0.0299303
0.0299839
0.0299784
0.0299329
0.0298552
0.0297505
0.0296271
0.0294961
0.0293673
0.0292437
0.0291187
0.028981
0.0288235
0.0286528
0.0284916
0.028373
0.0283299
0.0304647
0.0304628
0.0305251
0.0306769
0.0309347
0.031299
0.0317525
0.0322634
0.0327921
0.0333
0.0337551
0.034137
0.0344379
0.0346616
0.0348189
0.0349207
0.0349655
0.0349604
0.0349217
0.0348563
0.0347691
0.0346683
0.0345658
0.0344733
0.0343968
0.0343323
0.0342665
0.0341845
0.0340799
0.0339635
0.0338645
0.0338216
0.0357656
0.0357591
0.0358144
0.0359585
0.0362021
0.0365376
0.036943
0.0373875
0.0378373
0.0382617
0.0386369
0.0389486
0.0391922
0.039372
0.0394978
0.0395788
0.0396143
0.0396099
0.0395787
0.0395263
0.0394568
0.0393774
0.0392988
0.0392327
0.039187
0.0391612
0.0391457
0.0391245
0.0390833
0.0390193
0.0389496
0.0389114
0.0408017
0.0407946
0.0408483
0.040983
0.0411991
0.0414832
0.041814
0.0421671
0.0425178
0.0428444
0.0431306
0.0433666
0.04355
0.0436849
0.0437788
0.0438392
0.0438655
0.0438619
0.0438384
0.0437991
0.0437469
0.0436876
0.0436296
0.0435828
0.0435548
0.0435479
0.0435571
0.043571
0.0435754
0.0435589
0.0435238
0.0434956
0.0454909
0.0454889
0.0455429
0.0456586
0.0458285
0.04604
0.046278
0.0465268
0.0467708
0.0469963
0.0471927
0.0473541
0.0474792
0.0475709
0.0476346
0.0476755
0.0476932
0.0476906
0.0476745
0.0476476
0.047612
0.0475715
0.047532
0.0475006
0.0474831
0.0474824
0.0474968
0.0475206
0.0475448
0.0475585
0.0475544
0.0475405
0.0497869
0.0497933
0.0498388
0.0499178
0.0500239
0.0501503
0.0502894
0.050433
0.050573
0.0507019
0.0508139
0.0509058
0.0509768
0.0510288
0.0510649
0.051088
0.051098
0.0510965
0.0510873
0.051072
0.0510517
0.0510285
0.0510059
0.0509879
0.050978
0.0509782
0.0509881
0.0510058
0.0510273
0.0510473
0.0510592
0.0510593
0.0536667
0.0536716
0.0536898
0.0537174
0.0537527
0.0537939
0.0538388
0.0538849
0.0539298
0.053971
0.0540068
0.0540362
0.0540588
0.0540754
0.0540869
0.0540943
0.0540975
0.054097
0.054094
0.0540891
0.0540826
0.0540752
0.0540679
0.0540621
0.0540588
0.0540588
0.0540621
0.0540681
0.0540759
0.0540843
0.0540913
0.054094
)
;

boundaryField
{
    movingWall
    {
        type            fixedValue;
        value           uniform 0.0555;
    }
    fixedWalls
    {
        type            zeroGradient;
    }
    frontAndBack
    {
        type            empty;
    }
}


// ************************************************************************* //
