/*--------------------------------*- C++ -*----------------------------------*\
| =========                 |                                                 |
| \\      /  F ield         | OpenFOAM: The Open Source CFD Toolbox           |
|  \\    /   O peration     | Version:  2206                                  |
|   \\  /    A nd           | Website:  www.openfoam.com                      |
|    \\/     M anipulation  |                                                 |
\*---------------------------------------------------------------------------*/
FoamFile
{
    version     2.0;
    format      ascii;
    arch        "LSB;label=64;scalar=64";
    class       surfaceScalarField;
    location    "853200";
    object      phi;
}
// * * * * * * * * * * * * * * * * * * * * * * * * * * * * * * * * * * * * * //

dimensions      [0 3 -1 0 0 0 0];

oriented        oriented;

internalField   nonuniform List<scalar> 
24
(
-1.03001e-10
1.03001e-10
1.34378e-10
-2.3738e-10
5.8309e-11
7.60693e-11
5.8309e-11
-6.60822e-11
1.69084e-10
-7.32608e-11
-2.30201e-10
-4.76982e-11
5.05066e-11
1.06108e-11
4.45605e-12
1.64628e-10
-1.55778e-10
-6.99667e-11
-6.93819e-11
-3.58899e-11
-5.8771e-11
1.64628e-10
9.46609e-11
5.8771e-11
)
;

boundaryField
{
    movingWall
    {
        type            calculated;
        value           nonuniform List<scalar> 4(0 2.01948e-28 0 0);
    }
    fixedWalls
    {
        type            calculated;
        value           uniform 0;
    }
    frontAndBack
    {
        type            empty;
        value           nonuniform List<scalar> 0();
    }
}


// ************************************************************************* //
