/*--------------------------------*- C++ -*----------------------------------*\
| =========                 |                                                 |
| \\      /  F ield         | OpenFOAM: The Open Source CFD Toolbox           |
|  \\    /   O peration     | Version:  2212                                  |
|   \\  /    A nd           | Website:  www.openfoam.com                      |
|    \\/     M anipulation  |                                                 |
\*---------------------------------------------------------------------------*/
FoamFile
{
    version     2.0;
    format      ascii;
    arch        "LSB;label=64;scalar=64";
    class       volScalarField::Internal;
    location    "1020";
    object      dGco2;
}
// * * * * * * * * * * * * * * * * * * * * * * * * * * * * * * * * * * * * * //

dimensions      [1 -3 -1 0 0 0 0];

value           nonuniform List<scalar> 
1024
(
0.000148015
0.000148079
0.000148235
0.000148515
0.000148947
0.000149549
0.000150313
0.000151205
0.000152165
0.000153117
0.000153976
0.000154657
0.000155103
0.000155278
0.000155144
0.000154654
0.00015379
0.000152678
0.00015146
0.000150166
0.000148809
0.000147402
0.000145981
0.000144611
0.000143371
0.000142321
0.000141491
0.000140877
0.000140456
0.000140191
0.000140046
0.000139986
0.000148027
0.000148093
0.000148253
0.00014854
0.000148983
0.000149597
0.000150375
0.000151279
0.00015225
0.000153211
0.000154078
0.000154761
0.000155204
0.000155374
0.000155235
0.00015474
0.000153873
0.000152759
0.00015154
0.000150247
0.000148892
0.000147486
0.000146063
0.000144688
0.000143437
0.000142375
0.000141531
0.000140907
0.000140478
0.000140209
0.00014006
0.00014
0.000148056
0.000148125
0.000148291
0.000148591
0.000149053
0.000149692
0.000150497
0.000151432
0.000152434
0.00015343
0.000154326
0.000155019
0.000155457
0.000155611
0.000155453
0.000154938
0.000154053
0.000152928
0.000151703
0.000150412
0.000149062
0.00014766
0.000146236
0.00014485
0.00014358
0.000142491
0.000141621
0.000140975
0.000140529
0.000140249
0.000140095
0.000140033
0.000148105
0.000148176
0.000148352
0.000148667
0.000149155
0.000149828
0.000150678
0.000151666
0.000152735
0.000153806
0.00015477
0.000155494
0.000155923
0.000156044
0.00015584
0.000155276
0.000154347
0.000153189
0.000151947
0.000150652
0.000149308
0.000147915
0.000146494
0.000145097
0.0001438
0.000142675
0.000141766
0.000141085
0.000140614
0.000140317
0.000140155
0.000140089
0.000148175
0.000148249
0.000148433
0.000148765
0.000149282
0.00015
0.000150913
0.000151989
0.000153172
0.000154377
0.000155462
0.000156249
0.000156672
0.000156736
0.000156448
0.000155788
0.000154767
0.000153538
0.000152255
0.000150945
0.000149606
0.000148226
0.000146814
0.00014541
0.000144086
0.000142919
0.000141962
0.000141238
0.000140733
0.000140415
0.00014024
0.00014017
0.000148267
0.000148343
0.000148533
0.000148882
0.00014943
0.000150202
0.000151201
0.000152404
0.000153761
0.000155171
0.000156442
0.000157333
0.000157759
0.000157742
0.000157322
0.000156504
0.000155322
0.000153966
0.000152603
0.000151256
0.000149912
0.000148546
0.00014715
0.000145748
0.000144405
0.000143197
0.000142192
0.000141421
0.000140879
0.000140536
0.000140349
0.000140273
0.000148385
0.000148462
0.000148657
0.00014902
0.0001496
0.000150435
0.000151544
0.000152921
0.000154516
0.000156205
0.000157728
0.000158772
0.000159215
0.000159095
0.00015849
0.000157439
0.00015601
0.000154448
0.00015295
0.000151532
0.000150167
0.000148813
0.000147438
0.00014605
0.0001447
0.000143466
0.000142421
0.000141609
0.000141034
0.000140669
0.000140469
0.000140388
0.000148539
0.000148616
0.000148814
0.000149189
0.000149802
0.00015071
0.000151955
0.000153549
0.000155447
0.000157484
0.000159317
0.000160556
0.000161032
0.00016079
0.000159949
0.000158584
0.000156806
0.000154941
0.000153238
0.000151707
0.000150299
0.000148947
0.000147598
0.000146237
0.0001449
0.000143662
0.000142599
0.000141765
0.000141169
0.000140789
0.00014058
0.000140496
0.000148752
0.000148828
0.000149028
0.000149414
0.000150063
0.000151054
0.000152459
0.000154315
0.000156574
0.000159018
0.000161204
0.000162662
0.000163173
0.000162786
0.000161663
0.000159905
0.000157663
0.000155378
0.000153386
0.000151693
0.000150216
0.00014886
0.000147541
0.000146222
0.000144925
0.000143714
0.000142667
0.00014184
0.000141246
0.000140865
0.000140655
0.000140569
0.000149071
0.000149145
0.000149346
0.000149746
0.000150437
0.000151527
0.000153121
0.000155284
0.000157958
0.000160849
0.000163406
0.000165077
0.000165601
0.000165044
0.000163598
0.000161368
0.000158533
0.000155688
0.000153305
0.00015139
0.00014982
0.000148454
0.000147176
0.000145922
0.000144697
0.000143555
0.000142567
0.000141785
0.000141221
0.000140857
0.000140653
0.000140569
0.000149581
0.000149654
0.00014986
0.000150281
0.000151029
0.000152242
0.000154064
0.000156585
0.000159721
0.000163076
0.000165984
0.000167825
0.000168326
0.000167576
0.000165785
0.000163018
0.000159446
0.000155859
0.00015294
0.000150722
0.000149022
0.000147643
0.000146422
0.000145264
0.000144155
0.000143132
0.000142251
0.000141555
0.000141051
0.00014072
0.00014053
0.000140449
0.000150426
0.000150501
0.000150719
0.000151179
0.000152017
0.000153401
0.000155508
0.00015844
0.000162058
0.00016585
0.000169046
0.000170991
0.000171438
0.000170519
0.000168418
0.000165098
0.000160665
0.000156112
0.000152429
0.000149748
0.000147832
0.000146405
0.000145245
0.000144215
0.000143267
0.000142412
0.000141685
0.00014111
0.000140688
0.000140405
0.000140238
0.000140165
0.000151806
0.000151888
0.000152135
0.000152665
0.000153643
0.000155267
0.000157733
0.000161119
0.000165199
0.000169346
0.000172728
0.000174713
0.000175142
0.000174186
0.000171948
0.000168221
0.000162967
0.00015729
0.00015252
0.000149016
0.000146607
0.000144955
0.000143766
0.000142839
0.000142065
0.000141406
0.00014086
0.000140432
0.000140122
0.000139918
0.000139801
0.000139752
0.000153933
0.000154031
0.000154328
0.00015497
0.000156151
0.000158092
0.000160981
0.000164832
0.000169306
0.000173681
0.000177138
0.000179171
0.000179755
0.000179077
0.00017712
0.000173482
0.000167896
0.000161327
0.000155294
0.000150454
0.000146933
0.000144486
0.000142817
0.000141679
0.000140901
0.000140374
0.000140037
0.000139857
0.0001398
0.000139823
0.000139877
0.000139918
0.000156936
0.000157058
0.000157429
0.000158227
0.000159673
0.000161995
0.000165334
0.000169598
0.000174329
0.000178782
0.000182258
0.000184466
0.000185529
0.000185634
0.000184688
0.000182222
0.000177721
0.000171636
0.000165254
0.000159371
0.000154394
0.000150432
0.000147414
0.000145229
0.000143813
0.000143079
0.000142904
0.000143122
0.000143553
0.000144029
0.000144412
0.000144619
0.000160616
0.000160768
0.00016122
0.000162172
0.00016386
0.000166488
0.000170132
0.000174603
0.000179401
0.000183848
0.00018742
0.000190001
0.000191815
0.000193098
0.000193884
0.000193959
0.000192827
0.000190227
0.000186647
0.000182645
0.000178632
0.000174884
0.000171499
0.00016854
0.000166122
0.000164341
0.000163248
0.000162767
0.000162748
0.000162984
0.000163269
0.000163452
0.000163814
0.000163971
0.000164429
0.000165381
0.000167041
0.000169587
0.000173066
0.0001773
0.000181871
0.000186227
0.000189914
0.000192789
0.000195025
0.000196933
0.000198827
0.000201016
0.000203529
0.000205819
0.00020744
0.000208372
0.000208668
0.000208377
0.00020754
0.000206219
0.000204513
0.000202573
0.000200614
0.000198859
0.000197498
0.000196614
0.000196162
0.000196011
0.000165892
0.00016604
0.000166459
0.000167314
0.000168793
0.000171054
0.000174148
0.00017794
0.000182091
0.00018612
0.000189575
0.000192219
0.000194098
0.000195475
0.000196765
0.000198565
0.000201453
0.000205269
0.000209306
0.000213178
0.000216658
0.00021959
0.00022185
0.000223339
0.000224015
0.000223912
0.000223175
0.000222053
0.000220849
0.000219833
0.000219166
0.000218872
0.000167066
0.000167202
0.000167574
0.000168314
0.000169581
0.000171517
0.000174182
0.000177486
0.000181159
0.00018479
0.000187943
0.000190309
0.00019181
0.000192602
0.000193052
0.00019379
0.000195657
0.000198938
0.000203075
0.000207596
0.000212149
0.000216477
0.000220364
0.00022363
0.000226144
0.000227849
0.000228776
0.000229054
0.000228886
0.000228518
0.000228172
0.000227982
0.000167643
0.000167769
0.000168097
0.000168733
0.000169804
0.000171431
0.000173682
0.000176504
0.000179693
0.000182909
0.000185757
0.000187911
0.000189218
0.000189741
0.000189774
0.000189883
0.000190922
0.000193405
0.000197049
0.000201508
0.000206473
0.000211643
0.000216689
0.000221279
0.000225127
0.000228064
0.000230059
0.000231212
0.000231712
0.000231797
0.000231702
0.000231609
0.000167826
0.000167943
0.000168235
0.000168783
0.000169687
0.000171046
0.000172923
0.000175294
0.000178009
0.000180801
0.00018334
0.000185326
0.00018659
0.000187147
0.000187225
0.000187304
0.000188121
0.000190171
0.000193337
0.00019744
0.000202302
0.000207705
0.000213339
0.000218815
0.000223715
0.00022771
0.000230638
0.000232518
0.000233523
0.000233911
0.000233962
0.000233914
0.000167802
0.000167903
0.000168153
0.000168618
0.000169376
0.000170506
0.00017206
0.000174024
0.000176296
0.000178676
0.000180914
0.000182778
0.000184126
0.00018496
0.000185461
0.00018601
0.000187141
0.000189184
0.000192091
0.000195828
0.000200343
0.000205534
0.000211191
0.000216981
0.000222466
0.000227218
0.000230925
0.00023348
0.000234977
0.000235662
0.000235847
0.000235832
0.000167844
0.000167909
0.000168085
0.000168436
0.000169035
0.000169948
0.000171215
0.00017283
0.00017472
0.000176757
0.000178777
0.000180632
0.000182226
0.000183563
0.000184767
0.000186107
0.00018787
0.000190169
0.000192999
0.000196435
0.000200534
0.000205289
0.000210596
0.00021622
0.000221806
0.000226921
0.000231156
0.00023426
0.000236211
0.000237193
0.00023752
0.000237542
0.00016838
0.000168371
0.000168405
0.000168565
0.00016894
0.000169608
0.000170609
0.000171944
0.000173574
0.000175432
0.00017743
0.000179485
0.000181531
0.000183554
0.000185609
0.000187843
0.000190305
0.000192922
0.000195729
0.00019889
0.000202538
0.00020675
0.000211504
0.000216657
0.000221955
0.000227037
0.000231491
0.000234963
0.000237288
0.000238551
0.000239027
0.00023909
0.000169952
0.000169822
0.000169632
0.000169501
0.000169567
0.000169949
0.000170716
0.000171889
0.000173458
0.000175391
0.000177634
0.00018012
0.000182774
0.000185539
0.000188399
0.000191401
0.000194417
0.000197251
0.000199984
0.000202844
0.000206013
0.000209616
0.000213697
0.000218198
0.000222956
0.000227696
0.000232062
0.000235675
0.000238257
0.00023976
0.000240384
0.000240493
0.000173078
0.000172789
0.000172323
0.000171859
0.000171603
0.000171738
0.000172381
0.000173577
0.00017532
0.00017757
0.000180253
0.000183268
0.000186504
0.000189863
0.000193281
0.000196744
0.000200029
0.00020289
0.000205444
0.000207956
0.000210625
0.000213595
0.000216951
0.000220696
0.00022475
0.000228932
0.000232962
0.000236484
0.000239166
0.000240842
0.000241601
0.000241762
0.000178117
0.000177661
0.000176966
0.000176288
0.000175877
0.000175957
0.00017668
0.000178089
0.000180152
0.000182787
0.000185873
0.00018927
0.000192836
0.000196458
0.000200052
0.000203586
0.000206813
0.00020949
0.000211754
0.000213873
0.000216038
0.000218392
0.000221029
0.000223991
0.000227258
0.000230737
0.000234236
0.00023746
0.000240071
0.000241822
0.000242687
0.000242902
0.000185234
0.000184664
0.000183944
0.000183373
0.000183155
0.000183475
0.000184463
0.000186139
0.000188447
0.000191273
0.000194472
0.00019789
0.000201388
0.000204858
0.000208226
0.000211461
0.00021434
0.000216656
0.000218542
0.000220241
0.00022192
0.000223702
0.000225674
0.000227892
0.00023037
0.000233076
0.00023591
0.00023866
0.000241029
0.000242734
0.000243652
0.000243915
0.000194496
0.000193956
0.000193569
0.000193517
0.000193824
0.00019456
0.000195806
0.000197581
0.000199838
0.00020248
0.000205377
0.000208396
0.000211421
0.000214368
0.000217182
0.00021984
0.000222166
0.000224001
0.000225458
0.000226733
0.000227958
0.000229229
0.000230619
0.000232174
0.000233924
0.000235871
0.000237977
0.000240125
0.000242094
0.000243616
0.000244511
0.000244805
0.000206046
0.000205792
0.000206091
0.000206735
0.00020756
0.000208568
0.000209827
0.000211381
0.000213226
0.000215306
0.000217536
0.000219822
0.000222082
0.000224257
0.000226312
0.000228232
0.000229895
0.00023119
0.000232202
0.00023307
0.000233886
0.000234716
0.000235612
0.000236609
0.00023773
0.000238991
0.000240387
0.00024187
0.000243313
0.000244516
0.000245289
0.000245578
0.000220265
0.000220561
0.000221434
0.000222355
0.000223236
0.000224108
0.000225032
0.000226065
0.000227232
0.000228515
0.000229873
0.000231252
0.000232606
0.000233901
0.000235117
0.000236246
0.000237217
0.000237969
0.000238551
0.000239043
0.000239499
0.000239957
0.000240444
0.000240983
0.000241588
0.000242269
0.000243033
0.000243866
0.000244717
0.000245478
0.000246016
0.000246246
0.000237691
0.000237948
0.000238428
0.000238858
0.000239234
0.000239577
0.000239913
0.00024027
0.000240662
0.000241087
0.000241535
0.000241987
0.00024243
0.000242853
0.000243248
0.000243614
0.000243928
0.000244171
0.000244357
0.000244514
0.000244659
0.000244802
0.000244954
0.000245121
0.000245308
0.000245518
0.000245754
0.000246013
0.000246285
0.000246539
0.000246734
0.000246828
)
;


// ************************************************************************* //
