/*--------------------------------*- C++ -*----------------------------------*\
| =========                 |                                                 |
| \\      /  F ield         | OpenFOAM: The Open Source CFD Toolbox           |
|  \\    /   O peration     | Version:  2212                                  |
|   \\  /    A nd           | Website:  www.openfoam.com                      |
|    \\/     M anipulation  |                                                 |
\*---------------------------------------------------------------------------*/
FoamFile
{
    version     2.0;
    format      ascii;
    arch        "LSB;label=64;scalar=64";
    class       volScalarField;
    location    "1020";
    object      Gch4;
}
// * * * * * * * * * * * * * * * * * * * * * * * * * * * * * * * * * * * * * //

dimensions      [1 -3 0 0 0 0 0];

internalField   nonuniform List<scalar> 
1024
(
1.92414
1.92396
1.92352
1.92274
1.92153
1.91986
1.91772
1.91523
1.91256
1.90991
1.90751
1.90562
1.90438
1.90391
1.90429
1.90568
1.9081
1.91122
1.91463
1.91825
1.92205
1.92599
1.92997
1.93381
1.93729
1.94024
1.94257
1.94429
1.94547
1.94622
1.94663
1.94679
1.9241
1.92392
1.92347
1.92267
1.92144
1.91972
1.91755
1.91503
1.91232
1.90964
1.90723
1.90533
1.9041
1.90364
1.90404
1.90544
1.90787
1.911
1.91441
1.91802
1.92181
1.92575
1.92974
1.93359
1.9371
1.94009
1.94245
1.94421
1.94541
1.94617
1.94658
1.94675
1.92402
1.92383
1.92336
1.92253
1.92124
1.91946
1.91721
1.9146
1.91181
1.90904
1.90654
1.90461
1.9034
1.90298
1.90344
1.90489
1.90737
1.91053
1.91395
1.91757
1.92134
1.92526
1.92925
1.93314
1.9367
1.93976
1.9422
1.94402
1.94527
1.94605
1.94649
1.94666
1.92389
1.92369
1.9232
1.92232
1.92096
1.91908
1.91671
1.91395
1.91097
1.90799
1.90531
1.90329
1.9021
1.90178
1.90236
1.90395
1.90656
1.9098
1.91328
1.9169
1.92066
1.92455
1.92853
1.93245
1.93609
1.93924
1.94179
1.94371
1.94503
1.94586
1.94632
1.9465
1.92369
1.92348
1.92297
1.92204
1.9206
1.9186
1.91605
1.91305
1.90976
1.9064
1.90338
1.90119
1.90002
1.89986
1.90068
1.90253
1.9054
1.90884
1.91243
1.91609
1.91983
1.92369
1.92764
1.93157
1.93528
1.93856
1.94124
1.94328
1.9447
1.94559
1.94608
1.94628
1.92344
1.92322
1.92269
1.92172
1.92019
1.91804
1.91525
1.9119
1.90812
1.90419
1.90065
1.89818
1.897
1.89707
1.89826
1.90056
1.90387
1.90766
1.91147
1.91523
1.91898
1.9228
1.9267
1.93063
1.93439
1.93778
1.9406
1.94276
1.94429
1.94525
1.94577
1.94599
1.92311
1.92289
1.92235
1.92133
1.91972
1.91739
1.9143
1.91046
1.90602
1.90131
1.89708
1.89418
1.89296
1.89331
1.89502
1.89798
1.90198
1.90635
1.91052
1.91448
1.91828
1.92206
1.9259
1.92979
1.93357
1.93703
1.93996
1.94224
1.94385
1.94488
1.94544
1.94566
1.92268
1.92246
1.92191
1.92086
1.91916
1.91662
1.91315
1.90871
1.90343
1.89776
1.89266
1.88922
1.88792
1.88862
1.891
1.89483
1.89981
1.90501
1.90976
1.91401
1.91793
1.9217
1.92546
1.92927
1.93301
1.93648
1.93946
1.9418
1.94347
1.94454
1.94512
1.94536
1.92208
1.92187
1.92132
1.92024
1.91843
1.91567
1.91175
1.90658
1.90029
1.89349
1.88742
1.88338
1.88199
1.8831
1.88627
1.89121
1.89748
1.90385
1.90939
1.91409
1.91819
1.92196
1.92564
1.92932
1.93294
1.93634
1.93927
1.94159
1.94326
1.94433
1.94492
1.94516
1.9212
1.92099
1.92043
1.91932
1.91739
1.91435
1.90991
1.90389
1.89645
1.88841
1.88131
1.87668
1.87527
1.87687
1.88095
1.88721
1.89514
1.90306
1.90967
1.91498
1.91933
1.92312
1.92667
1.93017
1.93359
1.93679
1.93955
1.94175
1.94333
1.94435
1.94492
1.94516
1.91977
1.91957
1.919
1.91783
1.91574
1.91236
1.90729
1.90027
1.89155
1.88222
1.87415
1.86907
1.86774
1.86989
1.87496
1.88273
1.89271
1.90268
1.91077
1.9169
1.9216
1.92541
1.9288
1.93202
1.93512
1.93798
1.94044
1.94239
1.94381
1.94474
1.94527
1.9455
1.91742
1.91721
1.9166
1.91532
1.91299
1.90914
1.90327
1.89512
1.88505
1.87452
1.86566
1.86031
1.85914
1.8618
1.86774
1.87707
1.88945
1.9021
1.91229
1.91969
1.92497
1.9289
1.93211
1.93497
1.93761
1.94
1.94204
1.94365
1.94483
1.94563
1.94609
1.9463
1.91357
1.91334
1.91265
1.91118
1.90846
1.90394
1.89708
1.88766
1.87632
1.86481
1.85546
1.85001
1.84892
1.85171
1.85806
1.86855
1.88322
1.89899
1.91218
1.92184
1.92846
1.93301
1.93628
1.93884
1.94099
1.94283
1.94436
1.94556
1.94643
1.94701
1.94734
1.94748
1.90763
1.90735
1.90653
1.90474
1.90146
1.89606
1.88803
1.87733
1.86491
1.85278
1.84323
1.83768
1.83619
1.83823
1.84384
1.8541
1.86974
1.888
1.90469
1.91804
1.92772
1.93444
1.93903
1.94216
1.9443
1.94577
1.94671
1.94722
1.94739
1.94734
1.9472
1.94709
1.89924
1.8989
1.89787
1.89566
1.89164
1.88519
1.87591
1.86407
1.85094
1.83862
1.82904
1.82302
1.82022
1.82011
1.82293
1.83
1.84268
1.85966
1.87738
1.89365
1.90737
1.91828
1.92658
1.93258
1.93647
1.93848
1.93895
1.93835
1.93717
1.93586
1.9348
1.93424
1.88896
1.88854
1.88729
1.88464
1.87996
1.87265
1.86253
1.85012
1.83683
1.82453
1.81469
1.80764
1.80275
1.79937
1.7974
1.79745
1.80086
1.80829
1.81835
1.8295
1.84064
1.851
1.86034
1.86849
1.87514
1.88002
1.883
1.8843
1.88433
1.88367
1.88287
1.88236
1.88003
1.87959
1.87832
1.87568
1.87107
1.86399
1.85433
1.84257
1.82989
1.81783
1.80765
1.79975
1.79365
1.78849
1.78341
1.77757
1.77088
1.76483
1.76059
1.75821
1.75754
1.75844
1.76081
1.7645
1.76921
1.77456
1.77994
1.78475
1.78848
1.7909
1.79213
1.79254
1.87421
1.8738
1.87263
1.87026
1.86615
1.85986
1.85126
1.84072
1.82919
1.81801
1.80844
1.80113
1.79597
1.79221
1.78873
1.78389
1.77611
1.76582
1.75494
1.7445
1.73513
1.72723
1.72116
1.71718
1.7154
1.71573
1.71778
1.72087
1.72417
1.72696
1.72878
1.72959
1.8709
1.87053
1.8695
1.86744
1.86392
1.85853
1.85112
1.84193
1.83171
1.82161
1.81284
1.80627
1.80211
1.79993
1.79872
1.79676
1.79174
1.78289
1.77172
1.75952
1.74725
1.7356
1.72513
1.71634
1.70958
1.705
1.7025
1.70176
1.70222
1.70322
1.70416
1.70467
1.86927
1.86892
1.86801
1.86624
1.86326
1.85873
1.85247
1.84461
1.83572
1.82676
1.81882
1.81281
1.80916
1.8077
1.80761
1.80735
1.80459
1.79791
1.78807
1.77604
1.76264
1.74871
1.73511
1.72275
1.71239
1.70449
1.69911
1.696
1.69465
1.69441
1.69466
1.69491
1.86873
1.8684
1.86759
1.86607
1.86356
1.85977
1.85454
1.84794
1.84036
1.83257
1.82548
1.81992
1.81638
1.8148
1.81458
1.8144
1.81224
1.80673
1.79819
1.78712
1.77399
1.75941
1.74421
1.72945
1.71625
1.70549
1.69761
1.69254
1.68983
1.68877
1.68863
1.68875
1.86877
1.86849
1.86779
1.8665
1.86439
1.86125
1.85692
1.85144
1.8451
1.83845
1.83219
1.82697
1.82319
1.82085
1.81947
1.81799
1.81497
1.80948
1.80164
1.79155
1.77935
1.76533
1.75006
1.73444
1.71966
1.70686
1.69687
1.68999
1.68596
1.68411
1.6836
1.68364
1.86864
1.86846
1.86797
1.86699
1.86532
1.86278
1.85924
1.85474
1.84946
1.84377
1.83812
1.83294
1.8285
1.82479
1.82148
1.81784
1.81309
1.80689
1.79926
1.78997
1.7789
1.76605
1.75172
1.73654
1.72148
1.70769
1.69629
1.68793
1.68267
1.68002
1.67914
1.67907
1.86718
1.8672
1.8671
1.86664
1.86559
1.86372
1.86093
1.8572
1.85265
1.84748
1.84191
1.83621
1.83054
1.82497
1.81934
1.81326
1.80659
1.79952
1.79194
1.7834
1.77354
1.76215
1.74931
1.7354
1.72111
1.70741
1.69541
1.68606
1.6798
1.6764
1.67512
1.67494
1.86291
1.86326
1.86377
1.86411
1.86389
1.86281
1.86066
1.8574
1.85304
1.84768
1.84148
1.83462
1.82732
1.81973
1.81191
1.80374
1.79556
1.78788
1.78049
1.77276
1.7642
1.75446
1.74343
1.73128
1.71844
1.70566
1.6939
1.68417
1.67722
1.67318
1.67149
1.67119
1.85442
1.8552
1.85646
1.8577
1.85837
1.85796
1.85617
1.85285
1.84804
1.84184
1.83447
1.82619
1.81733
1.80814
1.79881
1.78938
1.78046
1.7727
1.76579
1.759
1.75178
1.74375
1.73468
1.72457
1.71363
1.70235
1.69149
1.68201
1.6748
1.67029
1.66824
1.66781
1.84074
1.84197
1.84385
1.84568
1.84677
1.84652
1.84451
1.84063
1.83497
1.82775
1.8193
1.81001
1.80026
1.79038
1.78057
1.77095
1.76218
1.75492
1.74879
1.74306
1.7372
1.73084
1.72371
1.71571
1.70689
1.69751
1.68808
1.6794
1.67238
1.66767
1.66535
1.66477
1.82142
1.82296
1.82491
1.82644
1.82701
1.82612
1.8234
1.81881
1.8125
1.80478
1.79605
1.78672
1.77717
1.76771
1.75853
1.74972
1.74189
1.73561
1.7305
1.7259
1.72136
1.71654
1.71121
1.70522
1.69853
1.69123
1.68359
1.67619
1.66982
1.66524
1.66277
1.66206
1.79628
1.79774
1.79879
1.79892
1.79807
1.79605
1.79264
1.7878
1.78164
1.77443
1.76653
1.7583
1.75005
1.74202
1.73435
1.72712
1.72079
1.71581
1.71186
1.70841
1.70509
1.70166
1.6979
1.6937
1.68898
1.68372
1.67805
1.67227
1.66697
1.66288
1.66048
1.65969
1.76494
1.76563
1.76481
1.76305
1.76081
1.75806
1.75462
1.75039
1.74536
1.73969
1.73361
1.72739
1.72123
1.7153
1.7097
1.70448
1.69996
1.69644
1.69369
1.69134
1.68913
1.68689
1.68447
1.68177
1.67875
1.67535
1.67158
1.66759
1.66371
1.66048
1.6584
1.65763
1.72636
1.72556
1.72319
1.72069
1.71829
1.71592
1.7134
1.71058
1.70741
1.70391
1.70022
1.69646
1.69277
1.68924
1.68593
1.68286
1.68021
1.67817
1.67659
1.67526
1.67402
1.67279
1.67147
1.67001
1.66838
1.66654
1.66448
1.66224
1.65995
1.65791
1.65647
1.65585
1.6791
1.6784
1.6771
1.67593
1.67491
1.67398
1.67306
1.67209
1.67102
1.66986
1.66865
1.66741
1.66621
1.66505
1.66398
1.66298
1.66213
1.66147
1.66096
1.66054
1.66015
1.65976
1.65935
1.65889
1.65839
1.65782
1.65719
1.65649
1.65576
1.65508
1.65455
1.6543
)
;

boundaryField
{
    movingWall
    {
        type            fixedValue;
        value           uniform 1.6535;
    }
    fixedWalls
    {
        type            zeroGradient;
    }
    floor
    {
        type            zeroGradient;
    }
    frontAndBack
    {
        type            empty;
    }
}


// ************************************************************************* //
