/*--------------------------------*- C++ -*----------------------------------*\
| =========                 |                                                 |
| \\      /  F ield         | OpenFOAM: The Open Source CFD Toolbox           |
|  \\    /   O peration     | Version:  2212                                  |
|   \\  /    A nd           | Website:  www.openfoam.com                      |
|    \\/     M anipulation  |                                                 |
\*---------------------------------------------------------------------------*/
FoamFile
{
    version     2.0;
    format      ascii;
    arch        "LSB;label=64;scalar=64";
    class       volScalarField;
    location    "1020";
    object      Saa;
}
// * * * * * * * * * * * * * * * * * * * * * * * * * * * * * * * * * * * * * //

dimensions      [1 -3 0 0 0 0 0];

internalField   nonuniform List<scalar> 
1024
(
0.00546491
0.00546494
0.00546502
0.00546517
0.0054654
0.00546572
0.00546613
0.0054666
0.0054671
0.00546759
0.00546803
0.00546837
0.00546859
0.00546865
0.00546853
0.00546822
0.0054677
0.00546705
0.00546636
0.00546564
0.00546488
0.00546409
0.00546328
0.00546249
0.00546177
0.00546116
0.00546067
0.00546031
0.00546006
0.0054599
0.00545982
0.00545978
0.00546491
0.00546495
0.00546503
0.00546519
0.00546542
0.00546575
0.00546616
0.00546664
0.00546714
0.00546764
0.00546809
0.00546843
0.00546864
0.00546869
0.00546857
0.00546826
0.00546774
0.00546709
0.0054664
0.00546568
0.00546493
0.00546414
0.00546333
0.00546254
0.00546181
0.00546119
0.0054607
0.00546033
0.00546007
0.00545991
0.00545983
0.00545979
0.00546493
0.00546496
0.00546505
0.00546521
0.00546546
0.0054658
0.00546622
0.00546671
0.00546724
0.00546775
0.00546821
0.00546855
0.00546876
0.00546881
0.00546868
0.00546835
0.00546782
0.00546717
0.00546648
0.00546576
0.00546501
0.00546423
0.00546342
0.00546263
0.00546189
0.00546126
0.00546075
0.00546037
0.0054601
0.00545994
0.00545985
0.00545981
0.00546495
0.00546499
0.00546508
0.00546525
0.00546551
0.00546587
0.00546631
0.00546683
0.00546739
0.00546794
0.00546843
0.00546879
0.00546899
0.00546901
0.00546886
0.0054685
0.00546795
0.00546729
0.0054666
0.00546588
0.00546514
0.00546436
0.00546356
0.00546276
0.00546202
0.00546136
0.00546083
0.00546043
0.00546015
0.00545998
0.00545988
0.00545984
0.00546499
0.00546503
0.00546513
0.0054653
0.00546558
0.00546595
0.00546643
0.005467
0.00546761
0.00546823
0.00546877
0.00546916
0.00546935
0.00546934
0.00546914
0.00546873
0.00546813
0.00546744
0.00546673
0.00546601
0.00546528
0.00546452
0.00546373
0.00546293
0.00546218
0.0054615
0.00546094
0.00546052
0.00546022
0.00546003
0.00545993
0.00545989
0.00546504
0.00546508
0.00546518
0.00546536
0.00546565
0.00546606
0.00546658
0.00546721
0.00546791
0.00546862
0.00546926
0.00546969
0.00546987
0.00546981
0.00546953
0.00546904
0.00546836
0.0054676
0.00546687
0.00546614
0.00546542
0.00546467
0.0054639
0.00546311
0.00546235
0.00546165
0.00546107
0.00546062
0.0054603
0.0054601
0.00545999
0.00545995
0.0054651
0.00546514
0.00546524
0.00546543
0.00546574
0.00546617
0.00546675
0.00546746
0.00546828
0.00546914
0.0054699
0.00547039
0.00547057
0.00547044
0.00547005
0.00546942
0.00546862
0.00546777
0.00546697
0.00546623
0.00546551
0.00546479
0.00546404
0.00546327
0.00546251
0.0054618
0.0054612
0.00546072
0.00546039
0.00546018
0.00546006
0.00546001
0.00546517
0.00546522
0.00546532
0.00546552
0.00546584
0.00546631
0.00546696
0.00546778
0.00546875
0.00546978
0.00547068
0.00547126
0.00547142
0.00547121
0.00547067
0.00546987
0.00546889
0.00546789
0.00546702
0.00546624
0.00546551
0.00546481
0.00546409
0.00546335
0.0054626
0.0054619
0.00546129
0.00546081
0.00546046
0.00546024
0.00546012
0.00546007
0.00546528
0.00546532
0.00546543
0.00546563
0.00546597
0.00546649
0.00546721
0.00546817
0.00546931
0.00547054
0.0054716
0.00547227
0.00547242
0.0054721
0.00547139
0.00547037
0.00546914
0.00546795
0.00546695
0.00546611
0.00546538
0.0054647
0.00546401
0.00546331
0.00546259
0.00546191
0.00546132
0.00546084
0.0054605
0.00546028
0.00546016
0.00546011
0.00546545
0.00546549
0.00546559
0.0054658
0.00546616
0.00546672
0.00546755
0.00546865
0.00547001
0.00547145
0.00547268
0.00547342
0.00547353
0.00547308
0.00547217
0.00547088
0.00546934
0.00546789
0.00546673
0.00546581
0.00546506
0.0054644
0.00546375
0.0054631
0.00546243
0.0054618
0.00546124
0.0054608
0.00546048
0.00546027
0.00546015
0.0054601
0.00546571
0.00546575
0.00546586
0.00546608
0.00546646
0.00546709
0.00546803
0.00546931
0.00547089
0.00547255
0.00547393
0.00547471
0.00547477
0.00547416
0.00547303
0.00547144
0.00546953
0.00546773
0.00546633
0.0054653
0.00546451
0.00546387
0.00546327
0.00546268
0.00546209
0.00546154
0.00546105
0.00546065
0.00546036
0.00546017
0.00546006
0.00546002
0.00546616
0.00546619
0.00546631
0.00546654
0.00546698
0.00546769
0.00546877
0.00547026
0.00547207
0.00547392
0.00547541
0.00547619
0.00547616
0.00547542
0.00547409
0.00547219
0.00546985
0.00546758
0.00546584
0.00546461
0.00546375
0.0054631
0.00546256
0.00546205
0.00546156
0.0054611
0.0054607
0.00546038
0.00546013
0.00545997
0.00545987
0.00545983
0.00546688
0.00546693
0.00546705
0.00546732
0.00546783
0.00546866
0.00546991
0.00547162
0.00547365
0.00547565
0.00547719
0.00547794
0.00547784
0.00547703
0.00547559
0.00547345
0.00547069
0.00546788
0.00546562
0.00546402
0.00546294
0.00546221
0.00546167
0.00546123
0.00546084
0.00546049
0.00546019
0.00545995
0.00545977
0.00545965
0.00545957
0.00545954
0.00546801
0.00546806
0.00546821
0.00546854
0.00546914
0.00547013
0.00547159
0.00547352
0.00547572
0.0054778
0.00547933
0.00548005
0.00548
0.00547928
0.00547793
0.00547579
0.00547282
0.00546955
0.00546668
0.00546443
0.00546283
0.00546173
0.00546098
0.00546046
0.00546009
0.00545982
0.00545963
0.00545952
0.00545946
0.00545945
0.00545946
0.00545947
0.00546961
0.00546967
0.00546985
0.00547026
0.00547099
0.00547216
0.00547384
0.00547596
0.00547827
0.00548035
0.00548186
0.00548265
0.00548281
0.00548245
0.00548155
0.00547989
0.00547734
0.00547421
0.0054711
0.00546832
0.00546601
0.0054642
0.00546282
0.00546182
0.00546117
0.00546083
0.00546073
0.00546081
0.005461
0.0054612
0.00546137
0.00546146
0.00547157
0.00547164
0.00547187
0.00547235
0.0054732
0.00547453
0.00547635
0.00547857
0.0054809
0.00548299
0.00548456
0.00548556
0.00548611
0.00548632
0.00548621
0.00548566
0.00548454
0.00548285
0.00548088
0.00547884
0.00547689
0.00547512
0.00547356
0.00547221
0.00547112
0.00547032
0.00546984
0.00546964
0.00546964
0.00546975
0.00546988
0.00546996
0.00547332
0.00547339
0.00547362
0.0054741
0.00547494
0.00547623
0.005478
0.00548013
0.0054824
0.00548451
0.00548623
0.00548747
0.00548831
0.00548889
0.00548933
0.00548972
0.00549013
0.00549044
0.00549058
0.00549054
0.00549033
0.00548995
0.00548942
0.00548874
0.00548795
0.0054871
0.00548627
0.00548554
0.00548499
0.00548463
0.00548445
0.0054844
0.00547451
0.00547458
0.00547479
0.00547522
0.00547598
0.00547714
0.00547873
0.00548068
0.00548281
0.00548485
0.00548657
0.00548783
0.00548866
0.00548915
0.00548944
0.00548975
0.00549031
0.00549117
0.00549214
0.00549311
0.005494
0.00549475
0.00549531
0.00549566
0.00549577
0.00549564
0.00549532
0.00549489
0.00549444
0.00549407
0.00549383
0.00549373
0.00547524
0.0054753
0.00547548
0.00547586
0.00547651
0.00547752
0.00547892
0.00548066
0.00548259
0.00548451
0.00548617
0.00548741
0.00548818
0.00548854
0.00548859
0.00548858
0.0054888
0.00548946
0.00549041
0.00549152
0.00549265
0.00549373
0.0054947
0.00549553
0.00549617
0.00549662
0.00549688
0.00549697
0.00549695
0.00549686
0.00549677
0.00549672
0.00547565
0.00547571
0.00547587
0.00547619
0.00547675
0.0054776
0.0054788
0.00548032
0.00548204
0.00548379
0.00548536
0.00548657
0.00548734
0.00548765
0.00548761
0.00548742
0.00548739
0.0054878
0.00548861
0.00548969
0.00549094
0.00549225
0.00549353
0.00549469
0.00549566
0.00549641
0.00549693
0.00549725
0.00549742
0.00549748
0.00549749
0.00549749
0.00547584
0.0054759
0.00547604
0.00547632
0.00547679
0.00547751
0.00547852
0.00547982
0.00548131
0.00548287
0.00548432
0.00548548
0.00548625
0.00548662
0.00548664
0.00548648
0.00548642
0.00548673
0.00548741
0.00548841
0.00548965
0.00549104
0.0054925
0.00549391
0.00549515
0.00549616
0.0054969
0.00549738
0.00549766
0.0054978
0.00549784
0.00549785
0.00547591
0.00547596
0.00547608
0.00547632
0.00547672
0.00547732
0.00547817
0.00547925
0.00548052
0.00548187
0.00548316
0.00548425
0.00548505
0.00548553
0.00548573
0.00548578
0.00548588
0.00548623
0.00548688
0.0054878
0.00548897
0.00549033
0.00549181
0.00549331
0.00549472
0.00549592
0.00549684
0.00549748
0.00549787
0.00549807
0.00549814
0.00549816
0.00547594
0.00547598
0.00547608
0.00547627
0.0054766
0.00547709
0.00547779
0.00547869
0.00547975
0.0054809
0.00548204
0.00548308
0.00548393
0.00548458
0.00548504
0.00548539
0.00548576
0.00548626
0.00548693
0.0054878
0.00548888
0.00549014
0.00549155
0.00549302
0.00549446
0.00549575
0.0054968
0.00549757
0.00549806
0.00549831
0.00549842
0.00549844
0.00547611
0.00547612
0.00547617
0.00547629
0.00547653
0.00547692
0.00547748
0.00547822
0.00547911
0.00548011
0.00548116
0.00548219
0.00548315
0.00548401
0.00548476
0.00548545
0.00548611
0.00548677
0.00548749
0.00548831
0.00548929
0.00549042
0.00549169
0.00549305
0.00549442
0.00549571
0.00549681
0.00549766
0.00549822
0.00549854
0.00549867
0.0054987
0.00547658
0.00547655
0.00547653
0.00547655
0.00547668
0.00547695
0.00547739
0.00547802
0.00547881
0.00547975
0.00548079
0.00548189
0.00548299
0.00548407
0.00548509
0.00548606
0.00548694
0.00548773
0.00548847
0.00548924
0.0054901
0.00549107
0.00549217
0.00549337
0.0054946
0.00549581
0.00549689
0.00549776
0.00549838
0.00549874
0.0054989
0.00549894
0.00547753
0.00547746
0.00547734
0.00547726
0.00547726
0.00547743
0.00547779
0.00547837
0.00547915
0.00548011
0.00548121
0.00548241
0.00548365
0.00548488
0.00548608
0.00548722
0.00548823
0.00548906
0.00548978
0.00549048
0.00549122
0.00549203
0.00549293
0.00549393
0.00549499
0.00549605
0.00549705
0.0054979
0.00549853
0.00549893
0.00549911
0.00549916
0.00547908
0.00547895
0.00547877
0.0054786
0.00547855
0.00547867
0.00547902
0.00547961
0.00548043
0.00548145
0.00548261
0.00548386
0.00548516
0.00548644
0.00548768
0.00548885
0.00548987
0.00549068
0.00549134
0.00549194
0.00549254
0.00549319
0.00549391
0.0054947
0.00549555
0.00549644
0.00549731
0.00549808
0.00549869
0.00549909
0.0054993
0.00549936
0.00548127
0.0054811
0.0054809
0.00548076
0.00548075
0.00548092
0.00548132
0.00548196
0.0054828
0.00548382
0.00548496
0.00548617
0.00548739
0.0054886
0.00548975
0.00549083
0.00549175
0.00549246
0.00549302
0.00549351
0.00549399
0.00549448
0.00549502
0.00549561
0.00549626
0.00549695
0.00549765
0.00549832
0.00549887
0.00549925
0.00549946
0.00549952
0.0054841
0.00548395
0.00548384
0.00548385
0.00548399
0.00548426
0.00548471
0.00548534
0.00548612
0.00548704
0.00548804
0.00548908
0.00549012
0.00549113
0.00549209
0.00549297
0.00549372
0.0054943
0.00549474
0.00549511
0.00549546
0.00549581
0.00549619
0.00549661
0.00549707
0.00549757
0.00549809
0.00549861
0.00549906
0.00549941
0.0054996
0.00549967
0.00548762
0.00548755
0.00548765
0.00548786
0.00548814
0.00548848
0.00548891
0.00548943
0.00549006
0.00549076
0.00549152
0.00549229
0.00549306
0.00549381
0.0054945
0.00549514
0.00549568
0.00549609
0.0054964
0.00549666
0.00549689
0.00549712
0.00549737
0.00549764
0.00549793
0.00549826
0.00549861
0.00549896
0.0054993
0.00549956
0.00549973
0.00549979
0.00549193
0.00549202
0.00549229
0.00549258
0.00549286
0.00549314
0.00549344
0.00549379
0.00549418
0.00549461
0.00549506
0.00549553
0.00549599
0.00549643
0.00549684
0.00549722
0.00549753
0.00549777
0.00549795
0.0054981
0.00549823
0.00549836
0.00549849
0.00549864
0.0054988
0.00549897
0.00549916
0.00549936
0.00549956
0.00549973
0.00549984
0.00549989
0.00549717
0.00549725
0.0054974
0.00549753
0.00549765
0.00549776
0.00549787
0.00549798
0.00549811
0.00549826
0.00549841
0.00549856
0.00549871
0.00549885
0.00549899
0.00549911
0.00549921
0.00549929
0.00549935
0.00549939
0.00549943
0.00549948
0.00549952
0.00549956
0.00549961
0.00549967
0.00549972
0.00549979
0.00549985
0.00549991
0.00549995
0.00549997
)
;

boundaryField
{
    movingWall
    {
        type            fixedValue;
        value           uniform 0.0055;
    }
    fixedWalls
    {
        type            zeroGradient;
    }
    floor
    {
        type            zeroGradient;
    }
    frontAndBack
    {
        type            empty;
    }
}


// ************************************************************************* //
