/*--------------------------------*- C++ -*----------------------------------*\
| =========                 |                                                 |
| \\      /  F ield         | OpenFOAM: The Open Source CFD Toolbox           |
|  \\    /   O peration     | Version:  2212                                  |
|   \\  /    A nd           | Website:  www.openfoam.com                      |
|    \\/     M anipulation  |                                                 |
\*---------------------------------------------------------------------------*/
FoamFile
{
    version     2.0;
    format      ascii;
    arch        "LSB;label=64;scalar=64";
    class       volScalarField;
    location    "1020";
    object      Sch4;
}
// * * * * * * * * * * * * * * * * * * * * * * * * * * * * * * * * * * * * * //

dimensions      [1 -3 0 0 0 0 0];

internalField   nonuniform List<scalar> 
1024
(
0.0354389
0.0354518
0.0354835
0.0355401
0.0356278
0.0357497
0.0359045
0.0360853
0.0362797
0.0364725
0.0366466
0.0367845
0.036875
0.0369105
0.0368834
0.0367842
0.0366094
0.0363844
0.0361377
0.0358758
0.035601
0.035316
0.0350281
0.0347507
0.0344995
0.0342867
0.0341185
0.0339942
0.0339089
0.0338553
0.0338258
0.0338138
0.0354414
0.0354547
0.0354871
0.0355452
0.035635
0.0357595
0.0359171
0.0361003
0.0362969
0.0364917
0.0366673
0.0368056
0.0368955
0.03693
0.0369019
0.0368018
0.0366262
0.0364008
0.0361539
0.0358922
0.0356179
0.0353331
0.0350448
0.0347662
0.0345128
0.0342975
0.0341267
0.0340003
0.0339134
0.0338588
0.0338288
0.0338166
0.0354473
0.0354611
0.0354949
0.0355556
0.0356493
0.0357787
0.0359419
0.0361312
0.0363343
0.036536
0.0367175
0.036858
0.0369467
0.036978
0.036946
0.0368419
0.0366629
0.036435
0.0361871
0.0359256
0.0356522
0.0353683
0.0350798
0.034799
0.0345417
0.0343211
0.034145
0.034014
0.0339237
0.033867
0.0338359
0.0338232
0.0354571
0.0354716
0.0355071
0.0355711
0.0356698
0.0358064
0.0359785
0.0361788
0.0363954
0.0366124
0.0368076
0.0369543
0.0370414
0.037066
0.0370247
0.0369106
0.0367224
0.0364879
0.0362365
0.0359743
0.0357021
0.0354201
0.0351321
0.0348491
0.0345864
0.0343584
0.0341743
0.0340364
0.0339409
0.0338809
0.0338479
0.0338345
0.0354712
0.0354863
0.0355235
0.0355909
0.0356956
0.0358411
0.0360261
0.0362441
0.0364839
0.036728
0.036948
0.0371074
0.0371932
0.0372064
0.037148
0.0370145
0.0368077
0.0365589
0.036299
0.0360338
0.0357625
0.0354831
0.035197
0.0349126
0.0346445
0.0344079
0.0342141
0.0340673
0.0339651
0.0339006
0.0338653
0.033851
0.0354899
0.0355053
0.035544
0.0356147
0.0357256
0.035882
0.0360844
0.0363283
0.0366033
0.0368891
0.0371467
0.0373275
0.0374139
0.0374106
0.0373254
0.0371597
0.0369204
0.0366457
0.0363696
0.0360968
0.0358246
0.0355481
0.0352652
0.0349813
0.0347091
0.0344645
0.0342607
0.0341045
0.0339948
0.0339253
0.0338873
0.033872
0.0355138
0.0355294
0.035569
0.0356426
0.03576
0.0359293
0.0361541
0.0364329
0.0367563
0.0370987
0.0374075
0.0376192
0.0377093
0.0376851
0.0375625
0.0373494
0.03706
0.0367435
0.0364401
0.036153
0.0358766
0.0356022
0.0353237
0.0350426
0.0347691
0.034519
0.0343073
0.0341428
0.0340263
0.0339522
0.0339117
0.0338954
0.0355451
0.0355606
0.0356008
0.0356767
0.035801
0.0359849
0.0362371
0.0365602
0.0369448
0.0373579
0.0377297
0.037981
0.0380778
0.0380288
0.0378585
0.0375819
0.0372214
0.0368435
0.0364985
0.0361885
0.0359034
0.0356296
0.0353563
0.0350805
0.0348098
0.0345588
0.0343435
0.0341744
0.0340537
0.0339767
0.0339344
0.0339174
0.0355883
0.0356036
0.035644
0.0357223
0.0358537
0.0360546
0.0363393
0.0367154
0.0371733
0.0376687
0.0381121
0.038408
0.0385119
0.0384337
0.0382061
0.0378496
0.0373949
0.0369321
0.0365287
0.0361857
0.0358868
0.0356121
0.035345
0.0350778
0.034815
0.0345695
0.0343574
0.0341897
0.0340694
0.0339921
0.0339495
0.0339322
0.0356529
0.0356679
0.0357086
0.0357895
0.0359295
0.0361502
0.0364731
0.0369114
0.0374534
0.0380395
0.0385581
0.0388973
0.039004
0.0388912
0.038598
0.0381458
0.0375707
0.0369944
0.0365119
0.0361244
0.0358066
0.0355301
0.0352712
0.0350172
0.034769
0.0345376
0.0343373
0.0341787
0.0340645
0.0339907
0.0339493
0.0339322
0.0357562
0.035771
0.0358126
0.0358978
0.0360493
0.036295
0.036664
0.0371747
0.0378102
0.0384904
0.0390803
0.039454
0.0395558
0.0394039
0.0390403
0.0384787
0.0377543
0.0370278
0.0364372
0.0359886
0.0356449
0.0353659
0.0351187
0.0348842
0.0346594
0.034452
0.0342735
0.0341323
0.0340301
0.033963
0.0339245
0.0339081
0.0359275
0.0359426
0.0359867
0.0360799
0.0362494
0.0365296
0.0369563
0.0375502
0.0382834
0.0390521
0.0397003
0.0400948
0.0401855
0.0399988
0.0395719
0.0388975
0.0379982
0.0370761
0.0363316
0.0357901
0.0354031
0.0351148
0.0348802
0.0346717
0.0344796
0.0343063
0.0341589
0.0340422
0.0339567
0.0338993
0.0338655
0.0338505
0.0362072
0.0362239
0.0362738
0.0363812
0.0365791
0.0369079
0.0374071
0.0380928
0.0389194
0.0397599
0.0404454
0.0408478
0.0409343
0.0407391
0.0402835
0.0395255
0.0384592
0.0373093
0.0363453
0.0356384
0.0351528
0.0348198
0.03458
0.0343926
0.034236
0.0341025
0.0339917
0.033905
0.0338419
0.0338004
0.0337767
0.0337667
0.0366386
0.0366584
0.0367185
0.0368484
0.0370874
0.0374803
0.0380652
0.0388449
0.0397509
0.0406372
0.0413374
0.0417487
0.0418656
0.0417258
0.0413256
0.0405845
0.0394494
0.0381182
0.0368985
0.0359219
0.0352126
0.0347202
0.0343844
0.0341554
0.0339986
0.0338921
0.0338238
0.033787
0.0337751
0.0337796
0.0337903
0.0337984
0.0372474
0.0372721
0.0373472
0.0375086
0.0378012
0.0382709
0.0389467
0.0398097
0.0407675
0.0416687
0.042372
0.0428178
0.0430308
0.0430485
0.0428523
0.0423472
0.0414298
0.0401939
0.0389012
0.0377121
0.0367079
0.0359096
0.0353017
0.0348621
0.0345776
0.0344307
0.0343963
0.0344408
0.0345281
0.0346242
0.0347016
0.0347433
0.0379934
0.0380241
0.0381155
0.0383083
0.0386496
0.0391814
0.0399187
0.0408233
0.0417939
0.0426933
0.0434148
0.0439354
0.0442999
0.0445561
0.0447112
0.044721
0.0444854
0.0439527
0.0432235
0.0424114
0.0415987
0.0408413
0.0401577
0.0395609
0.0390738
0.038716
0.0384973
0.0384021
0.0383997
0.0384484
0.0385067
0.0385439
0.0386412
0.038673
0.0387657
0.0389582
0.0392939
0.039809
0.0405125
0.0413688
0.0422931
0.0431737
0.0439185
0.0444986
0.0449492
0.0453337
0.0457158
0.0461581
0.046665
0.0471254
0.0474497
0.047635
0.0476924
0.0476317
0.0474614
0.0471935
0.0468482
0.0464558
0.0460604
0.0457061
0.0454315
0.0452534
0.0451625
0.045132
0.0390618
0.0390918
0.0391766
0.0393495
0.0396485
0.0401058
0.0407313
0.041498
0.0423369
0.043151
0.0438489
0.0443825
0.0447615
0.0450396
0.0453015
0.0456682
0.0462561
0.0470306
0.0478483
0.0486315
0.0493345
0.0499265
0.0503821
0.0506817
0.0508165
0.050794
0.0506433
0.0504153
0.0501707
0.0499646
0.0498295
0.0497698
0.0392991
0.0393267
0.0394019
0.0395515
0.0398077
0.0401991
0.0407378
0.0414056
0.0421479
0.0428815
0.0435181
0.0439955
0.0442982
0.0444581
0.0445502
0.0447027
0.0450853
0.0457534
0.0465934
0.0475092
0.0484304
0.049305
0.05009
0.0507494
0.0512565
0.0515999
0.0517864
0.0518413
0.0518064
0.0517313
0.0516609
0.0516223
0.0394156
0.0394412
0.0395076
0.0396362
0.0398526
0.0401816
0.0406365
0.0412067
0.0418511
0.0425006
0.0430757
0.0435103
0.0437738
0.0438795
0.043887
0.0439117
0.0441263
0.044633
0.0453735
0.0462773
0.0472824
0.0483279
0.0493477
0.0502748
0.0510519
0.0516448
0.0520476
0.0522801
0.0523807
0.0523975
0.0523781
0.0523591
0.0394526
0.0394762
0.0395352
0.039646
0.0398287
0.0401034
0.0404828
0.0409618
0.0415104
0.0420744
0.0425869
0.0429879
0.0432429
0.0433554
0.043372
0.0433903
0.0435589
0.0439772
0.0446206
0.0454525
0.046437
0.0475301
0.0486695
0.0497763
0.0507663
0.0515735
0.0521649
0.0525448
0.0527477
0.0528258
0.052836
0.0528261
0.0394478
0.0394681
0.0395187
0.0396127
0.0397659
0.0399942
0.0403081
0.0407051
0.041164
0.0416447
0.0420968
0.0424732
0.0427455
0.0429144
0.0430167
0.0431296
0.0433612
0.043777
0.0443673
0.0451247
0.0460391
0.0470895
0.0482338
0.0494045
0.0505134
0.0514737
0.0522231
0.0527393
0.0530419
0.0531801
0.0532173
0.0532144
0.0394565
0.0394695
0.039505
0.0395759
0.0396969
0.0398814
0.0401375
0.0404636
0.0408456
0.0412571
0.0416654
0.0420403
0.0423628
0.0426337
0.0428784
0.0431511
0.0435096
0.0439765
0.0445504
0.0452466
0.0460763
0.0470386
0.0481121
0.0492496
0.0503793
0.0514133
0.0522695
0.052897
0.0532914
0.0534899
0.053556
0.0535603
0.0395653
0.0395634
0.0395703
0.0396024
0.0396782
0.039813
0.0400152
0.0402849
0.0406145
0.0409901
0.0413943
0.04181
0.0422243
0.0426341
0.0430508
0.0435041
0.0440035
0.044534
0.0451026
0.0457426
0.0464811
0.0473333
0.0482951
0.0493373
0.0504088
0.0514364
0.052337
0.053039
0.0535092
0.0537645
0.0538607
0.0538734
0.0398839
0.0398576
0.039819
0.0397923
0.0398056
0.0398827
0.0400377
0.0402749
0.0405922
0.0409832
0.0414373
0.0419406
0.0424779
0.0430377
0.0436171
0.0442252
0.0448362
0.0454101
0.0459634
0.0465423
0.0471834
0.0479123
0.0487379
0.0496484
0.0506107
0.0515693
0.0524524
0.053183
0.0537051
0.0540091
0.0541352
0.0541573
0.0405169
0.0404584
0.040364
0.0402701
0.0402184
0.0402455
0.0403756
0.0406175
0.0409704
0.0414258
0.0419688
0.0425791
0.0432342
0.0439142
0.0446062
0.0453072
0.0459723
0.0465512
0.047068
0.0475762
0.048116
0.0487169
0.0493956
0.0501531
0.0509732
0.0518191
0.0526341
0.0533464
0.053889
0.0542279
0.0543814
0.054414
0.0415368
0.0414446
0.0413041
0.0411669
0.0410838
0.0411001
0.0412465
0.0415317
0.0419494
0.0424827
0.0431074
0.0437947
0.0445165
0.0452494
0.0459768
0.0466918
0.0473449
0.0478865
0.0483444
0.048773
0.0492109
0.049687
0.0502204
0.0508195
0.0514804
0.052184
0.0528917
0.0535438
0.0540719
0.0544261
0.054601
0.0546444
0.0429769
0.0428617
0.0427162
0.0426008
0.042557
0.0426218
0.042822
0.0431614
0.0436284
0.0442003
0.0448478
0.0455394
0.0462472
0.0469491
0.0476307
0.0482851
0.0488676
0.049336
0.0497176
0.0500611
0.0504005
0.0507608
0.0511599
0.0516084
0.0521096
0.0526571
0.0532302
0.0537866
0.0542657
0.0546105
0.0547962
0.0548494
0.044851
0.0447418
0.0446635
0.0446533
0.0447157
0.0448648
0.0451173
0.0454765
0.0459334
0.046468
0.0470541
0.0476649
0.0482769
0.0488731
0.0494424
0.0499801
0.0504506
0.0508216
0.0511164
0.0513741
0.0516218
0.0518789
0.0521599
0.0524746
0.0528285
0.0532223
0.0536484
0.0540828
0.054481
0.054789
0.05497
0.0550295
0.0471878
0.0471364
0.0471969
0.0473276
0.0474946
0.0476989
0.0479538
0.0482684
0.0486418
0.0490627
0.0495139
0.0499762
0.0504334
0.0508735
0.0512892
0.0516775
0.0520138
0.0522758
0.0524805
0.052656
0.0528209
0.0529889
0.05317
0.0533715
0.0535984
0.0538534
0.0541358
0.0544358
0.0547277
0.054971
0.0551274
0.055186
0.0500646
0.0501244
0.0503011
0.0504876
0.0506661
0.0508426
0.0510297
0.0512389
0.051475
0.0517346
0.0520092
0.0522882
0.0525621
0.0528242
0.0530701
0.0532984
0.0534949
0.053647
0.0537647
0.0538642
0.0539563
0.0540489
0.0541475
0.0542565
0.0543788
0.0545166
0.054671
0.0548396
0.0550117
0.0551657
0.0552745
0.0553211
0.0535901
0.0536422
0.0537393
0.0538264
0.0539024
0.0539719
0.05404
0.0541123
0.0541915
0.0542776
0.0543681
0.0544597
0.0545493
0.0546348
0.0547147
0.0547887
0.0548523
0.0549013
0.0549391
0.0549708
0.055
0.055029
0.0550598
0.0550935
0.0551313
0.0551738
0.0552214
0.055274
0.0553289
0.0553803
0.0554197
0.0554388
)
;

boundaryField
{
    movingWall
    {
        type            fixedValue;
        value           uniform 0.0555;
    }
    fixedWalls
    {
        type            zeroGradient;
    }
    floor
    {
        type            zeroGradient;
    }
    frontAndBack
    {
        type            empty;
    }
}


// ************************************************************************* //
