/*--------------------------------*- C++ -*----------------------------------*\
| =========                 |                                                 |
| \\      /  F ield         | OpenFOAM: The Open Source CFD Toolbox           |
|  \\    /   O peration     | Version:  2212                                  |
|   \\  /    A nd           | Website:  www.openfoam.com                      |
|    \\/     M anipulation  |                                                 |
\*---------------------------------------------------------------------------*/
FoamFile
{
    version     2.0;
    format      ascii;
    arch        "LSB;label=64;scalar=64";
    class       volScalarField;
    location    "1020";
    object      Sco2;
}
// * * * * * * * * * * * * * * * * * * * * * * * * * * * * * * * * * * * * * //

dimensions      [1 -3 0 0 0 0 0];

internalField   nonuniform List<scalar> 
1024
(
0.00564195
0.00564439
0.00565034
0.00566101
0.00567749
0.00570043
0.00572956
0.00576356
0.00580014
0.00583643
0.00586919
0.00589514
0.00591215
0.00591882
0.00591371
0.00589501
0.00586208
0.00581972
0.00577327
0.00572397
0.00567225
0.00561859
0.00556442
0.00551223
0.00546496
0.00542494
0.00539328
0.00536989
0.00535384
0.00534375
0.0053382
0.00533593
0.00564243
0.00564493
0.00565103
0.00566196
0.00567884
0.00570227
0.00573192
0.00576639
0.00580338
0.00584004
0.00587308
0.00589909
0.005916
0.00592249
0.00591718
0.00589831
0.00586524
0.00582279
0.00577631
0.00572706
0.00567541
0.0056218
0.00556756
0.00551514
0.00546748
0.00542696
0.00539482
0.00537103
0.00535468
0.0053444
0.00533876
0.00533645
0.00564354
0.00564614
0.0056525
0.00566392
0.00568153
0.00570589
0.00573659
0.0057722
0.00581041
0.00584836
0.00588251
0.00590894
0.00592562
0.00593151
0.00592547
0.00590585
0.00587213
0.00582923
0.00578256
0.00573333
0.00568187
0.00562843
0.00557415
0.00552132
0.0054729
0.0054314
0.00539825
0.0053736
0.00535662
0.00534594
0.00534008
0.0053377
0.00564539
0.00564811
0.0056548
0.00566683
0.0056854
0.00571108
0.00574347
0.00578115
0.00582189
0.00586271
0.00589944
0.00592704
0.00594341
0.00594802
0.00594024
0.00591875
0.00588332
0.00583917
0.00579184
0.00574248
0.00569126
0.00563816
0.00558398
0.00553074
0.00548131
0.00543841
0.00540377
0.00537781
0.00535985
0.00534855
0.00534235
0.00533983
0.00564805
0.00565088
0.00565788
0.00567056
0.00569025
0.00571762
0.00575242
0.00579343
0.00583853
0.00588446
0.00592582
0.00595581
0.00597194
0.00597439
0.0059634
0.00593826
0.00589933
0.0058525
0.00580359
0.00575366
0.00570259
0.00565
0.00559617
0.00554267
0.00549222
0.0054477
0.00541124
0.00538362
0.00536439
0.00535226
0.00534561
0.00534292
0.00565155
0.00565446
0.00566173
0.00567503
0.0056959
0.00572532
0.0057634
0.00580927
0.005861
0.00591473
0.00596317
0.00599716
0.00601339
0.00601275
0.00599671
0.00596553
0.0059205
0.0058688
0.00581685
0.0057655
0.00571426
0.00566221
0.00560899
0.00555557
0.00550436
0.00545833
0.00542
0.0053906
0.00536996
0.00535689
0.00534974
0.00534685
0.00565606
0.005659
0.00566644
0.00568028
0.00570238
0.00573421
0.0057765
0.00582895
0.00588977
0.00595414
0.00601219
0.00605198
0.00606889
0.00606432
0.00604125
0.00600117
0.00594672
0.00588718
0.00583007
0.00577604
0.00572401
0.00567237
0.00561997
0.00556707
0.00551562
0.00546857
0.00542874
0.00539779
0.00537588
0.00536194
0.00535431
0.00535125
0.00566194
0.00566487
0.00567242
0.00568671
0.00571008
0.00574469
0.00579214
0.0058529
0.00592524
0.0060029
0.00607278
0.00612
0.00613815
0.0061289
0.00609686
0.00604484
0.00597706
0.00590596
0.00584104
0.0057827
0.00572902
0.00567749
0.00562607
0.00557418
0.00552324
0.00547602
0.00543552
0.00540371
0.00538102
0.00536653
0.00535858
0.00535537
0.00567007
0.00567296
0.00568056
0.00569529
0.00572002
0.00575782
0.00581137
0.00588212
0.00596823
0.00606137
0.0061447
0.00620029
0.00621975
0.00620501
0.0061622
0.00609519
0.00600971
0.00592263
0.00584671
0.00578215
0.00572588
0.00567416
0.00562389
0.00557362
0.00552417
0.00547801
0.00543811
0.00540657
0.00538394
0.00536942
0.0053614
0.00535815
0.00568222
0.00568505
0.00569271
0.00570795
0.00573429
0.00577582
0.00583659
0.00591905
0.00602098
0.00613117
0.00622863
0.00629231
0.00631232
0.00629107
0.00623594
0.00615097
0.00604287
0.00593443
0.00584359
0.00577061
0.00571077
0.0056587
0.00560997
0.00556218
0.00551549
0.00547196
0.00543431
0.00540448
0.00538301
0.00536912
0.00536135
0.00535813
0.00570167
0.00570446
0.00571228
0.00572832
0.00575685
0.0058031
0.00587254
0.00596864
0.00608815
0.00621604
0.0063269
0.00639709
0.00641616
0.0063876
0.00631931
0.00621383
0.00607767
0.00594096
0.0058297
0.00574515
0.00568036
0.00562779
0.00558124
0.00553712
0.00549483
0.00545582
0.00542227
0.00539572
0.00537651
0.0053639
0.00535667
0.00535358
0.00573387
0.00573673
0.00574504
0.00576258
0.0057945
0.00584725
0.00592758
0.00603934
0.00617725
0.00632179
0.00644363
0.00651774
0.00653478
0.00649976
0.00641969
0.00629312
0.00612416
0.0059506
0.00581022
0.00570803
0.00563499
0.00558059
0.00553638
0.00549712
0.00546097
0.0054284
0.00540069
0.00537876
0.00536269
0.0053519
0.00534554
0.00534272
0.00578647
0.00578961
0.00579901
0.00581923
0.0058565
0.0059184
0.00601238
0.00614145
0.00629698
0.00645506
0.00658396
0.00665964
0.00667599
0.00663953
0.00655425
0.00641216
0.00621191
0.00599549
0.00581367
0.0056801
0.00558829
0.00552531
0.00548001
0.00544466
0.00541515
0.00539004
0.00536923
0.00535294
0.0053411
0.00533331
0.00532887
0.00532699
0.00586756
0.00587129
0.0058826
0.00590707
0.00595208
0.00602607
0.0061362
0.006283
0.00645351
0.0066203
0.00675207
0.00682956
0.00685182
0.00682598
0.00675136
0.00661271
0.00639978
0.00614939
0.00591943
0.00573494
0.00560071
0.00550745
0.00544383
0.00540046
0.0053708
0.00535071
0.00533788
0.00533099
0.00532882
0.00532971
0.00533177
0.00533332
0.005982
0.00598667
0.00600081
0.00603122
0.00608634
0.00617483
0.00630212
0.00646466
0.00664501
0.00681471
0.00694721
0.00703137
0.00707192
0.00707591
0.00703986
0.00694585
0.00677428
0.00654233
0.00629906
0.00607481
0.00588512
0.0057341
0.00561906
0.00553576
0.00548178
0.00545382
0.00544716
0.00545545
0.00547189
0.00549001
0.00550463
0.0055125
0.00612229
0.00612808
0.0061453
0.00618161
0.00624592
0.00634612
0.00648502
0.00665545
0.00683832
0.00700785
0.00714397
0.00724238
0.00731151
0.0073604
0.00739039
0.00739322
0.00735008
0.00725097
0.00711451
0.00696199
0.006809
0.00666615
0.00653713
0.00642434
0.00633215
0.00626429
0.00622261
0.00620429
0.00620354
0.00621253
0.00622342
0.00623039
0.00624417
0.00625017
0.00626764
0.0063039
0.00636717
0.00646424
0.00659683
0.00675822
0.00693246
0.00709851
0.00723905
0.00734863
0.00743386
0.00750659
0.00757878
0.00766225
0.00775802
0.00784532
0.00790709
0.00794261
0.0079539
0.00794281
0.00791092
0.00786057
0.00779554
0.00772157
0.00764692
0.00758003
0.00752813
0.00749444
0.00747722
0.00747144
0.00632339
0.00632904
0.00634501
0.0063776
0.00643397
0.00652016
0.00663809
0.00678264
0.00694085
0.00709442
0.00722613
0.00732692
0.00739855
0.00745104
0.0075002
0.00756882
0.0076789
0.00782435
0.00797823
0.00812582
0.00825845
0.00837024
0.00845636
0.00851314
0.00853888
0.00853495
0.00850686
0.00846413
0.00841822
0.00837948
0.00835408
0.00834285
0.00636813
0.00637333
0.00638749
0.0064157
0.006464
0.0065378
0.00663938
0.00676531
0.00690534
0.00704375
0.00716393
0.00725411
0.00731134
0.0073415
0.00735865
0.0073868
0.00745797
0.00758301
0.00774073
0.00791303
0.00808661
0.00825156
0.00839972
0.00852423
0.00862006
0.00868502
0.00872039
0.00873096
0.00872455
0.00871053
0.00869735
0.00869013
0.00639012
0.00639493
0.00640746
0.00643169
0.0064725
0.00653454
0.00662033
0.00672788
0.00684945
0.00697203
0.0070806
0.0071627
0.00721252
0.00723247
0.0072337
0.00723786
0.00727747
0.00737213
0.00751102
0.00768097
0.00787024
0.00806731
0.00825966
0.00843461
0.00858129
0.00869322
0.00876928
0.00881323
0.00883228
0.00883551
0.00883191
0.00882835
0.00639711
0.00640155
0.00641269
0.00643359
0.00646803
0.00651984
0.00659141
0.00668176
0.00678528
0.0068917
0.00698846
0.00706418
0.00711237
0.00713358
0.00713654
0.00713958
0.0071707
0.00724884
0.00736954
0.00752592
0.00771124
0.00791719
0.00813197
0.0083407
0.00852745
0.00867974
0.00879133
0.00886303
0.00890134
0.00891612
0.00891805
0.0089162
0.00639621
0.00640004
0.00640958
0.0064273
0.0064562
0.00649927
0.00655849
0.00663338
0.00671997
0.00681068
0.006896
0.00696705
0.00701842
0.00705022
0.00706931
0.00709022
0.00713336
0.00721122
0.00732204
0.00746446
0.00763658
0.00783446
0.00805009
0.00827078
0.00847986
0.00866097
0.0088023
0.00889968
0.00895676
0.00898285
0.00898989
0.00898933
0.00639781
0.00640027
0.00640697
0.00642035
0.00644319
0.00647799
0.00652631
0.00658783
0.0066599
0.00673752
0.00681455
0.00688523
0.006946
0.00699695
0.00704288
0.00709395
0.00716113
0.00724876
0.00735664
0.00748762
0.00764385
0.0078251
0.00802738
0.00824176
0.0084547
0.00864965
0.00881108
0.00892942
0.00900379
0.00904122
0.00905369
0.00905452
0.00641823
0.00641788
0.0064192
0.00642527
0.00643959
0.00646503
0.00650319
0.00655407
0.00661622
0.00668702
0.0067632
0.00684151
0.00691952
0.00699662
0.00707496
0.00716012
0.00725396
0.0073537
0.0074607
0.00758118
0.00772026
0.00788081
0.00806203
0.00825843
0.00846038
0.00865408
0.00882385
0.00895619
0.00904484
0.00909297
0.00911111
0.00911351
0.00647815
0.00647319
0.00646594
0.00646094
0.00646348
0.00647805
0.00650728
0.00655199
0.0066118
0.00668545
0.00677098
0.00686574
0.00696689
0.00707227
0.00718129
0.00729572
0.00741068
0.00751871
0.00762288
0.00773192
0.0078527
0.00799003
0.0081456
0.00831717
0.00849852
0.0086792
0.00884564
0.00898336
0.00908178
0.00913906
0.00916284
0.00916701
0.00659731
0.00658628
0.00656851
0.00655083
0.00654109
0.00654622
0.00657073
0.00661631
0.00668277
0.00676853
0.00687079
0.00698571
0.00710907
0.00723711
0.00736739
0.00749938
0.00762462
0.00773366
0.00783102
0.00792678
0.0080285
0.00814172
0.00826962
0.00841237
0.00856689
0.00872633
0.00887992
0.00901417
0.00911643
0.00918032
0.00920924
0.00921539
0.00678938
0.00677201
0.00674552
0.00671966
0.00670399
0.00670705
0.0067346
0.0067883
0.00686696
0.0069674
0.00708503
0.00721449
0.00735045
0.00748848
0.0076255
0.00776018
0.0078832
0.00798524
0.00807154
0.00815231
0.00823485
0.00832457
0.0084251
0.00853799
0.00866253
0.00879512
0.0089285
0.00905138
0.0091509
0.00921765
0.00925062
0.00925881
0.00706065
0.00703895
0.0070115
0.00698974
0.00698143
0.0069936
0.00703127
0.00709516
0.00718312
0.00729084
0.00741279
0.00754309
0.00767642
0.00780867
0.00793706
0.00806036
0.00817013
0.00825839
0.0083303
0.00839506
0.00845904
0.00852695
0.00860215
0.00868667
0.00878112
0.0088843
0.0089923
0.00909714
0.00918744
0.00925241
0.00928739
0.00929742
0.00741371
0.00739313
0.00737836
0.00737639
0.00738809
0.00741613
0.00746365
0.00753129
0.00761734
0.00771803
0.00782845
0.00794352
0.00805884
0.00817118
0.00827845
0.00837975
0.00846843
0.00853835
0.0085939
0.00864249
0.00868919
0.00873765
0.00879061
0.00884991
0.00891661
0.00899081
0.0090711
0.00915297
0.00922801
0.00928604
0.00932015
0.00933136
0.00785396
0.00784427
0.00785566
0.00788024
0.00791166
0.0079501
0.00799808
0.00805731
0.00812764
0.00820694
0.00829195
0.00837906
0.0084652
0.00854814
0.00862647
0.00869964
0.00876301
0.00881238
0.00885098
0.00888406
0.00891515
0.00894681
0.00898095
0.00901893
0.00906169
0.00910973
0.00916295
0.00921948
0.00927449
0.00932032
0.0093498
0.00936084
0.00839596
0.00840723
0.0084405
0.00847562
0.00850922
0.00854245
0.00857766
0.00861705
0.00866152
0.00871043
0.00876218
0.00881474
0.00886636
0.00891573
0.00896208
0.0090051
0.00904213
0.00907079
0.00909298
0.00911174
0.00912911
0.00914655
0.00916515
0.00918569
0.00920874
0.0092347
0.00926381
0.00929558
0.009328
0.00935701
0.00937752
0.0093863
0.00906018
0.00906999
0.00908828
0.00910468
0.00911899
0.00913207
0.0091449
0.0091585
0.00917343
0.00918965
0.0092067
0.00922395
0.00924084
0.00925695
0.00927202
0.00928596
0.00929794
0.00930718
0.0093143
0.00932028
0.00932578
0.00933125
0.00933704
0.00934341
0.00935053
0.00935853
0.00936751
0.00937741
0.00938776
0.00939745
0.00940488
0.00940848
)
;

boundaryField
{
    movingWall
    {
        type            fixedValue;
        value           uniform 0.00942;
    }
    fixedWalls
    {
        type            zeroGradient;
    }
    floor
    {
        type            zeroGradient;
    }
    frontAndBack
    {
        type            empty;
    }
}


// ************************************************************************* //
