/*--------------------------------*- C++ -*----------------------------------*\
| =========                 |                                                 |
| \\      /  F ield         | OpenFOAM: The Open Source CFD Toolbox           |
|  \\    /   O peration     | Version:  2212                                  |
|   \\  /    A nd           | Website:  www.openfoam.com                      |
|    \\/     M anipulation  |                                                 |
\*---------------------------------------------------------------------------*/
FoamFile
{
    version     2.0;
    format      ascii;
    arch        "LSB;label=64;scalar=64";
    class       volVectorField;
    location    "1020";
    object      U;
}
// * * * * * * * * * * * * * * * * * * * * * * * * * * * * * * * * * * * * * //

dimensions      [0 1 -1 0 0 0 0];

internalField   nonuniform List<vector> 
1024
(
(6.81642e-06 -7.52398e-06 0)
(-0.000106158 2.90408e-05 0)
(-0.000408654 5.87258e-05 0)
(-0.000855705 6.68765e-05 0)
(-0.0013587 6.25404e-05 0)
(-0.00184056 5.25436e-05 0)
(-0.002227 3.73247e-05 0)
(-0.00241153 1.38037e-05 0)
(-0.0022365 -2.27386e-05 0)
(-0.00152942 -5.8677e-05 0)
(-0.000221186 -7.89775e-05 0)
(0.00130311 -5.87415e-05 0)
(0.00246352 -3.55489e-05 0)
(0.0033087 -1.8006e-05 0)
(0.0038628 -8.56405e-06 0)
(0.00418998 -1.5192e-06 0)
(0.00422998 6.25745e-06 0)
(0.00397588 1.50887e-05 0)
(0.00349722 2.13578e-05 0)
(0.0029251 2.35379e-05 0)
(0.0023628 2.31209e-05 0)
(0.00186103 2.12559e-05 0)
(0.00143866 1.85192e-05 0)
(0.00109791 1.53846e-05 0)
(0.000829926 1.24647e-05 0)
(0.000616502 1.08299e-05 0)
(0.000435144 1.12148e-05 0)
(0.000271358 1.2609e-05 0)
(0.000129514 1.18631e-05 0)
(2.87319e-05 5.86318e-06 0)
(-1.45375e-05 -3.87538e-06 0)
(-9.69631e-06 -9.844e-06 0)
(-3.51191e-05 0.000110041 0)
(-0.000440713 0.000405857 0)
(-0.00125882 0.000620612 0)
(-0.00239098 0.00067838 0)
(-0.00363138 0.000613437 0)
(-0.00477984 0.000473994 0)
(-0.00563348 0.000279088 0)
(-0.00593817 2.52353e-05 0)
(-0.0053631 -0.000294495 0)
(-0.00359103 -0.000604069 0)
(-0.000430066 -0.000772101 0)
(0.00330828 -0.00062721 0)
(0.00624244 -0.000409703 0)
(0.00852676 -0.000246997 0)
(0.0101553 -0.000139191 0)
(0.0112223 -5.48465e-05 0)
(0.0115364 2.96546e-05 0)
(0.0110787 0.000118609 0)
(0.0100054 0.000192868 0)
(0.00861474 0.00023705 0)
(0.00716512 0.000255325 0)
(0.00580679 0.000255402 0)
(0.00461167 0.000242992 0)
(0.00360414 0.00022341 0)
(0.00277525 0.000203492 0)
(0.00209015 0.000191934 0)
(0.00150307 0.000192637 0)
(0.0009851 0.000195514 0)
(0.000545641 0.000177671 0)
(0.000223003 0.000121511 0)
(4.65446e-05 4.03581e-05 0)
(-4.10132e-06 -1.57038e-05 0)
(-8.12028e-05 0.000473659 0)
(-0.000773961 0.00127639 0)
(-0.00201761 0.00176954 0)
(-0.00365168 0.00186504 0)
(-0.00538282 0.00164309 0)
(-0.00692358 0.00121539 0)
(-0.00797968 0.000643922 0)
(-0.00820983 -5.69606e-05 0)
(-0.00719284 -0.000879913 0)
(-0.00466175 -0.00165454 0)
(-0.00035481 -0.00207811 0)
(0.00469976 -0.00172711 0)
(0.00886281 -0.00117579 0)
(0.0123227 -0.000754837 0)
(0.014989 -0.000457044 0)
(0.0169062 -0.000213423 0)
(0.0177285 2.94243e-05 0)
(0.0173702 0.000279758 0)
(0.0160629 0.000498396 0)
(0.0141931 0.000647281 0)
(0.0121197 0.000729163 0)
(0.0100773 0.00075898 0)
(0.00819773 0.000750276 0)
(0.00654299 0.000717164 0)
(0.00512352 0.000677892 0)
(0.00391049 0.00065383 0)
(0.00285702 0.000653571 0)
(0.00193172 0.000652437 0)
(0.00114494 0.000597055 0)
(0.000542715 0.000447435 0)
(0.000168891 0.00022819 0)
(9.27809e-06 3.58428e-05 0)
(-0.000107313 0.00109436 0)
(-0.000976308 0.00266529 0)
(-0.00247767 0.00351086 0)
(-0.00439435 0.00359825 0)
(-0.00636744 0.00309463 0)
(-0.00805307 0.00220161 0)
(-0.00910473 0.00104849 0)
(-0.00913706 -0.000309933 0)
(-0.00773722 -0.00181702 0)
(-0.00477391 -0.00318503 0)
(8.57758e-07 -0.00390564 0)
(0.00542266 -0.00330314 0)
(0.0102089 -0.00234718 0)
(0.0144504 -0.00159069 0)
(0.0179772 -0.00102574 0)
(0.0207562 -0.000542434 0)
(0.0222923 -5.15688e-05 0)
(0.022318 0.000449257 0)
(0.0211319 0.000897277 0)
(0.0191519 0.00122966 0)
(0.0167856 0.00144309 0)
(0.0143205 0.0015574 0)
(0.0119371 0.0015938 0)
(0.00973794 0.00157655 0)
(0.00776606 0.0015378 0)
(0.00601856 0.00151393 0)
(0.004468 0.00151973 0)
(0.00309302 0.00151456 0)
(0.00190635 0.00140688 0)
(0.000962519 0.00111959 0)
(0.000333546 0.000672329 0)
(2.72623e-05 0.000195758 0)
(-0.000105695 0.00189281 0)
(-0.000985975 0.00443178 0)
(-0.00252 0.00569419 0)
(-0.00447822 0.00573278 0)
(-0.00647092 0.00483438 0)
(-0.00811995 0.00331848 0)
(-0.00905228 0.0014096 0)
(-0.00886869 -0.000764588 0)
(-0.00724005 -0.00305712 0)
(-0.00416194 -0.00505415 0)
(0.00052262 -0.00601734 0)
(0.00558333 -0.00516419 0)
(0.0104275 -0.00383055 0)
(0.0149793 -0.00272752 0)
(0.0190378 -0.00186516 0)
(0.0225211 -0.00109429 0)
(0.0248158 -0.000285135 0)
(0.0254594 0.000548692 0)
(0.0246843 0.00130808 0)
(0.0229205 0.00190594 0)
(0.0205912 0.002332 0)
(0.0180053 0.00260861 0)
(0.0153688 0.00276234 0)
(0.0128142 0.00282568 0)
(0.0104168 0.00284274 0)
(0.00820759 0.00286268 0)
(0.00619082 0.00290603 0)
(0.00436699 0.00291719 0)
(0.00276004 0.00276004 0)
(0.00144127 0.00229575 0)
(0.000523513 0.00150268 0)
(4.83168e-05 0.000521606 0)
(-7.95731e-05 0.00272361 0)
(-0.000814469 0.00632093 0)
(-0.00216194 0.00807686 0)
(-0.00393967 0.00808343 0)
(-0.00577594 0.00673562 0)
(-0.00728005 0.00448952 0)
(-0.00806644 0.00169908 0)
(-0.00774195 -0.00139172 0)
(-0.00607681 -0.00451214 0)
(-0.00314647 -0.00710811 0)
(0.001049 -0.0081955 0)
(0.00536325 -0.00712507 0)
(0.00982805 -0.0054982 0)
(0.0142435 -0.00409028 0)
(0.0184299 -0.00294853 0)
(0.0223068 -0.00188705 0)
(0.0252168 -0.000729683 0)
(0.0265671 0.000500229 0)
(0.0263685 0.00164419 0)
(0.0250425 0.00258416 0)
(0.0230083 0.00330538 0)
(0.0205718 0.00383293 0)
(0.0179419 0.00419701 0)
(0.0152634 0.00443513 0)
(0.0126339 0.00459886 0)
(0.0101139 0.0047446 0)
(0.00773939 0.00489438 0)
(0.00553911 0.00497517 0)
(0.00355853 0.00479584 0)
(0.00189483 0.00412316 0)
(0.000705868 0.00284376 0)
(6.92632e-05 0.00107191 0)
(-4.15599e-05 0.00342119 0)
(-0.000533246 0.00802221 0)
(-0.00153685 0.0103526 0)
(-0.00296521 0.0104282 0)
(-0.00451943 0.00867576 0)
(-0.00582494 0.00567616 0)
(-0.00649204 0.00194293 0)
(-0.00614082 -0.00211659 0)
(-0.00460305 -0.00607643 0)
(-0.00200366 -0.00919757 0)
(0.0014495 -0.0102764 0)
(0.00489546 -0.00904292 0)
(0.00869866 -0.00721877 0)
(0.0126385 -0.00557682 0)
(0.0165867 -0.00420844 0)
(0.0204987 -0.00289503 0)
(0.0237548 -0.001407 0)
(0.0257169 0.000256279 0)
(0.0261131 0.00183699 0)
(0.0253118 0.00317999 0)
(0.023717 0.00426869 0)
(0.0216153 0.00513282 0)
(0.0191999 0.00580572 0)
(0.0166119 0.00632708 0)
(0.0139578 0.00675094 0)
(0.0113173 0.00713438 0)
(0.00875182 0.00749301 0)
(0.00631794 0.00772649 0)
(0.00408948 0.00757037 0)
(0.00219388 0.00666234 0)
(0.000825017 0.00474723 0)
(8.30641e-05 0.00187224 0)
(-6.27037e-06 0.00385756 0)
(-0.000235305 0.00925321 0)
(-0.000827874 0.0122034 0)
(-0.00180786 0.0125186 0)
(-0.00299657 0.0105234 0)
(-0.00407347 0.00685755 0)
(-0.00465457 0.00219754 0)
(-0.00436916 -0.00284668 0)
(-0.00306395 -0.0076395 0)
(-0.000915493 -0.01117 0)
(0.00164007 -0.0121241 0)
(0.00421336 -0.0107962 0)
(0.00719142 -0.00886334 0)
(0.0104359 -0.00707501 0)
(0.0138794 -0.0055565 0)
(0.017522 -0.00406225 0)
(0.0208509 -0.00229723 0)
(0.0231453 -0.000222103 0)
(0.0240857 0.00183679 0)
(0.0237881 0.00362855 0)
(0.0226655 0.00514011 0)
(0.0209849 0.00641253 0)
(0.018913 0.00748417 0)
(0.0165746 0.00839491 0)
(0.0140735 0.00919669 0)
(0.0114982 0.00994004 0)
(0.00892787 0.0106225 0)
(0.00644506 0.0110972 0)
(0.00415478 0.0109999 0)
(0.0022123 0.00981139 0)
(0.00082413 0.00711241 0)
(8.17257e-05 0.00287094 0)
(1.56616e-05 0.00398073 0)
(2.83773e-07 0.00983861 0)
(-0.000204637 0.0133668 0)
(-0.00071133 0.0141017 0)
(-0.00148506 0.0121231 0)
(-0.0023024 0.00799704 0)
(-0.0028035 0.00251428 0)
(-0.00262426 -0.00349613 0)
(-0.00161149 -0.00907899 0)
(-3.52687e-05 -0.0128448 0)
(0.00158049 -0.0136085 0)
(0.00326753 -0.0122497 0)
(0.00532362 -0.0102953 0)
(0.00773727 -0.00846508 0)
(0.0105 -0.00689472 0)
(0.0136491 -0.00532 0)
(0.0168284 -0.00336248 0)
(0.0192762 -0.000917286 0)
(0.0206353 0.00163273 0)
(0.0207276 0.00389924 0)
(0.0200176 0.00586529 0)
(0.0187613 0.00759377 0)
(0.0170897 0.00913259 0)
(0.0150999 0.0105209 0)
(0.0128838 0.0118041 0)
(0.0105303 0.0130169 0)
(0.00813142 0.0141203 0)
(0.00579509 0.0148913 0)
(0.0036578 0.0148345 0)
(0.00189176 0.0132681 0)
(0.000679239 0.00964757 0)
(6.23012e-05 0.00391747 0)
(2.59553e-05 0.00383853 0)
(0.000139559 0.00977868 0)
(0.000214098 0.0137029 0)
(0.000126706 0.0149643 0)
(-0.000220434 0.0132839 0)
(-0.000743871 0.0089973 0)
(-0.00113498 0.00289251 0)
(-0.00105111 -0.00399924 0)
(-0.000377051 -0.0102364 0)
(0.000498399 -0.014 0)
(0.00119877 -0.0145718 0)
(0.00195255 -0.0132328 0)
(0.00302982 -0.0113585 0)
(0.0045279 -0.00961045 0)
(0.00648753 -0.00810814 0)
(0.00896804 -0.00658325 0)
(0.0118015 -0.00456599 0)
(0.0142748 -0.00181711 0)
(0.016005 0.00123204 0)
(0.0163766 0.0039883 0)
(0.0159943 0.00641301 0)
(0.0151346 0.00861393 0)
(0.0138848 0.0106565 0)
(0.0123052 0.0125796 0)
(0.0104692 0.0144164 0)
(0.0084634 0.0161715 0)
(0.00639316 0.0177405 0)
(0.00439449 0.0187819 0)
(0.0026315 0.0186451 0)
(0.0012682 0.0165306 0)
(0.000414461 0.0118946 0)
(2.95369e-05 0.0047863 0)
(2.51209e-05 0.0035185 0)
(0.000182685 0.0092307 0)
(0.000393183 0.0133125 0)
(0.000552133 0.0149963 0)
(0.000544523 0.0137913 0)
(0.000355752 0.00972433 0)
(0.000155476 0.00331467 0)
(0.000183088 -0.00430891 0)
(0.000452249 -0.010877 0)
(0.000541924 -0.0143785 0)
(0.000328851 -0.0147932 0)
(0.000121213 -0.0135402 0)
(0.000207052 -0.0118779 0)
(0.000745874 -0.0103543 0)
(0.00180987 -0.00905459 0)
(0.00346487 -0.00772877 0)
(0.00572018 -0.00584446 0)
(0.00805758 -0.00296091 0)
(0.0101716 0.000646769 0)
(0.0108207 0.00390618 0)
(0.0107351 0.0067499 0)
(0.010281 0.00939768 0)
(0.00948615 0.0119416 0)
(0.00836946 0.0144187 0)
(0.0069904 0.0168379 0)
(0.00544133 0.0191464 0)
(0.00385134 0.0211289 0)
(0.00238785 0.0222795 0)
(0.00122425 0.0218066 0)
(0.000465367 0.0189279 0)
(9.66583e-05 0.0133071 0)
(-6.31292e-06 0.0052368 0)
(1.65614e-05 0.00315856 0)
(0.000143295 0.00847975 0)
(0.000347615 0.0125177 0)
(0.000565904 0.0144558 0)
(0.000708937 0.0136312 0)
(0.000742878 0.00981828 0)
(0.000754957 0.00340816 0)
(0.000770541 -0.00427666 0)
(0.000566974 -0.0106522 0)
(-0.000151543 -0.0137781 0)
(-0.00127858 -0.013991 0)
(-0.00240896 -0.012945 0)
(-0.00325581 -0.0116689 0)
(-0.0036673 -0.0105342 0)
(-0.00356342 -0.0095733 0)
(-0.00287107 -0.00858393 0)
(-0.00147697 -0.00706221 0)
(0.000465582 -0.00434355 0)
(0.00245159 -0.000234204 0)
(0.00401039 0.00360195 0)
(0.00429213 0.00679906 0)
(0.00432376 0.00983032 0)
(0.00404224 0.012838 0)
(0.00344591 0.0158556 0)
(0.00260663 0.0188378 0)
(0.00165184 0.0216147 0)
(0.000748079 0.0237898 0)
(6.52744e-05 0.0246747 0)
(-0.000284204 0.0234643 0)
(-0.000325663 0.0197082 0)
(-0.00019057 0.01343 0)
(-3.3551e-05 0.00512569 0)
(4.44945e-06 0.00291412 0)
(4.96219e-05 0.00791184 0)
(0.000136412 0.0118302 0)
(0.000249073 0.0138637 0)
(0.000351347 0.013256 0)
(0.00042274 0.00963625 0)
(0.000477266 0.00338358 0)
(0.000373846 -0.00392166 0)
(-0.000405312 -0.00953775 0)
(-0.00193232 -0.0118493 0)
(-0.00387401 -0.0119886 0)
(-0.00582314 -0.0113283 0)
(-0.0075308 -0.0105761 0)
(-0.008856 -0.00995583 0)
(-0.00970377 -0.00946129 0)
(-0.00997662 -0.00890405 0)
(-0.00953689 -0.00778554 0)
(-0.00834636 -0.00548306 0)
(-0.00665665 -0.00183121 0)
(-0.00428086 0.00251054 0)
(-0.00341806 0.00624717 0)
(-0.00276832 0.00967964 0)
(-0.00240412 0.0131534 0)
(-0.00230502 0.0166693 0)
(-0.00236912 0.0200312 0)
(-0.00244423 0.022877 0)
(-0.00237942 0.0246799 0)
(-0.00208447 0.0248143 0)
(-0.00157041 0.0227646 0)
(-0.000950978 0.0184033 0)
(-0.000398829 0.0120631 0)
(-5.01579e-05 0.00441139 0)
(-8.18019e-06 0.00292837 0)
(-6.70259e-05 0.00791207 0)
(-0.000161433 0.0117828 0)
(-0.00026668 0.013765 0)
(-0.000356668 0.0131243 0)
(-0.000430916 0.00953021 0)
(-0.000587533 0.00356971 0)
(-0.00117893 -0.00272285 0)
(-0.00275011 -0.00677544 0)
(-0.00500361 -0.00839985 0)
(-0.00758007 -0.00867451 0)
(-0.0101772 -0.00855253 0)
(-0.0126036 -0.00844965 0)
(-0.0147425 -0.00846821 0)
(-0.0165013 -0.00857617 0)
(-0.0177589 -0.00860408 0)
(-0.0183069 -0.00809361 0)
(-0.0178707 -0.00637912 0)
(-0.0165241 -0.00330789 0)
(-0.0142505 0.000774867 0)
(-0.0122349 0.00485107 0)
(-0.010737 0.00855986 0)
(-0.00939286 0.0122614 0)
(-0.00820076 0.0159205 0)
(-0.00710685 0.0192057 0)
(-0.00602091 0.0216476 0)
(-0.00486866 0.0227317 0)
(-0.00363943 0.0220243 0)
(-0.00240465 0.0193415 0)
(-0.00130144 0.0149001 0)
(-0.000489813 0.00928466 0)
(-5.00107e-05 0.00320986 0)
(-1.86901e-05 0.00329338 0)
(-0.000189345 0.00877319 0)
(-0.000501862 0.0128553 0)
(-0.000919941 0.0147659 0)
(-0.00138748 0.0139347 0)
(-0.00192899 0.0104096 0)
(-0.00279023 0.00532398 0)
(-0.00434367 0.000668852 0)
(-0.00654113 -0.00238087 0)
(-0.00927872 -0.00375053 0)
(-0.0122298 -0.00427332 0)
(-0.0151602 -0.00471103 0)
(-0.0179885 -0.00528397 0)
(-0.0206555 -0.00599683 0)
(-0.0230953 -0.00677389 0)
(-0.0251863 -0.0074573 0)
(-0.0266778 -0.00768673 0)
(-0.0270947 -0.00689098 0)
(-0.0262854 -0.00491223 0)
(-0.02431 -0.00188453 0)
(-0.0212944 0.00185502 0)
(-0.0183132 0.00553965 0)
(-0.0154933 0.00894503 0)
(-0.0127654 0.0121583 0)
(-0.0102341 0.0148763 0)
(-0.00792823 0.0166476 0)
(-0.00583927 0.017036 0)
(-0.00397665 0.0158128 0)
(-0.00240135 0.0130883 0)
(-0.0011936 0.00936024 0)
(-0.000414189 0.00534662 0)
(-4.11978e-05 0.00165764 0)
(-2.98294e-05 0.00420356 0)
(-0.000284371 0.0110223 0)
(-0.000777039 0.0159415 0)
(-0.00150118 0.0182297 0)
(-0.00243024 0.0176193 0)
(-0.00361926 0.0146678 0)
(-0.00524781 0.0107887 0)
(-0.0074572 0.00743425 0)
(-0.0101649 0.0050376 0)
(-0.0131364 0.003194 0)
(-0.0161447 0.00152076 0)
(-0.0191145 -3.84045e-05 0)
(-0.0219957 -0.00151977 0)
(-0.0247473 -0.00291226 0)
(-0.0273682 -0.00425681 0)
(-0.0298346 -0.00555958 0)
(-0.0319387 -0.00658693 0)
(-0.0331434 -0.00694291 0)
(-0.0331337 -0.00655709 0)
(-0.0318451 -0.00553828 0)
(-0.029291 -0.00391849 0)
(-0.0256468 -0.00164503 0)
(-0.0213742 0.00109968 0)
(-0.0168872 0.00402149 0)
(-0.0125 0.00679874 0)
(-0.00854164 0.00888993 0)
(-0.00529887 0.00957566 0)
(-0.00287573 0.00895601 0)
(-0.00129526 0.00732094 0)
(-0.000435017 0.00512997 0)
(-7.61842e-05 0.00287429 0)
(8.59166e-06 0.000874646 0)
(-1.71368e-05 0.00521545 0)
(-0.000207411 0.0136338 0)
(-0.000617905 0.0197907 0)
(-0.00129114 0.0229795 0)
(-0.00224026 0.0230647 0)
(-0.00349242 0.0207594 0)
(-0.00508396 0.0174225 0)
(-0.00699953 0.0142496 0)
(-0.00917652 0.0116445 0)
(-0.011579 0.00943886 0)
(-0.0142014 0.00738215 0)
(-0.0170238 0.00532583 0)
(-0.0199814 0.00319853 0)
(-0.0229822 0.000977034 0)
(-0.0258539 -0.00121051 0)
(-0.028327 -0.00313767 0)
(-0.030491 -0.00482356 0)
(-0.0320374 -0.00614689 0)
(-0.0326794 -0.00720075 0)
(-0.0323249 -0.00822268 0)
(-0.0308958 -0.00930283 0)
(-0.0283972 -0.0103595 0)
(-0.0249436 -0.0111579 0)
(-0.0207652 -0.011397 0)
(-0.0161957 -0.0107526 0)
(-0.0116352 -0.00894286 0)
(-0.00748969 -0.00584655 0)
(-0.00416998 -0.00228697 0)
(-0.00188722 0.000694992 0)
(-0.000616244 0.00227415 0)
(-9.52279e-05 0.00228151 0)
(1.49961e-05 0.00107689 0)
(4.06419e-07 0.00570302 0)
(-6.13909e-05 0.0150971 0)
(-0.000259098 0.0222747 0)
(-0.000675665 0.0264441 0)
(-0.00137432 0.027355 0)
(-0.00238064 0.0256233 0)
(-0.00366958 0.022546 0)
(-0.00516903 0.0193398 0)
(-0.0068073 0.016538 0)
(-0.00856023 0.0140851 0)
(-0.0104372 0.0117576 0)
(-0.0124451 0.00939783 0)
(-0.0145726 0.00693707 0)
(-0.0168023 0.00436454 0)
(-0.0191215 0.00172897 0)
(-0.0215432 -0.00084256 0)
(-0.0233954 -0.0029833 0)
(-0.0249309 -0.0047307 0)
(-0.0259893 -0.00642819 0)
(-0.0264822 -0.00844746 0)
(-0.0262956 -0.0109495 0)
(-0.0253356 -0.0138678 0)
(-0.023569 -0.0169214 0)
(-0.0210441 -0.0196433 0)
(-0.0178899 -0.0214386 0)
(-0.0143063 -0.0216808 0)
(-0.0105518 -0.0198832 0)
(-0.00695399 -0.0159627 0)
(-0.00389212 -0.0105574 0)
(-0.00169746 -0.0051381 0)
(-0.000478369 -0.00131492 0)
(-2.45896e-05 0.00022546 0)
(1.59844e-05 0.00566318 0)
(8.51574e-05 0.0153009 0)
(0.000126667 0.0230737 0)
(3.87099e-05 0.0281224 0)
(-0.000294904 0.0299506 0)
(-0.000940981 0.0288592 0)
(-0.00187159 0.0260114 0)
(-0.00296964 0.0226916 0)
(-0.00412 0.0196249 0)
(-0.00527785 0.0169021 0)
(-0.00644827 0.0143446 0)
(-0.00765478 0.0117801 0)
(-0.00891938 0.00912429 0)
(-0.0102556 0.00636888 0)
(-0.0116567 0.00357203 0)
(-0.0131359 0.00085757 0)
(-0.0149243 -0.00158779 0)
(-0.0162201 -0.00346954 0)
(-0.0174395 -0.00529507 0)
(-0.0185046 -0.00764208 0)
(-0.01933 -0.0108111 0)
(-0.0197537 -0.0148372 0)
(-0.0195997 -0.0194878 0)
(-0.0187352 -0.0242667 0)
(-0.0170925 -0.0284618 0)
(-0.0147055 -0.0311917 0)
(-0.0117264 -0.031553 0)
(-0.00843005 -0.0288391 0)
(-0.00520686 -0.0229624 0)
(-0.00252709 -0.0150082 0)
(-0.000797639 -0.00724012 0)
(-5.18373e-05 -0.00163253 0)
(2.72007e-05 0.00526897 0)
(0.000205676 0.0146058 0)
(0.000461911 0.0225568 0)
(0.000691635 0.0281876 0)
(0.000754788 0.0308501 0)
(0.000542128 0.0305653 0)
(2.96363e-05 0.0281178 0)
(-0.000679873 0.0246952 0)
(-0.00140753 0.0213405 0)
(-0.00205636 0.0183265 0)
(-0.00260465 0.0155566 0)
(-0.00308721 0.0128592 0)
(-0.00356258 0.0101254 0)
(-0.00409634 0.00732738 0)
(-0.00473597 0.004516 0)
(-0.00551807 0.00180805 0)
(-0.0068311 -0.000634306 0)
(-0.00793232 -0.00249301 0)
(-0.00905547 -0.00410335 0)
(-0.010242 -0.00621158 0)
(-0.0115478 -0.00927015 0)
(-0.0128718 -0.0135103 0)
(-0.0139798 -0.0188819 0)
(-0.0146128 -0.0249961 0)
(-0.0145206 -0.0311798 0)
(-0.013552 -0.0364151 0)
(-0.0116943 -0.0394915 0)
(-0.00909798 -0.039115 0)
(-0.00609959 -0.0343347 0)
(-0.00322228 -0.0253017 0)
(-0.00110602 -0.0141137 0)
(-8.62413e-05 -0.00398275 0)
(3.32284e-05 0.00468682 0)
(0.000290375 0.0133594 0)
(0.000719943 0.0211612 0)
(0.0012245 0.0271193 0)
(0.00165141 0.0304359 0)
(0.00186831 0.0308865 0)
(0.00181589 0.0289791 0)
(0.0015525 0.0257215 0)
(0.00124414 0.0221623 0)
(0.00105051 0.018835 0)
(0.00104107 0.0158248 0)
(0.00118688 0.0130126 0)
(0.00139956 0.0102738 0)
(0.00156382 0.00755164 0)
(0.00156538 0.00487587 0)
(0.00133195 0.00236077 0)
(0.00064586 0.000122148 0)
(-0.00070013 -0.00169552 0)
(-0.00184731 -0.00320644 0)
(-0.00301271 -0.00500998 0)
(-0.00436027 -0.00760863 0)
(-0.00597591 -0.011429 0)
(-0.00776806 -0.0167306 0)
(-0.00946956 -0.0233233 0)
(-0.0107105 -0.0307611 0)
(-0.0111624 -0.0380224 0)
(-0.0106149 -0.0437776 0)
(-0.00902358 -0.0462741 0)
(-0.00659045 -0.0437356 0)
(-0.00379395 -0.0351 0)
(-0.00141512 -0.021475 0)
(-0.000124612 -0.00673094 0)
(3.46199e-05 0.00405386 0)
(0.000334941 0.0118821 0)
(0.000881825 0.0193047 0)
(0.00159735 0.0253616 0)
(0.00233114 0.0291404 0)
(0.00294301 0.0302071 0)
(0.00335359 0.0288272 0)
(0.00358496 0.025828 0)
(0.00376673 0.0222133 0)
(0.00406063 0.0186699 0)
(0.00455977 0.0154596 0)
(0.00524913 0.0125605 0)
(0.00602674 0.00986221 0)
(0.00674109 0.00728231 0)
(0.00722288 0.00481125 0)
(0.00731148 0.00252345 0)
(0.00690076 0.000607765 0)
(0.00566676 -0.000922105 0)
(0.00441467 -0.00234898 0)
(0.00313665 -0.00397192 0)
(0.00177396 -0.0061441 0)
(0.000200629 -0.00934507 0)
(-0.00177594 -0.0141602 0)
(-0.00397884 -0.0204579 0)
(-0.00614935 -0.0283279 0)
(-0.00784089 -0.0368457 0)
(-0.00865114 -0.0448304 0)
(-0.00827386 -0.0502483 0)
(-0.00669411 -0.050647 0)
(-0.00424591 -0.0436924 0)
(-0.00174058 -0.0288667 0)
(-0.000171224 -0.00975603 0)
(3.13168e-05 0.00346491 0)
(0.000333896 0.0104202 0)
(0.000926455 0.0173311 0)
(0.00176641 0.0232931 0)
(0.00272838 0.0273265 0)
(0.00368511 0.0288345 0)
(0.00455448 0.0278899 0)
(0.00533053 0.025169 0)
(0.00609055 0.0216138 0)
(0.00694916 0.0179859 0)
(0.00798003 0.0146749 0)
(0.00916931 0.0117564 0)
(0.0104151 0.00915331 0)
(0.0115534 0.00676993 0)
(0.0123886 0.00456261 0)
(0.0127158 0.00256424 0)
(0.012401 0.000973277 0)
(0.0113451 -0.00032002 0)
(0.0100814 -0.00157991 0)
(0.00868649 -0.0030492 0)
(0.00718241 -0.00502286 0)
(0.00555309 -0.00781063 0)
(0.00366504 -0.0117688 0)
(0.00148324 -0.0171965 0)
(-0.00116339 -0.0248953 0)
(-0.00376207 -0.0337857 0)
(-0.00585482 -0.0432765 0)
(-0.00683764 -0.0512749 0)
(-0.00638331 -0.0548998 0)
(-0.00456859 -0.0506478 0)
(-0.00211 -0.0359809 0)
(-0.00023487 -0.0130251 0)
(2.22545e-05 0.00299162 0)
(0.000273882 0.00917171 0)
(0.000818254 0.0155261 0)
(0.00167186 0.0212301 0)
(0.0027678 0.0252902 0)
(0.00401768 0.0270104 0)
(0.00535052 0.0263382 0)
(0.00673089 0.0238492 0)
(0.00816365 0.0204283 0)
(0.00967824 0.0168528 0)
(0.011291 0.0135756 0)
(0.012971 0.0107371 0)
(0.0146246 0.00829299 0)
(0.0161004 0.00614513 0)
(0.0172088 0.00422637 0)
(0.0177477 0.00253102 0)
(0.0175695 0.00121706 0)
(0.0168057 0.000174448 0)
(0.0156086 -0.000873834 0)
(0.0142245 -0.00213311 0)
(0.0126499 -0.00386616 0)
(0.0108803 -0.00636287 0)
(0.00887521 -0.00991865 0)
(0.00661841 -0.014766 0)
(0.0039994 -0.0212127 0)
(0.000987432 -0.0295239 0)
(-0.00216597 -0.0397173 0)
(-0.00458713 -0.0496706 0)
(-0.00554224 -0.056454 0)
(-0.00470313 -0.0556435 0)
(-0.00254649 -0.0425305 0)
(-0.000333772 -0.0165684 0)
(1.54729e-06 0.00270345 0)
(0.000113958 0.00832104 0)
(0.000478628 0.0141398 0)
(0.00121805 0.0194212 0)
(0.00236443 0.0232435 0)
(0.00388451 0.0249008 0)
(0.0057169 0.0242965 0)
(0.00777871 0.0219625 0)
(0.00997442 0.0187284 0)
(0.0122227 0.0153339 0)
(0.0144643 0.0122301 0)
(0.0166444 0.00957944 0)
(0.0186841 0.00735766 0)
(0.0204656 0.00547054 0)
(0.0218333 0.00383864 0)
(0.0226211 0.00242677 0)
(0.022687 0.00134312 0)
(0.0222272 0.000515202 0)
(0.0212881 -0.000319787 0)
(0.0200909 -0.0013634 0)
(0.0186207 -0.00283158 0)
(0.0168516 -0.00498096 0)
(0.014743 -0.00807976 0)
(0.0122638 -0.0123785 0)
(0.009384 -0.0181279 0)
(0.00609725 -0.0254819 0)
(0.0024612 -0.03464 0)
(-0.00132191 -0.0457276 0)
(-0.00395374 -0.0552967 0)
(-0.00451364 -0.0583802 0)
(-0.00303995 -0.0481796 0)
(-0.00049726 -0.0204547 0)
(-4.29503e-05 0.00271182 0)
(-0.0002322 0.00808191 0)
(-0.000246356 0.0133516 0)
(0.00025237 0.0180204 0)
(0.00143744 0.0212889 0)
(0.00328112 0.022582 0)
(0.00570065 0.0218419 0)
(0.00853826 0.0195993 0)
(0.0115712 0.0166061 0)
(0.0146033 0.0135079 0)
(0.0175082 0.0106995 0)
(0.0202159 0.00832897 0)
(0.022673 0.00637889 0)
(0.0248077 0.00476289 0)
(0.0265148 0.00339978 0)
(0.027678 0.00223815 0)
(0.0281487 0.00134861 0)
(0.0280818 0.000690999 0)
(0.0275716 4.14142e-05 0)
(0.0266919 -0.000797974 0)
(0.0254679 -0.00200069 0)
(0.0238335 -0.00378156 0)
(0.0217155 -0.00637767 0)
(0.0190503 -0.0100296 0)
(0.0158051 -0.0149796 0)
(0.0120006 -0.0214501 0)
(0.00773064 -0.0296835 0)
(0.00314296 -0.0398632 0)
(-0.00129782 -0.0514006 0)
(-0.00374441 -0.0585318 0)
(-0.00349332 -0.052492 0)
(-0.000755026 -0.0247122 0)
(-0.000153966 0.00324164 0)
(-0.000929027 0.00879483 0)
(-0.00149535 0.0134122 0)
(-0.00130542 0.0169781 0)
(-3.8902e-05 0.0193369 0)
(0.00231171 0.0200249 0)
(0.00547181 0.0190098 0)
(0.00919389 0.0168474 0)
(0.0131254 0.0141627 0)
(0.0169827 0.0114565 0)
(0.0206028 0.00903205 0)
(0.0239195 0.00700248 0)
(0.0269109 0.00535056 0)
(0.0295496 0.00400192 0)
(0.0317746 0.00288328 0)
(0.0335071 0.00194085 0)
(0.0345523 0.00122152 0)
(0.0349894 0.000702396 0)
(0.034974 0.000205872 0)
(0.0344921 -0.000442835 0)
(0.0335752 -0.00138748 0)
(0.0321351 -0.00279417 0)
(0.0300675 -0.004859 0)
(0.027272 -0.00779582 0)
(0.0236825 -0.0118394 0)
(0.0193 -0.0172538 0)
(0.0142163 -0.0243719 0)
(0.00861607 -0.0335957 0)
(0.00282817 -0.0449452 0)
(-0.0019476 -0.0557285 0)
(-0.00365366 -0.0549214 0)
(-0.00110284 -0.029243 0)
(-0.000410296 0.00465785 0)
(-0.0021872 0.0106536 0)
(-0.00335587 0.0141901 0)
(-0.00330282 0.0161943 0)
(-0.00176444 0.0172304 0)
(0.00139417 0.0171201 0)
(0.0055197 0.0158051 0)
(0.0102543 0.0137818 0)
(0.0151683 0.0114807 0)
(0.0199408 0.00923311 0)
(0.0244043 0.0072418 0)
(0.0285025 0.0055818 0)
(0.032231 0.00423702 0)
(0.035582 0.00314949 0)
(0.0385104 0.00226038 0)
(0.0409461 0.0015234 0)
(0.0426225 0.000968437 0)
(0.0435633 0.000576541 0)
(0.0439648 0.000212711 0)
(0.0438532 -0.000261469 0)
(0.0432068 -0.000957943 0)
(0.0419391 -0.00199762 0)
(0.0399298 -0.00352987 0)
(0.0370502 -0.0057276 0)
(0.0331925 -0.00880005 0)
(0.0283035 -0.013022 0)
(0.022418 -0.0187905 0)
(0.0156874 -0.026683 0)
(0.00846433 -0.0372865 0)
(0.00160184 -0.0496161 0)
(-0.00304725 -0.054843 0)
(-0.00145301 -0.0338391 0)
(-0.000892522 0.00754654 0)
(-0.00402999 0.0136078 0)
(-0.00541282 0.0151622 0)
(-0.00489293 0.0151622 0)
(-0.00248985 0.0147044 0)
(0.00190361 0.0137133 0)
(0.00723772 0.0122156 0)
(0.0131426 0.0104422 0)
(0.0191756 0.00859189 0)
(0.0250165 0.00684111 0)
(0.0304935 0.00530695 0)
(0.0355369 0.00403413 0)
(0.0401258 0.00301039 0)
(0.0442397 0.00219463 0)
(0.0478282 0.00154296 0)
(0.0508232 0.00101916 0)
(0.0529259 0.000636532 0)
(0.0541694 0.000372884 0)
(0.0547999 0.000131056 0)
(0.0548867 -0.000183784 0)
(0.0543816 -0.000648051 0)
(0.053208 -0.00134427 0)
(0.0512418 -0.00237468 0)
(0.0483387 -0.0038625 0)
(0.0443559 -0.00597037 0)
(0.0391728 -0.00894249 0)
(0.0327184 -0.0131827 0)
(0.0250195 -0.0193666 0)
(0.0163224 -0.0284675 0)
(0.00734258 -0.0408757 0)
(-0.000809456 -0.0513953 0)
(-0.00150469 -0.0379644 0)
(-0.00167669 0.0127373 0)
(-0.00568988 0.0168184 0)
(-0.00564911 0.0151873 0)
(-0.00314001 0.0130871 0)
(0.00141992 0.0112814 0)
(0.00738134 0.00972658 0)
(0.0140828 0.00827713 0)
(0.0212151 0.0068691 0)
(0.0283591 0.00552355 0)
(0.0351992 0.00430077 0)
(0.0415378 0.00325296 0)
(0.04727 0.00240047 0)
(0.0523503 0.00173183 0)
(0.0567562 0.00121696 0)
(0.0604607 0.000822674 0)
(0.0634366 0.000521382 0)
(0.0654583 0.000311597 0)
(0.0666257 0.00017028 0)
(0.0672063 3.77992e-05 0)
(0.0672689 -0.000137095 0)
(0.0667722 -0.000398484 0)
(0.0656417 -0.000795597 0)
(0.0637548 -0.00138768 0)
(0.0609654 -0.00224802 0)
(0.0571147 -0.00348103 0)
(0.0520309 -0.00526384 0)
(0.0455234 -0.00793206 0)
(0.0373995 -0.0121338 0)
(0.0275819 -0.019021 0)
(0.0163557 -0.0300018 0)
(0.00430591 -0.0434021 0)
(-0.000188823 -0.0395374 0)
(-0.00128541 0.0181558 0)
(-0.00322853 0.0179161 0)
(0.00295172 0.0124371 0)
(0.0100947 0.00925803 0)
(0.0174333 0.00710103 0)
(0.0249693 0.00551592 0)
(0.0326384 0.0043269 0)
(0.0402633 0.0033708 0)
(0.047558 0.00256682 0)
(0.0542689 0.00189474 0)
(0.0602263 0.00135462 0)
(0.0653541 0.00094149 0)
(0.0696533 0.000638478 0)
(0.0731671 0.000421437 0)
(0.0759472 0.000266868 0)
(0.0780449 0.000157214 0)
(0.0793833 8.56543e-05 0)
(0.0801027 3.72773e-05 0)
(0.0804084 -1.21326e-05 0)
(0.0803197 -8.17006e-05 0)
(0.0798113 -0.000190016 0)
(0.0788035 -0.0003588 0)
(0.0771829 -0.000613281 0)
(0.0748195 -0.00098538 0)
(0.071568 -0.00152421 0)
(0.0672477 -0.00232436 0)
(0.0615957 -0.00359283 0)
(0.0541983 -0.00579281 0)
(0.0444314 -0.00989882 0)
(0.0315202 -0.0176046 0)
(0.0154472 -0.0297626 0)
(0.00630154 -0.0334382 0)
(0.0207748 0.0113247 0)
(0.0270644 0.00921066 0)
(0.0399882 0.00535181 0)
(0.0505225 0.00324259 0)
(0.0585445 0.00203493 0)
(0.0651054 0.00128023 0)
(0.0707277 0.000812296 0)
(0.0756096 0.000518297 0)
(0.0797986 0.000326973 0)
(0.0832973 0.000200147 0)
(0.0861262 0.000117626 0)
(0.0883465 6.64017e-05 0)
(0.0900492 3.61583e-05 0)
(0.0913285 1.87152e-05 0)
(0.0922612 8.44099e-06 0)
(0.0929054 2.42813e-06 0)
(0.0932733 -7.1734e-07 0)
(0.0934359 -3.54752e-06 0)
(0.0934503 -8.17305e-06 0)
(0.0933079 -1.65876e-05 0)
(0.0929769 -3.12911e-05 0)
(0.0924004 -5.54676e-05 0)
(0.0915089 -9.26921e-05 0)
(0.0902265 -0.00014761 0)
(0.0884674 -0.000228069 0)
(0.086111 -0.000351557 0)
(0.0829394 -0.000562451 0)
(0.0785001 -0.000974042 0)
(0.0718204 -0.00186648 0)
(0.0608807 -0.00398512 0)
(0.0432888 -0.00919578 0)
(0.028596 -0.0145329 0)
)
;

boundaryField
{
    movingWall
    {
        type            fixedValue;
        value           uniform (0.1 0 0);
    }
    fixedWalls
    {
        type            noSlip;
    }
    floor
    {
        type            noSlip;
    }
    frontAndBack
    {
        type            empty;
    }
}


// ************************************************************************* //
