/*--------------------------------*- C++ -*----------------------------------*\
| =========                 |                                                 |
| \\      /  F ield         | OpenFOAM: The Open Source CFD Toolbox           |
|  \\    /   O peration     | Version:  2212                                  |
|   \\  /    A nd           | Website:  www.openfoam.com                      |
|    \\/     M anipulation  |                                                 |
\*---------------------------------------------------------------------------*/
FoamFile
{
    version     2.0;
    format      ascii;
    arch        "LSB;label=64;scalar=64";
    class       volScalarField;
    location    "1020";
    object      Xli;
}
// * * * * * * * * * * * * * * * * * * * * * * * * * * * * * * * * * * * * * //

dimensions      [1 -3 0 0 0 0 0];

internalField   nonuniform List<scalar> 
1024
(
0.0423456
0.0423466
0.0423488
0.0423528
0.0423589
0.0423675
0.0423784
0.0423911
0.0424047
0.0424181
0.0424302
0.0424397
0.0424458
0.042448
0.0424458
0.0424383
0.0424255
0.0424092
0.0423915
0.0423728
0.0423532
0.0423327
0.042312
0.042292
0.0422738
0.0422584
0.0422462
0.0422371
0.0422309
0.042227
0.0422248
0.042224
0.0423458
0.0423468
0.042349
0.0423531
0.0423594
0.0423682
0.0423793
0.0423921
0.0424059
0.0424194
0.0424316
0.0424412
0.0424472
0.0424494
0.042447
0.0424395
0.0424266
0.0424103
0.0423926
0.042374
0.0423544
0.042334
0.0423132
0.0422931
0.0422748
0.0422592
0.0422468
0.0422376
0.0422312
0.0422273
0.0422251
0.0422242
0.0423462
0.0423472
0.0423496
0.0423539
0.0423604
0.0423695
0.042381
0.0423942
0.0424084
0.0424225
0.0424351
0.0424448
0.0424507
0.0424526
0.04245
0.0424422
0.0424291
0.0424127
0.0423949
0.0423763
0.0423567
0.0423364
0.0423157
0.0422955
0.0422769
0.0422609
0.0422481
0.0422385
0.042232
0.0422278
0.0422256
0.0422246
0.0423469
0.0423479
0.0423504
0.0423549
0.0423619
0.0423715
0.0423835
0.0423975
0.0424127
0.0424278
0.0424413
0.0424514
0.0424572
0.0424586
0.0424553
0.0424468
0.0424331
0.0424162
0.0423982
0.0423796
0.0423602
0.0423401
0.0423194
0.0422991
0.0422801
0.0422636
0.0422502
0.0422402
0.0422332
0.0422288
0.0422264
0.0422255
0.0423479
0.042349
0.0423516
0.0423563
0.0423637
0.0423739
0.0423868
0.0424021
0.0424188
0.0424357
0.0424509
0.0424619
0.0424676
0.0424681
0.0424636
0.0424537
0.0424387
0.0424209
0.0424024
0.0423836
0.0423643
0.0423444
0.042324
0.0423035
0.0422842
0.0422671
0.042253
0.0422424
0.042235
0.0422303
0.0422277
0.0422266
0.0423492
0.0423503
0.042353
0.042358
0.0423657
0.0423767
0.0423909
0.0424079
0.042427
0.0424468
0.0424646
0.0424769
0.0424826
0.0424819
0.0424754
0.0424633
0.042446
0.0424264
0.0424069
0.0423876
0.0423684
0.0423488
0.0423287
0.0423084
0.0422888
0.0422711
0.0422564
0.042245
0.0422371
0.042232
0.0422293
0.0422282
0.0423509
0.042352
0.0423547
0.0423599
0.0423681
0.04238
0.0423957
0.0424151
0.0424376
0.0424613
0.0424825
0.0424969
0.0425026
0.0425004
0.0424912
0.0424756
0.0424549
0.0424325
0.0424112
0.0423911
0.0423717
0.0423524
0.0423327
0.0423126
0.042293
0.042275
0.0422597
0.0422478
0.0422393
0.042234
0.042231
0.0422298
0.042353
0.0423541
0.0423569
0.0423623
0.042371
0.0423838
0.0424014
0.0424239
0.0424506
0.0424791
0.0425046
0.0425215
0.0425276
0.0425234
0.0425107
0.0424906
0.0424649
0.0424383
0.0424143
0.0423928
0.042373
0.0423539
0.0423347
0.0423151
0.0422958
0.0422777
0.0422622
0.04225
0.0422413
0.0422357
0.0422326
0.0422314
0.042356
0.0423571
0.0423599
0.0423654
0.0423746
0.0423886
0.0424085
0.0424346
0.0424663
0.0425005
0.0425308
0.0425506
0.0425569
0.0425503
0.0425334
0.0425075
0.0424753
0.042443
0.0424151
0.0423916
0.0423711
0.0423521
0.0423334
0.0423146
0.0422959
0.0422784
0.0422631
0.042251
0.0422423
0.0422368
0.0422337
0.0422324
0.0423605
0.0423616
0.0423644
0.0423701
0.0423798
0.0423952
0.0424177
0.0424481
0.0424856
0.042526
0.0425613
0.0425838
0.0425899
0.0425806
0.0425587
0.042526
0.0424854
0.0424454
0.0424124
0.0423861
0.0423645
0.0423456
0.0423277
0.0423099
0.0422924
0.0422759
0.0422615
0.0422501
0.0422419
0.0422366
0.0422336
0.0422323
0.0423677
0.0423688
0.0423717
0.0423776
0.0423882
0.0424053
0.0424309
0.0424664
0.0425103
0.042557
0.0425969
0.0426215
0.0426268
0.0426143
0.0425872
0.0425467
0.0424957
0.0424456
0.0424054
0.0423751
0.042352
0.0423332
0.0423163
0.0423
0.0422842
0.0422695
0.0422568
0.0422466
0.0422393
0.0422344
0.0422317
0.0422305
0.0423797
0.0423808
0.0423838
0.0423903
0.0424021
0.0424216
0.0424513
0.0424924
0.042543
0.0425956
0.0426392
0.0426647
0.0426688
0.0426534
0.0426216
0.0425731
0.04251
0.0424466
0.0423961
0.0423597
0.0423339
0.0423146
0.0422987
0.0422844
0.042271
0.0422588
0.0422483
0.04224
0.0422338
0.0422297
0.0422272
0.0422261
0.0423993
0.0424005
0.0424039
0.0424114
0.0424252
0.042448
0.0424826
0.04253
0.0425869
0.0426442
0.04269
0.0427156
0.0427189
0.0427025
0.0426684
0.0426138
0.0425391
0.0424602
0.0423948
0.0423474
0.042315
0.0422928
0.0422767
0.042264
0.0422532
0.0422438
0.042236
0.0422298
0.0422252
0.0422222
0.0422204
0.0422196
0.0424296
0.042431
0.0424351
0.0424441
0.0424607
0.042488
0.0425284
0.0425822
0.0426444
0.0427045
0.042751
0.0427768
0.0427818
0.0427689
0.0427381
0.0426843
0.0426046
0.042513
0.0424302
0.0423644
0.0423168
0.0422839
0.0422615
0.0422461
0.0422354
0.042228
0.0422232
0.0422204
0.0422193
0.0422194
0.04222
0.0422205
0.0424724
0.0424741
0.0424792
0.0424904
0.0425107
0.0425432
0.0425899
0.0426492
0.0427147
0.0427756
0.042822
0.04285
0.0428615
0.0428592
0.0428419
0.0428036
0.0427378
0.042652
0.0425636
0.042483
0.0424153
0.0423617
0.0423209
0.0422914
0.0422723
0.0422623
0.0422598
0.0422626
0.0422684
0.0422747
0.0422798
0.0422826
0.0425249
0.042527
0.0425333
0.0425466
0.0425702
0.0426069
0.0426578
0.04272
0.0427863
0.0428471
0.042895
0.0429283
0.0429504
0.0429643
0.0429706
0.0429663
0.0429453
0.0429053
0.0428535
0.0427973
0.0427418
0.0426905
0.0426445
0.0426044
0.0425719
0.042548
0.0425335
0.0425272
0.042527
0.0425303
0.0425342
0.0425367
0.0425708
0.042573
0.0425794
0.0425926
0.0426159
0.0426516
0.0427003
0.0427594
0.042823
0.0428831
0.0429334
0.0429716
0.0430003
0.0430236
0.0430454
0.0430698
0.0430972
0.0431217
0.0431382
0.0431465
0.0431474
0.0431412
0.0431285
0.0431099
0.0430867
0.0430607
0.0430347
0.0430116
0.0429938
0.0429823
0.0429764
0.0429745
0.0426011
0.0426032
0.042609
0.042621
0.0426417
0.0426735
0.0427171
0.0427704
0.0428287
0.042885
0.0429331
0.0429694
0.0429945
0.0430119
0.0430268
0.0430468
0.0430795
0.0431236
0.0431707
0.0432161
0.0432571
0.0432916
0.043318
0.0433352
0.0433425
0.0433403
0.0433304
0.0433159
0.0433004
0.0432874
0.043279
0.0432752
0.0426187
0.0426206
0.0426258
0.0426361
0.042654
0.0426813
0.042719
0.0427658
0.0428178
0.0428693
0.0429139
0.0429474
0.0429685
0.0429791
0.0429839
0.0429909
0.0430109
0.0430482
0.0430963
0.0431491
0.0432025
0.0432532
0.0432988
0.0433371
0.0433667
0.0433869
0.043398
0.0434014
0.0433995
0.0433952
0.0433911
0.0433889
0.0426278
0.0426296
0.0426341
0.042643
0.0426581
0.0426812
0.0427132
0.0427534
0.042799
0.042845
0.042886
0.0429171
0.0429362
0.042944
0.042944
0.0429434
0.0429533
0.0429808
0.0430228
0.043075
0.0431333
0.0431941
0.0432535
0.0433074
0.0433525
0.043387
0.0434106
0.0434244
0.0434307
0.043432
0.0434312
0.0434302
0.0426313
0.0426329
0.042637
0.0426446
0.0426574
0.0426767
0.0427035
0.0427374
0.0427765
0.0428168
0.0428537
0.0428828
0.0429016
0.0429101
0.0429111
0.0429105
0.042918
0.0429404
0.0429768
0.0430248
0.0430821
0.0431459
0.0432124
0.0432769
0.0433346
0.0433815
0.0434158
0.043438
0.04345
0.0434549
0.0434558
0.0434554
0.0426316
0.042633
0.0426365
0.0426431
0.0426538
0.0426699
0.0426921
0.0427203
0.0427532
0.0427877
0.0428204
0.0428478
0.0428676
0.0428798
0.0428863
0.042892
0.0429039
0.0429266
0.0429601
0.0430039
0.0430573
0.0431188
0.0431858
0.0432542
0.0433188
0.0433746
0.0434181
0.043448
0.0434657
0.0434739
0.0434763
0.0434763
0.0426323
0.0426333
0.0426358
0.0426409
0.0426494
0.0426625
0.0426807
0.042704
0.0427314
0.0427609
0.0427902
0.042817
0.0428397
0.0428582
0.0428737
0.0428897
0.0429098
0.0429362
0.0429692
0.0430097
0.0430582
0.0431147
0.0431777
0.0432443
0.0433102
0.0433703
0.0434199
0.0434562
0.043479
0.0434907
0.0434947
0.0434951
0.0426389
0.0426389
0.0426397
0.0426423
0.042648
0.0426577
0.0426722
0.0426914
0.0427148
0.0427414
0.0427696
0.0427983
0.0428263
0.0428532
0.0428794
0.0429068
0.0429362
0.042967
0.0430001
0.0430375
0.0430809
0.043131
0.0431876
0.0432487
0.0433112
0.043371
0.0434231
0.0434636
0.0434908
0.0435055
0.0435113
0.0435121
0.0426581
0.0426566
0.0426546
0.0426535
0.0426553
0.0426613
0.0426725
0.0426892
0.0427111
0.0427378
0.0427684
0.0428018
0.0428368
0.0428727
0.0429089
0.0429461
0.0429827
0.0430167
0.0430493
0.0430834
0.0431211
0.0431641
0.0432127
0.0432661
0.0433223
0.0433781
0.0434292
0.0434713
0.0435013
0.0435188
0.0435262
0.0435276
0.0426963
0.0426929
0.0426874
0.0426822
0.0426799
0.0426826
0.042692
0.0427084
0.0427319
0.0427619
0.0427971
0.0428364
0.0428782
0.0429211
0.0429643
0.0430073
0.0430476
0.0430822
0.0431129
0.043143
0.0431749
0.0432104
0.0432504
0.0432948
0.0433428
0.043392
0.0434392
0.0434802
0.0435113
0.0435308
0.0435396
0.0435416
0.042758
0.0427525
0.0427442
0.0427363
0.0427319
0.0427338
0.0427438
0.0427624
0.0427894
0.0428234
0.0428631
0.0429065
0.0429519
0.0429978
0.043043
0.043087
0.0431267
0.0431593
0.0431867
0.0432122
0.0432382
0.0432663
0.0432978
0.043333
0.0433716
0.0434126
0.0434535
0.0434911
0.0435213
0.0435415
0.0435516
0.0435541
0.0428451
0.0428382
0.0428296
0.0428229
0.0428207
0.0428253
0.0428383
0.0428599
0.0428893
0.0429252
0.0429657
0.043009
0.0430532
0.0430969
0.0431391
0.0431794
0.043215
0.0432433
0.0432662
0.0432868
0.0433069
0.0433283
0.0433518
0.0433781
0.0434075
0.0434394
0.0434725
0.0435046
0.043532
0.0435516
0.0435622
0.0435652
0.0429584
0.0429518
0.0429472
0.0429468
0.0429509
0.0429604
0.0429763
0.0429987
0.0430272
0.0430604
0.0430968
0.0431348
0.0431728
0.0432098
0.043245
0.0432781
0.0433069
0.0433295
0.0433472
0.0433627
0.0433774
0.0433927
0.0434092
0.0434277
0.0434485
0.0434714
0.0434961
0.0435211
0.0435438
0.0435613
0.0435716
0.043575
0.0430994
0.0430964
0.0431001
0.0431081
0.0431184
0.0431311
0.0431468
0.0431663
0.0431894
0.0432154
0.0432433
0.043272
0.0433003
0.0433275
0.0433533
0.0433772
0.0433978
0.0434138
0.0434261
0.0434367
0.0434465
0.0434565
0.0434672
0.043479
0.0434923
0.0435072
0.0435235
0.0435408
0.0435575
0.0435713
0.0435801
0.0435834
0.0432729
0.0432765
0.0432872
0.0432985
0.0433094
0.0433202
0.0433317
0.0433446
0.0433591
0.0433751
0.0433921
0.0434093
0.0434263
0.0434425
0.0434577
0.0434718
0.0434839
0.0434931
0.0435002
0.0435062
0.0435117
0.0435172
0.0435231
0.0435295
0.0435366
0.0435447
0.0435536
0.0435633
0.0435732
0.0435819
0.043588
0.0435906
0.0434851
0.0434883
0.0434941
0.0434994
0.043504
0.0435083
0.0435124
0.0435169
0.0435218
0.0435271
0.0435327
0.0435383
0.0435439
0.0435491
0.0435541
0.0435587
0.0435626
0.0435655
0.0435678
0.0435697
0.0435715
0.0435732
0.043575
0.043577
0.0435792
0.0435817
0.0435845
0.0435875
0.0435906
0.0435936
0.0435958
0.0435968
)
;

boundaryField
{
    movingWall
    {
        type            fixedValue;
        value           uniform 0.0436;
    }
    fixedWalls
    {
        type            zeroGradient;
    }
    floor
    {
        type            zeroGradient;
    }
    frontAndBack
    {
        type            empty;
    }
}


// ************************************************************************* //
