/*--------------------------------*- C++ -*----------------------------------*\
| =========                 |                                                 |
| \\      /  F ield         | OpenFOAM: The Open Source CFD Toolbox           |
|  \\    /   O peration     | Version:  2206                                  |
|   \\  /    A nd           | Website:  www.openfoam.com                      |
|    \\/     M anipulation  |                                                 |
\*---------------------------------------------------------------------------*/
FoamFile
{
    version     2.0;
    format      ascii;
    arch        "LSB;label=64;scalar=64";
    class       volScalarField;
    location    "0.9/water";
    object      d.gas;
}
// * * * * * * * * * * * * * * * * * * * * * * * * * * * * * * * * * * * * * //

dimensions      [0 1 0 0 0 0 0];

internalField   nonuniform List<scalar> 
23300
(
0.00498754384501
0.00498754386098
0.00498754390664
0.0049875439746
0.00498754406475
0.00498754417542
0.00498754430792
0.00498754446069
0.00498754463552
0.00498754483083
0.00498754504865
0.00498754528737
0.00498754554907
0.00498754583214
0.0049875461386
0.0049875464668
0.00498754681867
0.00498754719249
0.00498754759009
0.00498754800965
0.00498754845287
0.00498754891783
0.00498754940613
0.00498754991567
0.00498755044796
0.00498755100072
0.00498755157533
0.00498755216935
0.00498755278401
0.0049875534167
0.00498755406849
0.00498755473661
0.00498755542199
0.00498755612169
0.0049875568365
0.00498755756333
0.00498755830284
0.00498755905185
0.00498755981086
0.00498756057664
0.00498756134958
0.00498756212644
0.0049875629075
0.00498756368957
0.00498756447285
0.00498756525424
0.00498756603391
0.00498756680891
0.00498756757939
0.0049875683426
0.00498756909873
0.00498756984526
0.00498757058244
0.00498757130804
0.00498757202242
0.00498757272363
0.00498757341216
0.00498757408639
0.00498757474696
0.00498757539256
0.00498757602398
0.00498757664021
0.00498757724219
0.00498757782918
0.00498757840219
0.00498757896064
0.00498757950544
0.00498758003783
0.00498758056072
0.00498758107403
0.00498758157923
0.00498758207655
0.00498758256755
0.00498758305263
0.00498758353338
0.00498758401026
0.00498758448485
0.00498758495763
0.00498758543009
0.00498758590266
0.0049875863767
0.00498758685255
0.0049875873314
0.00498758781347
0.00498758829974
0.0049875887903
0.0049875892859
0.00498758978646
0.00498759029252
0.00498759080382
0.0049875913207
0.00498759184273
0.00498759237003
0.00498759290204
0.00498759343868
0.00498759397927
0.00498759452355
0.00498759507075
0.00498759562046
0.00498759617183
0.00498759672433
0.00498759727707
0.00498759782943
0.00498759838047
0.00498759892953
0.00498759947565
0.00498760001814
0.00498760055604
0.00498760108866
0.00498760161507
0.00498760213455
0.00498760264625
0.00498760314946
0.00498760364337
0.00498760412732
0.00498760460054
0.00498760506243
0.00498760551229
0.00498760594955
0.00498760637359
0.0049876067839
0.00498760717993
0.00498760756121
0.00498760792727
0.0049876082777
0.00498760861209
0.00498760893007
0.00498760923125
0.0049876095153
0.00498760978182
0.00498761003039
0.0049876102605
0.00498761047149
0.00498761066248
0.00498761083222
0.00498761097904
0.00498761110077
0.00498761119487
0.00498761125895
0.00498761129008
0.00498767705843
0.00498767707567
0.00498767712404
0.00498767719343
0.00498767728411
0.00498767739518
0.00498767752745
0.00498767768013
0.00498767785431
0.00498767804921
0.00498767826606
0.0049876785041
0.0049876787646
0.00498767904678
0.00498767935187
0.00498767967905
0.00498768002947
0.00498768040224
0.00498768079839
0.00498768121695
0.00498768165884
0.00498768212298
0.00498768261016
0.00498768311916
0.00498768365065
0.00498768420325
0.00498768477748
0.0049876853718
0.00498768598658
0.00498768662009
0.00498768727256
0.0049876879421
0.00498768862876
0.0049876893305
0.00498769004721
0.0049876907767
0.00498769151874
0.00498769227101
0.00498769303314
0.00498769380275
0.00498769457936
0.00498769536054
0.00498769614572
0.00498769693251
0.00498769772028
0.00498769850669
0.0049876992911
0.00498770007126
0.0049877008466
0.004987701615
0.00498770237596
0.00498770312757
0.00498770386943
0.00498770459987
0.00498770531864
0.00498770602433
0.00498770671687
0.00498770739516
0.0049877080593
0.00498770870847
0.00498770934301
0.00498770996238
0.00498771056711
0.0049877111569
0.00498771173246
0.00498771229374
0.00498771284247
0.00498771337977
0.00498771390672
0.00498771442372
0.00498771493199
0.00498771543213
0.00498771592545
0.00498771641268
0.00498771689516
0.00498771737368
0.00498771784957
0.00498771832359
0.00498771879701
0.00498771927054
0.00498771974531
0.00498772022192
0.00498772070135
0.00498772118407
0.00498772167085
0.00498772216199
0.00498772265808
0.00498772315922
0.00498772366579
0.00498772417771
0.00498772469514
0.00498772521784
0.00498772574577
0.00498772627853
0.00498772681587
0.00498772735728
0.00498772790235
0.00498772845043
0.004987729001
0.00498772955331
0.00498773010673
0.00498773066045
0.00498773121377
0.00498773176582
0.00498773231586
0.004987732863
0.00498773340647
0.00498773394539
0.00498773447897
0.00498773500636
0.00498773552679
0.00498773603943
0.00498773654353
0.00498773703832
0.0049877375231
0.00498773799714
0.00498773845978
0.00498773891036
0.00498773934829
0.00498773977297
0.00498774018384
0.0049877405804
0.00498774096214
0.00498774132861
0.00498774167939
0.00498774201406
0.00498774233225
0.00498774263358
0.0049877429177
0.00498774318422
0.00498774343271
0.00498774366269
0.00498774387349
0.00498774406424
0.00498774423375
0.00498774438034
0.00498774450175
0.00498774459522
0.0049877446581
0.00498774468904
0.00498781024247
0.00498781025943
0.0049878103091
0.00498781037883
0.0049878104692
0.00498781057962
0.00498781071096
0.00498781086266
0.00498781103575
0.00498781122966
0.00498781144553
0.0049878116828
0.0049878119426
0.00498781222439
0.00498781252923
0.00498781285654
0.0049878132073
0.00498781358085
0.00498781397809
0.00498781439824
0.00498781484209
0.00498781530873
0.00498781579883
0.00498781631134
0.00498781684679
0.00498781740395
0.00498781798321
0.00498781858317
0.00498781920404
0.00498781984426
0.00498782050384
0.00498782118106
0.00498782187577
0.00498782258606
0.00498782331164
0.00498782405043
0.00498782480198
0.00498782556412
0.00498782633625
0.0049878271161
0.00498782790298
0.00498782869457
0.00498782949009
0.00498783028723
0.00498783108517
0.00498783188166
0.00498783267587
0.00498783346563
0.00498783425018
0.00498783502751
0.00498783579692
0.0049878365566
0.004987837306
0.00498783804353
0.0049878387688
0.00498783948051
0.00498784017845
0.00498784086161
0.00498784153002
0.00498784218294
0.00498784282064
0.0049878434427
0.00498784404958
0.00498784464114
0.00498784521804
0.00498784578122
0.00498784633246
0.0049878468708
0.00498784739643
0.00498784791067
0.00498784841516
0.00498784891093
0.00498784939945
0.0049878498817
0.0049878503591
0.0049878508326
0.00498785130356
0.00498785177287
0.0049878522418
0.00498785271116
0.00498785318206
0.00498785365519
0.00498785413151
0.00498785461152
0.004987855096
0.00498785558527
0.00498785607987
0.00498785657996
0.00498785708585
0.00498785759751
0.00498785811503
0.00498785863819
0.00498785916689
0.00498785970074
0.00498786023945
0.0049878607825
0.00498786132944
0.00498786187961
0.00498786243245
0.00498786298719
0.00498786354318
0.00498786409958
0.00498786465565
0.00498786521053
0.00498786576343
0.00498786631347
0.00498786685983
0.00498786740163
0.00498786793805
0.00498786846825
0.00498786899141
0.00498786950672
0.0049878700134
0.00498787051069
0.00498787099785
0.00498787147417
0.00498787193897
0.0049878723916
0.00498787283145
0.00498787325791
0.00498787367045
0.00498787406852
0.00498787445165
0.00498787481938
0.00498787517127
0.00498787550691
0.00498787582594
0.00498787612798
0.00498787641266
0.00498787667962
0.00498787692844
0.00498787715863
0.00498787736957
0.00498787756043
0.00498787773002
0.00498787787672
0.0049878779982
0.0049878780915
0.00498787815373
0.0049878781843
0.00498794342528
0.00498794344205
0.00498794349213
0.00498794356142
0.00498794365066
0.00498794375947
0.00498794388886
0.0049879440384
0.00498794420925
0.00498794440099
0.0049879446148
0.00498794485028
0.00498794510859
0.0049879453893
0.00498794569353
0.00498794602079
0.00498794637212
0.00498794674692
0.00498794714612
0.00498794756903
0.00498794801645
0.00498794848753
0.00498794898294
0.00498794950166
0.00498795004421
0.0049879506094
0.00498795119756
0.00498795180731
0.00498795243879
0.00498795309044
0.00498795376221
0.00498795445233
0.00498795516058
0.004987955885
0.0049879566252
0.00498795737904
0.00498795814598
0.00498795892376
0.00498795971167
0.00498796050738
0.00498796131005
0.00498796211731
0.00498796292825
0.00498796374048
0.00498796455307
0.00498796536368
0.00498796617136
0.00498796697392
0.00498796777045
0.0049879685589
0.00498796933848
0.00498797010736
0.00498797086489
0.00498797160947
0.00498797234066
0.00498797305715
0.0049879737587
0.00498797444432
0.00498797511401
0.00498797576711
0.00498797640386
0.00498797702394
0.00498797762785
0.00498797821558
0.00498797878859
0.00498797934746
0.00498797989252
0.00498798042399
0.00498798094327
0.00498798145133
0.00498798194967
0.00498798243932
0.0049879829218
0.00498798339812
0.00498798386978
0.00498798433778
0.00498798480353
0.00498798526797
0.00498798573241
0.0049879861977
0.00498798666498
0.00498798713496
0.0049879876086
0.00498798808644
0.00498798856923
0.00498798905733
0.00498798955125
0.00498799005115
0.00498799055732
0.00498799106971
0.00498799158839
0.00498799211314
0.0049879926438
0.00498799317998
0.00498799372135
0.00498799426735
0.00498799481751
0.00498799537113
0.00498799592762
0.0049879964862
0.00498799704615
0.00498799760663
0.00498799816686
0.00498799872596
0.0049879992831
0.00498799983738
0.00498800038796
0.00498800093395
0.00498800147449
0.00498800200872
0.00498800253582
0.00498800305496
0.00498800356535
0.0049880040662
0.00498800455678
0.00498800503636
0.00498800550427
0.00498800595983
0.00498800640244
0.00498800683148
0.00498800724642
0.00498800764671
0.00498800803188
0.00498800840146
0.00498800875502
0.00498800909216
0.0049880094125
0.00498800971567
0.00498801000133
0.00498801026909
0.00498801051858
0.0049880107493
0.00498801096068
0.0049880111519
0.00498801132185
0.0049880114689
0.00498801159065
0.00498801168387
0.0049880117454
0.00498801177506
0.00498807663361
0.00498807665011
0.00498807670006
0.00498807676842
0.00498807685613
0.00498807696287
0.00498807708977
0.00498807723661
0.00498807740461
0.0049880775935
0.00498807780461
0.00498807803766
0.00498807829393
0.0049880785731
0.00498807887641
0.00498807920345
0.00498807955536
0.00498807993164
0.00498808033328
0.00498808075964
0.00498808121159
0.00498808168832
0.00498808219051
0.00498808271716
0.00498808326879
0.00498808384417
0.00498808444363
0.00498808506572
0.00498808571055
0.00498808637646
0.00498808706334
0.00498808776933
0.0049880884941
0.00498808923558
0.00498808999327
0.00498809076492
0.00498809154985
0.00498809234567
0.00498809315155
0.00498809396503
0.00498809478515
0.00498809560941
0.00498809643677
0.00498809726475
0.0049880980923
0.00498809891699
0.00498809973779
0.00498810055241
0.0049881013599
0.00498810215814
0.00498810294631
0.00498810372254
0.00498810448617
0.00498810523559
0.00498810597037
0.00498810668922
0.00498810739193
0.00498810807755
0.00498810874615
0.00498810939711
0.00498811003076
0.00498811064685
0.00498811124601
0.00498811182881
0.00498811239663
0.00498811294959
0.00498811348858
0.00498811401419
0.00498811452774
0.00498811503011
0.00498811552279
0.0049881160068
0.00498811648369
0.00498811695453
0.00498811742085
0.00498811788372
0.00498811834462
0.00498811880454
0.00498811926484
0.00498811972641
0.00498812019044
0.00498812065768
0.0049881211291
0.00498812160527
0.00498812208696
0.00498812257452
0.00498812306848
0.00498812356897
0.00498812407629
0.00498812459037
0.00498812511126
0.0049881256387
0.00498812617252
0.00498812671228
0.00498812725762
0.00498812780796
0.00498812836276
0.00498812892132
0.00498812948298
0.00498813004692
0.0049881306124
0.00498813117854
0.00498813174451
0.0049881323094
0.00498813287235
0.00498813343243
0.00498813398876
0.00498813454043
0.00498813508656
0.00498813562626
0.00498813615869
0.004988136683
0.00498813719838
0.00498813770405
0.00498813819924
0.00498813868322
0.0049881391553
0.00498813961482
0.00498814006114
0.00498814049367
0.00498814091185
0.00498814131515
0.00498814170308
0.00498814207519
0.00498814243104
0.00498814277024
0.00498814309242
0.00498814339721
0.00498814368427
0.00498814395325
0.00498814420377
0.00498814443539
0.00498814464753
0.00498814483944
0.00498814501003
0.00498814515765
0.00498814527979
0.00498814537289
0.00498814543361
0.00498814546251
0.00498820988711
0.0049882099032
0.00498820995252
0.00498821001953
0.00498821010523
0.00498821020944
0.00498821033341
0.00498821047697
0.00498821064154
0.004988210827
0.00498821103479
0.00498821126476
0.00498821151836
0.00498821179539
0.00498821209721
0.00498821242354
0.00498821277564
0.00498821315307
0.00498821355695
0.00498821398668
0.00498821444319
0.00498821492571
0.00498821543495
0.0049882159699
0.00498821653107
0.00498821711722
0.00498821772861
0.00498821836374
0.00498821902266
0.00498821970359
0.00498822040636
0.00498822112896
0.00498822187098
0.00498822263021
0.00498822340602
0.00498822419602
0.00498822499942
0.00498822581368
0.00498822663785
0.00498822746933
0.00498822830705
0.00498822914839
0.00498822999222
0.00498823083594
0.00498823167842
0.00498823251715
0.00498823335103
0.00498823417771
0.0049882349962
0.00498823580433
0.00498823660126
0.00498823738509
0.00498823815515
0.00498823890985
0.00498823964874
0.00498824037056
0.00498824107512
0.00498824176152
0.00498824242985
0.00498824307956
0.00498824371104
0.00498824432409
0.00498824491968
0.00498824549859
0.00498824606191
0.0049882466097
0.00498824714314
0.00498824766291
0.00498824817041
0.00498824866656
0.0049882491529
0.00498824963052
0.00498825010102
0.00498825056557
0.00498825102575
0.00498825148273
0.00498825193804
0.00498825239275
0.00498825284829
0.0049882533056
0.00498825376594
0.00498825423008
0.00498825469905
0.00498825517343
0.00498825565402
0.00498825614118
0.00498825663543
0.00498825713692
0.00498825764592
0.00498825816234
0.0049882586862
0.00498825921722
0.00498825975519
0.00498826029962
0.00498826085013
0.00498826140607
0.00498826196687
0.00498826253176
0.00498826310004
0.00498826367085
0.00498826424339
0.00498826481673
0.00498826539001
0.00498826596226
0.00498826653259
0.00498826710002
0.00498826766363
0.00498826822249
0.00498826877568
0.00498826932228
0.00498826986143
0.00498827039225
0.00498827091393
0.00498827142564
0.00498827192662
0.00498827241612
0.00498827289344
0.00498827335791
0.00498827380889
0.00498827424578
0.00498827466803
0.00498827507509
0.00498827546649
0.00498827584177
0.0049882762005
0.00498827654229
0.00498827686678
0.00498827717363
0.00498827746249
0.00498827773305
0.00498827798493
0.00498827821773
0.00498827843091
0.00498827862375
0.00498827879519
0.00498827894355
0.0049882790661
0.00498827915893
0.00498827921878
0.00498827924718
0.00498834319883
0.00498834321429
0.00498834326245
0.0049883433275
0.00498834341061
0.00498834351157
0.0049883436318
0.00498834377128
0.00498834393154
0.00498834411257
0.00498834431601
0.00498834454186
0.0049883447917
0.00498834506549
0.00498834536475
0.0049883456893
0.00498834604054
0.00498834641814
0.00498834682332
0.00498834725554
0.00498834771582
0.0049883482034
0.00498834871904
0.00498834926173
0.00498834983197
0.00498835042848
0.0049883510515
0.00498835169944
0.00498835237228
0.00498835306817
0.00498835378682
0.00498835452612
0.00498835528555
0.00498835606275
0.004988356857
0.00498835766577
0.00498835848812
0.0049883593214
0.00498836016455
0.00498836101482
0.00498836187104
0.00498836273046
0.00498836359186
0.00498836445252
0.00498836531124
0.00498836616541
0.00498836701386
0.00498836785416
0.00498836868526
0.00498836950493
0.0049883703123
0.00498837110541
0.00498837188357
0.00498837264516
0.00498837338973
0.004988374116
0.0049883748238
0.00498837551222
0.0049883761814
0.0049883768308
0.00498837746088
0.00498837807148
0.00498837866402
0.00498837923915
0.0049883797976
0.00498838033987
0.00498838086719
0.00498838138037
0.00498838188088
0.00498838236975
0.0049883828486
0.00498838331861
0.00498838378149
0.00498838423848
0.0049883846913
0.00498838514117
0.00498838558975
0.00498838603818
0.00498838648796
0.00498838694014
0.004988387396
0.00498838785639
0.00498838832239
0.00498838879461
0.00498838927387
0.00498838976054
0.00498839025516
0.00498839075786
0.00498839126889
0.00498839178815
0.00498839231564
0.004988392851
0.00498839339402
0.00498839394414
0.00498839450092
0.00498839506366
0.00498839563173
0.0049883962043
0.00498839678062
0.00498839735975
0.00498839794084
0.0049883985229
0.00498839910502
0.00498839968616
0.00498840026539
0.00498840084168
0.00498840141408
0.00498840198159
0.00498840254327
0.00498840309817
0.00498840364539
0.00498840418403
0.00498840471325
0.0049884052322
0.00498840574011
0.00498840623621
0.00498840671979
0.00498840719018
0.00498840764672
0.00498840808881
0.00498840851589
0.00498840892744
0.00498840932296
0.00498840970201
0.00498841006417
0.00498841040905
0.0049884107363
0.0049884110456
0.00498841133662
0.00498841160906
0.00498841186259
0.00498841209682
0.00498841231127
0.00498841250525
0.0049884126777
0.00498841282687
0.00498841294978
0.00498841304225
0.00498841310125
0.00498841312922
0.00498847657716
0.00498847659171
0.00498847663813
0.00498847670052
0.00498847678008
0.00498847687679
0.00498847699218
0.00498847712628
0.00498847728085
0.00498847745603
0.00498847765359
0.00498847787372
0.00498847811817
0.00498847838707
0.00498847868208
0.0049884790032
0.00498847935195
0.00498847972814
0.00498848013309
0.00498848056637
0.00498848102906
0.00498848152045
0.00498848204136
0.00498848259078
0.00498848316922
0.00498848377536
0.00498848440943
0.00498848506975
0.00498848575628
0.00498848646703
0.00498848720167
0.00498848795793
0.00498848873522
0.00498848953104
0.00498849034455
0.00498849117308
0.00498849201557
0.00498849286924
0.00498849373288
0.00498849460361
0.00498849548015
0.00498849635961
0.00498849724064
0.00498849812042
0.00498849899762
0.00498849986952
0.00498850073486
0.00498850159111
0.00498850243712
0.0049885032706
0.00498850409058
0.00498850489505
0.00498850568327
0.00498850645356
0.00498850720545
0.00498850793762
0.0049885086499
0.00498850934138
0.00498851001219
0.00498851066183
0.0049885112908
0.00498851189905
0.00498851248821
0.00498851305899
0.00498851361205
0.00498851414804
0.00498851466832
0.0049885151738
0.00498851566608
0.00498851614629
0.0049885166162
0.00498851707709
0.00498851753079
0.00498851797868
0.00498851842257
0.00498851886384
0.00498851930422
0.00498851974499
0.00498852018774
0.00498852063359
0.00498852108394
0.00498852153967
0.00498852200194
0.00498852247139
0.00498852294888
0.00498852343479
0.00498852392967
0.00498852443363
0.00498852494694
0.00498852546942
0.00498852600106
0.00498852654147
0.00498852709035
0.0049885276471
0.00498852821121
0.00498852878191
0.0049885293585
0.00498852994008
0.00498853052582
0.00498853111472
0.00498853170584
0.00498853229813
0.0049885328906
0.00498853348216
0.00498853407182
0.00498853465848
0.00498853524114
0.00498853581876
0.00498853639036
0.00498853695494
0.00498853751156
0.0049885380593
0.00498853859729
0.00498853912465
0.00498853964061
0.00498854014436
0.0049885406352
0.00498854111243
0.0049885415754
0.0049885420235
0.00498854245618
0.00498854287289
0.00498854327317
0.00498854365656
0.00498854402266
0.00498854437109
0.00498854470152
0.00498854501364
0.00498854530714
0.00498854558176
0.00498854583717
0.00498854607306
0.00498854628895
0.0049885464842
0.00498854665777
0.0049885468078
0.00498854693101
0.00498854702302
0.00498854708122
0.00498854710881
0.00498861002773
0.00498861004104
0.004988610085
0.00498861014378
0.00498861021874
0.00498861030986
0.00498861041885
0.00498861054594
0.00498861069301
0.00498861086036
0.00498861105002
0.00498861126231
0.00498861149921
0.00498861176103
0.00498861204963
0.00498861236516
0.00498861270933
0.00498861308209
0.00498861348489
0.00498861391742
0.00498861438087
0.00498861487459
0.00498861539945
0.00498861595448
0.00498861654021
0.00498861715529
0.00498861779994
0.00498861847243
0.00498861917265
0.00498861989854
0.00498862064966
0.00498862142366
0.00498862221981
0.00498862303549
0.00498862386973
0.0049886247197
0.00498862558425
0.00498862646038
0.00498862734678
0.0049886282404
0.00498862913981
0.00498863004196
0.00498863094537
0.00498863184706
0.00498863274557
0.00498863363803
0.00498863452306
0.00498863539799
0.00498863626158
0.0049886371114
0.0049886379464
0.00498863876448
0.00498863956481
0.00498864034566
0.00498864110648
0.00498864184593
0.00498864256381
0.00498864325919
0.0049886439322
0.00498864458237
0.0049886452102
0.00498864581614
0.00498864640165
0.00498864696726
0.00498864751404
0.00498864804268
0.00498864855468
0.00498864905107
0.00498864953358
0.00498865000349
0.00498865046269
0.00498865091262
0.00498865135527
0.00498865179214
0.00498865222523
0.00498865265603
0.00498865308642
0.00498865351781
0.00498865395191
0.00498865438995
0.00498865483342
0.0049886552833
0.0049886557408
0.00498865620662
0.00498865668165
0.00498865716631
0.00498865766114
0.00498865816626
0.00498865868189
0.00498865920786
0.00498865974407
0.0049886602901
0.00498866084557
0.00498866140983
0.00498866198227
0.00498866256205
0.00498866314839
0.00498866374028
0.00498866433681
0.0049886649369
0.00498866553952
0.00498866614353
0.00498866674788
0.00498866735139
0.00498866795298
0.00498866855152
0.00498866914593
0.00498866973511
0.00498867031804
0.00498867089366
0.004988671461
0.00498867201911
0.00498867256707
0.004988673104
0.00498867362908
0.00498867414152
0.00498867464058
0.00498867512555
0.00498867559579
0.00498867605067
0.00498867648965
0.00498867691219
0.00498867731781
0.00498867770609
0.00498867807661
0.00498867842903
0.00498867876302
0.00498867907828
0.00498867937455
0.00498867965158
0.0049886799091
0.00498868014679
0.00498868036427
0.00498868056091
0.00498868073566
0.00498868088652
0.00498868100995
0.00498868110144
0.00498868115891
0.00498868118615
0.00498874355456
0.00498874356623
0.00498874360699
0.00498874366113
0.00498874373007
0.004988743814
0.00498874391478
0.00498874403275
0.00498874417006
0.00498874432723
0.00498874450646
0.00498874470833
0.00498874493506
0.00498874518715
0.00498874546671
0.0049887457741
0.00498874611123
0.00498874647821
0.00498874687669
0.00498874730646
0.00498874776887
0.00498874826333
0.00498874879084
0.00498874935041
0.00498874994266
0.00498875056619
0.00498875122124
0.00498875190601
0.00498875262034
0.00498875336209
0.00498875413073
0.00498875492377
0.00498875574039
0.0049887565778
0.0049887574349
0.00498875830869
0.00498875919784
0.00498876009921
0.00498876101129
0.00498876193086
0.00498876285632
0.00498876378443
0.00498876471353
0.00498876564046
0.00498876656359
0.00498876747989
0.00498876838782
0.00498876928455
0.00498877016868
0.00498877103767
0.00498877189034
0.00498877272446
0.00498877353912
0.00498877433248
0.00498877510395
0.00498877585212
0.00498877657675
0.00498877727689
0.00498877795268
0.00498877860365
0.00498877923034
0.00498877983353
0.00498878041472
0.00498878097438
0.0049887815138
0.0049887820338
0.00498878253602
0.00498878302163
0.00498878349251
0.0049887839501
0.00498878439647
0.00498878483324
0.00498878526257
0.00498878568614
0.00498878610613
0.00498878652419
0.00498878694239
0.00498878736227
0.0049887877857
0.00498878821405
0.0049887886489
0.00498878909136
0.00498878954271
0.00498879000371
0.00498879047531
0.00498879095794
0.00498879145218
0.00498879195811
0.00498879247594
0.00498879300546
0.00498879354652
0.00498879409862
0.00498879466132
0.00498879523387
0.00498879581558
0.0049887964055
0.00498879700274
0.00498879760622
0.00498879821489
0.00498879882758
0.00498879944317
0.0049888000604
0.00498880067813
0.00498880129511
0.00498880191016
0.00498880252207
0.0049888031297
0.00498880373188
0.00498880432753
0.00498880491554
0.0049888054949
0.00498880606461
0.00498880662373
0.00498880717135
0.00498880770662
0.00498880822873
0.00498880873693
0.00498880923051
0.0049888097088
0.00498881017121
0.00498881061716
0.00498881104614
0.00498881145766
0.00498881185132
0.00498881222671
0.0049888125835
0.00498881292138
0.00498881324008
0.00498881353937
0.00498881381901
0.00498881407878
0.00498881431843
0.00498881453758
0.00498881473566
0.00498881491161
0.00498881506328
0.00498881518681
0.00498881527771
0.00498881533451
0.00498881536146
0.00498887716129
0.0049888771709
0.00498887720756
0.00498887725575
0.00498887731714
0.00498887739196
0.00498887748228
0.00498887758874
0.00498887771364
0.00498887785775
0.00498887802361
0.00498887821201
0.00498887842548
0.00498887866477
0.00498887893229
0.00498887922861
0.00498887955591
0.00498887991451
0.00498888030627
0.00498888073114
0.00498888119063
0.00498888168427
0.00498888221316
0.00498888277637
0.00498888337456
0.00498888400635
0.00498888467195
0.00498888536952
0.00498888609887
0.00498888685771
0.00498888764546
0.00498888845947
0.00498888929878
0.00498889016043
0.00498889104318
0.00498889194381
0.00498889286082
0.00498889379085
0.00498889473222
0.00498889568145
0.00498889663676
0.00498889759467
0.00498889855335
0.00498889950939
0.00498890046099
0.00498890140489
0.00498890233938
0.00498890326143
0.00498890416948
0.00498890506082
0.00498890593412
0.00498890678701
0.00498890761847
0.00498890842655
0.00498890921057
0.00498890996904
0.00498891070169
0.00498891140752
0.00498891208668
0.00498891273871
0.00498891336417
0.00498891396407
0.00498891454013
0.00498891509284
0.00498891562362
0.00498891613343
0.00498891662407
0.00498891709687
0.00498891755389
0.00498891799677
0.00498891842778
0.00498891884874
0.00498891926202
0.00498891966952
0.00498892007362
0.00498892047619
0.00498892087948
0.00498892128524
0.0049889216955
0.00498892211179
0.00498892253584
0.00498892296886
0.00498892341225
0.00498892386686
0.00498892433368
0.00498892481318
0.00498892530594
0.00498892581206
0.00498892633171
0.00498892686463
0.00498892741061
0.00498892796907
0.00498892853949
0.004988929121
0.00498892971281
0.00498893031386
0.00498893092313
0.00498893153942
0.00498893216156
0.00498893278824
0.00498893341823
0.00498893405018
0.0049889346828
0.00498893531476
0.00498893594478
0.00498893657155
0.00498893719386
0.00498893781047
0.00498893842021
0.00498893902195
0.0049889396146
0.00498894019713
0.00498894076855
0.00498894132794
0.00498894187441
0.00498894240714
0.00498894292536
0.00498894342836
0.00498894391547
0.00498894438608
0.00498894483963
0.0049889452756
0.00498894569354
0.00498894609302
0.00498894647367
0.00498894683517
0.00498894717724
0.00498894749963
0.00498894780212
0.00498894808453
0.00498894834668
0.00498894858835
0.00498894880922
0.00498894900877
0.0049889491859
0.0049889493383
0.00498894946181
0.00498894955209
0.00498894960826
0.00498894963494
0.00498901085165
0.0049890108587
0.00498901089025
0.00498901093112
0.00498901098303
0.0049890110465
0.00498901112386
0.00498901121587
0.00498901132524
0.00498901145304
0.00498901160207
0.00498901177349
0.00498901197016
0.00498901219315
0.00498901244519
0.00498901272717
0.00498901304155
0.00498901338891
0.00498901377137
0.00498901418907
0.00498901464373
0.004989015135
0.00498901566412
0.00498901623022
0.00498901683406
0.00498901747421
0.00498901815092
0.00498901886228
0.00498901960803
0.00498902038577
0.00498902119481
0.00498902203233
0.00498902289723
0.00498902378634
0.00498902469822
0.00498902562944
0.00498902657828
0.00498902754112
0.00498902851605
0.00498902949936
0.004989030489
0.00498903148125
0.00498903247403
0.0049890334637
0.0049890344482
0.00498903542406
0.00498903638931
0.00498903734074
0.00498903827658
0.00498903919392
0.00498904009125
0.00498904096605
0.00498904181713
0.00498904264244
0.00498904344117
0.00498904421176
0.00498904495386
0.00498904566643
0.00498904634961
0.00498904700293
0.00498904762701
0.00498904822306
0.0049890487931
0.00498904933763
0.00498904985823
0.00498905035601
0.00498905083293
0.00498905129052
0.00498905173105
0.00498905215637
0.00498905256899
0.00498905297097
0.00498905336494
0.00498905375304
0.0049890541379
0.00498905452162
0.00498905490672
0.00498905529513
0.00498905568914
0.00498905609042
0.0049890565009
0.00498905692194
0.00498905735506
0.00498905780119
0.00498905826142
0.00498905873625
0.00498905922628
0.0049890597316
0.00498906025236
0.00498906078824
0.00498906133897
0.00498906190387
0.00498906248231
0.00498906307331
0.00498906367594
0.004989064289
0.00498906491135
0.0049890655416
0.00498906617848
0.00498906682052
0.00498906746635
0.00498906811447
0.00498906876349
0.00498906941193
0.00498907005842
0.00498907070154
0.00498907133998
0.00498907197242
0.00498907259763
0.00498907321439
0.00498907382158
0.0049890744181
0.00498907500294
0.00498907557513
0.00498907613377
0.00498907667802
0.00498907720709
0.00498907772027
0.00498907821689
0.00498907869633
0.00498907915804
0.00498907960152
0.0049890800263
0.004989080432
0.00498908081825
0.00498908118475
0.00498908153124
0.0049890818575
0.00498908216334
0.00498908244863
0.00498908271322
0.00498908295694
0.00498908317955
0.00498908338055
0.0049890835588
0.00498908371181
0.00498908383518
0.00498908392478
0.00498908398038
0.00498908400682
0.00498914463004
0.00498914463394
0.0049891446592
0.00498914469099
0.00498914473134
0.00498914478087
0.00498914484219
0.0049891449165
0.00498914500676
0.00498914511437
0.00498914524262
0.00498914539301
0.00498914556883
0.00498914577151
0.00498914600421
0.00498914626816
0.00498914656619
0.00498914689916
0.00498914726953
0.00498914767766
0.00498914812552
0.0049891486129
0.00498914914123
0.00498914970969
0.00498915031913
0.00498915096813
0.00498915165694
0.00498915238355
0.00498915314766
0.00498915394672
0.0049891547799
0.00498915564419
0.0049891565383
0.00498915745883
0.00498915840413
0.00498915937046
0.00498916035589
0.0049891613565
0.0049891623701
0.00498916339268
0.00498916442194
0.00498916545383
0.00498916648602
0.00498916751456