/*--------------------------------*- C++ -*----------------------------------*\
| =========                 |                                                 |
| \\      /  F ield         | OpenFOAM: The Open Source CFD Toolbox           |
|  \\    /   O peration     | Version:  2206                                  |
|   \\  /    A nd           | Website:  www.openfoam.com                      |
|    \\/     M anipulation  |                                                 |
\*---------------------------------------------------------------------------*/
FoamFile
{
    version     2.0;
    format      ascii;
    arch        "LSB;label=64;scalar=64";
    class       volScalarField;
    location    "0.9/water";
    object      p;
}
// * * * * * * * * * * * * * * * * * * * * * * * * * * * * * * * * * * * * * //

dimensions      [1 -1 -2 0 0 0 0];

internalField   nonuniform List<scalar> 
23300
(
100751.151677
100751.150694
100751.148101
100751.144028
100751.13884
100751.132263
100751.124641
100751.115592
100751.105519
100751.093997
100751.081461
100751.067464
100751.052451
100751.035965
100751.018449
100750.999446
100750.979396
100750.957842
100750.935226
100750.911093
100750.885896
100750.859179
100750.831409
100750.802132
100750.77183
100750.74005
100750.707292
100750.673106
100750.638008
100750.601552
100750.564269
100750.525719
100750.486448
100750.44602
100750.404993
100750.362942
100750.320428
100750.277038
100750.233337
100750.188922
100750.144357
100750.099251
100750.05416
100750.008708
100749.963438
100749.917987
100749.87288
100749.827767
100749.783153
100749.738699
100749.694883
100749.651377
100749.608631
100749.566324
100749.524878
100749.483976
100749.44401
100749.404665
100749.366304
100749.328614
100749.291927
100749.255933
100749.220938
100749.186631
100749.153299
100749.120635
100749.088919
100749.057748
100749.027268
100748.997166
100748.967667
100748.93845
100748.909723
100748.881164
100748.852972
100748.824828
100748.796925
100748.768951
100748.741097
100748.71306
100748.685033
100748.656725
100748.628332
100748.59958
100748.570667
100748.541336
100748.511792
100748.481795
100748.451554
100748.420851
100748.389897
100748.358491
100748.326852
100748.294795
100748.26254
100748.22992
100748.197157
100748.164098
100748.130964
100748.097619
100748.064278
100748.030819
100747.997455
100747.964072
100747.930878
100747.897772
100747.86495
100747.832322
100747.800077
100747.768131
100747.736661
100747.705594
100747.675096
100747.645097
100747.615753
100747.587001
100747.558984
100747.531644
100747.505111
100747.479334
100747.454429
100747.43035
100747.407201
100747.384941
100747.36366
100747.343324
100747.32401
100747.305692
100747.288438
100747.272229
100747.257128
100747.243137
100747.230319
100747.21871
100747.208399
100747.199479
100747.192088
100747.186376
100747.182487
100747.180599
100743.078812
100743.077771
100743.074962
100743.070824
100743.065544
100743.058966
100743.051281
100743.042279
100743.032178
100743.020746
100743.008213
100742.994336
100742.97935
100742.963004
100742.94553
100742.926677
100742.906674
100742.885272
100742.862702
100742.838717
100742.813558
100742.786978
100742.75923
100742.730074
100742.699772
100742.668091
100742.635307
100742.601192
100742.566036
100742.529618
100742.492242
100742.453694
100742.414291
100742.373828
100742.332631
100742.290505
100742.247783
100742.20428
100742.160334
100742.115771
100742.070929
100742.025642
100741.980247
100741.934587
100741.888991
100741.843311
100741.797865
100741.752511
100741.707553
100741.662852
100741.618695
100741.574945
100741.53187
100741.489332
100741.447575
100741.406459
100741.366207
100741.326672
100741.288053
100741.250197
100741.213283
100741.177147
100741.141948
100741.107517
100741.073994
100741.041203
100741.009213
100740.977786
100740.947025
100740.91674
100740.887021
100740.857672
100740.828771
100740.800119
100740.771789
100740.743582
100740.715568
100740.687554
100740.65961
100740.63155
100740.603447
100740.575127
100740.546668
100740.517909
100740.488936
100740.459601
100740.429999
100740.399997
100740.369698
100740.338987
100740.307973
100740.276555
100740.244852
100740.212778
100740.180456
100740.147813
100740.114979
100740.081892
100740.048685
100740.015306
100739.98189
100739.948395
100739.914953
100739.881531
100739.84826
100739.815112
100739.782214
100739.749545
100739.717225
100739.685238
100739.653698
100739.62259
100739.592025
100739.561988
100739.532582
100739.503796
100739.475722
100739.448351
100739.421769
100739.395965
100739.371018
100739.346918
100739.323733
100739.301457
100739.280149
100739.259804
100739.240473
100739.222153
100739.20489
100739.188688
100739.173588
100739.159609
100739.146802
100739.135209
100739.124912
100739.116008
100739.108637
100739.102964
100739.099148
100739.097272
100735.00822
100735.007185
100735.004271
100735.000092
100734.994795
100734.988231
100734.980563
100734.971613
100734.961558
100734.950201
100734.93773
100734.923937
100734.909009
100734.892736
100734.875303
100734.856495
100734.8365
100734.815104
100734.792497
100734.768469
100734.743218
100734.716539
100734.68864
100734.659322
100734.628805
100734.596896
100734.56383
100734.529421
100734.493916
100734.457139
100734.419351
100734.380383
100734.340509
100734.299571
100734.257851
100734.215203
100734.171917
100734.127856
100734.083315
100734.038168
100733.992712
100733.946829
100733.900815
100733.85456
100733.808354
100733.762093
100733.716058
100733.670149
100733.624636
100733.57942
100733.534754
100733.490538
100733.447008
100733.404061
100733.361911
100733.32045
100733.27987
100733.240056
100733.201178
100733.163111
100733.126003
100733.08972
100733.054387
100733.019862
100732.986254
100732.953359
100732.921213
100732.889735
100732.859049
100732.828941
100732.799446
100732.770371
100732.741754
100732.713412
100732.685384
100732.657489
100732.629767
100732.602046
100732.574367
100732.546566
100732.518691
100732.490587
100732.462311
100732.433721
100732.404881
100732.375664
100732.346145
100732.316212
100732.285948
100732.255257
100732.224232
100732.192791
100732.161036
100732.128899
100732.096489
100732.063751
100732.030798
100731.997589
100731.964239
100731.930717
100731.897141
100731.863487
100731.829874
100731.796285
100731.762836
100731.729517
100731.69644
100731.6636
100731.631105
100731.598951
100731.567242
100731.535976
100731.505251
100731.475067
100731.445514
100731.416592
100731.388385
100731.360893
100731.334193
100731.308283
100731.283234
100731.259044
100731.235774
100731.213424
100731.192048
100731.171645
100731.152263
100731.133902
100731.116604
100731.100376
100731.085257
100731.071266
100731.05845
100731.046852
100731.03655
100731.027641
100731.020265
100731.014603
100731.010827
100731.008974
100726.938131
100726.937094
100726.934137
100726.929961
100726.924702
100726.918209
100726.910638
100726.901806
100726.891881
100726.88067
100726.868341
100726.854691
100726.83989
100726.82373
100726.806381
100726.787632
100726.767655
100726.746242
100726.72357
100726.699433
100726.674021
100726.647131
100726.618964
100726.589325
100726.55843
100726.52609
100726.492534
100726.457585
100726.421484
100726.384065
100726.345583
100726.305881
100726.265229
100726.223479
100726.180913
100726.137394
100726.093211
100726.048241
100726.002776
100725.956704
100725.91032
100725.86352
100725.816598
100725.769457
100725.722388
100725.675297
100725.628466
100725.581806
100725.535585
100725.489716
100725.444448
100725.399694
100725.355685
100725.312326
100725.269829
100725.228092
100725.187303
100725.147353
100725.108404
100725.070337
100725.033292
100724.997137
100724.961989
100724.927702
100724.894333
100724.861704
100724.829936
100724.798877
100724.768576
100724.738846
100724.709724
100724.68102
100724.65277
100724.624787
100724.597105
100724.569544
100724.542136
100724.514709
100724.487299
100724.459744
100724.432085
100724.404171
100724.376054
100724.347594
100724.318852
100724.289705
100724.260224
100724.230301
100724.200017
100724.169279
100724.13818
100724.106641
100724.074763
100724.042484
100724.009909
100723.97699
100723.94384
100723.910419
100723.876845
100723.84309
100723.80927
100723.775368
100723.7415
100723.707654
100723.673946
100723.640368
100723.607034
100723.573939
100723.541192
100723.508792
100723.476843
100723.445344
100723.414394
100723.383993
100723.354231
100723.325111
100723.296715
100723.269045
100723.242176
100723.216109
100723.190913
100723.166588
100723.143194
100723.120732
100723.099254
100723.07876
100723.059298
100723.040868
100723.023511
100723.007234
100722.992075
100722.978051
100722.965209
100722.953589
100722.943266
100722.934336
100722.926945
100722.921287
100722.917554
100722.915756
100718.866878
100718.865846
100718.862886
100718.858745
100718.853567
100718.847184
100718.839751
100718.831084
100718.821342
100718.810321
100718.798185
100718.784723
100718.770094
100718.754083
100718.73685
100718.71818
100718.698235
100718.676802
100718.654054
100718.62978
100718.604165
100718.577005
100718.5485
100718.518452
100718.487078
100718.454189
100718.420018
100718.384387
100718.347544
100718.309323
100718.269988
100718.229385
100718.18779
100718.145063
100718.10149
100718.056945
100718.011722
100717.965706
100717.919198
100717.872092
100717.824692
100717.776901
100717.72902
100717.68096
100717.633017
100717.585104
100717.537507
100717.490143
100717.443283
100717.396844
100717.351078
100717.305898
100717.261538
100717.217903
100717.175204
100717.133338
100717.092492
100717.052553
100717.013681
100716.975753
100716.938904
100716.902997
100716.868144
100716.834162
100716.801111
100716.768844
100716.737445
100716.706743
100716.676791
100716.647406
100716.618626
100716.590264
100716.562351
100716.534699
100716.507339
100716.480085
100716.452968
100716.425812
100716.39865
100716.371316
100716.34385
100716.316099
100716.288112
100716.259748
100716.231069
100716.20195
100716.172462
100716.142498
100716.112139
100716.081295
100716.050057
100716.018351
100715.986277
100715.953776
100715.920956
100715.88777
100715.854333
100715.82061
100715.786718
100715.752633
100715.718475
100715.684226
100715.650006
100715.615805
100715.581742
100715.547809
100715.514123
100715.48068
100715.447592
100715.414858
100715.382583
100715.350768
100715.319512
100715.288817
100715.258774
100715.229385
100715.200734
100715.172822
100715.145726
100715.119446
100715.094052
100715.069543
100715.04598
100715.023363
100715.001744
100714.981125
100714.96155
100714.943021
100714.925578
100714.909227
100714.894004
100714.879926
100714.867037
100714.855376
100714.845014
100714.836048
100714.828634
100714.822984
100714.8193
100714.817548
100710.793228
100710.792215
100710.789291
100710.785228
100710.780166
100710.773934
100710.766691
100710.758231
100710.748718
100710.737941
100710.726049
100710.712824
100710.698417
100710.682603
100710.665533
100710.646983
100710.627109
100710.60569
100710.582893
100710.558503
100710.532701
100710.505279
100710.476436
100710.445974
100710.414109
100710.380655
100710.345846
100710.309508
100710.271894
100710.232843
100710.192624
100710.151088
100710.108522
100710.064789
100710.020187
100709.974593
100709.928314
100709.881239
100709.83368
100709.785537
100709.737121
100709.688342
100709.63951
100709.590539
100709.54173
100709.493004
100709.444649
100709.396587
100709.349091
100709.302081
100709.25581
100709.210193
100709.165464
100709.12153
100709.078599
100709.03657
100708.995626
100708.955653
100708.916808
100708.878966
100708.842257
100708.806541
100708.77191
100708.738168
100708.705394
100708.673443
100708.642382
100708.612034
100708.58245
100708.55344
100708.525043
100708.497066
100708.469537
100708.442264
100708.415271
100708.388371
100708.361588
100708.334742
100708.307864
100708.280782
100708.253534
100708.225964
100708.198119
100708.169858
100708.141239
100708.112138
100708.082625
100708.052594
100708.022127
100707.991134
100707.959709
100707.927779
100707.895447
100707.862656
100707.829517
100707.795985
100707.762179
100707.728065
100707.693766
100707.659259
100707.624667
100707.589976
100707.555308
100707.520656
100707.48614
100707.451757
100707.417624
100707.383742
100707.350221
100707.317064
100707.284378
100707.252164
100707.220523
100707.189457
100707.15906
100707.129332
100707.10036
100707.072145
100707.044763
100707.018216
100706.992572
100706.967833
100706.944057
100706.921246
100706.899451
100706.878672
100706.858955
100706.8403
100706.822746
100706.806298
100706.790992
100706.776841
100706.763888
100706.75217
100706.741756
100706.732745
100706.725306
100706.719671
100706.71604
100706.714318
100702.716373
100702.715397
100702.712547
100702.708603
100702.703714
100702.697692
100702.690692
100702.682512
100702.673301
100702.662834
100702.651263
100702.638353
100702.624247
100702.60871
100702.591883
100702.573533
100702.553809
100702.53248
100702.509708
100702.485272
100702.459348
100702.431726
100702.402603
100702.371779
100702.339471
100702.305493
100702.270084
100702.233071
100702.194713
100702.154851
100702.113764
100702.071308
100702.027775
100701.983037
100701.9374
100701.890748
100701.843395
100701.795238
100701.746597
100701.697379
100701.647904
100701.598087
100701.548244
100701.498296
100701.448551
100701.398933
100701.349736
100701.300887
100701.252661
100701.204983
100701.15811
100701.111958
100701.066763
100701.022433
100700.979178
100700.936896
100700.895772
100700.855689
100700.816806
100700.778991
100700.742376
100700.706816
100700.672375
100700.638866
100700.606389
100700.574775
100700.544085
100700.514136
100700.484974
100700.456403
100700.428458
100700.400937
100700.373866
100700.347045
100700.320493
100700.294017
100700.267636
100700.241164
100700.214626
100700.187848
100700.160864
100700.133513
100700.10584
100700.077701
100700.049154
100700.020073
100699.99053
100699.960417
100699.929817
100699.898643
100699.86699
100699.834788
100699.802142
100699.768997
100699.735469
100699.701517
100699.667262
100699.632675
100699.597881
100699.562861
100699.527744
100699.492516
100699.457306
100699.422108
100699.387046
100699.352119
100699.317448
100699.283034
100699.248992
100699.215327
100699.182145
100699.149453
100699.117349
100699.08584
100699.055017
100699.024885
100698.995528
100698.96695
100698.939227
100698.912361
100698.88642
100698.861405
100698.837376
100698.814333
100698.792327
100698.771359
100698.751471
100698.732665
100698.714978
100698.698414
100698.683006
100698.668767
100698.655736
100698.643948
100698.633472
100698.624411
100698.616949
100698.611337
100698.607756
100698.60606
100694.635788
100694.634871
100694.632139
100694.628372
100694.623713
100694.617973
100694.611308
100694.603491
100694.594676
100694.584629
100694.573485
100694.561001
100694.547311
100694.532167
100694.515701
100694.497669
100694.478209
100694.457084
100694.434448
100694.410072
100694.384128
100694.356401
100694.327086
100694.29598
100694.263302
100694.228863
100694.192908
100694.155264
100694.116195
100694.075547
100694.033604
100693.990226
100693.945716
100693.89995
100693.853242
100693.805483
100693.756998
100693.70769
100693.657887
100693.607503
100693.556867
100693.505902
100693.454932
100693.403884
100693.353073
100693.302431
100693.252258
100693.202485
100693.153395
100693.104917
100693.057312
100693.010501
100692.964723
100692.91989
100692.876213
100692.833593
100692.792213
100692.75196
100692.712989
100692.675171
100692.638631
100692.603219
100692.568987
100692.535745
100692.503597
100692.472363
100692.442099
100692.412615
100692.383948
100692.355897
100692.328489
100692.301515
100692.274994
100692.248717
100692.222699
100692.196736
100692.170843
100692.144825
100692.118705
100692.0923
100692.06564
100692.03856
100692.011103
100691.983121
100691.954671
100691.925625
100691.896055
100691.865854
100691.835106
100691.803725
100691.77181
100691.739291
100691.706279
100691.672722
100691.63874
100691.604295
100691.569513
100691.534369
100691.498995
100691.463374
100691.427639
100691.391783
100691.355936
100691.320098
100691.284395
100691.248831
100691.21353
100691.178495
100691.143846
100691.109586
100691.075828
100691.042576
100691.009935
100690.977908
100690.946592
100690.91599
100690.886188
100690.857189
100690.829071
100690.801836
100690.775551
100690.750218
100690.725897
100690.702586
100690.680337
100690.65915
100690.639066
100690.620087
100690.602246
100690.585548
100690.570023
100690.555682
100690.542562
100690.530695
100690.520149
100690.511036
100690.503555
100690.49797
100690.494437
100690.492764
100686.551127
100686.55029
100686.547718
100686.544183
100686.539839
100686.534473
100686.528237
100686.520905
100686.512614
100686.503113
100686.492537
100686.480625
100686.467499
100686.452898
100686.436944
100686.419377
100686.40033
100686.379552
100686.357188
100686.333001
100686.30716
100686.279439
100686.250033
100686.218734
100686.185761
100686.150925
100686.114473
100686.07623
100686.03647
100685.995037
100685.952225
100685.907897
100685.862365
100685.815511
100685.767659
100685.718706
100685.668987
100685.618412
100685.567321
100685.515636
100685.463695
100685.41143
100685.359175
100685.306865
100685.254824
100685.202992
100685.151678
100685.100821
100685.05071
100685.001281
100684.952802
100684.9052
100684.858716
100684.81327
100684.769074
100684.726032
100684.68433
100684.643855
100684.604762
100684.566921
100684.530458
100684.495191
100684.461184
100684.428256
100684.396489
100684.365699
100684.335934
100684.306996
100684.278917
100684.251485
100684.224718
100684.1984
100684.17254
100684.146921
100684.121548
100684.096208
100684.070909
100684.045449
100684.019841
100683.993896
100683.967641
100683.940903
100683.913723
100683.885947
100683.857633
100683.82865
100683.79907
100683.768785
100683.737883
100683.706278
100683.674072
100683.6412
100683.607775
100683.57375
100683.53925
100683.504243
100683.468858
100683.433078
100683.397038
100683.360728
100683.324285
100683.287707
100683.25113
100683.214557
100683.17812
100683.141827
100683.105804
100683.070059
100683.034714
100682.999776
100682.96536
100682.931472
100682.898218
100682.865604
100682.833726
100682.802591
100682.772284
100682.742809
100682.714244
100682.686592
100682.659919
100682.634228
100682.609577
100682.585965
100682.563443
100682.54201
100682.521707
100682.502532
100682.484521
100682.467673
100682.452018
100682.437564
100682.424345
100682.412392
100682.401774
100682.392609
100682.385114
100682.379559
100682.37607
100682.374417
100678.462096
100678.461365
100678.459008
100678.455787
100678.451839
100678.446956
100678.441283
100678.434568
100678.426949
100678.418162
100678.408323
100678.397157
100678.384774
100678.370896
100678.355633
100678.33871
100678.320246
100678.299978
100678.278043
100678.25419
100678.228582
100678.200986
100678.171593
100678.140188
100678.106991
100678.07181
100678.034892
100677.996066
100677.955608
100677.913367
100677.869642
100677.824303
100677.77767
100677.729631
100677.680521
100677.630245
100677.57915
100677.527154
100677.47461
100677.421448
100677.36802
100677.314267
100677.260534
100677.206767
100677.153303
100677.100089
100677.047445
100676.995319
100676.944011
100676.893463
100676.843952
100676.795412
100676.748091
100676.701912
100676.657095
100676.613544
100676.57145
100676.5307
100676.49145
100676.453569
100676.417181
100676.382084
100676.348341
100676.315774
100676.284451
100676.25418
100676.225004
100676.196713
100676.169331
100676.142636
100676.116637
100676.091107
100676.066043
100676.041217
100676.016626
100675.992044
100675.967471
100675.942693
100675.917718
100675.892346
100675.866598
100675.840294
100675.813471
100675.785972
100675.75785
100675.728973
100675.699414
100675.669064
100675.638013
100675.606178
100675.573663
100675.540407
100675.50653
100675.471988
100675.436912
100675.401275
100675.365216
100675.32872
100675.29193
100675.254843
100675.217601
100675.180209
100675.142809
100675.105408
100675.068144
100675.031029
100674.994193
100674.95765
100674.921523
100674.885824
100674.850669
100674.816068
100674.782129
100674.748858
100674.716355
100674.684625
100674.653755
100674.623751
100674.59469
100674.566575
100674.539473
100674.513385
100674.48837
100674.464426
100674.441604
100674.419901
100674.399356
100674.379969
100674.36177
100674.34476
100674.328965
100674.31439
100674.301067
100674.289024
100674.278331
100674.269116
100674.261613
100674.256093
100674.252644
100674.251008
100670.368451
100670.367856
100670.36577
100670.362937
100670.359503
100670.355231
100670.350258
100670.344332
100670.337566
100670.329677
100670.320774
100670.310559
100670.299127
100670.286181
100670.271815
100670.255735
100670.238048
100670.218472
100670.197136
100670.173773
100670.148539
100670.121188
100670.091909
100670.060478
100670.027117
100669.991625
100669.954257
100669.914838
100669.873652
100669.830547
100669.785834
100669.739387
100669.691536
100669.642175
100669.591655
100669.539888
100669.487233
100669.433622
100669.379418
100669.324566
100669.269431
100669.213964
100669.158526
100669.103076
100669.04796
100668.993141
100668.93895
100668.885346
100668.83264
100668.780783
100668.730063
100668.680421
100668.632114
100668.58507
100668.539516
100668.495361
100668.452797
100668.411714
100668.37227
100668.334332
100668.298023
100668.263127
100668.229695
100668.197546
100668.166743
100668.137083
100668.108601
100668.081078
100668.054525
100668.02871
100668.00363
100667.979044
100667.954939
100667.931072
100667.907428
100667.883769
100667.860083
100667.836144
100667.811949
100667.78729
100667.762179
100667.736429
100667.71007
100667.68294
100667.65509
100667.626385
100667.596897
100667.566517
100667.535339
100667.503279
100667.470449
100667.43679
100667.402428
100667.367326
100667.331621
100667.295293
100667.258489
100667.221201
100667.18358
100667.145629
100667.1075
100667.069202
100667.030885
100666.992562
100666.954378
100666.916349
100666.878611
100666.841181
100666.804188
100666.767646
100666.731674
100666.696286
100666.661589
100666.627596
100666.594404
100666.56202
100666.530534
100666.499951
100666.470347
100666.441726
100666.414156
100666.387637
100666.362226
100666.337923
100666.314775
100666.29278
100666.271977
100666.252361
100666.233963
100666.21678
100666.200837
100666.186137
100666.172706
100666.160571
100666.149804
100666.140543
100666.13304
100666.127556
100666.124144
100666.122524
100662.269926
100662.269499
100662.267754
100662.265413
100662.262603
100662.259088
100662.254997
100662.250039
100662.244329
100662.237564
100662.229825
100662.220796
100662.210554
100662.198776
100662.185539
100662.170528
100662.153833
100662.135151
100662.114598
100662.09189
100662.067174
100662.04019
100662.011123
100661.979739
100661.946257
100661.910475
100661.872649
100661.832602
100661.790625
100661.746571
100661.700759
100661.653068
100661.603842
100661.552985
100661.500859
100661.447388
100661.392949
100661.337483
100661.281372
100661.224573
100661.167468
100661.110022
100661.052612
100660.995211
100660.938182
100660.8815
100660.82551
100660.770185
100660.715848
100660.662464
100660.61033
100660.559397
100660.509932
100660.461872
100660.415449
100660.370578
100660.327456
100660.285976
100660.246297
100660.208285
100660.172062
100660.137399
100660.104329
100660.07267
100660.042477
100660.013537
100659.985876
100659.959262
100659.933696
100659.90893
100659.884949
100659.861496
100659.838544
100659.815834
100659.793338
100659.770801
100659.748198
100659.725289
100659.70206
100659.678289
100659.65398
100659.628934
100659.603177
100659.576539
100659.549068
100659.520626
100659.491282
100659.46093
100659.429664
100659.397404
100659.364267
100659.330198
100659.295331
100659.259634
100659.223255
100659.186181
100659.148567
100659.110414
100659.071883
100659.032985
100658.993879
100658.954585
100658.915259
100658.875922
100658.836725
100658.79769
100658.758961
100658.720558
100658.682614
100658.645148
100658.608283
100658.572035
100658.536514
100658.501733
100658.467792
100658.4347
100658.402546
100658.371336
100658.341147
100658.311982
100658.283908
100658.256926
100658.231092
100658.206405
100658.182911
100658.160606
100658.139528
100658.119672
100658.101066
100658.083704
100658.067608
100658.052779
100658.03924
100658.027014
100658.016177
100658.006876
100657.99938
100657.993935
100657.990556
100657.988951
100654.166228
100654.166006
100654.164673
100654.162922
100654.160889
100654.158302
100654.155275
100654.151515
100654.147103
100654.141706
100654.135396
100654.127823
100654.119042
100654.108702
100654.096859
100654.08317
100654.067705
100654.050138
100654.030568
100654.008692
100653.984645
100653.958152
100653.929389
100653.898113
100653.864544
100653.82847
100653.790153
100653.749415
100653.706555
100653.661428
100653.614367
100653.565256
100653.514456
100653.46188
100653.407906
100653.352473
100653.295975
100653.238368
100653.180052
100653.121001
100653.061615
100653.001877
100652.942181
100652.882518
100652.823267
100652.76442
100652.706339
100652.649011
100652.592775
100652.537609
100652.483822
100652.431379
100652.380557
100652.331303
100652.283856
100652.23814
100652.194357
100652.152402
100652.112438
100652.074331
100652.038201
100652.003805
100651.971157
100651.94007
100651.910593
100651.8825
100651.855809
100651.830271
100651.805875
100651.782359
100651.75969
100651.737593
100651.716027
100651.694713
100651.673605
100651.652431
100651.63115
100651.609505
100651.587468
100651.564801
100651.541498
100651.517348
100651.492368
100651.466382
100651.439431
100651.411373
100651.382278
100651.352037
100651.320749
100651.288336
100651.254918
100651.22045
100651.185072
100651.148761
100651.111672
100651.073804
100651.035322
100650.996237
100650.95672
100650.916793
100650.876625
100650.836245
100650.795819
100650.755376
100650.715074
100650.674944
100650.635135
100650.595673
100650.556697
100650.518229
100650.480396
100650.443217
100650.406806
100650.371177
100650.336432
100650.30258
100650.269711
100650.23783
100650.207017
100650.177273
100650.148665
100650.121193
100650.094913
100650.069821
100650.045963
100650.023335
100650.001972
100649.981866
100649.963045
100649.945501
100649.929252
100649.914294
100649.900648
100649.888336
100649.877432
100649.8681
100649.860619
100649.855215
100649.851869
100649.850277
100646.056967
100646.056993
100646.056164
100646.055143
100646.054038
100646.052576
100646.050856
100646.048537
100646.045694
100646.041966
100646.037389
100646.031582
100646.024576
100646.015982
100646.005832
100645.99375
100645.979783
100645.963576
100645.945209
100645.924355
100645.901135
100645.875256
100645.846887
100645.815773
100645.78213
100645.745743
100645.706876
100645.665352
100645.621479
100645.575118
100645.526613
100645.47586
100645.423235
100645.368665
100645.312549
100645.254839
100645.195951
100645.135859
100645.074984
100645.013319
100644.951285
100644.888886
100644.826536
100644.764245
100644.702412
100644.641048
100644.580534
100644.520874
100644.462424
100644.405178
100644.349461
100644.29525
100644.242837
100644.192178
100644.143525
100644.096809
100644.052239
100644.009716
100643.969406
100643.931175
100643.895144
100643.86105
100643.82889
100643.79847
100643.76983
100643.742732
100643.717181
100643.692914
100643.669905
100643.647871
100643.626765
100643.606288
100643.58638
100643.566741
100643.547306
100643.52778
100643.508104
100643.488001
100643.467426
100643.446125
100643.424076
100643.401058
100643.377075
100643.351942
100643.325694
100643.298185
100643.269481
100643.239474
100643.208263
100643.175775
100643.142135
100643.107305
100643.071432
100643.034505
100642.996689
100642.957994
100642.918596
100642.878521
100642.837951
100642.796919
100642.755608
100642.714056
100642.67244
100642.630801
100642.589305
100642.54799
100642.507014
100642.466409
100642.426321
100642.386775
100642.347903
100642.309727
100642.272364
100642.23583
100642.200227
100642.165567
100642.131941
100642.099353
100642.067882
100642.037529
100642.008361
100641.980376
100641.95363
100641.928118
100641.903885
100641.880923
100641.859267
100641.838908
100641.81987
100641.802143
100641.785742
100641.77066
100641.756912
100641.744519
100641.733557
100641.724203
100641.716746
100641.711386
100641.70807
100641.706492
100637.941703
100637.94203
100637.941806
100637.941651
100637.941681
100637.941576
100637.941416
100637.940846
100637.9399
100637.938173
100637.935683
100637.932003
100637.927131
100637.920638
100637.912524
100637.902374
100637.890208
100637.875636
100637.858715
100637.83909
100637.816866
100637.79173
100637.76384
100637.732928
100637.69921
100637.662463
100637.622957
100637.580515
100637.535458
100637.487652
100637.437458
100637.384785
100637.330028
100637.27313
100637.214512
100637.154147
100637.092473
100637.029486
100636.965632
100636.900926
100636.835812
100636.770318
100636.704881
100636.639533
100636.574697
100636.510405
100636.447057
100636.38468
100636.323648
100636.263973
100636.205998
100636.149717
100636.095435
100636.043123
100635.993044
100635.945141
100635.899632
100635.856424
100635.81569
100635.777295
100635.741362
100635.707609
100635.676011
100635.646365
100635.6187
100635.592765
100635.568551
100635.545777
100635.5244
100635.504113
100635.484848
100635.466283
100635.448336
100635.430679
100635.413226
100635.395659
100635.377899
100635.359644
100635.340834
100635.321195
100635.300691
100635.279082
100635.256365
100635.23234
100635.207036
100635.180297
100635.152189
100635.122599
100635.091627
100635.059201
100635.025453
100634.990349
100634.954047
100634.916545
100634.878021
100634.838497
100634.798165
100634.757063
100634.715388
100634.67319
100634.630663
100634.587862
100634.544975
100634.502053
100634.459277
100634.416692
100634.374466
100634.332637
100634.291359
100634.250662
100634.210683
100634.171447
100634.133074
100634.095582
100634.059075
100634.023566
100633.989144
100633.955816
100633.923659
100633.892673
100633.862926
100633.834412
100633.807187
100633.781244
100633.756627
100633.733327
100633.711376
100633.690763
100633.671511
100633.653604
100633.637057
100633.621857
100633.608016
100633.59555
100633.58454
100633.575175