/*--------------------------------*- C++ -*----------------------------------*\
| =========                 |                                                 |
| \\      /  F ield         | OpenFOAM: The Open Source CFD Toolbox           |
|  \\    /   O peration     | Version:  2206                                  |
|   \\  /    A nd           | Website:  www.openfoam.com                      |
|    \\/     M anipulation  |                                                 |
\*---------------------------------------------------------------------------*/
FoamFile
{
    version     2.0;
    format      ascii;
    arch        "LSB;label=64;scalar=64";
    class       volScalarField;
    location    "0.9/water";
    object      p_rgh;
}
// * * * * * * * * * * * * * * * * * * * * * * * * * * * * * * * * * * * * * //

dimensions      [1 -1 -2 0 0 0 0];

internalField   nonuniform List<scalar> 
23300
(
100755.191089
100755.190105
100755.187513
100755.183439
100755.178251
100755.171674
100755.164053
100755.155003
100755.144931
100755.133409
100755.120873
100755.106876
100755.091862
100755.075377
100755.057861
100755.038858
100755.018808
100754.997253
100754.974638
100754.950505
100754.925308
100754.898591
100754.870821
100754.841544
100754.811242
100754.779462
100754.746704
100754.712518
100754.67742
100754.640964
100754.603681
100754.565131
100754.525859
100754.485432
100754.444405
100754.402353
100754.359839
100754.31645
100754.272748
100754.228334
100754.183768
100754.138663
100754.093572
100754.04812
100754.00285
100753.957399
100753.912291
100753.867179
100753.822565
100753.778111
100753.734295
100753.690788
100753.648043
100753.605736
100753.56429
100753.523388
100753.483422
100753.444077
100753.405716
100753.368025
100753.331339
100753.295345
100753.26035
100753.226043
100753.19271
100753.160047
100753.128331
100753.09716
100753.066679
100753.036578
100753.007079
100752.977862
100752.949135
100752.920576
100752.892384
100752.86424
100752.836337
100752.808363
100752.780509
100752.752472
100752.724445
100752.696137
100752.667744
100752.638992
100752.610079
100752.580748
100752.551203
100752.521207
100752.490966
100752.460262
100752.429308
100752.397903
100752.366264
100752.334207
100752.301952
100752.269332
100752.236568
100752.20351
100752.170376
100752.13703
100752.10369
100752.070231
100752.036866
100752.003484
100751.97029
100751.937183
100751.904362
100751.871734
100751.839488
100751.807542
100751.776073
100751.745006
100751.714507
100751.684509
100751.655165
100751.626413
100751.598395
100751.571055
100751.544523
100751.518746
100751.493841
100751.469762
100751.446613
100751.424352
100751.403071
100751.382735
100751.363422
100751.345104
100751.327849
100751.311641
100751.29654
100751.282549
100751.269731
100751.258122
100751.247811
100751.238891
100751.2315
100751.225788
100751.221899
100751.220011
100755.197047
100755.196006
100755.193197
100755.189059
100755.18378
100755.177201
100755.169516
100755.160514
100755.150414
100755.138981
100755.126449
100755.112571
100755.097585
100755.081239
100755.063765
100755.044912
100755.02491
100755.003507
100754.980938
100754.956952
100754.931793
100754.905213
100754.877466
100754.848309
100754.818008
100754.786326
100754.753542
100754.719427
100754.684271
100754.647853
100754.610477
100754.57193
100754.532527
100754.492064
100754.450866
100754.40874
100754.366018
100754.322516
100754.27857
100754.234007
100754.189164
100754.143877
100754.098482
100754.052822
100754.007226
100753.961546
100753.916101
100753.870746
100753.825788
100753.781087
100753.73693
100753.69318
100753.650106
100753.607567
100753.565811
100753.524694
100753.484443
100753.444907
100753.406289
100753.368433
100753.331518
100753.295383
100753.260184
100753.225753
100753.192229
100753.159438
100753.127448
100753.096021
100753.06526
100753.034976
100753.005257
100752.975907
100752.947006
100752.918354
100752.890024
100752.861817
100752.833804
100752.805789
100752.777845
100752.749785
100752.721682
100752.693362
100752.664903
100752.636144
100752.607171
100752.577836
100752.548234
100752.518232
100752.487934
100752.457222
100752.426208
100752.39479
100752.363088
100752.331013
100752.298691
100752.266048
100752.233214
100752.200128
100752.16692
100752.133542
100752.100125
100752.06663
100752.033188
100751.999767
100751.966495
100751.933347
100751.90045
100751.86778
100751.835461
100751.803473
100751.771933
100751.740826
100751.71026
100751.680224
100751.650818
100751.622031
100751.593957
100751.566587
100751.540004
100751.514201
100751.489253
100751.465153
100751.441968
100751.419693
100751.398385
100751.37804
100751.358708
100751.340389
100751.323125
100751.306923
100751.291824
100751.277845
100751.265037
100751.253445
100751.243147
100751.234243
100751.226872
100751.221199
100751.217383
100751.215508
100755.205278
100755.204243
100755.20133
100755.19715
100755.191853
100755.18529
100755.177622
100755.168672
100755.158617
100755.14726
100755.134789
100755.120996
100755.106068
100755.089795
100755.072361
100755.053554
100755.033559
100755.012163
100754.989555
100754.965528
100754.940277
100754.913598
100754.885699
100754.856381
100754.825864
100754.793955
100754.760889
100754.72648
100754.690975
100754.654198
100754.61641
100754.577442
100754.537568
100754.49663
100754.45491
100754.412262
100754.368976
100754.324914
100754.280374
100754.235227
100754.189771
100754.143888
100754.097874
100754.051619
100754.005412
100753.959151
100753.913116
100753.867208
100753.821695
100753.776479
100753.731812
100753.687597
100753.644067
100753.601119
100753.558969
100753.517508
100753.476929
100753.437115
100753.398237
100753.36017
100753.323062
100753.286779
100753.251446
100753.216921
100753.183313
100753.150418
100753.118272
100753.086793
100753.056107
100753.026
100752.996505
100752.967429
100752.938813
100752.910471
100752.882443
100752.854548
100752.826826
100752.799105
100752.771426
100752.743625
100752.715749
100752.687646
100752.65937
100752.630779
100752.60194
100752.572723
100752.543204
100752.513271
100752.483007
100752.452316
100752.421291
100752.38985
100752.358095
100752.325958
100752.293548
100752.26081
100752.227857
100752.194648
100752.161298
100752.127776
100752.0942
100752.060546
100752.026933
100751.993344
100751.959895
100751.926576
100751.893499
100751.860659
100751.828163
100751.796009
100751.764301
100751.733035
100751.70231
100751.672126
100751.642573
100751.613651
100751.585444
100751.557952
100751.531252
100751.505342
100751.480292
100751.456102
100751.432833
100751.410483
100751.389107
100751.368704
100751.349321
100751.330961
100751.313663
100751.297435
100751.282316
100751.268325
100751.255509
100751.243911
100751.233609
100751.2247
100751.217324
100751.211662
100751.207886
100751.206033
100755.214013
100755.212976
100755.210019
100755.205843
100755.200585
100755.194092
100755.186521
100755.177688
100755.167764
100755.156552
100755.144224
100755.130573
100755.115773
100755.099612
100755.082263
100755.063514
100755.043538
100755.022124
100754.999452
100754.975316
100754.949903
100754.923013
100754.894846
100754.865208
100754.834312
100754.801972
100754.768417
100754.733467
100754.697367
100754.659947
100754.621466
100754.581764
100754.541111
100754.499362
100754.456795
100754.413276
100754.369094
100754.324123
100754.278659
100754.232586
100754.186203
100754.139402
100754.09248
100754.04534
100753.99827
100753.951179
100753.904348
100753.857689
100753.811468
100753.765598
100753.720331
100753.675576
100753.631567
100753.588208
100753.545711
100753.503974
100753.463186
100753.423235
100753.384287
100753.346219
100753.309174
100753.273019
100753.237871
100753.203585
100753.170216
100753.137587
100753.105818
100753.074759
100753.044459
100753.014729
100752.985606
100752.956903
100752.928652
100752.90067
100752.872988
100752.845426
100752.818018
100752.790591
100752.763182
100752.735626
100752.707968
100752.680054
100752.651936
100752.623476
100752.594735
100752.565588
100752.536107
100752.506183
100752.475899
100752.445162
100752.414062
100752.382524
100752.350646
100752.318366
100752.285792
100752.252873
100752.219722
100752.186302
100752.152728
100752.118972
100752.085153
100752.05125
100752.017382
100751.983536
100751.949828
100751.91625
100751.882916
100751.849821
100751.817074
100751.784674
100751.752725
100751.721227
100751.690276
100751.659875
100751.630113
100751.600993
100751.572597
100751.544927
100751.518058
100751.491992
100751.466795
100751.442471
100751.419076
100751.396614
100751.375136
100751.354643
100751.33518
100751.31675
100751.299393
100751.283116
100751.267957
100751.253934
100751.241091
100751.229472
100751.219149
100751.210218
100751.202827
100751.19717
100751.193437
100751.191639
100755.221584
100755.220552
100755.217592
100755.213451
100755.208273
100755.20189
100755.194457
100755.18579
100755.176048
100755.165027
100755.152891
100755.139429
100755.1248
100755.108789
100755.091556
100755.072885
100755.052941
100755.031508
100755.00876
100754.984486
100754.958871
100754.931711
100754.903206
100754.873158
100754.841783
100754.808895
100754.774723
100754.739093
100754.70225
100754.664029
100754.624694
100754.584091
100754.542496
100754.499769
100754.456196
100754.41165
100754.366428
100754.320411
100754.273904
100754.226798
100754.179398
100754.131607
100754.083726
100754.035666
100753.987722
100753.93981
100753.892213
100753.844849
100753.797989
100753.75155
100753.705784
100753.660604
100753.616244
100753.572609
100753.52991
100753.488044
100753.447198
100753.407259
100753.368387
100753.330459
100753.29361
100753.257703
100753.22285
100753.188867
100753.155817
100753.12355
100753.092151
100753.061449
100753.031497
100753.002112
100752.973332
100752.94497
100752.917057
100752.889405
100752.862045
100752.834791
100752.807674
100752.780518
100752.753356
100752.726022
100752.698556
100752.670805
100752.642817
100752.614454
100752.585775
100752.556656
100752.527168
100752.497204
100752.466845
100752.436001
100752.404763
100752.373056
100752.340983
100752.308482
100752.275661
100752.242476
100752.209039
100752.175315
100752.141424
100752.107339
100752.07318
100752.038932
100752.004712
100751.970511
100751.936448
100751.902515
100751.868829
100751.835386
100751.802298
100751.769564
100751.737289
100751.705474
100751.674218
100751.643523
100751.61348
100751.584091
100751.555439
100751.527528
100751.500431
100751.474152
100751.448758
100751.424249
100751.400686
100751.378069
100751.35645
100751.335831
100751.316256
100751.297727
100751.280284
100751.263933
100751.24871
100751.234632
100751.221743
100751.210082
100751.19972
100751.190754
100751.183339
100751.17769
100751.174005
100751.172253
100755.226757
100755.225744
100755.22282
100755.218757
100755.213695
100755.207464
100755.20022
100755.191761
100755.182248
100755.17147
100755.159578
100755.146353
100755.131946
100755.116132
100755.099062
100755.080512
100755.060639
100755.03922
100755.016423
100754.992033
100754.96623
100754.938809
100754.909965
100754.879503
100754.847638
100754.814184
100754.779375
100754.743038
100754.705424
100754.666372
100754.626153
100754.584618
100754.542051
100754.498318
100754.453716
100754.408123
100754.361843
100754.314769
100754.267209
100754.219066
100754.17065
100754.121872
100754.073039
100754.024068
100753.97526
100753.926533
100753.878179
100753.830117
100753.782621
100753.73561
100753.689339
100753.643723
100753.598994
100753.55506
100753.512129
100753.4701
100753.429155
100753.389182
100753.350338
100753.312495
100753.275787
100753.240071
100753.20544
100753.171697
100753.138923
100753.106972
100753.075911
100753.045564
100753.015979
100752.98697
100752.958573
100752.930596
100752.903067
100752.875793
100752.848801
100752.8219
100752.795118
100752.768272
100752.741393
100752.714311
100752.687064
100752.659494
100752.631649
100752.603387
100752.574768
100752.545667
100752.516155
100752.486123
100752.455656
100752.424663
100752.393238
100752.361308
100752.328977
100752.296185
100752.263046
100752.229514
100752.195708
100752.161595
100752.127295
100752.092788
100752.058196
100752.023505
100751.988837
100751.954185
100751.919669
100751.885287
100751.851154
100751.817271
100751.78375
100751.750594
100751.717907
100751.685693
100751.654052
100751.622987
100751.592589
100751.562862
100751.533889
100751.505674
100751.478292
100751.451746
100751.426102
100751.401362
100751.377587
100751.354775
100751.33298
100751.312202
100751.292484
100751.27383
100751.256276
100751.239828
100751.224521
100751.210371
100751.197418
100751.185699
100751.175285
100751.166275
100751.158835
100751.153201
100751.149569
100751.147848
100755.228726
100755.22775
100755.2249
100755.220956
100755.216067
100755.210045
100755.203045
100755.194865
100755.185654
100755.175187
100755.163616
100755.150706
100755.1366
100755.121063
100755.104236
100755.085886
100755.066162
100755.044833
100755.022061
100754.997625
100754.971701
100754.944079
100754.914956
100754.884131
100754.851824
100754.817846
100754.782437
100754.745424
100754.707066
100754.667204
100754.626117
100754.583661
100754.540128
100754.49539
100754.449753
100754.4031
100754.355748
100754.307591
100754.25895
100754.209732
100754.160257
100754.11044
100754.060597
100754.010649
100753.960903
100753.911286
100753.862089
100753.81324
100753.765014
100753.717336
100753.670463
100753.624311
100753.579116
100753.534786
100753.491531
100753.449249
100753.408125
100753.368042
100753.329158
100753.291344
100753.254729
100753.219169
100753.184728
100753.151219
100753.118742
100753.087128
100753.056438
100753.026489
100752.997326
100752.968756
100752.94081
100752.91329
100752.886219
100752.859398
100752.832846
100752.80637
100752.779989
100752.753516
100752.726979
100752.700201
100752.673217
100752.645866
100752.618193
100752.590054
100752.561507
100752.532426
100752.502883
100752.47277
100752.44217
100752.410996
100752.379343
100752.347141
100752.314495
100752.28135
100752.247822
100752.21387
100752.179615
100752.145027
100752.110234
100752.075214
100752.040097
100752.004869
100751.969659
100751.934461
100751.899399
100751.864472
100751.829801
100751.795387
100751.761345
100751.72768
100751.694498
100751.661806
100751.629702
100751.598192
100751.56737
100751.537238
100751.507881
100751.479303
100751.45158
100751.424714
100751.398773
100751.373758
100751.349729
100751.326686
100751.30468
100751.283712
100751.263824
100751.245018
100751.227331
100751.210767
100751.195359
100751.18112
100751.168089
100751.156301
100751.145825
100751.136764
100751.129302
100751.12369
100751.120109
100751.118413
100755.226965
100755.226048
100755.223315
100755.219549
100755.214889
100755.20915
100755.202484
100755.194667
100755.185852
100755.175805
100755.164661
100755.152178
100755.138488
100755.123343
100755.106878
100755.088845
100755.069386
100755.048261
100755.025625
100755.001248
100754.975305
100754.947578
100754.918263
100754.887156
100754.854478
100754.82004
100754.784085
100754.74644
100754.707372
100754.666723
100754.62478
100754.581403
100754.536893
100754.491126
100754.444418
100754.39666
100754.348175
100754.298866
100754.249063
100754.198679
100754.148044
100754.097078
100754.046108
100753.99506
100753.944249
100753.893607
100753.843434
100753.793661
100753.744572
100753.696094
100753.648488
100753.601678
100753.5559
100753.511066
100753.46739
100753.424769
100753.38339
100753.343137
100753.304166
100753.266347
100753.229807
100753.194396
100753.160164
100753.126922
100753.094773
100753.063539
100753.033276
100753.003791
100752.975124
100752.947074
100752.919665
100752.892692
100752.866171
100752.839894
100752.813875
100752.787912
100752.762019
100752.736002
100752.709882
100752.683476
100752.656817
100752.629737
100752.60228
100752.574298
100752.545848
100752.516802
100752.487232
100752.45703
100752.426283
100752.394902
100752.362986
100752.330468
100752.297456
100752.263899
100752.229916
100752.195471
100752.160689
100752.125546
100752.090171
100752.054551
100752.018816
100751.982959
100751.947113
100751.911274
100751.875572
100751.840008
100751.804706
100751.769672
100751.735022
100751.700763
100751.667004
100751.633753
100751.601111
100751.569085
100751.537768
100751.507166
100751.477364
100751.448366
100751.420248
100751.393012
100751.366728
100751.341395
100751.317073
100751.293763
100751.271514
100751.250326
100751.230243
100751.211263
100751.193423
100751.176724
100751.161199
100751.146859
100751.133738
100751.121871
100751.111326
100751.102213
100751.094732
100751.089146
100751.085613
100751.083941
100755.221127
100755.22029
100755.217718
100755.214183
100755.209839
100755.204473
100755.198237
100755.190905
100755.182614
100755.173113
100755.162537
100755.150625
100755.137499
100755.122898
100755.106944
100755.089377
100755.07033
100755.049552
100755.027188
100755.003001
100754.97716
100754.949439
100754.920033
100754.888734
100754.855761
100754.820925
100754.784473
100754.74623
100754.70647
100754.665037
100754.622225
100754.577897
100754.532365
100754.485511
100754.437659
100754.388706
100754.338987
100754.288412
100754.237321
100754.185636
100754.133695
100754.08143
100754.029175
100753.976865
100753.924824
100753.872992
100753.821678
100753.770821
100753.72071
100753.671281
100753.622802
100753.5752
100753.528716
100753.48327
100753.439074
100753.396032
100753.35433
100753.313855
100753.274762
100753.236921
100753.200458
100753.165191
100753.131184
100753.098256
100753.066489
100753.035699
100753.005934
100752.976996
100752.948917
100752.921485
100752.894718
100752.8684
100752.84254
100752.816921
100752.791548
100752.766208
100752.740909
100752.715449
100752.689841
100752.663896
100752.637641
100752.610903
100752.583723
100752.555947
100752.527633
100752.49865
100752.46907
100752.438785
100752.407883
100752.376278
100752.344072
100752.3112
100752.277775
100752.24375
100752.20925
100752.174243
100752.138858
100752.103078
100752.067038
100752.030728
100751.994285
100751.957707
100751.92113
100751.884557
100751.84812
100751.811827
100751.775804
100751.740059
100751.704714
100751.669776
100751.63536
100751.601472
100751.568218
100751.535604
100751.503726
100751.472591
100751.442284
100751.412809
100751.384244
100751.356592
100751.329919
100751.304228
100751.279577
100751.255965
100751.233443
100751.21201
100751.191707
100751.172532
100751.154521
100751.137673
100751.122018
100751.107564
100751.094345
100751.082392
100751.071774
100751.062609
100751.055114
100751.049559
100751.04607
100751.044417
100755.21092
100755.210188
100755.207831
100755.20461
100755.200662
100755.19578
100755.190107
100755.183392
100755.175772
100755.166986
100755.157146
100755.14598
100755.133598
100755.11972
100755.104457
100755.087533
100755.06907
100755.048801
100755.026866
100755.003013
100754.977406
100754.94981
100754.920417
100754.889011
100754.855815
100754.820633
100754.783716
100754.74489
100754.704432
100754.66219
100754.618466
100754.573127
100754.526494
100754.478454
100754.429344
100754.379068
100754.327973
100754.275977
100754.223433
100754.170271
100754.116844
100754.06309
100754.009357
100753.955591
100753.902126
100753.848912
100753.796268
100753.744142
100753.692834
100753.642287
100753.592776
100753.544235
100753.496915
100753.450736
100753.405918
100753.362368
100753.320274
100753.279523
100753.240274
100753.202392
100753.166004
100753.130908
100753.097164
100753.064598
100753.033275
100753.003004
100752.973827
100752.945537
100752.918154
100752.89146
100752.865461
100752.83993
100752.814867
100752.790041
100752.765449
100752.740868
100752.716295
100752.691517
100752.666541
100752.641169
100752.615421
100752.589117
100752.562294
100752.534795
100752.506673
100752.477797
100752.448238
100752.417888
100752.386837
100752.355001
100752.322487
100752.289231
100752.255354
100752.220812
100752.185736
100752.150099
100752.114039
100752.077544
100752.040754
100752.003666
100751.966425
100751.929033
100751.891632
100751.854231
100751.816967
100751.779852
100751.743017
100751.706474
100751.670347
100751.634648
100751.599493
100751.564892
100751.530952
100751.497682
100751.465178
100751.433448
100751.402579
100751.372575
100751.343514
100751.315398
100751.288296
100751.262209
100751.237193
100751.21325
100751.190428
100751.168724
100751.14818
100751.128792
100751.110594
100751.093584
100751.077788
100751.063214
100751.049891
100751.037848
100751.027155
100751.01794
100751.010437
100751.004916
100751.001467
100750.999832
100755.196098
100755.195503
100755.193417
100755.190584
100755.18715
100755.182878
100755.177905
100755.171979
100755.165214
100755.157324
100755.148421
100755.138206
100755.126774
100755.113828
100755.099462
100755.083382
100755.065695
100755.046119
100755.024783
100755.00142
100754.976186
100754.948835
100754.919556
100754.888125
100754.854764
100754.819272
100754.781904
100754.742485
100754.701299
100754.658194
100754.613482
100754.567034
100754.519183
100754.469822
100754.419302
100754.367535
100754.31488
100754.261269
100754.207065
100754.152213
100754.097078
100754.041611
100753.986173
100753.930723
100753.875607
100753.820788
100753.766597
100753.712993
100753.660287
100753.60843
100753.55771
100753.508068
100753.459761
100753.412717
100753.367163
100753.323008
100753.280444
100753.239361
100753.199917
100753.161979
100753.12567
100753.090774
100753.057342
100753.025193
100752.99439
100752.96473
100752.936248
100752.908725
100752.882172
100752.856357
100752.831278
100752.806691
100752.782586
100752.758719
100752.735075
100752.711416
100752.68773
100752.663791
100752.639596
100752.614937
100752.589826
100752.564076
100752.537717
100752.510587
100752.482737
100752.454032
100752.424544
100752.394164
100752.362986
100752.330926
100752.298096
100752.264437
100752.230075
100752.194973
100752.159268
100752.12294
100752.086136
100752.048848
100752.011227
100751.973276
100751.935147
100751.896849
100751.858532
100751.820209
100751.782025
100751.743996
100751.706258
100751.668828
100751.631835
100751.595293
100751.559321
100751.523933
100751.489236
100751.455243
100751.422051
100751.389667
100751.358182
100751.327598
100751.297994
100751.269373
100751.241803
100751.215284
100751.189873
100751.16557
100751.142422
100751.120427
100751.099624
100751.080008
100751.06161
100751.044427
100751.028484
100751.013784
100751.000353
100750.988218
100750.977452
100750.96819
100750.960687
100750.955203
100750.951791
100750.950171
100755.176397
100755.17597
100755.174225
100755.171884
100755.169073
100755.165559
100755.161468
100755.15651
100755.1508
100755.144034
100755.136295
100755.127266
100755.117024
100755.105246
100755.09201
100755.076999
100755.060304
100755.041622
100755.021068
100754.99836
100754.973644
100754.946661
100754.917593
100754.886209
100754.852728
100754.816946
100754.779119
100754.739072
100754.697096
100754.653041
100754.607229
100754.559538
100754.510313
100754.459455
100754.407329
100754.353859
100754.29942
100754.243954
100754.187843
100754.131044
100754.073938
100754.016493
100753.959083
100753.901682
100753.844652
100753.78797
100753.73198
100753.676656
100753.622319
100753.568935
100753.5168
100753.465868
100753.416403
100753.368343
100753.321919
100753.277049
100753.233927
100753.192447
100753.152768
100753.114755
100753.078532
100753.04387
100753.010799
100752.979141
100752.948948
100752.920008
100752.892347
100752.865732
100752.840166
100752.815401
100752.79142
100752.767966
100752.745014
100752.722305
100752.699808
100752.677271
100752.654669
100752.63176
100752.608531
100752.58476
100752.56045
100752.535405
100752.509648
100752.48301
100752.455539
100752.427096
100752.397753
100752.367401
100752.336134
100752.303875
100752.270737
100752.236668
100752.201801
100752.166105
100752.129726
100752.092652
100752.055037
100752.016885
100751.978353
100751.939455
100751.90035
100751.861056
100751.821729
100751.782392
100751.743195
100751.704161
100751.665431
100751.627028
100751.589085
100751.551619
100751.514754
100751.478505
100751.442984
100751.408203
100751.374263
100751.341171
100751.309017
100751.277806
100751.247617
100751.218452
100751.190379
100751.163396
100751.137563
100751.112875
100751.089381
100751.067077
100751.045999
100751.026143
100751.007536
100750.990174
100750.974079
100750.959249
100750.94571
100750.933485
100750.922647
100750.913346
100750.90585
100750.900405
100750.897027
100750.895421
100755.151522
100755.151301
100755.149967
100755.148216
100755.146183
100755.143596
100755.140569
100755.136809
100755.132397
100755.127
100755.12069
100755.113117
100755.104336
100755.093996
100755.082154
100755.068464
100755.052999
100755.035432
100755.015862
100754.993986
100754.969939
100754.943446
100754.914683
100754.883407
100754.849838
100754.813764
100754.775447
100754.734709
100754.691849
100754.646722
100754.599661
100754.550551
100754.49975
100754.447174
100754.3932
100754.337768
100754.281269
100754.223662
100754.165346
100754.106295
100754.046909
100753.987171
100753.927475
100753.867812
100753.808561
100753.749714
100753.691633
100753.634305
100753.578069
100753.522903
100753.469116
100753.416673
100753.365852
100753.316597
100753.26915
100753.223434
100753.179651
100753.137696
100753.097732
100753.059625
100753.023496
100752.989099
100752.956451
100752.925364
100752.895887
100752.867795
100752.841103
100752.815565
100752.79117
100752.767653
100752.744984
100752.722887
100752.701321
100752.680007
100752.658899
100752.637725
100752.616444
100752.594799
100752.572762
100752.550095
100752.526792
100752.502642
100752.477662
100752.451676
100752.424725
100752.396667
100752.367572
100752.337332
100752.306043
100752.27363
100752.240212
100752.205744
100752.170366
100752.134055
100752.096966
100752.059098
100752.020616
100751.981531
100751.942014
100751.902087
100751.86192
100751.82154
100751.781113
100751.74067
100751.700368
100751.660238
100751.620429
100751.580967
100751.541991
100751.503523
100751.465691
100751.428512
100751.392101
100751.356471
100751.321726
100751.287874
100751.255005
100751.223124
100751.192311
100751.162567
100751.13396
100751.106487
100751.080207
100751.055115
100751.031257
100751.008629
100750.987266
100750.96716
100750.948339
100750.930795
100750.914546
100750.899588
100750.885942
100750.87363
100750.862726
100750.853394
100750.845913
100750.840509
100750.837163
100750.835571
100755.121084
100755.121111
100755.120282
100755.11926
100755.118155
100755.116693
100755.114974
100755.112654
100755.109812
100755.106084
100755.101506
100755.0957
100755.088693
100755.0801
100755.06995
100755.057867
100755.043901
100755.027694
100755.009327
100754.988473
100754.965253
100754.939374
100754.911005
100754.879891
100754.846248
100754.809861
100754.770994
100754.72947
100754.685597
100754.639235
100754.59073
100754.539978
100754.487353
100754.432783
100754.376667
100754.318957
100754.260069
100754.199976
100754.139102
100754.077437
100754.015403
100753.953004
100753.890654
100753.828362
100753.76653
100753.705166
100753.644652
100753.584992
100753.526542
100753.469296
100753.413578
100753.359368
100753.306955
100753.256296
100753.207643
100753.160926
100753.116357
100753.073834
100753.033524
100752.995293
100752.959261
100752.925168
100752.893008
100752.862588
100752.833948
100752.80685
100752.781299
100752.757032
100752.734023
100752.711989
100752.690882
100752.670406
100752.650498
100752.630859
100752.611424
100752.591898
100752.572222
100752.552119
100752.531543
100752.510242
100752.488194
100752.465175
100752.441193
100752.416059
100752.389812
100752.362302
100752.333599
100752.303592
100752.272381
100752.239892
100752.206253
100752.171422
100752.13555
100752.098622
100752.060807
100752.022111
100751.982714
100751.942639
100751.902068
100751.861037
100751.819725
100751.778174
100751.736558
100751.694918
100751.653422
100751.612108
100751.571132
100751.530527
100751.490438
100751.450892
100751.412021
100751.373845
100751.336482
100751.299947
100751.264345
100751.229685
100751.196058
100751.16347
100751.131999
100751.101646
100751.072479
100751.044494
100751.017748
100750.992236
100750.968002
100750.94504
100750.923385
100750.903026
100750.883988
100750.866261
100750.84986
100750.834777
100750.82103
100750.808636
100750.797674
100750.78832
100750.780864
100750.775503
100750.772188
100750.770609
100755.084644
100755.084971
100755.084747
100755.084592
100755.084622
100755.084517
100755.084357
100755.083787
100755.082841
100755.081114
100755.078624
100755.074944
100755.070072
100755.063579
100755.055466
100755.045315
100755.033149
100755.018577
100755.001656
100754.982031
100754.959807
100754.934671
100754.906781
100754.875869
100754.842151
100754.805404
100754.765898
100754.723457
100754.678399
100754.630593
100754.580399
100754.527726
100754.472969
100754.416071
100754.357454
100754.297089
100754.235414
100754.172427
100754.108573
100754.043867
100753.978754
100753.913259
100753.847822
100753.782474
100753.717638
100753.653346
100753.589999
100753.527621
100753.466589
100753.406914
100753.348939
100753.292658
100753.238376
100753.186064
100753.135986
100753.088082
100753.042573
100752.999365
100752.958631
100752.920236
100752.884303
100752.85055
100752.818952
100752.789306
100752.761641
100752.735706
100752.711492
100752.688718
100752.667341
100752.647054
100752.627789
100752.609225
100752.591277
100752.57362
100752.556167
100752.538601
100752.52084
100752.502586
100752.483775
100752.464136
100752.443632
100752.422024
100752.399306
100752.375281
100752.349977
100752.323239
100752.295131
100752.265541
100752.234568
100752.202142
100752.168394
100752.13329
100752.096988
100752.059486
100752.020962
100751.981438
100751.941106
100751.900004
100751.858329
100751.816131
100751.773605
100751.730803
100751.687916
100751.644995
100751.602218
100751.559634
100751.517407
100751.475579
100751.4343
100751.393603
100751.353624
100751.314388
100751.276015
100751.238523
100751.202017
100751.166507
100751.132085
100751.098757
100751.0666
100751.035615
100751.005867
100750.977353
100750.950128
100750.924186
100750.899569
100750.876268
100750.854317
100750.833704
100750.814452
100750.796546
100750.779999
100750.764798
100750.750957
100750.738491
100750.727481