/*--------------------------------*- C++ -*----------------------------------*\
| =========                 |                                                 |
| \\      /  F ield         | OpenFOAM: The Open Source CFD Toolbox           |
|  \\    /   O peration     | Version:  2212                                  |
|   \\  /    A nd           | Website:  www.openfoam.com                      |
|    \\/     M anipulation  |                                                 |
\*---------------------------------------------------------------------------*/
FoamFile
{
    version     2.0;
    format      ascii;
    arch        "LSB;label=64;scalar=64";
    class       volScalarField;
    location    "1870";
    object      Gco2;
}
// * * * * * * * * * * * * * * * * * * * * * * * * * * * * * * * * * * * * * //

dimensions      [1 -3 0 0 0 0 0];

internalField   nonuniform List<scalar> 
1024
(
0.0499431
0.049919
0.04986
0.0497516
0.0495759
0.0493121
0.0489383
0.0484352
0.0477916
0.0470108
0.0461152
0.0451468
0.0441603
0.0432112
0.0423451
0.041601
0.0410745
0.0408431
0.0408788
0.0411312
0.0415535
0.0420924
0.0426899
0.0432859
0.0438285
0.0442836
0.0446378
0.0448951
0.0450691
0.0451772
0.0452363
0.0452603
0.0499354
0.0499112
0.0498516
0.0497422
0.0495649
0.0492985
0.0489212
0.0484139
0.0477657
0.0469804
0.0460812
0.0451105
0.0441233
0.0431743
0.0423085
0.0415641
0.0410361
0.0408026
0.0408365
0.0410881
0.041511
0.0420519
0.0426523
0.0432525
0.0438001
0.0442602
0.0446189
0.0448794
0.0450556
0.0451649
0.0452245
0.0452487
0.0499167
0.0498921
0.0498313
0.0497197
0.0495386
0.0492666
0.0488816
0.0483647
0.0477061
0.046911
0.0460039
0.0450285
0.0440394
0.0430905
0.0422247
0.0414781
0.0409445
0.0407038
0.0407323
0.0409834
0.0414112
0.0419604
0.0425706
0.0431812
0.0437395
0.0442098
0.0445769
0.0448437
0.0450239
0.0451354
0.0451959
0.0452204
0.0498831
0.0498576
0.049795
0.0496796
0.0494923
0.0492109
0.0488131
0.0482806
0.0476049
0.0467937
0.0458741
0.0448911
0.0438993
0.0429499
0.0420823
0.0413289
0.0407813
0.0405236
0.0405412
0.0407932
0.0412347
0.0418046
0.0424364
0.0430671
0.0436432
0.0441286
0.0445078
0.0447829
0.0449681
0.0450822
0.0451437
0.0451684
0.0498299
0.0498035
0.049738
0.0496173
0.049421
0.049126
0.0487098
0.0481547
0.0474547
0.0466208
0.0456837
0.0446904
0.0436944
0.0427429
0.0418693
0.0411001
0.040524
0.0402345
0.0402329
0.0404882
0.0409565
0.041566
0.0422378
0.0429027
0.043506
0.0440121
0.0444059
0.0446903
0.0448806
0.0449967
0.0450585
0.0450831
0.0497529
0.049725
0.049656
0.0495282
0.04932
0.0490071
0.0485665
0.0479818
0.0472501
0.0463869
0.0454274
0.0444208
0.0434182
0.0424606
0.041573
0.0407736
0.0401485
0.0398067
0.0397748
0.0400358
0.040546
0.0412186
0.0419551
0.0426741
0.0433172
0.0438505
0.0442611
0.0445546
0.0447485
0.044865
0.0449259
0.0449494
0.0496479
0.0496185
0.0495452
0.0494088
0.0491859
0.0488508
0.0483802
0.0477593
0.0469891
0.0460907
0.0451043
0.0440807
0.0430673
0.0420965
0.0411824
0.0403331
0.0396327
0.0392141
0.0391375
0.0394027
0.0399662
0.0407247
0.0415538
0.0423519
0.043052
0.0436213
0.0440515
0.0443533
0.0445484
0.0446626
0.0447203
0.0447417
0.0495126
0.0494816
0.0494035
0.0492574
0.0490176
0.0486569
0.0481518
0.0474895
0.0466753
0.0457366
0.0447188
0.0436733
0.0426425
0.0416478
0.0406913
0.0397693
0.0389659
0.0384438
0.038302
0.0385587
0.0391727
0.0400279
0.040973
0.0418775
0.0426565
0.0432746
0.0437298
0.0440402
0.0442344
0.0443434
0.0443956
0.0444134
0.0493467
0.0493141
0.0492312
0.0490748
0.0488171
0.0484292
0.047887
0.0471799
0.0463181
0.0453352
0.0442814
0.0432082
0.0421512
0.0411209
0.0401062
0.0390919
0.0381624
0.0375101
0.037271
0.0374822
0.0381128
0.039045
0.0401085
0.041139
0.0420222
0.0427091
0.0432009
0.043525
0.0437194
0.0438225
0.0438678
0.0438812
0.049153
0.049119
0.0490316
0.0488655
0.0485904
0.0481755
0.0475963
0.0468442
0.0459338
0.0449044
0.0438107
0.0427039
0.0416135
0.0405395
0.0394592
0.0383457
0.03728
0.0364723
0.0360844
0.0361751
0.0367372
0.0376712
0.0388056
0.0399506
0.0409554
0.0417388
0.0422912
0.042646
0.0428509
0.0429536
0.0429947
0.0430047
0.0489373
0.0489022
0.0488111
0.0486368
0.0483468
0.0479081
0.0472957
0.046502
0.0455454
0.0444705
0.0433361
0.0421943
0.0410706
0.0399577
0.0388239
0.03763
0.0364407
0.0354563
0.0348479
0.0347003
0.0350472
0.0358319
0.0369096
0.0380886
0.0391882
0.0400854
0.040734
0.0411546
0.0413974
0.0415184
0.0415662
0.0415777
0.048709
0.0486732
0.0485797
0.0483998
0.0480993
0.0476433
0.0470055
0.046179
0.0451847
0.0440715
0.0429034
0.041736
0.0405956
0.0394726
0.0383298
0.0371123
0.0358452
0.0346779
0.0337745
0.0332525
0.0331986
0.0336178
0.0344222
0.0354542
0.0365316
0.0374976
0.038255
0.03878
0.0391022
0.0392743
0.0393498
0.0393722
0.0484813
0.0484452
0.0483509
0.0481692
0.0478649
0.0474018
0.0467523
0.0459089
0.0448942
0.043761
0.0425799
0.0414142
0.0402977
0.0392257
0.0381587
0.0370198
0.035764
0.0344449
0.0332089
0.0322127
0.0316008
0.0314453
0.0317301
0.0323611
0.0331937
0.0340689
0.0348523
0.0354618
0.0358775
0.0361246
0.0362474
0.0362908
0.0482727
0.0482368
0.0481438
0.047965
0.0476659
0.04721
0.0465688
0.045734
0.0447283
0.0436081
0.0424518
0.0413356
0.0403083
0.0393777
0.0385052
0.0375859
0.0364757
0.0350906
0.0335526
0.0320647
0.0308321
0.0299915
0.0295929
0.0296091
0.0299527
0.030498
0.0311088
0.0316684
0.0321043
0.0323951
0.0325563
0.03262
0.0481094
0.0480742
0.0479845
0.0478142
0.0475311
0.0471005
0.0464942
0.0457027
0.0447479
0.0436879
0.0426089
0.0416027
0.0407397
0.040047
0.0394914
0.0389404
0.038134
0.0368161
0.0350682
0.0331388
0.0313025
0.0297677
0.0286484
0.0279717
0.0276981
0.0277416
0.0279887
0.0283214
0.0286414
0.0288884
0.0290416
0.0291081
0.0480283
0.0479943
0.0479101
0.0477537
0.0474978
0.047112
0.0465705
0.0458631
0.0450087
0.0440632
0.0431162
0.0422728
0.0416264
0.0412292
0.0410619
0.0409784
0.0406151
0.0395272
0.0377107
0.0354277
0.0330191
0.0307864
0.0289332
0.0275523
0.026646
0.0261535
0.0259774
0.026005
0.0261296
0.0262683
0.0263722
0.0264233
0.0480733
0.0480407
0.0479626
0.047822
0.047598
0.0472668
0.0468071
0.0462092
0.0454875
0.044691
0.0439041
0.0432351
0.0427913
0.0426478
0.0428089
0.0431438
0.0432452
0.0425309
0.040864
0.0384309
0.0355748
0.0326792
0.0300703
0.0279499
0.026391
0.025366
0.0247841
0.024525
0.0244654
0.0245004
0.0245557
0.0245908
0.0482368
0.0482053
0.0481319
0.0480042
0.047807
0.0475233
0.0471374
0.0466415
0.0460465
0.0453923
0.0447521
0.0442254
0.0439187
0.0439164
0.0442405
0.0447863
0.0451585
0.0447593
0.0433726
0.0410568
0.0380561
0.0347385
0.0315138
0.0287064
0.0264988
0.0249316
0.0239409
0.0234032
0.0231753
0.023123
0.0231425
0.023168
0.0484725
0.0484419
0.0483721
0.0482536
0.0480758
0.0478274
0.0474981
0.0470832
0.0465917
0.0460556
0.0455351
0.0451149
0.0448895
0.0449383
0.0452884
0.045853
0.0462653
0.045984
0.0447927
0.0426735
0.0397598
0.036329
0.0327757
0.0294881
0.0267499
0.0246912
0.0233033
0.0224831
0.0220808
0.0219392
0.0219243
0.0219423
0.0487399
0.0487111
0.0486459
0.0485363
0.0483743
0.0481528
0.047866
0.047513
0.047103
0.0466622
0.0462386
0.0458997
0.0457213
0.0457666
0.046053
0.0464957
0.046767
0.0464245
0.0452926
0.0433259
0.0405838
0.0372488
0.0336293
0.0300997
0.0270011
0.0245478
0.0228034
0.0217078
0.0211242
0.0208851
0.0208316
0.0208415
0.0489769
0.0489532
0.0488984
0.0488044
0.0486636
0.0484698
0.0482204
0.0479179
0.0475729
0.0472081
0.0468605
0.0465794
0.0464167
0.0464101
0.0465563
0.046762
0.0467541
0.0462207
0.0450466
0.0431751
0.0406155
0.0374793
0.0339852
0.0304363
0.0271652
0.0244408
0.0224026
0.0210522
0.0202856
0.019941
0.0198434
0.0198437
0.0490809
0.0490686
0.0490369
0.0489761
0.0488752
0.0487254
0.0485229
0.0482713
0.0479824
0.0476755
0.047377
0.0471157
0.0469166
0.0467895
0.0467087
0.0465763
0.0461957
0.0454014
0.0441374
0.0423403
0.039977
0.0370925
0.0338355
0.0304376
0.0271753
0.0243201
0.0220699
0.0204983
0.0195538
0.0190972
0.0189492
0.0189379
0.0489099
0.0489184
0.048929
0.0489286
0.0488995
0.0488242
0.0486915
0.0485007
0.0482607
0.0479852
0.0476878
0.0473781
0.0470584
0.0467185
0.0463235
0.045786
0.0450022
0.0439438
0.0425963
0.0408852
0.0387449
0.0361632
0.0332203
0.0300848
0.0269764
0.024132
0.0217689
0.0200255
0.0189173
0.0183455
0.0181408
0.0181154
0.0483083
0.0483485
0.0484221
0.0485104
0.0485845
0.0486129
0.0485696
0.0484417
0.0482283
0.0479342
0.0475624
0.0471112
0.0465746
0.0459408
0.0451842
0.0442426
0.0431019
0.0418386
0.040456
0.0388641
0.0369757
0.0347373
0.0321697
0.0293782
0.0265291
0.023819
0.021453
0.019606
0.0183616
0.017678
0.0174114
0.0173688
0.0471421
0.0472239
0.0473743
0.0475625
0.0477448
0.0478735
0.0479052
0.0478085
0.0475689
0.0471843
0.0466557
0.0459849
0.045175
0.0442291
0.0431422
0.0418809
0.0404981
0.0391311
0.0377836
0.0363511
0.0347349
0.0328592
0.030703
0.0283155
0.0258069
0.0233312
0.0210688
0.0192031
0.0178677
0.0170855
0.0167553
0.0166922
0.045323
0.0454519
0.045674
0.045935
0.0461756
0.0463397
0.0463753
0.0462364
0.0458994
0.0453633
0.0446371
0.0437364
0.0426818
0.0414952
0.0401912
0.0387576
0.0372841
0.0359279
0.0346855
0.0334458
0.0321085
0.0305923
0.0288531
0.0268989
0.0247894
0.0226301
0.0205673
0.0187746
0.0174114
0.0165578
0.0161677
0.0160811
0.0428072
0.0429806
0.043237
0.0434896
0.0436758
0.0437535
0.0436837
0.0434199
0.04294
0.0422487
0.0413632
0.0403108
0.0391249
0.0378386
0.036477
0.0350392
0.0336244
0.0323817
0.0312999
0.0302724
0.0292065
0.0280269
0.0266826
0.0251574
0.0234732
0.0216896
0.0199092
0.0182792
0.0169636
0.0160816
0.015644
0.0155327
0.0395708
0.0397702
0.0399809
0.0400969
0.0400888
0.0399591
0.0396994
0.0392772
0.0386771
0.0379012
0.0369659
0.0358993
0.0347362
0.0335107
0.0322491
0.0309546
0.0297178
0.028664
0.0277779
0.0269674
0.0261542
0.0252756
0.0242844
0.0231552
0.0218873
0.0205054
0.019068
0.0176815
0.0164927
0.0156392
0.0151787
0.015045
0.035569
0.0357475
0.0357934
0.0356487
0.0353641
0.0349934
0.0345536
0.0340264
0.0333959
0.032652
0.0318011
0.0308628
0.0298643
0.0288331
0.0277914
0.0267433
0.025761
0.02494
0.0242653
0.0236649
0.023079
0.0224601
0.0217705
0.0209857
0.0200956
0.0191048
0.0180378
0.0169564
0.0159703
0.0152102
0.0147639
0.0146162
0.0306934
0.0307603
0.0305348
0.0301177
0.029627
0.0291234
0.0286242
0.0281129
0.0275688
0.0269711
0.0263151
0.0256093
0.0248701
0.0241162
0.0233634
0.0226153
0.0219225
0.02135
0.0208862
0.0204813
0.0200947
0.0196942
0.0192537
0.0187548
0.0181869
0.0175468
0.0168402
0.0160937
0.0153715
0.0147723
0.0143881
0.0142438
0.0247367
0.0245916
0.0241679
0.023693
0.0232298
0.0228015
0.0224133
0.0220495
0.0216903
0.0213152
0.0209154
0.0204919
0.0200525
0.0196072
0.0191653
0.0187292
0.0183279
0.0179983
0.0177334
0.017505
0.0172902
0.0170709
0.0168325
0.0165641
0.016259
0.0159135
0.0155271
0.0151076
0.014682
0.0143032
0.0140365
0.0139225
0.0174485
0.0173354
0.0171177
0.0169098
0.016721
0.0165536
0.0164079
0.0162772
0.0161533
0.0160276
0.0158958
0.0157572
0.0156141
0.0154695
0.0153264
0.0151856
0.0150564
0.0149505
0.0148657
0.0147931
0.0147253
0.0146567
0.0145825
0.0144995
0.0144055
0.0142991
0.0141799
0.0140491
0.0139133
0.0137868
0.0136904
0.0136438
)
;

boundaryField
{
    movingWall
    {
        type            fixedValue;
        value           uniform 0.0135;
    }
    fixedWalls
    {
        type            zeroGradient;
    }
    floor
    {
        type            zeroGradient;
    }
    frontAndBack
    {
        type            empty;
    }
}


// ************************************************************************* //
