/*--------------------------------*- C++ -*----------------------------------*\
| =========                 |                                                 |
| \\      /  F ield         | OpenFOAM: The Open Source CFD Toolbox           |
|  \\    /   O peration     | Version:  2212                                  |
|   \\  /    A nd           | Website:  www.openfoam.com                      |
|    \\/     M anipulation  |                                                 |
\*---------------------------------------------------------------------------*/
FoamFile
{
    version     2.0;
    format      ascii;
    arch        "LSB;label=64;scalar=64";
    class       volScalarField;
    location    "1870";
    object      Gh2;
}
// * * * * * * * * * * * * * * * * * * * * * * * * * * * * * * * * * * * * * //

dimensions      [1 -3 0 0 0 0 0];

internalField   nonuniform List<scalar> 
1024
(
1.23434e-05
1.23424e-05
1.23399e-05
1.23354e-05
1.23281e-05
1.23172e-05
1.23018e-05
1.2281e-05
1.22546e-05
1.22226e-05
1.21863e-05
1.21473e-05
1.21082e-05
1.20712e-05
1.20381e-05
1.20103e-05
1.19912e-05
1.19833e-05
1.19856e-05
1.19959e-05
1.20126e-05
1.20337e-05
1.20571e-05
1.20805e-05
1.21018e-05
1.21197e-05
1.21337e-05
1.21438e-05
1.21507e-05
1.21549e-05
1.21573e-05
1.21582e-05
1.2343e-05
1.2342e-05
1.23396e-05
1.2335e-05
1.23277e-05
1.23167e-05
1.23011e-05
1.22801e-05
1.22535e-05
1.22214e-05
1.21849e-05
1.21459e-05
1.21067e-05
1.20697e-05
1.20367e-05
1.20089e-05
1.19897e-05
1.19819e-05
1.1984e-05
1.19943e-05
1.2011e-05
1.20322e-05
1.20557e-05
1.20792e-05
1.21007e-05
1.21188e-05
1.21329e-05
1.21432e-05
1.21502e-05
1.21545e-05
1.21568e-05
1.21578e-05
1.23423e-05
1.23412e-05
1.23387e-05
1.23341e-05
1.23266e-05
1.23153e-05
1.22994e-05
1.22781e-05
1.22511e-05
1.22186e-05
1.21818e-05
1.21427e-05
1.21035e-05
1.20665e-05
1.20335e-05
1.20057e-05
1.19864e-05
1.19782e-05
1.19802e-05
1.19904e-05
1.20073e-05
1.20288e-05
1.20526e-05
1.20765e-05
1.20984e-05
1.21169e-05
1.21313e-05
1.21418e-05
1.21489e-05
1.21533e-05
1.21557e-05
1.21567e-05
1.23409e-05
1.23398e-05
1.23372e-05
1.23324e-05
1.23247e-05
1.23131e-05
1.22966e-05
1.22747e-05
1.2247e-05
1.22139e-05
1.21766e-05
1.21372e-05
1.2098e-05
1.20612e-05
1.20282e-05
1.20001e-05
1.19803e-05
1.19716e-05
1.19731e-05
1.19834e-05
1.20008e-05
1.2023e-05
1.20476e-05
1.20722e-05
1.20948e-05
1.21138e-05
1.21287e-05
1.21395e-05
1.21468e-05
1.21513e-05
1.21537e-05
1.21547e-05
1.23387e-05
1.23376e-05
1.23349e-05
1.23299e-05
1.23218e-05
1.23096e-05
1.22924e-05
1.22696e-05
1.22409e-05
1.22069e-05
1.21691e-05
1.21294e-05
1.20901e-05
1.20533e-05
1.20202e-05
1.19916e-05
1.19708e-05
1.19609e-05
1.19617e-05
1.19721e-05
1.19905e-05
1.20142e-05
1.20402e-05
1.20661e-05
1.20896e-05
1.21094e-05
1.21248e-05
1.2136e-05
1.21435e-05
1.2148e-05
1.21505e-05
1.21514e-05
1.23355e-05
1.23343e-05
1.23315e-05
1.23262e-05
1.23176e-05
1.23047e-05
1.22866e-05
1.22626e-05
1.22326e-05
1.21976e-05
1.21589e-05
1.21188e-05
1.20794e-05
1.20426e-05
1.2009e-05
1.19795e-05
1.19569e-05
1.19451e-05
1.19448e-05
1.19554e-05
1.19753e-05
1.20013e-05
1.20297e-05
1.20576e-05
1.20825e-05
1.21033e-05
1.21193e-05
1.21308e-05
1.21384e-05
1.2143e-05
1.21454e-05
1.21463e-05
1.23312e-05
1.233e-05
1.23269e-05
1.23213e-05
1.23121e-05
1.22983e-05
1.2279e-05
1.22535e-05
1.22221e-05
1.21857e-05
1.21461e-05
1.21055e-05
1.20659e-05
1.20287e-05
1.19944e-05
1.19631e-05
1.19378e-05
1.19232e-05
1.19213e-05
1.1932e-05
1.19539e-05
1.19831e-05
1.20149e-05
1.20456e-05
1.20726e-05
1.20947e-05
1.21114e-05
1.21232e-05
1.21308e-05
1.21353e-05
1.21376e-05
1.21384e-05
1.23256e-05
1.23243e-05
1.23211e-05
1.23151e-05
1.23052e-05
1.22904e-05
1.22697e-05
1.22426e-05
1.22095e-05
1.21716e-05
1.21309e-05
1.20897e-05
1.20497e-05
1.20118e-05
1.19761e-05
1.19422e-05
1.19132e-05
1.18948e-05
1.18904e-05
1.19009e-05
1.19246e-05
1.19573e-05
1.19934e-05
1.2028e-05
1.20579e-05
1.20817e-05
1.20993e-05
1.21113e-05
1.21189e-05
1.21231e-05
1.21252e-05
1.21259e-05
1.23188e-05
1.23174e-05
1.2314e-05
1.23076e-05
1.2297e-05
1.22811e-05
1.22589e-05
1.22301e-05
1.21952e-05
1.21557e-05
1.21138e-05
1.20717e-05
1.20309e-05
1.19919e-05
1.19543e-05
1.19171e-05
1.18836e-05
1.18604e-05
1.18525e-05
1.18612e-05
1.18854e-05
1.19209e-05
1.19613e-05
1.20005e-05
1.20341e-05
1.20604e-05
1.20793e-05
1.20918e-05
1.20993e-05
1.21033e-05
1.21051e-05
1.21056e-05
1.23108e-05
1.23094e-05
1.23058e-05
1.2299e-05
1.22877e-05
1.22708e-05
1.22472e-05
1.22166e-05
1.21799e-05
1.21387e-05
1.20954e-05
1.20522e-05
1.20105e-05
1.19702e-05
1.19303e-05
1.18897e-05
1.18512e-05
1.18224e-05
1.1809e-05
1.18131e-05
1.18347e-05
1.187e-05
1.19128e-05
1.19561e-05
1.19941e-05
1.20239e-05
1.20449e-05
1.20585e-05
1.20663e-05
1.20703e-05
1.20719e-05
1.20722e-05
1.23019e-05
1.23005e-05
1.22968e-05
1.22896e-05
1.22778e-05
1.22599e-05
1.2235e-05
1.22029e-05
1.21645e-05
1.21216e-05
1.2077e-05
1.20327e-05
1.199e-05
1.19485e-05
1.19069e-05
1.18637e-05
1.18209e-05
1.17856e-05
1.1764e-05
1.17592e-05
1.17725e-05
1.1802e-05
1.18424e-05
1.18866e-05
1.19279e-05
1.19617e-05
1.19862e-05
1.20021e-05
1.20113e-05
1.20158e-05
1.20176e-05
1.20181e-05
1.22925e-05
1.22911e-05
1.22873e-05
1.22799e-05
1.22677e-05
1.22492e-05
1.22234e-05
1.219e-05
1.21502e-05
1.2106e-05
1.20603e-05
1.20153e-05
1.19723e-05
1.19307e-05
1.18892e-05
1.18454e-05
1.18e-05
1.17582e-05
1.17257e-05
1.17069e-05
1.17052e-05
1.17208e-05
1.17506e-05
1.17888e-05
1.18289e-05
1.18648e-05
1.18931e-05
1.19127e-05
1.19247e-05
1.19311e-05
1.19339e-05
1.19348e-05
1.22832e-05
1.22817e-05
1.22779e-05
1.22705e-05
1.22582e-05
1.22394e-05
1.22132e-05
1.21793e-05
1.21388e-05
1.2094e-05
1.20479e-05
1.20033e-05
1.19614e-05
1.19222e-05
1.18839e-05
1.18435e-05
1.17989e-05
1.17517e-05
1.1707e-05
1.16707e-05
1.16482e-05
1.16423e-05
1.16525e-05
1.16753e-05
1.17057e-05
1.17377e-05
1.17665e-05
1.17889e-05
1.18042e-05
1.18133e-05
1.18178e-05
1.18193e-05
1.22746e-05
1.22732e-05
1.22694e-05
1.22622e-05
1.22501e-05
1.22317e-05
1.22059e-05
1.21724e-05
1.21323e-05
1.20881e-05
1.20432e-05
1.20006e-05
1.19624e-05
1.19288e-05
1.18982e-05
1.18665e-05
1.18278e-05
1.17784e-05
1.17227e-05
1.16684e-05
1.16232e-05
1.15921e-05
1.15769e-05
1.15768e-05
1.15886e-05
1.16078e-05
1.16296e-05
1.16496e-05
1.16652e-05
1.16757e-05
1.16815e-05
1.16838e-05
1.22679e-05
1.22665e-05
1.22629e-05
1.2256e-05
1.22446e-05
1.22272e-05
1.22028e-05
1.21711e-05
1.21332e-05
1.20914e-05
1.20494e-05
1.20112e-05
1.19794e-05
1.19551e-05
1.19368e-05
1.19193e-05
1.18923e-05
1.18455e-05
1.17822e-05
1.17118e-05
1.16446e-05
1.15882e-05
1.15468e-05
1.15214e-05
1.15104e-05
1.1511e-05
1.15189e-05
1.15301e-05
1.15411e-05
1.15496e-05
1.15549e-05
1.15572e-05
1.22645e-05
1.22631e-05
1.22597e-05
1.22534e-05
1.22431e-05
1.22276e-05
1.22058e-05
1.21775e-05
1.21434e-05
1.21061e-05
1.20693e-05
1.20372e-05
1.20136e-05
1.20006e-05
1.19971e-05
1.19974e-05
1.19871e-05
1.1949e-05
1.18831e-05
1.17996e-05
1.17114e-05
1.16297e-05
1.15619e-05
1.15112e-05
1.14775e-05
1.14587e-05
1.14513e-05
1.14512e-05
1.14548e-05
1.14591e-05
1.14624e-05
1.14641e-05
1.22662e-05
1.22648e-05
1.22617e-05
1.2256e-05
1.2247e-05
1.22336e-05
1.22151e-05
1.21911e-05
1.21623e-05
1.21307e-05
1.20999e-05
1.20743e-05
1.20583e-05
1.20546e-05
1.20635e-05
1.20795e-05
1.20867e-05
1.20626e-05
1.20021e-05
1.19129e-05
1.18081e-05
1.17021e-05
1.16069e-05
1.15296e-05
1.14727e-05
1.1435e-05
1.14132e-05
1.1403e-05
1.14e-05
1.14005e-05
1.14021e-05
1.14031e-05
1.22726e-05
1.22714e-05
1.22684e-05
1.22632e-05
1.22553e-05
1.22438e-05
1.22282e-05
1.22083e-05
1.21844e-05
1.21583e-05
1.2133e-05
1.21127e-05
1.21015e-05
1.21029e-05
1.21175e-05
1.21413e-05
1.21586e-05
1.21463e-05
1.20964e-05
1.20114e-05
1.19011e-05
1.17795e-05
1.16618e-05
1.15597e-05
1.14796e-05
1.14227e-05
1.13865e-05
1.13665e-05
1.13576e-05
1.13551e-05
1.13553e-05
1.1356e-05
1.22821e-05
1.22809e-05
1.2278e-05
1.22732e-05
1.2266e-05
1.2256e-05
1.22426e-05
1.22259e-05
1.2206e-05
1.21845e-05
1.21638e-05
1.21473e-05
1.21389e-05
1.21419e-05
1.21571e-05
1.21812e-05
1.22e-05
1.21922e-05
1.21496e-05
1.2072e-05
1.19649e-05
1.1839e-05
1.17093e-05
1.15898e-05
1.14907e-05
1.14164e-05
1.13662e-05
1.13363e-05
1.13213e-05
1.13157e-05
1.13147e-05
1.13151e-05
1.2293e-05
1.22918e-05
1.22891e-05
1.22847e-05
1.22781e-05
1.2269e-05
1.22574e-05
1.22431e-05
1.22264e-05
1.22086e-05
1.21916e-05
1.21781e-05
1.21713e-05
1.21738e-05
1.21863e-05
1.22055e-05
1.22188e-05
1.22087e-05
1.21685e-05
1.20967e-05
1.19959e-05
1.18736e-05
1.17414e-05
1.16132e-05
1.15012e-05
1.14129e-05
1.13502e-05
1.13107e-05
1.12894e-05
1.12804e-05
1.12781e-05
1.12782e-05
1.23029e-05
1.23019e-05
1.22996e-05
1.22957e-05
1.22899e-05
1.22819e-05
1.22717e-05
1.22594e-05
1.22453e-05
1.22305e-05
1.22164e-05
1.22051e-05
1.21988e-05
1.21991e-05
1.2206e-05
1.22161e-05
1.22187e-05
1.22015e-05
1.21598e-05
1.20916e-05
1.19977e-05
1.18827e-05
1.17552e-05
1.16264e-05
1.15083e-05
1.14104e-05
1.13374e-05
1.1289e-05
1.12614e-05
1.12487e-05
1.12449e-05
1.12447e-05
1.2308e-05
1.23074e-05
1.2306e-05
1.23033e-05
1.22989e-05
1.22926e-05
1.22842e-05
1.22738e-05
1.22619e-05
1.22494e-05
1.22373e-05
1.22269e-05
1.22192e-05
1.22149e-05
1.22132e-05
1.22103e-05
1.21988e-05
1.21718e-05
1.21267e-05
1.20614e-05
1.19749e-05
1.18693e-05
1.17505e-05
1.16272e-05
1.15095e-05
1.14071e-05
1.13267e-05
1.12707e-05
1.12369e-05
1.12204e-05
1.12148e-05
1.12142e-05
1.23029e-05
1.23031e-05
1.23032e-05
1.23028e-05
1.23011e-05
1.22975e-05
1.22917e-05
1.22837e-05
1.22737e-05
1.22625e-05
1.22507e-05
1.22386e-05
1.22266e-05
1.22144e-05
1.22009e-05
1.21828e-05
1.21561e-05
1.2119e-05
1.20708e-05
1.20087e-05
1.19305e-05
1.18361e-05
1.17289e-05
1.16152e-05
1.15032e-05
1.14013e-05
1.1317e-05
1.1255e-05
1.12156e-05
1.11951e-05
1.11876e-05
1.11865e-05
1.2282e-05
1.22834e-05
1.22858e-05
1.22886e-05
1.22907e-05
1.2291e-05
1.22886e-05
1.22829e-05
1.22741e-05
1.22624e-05
1.2248e-05
1.2231e-05
1.22111e-05
1.21882e-05
1.21612e-05
1.2128e-05
1.20878e-05
1.2043e-05
1.19934e-05
1.19357e-05
1.18668e-05
1.17851e-05
1.16916e-05
1.15905e-05
1.14879e-05
1.13909e-05
1.13066e-05
1.1241e-05
1.11969e-05
1.11726e-05
1.1163e-05
1.11613e-05
1.22405e-05
1.22434e-05
1.22486e-05
1.22551e-05
1.22612e-05
1.22652e-05
1.22656e-05
1.22612e-05
1.22516e-05
1.22369e-05
1.2217e-05
1.21921e-05
1.21623e-05
1.2128e-05
1.20888e-05
1.20436e-05
1.19943e-05
1.19454e-05
1.18969e-05
1.18451e-05
1.17862e-05
1.17179e-05
1.16395e-05
1.15531e-05
1.14628e-05
1.13742e-05
1.12936e-05
1.12275e-05
1.11804e-05
1.11527e-05
1.11409e-05
1.11385e-05
1.21751e-05
1.21797e-05
1.21876e-05
1.21967e-05
1.2205e-05
1.22104e-05
1.22111e-05
1.22054e-05
1.21925e-05
1.21724e-05
1.21455e-05
1.21124e-05
1.20738e-05
1.20307e-05
1.19835e-05
1.19319e-05
1.1879e-05
1.18302e-05
1.17855e-05
1.17406e-05
1.1692e-05
1.16369e-05
1.15737e-05
1.15031e-05
1.14272e-05
1.13499e-05
1.12765e-05
1.12131e-05
1.1165e-05
1.11349e-05
1.11211e-05
1.11179e-05
1.20845e-05
1.20907e-05
1.20998e-05
1.21088e-05
1.21152e-05
1.21176e-05
1.21146e-05
1.21045e-05
1.20866e-05
1.20611e-05
1.20285e-05
1.199e-05
1.19468e-05
1.19001e-05
1.18507e-05
1.17988e-05
1.17478e-05
1.17031e-05
1.16641e-05
1.16269e-05
1.15883e-05
1.15454e-05
1.14967e-05
1.14416e-05
1.1381e-05
1.13172e-05
1.12538e-05
1.11962e-05
1.11499e-05
1.11189e-05
1.11035e-05
1.10995e-05
1.19679e-05
1.19751e-05
1.19826e-05
1.19866e-05
1.19861e-05
1.19811e-05
1.19714e-05
1.19558e-05
1.19337e-05
1.19053e-05
1.18711e-05
1.18322e-05
1.17899e-05
1.17453e-05
1.16996e-05
1.16528e-05
1.16082e-05
1.15702e-05
1.15382e-05
1.15089e-05
1.14794e-05
1.14476e-05
1.14117e-05
1.13709e-05
1.13253e-05
1.12759e-05
1.12247e-05
1.11757e-05
1.11339e-05
1.1104e-05
1.10879e-05
1.10831e-05
1.18239e-05
1.18303e-05
1.18319e-05
1.18266e-05
1.18162e-05
1.18026e-05
1.17866e-05
1.17673e-05
1.17442e-05
1.17171e-05
1.16861e-05
1.16519e-05
1.16156e-05
1.15782e-05
1.15404e-05
1.15025e-05
1.1467e-05
1.14374e-05
1.1413e-05
1.13913e-05
1.13701e-05
1.13477e-05
1.13227e-05
1.12944e-05
1.12624e-05
1.1227e-05
1.1189e-05
1.11507e-05
1.11161e-05
1.10895e-05
1.1074e-05
1.10688e-05
1.16486e-05
1.1651e-05
1.16429e-05
1.16278e-05
1.16101e-05
1.15918e-05
1.15737e-05
1.15551e-05
1.15353e-05
1.15136e-05
1.14897e-05
1.1464e-05
1.14372e-05
1.14098e-05
1.13825e-05
1.13554e-05
1.13304e-05
1.13097e-05
1.1293e-05
1.12783e-05
1.12643e-05
1.12499e-05
1.12339e-05
1.12159e-05
1.11955e-05
1.11726e-05
1.11474e-05
1.1121e-05
1.10957e-05
1.10747e-05
1.10614e-05
1.10564e-05
1.14348e-05
1.14295e-05
1.14143e-05
1.13972e-05
1.13805e-05
1.13651e-05
1.1351e-05
1.13378e-05
1.13248e-05
1.13112e-05
1.12966e-05
1.12812e-05
1.12653e-05
1.12491e-05
1.12331e-05
1.12173e-05
1.12028e-05
1.11909e-05
1.11813e-05
1.1173e-05
1.11653e-05
1.11573e-05
1.11487e-05
1.1139e-05
1.11281e-05
1.11157e-05
1.11019e-05
1.10871e-05
1.10721e-05
1.10589e-05
1.10497e-05
1.10458e-05
1.11734e-05
1.11694e-05
1.11615e-05
1.11541e-05
1.11473e-05
1.11412e-05
1.1136e-05
1.11312e-05
1.11267e-05
1.11222e-05
1.11174e-05
1.11124e-05
1.11072e-05
1.11019e-05
1.10967e-05
1.10916e-05
1.10869e-05
1.10831e-05
1.10801e-05
1.10774e-05
1.1075e-05
1.10725e-05
1.10698e-05
1.10668e-05
1.10634e-05
1.10596e-05
1.10554e-05
1.10508e-05
1.1046e-05
1.10416e-05
1.10382e-05
1.10366e-05
)
;

boundaryField
{
    movingWall
    {
        type            fixedValue;
        value           uniform 1.1032e-05;
    }
    fixedWalls
    {
        type            zeroGradient;
    }
    floor
    {
        type            zeroGradient;
    }
    frontAndBack
    {
        type            empty;
    }
}


// ************************************************************************* //
