/*--------------------------------*- C++ -*----------------------------------*\
| =========                 |                                                 |
| \\      /  F ield         | OpenFOAM: The Open Source CFD Toolbox           |
|  \\    /   O peration     | Version:  2212                                  |
|   \\  /    A nd           | Website:  www.openfoam.com                      |
|    \\/     M anipulation  |                                                 |
\*---------------------------------------------------------------------------*/
FoamFile
{
    version     2.0;
    format      ascii;
    arch        "LSB;label=64;scalar=64";
    class       surfaceScalarField;
    location    "1870";
    object      phi;
}
// * * * * * * * * * * * * * * * * * * * * * * * * * * * * * * * * * * * * * //

dimensions      [0 3 -1 0 0 0 0];

oriented        oriented;

internalField   nonuniform List<scalar> 
1984
(
3.63649e-10
-3.63837e-10
-3.03043e-11
3.93961e-10
-2.01413e-09
1.98384e-09
-5.86497e-09
3.85088e-09
-1.12017e-08
5.33676e-09
-1.72812e-08
6.07956e-09
-2.34272e-08
6.14592e-09
-2.94557e-08
6.02852e-09
-3.5825e-08
6.36928e-09
-4.34188e-08
7.59387e-09
-5.31782e-08
9.75937e-09
-6.57472e-08
1.2569e-08
-8.13742e-08
1.5627e-08
-9.93885e-08
1.80143e-08
-1.1694e-07
1.75516e-08
-1.26217e-07
9.27717e-09
-1.11896e-07
-1.43212e-08
-6.70543e-08
-4.48416e-08
2.8554e-09
-6.99097e-08
7.64604e-08
-7.36049e-08
1.28408e-07
-5.19477e-08
1.47769e-07
-1.93608e-08
1.40219e-07
7.54979e-09
1.19346e-07
2.08734e-08
9.44663e-08
2.48795e-08
6.98957e-08
2.45706e-08
4.74251e-08
2.24706e-08
2.80975e-08
1.93277e-08
1.30773e-08
1.50202e-08
3.55343e-09
9.52387e-09
-1.45121e-10
3.69855e-09
-1.45106e-10
-3.84619e-10
2.07894e-11
-3.43511e-09
3.4445e-09
-1.11379e-08
9.68664e-09
-2.41767e-08
1.68898e-08
-4.18533e-08
2.30134e-08
-6.23945e-08
2.66208e-08
-8.39989e-08
2.77503e-08
-1.06055e-07
2.80848e-08
-1.29695e-07
3.00089e-08
-1.57318e-07
3.52168e-08
-1.91517e-07
4.39582e-08
-2.33973e-07
5.50252e-08
-2.84767e-07
6.64209e-08
-3.40687e-07
7.39346e-08
-3.91473e-07
6.83379e-08
-4.12997e-07
3.08009e-08
-3.6221e-07
-6.51087e-08
-2.24744e-07
-1.82307e-07
-1.59464e-08
-2.78707e-07
2.03941e-07
-2.93492e-07
3.62273e-07
-2.10279e-07
4.30177e-07
-8.72648e-08
4.21287e-07
1.64396e-08
3.69063e-07
7.30969e-08
2.99318e-07
9.46252e-08
2.26435e-07
9.74528e-08
1.579e-07
9.10057e-08
9.83649e-08
7.8863e-08
5.157e-08
6.18152e-08
2.00999e-08
4.09939e-08
3.99384e-09
1.98047e-08
3.84871e-09
-2.19298e-09
2.21379e-09
-1.05739e-08
1.18254e-08
-2.72989e-08
2.64117e-08
-5.3325e-08
4.2916e-08
-8.76769e-08
5.73653e-08
-1.27774e-07
6.67174e-08
-1.70902e-07
7.08789e-08
-2.16072e-07
7.32545e-08
-2.6494e-07
7.88765e-08
-3.21152e-07
9.14288e-08
-3.88579e-07
1.11386e-07
-4.69394e-07
1.3584e-07
-5.62422e-07
1.59449e-07
-6.60152e-07
1.71664e-07
-7.42801e-07
1.50987e-07
-7.68718e-07
5.6718e-08
-6.7013e-07
-1.63697e-07
-4.3265e-07
-4.19787e-07
-8.46413e-08
-6.26716e-07
2.8518e-07
-6.63314e-07
5.63167e-07
-4.88266e-07
6.99028e-07
-2.23126e-07
7.07894e-07
7.57377e-09
6.3718e-07
1.43811e-07
5.28667e-07
2.03138e-07
4.08202e-07
2.17917e-07
2.91141e-07
2.08067e-07
1.87421e-07
1.82583e-07
1.04011e-07
1.45226e-07
4.50094e-08
9.99953e-08
1.10639e-08
5.37502e-08
1.49125e-08
-5.03057e-09
7.24439e-09
-2.15568e-08
2.83517e-08
-5.17506e-08
5.66056e-08
-9.62711e-08
8.74366e-08
-1.53521e-07
1.14615e-07
-2.20089e-07
1.33285e-07
-2.92561e-07
1.43352e-07
-3.69721e-07
1.50414e-07
-4.53576e-07
1.62731e-07
-5.48457e-07
1.8631e-07
-6.58664e-07
2.21593e-07
-7.85782e-07
2.62958e-07
-9.25952e-07
2.99619e-07
-1.06574e-06
3.11449e-07
-1.17489e-06
2.6014e-07
-1.19512e-06
7.69498e-08
-1.04064e-06
-3.18173e-07
-7.05603e-07
-7.54829e-07
-2.38521e-07
-1.0938e-06
2.66148e-07
-1.16798e-06
6.7326e-07
-8.95378e-07
9.00705e-07
-4.50571e-07
9.53145e-07
-4.48662e-08
8.83919e-07
2.13037e-07
7.50712e-07
3.36346e-07
5.91201e-07
3.77428e-07
4.29819e-07
3.69449e-07
2.82967e-07
3.29434e-07
1.61741e-07
2.66452e-07
7.2787e-08
1.88949e-07
1.88499e-08
1.07687e-07
3.37623e-08
-8.93727e-09
1.61817e-08
-3.69151e-08
5.63296e-08
-8.60262e-08
1.05717e-07
-1.56127e-07
1.57538e-07
-2.44406e-07
2.02894e-07
-3.46319e-07
2.35199e-07
-4.57791e-07
2.54824e-07
-5.77432e-07
2.70056e-07
-7.07263e-07
2.92561e-07
-8.51404e-07
3.30451e-07
-1.01332e-06
3.83508e-07
-1.19263e-06
4.42263e-07
-1.3815e-06
4.88495e-07
-1.55987e-06
4.89817e-07
-1.68785e-06
3.8812e-07
-1.69378e-06
8.28791e-08
-1.48319e-06
-5.28765e-07
-1.06581e-06
-1.1722e-06
-5.1537e-07
-1.64424e-06
8.87805e-08
-1.77213e-06
6.22003e-07
-1.4286e-06
9.64793e-07
-7.93361e-07
1.0926e-06
-1.72673e-07
1.05208e-06
2.53553e-07
9.15783e-07
4.72646e-07
7.34106e-07
5.59106e-07
5.41293e-07
5.62262e-07
3.60913e-07
5.09815e-07
2.08909e-07
4.18456e-07
9.52008e-08
3.02657e-07
2.49579e-08
1.7793e-07
5.87201e-08
-1.41033e-08
3.0285e-08
-5.73199e-08
9.95463e-08
-1.31603e-07
1.79999e-07
-2.35529e-07
2.61464e-07
-3.64412e-07
3.31776e-07
-5.1206e-07
3.82847e-07
-6.73479e-07
4.16242e-07
-8.46857e-07
4.43434e-07
-1.03361e-06
4.79313e-07
-1.23656e-06
5.33399e-07
-1.45701e-06
6.03965e-07
-1.69151e-06
6.7676e-07
-1.92782e-06
7.24802e-07
-2.14e-06
7.02e-07
-2.28128e-06
5.29395e-07
-2.27198e-06
7.35804e-08
-2.01788e-06
-7.82859e-07
-1.54532e-06
-1.64477e-06
-9.44305e-07
-2.24526e-06
-2.91949e-07
-2.42449e-06
3.36217e-07
-2.05677e-06
8.1465e-07
-1.27179e-06
1.05486e-06
-4.1288e-07
1.07609e-06
2.32324e-07
9.64234e-07
5.84498e-07
7.84848e-07
7.38492e-07
5.82933e-07
7.64176e-07
3.89438e-07
7.0331e-07
2.24998e-07
5.82896e-07
1.02021e-07
4.25635e-07
2.65213e-08
2.5343e-07
8.52414e-08
-2.06207e-08
5.09057e-08
-8.30108e-08
1.61936e-07
-1.8888e-07
2.85869e-07
-3.35095e-07
4.0768e-07
-5.1447e-07
5.1115e-07
-7.18546e-07
5.86924e-07
-9.40847e-07
6.38542e-07
-1.17852e-06
6.81108e-07
-1.4316e-06
7.32392e-07
-1.70069e-06
8.02486e-07
-1.98418e-06
8.87455e-07
-2.27526e-06
9.67844e-07
-2.55807e-06
1.00761e-06
-2.803e-06
9.46932e-07
-2.96025e-06
6.86637e-07
-2.94813e-06
6.14598e-08
-2.677e-06
-1.05398e-06
-2.18315e-06
-2.13862e-06
-1.56098e-06
-2.86743e-06
-8.94995e-07
-3.09047e-06
-2.23507e-07
-2.72826e-06
3.75851e-07
-1.87115e-06
7.69907e-07
-8.06936e-07
8.9515e-07
1.07081e-07
8.41033e-07
6.38615e-07
6.95622e-07
8.83904e-07
5.1628e-07
9.43517e-07
3.40859e-07
8.78731e-07
1.93087e-07
7.30667e-07
8.53267e-08
5.33395e-07
2.14601e-08
3.17296e-07
1.06702e-07
-2.82363e-08
7.9142e-08
-1.1299e-07
2.4669e-07
-2.55686e-07
4.28565e-07
-4.51241e-07
6.03235e-07
-6.89537e-07
7.49446e-07
-9.59256e-07
8.56643e-07
-1.25171e-06
9.30999e-07
-1.56224e-06
9.91632e-07
-1.88886e-06
1.05902e-06
-2.22968e-06
1.1433e-06
-2.58032e-06
1.2381e-06
-2.93143e-06
1.31896e-06
-3.2652e-06
1.34138e-06
-3.55102e-06
1.23276e-06
-3.73947e-06
8.75082e-07
-3.75074e-06
7.27284e-08
-3.49742e-06
-1.3073e-06
-3.0169e-06
-2.61914e-06
-2.40126e-06
-3.48306e-06
-1.73092e-06
-3.76082e-06
-1.05102e-06
-3.40815e-06
-3.93871e-07
-2.5283e-06
1.53158e-07
-1.35397e-06
4.54345e-07
-1.94106e-07
5.10391e-07
5.82568e-07
4.42585e-07
9.5171e-07
3.27002e-07
1.0591e-06
2.08567e-07
9.97166e-07
1.11676e-07
8.27558e-07
4.57857e-08
5.99285e-07
1.0378e-08
3.52704e-07
1.1708e-07
-3.61767e-08
1.15319e-07
-1.44427e-07
3.5494e-07
-3.26194e-07
6.10331e-07
-5.74711e-07
8.51752e-07
-8.76961e-07
1.0517e-06
-1.21841e-06
1.19809e-06
-1.5875e-06
1.30009e-06
-1.97715e-06
1.38129e-06
-2.38324e-06
1.46511e-06
-2.8018e-06
1.56186e-06
-3.22668e-06
1.66298e-06
-3.64731e-06
1.73958e-06
-4.04561e-06
1.73967e-06
-4.39171e-06
1.57886e-06
-4.6376e-06
1.12097e-06
-4.70537e-06
1.40498e-07
-4.50415e-06
-1.50852e-06
-4.06849e-06
-3.0548e-06
-3.48635e-06
-4.06521e-06
-2.82944e-06
-4.41773e-06
-2.13919e-06
-4.09841e-06
-1.44776e-06
-3.21973e-06
-8.07442e-07
-1.99428e-06
-2.95459e-07
-7.06089e-07
-3.2543e-08
3.19652e-07
4.36399e-08
8.75527e-07
4.30356e-08
1.05971e-06
2.11218e-08
1.01908e-06
3.21894e-09
8.45461e-07
-3.73396e-09
6.06238e-07
-2.60838e-09
3.51578e-07
1.14471e-07
-4.32105e-08
1.58529e-07
-1.72881e-07
4.84611e-07
-3.91389e-07
8.28839e-07
-6.91407e-07
1.15177e-06
-1.05781e-06
1.4181e-06
-1.47295e-06
1.61323e-06
-1.92208e-06
1.74921e-06
-2.39544e-06
1.85465e-06
-2.88699e-06
1.95666e-06
-3.39159e-06
2.06646e-06
-3.90241e-06
2.1738e-06
-4.4087e-06
2.24587e-06
-4.89266e-06
2.22364e-06
-5.32481e-06
2.01101e-06
-5.65691e-06
1.45307e-06
-5.8108e-06
2.94393e-07
-5.68957e-06
-1.62974e-06
-5.3272e-06
-3.41717e-06
-4.80638e-06
-4.58603e-06
-4.18463e-06
-5.03948e-06
-3.49118e-06
-4.79185e-06
-2.7497e-06
-3.9612e-06
-1.99607e-06
-2.74791e-06
-1.29388e-06
-1.40829e-06
-7.62245e-07
-2.11978e-07
-4.52898e-07
5.6618e-07
-2.78979e-07
8.85786e-07
-1.72537e-07
9.12638e-07
-9.90802e-08
7.72004e-07
-4.6379e-08
5.53537e-07
-1.27185e-08
3.17918e-07
1.01753e-07
-4.7957e-08
2.06486e-07
-1.93292e-07
6.29946e-07
-4.40884e-07
1.07643e-06
-7.84943e-07
1.49583e-06
-1.20999e-06
1.84314e-06
-1.69605e-06
2.0993e-06
-2.22514e-06
2.2783e-06
-2.78475e-06
2.41426e-06
-3.36721e-06
2.53913e-06
-3.9668e-06
2.66605e-06
-4.57659e-06
2.78359e-06
-5.18561e-06
2.85489e-06
-5.7754e-06
2.81343e-06
-6.31492e-06
2.55053e-06
-6.75361e-06
1.89175e-06
-7.01334e-06
5.54132e-07
-6.99327e-06
-1.64982e-06
-6.73042e-06
-3.68003e-06
-6.29878e-06
-5.01767e-06
-5.73459e-06
-5.60367e-06
-5.04736e-06
-5.47908e-06
-4.2462e-06
-4.76236e-06
-3.35944e-06
-3.63467e-06
-2.44663e-06
-2.3211e-06
-1.59595e-06
-1.06265e-06
-9.63746e-07
-6.6025e-08
-5.65492e-07
4.87532e-07
-3.18603e-07
6.6575e-07
-1.62625e-07
6.16026e-07
-6.70363e-08
4.57948e-07
-1.59662e-08
2.66848e-07
8.57865e-08
-4.91297e-08
2.55616e-07
-2.00718e-07
7.81534e-07
-4.64082e-07
1.3398e-06
-8.37927e-07
1.86967e-06
-1.3092e-06
2.31441e-06
-1.85713e-06
2.64723e-06
-2.46064e-06
2.88181e-06
-3.104e-06
3.05762e-06
-3.77767e-06
3.2128e-06
-4.47523e-06
3.3636e-06
-5.18932e-06
3.49768e-06
-5.908e-06
3.57356e-06
-6.61074e-06
3.51617e-06
-7.26369e-06
3.20348e-06
-7.81425e-06
2.44231e-06
-8.1884e-06
9.28281e-07
-8.28543e-06
-1.55279e-06
-8.1462e-06
-3.81925e-06
-7.83107e-06
-5.33281e-06
-7.34843e-06
-6.08631e-06
-6.68268e-06
-6.14483e-06
-5.8267e-06
-5.61834e-06
-4.80406e-06
-4.65731e-06
-3.68086e-06
-3.4443e-06
-2.56483e-06
-2.17868e-06
-1.57712e-06
-1.05374e-06
-8.7051e-07
-2.19078e-07
-4.36039e-07
2.31278e-07
-1.93505e-07
3.73492e-07
-6.75931e-08
3.32036e-07
-1.28352e-08
2.1209e-07
7.29513e-08
-4.54684e-08
3.01084e-07
-1.90001e-07
9.26067e-07
-4.49222e-07
1.59902e-06
-8.29885e-07
2.25034e-06
-1.32527e-06
2.8098e-06
-1.91624e-06
3.23819e-06
-2.57877e-06
3.54435e-06
-3.29268e-06
3.77154e-06
-4.04507e-06
3.96519e-06
-4.82786e-06
4.14639e-06
-5.63276e-06
4.30259e-06
-6.44642e-06
4.38722e-06
-7.24628e-06
4.31603e-06
-7.99688e-06
3.95408e-06
-8.64711e-06
3.09254e-06
-9.13271e-06
1.41388e-06
-9.35697e-06
-1.32853e-06
-9.36382e-06
-3.8124e-06
-9.19685e-06
-5.49978e-06
-8.83309e-06
-6.45007e-06
-8.22923e-06
-6.74869e-06
-7.36163e-06
-6.48594e-06
-6.25059e-06
-5.76835e-06
-4.96976e-06
-4.72513e-06
-3.63977e-06
-3.50867e-06
-2.40523e-06
-2.28828e-06
-1.39313e-06
-1.23117e-06
-6.99372e-07
-4.62482e-07
-2.95798e-07
-3.00813e-08
-9.57274e-08
1.31965e-07
-1.61769e-08
1.32539e-07
5.67744e-08
-3.55934e-08
3.36678e-07
-1.55166e-07
1.04564e-06
-3.81858e-07
1.82571e-06
-7.3414e-07
2.60262e-06
-1.21683e-06
3.29249e-06
-1.81643e-06
3.8378e-06
-2.5067e-06
4.23462e-06
-3.26068e-06
4.52551e-06
-4.05909e-06
4.7636e-06
-4.89036e-06
4.97766e-06
-5.74505e-06
5.15727e-06
-6.6096e-06
5.25177e-06
-7.4619e-06
5.16834e-06
-8.26901e-06
4.76119e-06
-8.98699e-06
3.81052e-06
-9.56668e-06
1.99357e-06
-9.91853e-06
-9.76674e-07
-1.00918e-05
-3.63916e-06
-1.01158e-05
-5.47578e-06
-9.93539e-06
-6.63045e-06
-9.47711e-06
-7.20697e-06
-8.69576e-06
-7.26729e-06
-7.5994e-06
-6.86471e-06
-6.25699e-06
-6.06754e-06
-4.79051e-06
-4.97515e-06
-3.35499e-06
-3.72381e-06
-2.10518e-06
-2.48098e-06
-1.14963e-06
-1.41803e-06
-5.24832e-07
-6.54877e-07
-1.83405e-07
-2.09462e-07
-3.4519e-08
-1.63466e-08
2.22554e-08
-1.83394e-08
3.55017e-07
-9.04462e-08
1.11775e-06
-2.46555e-07
1.98182e-06
-5.19428e-07
2.87549e-06
-9.31449e-07
3.70451e-06
-1.48183e-06
4.38818e-06
-2.14537e-06
4.89816e-06
-2.886e-06
5.26615e-06
-3.67315e-06
5.55074e-06
-4.48809e-06
5.79261e-06
-5.31989e-06
5.98907e-06
-6.15762e-06
6.0895e-06
-6.98489e-06
5.9956e-06
-7.77807e-06
5.55437e-06
-8.50813e-06
4.54058e-06
-9.14596e-06
2.6314e-06
-9.60907e-06
-5.13558e-07
-9.96331e-06
-3.28492e-06
-1.02332e-05
-5.20589e-06
-1.03332e-05
-6.53044e-06
-1.01535e-05
-7.38663e-06
-9.61463e-06
-7.8062e-06
-8.69395e-06
-7.78539e-06
-7.43655e-06
-7.32493e-06
-5.94887e-06
-6.46283e-06
-4.3839e-06
-5.28878e-06
-2.91657e-06
-3.94831e-06
-1.70498e-06
-2.62962e-06
-8.40008e-07
-1.51985e-06
-3.16463e-07
-7.33007e-07
-6.54058e-08
-2.67404e-07
-4.31503e-08
5.26414e-09
3.49753e-07
1.31659e-09
1.12169e-06
-4.39176e-08
2.02705e-06
-1.73368e-07
3.00494e-06
-4.30236e-07
3.96138e-06
-8.38515e-07
4.79645e-06
-1.38565e-06
5.44529e-06
-2.02771e-06
5.90821e-06
-2.71813e-06
6.24116e-06
-3.42413e-06
6.49861e-06
-4.12889e-06
6.69383e-06
-4.82535e-06
6.78597e-06
-5.50928e-06
6.67953e-06
-6.17651e-06
6.2216e-06
-6.82723e-06
5.1913e-06
-7.46853e-06
3.2727e-06
-8.02836e-06
4.62734e-08
-8.55888e-06
-2.75441e-06
-9.1308e-06
-4.63398e-06
-9.63433e-06
-6.02691e-06
-9.91478e-06
-7.10618e-06
-9.83698e-06
-7.88401e-06
-9.31796e-06
-8.3044e-06
-8.35289e-06
-8.29001e-06
-7.01419e-06
-7.80153e-06
-5.44191e-06
-6.86106e-06
-3.82419e-06
-5.56604e-06
-2.36463e-06
-4.08917e-06
-1.22917e-06
-2.65531e-06
-4.88002e-07
-1.47418e-06
-1.06988e-07
-6.48418e-07
-1.50139e-07
2.74463e-08
3.22307e-07
9.21395e-08
1.057e-06
1.68763e-07
1.95043e-06
2.16463e-07
2.95724e-06
1.84891e-07
3.99295e-06
3.05851e-08
4.95076e-06
-2.59666e-07
5.73554e-06
-6.59229e-07
6.30777e-06
-1.11524e-06
6.69717e-06
-1.57514e-06
6.95852e-06
-2.00345e-06
7.12214e-06
-2.39142e-06
7.17393e-06
-2.74462e-06
7.03274e-06
-3.07264e-06
6.54961e-06
-3.38757e-06
5.50623e-06
-3.73614e-06
3.62127e-06
-4.19273e-06
5.02868e-07
-4.79715e-06
-2.14999e-06
-5.56458e-06
-3.86656e-06
-6.42779e-06
-5.1637e-06
-7.22792e-06
-6.30604e-06
-7.79196e-06
-7.31997e-06
-7.95246e-06
-8.14391e-06
-7.62283e-06
-8.61964e-06
-6.80593e-06
-8.61842e-06
-5.59427e-06
-8.07272e-06
-4.15557e-06
-7.00475e-06
-2.70804e-06
-5.5367e-06
-1.47417e-06
-3.88918e-06
-6.07404e-07
-2.34094e-06
-1.37622e-07
-1.1182e-06
-2.87761e-07
3.84373e-08
2.83869e-07
1.42047e-07
9.53392e-07
2.94019e-07
1.79845e-06
4.61852e-07
2.78941e-06
6.01246e-07
3.85356e-06
6.67307e-07
4.8847e-06
6.29687e-07
5.77316e-06
4.90325e-07
6.44713e-06
2.88744e-07
6.89875e-06
8.15706e-08
7.16569e-06
-8.28418e-08
7.28655e-06
-1.82765e-07
7.27385e-06
-2.2283e-07
7.0728e-06
-2.23668e-07
6.55045e-06
-2.17899e-07
5.50046e-06
-2.17483e-07
3.62086e-06
-4.45238e-07
7.30623e-07
-9.55802e-07
-1.63942e-06
-1.6449e-06
-3.17746e-06
-2.52315e-06
-4.28545e-06
-3.50963e-06
-5.31957e-06
-4.48334e-06
-6.34625e-06
-5.21419e-06
-7.41306e-06
-5.54337e-06
-8.29047e-06
-5.38834e-06
-8.77345e-06
-4.76461e-06
-8.69645e-06
-3.77834e-06
-7.99102e-06
-2.61199e-06
-6.70305e-06
-1.4951e-06
-5.00607e-06
-6.39214e-07
-3.19683e-06
-1.48707e-07
-1.60871e-06
-4.36468e-07
4.12769e-08
2.42592e-07
1.59873e-07
8.34796e-07
3.47843e-07
1.61048e-06
5.81297e-07
2.55595e-06
8.22352e-07
3.6125e-06
1.02792e-06
4.67913e-06
1.16353e-06
5.63756e-06
1.21886e-06
6.3918e-06
1.21723e-06
6.90038e-06
1.20653e-06
7.17639e-06
1.23558e-06
7.2575e-06
1.33683e-06
7.1726e-06
1.51262e-06
6.89701e-06
1.7335e-06
6.32957e-06
1.94427e-06
5.28969e-06
2.05264e-06
3.51248e-06
1.86307e-06
9.20201e-07
1.41082e-06
-1.18717e-06
8.1689e-07
-2.58353e-06
8.04828e-08
-3.54904e-06
-8.33471e-07
-4.40561e-06
-1.89093e-06
-5.2888e-06
-2.8994e-06
-6.40458e-06
-3.65855e-06
-7.53132e-06
-4.00944e-06
-8.42255e-06
-3.89055e-06
-8.81534e-06
-3.33591e-06
-8.54566e-06
-2.4712e-06
-7.56776e-06
-1.5024e-06
-5.97487e-06
-6.72699e-07
-4.02654e-06
-1.61517e-07
-2.11989e-06
-5.97985e-07
3.8416e-08
2.04176e-07
1.53987e-07
7.19225e-07
3.46711e-07
1.41776e-06
6.02149e-07
2.30052e-06
8.91145e-07
3.32351e-06
1.17651e-06
4.39377e-06
1.42508e-06
5.38899e-06
1.62146e-06
6.19542e-06
1.77716e-06
6.74468e-06
1.92702e-06
7.02653e-06
2.11252e-06
7.072e-06
2.36413e-06
6.92099e-06
2.68403e-06
6.57711e-06
3.03767e-06
5.97593e-06
3.35153e-06
4.97583e-06
3.4939e-06
3.37011e-06
3.30023e-06
1.11388e-06
2.85026e-06
-7.37205e-07
2.26611e-06
-1.99938e-06
1.61854e-06
-2.90148e-06
8.562e-07
-3.64327e-06
-5.43556e-08
-4.37824e-06
-1.09823e-06
-5.36071e-06
-2.07026e-06
-6.55928e-06
-2.76135e-06
-7.73147e-06
-3.04024e-06
-8.53645e-06
-2.86768e-06
-8.71822e-06
-2.30146e-06
-8.13397e-06
-1.50109e-06
-6.77524e-06
-7.11417e-07
-4.81621e-06
-1.77237e-07
-2.65407e-06
-7.75222e-07
3.20044e-08
1.72172e-07
1.32216e-07
6.19013e-07
3.06693e-07
1.24328e-06
5.50315e-07
2.05689e-06
8.44587e-07
3.02923e-06
1.16198e-06
4.07638e-06
1.47577e-06
5.0752e-06
1.77104e-06
5.90015e-06
2.05173e-06
6.46399e-06
2.33886e-06
6.7394e-06
2.65943e-06
6.75143e-06
3.03263e-06
6.54779e-06
3.45467e-06
6.15508e-06
3.88759e-06
5.543e-06
4.25191e-06
4.61151e-06
4.41135e-06
3.21067e-06
4.23364e-06
1.29158e-06
3.79924e-06
-3.02799e-07
3.21803e-06
-1.41818e-06
2.55977e-06
-2.24321e-06
1.85804e-06
-2.94155e-06
1.1214e-06
-3.6416e-06
2.36546e-07
-4.47585e-06
-7.50273e-07
-5.57246e-06
-1.63662e-06
-6.84513e-06
-2.21399e-06
-7.95908e-06
-2.37307e-06
-8.55914e-06
-2.09865e-06
-8.4084e-06
-1.48733e-06
-7.38656e-06
-7.57156e-07
-5.54638e-06
-1.9829e-07
-3.21293e-06
-9.73512e-07
2.32984e-08
1.48874e-07
9.94848e-08
5.42826e-07
2.38712e-07
1.10406e-06
4.44842e-07
1.85076e-06
7.11907e-07
2.76217e-06
1.02547e-06
3.76282e-06
1.36921e-06
4.73146e-06
1.73239e-06
5.53696e-06
2.11364e-06
6.08274e-06
2.51936e-06
6.33367e-06
2.95787e-06
6.31293e-06
3.43194e-06
6.07371e-06
3.92864e-06
5.65837e-06
4.40834e-06
5.06331e-06
4.79501e-06
4.22484e-06
4.96684e-06
3.03885e-06
4.82391e-06
1.43451e-06
4.43467e-06
8.6439e-08
3.89012e-06
-8.73625e-07
3.25481e-06
-1.6079e-06
2.57584e-06
-2.26258e-06
1.88123e-06
-2.94698e-06
1.15675e-06
-3.75137e-06
3.19752e-07
-4.73547e-06
-5.97285e-07
-5.92809e-06
-1.38127e-06
-7.1751e-06
-1.82619e-06
-8.11422e-06
-1.83943e-06
-8.39515e-06
-1.44282e-06
-7.78317e-06
-8.02775e-07
-6.18642e-06
-2.25604e-07
-3.79011e-06
-1.19912e-06
1.23391e-08
1.36535e-07
5.66056e-08
4.9856e-07
1.46188e-07
1.01447e-06
2.95327e-07
1.70162e-06
5.13498e-07
2.544e-06
8.01272e-07
3.47504e-06
1.15415e-06
4.37858e-06
1.56609e-06
5.12503e-06
2.03003e-06
5.6188e-06
2.53654e-06
5.82717e-06
3.074e-06
5.77546e-06
3.62837e-06
5.51934e-06
4.17784e-06
5.10891e-06
4.68328e-06
4.55786e-06
5.07795e-06
3.83017e-06
5.26256e-06
2.85424e-06
5.16966e-06
1.52741e-06
4.85108e-06
4.05016e-07
4.37383e-06
-3.9637e-07
3.80474e-06
-1.03881e-06
3.18291e-06
-1.64074e-06
2.53559e-06
-2.29967e-06
1.86961e-06
-3.08539e-06
1.16333e-06
-4.0292e-06
3.53138e-07
-5.11789e-06
-5.10146e-07
-6.31181e-06
-1.19537e-06
-7.42899e-06
-1.49442e-06
-8.0961e-06
-1.34319e-06
-7.93441e-06
-8.3554e-07
-6.69407e-06
-2.59671e-07
-4.36597e-06
-1.45879e-06
-2.64238e-09
1.39177e-07
-2.21469e-09
4.98132e-07
2.20138e-08
9.90245e-07
1.00827e-07
1.62281e-06
2.62598e-07
2.38223e-06
5.19665e-07
3.21798e-06
8.75873e-07
4.02237e-06
1.32791e-06
4.67299e-06
1.8612e-06
5.08551e-06
2.4495e-06
5.23887e-06
3.06333e-06
5.16163e-06
3.67541e-06
4.90726e-06
4.25831e-06
4.52602e-06
4.77619e-06
4.03998e-06
5.17485e-06
3.43151e-06
5.37894e-06
2.65015e-06
5.33963e-06
1.56672e-06
5.10659e-06
6.38056e-07
4.73514e-06
-2.49271e-08
4.27508e-06
-5.78755e-07
3.75204e-06
-1.1177e-06
3.18457e-06
-1.7322e-06
2.5776e-06
-2.47842e-06
1.92221e-06
-3.37381e-06
1.19896e-06
-4.39464e-06
3.75576e-07
-5.48843e-06
-4.57466e-07
-6.59595e-06
-1.03783e-06
-7.51574e-06
-1.16481e-06
-7.80743e-06
-8.40565e-07
-7.01831e-06
-3.00548e-07
-4.90599e-06
-1.75934e-06
-2.45815e-08
1.63758e-07
-8.25556e-08
5.56106e-07
-1.37599e-07
1.04529e-06
-1.35811e-07
1.62102e-06
-2.77495e-08
2.27417e-06
2.09749e-07
2.98048e-06
5.76493e-07
3.65562e-06
1.0672e-06
4.18228e-06
1.65851e-06
4.49421e-06
2.30815e-06
4.58922e-06
2.97419e-06
4.49558e-06
3.62234e-06
4.25912e-06
4.22429e-06
3.92406e-06
4.75052e-06
3.51376e-06
5.16097e-06
3.02106e-06
5.40314e-06
2.40797e-06
5.43979e-06
1.53007e-06
5.31915e-06
7.587e-07
5.07527e-06
2.18948e-07
4.74012e-06
-2.43607e-07
4.33838e-06
-7.15959e-07
3.87413e-06
-1.26795e-06
3.34115e-06
-1.94543e-06
2.72814e-06
-2.7608e-06
2.02586e-06
-3.69235e-06
1.23352e-06
-4.6961e-06
3.59822e-07
-5.72225e-06
-4.48783e-07
-6.70713e-06
-8.8584e-07
-7.37037e-06
-8.01115e-07
-7.10303e-06
-3.45417e-07
-5.36169e-06
-2.10475e-06
-6.09086e-08
2.24667e-07
-1.96522e-07
6.9172e-07
-3.35936e-07
1.1847e-06
-4.01199e-07
1.68629e-06
-3.3278e-07
2.20575e-06
-9.71182e-08
2.74482e-06
2.95556e-07
3.26295e-06
8.28931e-07
3.6489e-06
1.46808e-06
3.85506e-06
2.15981e-06
3.89749e-06
2.85794e-06
3.79746e-06
3.528e-06
3.58906e-06
4.14531e-06
3.30674e-06
4.68844e-06
2.97063e-06
5.13084e-06
2.57867e-06
5.43775e-06
2.10106e-06
5.57184e-06
1.39599e-06
5.56578e-06
7.64757e-07
5.45192e-06
3.32808e-07
5.25188e-06
-4.35653e-08
4.97836e-06
-4.42439e-07
4.62359e-06
-9.13177e-07
4.1712e-06
-1.49305e-06
3.60375e-06
-2.19335e-06
2.91202e-06
-3.00062e-06
2.10237e-06
-3.88644e-06
1.20059e-06
-4.82047e-06
2.63017e-07
-5.76957e-06
-4.81643e-07
-6.62571e-06
-6.94754e-07
-6.88992e-06
-3.84487e-07
-5.67196e-06
-2.48924e-06
-1.21732e-07
3.46399e-07
-3.52926e-07
9.22914e-07
-5.65322e-07
1.3971e-06
-6.64847e-07
1.78581e-06
-5.99044e-07
2.13994e-06
-3.46261e-07
2.49203e-06
8.69298e-08
2.82976e-06
6.70317e-07
3.06552e-06
1.34917e-06
3.17621e-06
2.07035e-06
3.17631e-06
2.79159e-06
3.07622e-06
3.48306e-06
2.8976e-06
4.1255e-06
2.6643e-06
4.70436e-06
2.39177e-06
5.20236e-06
2.08066e-06
5.59418e-06
1.70924e-06
5.83255e-06
1.15761e-06
5.9346e-06
6.6271e-07
5.93807e-06
3.29341e-07
5.85601e-06
3.84942e-08
5.69024e-06
-2.76673e-07
5.42898e-06
-6.51914e-07
5.04946e-06
-1.11353e-06
4.52854e-06
-1.67244e-06
3.85237e-06
-2.32444e-06
3.02446e-06
-3.05854e-06
2.07067e-06
-3.86667e-06
1.04738e-06
-4.74628e-06
8.07537e-08
-5.65908e-06
-4.88397e-07
-6.32077e-06
-3.97837e-07
-5.76252e-06
-2.88708e-06
-2.14581e-07
5.6098e-07
-5.40051e-07
1.24838e-06
-7.81428e-07
1.63848e-06
-8.56464e-07
1.86085e-06
-7.41851e-07
2.02533e-06
-4.356e-07
2.18578e-06
5.84166e-08
2.33574e-06
6.96242e-07
2.42769e-06
1.41066e-06
2.46179e-06
2.15909e-06
2.42788e-06
2.90658e-06
2.32873e-06
3.62831e-06
2.17587e-06
4.30831e-06
1.9843e-06
4.93457e-06
1.76551e-06
5.49302e-06
1.52221e-06
5.96069e-06
1.24157e-06
6.27955e-06
8.38747e-07
6.45844e-06
4.83819e-07
6.54024e-06
2.4754e-07
6.53757e-06
4.11717e-08
6.44631e-06
-1.85413e-07
6.25152e-06
-4.57129e-07
5.9295e-06
-7.915e-07
5.45475e-06
-1.1977e-06
4.80793e-06
-1.67762e-06
3.9834e-06
-2.23402e-06
2.99609e-06
-2.87936e-06
1.88957e-06
-3.63977e-06
7.62828e-07
-4.53234e-06
-1.33333e-07
-5.42461e-06
-3.54991e-07
-5.54086e-06
-3.24207e-06
-3.3086e-07
8.9184e-07
-7.03081e-07
1.6206e-06
-8.71004e-07
1.8064e-06
-8.21988e-07
1.81183e-06
-5.83334e-07
1.78668e-06
-1.65507e-07
1.76796e-06
4.13623e-07
1.75661e-06
1.09974e-06
1.74157e-06
1.84663e-06
1.71491e-06
2.62014e-06
1.65437e-06
3.39067e-06
1.5582e-06
4.1356e-06
1.43094e-06
4.83862e-06
1.28128e-06
5.48662e-06
1.11751e-06
6.06574e-06
9.43101e-07
6.55462e-06
7.52687e-07
6.89507e-06
4.9829e-07
7.09726e-06
2.81636e-07
7.2063e-06
1.38498e-07
7.23584e-06
1.16345e-08
7.18014e-06
-1.29717e-07
7.02364e-06
-3.00628e-07
6.74491e-06
-5.12772e-07
6.31929e-06
-7.72076e-07
5.72393e-06
-1.08226e-06
4.94257e-06
-1.45265e-06
3.97109e-06
-1.90789e-06
2.82773e-06
-2.4964e-06
1.57841e-06
-3.28303e-06
4.08059e-07
-4.25426e-06
-2.15458e-07
-4.91734e-06
-3.45752e-06
-4.45087e-07
1.33693e-06
-6.88954e-07
1.86447e-06
-5.77489e-07
1.69493e-06
-2.51016e-07
1.48536e-06
2.13856e-07
1.32181e-06
7.87623e-07
1.19419e-06
1.44448e-06
1.09975e-06
2.16074e-06
1.02532e-06
2.91282e-06
9.62824e-07
3.67286e-06
8.94324e-07
4.41591e-06
8.15155e-07
5.12117e-06
7.25677e-07
5.77271e-06
6.29743e-07
6.35837e-06
5.31845e-07
6.86747e-06
4.33998e-07
7.28567e-06
3.34486e-07
7.57033e-06
2.13628e-07
7.73714e-06
1.14828e-07
7.82684e-06
4.88019e-08
7.84968e-06
-1.12085e-08
7.79994e-06
-7.9977e-08
7.66501e-06
-1.657e-07
7.42636e-06
-2.74118e-07
7.06221e-06
-4.07926e-07
6.54987e-06
-5.69917e-07
5.86626e-06
-7.69043e-07
4.988e-06
-1.02962e-06
3.89503e-06
-1.40344e-06
2.59141e-06
-1.9794e-06
1.18991e-06
-2.85276e-06
1.16636e-07
-3.84406e-06
-3.34089e-06
-3.74248e-07
1.71117e-06
1.87707e-08
1.47145e-06
7.21175e-07
9.9253e-07
1.42097e-06
7.85559e-07
2.10666e-06
6.36122e-07
2.78656e-06
5.14283e-07
3.46073e-06
4.25589e-07
4.1249e-06
3.6115e-07
4.77457e-06
3.13155e-07
5.39686e-06
2.72031e-07
5.97808e-06
2.33928e-07
6.50626e-06
1.97506e-07
6.97296e-06
1.63039e-07
7.37357e-06
1.31234e-07
7.70558e-06
1.01991e-07
7.9655e-06
7.45602e-08
8.13433e-06
4.48054e-08
8.22781e-06
2.13489e-08
8.27183e-06
4.77676e-09
8.27176e-06
-1.11419e-08
8.22245e-06
-3.06615e-08
8.11344e-06
-5.66917e-08
7.92999e-06
-9.06639e-08
7.65527e-06
-1.33212e-07
7.27082e-06
-1.85463e-07
6.75377e-06
-2.51991e-07
6.07057e-06
-3.46431e-07
5.16849e-06
-5.01349e-07
3.9717e-06
-7.82615e-07
2.42094e-06
-1.302e-06
7.47279e-07
-2.1704e-06
-2.59361e-06
1.71117e-06
3.18263e-06
4.17516e-06
4.96072e-06
5.59684e-06
6.11112e-06
6.53671e-06
6.89786e-06
7.21102e-06
7.48305e-06
7.71697e-06
7.91448e-06
8.07752e-06
8.20875e-06
8.31074e-06
8.3853e-06
8.43011e-06
8.45146e-06
8.45623e-06
8.44509e-06
8.41443e-06
8.35774e-06
8.26708e-06
8.13386e-06
7.9484e-06
7.69641e-06
7.34998e-06
6.84863e-06
6.06601e-06
4.76401e-06
2.59361e-06
)
;

boundaryField
{
    movingWall
    {
        type            calculated;
        value           uniform 0;
    }
    fixedWalls
    {
        type            calculated;
        value           uniform 0;
    }
    floor
    {
        type            calculated;
        value           uniform 0;
    }
    frontAndBack
    {
        type            empty;
        value           nonuniform List<scalar> 0();
    }
}


// ************************************************************************* //
