/*--------------------------------*- C++ -*----------------------------------*\
| =========                 |                                                 |
| \\      /  F ield         | OpenFOAM: The Open Source CFD Toolbox           |
|  \\    /   O peration     | Version:  2212                                  |
|   \\  /    A nd           | Website:  www.openfoam.com                      |
|    \\/     M anipulation  |                                                 |
\*---------------------------------------------------------------------------*/
FoamFile
{
    version     2.0;
    format      ascii;
    arch        "LSB;label=64;scalar=64";
    class       volScalarField;
    location    "1870";
    object      Sch4;
}
// * * * * * * * * * * * * * * * * * * * * * * * * * * * * * * * * * * * * * //

dimensions      [1 -3 0 0 0 0 0];

internalField   nonuniform List<scalar> 
1024
(
0.038796
0.038807
0.038834
0.0388835
0.0389637
0.0390842
0.039255
0.0394849
0.0397789
0.0401357
0.040545
0.0409878
0.0414388
0.0418731
0.0422695
0.0426103
0.0428516
0.0429578
0.0429417
0.0428263
0.0426332
0.0423867
0.0421134
0.0418407
0.0415925
0.0413844
0.0412223
0.0411047
0.0410251
0.0409756
0.0409486
0.0409376
0.0387995
0.0388106
0.0388378
0.0388878
0.0389688
0.0390904
0.0392628
0.0394946
0.0397908
0.0401496
0.0405606
0.0410043
0.0414558
0.04189
0.0422863
0.0426272
0.0428692
0.0429763
0.0429611
0.0428461
0.0426527
0.0424052
0.0421306
0.041856
0.0416055
0.0413951
0.041231
0.0411118
0.0410313
0.0409813
0.040954
0.040943
0.0388081
0.0388193
0.0388471
0.0388981
0.0389808
0.039105
0.0392809
0.0395171
0.039818
0.0401813
0.0405959
0.0410419
0.0414942
0.0419283
0.0423247
0.0426666
0.0429111
0.0430216
0.0430088
0.042894
0.0426984
0.0424471
0.042168
0.0418886
0.0416333
0.0414182
0.0412502
0.0411282
0.0410458
0.0409948
0.0409671
0.0409559
0.0388234
0.0388351
0.0388637
0.0389164
0.0390019
0.0391305
0.0393122
0.0395555
0.0398642
0.0402349
0.0406553
0.0411047
0.0415583
0.0419927
0.0423898
0.0427349
0.0429859
0.0431041
0.0430963
0.0429812
0.0427792
0.0425185
0.0422294
0.0419409
0.0416774
0.0414553
0.0412819
0.041156
0.0410713
0.0410191
0.040991
0.0409797
0.0388477
0.0388598
0.0388897
0.0389448
0.0390345
0.0391693
0.0393594
0.039613
0.0399329
0.040314
0.0407423
0.0411965
0.0416521
0.0420874
0.0424874
0.0428397
0.0431037
0.0432366
0.0432376
0.0431209
0.0429067
0.0426278
0.0423204
0.0420162
0.0417402
0.0415086
0.0413285
0.0411984
0.0411114
0.0410583
0.04103
0.0410188
0.0388829
0.0388956
0.0389272
0.0389855
0.0390807
0.0392236
0.0394249
0.0396921
0.0400264
0.0404209
0.0408595
0.0413198
0.0417784
0.0422167
0.0426231
0.0429892
0.0432758
0.0434325
0.0434474
0.0433281
0.0430947
0.0427869
0.0424499
0.0421209
0.0418266
0.0415827
0.0413948
0.0412605
0.0411718
0.0411186
0.0410907
0.0410799
0.0389309
0.0389443
0.0389778
0.0390401
0.039142
0.039295
0.0395101
0.0397937
0.0401457
0.0405564
0.0410073
0.0414754
0.041939
0.0423834
0.0428019
0.043191
0.043512
0.043704
0.0437394
0.0436181
0.0433603
0.0430132
0.0426337
0.0422685
0.0419481
0.0416876
0.0414908
0.0413527
0.0412634
0.0412112
0.0411848
0.041175
0.0389927
0.0390069
0.0390425
0.0391093
0.0392189
0.0393836
0.0396144
0.0399171
0.0402892
0.0407183
0.0411836
0.0416618
0.0421335
0.0425888
0.0430268
0.0434492
0.0438175
0.0440569
0.0441221
0.0440048
0.0437238
0.0433324
0.0428997
0.0424857
0.0421292
0.0418463
0.0416381
0.0414961
0.0414072
0.0413573
0.0413335
0.0413253
0.0390685
0.0390834
0.0391212
0.0391927
0.0393104
0.0394877
0.0397355
0.0400586
0.0404525
0.0409018
0.0413837
0.0418746
0.0423583
0.04283
0.0432948
0.0437595
0.0441856
0.0444846
0.0445944
0.0444979
0.0442093
0.0437826
0.0432957
0.042824
0.0424197
0.0421053
0.0418802
0.0417319
0.0416429
0.0415958
0.0415751
0.0415689
0.039157
0.0391725
0.0392125
0.0392884
0.039414
0.0396036
0.0398683
0.0402121
0.0406282
0.0410988
0.041599
0.0421054
0.0426045
0.0430963
0.0435912
0.0441014
0.0445899
0.0449601
0.0451381
0.0450968
0.0448395
0.0444119
0.0438925
0.0433683
0.0429082
0.0425496
0.0422967
0.0421343
0.0420405
0.0419935
0.0419747
0.0419701
0.0392555
0.0392716
0.0393132
0.0393928
0.0395254
0.0397258
0.0400058
0.0403685
0.0408058
0.0412973
0.0418162
0.0423387
0.0428531
0.0433628
0.0438822
0.0444294
0.0449745
0.0454258
0.0457047
0.0457725
0.0456137
0.0452544
0.0447609
0.044221
0.0437175
0.0433067
0.0430097
0.0428172
0.042706
0.0426506
0.0426287
0.0426234
0.0393598
0.0393762
0.0394189
0.0395011
0.0396385
0.0398469
0.0401384
0.0405162
0.0409708
0.0414799
0.0420142
0.0425484
0.0430706
0.043585
0.0441087
0.0446668
0.0452476
0.0457827
0.0461968
0.046436
0.0464608
0.0462688
0.0459004
0.0454277
0.0449342
0.0444918
0.0441449
0.0439044
0.0437569
0.0436781
0.0436435
0.0436332
0.0394639
0.0394804
0.0395235
0.0396065
0.0397456
0.0399573
0.0402542
0.0406397
0.0411037
0.0416219
0.0421623
0.0426958
0.0432071
0.0436983
0.0441874
0.0447096
0.0452853
0.04589
0.0464565
0.046913
0.0471934
0.0472645
0.047134
0.0468448
0.0464633
0.0460623
0.0457033
0.0454241
0.0452336
0.0451205
0.0450642
0.0450443
0.0395592
0.0395756
0.0396181
0.0396998
0.0398366
0.0400449
0.040338
0.0407197
0.0411796
0.0416919
0.042221
0.0427319
0.0432024
0.0436289
0.0440291
0.0444509
0.0449601
0.0455951
0.0462999
0.0469817
0.0475464
0.0479315
0.0481139
0.0481063
0.0479487
0.0476986
0.0474186
0.0471621
0.0469623
0.046829
0.0467551
0.0467259
0.0396338
0.0396499
0.0396909
0.0397687
0.0398981
0.040095
0.0403721
0.040734
0.0411706
0.0416554
0.0421492
0.0426097
0.0430051
0.0433228
0.0435779
0.0438312
0.0442013
0.0448056
0.0456066
0.0464907
0.0473321
0.0480353
0.048548
0.0488579
0.0489829
0.0489627
0.0488492
0.0486965
0.0485496
0.0484363
0.048366
0.0483355
0.0396708
0.0396863
0.0397249
0.0397963
0.0399133
0.0400897
0.0403372
0.0406607
0.0410514
0.0414838
0.0419171
0.0423031
0.0425993
0.0427818
0.0428592
0.0428983
0.0430657
0.0435646
0.0443971
0.0454431
0.0465467
0.0475697
0.0484188
0.0490515
0.0494666
0.049692
0.0497724
0.0497594
0.0497021
0.0496383
0.0495906
0.0495671
0.0396502
0.0396651
0.0397008
0.0397651
0.0398675
0.0400189
0.040229
0.0405024
0.0408323
0.0411966
0.0415566
0.0418628
0.0420662
0.0421324
0.0420594
0.041907
0.0418616
0.0421894
0.0429533
0.0440681
0.0453766
0.0467033
0.0478987
0.0488704
0.0495847
0.0500543
0.0503208
0.0504393
0.0504663
0.0504501
0.0504246
0.0504085
0.0395754
0.0395898
0.0396234
0.0396818
0.0397719
0.0399016
0.040078
0.0403047
0.0405767
0.0408758
0.0411686
0.0414097
0.0415502
0.0415517
0.041404
0.041155
0.0409855
0.041169
0.0418046
0.0428656
0.0442404
0.0457604
0.047238
0.0485245
0.0495362
0.0502543
0.0507083
0.0509545
0.0510588
0.0510826
0.0510736
0.0510618
0.0394677
0.0394817
0.0395136
0.0395677
0.039649
0.0397625
0.0399131
0.0401027
0.0403274
0.0405725
0.0408104
0.0410027
0.0411059
0.0410839
0.0409241
0.0406665
0.0404786
0.0406082
0.0411543
0.0421253
0.0434602
0.045032
0.0466602
0.0481667
0.0494216
0.0503652
0.0510013
0.0513771
0.0515614
0.0516261
0.0516329
0.0516245
0.0393455
0.0393586
0.0393884
0.0394385
0.0395125
0.0396138
0.0397449
0.0399062
0.0400936
0.0402951
0.0404887
0.0406437
0.0407253
0.0407048
0.0405741
0.0403722
0.0402488
0.0404065
0.0409254
0.0418266
0.0430829
0.0446108
0.0462693
0.0478868
0.0493069
0.0504314
0.051231
0.0517332
0.0520006
0.0521101
0.0521345
0.0521299
0.0392372
0.0392481
0.0392731
0.039316
0.0393804
0.0394689
0.0395828
0.0397211
0.0398787
0.0400455
0.0402043
0.0403328
0.0404073
0.0404105
0.0403439
0.0402504
0.0402549
0.0404999
0.0410382
0.0418958
0.0430685
0.0445054
0.0461065
0.0477328
0.049232
0.0504808
0.0514151
0.0520342
0.0523855
0.0525434
0.0525881
0.0525879
0.0391899
0.0391955
0.03921
0.0392377
0.0392837
0.0393521
0.0394446
0.0395596
0.0396916
0.0398318
0.0399683
0.0400878
0.0401789
0.0402372
0.0402746
0.0403358
0.0405109
0.0408754
0.0414549
0.0422784
0.0433612
0.0446828
0.0461753
0.0477324
0.0492277
0.0505365
0.051568
0.0522885
0.0527215
0.0529308
0.0529985
0.0530037
0.0392686
0.0392647
0.0392598
0.0392598
0.039273
0.0393073
0.0393678
0.0394549
0.0395646
0.0396905
0.0398264
0.0399681
0.0401145
0.0402703
0.0404516
0.0406983
0.041058
0.0415434
0.0421611
0.0429453
0.043926
0.0451089
0.0464574
0.0478944
0.049319
0.0506229
0.0517063
0.0525056
0.0530137
0.0532758
0.0533696
0.0533812
0.0395446
0.0395261
0.0394923
0.0394518
0.0394176
0.0394044
0.039424
0.0394823
0.0395798
0.0397143
0.0398845
0.040091
0.0403368
0.0406273
0.0409742
0.0414059
0.041929
0.0425083
0.043142
0.0438715
0.0447369
0.0457626
0.0469391
0.0482184
0.0495243
0.0507666
0.0518514
0.0526982
0.0532688
0.0535822
0.0537044
0.0537239
0.0400792
0.0400417
0.0399727
0.0398864
0.0398027
0.0397435
0.0397288
0.0397729
0.0398824
0.0400584
0.0403005
0.0406077
0.0409788
0.0414123
0.0419104
0.0424886
0.0431225
0.0437492
0.0443669
0.0450234
0.045764
0.0466235
0.0476115
0.0487058
0.0498556
0.0509905
0.0520277
0.0528832
0.0534955
0.0538542
0.0540056
0.0540344
0.0409131
0.040854
0.0407521
0.0406324
0.0405221
0.0404467
0.0404302
0.0404937
0.0406479
0.0408934
0.041226
0.0416387
0.0421219
0.0426657
0.0432633
0.0439204
0.0445958
0.0452175
0.0457869
0.0463551
0.0469679
0.0476627
0.0484597
0.0493554
0.0503222
0.0513121
0.0522578
0.0530798
0.053705
0.0540964
0.0542753
0.0543149
0.0420662
0.0419867
0.0418691
0.0417533
0.0416679
0.0416322
0.041664
0.0417848
0.0420045
0.0423212
0.0427269
0.0432091
0.0437525
0.044342
0.044966
0.045625
0.0462734
0.046843
0.0473389
0.0478098
0.0482983
0.0488388
0.0494549
0.0501539
0.0509259
0.0517435
0.0525598
0.0533072
0.0539105
0.054315
0.0545157
0.0545667
0.0435496
0.0434582
0.0433616
0.0433084
0.043312
0.0433714
0.0434903
0.0436837
0.0439586
0.0443141
0.0447427
0.0452314
0.0457644
0.046326
0.0469042
0.0474974
0.0480643
0.0485473
0.0489534
0.0493249
0.0496976
0.0501002
0.0505545
0.051072
0.0516532
0.0522867
0.0529457
0.0535814
0.0541266
0.0545181
0.0547292
0.0547906
0.0453838
0.045302
0.045281
0.0453473
0.0454777
0.0456475
0.045849
0.0460906
0.0463795
0.0467203
0.0471102
0.0475402
0.0479978
0.0484703
0.0489477
0.0494281
0.0498783
0.0502546
0.0505638
0.050839
0.0511075
0.0513912
0.0517072
0.0520669
0.0524749
0.0529291
0.0534183
0.0539141
0.0543664
0.054715
0.0549197
0.0549874
0.0476187
0.047588
0.0476913
0.0478825
0.0481074
0.0483382
0.048567
0.0488013
0.0490506
0.0493245
0.0496251
0.0499486
0.0502873
0.0506328
0.0509778
0.0513206
0.0516381
0.0519005
0.0521131
0.0522987
0.0524759
0.0526594
0.0528613
0.05309
0.0533502
0.0536437
0.0539676
0.0543099
0.0546411
0.054916
0.0550922
0.0551584
0.0503491
0.0504156
0.0506098
0.0508275
0.0510398
0.0512361
0.051414
0.0515807
0.0517454
0.0519172
0.0521004
0.0522945
0.0524959
0.0527
0.0529025
0.0531023
0.0532863
0.0534373
0.0535587
0.0536634
0.0537619
0.0538624
0.0539716
0.0540946
0.0542345
0.0543928
0.05457
0.0547623
0.0549575
0.0551313
0.0552536
0.0553059
0.05369
0.0537418
0.0538416
0.0539369
0.0540234
0.0541002
0.054167
0.0542268
0.0542836
0.0543412
0.0544016
0.0544651
0.0545307
0.054597
0.0546626
0.0547271
0.0547863
0.0548348
0.0548737
0.054907
0.0549381
0.0549695
0.0550035
0.0550415
0.0550846
0.0551334
0.0551881
0.055248
0.0553103
0.0553683
0.0554126
0.055434
)
;

boundaryField
{
    movingWall
    {
        type            fixedValue;
        value           uniform 0.0555;
    }
    fixedWalls
    {
        type            zeroGradient;
    }
    floor
    {
        type            zeroGradient;
    }
    frontAndBack
    {
        type            empty;
    }
}


// ************************************************************************* //
