/*--------------------------------*- C++ -*----------------------------------*\
| =========                 |                                                 |
| \\      /  F ield         | OpenFOAM: The Open Source CFD Toolbox           |
|  \\    /   O peration     | Version:  2212                                  |
|   \\  /    A nd           | Website:  www.openfoam.com                      |
|    \\/     M anipulation  |                                                 |
\*---------------------------------------------------------------------------*/
FoamFile
{
    version     2.0;
    format      ascii;
    arch        "LSB;label=64;scalar=64";
    class       volScalarField;
    location    "1210";
    object      Gco2;
}
// * * * * * * * * * * * * * * * * * * * * * * * * * * * * * * * * * * * * * //

dimensions      [1 -3 0 0 0 0 0];

internalField   nonuniform List<scalar> 
1024
(
0.0578589
0.0578329
0.0577693
0.0576545
0.0574746
0.0572194
0.0568867
0.0564866
0.0560417
0.0555849
0.0551548
0.0547891
0.0545129
0.0543434
0.0542964
0.0543934
0.0546618
0.0550787
0.0555904
0.0561792
0.0568341
0.0575379
0.0582578
0.0589488
0.059567
0.0600828
0.0604852
0.0607791
0.0609793
0.0611046
0.0611733
0.0612013
0.0578527
0.0578262
0.0577613
0.057644
0.0574604
0.0572004
0.0568623
0.0564568
0.056007
0.0555459
0.0551129
0.0547465
0.0544712
0.0543034
0.0542583
0.054357
0.0546267
0.0550445
0.0555562
0.056144
0.0567977
0.0575009
0.0582219
0.0589162
0.0595395
0.060061
0.0604688
0.0607671
0.0609705
0.0610976
0.0611673
0.0611957
0.0578377
0.0578103
0.0577432
0.0576215
0.057431
0.0571615
0.0568121
0.0563938
0.0559303
0.0554553
0.0550107
0.0546395
0.0543657
0.0542032
0.0541649
0.0542706
0.0545469
0.0549697
0.0554837
0.0560709
0.0567221
0.0574236
0.0581461
0.0588466
0.0594798
0.0600131
0.0604323
0.0607399
0.0609499
0.0610812
0.0611531
0.0611824
0.0578117
0.0577833
0.0577133
0.0575859
0.0573859
0.0571027
0.0567351
0.0562941
0.0558031
0.0552974
0.0548256
0.054441
0.0541682
0.0540166
0.053994
0.0541172
0.0544112
0.0548488
0.0553716
0.0559609
0.0566096
0.057308
0.0580315
0.0587395
0.0593866
0.0599372
0.0603735
0.0606954
0.0609157
0.0610535
0.0611289
0.0611595
0.0577722
0.0577429
0.0576699
0.0575362
0.0573249
0.0570239
0.0566302
0.0561531
0.0556151
0.0550548
0.0545334
0.0541213
0.053847
0.0537132
0.0537192
0.0538766
0.0542073
0.0546772
0.0552214
0.0558201
0.056469
0.0571638
0.0578867
0.058602
0.0592646
0.0598359
0.0602935
0.0606337
0.0608675
0.061014
0.061094
0.0611265
0.0577158
0.0576859
0.0576105
0.0574705
0.0572467
0.0569236
0.0564945
0.0559648
0.0553555
0.0547112
0.0541126
0.0536538
0.0533718
0.0532625
0.0533133
0.0535278
0.0539231
0.0544525
0.0550389
0.0556605
0.0563163
0.0570094
0.0577305
0.0584508
0.0591276
0.0597196
0.0601996
0.0605598
0.0608086
0.0609648
0.0610501
0.0610846
0.0576371
0.057607
0.0575298
0.0573841
0.0571469
0.0567975
0.0563227
0.0557218
0.0550141
0.0542541
0.0535488
0.0530211
0.0527217
0.0526421
0.0527548
0.0530545
0.0535513
0.0541776
0.0548361
0.0555011
0.056176
0.0568725
0.0575918
0.0583137
0.0589997
0.0596077
0.0601067
0.0604844
0.0607469
0.0609121
0.0610023
0.0610387
0.0575254
0.0574957
0.0574176
0.0572667
0.0570153
0.0566352
0.0561041
0.055413
0.0545802
0.0536751
0.0528366
0.0522185
0.0518914
0.0518443
0.0520356
0.0524513
0.0530944
0.0538655
0.0546346
0.0553698
0.0560807
0.0567893
0.0575082
0.0582275
0.0589146
0.059529
0.0600374
0.060425
0.0606957
0.0608665
0.06096
0.0609978
0.057362
0.0573329
0.0572543
0.0570984
0.0568314
0.056416
0.0558181
0.0550191
0.0540379
0.0529648
0.0519743
0.0512521
0.0508906
0.0508789
0.0511637
0.0517276
0.0525685
0.0535417
0.054468
0.0553056
0.0560726
0.0568038
0.0575244
0.0582355
0.058912
0.0595175
0.0600199
0.060404
0.0606731
0.0608436
0.0609373
0.0609755
0.0571135
0.0570852
0.0570057
0.0568436
0.056558
0.0561012
0.055426
0.0545037
0.0533569
0.0521028
0.0509549
0.0501289
0.0497356
0.0497642
0.0501554
0.0508987
0.0519936
0.0532357
0.0543754
0.0553537
0.0561999
0.0569644
0.0576872
0.0583812
0.0590309
0.0596069
0.0600824
0.0604451
0.0606994
0.0608613
0.0609511
0.0609882
0.0567278
0.0566994
0.0566173
0.0564451
0.0561343
0.055626
0.0548606
0.0538013
0.0524813
0.0510502
0.0497581
0.0488453
0.0484324
0.0485058
0.0490087
0.0499541
0.0513555
0.0529413
0.0543656
0.0555369
0.056494
0.0573065
0.0580317
0.0586966
0.0592989
0.0598209
0.0602454
0.0605664
0.0607908
0.0609341
0.0610143
0.0610477
0.0561328
0.0561027
0.0560137
0.0558236
0.0554754
0.0549
0.0540281
0.0528229
0.0513364
0.0497518
0.0483485
0.0473791
0.046959
0.047067
0.0476601
0.0487947
0.0505183
0.0525069
0.0543038
0.0557562
0.0568899
0.0577909
0.0585344
0.0591669
0.0597054
0.0601509
0.060501
0.0607588
0.0609346
0.0610437
0.0611026
0.0611262
0.0552519
0.0552175
0.0551153
0.0548961
0.0544944
0.0538324
0.0528381
0.0514849
0.0498524
0.0481552
0.0466871
0.0456897
0.0452522
0.0453408
0.0459374
0.0471545
0.0490956
0.051441
0.0536665
0.0555374
0.056993
0.0580994
0.0589463
0.0595961
0.0600905
0.0604564
0.0607122
0.0608751
0.0609644
0.0610022
0.0610108
0.0610088
0.0540383
0.0539968
0.0538743
0.0536134
0.0531401
0.0523724
0.0512438
0.0497499
0.0480032
0.0462434
0.0447538
0.0437307
0.0432127
0.0431507
0.0435505
0.044565
0.0463665
0.0487465
0.0512196
0.0534959
0.0554173
0.0569397
0.0581149
0.0589709
0.059549
0.0598964
0.0600592
0.0600862
0.0600284
0.0599359
0.0598505
0.0598011
0.0525308
0.0524792
0.0523285
0.0520125
0.0514501
0.0505603
0.0492941
0.0476821
0.0458709
0.0441028
0.0426142
0.0415229
0.0408078
0.0404006
0.0403001
0.0406303
0.0415917
0.0431847
0.0451237
0.0471648
0.049126
0.0508907
0.0524246
0.0536667
0.0545928
0.0552076
0.0555296
0.0556114
0.0555345
0.05539
0.0552543
0.055176
0.0509872
0.0509295
0.0507637
0.0504207
0.0498196
0.0488864
0.0475864
0.0459619
0.0441509
0.0423612
0.0407869
0.0395141
0.0385
0.037644
0.0368709
0.0361638
0.0356295
0.0354541
0.0356685
0.0361967
0.0369662
0.0379171
0.0389881
0.0401131
0.0412277
0.0422581
0.0431209
0.043757
0.0441536
0.0443496
0.0444139
0.0444182
0.0497969
0.0497408
0.0495823
0.0492588
0.0486967
0.0478286
0.046621
0.0451054
0.043394
0.0416617
0.040084
0.0387576
0.0376618
0.0366898
0.0356973
0.0345147
0.0330533
0.0314762
0.0300286
0.0288057
0.027866
0.0272526
0.0269932
0.0270919
0.0275146
0.0281855
0.0289951
0.0298131
0.0305163
0.0310247
0.0313194
0.0314367
0.0490824
0.0490304
0.0488882
0.0486033
0.0481128
0.0473562
0.0462984
0.0449568
0.0434185
0.0418331
0.0403703
0.0391549
0.0382183
0.0374953
0.0368429
0.0360325
0.0348121
0.0331514
0.0312978
0.0294267
0.0276576
0.0260791
0.0247645
0.0237721
0.0231352
0.0228521
0.0228782
0.0231263
0.0234794
0.0238191
0.0240614
0.024176
0.0487155
0.0486676
0.0485413
0.048295
0.0478768
0.0472342
0.046332
0.0451759
0.0438308
0.0424213
0.0411044
0.0400196
0.0392394
0.0387464
0.0384304
0.0380702
0.0373397
0.0360288
0.0342805
0.0322679
0.030142
0.0280402
0.0260947
0.0244192
0.0230929
0.0221492
0.0215728
0.0213064
0.0212615
0.0213353
0.0214337
0.0214946
0.048567
0.0485226
0.0484101
0.0481967
0.0478415
0.0473008
0.0465419
0.0455625
0.0444086
0.0431797
0.0420117
0.0410399
0.0403547
0.0399704
0.0398086
0.0396752
0.0392391
0.0382326
0.0367075
0.0347673
0.0325246
0.0301121
0.0277007
0.0254731
0.0235834
0.0221264
0.0211219
0.0205237
0.0202411
0.0201628
0.0201806
0.020212
0.0485475
0.0485074
0.048408
0.0482235
0.0479215
0.0474673
0.0468327
0.0460123
0.0450375
0.0439841
0.0429612
0.0420846
0.04144
0.0410523
0.0408638
0.0407092
0.0403009
0.0394123
0.0380549
0.0362663
0.0341007
0.0316434
0.0290392
0.0264824
0.0241756
0.0222826
0.020886
0.0199798
0.019486
0.0192852
0.0192479
0.019264
0.0485626
0.0485309
0.0484506
0.0482993
0.0480493
0.0476723
0.0471458
0.0464639
0.0456483
0.044753
0.0438574
0.0430469
0.0423875
0.0419
0.0415385
0.041169
0.0405842
0.0396484
0.0383605
0.0367102
0.0347002
0.0323656
0.0297995
0.027158
0.0246422
0.0224554
0.020743
0.0195576
0.0188572
0.0185315
0.0184383
0.0184408
0.0484758
0.0484619
0.0484174
0.0483181
0.0481352
0.0478406
0.0474143
0.0468506
0.0461629
0.045385
0.0445662
0.0437604
0.0430108
0.0423314
0.04169
0.0409889
0.0401205
0.0390516
0.0377751
0.0362413
0.0344115
0.0322796
0.0298935
0.02736
0.0248405
0.0225305
0.0206135
0.0192047
0.0183157
0.0178648
0.0177115
0.0176988
0.0481001
0.0481184
0.0481362
0.0481215
0.0480352
0.0478406
0.0475121
0.0470396
0.046427
0.0456913
0.0448595
0.0439644
0.0430371
0.0420941
0.0411226
0.0400644
0.0389058
0.0376996
0.0364306
0.0350163
0.0333882
0.0315058
0.0293773
0.0270691
0.0246998
0.0224298
0.0204387
0.0188841
0.0178401
0.0172711
0.0170546
0.0170245
0.0472287
0.0472954
0.0474024
0.0475026
0.0475374
0.0474511
0.0472026
0.0467715
0.046154
0.04536
0.0444112
0.0433389
0.0421783
0.0409573
0.0396846
0.0383352
0.0369643
0.035678
0.0344505
0.0331755
0.0317668
0.030163
0.0283425
0.0263334
0.0242137
0.0221064
0.0201669
0.0185613
0.0174122
0.0167416
0.0164619
0.0164117
0.0456854
0.0458124
0.0460189
0.0462323
0.0463704
0.046356
0.0461297
0.0456623
0.044952
0.0440169
0.0428909
0.0416182
0.0402463
0.0388152
0.0373483
0.035841
0.0343849
0.0331064
0.0319698
0.0308577
0.0296779
0.0283617
0.0268705
0.0252037
0.0234011
0.0215451
0.01976
0.0182003
0.0170114
0.0162674
0.0159295
0.015857
0.0433583
0.0435461
0.0438242
0.0440862
0.0442374
0.044197
0.0439002
0.043322
0.0424736
0.041389
0.0401179
0.0387173
0.0372424
0.0357373
0.03423
0.0327242
0.0313199
0.0301388
0.0291401
0.0282088
0.027257
0.0262191
0.0250514
0.0237363
0.0222854
0.0207429
0.019194
0.0177683
0.0166133
0.0158378
0.0154541
0.0153583
0.0401955
0.0404231
0.0406883
0.0408647
0.0408837
0.0406962
0.0402556
0.0395527
0.0386076
0.037461
0.0361671
0.0347834
0.0333625
0.0319439
0.0305528
0.0291937
0.0279569
0.0269456
0.0261193
0.0253771
0.0246428
0.0238608
0.0229903
0.0220079
0.0209087
0.0197087
0.0184546
0.0172386
0.0161915
0.0154376
0.0150311
0.0149142
0.0361614
0.0363735
0.036486
0.0364229
0.0361959
0.0358083
0.0352398
0.0344888
0.0335674
0.0325064
0.031349
0.030142
0.0289269
0.0277343
0.0265832
0.0254767
0.0244866
0.0236913
0.0230563
0.0225015
0.0219677
0.0214116
0.0208006
0.0201128
0.0193373
0.0184744
0.017542
0.0165924
0.0157223
0.0150494
0.0146536
0.0145233
0.0311759
0.031269
0.031095
0.030745
0.0303079
0.0298078
0.0292308
0.0285676
0.0278131
0.0269804
0.0260949
0.0251872
0.0242853
0.02341
0.0225741
0.0217795
0.0210761
0.0205172
0.0200775
0.0197008
0.0193463
0.0189839
0.018591
0.0181513
0.0176546
0.0170959
0.0164779
0.015822
0.0151844
0.0146531
0.0143114
0.0141832
0.0250558
0.0249202
0.0245187
0.0240794
0.023649
0.0232295
0.0228051
0.0223596
0.0218797
0.0213654
0.0208273
0.020281
0.0197422
0.0192226
0.0187295
0.0182639
0.0178542
0.0175307
0.0172783
0.0170649
0.0168671
0.0166679
0.0164542
0.0162168
0.0159492
0.0156473
0.0153092
0.0149406
0.0145648
0.0142286
0.013991
0.0138893
0.0175604
0.0174477
0.0172339
0.0170357
0.0168575
0.0166944
0.0165393
0.0163842
0.0162222
0.0160513
0.015874
0.0156948
0.0155186
0.0153493
0.0151891
0.0150384
0.0149061
0.0148019
0.014721
0.014653
0.0145904
0.0145279
0.0144614
0.0143878
0.0143052
0.0142122
0.0141078
0.013993
0.0138731
0.0137608
0.0136748
0.0136331
)
;

boundaryField
{
    movingWall
    {
        type            fixedValue;
        value           uniform 0.0135;
    }
    fixedWalls
    {
        type            zeroGradient;
    }
    floor
    {
        type            zeroGradient;
    }
    frontAndBack
    {
        type            empty;
    }
}


// ************************************************************************* //
