/*--------------------------------*- C++ -*----------------------------------*\
| =========                 |                                                 |
| \\      /  F ield         | OpenFOAM: The Open Source CFD Toolbox           |
|  \\    /   O peration     | Version:  2212                                  |
|   \\  /    A nd           | Website:  www.openfoam.com                      |
|    \\/     M anipulation  |                                                 |
\*---------------------------------------------------------------------------*/
FoamFile
{
    version     2.0;
    format      ascii;
    arch        "LSB;label=64;scalar=64";
    class       volScalarField;
    location    "1210";
    object      Saa;
}
// * * * * * * * * * * * * * * * * * * * * * * * * * * * * * * * * * * * * * //

dimensions      [1 -3 0 0 0 0 0];

internalField   nonuniform List<scalar> 
1024
(
0.00546404
0.00546408
0.00546416
0.0054643
0.00546453
0.00546486
0.00546528
0.00546579
0.00546634
0.00546691
0.00546744
0.00546788
0.0054682
0.00546838
0.00546838
0.00546819
0.00546777
0.00546717
0.00546647
0.00546568
0.0054648
0.00546385
0.00546287
0.00546192
0.00546106
0.00546034
0.00545977
0.00545936
0.00545908
0.0054589
0.0054588
0.00545876
0.00546405
0.00546408
0.00546417
0.00546432
0.00546455
0.00546488
0.00546531
0.00546582
0.00546639
0.00546696
0.00546749
0.00546793
0.00546825
0.00546842
0.00546842
0.00546823
0.00546781
0.00546721
0.00546651
0.00546572
0.00546485
0.0054639
0.00546292
0.00546196
0.0054611
0.00546037
0.0054598
0.00545938
0.00545909
0.00545891
0.00545881
0.00545877
0.00546407
0.0054641
0.00546419
0.00546435
0.00546459
0.00546493
0.00546537
0.0054659
0.00546648
0.00546707
0.00546761
0.00546805
0.00546837
0.00546853
0.00546853
0.00546832
0.00546789
0.00546729
0.00546659
0.00546581
0.00546494
0.005464
0.00546302
0.00546205
0.00546118
0.00546043
0.00545985
0.00545941
0.00545912
0.00545893
0.00545883
0.00545879
0.0054641
0.00546414
0.00546423
0.00546439
0.00546464
0.005465
0.00546547
0.00546602
0.00546663
0.00546725
0.00546783
0.00546828
0.00546859
0.00546874
0.00546871
0.00546849
0.00546804
0.00546742
0.00546672
0.00546593
0.00546508
0.00546414
0.00546316
0.00546219
0.0054613
0.00546053
0.00545992
0.00545947
0.00545916
0.00545897
0.00545886
0.00545882
0.00546415
0.00546419
0.00546428
0.00546445
0.00546472
0.0054651
0.00546559
0.00546619
0.00546686
0.00546754
0.00546817
0.00546866
0.00546896
0.00546908
0.00546901
0.00546874
0.00546824
0.00546759
0.00546687
0.00546609
0.00546524
0.00546432
0.00546335
0.00546237
0.00546146
0.00546067
0.00546003
0.00545956
0.00545923
0.00545902
0.00545891
0.00545886
0.00546422
0.00546426
0.00546435
0.00546453
0.00546481
0.00546522
0.00546576
0.00546642
0.00546716
0.00546795
0.00546866
0.00546919
0.0054695
0.00546958
0.00546944
0.00546909
0.00546852
0.0054678
0.00546704
0.00546624
0.0054654
0.00546449
0.00546354
0.00546256
0.00546164
0.00546082
0.00546016
0.00545965
0.00545931
0.00545909
0.00545897
0.00545892
0.00546432
0.00546436
0.00546445
0.00546464
0.00546494
0.00546537
0.00546596
0.00546671
0.00546757
0.00546849
0.00546932
0.00546992
0.00547023
0.00547025
0.00547002
0.00546956
0.00546886
0.00546803
0.0054672
0.00546637
0.00546552
0.00546463
0.00546369
0.00546273
0.0054618
0.00546097
0.00546028
0.00545975
0.00545939
0.00545915
0.00545903
0.00545898
0.00546446
0.00546449
0.00546459
0.00546478
0.0054651
0.00546557
0.00546623
0.00546707
0.00546809
0.00546917
0.00547015
0.00547084
0.00547115
0.00547111
0.00547076
0.00547013
0.00546925
0.00546826
0.00546732
0.00546643
0.00546556
0.00546468
0.00546376
0.00546281
0.00546189
0.00546106
0.00546036
0.00545982
0.00545945
0.00545921
0.00545908
0.00545903
0.00546466
0.0054647
0.0054648
0.00546499
0.00546532
0.00546584
0.00546657
0.00546755
0.00546873
0.00547
0.00547114
0.00547192
0.00547224
0.00547212
0.00547162
0.00547078
0.00546966
0.00546845
0.00546735
0.00546637
0.00546547
0.00546458
0.00546368
0.00546276
0.00546186
0.00546105
0.00546037
0.00545984
0.00545947
0.00545923
0.0054591
0.00545905
0.00546497
0.00546501
0.00546511
0.00546531
0.00546566
0.00546622
0.00546705
0.00546816
0.00546954
0.00547101
0.00547231
0.00547317
0.00547348
0.00547326
0.00547258
0.0054715
0.00547006
0.00546855
0.00546724
0.00546613
0.00546517
0.00546427
0.00546339
0.00546251
0.00546166
0.0054609
0.00546026
0.00545976
0.00545941
0.00545919
0.00545906
0.00545901
0.00546546
0.00546549
0.00546559
0.0054658
0.00546618
0.0054668
0.00546773
0.00546901
0.00547057
0.00547223
0.00547366
0.00547458
0.00547485
0.00547451
0.00547365
0.00547229
0.00547048
0.00546859
0.00546698
0.00546569
0.00546463
0.00546371
0.00546285
0.00546202
0.00546125
0.00546057
0.00546
0.00545957
0.00545926
0.00545906
0.00545895
0.0054589
0.00546621
0.00546624
0.00546635
0.00546658
0.005467
0.0054677
0.00546875
0.00547018
0.00547193
0.00547373
0.00547525
0.00547617
0.00547638
0.00547594
0.00547492
0.00547329
0.0054711
0.00546876
0.00546674
0.00546516
0.00546393
0.00546293
0.00546207
0.00546131
0.00546064
0.00546007
0.0054596
0.00545925
0.00545901
0.00545885
0.00545876
0.00545873
0.00546732
0.00546736
0.00546748
0.00546774
0.00546822
0.00546902
0.0054702
0.00547179
0.00547367
0.00547557
0.0054771
0.00547799
0.00547816
0.00547768
0.0054766
0.00547485
0.00547237
0.00546962
0.00546712
0.00546508
0.0054635
0.00546229
0.00546134
0.00546059
0.00546
0.00545954
0.0054592
0.00545897
0.00545883
0.00545876
0.00545873
0.00545872
0.00546885
0.00546889
0.00546904
0.00546934
0.0054699
0.00547081
0.00547214
0.00547387
0.00547584
0.00547776
0.00547926
0.00548013
0.00548035
0.00547999
0.0054791
0.00547752
0.00547515
0.0054723
0.00546949
0.00546697
0.00546488
0.00546322
0.00546193
0.00546098
0.00546032
0.00545991
0.00545969
0.00545963
0.00545967
0.00545974
0.00545982
0.00545987
0.00547074
0.0054708
0.00547097
0.00547134
0.005472
0.00547303
0.0054745
0.00547634
0.00547835
0.00548024
0.00548171
0.00548264
0.00548307
0.0054831
0.00548273
0.00548184
0.0054803
0.0054782
0.00547587
0.00547353
0.00547135
0.00546942
0.00546775
0.00546641
0.00546541
0.00546474
0.00546438
0.00546429
0.00546436
0.00546451
0.00546465
0.00546473
0.0054727
0.00547276
0.00547295
0.00547335
0.00547404
0.00547512
0.00547662
0.00547847
0.00548048
0.00548241
0.00548401
0.00548518
0.00548598
0.00548652
0.00548688
0.00548707
0.005487
0.00548663
0.00548596
0.00548509
0.00548405
0.00548291
0.0054817
0.00548048
0.00547931
0.00547824
0.00547736
0.00547672
0.00547633
0.00547614
0.00547608
0.00547608
0.00547427
0.00547433
0.00547451
0.00547488
0.00547553
0.00547654
0.00547794
0.00547969
0.00548164
0.00548358
0.00548527
0.00548661
0.00548761
0.00548838
0.00548905
0.00548974
0.00549056
0.00549144
0.00549225
0.00549292
0.00549341
0.00549366
0.00549366
0.00549339
0.00549288
0.00549219
0.0054914
0.00549063
0.00548997
0.00548951
0.00548924
0.00548913
0.00547528
0.00547534
0.0054755
0.00547582
0.00547639
0.00547728
0.00547853
0.00548012
0.00548193
0.00548378
0.00548545
0.0054868
0.00548778
0.00548844
0.0054889
0.00548933
0.00548994
0.00549084
0.00549187
0.00549292
0.00549392
0.00549482
0.00549556
0.00549611
0.00549646
0.00549659
0.00549653
0.00549632
0.00549605
0.00549579
0.00549561
0.00549552
0.00547588
0.00547593
0.00547607
0.00547635
0.00547684
0.0054776
0.00547869
0.00548009
0.00548172
0.00548343
0.00548503
0.00548634
0.00548727
0.00548782
0.00548807
0.00548818
0.00548843
0.00548905
0.00548997
0.00549107
0.00549225
0.00549341
0.00549448
0.0054954
0.00549614
0.00549668
0.00549703
0.00549721
0.00549728
0.00549727
0.00549723
0.0054972
0.0054762
0.00547625
0.00547637
0.00547662
0.00547703
0.00547768
0.00547861
0.00547982
0.00548126
0.0054828
0.00548428
0.00548554
0.00548644
0.00548696
0.00548714
0.00548712
0.00548718
0.00548758
0.00548836
0.00548942
0.00549068
0.00549205
0.0054934
0.00549464
0.00549568
0.00549648
0.00549704
0.00549739
0.00549758
0.00549767
0.00549769
0.00549769
0.00547635
0.0054764
0.00547651
0.00547672
0.00547707
0.00547762
0.0054784
0.00547943
0.00548067
0.00548203
0.00548338
0.00548455
0.00548544
0.005486
0.00548624
0.00548627
0.00548635
0.0054867
0.00548739
0.00548837
0.00548961
0.00549102
0.00549251
0.00549394
0.00549522
0.00549625
0.00549701
0.00549751
0.0054978
0.00549794
0.00549799
0.005498
0.00547642
0.00547645
0.00547655
0.00547672
0.00547702
0.00547748
0.00547814
0.00547901
0.00548006
0.00548124
0.00548243
0.00548352
0.00548441
0.00548504
0.00548544
0.00548568
0.00548592
0.00548636
0.00548703
0.00548796
0.00548912
0.00549048
0.00549196
0.00549346
0.00549486
0.00549605
0.00549697
0.00549761
0.00549799
0.00549819
0.00549827
0.00549828
0.00547651
0.00547654
0.0054766
0.00547674
0.00547697
0.00547735
0.00547789
0.00547861
0.0054795
0.00548051
0.00548157
0.0054826
0.00548352
0.00548429
0.0054849
0.00548541
0.00548592
0.0054865
0.00548721
0.00548809
0.00548917
0.00549042
0.00549181
0.00549326
0.00549466
0.00549592
0.00549695
0.00549769
0.00549817
0.00549842
0.00549852
0.00549855
0.00547679
0.00547679
0.00547681
0.00547687
0.00547703
0.00547731
0.00547775
0.00547835
0.00547911
0.00548001
0.005481
0.00548202
0.00548302
0.00548395
0.0054848
0.0054856
0.00548636
0.00548709
0.00548784
0.00548868
0.00548965
0.00549077
0.00549201
0.00549334
0.00549467
0.00549591
0.00549697
0.00549778
0.00549833
0.00549863
0.00549876
0.00549879
0.0054774
0.00547736
0.00547731
0.0054773
0.00547735
0.00547754
0.00547788
0.00547841
0.00547911
0.00547997
0.00548096
0.00548203
0.00548313
0.00548423
0.00548529
0.00548631
0.00548726
0.00548809
0.00548885
0.00548963
0.00549048
0.00549144
0.00549251
0.00549367
0.00549487
0.00549602
0.00549705
0.00549789
0.00549848
0.00549882
0.00549898
0.00549902
0.00547846
0.00547838
0.00547826
0.00547816
0.00547814
0.00547825
0.00547855
0.00547905
0.00547976
0.00548064
0.00548168
0.00548282
0.00548402
0.00548522
0.0054864
0.00548754
0.00548857
0.00548943
0.00549016
0.00549086
0.00549158
0.00549237
0.00549326
0.00549422
0.00549524
0.00549626
0.00549721
0.00549802
0.00549862
0.00549899
0.00549917
0.00549922
0.00548005
0.00547993
0.00547976
0.00547962
0.00547958
0.00547969
0.00548
0.00548054
0.00548128
0.00548222
0.00548329
0.00548446
0.00548567
0.00548688
0.00548807
0.0054892
0.00549021
0.00549102
0.00549168
0.00549227
0.00549287
0.0054935
0.00549419
0.00549496
0.00549578
0.00549663
0.00549745
0.00549819
0.00549877
0.00549915
0.00549934
0.0054994
0.00548221
0.00548206
0.00548189
0.0054818
0.00548184
0.00548203
0.00548241
0.00548299
0.00548376
0.00548468
0.00548571
0.00548681
0.00548794
0.00548905
0.00549013
0.00549115
0.00549205
0.00549275
0.00549331
0.00549379
0.00549425
0.00549473
0.00549525
0.00549583
0.00549645
0.00549711
0.00549778
0.00549841
0.00549893
0.0054993
0.00549949
0.00549956
0.00548493
0.00548479
0.00548473
0.00548479
0.00548498
0.00548529
0.00548573
0.00548631
0.00548702
0.00548784
0.00548873
0.00548967
0.00549061
0.00549153
0.00549241
0.00549325
0.00549397
0.00549453
0.00549496
0.00549532
0.00549566
0.00549601
0.00549637
0.00549678
0.00549722
0.0054977
0.0054982
0.00549869
0.00549912
0.00549944
0.00549963
0.00549969
0.00548828
0.00548822
0.00548834
0.00548859
0.00548891
0.00548927
0.0054897
0.00549019
0.00549076
0.00549138
0.00549205
0.00549274
0.00549343
0.0054941
0.00549474
0.00549534
0.00549586
0.00549625
0.00549655
0.00549681
0.00549703
0.00549726
0.0054975
0.00549775
0.00549804
0.00549835
0.00549868
0.00549902
0.00549934
0.00549959
0.00549974
0.0054998
0.00549236
0.00549245
0.00549272
0.00549302
0.00549332
0.00549362
0.00549392
0.00549425
0.0054946
0.00549498
0.00549539
0.0054958
0.00549621
0.00549661
0.00549698
0.00549733
0.00549763
0.00549786
0.00549804
0.00549818
0.00549831
0.00549843
0.00549856
0.0054987
0.00549886
0.00549903
0.00549921
0.0054994
0.00549959
0.00549974
0.00549985
0.0054999
0.00549732
0.0054974
0.00549754
0.00549768
0.0054978
0.00549791
0.00549802
0.00549814
0.00549825
0.00549838
0.00549851
0.00549865
0.00549878
0.00549891
0.00549903
0.00549915
0.00549924
0.00549932
0.00549937
0.00549942
0.00549946
0.0054995
0.00549954
0.00549958
0.00549963
0.00549968
0.00549974
0.0054998
0.00549986
0.00549991
0.00549995
0.00549997
)
;

boundaryField
{
    movingWall
    {
        type            fixedValue;
        value           uniform 0.0055;
    }
    fixedWalls
    {
        type            zeroGradient;
    }
    floor
    {
        type            zeroGradient;
    }
    frontAndBack
    {
        type            empty;
    }
}


// ************************************************************************* //
