/*--------------------------------*- C++ -*----------------------------------*\
| =========                 |                                                 |
| \\      /  F ield         | OpenFOAM: The Open Source CFD Toolbox           |
|  \\    /   O peration     | Version:  2212                                  |
|   \\  /    A nd           | Website:  www.openfoam.com                      |
|    \\/     M anipulation  |                                                 |
\*---------------------------------------------------------------------------*/
FoamFile
{
    version     2.0;
    format      ascii;
    arch        "LSB;label=64;scalar=64";
    class       volScalarField;
    location    "1210";
    object      Xli;
}
// * * * * * * * * * * * * * * * * * * * * * * * * * * * * * * * * * * * * * //

dimensions      [1 -3 0 0 0 0 0];

internalField   nonuniform List<scalar> 
1024
(
0.0423278
0.0423286
0.0423307
0.0423345
0.0423404
0.0423487
0.0423596
0.0423726
0.0423871
0.0424019
0.0424158
0.0424275
0.0424363
0.0424415
0.0424426
0.0424388
0.0424294
0.0424152
0.0423981
0.0423785
0.0423567
0.0423332
0.0423091
0.0422859
0.0422651
0.0422477
0.0422341
0.0422241
0.0422174
0.0422131
0.0422108
0.0422098
0.042328
0.0423289
0.042331
0.0423348
0.0423408
0.0423493
0.0423604
0.0423736
0.0423882
0.0424031
0.0424171
0.0424289
0.0424376
0.0424428
0.0424438
0.0424399
0.0424305
0.0424163
0.0423991
0.0423796
0.0423579
0.0423344
0.0423103
0.042287
0.042266
0.0422484
0.0422346
0.0422245
0.0422177
0.0422133
0.042211
0.04221
0.0423285
0.0423294
0.0423316
0.0423355
0.0423418
0.0423506
0.042362
0.0423756
0.0423907
0.042406
0.0424204
0.0424323
0.042441
0.0424459
0.0424467
0.0424426
0.042433
0.0424186
0.0424014
0.0423819
0.0423603
0.0423369
0.0423128
0.0422893
0.042268
0.04225
0.0422358
0.0422254
0.0422183
0.0422139
0.0422115
0.0422105
0.0423293
0.0423302
0.0423325
0.0423367
0.0423432
0.0423525
0.0423645
0.0423788
0.0423947
0.0424111
0.0424263
0.0424386
0.0424472
0.0424518
0.042452
0.0424474
0.0424371
0.0424223
0.0424049
0.0423854
0.0423639
0.0423407
0.0423166
0.0422928
0.0422711
0.0422525
0.0422378
0.0422269
0.0422195
0.0422148
0.0422123
0.0422112
0.0423306
0.0423316
0.0423339
0.0423383
0.0423452
0.042355
0.0423678
0.0423833
0.0424008
0.0424188
0.0424356
0.0424487
0.0424573
0.0424613
0.0424605
0.0424548
0.0424433
0.0424275
0.0424095
0.0423897
0.0423683
0.0423453
0.0423213
0.0422974
0.0422751
0.0422559
0.0422405
0.042229
0.0422211
0.0422161
0.0422134
0.0422123
0.0423324
0.0423334
0.0423359
0.0423404
0.0423477
0.0423582
0.0423722
0.0423894
0.0424091
0.0424298
0.042449
0.0424635
0.0424723
0.0424753
0.0424731
0.0424654
0.0424519
0.0424342
0.0424149
0.0423946
0.042373
0.0423502
0.0423263
0.0423023
0.0422796
0.0422597
0.0422436
0.0422314
0.042223
0.0422178
0.0422149
0.0422137
0.042335
0.042336
0.0423385
0.0423432
0.0423509
0.0423623
0.0423777
0.0423972
0.04242
0.0424444
0.0424669
0.0424835
0.0424927
0.0424946
0.0424902
0.0424797
0.0424629
0.0424422
0.0424207
0.0423991
0.0423772
0.0423544
0.0423306
0.0423067
0.0422838
0.0422634
0.0422466
0.0422339
0.0422251
0.0422195
0.0422164
0.0422152
0.0423386
0.0423396
0.0423421
0.042347
0.0423552
0.0423675
0.0423847
0.042407
0.0424338
0.0424628
0.0424895
0.0425089
0.0425187
0.0425193
0.0425122
0.0424977
0.0424762
0.042451
0.0424261
0.0424025
0.0423796
0.0423566
0.042333
0.0423093
0.0422864
0.0422659
0.0422489
0.0422358
0.0422267
0.042221
0.0422178
0.0422165
0.0423439
0.0423448
0.0423474
0.0423525
0.0423611
0.0423746
0.0423939
0.0424197
0.0424512
0.0424854
0.0425168
0.0425392
0.0425498
0.042549
0.0425385
0.0425191
0.0424912
0.0424596
0.04243
0.0424034
0.042379
0.0423554
0.042332
0.0423086
0.0422863
0.0422661
0.0422493
0.0422364
0.0422274
0.0422216
0.0422185
0.0422172
0.042352
0.0423529
0.0423555
0.0423607
0.04237
0.0423847
0.0424065
0.0424362
0.0424729
0.0425128
0.042549
0.0425744
0.0425856
0.0425831
0.0425688
0.0425433
0.0425071
0.0424672
0.0424311
0.0424003
0.0423736
0.0423493
0.042326
0.0423033
0.042282
0.0422629
0.042247
0.0422349
0.0422263
0.0422209
0.0422179
0.0422166
0.0423645
0.0423654
0.0423681
0.0423737
0.0423837
0.0424001
0.0424247
0.0424587
0.0425009
0.0425462
0.0425867
0.0426144
0.0426257
0.0426212
0.0426029
0.0425707
0.0425246
0.0424739
0.0424291
0.0423925
0.0423626
0.042337
0.0423138
0.0422923
0.0422726
0.0422554
0.0422413
0.0422306
0.042223
0.0422182
0.0422155
0.0422143
0.0423839
0.0423849
0.0423877
0.0423939
0.0424051
0.0424236
0.0424515
0.0424901
0.0425374
0.0425874
0.0426309
0.04266
0.0426709
0.0426647
0.0426431
0.0426045
0.0425481
0.0424848
0.0424284
0.0423832
0.042348
0.0423198
0.0422963
0.042276
0.0422585
0.0422439
0.0422323
0.0422237
0.0422178
0.042214
0.042212
0.0422112
0.0424126
0.0424137
0.042417
0.042424
0.0424369
0.0424581
0.0424899
0.042533
0.0425847
0.0426379
0.042683
0.0427124
0.0427233
0.0427172
0.042695
0.0426535
0.04259
0.0425153
0.0424455
0.0423873
0.0423421
0.0423076
0.042281
0.0422605
0.0422446
0.0422327
0.0422242
0.0422187
0.0422156
0.0422141
0.0422137
0.0422137
0.0424521
0.0424535
0.0424574
0.0424657
0.0424808
0.0425053
0.0425412
0.0425886
0.0426436
0.0426983
0.0427436
0.0427733
0.0427864
0.0427848
0.0427684
0.0427327
0.0426732
0.042597
0.042519
0.0424479
0.0423881
0.0423408
0.0423042
0.0422774
0.0422592
0.0422481
0.0422427
0.0422416
0.0422431
0.0422458
0.0422483
0.0422498
0.0425012
0.0425028
0.0425076
0.0425176
0.0425355
0.0425638
0.0426039
0.0426548
0.0427115
0.0427662
0.0428112
0.0428429
0.0428621
0.0428712
0.0428702
0.0428554
0.0428212
0.0427685
0.0427063
0.0426419
0.0425805
0.0425255
0.0424779
0.0424393
0.0424106
0.0423915
0.0423815
0.0423788
0.0423811
0.0423855
0.0423897
0.0423921
0.0425516
0.0425534
0.0425586
0.0425695
0.0425885
0.0426181
0.0426592
0.0427105
0.0427672
0.0428226
0.0428706
0.0429083
0.0429372
0.0429605
0.0429804
0.0429973
0.0430084
0.0430089
0.0429986
0.0429796
0.042954
0.0429234
0.0428898
0.0428549
0.0428205
0.042789
0.0427627
0.0427434
0.0427314
0.0427255
0.0427236
0.0427235
0.042591
0.0425927
0.0425977
0.0426079
0.0426257
0.0426533
0.0426916
0.0427396
0.0427936
0.0428478
0.0428967
0.042937
0.0429695
0.0429972
0.0430245
0.0430561
0.0430949
0.0431367
0.0431751
0.0432075
0.043232
0.0432475
0.0432531
0.0432487
0.0432351
0.0432146
0.0431902
0.0431658
0.043145
0.0431299
0.0431212
0.0431177
0.0426152
0.0426168
0.0426213
0.0426303
0.0426459
0.04267
0.0427037
0.0427465
0.0427955
0.0428459
0.042892
0.04293
0.0429588
0.0429801
0.0429982
0.0430195
0.0430513
0.0430951
0.0431442
0.0431939
0.0432409
0.0432829
0.0433178
0.0433441
0.0433609
0.0433682
0.0433671
0.0433599
0.0433499
0.0433404
0.0433335
0.0433303
0.0426283
0.0426298
0.0426337
0.0426415
0.0426548
0.0426754
0.0427043
0.0427415
0.0427847
0.0428301
0.0428724
0.0429072
0.0429322
0.0429476
0.0429566
0.0429654
0.0429834
0.0430171
0.043063
0.0431162
0.0431725
0.0432281
0.0432796
0.0433239
0.043359
0.0433841
0.0433997
0.043407
0.0434086
0.0434069
0.0434044
0.0434029
0.0426343
0.0426357
0.0426392
0.0426459
0.0426572
0.0426746
0.042699
0.0427307
0.0427682
0.0428081
0.0428463
0.0428781
0.0429008
0.0429136
0.0429186
0.0429213
0.0429313
0.0429566
0.0429964
0.0430477
0.0431072
0.0431714
0.0432354
0.0432944
0.0433443
0.0433828
0.0434095
0.0434255
0.0434333
0.0434357
0.0434355
0.0434349
0.042636
0.0426373
0.0426404
0.0426462
0.0426558
0.0426704
0.0426909
0.0427176
0.0427495
0.0427841
0.0428178
0.042847
0.0428686
0.0428818
0.0428879
0.0428916
0.042901
0.0429234
0.0429587
0.0430061
0.0430638
0.0431293
0.0431986
0.0432664
0.0433275
0.0433774
0.0434143
0.0434383
0.0434515
0.0434571
0.0434583
0.0434581
0.0426362
0.0426373
0.0426398
0.0426446
0.0426526
0.0426648
0.0426819
0.0427041
0.0427309
0.0427605
0.0427902
0.0428171
0.0428391
0.0428552
0.0428664
0.0428764
0.0428912
0.0429153
0.042949
0.0429928
0.0430465
0.0431089
0.0431774
0.0432476
0.0433142
0.0433719
0.043417
0.0434482
0.0434668
0.0434755
0.0434782
0.0434783
0.042639
0.0426395
0.042641
0.0426443
0.0426503
0.0426599
0.0426739
0.0426923
0.0427149
0.0427405
0.0427674
0.0427937
0.0428179
0.0428392
0.0428584
0.042878
0.0429012
0.0429294
0.0429632
0.0430042
0.0430532
0.0431103
0.043174
0.0432415
0.0433083
0.0433692
0.0434196
0.0434566
0.04348
0.0434919
0.0434962
0.0434966
0.0426495
0.0426491
0.0426488
0.0426497
0.042653
0.0426596
0.0426705
0.0426859
0.0427058
0.0427295
0.0427561
0.0427843
0.042813
0.0428415
0.0428699
0.0428997
0.0429314
0.0429638
0.0429978
0.0430358
0.0430795
0.04313
0.043187
0.0432485
0.0433113
0.0433713
0.0434236
0.0434643
0.0434916
0.0435066
0.0435124
0.0435133
0.0426736
0.0426718
0.0426691
0.0426668
0.0426665
0.04267
0.0426784
0.0426922
0.0427117
0.0427363
0.0427654
0.0427979
0.0428326
0.0428686
0.0429053
0.0429434
0.0429813
0.0430163
0.0430495
0.0430839
0.0431218
0.0431649
0.0432137
0.0432673
0.0433236
0.0433792
0.0434302
0.0434722
0.0435022
0.0435197
0.0435271
0.0435285
0.0427162
0.0427128
0.0427073
0.0427018
0.0426986
0.0426999
0.0427074
0.0427218
0.0427433
0.0427713
0.0428047
0.0428421
0.0428822
0.0429236
0.0429656
0.0430081
0.0430486
0.0430837
0.0431147
0.0431448
0.0431766
0.0432121
0.043252
0.0432965
0.0433444
0.0433934
0.0434403
0.0434811
0.0435121
0.0435314
0.0435403
0.0435423
0.0427805
0.0427753
0.0427679
0.0427609
0.0427573
0.0427591
0.0427683
0.0427854
0.0428103
0.0428418
0.0428786
0.0429191
0.0429615
0.0430047
0.0430476
0.04309
0.0431292
0.0431618
0.0431891
0.0432145
0.0432402
0.0432682
0.0432995
0.0433346
0.0433732
0.043414
0.0434547
0.0434919
0.043522
0.0435421
0.0435521
0.0435546
0.0428676
0.0428614
0.0428542
0.0428496
0.0428495
0.0428552
0.0428681
0.0428883
0.0429155
0.0429483
0.0429852
0.0430247
0.0430653
0.0431057
0.0431451
0.0431834
0.043218
0.043246
0.0432687
0.043289
0.0433089
0.04333
0.0433534
0.0433796
0.0434088
0.0434406
0.0434735
0.0435053
0.0435325
0.043552
0.0435625
0.0435656
0.0429786
0.0429728
0.0429698
0.0429718
0.0429783
0.0429893
0.0430055
0.0430268
0.0430529
0.043083
0.0431158
0.04315
0.0431845
0.0432183
0.0432509
0.0432821
0.0433098
0.0433319
0.0433494
0.0433645
0.0433791
0.0433941
0.0434105
0.0434289
0.0434495
0.0434724
0.0434969
0.0435217
0.0435443
0.0435616
0.0435718
0.0435752
0.0431156
0.0431131
0.0431179
0.0431276
0.0431398
0.0431538
0.04317
0.0431887
0.0432099
0.0432334
0.0432583
0.043284
0.0433095
0.0433343
0.0433579
0.0433803
0.0434
0.0434156
0.0434277
0.043438
0.0434477
0.0434575
0.0434681
0.0434798
0.0434931
0.0435078
0.0435241
0.0435413
0.0435578
0.0435715
0.0435802
0.0435835
0.0432835
0.0432872
0.0432983
0.0433104
0.0433223
0.043334
0.0433458
0.0433583
0.0433717
0.0433862
0.0434013
0.0434167
0.043432
0.0434467
0.0434606
0.0434737
0.0434852
0.0434942
0.0435012
0.043507
0.0435124
0.0435178
0.0435236
0.04353
0.0435371
0.0435451
0.043554
0.0435636
0.0435734
0.043582
0.0435881
0.0435907
0.0434889
0.043492
0.0434978
0.0435033
0.0435082
0.0435127
0.043517
0.0435214
0.0435259
0.0435307
0.0435357
0.0435408
0.0435457
0.0435505
0.043555
0.0435593
0.043563
0.0435659
0.0435681
0.04357
0.0435717
0.0435734
0.0435752
0.0435772
0.0435794
0.0435818
0.0435846
0.0435876
0.0435907
0.0435936
0.0435958
0.0435969
)
;

boundaryField
{
    movingWall
    {
        type            fixedValue;
        value           uniform 0.0436;
    }
    fixedWalls
    {
        type            zeroGradient;
    }
    floor
    {
        type            zeroGradient;
    }
    frontAndBack
    {
        type            empty;
    }
}


// ************************************************************************* //
