/*--------------------------------*- C++ -*----------------------------------*\
| =========                 |                                                 |
| \\      /  F ield         | OpenFOAM: The Open Source CFD Toolbox           |
|  \\    /   O peration     | Version:  2212                                  |
|   \\  /    A nd           | Website:  www.openfoam.com                      |
|    \\/     M anipulation  |                                                 |
\*---------------------------------------------------------------------------*/
FoamFile
{
    version     2.0;
    format      ascii;
    arch        "LSB;label=64;scalar=64";
    class       volScalarField;
    location    "1210";
    object      Xpr;
}
// * * * * * * * * * * * * * * * * * * * * * * * * * * * * * * * * * * * * * //

dimensions      [1 -3 0 0 0 0 0];

internalField   nonuniform List<scalar> 
1024
(
0.0816972
0.0816988
0.0817029
0.0817103
0.0817219
0.0817383
0.0817597
0.0817853
0.0818138
0.081843
0.0818703
0.0818934
0.0819107
0.0819209
0.081923
0.0819156
0.081897
0.0818691
0.0818354
0.0817969
0.081754
0.0817078
0.0816604
0.0816148
0.0815738
0.0815396
0.0815128
0.0814933
0.0814799
0.0814716
0.081467
0.0814651
0.0816976
0.0816993
0.0817034
0.081711
0.0817228
0.0817395
0.0817612
0.0817872
0.081816
0.0818454
0.0818729
0.0818961
0.0819132
0.0819233
0.0819253
0.0819178
0.0818992
0.0818712
0.0818375
0.0817991
0.0817563
0.0817102
0.0816628
0.0816169
0.0815756
0.081541
0.0815139
0.081494
0.0814805
0.081472
0.0814674
0.0814655
0.0816985
0.0817003
0.0817046
0.0817124
0.0817247
0.081742
0.0817644
0.0817912
0.0818209
0.0818511
0.0818793
0.0819028
0.0819198
0.0819295
0.0819311
0.0819231
0.0819041
0.0818758
0.081842
0.0818037
0.0817611
0.0817152
0.0816677
0.0816215
0.0815795
0.0815442
0.0815163
0.0814958
0.0814818
0.0814731
0.0814683
0.0814664
0.0817002
0.081702
0.0817065
0.0817147
0.0817276
0.0817457
0.0817693
0.0817975
0.0818289
0.0818611
0.0818909
0.0819151
0.0819321
0.0819411
0.0819416
0.0819324
0.0819123
0.0818832
0.0818489
0.0818105
0.0817682
0.0817226
0.0816751
0.0816284
0.0815856
0.0815491
0.0815202
0.0814988
0.0814841
0.0814749
0.0814699
0.0814678
0.0817027
0.0817046
0.0817093
0.0817179
0.0817314
0.0817507
0.081776
0.0818064
0.0818407
0.0818763
0.0819093
0.0819351
0.081952
0.0819598
0.0819583
0.081947
0.0819245
0.0818934
0.0818579
0.0818191
0.0817769
0.0817317
0.0816843
0.0816373
0.0815936
0.0815557
0.0815254
0.0815028
0.0814872
0.0814775
0.0814722
0.08147
0.0817063
0.0817082
0.0817131
0.081722
0.0817364
0.0817571
0.0817845
0.0818183
0.0818571
0.0818979
0.0819356
0.0819642
0.0819814
0.0819874
0.081983
0.0819679
0.0819413
0.0819066
0.0818686
0.0818285
0.0817862
0.0817413
0.0816942
0.081647
0.0816024
0.0815633
0.0815315
0.0815076
0.0814911
0.0814807
0.081475
0.0814727
0.0817113
0.0817132
0.0817182
0.0817275
0.0817427
0.0817651
0.0817954
0.0818336
0.0818785
0.0819266
0.0819708
0.0820036
0.0820216
0.0820254
0.0820167
0.081996
0.0819629
0.0819223
0.08188
0.0818375
0.0817943
0.0817495
0.0817028
0.0816556
0.0816106
0.0815705
0.0815375
0.0815125
0.0814951
0.0814841
0.0814781
0.0814757
0.0817184
0.0817203
0.0817253
0.081735
0.0817511
0.0817753
0.0818092
0.0818531
0.0819058
0.0819628
0.0820153
0.0820534
0.0820727
0.082074
0.0820599
0.0820315
0.0819891
0.0819395
0.0818907
0.0818442
0.0817991
0.0817538
0.0817075
0.0816608
0.0816158
0.0815754
0.0815419
0.0815163
0.0814983
0.081487
0.0814808
0.0814783
0.0817289
0.0817307
0.0817358
0.0817457
0.0817627
0.0817892
0.0818272
0.0818779
0.0819399
0.0820073
0.082069
0.0821132
0.082134
0.0821324
0.0821118
0.0820736
0.0820186
0.0819565
0.0818983
0.0818459
0.0817978
0.0817516
0.0817055
0.0816595
0.0816155
0.0815758
0.0815428
0.0815174
0.0814996
0.0814883
0.0814821
0.0814796
0.0817448
0.0817466
0.0817516
0.081762
0.0817801
0.0818092
0.081852
0.0819104
0.0819827
0.0820612
0.0821323
0.0821823
0.0822044
0.0821994
0.0821712
0.0821211
0.08205
0.0819714
0.0819004
0.0818399
0.0817873
0.0817395
0.0816936
0.0816491
0.081607
0.0815694
0.0815382
0.0815144
0.0814976
0.0814869
0.0814809
0.0814784
0.0817695
0.0817713
0.0817765
0.0817874
0.0818072
0.0818394
0.0818879
0.0819547
0.0820377
0.0821269
0.0822065
0.0822611
0.0822833
0.0822744
0.0822384
0.082175
0.0820845
0.0819847
0.0818965
0.0818246
0.0817657
0.0817153
0.0816697
0.0816274
0.0815886
0.0815547
0.081527
0.0815059
0.0814911
0.0814816
0.0814762
0.081474
0.0818076
0.0818095
0.0818151
0.0818271
0.0818492
0.0818856
0.0819406
0.0820165
0.0821095
0.0822078
0.0822935
0.0823506
0.0823722
0.0823601
0.0823174
0.0822415
0.0821307
0.082006
0.0818951
0.0818062
0.0817369
0.0816814
0.0816351
0.0815952
0.0815608
0.0815321
0.0815093
0.0814923
0.0814807
0.0814734
0.0814694
0.0814677
0.0818641
0.0818662
0.0818726
0.0818865
0.0819118
0.0819535
0.0820161
0.0821009
0.0822026
0.0823072
0.082396
0.0824537
0.0824753
0.0824633
0.0824196
0.0823379
0.0822131
0.0820661
0.0819287
0.0818142
0.0817253
0.0816575
0.0816052
0.0815647
0.0815335
0.0815101
0.0814935
0.0814826
0.0814764
0.0814736
0.0814727
0.0814727
0.0819418
0.0819444
0.0819521
0.0819684
0.0819982
0.0820463
0.082117
0.0822102
0.0823184
0.0824261
0.0825152
0.0825737
0.0825995
0.0825962
0.0825639
0.0824938
0.0823767
0.0822267
0.0820734
0.0819335
0.0818159
0.0817227
0.0816507
0.081598
0.0815621
0.0815403
0.0815298
0.0815275
0.0815306
0.0815359
0.0815409
0.0815438
0.0820384
0.0820416
0.0820509
0.0820707
0.0821058
0.0821614
0.0822404
0.0823404
0.082452
0.0825596
0.0826482
0.0827105
0.0827484
0.0827662
0.0827642
0.0827351
0.0826679
0.0825642
0.0824419
0.0823151
0.0821944
0.0820862
0.0819925
0.0819166
0.0818601
0.0818225
0.0818027
0.0817976
0.0818021
0.0818108
0.081819
0.0818237
0.0821375
0.0821411
0.0821513
0.0821727
0.0822101
0.0822683
0.0823492
0.08245
0.0825616
0.0826707
0.082765
0.0828392
0.0828961
0.0829419
0.0829811
0.0830144
0.0830361
0.0830372
0.0830168
0.0829794
0.082929
0.082869
0.0828028
0.0827341
0.0826666
0.0826045
0.0825528
0.0825147
0.0824911
0.0824795
0.0824758
0.0824756
0.0822149
0.0822184
0.0822282
0.0822482
0.0822833
0.0823375
0.0824129
0.0825073
0.0826135
0.0827203
0.0828164
0.0828957
0.0829595
0.0830141
0.0830678
0.08313
0.0832063
0.0832886
0.0833642
0.0834278
0.0834761
0.0835066
0.0835176
0.0835088
0.0834821
0.0834417
0.0833939
0.0833459
0.0833048
0.0832752
0.083258
0.0832513
0.0822627
0.0822658
0.0822746
0.0822923
0.0823229
0.0823703
0.0824367
0.0825209
0.0826173
0.0827164
0.0828072
0.082882
0.0829385
0.0829805
0.0830161
0.083058
0.0831206
0.0832066
0.0833033
0.0834011
0.0834936
0.0835761
0.0836448
0.0836965
0.0837296
0.0837439
0.0837418
0.0837277
0.0837081
0.0836892
0.0836758
0.0836694
0.0822884
0.0822913
0.0822991
0.0823144
0.0823405
0.0823809
0.0824379
0.082511
0.0825961
0.0826853
0.0827686
0.0828371
0.0828862
0.0829165
0.0829341
0.0829515
0.0829869
0.0830533
0.0831435
0.0832482
0.083359
0.0834684
0.0835696
0.0836568
0.0837259
0.0837753
0.0838059
0.0838204
0.0838234
0.0838201
0.0838153
0.0838123
0.0823002
0.0823029
0.0823098
0.0823231
0.0823453
0.0823794
0.0824275
0.0824899
0.0825635
0.0826422
0.0827172
0.0827799
0.0828244
0.0828496
0.0828595
0.0828648
0.0828844
0.0829342
0.0830125
0.0831134
0.0832306
0.0833568
0.0834826
0.0835987
0.083697
0.0837728
0.0838252
0.0838567
0.083872
0.0838768
0.0838765
0.0838752
0.0823036
0.082306
0.0823121
0.0823236
0.0823425
0.0823712
0.0824116
0.0824641
0.0825267
0.0825948
0.0826612
0.0827185
0.0827611
0.082787
0.0827991
0.0828063
0.0828249
0.0828689
0.0829384
0.0830316
0.083145
0.0832739
0.0834103
0.0835438
0.0836639
0.0837622
0.0838346
0.0838818
0.0839078
0.0839188
0.0839213
0.0839208
0.082304
0.082306
0.082311
0.0823205
0.0823362
0.0823601
0.0823938
0.0824376
0.0824903
0.0825484
0.0826068
0.0826598
0.0827031
0.0827347
0.0827567
0.0827764
0.0828056
0.0828529
0.0829194
0.0830055
0.0831111
0.0832339
0.0833686
0.0835068
0.0836378
0.0837513
0.08384
0.0839014
0.0839379
0.0839551
0.0839604
0.0839606
0.0823093
0.0823103
0.0823133
0.0823198
0.0823316
0.0823506
0.082378
0.0824143
0.0824587
0.0825091
0.082562
0.0826138
0.0826613
0.0827033
0.0827411
0.0827797
0.0828253
0.0828807
0.0829473
0.0830278
0.0831242
0.0832365
0.083362
0.0834947
0.0836261
0.083746
0.0838452
0.0839179
0.0839639
0.0839874
0.0839957
0.0839966
0.08233
0.0823292
0.0823288
0.0823305
0.0823369
0.0823499
0.0823714
0.0824018
0.0824409
0.0824875
0.0825397
0.0825952
0.0826517
0.0827077
0.0827636
0.0828223
0.0828846
0.0829485
0.0830154
0.08309
0.083176
0.0832754
0.0833874
0.0835084
0.0836321
0.08375
0.0838529
0.0839331
0.0839868
0.0840162
0.0840277
0.0840295
0.0823775
0.082374
0.0823687
0.0823641
0.0823636
0.0823704
0.0823869
0.0824142
0.0824524
0.0825009
0.0825582
0.0826221
0.0826904
0.082761
0.0828333
0.0829082
0.0829828
0.0830517
0.083117
0.0831847
0.0832593
0.0833441
0.08344
0.0835455
0.0836562
0.0837656
0.0838659
0.0839485
0.0840075
0.084042
0.0840566
0.0840594
0.0824614
0.0824546
0.0824438
0.082433
0.0824267
0.0824292
0.0824439
0.0824724
0.0825147
0.0825697
0.0826353
0.082709
0.0827878
0.0828693
0.0829519
0.0830356
0.0831152
0.0831843
0.0832452
0.0833044
0.0833671
0.0834368
0.0835154
0.083603
0.0836972
0.0837936
0.0838859
0.0839661
0.084027
0.0840651
0.0840825
0.0840864
0.0825877
0.0825776
0.0825629
0.0825493
0.0825421
0.0825457
0.0825637
0.0825975
0.0826464
0.0827084
0.0827809
0.0828604
0.082944
0.0830288
0.0831132
0.0831967
0.0832738
0.0833379
0.0833917
0.0834415
0.0834922
0.0835472
0.0836089
0.083678
0.0837538
0.083834
0.0839141
0.0839874
0.0840465
0.0840861
0.0841057
0.0841107
0.0827592
0.082747
0.0827329
0.0827238
0.0827235
0.0827348
0.0827601
0.0828
0.0828533
0.0829178
0.0829906
0.0830683
0.083148
0.0832275
0.0833051
0.0833805
0.0834484
0.0835036
0.0835482
0.0835881
0.0836273
0.0836688
0.0837148
0.0837664
0.0838239
0.0838864
0.0839512
0.0840137
0.0840672
0.0841056
0.0841263
0.0841323
0.0829776
0.0829662
0.0829603
0.082964
0.0829769
0.0829986
0.0830304
0.0830723
0.0831237
0.0831828
0.0832474
0.0833147
0.0833826
0.0834491
0.0835132
0.0835745
0.083629
0.0836725
0.0837069
0.0837368
0.0837653
0.0837949
0.0838272
0.0838634
0.083904
0.0839489
0.0839971
0.084046
0.0840904
0.0841245
0.0841446
0.0841512
0.083247
0.0832421
0.0832516
0.0832707
0.0832947
0.0833222
0.0833541
0.0833908
0.0834325
0.0834787
0.0835279
0.0835783
0.0836285
0.0836773
0.0837238
0.0837678
0.0838066
0.0838371
0.083861
0.0838814
0.0839004
0.0839197
0.0839404
0.0839636
0.0839896
0.0840187
0.0840507
0.0840844
0.084117
0.0841439
0.0841611
0.0841676
0.0835774
0.0835847
0.0836064
0.0836303
0.0836537
0.0836766
0.0836999
0.0837244
0.0837509
0.0837794
0.0838092
0.0838395
0.0838694
0.0838983
0.0839257
0.0839516
0.0839741
0.0839919
0.0840056
0.0840171
0.0840277
0.0840384
0.0840497
0.0840622
0.0840762
0.0840919
0.0841095
0.0841284
0.0841476
0.0841646
0.0841766
0.0841817
0.0839814
0.0839875
0.083999
0.0840098
0.0840194
0.0840283
0.0840368
0.0840453
0.0840543
0.0840637
0.0840735
0.0840834
0.0840932
0.0841026
0.0841115
0.0841199
0.0841272
0.0841329
0.0841373
0.084141
0.0841444
0.0841477
0.0841512
0.0841551
0.0841594
0.0841643
0.0841697
0.0841756
0.0841817
0.0841874
0.0841917
0.0841938
)
;

boundaryField
{
    movingWall
    {
        type            fixedValue;
        value           uniform 0.0842;
    }
    fixedWalls
    {
        type            zeroGradient;
    }
    floor
    {
        type            zeroGradient;
    }
    frontAndBack
    {
        type            empty;
    }
}


// ************************************************************************* //
