/*--------------------------------*- C++ -*----------------------------------*\
| =========                 |                                                 |
| \\      /  F ield         | OpenFOAM: The Open Source CFD Toolbox           |
|  \\    /   O peration     | Version:  2212                                  |
|   \\  /    A nd           | Website:  www.openfoam.com                      |
|    \\/     M anipulation  |                                                 |
\*---------------------------------------------------------------------------*/
FoamFile
{
    version     2.0;
    format      ascii;
    arch        "LSB;label=64;scalar=64";
    class       volScalarField;
    location    "1820";
    object      Gco2;
}
// * * * * * * * * * * * * * * * * * * * * * * * * * * * * * * * * * * * * * //

dimensions      [1 -3 0 0 0 0 0];

internalField   nonuniform List<scalar> 
1024
(
0.0510099
0.0509845
0.0509221
0.0508076
0.0506221
0.050344
0.0499507
0.049423
0.0487508
0.0479388
0.0470121
0.0460154
0.0450055
0.0440403
0.0431689
0.042436
0.0419426
0.0417634
0.0418624
0.0421861
0.0426827
0.0432955
0.0439644
0.0446266
0.045227
0.0457294
0.0461202
0.046404
0.0465961
0.0467156
0.0467808
0.0468073
0.0510019
0.0509763
0.0509133
0.0507976
0.0506103
0.0503294
0.0499323
0.0494
0.0487227
0.047906
0.0469757
0.0459766
0.044966
0.0440009
0.0431299
0.0423967
0.041902
0.0417208
0.0418182
0.0421416
0.0426392
0.043254
0.043926
0.0445925
0.0451981
0.045706
0.0461016
0.0463891
0.0465836
0.0467043
0.0467702
0.0467969
0.0509824
0.0509563
0.050892
0.0507739
0.0505824
0.0502952
0.0498897
0.0493471
0.0486587
0.0478316
0.046893
0.045889
0.0448764
0.0439113
0.0430402
0.0423047
0.0418043
0.0416163
0.0417097
0.0420347
0.0425389
0.0431626
0.0438442
0.044521
0.0451376
0.0456562
0.046061
0.0463553
0.0465542
0.0466775
0.0467444
0.0467716
0.0509472
0.0509203
0.0508539
0.0507317
0.0505335
0.0502361
0.0498167
0.0492573
0.0485506
0.0477064
0.0467544
0.0457422
0.0447263
0.0437601
0.0428865
0.0421434
0.0416288
0.0414253
0.0415113
0.0418426
0.0423649
0.0430109
0.043714
0.0444102
0.0450443
0.0455784
0.0459957
0.046299
0.0465035
0.0466297
0.0466979
0.0467253
0.0508918
0.0508637
0.0507944
0.0506664
0.0504584
0.0501464
0.0497072
0.0491235
0.0483908
0.0475223
0.0465513
0.0455273
0.0445055
0.0435354
0.0426539
0.0418935
0.0413502
0.0411179
0.0411919
0.0415369
0.0420949
0.0427844
0.0435278
0.0442567
0.0449167
0.0454706
0.0459025
0.0462153
0.0464252
0.0465538
0.0466226
0.04665
0.0508115
0.050782
0.0507089
0.0505733
0.0503525
0.0500212
0.0495559
0.0489406
0.0481737
0.0472733
0.0462773
0.045237
0.0442054
0.0432257
0.0423267
0.0415332
0.0409406
0.0406618
0.0407179
0.0410855
0.0417006
0.0424616
0.0432715
0.0440522
0.044749
0.0453278
0.0457751
0.0460963
0.0463096
0.0464385
0.0465064
0.0465329
0.0507022
0.0506711
0.0505934
0.0504487
0.0502123
0.0498573
0.0493599
0.0487056
0.047897
0.0469574
0.0459298
0.0448672
0.043819
0.0428202
0.0418892
0.0410416
0.0403742
0.0400275
0.0400574
0.0404534
0.0411453
0.0420078
0.0429161
0.0437738
0.0445229
0.0451331
0.0455965
0.0459237
0.0461368
0.0462628
0.0463272
0.0463515
0.050561
0.0505282
0.0504455
0.0502906
0.0500362
0.049654
0.0491195
0.04842
0.0475626
0.0465766
0.0455103
0.0444175
0.043343
0.0423116
0.0413304
0.0404048
0.0396354
0.0391972
0.0391856
0.0396041
0.0403791
0.0413649
0.0424031
0.0433682
0.0441912
0.0448436
0.0453258
0.0456569
0.045866
0.0459848
0.0460426
0.0460628
0.050387
0.0503526
0.0502649
0.0500991
0.0498256
0.049414
0.0488389
0.0480897
0.0471778
0.0461387
0.0450255
0.0438929
0.04278
0.0417012
0.0406517
0.0396273
0.0387327
0.0381772
0.0380935
0.0385009
0.0393328
0.0404355
0.0416204
0.0427239
0.0436495
0.0443626
0.0448727
0.0452101
0.0454136
0.0455225
0.045571
0.0455858
0.0501818
0.0501459
0.0500534
0.0498771
0.0495848
0.0491434
0.0485267
0.0477256
0.0467553
0.0456573
0.0444895
0.0433074
0.0421452
0.0410081
0.0398809
0.0387491
0.037717
0.0370141
0.0368004
0.0371171
0.0379227
0.0390778
0.0403808
0.0416316
0.0426909
0.0434971
0.044059
0.0444172
0.0446226
0.0447246
0.0447645
0.0447739
0.0499496
0.0499125
0.0498159
0.0496304
0.049321
0.048852
0.0481958
0.0473437
0.0463145
0.0451548
0.0439279
0.0426914
0.0414773
0.0402846
0.0390899
0.0378668
0.0367035
0.0358195
0.0353863
0.0354765
0.0360959
0.037149
0.0384532
0.0397931
0.0409862
0.0419233
0.0425822
0.0429987
0.0432327
0.0433448
0.0433859
0.0433939
0.0496976
0.0496596
0.0495601
0.0493677
0.0490449
0.0485535
0.047864
0.0469674
0.0458847
0.0446676
0.0433857
0.0421022
0.0408513
0.039631
0.0384123
0.0371514
0.0358936
0.0348046
0.0340512
0.0337459
0.0339583
0.034663
0.0357357
0.0369868
0.0382176
0.0392714
0.040066
0.0405969
0.0409108
0.0410708
0.0411362
0.041153
0.0494371
0.0493987
0.0492978
0.0491018
0.0487718
0.0482674
0.0475569
0.0466302
0.0455098
0.0442522
0.0429352
0.0416319
0.0403857
0.0392004
0.038044
0.0368472
0.0355791
0.0343037
0.0331706
0.0323366
0.0319386
0.0320311
0.0325731
0.0334431
0.0344738
0.0354931
0.0363655
0.0370197
0.037451
0.0376986
0.0378168
0.0378563
0.0491855
0.0491471
0.0490467
0.0488522
0.0485242
0.0480213
0.0473102
0.0463793
0.0452514
0.0439876
0.0426753
0.0414025
0.04023
0.0391749
0.0382055
0.0372215
0.0360855
0.0347163
0.0332357
0.0318476
0.0307539
0.0300828
0.0298726
0.0300818
0.0306079
0.0313112
0.0320452
0.03269
0.0331769
0.0334934
0.0336645
0.0337304
0.0489691
0.0489314
0.048834
0.048647
0.0483331
0.0478519
0.0471694
0.0462728
0.0451837
0.0439656
0.0427152
0.0415386
0.0405203
0.0396993
0.0390497
0.0384425
0.037618
0.0363129
0.0346026
0.032736
0.0309852
0.0295525
0.0285448
0.0279839
0.0278258
0.0279791
0.0283243
0.0287371
0.0291155
0.0293995
0.029572
0.0296457
0.0488275
0.0487911
0.0486994
0.0485268
0.0482406
0.0478045
0.0471865
0.0463721
0.0453795
0.0442697
0.0431434
0.0421215
0.0413145
0.0407897
0.0405387
0.0404197
0.0400658
0.0390112
0.0372381
0.0350097
0.0326671
0.0305075
0.0287273
0.0274136
0.0265668
0.0261269
0.0259972
0.0260647
0.0262211
0.0263825
0.0264999
0.0265566
0.0488139
0.0487791
0.0486942
0.0485391
0.048288
0.0479113
0.0473813
0.0466834
0.04583
0.0448735
0.0439085
0.043059
0.0424512
0.0421789
0.0422614
0.0425776
0.0427184
0.0420684
0.0404629
0.0380868
0.035288
0.0324514
0.0299004
0.0278313
0.0263135
0.025319
0.0247586
0.0245145
0.0244657
0.0245078
0.0245674
0.0246043
0.0489307
0.0488971
0.048818
0.0486778
0.0484577
0.0481352
0.0476885
0.0471045
0.046391
0.0455893
0.0447806
0.0440781
0.043607
0.0434718
0.0437133
0.0442416
0.0446663
0.0443544
0.0430503
0.0408018
0.0378548
0.0345824
0.031398
0.0286259
0.026447
0.0249012
0.0239249
0.0233962
0.0231733
0.0231236
0.0231442
0.0231701
0.0491328
0.0491004
0.0490256
0.0488967
0.0486998
0.048419
0.0480387
0.0475487
0.0469543
0.0462874
0.0456136
0.045029
0.0446447
0.0445601
0.0448223
0.0453626
0.0458232
0.0456317
0.0445318
0.0424882
0.0396306
0.0362396
0.0327154
0.0294494
0.0267269
0.0246792
0.0232986
0.0224829
0.0220829
0.0219425
0.021928
0.0219461
0.0493767
0.0493463
0.0492768
0.0491584
0.0489806
0.0487323
0.0484032
0.0479875
0.0474902
0.0469367
0.0463785
0.0458919
0.0455669
0.0454844
0.0456818
0.0460927
0.0463991
0.0461331
0.0450848
0.0431913
0.0405043
0.0372061
0.0336095
0.0300932
0.0270016
0.0245515
0.0228085
0.0217134
0.0211298
0.0208906
0.0208371
0.0208469
0.0495975
0.0495724
0.049514
0.0494127
0.0492586
0.0490427
0.0487583
0.0484038
0.0479859
0.0475262
0.047064
0.0466553
0.0463632
0.0462408
0.0463017
0.0464694
0.0464794
0.0460002
0.0448904
0.0430789
0.0405671
0.0374635
0.0339885
0.0304488
0.0271801
0.0244547
0.0224142
0.0210614
0.0202932
0.0199476
0.0198496
0.0198498
0.0496892
0.0496759
0.0496414
0.0495748
0.0494631
0.0492951
0.0490636
0.0487691
0.0484201
0.0480349
0.0476414
0.0472736
0.0469651
0.0467372
0.0465779
0.0464021
0.0460207
0.0452552
0.0440316
0.0422761
0.0399487
0.0370906
0.0338493
0.0304584
0.0271969
0.0243389
0.0220847
0.0205093
0.0195622
0.0191039
0.0189552
0.0189438
0.0495061
0.0495142
0.0495231
0.0495188
0.0494817
0.049392
0.0492359
0.0490101
0.0487212
0.0483822
0.0480079
0.0476116
0.0472016
0.0467757
0.0463087
0.0457225
0.0449199
0.0438668
0.0425368
0.0408486
0.038731
0.036168
0.0332371
0.030107
0.026999
0.0241518
0.0217845
0.0200369
0.0189256
0.0183519
0.0181463
0.0181207
0.0488883
0.0489289
0.0490025
0.0490894
0.0491591
0.0491775
0.0491166
0.0489611
0.0487087
0.0483637
0.0479301
0.0474086
0.046797
0.0460888
0.0452649
0.0442695
0.0430953
0.0418182
0.0404348
0.0388501
0.0369726
0.0347452
0.0321859
0.0293985
0.0265496
0.0238373
0.0214675
0.0196167
0.0183692
0.0176836
0.0174162
0.0173733
0.0476984
0.0477814
0.0479339
0.0481239
0.0483058
0.0484297
0.0484495
0.048332
0.0480617
0.047636
0.0470566
0.046327
0.0454528
0.0444405
0.0432895
0.0419708
0.0405448
0.0391518
0.0377911
0.0363544
0.03474
0.0328688
0.0307172
0.0283324
0.0258243
0.0233468
0.0210815
0.0192125
0.0178744
0.0170903
0.0167592
0.0166959
0.0458456
0.0459768
0.0462029
0.0464684
0.0467123
0.0468761
0.0469049
0.0467507
0.0463889
0.0458183
0.0450486
0.0440966
0.042985
0.0417381
0.0403735
0.0388825
0.0373619
0.0359739
0.0347118
0.0334612
0.0321196
0.0306031
0.0288653
0.0269125
0.0248033
0.0226428
0.0205778
0.0187825
0.017417
0.0165617
0.0161708
0.016084
0.0432852
0.0434618
0.0437234
0.0439818
0.0441727
0.0442521
0.0441784
0.0439026
0.0434018
0.0426805
0.0417567
0.0406588
0.0394223
0.0380821
0.0366656
0.0351744
0.0337141
0.032439
0.0313358
0.0302947
0.0292212
0.0280383
0.0266931
0.0251681
0.0234839
0.0216995
0.0199175
0.0182855
0.0169681
0.0160847
0.0156464
0.0155348
0.0399933
0.0401962
0.0404116
0.0405319
0.0405268
0.0403977
0.0401342
0.0397015
0.0390832
0.0382813
0.037313
0.0362075
0.0350014
0.03373
0.0324216
0.0310811
0.0298044
0.0287216
0.0278157
0.0269917
0.0261701
0.0252869
0.0242935
0.0231636
0.0218953
0.0205128
0.0190743
0.0176864
0.0164962
0.0156415
0.0151805
0.0150465
0.0359246
0.0361061
0.0361538
0.036009
0.0357231
0.0353498
0.0349049
0.0343681
0.0337225
0.0329575
0.0320802
0.031111
0.0300785
0.0290113
0.0279328
0.0268485
0.0258344
0.0249899
0.0242989
0.0236871
0.0230936
0.0224701
0.021778
0.020992
0.0201014
0.0191101
0.0180424
0.0169601
0.0159729
0.0152119
0.0147651
0.0146173
0.0309691
0.0310371
0.0308086
0.0303863
0.0298902
0.0293814
0.0288762
0.028357
0.0278017
0.0271889
0.0265141
0.0257864
0.0250233
0.0242441
0.0234655
0.0226918
0.0219766
0.0213873
0.0209117
0.0204985
0.0201062
0.019702
0.0192594
0.0187593
0.0181909
0.0175504
0.0168433
0.0160962
0.0153733
0.0147735
0.0143889
0.0142444
0.0249162
0.0247688
0.0243384
0.0238567
0.0233875
0.0229541
0.0225611
0.0221921
0.0218261
0.0214422
0.0210316
0.0205955
0.0201421
0.0196822
0.0192253
0.0187744
0.0183601
0.0180206
0.0177489
0.0175156
0.0172973
0.0170758
0.0168359
0.0165668
0.0162613
0.0159155
0.0155289
0.0151091
0.0146831
0.0143039
0.014037
0.0139229
0.0175114
0.0173965
0.0171753
0.0169643
0.0167729
0.0166033
0.0164558
0.0163233
0.0161972
0.0160687
0.0159333
0.0157907
0.0156431
0.0154938
0.0153458
0.0152003
0.0150669
0.0149578
0.0148708
0.0147966
0.0147277
0.0146583
0.0145837
0.0145004
0.0144062
0.0142998
0.0141804
0.0140496
0.0139136
0.013787
0.0136905
0.0136439
)
;

boundaryField
{
    movingWall
    {
        type            fixedValue;
        value           uniform 0.0135;
    }
    fixedWalls
    {
        type            zeroGradient;
    }
    floor
    {
        type            zeroGradient;
    }
    frontAndBack
    {
        type            empty;
    }
}


// ************************************************************************* //
