/*--------------------------------*- C++ -*----------------------------------*\
| =========                 |                                                 |
| \\      /  F ield         | OpenFOAM: The Open Source CFD Toolbox           |
|  \\    /   O peration     | Version:  2212                                  |
|   \\  /    A nd           | Website:  www.openfoam.com                      |
|    \\/     M anipulation  |                                                 |
\*---------------------------------------------------------------------------*/
FoamFile
{
    version     2.0;
    format      ascii;
    arch        "LSB;label=64;scalar=64";
    class       volScalarField;
    location    "1820";
    object      p;
}
// * * * * * * * * * * * * * * * * * * * * * * * * * * * * * * * * * * * * * //

dimensions      [0 2 -2 0 0 0 0];

internalField   nonuniform List<scalar> 
1024
(
0
-3.70357e-07
-1.07238e-06
-1.82168e-06
-2.34118e-06
-2.42808e-06
-2.05847e-06
-1.38967e-06
-6.47135e-07
5.79668e-08
8.92932e-07
2.43387e-06
5.78081e-06
1.28794e-05
2.69211e-05
5.21341e-05
8.75046e-05
0.000117151
0.000120925
9.73339e-05
5.30278e-05
2.5355e-06
-3.85176e-05
-6.54381e-05
-8.14347e-05
-9.04084e-05
-9.5056e-05
-9.69268e-05
-9.68964e-05
-9.56525e-05
-9.39964e-05
-9.28081e-05
-0.0928115
-0.0928119
-0.0928125
-0.0928132
-0.0928136
-0.0928137
-0.0928135
-0.092813
-0.0928124
-0.0928118
-0.0928111
-0.0928097
-0.0928065
-0.0927996
-0.092786
-0.0927613
-0.0927268
-0.0926983
-0.0926955
-0.0927193
-0.0927627
-0.0928119
-0.0928516
-0.0928774
-0.0928925
-0.0929009
-0.0929052
-0.092907
-0.0929071
-0.0929061
-0.0929047
-0.0929035
-0.199425
-0.199425
-0.199426
-0.199426
-0.199427
-0.199427
-0.199427
-0.199427
-0.199426
-0.199426
-0.199426
-0.199425
-0.199422
-0.199416
-0.199403
-0.199379
-0.199346
-0.199319
-0.199317
-0.199341
-0.199384
-0.199431
-0.199469
-0.199493
-0.199507
-0.199514
-0.199518
-0.199519
-0.199519
-0.199519
-0.199517
-0.199515
-0.321892
-0.321893
-0.321893
-0.321894
-0.321895
-0.321895
-0.321895
-0.321896
-0.321896
-0.321896
-0.321896
-0.321896
-0.321894
-0.321888
-0.321877
-0.321854
-0.321823
-0.321798
-0.321798
-0.321822
-0.321864
-0.32191
-0.321946
-0.321968
-0.32198
-0.321985
-0.321987
-0.321988
-0.321987
-0.321986
-0.321985
-0.321983
-0.462572
-0.462573
-0.462574
-0.462575
-0.462576
-0.462576
-0.462577
-0.462578
-0.462579
-0.46258
-0.462581
-0.462581
-0.462581
-0.462577
-0.462567
-0.462547
-0.462518
-0.462495
-0.462496
-0.462522
-0.462562
-0.462606
-0.462641
-0.46266
-0.462669
-0.462672
-0.462672
-0.462671
-0.46267
-0.462669
-0.462667
-0.462664
-0.624173
-0.624174
-0.624176
-0.624177
-0.624178
-0.624179
-0.624181
-0.624182
-0.624184
-0.624187
-0.624189
-0.624191
-0.624193
-0.624191
-0.624183
-0.624166
-0.62414
-0.62412
-0.624122
-0.624148
-0.624187
-0.624229
-0.624263
-0.62428
-0.624285
-0.624285
-0.624283
-0.62428
-0.624278
-0.624276
-0.624273
-0.624271
-0.809809
-0.80981
-0.809812
-0.809814
-0.809815
-0.809817
-0.809819
-0.809822
-0.809825
-0.809829
-0.809834
-0.809838
-0.809842
-0.809843
-0.809839
-0.809825
-0.809803
-0.809785
-0.809788
-0.809813
-0.809851
-0.80989
-0.809921
-0.809936
-0.809938
-0.809935
-0.80993
-0.809926
-0.809922
-0.80992
-0.809918
-0.809916
-1.02305
-1.02306
-1.02306
-1.02306
-1.02306
-1.02306
-1.02307
-1.02307
-1.02308
-1.02308
-1.02309
-1.0231
-1.0231
-1.02311
-1.02311
-1.0231
-1.02308
-1.02307
-1.02307
-1.02309
-1.02312
-1.02316
-1.02319
-1.0232
-1.0232
-1.02319
-1.02319
-1.02318
-1.02318
-1.02317
-1.02317
-1.02317
-1.26802
-1.26802
-1.26802
-1.26802
-1.26803
-1.26803
-1.26803
-1.26804
-1.26805
-1.26806
-1.26807
-1.26808
-1.26809
-1.2681
-1.2681
-1.2681
-1.26808
-1.26807
-1.26807
-1.26809
-1.26811
-1.26814
-1.26816
-1.26817
-1.26817
-1.26816
-1.26816
-1.26815
-1.26815
-1.26814
-1.26814
-1.26814
-1.54942
-1.54942
-1.54942
-1.54942
-1.54943
-1.54943
-1.54944
-1.54945
-1.54945
-1.54947
-1.54948
-1.54949
-1.54951
-1.54952
-1.54953
-1.54953
-1.54952
-1.54951
-1.54951
-1.54951
-1.54953
-1.54955
-1.54956
-1.54956
-1.54956
-1.54955
-1.54955
-1.54954
-1.54954
-1.54954
-1.54954
-1.54954
-1.87268
-1.87268
-1.87268
-1.87268
-1.87269
-1.87269
-1.8727
-1.87271
-1.87272
-1.87273
-1.87275
-1.87277
-1.87279
-1.87281
-1.87282
-1.87283
-1.87282
-1.87281
-1.8728
-1.8728
-1.8728
-1.8728
-1.8728
-1.87279
-1.87279
-1.87278
-1.87278
-1.87277
-1.87277
-1.87277
-1.87277
-1.87277
-2.24402
-2.24402
-2.24402
-2.24403
-2.24403
-2.24404
-2.24404
-2.24405
-2.24407
-2.24408
-2.2441
-2.24413
-2.24415
-2.24417
-2.24419
-2.24421
-2.2442
-2.24419
-2.24418
-2.24416
-2.24415
-2.24413
-2.24411
-2.24409
-2.24408
-2.24407
-2.24407
-2.24407
-2.24407
-2.24408
-2.24408
-2.24408
-2.6706
-2.6706
-2.6706
-2.67061
-2.67061
-2.67062
-2.67062
-2.67064
-2.67065
-2.67067
-2.67069
-2.67072
-2.67074
-2.67077
-2.6708
-2.67082
-2.67082
-2.67081
-2.67079
-2.67076
-2.67073
-2.6707
-2.67067
-2.67064
-2.67062
-2.67061
-2.6706
-2.6706
-2.67061
-2.67061
-2.67061
-2.67061
-3.16063
-3.16063
-3.16063
-3.16063
-3.16064
-3.16064
-3.16065
-3.16067
-3.16068
-3.1607
-3.16073
-3.16075
-3.16078
-3.16082
-3.16085
-3.16087
-3.16088
-3.16087
-3.16085
-3.16082
-3.16077
-3.16073
-3.16069
-3.16065
-3.16062
-3.1606
-3.1606
-3.1606
-3.1606
-3.1606
-3.1606
-3.16061
-3.72354
-3.72354
-3.72354
-3.72354
-3.72355
-3.72355
-3.72356
-3.72358
-3.72359
-3.72361
-3.72364
-3.72367
-3.7237
-3.72374
-3.72377
-3.7238
-3.72381
-3.72381
-3.72378
-3.72375
-3.72371
-3.72366
-3.72361
-3.72357
-3.72353
-3.72351
-3.7235
-3.7235
-3.7235
-3.7235
-3.7235
-3.72351
-4.37016
-4.37016
-4.37016
-4.37016
-4.37016
-4.37017
-4.37018
-4.37019
-4.37021
-4.37023
-4.37026
-4.37029
-4.37032
-4.37036
-4.37039
-4.37043
-4.37044
-4.37044
-4.37042
-4.37039
-4.37035
-4.3703
-4.37026
-4.37021
-4.37018
-4.37015
-4.37013
-4.37013
-4.37013
-4.37013
-4.37013
-4.37014
-5.06151
-5.06151
-5.06151
-5.06151
-5.06151
-5.06152
-5.06153
-5.06154
-5.06156
-5.06158
-5.06161
-5.06164
-5.06167
-5.06171
-5.06175
-5.06179
-5.0618
-5.0618
-5.06178
-5.06176
-5.06173
-5.06169
-5.06165
-5.06161
-5.06157
-5.06154
-5.06152
-5.06151
-5.06151
-5.06151
-5.06151
-5.06152
-5.70809
-5.70809
-5.70809
-5.70809
-5.70809
-5.7081
-5.70811
-5.70812
-5.70814
-5.70817
-5.70819
-5.70822
-5.70826
-5.7083
-5.70834
-5.70838
-5.70839
-5.70839
-5.70838
-5.70836
-5.70833
-5.7083
-5.70827
-5.70823
-5.70819
-5.70816
-5.70814
-5.70812
-5.70812
-5.70812
-5.70813
-5.70813
-6.27095
-6.27095
-6.27095
-6.27095
-6.27095
-6.27096
-6.27097
-6.27098
-6.271
-6.27103
-6.27105
-6.27109
-6.27113
-6.27117
-6.27121
-6.27125
-6.27127
-6.27126
-6.27125
-6.27123
-6.2712
-6.27118
-6.27115
-6.27112
-6.27108
-6.27105
-6.27103
-6.27101
-6.271
-6.27101
-6.27101
-6.27102
-6.76093
-6.76093
-6.76093
-6.76093
-6.76093
-6.76093
-6.76094
-6.76096
-6.76098
-6.761
-6.76103
-6.76107
-6.76111
-6.76116
-6.7612
-6.76124
-6.76126
-6.76126
-6.76124
-6.76122
-6.76119
-6.76117
-6.76114
-6.76111
-6.76108
-6.76104
-6.76101
-6.761
-6.76099
-6.76099
-6.76099
-6.761
-7.18747
-7.18747
-7.18747
-7.18747
-7.18747
-7.18747
-7.18748
-7.18749
-7.18751
-7.18754
-7.18757
-7.18761
-7.18766
-7.18771
-7.18776
-7.1878
-7.18783
-7.18782
-7.1878
-7.18778
-7.18774
-7.18771
-7.18768
-7.18765
-7.18761
-7.18758
-7.18754
-7.18751
-7.1875
-7.1875
-7.1875
-7.18751
-7.55879
-7.55879
-7.55879
-7.55879
-7.55879
-7.55879
-7.55879
-7.5588
-7.55882
-7.55884
-7.55888
-7.55892
-7.55897
-7.55903
-7.55909
-7.55914
-7.55916
-7.55916
-7.55914
-7.55911
-7.55907
-7.55903
-7.55899
-7.55895
-7.55891
-7.55886
-7.55881
-7.55877
-7.55875
-7.55874
-7.55875
-7.55876
-7.88204
-7.88204
-7.88204
-7.88204
-7.88204
-7.88204
-7.88203
-7.88204
-7.88205
-7.88207
-7.88211
-7.88216
-7.88221
-7.88228
-7.88235
-7.8824
-7.88243
-7.88243
-7.88241
-7.88237
-7.88233
-7.88228
-7.88223
-7.88217
-7.88211
-7.88205
-7.88198
-7.88192
-7.88188
-7.88187
-7.88187
-7.88188
-8.16345
-8.16345
-8.16345
-8.16345
-8.16344
-8.16343
-8.16343
-8.16342
-8.16343
-8.16345
-8.16349
-8.16354
-8.16361
-8.16368
-8.16376
-8.16382
-8.16385
-8.16385
-8.16383
-8.16379
-8.16374
-8.16368
-8.16361
-8.16354
-8.16345
-8.16336
-8.16327
-8.16318
-8.16311
-8.16308
-8.16307
-8.16308
-8.40843
-8.40843
-8.40843
-8.40843
-8.40842
-8.4084
-8.40839
-8.40838
-8.40838
-8.40839
-8.40844
-8.4085
-8.40857
-8.40866
-8.40874
-8.4088
-8.40884
-8.40884
-8.40882
-8.40878
-8.40873
-8.40866
-8.40857
-8.40847
-8.40835
-8.40822
-8.40808
-8.40796
-8.40785
-8.40778
-8.40776
-8.40777
-8.6217
-8.62171
-8.62171
-8.6217
-8.62168
-8.62166
-8.62163
-8.62161
-8.62161
-8.62163
-8.62168
-8.62174
-8.62183
-8.62192
-8.622
-8.62207
-8.62211
-8.62212
-8.6221
-8.62205
-8.62199
-8.62192
-8.62181
-8.62168
-8.62152
-8.62134
-8.62115
-8.62096
-8.6208
-8.62068
-8.62063
-8.62063
-8.80738
-8.80738
-8.80738
-8.80737
-8.80734
-8.80731
-8.80727
-8.80725
-8.80724
-8.80726
-8.80731
-8.80738
-8.80747
-8.80757
-8.80766
-8.80774
-8.80778
-8.80778
-8.80776
-8.80772
-8.80766
-8.80757
-8.80745
-8.80729
-8.80709
-8.80685
-8.80659
-8.80633
-8.80609
-8.80589
-8.80579
-8.80575
-8.96905
-8.96905
-8.96904
-8.96901
-8.96897
-8.96892
-8.96888
-8.96885
-8.96884
-8.96886
-8.96892
-8.969
-8.96909
-8.96919
-8.96929
-8.96936
-8.96941
-8.96942
-8.9694
-8.96935
-8.96928
-8.96918
-8.96905
-8.96887
-8.96863
-8.96834
-8.968
-8.96764
-8.96729
-8.96699
-8.96679
-8.96669
-9.10984
-9.10983
-9.10979
-9.10974
-9.10968
-9.10961
-9.10956
-9.10953
-9.10952
-9.10954
-9.1096
-9.10969
-9.10979
-9.10989
-9.10999
-9.11007
-9.11012
-9.11012
-9.1101
-9.11006
-9.10999
-9.10988
-9.10973
-9.10953
-9.10926
-9.10892
-9.10852
-9.10806
-9.10758
-9.10712
-9.10676
-9.10653
-9.23252
-9.23245
-9.23235
-9.23225
-9.23216
-9.23209
-9.23203
-9.23199
-9.23199
-9.23202
-9.23208
-9.23217
-9.23227
-9.23238
-9.23248
-9.23256
-9.23261
-9.23262
-9.2326
-9.23255
-9.23248
-9.23237
-9.23221
-9.232
-9.23171
-9.23133
-9.23088
-9.23033
-9.22971
-9.22904
-9.2284
-9.22785
-9.33966
-9.33926
-9.33902
-9.33888
-9.33877
-9.33869
-9.33863
-9.3386
-9.3386
-9.33863
-9.3387
-9.33879
-9.3389
-9.339
-9.33911
-9.33919
-9.33924
-9.33925
-9.33923
-9.33919
-9.33911
-9.339
-9.33884
-9.33862
-9.33832
-9.33793
-9.33744
-9.33684
-9.3361
-9.33519
-9.33409
-9.33283
-9.43351
-9.43227
-9.43181
-9.43166
-9.43156
-9.43149
-9.43143
-9.43141
-9.43141
-9.43145
-9.43152
-9.43161
-9.43172
-9.43183
-9.43194
-9.43202
-9.43207
-9.43208
-9.43207
-9.43202
-9.43194
-9.43183
-9.43167
-9.43145
-9.43115
-9.43076
-9.43026
-9.42963
-9.42882
-9.42772
-9.42611
-9.42385
)
;

boundaryField
{
    movingWall
    {
        type            calculated;
        value           nonuniform List<scalar> 
32
(
-9.47671
-9.47548
-9.47501
-9.47487
-9.47477
-9.47469
-9.47464
-9.47461
-9.47461
-9.47465
-9.47472
-9.47482
-9.47492
-9.47504
-9.47514
-9.47523
-9.47528
-9.47529
-9.47527
-9.47522
-9.47515
-9.47504
-9.47488
-9.47465
-9.47435
-9.47396
-9.47346
-9.47284
-9.47203
-9.47093
-9.46932
-9.46706
)
;
    }
    fixedWalls
    {
        type            calculated;
        value           nonuniform List<scalar> 
64
(
6.93889e-18
-0.0928115
-0.199425
-0.321892
-0.462572
-0.624173
-0.809809
-1.02305
-1.26802
-1.54942
-1.87268
-2.24402
-2.6706
-3.16063
-3.72354
-4.37016
-5.06151
-5.70809
-6.27095
-6.76093
-7.18747
-7.55879
-7.88204
-8.16345
-8.40843
-8.6217
-8.80738
-8.96905
-9.10984
-9.23252
-9.33966
-9.43351
-9.28081e-05
-0.0929035
-0.199515
-0.321983
-0.462664
-0.624271
-0.809916
-1.02317
-1.26814
-1.54954
-1.87277
-2.24408
-2.67061
-3.16061
-3.72351
-4.37014
-5.06152
-5.70813
-6.27102
-6.761
-7.18751
-7.55876
-7.88188
-8.16308
-8.40777
-8.62063
-8.80575
-8.96669
-9.10653
-9.22785
-9.33283
-9.42385
)
;
    }
    floor
    {
        type            calculated;
        value           nonuniform List<scalar> 
32
(
0.0431943
0.0431939
0.0431932
0.0431925
0.043192
0.0431919
0.0431923
0.043193
0.0431937
0.0431945
0.0431953
0.0431969
0.0432003
0.0432074
0.0432215
0.0432468
0.0432822
0.0433119
0.0433157
0.0432921
0.0432478
0.0431972
0.0431561
0.0431291
0.043113
0.043104
0.0430993
0.0430974
0.0430974
0.0430987
0.0431003
0.0431015
)
;
    }
    frontAndBack
    {
        type            empty;
    }
}


// ************************************************************************* //
