/*--------------------------------*- C++ -*----------------------------------*\
| =========                 |                                                 |
| \\      /  F ield         | OpenFOAM: The Open Source CFD Toolbox           |
|  \\    /   O peration     | Version:  2212                                  |
|   \\  /    A nd           | Website:  www.openfoam.com                      |
|    \\/     M anipulation  |                                                 |
\*---------------------------------------------------------------------------*/
FoamFile
{
    version     2.0;
    format      ascii;
    arch        "LSB;label=64;scalar=64";
    class       volVectorField;
    location    "1820";
    object      U;
}
// * * * * * * * * * * * * * * * * * * * * * * * * * * * * * * * * * * * * * //

dimensions      [0 1 -1 0 0 0 0];

internalField   nonuniform List<vector> 
1024
(
(3.09318e-06 -3.11771e-06 0)
(4.12349e-06 -1.05564e-06 0)
(-1.2147e-05 2.66101e-06 0)
(-5.19915e-05 5.62616e-06 0)
(-0.000113204 6.83144e-06 0)
(-0.000187651 6.4208e-06 0)
(-0.000265319 5.17388e-06 0)
(-0.000340003 3.99615e-06 0)
(-0.000412823 3.45389e-06 0)
(-0.00049138 3.60488e-06 0)
(-0.000585718 4.1928e-06 0)
(-0.000703939 4.88175e-06 0)
(-0.000849929 5.48459e-06 0)
(-0.0010205 5.71727e-06 0)
(-0.00119467 4.96352e-06 0)
(-0.00130903 2.07071e-06 0)
(-0.00123619 -4.91526e-06 0)
(-0.000811765 -1.69561e-05 0)
(-8.43854e-05 -2.6945e-05 0)
(0.000810484 -2.9834e-05 0)
(0.00147652 -2.00301e-05 0)
(0.00177925 -8.43559e-07 0)
(0.0017353 1.49889e-05 0)
(0.0015005 2.18843e-05 0)
(0.00120564 2.38311e-05 0)
(0.000912955 2.3895e-05 0)
(0.000644424 2.3534e-05 0)
(0.000408696 2.26994e-05 0)
(0.000215374 1.98516e-05 0)
(7.80351e-05 1.28514e-05 0)
(6.36228e-06 1.53013e-06 0)
(-6.94429e-06 -7.07644e-06 0)
(1.19794e-06 -4.36329e-06 0)
(-1.58254e-05 1.53766e-05 0)
(-7.70161e-05 4.62882e-05 0)
(-0.000196481 7.25771e-05 0)
(-0.000371645 8.5477e-05 0)
(-0.000585599 8.41185e-05 0)
(-0.000815323 7.38344e-05 0)
(-0.00104488 6.2436e-05 0)
(-0.00127511 5.57288e-05 0)
(-0.00152303 5.51968e-05 0)
(-0.00181244 5.88612e-05 0)
(-0.00216227 6.34349e-05 0)
(-0.00257859 6.60217e-05 0)
(-0.00304474 6.27626e-05 0)
(-0.00349309 4.69309e-05 0)
(-0.00374895 8.51415e-06 0)
(-0.00349345 -6.88111e-05 0)
(-0.00234193 -0.000185107 0)
(-0.000452206 -0.000294768 0)
(0.00190051 -0.000321752 0)
(0.00364556 -0.000226443 0)
(0.00452235 -5.99261e-05 0)
(0.0045441 9.63483e-05 0)
(0.00404696 0.000193016 0)
(0.0033359 0.000243087 0)
(0.00258228 0.000266556 0)
(0.00186557 0.000274952 0)
(0.00122705 0.000268219 0)
(0.00069979 0.000237125 0)
(0.000314687 0.000172964 0)
(8.87887e-05 8.3265e-05 0)
(2.3632e-06 6.55473e-06 0)
(-2.80062e-06 1.23008e-05 0)
(-5.18098e-05 7.7566e-05 0)
(-0.000173185 0.000160132 0)
(-0.000383226 0.000229341 0)
(-0.000677578 0.000265 0)
(-0.00103437 0.000263523 0)
(-0.00142303 0.000237255 0)
(-0.00182124 0.000206142 0)
(-0.0022285 0.000186013 0)
(-0.00266631 0.000181688 0)
(-0.00316553 0.000188297 0)
(-0.00374935 0.000196722 0)
(-0.00441917 0.00019795 0)
(-0.00513731 0.00018041 0)
(-0.00578628 0.000125891 0)
(-0.00609888 8.54093e-06 0)
(-0.00562182 -0.000211041 0)
(-0.00386425 -0.000528533 0)
(-0.00113206 -0.000838813 0)
(0.00232751 -0.00091912 0)
(0.00494051 -0.000668165 0)
(0.0064016 -0.000235028 0)
(0.00665699 0.000194235 0)
(0.00609967 0.000488576 0)
(0.00515058 0.000663706 0)
(0.00407052 0.000759926 0)
(0.00300167 0.00080255 0)
(0.00202796 0.000792248 0)
(0.0012094 0.000711602 0)
(0.000591415 0.000547406 0)
(0.000200198 0.000318366 0)
(1.6553e-05 8.73618e-05 0)
(-7.32059e-06 5.91171e-05 0)
(-9.5025e-05 0.000214115 0)
(-0.000288198 0.000380811 0)
(-0.00060182 0.000514826 0)
(-0.00102553 0.000583898 0)
(-0.00153224 0.000582221 0)
(-0.00208718 0.000532277 0)
(-0.00266508 0.000470925 0)
(-0.00326408 0.000428141 0)
(-0.00390556 0.000413727 0)
(-0.00461988 0.000418801 0)
(-0.00542663 0.000425537 0)
(-0.00631561 0.000414999 0)
(-0.00722382 0.00036371 0)
(-0.00798918 0.000237674 0)
(-0.00828296 -9.60718e-06 0)
(-0.00757478 -0.000448886 0)
(-0.00538811 -0.00105699 0)
(-0.00219849 -0.0016623 0)
(0.00187141 -0.00184643 0)
(0.00513637 -0.00139959 0)
(0.0071765 -0.000600191 0)
(0.00782902 0.00024037 0)
(0.0074044 0.000859252 0)
(0.00640857 0.00126022 0)
(0.00516984 0.0015025 0)
(0.00388479 0.00162487 0)
(0.00267935 0.00162883 0)
(0.00164132 0.00148975 0)
(0.000833444 0.00119039 0)
(0.000298641 0.00075547 0)
(2.85202e-05 0.000257577 0)
(-1.1891e-05 0.000147457 0)
(-0.00014127 0.000455002 0)
(-0.000413551 0.000749709 0)
(-0.000840972 0.000973646 0)
(-0.00140375 0.00108505 0)
(-0.00206759 0.00108029 0)
(-0.00279443 0.000997066 0)
(-0.00355801 0.000893391 0)
(-0.00435481 0.00081585 0)
(-0.00520182 0.000779807 0)
(-0.00612195 0.000771389 0)
(-0.00712418 0.000761934 0)
(-0.0081826 0.000719608 0)
(-0.00921094 0.00060626 0)
(-0.0100168 0.000370325 0)
(-0.0102451 -5.74393e-05 0)
(-0.00935428 -0.000781367 0)
(-0.00696094 -0.0017416 0)
(-0.00363198 -0.0026892 0)
(0.000399045 -0.00305158 0)
(0.00412375 -0.00245071 0)
(0.00669486 -0.00123391 0)
(0.00787496 0.000145915 0)
(0.00774728 0.00121471 0)
(0.00687953 0.00195136 0)
(0.00565665 0.0024279 0)
(0.00431577 0.00269267 0)
(0.00301678 0.00274614 0)
(0.00187278 0.00255627 0)
(0.000964622 0.00209896 0)
(0.000351531 0.00139558 0)
(3.47755e-05 0.000516527 0)
(-1.64372e-05 0.000290008 0)
(-0.00018814 0.000833706 0)
(-0.000541851 0.00131494 0)
(-0.00108689 0.00166011 0)
(-0.00179247 0.00182203 0)
(-0.00261544 0.00180734 0)
(-0.00351389 0.00167692 0)
(-0.00446044 0.00151455 0)
(-0.00544864 0.00138459 0)
(-0.00648771 0.00130754 0)
(-0.00758861 0.00126385 0)
(-0.00874641 0.00121322 0)
(-0.00992054 0.00110966 0)
(-0.0110103 0.000899646 0)
(-0.0118133 0.000514389 0)
(-0.0119822 -0.00013868 0)
(-0.0110221 -0.00119024 0)
(-0.00866145 -0.0025355 0)
(-0.00547121 -0.00382051 0)
(-0.0018753 -0.00443648 0)
(0.00195635 -0.00382865 0)
(0.00494781 -0.00221479 0)
(0.00669158 -0.000212062 0)
(0.00701642 0.00144166 0)
(0.0064229 0.00263064 0)
(0.00537344 0.0034345 0)
(0.00413934 0.00390951 0)
(0.00290538 0.00405315 0)
(0.00180347 0.00382494 0)
(0.000925828 0.00319287 0)
(0.000335439 0.00217257 0)
(3.27796e-05 0.000832049 0)
(-2.07424e-05 0.000500115 0)
(-0.000232371 0.00138477 0)
(-0.000663243 0.00212599 0)
(-0.0013202 0.00263098 0)
(-0.00216178 0.00285201 0)
(-0.00313562 0.00281667 0)
(-0.00419503 0.00261931 0)
(-0.00531004 0.00237502 0)
(-0.00646959 0.00216695 0)
(-0.00767377 0.00202014 0)
(-0.00892114 0.00190953 0)
(-0.0101946 0.00178394 0)
(-0.0114451 0.00158389 0)
(-0.0125701 0.00124165 0)
(-0.0133772 0.000672891 0)
(-0.0135523 -0.000236203 0)
(-0.0126785 -0.0016375 0)
(-0.0105603 -0.00337991 0)
(-0.00770544 -0.0049889 0)
(-0.00453877 -0.00586996 0)
(-0.00119133 -0.00546884 0)
(0.00205999 -0.00360857 0)
(0.00434962 -0.00095461 0)
(0.0052706 0.0014134 0)
(0.00505784 0.0031742 0)
(0.00430564 0.00438918 0)
(0.00332442 0.00512855 0)
(0.00231319 0.00538739 0)
(0.00141093 0.00512066 0)
(0.000706651 0.00429822 0)
(0.00024792 0.00294386 0)
(2.24772e-05 0.0011381 0)
(-2.42969e-05 0.000789124 0)
(-0.000268944 0.00213729 0)
(-0.000764149 0.00322472 0)
(-0.00151546 0.00393519 0)
(-0.00247304 0.00422572 0)
(-0.00357657 0.00415647 0)
(-0.0047741 0.00386684 0)
(-0.00603175 0.00350997 0)
(-0.00733317 0.00318992 0)
(-0.00867058 0.00293681 0)
(-0.0100337 0.00272129 0)
(-0.0113988 0.00248321 0)
(-0.0127165 0.0021516 0)
(-0.0138933 0.00164637 0)
(-0.0147601 0.000869426 0)
(-0.0150441 -0.000312155 0)
(-0.0144039 -0.00207141 0)
(-0.0126688 -0.00421662 0)
(-0.0102537 -0.00615579 0)
(-0.00751786 -0.0073039 0)
(-0.00463231 -0.00713099 0)
(-0.00173517 -0.0054392 0)
(0.0010071 -0.00222289 0)
(0.00267346 0.0010191 0)
(0.00296297 0.00345893 0)
(0.00261059 0.00513258 0)
(0.0020086 0.00615381 0)
(0.00135669 0.00651903 0)
(0.000786217 0.00619318 0)
(0.000366688 0.00517347 0)
(0.000116466 0.00352108 0)
(7.73973e-06 0.00135218 0)
(-2.64495e-05 0.00116182 0)
(-0.000292111 0.00310508 0)
(-0.000829834 0.00463352 0)
(-0.0016462 0.00560253 0)
(-0.00268727 0.00597777 0)
(-0.00388768 0.0058626 0)
(-0.00519097 0.00545305 0)
(-0.0065592 0.00494854 0)
(-0.00797171 0.00447828 0)
(-0.00941624 0.00407973 0)
(-0.010879 0.00372118 0)
(-0.0123357 0.00333567 0)
(-0.0137426 0.0028426 0)
(-0.0150197 0.00215062 0)
(-0.0160221 0.00114823 0)
(-0.0165094 -0.000316458 0)
(-0.0161919 -0.00243941 0)
(-0.014903 -0.0049935 0)
(-0.0129708 -0.00727979 0)
(-0.0106836 -0.00871873 0)
(-0.00819384 -0.00879892 0)
(-0.00561605 -0.00726101 0)
(-0.00305628 -0.00417326 0)
(-0.000814384 -0.000194892 0)
(0.00036325 0.00326276 0)
(0.000574514 0.00546733 0)
(0.000483636 0.0067556 0)
(0.000289801 0.00718894 0)
(0.000120324 0.00678024 0)
(2.29155e-05 0.00559019 0)
(-8.74322e-06 0.00374551 0)
(-4.82971e-06 0.00141358 0)
(-2.67354e-05 0.00161235 0)
(-0.000297717 0.0042778 0)
(-0.000849697 0.00634517 0)
(-0.00169359 0.0076346 0)
(-0.00277733 0.00812025 0)
(-0.00403485 0.00795533 0)
(-0.00540726 0.00740277 0)
(-0.00685367 0.00671794 0)
(-0.00835116 0.00606176 0)
(-0.00988655 0.00548274 0)
(-0.0114468 0.00494879 0)
(-0.0130106 0.00438721 0)
(-0.01454 0.00370826 0)
(-0.0159656 0.00280871 0)
(-0.017158 0.00156231 0)
(-0.0178957 -0.000201358 0)
(-0.0179154 -0.0026982 0)
(-0.0170769 -0.00566329 0)
(-0.0156384 -0.00831182 0)
(-0.0138165 -0.0100816 0)
(-0.0117098 -0.0104862 0)
(-0.00938124 -0.00922706 0)
(-0.00691425 -0.00629725 0)
(-0.00450761 -0.0021929 0)
(-0.00244378 0.00202681 0)
(-0.00143201 0.00491497 0)
(-0.000909674 0.00655906 0)
(-0.00061023 0.00710476 0)
(-0.000396567 0.006678 0)
(-0.000222079 0.00543765 0)
(-8.96454e-05 0.00358293 0)
(-1.11874e-05 0.00132357 0)
(-2.509e-05 0.00212298 0)
(-0.000284718 0.0056179 0)
(-0.000820593 0.00831872 0)
(-0.00165142 0.010001 0)
(-0.00273378 0.0106402 0)
(-0.00400619 0.0104387 0)
(-0.00541009 0.0097334 0)
(-0.00690309 0.00884589 0)
(-0.00846156 0.00797724 0)
(-0.0100732 0.00719149 0)
(-0.011727 0.00645738 0)
(-0.0134041 0.00569601 0)
(-0.0150685 0.00480739 0)
(-0.016654 0.00367484 0)
(-0.0180398 0.00215683 0)
(-0.0190242 6.85998e-05 0)
(-0.0193343 -0.00281628 0)
(-0.0189138 -0.00618143 0)
(-0.0179547 -0.00919887 0)
(-0.0165929 -0.0113474 0)
(-0.0148562 -0.0121827 0)
(-0.012746 -0.0114025 0)
(-0.010305 -0.00894399 0)
(-0.00767796 -0.00511592 0)
(-0.00511967 -0.000662893 0)
(-0.00311184 0.00311781 0)
(-0.00191739 0.00528688 0)
(-0.00116249 0.00611821 0)
(-0.000657356 0.00585857 0)
(-0.00031797 0.00476504 0)
(-0.00011033 0.00310712 0)
(-1.07362e-05 0.00112883 0)
(-2.17299e-05 0.00266511 0)
(-0.000254261 0.00706139 0)
(-0.000744473 0.0104786 0)
(-0.00152159 0.0126366 0)
(-0.00255738 0.0134955 0)
(-0.00380048 0.0132958 0)
(-0.00519531 0.012449 0)
(-0.00669839 0.011352 0)
(-0.00828478 0.0102559 0)
(-0.00994228 0.0092454 0)
(-0.0116603 0.00829084 0)
(-0.0134195 0.00730572 0)
(-0.015182 0.00617855 0)
(-0.0168803 0.00477917 0)
(-0.0184012 0.00295302 0)
(-0.0195683 0.000508991 0)
(-0.0201315 -0.00276826 0)
(-0.0200752 -0.00650827 0)
(-0.0195581 -0.00989393 0)
(-0.0186285 -0.0124777 0)
(-0.0172446 -0.0138787 0)
(-0.0153564 -0.0138106 0)
(-0.0129771 -0.0121565 0)
(-0.0102289 -0.00905493 0)
(-0.00735537 -0.00495891 0)
(-0.00469167 -0.000645515 0)
(-0.00267293 0.00268209 0)
(-0.00142652 0.00423012 0)
(-0.000688574 0.00448729 0)
(-0.000278742 0.00381773 0)
(-7.70141e-05 0.0025475 0)
(-3.51697e-06 0.000939985 0)
(-1.68466e-05 0.00319841 0)
(-0.000207408 0.00851393 0)
(-0.000622793 0.0127064 0)
(-0.00130421 0.0154291 0)
(-0.00224446 0.0166005 0)
(-0.00340795 0.0164725 0)
(-0.00474425 0.0155207 0)
(-0.00620745 0.0142234 0)
(-0.00776822 0.0128933 0)
(-0.00941148 0.0116436 0)
(-0.0111251 0.0104481 0)
(-0.0128881 0.00921245 0)
(-0.0146613 0.00781387 0)
(-0.016379 0.00611153 0)
(-0.017942 0.00394405 0)
(-0.0192076 0.00112534 0)
(-0.0199772 -0.0025325 0)
(-0.020217 -0.00661061 0)
(-0.0200932 -0.0103528 0)
(-0.0195694 -0.0134229 0)
(-0.0185474 -0.0155222 0)
(-0.0169414 -0.0163815 0)
(-0.014748 -0.015814 0)
(-0.0120797 -0.0137853 0)
(-0.0091604 -0.0104894 0)
(-0.00629051 -0.00641468 0)
(-0.0038003 -0.00232957 0)
(-0.00196822 0.000872875 0)
(-0.000874605 0.00244561 0)
(-0.000310631 0.00267528 0)
(-6.86255e-05 0.00202665 0)
(7.89999e-07 0.000820864 0)
(-1.05031e-05 0.00366584 0)
(-0.00014435 0.00983639 0)
(-0.000454506 0.0148172 0)
(-0.000993798 0.0181889 0)
(-0.001781 0.0197926 0)
(-0.00280255 0.0198445 0)
(-0.0040164 0.0188544 0)
(-0.00537208 0.0173815 0)
(-0.00683098 0.0158152 0)
(-0.00837108 0.0143112 0)
(-0.00997774 0.012854 0)
(-0.0116309 0.0113433 0)
(-0.0132955 0.0096473 0)
(-0.0149161 0.00761881 0)
(-0.0164142 0.00509669 0)
(-0.0176856 0.00190861 0)
(-0.0185951 -0.00209854 0)
(-0.0190546 -0.00645782 0)
(-0.0192799 -0.0105156 0)
(-0.0191608 -0.0140863 0)
(-0.0185576 -0.0169702 0)
(-0.0173537 -0.0189151 0)
(-0.0155203 -0.0196517 0)
(-0.0131422 -0.0189571 0)
(-0.0104122 -0.0167487 0)
(-0.00760001 -0.0132031 0)
(-0.00500401 -0.00886095 0)
(-0.00288774 -0.00458973 0)
(-0.0014058 -0.00126254 0)
(-0.000543616 0.000608593 0)
(-0.000138474 0.00110327 0)
(-4.21537e-06 0.000608958 0)
(-2.95314e-06 0.0039888 0)
(-6.67645e-05 0.0108289 0)
(-0.000241852 0.0165301 0)
(-0.000589096 0.0206062 0)
(-0.00115553 0.0227827 0)
(-0.0019571 0.0231695 0)
(-0.00296731 0.0222509 0)
(-0.00413186 0.0206494 0)
(-0.00539762 0.0188493 0)
(-0.00673003 0.0170757 0)
(-0.00811045 0.0153401 0)
(-0.00952366 0.0135432 0)
(-0.0109469 0.0115466 0)
(-0.0123446 0.00920002 0)
(-0.0136654 0.00634689 0)
(-0.014843 0.00283036 0)
(-0.015811 -0.0014662 0)
(-0.0164109 -0.00601752 0)
(-0.0169499 -0.0102879 0)
(-0.0172605 -0.0142914 0)
(-0.0171711 -0.0179529 0)
(-0.0165301 -0.0210539 0)
(-0.0152619 -0.0232599 0)
(-0.0133959 -0.0241761 0)
(-0.0110661 -0.0234532 0)
(-0.00849133 -0.0209287 0)
(-0.00594292 -0.0168012 0)
(-0.00369807 -0.0117593 0)
(-0.00197083 -0.00686917 0)
(-0.000840101 -0.00309102 0)
(-0.000239612 -0.000819582 0)
(-1.25882e-05 7.15101e-05 0)
(4.4992e-06 0.00407143 0)
(1.28373e-05 0.011232 0)
(-1.25537e-05 0.01746 0)
(-0.000127332 0.0222215 0)
(-0.000403577 0.0251066 0)
(-0.000891638 0.0260401 0)
(-0.00159607 0.0253786 0)
(-0.00246911 0.0237501 0)
(-0.00344222 0.0217427 0)
(-0.00446178 0.0196906 0)
(-0.00549848 0.0176676 0)
(-0.00654029 0.0155934 0)
(-0.00758175 0.0133274 0)
(-0.00861725 0.0107146 0)
(-0.00963679 0.00759688 0)
(-0.0106203 0.00382062 0)
(-0.0115762 -0.000695503 0)
(-0.0122513 -0.00528333 0)
(-0.0130622 -0.00955915 0)
(-0.0138278 -0.0137917 0)
(-0.0143522 -0.018064 0)
(-0.0144407 -0.0222313 0)
(-0.0139452 -0.0259447 0)
(-0.0128118 -0.0286781 0)
(-0.0110957 -0.0298445 0)
(-0.00895129 -0.0289396 0)
(-0.00661261 -0.0257473 0)
(-0.00435978 -0.0205757 0)
(-0.00246595 -0.0143822 0)
(-0.00111606 -0.00848875 0)
(-0.000340994 -0.00389478 0)
(-2.24805e-05 -0.000884434 0)
(1.08633e-05 0.00387766 0)
(8.47478e-05 0.0109127 0)
(0.000195158 0.0172909 0)
(0.000296467 0.0224904 0)
(0.000315651 0.026033 0)
(0.000183165 0.0276689 0)
(-0.000152679 0.0275041 0)
(-0.00067479 0.0260311 0)
(-0.00131157 0.023912 0)
(-0.00198745 0.0216157 0)
(-0.00264351 0.0193246 0)
(-0.0032543 0.0170113 0)
(-0.00382304 0.0145481 0)
(-0.00436457 0.0117821 0)
(-0.00489923 0.00856164 0)
(-0.00543543 0.00474127 0)
(-0.00595087 0.00023497 0)
(-0.00678455 -0.0042287 0)
(-0.00776689 -0.00823429 0)
(-0.00893494 -0.0123404 0)
(-0.010095 -0.0168481 0)
(-0.0110267 -0.0217629 0)
(-0.0114898 -0.0268227 0)
(-0.0113104 -0.0314287 0)
(-0.010436 -0.0347977 0)
(-0.00893589 -0.0360881 0)
(-0.00699272 -0.0346166 0)
(-0.00487711 -0.0301555 0)
(-0.00290781 -0.0232665 0)
(-0.00137701 -0.0153604 0)
(-0.000438098 -0.00805126 0)
(-3.15265e-05 -0.00225388 0)
(1.52579e-05 0.00348133 0)
(0.000139132 0.0100299 0)
(0.0003584 0.0162449 0)
(0.000637364 0.0216187 0)
(0.000903568 0.0256175 0)
(0.00107754 0.0278604 0)
(0.00109253 0.0282815 0)
(0.000927337 0.0271957 0)
(0.000623344 0.0251656 0)
(0.000265216 0.0227225 0)
(-5.81592e-05 0.0201713 0)
(-0.00028884 0.0176304 0)
(-0.000420419 0.015016 0)
(-0.000477181 0.0121653 0)
(-0.000496531 0.00891665 0)
(-0.000562916 0.00511493 0)
(-0.00049578 0.000766456 0)
(-0.0013271 -0.00326086 0)
(-0.00233349 -0.00675192 0)
(-0.00363197 -0.0103092 0)
(-0.00516266 -0.0144825 0)
(-0.00675881 -0.0194922 0)
(-0.00813346 -0.0253526 0)
(-0.00897051 -0.0314889 0)
(-0.00908142 -0.0370072 0)
(-0.00841285 -0.0407783 0)
(-0.00706036 -0.0416619 0)
(-0.00525045 -0.0388132 0)
(-0.0033162 -0.032144 0)
(-0.00164496 -0.0227733 0)
(-0.000541518 -0.0127692 0)
(-4.09993e-05 -0.00386558 0)
(1.72874e-05 0.00300336 0)
(0.000173271 0.00887011 0)
(0.000470995 0.0147021 0)
(0.000887556 0.0200346 0)
(0.00135423 0.0243069 0)
(0.00178706 0.0270371 0)
(0.00210834 0.0280075 0)
(0.00227486 0.0273636 0)
(0.00230295 0.0255474 0)
(0.00226717 0.0230842 0)
(0.00226626 0.020375 0)
(0.00237866 0.0176365 0)
(0.00263227 0.0148712 0)
(0.00299803 0.0119545 0)
(0.00340178 0.00872275 0)
(0.00370359 0.00499932 0)
(0.0038567 0.00109433 0)
(0.00311006 -0.00237185 0)
(0.00205603 -0.00545116 0)
(0.000817291 -0.00841774 0)
(-0.000793996 -0.0120461 0)
(-0.00263599 -0.0165076 0)
(-0.00459544 -0.022429 0)
(-0.00625627 -0.0293966 0)
(-0.00729553 -0.0365623 0)
(-0.00750964 -0.0426152 0)
(-0.00686778 -0.0460508 0)
(-0.00550615 -0.0454462 0)
(-0.00372119 -0.0399386 0)
(-0.00195313 -0.0299637 0)
(-0.000669634 -0.0176468 0)
(-5.36096e-05 -0.0055976 0)
(1.72112e-05 0.00252846 0)
(0.000186172 0.00765528 0)
(0.000526511 0.0129844 0)
(0.00103171 0.018117 0)
(0.00164402 0.0224985 0)
(0.00228273 0.0255785 0)
(0.00286612 0.0270126 0)
(0.003339 0.0267962 0)
(0.00369935 0.0252493 0)
(0.00400489 0.0228571 0)
(0.00434757 0.0200713 0)
(0.00481023 0.0171961 0)
(0.00542811 0.0143274 0)
(0.00616416 0.0113996 0)
(0.00690708 0.0082711 0)
(0.00745496 0.00479159 0)
(0.00755334 0.00134441 0)
(0.00676535 -0.00168494 0)
(0.00558645 -0.00441794 0)
(0.0042164 -0.00704794 0)
(0.00267979 -0.00990809 0)
(0.000944455 -0.0135128 0)
(-0.00123065 -0.0190179 0)
(-0.00342662 -0.0261195 0)
(-0.00523993 -0.0343022 0)
(-0.00630965 -0.0422153 0)
(-0.00644548 -0.0481176 0)
(-0.0056494 -0.0501071 0)
(-0.00412903 -0.0465332 0)
(-0.00231972 -0.0368528 0)
(-0.000835508 -0.0227131 0)
(-7.00466e-05 -0.00747832 0)
(1.53983e-05 0.00211005 0)
(0.000178826 0.00653899 0)
(0.000523764 0.0113318 0)
(0.00106192 0.0161648 0)
(0.00175482 0.0205168 0)
(0.00253562 0.0238009 0)
(0.00332949 0.0255753 0)
(0.00408044 0.0257113 0)
(0.00477606 0.0244226 0)
(0.00545496 0.0221466 0)
(0.00618716 0.0193582 0)
(0.00703726 0.0164256 0)
(0.00802736 0.0135248 0)
(0.00910569 0.0106534 0)
(0.010132 0.00770647 0)
(0.0108578 0.0045711 0)
(0.0109315 0.00161461 0)
(0.0101001 -0.000945132 0)
(0.00879167 -0.00330074 0)
(0.00721368 -0.0056352 0)
(0.00549847 -0.00820584 0)
(0.0037178 -0.0113439 0)
(0.00178405 -0.0156894 0)
(-0.00056898 -0.022356 0)
(-0.0029205 -0.0309112 0)
(-0.00477045 -0.0401157 0)
(-0.00573493 -0.0481742 0)
(-0.00562985 -0.0528552 0)
(-0.00451645 -0.0517967 0)
(-0.00275736 -0.0433155 0)
(-0.00106171 -0.0279969 0)
(-9.44181e-05 -0.00955213 0)
(1.19606e-05 0.00177971 0)
(0.000150327 0.00562235 0)
(0.000457758 0.00991527 0)
(0.000965338 0.0144028 0)
(0.00166391 0.0186122 0)
(0.00251483 0.0219499 0)
(0.00346454 0.0239105 0)
(0.00446828 0.0242756 0)
(0.00550968 0.023181 0)
(0.0066043 0.0210256 0)
(0.007784 0.0182924 0)
(0.00907233 0.015387 0)
(0.0104586 0.0125389 0)
(0.0118695 0.00979595 0)
(0.0131459 0.00708983 0)
(0.0140174 0.00433495 0)
(0.0141037 0.00184535 0)
(0.0132872 -0.000271254 0)
(0.0119128 -0.00223085 0)
(0.0102006 -0.00421868 0)
(0.00830035 -0.00648323 0)
(0.00633215 -0.00934593 0)
(0.00434201 -0.0132689 0)
(0.00221066 -0.0188443 0)
(-0.000289028 -0.0269401 0)
(-0.00275905 -0.0367976 0)
(-0.0045785 -0.0465161 0)
(-0.00531204 -0.0537512 0)
(-0.00479659 -0.0555827 0)
(-0.00324191 -0.0491635 0)
(-0.00136811 -0.0334995 0)
(-0.000132305 -0.0118875 0)
(6.18471e-06 0.00155973 0)
(9.3353e-05 0.00498006 0)
(0.000308807 0.00886332 0)
(0.000708462 0.0129986 0)
(0.00133013 0.0169661 0)
(0.00218158 0.0201973 0)
(0.00324396 0.0221649 0)
(0.00449183 0.0226036 0)
(0.00590507 0.0216075 0)
(0.00746612 0.0195542 0)
(0.00915112 0.0169232 0)
(0.0109244 0.0141279 0)
(0.0127304 0.0114195 0)
(0.0144722 0.00887489 0)
(0.015982 0.00645271 0)
(0.0169931 0.00408331 0)
(0.0171327 0.00201637 0)
(0.0164591 0.000324339 0)
(0.0150759 -0.00125616 0)
(0.0133358 -0.00289995 0)
(0.0113639 -0.00485012 0)
(0.0092757 -0.00742719 0)
(0.00714859 -0.0110396 0)
(0.00497234 -0.0161445 0)
(0.00260575 -0.0231743 0)
(-0.000129994 -0.0326533 0)
(-0.00275163 -0.0434008 0)
(-0.00447816 -0.0528276 0)
(-0.00481349 -0.057697 0)
(-0.00370366 -0.0541009 0)
(-0.0017695 -0.0391138 0)
(-0.000193587 -0.0145581 0)
(-4.11171e-06 0.00147586 0)
(-1.53365e-05 0.00468704 0)
(2.16789e-05 0.00828962 0)
(0.000212814 0.01208 0)
(0.000679106 0.0156949 0)
(0.00148974 0.0186339 0)
(0.00265727 0.020412 0)
(0.00417205 0.0207583 0)
(0.00600351 0.0197611 0)
(0.00808545 0.0177914 0)
(0.0103219 0.0153076 0)
(0.0126098 0.0127 0)
(0.0148486 0.01021 0)
(0.0169227 0.00792196 0)
(0.0186683 0.00581059 0)
(0.0198435 0.00381342 0)
(0.020111 0.00211743 0)
(0.0195791 0.000784251 0)
(0.0183671 -0.00044885 0)
(0.0167751 -0.00177497 0)
(0.0149087 -0.00341613 0)
(0.0128554 -0.00568706 0)
(0.0106759 -0.00896606 0)
(0.00837523 -0.0136479 0)
(0.00589322 -0.0200671 0)
(0.00311181 -0.0284535 0)
(-3.63365e-05 -0.0390449 0)
(-0.00285265 -0.0501002 0)
(-0.00434246 -0.0579097 0)
(-0.00402185 -0.0577389 0)
(-0.00226876 -0.0445894 0)
(-0.000296082 -0.0176421 0)
(-2.53738e-05 0.0015933 0)
(-0.000222086 0.0048969 0)
(-0.000484449 0.00834539 0)
(-0.000613295 0.0117161 0)
(-0.000381501 0.014777 0)
(0.000393218 0.0172536 0)
(0.0017251 0.0186543 0)
(0.00357212 0.0187616 0)
(0.00588662 0.0176863 0)
(0.00854055 0.0157998 0)
(0.0113567 0.0135119 0)
(0.0141712 0.0111587 0)
(0.0168507 0.00894807 0)
(0.0192746 0.00695544 0)
(0.0212972 0.00516254 0)
(0.0227212 0.00350966 0)
(0.0232514 0.00213308 0)
(0.0230004 0.00108733 0)
(0.0221775 0.000148283 0)
(0.0208644 -0.000901648 0)
(0.0192637 -0.00225827 0)
(0.0174031 -0.00421159 0)
(0.015292 -0.00710559 0)
(0.0129029 -0.0112915 0)
(0.0101849 -0.0170686 0)
(0.00709284 -0.0246502 0)
(0.00360838 -0.0341639 0)
(-0.000145918 -0.0455803 0)
(-0.00308896 -0.0559779 0)
(-0.00400859 -0.0596238 0)
(-0.00283308 -0.0495271 0)
(-0.000467268 -0.0212091 0)
(-7.53106e-05 0.00201621 0)
(-0.000617537 0.00576133 0)
(-0.00133275 0.00913105 0)
(-0.00186256 0.0119515 0)
(-0.00184888 0.0142238 0)
(-0.00108372 0.0159247 0)
(0.00051062 0.0168201 0)
(0.00281833 0.016604 0)
(0.00569641 0.0154209 0)
(0.00896947 0.013644 0)
(0.0123855 0.0116012 0)
(0.0157426 0.00955209 0)
(0.0188968 0.00765702 0)
(0.0217388 0.00597402 0)
(0.0241535 0.00448726 0)
(0.0259971 0.00313974 0)
(0.02699 0.00203059 0)
(0.0272062 0.00120811 0)
(0.0268779 0.000494324 0)
(0.0260224 -0.000315643 0)
(0.0248349 -0.00141544 0)
(0.0232927 -0.00304536 0)
(0.0213458 -0.00550179 0)
(0.0189175 -0.00909424 0)
(0.0159345 -0.0141042 0)
(0.01237 -0.0207705 0)
(0.00827148 -0.0293043 0)
(0.00377856 -0.0398217 0)
(-0.000682847 -0.0516739 0)
(-0.00337109 -0.0592655 0)
(-0.00334713 -0.0533909 0)
(-0.000734793 -0.0252609 0)
(-0.000193731 0.0029641 0)
(-0.00135067 0.00749441 0)
(-0.00265252 0.010637 0)
(-0.00355603 0.0126067 0)
(-0.00363155 0.0138392 0)
(-0.00270616 0.0145927 0)
(-0.000764431 0.0148318 0)
(0.00221145 0.0142559 0)
(0.00574682 0.0129973 0)
(0.00969781 0.0113784 0)
(0.0137611 0.00962127 0)
(0.0177283 0.00790224 0)
(0.0214637 0.00633251 0)
(0.0248773 0.00495166 0)
(0.027882 0.003746 0)
(0.0303747 0.00266555 0)
(0.0320383 0.00178391 0)
(0.0328744 0.00114322 0)
(0.033113 0.000606838 0)
(0.0328226 -6.26402e-06 0)
(0.0320955 -0.000871496 0)
(0.0309025 -0.00217484 0)
(0.0291433 -0.0041549 0)
(0.0266934 -0.00707277 0)
(0.023443 -0.0111899 0)
(0.0193475 -0.0167727 0)
(0.0144646 -0.0241251 0)
(0.00897099 -0.0335964 0)
(0.00322751 -0.0451709 0)
(-0.00164171 -0.0561665 0)
(-0.00354563 -0.0555407 0)
(-0.00109226 -0.0296617 0)
(-0.000446559 0.00476946 0)
(-0.00256298 0.0102248 0)
(-0.00441432 0.0126511 0)
(-0.00542965 0.0133448 0)
(-0.00526289 0.0133354 0)
(-0.00387493 0.0130824 0)
(-0.0013165 0.0126163 0)
(0.00252788 0.0116823 0)
(0.00684549 0.0104356 0)
(0.0115753 0.00902769 0)
(0.0164005 0.0075796 0)
(0.0211231 0.00619528 0)
(0.0256156 0.00494383 0)
(0.0297932 0.00385054 0)
(0.0335739 0.00290528 0)
(0.0368654 0.00206974 0)
(0.0392721 0.00139762 0)
(0.040732 0.000919253 0)
(0.0414967 0.000529378 0)
(0.0417057 8.21426e-05 0)
(0.0413727 -0.000560437 0)
(0.0404587 -0.00153745 0)
(0.0388388 -0.0030262 0)
(0.0363565 -0.00523046 0)
(0.0328633 -0.00837556 0)
(0.0282686 -0.0127331 0)
(0.0225837 -0.0186761 0)
(0.0159583 -0.0267413 0)
(0.00876125 -0.037478 0)
(0.0018563 -0.0499096 0)
(-0.00293796 -0.0552651 0)
(-0.00144282 -0.0341558 0)
(-0.000891815 0.00789175 0)
(-0.0042038 0.0137463 0)
(-0.0060839 0.0145448 0)
(-0.00645674 0.0135718 0)
(-0.00533735 0.0123005 0)
(-0.00291654 0.0111291 0)
(0.000823676 0.0100103 0)
(0.00562372 0.00887186 0)
(0.0108837 0.00773686 0)
(0.0165116 0.006583 0)
(0.0222159 0.00545671 0)
(0.0277984 0.00440733 0)
(0.0331182 0.00347194 0)
(0.0380714 0.00266503 0)
(0.0425598 0.00197923 0)
(0.0464843 0.0013883 0)
(0.0494 0.000925567 0)
(0.0512433 0.000603722 0)
(0.0523121 0.000345046 0)
(0.052784 4.52997e-05 0)
(0.0526698 -0.000387372 0)
(0.0518954 -0.00104979 0)
(0.050335 -0.00206257 0)
(0.0478188 -0.00356795 0)
(0.0441697 -0.00573699 0)
(0.0392387 -0.00880857 0)
(0.0329414 -0.0131679 0)
(0.0253087 -0.0194624 0)
(0.0166053 -0.0286379 0)
(0.00756982 -0.0410814 0)
(-0.000683819 -0.0516408 0)
(-0.00149191 -0.0381745 0)
(-0.00161464 0.013077 0)
(-0.0055742 0.0171621 0)
(-0.00572023 0.0151331 0)
(-0.00374202 0.0124446 0)
(-0.000332596 0.0101606 0)
(0.00414467 0.00836111 0)
(0.00933196 0.00698807 0)
(0.0151783 0.00587354 0)
(0.0213766 0.00493444 0)
(0.0277805 0.0040774 0)
(0.0341418 0.00329459 0)
(0.0402584 0.0025953 0)
(0.0459742 0.00199113 0)
(0.0511727 0.00148546 0)
(0.0557589 0.00106994 0)
(0.0596538 0.000726764 0)
(0.0624743 0.000468816 0)
(0.064229 0.000293496 0)
(0.0652388 0.00015163 0)
(0.0656938 -1.63399e-05 0)
(0.0655639 -0.000261995 0)
(0.064796 -0.000643187 0)
(0.0632621 -0.00123081 0)
(0.0607912 -0.00210859 0)
(0.0571956 -0.00338436 0)
(0.0522832 -0.00522987 0)
(0.0458584 -0.00796765 0)
(0.0377396 -0.0122279 0)
(0.0278719 -0.0191455 0)
(0.0165668 -0.0301249 0)
(0.00442766 -0.0435205 0)
(-0.000166395 -0.0396491 0)
(-0.00120764 0.0183431 0)
(-0.00296076 0.0182029 0)
(0.00333449 0.0125815 0)
(0.0102964 0.0091714 0)
(0.0170632 0.00679515 0)
(0.0236593 0.00505507 0)
(0.0301541 0.00382289 0)
(0.0366008 0.00294291 0)
(0.0429307 0.00229795 0)
(0.0490792 0.00178731 0)
(0.0549036 0.00136977 0)
(0.060266 0.00102709 0)
(0.0650625 0.000750843 0)
(0.06923 0.000533775 0)
(0.0727363 0.000365757 0)
(0.0755693 0.000235312 0)
(0.0775227 0.000142316 0)
(0.0786787 7.99113e-05 0)
(0.0792937 2.63266e-05 0)
(0.0794918 -3.96511e-05 0)
(0.0792457 -0.000141382 0)
(0.078496 -0.000304365 0)
(0.0771201 -0.000559477 0)
(0.0749648 -0.000942939 0)
(0.0718615 -0.00150443 0)
(0.0676165 -0.00233472 0)
(0.0619691 -0.00363345 0)
(0.0545218 -0.00585481 0)
(0.0446752 -0.00996588 0)
(0.0316794 -0.0176603 0)
(0.0155351 -0.0298047 0)
(0.00632324 -0.0334758 0)
(0.0208114 0.0113826 0)
(0.0272302 0.00931028 0)
(0.0402929 0.00543116 0)
(0.0508688 0.00328528 0)
(0.0587416 0.00204007 0)
(0.0649295 0.0012535 0)
(0.0699945 0.000769195 0)
(0.0742606 0.000479085 0)
(0.0779329 0.000307258 0)
(0.0811395 0.000200214 0)
(0.0839238 0.000130789 0)
(0.0862993 8.44699e-05 0)
(0.0882803 5.33767e-05 0)
(0.0898914 3.27282e-05 0)
(0.0911621 1.88703e-05 0)
(0.0921215 9.37147e-06 0)
(0.0927336 3.33377e-06 0)
(0.0930577 -9.59156e-07 0)
(0.0931853 -6.07102e-06 0)
(0.0931431 -1.33976e-05 0)
(0.0929117 -2.68784e-05 0)
(0.0924381 -5.03454e-05 0)
(0.091642 -8.83181e-05 0)
(0.0904323 -0.000146021 0)
(0.08871 -0.0002311 0)
(0.0863504 -0.000360015 0)
(0.0831413 -0.000575588 0)
(0.0786452 -0.000989584 0)
(0.0719079 -0.00188132 0)
(0.0609249 -0.0039965 0)
(0.0433093 -0.00920312 0)
(0.0286019 -0.0145398 0)
)
;

boundaryField
{
    movingWall
    {
        type            fixedValue;
        value           uniform (0.1 0 0);
    }
    fixedWalls
    {
        type            noSlip;
    }
    floor
    {
        type            noSlip;
    }
    frontAndBack
    {
        type            empty;
    }
}


// ************************************************************************* //
