/*--------------------------------*- C++ -*----------------------------------*\
| =========                 |                                                 |
| \\      /  F ield         | OpenFOAM: The Open Source CFD Toolbox           |
|  \\    /   O peration     | Version:  2212                                  |
|   \\  /    A nd           | Website:  www.openfoam.com                      |
|    \\/     M anipulation  |                                                 |
\*---------------------------------------------------------------------------*/
FoamFile
{
    version     2.0;
    format      ascii;
    arch        "LSB;label=64;scalar=64";
    class       surfaceScalarField;
    location    "0.59";
    object      phi;
}
// * * * * * * * * * * * * * * * * * * * * * * * * * * * * * * * * * * * * * //

dimensions      [0 3 -1 0 0 0 0];

oriented        oriented;

internalField   nonuniform List<scalar> 
65152
(
-1.32147e-13
1.32146e-13
-7.79735e-13
6.47587e-13
-1.85256e-12
1.07282e-12
-3.12961e-12
1.27705e-12
-4.41697e-12
1.28736e-12
-5.6085e-12
1.19153e-12
-6.6771e-12
1.06859e-12
-7.64011e-12
9.63013e-13
-8.52831e-12
8.88204e-13
-9.36855e-12
8.40233e-13
-1.01782e-11
8.09677e-13
-1.09662e-11
7.88004e-13
-1.17358e-11
7.69521e-13
-1.24869e-11
7.51123e-13
-1.32183e-11
7.31396e-13
-1.39281e-11
7.09832e-13
-1.46144e-11
6.86335e-13
-1.52754e-11
6.60956e-13
-1.59092e-11
6.33786e-13
-1.65141e-11
6.04912e-13
-1.70885e-11
5.74403e-13
-1.76308e-11
5.42318e-13
-1.81395e-11
5.08704e-13
-1.86131e-11
4.73598e-13
-1.90502e-11
4.37031e-13
-1.94492e-11
3.99033e-13
-1.98088e-11
3.59633e-13
-2.01277e-11
3.18859e-13
-2.04044e-11
2.76746e-13
-2.06378e-11
2.3334e-13
-2.08265e-11
1.88704e-13
-2.09694e-11
1.42932e-13
-2.10656e-11
9.61707e-14
-2.11143e-11
4.8711e-14
-2.11142e-11
-1.01632e-16
-2.10655e-11
-4.87069e-14
-2.09674e-11
-9.8095e-14
-2.08196e-11
-1.47851e-13
-2.06217e-11
-1.9784e-13
-2.03738e-11
-2.47953e-13
-2.00757e-11
-2.9808e-13
-1.97276e-11
-3.48101e-13
-1.93297e-11
-3.97881e-13
-1.88824e-11
-4.47269e-13
-1.83863e-11
-4.96102e-13
-1.78421e-11
-5.44208e-13
-1.72507e-11
-5.91406e-13
-1.66132e-11
-6.37508e-13
-1.59309e-11
-6.82322e-13
-1.52052e-11
-7.25655e-13
-1.44379e-11
-7.67309e-13
-1.36308e-11
-8.0709e-13
-1.2786e-11
-8.44804e-13
-1.19058e-11
-8.80266e-13
-1.09925e-11
-9.13298e-13
-1.00487e-11
-9.43731e-13
-9.07734e-12
-9.71406e-13
-8.08117e-12
-9.96172e-13
-7.06329e-12
-1.01788e-12
-6.02691e-12
-1.03638e-12
-4.9754e-12
-1.0515e-12
-3.91231e-12
-1.0631e-12
-2.8413e-12
-1.07101e-12
-1.76614e-12
-1.07515e-12
-6.90666e-13
-1.07548e-12
3.81386e-13
-1.07205e-12
1.44649e-12
-1.0651e-12
2.50141e-12
-1.05492e-12
3.54314e-12
-1.04173e-12
4.56878e-12
-1.02564e-12
5.57553e-12
-1.00676e-12
6.56067e-12
-9.85137e-13
7.52151e-12
-9.6084e-13
8.45546e-12
-9.33955e-13
9.36005e-12
-9.04586e-13
1.02329e-11
-8.72857e-13
1.10718e-11
-8.38901e-13
1.18747e-11
-8.02866e-13
1.26396e-11
-7.64908e-13
1.33648e-11
-7.25188e-13
1.40486e-11
-6.83873e-13
1.46898e-11
-6.41131e-13
1.52869e-11
-5.97129e-13
1.58389e-11
-5.52029e-13
1.63449e-11
-5.05988e-13
1.68041e-11
-4.59154e-13
1.72157e-11
-4.11664e-13
1.75794e-11
-3.63643e-13
1.78946e-11
-3.15208e-13
1.81611e-11
-2.66472e-13
1.83786e-11
-2.1755e-13
1.85472e-11
-1.68566e-13
1.86668e-11
-1.19666e-13
1.87379e-11
-7.10431e-14
1.87608e-11
-2.29598e-14
1.8736e-11
2.48624e-14
1.86649e-11
7.10911e-14
1.85484e-11
1.165e-13
1.83877e-11
1.60692e-13
1.81841e-11
2.03584e-13
1.7939e-11
2.45138e-13
1.76536e-11
2.85337e-13
1.73295e-11
3.24172e-13
1.69678e-11
3.61636e-13
1.65701e-11
3.97718e-13
1.61377e-11
4.32398e-13
1.5672e-11
4.65651e-13
1.51746e-11
4.97439e-13
1.46469e-11
5.27718e-13
1.40905e-11
5.56427e-13
1.3507e-11
5.83492e-13
1.28981e-11
6.08821e-13
1.22658e-11
6.32316e-13
1.16119e-11
6.53916e-13
1.09382e-11
6.73712e-13
1.0246e-11
6.9221e-13
9.53514e-12
7.1084e-13
8.80239e-12
7.32758e-13
8.03862e-12
7.63764e-13
7.22603e-12
8.12587e-13
6.3371e-12
8.88934e-13
5.34003e-12
9.97066e-13
4.21618e-12
1.12384e-12
2.9912e-12
1.22498e-12
1.76944e-12
1.22176e-12
7.41904e-13
1.02753e-12
1.24329e-13
6.17574e-13
1.24329e-13
-5.48556e-13
6.80701e-13
-2.04596e-12
2.14499e-12
-4.14965e-12
3.17651e-12
-6.46534e-12
3.59273e-12
-8.69051e-12
3.51253e-12
-1.06732e-11
3.17419e-12
-1.2388e-11
2.78342e-12
-1.3879e-11
2.45402e-12
-1.52094e-11
2.21864e-12
-1.64338e-11
2.0646e-12
-1.75891e-11
1.96496e-12
-1.86964e-11
1.89528e-12
-1.97658e-11
1.83894e-12
-2.08011e-11
1.78642e-12
-2.18028e-11
1.73305e-12
-2.27697e-11
1.6768e-12
-2.37003e-11
1.61694e-12
-2.45927e-11
1.5533e-12
-2.54448e-11
1.4859e-12
-2.62547e-11
1.41482e-12
-2.70205e-11
1.34016e-12
-2.77402e-11
1.262e-12
-2.84119e-11
1.18041e-12
-2.90337e-11
1.09546e-12
-2.96039e-11
1.0072e-12
-3.01206e-11
9.15705e-13
-3.0582e-11
8.21026e-13
-3.09863e-11
7.23228e-13
-3.1332e-11
6.22383e-13
-3.16172e-11
5.18572e-13
-3.18404e-11
4.11895e-13
-3.2e-11
3.02487e-13
-3.20943e-11
1.90539e-13
-3.21219e-11
7.63115e-14
-3.20822e-11
-3.98612e-14
-3.19735e-11
-1.57361e-13
-3.17958e-11
-2.75822e-13
-3.15486e-11
-3.95044e-13
-3.12316e-11
-5.14854e-13
-3.08445e-11
-6.35058e-13
-3.03872e-11
-7.55416e-13
-2.98596e-11
-8.75645e-13
-2.92621e-11
-9.95419e-13
-2.8595e-11
-1.11437e-12
-2.7859e-11
-1.23211e-12
-2.7055e-11
-1.34819e-12
-2.61842e-11
-1.46219e-12
-2.52481e-11
-1.57363e-12
-2.42484e-11
-1.68204e-12
-2.31871e-11
-1.78694e-12
-2.20665e-11
-1.88785e-12
-2.08894e-11
-1.98426e-12
-1.96585e-11
-2.07572e-12
-1.8377e-11
-2.16174e-12
-1.70484e-11
-2.24187e-12
-1.56765e-11
-2.3157e-12
-1.4265e-11
-2.38281e-12
-1.28184e-11
-2.44283e-12
-1.13409e-11
-2.49539e-12
-9.8371e-12
-2.54016e-12
-8.31183e-12
-2.57678e-12
-6.76995e-12
-2.60497e-12
-5.21648e-12
-2.62449e-12
-3.65641e-12
-2.63523e-12
-2.09465e-12
-2.63724e-12
-5.36013e-13
-2.63069e-12
1.01468e-12
-2.6158e-12
2.55273e-12
-2.59297e-12
4.07382e-12
-2.56282e-12
5.57394e-12
-2.52576e-12
7.0492e-12
-2.48202e-12
8.49576e-12
-2.4317e-12
9.90987e-12
-2.37495e-12
1.12879e-11
-2.31198e-12
1.26264e-11
-2.24306e-12
1.3922e-11
-2.16846e-12
1.51716e-11
-2.0885e-12
1.63722e-11
-2.00354e-12
1.75213e-11
-1.91393e-12
1.86161e-11
-1.82006e-12
1.96546e-11
-1.72232e-12
2.06345e-11
-1.62109e-12
2.15542e-11
-1.51678e-12
2.24119e-11
-1.40976e-12
2.32063e-11
-1.3004e-12
2.39362e-11
-1.18905e-12
2.46006e-11
-1.07606e-12
2.51987e-11
-9.6173e-13
2.57299e-11
-8.46362e-13
2.61936e-11
-7.30244e-13
2.65897e-11
-6.13665e-13
2.69181e-11
-4.96922e-13
2.71788e-11
-3.80327e-13
2.73719e-11
-2.64216e-13
2.74979e-11
-1.48944e-13
2.75577e-11
-3.49525e-14
2.75519e-11
7.69514e-14
2.74822e-11
1.86212e-13
2.73504e-11
2.92496e-13
2.71582e-11
3.95715e-13
2.69075e-11
4.95828e-13
2.66e-11
5.92827e-13
2.62375e-11
6.86716e-13
2.58216e-11
7.77492e-13
2.53542e-11
8.6514e-13
2.4837e-11
9.49635e-13
2.42717e-11
1.03093e-12
2.36602e-11
1.10898e-12
2.30042e-11
1.18371e-12
2.23055e-11
1.25503e-12
2.15662e-11
1.32285e-12
2.0788e-11
1.38706e-12
1.99727e-11
1.44762e-12
1.91219e-11
1.50467e-12
1.82367e-11
1.55894e-12
1.73164e-11
1.61245e-12
1.63573e-11
1.66994e-12
1.5349e-11
1.74105e-12
1.42701e-11
1.84274e-12
1.30827e-11
1.99997e-12
1.17312e-11
2.24045e-12
1.01505e-11
2.57772e-12
8.29455e-12
2.9798e-12
6.1863e-12
3.33323e-12
3.9751e-12
3.43297e-12
1.95923e-12
3.0434e-12
5.24712e-13
2.05209e-12
6.4904e-13
-5.73625e-13
1.25433e-12
-2.07325e-12
3.64461e-12
-4.09488e-12
5.19814e-12
-6.22383e-12
5.72169e-12
-8.16584e-12
5.45454e-12
-9.78835e-12
4.7967e-12
-1.10868e-11
4.08183e-12
-1.21231e-11
3.49036e-12
-1.29748e-11
3.07037e-12
-1.37071e-11
2.79686e-12
-1.43646e-11
2.62243e-12
-1.49738e-11
2.50455e-12
-1.5549e-11
2.4141e-12
-1.60968e-11
2.33419e-12
-1.66199e-11
2.2562e-12
-1.71193e-11
2.17617e-12
-1.75948e-11
2.0925e-12
-1.80462e-11
2.00462e-12
-1.84726e-11
1.91236e-12
-1.88736e-11
1.81575e-12
-1.92482e-11
1.71483e-12
-1.95959e-11
1.60967e-12
-1.99158e-11
1.50034e-12
-2.02073e-11
1.38691e-12
-2.04695e-11
1.26945e-12
-2.07019e-11
1.14805e-12
-2.09036e-11
1.02278e-12
-2.10742e-11
8.93769e-13
-2.12129e-11
7.61121e-13
-2.13193e-11
6.24971e-13
-2.13929e-11
4.85468e-13
-2.14332e-11
3.42777e-13
-2.14397e-11
1.97097e-13
-2.14122e-11
4.87443e-14
-2.135e-11
-1.0208e-13
-2.12525e-11
-2.54797e-13
-2.11192e-11
-4.09151e-13
-2.09493e-11
-5.64943e-13
-2.07422e-11
-7.21932e-13
-2.04975e-11
-8.79822e-13
-2.02146e-11
-1.03827e-12
-1.98934e-11
-1.19687e-12
-1.95336e-11
-1.35517e-12
-1.91353e-11
-1.51267e-12
-1.86986e-11
-1.66882e-12
-1.82238e-11
-1.82305e-12
-1.77112e-11
-1.97475e-12
-1.71616e-11
-2.12329e-12
-1.65756e-11
-2.26801e-12
-1.59543e-11
-2.40824e-12
-1.52988e-11
-2.54332e-12
-1.46105e-11
-2.67255e-12
-1.3891e-11
-2.79527e-12
-1.31419e-11
-2.91081e-12
-1.23653e-11
-3.01853e-12
-1.15631e-11
-3.11781e-12
-1.07379e-11
-3.20808e-12
-9.8919e-12
-3.2888e-12
-9.02781e-12
-3.35948e-12
-8.14826e-12
-3.41971e-12
-7.25592e-12
-3.46913e-12
-6.35342e-12
-3.50746e-12
-5.44333e-12
-3.53458e-12
-4.52807e-12
-3.55049e-12
-3.60995e-12
-3.55536e-12
-2.69115e-12
-3.54949e-12
-1.77371e-12
-3.53324e-12
-8.59613e-13
-3.50707e-12
4.89593e-14
-3.4714e-12
9.49687e-13
-3.42649e-12
1.84027e-12
-3.3726e-12
2.71857e-12
-3.31e-12
3.58256e-12
-3.23893e-12
4.43022e-12
-3.15965e-12
5.25966e-12
-3.07249e-12
6.06902e-12
-2.97782e-12
6.85658e-12
-2.87606e-12
7.62067e-12
-2.76764e-12
8.35977e-12
-2.65303e-12
9.07241e-12
-2.5327e-12
9.75726e-12
-2.40717e-12
1.04131e-11
-2.27692e-12
1.10388e-11
-2.14247e-12
1.16333e-11
-2.00429e-12
1.21958e-11
-1.86286e-12
1.27254e-11
-1.71865e-12
1.32214e-11
-1.57208e-12
1.36833e-11
-1.4236e-12
1.41105e-11
-1.27362e-12
1.45029e-11
-1.12258e-12
1.48601e-11
-9.70909e-13
1.51822e-11
-8.19077e-13
1.54695e-11
-6.6757e-13
1.57222e-11
-5.1688e-13
1.59407e-11
-3.67497e-13
1.61256e-11
-2.19888e-13
1.6277e-11
-7.44426e-14
1.63949e-11
6.83255e-14
1.64795e-11
2.07911e-13
1.65313e-11
3.43892e-13
1.65509e-11
4.76225e-13
1.65389e-11
6.04882e-13
1.64957e-11
7.29839e-13
1.64222e-11
8.51074e-13
1.63187e-11
9.68564e-13
1.61861e-11
1.08228e-12
1.60249e-11
1.19217e-12
1.58357e-11
1.29819e-12
1.56191e-11
1.40026e-12
1.53758e-11
1.49832e-12
1.51064e-11
1.5923e-12
1.48113e-11
1.68215e-12
1.44909e-11
1.76798e-12
1.41452e-11
1.85034e-12
1.37734e-11
1.93081e-12
1.33725e-11
2.01334e-12
1.29358e-11
2.10666e-12
1.24489e-11
2.22791e-12
1.18849e-11
2.40674e-12
1.11983e-11
2.68658e-12
1.03226e-11
3.11611e-12
9.1786e-12
3.72173e-12
7.70196e-12
4.45643e-12
5.89487e-12
5.14032e-12
3.88707e-12
5.44077e-12
1.96825e-12
4.96222e-12
5.43671e-13
3.47667e-12
1.19271e-12
-4.91837e-13
1.74616e-12
-1.79737e-12
4.95015e-12
-3.53553e-12
6.9363e-12
-5.30806e-12
7.49422e-12
-6.8403e-12
6.98678e-12
-8.01931e-12
5.97571e-12
-8.85614e-12
4.91866e-12
-9.42343e-12
4.05765e-12
-9.8051e-12
3.45204e-12
-1.00701e-11
3.06182e-12
-1.02653e-11
2.81762e-12
-1.04189e-11
2.65818e-12
-1.05464e-11
2.5416e-12
-1.06557e-11
2.44348e-12
-1.07507e-11
2.35123e-12
-1.08335e-11
2.25896e-12
-1.09051e-11
2.16414e-12
-1.09663e-11
2.06578e-12
-1.10175e-11
1.96353e-12
-1.1059e-11
1.85729e-12
-1.10912e-11
1.74705e-12
-1.11144e-11
1.63283e-12
-1.11287e-11
1.51467e-12
-1.11344e-11
1.39261e-12
-1.11317e-11
1.26673e-12
-1.11207e-11
1.13708e-12
-1.11017e-11
1.00376e-12
-1.10748e-11
8.66894e-13
-1.10403e-11
7.26606e-13
-1.09984e-11
5.83055e-13
-1.09494e-11
4.36404e-13
-1.08934e-11
2.86835e-13
-1.08309e-11
1.34558e-13
-1.07619e-11
-2.02414e-14
-1.06864e-11
-1.77552e-13
-1.06042e-11
-3.37006e-13
-1.05148e-11
-4.98553e-13
-1.04178e-11
-6.61961e-13
-1.03128e-11
-8.26938e-13
-1.01995e-11
-9.9316e-13
-1.00775e-11
-1.16024e-12
-9.94661e-12
-1.32775e-12
-9.80657e-12
-1.49521e-12
-9.65715e-12
-1.6621e-12
-9.49813e-12
-1.82784e-12
-9.32936e-12
-1.99182e-12
-9.15073e-12
-2.15339e-12
-8.96217e-12
-2.31185e-12
-8.76369e-12
-2.4665e-12
-8.55533e-12
-2.6166e-12
-8.33725e-12
-2.7614e-12
-8.10968e-12
-2.90013e-12
-7.8729e-12
-3.03205e-12
-7.62733e-12
-3.15638e-12
-7.37346e-12
-3.27241e-12
-7.11187e-12
-3.37941e-12
-6.84322e-12
-3.47673e-12
-6.56824e-12
-3.56378e-12
-6.28766e-12
-3.64006e-12
-6.00221e-12
-3.70517e-12
-5.71247e-12
-3.75886e-12
-5.41889e-12
-3.80105e-12
-5.12168e-12
-3.83179e-12
-4.82086e-12
-3.8513e-12
-4.51631e-12
-3.85991e-12
-4.20781e-12
-3.85799e-12
-3.89516e-12
-3.8459e-12
-3.57828e-12
-3.82394e-12
-3.25731e-12
-3.79237e-12
-2.93245e-12
-3.75135e-12
-2.60402e-12
-3.70102e-12
-2.27245e-12
-3.64157e-12
-1.93818e-12
-3.57321e-12
-1.60164e-12
-3.49619e-12
-1.2633e-12
-3.41083e-12
-9.23614e-13
-3.31751e-12
-5.83057e-13
-3.21662e-12
-2.42108e-13
-3.10859e-12
9.8744e-14
-2.99388e-12
4.39008e-13
-2.87297e-12
7.78164e-13
-2.74633e-12
1.11569e-12
-2.61445e-12
1.45104e-12
-2.47783e-12
1.78369e-12
-2.33694e-12
2.11309e-12
-2.19226e-12
2.4387e-12
-2.04426e-12
2.75999e-12
-1.89337e-12
3.07644e-12
-1.74005e-12
3.38757e-12
-1.58476e-12
3.69296e-12
-1.42796e-12
3.99224e-12
-1.27019e-12
4.28516e-12
-1.112e-12
4.57155e-12
-9.53962e-13
4.85135e-12
-7.9668e-13
5.12456e-12
-6.40711e-13
5.39123e-12
-4.86551e-13
5.65139e-12
-3.34609e-13
5.90483e-12
-1.85116e-13
6.15086e-12
-3.81172e-14
6.38906e-12
1.05693e-13
6.6189e-12
2.46378e-13
6.84001e-12
3.83772e-13
7.05206e-12
5.17791e-13
7.25472e-12
6.48418e-13
7.44765e-12
7.75627e-13
7.63054e-12
8.99392e-13
7.80302e-12
1.01968e-12
7.96475e-12
1.13646e-12
8.11534e-12
1.24968e-12
8.25437e-12
1.35929e-12
8.38139e-12
1.46528e-12
8.49583e-12
1.5677e-12
8.59696e-12
1.66685e-12
8.68365e-12
1.76366e-12
8.75384e-12
1.86061e-12
8.80356e-12
1.96362e-12
8.82481e-12
2.0854e-12
8.80201e-12
2.25071e-12
8.7066e-12
2.50215e-12
8.49092e-12
2.90226e-12
8.08492e-12
3.52212e-12
7.40298e-12
4.40366e-12
6.37042e-12
5.48899e-12
4.97393e-12
6.53681e-12
3.32375e-12
7.09094e-12
1.68993e-12
6.59605e-12
4.60983e-13
4.70562e-12
1.65369e-12
-4.57597e-13
2.20376e-12
-1.67643e-12
6.16898e-12
-3.2835e-12
8.54337e-12
-4.8876e-12
9.09831e-12
-6.22303e-12
8.32222e-12
-7.18698e-12
6.93965e-12
-7.79941e-12
5.53109e-12
-8.13937e-12
4.39761e-12
-8.29466e-12
3.60733e-12
-8.3362e-12
3.10336e-12
-8.31196e-12
2.79338e-12
-8.25062e-12
2.59684e-12
-8.16796e-12
2.45894e-12
-8.07225e-12
2.34776e-12
-7.96782e-12
2.2468e-12
-7.85712e-12
2.14825e-12
-7.74169e-12
2.04871e-12
-7.62267e-12
1.94677e-12
-7.50102e-12
1.84188e-12
-7.37757e-12
1.73384e-12
-7.25308e-12
1.62256e-12
-7.12827e-12
1.50802e-12
-7.0038e-12
1.39019e-12
-6.88029e-12
1.2691e-12
-6.75831e-12
1.14475e-12
-6.63841e-12
1.01717e-12
-6.52109e-12
8.86441e-13
-6.40682e-12
7.52627e-13
-6.29605e-12
6.15834e-13
-6.18918e-12
4.76185e-13
-6.08659e-12
3.33815e-13
-5.98862e-12
1.88861e-13
-5.89554e-12
4.14773e-14
-5.80749e-12
-1.08299e-13
-5.72468e-12
-2.60361e-13
-5.64701e-12
-4.14677e-13
-5.57446e-12
-5.71106e-13
-5.50699e-12
-7.29435e-13
-5.44453e-12
-8.89402e-13
-5.387e-12
-1.05069e-12
-5.33426e-12
-1.21298e-12
-5.28615e-12
-1.37586e-12
-5.24244e-12
-1.53892e-12
-5.20288e-12
-1.70166e-12
-5.16717e-12
-1.86354e-12
-5.13501e-12
-2.02399e-12
-5.10605e-12
-2.18235e-12
-5.07995e-12
-2.33795e-12
-5.05637e-12
-2.49008e-12
-5.03499e-12
-2.63798e-12
-5.01549e-12
-2.7809e-12
-4.99757e-12
-2.91805e-12
-4.98098e-12
-3.04864e-12
-4.9655e-12
-3.17187e-12
-4.95093e-12
-3.28698e-12
-4.93713e-12
-3.39321e-12
-4.92397e-12
-3.48989e-12
-4.91134e-12
-3.57641e-12
-4.89909e-12
-3.65231e-12
-4.88698e-12
-3.71728e-12
-4.87462e-12
-3.77122e-12
-4.86141e-12
-3.81426e-12
-4.84649e-12
-3.8467e-12
-4.82881e-12
-3.86899e-12
-4.80712e-12
-3.8816e-12
-4.78015e-12
-3.88496e-12
-4.74665e-12
-3.87939e-12
-4.70553e-12
-3.86506e-12
-4.65587e-12
-3.84203e-12
-4.59692e-12
-3.8103e-12
-4.52808e-12
-3.76987e-12
-4.44888e-12
-3.72077e-12
-4.35894e-12
-3.66315e-12
-4.25796e-12
-3.59717e-12
-4.14571e-12
-3.52309e-12
-4.02202e-12
-3.4412e-12
-3.88678e-12
-3.35185e-12
-3.73996e-12
-3.25541e-12
-3.58157e-12
-3.15227e-12
-3.41172e-12
-3.04282e-12
-3.23054e-12
-2.9275e-12
-3.03826e-12
-2.80673e-12
-2.83516e-12
-2.68093e-12
-2.62159e-12
-2.55052e-12
-2.39794e-12
-2.41591e-12
-2.16467e-12
-2.27753e-12
-1.92228e-12
-2.13576e-12
-1.6713e-12
-1.99103e-12
-1.41229e-12
-1.84377e-12
-1.14579e-12
-1.69447e-12
-8.72346e-13
-1.54364e-12
-5.92472e-13
-1.39187e-12
-3.0663e-13
-1.2398e-12
-1.52411e-14
-1.08807e-12
2.81314e-13
-9.37266e-13
5.82679e-13
-7.87916e-13
8.88492e-13
-6.40422e-13
1.19842e-12
-4.95045e-13
1.51229e-12
-3.51984e-13
1.82938e-12
-2.11395e-13
2.14905e-12
-7.32935e-14
2.47058e-12
6.22405e-14
2.79324e-12
1.95125e-13
3.11632e-12
3.25343e-13
3.43908e-12
4.52866e-13
3.76077e-12
5.77701e-13
4.0806e-12
6.99849e-13
4.39776e-12
8.193e-13
4.7114e-12
9.36037e-13
5.02064e-12
1.05006e-12
5.32453e-12
1.16138e-12
5.62208e-12
1.27016e-12
5.91206e-12
1.37687e-12
6.1929e-12
1.48281e-12
6.46216e-12
1.59135e-12
6.71549e-12
1.7103e-12
6.94457e-12
1.85632e-12
7.13352e-12
2.06175e-12
7.25337e-12
2.3823e-12
7.2556e-12
2.90003e-12
7.06829e-12
3.70943e-12
6.6022e-12
4.86975e-12
5.77653e-12
6.31466e-12
4.56937e-12
7.74398e-12
3.08122e-12
8.57909e-12
1.57349e-12
8.10378e-12
4.27975e-13
5.85113e-12
2.08167e-12
-4.64038e-13
2.66779e-12
-1.69355e-12
7.39849e-12
-3.30369e-12
1.01535e-11
-4.89433e-12
1.0689e-11
-6.19681e-12
9.62469e-12
-7.1106e-12
7.85344e-12
-7.66065e-12
6.08114e-12
-7.93114e-12
4.6681e-12
-8.01385e-12
3.69003e-12
-7.9823e-12
3.07181e-12
-7.88589e-12
2.69697e-12
-7.75404e-12
2.46499e-12
-7.60286e-12
2.30775e-12
-7.44077e-12
2.18568e-12
-7.27222e-12
2.07825e-12
-7.09973e-12
1.97576e-12
-6.92497e-12
1.87394e-12
-6.74919e-12
1.77099e-12
-6.57348e-12
1.66617e-12
-6.39881e-12
1.55916e-12
-6.22606e-12
1.44981e-12
-6.05607e-12
1.33803e-12
-5.88962e-12
1.22374e-12
-5.72742e-12
1.1069e-12
-5.57015e-12
9.87469e-13
-5.4184e-12
8.65423e-13
-5.27273e-12
7.40768e-13
-5.13362e-12
6.13513e-13
-5.00149e-12
4.83706e-13
-4.8767e-12
3.51395e-13
-4.75955e-12
2.16658e-13
-4.65024e-12
7.95562e-14
-4.54892e-12
-5.98447e-14
-4.45573e-12
-2.01497e-13
-4.37072e-12
-3.45375e-13
-4.29398e-12
-4.9141e-13
-4.22562e-12
-6.3947e-13
-4.16569e-12
-7.89372e-13
-4.1142e-12
-9.40893e-13
-4.07111e-12
-1.09378e-12
-4.03634e-12
-1.24775e-12
-4.00971e-12
-1.40249e-12
-3.99101e-12
-1.55762e-12
-3.97994e-12
-1.71273e-12
-3.97615e-12
-1.86734e-12
-3.97926e-12
-2.02088e-12
-3.98883e-12
-2.17277e-12
-4.00444e-12
-2.32234e-12
-4.02563e-12
-2.46889e-12
-4.05194e-12
-2.61168e-12
-4.08291e-12
-2.74992e-12
-4.11813e-12
-2.88283e-12
-4.15717e-12
-3.0096e-12
-4.19966e-12
-3.12939e-12
-4.24522e-12
-3.24141e-12
-4.29353e-12
-3.3449e-12
-4.34427e-12
-3.43915e-12
-4.39712e-12
-3.52356e-12
-4.45172e-12
-3.59771e-12
-4.5076e-12
-3.66139e-12
-4.56417e-12
-3.71466e-12
-4.62059e-12
-3.75784e-12
-4.67581e-12
-3.79148e-12
-4.72855e-12
-3.81625e-12
-4.77737e-12
-3.83279e-12
-4.82074e-12
-3.84159e-12
-4.85719e-12
-3.84295e-12
-4.88534e-12
-3.83691e-12
-4.90401e-12
-3.82337e-12
-4.91218e-12
-3.80214e-12
-4.90899e-12
-3.77305e-12
-4.89374e-12
-3.73603e-12
-4.86584e-12
-3.69105e-12
-4.8248e-12
-3.63821e-12
-4.77022e-12
-3.57766e-12
-4.70178e-12
-3.50964e-12
-4.61924e-12
-3.43439e-12
-4.52244e-12
-3.35222e-12
-4.41127e-12
-3.26344e-12
-4.28571e-12
-3.16838e-12
-4.14583e-12
-3.06738e-12
-3.99175e-12
-2.96081e-12
-3.82366e-12
-2.84902e-12
-3.64183e-12
-2.73235e-12
-3.44659e-12
-2.61115e-12
-3.23835e-12
-2.48577e-12
-3.01755e-12
-2.35656e-12
-2.78469e-12
-2.22389e-12
-2.54032e-12
-2.08815e-12
-2.28496e-12
-1.94982e-12
-2.01917e-12
-1.80943e-12
-1.74348e-12
-1.66756e-12
-1.4584e-12
-1.52489e-12
-1.1644e-12
-1.38206e-12
-8.6196e-13
-1.23971e-12
-5.51518e-13
-1.09836e-12
-2.33534e-13
-9.58407e-13
9.15749e-14
-8.20155e-13
4.23352e-13
-6.83761e-13
7.6125e-13
-5.49293e-13
1.10473e-12
-4.1677e-13
1.45313e-12
-2.86165e-13
1.80571e-12
-1.57449e-13
2.16163e-12
-3.05826e-14
2.52007e-12
9.44229e-14
2.88014e-12
2.1764e-13
3.24089e-12
3.39099e-13
3.60139e-12
4.58796e-13
3.96066e-12
5.76763e-13
4.31769e-12
6.93033e-13
4.67138e-12
8.07685e-13
5.02061e-12
9.20939e-13
5.36404e-12
1.03343e-12
5.70001e-12
1.14684e-12
6.02598e-12
1.26538e-12
6.33753e-12
1.39875e-12
6.62622e-12
1.56763e-12
6.87588e-12
1.8121e-12
7.05689e-12
2.20129e-12
7.11941e-12
2.83751e-12
6.98911e-12
3.83973e-12
6.57304e-12
5.28582e-12
5.78559e-12
7.10211e-12
4.60034e-12
8.92923e-12
3.11598e-12
1.00634e-11
1.59752e-12
9.62224e-12
4.36282e-13
7.01237e-12
2.51795e-12
-4.87205e-13
3.155e-12
-1.77229e-12
8.68357e-12
-3.44934e-12
1.18306e-11
-5.09966e-12
1.23393e-11
-6.44403e-12
1.09691e-11
-7.37967e-12
8.78908e-12
-7.93462e-12
6.6361e-12
-8.19814e-12
4.93162e-12
-8.26681e-12
3.7587e-12
-8.21772e-12
3.02272e-12
-8.10252e-12
2.58177e-12
-7.95189e-12
2.31436e-12
-7.78254e-12
2.1384e-12
-7.60317e-12
2.0063e-12
-7.4183e-12
1.89338e-12
-7.23049e-12
1.78796e-12
-7.04141e-12
1.68486e-12
-6.85232e-12
1.5819e-12
-6.66431e-12
1.47815e-12
-6.47835e-12
1.3732e-12
-6.29536e-12
1.26682e-12
-6.11617e-12
1.15884e-12
-5.94157e-12
1.04914e-12
-5.77227e-12
9.37597e-13
-5.60892e-12
8.24113e-13
-5.4521e-12
7.08602e-13
-5.30232e-12
5.90989e-13
-5.16003e-12
4.71217e-13
-5.02558e-12
3.4925e-13
-4.89925e-12
2.25066e-13
-4.78124e-12
9.86482e-14
-4.67168e-12
-3.00102e-14
-4.57062e-12
-1.60902e-13
-4.47809e-12
-2.94026e-13
-4.39411e-12
-4.29363e-13
-4.31867e-12
-5.66849e-13
-4.25176e-12
-7.06382e-13
-4.19334e-12
-8.47802e-13
-4.14331e-12
-9.90919e-13
-4.10156e-12
-1.13554e-12
-4.0679e-12
-1.28142e-12
-4.04207e-12
-1.42832e-12
-4.02377e-12
-1.57593e-12
-4.0126e-12
-1.7239e-12
-4.00815e-12
-1.87179e-12
-4.00993e-12
-2.0191e-12
-4.01745e-12
-2.16526e-12
-4.03018e-12
-2.30961e-12
-4.04762e-12
-2.45146e-12
-4.06925e-12
-2.59004e-12
-4.0946e-12
-2.72458e-12
-4.12322e-12
-2.85422e-12
-4.15469e-12
-2.97813e-12
-4.18864e-12
-3.09544e-12
-4.22475e-12
-3.2053e-12
-4.26275e-12
-3.3069e-12
-4.30239e-12
-3.3995e-12
-4.34345e-12
-3.48251e-12
-4.38565e-12
-3.55551e-12
-4.42865e-12
-3.61839e-12
-4.47196e-12
-3.67136e-12
-4.51488e-12
-3.71493e-12
-4.55648e-12
-3.74988e-12
-4.59561e-12
-3.77712e-12
-4.63094e-12
-3.79746e-12
-4.66105e-12
-3.81148e-12
-4.68453e-12
-3.81946e-12
-4.70009e-12
-3.82135e-12
-4.70658e-12
-3.81688e-12
-4.70303e-12
-3.80569e-12
-4.68865e-12
-3.78744e-12
-4.66279e-12
-3.76188e-12
-4.62494e-12
-3.7289e-12
-4.57468e-12
-3.68847e-12
-4.51166e-12
-3.64069e-12
-4.43561e-12
-3.58568e-12
-4.34634e-12
-3.52367e-12
-4.2437e-12
-3.45486e-12
-4.12761e-12
-3.37953e-12
-3.99804e-12
-3.29794e-12
-3.85503e-12
-3.21039e-12
-3.69868e-12
-3.11716e-12
-3.52914e-12
-3.01856e-12
-3.34661e-12
-2.91488e-12
-3.15137e-12
-2.8064e-12
-2.94372e-12
-2.69342e-12
-2.72403e-12
-2.57625e-12
-2.49272e-12
-2.45521e-12
-2.25019e-12
-2.33068e-12
-1.99689e-12
-2.20313e-12
-1.73323e-12
-2.07309e-12
-1.45961e-12
-1.94118e-12
-1.17642e-12
-1.80808e-12
-8.84046e-13
-1.67444e-12
-5.82867e-13
-1.54089e-12
-2.7327e-13
-1.40796e-12
4.43535e-14
-1.27603e-12
3.69517e-13
-1.14532e-12
7.01721e-13
-1.01597e-12
1.04043e-12
-8.87999e-13
1.38503e-12
-7.6137e-13
1.73487e-12
-6.36004e-13
2.08922e-12
-5.11802e-13
2.44731e-12
-3.88672e-13
2.80825e-12
-2.66524e-13
3.17118e-12
-1.45286e-13
3.53515e-12
-2.48734e-14
3.89924e-12
9.47083e-14
4.26241e-12
2.13592e-13
4.62362e-12
3.31827e-13
4.98178e-12
4.49516e-13
5.33576e-12
5.66964e-13
5.68423e-12
6.84959e-13
6.02552e-12
8.05553e-13
6.35709e-12
9.33813e-13
6.67443e-12
1.08141e-12
6.96889e-12
1.27318e-12
7.22373e-12
1.55725e-12
7.40819e-12
2.01683e-12
7.4703e-12
2.7754e-12
7.33237e-12
3.97766e-12
6.89693e-12
5.72127e-12
6.07368e-12
7.92536e-12
4.83361e-12
1.01693e-11
3.27831e-12
1.16187e-11
1.68405e-12
1.12165e-11
4.61492e-13
8.23494e-12
2.97944e-12
-5.16534e-13
3.67153e-12
-1.87605e-12
1.00431e-11
-3.64761e-12
1.36021e-11
-5.38857e-12
1.40802e-11
-6.80485e-12
1.23853e-11
-7.78896e-12
9.77319e-12
-8.37131e-12
7.21844e-12
-8.64658e-12
5.20688e-12
-8.71698e-12
3.82909e-12
-8.66403e-12
2.96977e-12
-8.54234e-12
2.46008e-12
-8.38429e-12
2.15631e-12
-8.20752e-12
1.96163e-12
-8.02114e-12
1.81992e-12
-7.82987e-12
1.70211e-12
-7.63633e-12
1.59442e-12
-7.44221e-12
1.49073e-12
-7.24875e-12
1.38844e-12
-7.05704e-12
1.28644e-12
-6.86805e-12
1.1842e-12
-6.68265e-12
1.08143e-12
-6.50169e-12
9.77872e-13
-6.3259e-12
8.73351e-13
-6.15599e-12
7.67685e-13
-5.99258e-12
6.60702e-13
-5.83621e-12
5.52238e-13
-5.68737e-12
4.4214e-13
-5.54643e-12
3.30279e-13
-5.4137e-12
2.16518e-13
-5.28939e-12
1.00758e-13
-5.17364e-12
-1.71074e-14
-5.06648e-12
-1.37169e-13
-4.96791e-12
-2.59476e-13
-4.87785e-12
-3.84094e-13
-4.79616e-12
-5.11051e-13
-4.72269e-12
-6.40325e-13
-4.65723e-12
-7.71839e-13
-4.59956e-12
-9.0547e-13
-4.54942e-12
-1.04107e-12
-4.50651e-12
-1.17845e-12
-4.47048e-12
-1.31745e-12
-4.44094e-12
-1.45786e-12
-4.41744e-12
-1.59943e-12
-4.39946e-12
-1.74188e-12
-4.38645e-12
-1.88481e-12
-4.37781e-12
-2.02774e-12
-4.37294e-12
-2.17013e-12
-4.37124e-12
-2.31131e-12
-4.37212e-12
-2.45058e-12
-4.37502e-12
-2.58714e-12
-4.37945e-12
-2.72015e-12
-4.38496e-12
-2.84872e-12
-4.39116e-12
-2.97192e-12
-4.39777e-12
-3.08883e-12
-4.40456e-12
-3.19851e-12
-4.4114e-12
-3.30007e-12
-4.4182e-12
-3.3927e-12
-4.42493e-12
-3.47578e-12
-4.43154e-12
-3.54891e-12
-4.4379e-12
-3.61203e-12
-4.44376e-12
-3.66549e-12
-4.44867e-12
-3.71002e-12
-4.45192e-12
-3.74663e-12
-4.45257e-12
-3.77647e-12
-4.44948e-12
-3.80055e-12
-4.4414e-12
-3.81956e-12
-4.42709e-12
-3.83377e-12
-4.40542e-12
-3.84302e-12
-4.37541e-12
-3.84689e-12
-4.33627e-12
-3.84483e-12
-4.2874e-12
-3.83631e-12
-4.22832e-12
-3.82096e-12
-4.15871e-12
-3.79851e-12
-4.07829e-12
-3.76889e-12
-3.98689e-12
-3.73209e-12
-3.88435e-12
-3.68822e-12
-3.77057e-12
-3.63745e-12
-3.64549e-12
-3.57994e-12
-3.50908e-12
-3.51595e-12
-3.36132e-12
-3.4457e-12
-3.20227e-12
-3.36944e-12
-3.032e-12
-3.28744e-12
-2.8506e-12
-3.19996e-12
-2.65822e-12
-3.10726e-12
-2.45504e-12
-3.00958e-12
-2.24128e-12
-2.90718e-12
-2.01719e-12
-2.80034e-12
-1.78304e-12
-2.68936e-12
-1.53908e-12
-2.57464e-12
-1.28558e-12
-2.45663e-12
-1.02278e-12
-2.33589e-12
-7.50879e-13
-2.21308e-12
-4.70078e-13
-2.08888e-12
-1.80561e-13
-1.96396e-12
1.17409e-13
-1.83886e-12
4.23532e-13
-1.71408e-12
7.37434e-13
-1.58993e-12
1.05872e-12
-1.46661e-12
1.3869e-12
-1.34415e-12
1.72141e-12
-1.22251e-12
2.06164e-12
-1.1016e-12
2.40689e-12
-9.81259e-13
2.75645e-12
-8.61359e-13
3.10952e-12
-7.41744e-13
3.46527e-12
-6.22278e-13
3.82283e-12
-5.02838e-13
4.18127e-12
-3.83319e-13
4.5396e-12
-2.6362e-13
4.89685e-12
-1.43655e-13
5.25198e-12
-2.33071e-14
5.604e-12
9.75004e-14
5.95171e-12
2.19252e-13
6.29381e-12
3.42859e-13
6.62865e-12
4.70715e-13
6.95363e-12
6.08832e-13
7.26409e-12
7.70947e-13
7.551e-12
9.86271e-13
7.79676e-12
1.31148e-12
7.96899e-12
1.8446e-12
8.01293e-12
2.73146e-12
7.84668e-12
4.1439e-12
7.36748e-12
6.20047e-12
6.48003e-12
8.8128e-12
5.15353e-12
1.14958e-11
3.49498e-12
1.32773e-11
1.79635e-12
1.29151e-11
4.9303e-13
9.53826e-12
3.47247e-12
-5.49802e-13
4.22133e-12
-1.9955e-12
1.14888e-11
-3.87794e-12
1.54846e-11
-5.72666e-12
1.59289e-11
-7.22973e-12
1.38884e-11
-8.27359e-12
1.0817e-11
-8.89086e-12
7.8357e-12
-9.18224e-12
5.49827e-12
-9.25642e-12
3.90327e-12
-9.20009e-12
2.91344e-12
-9.07139e-12
2.33138e-12
-8.90484e-12
1.98976e-12
-8.71925e-12
1.77604e-12
-8.52432e-12
1.62499e-12
-8.32505e-12
1.50283e-12
-8.12415e-12
1.39352e-12
-7.92337e-12
1.28995e-12
-7.72398e-12
1.18905e-12
-7.52705e-12
1.08951e-12
-7.33355e-12
9.90702e-13
-7.14436e-12
8.92238e-13
-6.96031e-12
7.93821e-13
-6.78216e-12
6.95192e-13
-6.61056e-12
5.9609e-13
-6.44613e-12
4.9627e-13
-6.28939e-12
3.95492e-13
-6.14076e-12
2.9351e-13
-6.00059e-12
1.90101e-13
-5.86915e-12
8.50807e-14
-5.74657e-12
-2.18244e-14
-5.63292e-12
-1.30755e-13
-5.52822e-12
-2.41879e-13
-5.43232e-12
-3.55377e-13
-5.34502e-12
-4.71392e-13
-5.26604e-12
-5.9003e-13
-5.19503e-12
-7.11341e-13
-5.13157e-12
-8.353e-13
-5.07522e-12
-9.61828e-13
-5.02548e-12
-1.0908e-12
-4.98186e-12
-1.22207e-12
-4.94382e-12
-1.35549e-12
-4.91078e-12
-1.4909e-12
-4.88209e-12
-1.62812e-12
-4.85709e-12
-1.76688e-12
-4.83506e-12
-1.90684e-12
-4.81525e-12
-2.04755e-12
-4.79692e-12
-2.18846e-12
-4.77934e-12
-2.32889e-12
-4.76184e-12
-2.46809e-12
-4.74378e-12
-2.6052e-12
-4.72463e-12
-2.73931e-12
-4.70391e-12
-2.86943e-12
-4.68131e-12
-2.99453e-12
-4.65659e-12
-3.11356e-12
-4.62966e-12
-3.22544e-12
-4.60054e-12
-3.32919e-12
-4.56935e-12
-3.42389e-12
-4.53631e-12
-3.50883e-12
-4.50162e-12
-3.5836e-12
-4.46545e-12
-3.6482e-12
-4.42783e-12
-3.70312e-12
-4.38856e-12
-3.74929e-12
-4.34719e-12
-3.78801e-12
-4.30297e-12
-3.82069e-12
-4.25498e-12
-3.84855e-12
-4.20213e-12
-3.87241e-12
-4.14338e-12
-3.89252e-12
-4.07778e-12
-3.90863e-12
-4.00456e-12
-3.92011e-12
-3.92316e-12
-3.92622e-12
-3.83323e-12
-3.92625e-12
-3.73455e-12
-3.91964e-12
-3.627e-12
-3.90606e-12
-3.51054e-12
-3.88534e-12
-3.38518e-12
-3.85745e-12
-3.25093e-12
-3.82248e-12
-3.10781e-12
-3.78057e-12
-2.95584e-12
-3.73191e-12
-2.79506e-12
-3.67673e-12
-2.62549e-12
-3.61526e-12
-2.44717e-12
-3.54777e-12
-2.26013e-12
-3.47448e-12
-2.06444e-12
-3.39566e-12
-1.86014e-12
-3.31155e-12
-1.64733e-12
-3.22239e-12
-1.42611e-12
-3.12841e-12
-1.19657e-12
-3.02988e-12
-9.5881e-13
-2.92712e-12
-7.12924e-13
-2.82052e-12
-4.58937e-13
-2.71062e-12
-1.96828e-13
-2.598e-12
7.34086e-14
-2.48332e-12
3.51777e-13
-2.36725e-12
6.38241e-13
-2.25042e-12
9.32731e-13
-2.13335e-12
1.23506e-12
-2.01641e-12
1.54494e-12
-1.89982e-12
1.862e-12
-1.78366e-12
2.18576e-12
-1.6679e-12
2.51567e-12
-1.55243e-12
2.85113e-12
-1.43705e-12
3.19144e-12
-1.32158e-12
3.53588e-12
-1.20579e-12
3.88365e-12
-1.08951e-12
4.23391e-12
-9.72542e-13
4.5858e-12
-8.54724e-13
4.93839e-12
-7.35912e-13
5.29075e-12
-6.15976e-13
5.64188e-12
-4.94794e-13
5.99081e-12
-3.72228e-13
6.33638e-12
-2.48074e-13
6.67748e-12
-1.21854e-13
7.01281e-12
7.53101e-15
7.34082e-12
1.4271e-13
7.6587e-12
2.90951e-13
7.96158e-12
4.68065e-13
8.23986e-12
7.07988e-13
8.47488e-12
1.07646e-12
8.63221e-12
1.68727e-12
8.65374e-12
2.70993e-12
8.45268e-12
4.34497e-12
7.92016e-12
6.73299e-12
6.95537e-12
9.77759e-12
5.52589e-12
1.29253e-11
3.74561e-12
1.50576e-11
1.92518e-12
1.47356e-11
5.28708e-13
1.09347e-11
4.00118e-12
-5.87181e-13
4.80851e-12
-2.13018e-12
1.30318e-11
-4.138e-12
1.74924e-11
-6.10852e-12
1.78995e-11
-7.70949e-12
1.54894e-11
-8.82027e-12
1.19278e-11
-9.47589e-12
8.49133e-12
-9.78386e-12
5.80624e-12
-9.86016e-12
3.97956e-12
-9.79742e-12
2.8507e-12
-9.65789e-12
2.19185e-12
-9.47859e-12
1.81046e-12
-9.27972e-12
1.57717e-12
-9.07171e-12
1.41698e-12
-8.8599e-12
1.29103e-12
-8.64723e-12