/*--------------------------------*- C++ -*----------------------------------*\
| =========                 |                                                 |
| \\      /  F ield         | OpenFOAM: The Open Source CFD Toolbox           |
|  \\    /   O peration     | Version:  2206                                  |
|   \\  /    A nd           | Website:  www.openfoam.com                      |
|    \\/     M anipulation  |                                                 |
\*---------------------------------------------------------------------------*/
FoamFile
{
    version     2.0;
    format      ascii;
    arch        "LSB;label=64;scalar=64";
    class       surfaceScalarField;
    location    "280800";
    object      phi;
}
// * * * * * * * * * * * * * * * * * * * * * * * * * * * * * * * * * * * * * //

dimensions      [0 3 -1 0 0 0 0];

oriented        oriented;

internalField   nonuniform List<scalar> 
24
(
4.42202e-10
-4.42202e-10
3.08236e-10
1.33966e-10
7.37877e-11
2.34449e-10
7.37877e-11
-7.57753e-11
-3.66427e-10
-4.69358e-11
1.05126e-10
-3.61731e-11
2.23686e-10
3.76146e-11
-1.8855e-10
-1.77877e-10
-1.19711e-10
3.62874e-11
-3.92724e-11
1.43247e-10
-1.65779e-12
-1.77877e-10
-1.4159e-10
1.65778e-12
)
;

boundaryField
{
    movingWall
    {
        type            calculated;
        value           nonuniform List<scalar> 4(0 -2.01948e-28 0 0);
    }
    fixedWalls
    {
        type            calculated;
        value           uniform 0;
    }
    frontAndBack
    {
        type            empty;
        value           nonuniform List<scalar> 0();
    }
}


// ************************************************************************* //
