/*--------------------------------*- C++ -*----------------------------------*\
| =========                 |                                                 |
| \\      /  F ield         | OpenFOAM: The Open Source CFD Toolbox           |
|  \\    /   O peration     | Version:  2212                                  |
|   \\  /    A nd           | Website:  www.openfoam.com                      |
|    \\/     M anipulation  |                                                 |
\*---------------------------------------------------------------------------*/
FoamFile
{
    version     2.0;
    format      ascii;
    arch        "LSB;label=64;scalar=64";
    class       volScalarField;
    location    "0.13";
    object      alpha.air;
}
// * * * * * * * * * * * * * * * * * * * * * * * * * * * * * * * * * * * * * //

dimensions      [0 0 0 0 0 0 0];

internalField   nonuniform List<scalar> 
32768
(
4.66051e-134
6.91232e-130
2.42578e-125
1.4878e-121
9.19227e-119
2.50327e-116
4.66161e-114
6.78357e-112
8.09309e-110
8.09305e-108
6.87952e-106
5.01599e-104
3.15621e-102
1.72027e-100
8.13564e-99
3.33817e-97
1.18616e-95
3.63567e-94
9.55582e-93
2.13575e-91
4.01309e-90
6.24422e-89
7.88719e-88
7.88039e-87
6.02004e-86
3.36129e-85
1.29024e-84
3.1232e-84
4.19534e-84
2.55665e-84
5.02962e-85
1.90004e-86
6.07895e-88
1.66648e-89
4.16529e-91
9.84114e-93
2.23763e-94
4.93633e-96
1.06027e-97
2.21989e-99
4.52775e-101
8.9747e-103
1.72211e-104
3.18397e-106
5.64471e-108
9.55133e-110
1.5358e-111
2.33666e-113
3.349e-115
4.49964e-117
5.63606e-119
6.53911e-121
6.97483e-123
6.77861e-125
5.93847e-127
4.62824e-129
3.15611e-131
1.84269e-133
8.93998e-136
3.44859e-138
9.83512e-141
1.79304e-143
1.32184e-146
6.5303e-150
5.21625e-147
2.96603e-144
1.16735e-141
3.48191e-139
8.32231e-137
1.65517e-134
2.81451e-132
4.17653e-130
5.49589e-128
6.49633e-126
6.97152e-124
6.85345e-122
6.21958e-120
5.24573e-118
4.13642e-116
3.06555e-114
2.14523e-112
1.42319e-110
8.98099e-109
5.40506e-107
3.10854e-105
1.71101e-103
9.0264e-102
4.57271e-100
2.23145e-98
1.05433e-96
4.86046e-95
2.20865e-93
1.00056e-91
4.55993e-90
2.09882e-88
9.82794e-87
4.01156e-85
4.06819e-84
1.23126e-83
1.47894e-83
8.92099e-84
3.16388e-84
7.33616e-85
1.19777e-85
1.45309e-86
1.36358e-87
1.0206e-88
6.23886e-90
3.17242e-91
1.36104e-92
4.97994e-94
1.56661e-95
4.26184e-97
1.00645e-98
2.06737e-100
3.69515e-102
5.73645e-104
7.70618e-106
8.9028e-108
8.76275e-110
7.24781e-112
4.92403e-114
2.61909e-116
9.53061e-119
1.53186e-121
2.49395e-125
2.92678e-132
4.91786e-136
1.81142e-134
1.28514e-128
6.75443e-122
3.63404e-118
2.15898e-115
5.79722e-113
1.07286e-110
1.55736e-108
1.85882e-106
1.86471e-104
1.59444e-102
1.17267e-100
7.46497e-99
4.12907e-97
1.9883e-95
8.33682e-94
3.03921e-92
9.59942e-91
2.61299e-89
6.08299e-88
1.19852e-86
1.97095e-85
2.6563e-84
2.86478e-83
2.39659e-82
1.49266e-81
6.55011e-81
1.87636e-80
3.14442e-80
2.61873e-80
8.5549e-81
8.87149e-82
3.73217e-83
1.53111e-84
6.03598e-86
2.26836e-87
8.11976e-89
2.77497e-90
9.08107e-92
2.8527e-93
8.61589e-95
2.50295e-96
6.98832e-98
1.87168e-99
4.7952e-101
1.17108e-102
2.71563e-104
5.95413e-106
1.22874e-107
2.37495e-109
4.27602e-111
7.12764e-113
1.09217e-114
1.52562e-116
1.92346e-118
2.16226e-120
2.13461e-122
1.81475e-124
1.29423e-126
7.46026e-129
3.28221e-131
9.96405e-134
1.65811e-136
5.4221e-140
1.46201e-137
7.31026e-135
2.3183e-132
5.34118e-130
9.61756e-128
1.41693e-125
1.76265e-123
1.8947e-121
1.79126e-119
1.51051e-117
1.14931e-115
7.96676e-114
5.07246e-112
2.98758e-110
1.63774e-108
8.40039e-107
4.05011e-105
1.84264e-103
7.93687e-102
3.24577e-100
1.26335e-98
4.69125e-97
1.66608e-95
5.67535e-94
1.86078e-92
5.89716e-91
1.8155e-89
5.45904e-88
1.61184e-86
4.69416e-85
1.35304e-83
3.87677e-82
6.5415e-81
4.17842e-80
9.25861e-80
8.8715e-80
4.5001e-80
1.39008e-80
2.87841e-81
4.27628e-82
4.79018e-83
4.19989e-84
2.96586e-85
1.72464e-86
8.40075e-88
3.47345e-89
1.23134e-90
3.77063e-92
1.00271e-93
2.32356e-95
4.69976e-97
8.29803e-99
1.27634e-100
1.70356e-102
1.96058e-104
1.92726e-106
1.59605e-108
1.08855e-110
5.83192e-113
2.15295e-115
3.5926e-118
6.60709e-122
1.25199e-128
6.51767e-140
8.86604e-139
1.52055e-125
5.98313e-119
2.97293e-115
1.72555e-112
4.59487e-110
8.4692e-108
1.22714e-105
1.46493e-103
1.47284e-101
1.26487e-99
9.36484e-98
6.01583e-96
3.36661e-94
1.64479e-92
7.01833e-91
2.61245e-89
8.45646e-88
2.36886e-86
5.70207e-85
1.16802e-83
2.0098e-82
2.85576e-81
3.27681e-80
2.94887e-79
2.00276e-78
9.7494e-78
3.16843e-77
6.2097e-77
6.31042e-77
2.65938e-77
3.67228e-78
1.96218e-79
8.66685e-81
3.63867e-82
1.45771e-83
5.58354e-85
2.04893e-86
7.21759e-88
2.44451e-89
7.96693e-91
2.49827e-92
7.52896e-94
2.17604e-95
6.01434e-97
1.58422e-98
3.9618e-100
9.36769e-102
2.08499e-103
4.34712e-105
8.4445e-107
1.51899e-108
2.51222e-110
3.78839e-112
5.15722e-114
6.26144e-116
6.67855e-118
6.13831e-120
4.73789e-122
2.96155e-124
1.41827e-126
4.72567e-129
8.85213e-132
3.91837e-135
5.96781e-133
2.88865e-130
8.73096e-128
1.90381e-125
3.23183e-123
4.47754e-121
5.2287e-119
5.26869e-117
4.66385e-115
3.67848e-113
2.61506e-111
1.69178e-109
1.00411e-107
5.50572e-106
2.80574e-104
1.33578e-102
5.96805e-101
2.51204e-99
9.99508e-98
3.77063e-96
1.3524e-94
4.62422e-93
1.51162e-91
4.73911e-90
1.43013e-88
4.17137e-87
1.18141e-85
3.26458e-84
8.84203e-83
2.35638e-81
6.19693e-80
1.61379e-78
2.21003e-77
1.103e-76
1.96671e-76
1.58397e-76
6.98816e-77
1.92561e-77
3.62567e-78
4.97163e-79
5.20237e-80
4.30325e-81
2.89079e-82
1.61038e-83
7.56034e-85
3.02876e-86
1.04513e-87
3.12808e-89
8.16046e-91
1.86129e-92
3.71689e-94
6.49723e-96
9.91936e-98
1.31725e-99
1.51161e-101
1.48465e-103
1.23083e-105
8.41885e-108
4.53216e-110
1.688e-112
2.88234e-115
5.72373e-119
1.42653e-125
2.02266e-143
2.58306e-140
9.74319e-123
3.03242e-116
1.40982e-112
8.02192e-110
2.11986e-107
3.89122e-105
5.62572e-103
6.71321e-101
6.75975e-99
5.82576e-97
4.3378e-95
2.8088e-93
1.58832e-91
7.86179e-90
3.40838e-88
1.29309e-86
4.281e-85
1.2313e-83
3.05667e-82
6.49052e-81
1.16466e-79
1.73802e-78
2.11223e-77
2.03394e-76
1.4967e-75
8.01867e-75
2.92633e-74
6.61471e-74
8.0386e-74
4.2389e-74
7.45063e-75
4.69491e-76
2.1794e-77
9.64159e-79
4.07672e-80
1.65019e-81
6.40666e-83
2.39017e-84
8.58124e-86
2.96663e-87
9.87185e-89
3.1575e-90
9.68507e-92
2.84049e-93
7.93842e-95
2.10622e-96
5.28389e-98
1.24793e-99
2.76132e-101
5.69362e-103
1.08722e-104
1.90896e-106
3.05612e-108
4.41666e-110
5.69247e-112
6.44562e-114
6.28994e-116
5.15649e-118
3.42605e-120
1.7467e-122
6.21746e-125
1.25678e-127
6.35269e-131
7.06989e-129
3.29706e-126
9.5359e-124
1.98372e-121
3.2075e-119
4.22878e-117
4.69652e-115
4.49901e-113
3.78488e-111
2.83622e-109
1.91504e-107
1.17626e-105
6.62545e-104
3.44584e-102
1.6646e-100
7.50714e-99
3.17464e-97
1.26359e-95
4.7492e-94
1.69036e-92
5.71259e-91
1.83792e-89
5.64566e-88
1.66138e-86
4.70278e-85
1.28665e-83
3.42092e-82
8.88935e-81
2.26978e-79
5.72221e-78
1.43173e-76
3.39497e-75
3.93113e-74
1.56213e-73
2.27873e-73
1.56169e-73
6.04758e-74
1.49714e-74
2.578e-75
3.27845e-76
3.2178e-77
2.52001e-78
1.61541e-79
8.64492e-81
3.9214e-82
1.52549e-83
5.13417e-85
1.50464e-86
3.85697e-88
8.67157e-90
1.71185e-91
2.9659e-93
4.49886e-95
5.94896e-97
6.81174e-99
6.68827e-101
5.55303e-103
3.81017e-105
2.06099e-107
7.73866e-110
1.3479e-112
2.85649e-116
8.92699e-123
2.48569e-140
2.66634e-137
4.24288e-120
1.06487e-113
4.65448e-110
2.5993e-107
6.81691e-105
1.24581e-102
1.79641e-100
2.14176e-98
2.15867e-96
1.86579e-94
1.39616e-92
9.1054e-91
5.19825e-89
2.60428e-87
1.14593e-85
4.42591e-84
1.4967e-82
4.41368e-81
1.12821e-79
2.47893e-78
4.62941e-77
7.23909e-76
9.29416e-75
9.54804e-74
7.58653e-73
4.45516e-72
1.81674e-71
4.70696e-71
6.78686e-71
4.44062e-71
9.96003e-72
7.38602e-73
3.68024e-74
1.74756e-75
7.92901e-77
3.44351e-78
1.43452e-79
5.74442e-81
2.21462e-82
8.22492e-84
2.94123e-85
1.01115e-86
3.33378e-88
1.05091e-89
3.15646e-91
8.99916e-93
2.42558e-94
6.15369e-96
1.46238e-97
3.23767e-99
6.63674e-101
1.25058e-102
2.14811e-104
3.33003e-106
4.60299e-108
5.58905e-110
5.84862e-112
5.14256e-114
3.66672e-116
2.00872e-118
7.70621e-121
1.69408e-123
9.80325e-127
7.95844e-125
3.53708e-122
9.68038e-120
1.89931e-117
2.89114e-115
3.58446e-113
3.74102e-111
3.36626e-109
2.65937e-107
1.87104e-105
1.18598e-103
6.83774e-102
3.61474e-100
1.76421e-98
7.99637e-97
3.38302e-95
1.34175e-93
5.00733e-92
1.76386e-90
5.88053e-89
1.85997e-87
5.59447e-86
1.60441e-84
4.40123e-83
1.15963e-81
2.94985e-80
7.28884e-79
1.76073e-77
4.18231e-76
9.81168e-75
2.28294e-73
4.83414e-72
4.66945e-71
1.47398e-70
1.76885e-70
1.03733e-70
3.54244e-71
7.90931e-72
1.24962e-72
1.47797e-73
1.36404e-74
1.01364e-75
6.21295e-77
3.19987e-78
1.40475e-79
5.3146e-81
1.74699e-82
5.01951e-84
1.26577e-85
2.80812e-87
5.48531e-89
9.42762e-91
1.42189e-92
1.87348e-94
2.14171e-96
2.10329e-98
1.7496e-100
1.20462e-102
6.5486e-105
2.47869e-107
4.3992e-110
9.9066e-114
3.8174e-120
2.5039e-137
1.96721e-134
1.38857e-117
2.83429e-111
1.16709e-107
6.39906e-105
1.66527e-102
3.02899e-100
4.35449e-98
5.18456e-96
5.22778e-94
4.52901e-92
3.40375e-90
2.23429e-88
1.28681e-86
6.51987e-85
2.90918e-83
1.14276e-81
3.94316e-80
1.19084e-78
3.13029e-77
7.10691e-76
1.37909e-74
2.25564e-73
3.05319e-72
3.33865e-71
2.85694e-70
1.83345e-69
8.32474e-69
2.4617e-68
4.1903e-68
3.3872e-68
9.77142e-69
8.7035e-70
4.74089e-71
2.45685e-72
1.21459e-73
5.74086e-75
2.6014e-76
1.13311e-77
4.75357e-79
1.92221e-80
7.48862e-82
2.80599e-83
1.0086e-84
3.46652e-86
1.13513e-87
3.52777e-89
1.03626e-90
2.8643e-92
7.41344e-94
1.78679e-95
3.9851e-97
8.16509e-99
1.52386e-100
2.56466e-102
3.84552e-104
5.06106e-106
5.73658e-108
5.46122e-110
4.21606e-112
2.50291e-114
1.04352e-116
2.51606e-119
1.68709e-122
9.87577e-121
4.15685e-118
1.06839e-115
1.9604e-113
2.78355e-111
3.21315e-109
3.11791e-107
2.60556e-105
1.90994e-103
1.24591e-101
7.31763e-100
3.90722e-98
1.91211e-96
8.63618e-95
3.62159e-93
1.4174e-91
5.20035e-90
1.79543e-88
5.85167e-87
1.80517e-85
5.28284e-84
1.4697e-82
3.89548e-81
9.8637e-80
2.39458e-78
5.60021e-77
1.2693e-75
2.80694e-74
6.09554e-73
1.30661e-71
2.77774e-70
5.18863e-69
4.07989e-68
1.01892e-67
1.00949e-67
5.08611e-68
1.53703e-68
3.10432e-69
4.51174e-70
4.97421e-71
4.32555e-72
3.05575e-73
1.79389e-74
8.90551e-76
3.78906e-77
1.39596e-78
4.48723e-80
1.26542e-81
3.14232e-83
6.88532e-85
1.33196e-86
2.27264e-88
3.4104e-90
4.48011e-92
5.11589e-94
5.02738e-96
4.19155e-98
2.89684e-100
1.58306e-102
6.04084e-105
1.0921e-107
2.60874e-111
1.23068e-117
1.77182e-134
1.12126e-131
3.61024e-115
6.01731e-109
2.33607e-105
1.25756e-102
3.24658e-100
5.87548e-98
8.41783e-96
1.00043e-93
1.0087e-91
8.75423e-90
6.6038e-88
4.36023e-86
2.53159e-84
1.29621e-82
5.86008e-81
2.33903e-79
8.22713e-78
2.54171e-76
6.86249e-75
1.60776e-73
3.23694e-72
5.52856e-71
7.87484e-70
9.14658e-69
8.4093e-68
5.88169e-67
2.96424e-66
9.96756e-66
1.99442e-65
1.98424e-65
7.40924e-66
8.1674e-67
4.93664e-68
2.82915e-69
1.54254e-70
8.02826e-72
4.00408e-73
1.92078e-74
8.88566e-76
3.96822e-77
1.7097e-78
7.09163e-80
2.82302e-81
1.07451e-82
3.89482e-84
1.33884e-85
4.34544e-87
1.32545e-88
3.78008e-90
1.00223e-91
2.45461e-93
5.51266e-95
1.12573e-96
2.06967e-98
3.38531e-100
4.85501e-102
5.99278e-104
6.21232e-106
5.22582e-108
3.38679e-110
1.54793e-112
4.13687e-115
3.25939e-118
1.34893e-116
5.34272e-114
1.28114e-111
2.18472e-109
2.87621e-107
3.07309e-105
2.75614e-103
2.12596e-101
1.43658e-99
8.62775e-98
4.65939e-96
2.28466e-94
1.02546e-92
4.24283e-91
1.62809e-89
5.82492e-88
1.95211e-86
6.1526e-85
1.82992e-83
5.15054e-82
1.3751e-80
3.48942e-79
8.4325e-78
1.94509e-76
4.29579e-75
9.12299e-74
1.87372e-72
3.74719e-71
7.34766e-70
1.42085e-68
2.72362e-67
4.42099e-66
2.75516e-65
5.4303e-65
4.45678e-65
1.93621e-65
5.19453e-66
9.51641e-67
1.27536e-67
1.31352e-68
1.07832e-69
7.2545e-71
4.08557e-72
1.95789e-73
8.08463e-75
2.90417e-76
9.13936e-78
2.53235e-79
6.19848e-81
1.34263e-82
2.57425e-84
4.36357e-86
6.51939e-88
8.54359e-90
9.75016e-92
9.59193e-94
8.0186e-96
5.56446e-98
3.05764e-100
1.17651e-102
2.1666e-105
5.48652e-109
3.159e-115
9.66223e-132
5.17174e-129
7.7201e-113
1.05259e-106
3.85328e-103
2.03617e-100
5.21329e-98
9.38382e-96
1.33931e-93
1.58809e-91
1.60031e-89
1.39056e-87
1.05227e-85
6.9838e-84
4.08484e-82
2.11194e-80
9.6659e-79
3.91674e-77
1.40292e-75
4.42904e-74
1.22679e-72
2.96195e-71
6.17809e-70
1.10005e-68
1.64583e-67
2.02626e-66
1.99685e-65
1.51809e-64
8.46592e-64
3.22538e-63
7.55393e-63
9.21111e-63
4.4663e-63
6.3045e-64
4.27869e-65
2.74484e-66
1.67434e-67
9.75971e-69
5.45998e-70
2.94146e-71
1.52908e-72
7.67335e-74
3.7129e-75
1.72783e-76
7.70567e-78
3.28001e-79
1.32685e-80
5.07832e-82
1.83061e-83
6.18563e-85
1.94932e-86
5.69776e-88
1.53532e-89
3.78774e-91
8.48817e-93
1.71184e-94
3.07225e-96
4.83907e-98
6.57117e-100
7.51231e-102
6.99234e-104
5.03704e-106
2.57644e-108
7.81166e-111
7.42249e-114
2.10689e-112
7.69713e-110
1.68936e-107
2.63135e-105
3.16339e-103
3.08786e-101
2.5317e-99
1.78627e-97
1.10448e-95
6.07007e-94
2.999e-92
1.34446e-90
5.51202e-89
2.0805e-87
7.27197e-86
2.36588e-84
7.19718e-83
2.05546e-81
5.53041e-80
1.40608e-78
3.38657e-77
7.7435e-76
1.68418e-74
3.49173e-73
6.92014e-72
1.31631e-70
2.41662e-69
4.31248e-68
7.53661e-67
1.29821e-65
2.21609e-64
3.07084e-63
1.47948e-62
2.30067e-62
1.5702e-62
5.9041e-63
1.41072e-63
2.35078e-64
2.91211e-65
2.80783e-66
2.18035e-67
1.39941e-68
7.57297e-70
3.50857e-71
1.408e-72
4.93785e-74
1.5231e-75
4.151e-77
1.0025e-78
2.1485e-80
4.08607e-82
6.88587e-84
1.02492e-85
1.34065e-87
1.52982e-89
1.5073e-91
1.26391e-93
8.80955e-96
4.86889e-98
1.88952e-100
3.5452e-103
9.51716e-107
6.68124e-113
4.2717e-129
1.98728e-126
1.38991e-110
1.55107e-104
5.35286e-101
2.77568e-98
7.04555e-96
1.26089e-93
1.79203e-91
2.11908e-89
2.13306e-87
1.85471e-85
1.40704e-83
9.38055e-82
5.52325e-80
2.88125e-78
1.33384e-76
5.48189e-75
1.99752e-73
6.437e-72
1.82691e-70
4.53947e-69
9.79468e-68
1.81508e-66
2.84694e-65
3.70724e-64
3.90656e-63
3.21925e-62
1.98019e-61
8.51534e-61
2.32381e-60
3.45596e-60
2.17574e-60
4.06604e-61
3.12672e-62
2.27248e-63
1.57548e-64
1.04719e-65
6.69278e-67
4.12049e-68
2.44577e-69
1.39883e-70
7.69273e-72
4.05419e-73
2.03928e-74
9.74914e-76
4.41145e-77
1.88196e-78
7.54017e-80
2.82621e-81
9.86947e-83
3.19659e-84
9.55336e-86
2.61881e-87
6.53767e-89
1.47343e-90
2.96563e-92
5.2579e-94
8.066e-96
1.04531e-97
1.10651e-99
9.09549e-102
5.33287e-104
1.87241e-106
2.17457e-109
4.26934e-108
1.40517e-105
2.74711e-103
3.79505e-101
4.04141e-99
3.49645e-97
2.54548e-95
1.59904e-93
8.83095e-92
4.34944e-90
1.932e-88
7.80922e-87
2.89328e-85
9.88467e-84
3.12988e-82
9.22546e-81
2.54101e-79
6.56235e-78
1.59385e-76
3.65017e-75
7.90004e-74
1.61896e-72
3.14696e-71
5.81324e-70
1.02308e-68
1.72196e-67
2.78765e-66
4.37429e-65
6.71206e-64
1.01508e-62
1.52232e-61
1.7609e-60
6.42832e-60
7.90263e-60
4.505e-60
1.47195e-60
3.14299e-61
4.77761e-62
5.48452e-63
4.96181e-64
3.65197e-65
2.24032e-66
1.16694e-67
5.23502e-69
2.04463e-70
7.00965e-72
2.1218e-73
5.69406e-75
1.35816e-76
2.88255e-78
5.44214e-80
9.12421e-82
1.35384e-83
1.76861e-85
2.01897e-87
1.99316e-89
1.67706e-91
1.17446e-93
6.53068e-96
2.55693e-98
4.88935e-101
1.39193e-104
1.19158e-110
1.58052e-126
6.50461e-124
2.14214e-108
1.9562e-102
6.36118e-99
3.23548e-96
8.1389e-94
1.44762e-91
2.04792e-89
2.41388e-87
2.42586e-85
2.10948e-83
1.60333e-81
1.073e-79
6.3551e-78
3.3422e-76
1.56361e-74
6.51147e-73
2.4112e-71
7.92208e-70
2.30088e-68
5.87557e-67
1.30936e-65
2.52083e-64
4.13691e-63
5.68502e-62
6.38939e-61
5.6906e-60
3.84781e-59
1.86016e-58
5.88618e-58
1.06156e-57
8.64861e-58
2.19837e-58
1.9389e-59
1.63139e-60
1.31724e-61
1.01995e-62
7.57098e-64
5.39115e-65
3.68363e-66
2.41221e-67
1.51003e-68
9.00689e-70
5.10248e-71
2.73756e-72
1.3876e-73
6.6303e-75
2.97997e-76
1.25661e-77
4.95593e-79
1.82066e-80
6.19821e-82
1.94271e-83
5.56097e-85
1.43948e-86
3.32909e-88
6.77708e-90
1.19179e-91
1.76662e-93
2.1342e-95
1.99884e-97
1.33575e-99
5.38012e-102
7.50696e-105
1.09999e-103
3.29484e-101
5.77811e-99
7.09855e-97
6.67714e-95
5.07363e-93
3.22881e-91
1.76663e-89
8.47834e-88
3.62578e-86
1.39944e-84
4.92583e-83
1.59464e-81
4.78064e-80
1.33456e-78
3.48426e-77
8.53634e-76
1.96769e-74
4.27592e-73
8.77265e-72
1.70106e-70
3.11973e-69
5.41468e-68
8.90003e-67
1.38725e-65
2.05608e-64
2.91228e-63
3.97366e-62
5.27778e-61
6.89667e-60
8.94362e-59
8.37209e-58
2.2849e-57
2.22963e-57
1.06705e-57
3.04271e-58
5.82685e-59
8.10463e-60
8.64487e-61
7.35593e-62
5.14272e-63
3.0213e-64
1.5175e-65
6.60264e-67
2.51356e-68
8.43551e-70
2.50888e-71
6.63711e-73
1.56513e-74
3.29262e-76
6.17609e-78
1.03092e-79
1.52588e-81
1.99192e-83
2.27593e-85
2.25226e-87
1.90231e-89
1.33897e-91
7.49326e-94
2.9608e-96
5.77249e-99
1.74374e-102
1.82179e-108
5.00126e-124
1.84225e-121
2.8611e-106
2.13659e-100
6.54228e-97
3.26237e-94
8.12949e-92
1.43651e-89
2.02196e-87
2.37445e-85
2.38107e-83
2.06945e-81
1.57484e-79
1.0572e-77
6.29349e-76
3.33391e-74
1.57478e-72
6.63822e-71
2.49528e-69
8.34854e-68
2.47803e-66
6.49364e-65
1.49213e-63
2.97896e-62
5.10432e-61
7.38493e-60
8.82841e-59
8.47172e-58
6.27422e-57
3.39519e-56
1.23918e-55
2.69253e-55
2.82187e-55
9.93118e-56
1.02774e-56
1.03373e-57
9.96655e-59
9.12087e-60
7.91465e-61
6.52542e-62
5.11927e-63
3.82222e-64
2.71453e-65
1.83266e-66
1.17574e-67
7.16591e-69
4.14688e-70
2.27562e-71
1.18127e-72
5.77895e-74
2.65098e-75
1.13328e-76
4.48253e-78
1.62732e-79
5.37387e-81
1.59792e-82
4.22831e-84
9.81691e-86
1.96465e-87
3.31135e-89
4.55117e-91
4.86082e-93
3.72278e-95
1.73796e-97
2.94712e-100
3.14556e-99
8.52332e-97
1.33967e-94
1.47036e-92
1.23339e-90
8.34259e-89
4.71485e-87
2.28364e-85
9.66233e-84
3.62536e-82
1.22108e-80
3.73008e-79
1.04259e-77
2.68725e-76
6.4316e-75
1.43826e-73
3.02158e-72
5.99119e-71
1.12528e-69
2.00711e-68
3.40429e-67
5.49144e-66
8.4175e-65
1.22434e-63
1.6876e-62
2.20378e-61
2.73205e-60
3.23381e-59
3.69138e-58
4.11637e-57
4.54218e-56
3.29953e-55
6.69011e-55
5.21253e-55
2.10629e-55
5.26632e-56
9.08003e-57
1.15943e-57
1.15243e-58
9.24651e-60
6.15459e-61
3.46997e-62
1.68377e-63
7.11774e-65
2.6453e-66
8.70277e-68
2.54651e-69
6.64865e-71
1.55168e-72
3.23866e-74
6.04053e-76
1.00461e-77
1.48422e-79
1.93726e-81
2.2166e-83
2.19984e-85
1.86589e-87
1.32045e-89
7.43952e-92
2.96766e-94
5.90195e-97
1.89316e-100
2.41686e-106
1.37468e-121
4.56738e-119
3.34257e-104
2.03921e-98
5.87502e-95
2.87065e-92
7.08311e-90
1.24294e-87
1.73993e-85
2.03465e-83
2.03478e-81
1.76646e-79
1.34499e-77
9.05016e-76
5.41064e-74
2.88451e-72
1.37431e-70
5.85781e-69
2.23259e-67
7.59683e-66
2.30122e-64
6.17863e-63
1.46138e-61
3.01961e-60
5.3902e-59
8.18982e-58
1.03842e-56
1.07007e-55
8.64675e-55
5.21327e-54
2.1821e-53
5.67083e-53
7.58214e-53
3.72022e-53
4.75124e-54
5.91053e-55
6.86383e-56
7.39759e-57
7.44779e-58
7.05859e-59
6.33722e-60
5.41601e-61
4.42214e-62
3.45731e-63
2.58956e-64
1.85545e-65
1.26745e-66
8.21387e-68
5.02138e-69
2.87841e-70
1.53795e-71
7.61432e-73
3.47227e-74
1.44914e-75
5.49528e-77
1.87732e-78
5.71734e-80
1.53173e-81
3.54814e-83
6.9439e-85
1.11163e-86
1.3873e-88
1.24665e-90
6.88714e-93
1.43735e-95
1.10224e-94
2.62449e-92
3.58325e-90
3.40418e-88
2.471e-86
1.4486e-84
7.11523e-83
3.00529e-81
1.11268e-79
3.66401e-78
1.08527e-76
2.91709e-75
7.16617e-74
1.61844e-72
3.37738e-71
6.54231e-70
1.18162e-68
1.99882e-67
3.18181e-66
4.7897e-65
6.85111e-64
9.35027e-63
1.22087e-61
1.52605e-60
1.8233e-59
2.07621e-58
2.24736e-57
2.31236e-56
2.27259e-55
2.15578e-54
2.00309e-53
1.07531e-52
1.62057e-52
1.01573e-52
3.48763e-53
7.6849e-54
1.19794e-54
1.40924e-55
1.30927e-56
9.93261e-58
6.30982e-59
3.42163e-60
1.60727e-61
6.61321e-63
2.40339e-64
7.76276e-66
2.23773e-67
5.77305e-69
1.33486e-70
2.76686e-72
5.13577e-74
8.51658e-76
1.25679e-77
1.64115e-79
1.88144e-81
1.87345e-83
1.5964e-85
1.13626e-87
6.44729e-90
2.59741e-92
5.27208e-95
1.79725e-98
2.80787e-104
3.3206e-119
9.99958e-117
3.44053e-102
1.71268e-96
4.63856e-93
2.21955e-90
5.42031e-88
9.44179e-86
1.31389e-83
1.52921e-81
1.52425e-79
1.32089e-77
1.00556e-75
6.7768e-74
4.06538e-72
2.17911e-70
1.04614e-68
4.50374e-67
1.73828e-65
6.00748e-64
1.85442e-62
5.09307e-61
1.23769e-59
2.6414e-58
4.90068e-57
7.79888e-56
1.0456e-54
1.153e-53
1.01233e-52
6.76662e-52
3.22805e-51
9.95347e-51
1.68057e-50
1.14625e-50
1.97946e-51
3.04458e-52
4.18502e-53
5.23969e-54
6.09175e-55
6.68773e-56
7.02048e-57
7.0982e-58
6.92368e-59
6.49622e-60
5.83041e-61
4.97432e-62
4.01147e-63
3.0438e-64
2.16516e-65
1.4394e-66
8.9154e-68
5.12637e-69
2.72403e-70
1.32985e-71
5.92026e-73
2.38105e-74
8.55169e-76
2.70363e-77
7.38866e-79
1.70466e-80
3.21447e-82
4.72448e-84
5.00756e-86
3.28464e-88
8.42854e-91
5.06423e-90
1.0575e-87
1.24806e-85
1.01682e-83
6.29174e-82
3.12871e-80
1.29846e-78
4.622e-77
1.4409e-75
3.99967e-74
1.0018e-72
2.28858e-71
4.80887e-70
9.35396e-69
1.6921e-67
2.85551e-66
4.50441e-65
6.6507e-64
9.20141e-63
1.19449e-61
1.45786e-60
1.67779e-59
1.82812e-58
1.89512e-57
1.87833e-56
1.78655e-55
1.63292e-54
1.43296e-53
1.20573e-52
9.74138e-52
7.6128e-51
2.88823e-50
3.25569e-50
1.65613e-50
4.86583e-51
9.50094e-52
1.345e-52
1.46322e-53
1.27486e-54
9.17147e-56
5.57525e-57
2.91473e-58
1.32824e-59
5.32971e-61
1.89735e-62
6.02595e-64
1.71367e-65
4.37393e-67
1.0031e-68
2.06685e-70
3.82133e-72
6.32336e-74
9.327e-76
1.21923e-77
1.40122e-79
1.40061e-81
1.19951e-83
8.59011e-86
4.91055e-88
1.99878e-90
4.14296e-93
1.50235e-96
2.87713e-102
7.11195e-117
1.94637e-114
3.13795e-100
1.27287e-94
3.23774e-91
1.51622e-88
3.66299e-86
6.33117e-84
8.75425e-82
1.01356e-79
1.00634e-77
8.69948e-76
6.61669e-74
4.46253e-72
2.68381e-70
1.44497e-68
6.98237e-67
3.03251e-65
1.18376e-63
4.14922e-62
1.30315e-60
3.65472e-59
9.10773e-58
2.0032e-56
3.85342e-55
6.40485e-54
9.05054e-53
1.06396e-51
1.01055e-50
7.4489e-50
4.02331e-49
1.4592e-48
3.07519e-48
2.88528e-48
7.36295e-49
1.35182e-49
2.16749e-50
3.16933e-51
4.37122e-52
5.80504e-53
7.46744e-54
9.26268e-55
1.09882e-55
1.23794e-56
1.31912e-57
1.32722e-58
1.26022e-59
1.12867e-60
9.5213e-62
7.54524e-63
5.59417e-64
3.85988e-65
2.46264e-66
1.44207e-67
7.68486e-69
3.69049e-70
1.57871e-71
5.93181e-73
1.92344e-74
5.25979e-76
1.17518e-77
2.04763e-79
2.57845e-81
2.02248e-83
6.40112e-86
3.15666e-85
5.70564e-83
5.75481e-81
3.98407e-79
2.08695e-77
8.75749e-76
3.05715e-74
9.12077e-73
2.37347e-71
5.47502e-70
1.13454e-68
2.13603e-67
3.69031e-66
5.90206e-65
8.80571e-64
1.23345e-62
1.62986e-61
2.03762e-60
2.41231e-59
2.70213e-58
2.85755e-57
2.84495e-56
2.65962e-55
2.33141e-54
1.91831e-53
1.48892e-52
1.10079e-51
7.85405e-51
5.4659e-50
3.71448e-49
2.44644e-48
6.37264e-48
5.43145e-48
2.2649e-48
5.73719e-49
9.98542e-50
1.28993e-50
1.30304e-51
1.06845e-52
7.3119e-54
4.26523e-55
2.15519e-56
9.5493e-58
3.74439e-59
1.30811e-60
4.09177e-62
1.14959e-63
2.90666e-65
6.61912e-67
1.35712e-68
2.50149e-70
4.13382e-72
6.09885e-74
7.98594e-76
9.20589e-78
9.24166e-80
7.95813e-82
5.73628e-84
3.3049e-86
1.35971e-88
2.8798e-91
1.11192e-94
2.61474e-100
1.35995e-114
3.38597e-112
2.54759e-98
8.40876e-93
2.00687e-89
9.19179e-87
2.19572e-84
3.76409e-82
5.16926e-80
5.9505e-78
5.88158e-76
5.06852e-74
3.84861e-72
2.59539e-70
1.56337e-68
8.44593e-67
4.10331e-65
1.79562e-63
7.07935e-62
2.51294e-60
8.01688e-59
2.29173e-57
5.84469e-56
1.32183e-54
2.62951e-53
4.55128e-52
6.75531e-51
8.43253e-50
8.62352e-49
6.9702e-48
4.2324e-47
1.78887e-46
4.64526e-46
5.89903e-46
2.31437e-46
4.96733e-47
9.36458e-48
1.65802e-48
2.8452e-49
4.73608e-50
7.55338e-51
1.14251e-51
1.63326e-52
2.20898e-53
2.83314e-54
3.44979e-55
3.98484e-56
4.35475e-57
4.48472e-58
4.33208e-59
3.90489e-60
3.26625e-61
2.51962e-62
1.78006e-63
1.14245e-64
6.59821e-66
3.39048e-67
1.52864e-68
5.94243e-70
1.94681e-71
5.20953e-73
1.08755e-74
1.64386e-76
1.55683e-78
6.11293e-81
2.46003e-80
3.81281e-78
3.25585e-76
1.89745e-74
8.33681e-73
2.92657e-71
8.52872e-70
2.12067e-68
4.5934e-67
8.80998e-66
1.51625e-64
2.36764e-63
3.38545e-62
4.46742e-61
5.47666e-60
6.27308e-59
6.74794e-58
6.84892e-57
6.58702e-56
6.02432e-55
5.25051e-54
4.35995e-53
3.43826e-52
2.55881e-51
1.78245e-50
1.15376e-49
6.93158e-49
3.91462e-48
2.14405e-47
1.17807e-46
6.4893e-46
1.15141e-45
7.52728e-46
2.60148e-46
5.72765e-47
8.94205e-48
1.05953e-48
9.98155e-50
7.73185e-51
5.05022e-52
2.83533e-53
1.3884e-54
5.9957e-56
2.30226e-57
7.90792e-59
2.4403e-60
6.78353e-62
1.7013e-63
3.8515e-65
7.86595e-67
1.44679e-68
2.38964e-70
3.52897e-72
4.63171e-74
5.35863e-76
5.40547e-78
4.68232e-80
3.39841e-82
1.97409e-84
8.21308e-87
1.77853e-89
7.31905e-93
2.11704e-98
2.33433e-112
5.2862e-110
1.84795e-96
4.95589e-91
1.10868e-87
4.96318e-85
1.17175e-82
1.99144e-80
2.715e-78
3.10571e-76
3.05408e-74
2.62182e-72
1.98591e-70
1.33794e-68
8.0642e-67
4.36676e-65
2.13047e-63
9.38137e-62
3.73032e-60
1.33886e-58
4.33114e-57
1.25958e-55
3.28048e-54
7.61042e-53
1.56134e-51
2.80542e-50
4.35799e-49
5.75215e-48
6.30217e-47
5.55218e-46
3.76176e-45
1.83466e-44
5.7894e-44
9.75324e-44
5.90384e-44
1.50934e-44
3.58765e-45
8.22658e-46
1.79749e-46
3.69546e-47
7.14641e-48
1.30789e-48
2.27828e-49
3.78681e-50
6.00259e-51
9.05402e-52
1.29581e-52
1.75407e-53
2.23741e-54
2.67729e-55
2.98938e-56
3.09547e-57
2.95196e-58
2.57267e-59
2.03148e-60
1.43932e-61
9.0465e-63
4.97536e-64
2.35366e-65
9.36542e-67
3.03985e-68
7.69388e-70
1.41136e-71
1.62987e-73
7.99093e-76
2.85343e-75
3.75718e-73
2.69043e-71
1.30656e-69
4.76181e-68
1.38091e-66
3.31102e-65
6.74504e-64
1.19165e-62
1.85574e-61
2.58174e-60
3.24598e-59
3.72612e-58
3.9415e-57
3.87425e-56
3.56458e-55
3.08817e-54
2.53004e-53
1.96518e-52
1.44898e-51
1.01478e-50
6.75556e-50
4.27956e-49
2.58053e-48
1.47681e-47
7.95252e-47
3.97339e-46
1.81923e-45
7.6943e-45
3.17984e-44
1.39063e-43
1.69887e-43
8.66356e-44
2.51104e-44
4.84686e-45
6.83328e-46
7.46739e-47
6.5912e-48
4.84275e-49
3.02983e-50
1.64236e-51
7.81568e-53
3.29778e-54
1.24281e-55
4.20541e-57
1.28251e-58
3.53278e-60
8.80049e-62
1.98298e-63
4.03837e-65
7.41904e-67
1.22579e-68
1.81333e-70
2.38713e-72
2.77346e-74
2.81272e-76
2.45199e-78
1.79268e-80
1.05034e-82
4.42096e-85
9.79473e-88
4.3003e-91
1.53259e-96
3.61181e-110
7.43012e-108
1.2013e-94
2.61383e-89
5.47558e-86
2.39427e-83
5.58391e-81
9.40454e-79
1.27227e-76
1.44546e-74
1.4133e-72
1.20777e-70
9.11851e-69
6.13175e-67
3.69436e-65
2.00292e-63
9.80101e-62
4.33693e-60
1.73663e-58
6.29186e-57
2.06014e-55
6.08288e-54
1.6142e-52
3.83169e-51
8.08399e-50
1.50294e-48
2.4342e-47
3.38223e-46
3.94922e-45
3.76821e-44
2.82619e-43
1.57406e-42
5.94816e-42
1.29989e-41
1.1867e-41
3.85106e-42
1.22651e-42
3.63233e-43
9.85561e-44
2.49486e-44
6.00165e-45
1.38312e-45
3.05544e-46
6.45827e-47
1.30353e-47
2.50669e-48
4.57775e-49
7.90395e-50
1.28326e-50
1.94734e-51
2.74472e-52
3.57e-53
4.25635e-54
4.61837e-55
4.52454e-56
3.96589e-57
3.07679e-58
2.08501e-59
1.21371e-60
5.93718e-62
2.36796e-63
7.36548e-65
1.66269e-66
2.37373e-68
1.46931e-70
4.6461e-70
5.12093e-68
3.03135e-66
1.20995e-64
3.61001e-63
8.54186e-62
1.6658e-60
2.75119e-59
3.92698e-58
4.92184e-57
5.48694e-56
5.50039e-55
5.00571e-54
4.17194e-53
3.21084e-52
2.30062e-51
1.54709e-50
9.83962e-50
5.95854e-49
3.45142e-48
1.91522e-47
1.01631e-46
5.13658e-46
2.46254e-45
1.11759e-44
4.80107e-44
1.94676e-43
7.34956e-43
2.51654e-42
7.72952e-42
2.37094e-41
2.04215e-41
8.27571e-42
2.03686e-42
3.47838e-43
4.46012e-44
4.52151e-45
3.75791e-46
2.63018e-47
1.58218e-48
8.30831e-50
3.85378e-51
1.59297e-52
5.90559e-54
1.97262e-55
5.95582e-57
1.62828e-58
4.0345e-60
9.05946e-62
1.84176e-63
3.38288e-65
5.59598e-67
8.29889e-69
1.09654e-70
1.28019e-72
1.30598e-74
1.1463e-76
8.44562e-79
4.99311e-81
2.12719e-83
4.82483e-86
2.26218e-89
9.94949e-95
5.05354e-108
9.42556e-106
7.0163e-93
1.23685e-87
2.42396e-84
1.0346e-81
2.38247e-79
3.9748e-77
5.3333e-75
6.01501e-73
5.84387e-71
4.96779e-69
3.73535e-67
2.50482e-65
1.50698e-63
8.17061e-62
4.00492e-60
1.7783e-58
7.15966e-57
2.61391e-55
8.64625e-54
2.58646e-52
6.97696e-51
1.69009e-49
3.65586e-48
7.00854e-47
1.1788e-45
1.71618e-44
2.12381e-43
2.18012e-42
1.79499e-41
1.12929e-40
5.03293e-40
1.39325e-39
1.84705e-39
8.41891e-40
3.60239e-40
1.34853e-40
4.62609e-41
1.50397e-41
4.67585e-42
1.39207e-42
3.97644e-43
1.0919e-43
2.88035e-44
7.2698e-45
1.74396e-45
3.94525e-46
8.35029e-47
1.64139e-47
2.9763e-48
4.94732e-49
7.49211e-50
1.02698e-50
1.26505e-51
1.38865e-52
1.34464e-53
1.13412e-54
8.19834e-56
4.97156e-57
2.45509e-58
9.45079e-60
2.64223e-61
4.68923e-63
3.67401e-65
1.06085e-64
9.72736e-63
4.73461e-61
1.54562e-59
3.75751e-58
7.22055e-57
1.13985e-55
1.51863e-54
1.74198e-53
1.74703e-52
1.55082e-51
1.23095e-50
8.81287e-50
5.73601e-49
3.41953e-48
1.88137e-47
9.62986e-47
4.62573e-46
2.10443e-45
9.14822e-45
3.82761e-44
1.54735e-43
6.03843e-43
2.26088e-42
8.04156e-42
2.69022e-41
8.4284e-41
2.4819e-40
6.85092e-40
1.69703e-39
3.18474e-39
1.99578e-39
6.55478e-40
1.388e-40
2.11727e-41
2.48781e-42
2.35422e-43
1.8521e-44
1.24051e-45
7.2036e-47
3.67744e-48
1.66779e-49
6.77185e-51
2.47557e-52
8.17984e-54
2.44956e-55
6.65747e-57
1.6431e-58
3.68154e-60
7.47991e-62
1.375e-63
2.27932e-65
3.39141e-67
4.50094e-69
5.28358e-71
5.42495e-73
4.79655e-75
3.56283e-77
2.12628e-79
9.17293e-82
2.13138e-84
1.06821e-87
5.8065e-93
6.40884e-106
1.08111e-103
3.68946e-91
5.26242e-86
9.63974e-83
4.01372e-80
9.12216e-78
1.50696e-75
2.00461e-73
2.24315e-71
2.16417e-69
1.82874e-67
1.36831e-65
9.14123e-64
5.48593e-62
2.97097e-60
1.45677e-58
6.48125e-57
2.61934e-55
9.61891e-54
3.20781e-52
9.70035e-51
2.65329e-49
6.54087e-48
1.4461e-46
2.84838e-45
4.95454e-44
7.52111e-43
9.80758e-42
1.07553e-40
9.63675e-40
6.77147e-39
3.50382e-38
1.19926e-37
2.21123e-37
1.53211e-37
8.42007e-38
4.00038e-38
1.78988e-38
7.65886e-39
3.13928e-39
1.24002e-39
4.74986e-40
1.7668e-40
6.35056e-41
2.18445e-41
7.10803e-42
2.16391e-42
6.10617e-43
1.58523e-43
3.76318e-44
8.12505e-45
1.58725e-45
2.78993e-46
4.38437e-47
6.11307e-48
7.49091e-49
7.97108e-50
7.25159e-51
5.5236e-52
3.42186e-53
1.65158e-54
5.79345e-56
1.29449e-57
1.29701e-59
3.15569e-59
2.38325e-57
9.45503e-56
2.50462e-54
4.9252e-53
7.63294e-52
9.68718e-51
1.03388e-49
9.46056e-49
7.53212e-48
5.27775e-47
3.28486e-46
1.83003e-45
9.1874e-45
4.18278e-44
1.73824e-43
6.6429e-43
2.356e-42
7.84346e-42
2.48428e-41
7.58965e-41
2.26001e-40
6.58127e-40
1.86453e-39
5.07809e-39
1.30846e-38
3.13728e-38
6.95405e-38
1.4564e-37
2.94057e-37
3.35519e-37
1.58347e-37
4.30074e-38
7.9416e-39
1.09298e-39
1.18623e-40
1.05472e-41
7.89827e-43
5.08698e-44
2.86365e-45
1.42645e-46
6.34562e-48