/*--------------------------------*- C++ -*----------------------------------*\
| =========                 |                                                 |
| \\      /  F ield         | OpenFOAM: The Open Source CFD Toolbox           |
|  \\    /   O peration     | Version:  2212                                  |
|   \\  /    A nd           | Website:  www.openfoam.com                      |
|    \\/     M anipulation  |                                                 |
\*---------------------------------------------------------------------------*/
FoamFile
{
    version     2.0;
    format      ascii;
    arch        "LSB;label=64;scalar=64";
    class       surfaceScalarField;
    location    "0.13";
    object      phi;
}
// * * * * * * * * * * * * * * * * * * * * * * * * * * * * * * * * * * * * * //

dimensions      [0 3 -1 0 0 0 0];

oriented        oriented;

internalField   nonuniform List<scalar> 
65152
(
-2.14582e-12
2.1458e-12
-9.92174e-13
-1.15366e-12
2.70662e-12
-3.69881e-12
7.50543e-12
-4.79882e-12
1.26475e-11
-5.14213e-12
1.78525e-11
-5.20496e-12
2.30259e-11
-5.17341e-12
2.81304e-11
-5.10451e-12
3.31441e-11
-5.01375e-12
3.80495e-11
-4.90542e-12
4.28306e-11
-4.78113e-12
4.74724e-11
-4.64183e-12
5.19607e-11
-4.48827e-12
5.62819e-11
-4.32117e-12
6.0423e-11
-4.14119e-12
6.43721e-11
-3.94903e-12
6.81174e-11
-3.7454e-12
7.16485e-11
-3.53103e-12
7.49552e-11
-3.30669e-12
7.80283e-11
-3.07318e-12
8.08596e-11
-2.83131e-12
8.34416e-11
-2.58196e-12
8.57676e-11
-2.326e-12
8.7832e-11
-2.06438e-12
8.963e-11
-1.79805e-12
9.11581e-11
-1.52803e-12
9.24135e-11
-1.2554e-12
9.33948e-11
-9.81336e-13
9.4102e-11
-7.0716e-13
9.45365e-11
-4.34517e-13
9.47025e-11
-1.65948e-13
9.46086e-11
9.39319e-14
9.42452e-11
3.63394e-13
9.36281e-11
6.17081e-13
9.27603e-11
8.67819e-13
9.16428e-11
1.11749e-12
9.02783e-11
1.36451e-12
8.86707e-11
1.60758e-12
8.68252e-11
1.8455e-12
8.4748e-11
2.07715e-12
8.24464e-11
2.30162e-12
7.99283e-11
2.51811e-12
7.72023e-11
2.72597e-12
7.42776e-11
2.92467e-12
7.11638e-11
3.11378e-12
6.78708e-11
3.29295e-12
6.44089e-11
3.46191e-12
6.07884e-11
3.62047e-12
5.70199e-11
3.76849e-12
5.31139e-11
3.90591e-12
4.90812e-11
4.03271e-12
4.49323e-11
4.14892e-12
4.06776e-11
4.25463e-12
3.63276e-11
4.34994e-12
3.18926e-11
4.43499e-12
2.73827e-11
4.50993e-12
2.28077e-11
4.57492e-12
1.81777e-11
4.63007e-12
1.35022e-11
4.67549e-12
8.79092e-12
4.71121e-12
4.05371e-12
4.73719e-12
-6.99333e-13
4.75303e-12
-5.4579e-12
4.75855e-12
-1.02181e-11
4.76019e-12
-1.49825e-11
4.76442e-12
-1.97475e-11
4.76497e-12
-2.45001e-11
4.75256e-12
-2.92272e-11
4.72704e-12
-3.39168e-11
4.68963e-12
-3.85578e-11
4.64098e-12
-4.31393e-11
4.58149e-12
-4.76507e-11
4.51135e-12
-5.20814e-11
4.43071e-12
-5.6421e-11
4.33958e-12
-6.0659e-11
4.23798e-12
-6.47848e-11
4.12586e-12
-6.87881e-11
4.00321e-12
-7.26581e-11
3.87003e-12
-7.63844e-11
3.72633e-12
-7.99566e-11
3.57217e-12
-8.33643e-11
3.40766e-12
-8.65972e-11
3.23294e-12
-8.96454e-11
3.04824e-12
-9.24992e-11
2.85381e-12
-9.51492e-11
2.65001e-12
-9.75865e-11
2.43725e-12
-9.98025e-11
2.21606e-12
-1.0179e-10
1.98702e-12
-1.0354e-10
1.7509e-12
-1.05049e-10
1.50855e-12
-1.0631e-10
1.26106e-12
-1.0732e-10
1.00963e-12
-1.08075e-10
7.55603e-13
-1.08575e-10
5.0003e-13
-1.08818e-10
2.43162e-13
-1.08799e-10
-1.91228e-14
-1.08514e-10
-2.84876e-13
-1.07956e-10
-5.58099e-13
-1.0712e-10
-8.3607e-13
-1.06003e-10
-1.11661e-12
-1.04605e-10
-1.398e-12
-1.02927e-10
-1.67878e-12
-1.00969e-10
-1.95769e-12
-9.87352e-11
-2.23355e-12
-9.62299e-11
-2.50528e-12
-9.3458e-11
-2.77186e-12
-9.04257e-11
-3.0323e-12
-8.714e-11
-3.28566e-12
-8.36089e-11
-3.53105e-12
-7.98412e-11
-3.76762e-12
-7.58467e-11
-3.99452e-12
-7.16357e-11
-4.21098e-12
-6.72194e-11
-4.41625e-12
-6.26097e-11
-4.6096e-12
-5.78193e-11
-4.79034e-12
-5.28615e-11
-4.95782e-12
-4.77501e-11
-5.11135e-12
-4.24997e-11
-5.25029e-12
-3.71258e-11
-5.37389e-12
-3.16445e-11
-5.48125e-12
-2.60737e-11
-5.5708e-12
-2.04354e-11
-5.63825e-12
-1.47672e-11
-5.66807e-12
-9.16415e-12
-5.60304e-12
-3.90809e-12
-5.25602e-12
2.38237e-13
-4.14627e-12
1.80718e-12
-1.56888e-12
1.80719e-12
-1.626e-13
2.30838e-12
4.96798e-12
-6.28426e-12
1.36686e-11
-1.23994e-11
2.37884e-11
-1.49187e-11
3.4295e-11
-1.56488e-11
4.48228e-11
-1.57328e-11
5.52552e-11
-1.56058e-11
6.55475e-11
-1.53968e-11
7.56722e-11
-1.51385e-11
8.56052e-11
-1.48384e-11
9.53229e-11
-1.44988e-11
1.04802e-10
-1.41208e-11
1.14019e-10
-1.37055e-11
1.22952e-10
-1.32539e-11
1.31578e-10
-1.27672e-11
1.39876e-10
-1.22468e-11
1.47824e-10
-1.16938e-11
1.55403e-10
-1.11099e-11
1.62593e-10
-1.04964e-11
1.69375e-10
-9.85512e-12
1.75731e-10
-9.1876e-12
1.81644e-10
-8.49565e-12
1.871e-10
-7.7811e-12
1.92081e-10
-7.04588e-12
1.96575e-10
-6.29196e-12
2.00568e-10
-5.5214e-12
2.04049e-10
-4.73631e-12
2.07007e-10
-3.93886e-12
2.09431e-10
-3.13122e-12
2.11312e-10
-2.31559e-12
2.1264e-10
-1.49403e-12
2.13402e-10
-6.68132e-13
2.13601e-10
1.65077e-13
2.13233e-10
9.84856e-13
2.12294e-10
1.8061e-12
2.10789e-10
2.62274e-12
2.08721e-10
3.43279e-12
2.06095e-10
4.23335e-12
2.02918e-10
5.02225e-12
1.99198e-10
5.79723e-12
1.94944e-10
6.55614e-12
1.90165e-10
7.2969e-12
1.84873e-10
8.01755e-12
1.79082e-10
8.71621e-12
1.72804e-10
9.3911e-12
1.66057e-10
1.00405e-11
1.58856e-10
1.0663e-11
1.51219e-10
1.12569e-11
1.43167e-10
1.1821e-11
1.34719e-10
1.23541e-11
1.25896e-10
1.2855e-11
1.16722e-10
1.33227e-11
1.07221e-10
1.37563e-11
9.74154e-11
1.41551e-11
8.73321e-11
1.45183e-11
7.69968e-11
1.48453e-11
6.64361e-11
1.51356e-11
5.56775e-11
1.53887e-11
4.47485e-11
1.56044e-11
3.36775e-11
1.57822e-11
2.24928e-11
1.59219e-11
1.12226e-11
1.60232e-11
-1.04811e-13
1.60859e-11
-1.14569e-11
1.61123e-11
-2.27978e-11
1.61053e-11
-3.40955e-11
1.60626e-11
-4.53217e-11
1.59788e-11
-5.64478e-11
1.58531e-11
-6.74447e-11
1.56865e-11
-7.82833e-11
1.54795e-11
-8.89349e-11
1.52331e-11
-9.93715e-11
1.49479e-11
-1.09565e-10
1.46245e-11
-1.19489e-10
1.42637e-11
-1.29118e-10
1.38662e-11
-1.38425e-10
1.34329e-11
-1.47386e-10
1.29647e-11
-1.55979e-10
1.24626e-11
-1.6418e-10
1.19277e-11
-1.71969e-10
1.13612e-11
-1.79326e-10
1.07643e-11
-1.86231e-10
1.01386e-11
-1.92668e-10
9.48546e-12
-1.98621e-10
8.80649e-12
-2.04075e-10
8.10344e-12
-2.09015e-10
7.37806e-12
-2.13432e-10
6.6323e-12
-2.17313e-10
5.86812e-12
-2.20649e-10
5.08762e-12
-2.23434e-10
4.29298e-12
-2.25659e-10
3.4865e-12
-2.2732e-10
2.67054e-12
-2.28412e-10
1.8473e-12
-2.28931e-10
1.01938e-12
-2.28877e-10
1.8934e-13
-2.28247e-10
-6.48709e-13
-2.27045e-10
-1.48751e-12
-2.25278e-10
-2.32442e-12
-2.22957e-10
-3.15758e-12
-2.20089e-10
-3.98481e-12
-2.16683e-10
-4.80373e-12
-2.1275e-10
-5.61203e-12
-2.083e-10
-6.40739e-12
-2.03346e-10
-7.18758e-12
-1.97901e-10
-7.95042e-12
-1.91979e-10
-8.69382e-12
-1.85595e-10
-9.41575e-12
-1.78767e-10
-1.01143e-11
-1.7151e-10
-1.07876e-11
-1.63844e-10
-1.14339e-11
-1.55787e-10
-1.20514e-11
-1.47359e-10
-1.26387e-11
-1.38581e-10
-1.31943e-11
-1.29474e-10
-1.37166e-11
-1.2006e-10
-1.42045e-11
-1.10361e-10
-1.46566e-11
-1.004e-10
-1.50718e-11
-9.02014e-11
-1.54492e-11
-7.97875e-11
-1.57877e-11
-6.91824e-11
-1.60863e-11
-5.84102e-11
-1.63429e-11
-4.74985e-11
-1.65499e-11
-3.64918e-11
-1.66747e-11
-2.5507e-11
-1.65879e-11
-1.49102e-11
-1.58527e-11
-5.73731e-12
-1.33191e-11
-1.54087e-13
-7.15205e-12
1.65311e-12
2.81696e-13
2.02666e-12
6.32364e-12
-1.23262e-11
1.59661e-11
-2.2042e-11
2.70325e-11
-2.59851e-11
3.84944e-11
-2.71108e-11
4.99839e-11
-2.72222e-11
6.13784e-11
-2.70004e-11
7.26283e-11
-2.66468e-11
8.37023e-11
-2.62125e-11
9.45733e-11
-2.57095e-11
1.05216e-10
-2.5141e-11
1.15603e-10
-2.45088e-11
1.25712e-10
-2.38144e-11
1.35518e-10
-2.30592e-11
1.44995e-10
-2.2245e-11
1.54122e-10
-2.13737e-11
1.62876e-10
-2.04472e-11
1.71233e-10
-1.94677e-11
1.79174e-10
-1.84375e-11
1.86678e-10
-1.73588e-11
1.93725e-10
-1.62343e-11
2.00296e-10
-1.50666e-11
2.06373e-10
-1.38584e-11
2.1194e-10
-1.26126e-11
2.1698e-10
-1.13322e-11
2.21479e-10
-1.00204e-11
2.25423e-10
-8.6803e-12
2.28799e-10
-7.31515e-12
2.31596e-10
-5.92827e-12
2.33804e-10
-4.523e-12
2.35412e-10
-3.10256e-12
2.36414e-10
-1.6699e-12
2.36806e-10
-2.26427e-13
2.36574e-10
1.21658e-12
2.35723e-10
2.65678e-12
2.34252e-10
4.09433e-12
2.3216e-10
5.52445e-12
2.29451e-10
6.94236e-12
2.26129e-10
8.34435e-12
2.222e-10
9.72662e-12
2.1767e-10
1.10854e-11
2.1255e-10
1.2417e-11
2.0685e-10
1.37177e-11
2.00582e-10
1.49841e-11
1.9376e-10
1.62127e-11
1.86401e-10
1.74002e-11
1.7852e-10
1.85434e-11
1.70138e-10
1.96392e-11
1.61274e-10
2.06847e-11
1.51951e-10
2.16771e-11
1.42192e-10
2.26139e-11
1.32022e-10
2.34926e-11
1.21468e-10
2.43109e-11
1.10556e-10
2.50669e-11
9.93157e-11
2.57585e-11
8.77767e-11
2.63842e-11
7.59699e-11
2.69423e-11
6.39269e-11
2.74317e-11
5.16802e-11
2.78511e-11
3.92627e-11
2.81997e-11
2.6708e-11
2.84766e-11
1.40498e-11
2.86814e-11
1.32256e-12
2.88132e-11
-1.14361e-11
2.88709e-11
-2.41835e-11
2.88527e-11
-3.68799e-11
2.8759e-11
-4.94903e-11
2.85892e-11
-6.19808e-11
2.83436e-11
-7.43174e-11
2.80231e-11
-8.64665e-11
2.76286e-11
-9.83947e-11
2.71613e-11
-1.10069e-10
2.66225e-11
-1.21459e-10
2.60138e-11
-1.32532e-10
2.53366e-11
-1.43258e-10
2.45931e-11
-1.53611e-10
2.37851e-11
-1.63561e-10
2.29148e-11
-1.73083e-10
2.19847e-11
-1.82152e-10
2.09972e-11
-1.90746e-10
1.99551e-11
-1.98843e-10
1.88613e-11
-2.06423e-10
1.77186e-11
-2.13468e-10
1.65303e-11
-2.19961e-10
1.52996e-11
-2.25888e-10
1.40299e-11
-2.31234e-10
1.27247e-11
-2.35989e-10
1.13876e-11
-2.40143e-10
1.00222e-11
-2.43688e-10
8.63238e-12
-2.46617e-10
7.22187e-12
-2.48925e-10
5.79453e-12
-2.50609e-10
4.3542e-12
-2.51666e-10
2.90448e-12
-2.52096e-10
1.44978e-12
-2.51906e-10
-4.88762e-16
-2.51087e-10
-1.46776e-12
-2.49651e-10
-2.92397e-12
-2.47604e-10
-4.37149e-12
-2.44954e-10
-5.80724e-12
-2.41711e-10
-7.22777e-12
-2.37885e-10
-8.62953e-12
-2.33488e-10
-1.0009e-11
-2.28533e-10
-1.13626e-11
-2.23033e-10
-1.26871e-11
-2.17005e-10
-1.39791e-11
-2.10463e-10
-1.52356e-11
-2.03425e-10
-1.64533e-11
-1.9591e-10
-1.76295e-11
-1.87936e-10
-1.87614e-11
-1.79524e-10
-1.98463e-11
-1.70693e-10
-2.08817e-11
-1.61467e-10
-2.18652e-11
-1.51866e-10
-2.27947e-11
-1.41915e-10
-2.36681e-11
-1.31636e-10
-2.44834e-11
-1.21054e-10
-2.52388e-11
-1.10193e-10
-2.59328e-11
-9.90779e-11
-2.65639e-11
-8.77349e-11
-2.71306e-11
-7.61898e-11
-2.76314e-11
-6.44695e-11
-2.80632e-11
-5.26053e-11
-2.8414e-11
-4.06472e-11
-2.86327e-11
-2.87178e-11
-2.85172e-11
-1.71864e-11
-2.7384e-11
-7.0866e-12
-2.34189e-11
-6.14447e-13
-1.36242e-11
1.03867e-12
3.37575e-13
1.68906e-12
6.60589e-12
-1.85946e-11
1.65608e-11
-3.19969e-11
2.7968e-11
-3.73923e-11
3.97795e-11
-3.89223e-11
5.16206e-11
-3.90633e-11
6.3366e-11
-3.87458e-11
7.49642e-11
-3.8245e-11
8.63827e-11
-3.7631e-11
9.75933e-11
-3.69202e-11
1.0857e-10
-3.61172e-11
1.19285e-10
-3.52243e-11
1.29714e-10
-3.42435e-11
1.39832e-10
-3.31768e-11
1.49613e-10
-3.20265e-11
1.59034e-10
-3.0795e-11
1.68072e-10
-2.9485e-11
1.76704e-10
-2.80993e-11
1.84907e-10
-2.66408e-11
1.92661e-10
-2.51128e-11
1.99945e-10
-2.35187e-11
2.06741e-10
-2.18618e-11
2.13028e-10
-2.0146e-11
2.18791e-10
-1.8375e-11
2.24011e-10
-1.6553e-11
2.28675e-10
-1.46842e-11
2.32768e-10
-1.27727e-11
2.36276e-10
-1.08232e-11
2.39188e-10
-8.84014e-12
2.41493e-10
-6.82824e-12
2.43182e-10
-4.79216e-12
2.44249e-10
-2.73649e-12
2.44687e-10
-6.64337e-13
2.44489e-10
1.41451e-12
2.43657e-10
3.48899e-12
2.42187e-10
5.56407e-12
2.40079e-10
7.63251e-12
2.37334e-10
9.68725e-12
2.33956e-10
1.17228e-11
2.29949e-10
1.37335e-11
2.2532e-10
1.57138e-11
2.20079e-10
1.76582e-11
2.14235e-10
1.95613e-11
2.07802e-10
2.14177e-11
2.00792e-10
2.32223e-11
1.93223e-10
2.497e-11
1.8511e-10
2.66558e-11
1.76474e-10
2.8275e-11
1.67336e-10
2.98229e-11
1.57718e-10
3.12952e-11
1.47644e-10
3.26876e-11
1.37141e-10
3.39963e-11
1.26234e-10
3.52175e-11
1.14953e-10
3.63477e-11
1.03328e-10
3.73838e-11
9.13894e-11
3.83228e-11
7.91695e-11
3.91622e-11
6.67015e-11
3.98997e-11
5.40195e-11
4.05331e-11
4.11583e-11
4.10609e-11
2.81534e-11
4.14816e-11
1.50408e-11
4.17939e-11
1.85774e-12
4.19963e-11
-1.13572e-11
4.20858e-11
-2.4563e-11
4.20585e-11
-3.77195e-11
4.19155e-11
-5.07887e-11
4.16584e-11
-6.37336e-11
4.12885e-11
-7.65178e-11
4.08073e-11
-8.91057e-11
4.02165e-11
-1.01462e-10
3.95179e-11
-1.13553e-10
3.87135e-11
-1.25345e-10
3.78058e-11
-1.36806e-10
3.67975e-11
-1.47905e-10
3.56918e-11
-1.58612e-10
3.44919e-11
-1.68898e-10
3.32015e-11
-1.78738e-10
3.18243e-11
-1.88105e-10
3.03645e-11
-1.96976e-10
2.88263e-11
-2.05329e-10
2.72142e-11
-2.13144e-10
2.55331e-11
-2.20401e-10
2.37877e-11
-2.27085e-10
2.19831e-11
-2.33179e-10
2.01244e-11
-2.38671e-10
1.8217e-11
-2.4355e-10
1.62663e-11
-2.47805e-10
1.42776e-11
-2.5143e-10
1.22566e-11
-2.54417e-10
1.02089e-11
-2.56762e-10
8.14003e-12
-2.58464e-10
6.05573e-12
-2.5952e-10
3.96131e-12
-2.59934e-10
1.86331e-12
-2.59708e-10
-2.26098e-13
-2.5884e-10
-2.33553e-12
-2.57338e-10
-4.42597e-12
-2.55208e-10
-6.50142e-12
-2.52458e-10
-8.55721e-12
-2.49098e-10
-1.05884e-11
-2.45137e-10
-1.259e-11
-2.40589e-10
-1.45571e-11
-2.35467e-10
-1.64851e-11
-2.29784e-10
-1.83693e-11
-2.23558e-10
-2.02053e-11
-2.16805e-10
-2.19889e-11
-2.09542e-10
-2.3716e-11
-2.01789e-10
-2.53826e-11
-1.93565e-10
-2.69852e-11
-1.84891e-10
-2.85201e-11
-1.75789e-10
-2.99841e-11
-1.6628e-10
-3.1374e-11
-1.56388e-10
-3.26869e-11
-1.46136e-10
-3.392e-11
-1.35549e-10
-3.50708e-11
-1.2465e-10
-3.6137e-11
-1.13467e-10
-3.71164e-11
-1.02023e-10
-3.80071e-11
-9.03469e-11
-3.88071e-11
-7.84639e-11
-3.95145e-11
-6.64024e-11
-4.01247e-11
-5.41951e-11
-4.06213e-11
-4.18936e-11
-4.09342e-11
-2.96235e-11
-4.07873e-11
-1.77607e-11
-3.92468e-11
-7.35767e-12
-3.38219e-11
-6.66024e-13
-2.03158e-11
3.72645e-13
3.5514e-13
1.33389e-12
6.83392e-12
-2.50734e-11
1.71141e-11
-4.22771e-11
2.88933e-11
-4.91715e-11
4.10916e-11
-5.11206e-11
5.33219e-11
-5.12937e-11
6.54545e-11
-5.08784e-11
7.7436e-11
-5.02266e-11
8.92328e-11
-4.94278e-11
1.00816e-10
-4.85034e-11
1.12158e-10
-4.74593e-11
1.23232e-10
-4.62982e-11
1.34011e-10
-4.50228e-11
1.4447e-10
-4.36356e-11
1.54583e-10
-4.21394e-11
1.64325e-10
-4.05372e-11
1.73673e-10
-3.88324e-11
1.82602e-10
-3.70285e-11
1.9109e-10
-3.51291e-11
1.99115e-10
-3.31382e-11
2.06657e-10
-3.10601e-11
2.13694e-10
-2.88992e-11
2.20208e-10
-2.66601e-11
2.26181e-10
-2.43477e-11
2.31595e-10
-2.19671e-11
2.36434e-10
-1.95236e-11
2.40684e-10
-1.70227e-11
2.44331e-10
-1.44701e-11
2.47363e-10
-1.18717e-11
2.49768e-10
-9.2336e-12
2.51538e-10
-6.56186e-12
2.52664e-10
-3.86256e-12
2.5314e-10
-1.14024e-12
2.52959e-10
1.59535e-12
2.52123e-10
4.32501e-12
2.50628e-10
7.05905e-12
2.48473e-10
9.7871e-12
2.4566e-10
1.25005e-11
2.42191e-10
1.51916e-11
2.38072e-10
1.78529e-11
2.33309e-10
2.04768e-11
2.27911e-10
2.3056e-11
2.21889e-10
2.55831e-11
2.15256e-10
2.8051e-11
2.08026e-10
3.04528e-11
2.00214e-10
3.27813e-11
1.9184e-10
3.50299e-11
1.82923e-10
3.7192e-11
1.73485e-10
3.92612e-11
1.63549e-10
4.12314e-11
1.53139e-10
4.30968e-11
1.42284e-10
4.48519e-11
1.3101e-10
4.64913e-11
1.19348e-10
4.80101e-11
1.07327e-10
4.9404e-11
9.49816e-11
5.06685e-11
8.23437e-11
5.18001e-11
6.94481e-11
5.27952e-11
5.63302e-11
5.3651e-11
4.30261e-11
5.4365e-11
2.95729e-11
5.49348e-11
1.60081e-11
5.53586e-11
2.37034e-12
5.5634e-11
-1.13007e-11
5.57569e-11
-2.49635e-11
5.57213e-11
-3.85771e-11
5.55291e-11
-5.21016e-11
5.51829e-11
-6.54983e-11
5.46852e-11
-7.8729e-11
5.4038e-11
-9.17564e-11
5.32439e-11
-1.04544e-10
5.23054e-11
-1.17056e-10
5.12256e-11
-1.29258e-10
5.00079e-11
-1.41117e-10
4.86562e-11
-1.526e-10
4.71748e-11
-1.63676e-10
4.55685e-11
-1.74317e-10
4.38422e-11
-1.84494e-10
4.20014e-11
-1.94181e-10
4.00517e-11
-2.03354e-10
3.79991e-11
-2.1199e-10
3.58499e-11
-2.20067e-10
3.36105e-11
-2.27567e-10
3.12877e-11
-2.34472e-10
2.88883e-11
-2.40767e-10
2.64195e-11
-2.46438e-10
2.38882e-11
-2.51474e-10
2.13019e-11
-2.55864e-10
1.86678e-11
-2.59601e-10
1.59934e-11
-2.62678e-10
1.32861e-11
-2.65092e-10
1.05536e-11
-2.66839e-10
7.80324e-12
-2.6792e-10
5.04249e-12
-2.68336e-10
2.27934e-12
-2.68089e-10
-4.73609e-13
-2.6718e-10
-3.24414e-12
-2.65616e-10
-5.99024e-12
-2.63403e-10
-8.71437e-12
-2.6055e-10
-1.14104e-11
-2.57066e-10
-1.40719e-11
-2.52964e-10
-1.66924e-11
-2.48255e-10
-1.92658e-11
-2.42954e-10
-2.1786e-11
-2.37076e-10
-2.42472e-11
-2.30638e-10
-2.66437e-11
-2.23656e-10
-2.89703e-11
-2.16151e-10
-3.12218e-11
-2.0814e-10
-3.33934e-11
-1.99645e-10
-3.54803e-11
-1.90687e-10
-3.74782e-11
-1.81288e-10
-3.93829e-11
-1.71471e-10
-4.11906e-11
-1.61261e-10
-4.28975e-11
-1.5068e-10
-4.45003e-11
-1.39755e-10
-4.59958e-11
-1.28511e-10
-4.73811e-11
-1.16974e-10
-4.86535e-11
-1.05171e-10
-4.98106e-11
-9.31277e-11
-5.085e-11
-8.0873e-11
-5.17691e-11
-6.84355e-11
-5.25622e-11
-5.58489e-11
-5.32079e-11
-4.31667e-11
-5.36165e-11
-3.05189e-11
-5.34351e-11
-1.82938e-11
-5.14719e-11
-7.57588e-12
-4.45398e-11
-6.83929e-13
-2.72078e-11
-3.11287e-13
3.80016e-13
9.53841e-13
7.12296e-12
-3.18164e-11
1.78157e-11
-5.29699e-11
3.00694e-11
-6.14253e-11
4.27624e-11
-6.38135e-11
5.54909e-11
-6.40222e-11
6.8119e-11
-6.35066e-11
8.05909e-11
-6.26986e-11
9.28717e-11
-6.17086e-11
1.04931e-10
-6.05632e-11
1.16742e-10
-5.92695e-11
1.28275e-10
-5.78311e-11
1.39503e-10
-5.62509e-11
1.50399e-10
-5.4532e-11
1.60937e-10
-5.26778e-11
1.71092e-10
-5.0692e-11
1.80838e-10
-4.85784e-11
1.90151e-10
-4.63413e-11
1.99007e-10
-4.39851e-11
2.07383e-10
-4.15146e-11
2.15258e-10
-3.89349e-11
2.2261e-10
-3.62513e-11
2.29419e-10
-3.34694e-11
2.35667e-10
-3.05951e-11
2.41334e-10
-2.76346e-11
2.46405e-10
-2.45944e-11
2.50863e-10
-2.14811e-11
2.54695e-10
-1.83018e-11
2.57887e-10
-1.50636e-11
2.60427e-10
-1.1774e-11
2.62306e-10
-8.44062e-12
2.63515e-10
-5.07099e-12
2.64045e-10
-1.67112e-12
2.63891e-10
1.74955e-12
2.63054e-10
5.16233e-12
2.61529e-10
8.58345e-12
2.59317e-10
1.19998e-11
2.56417e-10
1.54006e-11
2.52832e-10
1.87761e-11
2.48568e-10
2.21168e-11
2.43632e-10
2.54131e-11
2.38032e-10
2.86557e-11
2.3178e-10
3.18353e-11
2.24888e-10
3.49428e-11
2.17372e-10
3.79691e-11
2.09248e-10
4.09055e-11
2.00535e-10
4.37431e-11
1.91253e-10
4.64735e-11
1.81426e-10
4.90885e-11
1.71077e-10
5.15802e-11
1.60233e-10
5.3941e-11
1.48921e-10
5.61637e-11
1.37171e-10
5.82413e-11
1.25014e-10
6.01674e-11
1.12481e-10
6.19362e-11
9.96079e-11
6.3542e-11
8.6428e-11
6.49799e-11
7.29779e-11
6.62454e-11
5.92946e-11
6.73344e-11
4.54159e-11
6.82436e-11
3.13807e-11
6.89701e-11
1.72282e-11
6.95111e-11
2.99891e-12
6.98634e-11
-1.12659e-11
7.00216e-11
-2.55229e-11
6.99783e-11
-3.97292e-11
6.97355e-11
-5.38432e-11
6.92969e-11
-6.78238e-11
6.86658e-11
-8.16311e-11
6.78453e-11
-9.52258e-11
6.68387e-11
-1.0857e-10
6.56493e-11
-1.21625e-10
6.42812e-11
-1.34357e-10
6.27391e-11
-1.46728e-10
6.10279e-11
-1.58707e-10
5.91534e-11
-1.7026e-10
5.71216e-11
-1.81357e-10
5.49392e-11
-1.91969e-10
5.26132e-11
-2.02068e-10
5.01509e-11
-2.11629e-10
4.75602e-11
-2.20628e-10
4.4849e-11
-2.29043e-10
4.20258e-11
-2.36855e-10
3.90992e-11
-2.44044e-10
3.6078e-11
-2.50596e-10
3.29712e-11
-2.56496e-10
2.9788e-11
-2.61732e-10
2.65376e-11
-2.66293e-10
2.32294e-11
-2.70172e-10
1.98727e-11
-2.73363e-10
1.6477e-11
-2.75861e-10
1.30518e-11
-2.77665e-10
9.60664e-12
-2.78773e-10
6.15082e-12
-2.79187e-10
2.69397e-12
-2.78909e-10
-7.52131e-13
-2.77942e-10
-4.21127e-12
-2.76292e-10
-7.64045e-12
-2.73966e-10
-1.10399e-11
-2.70974e-10
-1.44021e-11
-2.67327e-10
-1.77189e-11
-2.63037e-10
-2.09827e-11
-2.58117e-10
-2.41858e-11
-2.52582e-10
-2.73208e-11
-2.46449e-10
-3.03806e-11
-2.39734e-10
-3.33586e-11
-2.32456e-10
-3.62481e-11
-2.24635e-10
-3.90431e-11
-2.16291e-10
-4.17375e-11
-2.07445e-10
-4.43259e-11
-1.9812e-10
-4.68029e-11
-1.8834e-10
-4.91635e-11
-1.78127e-10
-5.14032e-11
-1.67507e-10
-5.35175e-11
-1.56505e-10
-5.55024e-11
-1.45147e-10
-5.7354e-11
-1.33459e-10
-5.90689e-11
-1.21469e-10
-6.06439e-11
-1.09203e-10
-6.20761e-11
-9.66907e-11
-6.33626e-11
-8.39596e-11
-6.45003e-11
-7.10399e-11
-6.54819e-11
-5.79664e-11
-6.62813e-11
-4.47952e-11
-6.67877e-11
-3.16623e-11
-6.6568e-11
-1.89724e-11
-6.41618e-11
-7.85128e-12
-5.5661e-11
-7.02079e-13
-3.4357e-11
-1.01337e-12
4.13967e-13
5.39829e-13
7.4866e-12
-3.8889e-11
1.86895e-11
-6.41728e-11
3.15292e-11
-7.4265e-11
4.4833e-11
-7.71175e-11
5.81771e-11
-7.73663e-11
7.14176e-11
-7.67472e-11
8.44959e-11
-7.57768e-11
9.73752e-11
-7.4588e-11
1.10025e-10
-7.32126e-11
1.22414e-10
-7.16593e-11
1.34516e-10
-6.99323e-11
1.463e-10
-6.80351e-11
1.57739e-10
-6.59712e-11
1.68806e-10
-6.37445e-11
1.79473e-10
-6.13594e-11
1.89715e-10
-5.88203e-11
1.99506e-10
-5.61322e-11
2.08821e-10
-5.33002e-11
2.17636e-10
-5.033e-11
2.25929e-10
-4.72273e-11
2.33676e-10
-4.39986e-11
2.40857e-10
-4.06503e-11
2.47451e-10
-3.71894e-11
2.53439e-10
-3.36232e-11
2.58804e-10
-2.99592e-11
2.63529e-10
-2.62055e-11
2.67597e-10
-2.23704e-11
2.70996e-10
-1.84623e-11
2.73712e-10
-1.44902e-11
2.75735e-10
-1.04631e-11
2.77054e-10
-6.39024e-12
2.77662e-10
-2.27896e-12
2.77547e-10
1.86434e-12
2.76717e-10
5.99253e-12
2.75164e-10
1.01363e-11
2.72887e-10
1.42763e-11
2.69887e-10
1.84006e-11
2.66166e-10
2.24969e-11
2.6173e-10
2.65536e-11
2.56584e-10
3.0559e-11
2.50738e-10
3.45015e-11
2.44204e-10
3.83697e-11
2.36994e-10
4.21525e-11
2.29124e-10
4.58387e-11
2.20613e-10
4.94173e-11
2.11478e-10
5.28776e-11
2.01742e-10
5.62091e-11
1.91429e-10
5.94016e-11
1.80564e-10
6.24452e-11
1.69175e-10
6.53305e-11
1.5729e-10
6.80483e-11
1.44941e-10
7.05902e-11
1.32161e-10
7.29479e-11
1.18983e-10
7.51141e-11
1.05443e-10
7.70818e-11
9.15784e-11
7.88446e-11
7.74269e-11
8.03969e-11
6.30277e-11
8.17335e-11
4.8421e-11
8.28503e-11
3.36478e-11
8.37434e-11
1.87496e-11
8.44092e-11
3.76923e-12
8.48437e-11
-1.12494e-11
8.50403e-11
-2.62605e-11
8.49893e-11
-4.12184e-11
8.46934e-11
-5.60788e-11
8.41573e-11
-7.07982e-11
8.33852e-11
-8.53341e-11
8.23813e-11
-9.96451e-11
8.11497e-11
-1.13691e-10
7.96948e-11
-1.27431e-10
7.80216e-11
-1.40828e-10
7.6136e-11
-1.53844e-10
7.40443e-11
-1.66444e-10
7.17537e-11
-1.78595e-10
6.92718e-11
-1.90262e-10
6.66069e-11
-2.01417e-10
6.37678e-11
-2.12029e-10
6.07635e-11
-2.22073e-10
5.76039e-11
-2.31523e-10
5.42989e-11
-2.40356e-10
5.08589e-11
-2.48551e-10
4.72946e-11
-2.5609e-10
4.3617e-11
-2.62956e-10
3.9837e-11
-2.69134e-10
3.59661e-11
-2.74612e-10
3.20154e-11
-2.79379e-10
2.79966e-11
-2.83427e-10
2.39211e-11
-2.86751e-10
1.98005e-11
-2.89345e-10
1.56466e-11
-2.91209e-10
1.14704e-11
-2.92342e-10
7.2839e-12
-2.92746e-10
3.0981e-12
-2.92422e-10
-1.07624e-12
-2.91374e-10
-5.25935e-12
-2.89609e-10
-9.40538e-12
-2.87136e-10
-1.3513e-11
-2.83965e-10
-1.75731e-11
-2.80107e-10
-2.15762e-11
-2.75577e-10
-2.5513e-11
-2.70388e-10
-2.93745e-11
-2.64557e-10
-3.31519e-11
-2.58101e-10
-3.68369e-11
-2.51038e-10
-4.04216e-11
-2.43388e-10
-4.38982e-11
-2.35171e-10
-4.72596e-11
-2.2641e-10
-5.04988e-11
-2.17127e-10
-5.36093e-11
-2.07345e-10
-5.65849e-11
-1.97088e-10
-5.94199e-11
-1.86383e-10
-6.21087e-11
-1.75254e-10
-6.46464e-11
-1.63728e-10
-6.70282e-11
-1.51832e-10
-6.92497e-11
-1.39594e-10
-7.13069e-11
-1.27042e-10
-7.31961e-11
-1.14204e-10
-7.49138e-11
-1.0111e-10
-7.64569e-11
-8.77891e-11
-7.78214e-11
-7.42722e-11
-7.89989e-11
-6.05961e-11
-7.99575e-11
-4.68196e-11
-8.05643e-11
-3.30865e-11
-8.03011e-11
-1.98217e-11
-7.74265e-11
-8.20144e-12
-6.72813e-11
-7.31957e-13
-4.18265e-11
-1.74534e-12
4.60434e-13
7.93423e-14
7.93133e-12
-4.636e-11
1.97459e-11
-7.59875e-11
3.32871e-11
-8.78062e-11
4.73224e-11
-9.11528e-11
6.14036e-11
-9.14476e-11
7.5378e-11
-9.07216e-11
8.91829e-11
-8.95818e-11
1.0278e-10
-8.8185e-11
1.16136e-10
-8.65692e-11
1.29222e-10
-8.47447e-11
1.42005e-10
-8.27161e-11
1.54458e-10
-8.04876e-11
1.6655e-10
-7.80632e-11
1.78253e-10
-7.54473e-11
1.89538e-10
-7.26447e-11
2.00378e-10
-6.96607e-11
2.10747e-10
-6.65007e-11
2.20617e-10
-6.31707e-11
2.29964e-10
-5.96771e-11
2.38763e-10
-5.60266e-11
2.46991e-10
-5.22264e-11
2.54625e-10
-4.82839e-11
2.61643e-10
-4.42073e-11
2.68024e-10
-4.00047e-11
2.7375e-10
-3.56852e-11
2.78802e-10
-3.12578e-11
2.83164e-10
-2.67322e-11
2.8682e-10
-2.21183e-11
2.89756e-10
-1.74265e-11
2.9196e-10
-1.26673e-11
2.93422e-10
-7.85155e-12
2.94131e-10
-2.98805e-12
2.94078e-10
1.91727e-12
2.93265e-10
6.80583e-12
2.91686e-10
1.17146e-11
2.89341e-10
1.66213e-11
2.86229e-10
2.15132e-11
2.82351e-10
2.63744e-11
2.77713e-10
3.11915e-11
2.72322e-10
3.59507e-11
2.66185e-10
4.06378e-11
2.59316e-10
4.52392e-11
2.51727e-10
4.97413e-11
2.43435e-10
5.41308e-11
2.34458e-10
5.83944e-11
2.24816e-10
6.25193e-11
2.14532e-10
6.64926e-11
2.03632e-10
7.0302e-11
1.92142e-10
7.39355e-11
1.80091e-10
7.73816e-11
1.6751e-10
8.06292e-11
1.54432e-10
8.36679e-11
1.40892e-10
8.64878e-11
1.26926e-10
8.90798e-11
1.12573e-10
9.14353e-11
9.7871e-11
9.35465e-11
8.28613e-11
9.54065e-11
6.75858e-11
9.70091e-11
5.20871e-11
9.83489e-11
3.64092e-11
9.94213e-11
2.05966e-11
1.00222e-10
4.6949e-12
1.00745e-10
-1.12486e-11
1.00984e-10
-2.71845e-11
1.00925e-10
-4.30638e-11
1.00573e-10
-5.88386e-11
9.99321e-11
-7.44624e-11
9.9009e-11
-8.98898e-11
9.78087e-11
-1.05076e-10
9.63362e-11
-1.19979e-10
9.4597e-11
-1.34554e-10
9.25973e-11
-1.48762e-10
9.03442e-11
-1.62564e-10
8.78455e-11
-1.7592e-10
8.511e-11
-1.88795e-10
8.2147e-11
-2.01154e-10
7.89665e-11
-2.12966e-10
7.55792e-11
-2.24199e-10
7.19962e-11
-2.34824e-10
6.82294e-11
-2.44816e-10
6.42909e-11
-2.5415e-10
6.01933e-11
-2.62805e-10
5.59494e-11
-2.7076e-10
5.15725e-11
-2.77999e-10
4.70759e-11
-2.84506e-10
4.24732e-11
-2.90269e-10
3.7778e-11
-2.95276e-10
3.3004e-11
-2.9952e-10
2.81652e-11
-3.02995e-10
2.32754e-11
-3.05697e-10
1.83486e-11
-3.07624e-10
1.33977e-11
-3.08778e-10
8.43745e-12
-3.09159e-10
3.47981e-12
-3.0877e-10
-1.46538e-12
-3.07615e-10
-6.41392e-12
-3.05704e-10
-1.13172e-11
-3.03044e-10
-1.61723e-11
-2.99649e-10
-2.09684e-11
-2.95531e-10
-2.56945e-11
-2.90704e-10
-3.03398e-11
-2.85185e-10
-3.48937e-11
-2.7899e-10
-3.93463e-11
-2.72139e-10
-4.36879e-11
-2.64652e-10
-4.79091e-11
-2.56548e-10
-5.20014e-11
-2.47852e-10
-5.59563e-11
-2.38585e-10
-5.97658e-11
-2.28771e-10
-6.34227e-11
-2.18437e-10
-6.69198e-11
-2.07606e-10
-7.02505e-11
-1.96306e-10
-7.34086e-11
-1.84564e-10
-7.63884e-11
-1.72408e-10
-7.91846e-11
-1.59865e-10
-8.17921e-11
-1.46966e-10
-8.42063e-11
-1.33739e-10
-8.64232e-11
-1.20214e-10
-8.84387e-11
-1.06421e-10
-9.02493e-11
-9.23924e-11
-9.18505e-11
-7.81592e-11
-9.32321e-11
-6.37602e-11
-9.43565e-11
-4.92581e-11
-9.50665e-11
-3.48057e-11
-9.47536e-11
-2.08519e-11
-9.13804e-11
-8.63217e-12
-7.95011e-11
-7.74526e-13
-4.96842e-11
-2.51987e-12
5.19461e-13
-4.40179e-13
8.46234e-12
-5.43029e-11
2.09951e-11
-8.85203e-11
3.53581e-11
-1.02169e-10
5.02501e-11
-1.06045e-10
6.5195e-11
-1.06393e-10
8.00293e-11
-1.05556e-10
9.46862e-11
-1.04239e-10
1.09125e-10
-1.02624e-10
1.23311e-10
-1.00756e-10
1.37213e-10
-9.86466e-11
1.50799e-10
-9.63018e-11
1.64037e-10
-9.37258e-11
1.76897e-10
-9.09233e-11
1.89349e-10
-8.7899e-11
2.01362e-10
-8.46584e-11
2.12909e-10
-8.12072e-11
2.23959e-10
-7.75516e-11
2.34487e-10
-7.36984e-11
2.44464e-10
-6.96545e-11
2.53865e-10
-6.54275e-11
2.62664e-10
-6.10255e-11
2.70837e-10
-5.6457e-11
2.78361e-10
-5.1731e-11
2.85213e-10
-4.68569e-11
2.91373e-10
-4.18449e-11
2.9682e-10
-3.67052e-11
3.01537e-10
-3.14489e-11
3.05506e-10
-2.60875e-11
3.08712e-10
-2.06326e-11
3.11141e-10
-1.50967e-11
3.12782e-10
-9.49186e-12
3.13623e-10
-3.82882e-12
3.13644e-10
1.89525e-12
3.12863e-10
7.58702e-12
3.11266e-10
1.33116e-11
3.0885e-10
1.9037e-11
3.05615e-10
2.47482e-11
3.01563e-10
3.04272e-11
2.96696e-10
3.60582e-11
2.91022e-10
4.16247e-11
2.8455e-10
4.711e-11
2.77291e-10
5.2498e-11
2.69259e-10
5.77726e-11
2.60472e-10
6.29179e-11
2.50948e-10
6.79183e-11
2.40709e-10
7.27583e-11
2.29779e-10
7.74228e-11
2.18184e-10
8.1897e-11
2.05953e-10
8.61666e-11
1.93117e-10
9.02178e-11
1.79709e-10
9.40373e-11
1.65764e-10
9.76128e-11
1.51319e-10
1.00932e-10
1.36415e-10
1.03985e-10
1.2109e-10
1.0676e-10
1.05388e-10
1.09248e-10
8.93532e-11
1.11442e-10
7.30296e-11
1.13333e-10
5.64638e-11
1.14915e-10
3.9703e-11
1.16182e-10
2.27953e-11
1.17129e-10
5.79023e-12
1.1775e-10
-1.1261e-11
1.18035e-10
-2.83046e-11
1.17969e-10
-4.52869e-11
1.17555e-10
-6.21562e-11
1.16801e-10
-7.88619e-11
1.15715e-10
-9.53549e-11
1.14302e-10
-1.11587e-10
1.12569e-10
-1.27512e-10
1.10522e-10
-1.43084e-10
1.08169e-10
-1.58259e-10
1.05519e-10
-1.72995e-10
1.02581e-10
-1.8725e-10
9.93654e-11
-2.00987e-10
9.58833e-11
-2.14167e-10
9.21467e-11
-2.26756e-10
8.81686e-11
-2.38722e-10
8.39623e-11
-2.50034e-10
7.95418e-11
-2.60665e-10
7.49216e-11
-2.70589e-10
7.01167e-11
-2.79782e-10
6.51426e-11
-2.88224e-10
6.00147e-11
-2.95897e-10
5.47491e-11
-3.02786e-10
4.93618e-11
-3.08876e-10
4.38688e-11
-3.14159e-10
3.82865e-11
-3.18625e-10
3.26311e-11
-3.22268e-10
2.69193e-11
-3.25087e-10
2.11672e-11
-3.27079e-10
1.53901e-11
-3.28246e-10
9.60448e-12
-3.28592e-10
3.82529e-12
-3.28115e-10
-1.94205e-12
-3.26824e-10
-7.70471e-12
-3.24729e-10
-1.34127e-11
-3.2184e-10
-1.90611e-11
-3.1817e-10
-2.46377e-11
-3.13735e-10
-3.01297e-11
-3.0855e-10
-3.55247e-11
-3.02633e-10
-4.08108e-11
-2.96003e-10
-4.59764e-11
-2.8868e-10
-5.10107e-11
-2.80686e-10
-5.59031e-11
-2.72044e-10
-6.06438e-11
-2.62777e-10
-6.52233e-11
-2.5291e-10
-6.96328e-11
-2.42469e-10
-7.38638e-11
-2.3148e-10
-7.79084e-11
-2.19971e-10
-8.17594e-11
-2.0797e-10
-8.54098e-11
-1.95505e-10
-8.88531e-11
-1.82607e-10
-9.20834e-11
-1.69303e-10
-9.50952e-11
-1.55626e-10
-9.78834e-11
-1.41606e-10
-1.00443e-10
-1.27274e-10
-1.02771e-10
-1.12662e-10
-1.04861e-10
-9.78026e-11
-1.0671e-10
-8.27292e-11
-1.08306e-10
-6.74827e-11
-1.09603e-10
-5.21299e-11
-1.10419e-10
-3.68344e-11
-1.10049e-10
-2.20729e-11
-1.06142e-10
-9.14913e-12
-9.24249e-11
-8.31495e-13
-5.80019e-11
-3.35138e-12
5.95659e-13
-1.03591e-12
9.08756e-12
-6.27949e-11
2.24494e-11
-1.01882e-10
3.77593e-11
-1.17479e-10
5.36385e-11
-1.21924e-10
6.9579e-11
-1.22333e-10
8.54048e-11
-1.21382e-10
1.01044e-10
-1.19878e-10
1.16454e-10
-1.18034e-10
1.31599e-10
-1.159e-10
1.46444e-10
-1.13492e-10
1.60956e-10
-1.10814e-10
1.75103e-10
-1.07873e-10
1.88852e-10
-1.04673e-10
2.02172e-10
-1.01219e-10
2.15031e-10
-9.7517e-11
2.27397e-10
-9.3574e-11
2.39242e-10
-8.93963e-11
2.50535e-10
-8.49913e-11
2.61247e-10
-8.03669e-11
2.71351e-10
-7.55313e-11
2.80819e-10
-7.04935e-11
2.89625e-10
-6.52629e-11
2.97743e-10
-5.98495e-11
3.0515e-10