/*--------------------------------*- C++ -*----------------------------------*\
| =========                 |                                                 |
| \\      /  F ield         | OpenFOAM: The Open Source CFD Toolbox           |
|  \\    /   O peration     | Version:  2212                                  |
|   \\  /    A nd           | Website:  www.openfoam.com                      |
|    \\/     M anipulation  |                                                 |
\*---------------------------------------------------------------------------*/
FoamFile
{
    version     2.0;
    format      ascii;
    arch        "LSB;label=64;scalar=64";
    class       volScalarField;
    location    "660";
    object      Gco2;
}
// * * * * * * * * * * * * * * * * * * * * * * * * * * * * * * * * * * * * * //

dimensions      [1 -3 0 0 0 0 0];

internalField   nonuniform List<scalar> 
1024
(
0.0537462
0.0537082
0.0536165
0.0534562
0.0532192
0.0529095
0.0525452
0.0521542
0.0517654
0.0514039
0.0510929
0.050851
0.0506873
0.050617
0.0506618
0.05085
0.0511926
0.0516335
0.052112
0.0526135
0.0531369
0.0536875
0.0542661
0.0548577
0.0554302
0.0559464
0.0563774
0.0567096
0.0569447
0.0570954
0.0571792
0.0572136
0.053741
0.0537017
0.0536069
0.0534416
0.0531983
0.0528826
0.052514
0.0521203
0.0517295
0.0513659
0.0510535
0.050812
0.0506494
0.0505805
0.0506265
0.0508154
0.0511585
0.0515994
0.0520773
0.0525775
0.0530988
0.0536469
0.0542235
0.054815
0.0553901
0.0559116
0.0563494
0.0566881
0.0569285
0.0570827
0.0571683
0.0572033
0.0537296
0.0536883
0.0535887
0.0534155
0.0531622
0.0528363
0.0524586
0.0520563
0.0516554
0.0512798
0.0509579
0.0507142
0.0505544
0.0504909
0.0505431
0.0507382
0.0510861
0.0515294
0.0520073
0.0525052
0.053022
0.0535641
0.0541353
0.0547251
0.0553046
0.0558363
0.0562876
0.05664
0.0568914
0.057053
0.0571426
0.0571791
0.053713
0.0536698
0.0535652
0.0533837
0.0531192
0.0527802
0.0523876
0.0519669
0.0515415
0.051136
0.0507892
0.0505361
0.0503798
0.0503286
0.0503972
0.0506097
0.0509727
0.0514254
0.0519066
0.0524025
0.0529127
0.0534449
0.0540061
0.0545907
0.055174
0.055719
0.0561896
0.0565621
0.0568302
0.0570032
0.057099
0.057138
0.0536939
0.0536493
0.0535414
0.0533534
0.0530787
0.0527247
0.0523106
0.0518584
0.0513891
0.0509306
0.050537
0.0502609
0.0501061
0.050075
0.0501746
0.0504228
0.0508188
0.0512938
0.0517858
0.0522826
0.0527855
0.0533043
0.0538503
0.0544245
0.0550081
0.0555661
0.0560588
0.0564558
0.0567451
0.0569326
0.0570365
0.0570785
0.0536758
0.053631
0.0535219
0.0533307
0.0530483
0.0526787
0.0522365
0.0517392
0.0512059
0.0506698
0.0502046
0.0498858
0.0497254
0.0497204
0.0498678
0.0501759
0.0506306
0.0511479
0.0516628
0.0521664
0.0526635
0.053167
0.0536932
0.0542505
0.0548282
0.0553947
0.0559076
0.0563295
0.0566411
0.0568447
0.0569573
0.0570025
0.0536627
0.0536185
0.0535108
0.0533201
0.0530335
0.0526492
0.0521746
0.0516217
0.0510075
0.0503725
0.0498114
0.0494269
0.0492489
0.0492729
0.0494846
0.0498798
0.0504252
0.0510107
0.0515648
0.0520838
0.0525778
0.0530651
0.0535676
0.0541019
0.0546656
0.0552322
0.055758
0.0561993
0.05653
0.0567475
0.0568678
0.0569158
0.053658
0.0536151
0.0535107
0.053324
0.0530375
0.0526413
0.052134
0.0515196
0.0508131
0.0500631
0.0493864
0.0489162
0.048709
0.0487633
0.0490549
0.049566
0.0502379
0.050921
0.0515318
0.0520742
0.0525672
0.0530365
0.0535112
0.0540159
0.0545565
0.0551117
0.055638
0.0560875
0.0564283
0.0566538
0.0567788
0.0568284
0.0536639
0.053623
0.0535234
0.0533436
0.0530614
0.0526581
0.0521205
0.0514427
0.0506358
0.0497584
0.0489534
0.0483877
0.0481478
0.0482387
0.0486284
0.0492873
0.0501258
0.050937
0.0516196
0.0521891
0.0526779
0.053123
0.0535626
0.0540293
0.0545357
0.0550654
0.0555758
0.0560171
0.0563546
0.056579
0.0567038
0.0567536
0.0536797
0.0536413
0.0535476
0.0533768
0.0531025
0.0526962
0.0521306
0.0513863
0.0504691
0.0494531
0.0485152
0.047859
0.0475979
0.0477433
0.0482586
0.0491072
0.0501616
0.0511335
0.0518974
0.0524893
0.052962
0.0533685
0.0537589
0.0541741
0.0546318
0.0551187
0.0555936
0.0560076
0.0563259
0.0565388
0.0566582
0.0567067
0.0536943
0.0536591
0.053572
0.0534102
0.0531435
0.0527335
0.0521366
0.0513158
0.0502737
0.049111
0.0480474
0.0473212
0.0470647
0.0472939
0.0479741
0.0490716
0.050411
0.0515848
0.0524357
0.0530352
0.0534691
0.0538128
0.0541315
0.054475
0.0548644
0.0552877
0.0557058
0.0560729
0.0563568
0.0565487
0.0566586
0.0567047
0.0536706
0.053639
0.0535577
0.0534009
0.0531329
0.0527055
0.0520602
0.0511454
0.049969
0.0486683
0.0475051
0.046742
0.0465203
0.0468614
0.0477481
0.0491684
0.0508871
0.052325
0.0532735
0.0538627
0.054229
0.0544792
0.0546981
0.0549446
0.0552421
0.0555792
0.0559198
0.0562229
0.056461
0.0566259
0.0567242
0.0567676
0.0535271
0.0534985
0.0534194
0.0532584
0.0529713
0.0524995
0.0517751
0.0507475
0.0494475
0.0480492
0.0468374
0.0460771
0.0459065
0.046361
0.0474722
0.0492799
0.0514835
0.0532771
0.0543618
0.0549392
0.05522
0.0553526
0.0554477
0.0555749
0.0557602
0.0559929
0.0562413
0.0564706
0.0566581
0.056795
0.0568821
0.0569233
0.0531444
0.0531158
0.053032
0.0528536
0.0525264
0.0519833
0.0511575
0.0500195
0.0486375
0.047211
0.0460145
0.0452823
0.045136
0.0456449
0.04693
0.0491177
0.0518665
0.0541302
0.0554591
0.0560939
0.0563205
0.0563464
0.0563186
0.0563248
0.0563956
0.0565221
0.0566778
0.0568362
0.0569787
0.0570934
0.057173
0.0572132
0.0524298
0.0523977
0.0523017
0.052095
0.051716
0.0510964
0.0501827
0.0489777
0.0475832
0.0461997
0.0450561
0.0443223
0.0440933
0.0444937
0.0457654
0.0481544
0.0513514
0.0541578
0.0559382
0.0568707
0.0572327
0.0572772
0.0571928
0.0571062
0.0570806
0.057129
0.057234
0.0573651
0.057493
0.0575969
0.0576662
0.0576995
0.0514194
0.051382
0.0512717
0.0510379
0.0506184
0.0499518
0.0490048
0.0478077
0.0464743
0.0451742
0.0440592
0.043211
0.0426873
0.0426566
0.0434636
0.0454931
0.0486326
0.0517886
0.054205
0.0559077
0.0570013
0.0576823
0.0580815
0.0583001
0.0584036
0.0584269
0.0583865
0.0582932
0.0581648
0.0580306
0.0579231
0.0578659
0.0504236
0.0503828
0.0502656
0.0500239
0.049602
0.048952
0.048058
0.0469592
0.0457511
0.0445458
0.0434105
0.0423377
0.0413124
0.040448
0.040064
0.0406026
0.0422658
0.0444326
0.0464379
0.0481689
0.0495824
0.0507349
0.0516228
0.0522707
0.0526935
0.0528936
0.052883
0.052699
0.0524094
0.0521027
0.0518612
0.0517352
0.0497879
0.0497498
0.0496437
0.0494295
0.0490636
0.0485115
0.0477662
0.0468589
0.0458534
0.0448146
0.0437616
0.0426297
0.0413065
0.0397398
0.0380408
0.0365014
0.0355342
0.0351549
0.0350168
0.0349831
0.0350142
0.035109
0.0352649
0.0355051
0.0358374
0.0362426
0.0366805
0.0370965
0.0374331
0.037654
0.0377619
0.0377932
0.049441
0.0494075
0.0493164
0.0491363
0.0488331
0.0483808
0.0477759
0.0470452
0.0462405
0.0454135
0.044576
0.0436599
0.0425151
0.0409669
0.0389069
0.0363764
0.0337692
0.031563
0.0297447
0.0281753
0.026816
0.0256766
0.024791
0.0241969
0.02392
0.0239624
0.0242873
0.0248111
0.0254087
0.0259409
0.0263046
0.0264693
0.049263
0.0492336
0.0491561
0.0490062
0.0487569
0.0483877
0.047896
0.0473037
0.0466541
0.0459924
0.0453346
0.0446311
0.0437524
0.0425127
0.0407239
0.0382512
0.0352993
0.0324875
0.0300979
0.028051
0.0262615
0.0246803
0.0233002
0.0221426
0.0212443
0.0206386
0.0203358
0.0203083
0.0204839
0.0207521
0.0209935
0.0211252
0.0491813
0.0491558
0.0490901
0.0489651
0.0487594
0.0484561
0.0480519
0.0475628
0.0470224
0.046467
0.0459119
0.0453229
0.0445988
0.0435824
0.0420948
0.0399697
0.0372917
0.0345817
0.0321781
0.0300545
0.0281254
0.0263142
0.0246017
0.0230197
0.0216367
0.0205257
0.0197307
0.0192514
0.019043
0.0190238
0.0190914
0.0191523
0.0491383
0.0491187
0.0490665
0.0489654
0.048797
0.0485466
0.0482091
0.0477934
0.0473205
0.046813
0.0462783
0.0456896
0.0449712
0.0440047
0.0426562
0.0408008
0.0384937
0.0361089
0.0339158
0.0318948
0.02996
0.0280307
0.0260871
0.0241707
0.0223828
0.0208475
0.0196582
0.0188489
0.0183888
0.0181975
0.018167
0.0181897
0.0490482
0.0490416
0.0490142
0.0489471
0.0488201
0.0486171
0.0483294
0.0479568
0.0475045
0.046978
0.0463746
0.0456734
0.0448247
0.0437529
0.0423781
0.0406365
0.0386062
0.0365456
0.0346132
0.0327698
0.0309392
0.0290464
0.0270619
0.0250166
0.0230095
0.0211859
0.0196837
0.0185885
0.017907
0.0175724
0.0174701
0.0174712
0.0487604
0.0487818
0.0488045
0.0487988
0.0487329
0.0485813
0.0483262
0.0479553
0.0474578
0.0468256
0.0460543
0.0451381
0.0440593
0.0427862
0.0412883
0.0395539
0.0376936
0.0358932
0.0342125
0.0325809
0.0309235
0.0291746
0.0273008
0.0253172
0.0232972
0.0213674
0.0196822
0.018374
0.0175014
0.0170318
0.0168595
0.0168408
0.0480578
0.0481286
0.0482373
0.0483319
0.0483549
0.0482583
0.0480069
0.047575
0.0469444
0.0461096
0.0450828
0.0438871
0.0425403
0.0410488
0.0394176
0.0376649
0.0359214
0.0343294
0.0328807
0.0314774
0.0300392
0.0285034
0.0268342
0.0250357
0.0231556
0.0212878
0.0195691
0.0181498
0.0171375
0.0165502
0.0163087
0.0162686
0.0467043
0.0468449
0.0470677
0.047285
0.047402
0.0473367
0.0470333
0.0464614
0.0456147
0.0445136
0.0432034
0.0417401
0.0401705
0.0385249
0.0368252
0.0350985
0.0334767
0.0320733
0.0308416
0.0296692
0.0284723
0.0271892
0.0257825
0.0242447
0.0226005
0.0209134
0.0192905
0.0178719
0.016791
0.016116
0.0158113
0.0157478
0.0445104
0.0447284
0.0450543
0.0453567
0.0455081
0.0453998
0.0449684
0.044199
0.0431156
0.0417743
0.0402524
0.0386272
0.0369589
0.0352846
0.0336279
0.0320112
0.0305529
0.0293438
0.0283211
0.0273722
0.0264164
0.0253955
0.0242729
0.0230329
0.021682
0.0202546
0.0188236
0.0175056
0.0164367
0.0157188
0.0153643
0.0152768
0.0413685
0.0416437
0.0419913
0.0422519
0.0423055
0.0420528
0.0414493
0.0405057
0.0392722
0.0378266
0.0362575
0.0346446
0.0330448
0.0314905
0.0299994
0.0285845
0.0273429
0.026345
0.0255273
0.024789
0.024059
0.0232871
0.0224402
0.0214996
0.0204609
0.0193361
0.0181649
0.0170295
0.0160505
0.0153447
0.0149641
0.0148552
0.0372296
0.037497
0.0377067
0.0377479
0.0375745
0.0371346
0.0364107
0.0354209
0.0342158
0.0328674
0.0314532
0.0300388
0.0286692
0.0273683
0.0261462
0.0250086
0.0240282
0.0232569
0.0226402
0.0220967
0.0215701
0.0210208
0.020422
0.0197567
0.0190161
0.0181999
0.0173226
0.0164305
0.0156124
0.0149785
0.0146052
0.0144825
0.032032
0.03217
0.0320724
0.031807
0.0314173
0.0308838
0.0301896
0.0293376
0.028357
0.0272957
0.0262071
0.025137
0.0241162
0.0231603
0.0222745
0.02146
0.0207661
0.0202276
0.0198044
0.0194385
0.0190905
0.0187327
0.0183462
0.0179179
0.0174401
0.0169084
0.016324
0.0157056
0.0151041
0.014602
0.0142785
0.0141572
0.0256175
0.0254995
0.0251315
0.0247363
0.0243345
0.0239004
0.0234103
0.0228524
0.0222344
0.0215786
0.0209139
0.0202663
0.0196536
0.0190845
0.0185612
0.0180835
0.0176792
0.0173678
0.0171258
0.0169194
0.0167257
0.0165291
0.0163185
0.0160864
0.0158278
0.0155393
0.0152186
0.0148703
0.0145152
0.014197
0.0139717
0.0138751
0.0177566
0.0176452
0.0174373
0.0172509
0.0170821
0.0169162
0.0167416
0.0165509
0.0163436
0.0161257
0.015906
0.0156929
0.015492
0.0153062
0.0151359
0.0149811
0.0148504
0.0147501
0.0146726
0.0146068
0.0145457
0.014484
0.0144184
0.0143463
0.0142663
0.0141773
0.0140781
0.0139695
0.0138561
0.0137498
0.0136682
0.0136286
)
;

boundaryField
{
    movingWall
    {
        type            fixedValue;
        value           uniform 0.0135;
    }
    fixedWalls
    {
        type            zeroGradient;
    }
    floor
    {
        type            zeroGradient;
    }
    frontAndBack
    {
        type            empty;
    }
}


// ************************************************************************* //
