/*--------------------------------*- C++ -*----------------------------------*\
| =========                 |                                                 |
| \\      /  F ield         | OpenFOAM: The Open Source CFD Toolbox           |
|  \\    /   O peration     | Version:  2212                                  |
|   \\  /    A nd           | Website:  www.openfoam.com                      |
|    \\/     M anipulation  |                                                 |
\*---------------------------------------------------------------------------*/
FoamFile
{
    version     2.0;
    format      ascii;
    arch        "LSB;label=64;scalar=64";
    class       volScalarField;
    location    "660";
    object      Sco2;
}
// * * * * * * * * * * * * * * * * * * * * * * * * * * * * * * * * * * * * * //

dimensions      [1 -3 0 0 0 0 0];

internalField   nonuniform List<scalar> 
1024
(
0.00594976
0.00595304
0.00596096
0.00597479
0.00599525
0.00602198
0.00605343
0.00608717
0.00612072
0.0061519
0.00617872
0.00619954
0.00621362
0.00621961
0.00621569
0.00619945
0.00616993
0.006132
0.00609084
0.00604772
0.00600271
0.00595537
0.00590561
0.00585473
0.0058055
0.0057611
0.00572403
0.00569546
0.00567524
0.00566228
0.00565507
0.00565211
0.00595021
0.0059536
0.00596179
0.00597606
0.00599706
0.00602431
0.00605613
0.0060901
0.00612383
0.00615519
0.00618212
0.00620291
0.00621689
0.00622277
0.00621875
0.00620244
0.00617287
0.00613495
0.00609384
0.00605082
0.006006
0.00595886
0.00590928
0.00585841
0.00580895
0.00576409
0.00572644
0.00569731
0.00567663
0.00566337
0.00565601
0.00565299
0.0059512
0.00595476
0.00596336
0.00597832
0.00600018
0.00602832
0.00606093
0.00609565
0.00613025
0.00616265
0.0061904
0.00621137
0.00622511
0.00623052
0.00622596
0.00620912
0.00617914
0.00614099
0.00609988
0.00605706
0.00601262
0.005966
0.00591688
0.00586615
0.00581631
0.00577058
0.00573176
0.00570145
0.00567982
0.00566593
0.00565822
0.00565507
0.00595264
0.00595637
0.0059654
0.00598107
0.0060039
0.00603318
0.00606707
0.00610339
0.00614012
0.00617511
0.006205
0.00622679
0.00624021
0.00624456
0.00623858
0.00622024
0.00618895
0.00614999
0.00610858
0.00606592
0.00602204
0.00597627
0.00592801
0.00587773
0.00582756
0.00578068
0.00574019
0.00570815
0.00568509
0.00567021
0.00566196
0.00565861
0.0059543
0.00595815
0.00596747
0.0059837
0.00600743
0.006038
0.00607377
0.00611282
0.00615335
0.00619292
0.00622684
0.00625059
0.00626387
0.00626649
0.00625783
0.00623641
0.00620228
0.00616138
0.00611904
0.00607629
0.00603302
0.00598838
0.00594142
0.00589204
0.00584184
0.00579384
0.00575146
0.0057173
0.00569242
0.00567628
0.00566734
0.00566372
0.00595588
0.00595975
0.00596917
0.00598568
0.00601008
0.00604201
0.00608022
0.00612318
0.00616925
0.00621553
0.00625562
0.00628304
0.00629679
0.00629714
0.00628437
0.0062578
0.00621861
0.00617405
0.00612971
0.00608634
0.00604356
0.00600023
0.00595497
0.00590703
0.00585734
0.0058086
0.00576448
0.00572818
0.00570136
0.00568384
0.00567415
0.00567026
0.00595704
0.00596085
0.00597016
0.00598663
0.0060114
0.00604462
0.00608564
0.00613344
0.0061865
0.00624132
0.00628968
0.00632274
0.00633797
0.00633583
0.00631752
0.00628345
0.00623645
0.00618599
0.00613825
0.00609354
0.006051
0.00600905
0.0059658
0.00591984
0.00587134
0.00582259
0.00577736
0.00573938
0.00571092
0.0056922
0.00568184
0.00567771
0.00595749
0.00596118
0.00597021
0.00598634
0.00601112
0.00604538
0.00608926
0.00614238
0.00620344
0.00626818
0.00632648
0.0063669
0.00638464
0.00637988
0.00635471
0.00631068
0.00625279
0.0061939
0.00614124
0.00609448
0.006052
0.00601157
0.0059707
0.00592726
0.00588075
0.00583297
0.00578769
0.005749
0.00571967
0.00570026
0.0056895
0.00568523
0.00595703
0.00596057
0.00596918
0.00598473
0.00600914
0.00604404
0.00609055
0.00614917
0.00621891
0.00629463
0.00636397
0.00641259
0.00643314
0.00642523
0.00639164
0.00633493
0.00626269
0.00619274
0.00613386
0.00608473
0.00604257
0.00600419
0.00596633
0.00592615
0.00588256
0.00583697
0.00579305
0.00575506
0.00572601
0.00570669
0.00569595
0.00569167
0.00595576
0.00595908
0.00596718
0.00598196
0.0060057
0.00604087
0.00608983
0.00615423
0.00623347
0.00632113
0.00640188
0.00645826
0.00648062
0.00646805
0.00642371
0.00635073
0.00625991
0.00617609
0.00611014
0.00605904
0.00601822
0.00598315
0.00594948
0.00591373
0.00587431
0.0058324
0.00579152
0.00575588
0.00572848
0.00571016
0.00569988
0.00569571
0.00595462
0.00595766
0.0059652
0.0059792
0.0060023
0.0060378
0.00608948
0.00616048
0.0062505
0.00635075
0.00644227
0.00650465
0.00652662
0.00650689
0.00644847
0.00635417
0.00623883
0.00613753
0.00606401
0.00601218
0.00597467
0.00594498
0.00591747
0.00588786
0.00585431
0.00581787
0.00578187
0.00575027
0.00572583
0.00570931
0.00569985
0.00569588
0.00595682
0.00595955
0.00596658
0.00598016
0.00600337
0.00604038
0.00609623
0.00617533
0.00627689
0.00638896
0.006489
0.00655452
0.00657352
0.00654429
0.00646829
0.00634635
0.00619835
0.00607415
0.0059921
0.00594108
0.00590934
0.00588767
0.00586874
0.00584747
0.00582182
0.00579279
0.00576346
0.00573736
0.00571686
0.00570266
0.0056942
0.00569047
0.00596934
0.00597182
0.00597866
0.00599259
0.00601745
0.00605828
0.00612093
0.0062097
0.00632184
0.00644224
0.0065464
0.00661168
0.00662638
0.0065876
0.00649257
0.00633751
0.00614774
0.00599267
0.00589865
0.00584852
0.00582409
0.00581251
0.00580423
0.00579321
0.00577723
0.00575717
0.00573578
0.00571603
0.0056999
0.00568811
0.00568061
0.00567706
0.00600243
0.0060049
0.00601214
0.00602758
0.00605588
0.00610283
0.00617417
0.00627238
0.00639146
0.0065142
0.00661701
0.00667992
0.00669272
0.00664961
0.00654003
0.00635257
0.00611586
0.00591999
0.0058046
0.0057493
0.00572942
0.00572698
0.00572926
0.00572867
0.00572255
0.00571165
0.00569823
0.00568459
0.00567232
0.00566244
0.00565558
0.00565212
0.00606399
0.00606676
0.00607505
0.00609291
0.00612565
0.00617915
0.00625799
0.00636186
0.00648191
0.00660086
0.0066991
0.00676226
0.00678246
0.00674913
0.00664125
0.00643691
0.00616172
0.00591886
0.0057642
0.00568289
0.00565106
0.00564687
0.00565394
0.0056613
0.00566347
0.00565928
0.00565023
0.00563895
0.00562794
0.00561902
0.00561306
0.00561021
0.00615091
0.00615413
0.00616364
0.00618382
0.00622001
0.00627748
0.00635909
0.00646215
0.00657681
0.00668847
0.00678421
0.00685729
0.00690308
0.00690726
0.00683998
0.00666729
0.0063976
0.00612485
0.00591536
0.00576747
0.00567219
0.00561279
0.00557791
0.00555881
0.00554975
0.00554773
0.00555127
0.00555941
0.00557059
0.00558227
0.00559161
0.00559658
0.00623648
0.00624
0.00625009
0.0062709
0.00630722
0.00636316
0.00644007
0.00653449
0.00663819
0.00674151
0.00683883
0.00693104
0.00701979
0.00709567
0.00713117
0.00708759
0.0069462
0.00675987
0.00658681
0.00643718
0.00631473
0.00621491
0.00613789
0.00608172
0.00604503
0.0060276
0.0060284
0.00604419
0.00606913
0.00609557
0.00611639
0.00612727
0.00629114
0.00629441
0.00630354
0.00632196
0.00635343
0.0064009
0.00646493
0.00654279
0.00662895
0.00671775
0.00680766
0.00690436
0.00701789
0.00715314
0.0073009
0.00743592
0.00752167
0.00755574
0.00756833
0.00757159
0.00756901
0.00756079
0.00754719
0.00752637
0.00749761
0.00746255
0.0074247
0.00738876
0.00735968
0.00734059
0.00733126
0.00732855
0.00632101
0.0063239
0.00633173
0.00634721
0.00637329
0.00641217
0.00646413
0.00652683
0.00659575
0.00666639
0.00673771
0.00681564
0.00691325
0.00704588
0.00722327
0.0074422
0.00766849
0.00785999
0.00801754
0.00815333
0.00827083
0.00836926
0.00844576
0.0084971
0.00852109
0.00851755
0.00848968
0.00844465
0.00839327
0.00834749
0.00831621
0.00830204
0.00633638
0.00633891
0.00634557
0.00635846
0.00637991
0.00641164
0.0064539
0.00650474
0.00656041
0.00661693
0.00667292
0.00673262
0.00680727
0.00691301
0.00706632
0.00727914
0.00753409
0.00777736
0.00798417
0.00816129
0.00831609
0.00845285
0.00857222
0.00867236
0.0087501
0.00880255
0.00882884
0.00883136
0.00881635
0.00879332
0.00877257
0.00876125
0.00634345
0.00634564
0.00635129
0.00636205
0.00637975
0.00640583
0.0064406
0.00648261
0.00652894
0.00657643
0.00662372
0.00667375
0.00673523
0.00682178
0.00694899
0.00713139
0.00736203
0.00759602
0.00780384
0.00798762
0.0081546
0.00831137
0.00845959
0.00859649
0.00871615
0.00881225
0.00888102
0.00892247
0.00894051
0.0089422
0.00893637
0.00893113
0.00634715
0.00634884
0.00635333
0.00636205
0.00637654
0.00639809
0.00642712
0.00646285
0.00650343
0.00654689
0.00659255
0.00664271
0.00670389
0.00678633
0.00690166
0.00706077
0.00725915
0.00746473
0.00765415
0.00782893
0.00799634
0.00816328
0.00833144
0.0084972
0.00865182
0.00878457
0.0088874
0.00895736
0.00899712
0.00901365
0.00901628
0.00901431
0.00635487
0.00635545
0.00635781
0.0063636
0.00637454
0.00639202
0.00641676
0.0064488
0.00648763
0.00653278
0.00658446
0.00664444
0.00671702
0.00680874
0.00692655
0.00707598
0.00725047
0.00742792
0.00759464
0.0077539
0.00791217
0.00807586
0.00824747
0.00842431
0.00859781
0.00875544
0.00888528
0.00897994
0.00903883
0.00906774
0.00907657
0.00907647
0.00637959
0.00637775
0.0063758
0.0063763
0.00638197
0.00639503
0.00641697
0.00644886
0.0064916
0.00654588
0.0066121
0.00669072
0.00678328
0.00689254
0.00702116
0.00717018
0.0073301
0.00748506
0.00762993
0.00777076
0.00791395
0.0080651
0.00822706
0.0083985
0.00857309
0.00873986
0.0088855
0.00899854
0.00907395
0.00911452
0.0091294
0.009131
0.00644004
0.00643393
0.00642456
0.00641642
0.00641442
0.00642272
0.00644433
0.00648146
0.00653568
0.00660746
0.00669575
0.00679857
0.00691438
0.00704264
0.00718293
0.0073337
0.00748367
0.00762069
0.00774549
0.00786652
0.00799068
0.00812334
0.00826756
0.00842297
0.00858542
0.00874681
0.00889533
0.00901797
0.00910544
0.00915619
0.00917704
0.0091805
0.00655661
0.00654449
0.00652527
0.00650651
0.00649638
0.00650195
0.00652804
0.00657722
0.00665008
0.00674486
0.00685766
0.00698365
0.00711879
0.00726047
0.00740681
0.00755548
0.00769507
0.00781588
0.00792196
0.00802302
0.00812629
0.00823707
0.00835857
0.00849141
0.00863346
0.00877922
0.00891945
0.00904202
0.00913542
0.00919374
0.00922007
0.00922555
0.00674569
0.00672687
0.00669874
0.00667262
0.00665949
0.00666873
0.00670583
0.00677205
0.00686535
0.00698089
0.00711203
0.00725206
0.00739582
0.00754008
0.00768282
0.0078221
0.00794768
0.00805178
0.00813986
0.00822162
0.00830405
0.00839216
0.0084891
0.00859619
0.00871288
0.0088362
0.00895983
0.00907371
0.00916607
0.0092281
0.00925873
0.00926629
0.00701655
0.00699281
0.00696279
0.00694024
0.00693551
0.00695719
0.00700912
0.00709038
0.00719667
0.00732126
0.00745652
0.00759556
0.00773348
0.00786747
0.00799599
0.00811793
0.00822489
0.00831083
0.00838125
0.00844485
0.00850779
0.00857439
0.0086475
0.00872872
0.00881843
0.00891559
0.00901677
0.00911487
0.00919946
0.00926046
0.00929335
0.00930276
0.00737345
0.00735038
0.00733224
0.0073286
0.00734345
0.00738127
0.00744359
0.00752887
0.00763274
0.00774899
0.00787094
0.0079929
0.008111
0.00822318
0.00832854
0.0084266
0.00851108
0.00857752
0.00863063
0.00867745
0.00872284
0.00877021
0.00882189
0.00887934
0.00894329
0.00901379
0.00908958
0.00916665
0.00923734
0.00929213
0.00932439
0.00933499
0.00782168
0.00780977
0.00781815
0.00784098
0.00787449
0.00792041
0.00798019
0.00805361
0.00813814
0.00822966
0.00832354
0.00841583
0.00850387
0.0085863
0.00866268
0.0087329
0.0087927
0.0088391
0.00887554
0.00890706
0.00893706
0.0089679
0.00900126
0.00903823
0.00907948
0.00912541
0.00917589
0.00922932
0.0092813
0.00932469
0.00935265
0.00936314
0.0083749
0.00838506
0.00841678
0.00845083
0.00848543
0.00852281
0.00856503
0.0086131
0.00866638
0.00872293
0.00878026
0.00883611
0.00888896
0.00893804
0.00898317
0.00902435
0.0090592
0.00908602
0.00910686
0.00912465
0.00914134
0.00915829
0.00917646
0.0091965
0.00921882
0.00924374
0.00927144
0.00930153
0.00933221
0.00935971
0.00937919
0.00938754
0.00905287
0.00906248
0.00908041
0.00909647
0.00911101
0.0091253
0.00914034
0.00915678
0.00917465
0.00919343
0.00921238
0.00923076
0.00924809
0.00926412
0.0092788
0.00929215
0.00930341
0.00931205
0.00931873
0.00932439
0.00932966
0.00933498
0.00934064
0.00934686
0.00935377
0.00936146
0.00937002
0.00937941
0.0093892
0.00939839
0.00940544
0.00940887
)
;

boundaryField
{
    movingWall
    {
        type            fixedValue;
        value           uniform 0.00942;
    }
    fixedWalls
    {
        type            zeroGradient;
    }
    floor
    {
        type            zeroGradient;
    }
    frontAndBack
    {
        type            empty;
    }
}


// ************************************************************************* //
