/*--------------------------------*- C++ -*----------------------------------*\
| =========                 |                                                 |
| \\      /  F ield         | OpenFOAM: The Open Source CFD Toolbox           |
|  \\    /   O peration     | Version:  2206                                  |
|   \\  /    A nd           | Website:  www.openfoam.com                      |
|    \\/     M anipulation  |                                                 |
\*---------------------------------------------------------------------------*/
FoamFile
{
    version     2.0;
    format      ascii;
    arch        "LSB;label=64;scalar=64";
    class       volScalarField;
    location    "2/water";
    object      epsilonm;
}
// * * * * * * * * * * * * * * * * * * * * * * * * * * * * * * * * * * * * * //

dimensions      [0 2 -3 0 0 0 0];

internalField   nonuniform List<scalar> 
23300
(
1.21620955167e-05
2.01904514963e-05
3.32095215504e-05
5.01416907038e-05
6.99409161022e-05
9.12985923429e-05
0.000112724800817
0.000132734075169
0.000149917074228
0.000162236408304
0.000167860452976
0.000170011559002
0.00018318797381
0.000210269802166
0.000262005196726
0.000349360860698
0.000470012408187
0.000620220342907
0.000796319788059
0.000994459162678
0.00121062748656
0.00144081064697
0.00168117123701
0.00192815762933
0.00217858424314
0.00242964121815
0.00267890367131
0.00292429034142
0.00316404643673
0.00339668681285
0.00362097692419
0.00383587721054
0.00404053172005
0.00423421946455
0.00441635265794
0.00458643559135
0.00474407094888
0.00488892458844
0.00502073718069
0.00513929279433
0.00524443299163
0.00533602712566
0.00541398561084
0.00547822874817
0.00552869258174
0.00556528479901
0.00558785545698
0.00559670196334
0.00559222374504
0.00557468066552
0.00554431497434
0.00550137944913
0.00544616358531
0.00537899066484
0.00530022905085
0.00521028840517
0.00510962668237
0.00499874907063
0.0048782117236
0.00474862347564
0.00461064623612
0.0044649988883
0.00431245419449
0.00415384402413
0.0039900525749
0.00382202192627
0.003650741304
0.00347725194471
0.003302632178
0.00312800068624
0.00295449758993
0.00278328579809
0.00261552955585
0.00245239591592
0.0022950363193
0.00214459715951
0.00200222119866
0.00186909390939
0.00174650940545
0.00163602444384
0.00153970798339
0.00146059713615
0.00140339750503
0.00137496444689
0.00137860435986
0.00140731833714
0.00145487820616
0.00151746813667
0.00159265618654
0.00167870304242
0.00177417938548
0.00187776825063
0.00198815493878
0.00210397738598
0.00222380315404
0.00234613290619
0.00246941344778
0.00259206388916
0.00271250286393
0.0028291797965
0.00294060068257
0.00304535198654
0.00314211562053
0.00322968040493
0.00330694466291
0.00337291689743
0.00342670952815
0.00346753315316
0.00349468548972
0.00350754091053
0.0035055293262
0.00348809395898
0.00345456083976
0.00340371164614
0.00333543587917
0.00324979853028
0.0031468170841
0.00302652105959
0.00288899836754
0.0027344437239
0.00256321064829
0.00237588062849
0.00217335459039
0.00195698508016
0.00172876490385
0.00149160601755
0.00124974328329
0.00100929053661
0.000778854521925
0.000569704427254
0.000394141787304
0.000260699230746
0.000168791990091
0.000109355715261
7.12085226233e-05
4.58848726115e-05
2.8400505662e-05
1.62784543359e-05
8.73434256848e-06
5.58475793497e-06
4.08971968708e-06
4.54339623875e-06
5.23855714752e-06
6.20386633072e-06
7.51107282017e-06
9.24707495265e-06
1.15063968362e-05
1.44031949423e-05
1.82580744746e-05
2.61603639554e-05
5.18165180138e-05
0.000114411444447
0.00019621707814
0.000280937286268
0.000373193996152
0.000480186157641
0.00060574857439
0.00074975442225
0.000910145589373
0.00108385391477
0.00126735673212
0.0014570689338
0.00164961829174
0.00184201849984
0.00203176148599
0.00221684386126
0.00239575002388
0.00256740367011
0.00273110523384
0.00288646060577
0.00303331291377
0.00317167745416
0.00330168736692
0.00342354663411
0.00353749523801
0.00364378107326
0.00374264198835
0.00383429194964
0.00391891428013
0.00399665631554
0.00406762851179
0.00413190309946
0.00418951547991
0.00424046437873
0.00428471416715
0.00432219673997
0.00435281811474
0.00437658092758
0.00439338796452
0.00440313624225
0.00440571834328
0.00440102805156
0.00438896600226
0.00436944416899
0.00434239046358
0.00430775332452
0.00426550666635
0.0042156552723
0.00415824033043
0.00409334555394
0.00402110308154
0.00394169993982
0.00385538384416
0.00376246938966
0.00366334306835
0.00355846836902
0.00344838914345
0.00333373267878
0.00321521050516
0.00309361858688
0.00296983491021
0.00284481646692
0.00271959398305
0.00259526727165
0.00247300081564
0.0023540245737
0.00223964246296
0.00213125709221
0.0020304165258
0.00193889177902
0.00185877955046
0.00179259444706
0.00174321565704
0.0017133360372
0.00170385491841
0.00171277553249
0.00173714021573
0.00177412654995
0.00182126098725
0.00187637628947
0.00193752537623
0.00200291195027
0.00207084688241
0.00213972805572
0.00220803712598
0.00227434865998
0.00233734604512
0.00239584070741
0.00244878998291
0.00249531146144
0.00253469069973
0.00256638233792
0.00259000358006
0.00260532213509
0.00261223885731
0.00261076800296
0.00260101542868
0.00258315736323
0.00255741952379
0.00252405856348
0.00248334555205
0.00243555553532
0.00238097459113
0.00231997908353
0.00225219674933
0.00217778887235
0.00209682200426
0.00200926330484
0.00191498363386
0.00181376883125
0.00170534128553
0.00158939795364
0.0014656725518
0.0013340340284
0.00119463681315
0.00104814479097
0.000896054468807
0.00074113350207
0.000587924826019
0.000443063291919
0.000314785150083
0.000210887019716
0.000135363600672
8.5947220345e-05
5.54881634463e-05
3.63785525385e-05
2.35587071454e-05
1.48695519859e-05
1.15197361753e-05
1.76215449135e-05
3.20859982433e-06
3.50406268181e-06
3.78912710554e-06
4.01074359608e-06
4.19584834437e-06
4.42416093489e-06
4.90007748994e-06
6.62152170578e-06
1.48919173572e-05
4.03095010509e-05
9.06925241598e-05
0.000166601172362
0.000262724385278
0.000368267837413
0.000480107357406
0.000599712893224
0.000728693207645
0.00086735036187
0.00101463779086
0.00116853574123
0.00132649740536
0.00148583669169
0.00164402018686
0.00179885668918
0.00194859823961
0.00209196849618
0.00222814131529
0.00235668555676
0.00247749454963
0.00259070914755
0.00269664556262
0.0027957300499
0.00288844607552
0.00297529160509
0.00305674899905
0.00313326308412
0.00320522869988
0.00327298293079
0.00333680331183
0.00339690775678
0.0034534579072
0.00350656246673
0.00355628262397
0.00360263703389
0.00364560896007
0.00368515441269
0.00372121479168
0.00375356854973
0.00378195671034
0.00380614267874
0.00382589926989
0.00384100312829
0.00385123370755
0.00385637429975
0.00385621455781
0.00385055391938
0.00383920573179
0.00382200216178
0.00379879947804
0.0037694841389
0.00373397898607
0.00369225020712
0.00364431410359
0.00359024447529
0.00353017944216
0.00346432859707
0.00339297916195
0.003316502085
0.00323535668408
0.00315009480467
0.00306136312495
0.00296990464542
0.0028765582025
0.00278225733382
0.00268802796383
0.00259498699821
0.00250434233805
0.00241739694441
0.002335556719
0.0022603401267
0.00219337692291
0.0021363674987
0.00209094584035
0.0020583648833
0.00203901362078
0.00203219503927
0.00203638432863
0.00204970619416
0.00207019971614
0.00209594693408
0.00212513244445
0.00215607050976
0.0021872182661
0.00221718408672
0.0022447346092
0.00226880147445
0.00228848705265
0.00230306802941
0.00231199541678
0.00231489009045
0.00231153341416
0.00230185328987
0.0022859064618
0.00226385829689
0.00223596138275
0.00220253420728
0.00216394104162
0.00212057390253
0.00207283741218
0.00202113747013
0.00196587547331
0.00190745199632
0.00184628926323
0.00178289267389
0.00171725534058
0.00164944079487
0.00157944856956
0.00150719996215
0.00143252950445
0.00135518215714
0.00127481795025
0.00119102762825
0.00110336479995
0.00101140310607
0.000914830036161
0.000813592794841
0.000708112350915
0.000599571614996
0.000490240742251
0.000383701245477
0.000284697861132
0.000198383392548
0.000129137919886
7.93121420724e-05
4.77013194086e-05
2.9341107667e-05
1.85852050994e-05
1.24223255791e-05
1.5664826401e-05
6.03216978215e-05
4.56084833485e-06
5.51218944185e-06
6.49834537599e-06
7.3437014029e-06
8.25945187677e-06
9.93820936409e-06
1.47705175962e-05
3.04636741774e-05
6.09535212967e-05
0.000107943813591
0.000174498130781
0.000259000148505
0.000359463773181
0.000470950859299
0.00058956014144
0.000713566952022
0.000842420431203
0.000975663271441
0.00111240072703
0.00125123094711
0.00139041390252
0.00152810877495
0.00166258983679
0.00179239996898
0.00191643638657
0.00203397465059
0.00214464867103
0.0022484005842
0.00234541756315
0.00243606402008
0.00252081950427
0.00260022394468
0.00267483496559
0.00274519461211
0.00281180735443
0.00287512500671
0.00293553962582
0.00299337995224
0.00304891266263
0.00310234460152
0.00315382769702
0.00320346343929
0.00325130893447
0.00329738209853
0.00334166830222
0.00338412697339
0.00342470078355
0.00346310746432
0.00349904480317
0.00353223569342
0.00356241675322
0.00358933097249
0.00361272448209
0.00363234563774
0.00364794603793
0.00365928263992
0.00366612081988
0.00366823823436
0.00366542920858
0.0036575099
0.00364432372164
0.00362574753332
0.00360169783652
0.00357213765981
0.00353708314879
0.00349661066434
0.00345086322608
0.0034000571754
0.00334448777253
0.00328453463611
0.00322066566615
0.00315344035772
0.00308351112117
0.00301162351121
0.00293861403905
0.0028654064737
0.00279300528844
0.00272248663652
0.00265498419633
0.00259166709455
0.00253370177766
0.00248218718169
0.00243804889861
0.0024018886124
0.00237382167148
0.00235340273922
0.00233978325387
0.00233171767416
0.00232781109419
0.0023266377973
0.00232682144077
0.00232708699228
0.00232629287726
0.00232344906184
0.00231772594001
0.00230845707242
0.00229513726058
0.00227741664762
0.00225509121372
0.0022280900023
0.0021964596894
0.00216034716881
0.00211998114537
0.00207565352459
0.00202770158834
0.00197649152595
0.00192240403696
0.00186582229447
0.00180712281759
0.00174666961547
0.00168481260091
0.00162189181715
0.00155825076855
0.0014942637118
0.00143008923517
0.001365732646
0.00130115232141
0.00123625091578
0.00117086897084
0.00110478097271
0.00103769548781
0.000969261681372
0.000899085860036
0.000826763803893
0.000751936847281
0.000674381854391
0.000594144532306
0.000511717188215
0.000428235939073
0.000345622969614
0.000266549674441
0.000194135162617
0.00013151589978
8.16266233131e-05
4.67399475649e-05
2.61868429976e-05
1.54724655362e-05
1.08130542426e-05
2.35763969169e-05
0.000146434996366
1.0941508878e-05
1.39461815112e-05
1.76216496424e-05
2.17293083519e-05
2.77257626662e-05
3.9178807061e-05
6.20412939772e-05
9.67764110742e-05
0.000142701555541
0.000201564635441
0.000275362173322
0.000364305419204
0.000466706013879
0.000579280964935
0.000698612822552
0.000822183232479
0.000948404649834
0.00107617770624
0.0012044891837
0.00133222531498
0.00145817163269
0.00158110886203
0.00169993202518
0.00181374618356
0.00192192299713
0.00202411483842
0.00212023704945
0.00221042720345
0.00229499491628
0.00237436837242
0.00244904624361
0.00251955573093
0.00258642080435
0.00265013783327
0.00271116038438
0.00276988911448
0.00282666799026
0.00288178283563
0.00293546366199
0.00298788733819
0.003039182384
0.00308943302306
0.00313868445197
0.00318694700903
0.00323420138473
0.00328040336915
0.00332549053108
0.00336921934703
0.00341127467594
0.00345136772722
0.00348922593291
0.00352458546681
0.00355718722082
0.00358677493598
0.00361309526984
0.00363589900646
0.00365494323824
0.00366999434408
0.00368083147922
0.00368725079522
0.00368906988848
0.0036861329676
0.00367831600645
0.00366553256806
0.00364773935275
0.00362494228891
0.00359720203768
0.00356463981091
0.00352744222647
0.00348586612907
0.00344024197542
0.00339097667289
0.0033385543373
0.00328353573071
0.00322655467748
0.00316831197964
0.00310956486877
0.00305111204478
0.00299377178461
0.00293835232227
0.00288561142384
0.00283620465452
0.00279062250039
0.00274912390918
0.00271168149153
0.0026779606882
0.00264734836992
0.00261918494209
0.00259259297363
0.00256667736977
0.00254057747
0.00251350502977
0.00248477474432
0.00245381896681
0.00242019465576
0.00238358352734
0.00234378740242
0.0023007197662
0.00225439454456
0.00220491286767
0.00215244870552
0.00209723404649
0.00203954438244
0.00197968491587
0.00191797809327
0.00185475263852
0.00179033447939
0.00172503956337
0.00165916885112
0.00159300547071
0.00152681437679
0.00146084466442
0.00139533502729
0.00133052158786
0.00126663843459
0.00120360017991
0.00114134782152
0.00107977807086
0.00101874247964
0.000958046202069
0.000897448490813
0.000836666726686
0.000775386492759
0.000713281465359
0.000650048163906
0.00058546161895
0.000519456862772
0.000452235383163
0.000384380955468
0.000316945656392
0.000251447463864
0.000189744301967
0.000133859605081
8.60143972342e-05
4.90443019565e-05
2.54358292942e-05
1.35432450942e-05
9.82539205613e-06
3.64029288312e-05
0.000281755513984
3.12106652714e-05
3.85724203428e-05
4.91891694143e-05
6.25555891535e-05
8.0915171726e-05
0.000107103858221
0.000142123289812
0.000185374977879
0.000238847962987
0.000304190055129
0.000382478312346
0.000473657399197
0.000576287422406
0.000687828929124
0.000805399801166
0.00092647075729
0.00104912338348
0.0011719487091
0.001293835084
0.0014138077721
0.0015309664651
0.00164449533525
0.001753707251
0.0018580872225
0.0019573193738
0.00205128959943
0.00214006901871
0.00222388209361
0.00230306909315
0.00237804631065
0.00244927094174
0.00251721036962
0.0025823194772
0.0026450231601
0.00270570596534
0.00276470513949
0.0028223086193
0.0028787543636
0.00293423271651
0.00298888866175
0.00304282585805
0.00309610977929
0.0031487719119
0.00320081279285
0.00325220596719
0.00330290146935
0.0033528312964
0.00340184334868
0.00344961513111
0.00349585285331
0.00354028130932
0.00358263651878
0.00362266138822
0.0036601032969
0.00369471350039
0.0037262476666
0.00375446735107
0.00377914225053
0.0038000529029
0.00381699405968
0.00382977819186
0.00383823963561
0.00384223861791
0.003841665875
0.00383644689777
0.00382654666302
0.00381197370366
0.00379278446777
0.00376908666502
0.00374104258477
0.00370887094644
0.00367284823391
0.00363330793311
0.00359063851389
0.00354527842461
0.00349770877365
0.00344844186109
0.00339800613574
0.00334692591138
0.00329569681903
0.00324475650574
0.00319445347426
0.00314501661928
0.00309653143222
0.00304892729626
0.0030019804567
0.00295532978654
0.00290850629676
0.0028611623782
0.0028129112139
0.00276336595488
0.00271218014784
0.00265908305192
0.00260387915057
0.00254645325375
0.00248676723277
0.00242485539166
0.00236081691866
0.00229480669351
0.00222702505256
0.00215770725767
0.00208711323803
0.0020155180369
0.00194320308392
0.00187044866672
0.0017975275608
0.00172470004641
0.0016522101865
0.00158028354019
0.00150912616412
0.0014389250826
0.00136985016604
0.00130205779418
0.00123569680498
0.00117091804435
0.00110765241871
0.00104581760999
0.000985300206463
0.000925955389741
0.000867606989209
0.000810048566675
0.000753046739816
0.000696348420922
0.000639694322038
0.000582841710138
0.00052559974158
0.000467879595364
0.00040975796753
0.000351544482577
0.000293832412789
0.000237504550745
0.000183679575282
0.00013364075998
8.89057848698e-05
5.17635542168e-05
2.57901415709e-05
1.23336453499e-05
9.41785445941e-06
5.53036589397e-05
0.000464700120789
7.71286203214e-05
8.97899939674e-05
0.000109521699815
0.000133258120525
0.000161435019046
0.000195944500641
0.000236202472758
0.000284369269132
0.000342286282816
0.000411252247001
0.00049185072232
0.000583744654822
0.000685599854252
0.000795292389193
0.000910365222117
0.00102849490703
0.00114775696289
0.00126666395515
0.00138407966716
0.00149911246208
0.00161104403605
0.00171929927171
0.00182344492005
0.0019231963704
0.00201842174721
0.00210913476514
0.00219547845346
0.00227769995806
0.00235612297294
0.00243111878833
0.00250308133408
0.0025724050914
0.00263946916907
0.00270462472457
0.00276818786029
0.00283043458506
0.00289159967506
0.0029518761414
0.00301141721481
0.00307033792364
0.00312871826574
0.00318660542296
0.00324401697983
0.00330094294127
0.00335734845432
0.00341317560443
0.0034683464133
0.00352281988203
0.0035762800715
0.00362842948702
0.00367898887835
0.00372769266164
0.00377428493314
0.00381851658383
0.00386014402401
0.00389892905861
0.00393463969263
0.00396705172238
0.00399595070976
0.00402113458415
0.00404241627255
0.00405962689394
0.00407261870705
0.00408126856506
0.00408548086834
0.00408519092664
0.00408036754839
0.00407101587178
0.00405717910987
0.00403894027567
0.00401642243916
0.00398978858458
0.0039592395254
0.0039250109117
0.00388736774393
0.0038465974163
0.00380299980676
0.00375687560978
0.0037085119193
0.00365816693994
0.00360605404323
0.0035523283407
0.00349707729823
0.00344031857255
0.00338200494369
0.00332203561489
0.00326027042684
0.00319654333545
0.00313067762427
0.00306249711343
0.00299227130615
0.00291994850332
0.00284561238143
0.00276936561687
0.00269135816543
0.00261177093933
0.00253081605861
0.00244872975648
0.0023657663985
0.00228219203245
0.00219827766841
0.00211429351286
0.00203050391236
0.00194716286445
0.00186451042108
0.0017827698104
0.00170214542553
0.00162282153972
0.00154496188158
0.00146870989269
0.00139418982276
0.00132150856038
0.00125075847049
0.00118202147427
0.00111537494538
0.00105075431474
0.000988058171025
0.000927161777053
0.000867918171705
0.000810159359376
0.000753698054622
0.000698330894424
0.000643844276655
0.000590024282453
0.000536672387742
0.000483628688182
0.000430803459605
0.00037821564258
0.000326032525572
0.000274599662066
0.000224447357694
0.000176268442276
0.00013089334266
8.93616547608e-05
5.33516095859e-05
2.6269586113e-05
1.15020729829e-05
9.62752270157e-06
8.12422082064e-05
0.000688533792637
0.000149404199769
0.000165270583709
0.000190986974963
0.00022169776428
0.000256342945883
0.00029496219891
0.000338619034183
0.000389774881922
0.000450215901417
0.000521020258001
0.000602508427769
0.000694197835006
0.000794833447154
0.000902566955395
0.00101526896956
0.0011308571975
0.00124752300213
0.00136381584519
0.00147862524711
0.00159111819977
0.00170067810887
0.00180686093883
0.00190937086212
0.00200804534119
0.00210284437838
0.00219383648307
0.00228118234325
0.00236511419233
0.00244591530479
0.00252389880207
0.00259939000205
0.00267271048015
0.00274416690836
0.00281404183585
0.00288258872773
0.0029500280681
0.00301654661817
0.0030822967494
0.0031473979529
0.00321193774688
0.00327597409511
0.00333953688
0.00340263045146
0.00346523509637
0.00352730928061
0.00358879084111
0.00364959885677
0.00370967915621
0.00376888152018
0.00382688142214
0.00388338370682
0.0039381143693
0.00399081406992
0.00404123359119
0.00408913139871
0.00413427265522
0.00417642927056
0.00421538081003
0.00425091575512
0.00428283338091
0.00431094557577
0.00433507917899
0.00435507796384
0.00437080507085
0.00438214483282
0.00438900496487
0.00439131790217
0.00438904237591
0.00438216388431
0.0043706952228
0.00435467564315
0.00433416984784
0.00430926535451
0.00428006947533
0.00424670449991
0.00420930241985
0.00416799800217
0.00412292179979
0.00407419239905
0.00402190998579
0.00396615125439
0.00390696813072
0.003844390402
0.00377843354252
0.00370910971337
0.00363644030386
0.00356046608489
0.00348125351714
0.00339889504274
0.00331350869409
0.0032252378331
0.00313435644529
0.00304147231436
0.0029468345075
0.00285082287196
0.0027537801075
0.00265605847443
0.00255799981102
0.00245993601077
0.00236218618729
0.00226505105131
0.00216881119102
0.00207372571382
0.00198003072918
0.00188793867674
0.00179763797985
0.00170929309726
0.00162304495605
0.001539011858
0.00145729065478
0.00137795836483
0.00130107411824
0.00122668163693
0.0011548123497
0.00108548948862
0.00101864709885
0.000954164950768
0.000891904980078
0.000831713187966
0.000773421572356
0.000716850381982
0.000661811359967
0.000608112778845
0.000555567174883
0.000504002741365
0.000453279234824
0.000403308568226
0.000354078925338
0.000305678894721
0.00025831571619
0.000212321076887
0.000168143627681
0.00012634648477
8.76751345746e-05
5.33807891466e-05
2.63070871716e-05
1.08076903198e-05
1.05465540696e-05
0.000114882885128
0.000943234857744
0.000237413534802
0.000254919578346
0.000284161180129
0.000319493886882
0.000358572547122
0.000399897742259
0.000446021598708
0.000499238781334
0.000561232674269
0.000632965902099
0.000714655615928
0.000805794067127
0.00090523071476
0.00101133864876
0.00112225308768
0.0012361178004
0.00135127263747
0.00146634784719
0.00158027929422
0.00169227565718
0.00180177158409
0.00190838311237
0.00201187430788
0.0021121315543
0.00220914458602
0.00230298840109
0.00239380698808
0.0024817957125
0.00256718555567
0.00265022717011
0.00273117821538
0.00281029160626
0.00288780758584
0.00296394674012
0.00303890642126
0.00311285751495
0.00318594384775
0.00325828128676
0.00332995878866
0.00340103870581
0.00347155855393
0.00354153182958
0.00361094993633
0.00367978308033
0.00374798201072
0.00381547896488
0.00388219011694
0.00394801959557
0.0040130223709
0.00407684624546
0.00413917856122
0.00419973317436
0.00425824279064
0.00431445350853
0.00436812140025
0.00441901062098
0.00446689262321
0.0045115463318
0.00455275867826
0.00459032578406
0.00462405403921
0.00465376169524
0.0046792800389
0.00470045500663
0.00471714813639
0.00472923789528
0.00473662013947
0.00473920887339
0.00473693596405
0.00472975106812
0.00471762037555
0.00470052549655
0.00467846110848
0.00465143276487
0.00461945358906
0.00458254137493
0.00454071505063
0.00449399222081
0.00444238709703
0.00438591072616
0.00432457309151
0.00425838877574
0.004187385267
0.00411161419902
0.00403116296861
0.00394616518341
0.00385680687245
0.00376332764647
0.00366601668406
0.00356520599559
0.00346125940877
0.00335456734688
0.00324551040611
0.00313454914816
0.00302259154181
0.00290997433433
0.00279719350818
0.00268467140346
0.00257280156251
0.00246195655168
0.00235246815014
0.0022446338388
0.00213871861335
0.00203495412186
0.00193354041663
0.00183464752155
0.00173841660578
0.00164496163733
0.00155437130957
0.00146671089649
0.00138202432298
0.00130033633754
0.00122165494089
0.00114597414766
0.00107327746845
0.00100350102984
0.000936505411638
0.000872137299177
0.000810231655964
0.000750614169738
0.000693103939662
0.000637516810655
0.000583669914499
0.000531388005411
0.000480512136421
0.000430911088864
0.000382495471544
0.000335233615336
0.000289167116132
0.000244422852135
0.000201218506317
0.000159862877805
0.000120764964482
8.44978009962e-05
5.20499274534e-05
2.57240498489e-05
1.01238018298e-05
1.23317472906e-05
0.000156518542877
0.0012169175236
0.000332181233665
0.000350669850681
0.000382300220535
0.000421339293444
0.000462714967992
0.000506867391476
0.000555602451811
0.000610903301312
0.000674354432777
0.000746896866089
0.000828768195548
0.000919535989091
0.0010181972174
0.00112333466849
0.00123331469829
0.00134648528517
0.00146133439719
0.00157658257362
0.00169121441057
0.00180446530624
0.00191578811303
0.00202481354537
0.00213131566722
0.00223518233832
0.00233639269908
0.00243499726603
0.0025311020073
0.00262485276882
0.00271642263029
0.00280599939615
0.00289377622102
0.00297994261198
0.00306467863029
0.00314814934366
0.00323050211423
0.00331186372278
0.00339233978412
0.00347201358061
0.00355094669524
0.00362917879859
0.00370672886971
0.0037835954581
0.00385975806683
0.00393517747459
0.0040097967123
0.00408354056094
0.00415631444668
0.00422799996827
0.00429879408728
0.00436837606912
0.00443642263785
0.00450263070086
0.00456671872751
0.00462842238953
0.00468749014374
0.00474368017334
0.00479675856309
0.00484649862514
0.00489268066398
0.00493509248455
0.00497352980232
0.00500779721525
0.00503770874455
0.00506308885886
0.00508377284071
0.00509960759437
0.00511045163579
0.00511617549724
0.0051166612113
0.00511180220412
0.00510150223874
0.00508567481513
0.00506424170829
0.00503713212756
0.00500428129641
0.00496563002707
0.00492112428165
0.00487071637795
0.00481436702917
0.00475204982322
0.00468375730808
0.004609509782
0.00452936533632
0.00444343103896
0.00435187275771
0.00425492251774
0.00415288105787
0.00404611550502
0.00393505200217
0.00382016487749
0.00370196359714
0.00358097897598
0.00345774869493
0.00333281881316
0.00320672407468
0.00307980922149
0.00295320362257
0.00282728352139
0.00270246068816
0.00257919913224
0.0024578572108
0.00233875514566
0.00222217882854
0.00210836835138
0.00199752576976
0.0018898187183
0.00178538047256
0.00168431277441
0.00158668892806
0.00149255597709
0.00140193716067
0.00131483442906
0.00123123099037
0.00115109381732
0.00107437633839
0.00100102315903
0.000930878242141
0.000863772178699
0.000799525671099
0.000737953028497
0.000678865484892
0.000622074731932
0.000567397174829
0.000514659365721
0.000463704955356
0.000414403371174
0.000366660068366
0.000320427747779
0.000275717242692
0.000232606434546
0.000191246105465
0.000151864960032
0.000114785095271
8.04821564564e-05
4.97894543004e-05
2.46026494038e-05
9.42760653068e-06
1.52084013821e-05
0.000206000216014
0.00149711142173
0.000428406455874
0.000447749111116
0.000481056257868
0.0005214684322
0.00056577957711
0.000613424947059
0.000665444749342
0.000723445301483
0.000788888631733
0.000862732893302
0.000945308187398
0.00103632611543
0.00113497063284
0.00124003965696
0.00135011593801
0.00146373503899
0.00157952390673
0.00169628973613
0.00181306045942
0.0019290851804
0.00204381282472
0.0021568598672
0.0022679788373
0.00237702906604
0.00248395365714
0.0025887593616
0.00269150132646
0.00279226898865
0.00289117548157
0.0029883473252
0.00308391715726
0.00317801647949
0.00327077120161
0.00336229696673
0.00345269693511
0.00354205905297
0.00363045538118
0.003717940651
0.00380455252415
0.00389031094184
0.00397521890891
0.00405926235262
0.00414241119265
0.00422461951358
0.00430582670292
0.00438595786751
0.00446492562713
0.0045426336646
0.00461899355006
0.00469418609846
0.00476780418742
0.00483950222772
0.00490897306429
0.00497593482093
0.00504012272866
0.00510128400682
0.00515917461022
0.00521355752176
0.00526420167962
0.00531088181689
0.00535337827331
0.00539147746528
0.00542497196786
0.0054536611653
0.00547735130372
0.00549585608912
0.00550899656875
0.00551660156991
0.00551850738027
0.00551455803527
0.00550460489301
0.00548850692898
0.00546613048287
0.00543734994335
0.00540204820999
0.00536011845543
0.00531146616333
0.00525601294213
0.00519370116871
0.00512450075513
0.00504841693908
0.00496549981288
0.00487585395735
0.00477964797787
0.00467712174788
0.00456859069094
0.00445444539225
0.00433514677848
0.00421121679383
0.004083226113
0.00395177973681
0.00381750231566
0.00368102484139
0.00354297297198
0.00340395182627
0.00326453687275
0.00312532004831
0.00298671268293
0.00284930140499
0.00271396794842
0.00258095288297
0.00245060409228
0.00232326885557
0.00219919897292
0.00207860899097
0.00196168277789
0.00184855906778
0.00173933958457
0.00163409524436
0.00153286673188
0.00143566733693
0.00134248630425
0.00125329185452
0.00116803402171
0.00108664834856
0.00100906195185
0.000935140612829
0.000864693775642
0.000797523416229
0.00073342758614
0.000672203998144
0.000613653644801
0.000557584854187
0.000503818135659
0.000452192040987
0.000402570160305
0.000354849107719
0.000308967113213
0.000264912470498
0.000222731094633
0.000182533097124
0.000144500970568
0.000108908757823
7.61788871647e-05
4.70535732119e-05
2.31493759988e-05
8.76772980654e-06
1.94624223365e-05
0.00026268167365
0.00177198136693
0.000522385042258
0.000541454944664
0.000575136960429
0.000617937167533
0.000666076547556
0.000718112623172
0.00077437509205
0.000836048929505
0.000904433844605
0.000980501948166
0.00106470286378
0.00115692812091
0.00125657448945
0.0013626631616
0.00147398768968
0.00158926073372
0.00170723913338
0.00182680994397
0.00194703726639
0.00206717343745
0.00218664854488
0.00230504640997
0.00242207829954
0.00253755638781
0.00265137212006
0.0027634769555
0.00287386807575
0.00298257542659
0.00308965249086
0.00319516734871
0.00329919669501
0.00340181961728
0.00350311391407
0.00360315188117
0.00370199831381
0.00379970775846
0.0038963236752
0.00399187669912
0.00408638454289
0.00417985094304
0.00427226603022
0.00436360577546
0.0044538326431
0.00454289531311
0.00463072918877
0.00471725568834
0.00480238160147
0.00488599668529
0.00496796936008
0.00504867183546
0.00512772375891
0.00520476190395
0.00527945481018
0.00535149879573
0.00542061097599
0.00548652300456
0.00554897641027
0.00560771974331
0.00566250659184
0.00571309474013
0.00575924543215
0.00580072343341
0.0058372967975
0.00586873731731
0.00589482048028
0.00591532609281
0.00593003832137
0.00593874643655
0.00594124497269
0.0059373346662
0.00592682289469
0.00590952502526
0.00588526544822
0.0058538797233
0.00581521670281
0.0057691420395
0.00571554203052
0.00565432910105
0.00558544788661
0.00550888293607
0.00542466681354
0.00533288908299
0.00523370457354
0.00512734076703
0.00501410248745
0.00489437357295
0.0047686142947
0.00463735494671
0.00450118563337
0.00436074356209
0.00421669868082
0.00406973920759
0.00392055780315
0.00376983895273
0.00361824811315
0.00346642440247
0.0033149724298
0.00316444792768
0.00301539024235
0.00286829426079
0.00272345602258
0.00258151358804
0.00244307873369
0.00230829874548
0.00217740701371
0.00205065218471
0.00192818190854
0.00181010294968
0.00169650075869
0.00158742056541
0.00148287426471
0.00138284689085
0.00128730005546
0.00119617356416
0.00110938959025
0.00102685880513
0.000948486937464
0.000874060316287
0.000803359530971
0.00073616269457
0.000672249353256
0.000611404381462
0.000553422033623
0.00049811047922
0.000445297018048
0.000394834077949
0.000346605891741
0.000300535652354
0.000256592761285
0.000214799960225
0.000175240784645
0.000138069987043
0.0001035348639
7.20290320678e-05
4.42402523297e-05
2.16009667392e-05
8.22834828216e-06
2.54204886522e-05
0.000325405374169
0.00203138330456
0.00060773316218
0.000627600823949
0.000663330899292
0.000709740137045
0.000762725653008
0.000820189510496
0.000881815564948
0.000948347339738
0.00102088096716
0.00110037633755
0.00118739817244
0.00128202659148
0.00138388112815
0.0014922102015
0.00160601535955
0.00172417997262
0.00184558401353