/*--------------------------------*- C++ -*----------------------------------*\
| =========                 |                                                 |
| \\      /  F ield         | OpenFOAM: The Open Source CFD Toolbox           |
|  \\    /   O peration     | Version:  2206                                  |
|   \\  /    A nd           | Website:  www.openfoam.com                      |
|    \\/     M anipulation  |                                                 |
\*---------------------------------------------------------------------------*/
FoamFile
{
    version     2.0;
    format      ascii;
    arch        "LSB;label=64;scalar=64";
    class       volScalarField;
    location    "2/water";
    object      epsilon.gas;
}
// * * * * * * * * * * * * * * * * * * * * * * * * * * * * * * * * * * * * * //

dimensions      [0 2 -3 0 0 0 0];

internalField   nonuniform List<scalar> 
23300
(
0.000109145374202
0.000181204269476
0.000298058432206
0.000450036029275
0.000627748049722
0.000819448464742
0.00101176366775
0.00119135999762
0.00134558716361
0.00145615731761
0.00150662158954
0.00152583893343
0.00164390050244
0.00188677746522
0.00235096971483
0.00313490854967
0.00421772284765
0.00556584501072
0.00714638007106
0.00892475758557
0.0108649760232
0.0129310051271
0.0150884002261
0.0173052812535
0.0195530534317
0.0218064940962
0.024043836016
0.0262463961471
0.0283984218985
0.03048658101
0.0324997907814
0.034428718749
0.0362656807588
0.0380042041525
0.0396390121402
0.0411656544586
0.0425805642473
0.0438807417013
0.0450638587369
0.0461279767867
0.0470716735256
0.0478937760288
0.0485934801005
0.049170070219
0.0496229723196
0.0499513577249
0.0501538805879
0.0502332105574
0.0501929331665
0.0500353810896
0.0497627290158
0.0493772460559
0.0488815310308
0.0482784859622
0.0475714176509
0.0467640035353
0.0458603546565
0.0448650059711
0.0437829500243
0.0426196521747
0.0413810542988
0.0400736096247
0.0387042551064
0.0372804581984
0.0358101561492
0.0343018057053
0.03276428688
0.0312069464787
0.0296394643163
0.0280718823444
0.0265144349836
0.0249775611168
0.0234717116346
0.0220073625204
0.0205948496143
0.0192444633231
0.0179664614237
0.0167714849277
0.0156711499785
0.014679430109
0.0138148964468
0.0131048104324
0.0125914106396
0.012336233082
0.0123689575686
0.0126267596597
0.0130537337423
0.0136156285258
0.0142906148723
0.0150630805963
0.015920195897
0.0168501391962
0.0178411090889
0.0188808787751
0.0199565896543
0.0210547824607
0.0221615144501
0.0232625941847
0.0243438259752
0.0253912904874
0.0263915762669
0.0273319941867
0.0282007119992
0.0289868571445
0.029680540119
0.0302728604855
0.0307558507214
0.0311224246434
0.0313662781962
0.0314817954666
0.0314638591816
0.0313074716271
0.0310065832725
0.0305502583889
0.0299375054501
0.0291689082474
0.0282446242514
0.027164919044
0.0259305824774
0.0245433632269
0.0230064355714
0.0213250201978
0.0195072052414
0.0175651326852
0.0155166914924
0.0133880207062
0.0112171332284
0.00905890655327
0.00699059279076
0.00511333986219
0.00353756019857
0.00233983725628
0.00151492096229
0.000981452944868
0.000639068952502
0.00041178524681
0.000254864371994
0.000146072819367
7.8367854562e-05
5.01007446314e-05
3.66840132347e-05
4.07553668912e-05
4.69938811866e-05
5.56568188924e-05
6.73880586987e-05
8.29673968563e-05
0.000103243015095
0.000129239132384
0.00016383147605
0.000234734870114
0.000464910232455
0.00102647890235
0.0017603886557
0.00252045251217
0.0033481848975
0.00430820515441
0.00543492727936
0.00672721069107
0.00816658252776
0.00972550468642
0.0113723594428
0.01307496797
0.014803061586
0.0165298348216
0.0182327742912
0.0198938960528
0.0214995943118
0.0230402061144
0.0245094501684
0.02590378689
0.0272218063978
0.0284636442414
0.0296304940854
0.0307241855438
0.0317468717285
0.0327007768111
0.033588035118
0.0344105665959
0.035170016426
0.0358677067048
0.0365046287508
0.0370814306723
0.0375984302294
0.0380556158569
0.0384526678403
0.0387889748183
0.039063693354
0.0392768472905
0.0394275643978
0.0395149204788
0.0395379517117
0.0394957049103
0.0393872885733
0.0392119128403
0.0389689311023
0.0386578808755
0.0382785285366
0.0378309174262
0.0373154178367
0.0367327816591
0.0360841956255
0.0353713390378
0.0345964361026
0.0337623112341
0.0328724343392
0.0319309663371
0.0309427896103
0.0299135353347
0.0288495909505
0.0277581016388
0.0266469488789
0.0255247231419
0.0244006767732
0.0232846820596
0.0221871917688
0.0211192461765
0.0200925493936
0.0191196911841
0.0182145669156
0.0173930730117
0.0166740293273
0.0160800069358
0.0156368499225
0.01536873018
0.0152837209123
0.0153638989942
0.0155827162966
0.0159148389541
0.0163380646935
0.0168329404068
0.0173819889536
0.0179690862662
0.0185790700411
0.0191975586755
0.0198109223928
0.0204063651433
0.0209720676186
0.021497359641
0.0219728807805
0.0223907089986
0.0227444300658
0.0230291474767
0.023241424089
0.0233791737706
0.0234415057114
0.0234285470925
0.0233412475036
0.0231811882875
0.0229503951791
0.0226511716772
0.0222859508462
0.0218572015135
0.0213674916706
0.0208201997752
0.0202119846372
0.0195442944026
0.0188177270508
0.0180319885155
0.0171859205
0.0162776017001
0.0153045414484
0.0142640209374
0.0131536514354
0.0119722580571
0.0107212282434
0.00940652182229
0.00804157129024
0.00665121732803
0.00527623305859
0.00397616544569
0.00282493252412
0.001892505097
0.00121473124199
0.000771256331801
0.000497913285524
0.000326425041574
0.000211383690774
0.00013341204162
0.000103355077846
0.000158111418875
2.87809374771e-05
3.14314871342e-05
3.39885229539e-05
3.59761790196e-05
3.76361484147e-05
3.96835546281e-05
4.39516215409e-05
5.9390633278e-05
0.000133575226452
0.000361600414145
0.000813639056543
0.00149472978602
0.00235721919676
0.00330425307684
0.00430780792177
0.00538108367822
0.00653852124705
0.00778283188898
0.0091046219898
0.0104857628315
0.011903394852
0.0133334079309
0.0147530620108
0.0161426882277
0.017486595931
0.0187733273441
0.0199954655441
0.0211491389993
0.0222333886859
0.0232494773548
0.0242002419743
0.0250895073268
0.0259216119718
0.0267010246938
0.0274320744537
0.0281187533597
0.0287646050572
0.0293726547927
0.0299453934876
0.0304847768793
0.0309922557713
0.0314688057468
0.0319149760417
0.0323309340436
0.0327165296043
0.0330713678712
0.0333949229768
0.0336852064737
0.0339398940819
0.0341568623187
0.0343340722687
0.0344695192972
0.0345612240982
0.0346072417379
0.0346056844947
0.0345547523995
0.0344527704528
0.0342982325081
0.0340898488709
0.0338266007614
0.0335077960849
0.0331331317515
0.0327027545944
0.0322173274816
0.0316780907068
0.03108692603
0.0304464120831
0.0297598789414
0.029031449942
0.0282660788539
0.0274695707019
0.0266485949905
0.0258106814676
0.0249642098011
0.0241183889329
0.0232832443385
0.0224696182875
0.0216892062265
0.0209546276717
0.0202795125232
0.0196784898484
0.0191668229676
0.018759179565
0.0184668070433
0.0182931975659
0.0182320946535
0.0182698111072
0.0183895134421
0.0185735999487
0.0188048544749
0.0190669814529
0.0193448490691
0.0196246079089
0.0198937659182
0.020141251586
0.0203574743491
0.0205343761062
0.0206654633371
0.020745807319
0.020772004005
0.0207420899776
0.0206554171712
0.0205124941271
0.0203148044374
0.020064614717
0.0197647831664
0.0194185790639
0.0190295207961
0.0186012400123
0.0181373798856
0.0176415432779
0.0171173257232
0.0165685171785
0.0159996542637
0.015410675253
0.0148021506666
0.0141740766735
0.0135257472653
0.0128556777215
0.0121615794087
0.0114404014561
0.0106884711587
0.00990178254503
0.00907650944373
0.00820984749505
0.00730132326774
0.00635471531926
0.00538064052005
0.00439947355693
0.00344335818135
0.00255487742
0.00178027557611
0.00115886014105
0.000711723632278
0.000428050430451
0.000263288062553
0.000166766471666
0.000111462923821
0.000140568977488
0.000541368664384
4.09105388109e-05
4.94447443481e-05
5.82905090892e-05
6.58722695366e-05
7.40843418823e-05
8.91388787062e-05
0.000132478437395
0.000273251029994
0.00054678792414
0.000968388431747
0.00156554935576
0.00232377213701
0.00322523824231
0.00422563864703
0.0052899686774
0.00640275509874
0.00755905669437
0.00875477002174
0.00998186450852
0.0112277575285
0.0124768307934
0.0137125610637
0.0149194578827
0.0160844414962
0.0171976124119
0.0182524669376
0.0192457178205
0.0201768443601
0.0210475253475
0.0218610304994
0.0226216631354
0.0233342686255
0.02400385134
0.0246352759002
0.0252330698186
0.0258012880377
0.0263434492619
0.0268625039114
0.0273608454419
0.0278403302747
0.0283023220036
0.0287477314913
0.029177071298
0.0295905022007
0.0299878929299
0.030368879331
0.0307329469239
0.0310775621936
0.031400012736
0.0316978114591
0.0319685945148
0.0322100552069
0.0324199150894
0.0325959156526
0.032735827554
0.0328374695216
0.0328987359112
0.0329176312799
0.0328923098599
0.0328211218224
0.0327026620375
0.0325358255658
0.0323198633382
0.0320544438816
0.0317397125408
0.0313763551169
0.0309656557693
0.0305095567515
0.030010708711
0.0294725194475
0.0288991891816
0.0282957402368
0.0276680289444
0.0270227476437
0.0263674051005
0.0257102932607
0.0250604284874
0.0244274705268
0.0238215955272
0.0232532978645
0.0227330479863
0.0222707104812
0.0218745941424
0.0215501003767
0.0212982648796
0.0211150902692
0.0209929596208
0.0209206925208
0.0208857675671
0.020875386915
0.0208771958332
0.0208797488944
0.020872798556
0.0208474574351
0.0207962781367
0.0207132778043
0.0205939208903
0.0204350661803
0.0202348815344
0.0199927292078
0.019709027393
0.0193850938803
0.0190229808793
0.0186253079451
0.0181951020189
0.0177356495754
0.0172503674178
0.0167426946092
0.016216010565
0.015673582464
0.0151185510283
0.0145539684429
0.0139829180332
0.0134087592236
0.0128329155893
0.0122554349606
0.0116759439848
0.0110935692037
0.0105068797043
0.00991385171752
0.00931186984417
0.00869778554861
0.00806806563063
0.0074190823915
0.00674761695103
0.00605166675335
0.00533164202647
0.00459196111082
0.00384282036388
0.00310147083709
0.00239188732317
0.00174206214517
0.00118014215211
0.000732461521295
0.000419409816363
0.000234979188243
0.000138834312191
9.70241429216e-05
0.000211580876032
0.00131428920474
9.81462982675e-05
0.000125100946227
0.000158071049668
0.000194915272025
0.000248700609272
0.000351436816428
0.000556541680028
0.000868182080024
0.00128023578981
0.00180839015566
0.00247056491775
0.00326865977744
0.00418752719864
0.00519770892335
0.0062685391508
0.00737741969213
0.00851010463352
0.00965672809405
0.0108081964477
0.011954512973
0.0130847767328
0.0141880433702
0.0152543942332
0.0162757957591
0.0172466072028
0.0181637073476
0.019026335316
0.019835724931
0.0205946542914
0.0213069658
0.0219771346369
0.0226098921337
0.0232099407278
0.0237817351938
0.0243293462154
0.0248563696274
0.0253658925076
0.0258604800973
0.0263421967439
0.0268126298245
0.0272729328013
0.0277238615588
0.0281658217323
0.0285989060839
0.0290229413072
0.0294375305972
0.0298421136557
0.0302345046697
0.0306118751595
0.0309716331654
0.0313113323634
0.0316286048808
0.0319211252219
0.0321865934543
0.0324227358538
0.0326273157271
0.0327981530342
0.032933151082
0.0330303278852
0.033087854008
0.0331040925273
0.0330776453795
0.0330073996454
0.0328925797916
0.0327327974987
0.0325281063002
0.0322790510186
0.0319867199576
0.0316527885062
0.0312795623853
0.0308700080532
0.0304277781639
0.0299572183894
0.0294633623572
0.0289518995024
0.0284291204427
0.0279018223227
0.0273771745213
0.0268625221851
0.026365120364
0.025891771186
0.0254483594896
0.0250392884104
0.0246668827384
0.0243308969992
0.0240283280854
0.0237536723669
0.0235010088431
0.0232624611612
0.0230299941846
0.0227958818731
0.0225530481611
0.0222953409485
0.0220176642343
0.0217160404672
0.0213876119168
0.0210305989385
0.0206442242048
0.0202286119851
0.0197846693297
0.019313957154
0.0188185571924
0.018300941728
0.0177638497772
0.0172101752001
0.0166428682532
0.0160648541541
0.0154789685846
0.0148879127602
0.0142942278761
0.0137002920555
0.0131083411116
0.012520517551
0.0119389408506
0.0113657123079
0.0108000655829
0.0102414712543
0.00968900244341
0.00914132696854
0.00859669622906
0.00805294965687
0.00750755087468
0.00695767810627
0.00640040268501
0.00583300092087
0.00525345369954
0.00466117783769
0.00405798147499
0.00344910363302
0.00284398614248
0.00225625202905
0.00170257491615
0.00120111310183
0.000771796535618
0.000440067527148
0.000228232684203
0.000121521500438
8.81633742381e-05
0.000326707278002
0.00252890029896
0.000279971865521
0.000346017148131
0.000441261016274
0.000561170680351
0.000725879412519
0.000960838123721
0.00127503767028
0.00166310893574
0.0021429023537
0.00272920718677
0.00343169152957
0.00424986176332
0.00517079899691
0.00617171619336
0.00722675041686
0.00831320439472
0.00941386224953
0.0105160793839
0.0116098789123
0.0126865122208
0.0137378983358
0.0147567142869
0.015736792066
0.0166735086336
0.0175640280643
0.0184073254233
0.0192040382952
0.0199561806381
0.020666805902
0.0213396499564
0.0219788158605
0.0225884981728
0.023172779319
0.0237354726223
0.0242800293091
0.0248094760961
0.0253263971611
0.0258329281302
0.026330777298
0.0268212458443
0.0273052640662
0.0277834195458
0.028255994838
0.0287229947206
0.0291841817311
0.0296391073932
0.0300871613962
0.0305269784578
0.0309556640635
0.0313705813733
0.0317692603696
0.032149331791
0.0325084882092
0.0328444623393
0.0331550217076
0.0334379734428
0.0336911775372
0.0339125670553
0.034100172386
0.0342521514946
0.0343668214073
0.0344426954055
0.0344785191731
0.0344733122368
0.0344264060832
0.0343374866138
0.0342066306885
0.0340343452415
0.0338215973266
0.0335698438927
0.0332810483999
0.032957692792
0.0326027706607
0.0322197691303
0.0318126239365
0.0313856537402
0.030943457197
0.0304907779388
0.0300323225163
0.0295725400664
0.0291153593045
0.0286639088181
0.0282202435893
0.0277851313545
0.0273579384842
0.0269366566573
0.0265180440771
0.0260978908094
0.0256730760708
0.0252401271371
0.0247955708887
0.0243362966365
0.023859873508
0.0233645457166
0.0228492785202
0.0223137289216
0.0217582041036
0.0211835936805
0.0205912871999
0.0199830822706
0.0193610900428
0.0187276431262
0.0180852098455
0.0174363158949
0.0167834767661
0.0161291405647
0.0154756432842
0.0148251753913
0.0141797613044
0.0135412504261
0.0129113213667
0.012291498803
0.0116831863656
0.01108772004
0.0105064539047
0.00993876783896
0.00938392309413
0.00884090187216
0.00830840450937
0.00778484996087
0.00726838553301
0.00675691670434
0.00624817208666
0.00573982462176
0.00522969579552
0.00471607274561
0.00419815818634
0.00367664024592
0.00315429745897
0.00263645394542
0.00213103208135
0.00164807105697
0.0011990868142
0.000797697920551
0.000464441438203
0.000231400205214
0.000110664392882
8.45081083445e-05
0.000496352907402
0.00417099311897
0.000691913972842
0.000805513985239
0.000982547393647
0.00119550954697
0.00144831397555
0.00175794189333
0.00211915390629
0.00255133679762
0.00307101606217
0.00368984809591
0.00441307181535
0.00523766466552
0.00615165550757
0.00713598547038
0.00816860571599
0.00922866570977
0.0102988948463
0.0113659442991
0.0124196168494
0.013451909959
0.0144563764674
0.0154278541415
0.0163624539376
0.0172576208299
0.0181121706266
0.0189262258723
0.019701069788
0.0204389201196
0.0211426817058
0.0218156866243
0.0224614701939
0.0230835727213
0.023685396574
0.0242700932763
0.0248404997474
0.0253990930738
0.0259479802864
0.0264888935763
0.0270232081109
0.0275519561916
0.0280758557276
0.0285953301045
0.0291105370808
0.0296213868885
0.0301275666711
0.0306285565954
0.0311236567778
0.0316124991326
0.0320922479805
0.0325602331758
0.0330139483895
0.0334510099585
0.0338691211185
0.0342660460929
0.0346395986569
0.0349876410065
0.035308090999
0.0355989364242
0.0358582527349
0.0360842263907
0.0362751784741
0.0364295933536
0.0365461451492
0.0366237287338
0.0366614862427
0.0366588372461
0.0366155019946
0.0365315268282
0.0364072998422
0.0362435663715
0.0360414312996
0.0358023577804
0.0355281485239
0.0352209189414
0.0348830479023
0.0345171152998
0.0341258131006
0.0337118406293
0.0332777751592
0.0328259346861
0.0323582348038
0.0318760681733
0.0313802202393
0.0308708497711
0.0303475330868
0.0298093654392
0.0292550886335
0.0286832118446
0.0280921483969
0.0274803165275
0.0268501340417
0.0262011363238
0.0255340735951
0.024849866627
0.0241498607411
0.0234356790369
0.0227092247901
0.0219726177845
0.0212281405976
0.0204781807102
0.0197251701911
0.0189715339427
0.0182196443136
0.0174717808018
0.0167300977709
0.0159965986115
0.015273117689
0.0145613088068
0.0138626413952
0.0131784028211
0.0125097082208
0.0118575169324
0.0112226579697
0.0106058666473
0.0100078375244
0.0094279910648
0.00886541710301
0.00831899614543
0.00778740924993
0.00726914869879
0.00676253365428
0.00626573898291
0.00577684764895
0.00529393975735
0.00481523355214
0.00433929384396
0.00386531524655
0.00339346755523
0.00292525188384
0.00246376915301
0.00201377829302
0.00158149670448
0.00117437639416
0.000801745850544
0.000478662878237
0.0002356880116
0.000103198385163
8.63916898657e-05
0.000729167796624
0.00618011644992
0.00134036786788
0.00148273234843
0.0017134742302
0.00198902471482
0.0022998753149
0.00264638529867
0.00303810021984
0.00349710949088
0.00403944302892
0.00467477759253
0.00540599068459
0.00622875323338
0.00713180387446
0.00809855672375
0.00910990296778
0.0101471560348
0.0111940848509
0.0122376717483
0.0132679506366
0.0142774453904
0.0152606219562
0.0162134948441
0.0171334086496
0.0180189042195
0.0188696222028
0.0196861771306
0.0204700108757
0.0212232074748
0.0219483090946
0.0226481258129
0.0233255771938
0.0239835492329
0.0246247941785
0.0252518477858
0.0258669847846
0.0264721839039
0.0270691212117
0.0276591641305
0.0282433849844
0.028822569144
0.0293972367344
0.0299676558536
0.0305338654544
0.0310956885279
0.0316527522319
0.0322044985851
0.0327502012327
0.033289373982
0.0338206684599
0.034341171848
0.034848235048
0.0353393987996
0.0358123354834
0.0362648083328
0.0366946495523
0.037099751457
0.0374780669301
0.0378276175671
0.0381465049995
0.0384329277378
0.0386851975111
0.0389017602431
0.0390812138561
0.0392223301079
0.0393240709752
0.0393856083106
0.0394063358499
0.0393858833601
0.0393241208661
0.0392211634141
0.0390773635227
0.0388933021627
0.0386697650991
0.038407715787
0.0381082521305
0.0377725591416
0.037401846762
0.0369972871355
0.036559945013
0.0360907200045
0.0355903008637
0.0350591540147
0.03449754712
0.0339056192979
0.0332834798123
0.032631320628
0.0319495075251
0.0312386367347
0.0304995376593
0.0297332690678
0.028941117257
0.0281255409311
0.0272919941994
0.0264427121613
0.0255811035032
0.0247102435103
0.0238332935018
0.0229533211547
0.0220733049321
0.0211961086547
0.0203244310098
0.0194607901046
0.0186075112762
0.0177667134711
0.0169403032145
0.0161299714959
0.015337194232
0.0145632361511
0.0138091589278
0.0130758317307
0.0123639457369
0.0116740315896
0.0110064816634
0.0103615780286
0.00973952923956
0.00913974329074
0.0085611410754
0.00800248344714
0.00746238826047
0.00693934770205
0.00643174851885
0.00593790112418
0.00545608478098
0.00498461700828
0.0045219558251
0.00406684249486
0.00361848633353
0.00317678111899
0.00274252167769
0.00231756763246
0.00190489540816
0.0015085310351
0.00113352762147
0.000786574442903
0.000478897832798
0.000236009628781
9.69629928928e-05
9.46415313501e-05
0.00103111506479
0.00846631514495
0.00213002155645
0.00228710315265
0.00254948360732
0.00286651364891
0.00321715179273
0.00358794615886
0.00400180125897
0.00447931070036
0.00503558230878
0.00567925583738
0.00641228119533
0.00723010297263
0.00812239711385
0.00907456428536
0.0100698701266
0.0110916567047
0.0121250255185
0.0131576839868
0.0141800820784
0.0151851179865
0.0161677177674
0.0171244353078
0.0180531529597
0.0189528508349
0.0198234365985
0.0206655831609
0.0214805826303
0.0222701882393
0.0230364728829
0.023781686018
0.0245081399943
0.0252181045833
0.0259137358272
0.0265970133477
0.0272697082407
0.0279333540657
0.0285892415263
0.0292384103913
0.0298816589115
0.0305195465668
0.0311524099352
0.0317803700265
0.0324033495759
0.0330210810763
0.0336331224054
0.0342388653017
0.0348375573275
0.0354283380561
0.0360117006958
0.0365844840452
0.0371438818899
0.0376873259902
0.0382124173091
0.0387168770176
0.039198515817
0.0396552169574
0.040084929194
0.0404856683506
0.0408555221214
0.0411926606856
0.0414953463936
0.0417619480613
0.0419909515075
0.0421809740436
0.0423307730186
0.0424392577363
0.0425054935832
0.0425287088464
0.0425082921476
0.042443791795
0.0423349045026
0.0421814654087
0.0419834269503
0.041740839207
0.0414538202175
0.0411225299665
0.0407471386352
0.0403278045481
0.0398646555835
0.0393577912257
0.0388073014017
0.0382133173024
0.0375760859045
0.0368960708425
0.0361740566522
0.0354112425387
0.0346092981071
0.0337703737995
0.0328970648431
0.0319923508483
0.0310594969867
0.0301020069822
0.0291232965453
0.0281274990555
0.0271227629771
0.0261121105484
0.025099993006
0.0240902005269
0.0230862650724
0.0220915302874
0.021108973694
0.0201412650153
0.0191907824435
0.0182596048815
0.017349527662
0.0164620766153
0.015598518602
0.0147598763561
0.0139469457756
0.0131603125746
0.0124003708666
0.0116673426673
0.0109612996965
0.0102821881686
0.00962986006985
0.00900374203533
0.00840258268068
0.0078250059506
0.00726953059781
0.00673459214032
0.00621856697566
0.00571980230189
0.00523665686867
0.00476755783117
0.00431107861114
0.00386604146446
0.00343164400778
0.00300760185768
0.00259428811448
0.00219284120404
0.0018052144274
0.00143417872608
0.00108340411019
0.000758032319847
0.000466932799594
0.000230764333772
9.08220628021e-05
0.000110665168645
0.00140482366396
0.0109229006404
0.00298033492385
0.003146236216
0.00343005636268
0.00378034991787
0.00415160386425
0.00454777107295
0.00498506004139
0.00548126945481
0.00605061997495
0.0067015574822
0.0074362151572
0.00825071321162
0.00913605110393
0.0100795111571
0.0110664331637
0.0120819917797
0.0131126177836
0.0141468289789
0.0151755127945
0.0161918073728
0.0171908023182
0.0181691834132
0.0191249229045
0.0200570142977
0.0209652703013
0.0218501442058
0.0227125869639
0.0235539074264
0.0243756588582
0.0251795266751
0.0259672443022
0.0267405124235
0.0275009469378
0.0282500291729
0.028989081543
0.0297192417418
0.0304414574972
0.0311564761035
0.0318648501064
0.0325669353906
0.0332629021415
0.0339527371944
0.0346362564531
0.0353131077758
0.0359827797467
0.0366445971616
0.0372977111215
0.0379410588269
0.0385764080444
0.0392008800369
0.0398115731111
0.0404057668876
0.0409809345275
0.0415347035949
0.0420648164166
0.042569102619
0.0430454627562
0.043491862252
0.0439063292953
0.0442869593964
0.0446319190713
0.0449394545632
0.0452078966985
0.0454356700794
0.0456212963734
0.0457634015672
0.0458607158745
0.0459120773735
0.045916427372
0.0458728094568
0.0457803600043
0.0456383028049
0.0454459359348
0.0452026242205
0.0449077864828
0.044560891729
0.0441614552017
0.0437090492101
0.0432033214217
0.0426440350698
0.0420311235521
0.041364769324
0.0406454940128
0.0398742587869
0.0390525525016
0.0381824577339
0.0372666737157
0.036308495467
0.0353117476367
0.0342806873059
0.0332198868569
0.0321341102924
0.0310281832847
0.0299070065129
0.0287753792777
0.0276363956675
0.026500191358
0.0253701430025
0.0242499462155
0.0231437653069
0.0220548163583
0.0209859733107
0.0199398019141
0.0189184568216
0.0179237513236
0.0169571897883
0.0160199682104
0.0151129995639
0.014236941596
0.0133922163633
0.0125790322824
0.0117974067093
0.0110471888
0.0103280820154
0.00963966826242
0.00898145026037
0.00835202746984
0.00774987931783
0.00717339652937
0.00662091246607
0.00609073290409
0.00558116773718
0.00509056916867
0.0046173804691
0.0041601983592
0.00371785088504
0.00328948940928
0.00287468927833
0.00247354751746
0.00208676283498
0.00171568813122
0.00136237553641
0.00102971516974
0.00072197479166
0.000446630969486
0.0002206905928
8.45715574237e-05
0.000136484858737
0.00184895674413
0.0134379364277
0.00384373773407
0.00401730470227
0.00431617474422
0.0046787935687
0.00507639263073
0.00550390694119
0.00597067414111
0.00649111160606
0.00707834129853
0.00774096297263
0.00848193993106
0.00929868482178
0.0101838749706
0.0111267231786
0.0121145111305
0.0131340968959
0.0141731585182
0.015220991545
0.0162688724138
0.017310062379
0.0183396159256
0.019354091163
0.0203512671864
0.021329881564
0.0222894236655
0.0232299540573
0.024151967626
0.0250562669874
0.0259438674095
0.0268159042885
0.0276735679084
0.0285180383451
0.029350445472
0.0301718270102
0.0309831086392
0.0317850794874
0.0325783861099
0.0333635195279
0.034140817567
0.034910459014
0.0356724706602
0.03642672603
0.0371729549918
0.0379107452996
0.0386395528149
0.0393587052359
0.0400674182095
0.0407648270538
0.0414501381987
0.0421249744346
0.0427856814288
0.0434291573537
0.0440526453489
0.0446536154523
0.0452296912591
0.0457786039663
0.0462981631841
0.0467862416036
0.0472407653732
0.0476597126548
0.0480411119376
0.0483830462553
0.048683653923
0.048941134378
0.0491537486517
0.049319824741
0.049437756541
0.0495060077901
0.0495231091956
0.0494876610226
0.0493983292711
0.0492538483323
0.0490530187071
0.048794713164
0.0484778808737
0.048101563237
0.0476649121629
0.0471672243079
0.046607982739
0.0459869176737
0.0453040763828
0.0445599087178
0.0437553535576
0.0428919243955
0.0419717743334
0.0409977345155
0.0399733106296
0.0389026396527
0.0377904061618
0.0366417320621
0.035462047316
0.0342569582205
0.0330321279279
0.031793171721
0.0305455206753
0.0292943394926
0.0280449407781
0.0268010163332
0.0255678309633
0.0243532979671
0.0231595764097
0.02198978849
0.0208470508585
0.0197336232736
0.0186514311989
0.017602124703
0.0165869487241
0.0156068160438
0.014662362943
0.013753954379
0.0128817094346
0.0120455313916
0.0112451348475
0.0104800711828
0.00974976170787
0.00905355218963
0.00839023782535
0.00775810819979
0.0071553859328
0.00658025843865
0.00603091010671
0.0055055547754
0.005002472128
0.00452005117726
0.00405684286143
0.00361162282326
0.00318346306957
0.00277180907057
0.00237655556494
0.00199811437301
0.00163747338645
0.00129626998733
0.000976963005221
0.000683342585392
0.000422067835882
0.000207641582892
7.86480861489e-05
0.000174666747574
0.00235771399874
0.0159051871873
0.0046869877712
0.00485810852783
0.0051603450895
0.00554439663182
0.00597635246071
0.0064432706323
0.00694811276633
0.00750151536592
0.00811514399996
0.00879772385991
0.00955329092071
0.0103808725066
0.0112750557088
0.0122270569732
0.0132260497261
0.0142604813413
0.0153191955784
0.0163922047233
0.0174711098657
0.0185492013476
0.0196213646703
0.0206838649698
0.0217341110965
0.0227704174633
0.0237918098686
0.0247978526835
0.0257885205884
0.0267640822863
0.0277250176893
0.0286719376944
0.029605530489
0.0305265057151
0.0314355614283
0.0323333462835
0.0332204416086
0.0340973367419
0.0349644215193
0.0358219706703
0.0366701429511
0.0375089716832
0.0383383680864
0.039158116301
0.039967879259
0.0407671961821
0.0415554871494
0.0423320467287
0.0430960382068
0.0438464720093
0.0445821670268
0.0453064639669
0.0460159489585
0.0467073616538
0.047377727018
0.0480243193468
0.0486445996143
0.0492361592859
0.0497966784698
0.0503239002964
0.0508156131197
0.0512696429587
0.0516838468896
0.0520561136007
0.0523843612975
0.0526665417551
0.052900639915
0.0530846794943
0.0532167233511
0.0532948801709
0.0533173058923
0.0532822121399
0.0531878701566
0.0530326229176
0.0528148943974
0.0525332088462
0.0521862098333
0.0517726917441
0.0512916342671
0.0507422516215
0.0501240471329
0.0494368823774
0.0486810498806
0.0478573537615
0.0469671838972
0.0460125822294
0.0449962848367
0.0439217369434
0.0427930697414
0.0416150428627
0.0403929527133
0.0391325184302
0.0378397529708
0.0365208332442
0.0351819760145
0.0338293246554
0.0324688516997
0.0311062932542
0.0297470758083
0.0283961871252
0.0270584677455
0.0257383593039
0.0244385187827
0.0231646725465
0.0219223110595
0.0207127561279
0.01953810233
0.0184005810609
0.0173015172794
0.0162418690372
0.015222403078
0.0142435250926
0.0133053416004
0.012407718054
0.0115503096903
0.010732576041
0.00995381839665
0.00921323485221
0.00850997906098
0.00784213312385
0.00720772767198
0.00660477112778
0.00603128479632
0.00548533782003
0.00496508353888
0.00446880018663
0.00399493769085
0.00354217149309
0.00310946246356
0.00269612110518
0.00230187259299
0.00192692076129
0.00157201497303
0.00123854362359
0.000928725458606
0.000646091997167
0.000396813642444
0.000193741270665
7.38069735497e-05
0.000228142875882
0.00292070561099
0.018233597372
0.00545279590052
0.00563107671793
0.00595169444424
0.00636813577587
0.00684358318836
0.00735921236843
0.00791218907793
0.00850918834416
0.00916004904204
0.00987338689929
0.0106542709297
0.0115034209584
0.0124174232074
0.0133895332919
0.0144107912256
0.0154711763789
0.0165606375547
0.0176698491614
0.0187906806016
0.0199163811372
0.0210415775679
0.0221621367417
0.0232749872246
0.0243779184565
0.0254694099087
0.0265484727005
0.0276145319889
0.0286673193624
0.0297067982347
0.0307330908094
0.0317464306677
0.0327471115253
0.0337354572811
0.0347117854916
0.0356763893839
0.0366295118378
0.037571335694
0.0385019653155
0.0394214225269
0.0403296337911
0.0412264301169
0.0421115388935
0.0429845869068
0.0438450960175
0.0446924874057
0.0455260777343
0.0463450788704
0.0471485860527
0.0479355675686
0.0487063893606
0.0494628391662
0.0502008498923
0.0509169729318
0.0516081727857
0.0522716836188
0.0529049125341
0.0535053745492
0.0540706523098
0.0545983682839
0.05508617039
0.0555317205276
0.0559326918942
0.0562867649023
0.0565916304339
0.0568449898468
0.0570445621168
0.0571880871061
0.0572733363081
0.057298119894
0.0572603019247
0.0571578127179
0.0569886704053
0.0567510011332
0.056443069787
0.0560633113173
0.0556103739426
0.0550831647773
0.0544809077551
0.053803204181
0.05305010308
0.0522221702902
0.051320559403
0.0503470714682
0.0493042027592
0.0481951675264
0.0470238950366
0.0457949930611
0.0445136823516
0.0431857028783
0.0418172018998
0.0404146102204
0.0389845172891
0.037533551064
0.036068269166
0.0345950645693
0.033120086525
0.0316491743323
0.030187816269
0.0287411368399
0.0273138197104
0.0259100618942
0.0245339634767
0.0231889684807
0.0218769351382
0.0206019101209
0.0193689265268
0.0181783124595
0.0170308824882
0.0159280978903
0.0148704373536
0.0138579958115
0.0128906733351
0.0119681682197