/*--------------------------------*- C++ -*----------------------------------*\
| =========                 |                                                 |
| \\      /  F ield         | OpenFOAM: The Open Source CFD Toolbox           |
|  \\    /   O peration     | Version:  2206                                  |
|   \\  /    A nd           | Website:  www.openfoam.com                      |
|    \\/     M anipulation  |                                                 |
\*---------------------------------------------------------------------------*/
FoamFile
{
    version     2.0;
    format      ascii;
    arch        "LSB;label=64;scalar=64";
    class       volScalarField;
    location    "2/water";
    object      k.gas;
}
// * * * * * * * * * * * * * * * * * * * * * * * * * * * * * * * * * * * * * //

dimensions      [0 2 -2 0 0 0 0];

internalField   nonuniform List<scalar> 
23300
(
7.2220382244e-05
9.15539335561e-05
0.000120577827059
0.000155758235561
0.000195120969597
0.000237057822993
0.0002800409393
0.000322595451363
0.000363176389173
0.000400013052801
0.00045278647661
0.000698678269561
0.00127619462766
0.00187005055307
0.0024272457009
0.00297674900523
0.00353617129712
0.00410619099552
0.00467976999134
0.00524845717995
0.00580456310038
0.00634191395793
0.00685607280474
0.00734429087136
0.00780532814119
0.00823919367937
0.00864686783358
0.00903001674362
0.00939074015201
0.00973134590895
0.0100541796955
0.0103614904534
0.0106553503114
0.0109376009474
0.011209840422
0.0114734200418
0.0117294656854
0.0119788953289
0.0122224498841
0.0124607126257
0.0126941364445
0.0129230571027
0.013147712169
0.0133682456565
0.0135847166788
0.0137970924356
0.0140052386925
0.0142090846518
0.0144085354566
0.0146034082496
0.0147934705998
0.014978451648
0.0151580492495
0.0153319293142
0.0154997280584
0.0156610511589
0.0158154760644
0.0159625530242
0.0161018084269
0.016232748162
0.016354862387
0.0164676314626
0.0165705324745
0.0166630478903
0.0167446740375
0.0168149324082
0.0168733799679
0.0169196225635
0.0169533263125
0.0169742317787
0.0169821647713
0.0169770490057
0.0169589138354
0.0169279026816
0.0168842753901
0.0168284106162
0.0167608019916
0.0166820541656
0.0165928722025
0.0164940477614
0.0163864310817
0.016270881975
0.016148169393
0.0160187356551
0.0158820549909
0.0157360468567
0.0155789075633
0.0154094332633
0.0152268499587
0.0150307143394
0.0148208687557
0.0145974202475
0.0143607248501
0.0141113698027
0.0138501499115
0.0135780372406
0.0132961451092
0.0130056867007
0.0127079315507
0.01240416032
0.0120956225632
0.0117834972178
0.0114688604449
0.0111526588315
0.0108356912503
0.0105185956511
0.0102018426427
0.00988573113207
0.00957038647711
0.00925575508722
0.0089415919638
0.00862742681797
0.00831248212218
0.00799547089469
0.00767548556606
0.00735150457707
0.00702224145886
0.00668614066712
0.00634137106395
0.00598582634323
0.00561714698758
0.00523278761515
0.00483016794556
0.00440696618188
0.00396164225011
0.00349431582882
0.00300815684689
0.00251141715745
0.00201992491942
0.00155871017645
0.00115885930362
0.000844942899111
0.000619341016814
0.000462464922018
0.000349282379154
0.00026175202232
0.000190521959527
0.000133278079259
9.48833190692e-05
8.15863784843e-05
3.99818226946e-05
4.15315959556e-05
4.38359635395e-05
4.69500130928e-05
5.11294696591e-05
5.67319522309e-05
6.42152886497e-05
7.43202909439e-05
9.02457086006e-05
0.000136133137846
0.000321654413
0.000781079771918
0.00139255296333
0.00201703017222
0.00261595052433
0.00319167705032
0.00375766665835
0.00431727760889
0.00486809042801
0.00540541033657
0.00592427894126
0.00642051046166
0.006891151739
0.00733459581499
0.00775050172232
0.0081396016687
0.00850346265249
0.0088442323851
0.00916440507943
0.00946661441162
0.00975347220689
0.0100274458241
0.0102907816471
0.0105454592654
0.0107931786549
0.011035362788
0.0112731781457
0.0115075575923
0.0117392305973
0.0119687484426
0.0121965116573
0.0124227898491
0.0126477422425
0.0128714308851
0.0130938353277
0.0133148630491
0.0135343662577
0.0137519655803
0.0139672064888
0.014179646864
0.0143888364498
0.014594305433
0.0147955598903
0.0149920782937
0.0151833109992
0.0153686800084
0.0155475805791
0.0157193834388
0.0158834382592
0.0160390782718
0.0161856257338
0.0163223990758
0.0164487205603
0.0165639260635
0.0166673750109
0.0167584626708
0.0168366321143
0.0169013884172
0.0169523117526
0.0169890720962
0.01701144161
0.0170193074253
0.0170126805116
0.0169917033922
0.0169566523968
0.0169079373599
0.0168460945816
0.0167717753694
0.0166857243949
0.0165887457433
0.0164816433628
0.0163651222545
0.0162396287207
0.016105127363
0.0159610166537
0.0158062379187
0.0156394754714
0.015459593155
0.0152657033506
0.0150571839251
0.0148336823563
0.0145951155063
0.0143416648389
0.0140737659021
0.0137920911208
0.0134975255071
0.0131911359894
0.0128741347358
0.0125478387443
0.0122136268763
0.0118728977483
0.0115270296578
0.0111773456923
0.0108250840004
0.0104713750569
0.0101172244513
0.00976350174816
0.00941093308612
0.00906009733408
0.0087114234838
0.00836518967542
0.00802152504582
0.00768042573567
0.00734182205781
0.0070051336688
0.00666978439893
0.00633497503042
0.00599966256726
0.00566254062233
0.00532202607441
0.00497626263309
0.00462315938494
0.00426049197477
0.00388610766112
0.00349829120173
0.00309636629632
0.00268161572927
0.00225857391736
0.00183658746062
0.00143107501657
0.00106303922246
0.000754783735945
0.000521215966567
0.000360793462836
0.000255834653017
0.000184700262542
0.00013255284069
9.4025029944e-05
7.56026777451e-05
9.95666682803e-05
3.36801174009e-05
3.63527341385e-05
3.93042694122e-05
4.20026980325e-05
4.46074744846e-05
4.7886126256e-05
5.43028695649e-05
7.59945535804e-05
0.000163419320426
0.000380348654184
0.000738506058913
0.00122160284584
0.00179604381813
0.00239663948254
0.0029901415319
0.00356805802329
0.00413052978018
0.0046780500479
0.00520947609397
0.00572240979734
0.00621407552253
0.00668204147751
0.00712465636514
0.00754122642554
0.00793201123532
0.00829809923167
0.0086412258952
0.00896356779492
0.00926754883406
0.00955566831473
0.00983036805834
0.0100939327409
0.0103484294011
0.0105956725811
0.0108372168048
0.0110743614405
0.0113081701231
0.0115394917926
0.0117689876909
0.0119971541058
0.0122243469874
0.0124508003674
0.0126766455183
0.0129019244119
0.0131266048739
0.0133505930348
0.013573751048
0.0137955877259
0.0140155434453
0.0142330858708
0.0144476890442
0.0146588183605
0.014865922493
0.015068428071
0.0152657377832
0.0154572297404
0.0156422586234
0.0158201579411
0.0159902433199
0.0161518172098
0.0163041741819
0.0164466080398
0.0165784191937
0.0166989241815
0.0168074651203
0.0169034214606
0.0169862212195
0.0170553543613
0.017110384936
0.0171509647404
0.0171768445849
0.0171878858673
0.0171840681112
0.0171654950511
0.0171323946811
0.0170851156639
0.0170241151918
0.0169499398014
0.0168631927423
0.0167644866531
0.0166543727225
0.0165332457006
0.0164012286872
0.0162580694091
0.016103106127
0.0159357959665
0.0157553636893
0.0155610006711
0.0153520539783
0.0151280794664
0.0148888692772
0.0146344650104
0.0143651586216
0.0140814831155
0.013784194344
0.0134742453717
0.0131527547408
0.0128209699454
0.0124802282323
0.0121319163504
0.0117774319491
0.0114181478552
0.0110553814223
0.0106903689783
0.0103242464973
0.00995803536703
0.00959263354509
0.00922881041803
0.0088672054185
0.00850832901755
0.00815256696955
0.0078001885592
0.0074513633976
0.00710619262394
0.00676450286445
0.00642587631957
0.00608973792791
0.00575533525092
0.0054217220124
0.0050877470582
0.00475205509094
0.00441311037792
0.00406926088996
0.00371886864769
0.00336054122451
0.00299350844035
0.00261818886844
0.00223696615997
0.00185510424912
0.00148152808638
0.00112893636743
0.000812775397752
0.000549287712624
0.000352030536574
0.000223146105636
0.00014694450652
0.000101317071369
7.3464927242e-05
7.36401604593e-05
0.000171592744219
4.70829642323e-05
5.57464013669e-05
6.59256648547e-05
7.63002876156e-05
8.91880137989e-05
0.000112603568105
0.000172005468994
0.000324820259645
0.000568903458814
0.000895316664529
0.00130928962613
0.00179466840029
0.00233668168148
0.0029067558559
0.00348101014537
0.00404623025356
0.00459672823089
0.00513008337563
0.00564469863511
0.00613898572882
0.00661137889861
0.00706059945906
0.00748590255599
0.00788720666304
0.0082651081164
0.00862080200293
0.00895595322475
0.00927254239872
0.00957271874622
0.00985866775963
0.0101325097123
0.0103962231603
0.010651599603
0.0109002170202
0.0111434350853
0.0113823989069
0.0116180545966
0.0118511652749
0.0120823324331
0.0123120134494
0.0125405413681
0.012768139452
0.0129949370391
0.013220980581
0.0134462465194
0.0136706514193
0.0138940657457
0.0141160590147
0.014336046467
0.0145534687661
0.0147677761143
0.014978414956
0.0151848200436
0.0153864090804
0.0155825806181
0.0157727134611
0.0159561677552
0.0161322873363
0.0163004029231
0.016459836755
0.016609907562
0.0167499372785
0.0168792576997
0.0169972191399
0.0171031986534
0.0171966103645
0.0172769148836
0.017343630673
0.0173963437939
0.0174347190331
0.0174585083248
0.0174675594303
0.0174618203279
0.0174413421225
0.0174062755486
0.0173568636124
0.0172934250634
0.0172163307151
0.0171259669274
0.0170226882431
0.016906755926
0.01677827135
0.0166371159559
0.0164829254209
0.0163151140351
0.0161329567797
0.0159364170922
0.015725097159
0.0154987274048
0.015257220093
0.0150006868818
0.0147294456979
0.0144440192595
0.0141451239935
0.0138336508761
0.0135106402788
0.0131772522832
0.0128347340034
0.0124843858412
0.0121275281639
0.011765470445
0.0113994836521
0.0110307773074
0.0106604808821
0.0102896302227
0.00991915786923
0.00954988752381
0.00918253121451
0.0088176893459
0.00845585231408
0.00809740410113
0.00774262688824
0.00739170688438
0.00704473815201
0.00670169872722
0.00636226847695
0.00602600423674
0.00569232913091
0.00536052433169
0.00502972463964
0.00469892207257
0.0043669844698
0.0040327002077
0.00369486507647
0.00335243287375
0.00300475583602
0.00265193874267
0.00229531133716
0.00193796888369
0.00158523409581
0.0012448123881
0.000926552371573
0.000642322335912
0.00040696301966
0.000237074501597
0.000136380950974
8.51415026106e-05
6.15831219671e-05
8.20053460464e-05
0.000282997871457
0.000110704294122
0.000137199699236
0.000173103319478
0.000217647232998
0.000283804395577
0.000397655327824
0.000587410729607
0.000838619024929
0.00114310135718
0.00150507193226
0.00192776044104
0.00240590477448
0.00292700957988
0.00347303242069
0.0040266551803
0.00457541329252
0.00511187602944
0.00563197800267
0.00613340775834
0.0066146649187
0.00707469620911
0.00751283911346
0.0079288736676
0.00832306319266
0.00869614996193
0.00904929625873
0.00938399393393
0.00970195402354
0.0100050012021
0.010294976763
0.0105736645154
0.0108427334424
0.0111037039832
0.0113579269281
0.0116065791598
0.0118506646674
0.0120910253306
0.012328351287
0.0125631963985
0.0127959903136
0.0130270532938
0.0132566066651
0.0134847851519
0.0137116451378
0.0139371750242
0.0141613031303
0.0143839090042
0.0146047197537
0.0148231452999
0.0150386199896
0.0152505891587
0.0154584976524
0.0156617828016
0.0158598696765
0.0160521692556
0.016238078124
0.0164169796655
0.0165882465386
0.0167512437779
0.0169053332805
0.0170498783397
0.0171842497716
0.0173078316323
0.0174200287027
0.017520273126
0.017608032858
0.0176828187602
0.0177441933242
0.0177917773505
0.0178252577381
0.0178443922385
0.0178490143488
0.0178390337835
0.0178144356129
0.0177752732033
0.0177216579344
0.0176537407458
0.0175716885941
0.0174756516209
0.017365725825
0.017241911282
0.0171040776745
0.0169519466872
0.0167851074775
0.0166030649959
0.0164053029895
0.0161913492192
0.0159617354321
0.0157165957957
0.015456242576
0.0151811614097
0.0148919924526
0.0145895276093
0.0142746916027
0.0139485222794
0.0136121473429
0.0132667593062
0.0129135893878
0.0125538818073
0.0121888693568
0.011819751674
0.0114476765468
0.0110737250711
0.0106989000128
0.0103241178336
0.00995020324957
0.00957788660326
0.00920780276183
0.0088404918209
0.00847640033792
0.00811588335147
0.00775920584751
0.00740654349796
0.00705798055464
0.00671350539307
0.00637288766214
0.00603577251056
0.00570169891109
0.00537009768358
0.00504029234379
0.00471150573649
0.00438287711745
0.00405349708304
0.00372247049359
0.00338902062046
0.00305264942822
0.00271336549548
0.00237197694224
0.0020304139917
0.00169199840864
0.00136155241277
0.00104534515933
0.000751268929839
0.000490409922334
0.000281132615851
0.000144845404573
7.7822249091e-05
5.38984228041e-05
9.88755072635e-05
0.000424051138489
0.000300946757714
0.00036014311562
0.000450709295005
0.000567571161296
0.00071921102255
0.000914810800301
0.00115489131025
0.00143438405038
0.00175980195755
0.00213472867767
0.0025593570648
0.00302890871946
0.00353355833449
0.00406018144032
0.00459553057423
0.00512880261627
0.00565246223453
0.00616176096644
0.00665385678749
0.00712707643313
0.00758047314639
0.00801361378441
0.00842649763634
0.00881951688541
0.0091934209699
0.00954926049204
0.00988831931986
0.0102120348025
0.010521923376
0.0108195106249
0.0111062781931
0.0113836208379
0.0116528210685
0.0119150314107
0.0121712697755
0.0124224176179
0.0126692263594
0.0129123228008
0.0131522195034
0.0133893221513
0.0136239401056
0.0138562932613
0.01408652124
0.0143146890644
0.0145407951394
0.0147647772136
0.0149865222977
0.0152059686271
0.0154225303508
0.0156356459146
0.0158447652229
0.0160493402703
0.0162488194985
0.0164426438984
0.0166302455173
0.0168110473978
0.01698446479
0.0171499076286
0.0173067834073
0.0174545013509
0.0175924763478
0.0177201343035
0.0178369167374
0.0179422868983
0.0180357346372
0.0181167827875
0.0181849917718
0.0182399655233
0.0182813549832
0.0183088624632
0.0183222427439
0.0183213042834
0.0183059061125
0.0182759538336
0.0182313901888
0.0181721837558
0.0180983115361
0.018009739597
0.017906398896
0.0177881625808
0.0176548257049
0.0175060980793
0.0173416150829
0.0171609746528
0.0169637923099
0.016749761287
0.0165186911092
0.0162705351543
0.0160061274357
0.0157263602054
0.0154320739836
0.0151241977664
0.014803782384
0.0144719538824
0.0141298975092
0.0137788319278
0.0134199894761
0.0130545964937
0.0126838555069
0.0123089291379
0.011930926578
0.0115508927895
0.0111698006887
0.0107885454133
0.0104079410584
0.0100287187612
0.00965152646488
0.00927692922963
0.008905410461
0.00853737288883
0.00817313960858
0.00781295390683
0.00745697779421
0.00710528731499
0.00675786281118
0.00641454429029
0.00607503517661
0.00573895308178
0.0054058308854
0.0050751204065
0.00474620082344
0.00441839496726
0.00409099850029
0.00376332836581
0.003434798487
0.00310503075945
0.0027740059605
0.00244224930494
0.00211102614999
0.00178250014487
0.00145980133222
0.00114702280855
0.000849410419452
0.000574621262952
0.000337264958902
0.000165395814633
7.64972735576e-05
4.91417750508e-05
0.000124388195926
0.000587039498093
0.000681103679288
0.000767694490876
0.000906891799047
0.00107700512513
0.00127492032037
0.00150570009337
0.001763479389
0.00205681837591
0.00239161705144
0.00277049366211
0.00319253872387
0.00365307163654
0.00414395733481
0.00465485467612
0.00517511466579
0.00569545281394
0.0062087718375
0.0067101591942
0.007196459218
0.00766576936936
0.00811704572252
0.00854984366763
0.00896416875532
0.00936038385457
0.00973914590082
0.0101013449683
0.0104480471404
0.0107804332933
0.011099745281
0.011407234598
0.0117041239938
0.0119915746213
0.0122706664439
0.0125423826507
0.0128076044464
0.0130671068198
0.0133215614735
0.0135715383118
0.0138175117981
0.0140598645889
0.0142988946779
0.0145348193616
0.0147677818349
0.0149978545192
0.0152250442881
0.0154492946134
0.0156704892089
0.0158887801159
0.0161036334089
0.0163145046789
0.0165208533722
0.0167221425282
0.0169178361487
0.0171073960773
0.0172902804632
0.0174659435731
0.0176338367175
0.0177934104577
0.0179441170132
0.0180854138927
0.0182167670231
0.0183376551471
0.0184475731553
0.018546036725
0.018632585384
0.0187067868387
0.0187682392099
0.0188165743603
0.0188514585644
0.018872593935
0.0188797165641
0.0188725949478
0.0188510245012
0.0188148219041
0.0187638151804
0.0186978335936
0.0186166938226
0.0185201872952
0.0184080665711
0.0182800373501
0.0181357564972
0.017974844437
0.0177969126135
0.0176016094092
0.0173886749394
0.017157993772
0.0169096300865
0.0166438374488
0.0163610577264
0.0160618505761
0.0157483244563
0.0154214473294
0.0150825362908
0.0147328868916
0.0143738284304
0.014006671135
0.0136327010276
0.0132531612278
0.01286924115
0.0124820671352
0.0120926943888
0.0117021023412
0.0113111922702
0.0109207860561
0.0105316265925
0.0101443786603
0.00975963062368
0.0093778959997
0.00899961532451
0.00862515725362
0.00825481931516
0.00788882717933
0.00752733253415
0.00717040796222
0.00681803764028
0.0064701144732
0.00612638140142
0.0057865096151
0.00545010175016
0.00511669729928
0.00478578197323
0.00445680319143
0.00412919517916
0.00380241765953
0.00347601287164
0.00314968497848
0.00282340304179
0.00249752207197
0.00217290551509
0.00185102147508
0.00153398740019
0.0012245869776
0.000926441495271
0.000644948079453
0.000390860767695
0.000190713840336
7.87806863828e-05
4.67624524149e-05
0.000158723260554
0.000764941414201
0.00119951227853
0.00129464448622
0.00145430412138
0.00165119972028
0.00187477718114
0.00212013506056
0.00238890266425
0.0026898336544
0.00302848933839
0.00340705755893
0.003824378556
0.00427614465877
0.00475542996448
0.00525367706479
0.00576198580896
0.00627228003742
0.0067780103414
0.00727432873689
0.00775791220402
0.00822664062511
0.00867928393966
0.00911525274496
0.00953442678246
0.00993703504764
0.010323574574
0.0106947435818
0.0110513884956
0.0113944527987
0.011724935552
0.0120438517553
0.0123522034733
0.0126509535934
0.0129410099833
0.0132232111991
0.0134983206678
0.0137670205775
0.0140299121259
0.014287514015
0.0145402657284
0.0147885283115
0.0150325889201
0.0152726626695
0.0155088975231
0.0157413765186
0.0159701223443
0.0161950993549
0.0164162175063
0.0166334835383
0.0168468369469
0.0170557026282
0.0172595328563
0.0174577974694
0.0176499764786
0.0178355545516
0.0180140180853
0.0181848542027
0.0183475509567
0.0185015989334
0.01864649292
0.0187817347667
0.0189068355312
0.019021318789
0.0191247226376
0.0192166028694
0.0192965343381
0.0193641134539
0.0194189584116
0.0194607104348
0.019489032319
0.0195036078123
0.0195041379199
0.0194903378797
0.0194619308714
0.0194186424548
0.0193601920452
0.0192862858313
0.0191966080887
0.0190908160045
0.0189685361089
0.0188293683911
0.0186728974021
0.0184987163322
0.0183064619502
0.0180958613176
0.0178667808046
0.0176192698886
0.0173535867262
0.0170702022473
0.0167697791711
0.0164531418139
0.016121256512
0.0157754582327
0.0154180499287
0.0150502316443
0.0146735178484
0.0142892867361
0.01389889166
0.0135036085001
0.0131046399008
0.0127031111255
0.0123000608462
0.0118964418321
0.0114931226939
0.0110908892636
0.0106904477739
0.0102924278049
0.00989738535209
0.0095058054772
0.00911810490224
0.00873463350476
0.00835567529048
0.00798144785668
0.00761210063803
0.00724771078907
0.00688827635125
0.00653374507769
0.00618388651105
0.00583840823022
0.00549696020899
0.00515914130271
0.00482450911442
0.00449259469406
0.00416292451202
0.00383505219821
0.00350860285274
0.00318333183873
0.00285919775751
0.00253644494041
0.00221568442989
0.00189795757979
0.00158477141916
0.00127813051027
0.000980698423075
0.000696524803887
0.00043374604585
0.000214571133105
8.24229547597e-05
4.64689433173e-05
0.000201903532645
0.000951415482401
0.00177158484452
0.00186893038619
0.0020371680867
0.00224832918797
0.00248699911589
0.00274105556954
0.0030177494571
0.0033240535254
0.00366478966036
0.00404192366083
0.00445444924976
0.00489863655692
0.0053685856329
0.00585704875205
0.00635640116205
0.00685952000543
0.00736037640062
0.00785427119419
0.00833779650195
0.00880864127572
0.00926535835616
0.00970714818203
0.0101336913043
0.0105450205951
0.0109414317466
0.0113234125128
0.0116915910593
0.0120466898246
0.012389490836
0.012720802846
0.0130414381224
0.0133521901711
0.0136538200756
0.0139470428037
0.0142325207211
0.0145108559556
0.0147825885524
0.0150481926603
0.0153080774117
0.0155625854634
0.0158119954389
0.0160565219746
0.0162963189732
0.0165314804972
0.0167620441948
0.0169879929073
0.0172092599636
0.0174257376335
0.0176378098018
0.0178448969682
0.0180464601587
0.0182419833453
0.018430965467
0.0186129149441
0.0187873462169
0.0189537779963
0.0191117325531
0.0192607364743
0.0194003213739
0.0195300258116
0.0196493963464
0.0197579897208
0.0198553735893
0.0199411283696
0.0200148471828
0.0200761369048
0.0201246169409
0.0201599190844
0.0201816848245
0.020189563727
0.0201832091409
0.0201622750836
0.0201264106234
0.020075255874
0.0200084362254
0.0199255592899
0.0198262117741
0.019709961219
0.0195763605777
0.0194249608413
0.0192553299731
0.0190670822735
0.01885991452
0.0186336487142
0.0183882730222
0.0181239758337
0.0178411637312
0.0175404613924
0.0172226934781
0.0168888566138
0.0165400794488
0.0161775945732
0.0158026309332
0.0154166183691
0.0150221936309
0.0146204564042
0.0142129073913
0.0138008530474
0.0133855168493
0.0129680584189
0.0125495284062
0.0121308852695
0.0117129999512
0.0112966557874
0.010882554623
0.0104713213866
0.0100635073349
0.00965959361662
0.00925999465839
0.00886506008593
0.00847507616897
0.00809026588356
0.00771078793137
0.0073367339449
0.00696812436111
0.00660497867687
0.00624708667713
0.00589418272606
0.00554594990698
0.00520202731572
0.00486202052321
0.00452551577658
0.0041920996702
0.0038613859235
0.00353305101945
0.00320687956799
0.00288281866357
0.00256103773371
0.00224198686475
0.00192644502849
0.0016155554539
0.00131087269771
0.00101452468118
0.000729814982495
0.000463331191629
0.000233138339175
8.56486768572e-05
4.82128275494e-05
0.000253751132182
0.00114074438794
0.00235373686967
0.00245183371701
0.00262495930966
0.00284667335161
0.00309061154355
0.00335377199641
0.00363931995753
0.00395208268289
0.0042960367377
0.0046730518566
0.00508249184711
0.0055213394132
0.00598466606082
0.00646631853332
0.00695969949992
0.0074584758663
0.00795709172959
0.00845102536937
0.00893683134084
0.00941203573128
0.00987497219314
0.010324605901
0.0107603836369
0.01118211031
0.0115898587989
0.0119838981985
0.0123646428838
0.012732608774
0.0130883820876
0.0134325900212
0.0137658805306
0.0140889020946
0.014402291026
0.0147066577855
0.0150025796859
0.0152905919112
0.0155711839398
0.0158447938792
0.0161118074184
0.0163725545749
0.0166273104111
0.0168762935801
0.0171196681278
0.0173575430193
0.0175899737433
0.0178169607066
0.0180384465885
0.0182543056987
0.0184651620056
0.0186705644792
0.0188700127436
0.0190630083544
0.0192490668759
0.0194277173278
0.0195984986316
0.0197609567982
0.0199146429538
0.0200591129655
0.0201939270067
0.0203186504218
0.0204328536714
0.0205361134478
0.0206280122947
0.0207081393925
0.0207760894551
0.0208314628304
0.0208738634547
0.0209028980743
0.0209181732063
0.0209192934979
0.0209058579105
0.0208774576013
0.0208336720423
0.0207740674707
0.0206981945112
0.0206055893101
0.020495775483
0.0203682713981
0.0202226005135
0.0200583090599
0.0198749885706
0.0196723060952
0.0194500378193
0.0192081056459
0.0189466096138
0.0186658530504
0.0183663537796
0.0180488410554
0.0177142375057
0.0173636305233
0.0169982363818
0.0166193613403
0.0162283603381
0.0158266358525
0.0154155838246
0.0149961252802
0.0145712255587
0.0141419482321
0.0137094495716
0.0132750303691
0.0128397521983
0.0124045975353
0.0119704738788
0.0115381877827
0.0111084638116
0.0106819509835
0.0102592216256
0.00984077650889
0.00942704980752
0.00901841074926
0.00861516563264
0.0082175588125
0.00782577254545
0.00743992467335
0.00706006406542
0.00668629892515
0.00631845150852
0.00595628218367
0.00559949935335
0.00524777001038
0.0049007317138
0.00455800678218
0.00421922037695
0.00388402381244
0.0035521243652
0.00322332204038
0.0028975526432
0.00257493482756
0.00225581701437
0.0019408203042
0.00163087946104
0.00132730606147
0.00103195836925
0.000747773447489
0.000480493067808
0.000245113600905
8.74513421978e-05
5.22107727639e-05
0.000313812245175
0.00132782496507
0.00292599077907
0.00302512547297
0.0032009239616
0.00342316308491
0.00367514778911
0.00394984647779
0.00424686249646
0.00456888288001
0.00491893076889
0.00529875248449
0.00570812475754
0.00614477907232
0.00660472475431
0.00708279662287
0.00757329633212
0.0080705874891
0.00856955371987
0.00906586450942
0.009556069653
0.0100375606311
0.010508464948
0.0109675109212
0.0114139016798
0.0118472032703
0.012267259261
0.0126741207742
0.0130679966895
0.013449211201
0.0138181741269
0.0141753531158
0.0145212546198
0.0148564043295
0.0151813345225
0.0154965698737
0.0158026191487
0.0160999649273
0.0163890584792
0.0166703125328
0.0169440986088
0.0172107423064
0.017470522623
0.017723669385
0.0179703641174
0.018210739169
0.0184448796558
0.0186728242566
0.0188945697922
0.0191100802849
0.0193193277538
0.0195229273786
0.0197202821113
0.0199108684667
0.020094203651
0.0202698294265
0.0204373028224
0.0205961906478
0.0207460656395
0.0208865046638
0.0210170870036
0.0211373941324
0.0212470086147
0.0213455142905
0.0214324950248
0.0215075347383
0.0215702156842
0.0216201180891
0.0216568178886
0.0216798859667
0.021688885505
0.0216833710629
0.021662885996
0.0216269620015
0.021575117531
0.021506859004
0.0214216818284
0.0213190752627
0.0211985284543
0.0210595416357
0.0209016399813
0.0207243935878
0.0205274406656
0.0203105159436
0.0200734799893
0.0198163490809
0.0195393198006
0.0192427866305
0.0189273477278
0.018593799249
0.0182431174671
0.0178764323941
0.0174949947551
0.0171001410138
0.016693260559
0.0162757661056
0.0158490543991
0.0154144832484
0.0149734945127
0.014527102711
0.0140767942447
0.0136248553091
0.0131719968448
0.012719229688
0.012267587754
0.0118178990523
0.0113709269227
0.0109273788681
0.0104878697307
0.0100529395975
0.00962306485767
0.00919865428716
0.00878005203257
0.00836754101958
0.00796134460968
0.00756162726569
0.00716849827874
0.00678202766022
0.00640224006868
0.0060289036156
0.00566174147723
0.00530043935018
0.00494465659672
0.00459403968415
0.00424823890056
0.00390692923917
0.003569836396
0.00323676821858
0.00290765123366
0.00258257098468
0.00226181421376
0.00194591218301
0.00163569025944
0.00133234741093
0.00103763804391
0.000754366219246
0.000487860601701
0.000251098999653
8.76349528677e-05
5.89180450902e-05
0.0003812728546
0.00150824550868
0.00347533001711
0.00357098744324
0.00374431232688
0.0039719284588
0.00423552806811
0.00452490505247
0.00483671496654
0.0051715956484
0.00553151881991
0.00591799582781
0.00633114392367
0.00676939363364
0.0072296347372
0.00770761550435
0.00819846077636
0.00869717795675
0.00919907250032
0.00970001763753
0.0101965863186
0.0106860641877
0.0111663938507
0.0116360788528
0.0120940842557
0.0125397405107
0.0129726664901
0.0133927035942
0.0137998678851
0.0141943086177
0.0145762790985
0.0149461091871
0.0153041862483
0.0156509352737
0.0159868055327
0.0163122554337
0.0166277429695
0.0169337141048
0.0172305961664
0.0175187892011
0.0177986618578
0.0180705454003
0.0183347317592
0.0185914699059
0.0188409656395
0.0190833797205
0.0193188284037
0.0195473818987
0.0197690636688
0.0199838460842
0.0201916401258
0.0203933822256
0.020588604947
0.0207768216476
0.0209575635111
0.0211303827771
0.0212948484759
0.0214505408741
0.021597046272
0.0217339538263
0.0218608525512
0.0219773300279
0.0220829703711
0.0221773536484
0.0222600540089
0.0223306392588
0.0223886688918
0.0224336936809
0.0224652536635
0.0224828778716
0.0224860825624
0.0224743714637
0.0224472348226
0.022404150875
0.0223445866648
0.0222680018835
0.02217385288
0.0220616004831
0.0219307190038
0.0217807098371
0.0216111170571
0.0214215477777
0.021211694245
0.0209813591413
0.0207304801123
0.0204591533619
0.0201676516386
0.019856435837
0.0195261566941
0.0191776473543
0.0188119062284
0.0184300730597
0.0180333997929
0.0176232199605
0.0172009183301
0.0167679023528
0.0163255769254
0.0158753276727
0.015418502103
0.0149563716941
0.0144902150098
0.0140212412844
0.0135502057592
0.0130787861266
0.0126086615335
0.0121403732384
0.0116747249157
0.0112125902375
0.0107546223425
0.0103014029999
0.00985348571847
0.00941133764483
0.00897535465156
0.0085458733144
0.00812317263791
0.00770747106861
0.00729893058237
0.00689766507964
0.0065038892865
0.00611739120384
0.00573791385393
0.00536516202884
0.00499881379746
0.00463853424369
0.00428399171216
0.00393487734985
0.00359092885582
0.00325195887092
0.00291788800236
0.00258878214735
0.00226489377694
0.00194670870043
0.00163500544926
0.00133095055898
0.00103629407273
0.000753844639306
0.000488777580965
0.000252837574366
8.66524239899e-05
6.89500390151e-05
0.000454906698239
0.00167841067625
0.00397716722659
0.00407430700094
0.00425272103014
0.00449087233535
0.00476984430866
0.00507731669484
0.00540752709084
0.00575919944536
0.0061331810707
0.00653061245289
0.00695182145253
0.0073958310986
0.00786032324833
0.00834188421623
0.00883640285338
0.00933949473728
0.00984687823135
0.0103546436143
0.0108594129566
0.0113583950105
0.0118493730211
0.0123306456871
0.0128009551898
0.0132594091901
0.0137054146981
0.0141386180035
0.014558859541
0.0149661334206
0.0153605582931
0.0157423493633
0.0161117984638
0.0164692531237
0.0168151019174
0.0171497579806
0.0174736479522
0.0177871989375
0.0180908303988
0.0183849441872
0.0186699190717
0.018946103622
0.019213813118
0.0194733250361
0.019724877972
0.0199686692528
0.0202048551408
0.0204335496284
0.0206548247366
0.0208687091268
0.0210751886648
0.0212745417347
0.021467391526
0.0216531710626
0.0218313815703
0.0220015669571
0.0221632970744
0.0223161566775
0.0224597372801
0.0225936320558
0.0227174314066
0.0228307205997
0.0229330768999
0.0230240683602
0.0231032515393
0.0231701708406
0.0232243565728
0.0232653247561
0.0232925756527
0.0233055942404
0.0233038495702
0.0232867963328
0.0232538756301
0.0232045183128
0.0231381480172
0.0230541872323
0.0229520637092
0.0228312204114
0.0226911264613
0.0225312919526
0.0223512840486
0.0221507465685
0.0219294201289
0.0216871639813
0.0214239760307
0.0211400110751
0.0208355935885
0.0205112248504
0.0201675818745
0.0198055090785
0.0194260022947
0.0190301874881
0.0186192953995
0.0181946348192
0.0177575658937
0.0173094752801
0.0168517541177
0.0163857792028
0.0159128967765