/*--------------------------------*- C++ -*----------------------------------*\
| =========                 |                                                 |
| \\      /  F ield         | OpenFOAM: The Open Source CFD Toolbox           |
|  \\    /   O peration     | Version:  2206                                  |
|   \\  /    A nd           | Website:  www.openfoam.com                      |
|    \\/     M anipulation  |                                                 |
\*---------------------------------------------------------------------------*/
FoamFile
{
    version     2.0;
    format      ascii;
    arch        "LSB;label=64;scalar=64";
    class       volScalarField;
    location    "2/water";
    object      p;
}
// * * * * * * * * * * * * * * * * * * * * * * * * * * * * * * * * * * * * * //

dimensions      [1 -1 -2 0 0 0 0];

internalField   nonuniform List<scalar> 
23300
(
100730.444541
100730.445112
100730.448284
100730.453292
100730.460635
100730.470795
100730.484173
100730.50086
100730.520702
100730.543113
100730.566568
100730.584241
100730.587273
100730.581966
100730.581113
100730.587082
100730.597007
100730.608323
100730.620355
100730.633045
100730.646526
100730.660849
100730.676124
100730.692375
100730.709695
100730.728104
100730.747703
100730.76852
100730.790671
100730.814201
100730.839236
100730.865829
100730.894111
100730.924133
100730.956014
100730.98979
100731.02556
100731.063332
100731.103172
100731.145058
100731.189018
100731.234991
100731.28297
100731.332854
100731.384599
100731.438067
100731.493144
100731.54961
100731.607336
100731.666112
100731.725787
100731.786117
100731.846918
100731.907915
100731.968896
100732.029563
100732.089685
100732.148944
100732.207099
100732.26382
100732.318863
100732.371899
100732.422686
100732.470904
100732.516328
100732.558654
100732.597683
100732.63314
100732.664861
100732.692609
100732.71627
100732.735664
100732.750744
100732.76141
100732.767721
100732.769707
100732.767591
100732.761613
100732.752256
100732.740062
100732.725819
100732.7102
100732.693502
100732.675599
100732.656864
100732.638101
100732.619745
100732.6012
100732.581594
100732.560059
100732.536022
100732.50908
100732.479105
100732.446084
100732.410192
100732.371647
100732.330788
100732.287951
100732.243545
100732.197955
100732.151618
100732.104933
100732.058338
100732.01223
100731.967037
100731.923141
100731.880946
100731.840808
100731.803091
100731.768106
100731.736161
100731.707499
100731.682345
100731.66086
100731.643171
100731.629333
100731.61938
100731.613283
100731.610985
100731.612358
100731.617238
100731.625389
100731.636531
100731.650312
100731.666325
100731.684076
100731.70299
100731.722358
100731.741335
100731.758952
100731.774326
100731.787042
100731.797373
100731.805938
100731.813186
100731.819272
100731.824242
100731.828157
100731.831045
100731.832674
100722.351728
100722.352594
100722.356137
100722.361562
100722.369539
100722.380664
100722.395474
100722.414367
100722.437797
100722.465858
100722.494959
100722.517114
100722.526966
100722.529235
100722.532878
100722.542352
100722.556796
100722.573754
100722.591819
100722.610344
100722.629111
100722.648015
100722.667067
100722.686261
100722.705654
100722.725275
100722.745214
100722.765535
100722.786362
100722.807792
100722.829977
100722.853034
100722.877125
100722.902366
100722.928905
100722.956838
100722.986282
100723.017298
100723.049964
100723.084296
100723.120328
100723.158031
100723.197397
100723.238354
100723.280851
100723.32478
100723.370023
100723.416402
100723.463787
100723.511999
100723.560886
100723.610246
100723.659906
100723.709644
100723.759274
100723.808559
100723.857305
100723.905271
100723.952264
100723.998045
100724.042433
100724.085205
100724.126199
100724.165217
100724.202132
100724.236783
100724.269084
100724.298923
100724.326267
100724.351059
100724.373326
100724.393069
100724.410374
100724.425296
100724.437971
100724.448488
100724.456993
100724.463549
100724.46821
100724.470823
100724.471022
100724.467913
100724.460035
100724.445899
100724.425413
100724.399645
100724.370161
100724.33837
100724.305172
100724.271063
100724.236368
100724.201258
100724.16587
100724.130273
100724.094548
100724.058739
100724.022918
100723.987134
100723.951476
100723.916025
100723.880904
100723.846237
100723.812193
100723.778943
100723.746698
100723.715671
100723.686103
100723.658228
100723.632297
100723.608541
100723.587198
100723.568475
100723.552572
100723.539619
100723.529679
100723.522789
100723.518988
100723.518256
100723.520538
100723.525715
100723.53363
100723.544071
100723.556788
100723.571489
100723.587853
100723.605513
100723.624054
100723.64297
100723.661636
100723.679306
100723.69524
100723.708947
100723.720386
100723.729885
100723.737816
100723.744382
100723.749695
100723.753891
100723.757055
100723.75894
100714.24888
100714.249852
100714.253667
100714.259584
100714.26842
100714.281
100714.298189
100714.320453
100714.346898
100714.375163
100714.402247
100714.422827
100714.434059
100714.440189
100714.447235
100714.458216
100714.473271
100714.491218
100714.510937
100714.531641
100714.552886
100714.574385
100714.595998
100714.617622
100714.639241
100714.660839
100714.682468
100714.704174
100714.726063
100714.748225
100714.770803
100714.793915
100714.817721
100714.842343
100714.867933
100714.894598
100714.922465
100714.951612
100714.98213
100715.014058
100715.047447
100715.082296
100715.118618
100715.156372
100715.195534
100715.23603
100715.277766
100715.320586
100715.36439
100715.409038
100715.454417
100715.500368
100715.54676
100715.593419
100715.640202
100715.686926
100715.733443
100715.779567
100715.825154
100715.870022
100715.914038
100715.957032
100715.99889
100716.039463
100716.078662
100716.116366
100716.152514
100716.187017
100716.219843
100716.250931
100716.280274
100716.307825
100716.333587
100716.357504
100716.379551
100716.399621
100716.417603
100716.433258
100716.446279
100716.456141
100716.462138
100716.463232
100716.45822
100716.445919
100716.426356
100716.400444
100716.369091
100716.333391
100716.294469
100716.253206
100716.210348
100716.166471
100716.122078
100716.077552
100716.033234
100715.989374
100715.946198
100715.903868
100715.862539
100715.822325
100715.783347
100715.745703
100715.709512
100715.67488
100715.641939
100715.610816
100715.581657
100715.554605
100715.529816
100715.507436
100715.487616
100715.470488
100715.45618
100715.444796
100715.436337
100715.430763
100715.428091
100715.428291
100715.4313
100715.437012
100715.445287
100715.45594
100715.468761
100715.483497
100715.499867
100715.517544
100715.536148
100715.555222
100715.574225
100715.592555
100715.609652
100715.625149
100715.638925
100715.650981
100715.661263
100715.66966
100715.676193
100715.681167
100715.684858
100715.686986
100706.135709
100706.137056
100706.141592
100706.148706
100706.159509
100706.175129
100706.195957
100706.220306
100706.247143
100706.275273
100706.301319
100706.322408
100706.337969
100706.34979
100706.36133
100706.374915
100706.391246
100706.409985
100706.430502
100706.452179
100706.474578
100706.497361
100706.520324
100706.543305
100706.566234
100706.589054
100706.611781
100706.634435
100706.657097
100706.679839
100706.702789
100706.726052
100706.749777
100706.774083
100706.799115
100706.824985
100706.85182
100706.879707
100706.908748
100706.938995
100706.970517
100707.003333
100707.037477
100707.072933
100707.109706
100707.14775
100707.187003
100707.227334
100707.268654
100707.310859
100707.353868
100707.397559
100707.441833
100707.486553
100707.531611
100707.576857
100707.622178
100707.667421
100707.712473
100707.75718
100707.801437
100707.845096
100707.888063
100707.930202
100707.971433
100708.011636
100708.050743
100708.088648
100708.125293
100708.160577
100708.194442
100708.226772
100708.257486
100708.28643
100708.313462
100708.338348
100708.360834
100708.380539
100708.397026
100708.409682
100708.417795
100708.420478
100708.416849
100708.40616
100708.388113
100708.363503
100708.333243
100708.297815
100708.258149
100708.215134
100708.169615
100708.12232
100708.073919
100708.024977
100707.976
100707.927398
100707.879534
100707.832692
100707.787122
100707.743016
100707.700549
100707.659856
100707.621072
100707.584305
100707.549672
100707.517273
100707.487221
100707.459613
100707.43456
100707.412155
100707.392496
100707.375664
100707.361737
100707.350793
100707.342799
100707.337653
100707.335347
100707.335837
100707.339055
100707.344897
100707.353235
100707.363907
100707.376724
100707.391464
100707.407873
100707.425657
100707.444472
100707.46391
100707.483514
100707.502797
100707.521326
100707.538807
100707.5551
100707.570035
100707.583187
100707.593957
100707.602053
100707.607896
100707.611946
100707.614075
100698.014905
100698.017532
100698.024174
100698.034314
100698.04895
100698.068466
100698.091859
100698.117818
100698.145333
100698.172932
100698.198735
100698.221013
100698.239532
100698.255453
100698.270702
100698.286884
100698.304797
100698.324487
100698.345675
100698.367949
100698.390961
100698.414404
100698.438072
100698.46179
100698.485468
100698.509029
100698.53247
100698.555791
100698.579052
100698.602311
100698.625674
100698.649235
100698.673126
100698.697454
100698.722358
100698.747942
100698.774332
100698.801615
100698.829898
100698.85924
100698.889722
100698.921376
100698.954251
100698.988354
100699.023705
100699.060282
100699.098068
100699.136944
100699.176817
100699.217608
100699.259265
100699.301689
100699.34481
100699.388513
100699.432715
100699.477291
100699.522147
100699.56715
100699.612204
100699.657171
100699.701953
100699.746414
100699.790459
100699.833953
100699.876808
100699.91889
100699.960113
100700.000343
100700.039491
100700.077412
100700.114001
100700.149086
100700.182524
100700.214095
100700.243588
100700.270698
100700.295111
100700.316397
100700.334095
100700.347611
100700.356317
100700.35949
100700.356481
100700.346753
100700.330113
100700.306683
100700.277458
100700.243165
100700.204223
100700.161437
100700.115575
100700.06738
100700.017563
100699.966754
100699.915541
100699.86442
100699.813844
100699.76418
100699.715761
100699.668848
100699.62368
100699.580441
100699.539305
100699.500407
100699.463879
100699.429827
100699.398359
100699.369561
100699.343525
100699.320321
100699.300022
100699.28268
100699.268348
100699.257057
100699.248788
100699.243427
100699.240909
100699.241183
100699.24418
100699.249799
100699.25792
100699.268394
100699.28105
100699.295687
100699.312078
100699.329953
100699.349006
100699.36888
100699.389184
100699.409511
100699.429503
100699.448895
100699.467527
100699.485181
100699.501233
100699.514613
100699.524508
100699.531231
100699.535435
100699.537425
100689.897255
100689.902543
100689.912181
100689.926095
100689.944395
100689.966517
100689.991326
100690.017774
100690.044823
100690.071476
100690.09669
100690.119555
100690.139852
100690.158232
100690.175909
100690.193983
100690.213149
100690.233599
100690.255252
100690.277853
100690.301153
100690.324896
100690.348903
100690.373006
100690.397117
100690.421155
100690.445107
100690.46896
100690.492762
100690.516554
100690.540428
100690.56446
100690.588767
100690.613442
100690.63861
100690.664365
100690.690826
100690.718076
100690.746219
100690.775319
100690.805459
100690.836678
100690.869038
100690.902553
100690.937259
100690.973149
100691.010261
100691.048481
100691.087692
100691.127836
100691.168879
100691.210741
100691.25337
100691.296669
100691.340571
100691.384966
100691.429774
100691.474872
100691.520172
100691.565543
100691.61089
100691.656075
100691.701001
100691.745524
100691.789542
100691.832907
100691.87551
100691.917193
100691.957836
100691.99726
100692.035323
100692.071814
100692.106549
100692.139267
100692.16972
100692.197573
100692.222492
100692.24404
100692.261777
100692.275158
100692.283649
100692.286661
100692.283703
100692.274379
100692.258547
100692.236293
100692.208012
100692.174492
100692.136469
100692.094474
100692.049184
100692.001202
100691.951235
100691.89993
100691.847892
100691.795651
100691.743705
100691.692469
100691.642329
100691.593598
100691.546562
100691.501452
100691.458479
100691.41781
100691.379602
100691.343978
100691.311057
100691.280929
100691.253685
100691.229388
100691.208103
100691.18987
100691.174727
100691.162692
100691.15376
100691.147803
100691.144725
100691.144468
100691.146963
100691.152111
100691.159802
100691.169894
100691.182232
100691.196629
100691.212879
100691.230735
100691.249923
100691.270124
100691.290998
100691.312197
100691.333405
100691.354373
100691.374929
100691.394858
100691.413513
100691.429478
100691.441319
100691.448959
100691.453198
100691.45498
100681.797959
100681.806352
100681.816723
100681.83187
100681.850872
100681.872509
100681.896051
100681.921157
100681.946818
100681.972157
100681.996412
100682.018996
100682.039808
100682.059251
100682.078116
100682.097168
100682.116969
100682.137746
100682.159519
100682.18214
100682.20544
100682.229213
100682.253312
100682.277586
100682.301953
100682.326333
100682.350707
100682.375056
100682.399414
100682.423809
100682.448315
100682.472991
100682.497937
100682.52323
100682.548978
100682.575263
100682.602192
100682.629839
100682.658303
100682.687645
100682.717946
100682.74925
100682.78162
100682.815079
100682.849669
100682.885387
100682.922336
100682.960415
100682.999472
100683.039455
100683.08034
100683.122061
100683.16458
100683.207813
100683.251703
100683.296151
100683.341084
100683.386387
100683.431975
100683.477719
100683.523524
100683.569248
100683.614786
100683.659986
100683.704732
100683.748862
100683.792247
100683.834708
100683.8761
100683.916221
100683.954899
100683.991899
100684.027011
100684.059951
100684.090454
100684.118176
100684.142781
100684.16385
100684.180975
100684.19367
100684.201485
100684.203938
100684.200655
100684.191335
100684.175888
100684.154381
100684.127114
100684.09458
100684.057232
100684.016042
100683.971597
100683.924199
100683.87471
100683.82363
100683.771567
100683.719063
100683.666625
100683.614691
100683.563674
100683.513918
100683.465745
100683.419416
100683.375174
100683.333212
100683.293712
100683.256816
100683.222658
100683.191339
100683.162955
100683.137573
100683.115259
100683.096049
100683.079977
100683.067056
100683.057308
100683.050604
100683.046812
100683.045874
100683.047721
100683.052259
100683.059381
100683.068956
100683.080836
100683.09485
100683.110802
100683.128468
100683.147594
100683.167898
100683.189075
100683.210818
100683.232845
100683.254919
100683.276862
100683.298474
100683.319187
100683.33744
100683.351211
100683.359807
100683.364061
100683.365621
100673.715115
100673.727353
100673.736074
100673.749467
100673.766128
100673.785307
100673.806521
100673.829165
100673.852445
100673.875627
100673.898124
100673.91952
100673.939755
100673.959094
100673.97807
100673.997223
100674.016994
100674.037597
100674.059102
100674.081426
100674.104459
100674.12804
100674.152048
100674.176349
100674.200868
100674.225525
100674.250295
100674.275149
100674.300108
100674.325185
100674.350434
100674.375898
100674.401655
100674.427763
100674.454314
100674.481373
100674.509033
100674.537357
100674.566435
100674.596322
100674.627095
100674.658797
100674.691492
100674.725206
100674.759987
100674.79584
100674.832843
100674.871001
100674.910199
100674.950279
100674.991236
100675.033018
100675.075595
100675.118895
100675.162871
100675.207428
100675.252503
100675.297982
100675.343785
100675.389781
100675.435874
100675.481918
100675.527802
100675.573363
100675.618476
100675.662964
100675.706683
100675.749437
100675.791063
100675.831341
100675.87008
100675.907027
100675.941957
100675.974576
100676.004612
100676.031722
100676.05558
100676.075792
100676.091986
100676.103734
100676.110656
100676.112356
100676.108547
100676.098999
100676.083659
100676.062591
100676.036056
100676.004398
100675.968124
100675.927853
100675.884113
100675.837638
100675.788905
100675.738356
100675.686763
100675.634528
100675.582167
100675.530134
100675.478849
100675.428673
100675.379948
100675.332955
100675.28796
100675.245176
100675.204805
100675.167004
100675.131923
100675.099672
100675.070359
100675.044055
100675.02083
100675.000723
100674.983768
100674.969975
100674.959405
100674.951942
100674.947409
100674.945751
100674.9469
100674.950765
100674.957242
100674.966207
100674.977519
100674.991013
100675.006509
100675.023794
100675.042636
100675.062776
100675.083942
100675.105855
100675.128261
100675.150935
100675.173699
100675.196364
100675.218465
100675.238481
100675.253948
100675.263461
100675.267758
100675.26911
100665.636709
100665.653478
100665.660091
100665.670951
100665.684986
100665.701372
100665.719733
100665.739407
100665.759801
100665.780327
100665.800528
100665.820096
100665.838994
100665.8574
100665.875691
100665.894258
100665.913446
100665.933447
100665.954349
100665.976114
100665.998672
100666.021897
100666.04569
100666.06993
100666.094546
100666.119454
100666.144622
100666.170007
100666.195616
100666.22144
100666.247516
100666.273863
100666.300539
100666.327583
100666.355064
100666.383031
100666.411563
100666.440708
100666.470545
100666.501121
100666.532509
100666.564748
100666.597901
100666.631995
100666.667082
100666.703172
100666.740308
100666.77863
100666.818047
100666.858293
100666.899379
100666.941258
100666.983912
100667.027275
100667.071309
100667.115926
100667.161067
100667.206623
100667.252515
100667.298612
100667.344816
100667.390978
100667.43698
100667.482654
100667.527864
100667.572422
100667.616173
100667.658907
100667.700448
100667.740562
100667.779044
100667.815633
100667.850091
100667.882122
100667.911453
100667.937747
100667.960694
100667.979926
100667.995107
100668.005859
100668.011861
100668.012786
100668.008413
100667.998567
100667.983225
100667.962455
100667.936488
100667.905634
100667.870335
100667.831061
100667.788411
100667.742955
100667.69508
100667.645528
100667.594707
100667.542963
100667.491084
100667.439381
100667.388263
100667.338118
100667.289298
100667.242092
100667.196779
100667.153588
100667.112733
100667.074386
100667.038707
100667.005817
100666.97583
100666.948826
100666.924878
100666.904028
100666.886311
100666.871737
100666.860411
100666.852246
100666.847012
100666.844657
100666.845112
100666.848289
100666.854086
100666.862381
100666.87304
100666.885904
100666.9008
100666.917528
100666.935872
100666.955591
100666.976439
100666.998161
100667.020524
100667.043316
100667.06636
100667.089477
100667.112289
100667.13342
100667.150168
100667.160439
100667.164799
100667.165963
100657.554397
100657.575824
100657.580868
100657.589858
100657.601675
100657.61559
100657.631168
100657.647966
100657.665519
100657.683364
100657.701155
100657.718661
100657.735866
100657.752901
100657.770054
100657.787618
100657.80588
100657.825008
100657.845102
100657.866152
100657.88812
100657.910908
100657.934432
100657.958582
100657.983286
100658.008454
100658.034043
100658.059994
100658.086293
100658.112912
100658.139863
100658.167145
100658.19479
100658.222816
100658.251273
100658.280191
100658.30963
100658.339627
100658.37025
100658.401536
100658.433552
100658.466333
100658.499942
100658.534404
100658.569772
100658.60606
100658.643295
100658.681713
100658.721269
100658.761635
100658.802794
100658.844706
100658.887362
100658.930703
100658.974699
100659.019267
100659.064356
100659.109859
100659.1557
100659.20175
100659.247909
100659.294025
100659.339977
100659.385591
100659.430722
100659.475176
100659.518786
100659.561333
100659.602631
100659.642434
100659.68053
100659.716647
100659.750546
100659.781926
100659.810519
100659.835996
100659.858065
100659.876379
100659.890638
100659.900505
100659.905709
100659.90598
100659.901144
100659.891069
100659.875758
100659.855284
100659.82986
100659.799766
100659.765396
100659.727183
100659.685632
100659.64123
100659.59456
100659.546206
100659.49636
100659.445724
100659.394783
100659.343613
100659.292934
100659.243197
100659.194646
100659.147586
100659.102317
100659.059073
100659.018076
100658.979506
100658.943532
100658.910283
100658.87988
100658.852408
100658.827944
100658.806532
100658.78821
100658.772981
100658.760985
100658.752181
100658.746312
100658.743312
100658.743106
100658.745606
100658.750712
100658.758303
100658.768248
100658.780394
100658.794572
100658.810592
100658.828251
100658.847324
100658.867582
100658.888793
100658.910738
100658.933218
100658.956059
100658.979085
100659.001986
100659.023576
100659.041091
100659.051862
100659.056268
100659.057263
100649.464053
100649.490182
100649.494404
100649.501992
100649.511852
100649.52355
100649.536747
100649.551063
100649.566134
100649.581593
100649.597177
100649.612716
100649.628213
100649.64378
100649.659652
100649.676073
100649.693289
100649.711459
100649.730695
100649.751009
100649.772387
100649.794753
100649.818037
100649.842135
100649.86697
100649.892446
100649.918502
100649.945063
100649.972092
100649.999538
100650.027388
100650.055617
100650.084233
100650.113232
100650.142644
100650.172478
100650.202782
100650.233577
100650.26492
100650.296841
100650.329402
100650.362634
100650.3966
100650.431328
100650.466874
100650.503258
100650.540531
100650.578733
100650.618123
100650.658541
100650.699667
100650.741493
100650.784023
100650.82721
100650.871032
100650.915416
100650.960316
100651.005632
100651.05129
100651.097164
100651.143154
100651.189107
100651.234899
100651.28035
100651.325313
100651.369583
100651.412989
100651.455302
100651.496326
100651.535809
100651.57353
100651.609214
100651.642616
100651.673436
100651.701409
100651.726217
100651.747581
100651.765178
100651.778736
100651.787954
100651.792602
100651.79245
100651.787365
100651.777249
100651.762124
100651.742066
100651.717279
100651.688018
100651.654644
100651.617547
100651.577191
100651.534039
100651.488599
100651.441334
100651.392748
100651.34344
100651.293671
100651.243677
100651.194098
100651.145158
100651.097082
100651.05044
100651.005546
100650.962558
100650.921712
100650.883207
100650.847216
100650.813866
100650.783291
100650.755576
100650.730802
100650.709017
100650.690264
100650.674556
100650.661911
100650.652466
100650.646082
100650.642511
100650.641694
100650.643544
100650.647963
100650.654832
100650.664022
100650.675382
100650.688749
100650.70394
100650.72076
100650.738999
100650.758442
100650.778871
100650.800081
100650.82188
100650.8441
100650.866568
100650.889019
100650.910473
100650.928224
100650.939194
100650.943596
100650.944433
100641.364048
100641.394201
100641.397605
100641.403687
100641.411928
100641.421875
100641.433194
100641.44555
100641.458639
100641.472165
100641.485925
100641.499796
100641.513797
100641.528035
100641.542721
100641.558071
100641.574317
100641.591616
100641.61009
100641.629775
100641.650676
100641.672736
100641.695892
100641.720046
100641.745113
100641.770985
100641.797586
100641.824818
100641.852622
100641.880921
100641.909677
100641.938839
100641.968395
100641.998314
100642.028609
100642.059271
100642.090332
100642.121803
100642.15373
100642.186136
100642.21908
100642.252591
100642.286731
100642.32153
100642.35705
100642.393315
100642.43038
100642.468245
100642.507305
100642.547483
100642.588366
100642.629914
100642.672136
100642.714995
100642.75848
100642.802526
100642.847093
100642.892089
100642.937444
100642.983035
100643.028765
100643.074479
100643.120053
100643.165302
100643.210076
100643.254164
100643.297388
100643.339511
100643.380332
100643.41959
100643.457059
100643.492457
100643.525538
100643.556002
100643.583588
100643.607985
100643.628928
100643.646114
100643.659292
100643.668192
100643.672616
100643.672368
100643.667345
100643.657473
100643.64279
100643.623376
100643.599425
100643.571175
100643.538961
100643.503139
100643.46414
100643.422392
100643.378369
100643.332521
100643.28533
100643.237228
100643.188648
100643.140042
100643.091841
100643.044138
100642.99727
100642.951694
100642.907533
100642.864994
100642.824526
100642.78637
100642.750617
100642.717403
100642.686876
100642.659128
100642.634234
100642.612244
100642.593203
100642.577117
100642.563983
100642.55403
100642.54718
100642.543087
100642.541697
100642.54292
100642.54666
100642.552797
100642.561203
100642.571728
100642.584214
100642.598481
100642.614343
100642.631598
100642.650042
100642.66947
100642.689685
100642.710503
100642.731755
100642.753274
100642.774825
100642.795634
100642.813137
100642.824011
100642.828334
100642.829017
100633.25107
100633.284194
100633.286774
100633.291931
100633.299111
100633.307876
100633.317902
100633.328882
100633.340553
100633.352669
100633.365072
100633.377677
100633.39052
100633.403712
100633.417456
100633.43196
100633.44745
100633.464092
100633.482022
100633.501293
100633.521929
100633.543884
100633.567105
100633.591488
100633.616943
100633.643347
100633.670603
100633.698591
100633.727226
100633.756407
100633.786069
100633.816137
100633.846574
100633.877331
100633.9084
100633.939758
100633.971423
100634.003395
100634.035713
100634.068398
100634.101503
100634.135061
100634.169136
100634.203763
100634.239011
100634.274913
100634.311533
100634.348891
100634.387183
100634.426677
100634.467148
100634.50822
100634.549939
100634.592283
100634.635253
100634.678796
100634.722884
100634.76743
100634.812374
100634.857594
100634.902998
100634.948431
100634.993768
100635.038824
100635.083443
100635.127411
100635.170541
100635.212593
100635.253357
100635.292566
100635.329987
100635.365335
100635.398359
100635.428759
100635.456277
100635.480608
100635.501499
100635.51866
100635.53186
100635.540854
100635.545466
100635.545527
100635.540957
100635.531701
100635.517805
100635.499354
100635.476536
100635.44957
100635.418771
100635.38447
100635.347067
100635.306962
100635.2646
100635.220407
100635.174834
100635.1283
100635.081234
100635.034024
100634.987045
100634.940632
100634.895199
100634.851002
100634.808103
100634.76674
100634.727304
100634.689871
100634.65454
100634.62161
100634.59137
100634.563803
100634.538971
100634.516942
100634.497767
100634.481446
100634.467964
100634.457583
100634.450303
100634.445737
100634.443815
100634.444441
100634.447517
100634.452921
100634.460527
100634.470185
100634.481739
100634.495014
100634.509828
100634.525987
100634.543294
100634.561551
100634.580568
100634.600165
100634.620175
100634.640428
100634.660715
100634.680461
100634.697297
100634.707814
100634.711975
100634.712508
100625.122065
100625.157625
100625.160003
100625.164768
100625.17144
100625.179595
100625.18891
100625.199091
100625.209903
100625.221136
100625.232667
100625.24444
100625.256514
100625.26901
100625.282135
100625.2961
100625.311138
100625.327425
100625.34511
100625.364265
100625.384924
100625.407051
100625.430593
100625.455442
100625.481493
100625.508607
100625.536663
100625.565517
100625.595058
100625.625157
100625.655726
100625.686663
100625.717911
100625.7494
100625.781106
100625.812992
100625.845065
100625.877319
100625.90979
100625.942493
100625.975486
100626.008802
100626.042514
100626.076663
100626.111327
100626.14655
100626.182408
100626.218939
100626.256206
100626.294706
100626.334398
100626.374719
100626.415686
100626.457285
100626.499535
100626.542393
100626.585842
100626.629806
100626.674231
100626.719002
100626.76403
100626.809163
100626.854276
100626.899182
100626.943722
100626.987676
100627.030854
100627.073009
100627.113922
100627.15332
100627.190965
100627.226564
100627.259865
100627.290565
100627.318406
100627.343089
100627.364366
100627.38196
100627.395656
100627.405223
100627.410506
100627.411354
100627.407703
100627.399511
100627.386833
100627.36975
100627.348447
100627.323128
100627.29409
100627.261639
100627.226153
100627.188003
100627.147611
100627.105378
100627.061734
100627.017078
100626.971821
100626.926334
100626.880993
100626.836132
100626.792082
100626.749113
100626.707496
100626.667531
100626.629434
100626.59321
100626.558947
100626.526988
100626.497445
100626.470251
100626.445605
100626.423683
100626.404553
100626.388161
100626.374503
100626.363688
100626.355926
100626.350986
100626.348593
100626.348661
100626.351097
100626.35578
100626.362583
100626.371357
100626.381949
100626.394186
100626.407892
100626.422875
100626.438945
100626.455907
100626.473577
100626.491775
100626.510332
100626.529078
100626.547818
100626.566161
100626.581974
100626.591914
100626.595833
100626.596219
100616.976382
100617.013719
100617.016185
100617.020971
100617.027603
100617.035647
100617.044767
100617.054673
100617.065135
100617.075969
100617.087078
100617.098437
100617.110127
100617.12229
100617.135144
100617.148916
100617.163848
100617.180132
100617.197928
100617.21732
100617.23835
100617.260983
100617.28516
100617.310761
100617.337665
100617.365708
100617.394744
100617.424603
100617.455144
100617.486211
100617.51769
100617.549456
100617.581432
100617.613529
100617.645709
100617.677925
100617.710178
100617.742454
100617.774791
100617.807206
100617.839761
100617.872497
100617.905496
100617.93881
100617.972532
100618.006719
100618.041465
100618.076819
100618.112863
100618.149858
100618.188188
100618.227516
100618.267472
100618.308084
100618.34939
100618.391364
100618.434003
100618.477243
100618.521039
100618.565285
100618.609897
100618.654725
100618.699644
100618.744468
100618.789034
100618.833119
100618.876525
100618.919
100618.960317
100619.000196
100619.038391
100619.074604
100619.108575
100619.14
100619.168619
100619.194135
100619.216303
100619.234855
100619.249584
100619.260272
100619.266777
100619.26896
100619.266767
100619.260165
100619.249211
100619.233986
100619.214664
100619.19144
100619.164591
100619.134404
100619.101234
100619.065429
100619.027386
100618.987486
100618.946137
100618.903718
100618.860625
100618.817217
100618.773857
100618.730867
100618.688569
100618.647237
100618.607147
100618.568533
100618.531607
100618.496534
100618.463525
100618.432797
100618.404289
100618.378016
100618.354146
100618.332809
100618.313978
100618.297642
100618.283863
100618.272716
100618.264557
100618.259295
100618.256461
100618.255998
100618.257816
100618.261792
100618.267795
100618.275678
100618.285292
100618.296467
100618.309028
100618.322786
100618.337554
100618.353141
100618.369363
100618.386038
100618.402994
100618.420058
100618.437042