/*--------------------------------*- C++ -*----------------------------------*\
| =========                 |                                                 |
| \\      /  F ield         | OpenFOAM: The Open Source CFD Toolbox           |
|  \\    /   O peration     | Version:  2206                                  |
|   \\  /    A nd           | Website:  www.openfoam.com                      |
|    \\/     M anipulation  |                                                 |
\*---------------------------------------------------------------------------*/
FoamFile
{
    version     2.0;
    format      ascii;
    arch        "LSB;label=64;scalar=64";
    class       volScalarField;
    location    "2/water";
    object      p_rgh;
}
// * * * * * * * * * * * * * * * * * * * * * * * * * * * * * * * * * * * * * //

dimensions      [1 -1 -2 0 0 0 0];

internalField   nonuniform List<scalar> 
23300
(
100734.483953
100734.484524
100734.487696
100734.492704
100734.500047
100734.510207
100734.523584
100734.540271
100734.560113
100734.582525
100734.60598
100734.623653
100734.626685
100734.621378
100734.620524
100734.626494
100734.636418
100734.647735
100734.659767
100734.672457
100734.685938
100734.70026
100734.715536
100734.731786
100734.749107
100734.767516
100734.787114
100734.807932
100734.830083
100734.853613
100734.878648
100734.905241
100734.933523
100734.963545
100734.995426
100735.029202
100735.064971
100735.102743
100735.142584
100735.18447
100735.22843
100735.274403
100735.322381
100735.372266
100735.424011
100735.477479
100735.532556
100735.589022
100735.646747
100735.705524
100735.765199
100735.825529
100735.88633
100735.947326
100736.008308
100736.068975
100736.129097
100736.188356
100736.24651
100736.303232
100736.358275
100736.41131
100736.462098
100736.510316
100736.555739
100736.598066
100736.637095
100736.672552
100736.704272
100736.732021
100736.755682
100736.775076
100736.790155
100736.800822
100736.807133
100736.809118
100736.807003
100736.801024
100736.791668
100736.779474
100736.76523
100736.749612
100736.732914
100736.71501
100736.696276
100736.677513
100736.659157
100736.640612
100736.621006
100736.599471
100736.575434
100736.548492
100736.518517
100736.485496
100736.449603
100736.411059
100736.3702
100736.327362
100736.282957
100736.237367
100736.19103
100736.144345
100736.09775
100736.051642
100736.006449
100735.962553
100735.920358
100735.880219
100735.842502
100735.807518
100735.775573
100735.746911
100735.721757
100735.700271
100735.682583
100735.668745
100735.658792
100735.652695
100735.650396
100735.65177
100735.65665
100735.664801
100735.675943
100735.689723
100735.705736
100735.723488
100735.742402
100735.76177
100735.780747
100735.798364
100735.813738
100735.826454
100735.836785
100735.84535
100735.852598
100735.858684
100735.863654
100735.867569
100735.870457
100735.872086
100734.469963
100734.47083
100734.474372
100734.479797
100734.487774
100734.4989
100734.51371
100734.532602
100734.556032
100734.584093
100734.613195
100734.635349
100734.645202
100734.64747
100734.651113
100734.660587
100734.675031
100734.691989
100734.710055
100734.72858
100734.747346
100734.766251
100734.785302
100734.804496
100734.823889
100734.84351
100734.86345
100734.883771
100734.904597
100734.926027
100734.948212
100734.97127
100734.995361
100735.020601
100735.04714
100735.075073
100735.104518
100735.135534
100735.168199
100735.202531
100735.238563
100735.276266
100735.315632
100735.356589
100735.399086
100735.443015
100735.488259
100735.534637
100735.582022
100735.630234
100735.679122
100735.728481
100735.778141
100735.82788
100735.877509
100735.926794
100735.97554
100736.023506
100736.070499
100736.11628
100736.160669
100736.20344
100736.244434
100736.283452
100736.320367
100736.355018
100736.387319
100736.417158
100736.444502
100736.469294
100736.491561
100736.511304
100736.528609
100736.543532
100736.556207
100736.566723
100736.575228
100736.581784
100736.586445
100736.589058
100736.589258
100736.586148
100736.57827
100736.564134
100736.543648
100736.51788
100736.488396
100736.456606
100736.423407
100736.389298
100736.354604
100736.319493
100736.284105
100736.248508
100736.212784
100736.176975
100736.141153
100736.105369
100736.069711
100736.03426
100735.999139
100735.964472
100735.930428
100735.897178
100735.864934
100735.833907
100735.804339
100735.776463
100735.750532
100735.726777
100735.705434
100735.68671
100735.670808
100735.657855
100735.647914
100735.641024
100735.637223
100735.636492
100735.638773
100735.643951
100735.651866
100735.662306
100735.675023
100735.689724
100735.706088
100735.723748
100735.742289
100735.761205
100735.779871
100735.797541
100735.813475
100735.827182
100735.838621
100735.84812
100735.856051
100735.862617
100735.86793
100735.872126
100735.87529
100735.877176
100734.445939
100734.446911
100734.450726
100734.456643
100734.465478
100734.478059
100734.495248
100734.517512
100734.543957
100734.572221
100734.599306
100734.619886
100734.631118
100734.637248
100734.644293
100734.655275
100734.67033
100734.688277
100734.707996
100734.7287
100734.749945
100734.771443
100734.793057
100734.814681
100734.8363
100734.857898
100734.879527
100734.901233
100734.923121
100734.945283
100734.967861
100734.990974
100735.01478
100735.039402
100735.064991
100735.091656
100735.119524
100735.148671
100735.179189
100735.211116
100735.244506
100735.279355
100735.315677
100735.353431
100735.392592
100735.433089
100735.474825
100735.517645
100735.561449
100735.606097
100735.651476
100735.697427
100735.743819
100735.790478
100735.837261
100735.883985
100735.930502
100735.976626
100736.022213
100736.067081
100736.111097
100736.154091
100736.195949
100736.236522
100736.275721
100736.313425
100736.349573
100736.384076
100736.416902
100736.44799
100736.477333
100736.504884
100736.530646
100736.554563
100736.57661
100736.596679
100736.614662
100736.630317
100736.643338
100736.6532
100736.659197
100736.660291
100736.655279
100736.642978
100736.623415
100736.597503
100736.56615
100736.530449
100736.491528
100736.450265
100736.407406
100736.36353
100736.319136
100736.274611
100736.230293
100736.186433
100736.143257
100736.100927
100736.059598
100736.019384
100735.980406
100735.942762
100735.90657
100735.871939
100735.838998
100735.807874
100735.778716
100735.751663
100735.726875
100735.704495
100735.684675
100735.667546
100735.653239
100735.641854
100735.633395
100735.627822
100735.62515
100735.62535
100735.628359
100735.634071
100735.642345
100735.652999
100735.66582
100735.680556
100735.696926
100735.714602
100735.733207
100735.752281
100735.771284
100735.789613
100735.806711
100735.822208
100735.835984
100735.84804
100735.858322
100735.866718
100735.873252
100735.878226
100735.881917
100735.884045
100734.411591
100734.412938
100734.417474
100734.424588
100734.435392
100734.451011
100734.471839
100734.496189
100734.523026
100734.551155
100734.577202
100734.59829
100734.613851
100734.625673
100734.637213
100734.650797
100734.667129
100734.685867
100734.706384
100734.728061
100734.750461
100734.773243
100734.796206
100734.819188
100734.842116
100734.864936
100734.887664
100734.910318
100734.932979
100734.955722
100734.978671
100735.001935
100735.02566
100735.049965
100735.074998
100735.100867
100735.127702
100735.15559
100735.18463
100735.214877
100735.246399
100735.279215
100735.313359
100735.348816
100735.385588
100735.423632
100735.462886
100735.503216
100735.544536
100735.586741
100735.629751
100735.673441
100735.717716
100735.762436
100735.807493
100735.852739
100735.89806
100735.943304
100735.988355
100736.033063
100736.077319
100736.120979
100736.163945
100736.206085
100736.247315
100736.287518
100736.326625
100736.36453
100736.401176
100736.43646
100736.470324
100736.502654
100736.533368
100736.562312
100736.589345
100736.61423
100736.636716
100736.656421
100736.672909
100736.685564
100736.693677
100736.69636
100736.692731
100736.682042
100736.663996
100736.639385
100736.609126
100736.573697
100736.534032
100736.491016
100736.445498
100736.398202
100736.349802
100736.300859
100736.251882
100736.20328
100736.155417
100736.108574
100736.063005
100736.018898
100735.976431
100735.935738
100735.896954
100735.860187
100735.825554
100735.793155
100735.763103
100735.735496
100735.710443
100735.688037
100735.668379
100735.651547
100735.637619
100735.626675
100735.618681
100735.613535
100735.61123
100735.611719
100735.614937
100735.620779
100735.629118
100735.639789
100735.652607
100735.667346
100735.683756
100735.701539
100735.720354
100735.739793
100735.759396
100735.778679
100735.797208
100735.81469
100735.830982
100735.845917
100735.859069
100735.869839
100735.877936
100735.883779
100735.887828
100735.889958
100734.369611
100734.372238
100734.37888
100734.38902
100734.403656
100734.423172
100734.446565
100734.472524
100734.500039
100734.527638
100734.553441
100734.575719
100734.594238
100734.610159
100734.625408
100734.64159
100734.659502
100734.679193
100734.700381
100734.722654
100734.745667
100734.76911
100734.792778
100734.816496
100734.840173
100734.863735
100734.887176
100734.910497
100734.933758
100734.957017
100734.98038
100735.003941
100735.027831
100735.05216
100735.077064
100735.102648
100735.129038
100735.156321
100735.184603
100735.213946
100735.244428
100735.276082
100735.308957
100735.34306
100735.37841
100735.414988
100735.452774
100735.49165
100735.531523
100735.572314
100735.613971
100735.656395
100735.699516
100735.743219
100735.787421
100735.831997
100735.876853
100735.921856
100735.96691
100736.011876
100736.056659
100736.10112
100736.145165
100736.188659
100736.231513
100736.273596
100736.314818
100736.355049
100736.394197
100736.432118
100736.468707
100736.503792
100736.53723
100736.568801
100736.598294
100736.625404
100736.649817
100736.671103
100736.688801
100736.702317
100736.711023
100736.714196
100736.711187
100736.701459
100736.684818
100736.661389
100736.632164
100736.597871
100736.558929
100736.516143
100736.470281
100736.422085
100736.372269
100736.321459
100736.270247
100736.219126
100736.16855
100736.118886
100736.070467
100736.023554
100735.978386
100735.935147
100735.894011
100735.855113
100735.818585
100735.784533
100735.753065
100735.724267
100735.698231
100735.675027
100735.654728
100735.637386
100735.623054
100735.611763
100735.603494
100735.598132
100735.595615
100735.595889
100735.598886
100735.604505
100735.612626
100735.6231
100735.635756
100735.650393
100735.666783
100735.684659
100735.703712
100735.723586
100735.74389
100735.764217
100735.784209
100735.803601
100735.822233
100735.839887
100735.855939
100735.869319
100735.879213
100735.885937
100735.89014
100735.892131
100734.330784
100734.336072
100734.34571
100734.359624
100734.377925
100734.400046
100734.424856
100734.451303
100734.478352
100734.505005
100734.53022
100734.553085
100734.573381
100734.591761
100734.609438
100734.627512
100734.646678
100734.667129
100734.688782
100734.711382
100734.734683
100734.758426
100734.782432
100734.806535
100734.830647
100734.854685
100734.878636
100734.902489
100734.926291
100734.950083
100734.973957
100734.997989
100735.022296
100735.046971
100735.072139
100735.097894
100735.124355
100735.151606
100735.179749
100735.208849
100735.238988
100735.270208
100735.302567
100735.336082
100735.370789
100735.406678
100735.44379
100735.48201
100735.521221
100735.561366
100735.602408
100735.64427
100735.686899
100735.730198
100735.774101
100735.818495
100735.863303
100735.908401
100735.953702
100735.999072
100736.044419
100736.089605
100736.13453
100736.179053
100736.223071
100736.266436
100736.309039
100736.350723
100736.391365
100736.43079
100736.468852
100736.505343
100736.540078
100736.572796
100736.603249
100736.631103
100736.656021
100736.67757
100736.695306
100736.708688
100736.717178
100736.72019
100736.717232
100736.707908
100736.692077
100736.669822
100736.641541
100736.608021
100736.569998
100736.528004
100736.482713
100736.434731
100736.384764
100736.333459
100736.281422
100736.22918
100736.177234
100736.125999
100736.075858
100736.027127
100735.980092
100735.934981
100735.892009
100735.851339
100735.813132
100735.777508
100735.744587
100735.714459
100735.687214
100735.662917
100735.641632
100735.623399
100735.608257
100735.596221
100735.587289
100735.581333
100735.578254
100735.577997
100735.580492
100735.585641
100735.593331
100735.603423
100735.615761
100735.630159
100735.646408
100735.664265
100735.683452
100735.703653
100735.724528
100735.745726
100735.766934
100735.787903
100735.808459
100735.828387
100735.847042
100735.863007
100735.874849
100735.882489
100735.886727
100735.88851
100734.310311
100734.318705
100734.329076
100734.344223
100734.363225
100734.384862
100734.408404
100734.43351
100734.459171
100734.48451
100734.508765
100734.531349
100734.55216
100734.571604
100734.590469
100734.609521
100734.629322
100734.650099
100734.671872
100734.694493
100734.717793
100734.741566
100734.765664
100734.789939
100734.814306
100734.838686
100734.86306
100734.887409
100734.911767
100734.936162
100734.960668
100734.985344
100735.01029
100735.035583
100735.061331
100735.087616
100735.114545
100735.142192
100735.170656
100735.199998
100735.230299
100735.261603
100735.293973
100735.327432
100735.362022
100735.39774
100735.434689
100735.472768
100735.511825
100735.551808
100735.592693
100735.634414
100735.676933
100735.720166
100735.764056
100735.808504
100735.853437
100735.89874
100735.944328
100735.990072
100736.035877
100736.081601
100736.127139
100736.172338
100736.217085
100736.261215
100736.3046
100736.347061
100736.388453
100736.428574
100736.467252
100736.504252
100736.539364
100736.572304
100736.602807
100736.630529
100736.655134
100736.676203
100736.693328
100736.706023
100736.713838
100736.716291
100736.713008
100736.703688
100736.688241
100736.666734
100736.639467
100736.606933
100736.569585
100736.528395
100736.48395
100736.436552
100736.387063
100736.335983
100736.28392
100736.231416
100736.178978
100736.127044
100736.076027
100736.026271
100735.978098
100735.931769
100735.887527
100735.845565
100735.806065
100735.769169
100735.735011
100735.703692
100735.675308
100735.649926
100735.627612
100735.608401
100735.59233
100735.579409
100735.569661
100735.562957
100735.559165
100735.558227
100735.560074
100735.564612
100735.571734
100735.581309
100735.593189
100735.607203
100735.623155
100735.64082
100735.659947
100735.680251
100735.701428
100735.723171
100735.745198
100735.767272
100735.789215
100735.810827
100735.83154
100735.849793
100735.863564
100735.87216
100735.876414
100735.877974
100734.306291
100734.31853
100734.32725
100734.340643
100734.357304
100734.376484
100734.397697
100734.420341
100734.443621
100734.466804
100734.4893
100734.510696
100734.530931
100734.55027
100734.569246
100734.5884
100734.60817
100734.628774
100734.650278
100734.672602
100734.695635
100734.719216
100734.743224
100734.767526
100734.792045
100734.816701
100734.841471
100734.866325
100734.891285
100734.916361
100734.941611
100734.967074
100734.992831
100735.018939
100735.04549
100735.072549
100735.100209
100735.128534
100735.157612
100735.187498
100735.218271
100735.249973
100735.282668
100735.316383
100735.351163
100735.387017
100735.424019
100735.462178
100735.501376
100735.541456
100735.582413
100735.624194
100735.666772
100735.710071
100735.754047
100735.798604
100735.843679
100735.889158
100735.934961
100735.980958
100736.027051
100736.073095
100736.118978
100736.16454
100736.209653
100736.25414
100736.297859
100736.340613
100736.38224
100736.422517
100736.461256
100736.498204
100736.533134
100736.565753
100736.595789
100736.622898
100736.646756
100736.666969
100736.683163
100736.694911
100736.701832
100736.703533
100736.699723
100736.690175
100736.674835
100736.653768
100736.627233
100736.595575
100736.559301
100736.519029
100736.475289
100736.428814
100736.380081
100736.329533
100736.27794
100736.225705
100736.173343
100736.12131
100736.070025
100736.01985
100735.971125
100735.924132
100735.879137
100735.836353
100735.795982
100735.758181
100735.723099
100735.690849
100735.661535
100735.635232
100735.612007
100735.591899
100735.574944
100735.561151
100735.550582
100735.543118
100735.538586
100735.536927
100735.538077
100735.541941
100735.548419
100735.557383
100735.568695
100735.58219
100735.597686
100735.614971
100735.633813
100735.653953
100735.675118
100735.697032
100735.719437
100735.742111
100735.764875
100735.78754
100735.809642
100735.829657
100735.845125
100735.854637
100735.858934
100735.860286
100734.306709
100734.323478
100734.330091
100734.340951
100734.354986
100734.371372
100734.389733
100734.409407
100734.429801
100734.450327
100734.470528
100734.490096
100734.508994
100734.5274
100734.545691
100734.564258
100734.583446
100734.603447
100734.624349
100734.646114
100734.668672
100734.691897
100734.71569
100734.73993
100734.764546
100734.789454
100734.814622
100734.840007
100734.865616
100734.89144
100734.917516
100734.943863
100734.970539
100734.997583
100735.025064
100735.053031
100735.081563
100735.110708
100735.140545
100735.171121
100735.202509
100735.234748
100735.267901
100735.301995
100735.337082
100735.373172
100735.410308
100735.44863
100735.488047
100735.528293
100735.569379
100735.611258
100735.653912
100735.697275
100735.741309
100735.785926
100735.831067
100735.876623
100735.922515
100735.968612
100736.014816
100736.060978
100736.10698
100736.152654
100736.197864
100736.242422
100736.286173
100736.328907
100736.370448
100736.410562
100736.449044
100736.485633
100736.520091
100736.552122
100736.581453
100736.607747
100736.630694
100736.649926
100736.665107
100736.675859
100736.681861
100736.682786
100736.678413
100736.668567
100736.653225
100736.632455
100736.606488
100736.575634
100736.540335
100736.501061
100736.458411
100736.412955
100736.36508
100736.315528
100736.264707
100736.212963
100736.161084
100736.109381
100736.058263
100736.008118
100735.959298
100735.912092
100735.866779
100735.823588
100735.782733
100735.744386
100735.708707
100735.675817
100735.64583
100735.618826
100735.594878
100735.574028
100735.556311
100735.541737
100735.530411
100735.522246
100735.517012
100735.514657
100735.515112
100735.518289
100735.524086
100735.532381
100735.54304
100735.555904
100735.5708
100735.587528
100735.605872
100735.625591
100735.646439
100735.668161
100735.690524
100735.713316
100735.73636
100735.759477
100735.782289
100735.80342
100735.820168
100735.830439
100735.834799
100735.835963
100734.303221
100734.324648
100734.329691
100734.338682
100734.350498
100734.364413
100734.379992
100734.39679
100734.414342
100734.432188
100734.449978
100734.467485
100734.484689
100734.501725
100734.518877
100734.536442
100734.554704
100734.573831
100734.593925
100734.614976
100734.636944
100734.659732
100734.683255
100734.707406
100734.732109
100734.757278
100734.782866
100734.808817
100734.835116
100734.861735
100734.888687
100734.915968
100734.943614
100734.97164
100735.000097
100735.029014
100735.058453
100735.088451
100735.119073
100735.150359
100735.182375
100735.215157
100735.248765
100735.283227
100735.318596
100735.354884
100735.392118
100735.430537
100735.470093
100735.510458
100735.551618
100735.59353
100735.636186
100735.679527
100735.723522
100735.768091
100735.81318
100735.858683
100735.904524
100735.950573
100735.996733
100736.042849
100736.088801
100736.134414
100736.179546
100736.223999
100736.267609
100736.310157
100736.351454
100736.391257
100736.429353
100736.465471
100736.49937
100736.53075
100736.559342
100736.58482
100736.606888
100736.625203
100736.639461
100736.649328
100736.654533
100736.654803
100736.649967
100736.639892
100736.624582
100736.604108
100736.578684
100736.54859
100736.51422
100736.476007
100736.434455
100736.390053
100736.343383
100736.295029
100736.245183
100736.194548
100736.143606
100736.092437
100736.041757
100735.99202
100735.94347
100735.896409
100735.851141
100735.807897
100735.766899
100735.72833
100735.692356
100735.659106
100735.628703
100735.601231
100735.576767
100735.555355
100735.537033
100735.521804
100735.509809
100735.501004
100735.495136
100735.492135
100735.49193
100735.494429
100735.499535
100735.507126
100735.517072
100735.529217
100735.543395
100735.559416
100735.577074
100735.596147
100735.616406
100735.637617
100735.659562
100735.682042
100735.704882
100735.727909
100735.75081
100735.7724
100735.789914
100735.800685
100735.805092
100735.806087
100734.2917
100734.317829
100734.322051
100734.329639
100734.339499
100734.351197
100734.364394
100734.37871
100734.393781
100734.40924
100734.424824
100734.440363
100734.45586
100734.471427
100734.487299
100734.50372
100734.520936
100734.539106
100734.558342
100734.578656
100734.600034
100734.6224
100734.645684
100734.669782
100734.694617
100734.720093
100734.746149
100734.77271
100734.799739
100734.827185
100734.855035
100734.883264
100734.911881
100734.940879
100734.970291
100735.000125
100735.030429
100735.061224
100735.092567
100735.124488
100735.157049
100735.190281
100735.224247
100735.258975
100735.294521
100735.330905
100735.368179
100735.40638
100735.44577
100735.486188
100735.527314
100735.56914
100735.61167
100735.654857
100735.698679
100735.743063
100735.787963
100735.833279
100735.878937
100735.924811
100735.970801
100736.016754
100736.062546
100736.107997
100736.15296
100736.197231
100736.240636
100736.282949
100736.323973
100736.363456
100736.401177
100736.436861
100736.470263
100736.501083
100736.529056
100736.553864
100736.575228
100736.592825
100736.606383
100736.615601
100736.620249
100736.620097
100736.615012
100736.604896
100736.589771
100736.569713
100736.544927
100736.515665
100736.482291
100736.445195
100736.404838
100736.361686
100736.316246
100736.268981
100736.220395
100736.171087
100736.121318
100736.071324
100736.021745
100735.972805
100735.924729
100735.878087
100735.833193
100735.790205
100735.749359
100735.710854
100735.674863
100735.641513
100735.610938
100735.583223
100735.558449
100735.536664
100735.517911
100735.502203
100735.489558
100735.480113
100735.473729
100735.470158
100735.469341
100735.471191
100735.47561
100735.482479
100735.491669
100735.503029
100735.516396
100735.531587
100735.548407
100735.566646
100735.586089
100735.606518
100735.627728
100735.649527
100735.671747
100735.694215
100735.716666
100735.73812
100735.755871
100735.766841
100735.771243
100735.77208
100734.270519
100734.300672
100734.304076
100734.310157
100734.318398
100734.328345
100734.339665
100734.35202
100734.365109
100734.378635
100734.392395
100734.406266
100734.420267
100734.434506
100734.449191
100734.464542
100734.480787
100734.498086
100734.516561
100734.536245
100734.557147
100734.579206
100734.602363
100734.626516
100734.651583
100734.677456
100734.704057
100734.731289
100734.759092
100734.787391
100734.816148
100734.84531
100734.874865
100734.904785
100734.935079
100734.965742
100734.996803
100735.028274
100735.060201
100735.092607
100735.125551
100735.159061
100735.193201
100735.228
100735.263521
100735.299786
100735.336851
100735.374716
100735.413775
100735.453953
100735.494836
100735.536384
100735.578607
100735.621466
100735.664951
100735.708996
100735.753564
100735.798559
100735.843915
100735.889506
100735.935236
100735.98095
100736.026523
100736.071773
100736.116547
100736.160635
100736.203858
100736.245982
100736.286802
100736.32606
100736.363529
100736.398928
100736.432009
100736.462473
100736.490058
100736.514456
100736.535399
100736.552584
100736.565762
100736.574663
100736.579087
100736.578838
100736.573816
100736.563944
100736.549261
100736.529846
100736.505896
100736.477646
100736.445431
100736.409609
100736.37061
100736.328863
100736.284839
100736.238991
100736.191801
100736.143699
100736.095119
100736.046513
100735.998312
100735.950609
100735.903741
100735.858164
100735.814003
100735.771465
100735.730996
100735.692841
100735.657088
100735.623873
100735.593346
100735.565599
100735.540705
100735.518714
100735.499673
100735.483588
100735.470453
100735.460501
100735.453651
100735.449558
100735.448167
100735.449391
100735.453131
100735.459268
100735.467674
100735.478199
100735.490684
100735.504951
100735.520813
100735.538068
100735.556513
100735.575941
100735.596156
100735.616973
100735.638226
100735.659745
100735.681296
100735.702104
100735.719608
100735.730481
100735.734804
100735.735488
100734.236364
100734.269488
100734.272068
100734.277225
100734.284405
100734.29317
100734.303196
100734.314176
100734.325847
100734.337963
100734.350366
100734.362971
100734.375814
100734.389007
100734.40275
100734.417254
100734.432744
100734.449386
100734.467316
100734.486587
100734.507223
100734.529178
100734.552399
100734.576782
100734.602237
100734.628642
100734.655897
100734.683885
100734.71252
100734.741701
100734.771363
100734.801431
100734.831869
100734.862626
100734.893695
100734.925052
100734.956717
100734.988689
100735.021008
100735.053692
100735.086798
100735.120355
100735.15443
100735.189057
100735.224306
100735.260207
100735.296827
100735.334185
100735.372477
100735.411972
100735.452442
100735.493514
100735.535233
100735.577577
100735.620547
100735.66409
100735.708178
100735.752724
100735.797668
100735.842888
100735.888292
100735.933725
100735.979062
100736.024118
100736.068738
100736.112705
100736.155835
100736.197888
100736.238651
100736.27786
100736.315281
100736.350629
100736.383653
100736.414053
100736.441571
100736.465903
100736.486793
100736.503954
100736.517154
100736.526148
100736.53076
100736.530821
100736.526251
100736.516995
100736.503099
100736.484648
100736.46183
100736.434864
100736.404066
100736.369764
100736.332361
100736.292256
100736.249894
100736.205701
100736.160128
100736.113594
100736.066528
100736.019318
100735.972339
100735.925926
100735.880493
100735.836296
100735.793397
100735.752034
100735.712598
100735.675165
100735.639834
100735.606904
100735.576664
100735.549097
100735.524265
100735.502236
100735.483061
100735.46674
100735.453258
100735.442877
100735.435597
100735.431031
100735.429109
100735.429735
100735.432811
100735.438215
100735.445821
100735.455479
100735.467033
100735.480308
100735.495123
100735.511281
100735.528588
100735.546845
100735.565862
100735.585459
100735.605469
100735.625723
100735.64601
100735.665755
100735.682591
100735.693108
100735.697269
100735.697802
100734.186182
100734.221742
100734.22412
100734.228885
100734.235558
100734.243713
100734.253028
100734.263209
100734.274021
100734.285254
100734.296785
100734.308558
100734.320632
100734.333128
100734.346252
100734.360218
100734.375256
100734.391542
100734.409228
100734.428382
100734.449042
100734.471169
100734.494711
100734.519559
100734.545611
100734.572724
100734.60078
100734.629635
100734.659176
100734.689275
100734.719844
100734.750781
100734.782029
100734.813518
100734.845223
100734.877109
100734.909183
100734.941437
100734.973908
100735.00661
100735.039603
100735.07292
100735.106631
100735.14078
100735.175445
100735.210668
100735.246526
100735.283057
100735.320323
100735.358823
100735.398516
100735.438837
100735.479804
100735.521403
100735.563653
100735.60651
100735.64996
100735.693923
100735.738348
100735.78312
100735.828148
100735.873281
100735.918394
100735.9633
100736.00784
100736.051794
100736.094972
100736.137126
100736.178039
100736.217438
100736.255082
100736.290682
100736.323983
100736.354683
100736.382523
100736.407206
100736.428483
100736.446078
100736.459773
100736.46934
100736.474624
100736.475472
100736.471821
100736.463629
100736.45095
100736.433868
100736.412564
100736.387246
100736.358207
100736.325757
100736.29027
100736.252121
100736.211729
100736.169496
100736.125852
100736.081195
100736.035938
100735.990451
100735.945111
100735.90025
100735.8562
100735.81323
100735.771613
100735.731649
100735.693552
100735.657328
100735.623064
100735.591106
100735.561563
100735.534368
100735.509722
100735.4878
100735.46867
100735.452279
100735.438621
100735.427805
100735.420043
100735.415104
100735.412711
100735.412779
100735.415215
100735.419898
100735.426701
100735.435475
100735.446066
100735.458304
100735.47201
100735.486993
100735.503062
100735.520025
100735.537695
100735.555893
100735.574449
100735.593195
100735.611935
100735.630279
100735.646092
100735.656031
100735.659951
100735.660336
100734.119324
100734.15666
100734.159126
100734.163912
100734.170545
100734.178588
100734.187709
100734.197614
100734.208077
100734.21891
100734.230019
100734.241379
100734.253068
100734.265231
100734.278085
100734.291857
100734.306789
100734.323073
100734.340869
100734.360261
100734.381291
100734.403924
100734.428101
100734.453702
100734.480606
100734.508649
100734.537686
100734.567544
100734.598085
100734.629152
100734.660631
100734.692398
100734.724373
100734.75647
100734.78865
100734.820866
100734.853119
100734.885396
100734.917733
100734.950147
100734.982702
100735.015438
100735.048437
100735.081751
100735.115474
100735.149661
100735.184406
100735.21976
100735.255804
100735.292799
100735.33113
100735.370457
100735.410413
100735.451025
100735.492331
100735.534305
100735.576944
100735.620184
100735.663981
100735.708227
100735.752838
100735.797666
100735.842586
100735.887409
100735.931976
100735.97606
100736.019467
100736.061941
100736.103258
100736.143137
100736.181332
100736.217545
100736.251516
100736.282941
100736.31156
100736.337076
100736.359244
100736.377796
100736.392525
100736.403214
100736.409718
100736.411901
100736.409709
100736.403106
100736.392152
100736.376927
100736.357605
100736.334381
100736.307532
100736.277345
100736.244175
100736.20837
100736.170328
100736.130427
100736.089078
100736.046659
100736.003566
100735.960158
100735.916798
100735.873808
100735.83151
100735.790178
100735.750089
100735.711474
100735.674548
100735.639475
100735.606466
100735.575738
100735.547231
100735.520957
100735.497087
100735.47575
100735.456919
100735.440583
100735.426804
100735.415657
100735.407498
100735.402236
100735.399402
100735.398939
100735.400757
100735.404733
100735.410736
100735.418619
100735.428233
100735.439408
100735.451969
100735.465727
100735.480495
100735.496082
100735.512304
100735.528979
100735.545936
100735.562999