/*--------------------------------*- C++ -*----------------------------------*\
| =========                 |                                                 |
| \\      /  F ield         | OpenFOAM: The Open Source CFD Toolbox           |
|  \\    /   O peration     | Version:  2206                                  |
|   \\  /    A nd           | Website:  www.openfoam.com                      |
|    \\/     M anipulation  |                                                 |
\*---------------------------------------------------------------------------*/
FoamFile
{
    version     2.0;
    format      ascii;
    arch        "LSB;label=64;scalar=64";
    class       volVectorField;
    location    "2/water";
    object      U.gas;
}
// * * * * * * * * * * * * * * * * * * * * * * * * * * * * * * * * * * * * * //

dimensions      [0 1 -1 0 0 0 0];

internalField   nonuniform List<vector> 
23300
(
(0.000436759114361 0.135875531124 0)
(0.00119931939507 0.135924760002 0)
(0.00183322103136 0.135998971445 0)
(0.0023641071696 0.136103980975 0)
(0.00271650927736 0.136219873502 0)
(0.00288681107158 0.136332763608 0)
(0.00289745110684 0.13643063287 0)
(0.00278632202155 0.13650820393 0)
(0.00259453876129 0.136562095692 0)
(0.00236213887397 0.136621209777 0)
(0.00222963204431 0.136816689424 0)
(0.00230461699836 0.137183430078 0)
(0.00211647966107 0.137301687071 0)
(0.00108814931287 0.137196048569 0)
(-0.000493823596643 0.137121804993 0)
(-0.00204437059936 0.137101879522 0)
(-0.00341340595845 0.13709432048 0)
(-0.00470436439524 0.137080888126 0)
(-0.0060139833081 0.137057719259 0)
(-0.00736452428918 0.137028893613 0)
(-0.00874845211587 0.136995573322 0)
(-0.0101533231524 0.13696115612 0)
(-0.0115672593607 0.136925676844 0)
(-0.0129799017901 0.136891670821 0)
(-0.0143823331461 0.136858500838 0)
(-0.0157668205238 0.13682824713 0)
(-0.0171265869657 0.136799866596 0)
(-0.0184556072118 0.136775167112 0)
(-0.0197484923511 0.136752823618 0)
(-0.0210003594388 0.136734471739 0)
(-0.022206779366 0.136718599197 0)
(-0.0233636840202 0.136706753231 0)
(-0.0244673454253 0.136697324652 0)
(-0.0255143145029 0.136691842015 0)
(-0.0265014211096 0.136688673279 0)
(-0.0274257404309 0.136689369548 0)
(-0.0282845982699 0.136692322362 0)
(-0.0290755597366 0.136699116082 0)
(-0.0297964272698 0.136708187685 0)
(-0.0304452455 0.136721142629 0)
(-0.0310202804885 0.136736469949 0)
(-0.0315200413828 0.136755773802 0)
(-0.0319432370652 0.136777596843 0)
(-0.0322888063828 0.13680351802 0)
(-0.0325557863416 0.136832134266 0)
(-0.0327421806079 0.136864949916 0)
(-0.0328456976726 0.136900598845 0)
(-0.0328666993866 0.136940414442 0)
(-0.0328067186982 0.13698298882 0)
(-0.0326662451031 0.137029707317 0)
(-0.032445247312 0.137079304489 0)
(-0.0321440125938 0.137132989847 0)
(-0.0317630378008 0.137189466844 0)
(-0.0313031758351 0.137249765754 0)
(-0.0307654943444 0.13731256766 0)
(-0.0301514412068 0.137378720677 0)
(-0.0294626977827 0.137446873148 0)
(-0.0287013558621 0.137517679472 0)
(-0.0278697632025 0.137589735041 0)
(-0.0269707026883 0.137663484638 0)
(-0.0260072258237 0.137737443453 0)
(-0.0249828302703 0.137811827155 0)
(-0.023901282863 0.137885037737 0)
(-0.0227667916457 0.137957038305 0)
(-0.0215838171237 0.138026080149 0)
(-0.0203572408402 0.138091847904 0)
(-0.0190921717858 0.13815240492 0)
(-0.0177941165014 0.138207135924 0)
(-0.0164687911316 0.138253892332 0)
(-0.0151223095602 0.13829176256 0)
(-0.013761031126 0.138318408081 0)
(-0.0123917940901 0.138332698093 0)
(-0.0110218425213 0.138332241753 0)
(-0.00965914000727 0.1383159386 0)
(-0.00831242255513 0.138281734606 0)
(-0.00699158604225 0.138229167828 0)
(-0.00570782509247 0.138157415799 0)
(-0.00447385697759 0.138067979113 0)
(-0.00330352674079 0.137963170295 0)
(-0.00220985918236 0.137849166017 0)
(-0.00119822323165 0.137734985947 0)
(-0.000247980579106 0.137635055013 0)
(0.000676151527018 0.137564147592 0)
(0.0015789288759 0.137534435721 0)
(0.0024351326725 0.137548999096 0)
(0.00325322457061 0.137606918017 0)
(0.00409574006808 0.137697118626 0)
(0.00501877069257 0.137801632186 0)
(0.00603582439144 0.137903936888 0)
(0.00713647144895 0.137993188815 0)
(0.00830243980658 0.138061644165 0)
(0.00951475509531 0.138106227496 0)
(0.0107554746573 0.138125256037 0)
(0.012008851562 0.138120177331 0)
(0.0132608147906 0.138092491867 0)
(0.014499093745 0.138045770305 0)
(0.0157124610703 0.137982780028 0)
(0.0168907700038 0.137907704563 0)
(0.0180243806686 0.137823441654 0)
(0.0191043033506 0.137733939604 0)
(0.020121834923 0.137641640135 0)
(0.0210687993281 0.137549861027 0)
(0.0219373270185 0.137460364065 0)
(0.0227201404916 0.137375727439 0)
(0.0234104008796 0.137297024469 0)
(0.0240019888918 0.137226141871 0)
(0.024489366032 0.137163559554 0)
(0.0248678304397 0.137110581733 0)
(0.0251333808684 0.137067211765 0)
(0.0252829656019 0.137034269836 0)
(0.0253143842606 0.137011353665 0)
(0.0252265843541 0.136998809445 0)
(0.0250190216175 0.136995761512 0)
(0.0246921621543 0.137002516572 0)
(0.0242473910153 0.137018870177 0)
(0.0236859303014 0.137045093174 0)
(0.0230088145454 0.137080363361 0)
(0.0222178560365 0.137124624763 0)
(0.0213156541715 0.137177023458 0)
(0.0203057225666 0.137237364238 0)
(0.0191923479214 0.137304644477 0)
(0.0179808388215 0.137378337562 0)
(0.0166775675839 0.137457009871 0)
(0.0152904957357 0.137539373792 0)
(0.013829681504 0.13762290607 0)
(0.0123085848031 0.137704504229 0)
(0.0107458347532 0.137778798823 0)
(0.00916812949343 0.137837848271 0)
(0.00761232859943 0.137868492323 0)
(0.00612331948628 0.137851928045 0)
(0.00474490541657 0.137767502985 0)
(0.00351344612736 0.13760907561 0)
(0.00246133287292 0.137400899967 0)
(0.00161484682085 0.137189498123 0)
(0.000975468078544 0.1370130581 0)
(0.00051154428063 0.136882906988 0)
(0.000179314258205 0.136786058555 0)
(-4.33582238193e-05 0.13669390818 0)
(-0.000134331435131 0.136578977456 0)
(-7.04727746903e-05 0.136473754534 0)
(0.000561867839703 0.245087520309 0)
(0.00162117766915 0.24523043492 0)
(0.00257190416001 0.245481937989 0)
(0.00338800468394 0.24581786786 0)
(0.00401460818441 0.24619178 0)
(0.00443869865953 0.246568044805 0)
(0.00465303937971 0.246920064892 0)
(0.00463727709549 0.247252768449 0)
(0.00432088675936 0.247655959075 0)
(0.00364188858161 0.248272926054 0)
(0.00272910200787 0.249116328722 0)
(0.00188130304838 0.24992581034 0)
(0.00107121405908 0.250190605193 0)
(-3.0770797253e-05 0.250071154511 0)
(-0.00145738092807 0.249962218034 0)
(-0.00297622293676 0.249955182192 0)
(-0.00443064507367 0.249996372356 0)
(-0.00581338388458 0.250038380206 0)
(-0.00716748839217 0.250059574277 0)
(-0.00851824183636 0.250058693333 0)
(-0.00987329793758 0.250034710229 0)
(-0.011231203652 0.24999289989 0)
(-0.0125866810047 0.249933842237 0)
(-0.0139331056811 0.24986273697 0)
(-0.0152636568845 0.249779461672 0)
(-0.0165718094338 0.249688505631 0)
(-0.0178515372082 0.249589035581 0)
(-0.0190973350888 0.249485066245 0)
(-0.0203041986232 0.249375324233 0)
(-0.0214675499825 0.249263586043 0)
(-0.0225831956494 0.249148318538 0)
(-0.0236472680709 0.249033165135 0)
(-0.0246562129196 0.248916404244 0)
(-0.0256067655269 0.248801560818 0)
(-0.0264959622715 0.248686743695 0)
(-0.0273211360219 0.248575338221 0)
(-0.0280799281516 0.248465293582 0)
(-0.0287702853466 0.248359834343 0)
(-0.0293904588054 0.24825677133 0)
(-0.0299389969474 0.248159155306 0)
(-0.0304147282407 0.248064690816 0)
(-0.0308167533473 0.247976250236 0)
(-0.0311444165405 0.247891469769 0)
(-0.031397305635 0.247813040262 0)
(-0.0315752560304 0.247738562146 0)
(-0.0316776502823 0.247670527943 0)
(-0.0317038982144 0.247606637364 0)
(-0.0316548390674 0.247549240754 0)
(-0.0315316543232 0.247495964679 0)
(-0.0313351877962 0.247449006454 0)
(-0.031066395894 0.247406104982 0)
(-0.0307264331124 0.247369246608 0)
(-0.0303166097848 0.247336193515 0)
(-0.0298384616741 0.247308705505 0)
(-0.0292937148776 0.24728457163 0)
(-0.0286843535283 0.247265323696 0)
(-0.0280125769722 0.247248771158 0)
(-0.0272808677871 0.247236213667 0)
(-0.0264919442382 0.247225465202 0)
(-0.0256488267714 0.247217586604 0)
(-0.0247547834455 0.247210374137 0)
(-0.0238133917374 0.247204643881 0)
(-0.0228284765738 0.247198150274 0)
(-0.0218041646878 0.247191460625 0)
(-0.0207448115122 0.247182266324 0)
(-0.0196550442105 0.247170889966 0)
(-0.0185396754577 0.247154951089 0)
(-0.0174037306273 0.247134549585 0)
(-0.0162523425104 0.247107254011 0)
(-0.0150907551129 0.247073006873 0)
(-0.0139241943338 0.247029412126 0)
(-0.0127578375414 0.24697641163 0)
(-0.0115966470916 0.246911863212 0)
(-0.010445277889 0.246836047724 0)
(-0.00930783218921 0.246747543363 0)
(-0.00818760866774 0.246647635591 0)
(-0.00708660777352 0.246536503734 0)
(-0.00600479069182 0.246417609842 0)
(-0.00493879317592 0.246294179359 0)
(-0.00387983630098 0.246173526548 0)
(-0.0028109472117 0.246063361935 0)
(-0.00170625786594 0.245974502732 0)
(-0.000549379893131 0.245912666617 0)
(0.000634494389066 0.245882472544 0)
(0.00179487332725 0.245882311806 0)
(0.00290114519619 0.245914649545 0)
(0.00395125461108 0.245979257563 0)
(0.00496426751493 0.246067302149 0)
(0.00596317909357 0.24616534705 0)
(0.00696206804994 0.246264092417 0)
(0.0079682324523 0.246355219009 0)
(0.00898454237913 0.24643530287 0)
(0.0100107919993 0.246501188301 0)
(0.0110448015422 0.246553666817 0)
(0.0120828209634 0.246592741259 0)
(0.0131200305385 0.246621460528 0)
(0.0141506569263 0.24664131127 0)
(0.0151682905423 0.246656190759 0)
(0.0161659473841 0.246667966846 0)
(0.0171363328136 0.246680526574 0)
(0.018071903594 0.246695509551 0)
(0.0189651054605 0.246716361675 0)
(0.0198084322749 0.246744237491 0)
(0.020594630323 0.246781993116 0)
(0.0213167354384 0.246830252612 0)
(0.02196823158 0.246891285776 0)
(0.0225430521997 0.246965235164 0)
(0.0230356904511 0.247053836337 0)
(0.023441162959 0.247156805286 0)
(0.0237550722252 0.247275368546 0)
(0.0239735183613 0.247408810584 0)
(0.024093093057 0.24755778925 0)
(0.0241116164434 0.247721049422 0)
(0.0240285431162 0.247898650658 0)
(0.0238426844019 0.248089864867 0)
(0.0235518156807 0.248295468909 0)
(0.0231547212013 0.24851396028 0)
(0.0226514092489 0.248744959554 0)
(0.0220424054681 0.248986554328 0)
(0.0213287858037 0.249237738083 0)
(0.0205121376103 0.249495965516 0)
(0.0195946456708 0.24975932584 0)
(0.0185791389617 0.250024256366 0)
(0.0174693658608 0.250287323445 0)
(0.0162704077379 0.250542871764 0)
(0.0149895694245 0.250783944565 0)
(0.0136376261768 0.250999022953 0)
(0.012230301502 0.251170721701 0)
(0.0107885330491 0.251270341279 0)
(0.00933614638057 0.251256287534 0)
(0.00789663662307 0.25107961177 0)
(0.00649700684499 0.250711923665 0)
(0.0051794662436 0.250183599303 0)
(0.00400002611165 0.249594881575 0)
(0.00299753885669 0.249065901555 0)
(0.00216421523376 0.248664179712 0)
(0.00145772491538 0.248373770782 0)
(0.000846342261271 0.24810910667 0)
(0.000355577282714 0.247759711816 0)
(7.41994129676e-05 0.247352038158 0)
(0.000559367442887 0.221882847413 0)
(0.00159225546277 0.222136767424 0)
(0.00248627884807 0.22260484734 0)
(0.00321842341632 0.223209860432 0)
(0.00371998819124 0.223886458671 0)
(0.00396276711919 0.224591651127 0)
(0.00390923109441 0.225330891023 0)
(0.00349368864276 0.226223310508 0)
(0.00269104692782 0.227342489365 0)
(0.00166215179451 0.22863606047 0)
(0.000725650084555 0.229895199853 0)
(8.55408557577e-08 0.230734291579 0)
(-0.000785226972294 0.231044371597 0)
(-0.00189232797148 0.231058789386 0)
(-0.00328622826628 0.231023702318 0)
(-0.00479752388259 0.231055306878 0)
(-0.0063005113129 0.2311447987 0)
(-0.00775363081176 0.231250003705 0)
(-0.00916315382001 0.231338915959 0)
(-0.0105439977603 0.231398000834 0)
(-0.0119058054883 0.231420255909 0)
(-0.0132521349371 0.231406473232 0)
(-0.0145825014076 0.231356701277 0)
(-0.0158941435575 0.231274889914 0)
(-0.0171831927037 0.231162264198 0)
(-0.01844534886 0.231023099995 0)
(-0.0196762864576 0.230858563169 0)
(-0.0208718347327 0.230672835234 0)
(-0.0220280752391 0.230466949494 0)
(-0.0231413408997 0.230245027756 0)
(-0.0242082184487 0.230007994812 0)
(-0.0252255112866 0.229759873235 0)
(-0.0261902369022 0.22950139211 0)
(-0.0270996074203 0.229236341397 0)
(-0.0279510426995 0.228965126003 0)
(-0.0287421699329 0.228691172073 0)
(-0.0294708398 0.228414475812 0)
(-0.0301351333689 0.228138033455 0)
(-0.030733368568 0.227861423927 0)
(-0.0312641062827 0.227587215759 0)
(-0.0317261412732 0.227314620297 0)
(-0.0321185097512 0.227045824433 0)
(-0.0324404691402 0.226779751073 0)
(-0.032691518108 0.22651826552 0)
(-0.0328713818745 0.226260083806 0)
(-0.0329790279785 0.22600683424 0)
(-0.0330133189407 0.225757190157 0)
(-0.0329750305611 0.22551277287 0)
(-0.0328655743946 0.225272376469 0)
(-0.0326858025498 0.225037333525 0)
(-0.0324364866517 0.224806295411 0)
(-0.0321186116121 0.224580544066 0)
(-0.0317333199093 0.224358825853 0)
(-0.0312819748099 0.2241423755 0)
(-0.0307661150442 0.223930040152 0)
(-0.0301875237237 0.223723016111 0)
(-0.0295481782491 0.223520261229 0)
(-0.0288503197023 0.223322944899 0)
(-0.028096398038 0.223130141534 0)
(-0.0272891373357 0.222943004067 0)
(-0.0264314733144 0.222760726176 0)
(-0.0255266115666 0.222584456728 0)
(-0.024577956005 0.22241351293 0)
(-0.0235891547105 0.222249056621 0)
(-0.0225640145263 0.222090538201 0)
(-0.0215065304805 0.22193915808 0)
(-0.0204207829081 0.221794519364 0)
(-0.0193109428327 0.221657896921 0)
(-0.018181144432 0.221529077311 0)
(-0.0170354589917 0.221409456151 0)
(-0.0158777367913 0.221299043007 0)
(-0.0147115373722 0.221199402925 0)
(-0.0135399299606 0.221110802027 0)
(-0.0123653597484 0.221035001785 0)
(-0.011189381294 0.220972508237 0)
(-0.0100124018053 0.22092520312 0)
(-0.00883326741597 0.220893612976 0)
(-0.00764875059852 0.220879277831 0)
(-0.00645287224514 0.220881801526 0)
(-0.00523618127663 0.220900608604 0)
(-0.00398586771364 0.220931168615 0)
(-0.00268887119579 0.220965569188 0)
(-0.00134027928754 0.220988961762 0)
(3.19076650814e-05 0.220987811672 0)
(0.00137857168089 0.220959926749 0)
(0.00267950857689 0.220908852773 0)
(0.00393210422026 0.220845914847 0)
(0.00513321046813 0.220789469765 0)
(0.00628953906965 0.220746807935 0)
(0.00741106698039 0.220723380912 0)
(0.00850492834676 0.220720944507 0)
(0.00957589996154 0.220741399705 0)
(0.0106266726959 0.22078455547 0)
(0.0116584205692 0.220851038769 0)
(0.0126709691603 0.220939933203 0)
(0.0136631275652 0.221051423531 0)
(0.0146327172604 0.22118431397 0)
(0.0155768201608 0.221338595886 0)
(0.0164917925458 0.221512956325 0)
(0.0173734880098 0.221707294039 0)
(0.0182172901395 0.221920271262 0)
(0.0190183263344 0.222151773949 0)
(0.0197715159353 0.22240052469 0)
(0.0204717700178 0.222666467828 0)
(0.0211140356494 0.222948452688 0)
(0.0216934646408 0.223246523119 0)
(0.0222054344377 0.223559677336 0)
(0.0226456756481 0.223888045349 0)
(0.023010260075 0.224230732988 0)
(0.0232956833938 0.224587877626 0)
(0.0234988192053 0.224958589145 0)
(0.0236169701097 0.225342891138 0)
(0.0236478026252 0.225739790369 0)
(0.0235914462047 0.226148404811 0)
(0.0234486731207 0.226567456795 0)
(0.0232168817105 0.226997358046 0)
(0.0228938465211 0.22743662285 0)
(0.0224796938082 0.227884234666 0)
(0.0219748001946 0.228337980063 0)
(0.0213798991556 0.228795862786 0)
(0.0206960590871 0.229254642947 0)
(0.0199247819929 0.229711081244 0)
(0.0190680886114 0.230160550126 0)
(0.0181288208904 0.230597971854 0)
(0.0171110320535 0.231016208515 0)
(0.0160206406795 0.231406123829 0)
(0.0148659816597 0.231753822679 0)
(0.0136578550074 0.232038619421 0)
(0.0124079181449 0.232228455659 0)
(0.0111250712695 0.232278050957 0)
(0.0098118425673 0.232131821568 0)
(0.00846829113277 0.231741470517 0)
(0.00711004193271 0.231100852771 0)
(0.00578733809969 0.230289183799 0)
(0.00456853303614 0.229473299116 0)
(0.00348518585774 0.228816188986 0)
(0.00250759805091 0.228351707326 0)
(0.00159553455647 0.227951809145 0)
(0.000777695378695 0.227384275226 0)
(0.000201264471703 0.226517142902 0)
(0.000481479522927 0.223813218803 0)
(0.00135516502484 0.224203970086 0)
(0.00206612714915 0.224918948065 0)
(0.00256122237758 0.225843904821 0)
(0.00274318870949 0.22690264284 0)
(0.00256261217448 0.22807972233 0)
(0.00200992957871 0.229423030798 0)
(0.00113470143454 0.230972564765 0)
(9.46639381096e-05 0.232586550816 0)
(-0.000890855670752 0.234064979108 0)
(-0.00172377021746 0.235268742202 0)
(-0.00247735783863 0.23607470162 0)
(-0.0033059488237 0.236482125494 0)
(-0.00434177322276 0.236635657614 0)
(-0.00559790596502 0.236705359008 0)
(-0.00698436813863 0.236780825759 0)
(-0.00841167667871 0.23687836583 0)
(-0.009830135265 0.236982911888 0)
(-0.0112228264438 0.237072892174 0)
(-0.0125883449299 0.237133757905 0)
(-0.013929002089 0.237156183593 0)
(-0.015246259582 0.23713698207 0)
(-0.0165399107443 0.237074702739 0)
(-0.017808389288 0.236971029144 0)
(-0.0190492894847 0.23682735186 0)
(-0.020259762 0.236646969128 0)
(-0.0214368154039 0.23643216041 0)
(-0.0225774663534 0.236186735286 0)
(-0.0236788435073 0.235913241275 0)
(-0.0247381999974 0.235615633445 0)
(-0.0257529327349 0.235296470501 0)
(-0.0267205565341 0.234959631331 0)
(-0.0276387100348 0.234607474721 0)
(-0.0285051399266 0.234243597544 0)
(-0.0293177159988 0.233869976156 0)
(-0.0300744332272 0.233489768091 0)
(-0.0307734295222 0.233104456715 0)
(-0.0314129974917 0.23271668841 0)
(-0.0319915940349 0.232327434267 0)
(-0.0325078553417 0.23193884052 0)
(-0.0329605925429 0.231551417497 0)
(-0.0333488099427 0.231166877714 0)
(-0.0336716891596 0.230785363014 0)
(-0.0339286168326 0.230408243424 0)
(-0.0341191526982 0.230035397885 0)
(-0.0342422121388 0.229667956309 0)
(-0.0342962424356 0.229305458701 0)
(-0.0342812551708 0.228948989939 0)
(-0.0341986594155 0.228598571949 0)
(-0.0340494796825 0.228255108906 0)
(-0.0338342088006 0.2279182934 0)
(-0.0335535410797 0.227589035606 0)
(-0.0332083158851 0.227267110892 0)
(-0.032799578671 0.226953461814 0)
(-0.0323285268267 0.226647971331 0)
(-0.031796578068 0.226351630994 0)
(-0.031205314584 0.226064444085 0)
(-0.0305565503789 0.225787456908 0)
(-0.0298522710762 0.225520793479 0)
(-0.0290946959155 0.225265550722 0)
(-0.0282862110575 0.225021962774 0)
(-0.0274294220201 0.224791164824 0)
(-0.0265270784962 0.224573481994 0)
(-0.0255821131066 0.224370067653 0)
(-0.0245975543328 0.224181309262 0)
(-0.0235765470163 0.224008348545 0)
(-0.0225222503403 0.223851594702 0)
(-0.0214378353659 0.223712132646 0)
(-0.0203263643329 0.223590332242 0)
(-0.0191907602547 0.223487150048 0)
(-0.0180336660166 0.223402821482 0)
(-0.0168573819479 0.223338058435 0)
(-0.015663704848 0.223292808236 0)
(-0.0144538279938 0.223267346319 0)
(-0.013228159872 0.223261077819 0)
(-0.0119861731162 0.223273511877 0)
(-0.0107261992968 0.223303057721 0)
(-0.00944522695098 0.22334783518 0)
(-0.00813877783755 0.223404367249 0)
(-0.00680102978192 0.223468142976 0)
(-0.00542589393287 0.223532155164 0)
(-0.00400967266395 0.223587586513 0)
(-0.00255618009262 0.223623630898 0)
(-0.00108015110944 0.223630527243 0)
(0.000381010187555 0.223607971872 0)
(0.00179713315612 0.223563771101 0)
(0.00317352836898 0.2234981391 0)
(0.00450886840274 0.223419376536 0)
(0.00579337852116 0.223341059629 0)
(0.00702845398786 0.223270959249 0)
(0.00821698180943 0.223215722395 0)
(0.0093617403503 0.223180852366 0)
(0.0104647585328 0.223170261073 0)
(0.0115276996591 0.223187489473 0)
(0.0125515829475 0.223234647646 0)
(0.0135369238226 0.223313652389 0)
(0.0144835974348 0.223425246565 0)
(0.0153909568403 0.223570135342 0)
(0.0162577613071 0.223748008388 0)
(0.0170823203884 0.223958673323 0)
(0.0178624647483 0.224201092714 0)
(0.0185957049393 0.22447449743 0)
(0.019279238832 0.224777440411 0)
(0.0199101176306 0.225108870063 0)
(0.0204852688578 0.225467198085 0)
(0.0210016503553 0.225851316577 0)
(0.0214562672333 0.226259677869 0)
(0.0218462994478 0.226691243797 0)
(0.0221690993118 0.227144579495 0)
(0.0224222866946 0.227618730293 0)
(0.0226037251685 0.228112335243 0)
(0.0227116059063 0.22862442805 0)
(0.0227437877736 0.229153561247 0)
(0.0227008326825 0.229698590421 0)
(0.0225851010831 0.230257451208 0)
(0.0223944019921 0.230829166789 0)
(0.0221260374406 0.231412439872 0)
(0.0217801727699 0.232005593146 0)
(0.021357142738 0.232606217693 0)
(0.0208575184339 0.233211702572 0)
(0.0202820710717 0.233818527397 0)
(0.0196318706775 0.234422683767 0)
(0.0189083601562 0.235018920786 0)
(0.0181135963971 0.235600899806 0)
(0.0172504863508 0.23616011526 0)
(0.0163231106317 0.236685325833 0)
(0.0153367380876 0.237160530727 0)
(0.0142972627479 0.237563092763 0)
(0.0132093796089 0.237860879841 0)
(0.0120736764139 0.23801114701 0)
(0.0108841248166 0.237962406773 0)
(0.00963035139166 0.237663514292 0)
(0.00830999054573 0.237082388754 0)
(0.00695022384714 0.236243867159 0)
(0.00561637777954 0.235284524192 0)
(0.00437018802734 0.234434004905 0)
(0.00320886954812 0.233823488453 0)
(0.00209722742522 0.233320020189 0)
(0.00107063475769 0.232551201415 0)
(0.000295226339322 0.231126107268 0)
(0.000279331134678 0.221838131786 0)
(0.000763981369235 0.222356045039 0)
(0.00107446064215 0.223379261469 0)
(0.00110699884419 0.224727334127 0)
(0.000776018989548 0.226299091048 0)
(0.000119717470124 0.228047331656 0)
(-0.000746798710094 0.229935434605 0)
(-0.00168911679647 0.231815444047 0)
(-0.00261111838828 0.233529609816 0)
(-0.00346570196802 0.235021103365 0)
(-0.00424432027714 0.236220132661 0)
(-0.00500625164301 0.237081804533 0)
(-0.00584950482528 0.237636642936 0)
(-0.00684363446745 0.237967111059 0)
(-0.00799842622884 0.238176333808 0)
(-0.00927095869903 0.238336786005 0)
(-0.0106034404619 0.238477295729 0)
(-0.0119523107492 0.238599704 0)
(-0.0132937328116 0.238694722343 0)
(-0.0146172688635 0.238752657782 0)
(-0.0159188861787 0.238766023798 0)
(-0.0171966973394 0.23873097947 0)
(-0.0184491509912 0.238645803096 0)
(-0.0196744721935 0.238511125851 0)
(-0.0208706383316 0.238328394276 0)
(-0.0220354628213 0.238100386438 0)
(-0.0231667235122 0.237829974088 0)
(-0.0242622182885 0.237520872367 0)
(-0.0253198208729 0.237176541534 0)
(-0.0263374702738 0.236801040712 0)
(-0.0273131805683 0.236397962043 0)
(-0.0282450125042 0.235971333294 0)
(-0.0291310783319 0.235524552732 0)
(-0.0299695277076 0.235061336559 0)
(-0.0307585617382 0.234584654973 0)
(-0.0314964380799 0.234097729307 0)
(-0.032181487732 0.233602973549 0)
(-0.0328121323583 0.23310304032 0)
(-0.033386893686 0.232599766063 0)
(-0.0339044166974 0.232095254558 0)
(-0.0343634655894 0.231590821936 0)
(-0.0347629517228 0.231088103919 0)
(-0.0351019159316 0.230587998182 0)
(-0.0353795660263 0.230091780567 0)
(-0.0355952514831 0.229600047584 0)
(-0.0357481319846 0.22911381252 0)
(-0.0358361417537 0.228633043936 0)
(-0.0358578282974 0.228158783575 0)
(-0.0358145857311 0.227691843093 0)
(-0.0357078539138 0.227233034183 0)
(-0.0355377701924 0.226782682361 0)
(-0.035304669851 0.226341648984 0)
(-0.0350090182137 0.225910342321 0)
(-0.034651469874 0.225489698512 0)
(-0.0342328077364 0.225080240967 0)
(-0.0337540137542 0.224683001956 0)
(-0.0332162070261 0.224298631992 0)
(-0.0326207119077 0.223928259107 0)
(-0.0319689929277 0.223572654293 0)
(-0.0312627161256 0.223233024061 0)
(-0.0305036790969 0.222910235839 0)
(-0.0296938618274 0.222605541972 0)
(-0.0288353504184 0.222319866248 0)
(-0.027930373694 0.222054457896 0)
(-0.0269812185291 0.221810238297 0)
(-0.0259902493025 0.221588384874 0)
(-0.0249598135961 0.221389734382 0)
(-0.0238922417672 0.221215295864 0)
(-0.0227897425433 0.221065705121 0)
(-0.0216543817192 0.220941666141 0)
(-0.0204879705977 0.220843449066 0)
(-0.019292024912 0.220771258507 0)
(-0.0180676534944 0.220724765934 0)
(-0.0168155020164 0.220703404003 0)
(-0.0155356555115 0.220705921198 0)
(-0.0142275759996 0.220730598815 0)
(-0.0128900504829 0.220774807994 0)
(-0.0115211785362 0.220835140734 0)
(-0.010118532679 0.220906943681 0)
(-0.00867956339268 0.220984389138 0)
(-0.00720270671005 0.221060106909 0)
(-0.00568922583708 0.221125653888 0)
(-0.00414570119746 0.221172179877 0)
(-0.00258562500404 0.221192875157 0)
(-0.0010277653099 0.221183918513 0)
(0.000496898513529 0.221152721143 0)
(0.00197072384944 0.221107276814 0)
(0.00340316179188 0.22104828953 0)
(0.00478946890713 0.220982647148 0)
(0.00611966592838 0.220921383872 0)
(0.00739347545846 0.220873058496 0)
(0.00861039644893 0.220845016895 0)
(0.00977127456687 0.220843380243 0)
(0.0108770751929 0.220872750701 0)
(0.0119289302056 0.220936752037 0)
(0.0129279848254 0.221038273888 0)
(0.0138750858105 0.221179057979 0)
(0.0147708714501 0.221360234335 0)
(0.0156156021738 0.221582044092 0)
(0.0164092344895 0.221844313222 0)
(0.0171513336729 0.22214619113 0)
(0.0178411782257 0.222486629817 0)
(0.0184777200225 0.222864109283 0)
(0.019059715751 0.2232770975 0)
(0.0195857183845 0.223723763795 0)
(0.0200542117433 0.22420240189 0)
(0.0204636109008 0.224711125766 0)
(0.0208123829017 0.225248247355 0)
(0.0210990397893 0.225811954097 0)
(0.0213222362151 0.226400638897 0)
(0.0214807437393 0.227012562516 0)
(0.02157349817 0.227646133464 0)
(0.0215995249765 0.228299550616 0)
(0.0215591999819 0.228971301521 0)
(0.0214547865404 0.229658774429 0)
(0.0212862795794 0.230360111072 0)
(0.0210513453204 0.231073979884 0)
(0.0207494063841 0.231798299864 0)
(0.0203810036375 0.232530487197 0)
(0.0199467766454 0.233267574757 0)
(0.0194474591747 0.234005845097 0)
(0.0188839653351 0.234740862271 0)
(0.0182574264604 0.235467002834 0)
(0.0175693500989 0.236177258309 0)
(0.0168217071533 0.236862447433 0)
(0.0160170280102 0.23751048142 0)
(0.0151581597407 0.238104913041 0)
(0.0142475786457 0.238623464629 0)
(0.0132858607822 0.239036269422 0)
(0.0122696424628 0.239305175216 0)
(0.0111899475806 0.239384824232 0)
(0.0100334076357 0.239227249045 0)
(0.00879002339959 0.238791079713 0)
(0.00747026553171 0.238062133778 0)
(0.00612172806271 0.237108847215 0)
(0.00481229552401 0.236150694644 0)
(0.00356406642446 0.235417257749 0)
(0.00235651618365 0.234813927491 0)
(0.00123004417494 0.233823843184 0)
(0.000349748844765 0.231797127126 0)
(-9.2832516021e-05 0.221171306241 0)
(-0.000276118834691 0.221776819243 0)
(-0.000548527095768 0.223148162197 0)
(-0.00102619447337 0.224947078257 0)
(-0.00169895073036 0.226989615235 0)
(-0.00249074471222 0.229146662481 0)
(-0.00332431410199 0.231277151495 0)
(-0.00415387750257 0.233253986081 0)
(-0.00496492147464 0.235020726873 0)
(-0.00575322135717 0.236539943192 0)
(-0.00652466814888 0.237781993759 0)
(-0.00731180050211 0.23873402386 0)
(-0.0081678950236 0.239420603382 0)
(-0.00913711888551 0.239900358283 0)
(-0.0102288733858 0.240240830616 0)
(-0.0114197241105 0.240495738404 0)
(-0.0126725388252 0.240694847127 0)
(-0.0139536208324 0.240848495418 0)
(-0.0152396884674 0.240956141177 0)
(-0.0165170179108 0.241013693611 0)
(-0.0177780230337 0.241016956394 0)
(-0.019018304201 0.240963386399 0)
(-0.0202349020966 0.240852048908 0)
(-0.0214254369668 0.240683690898 0)
(-0.0225877828147 0.240460128456 0)
(-0.0237199364865 0.240184209392 0)
(-0.0248200050946 0.239859280639 0)
(-0.0258861778393 0.239489258472 0)
(-0.0269167307754 0.239078189798 0)
(-0.0279099909419 0.238630401425 0)
(-0.0288643303153 0.238150102153 0)
(-0.0297781330008 0.237641584406 0)
(-0.0306497941306 0.237108841742 0)
(-0.0314777065208 0.236555821948 0)
(-0.0322602696567 0.235986052978 0)
(-0.0329958969838 0.235402952065 0)
(-0.0336830275716 0.234809455189 0)
(-0.0343201473024 0.234208382381 0)
(-0.034905793732 0.233602062232 0)
(-0.0354385853891 0.232992746179 0)
(-0.0359172139798 0.232382218766 0)
(-0.0363404797169 0.23177225136 0)
(-0.0367072687679 0.231164191454 0)
(-0.0370165927519 0.23055944529 0)
(-0.037267572574 0.229959046432 0)
(-0.0374601105852 0.229364178568 0)
(-0.0375915979831 0.228774831943 0)
(-0.0376583843997 0.228192268634 0)
(-0.0376619190469 0.227617863186 0)
(-0.0376042991795 0.227052477407 0)
(-0.0374852959102 0.22649686789 0)
(-0.0373049030814 0.225952030886 0)
(-0.0370632115174 0.225418766019 0)
(-0.0367604777967 0.224898161508 0)
(-0.0363970651768 0.224391135915 0)
(-0.0359735163085 0.223898890489 0)
(-0.035490488173 0.223422472467 0)
(-0.0349488209716 0.222963189979 0)
(-0.0343494715872 0.222522204266 0)
(-0.033693574754 0.222100900941 0)
(-0.0329823737354 0.22170051732 0)
(-0.0322172702799 0.221322465727 0)
(-0.0313997516742 0.22096799974 0)
(-0.0305314268721 0.22063848589 0)
(-0.0296139492283 0.220335110145 0)
(-0.0286490369851 0.220059095591 0)
(-0.0276383919655 0.219811448143 0)
(-0.0265837038769 0.21959311801 0)
(-0.0254865669733 0.219404781701 0)
(-0.0243484694334 0.219246946068 0)
(-0.0231707135936 0.219119762378 0)
(-0.0219543950058 0.219023072706 0)
(-0.0207003372485 0.218956251715 0)
(-0.0194090698466 0.218918198381 0)
(-0.0180807973764 0.218907202182 0)
(-0.0167153962788 0.218920887232 0)
(-0.0153124627924 0.218956101582 0)
(-0.0138713995146 0.219008831127 0)
(-0.0123916962178 0.219074129027 0)
(-0.0108733700383 0.219146077808 0)
(-0.00931787980242 0.21921791497 0)
(-0.00772926382299 0.21928239834 0)
(-0.00611550366494 0.219332659975 0)
(-0.00448890566971 0.219363410203 0)
(-0.00286524767875 0.219372604554 0)
(-0.00126170095398 0.219360818003 0)
(0.000301029808978 0.219337720411 0)
(0.00181084786362 0.219310403558 0)
(0.0032687337989 0.219282926457 0)
(0.00467174357877 0.219258662144 0)
(0.00601562620109 0.21924520261 0)
(0.0072974657443 0.219253821181 0)
(0.00851419530467 0.219288501861 0)
(0.00966638839233 0.219355411281 0)
(0.0107550828794 0.219459176071 0)
(0.0117812141392 0.219602929273 0)
(0.0127459238875 0.219788995388 0)
(0.0136504358662 0.220018986419 0)
(0.0144957513844 0.22029358749 0)
(0.0152827614979 0.220612862478 0)
(0.0160121035478 0.220976226769 0)
(0.0166842073007 0.221382697038 0)
(0.0172992236549 0.221830848671 0)
(0.0178571237533 0.222319059002 0)
(0.0183576580437 0.222845448357 0)
(0.0188004693894 0.223408093721 0)
(0.0191850729685 0.224004947389 0)
(0.0195109639961 0.224634016014 0)
(0.0197776002868 0.225293249579 0)
(0.0199844962464 0.225980683161 0)
(0.020131192014 0.226694299449 0)
(0.0202173190811 0.227432132506 0)
(0.0202425654686 0.228192113758 0)
(0.0202071485735 0.228972095518 0)
(0.020113753768 0.22976929443 0)