/*--------------------------------*- C++ -*----------------------------------*\
| =========                 |                                                 |
| \\      /  F ield         | OpenFOAM: The Open Source CFD Toolbox           |
|  \\    /   O peration     | Version:  2212                                  |
|   \\  /    A nd           | Website:  www.openfoam.com                      |
|    \\/     M anipulation  |                                                 |
\*---------------------------------------------------------------------------*/
FoamFile
{
    version     2.0;
    format      ascii;
    arch        "LSB;label=64;scalar=64";
    class       volScalarField;
    location    "650";
    object      Sch4;
}
// * * * * * * * * * * * * * * * * * * * * * * * * * * * * * * * * * * * * * //

dimensions      [1 -3 0 0 0 0 0];

internalField   nonuniform List<scalar> 
1024
(
0.0365081
0.0365293
0.0365806
0.0366703
0.0368032
0.0369771
0.037182
0.037402
0.0376201
0.0378204
0.0379868
0.0381074
0.0381774
0.0381926
0.0381492
0.038043
0.0378759
0.0376692
0.0374453
0.0372088
0.0369605
0.0366982
0.036421
0.036135
0.0358552
0.0356001
0.035385
0.0352179
0.0350991
0.0350226
0.03498
0.0349625
0.0365117
0.0365337
0.0365869
0.0366797
0.0368165
0.0369944
0.0372024
0.0374249
0.0376449
0.0378468
0.0380139
0.0381338
0.0382027
0.0382166
0.038172
0.0380645
0.0378964
0.0376889
0.0374647
0.0372285
0.036981
0.0367197
0.0364434
0.0361576
0.0358765
0.0356186
0.0353999
0.0352294
0.0351076
0.0350293
0.0349857
0.0349679
0.03652
0.0365432
0.0365994
0.0366972
0.0368406
0.0370257
0.0372408
0.0374703
0.0376982
0.037908
0.03808
0.0381998
0.0382655
0.0382749
0.0382255
0.0381133
0.037941
0.0377305
0.0375046
0.0372684
0.0370222
0.0367634
0.0364896
0.0362047
0.0359217
0.0356587
0.0354329
0.035255
0.0351273
0.0350448
0.034999
0.0349803
0.0365328
0.0365572
0.0366166
0.0367201
0.0368717
0.0370669
0.037294
0.0375381
0.0377836
0.0380122
0.0381971
0.0383192
0.0383797
0.0383796
0.0383192
0.0381958
0.0380131
0.0377945
0.0375638
0.037326
0.0370812
0.036826
0.0365568
0.0362746
0.0359901
0.0357206
0.0354849
0.0352963
0.0351595
0.0350708
0.0350215
0.0350015
0.0365492
0.0365746
0.0366366
0.0367454
0.0369055
0.0371134
0.0373584
0.0376269
0.037903
0.0381644
0.0383735
0.0385033
0.0385575
0.0385422
0.0384622
0.0383179
0.0381148
0.0378798
0.0376384
0.0373956
0.0371509
0.0369
0.036637
0.0363599
0.0360757
0.0358002
0.0355535
0.0353521
0.0352039
0.0351072
0.0350534
0.0350317
0.0365681
0.0365938
0.0366574
0.0367703
0.0369389
0.0371617
0.0374306
0.0377337
0.0380541
0.0383627
0.0386088
0.038755
0.0388044
0.0387687
0.0386597
0.0384821
0.0382452
0.0379816
0.0377208
0.0374676
0.0372203
0.036973
0.0367175
0.0364479
0.0361669
0.0358878
0.0356313
0.0354172
0.0352572
0.0351519
0.0350933
0.0350698
0.0365884
0.0366141
0.0366782
0.0367936
0.0369697
0.0372088
0.0375066
0.0378528
0.0382287
0.0385966
0.0388916
0.0390646
0.0391132
0.0390541
0.0389073
0.0386834
0.0383965
0.0380892
0.037798
0.0375275
0.0372741
0.0370292
0.0367817
0.0365217
0.0362473
0.0359686
0.0357061
0.0354825
0.0353127
0.0352001
0.0351375
0.0351125
0.0366102
0.0366353
0.0366989
0.0368155
0.0369978
0.0372533
0.0375823
0.0379769
0.0384158
0.0388507
0.0392029
0.0394105
0.0394623
0.0393784
0.0391871
0.0389044
0.0385501
0.0381821
0.0378485
0.0375542
0.037292
0.0370491
0.0368107
0.0365625
0.0362986
0.0360256
0.0357634
0.0355362
0.0353617
0.0352451
0.0351802
0.0351543
0.0366344
0.0366588
0.0367211
0.0368375
0.0370245
0.0372951
0.0376555
0.0381009
0.0386062
0.0391113
0.0395231
0.0397665
0.0398212
0.0397098
0.0394681
0.0391153
0.0386751
0.0382279
0.0378408
0.0375186
0.037248
0.03701
0.0367842
0.0365519
0.0363034
0.0360429
0.0357891
0.0355667
0.0353945
0.035279
0.0352143
0.0351884
0.0366645
0.0366879
0.0367484
0.0368636
0.0370536
0.0373378
0.0377291
0.0382261
0.0387995
0.0393741
0.0398404
0.0401112
0.0401605
0.0400156
0.0397176
0.0392828
0.0387351
0.0381867
0.0377354
0.0373851
0.0371118
0.0368865
0.0366814
0.0364725
0.0362472
0.0360078
0.0357722
0.0355644
0.0354029
0.0352939
0.0352323
0.0352071
0.0367088
0.0367308
0.0367891
0.0369027
0.0370953
0.0373924
0.037815
0.0383657
0.0390078
0.0396465
0.0401543
0.0404351
0.0404648
0.040279
0.0399201
0.039391
0.0387081
0.0380279
0.0374978
0.0371213
0.0368554
0.0366561
0.0364845
0.0363107
0.0361194
0.0359121
0.0357058
0.0355227
0.0353797
0.0352821
0.0352256
0.0352016
0.036785
0.0368056
0.0368622
0.0369757
0.0371735
0.0374871
0.0379446
0.038551
0.039257
0.0399452
0.0404725
0.0407413
0.0407395
0.0405142
0.0401005
0.0394703
0.0386193
0.0377621
0.037125
0.0367171
0.0364672
0.0363077
0.0361845
0.0360595
0.0359151
0.0357522
0.0355862
0.0354367
0.0353179
0.0352345
0.035184
0.0351612
0.0369258
0.0369456
0.0370022
0.0371197
0.0373299
0.037669
0.0381678
0.0388264
0.0395784
0.0402869
0.0408032
0.0410415
0.0410126
0.0407741
0.0403377
0.0396219
0.03858
0.0374875
0.0366858
0.0362147
0.0359728
0.0358571
0.035791
0.0357244
0.0356354
0.0355245
0.0354055
0.0352944
0.0352025
0.0351341
0.0350897
0.0350682
0.0371745
0.0371946
0.0372543
0.0373816
0.0376125
0.0379856
0.0385276
0.0392235
0.0399876
0.0406742
0.0411467
0.0413508
0.0413289
0.0411405
0.0407566
0.0400228
0.0388191
0.0374517
0.0363943
0.0357636
0.0354671
0.0353653
0.0353478
0.0353425
0.0353156
0.0352614
0.0351887
0.0351098
0.0350357
0.0349743
0.0349309
0.0349088
0.0375628
0.0375843
0.0376496
0.0377901
0.0380446
0.0384496
0.0390205
0.0397221
0.0404525
0.041073
0.0414815
0.041673
0.0417229
0.0416847
0.041487
0.0409021
0.0396949
0.0381075
0.0367153
0.0357521
0.0352062
0.0349582
0.0348764
0.034862
0.0348551
0.03483
0.0347854
0.0347329
0.0346856
0.0346515
0.034632
0.0346239
0.0380844
0.038108
0.0381791
0.0383304
0.0385986
0.0390129
0.0395731
0.0402274
0.0408724
0.0413942
0.0417386
0.0419493
0.0421302
0.0423437
0.0425217
0.042418
0.0416588
0.0402439
0.0386959
0.0373485
0.0363057
0.0355673
0.035072
0.0347622
0.0345972
0.0345456
0.0345809
0.0346766
0.0348041
0.0349316
0.0350301
0.0350812
0.038575
0.0385984
0.0386673
0.0388111
0.0390605
0.0394349
0.0399252
0.0404808
0.0410164
0.0414451
0.0417345
0.0419437
0.0421992
0.0426191
0.0432393
0.0439449
0.0443443
0.0440712
0.0433332
0.0424543
0.0416014
0.0408563
0.040234
0.0397387
0.0393774
0.0391533
0.0390636
0.0390872
0.0391876
0.039316
0.0394255
0.0394852
0.0389112
0.0389326
0.038994
0.0391198
0.0393347
0.0396526
0.0400628
0.040522
0.0409599
0.041303
0.0415163
0.0416374
0.0417803
0.0420992
0.0427466
0.0438278
0.0451829
0.0462994
0.046968
0.0473347
0.0475208
0.0475877
0.0475616
0.0474549
0.047277
0.0470431
0.0467814
0.0465268
0.0463146
0.0461687
0.0460914
0.0460648
0.0391145
0.0391338
0.0391877
0.039296
0.0394789
0.0397483
0.0400957
0.0404858
0.0408597
0.0411518
0.041321
0.0413799
0.0414084
0.04154
0.0419453
0.042823
0.0442357
0.0458129
0.0471701
0.0482683
0.0491555
0.049871
0.0504282
0.0508252
0.0510566
0.0511252
0.0510515
0.0508771
0.0506587
0.0504566
0.0503158
0.0502507
0.0392291
0.0392469
0.0392947
0.0393883
0.0395445
0.039774
0.0400717
0.0404103
0.0407416
0.0410088
0.0411695
0.0412195
0.0412087
0.0412388
0.0414525
0.0420353
0.0431334
0.0445711
0.0460089
0.0473121
0.0484519
0.0494399
0.0502869
0.050991
0.0515422
0.0519316
0.0521609
0.0522488
0.0522312
0.0521577
0.05208
0.0520349
0.0392826
0.0392993
0.0393423
0.0394238
0.0395576
0.0397534
0.0400091
0.0403049
0.0406034
0.0408581
0.0410314
0.041112
0.0411304
0.041161
0.0413134
0.0417277
0.0425331
0.0436692
0.0449231
0.0461765
0.047375
0.0485029
0.0495492
0.0504902
0.0512927
0.0519256
0.052375
0.0526502
0.0527809
0.052812
0.0527944
0.0527726
0.0392981
0.039313
0.0393507
0.0394213
0.0395356
0.039702
0.0399203
0.0401775
0.0404469
0.0406948
0.0408929
0.0410311
0.041129
0.0412405
0.0414444
0.0418331
0.0424822
0.0433716
0.044395
0.0454897
0.0466162
0.0477548
0.0488852
0.0499705
0.0509579
0.0517894
0.0524247
0.052854
0.0530984
0.0532026
0.0532231
0.0532143
0.0393128
0.0393225
0.03935
0.0394052
0.0394984
0.039637
0.039822
0.040046
0.0402934
0.0405451
0.0407854
0.0410087
0.0412273
0.0414762
0.0418057
0.0422654
0.0428734
0.0436128
0.0444479
0.0453694
0.0463637
0.0474192
0.0485191
0.0496303
0.0506989
0.0516539
0.0524311
0.0529934
0.053342
0.0535136
0.0535671
0.0535677
0.0393984
0.0393953
0.0393994
0.039425
0.0394865
0.0395934
0.0397493
0.0399523
0.0401982
0.0404814
0.0407966
0.0411393
0.0415119
0.0419294
0.0424156
0.0429869
0.043616
0.0442765
0.0449745
0.0457407
0.0465872
0.0475142
0.0485124
0.0495574
0.0506063
0.0515952
0.0524502
0.0531093
0.0535471
0.0537823
0.0538691
0.0538791
0.0396644
0.0396371
0.0395979
0.0395713
0.0395827
0.0396508
0.0397858
0.0399927
0.0402754
0.040635
0.0410665
0.0415582
0.0420982
0.0426826
0.0433137
0.0439872
0.044649
0.0452636
0.0458597
0.0464921
0.0471917
0.0479716
0.0488314
0.0497564
0.0507152
0.0516589
0.0525204
0.0532275
0.0537296
0.0540203
0.0541399
0.0541601
0.0402338
0.0401711
0.0400717
0.0399757
0.0399265
0.0399591
0.0400946
0.0403432
0.0407083
0.0411848
0.0417561
0.0423967
0.043081
0.0437915
0.0445184
0.0452487
0.045919
0.0464907
0.0470024
0.0475187
0.048081
0.0487106
0.0494153
0.0501901
0.0510166
0.0518604
0.0526675
0.0533693
0.0539018
0.0542335
0.0543831
0.0544146
0.0412053
0.0411033
0.0409465
0.0407943
0.0407066
0.0407343
0.0409066
0.0412315
0.0417017
0.0422965
0.0429836
0.0437258
0.0444899
0.0452536
0.0460039
0.0467279
0.0473654
0.0478799
0.0483122
0.048726
0.0491646
0.0496525
0.0502023
0.0508163
0.0514872
0.0521952
0.0529027
0.0535518
0.0540763
0.0544275
0.0546007
0.0546437
0.0426325
0.0425014
0.0423268
0.0421796
0.0421179
0.042193
0.0424314
0.0428329
0.0433784
0.0440349
0.0447617
0.0455182
0.0462723
0.0470036
0.0477011
0.048356
0.0489178
0.049356
0.0497077
0.0500291
0.0503589
0.0507208
0.0511282
0.0515873
0.0520979
0.0526519
0.0532284
0.0537858
0.0542649
0.0546094
0.0547948
0.054848
0.0445344
0.0444064
0.0442933
0.0442427
0.0442788
0.0444343
0.0447266
0.0451534
0.0456943
0.0463162
0.0469813
0.0476547
0.0483103
0.0489327
0.0495144
0.0500508
0.0505035
0.0508492
0.0511183
0.0513552
0.0515909
0.0518448
0.0521289
0.05245
0.052811
0.0532108
0.053641
0.054078
0.0544778
0.0547868
0.0549683
0.0550281
0.0469331
0.0468664
0.0468991
0.0469959
0.0471389
0.0473448
0.0476308
0.048001
0.0484441
0.0489369
0.0494524
0.0499653
0.0504574
0.0509183
0.0513437
0.0517314
0.0520555
0.0522999
0.0524864
0.0526463
0.0528011
0.0529649
0.0531465
0.0533514
0.0535828
0.0538421
0.0541279
0.0544304
0.0547241
0.0549687
0.0551259
0.0551848
0.0498974
0.049951
0.0501146
0.0502826
0.050446
0.0506212
0.0508255
0.0510682
0.0513474
0.0516522
0.0519673
0.0522782
0.0525743
0.0528496
0.0531019
0.0533303
0.0535201
0.0536624
0.0537697
0.05386
0.0539459
0.0540353
0.0541336
0.0542441
0.0543688
0.0545091
0.0546656
0.0548359
0.0550092
0.0551641
0.0552736
0.0553204
0.0535318
0.0535833
0.0536777
0.0537596
0.0538306
0.0538989
0.0539719
0.0540548
0.0541482
0.0542493
0.0543534
0.0544557
0.0545528
0.0546427
0.0547249
0.054799
0.0548605
0.0549065
0.0549409
0.0549697
0.0549968
0.0550248
0.0550553
0.0550895
0.055128
0.0551712
0.0552196
0.0552727
0.055328
0.0553797
0.0554194
0.0554386
)
;

boundaryField
{
    movingWall
    {
        type            fixedValue;
        value           uniform 0.0555;
    }
    fixedWalls
    {
        type            zeroGradient;
    }
    floor
    {
        type            zeroGradient;
    }
    frontAndBack
    {
        type            empty;
    }
}


// ************************************************************************* //
