/*--------------------------------*- C++ -*----------------------------------*\
| =========                 |                                                 |
| \\      /  F ield         | OpenFOAM: The Open Source CFD Toolbox           |
|  \\    /   O peration     | Version:  2212                                  |
|   \\  /    A nd           | Website:  www.openfoam.com                      |
|    \\/     M anipulation  |                                                 |
\*---------------------------------------------------------------------------*/
FoamFile
{
    version     2.0;
    format      ascii;
    arch        "LSB;label=64;scalar=64";
    class       volScalarField;
    location    "650";
    object      Sco2;
}
// * * * * * * * * * * * * * * * * * * * * * * * * * * * * * * * * * * * * * //

dimensions      [1 -3 0 0 0 0 0];

internalField   nonuniform List<scalar> 
1024
(
0.00584192
0.00584592
0.00585559
0.00587251
0.00589757
0.00593037
0.005969
0.0060105
0.00605164
0.00608942
0.00612081
0.00614355
0.00615673
0.00615958
0.0061514
0.00613142
0.00610001
0.00606112
0.00601897
0.00597445
0.00592768
0.00587826
0.00582604
0.00577216
0.00571945
0.00567136
0.00563082
0.00559934
0.00557694
0.00556253
0.00555451
0.00555121
0.00584262
0.00584677
0.00585679
0.00587429
0.00590008
0.00593362
0.00597286
0.00601481
0.00605632
0.00609442
0.00612595
0.00614856
0.00616152
0.00616412
0.0061557
0.00613548
0.00610386
0.00606484
0.00602264
0.00597817
0.00593154
0.00588232
0.00583028
0.00577642
0.00572346
0.00567486
0.00563365
0.0056015
0.00557856
0.00556379
0.00555557
0.00555221
0.00584418
0.00584856
0.00585915
0.00587759
0.00590464
0.00593954
0.00598012
0.00602341
0.0060664
0.00610599
0.00613844
0.00616102
0.00617339
0.00617514
0.00616581
0.0061447
0.00611229
0.00607268
0.00603018
0.00598569
0.00593932
0.00589056
0.005839
0.00578532
0.00573199
0.00568242
0.00563987
0.00560634
0.00558226
0.00556672
0.00555808
0.00555455
0.00584661
0.00585121
0.00586241
0.00588193
0.00591051
0.00594732
0.00599017
0.00603623
0.00608257
0.00612571
0.00616059
0.00618361
0.00619498
0.00619494
0.00618352
0.0061603
0.00612593
0.00608479
0.00604136
0.00599656
0.00595044
0.00590238
0.00585166
0.00579849
0.00574488
0.00569409
0.00564967
0.00561413
0.00558833
0.0055716
0.00556231
0.00555853
0.00584972
0.00585449
0.00586619
0.00588671
0.00591693
0.00595615
0.00600239
0.00605305
0.00610518
0.00615452
0.00619396
0.00621844
0.00622862
0.00622568
0.00621058
0.00618339
0.00614517
0.00610091
0.00605546
0.0060097
0.0059636
0.00591632
0.00586679
0.00581458
0.00576103
0.00570911
0.0056626
0.00562464
0.0055967
0.00557845
0.00556832
0.00556422
0.00585329
0.00585815
0.00587015
0.00589145
0.00592325
0.00596531
0.00601609
0.0060733
0.00613379
0.00619205
0.00623849
0.00626605
0.00627531
0.00626852
0.00624793
0.00621447
0.00616985
0.00612019
0.00607104
0.00602331
0.0059767
0.0059301
0.00588195
0.00583115
0.00577821
0.00572561
0.00567726
0.00563691
0.00560673
0.00558686
0.00557582
0.00557139
0.00585716
0.00586201
0.0058741
0.00589589
0.00592913
0.00597429
0.00603052
0.00609591
0.00616692
0.00623638
0.00629205
0.00632464
0.00633373
0.00632251
0.0062948
0.00625259
0.00619851
0.00614059
0.00608566
0.00603464
0.00598686
0.00594069
0.00589405
0.00584504
0.00579335
0.00574083
0.00569137
0.0056492
0.00561719
0.00559594
0.00558413
0.00557941
0.00586131
0.00586606
0.00587806
0.00590007
0.00593452
0.00598278
0.00604495
0.00611953
0.00620245
0.00628457
0.00635104
0.00639015
0.00639983
0.0063839
0.00634777
0.00629447
0.00622766
0.00615824
0.00609528
0.00603974
0.00599025
0.00594445
0.0058995
0.00585273
0.00580299
0.00575155
0.00570214
0.0056593
0.00562639
0.0056044
0.00559215
0.00558728
0.00586594
0.00587055
0.00588232
0.00590431
0.00593965
0.00599081
0.00605896
0.00614315
0.00623867
0.00633406
0.00641175
0.0064576
0.00646779
0.00644667
0.00640102
0.00633448
0.00625146
0.00616704
0.00609392
0.00603307
0.00598197
0.00593705
0.00589447
0.00585069
0.00580387
0.00575478
0.00570694
0.00566501
0.00563256
0.00561077
0.00559858
0.00559369
0.00587172
0.00587614
0.00588757
0.00590935
0.00594529
0.00599905
0.00607308
0.00616707
0.00627547
0.00638398
0.00647197
0.00652295
0.00653209
0.00650462
0.00644833
0.00636633
0.00626303
0.00615947
0.00607414
0.00600794
0.00595629
0.00591376
0.00587506
0.00583569
0.00579323
0.00574812
0.00570372
0.00566456
0.00563411
0.00561356
0.00560194
0.00559719
0.00588019
0.00588436
0.00589539
0.00591688
0.00595333
0.00600958
0.00608958
0.00619377
0.00631514
0.00643574
0.00653153
0.00658436
0.00658976
0.00655455
0.00648679
0.00638703
0.00625824
0.00612975
0.00602947
0.00595822
0.00590794
0.00587027
0.00583789
0.00580513
0.00576908
0.00573003
0.00569115
0.00565666
0.0056297
0.00561129
0.00560064
0.00559612
0.00589471
0.00589862
0.00590932
0.00593082
0.00596828
0.00602768
0.00611432
0.00622907
0.00636252
0.00649244
0.00659184
0.00664234
0.00664175
0.00659909
0.00652104
0.00640233
0.00624195
0.00608001
0.00595938
0.00588207
0.00583473
0.00580454
0.00578127
0.00575772
0.00573051
0.00569983
0.00566856
0.0056404
0.00561801
0.00560228
0.00559276
0.00558847
0.00592142
0.00592517
0.00593589
0.00595816
0.00599798
0.00606223
0.00615669
0.0062813
0.00642344
0.00655717
0.00665442
0.00669908
0.00669333
0.00664817
0.00656597
0.00643139
0.00623528
0.00602895
0.00587703
0.00578756
0.00574158
0.00571958
0.00570704
0.00569446
0.00567771
0.00565684
0.00563442
0.0056135
0.00559618
0.0055833
0.00557492
0.00557086
0.00596843
0.00597224
0.00598355
0.00600767
0.00605142
0.00612211
0.00622472
0.00635639
0.00650081
0.00663036
0.00671926
0.00675736
0.00675286
0.0067172
0.00664515
0.00650762
0.00628153
0.00602354
0.00582315
0.00570314
0.00564651
0.00562694
0.00562348
0.00562245
0.00561742
0.00560723
0.00559353
0.00557868
0.0055647
0.00555311
0.00554492
0.00554076
0.0060417
0.00604577
0.00605814
0.00608478
0.00613298
0.00620969
0.00631779
0.00645051
0.00658855
0.00670556
0.00678228
0.00681786
0.0068268
0.0068195
0.0067828
0.006674
0.00644817
0.00614938
0.00588591
0.00570275
0.00559841
0.00555065
0.0055346
0.00553156
0.00553012
0.00552537
0.00551701
0.0055072
0.0054984
0.00549209
0.00548849
0.00548702
0.0061401
0.00614457
0.00615805
0.00618672
0.00623755
0.00631602
0.00642207
0.00654585
0.00666767
0.00676596
0.00683042
0.00686942
0.00690281
0.00694273
0.00697686
0.00695933
0.00681929
0.00655471
0.00626312
0.00600816
0.00581022
0.00566965
0.00557519
0.00551596
0.00548429
0.00547426
0.00548085
0.005499
0.00552324
0.00554748
0.00556619
0.00557591
0.00623264
0.00623707
0.00625013
0.00627737
0.00632461
0.00639553
0.00648833
0.00659342
0.00669457
0.00677524
0.00682925
0.00686769
0.00691459
0.00699257
0.00710902
0.00724328
0.00732208
0.00727467
0.00713814
0.00697359
0.00681306
0.00667234
0.0065547
0.0064609
0.00639234
0.00634959
0.00633225
0.00633634
0.00635498
0.00637901
0.00639954
0.00641076
0.00629609
0.00630013
0.00631178
0.00633563
0.00637636
0.0064366
0.00651431
0.00660123
0.00668403
0.00674868
0.00678842
0.00681027
0.00683567
0.00689381
0.00701374
0.00721619
0.00747241
0.00768571
0.00781463
0.00788579
0.00792215
0.00793556
0.00793117
0.00791139
0.00787808
0.00783407
0.00778471
0.00773657
0.00769642
0.00766877
0.0076541
0.00764903
0.00633446
0.00633813
0.00634835
0.00636888
0.00640358
0.00645466
0.00652053
0.00659445
0.00666524
0.00672041
0.00675206
0.00676247
0.00676658
0.0067895
0.00686347
0.00702626
0.00729089
0.00758852
0.00784581
0.00805431
0.00822268
0.00835838
0.00846407
0.00853945
0.00858359
0.00859698
0.00858349
0.00855096
0.00851007
0.00847217
0.00844573
0.00843351
0.0063561
0.00635949
0.00636855
0.0063863
0.00641593
0.00645946
0.00651595
0.00658016
0.00664297
0.00669353
0.00672377
0.00673278
0.00672986
0.00673406
0.00677228
0.00687956
0.0070841
0.00735395
0.00762518
0.00787175
0.00808764
0.00827483
0.00843529
0.00856866
0.00867306
0.00874683
0.00879037
0.0088072
0.0088041
0.00879042
0.00877589
0.00876743
0.00636617
0.00636934
0.00637749
0.00639297
0.00641836
0.0064555
0.00650402
0.00656014
0.00661675
0.00666501
0.00669774
0.0067127
0.00671556
0.00672026
0.00674741
0.00682343
0.00697301
0.0071856
0.00742144
0.00765802
0.00788466
0.00809812
0.00829613
0.00847417
0.00862596
0.00874562
0.00883058
0.00888261
0.00890736
0.00891329
0.00891002
0.00890593
0.00636901
0.00637185
0.00637902
0.00639242
0.00641412
0.00644568
0.00648711
0.00653589
0.00658697
0.00663391
0.00667135
0.00669726
0.00671529
0.00673551
0.00677277
0.00684448
0.00696512
0.00713137
0.00732354
0.00752982
0.0077425
0.00795769
0.00817136
0.00837645
0.00856301
0.00872005
0.00884003
0.00892109
0.00896724
0.00898692
0.00899079
0.00898914
0.00637167
0.00637353
0.00637876
0.00638926
0.00640696
0.00643326
0.00646835
0.0065108
0.00655764
0.00660524
0.00665058
0.00669254
0.0067334
0.00677971
0.00684097
0.00692654
0.00703993
0.00717825
0.00733497
0.00750841
0.00769591
0.00789517
0.00810287
0.00831267
0.0085144
0.00869464
0.00884131
0.00894742
0.0090132
0.00904557
0.00905567
0.00905578
0.00638764
0.00638708
0.0063879
0.00639282
0.00640452
0.00642482
0.00645435
0.00649277
0.00653921
0.00659264
0.006652
0.00671643
0.00678637
0.00686464
0.00695569
0.00706266
0.00718044
0.0073042
0.00743525
0.00757938
0.00773887
0.00791373
0.00810206
0.00829926
0.00849716
0.00868373
0.008845
0.00896932
0.00905188
0.00909625
0.00911262
0.0091145
0.00643757
0.00643244
0.0064251
0.00642016
0.00642239
0.00643533
0.00646085
0.0064999
0.00655317
0.00662088
0.00670209
0.00679458
0.00689615
0.007006
0.00712458
0.00725109
0.00737535
0.00749074
0.00760273
0.00772167
0.00785342
0.00800042
0.00816256
0.00833702
0.00851786
0.00869585
0.00885831
0.00899163
0.00908631
0.00914111
0.00916367
0.00916749
0.00654466
0.00653288
0.00651417
0.00649611
0.00648687
0.00649304
0.00651856
0.00656537
0.00663408
0.00672375
0.00683127
0.00695187
0.0070807
0.00721445
0.00735124
0.00748866
0.00761475
0.00772224
0.00781844
0.00791558
0.00802143
0.00814005
0.00827288
0.00841896
0.00857482
0.00873391
0.00888608
0.00901839
0.00911879
0.00918131
0.00920952
0.00921545
0.00672756
0.00670835
0.0066788
0.00665009
0.00663352
0.00663868
0.00667107
0.00673217
0.00682064
0.00693259
0.00706197
0.00720174
0.00734569
0.00748957
0.0076309
0.00776726
0.0078873
0.00798414
0.00806546
0.00814334
0.00822589
0.0083178
0.00842141
0.00853714
0.00866361
0.00879707
0.00893045
0.00905282
0.00915169
0.00921789
0.00925054
0.00925863
0.00699633
0.00697163
0.0069387
0.0069109
0.00689916
0.00691318
0.00695796
0.00703346
0.00713611
0.00725972
0.00739662
0.00753915
0.00768126
0.00781909
0.00795054
0.00807396
0.00817981
0.00826233
0.00832853
0.00838902
0.00845112
0.00851926
0.00859601
0.00868254
0.00877877
0.00888319
0.00899185
0.00909692
0.00918723
0.00925216
0.00928712
0.00929715
0.00735454
0.00733042
0.00730908
0.00729946
0.00730613
0.00733525
0.00739017
0.00747044
0.00757225
0.00768937
0.00781469
0.00794159
0.00806517
0.00818249
0.00829215
0.00839326
0.00847858
0.0085437
0.00859437
0.00863897
0.00868334
0.00873115
0.00878467
0.00884517
0.00891321
0.00898854
0.00906963
0.009152
0.00922735
0.00928559
0.00931982
0.00933108
0.00780636
0.00779378
0.00779991
0.00781808
0.00784489
0.00788355
0.0079373
0.00800694
0.00809033
0.00818316
0.00828029
0.00837695
0.00846972
0.00855663
0.00863683
0.00870991
0.008771
0.00881705
0.00885218
0.00888227
0.00891142
0.00894226
0.00897647
0.00901508
0.00905868
0.00910754
0.00916141
0.00921843
0.00927378
0.00931988
0.00934951
0.00936062
0.00836471
0.00837479
0.0084056
0.00843722
0.00846792
0.00850083
0.00853923
0.00858488
0.00863745
0.00869485
0.00875423
0.00881283
0.00886865
0.00892056
0.00896811
0.00901117
0.00904696
0.00907376
0.00909398
0.00911099
0.00912715
0.009144
0.00916251
0.00918332
0.00920682
0.00923325
0.00926275
0.00929483
0.0093275
0.0093567
0.00937734
0.00938617
0.00904927
0.00905897
0.00907674
0.00909216
0.00910552
0.00911835
0.00913208
0.00914767
0.00916525
0.00918429
0.0092039
0.00922319
0.00924149
0.00925845
0.00927394
0.00928792
0.00929951
0.00930817
0.00931466
0.00932008
0.00932518
0.00933045
0.0093362
0.00934264
0.00934989
0.00935804
0.00936715
0.00937716
0.00938758
0.00939734
0.00940481
0.00940843
)
;

boundaryField
{
    movingWall
    {
        type            fixedValue;
        value           uniform 0.00942;
    }
    fixedWalls
    {
        type            zeroGradient;
    }
    floor
    {
        type            zeroGradient;
    }
    frontAndBack
    {
        type            empty;
    }
}


// ************************************************************************* //
