/*--------------------------------*- C++ -*----------------------------------*\
| =========                 |                                                 |
| \\      /  F ield         | OpenFOAM: The Open Source CFD Toolbox           |
|  \\    /   O peration     | Version:  2212                                  |
|   \\  /    A nd           | Website:  www.openfoam.com                      |
|    \\/     M anipulation  |                                                 |
\*---------------------------------------------------------------------------*/
FoamFile
{
    version     2.0;
    format      ascii;
    arch        "LSB;label=64;scalar=64";
    class       volScalarField;
    location    "650";
    object      Xch;
}
// * * * * * * * * * * * * * * * * * * * * * * * * * * * * * * * * * * * * * //

dimensions      [1 -3 0 0 0 0 0];

internalField   nonuniform List<scalar> 
1024
(
0.0199695
0.0199701
0.0199717
0.0199745
0.0199786
0.019984
0.0199904
0.0199972
0.0200039
0.0200101
0.0200152
0.0200188
0.0200209
0.0200213
0.0200197
0.0200162
0.0200108
0.0200041
0.0199969
0.0199894
0.0199816
0.0199733
0.0199646
0.0199556
0.0199468
0.0199388
0.019932
0.0199267
0.019923
0.0199206
0.0199193
0.0199187
0.0199696
0.0199703
0.0199719
0.0199748
0.019979
0.0199846
0.019991
0.0199979
0.0200047
0.0200109
0.020016
0.0200196
0.0200217
0.020022
0.0200204
0.0200169
0.0200114
0.0200047
0.0199975
0.01999
0.0199822
0.019974
0.0199653
0.0199563
0.0199475
0.0199394
0.0199325
0.0199271
0.0199233
0.0199208
0.0199194
0.0199189
0.0199698
0.0199705
0.0199723
0.0199753
0.0199798
0.0199855
0.0199922
0.0199993
0.0200063
0.0200127
0.020018
0.0200216
0.0200236
0.0200238
0.020022
0.0200183
0.0200127
0.0200059
0.0199987
0.0199912
0.0199835
0.0199753
0.0199667
0.0199578
0.0199489
0.0199406
0.0199335
0.0199279
0.0199239
0.0199213
0.0199198
0.0199193
0.0199702
0.019971
0.0199728
0.019976
0.0199807
0.0199868
0.0199938
0.0200013
0.0200089
0.0200159
0.0200216
0.0200253
0.020027
0.0200269
0.0200248
0.0200208
0.0200149
0.0200078
0.0200005
0.019993
0.0199853
0.0199773
0.0199688
0.0199599
0.019951
0.0199425
0.0199351
0.0199292
0.0199249
0.0199221
0.0199205
0.0199199
0.0199707
0.0199715
0.0199734
0.0199768
0.0199818
0.0199882
0.0199958
0.0200041
0.0200125
0.0200206
0.0200269
0.0200308
0.0200324
0.0200318
0.0200291
0.0200244
0.0200178
0.0200103
0.0200027
0.019995
0.0199874
0.0199795
0.0199713
0.0199626
0.0199537
0.019945
0.0199373
0.0199309
0.0199263
0.0199232
0.0199215
0.0199209
0.0199713
0.0199721
0.0199741
0.0199776
0.0199828
0.0199897
0.019998
0.0200073
0.0200171
0.0200266
0.0200341
0.0200385
0.0200398
0.0200385
0.0200349
0.0200292
0.0200216
0.0200132
0.020005
0.0199971
0.0199894
0.0199817
0.0199737
0.0199653
0.0199565
0.0199477
0.0199397
0.019933
0.0199279
0.0199246
0.0199228
0.019922
0.0199719
0.0199727
0.0199747
0.0199783
0.0199837
0.0199911
0.0200003
0.0200109
0.0200225
0.0200337
0.0200426
0.0200478
0.0200491
0.020047
0.0200422
0.020035
0.0200258
0.0200162
0.0200071
0.0199987
0.0199908
0.0199832
0.0199756
0.0199675
0.0199589
0.0199502
0.019942
0.019935
0.0199297
0.0199261
0.0199242
0.0199234
0.0199726
0.0199734
0.0199753
0.0199789
0.0199846
0.0199925
0.0200026
0.0200147
0.0200281
0.0200414
0.020052
0.0200581
0.0200594
0.0200565
0.0200502
0.0200412
0.0200299
0.0200185
0.0200081
0.0199991
0.019991
0.0199836
0.0199763
0.0199686
0.0199604
0.0199519
0.0199437
0.0199366
0.0199312
0.0199275
0.0199255
0.0199247
0.0199733
0.0199741
0.019976
0.0199796
0.0199854
0.0199937
0.0200048
0.0200184
0.0200339
0.0200492
0.0200616
0.0200687
0.02007
0.0200661
0.0200582
0.0200468
0.020033
0.0200191
0.0200073
0.0199975
0.0199893
0.0199821
0.0199752
0.0199681
0.0199604
0.0199524
0.0199445
0.0199375
0.0199322
0.0199285
0.0199265
0.0199257
0.0199742
0.019975
0.0199768
0.0199804
0.0199862
0.019995
0.020007
0.0200222
0.0200397
0.0200571
0.0200711
0.0200789
0.0200798
0.0200747
0.0200649
0.020051
0.0200338
0.020017
0.0200032
0.0199927
0.0199846
0.0199778
0.0199717
0.0199654
0.0199585
0.0199512
0.0199439
0.0199374
0.0199324
0.019929
0.019927
0.0199263
0.0199756
0.0199763
0.0199781
0.0199816
0.0199875
0.0199966
0.0200096
0.0200264
0.020046
0.0200653
0.0200804
0.0200883
0.0200884
0.0200819
0.0200701
0.0200532
0.0200319
0.0200111
0.0199951
0.0199839
0.0199761
0.0199703
0.0199653
0.0199601
0.0199544
0.019948
0.0199417
0.019936
0.0199316
0.0199286
0.0199268
0.019926
0.0199779
0.0199786
0.0199803
0.0199838
0.0199899
0.0199995
0.0200135
0.0200321
0.0200535
0.0200742
0.0200897
0.0200971
0.020096
0.0200881
0.0200745
0.0200544
0.0200281
0.020002
0.0199829
0.0199709
0.0199637
0.0199591
0.0199557
0.0199521
0.0199478
0.0199429
0.0199379
0.0199333
0.0199296
0.019927
0.0199254
0.0199247
0.0199823
0.0199829
0.0199846
0.0199882
0.0199947
0.0200051
0.0200204
0.0200405
0.0200632
0.0200844
0.0200994
0.0201057
0.0201036
0.0200951
0.0200807
0.020058
0.0200259
0.0199928
0.0199688
0.019955
0.0199481
0.019945
0.0199433
0.0199416
0.019939
0.0199357
0.0199321
0.0199287
0.0199259
0.0199238
0.0199224
0.0199217
0.01999
0.0199906
0.0199924
0.0199963
0.0200034
0.0200148
0.0200314
0.0200526
0.0200757
0.020096
0.0201095
0.0201145
0.0201125
0.0201054
0.0200925
0.0200693
0.0200323
0.019991
0.0199594
0.0199408
0.0199324
0.0199297
0.0199295
0.0199297
0.019929
0.0199275
0.0199253
0.0199229
0.0199206
0.0199187
0.0199173
0.0199167
0.020002
0.0200027
0.0200047
0.020009
0.0200168
0.0200292
0.0200466
0.0200679
0.0200898
0.0201081
0.0201195
0.020124
0.0201241
0.0201215
0.0201141
0.0200952
0.020058
0.0200101
0.0199685
0.01994
0.0199241
0.0199171
0.019915
0.0199148
0.0199148
0.0199141
0.0199127
0.0199111
0.0199096
0.0199085
0.0199078
0.0199076
0.0200182
0.0200189
0.0200211
0.0200257
0.0200339
0.0200466
0.0200637
0.0200835
0.0201028
0.020118
0.0201275
0.0201326
0.0201367
0.0201416
0.0201454
0.0201407
0.0201166
0.0200736
0.0200272
0.0199871
0.0199562
0.0199345
0.01992
0.019911
0.0199062
0.0199047
0.0199057
0.0199085
0.0199122
0.0199159
0.0199188
0.0199202
0.0200336
0.0200343
0.0200364
0.0200408
0.0200484
0.0200599
0.0200749
0.0200918
0.0201079
0.0201204
0.0201284
0.0201337
0.0201401
0.0201513
0.0201681
0.0201871
0.0201971
0.0201875
0.0201647
0.0201381
0.0201126
0.0200905
0.0200721
0.0200575
0.0200468
0.0200403
0.0200376
0.0200384
0.0200413
0.0200451
0.0200484
0.0200501
0.0200443
0.020045
0.0200468
0.0200507
0.0200573
0.0200671
0.0200797
0.0200938
0.0201071
0.0201173
0.0201233
0.0201263
0.0201297
0.020138
0.0201556
0.0201856
0.0202234
0.0202544
0.0202725
0.0202822
0.0202868
0.0202881
0.0202869
0.0202835
0.0202781
0.0202713
0.0202637
0.0202563
0.0202502
0.0202461
0.0202439
0.0202431
0.0200509
0.0200515
0.0200532
0.0200565
0.0200621
0.0200705
0.0200813
0.0200934
0.0201049
0.0201138
0.0201189
0.0201203
0.0201205
0.0201235
0.0201342
0.0201582
0.0201976
0.0202418
0.0202798
0.0203103
0.0203348
0.0203544
0.0203697
0.0203804
0.0203866
0.0203884
0.0203862
0.0203812
0.020375
0.0203694
0.0203654
0.0203636
0.0200548
0.0200554
0.0200568
0.0200597
0.0200645
0.0200717
0.020081
0.0200916
0.020102
0.0201104
0.0201154
0.0201168
0.0201161
0.0201163
0.0201215
0.020137
0.0201672
0.0202073
0.0202475
0.0202838
0.0203153
0.0203424
0.0203654
0.0203845
0.0203993
0.0204098
0.0204161
0.0204185
0.0204181
0.0204162
0.0204141
0.0204129
0.0200568
0.0200573
0.0200586
0.0200611
0.0200653
0.0200714
0.0200794
0.0200888
0.0200983
0.0201064
0.0201119
0.0201143
0.0201147
0.020115
0.0201185
0.0201292
0.0201509
0.0201822
0.0202171
0.020252
0.0202852
0.0203162
0.0203447
0.0203702
0.0203918
0.0204088
0.0204209
0.0204283
0.020432
0.020433
0.0204326
0.0204321
0.0200575
0.0200579
0.0200591
0.0200613
0.0200648
0.0200701
0.020077
0.0200851
0.0200937
0.0201016
0.0201079
0.0201122
0.0201149
0.0201177
0.0201227
0.0201326
0.0201499
0.0201741
0.0202024
0.0202328
0.0202639
0.0202953
0.0203262
0.0203556
0.0203823
0.0204046
0.0204216
0.0204331
0.0204397
0.0204426
0.0204433
0.0204431
0.020058
0.0200583
0.0200592
0.0200609
0.0200639
0.0200682
0.0200741
0.0200812
0.0200891
0.020097
0.0201044
0.0201111
0.0201174
0.0201241
0.0201328
0.0201448
0.0201609
0.0201809
0.0202038
0.0202293
0.0202567
0.0202858
0.0203159
0.0203461
0.0203749
0.0204006
0.0204213
0.0204363
0.0204457
0.0204503
0.0204518
0.0204519
0.0200604
0.0200604
0.0200606
0.0200615
0.0200635
0.0200669
0.0200718
0.0200782
0.0200859
0.0200945
0.020104
0.020114
0.0201245
0.0201361
0.0201493
0.0201646
0.0201814
0.0201992
0.0202182
0.0202393
0.0202626
0.0202881
0.0203154
0.0203438
0.0203721
0.0203987
0.0204215
0.0204391
0.0204507
0.020457
0.0204594
0.0204597
0.0200677
0.020067
0.020066
0.0200654
0.020066
0.0200683
0.0200725
0.0200789
0.0200874
0.020098
0.0201105
0.0201246
0.0201398
0.020156
0.0201733
0.0201917
0.0202095
0.0202261
0.0202423
0.0202596
0.0202788
0.0203002
0.0203237
0.0203489
0.0203748
0.0204001
0.0204231
0.0204419
0.0204552
0.0204629
0.0204661
0.0204667
0.0200833
0.0200816
0.0200789
0.0200765
0.0200753
0.0200766
0.0200807
0.0200881
0.0200987
0.0201123
0.0201286
0.0201466
0.0201658
0.0201856
0.0202056
0.0202256
0.0202439
0.0202594
0.0202733
0.0202874
0.0203028
0.02032
0.0203392
0.0203603
0.0203826
0.0204052
0.0204268
0.0204454
0.0204595
0.0204683
0.0204722
0.0204731
0.0201099
0.0201071
0.0201029
0.0200988
0.0200966
0.0200976
0.0201027
0.020112
0.0201253
0.0201421
0.0201614
0.0201822
0.0202035
0.0202247
0.0202455
0.0202654
0.0202828
0.0202968
0.0203086
0.0203199
0.0203318
0.0203452
0.0203601
0.0203768
0.0203949
0.0204139
0.0204328
0.02045
0.0204639
0.0204731
0.0204777
0.0204789
0.0201489
0.0201454
0.0201406
0.0201367
0.0201352
0.0201374
0.0201442
0.0201555
0.0201708
0.0201891
0.0202094
0.0202304
0.0202514
0.0202717
0.020291
0.0203091
0.0203245
0.0203365
0.020346
0.0203548
0.0203638
0.0203736
0.0203847
0.0203972
0.020411
0.0204258
0.0204412
0.020456
0.0204686
0.0204777
0.0204825
0.020484
0.0202009
0.0201975
0.0201944
0.0201931
0.0201942
0.0201986
0.0202067
0.0202186
0.0202337
0.0202509
0.0202694
0.0202881
0.0203063
0.0203236
0.0203397
0.0203545
0.020367
0.0203764
0.0203838
0.0203902
0.0203966
0.0204035
0.0204113
0.02042
0.0204297
0.0204404
0.0204519
0.0204635
0.020474
0.0204821
0.0204869
0.0204884
0.0202665
0.0202647
0.0202656
0.0202683
0.0202722
0.0202779
0.0202859
0.0202961
0.0203084
0.0203221
0.0203363
0.0203506
0.0203642
0.020377
0.0203888
0.0203995
0.0204084
0.0204151
0.0204202
0.0204246
0.0204288
0.0204332
0.0204382
0.0204437
0.02045
0.0204569
0.0204646
0.0204726
0.0204803
0.0204867
0.0204908
0.0204923
0.0203474
0.0203488
0.0203533
0.0203579
0.0203624
0.0203672
0.0203729
0.0203796
0.0203873
0.0203957
0.0204045
0.0204131
0.0204213
0.0204289
0.0204359
0.0204422
0.0204475
0.0204514
0.0204543
0.0204567
0.0204591
0.0204615
0.0204642
0.0204672
0.0204705
0.0204743
0.0204785
0.020483
0.0204876
0.0204916
0.0204944
0.0204957
0.0204464
0.0204478
0.0204504
0.0204526
0.0204546
0.0204565
0.0204585
0.0204608
0.0204633
0.0204661
0.020469
0.0204719
0.0204745
0.020477
0.0204793
0.0204814
0.0204831
0.0204843
0.0204853
0.0204861
0.0204868
0.0204875
0.0204884
0.0204893
0.0204903
0.0204915
0.0204928
0.0204942
0.0204957
0.020497
0.020498
0.0204985
)
;

boundaryField
{
    movingWall
    {
        type            fixedValue;
        value           uniform 0.0205;
    }
    fixedWalls
    {
        type            zeroGradient;
    }
    floor
    {
        type            zeroGradient;
    }
    frontAndBack
    {
        type            empty;
    }
}


// ************************************************************************* //
