/*--------------------------------*- C++ -*----------------------------------*\
| =========                 |                                                 |
| \\      /  F ield         | OpenFOAM: The Open Source CFD Toolbox           |
|  \\    /   O peration     | Version:  2212                                  |
|   \\  /    A nd           | Website:  www.openfoam.com                      |
|    \\/     M anipulation  |                                                 |
\*---------------------------------------------------------------------------*/
FoamFile
{
    version     2.0;
    format      ascii;
    arch        "LSB;label=64;scalar=64";
    class       volScalarField;
    location    "460";
    object      Gh2;
}
// * * * * * * * * * * * * * * * * * * * * * * * * * * * * * * * * * * * * * //

dimensions      [1 -3 0 0 0 0 0];

internalField   nonuniform List<scalar> 
1024
(
1.24509e-05
1.24489e-05
1.24439e-05
1.24354e-05
1.24232e-05
1.24076e-05
1.23899e-05
1.23716e-05
1.23539e-05
1.23379e-05
1.2325e-05
1.23159e-05
1.23108e-05
1.23101e-05
1.23143e-05
1.23244e-05
1.23402e-05
1.23593e-05
1.23795e-05
1.24004e-05
1.24218e-05
1.24439e-05
1.24668e-05
1.24902e-05
1.25132e-05
1.25344e-05
1.25525e-05
1.25668e-05
1.25772e-05
1.25839e-05
1.25876e-05
1.25892e-05
1.24506e-05
1.24484e-05
1.24433e-05
1.24344e-05
1.24218e-05
1.24058e-05
1.23879e-05
1.23694e-05
1.23515e-05
1.23353e-05
1.23223e-05
1.23132e-05
1.23082e-05
1.23075e-05
1.23119e-05
1.2322e-05
1.23379e-05
1.23571e-05
1.23773e-05
1.23982e-05
1.24196e-05
1.24416e-05
1.24645e-05
1.2488e-05
1.25111e-05
1.25325e-05
1.2551e-05
1.25657e-05
1.25763e-05
1.25832e-05
1.25871e-05
1.25886e-05
1.24498e-05
1.24475e-05
1.2442e-05
1.24327e-05
1.24193e-05
1.24028e-05
1.23842e-05
1.2365e-05
1.23463e-05
1.23293e-05
1.23157e-05
1.23066e-05
1.23017e-05
1.23014e-05
1.23061e-05
1.23166e-05
1.23328e-05
1.23523e-05
1.23728e-05
1.23937e-05
1.24151e-05
1.2437e-05
1.24598e-05
1.24833e-05
1.25066e-05
1.25285e-05
1.25477e-05
1.25631e-05
1.25743e-05
1.25817e-05
1.25858e-05
1.25874e-05
1.24487e-05
1.24462e-05
1.24404e-05
1.24305e-05
1.24164e-05
1.23989e-05
1.23792e-05
1.23586e-05
1.23381e-05
1.23192e-05
1.23043e-05
1.22948e-05
1.22901e-05
1.22904e-05
1.22959e-05
1.23074e-05
1.23246e-05
1.23448e-05
1.23658e-05
1.23869e-05
1.24084e-05
1.24302e-05
1.24528e-05
1.24762e-05
1.24998e-05
1.25224e-05
1.25425e-05
1.2559e-05
1.25711e-05
1.25791e-05
1.25836e-05
1.25854e-05
1.24473e-05
1.24448e-05
1.24387e-05
1.24283e-05
1.24134e-05
1.23947e-05
1.23733e-05
1.23504e-05
1.23269e-05
1.23048e-05
1.22874e-05
1.22768e-05
1.22723e-05
1.22736e-05
1.22806e-05
1.22939e-05
1.23129e-05
1.23346e-05
1.23565e-05
1.23782e-05
1.23999e-05
1.24217e-05
1.24441e-05
1.24674e-05
1.24911e-05
1.25144e-05
1.25356e-05
1.25534e-05
1.25667e-05
1.25755e-05
1.25805e-05
1.25825e-05
1.24458e-05
1.24433e-05
1.24371e-05
1.24264e-05
1.24107e-05
1.23906e-05
1.2367e-05
1.23409e-05
1.23134e-05
1.22868e-05
1.22657e-05
1.2253e-05
1.22482e-05
1.22505e-05
1.22596e-05
1.22756e-05
1.22976e-05
1.23217e-05
1.23453e-05
1.23682e-05
1.23904e-05
1.24124e-05
1.24347e-05
1.24577e-05
1.24815e-05
1.25054e-05
1.25277e-05
1.25468e-05
1.25614e-05
1.25712e-05
1.25766e-05
1.25787e-05
1.24445e-05
1.2442e-05
1.24358e-05
1.24248e-05
1.24085e-05
1.2387e-05
1.23609e-05
1.2331e-05
1.22987e-05
1.22669e-05
1.2241e-05
1.2225e-05
1.22189e-05
1.22221e-05
1.22336e-05
1.22532e-05
1.22793e-05
1.23069e-05
1.23332e-05
1.23578e-05
1.2381e-05
1.24034e-05
1.24257e-05
1.24486e-05
1.24724e-05
1.24966e-05
1.25199e-05
1.25401e-05
1.25558e-05
1.25663e-05
1.25722e-05
1.25745e-05
1.24432e-05
1.24408e-05
1.24347e-05
1.24237e-05
1.2407e-05
1.23842e-05
1.23556e-05
1.23218e-05
1.22845e-05
1.2247e-05
1.22156e-05
1.21952e-05
1.21872e-05
1.21908e-05
1.22048e-05
1.22286e-05
1.22598e-05
1.2292e-05
1.23216e-05
1.23484e-05
1.2373e-05
1.23962e-05
1.24186e-05
1.24414e-05
1.24651e-05
1.24895e-05
1.25132e-05
1.25342e-05
1.25506e-05
1.25616e-05
1.25678e-05
1.25702e-05
1.24421e-05
1.24398e-05
1.24339e-05
1.24231e-05
1.24062e-05
1.23824e-05
1.23516e-05
1.23142e-05
1.22718e-05
1.22285e-05
1.21914e-05
1.21665e-05
1.21563e-05
1.21603e-05
1.2177e-05
1.22055e-05
1.22427e-05
1.22802e-05
1.23134e-05
1.23426e-05
1.23686e-05
1.23924e-05
1.2415e-05
1.24376e-05
1.24611e-05
1.24853e-05
1.2509e-05
1.253e-05
1.25465e-05
1.25576e-05
1.25638e-05
1.25663e-05
1.24412e-05
1.24389e-05
1.24333e-05
1.24229e-05
1.24061e-05
1.23818e-05
1.23491e-05
1.23083e-05
1.22609e-05
1.22118e-05
1.21692e-05
1.21405e-05
1.2129e-05
1.21341e-05
1.21542e-05
1.21886e-05
1.2233e-05
1.22762e-05
1.23128e-05
1.23438e-05
1.23705e-05
1.23944e-05
1.24166e-05
1.24387e-05
1.24615e-05
1.2485e-05
1.25079e-05
1.25282e-05
1.25441e-05
1.25549e-05
1.25609e-05
1.25632e-05
1.24403e-05
1.24382e-05
1.24329e-05
1.24229e-05
1.24066e-05
1.2382e-05
1.23477e-05
1.23033e-05
1.22506e-05
1.21957e-05
1.21486e-05
1.21176e-05
1.21063e-05
1.21141e-05
1.21396e-05
1.21822e-05
1.22363e-05
1.22858e-05
1.23249e-05
1.23561e-05
1.23821e-05
1.24047e-05
1.24255e-05
1.24461e-05
1.24673e-05
1.24892e-05
1.25105e-05
1.25293e-05
1.25439e-05
1.25538e-05
1.25594e-05
1.25617e-05
1.24387e-05
1.24367e-05
1.24318e-05
1.24223e-05
1.24063e-05
1.23814e-05
1.23453e-05
1.22969e-05
1.22386e-05
1.21785e-05
1.21282e-05
1.20969e-05
1.20878e-05
1.21002e-05
1.21334e-05
1.21883e-05
1.22565e-05
1.23142e-05
1.23545e-05
1.23839e-05
1.24068e-05
1.2426e-05
1.24435e-05
1.24609e-05
1.24793e-05
1.24985e-05
1.25172e-05
1.25336e-05
1.25464e-05
1.25551e-05
1.25601e-05
1.25622e-05
1.24342e-05
1.24325e-05
1.24278e-05
1.24185e-05
1.24022e-05
1.23761e-05
1.23373e-05
1.22845e-05
1.22212e-05
1.21576e-05
1.21067e-05
1.20771e-05
1.20715e-05
1.20893e-05
1.21323e-05
1.22041e-05
1.22926e-05
1.23623e-05
1.24037e-05
1.24291e-05
1.24464e-05
1.24597e-05
1.24716e-05
1.2484e-05
1.24978e-05
1.25126e-05
1.25275e-05
1.25407e-05
1.25513e-05
1.25587e-05
1.25632e-05
1.25652e-05
1.24231e-05
1.24214e-05
1.24167e-05
1.2407e-05
1.23893e-05
1.23605e-05
1.23178e-05
1.22606e-05
1.21947e-05
1.21314e-05
1.20831e-05
1.2057e-05
1.20543e-05
1.20759e-05
1.21283e-05
1.22196e-05
1.23343e-05
1.24221e-05
1.24675e-05
1.24888e-05
1.24993e-05
1.2505e-05
1.25097e-05
1.25157e-05
1.25239e-05
1.25337e-05
1.25442e-05
1.25539e-05
1.25619e-05
1.25678e-05
1.25716e-05
1.25734e-05
1.24005e-05
1.23988e-05
1.23937e-05
1.23827e-05
1.23628e-05
1.23306e-05
1.22839e-05
1.22246e-05
1.21599e-05
1.21013e-05
1.20585e-05
1.20355e-05
1.20318e-05
1.20515e-05
1.21077e-05
1.22145e-05
1.2356e-05
1.24691e-05
1.25276e-05
1.25507e-05
1.25564e-05
1.25544e-05
1.25509e-05
1.25493e-05
1.25509e-05
1.25551e-05
1.25609e-05
1.25673e-05
1.25734e-05
1.25786e-05
1.25824e-05
1.25844e-05
1.23646e-05
1.23627e-05
1.2357e-05
1.23447e-05
1.23226e-05
1.22879e-05
1.224e-05
1.21826e-05
1.21238e-05
1.20733e-05
1.20364e-05
1.20125e-05
1.20001e-05
1.20063e-05
1.20507e-05
1.2156e-05
1.23142e-05
1.24574e-05
1.25447e-05
1.25875e-05
1.26019e-05
1.26012e-05
1.25948e-05
1.25889e-05
1.25865e-05
1.25882e-05
1.25929e-05
1.25989e-05
1.26045e-05
1.26089e-05
1.26116e-05
1.26128e-05
1.23238e-05
1.23218e-05
1.23156e-05
1.23027e-05
1.22802e-05
1.22462e-05
1.22013e-05
1.21503e-05
1.21007e-05
1.20589e-05
1.20257e-05
1.19963e-05
1.19671e-05
1.19446e-05
1.19503e-05
1.2015e-05
1.21504e-05
1.23052e-05
1.24276e-05
1.2515e-05
1.25722e-05
1.26081e-05
1.26292e-05
1.26401e-05
1.26437e-05
1.26418e-05
1.26352e-05
1.26246e-05
1.26119e-05
1.25996e-05
1.25903e-05
1.25855e-05
1.22935e-05
1.22915e-05
1.22856e-05
1.22736e-05
1.2253e-05
1.22229e-05
1.21845e-05
1.21421e-05
1.21015e-05
1.20671e-05
1.20377e-05
1.20064e-05
1.19653e-05
1.19136e-05
1.18646e-05
1.18472e-05
1.18925e-05
1.19833e-05
1.20737e-05
1.21505e-05
1.22108e-05
1.22563e-05
1.22884e-05
1.23085e-05
1.23177e-05
1.23168e-05
1.23071e-05
1.22909e-05
1.22715e-05
1.22532e-05
1.22399e-05
1.22332e-05
1.22749e-05
1.2273e-05
1.22678e-05
1.22572e-05
1.22395e-05
1.22139e-05
1.21818e-05
1.21467e-05
1.21135e-05
1.20858e-05
1.20625e-05
1.20373e-05
1.2e-05
1.19427e-05
1.18655e-05
1.17822e-05
1.17246e-05
1.17076e-05
1.17075e-05
1.17091e-05
1.17088e-05
1.17064e-05
1.17025e-05
1.16987e-05
1.16966e-05
1.16972e-05
1.17009e-05
1.1707e-05
1.17142e-05
1.17204e-05
1.17241e-05
1.17255e-05
1.22643e-05
1.22626e-05
1.2258e-05
1.22489e-05
1.22339e-05
1.22123e-05
1.21853e-05
1.21558e-05
1.21278e-05
1.21046e-05
1.20861e-05
1.20674e-05
1.20395e-05
1.19923e-05
1.19186e-05
1.18187e-05
1.17127e-05
1.16288e-05
1.15654e-05
1.15113e-05
1.14626e-05
1.14191e-05
1.13818e-05
1.13524e-05
1.13325e-05
1.13232e-05
1.13243e-05
1.13343e-05
1.13498e-05
1.13658e-05
1.1378e-05
1.13838e-05
1.2259e-05
1.22575e-05
1.22534e-05
1.22457e-05
1.22331e-05
1.2215e-05
1.21922e-05
1.21671e-05
1.21428e-05
1.21222e-05
1.21056e-05
1.20897e-05
1.20674e-05
1.20296e-05
1.19683e-05
1.18783e-05
1.17689e-05
1.16661e-05
1.15804e-05
1.15073e-05
1.14436e-05
1.13876e-05
1.13388e-05
1.12972e-05
1.12635e-05
1.12387e-05
1.12234e-05
1.12173e-05
1.1219e-05
1.12252e-05
1.12322e-05
1.12364e-05
1.22573e-05
1.22559e-05
1.22524e-05
1.22458e-05
1.22353e-05
1.22202e-05
1.22012e-05
1.21797e-05
1.21583e-05
1.21388e-05
1.21217e-05
1.21044e-05
1.20817e-05
1.20469e-05
1.19934e-05
1.19163e-05
1.18201e-05
1.17232e-05
1.16374e-05
1.15619e-05
1.14948e-05
1.14338e-05
1.13775e-05
1.13257e-05
1.12794e-05
1.12407e-05
1.12115e-05
1.11923e-05
1.11824e-05
1.11796e-05
1.11808e-05
1.11825e-05
1.22569e-05
1.22559e-05
1.22531e-05
1.22477e-05
1.22391e-05
1.22267e-05
1.22108e-05
1.21924e-05
1.21729e-05
1.21531e-05
1.2133e-05
1.21105e-05
1.20821e-05
1.20435e-05
1.1991e-05
1.19216e-05
1.18386e-05
1.17546e-05
1.16777e-05
1.16075e-05
1.15425e-05
1.14806e-05
1.14201e-05
1.13608e-05
1.13044e-05
1.12541e-05
1.12132e-05
1.11838e-05
1.11658e-05
1.11573e-05
1.11552e-05
1.11556e-05
1.22532e-05
1.22531e-05
1.22519e-05
1.22486e-05
1.22423e-05
1.22325e-05
1.22191e-05
1.22026e-05
1.21832e-05
1.21608e-05
1.21345e-05
1.21031e-05
1.20648e-05
1.2018e-05
1.19616e-05
1.18947e-05
1.18212e-05
1.17493e-05
1.16831e-05
1.16212e-05
1.15618e-05
1.15031e-05
1.14435e-05
1.13829e-05
1.13224e-05
1.12654e-05
1.12163e-05
1.11785e-05
1.11536e-05
1.11404e-05
1.11356e-05
1.11352e-05
1.2238e-05
1.22397e-05
1.22418e-05
1.22424e-05
1.22397e-05
1.22327e-05
1.2221e-05
1.22042e-05
1.21818e-05
1.2153e-05
1.21171e-05
1.2074e-05
1.20239e-05
1.19675e-05
1.19056e-05
1.1839e-05
1.17719e-05
1.17098e-05
1.16538e-05
1.1601e-05
1.15492e-05
1.14966e-05
1.14421e-05
1.13851e-05
1.13265e-05
1.12689e-05
1.12164e-05
1.11735e-05
1.11431e-05
1.11257e-05
1.11185e-05
1.11174e-05
1.22008e-05
1.22055e-05
1.22126e-05
1.22189e-05
1.22211e-05
1.22169e-05
1.2205e-05
1.21848e-05
1.21554e-05
1.21165e-05
1.20689e-05
1.20139e-05
1.19535e-05
1.18897e-05
1.18242e-05
1.17586e-05
1.16969e-05
1.16433e-05
1.15964e-05
1.15525e-05
1.15092e-05
1.14646e-05
1.14176e-05
1.13677e-05
1.13151e-05
1.12618e-05
1.12108e-05
1.11666e-05
1.11332e-05
1.11125e-05
1.11032e-05
1.11012e-05
1.2132e-05
1.21402e-05
1.21528e-05
1.21647e-05
1.21709e-05
1.21676e-05
1.21528e-05
1.21259e-05
1.20873e-05
1.2038e-05
1.19804e-05
1.19173e-05
1.18514e-05
1.17851e-05
1.17204e-05
1.16586e-05
1.16033e-05
1.15575e-05
1.1519e-05
1.14836e-05
1.14488e-05
1.14129e-05
1.13748e-05
1.13338e-05
1.12898e-05
1.1244e-05
1.11983e-05
1.11565e-05
1.11229e-05
1.11004e-05
1.10894e-05
1.10866e-05
1.2026e-05
1.2037e-05
1.20521e-05
1.20654e-05
1.20712e-05
1.2065e-05
1.2045e-05
1.20114e-05
1.19658e-05
1.19107e-05
1.18494e-05
1.17852e-05
1.17208e-05
1.16585e-05
1.15996e-05
1.15451e-05
1.14979e-05
1.14603e-05
1.14296e-05
1.14022e-05
1.13755e-05
1.13481e-05
1.13189e-05
1.12873e-05
1.12531e-05
1.12165e-05
1.11788e-05
1.11424e-05
1.11113e-05
1.1089e-05
1.1077e-05
1.10736e-05
1.18809e-05
1.18919e-05
1.19031e-05
1.19101e-05
1.19096e-05
1.18979e-05
1.18739e-05
1.18379e-05
1.17921e-05
1.17394e-05
1.1683e-05
1.16258e-05
1.15702e-05
1.15176e-05
1.1469e-05
1.14248e-05
1.13875e-05
1.13584e-05
1.13353e-05
1.13151e-05
1.12958e-05
1.12761e-05
1.12552e-05
1.12327e-05
1.1208e-05
1.11813e-05
1.11528e-05
1.1124e-05
1.10979e-05
1.10777e-05
1.10659e-05
1.1062e-05
1.16957e-05
1.17018e-05
1.17016e-05
1.16971e-05
1.16886e-05
1.16734e-05
1.16502e-05
1.1619e-05
1.15813e-05
1.15393e-05
1.14955e-05
1.14519e-05
1.14103e-05
1.13715e-05
1.1336e-05
1.13043e-05
1.12778e-05
1.12574e-05
1.12416e-05
1.1228e-05
1.12152e-05
1.12023e-05
1.11887e-05
1.1174e-05
1.1158e-05
1.11405e-05
1.11214e-05
1.11014e-05
1.10821e-05
1.10661e-05
1.10559e-05
1.1052e-05
1.14659e-05
1.14624e-05
1.14511e-05
1.14401e-05
1.14292e-05
1.14164e-05
1.14001e-05
1.13798e-05
1.1356e-05
1.133e-05
1.13031e-05
1.12768e-05
1.12517e-05
1.12286e-05
1.12076e-05
1.11889e-05
1.11734e-05
1.11617e-05
1.11526e-05
1.11449e-05
1.11377e-05
1.11306e-05
1.11232e-05
1.11152e-05
1.11065e-05
1.10969e-05
1.10864e-05
1.10751e-05
1.10637e-05
1.10536e-05
1.10464e-05
1.10434e-05
1.11843e-05
1.11805e-05
1.11736e-05
1.11679e-05
1.1163e-05
1.11581e-05
1.11523e-05
1.11454e-05
1.11375e-05
1.11289e-05
1.112e-05
1.11113e-05
1.11031e-05
1.10956e-05
1.10887e-05
1.10827e-05
1.10776e-05
1.10739e-05
1.10709e-05
1.10685e-05
1.10662e-05
1.1064e-05
1.10617e-05
1.10592e-05
1.10565e-05
1.10535e-05
1.10503e-05
1.10467e-05
1.10431e-05
1.10397e-05
1.10371e-05
1.10359e-05
)
;

boundaryField
{
    movingWall
    {
        type            fixedValue;
        value           uniform 1.1032e-05;
    }
    fixedWalls
    {
        type            zeroGradient;
    }
    floor
    {
        type            zeroGradient;
    }
    frontAndBack
    {
        type            empty;
    }
}


// ************************************************************************* //
