/*--------------------------------*- C++ -*----------------------------------*\
| =========                 |                                                 |
| \\      /  F ield         | OpenFOAM: The Open Source CFD Toolbox           |
|  \\    /   O peration     | Version:  2212                                  |
|   \\  /    A nd           | Website:  www.openfoam.com                      |
|    \\/     M anipulation  |                                                 |
\*---------------------------------------------------------------------------*/
FoamFile
{
    version     2.0;
    format      ascii;
    arch        "LSB;label=64;scalar=64";
    class       volScalarField;
    location    "460";
    object      Saa;
}
// * * * * * * * * * * * * * * * * * * * * * * * * * * * * * * * * * * * * * //

dimensions      [1 -3 0 0 0 0 0];

internalField   nonuniform List<scalar> 
1024
(
0.00547851
0.00547855
0.00547865
0.00547882
0.00547908
0.0054794
0.00547977
0.00548014
0.00548051
0.00548083
0.0054811
0.00548128
0.00548137
0.00548137
0.00548126
0.00548103
0.00548067
0.00548025
0.00547981
0.00547936
0.0054789
0.00547842
0.00547793
0.00547743
0.00547694
0.00547649
0.0054761
0.0054758
0.00547557
0.00547543
0.00547535
0.00547532
0.00547851
0.00547855
0.00547866
0.00547884
0.00547911
0.00547944
0.00547981
0.00548019
0.00548056
0.00548089
0.00548115
0.00548133
0.00548142
0.00548142
0.00548131
0.00548108
0.00548072
0.0054803
0.00547985
0.0054794
0.00547894
0.00547847
0.00547798
0.00547748
0.00547698
0.00547653
0.00547613
0.00547582
0.00547559
0.00547545
0.00547536
0.00547533
0.00547853
0.00547857
0.00547869
0.00547888
0.00547916
0.0054795
0.00547988
0.00548028
0.00548066
0.00548101
0.00548128
0.00548146
0.00548155
0.00548154
0.00548143
0.00548118
0.00548082
0.00548039
0.00547995
0.00547949
0.00547903
0.00547856
0.00547808
0.00547758
0.00547708
0.00547661
0.0054762
0.00547587
0.00547563
0.00547548
0.00547539
0.00547535
0.00547855
0.0054786
0.00547872
0.00547892
0.00547922
0.00547958
0.00547999
0.00548041
0.00548083
0.00548121
0.00548151
0.0054817
0.00548178
0.00548176
0.00548162
0.00548136
0.00548098
0.00548054
0.00548008
0.00547963
0.00547917
0.0054787
0.00547822
0.00547772
0.00547722
0.00547674
0.00547631
0.00547596
0.0054757
0.00547553
0.00547544
0.0054754
0.00547858
0.00547863
0.00547875
0.00547897
0.00547928
0.00547966
0.00548011
0.00548058
0.00548105
0.0054815
0.00548185
0.00548206
0.00548213
0.00548209
0.00548192
0.00548162
0.00548121
0.00548074
0.00548027
0.0054798
0.00547934
0.00547888
0.0054784
0.00547791
0.0054774
0.00547691
0.00547646
0.00547608
0.00547579
0.00547561
0.0054755
0.00547546
0.00547861
0.00547866
0.00547879
0.00547901
0.00547933
0.00547975
0.00548023
0.00548077
0.00548133
0.00548187
0.00548229
0.00548253
0.00548261
0.00548254
0.00548233
0.00548197
0.00548149
0.00548098
0.00548047
0.00547999
0.00547952
0.00547906
0.00547859
0.0054781
0.0054776
0.00547709
0.00547662
0.00547621
0.0054759
0.0054757
0.00547558
0.00547554
0.00547863
0.00547869
0.00547881
0.00547904
0.00547938
0.00547982
0.00548036
0.00548097
0.00548162
0.00548226
0.00548278
0.00548308
0.00548318
0.00548309
0.00548282
0.00548239
0.00548182
0.00548124
0.00548069
0.00548018
0.0054797
0.00547923
0.00547876
0.00547828
0.00547778
0.00547727
0.00547678
0.00547635
0.00547602
0.0054758
0.00547567
0.00547562
0.00547866
0.00547871
0.00547884
0.00547906
0.00547941
0.00547988
0.00548046
0.00548115
0.00548191
0.00548266
0.00548328
0.00548366
0.00548379
0.00548367
0.00548335
0.00548282
0.00548216
0.00548149
0.00548088
0.00548033
0.00547983
0.00547935
0.00547889
0.00547842
0.00547793
0.00547742
0.00547692
0.00547648
0.00547613
0.00547589
0.00547576
0.00547571
0.00547868
0.00547873
0.00547885
0.00547908
0.00547942
0.00547991
0.00548054
0.0054813
0.00548216
0.00548302
0.00548375
0.00548421
0.00548437
0.00548423
0.00548383
0.00548321
0.00548242
0.00548165
0.00548098
0.0054804
0.00547987
0.0054794
0.00547894
0.00547848
0.005478
0.00547749
0.005477
0.00547656
0.00547621
0.00547598
0.00547584
0.00547579
0.0054787
0.00547875
0.00547886
0.00547908
0.00547942
0.00547992
0.00548059
0.00548142
0.00548238
0.00548335
0.00548417
0.0054847
0.00548486
0.00548468
0.00548419
0.00548344
0.00548251
0.00548164
0.00548091
0.0054803
0.00547978
0.00547931
0.00547887
0.00547843
0.00547797
0.00547749
0.00547701
0.00547659
0.00547626
0.00547603
0.0054759
0.00547585
0.00547872
0.00547876
0.00547887
0.00547908
0.00547941
0.00547992
0.00548062
0.00548152
0.00548258
0.00548366
0.00548456
0.00548511
0.00548524
0.00548497
0.00548436
0.00548343
0.00548232
0.00548133
0.00548057
0.00547997
0.00547948
0.00547904
0.00547864
0.00547824
0.00547782
0.00547738
0.00547694
0.00547656
0.00547625
0.00547605
0.00547593
0.00547588
0.00547875
0.00547879
0.00547889
0.00547909
0.00547942
0.00547993
0.00548066
0.00548165
0.00548281
0.00548399
0.00548494
0.00548547
0.00548552
0.00548514
0.00548435
0.00548316
0.00548177
0.00548064
0.00547987
0.00547932
0.0054789
0.00547855
0.00547823
0.0054779
0.00547755
0.00547717
0.00547679
0.00547645
0.00547619
0.00547601
0.00547591
0.00547586
0.00547884
0.00547888
0.00547898
0.00547917
0.0054795
0.00548004
0.00548083
0.0054819
0.00548316
0.0054844
0.00548534
0.0054858
0.00548575
0.00548523
0.00548422
0.00548269
0.00548091
0.00547956
0.00547879
0.00547833
0.00547804
0.00547781
0.00547761
0.00547739
0.00547714
0.00547685
0.00547656
0.00547629
0.00547608
0.00547593
0.00547583
0.00547579
0.00547908
0.00547911
0.00547921
0.00547941
0.00547977
0.00548036
0.00548123
0.00548239
0.0054837
0.00548491
0.00548577
0.00548613
0.00548599
0.00548537
0.00548416
0.00548224
0.00547995
0.00547827
0.00547743
0.00547707
0.00547692
0.00547685
0.0054768
0.00547671
0.00547658
0.0054764
0.0054762
0.00547601
0.00547585
0.00547573
0.00547565
0.00547561
0.00547955
0.00547959
0.00547969
0.00547991
0.00548032
0.00548098
0.00548193
0.00548313
0.0054844
0.0054855
0.00548623
0.0054865
0.00548635
0.00548573
0.00548443
0.00548221
0.00547942
0.00547726
0.00547619
0.0054758
0.00547574
0.00547583
0.00547594
0.00547601
0.00547601
0.00547594
0.00547583
0.00547571
0.00547559
0.00547548
0.0054754
0.00547536
0.00548031
0.00548035
0.00548046
0.00548071
0.00548117
0.00548187
0.00548285
0.005484
0.00548514
0.00548607
0.00548665
0.00548692
0.00548692
0.00548654
0.00548544
0.00548323
0.00548013
0.00547741
0.0054758
0.00547505
0.00547483
0.0054749
0.00547506
0.00547521
0.00547528
0.00547525
0.00547517
0.00547505
0.00547493
0.00547484
0.00547478
0.00547475
0.00548118
0.00548122
0.00548134
0.00548161
0.00548207
0.00548277
0.00548368
0.0054847
0.00548566
0.0054864
0.00548691
0.00548728
0.00548759
0.00548773
0.00548734
0.00548586
0.00548315
0.0054802
0.00547793
0.00547633
0.00547531
0.00547469
0.00547434
0.00547416
0.00547411
0.00547415
0.00547427
0.00547445
0.00547467
0.00547488
0.00547504
0.00547512
0.00548184
0.00548188
0.005482
0.00548224
0.00548267
0.00548329
0.00548408
0.00548494
0.00548574
0.00548636
0.00548681
0.00548724
0.00548778
0.00548847
0.00548906
0.00548905
0.00548795
0.00548611
0.00548437
0.00548294
0.00548183
0.005481
0.00548042
0.00548007
0.00547991
0.00547992
0.0054801
0.00548039
0.00548074
0.00548107
0.00548131
0.00548143
0.00548226
0.0054823
0.0054824
0.00548262
0.00548299
0.00548353
0.0054842
0.00548493
0.0054856
0.00548612
0.0054865
0.00548684
0.00548735
0.00548816
0.00548927
0.00549045
0.00549116
0.0054912
0.00549102
0.00549086
0.00549077
0.00549074
0.00549076
0.00549079
0.00549081
0.00549079
0.00549073
0.00549064
0.00549053
0.00549043
0.00549038
0.00549036
0.00548251
0.00548255
0.00548264
0.00548283
0.00548315
0.00548361
0.00548418
0.00548481
0.00548539
0.00548585
0.00548617
0.00548643
0.0054868
0.00548745
0.00548853
0.00549003
0.00549161
0.00549281
0.00549369
0.00549444
0.00549512
0.00549573
0.00549625
0.00549665
0.00549691
0.00549703
0.00549699
0.00549682
0.00549658
0.00549633
0.00549615
0.00549606
0.00548265
0.00548268
0.00548277
0.00548293
0.0054832
0.00548359
0.00548408
0.00548462
0.00548514
0.00548556
0.00548587
0.0054861
0.00548639
0.0054869
0.00548778
0.00548913
0.0054908
0.00549236
0.00549363
0.00549468
0.00549557
0.00549632
0.00549696
0.00549749
0.00549791
0.00549822
0.0054984
0.00549848
0.00549846
0.00549838
0.00549829
0.00549824
0.00548271
0.00548274
0.00548281
0.00548295
0.00548318
0.0054835
0.00548392
0.00548439
0.00548485
0.00548525
0.00548557
0.00548584
0.00548615
0.00548662
0.00548738
0.00548852
0.00548999
0.00549148
0.00549277
0.00549388
0.00549483
0.00549565
0.00549638
0.00549703
0.0054976
0.00549807
0.00549842
0.00549867
0.0054988
0.00549885
0.00549885
0.00549884
0.00548273
0.00548275
0.00548281
0.00548293
0.00548311
0.00548338
0.00548373
0.00548413
0.00548455
0.00548495
0.00548531
0.00548567
0.00548608
0.00548662
0.00548736
0.00548837
0.00548963
0.00549092
0.0054921
0.00549314
0.00549408
0.00549493
0.00549573
0.00549649
0.0054972
0.00549781
0.00549831
0.00549867
0.00549889
0.00549901
0.00549905
0.00549906
0.00548278
0.00548279
0.00548282
0.0054829
0.00548305
0.00548327
0.00548355
0.0054839
0.0054843
0.00548472
0.00548517
0.00548567
0.00548624
0.00548691
0.00548772
0.00548869
0.00548979
0.0054909
0.00549191
0.00549284
0.0054937
0.00549453
0.00549533
0.00549613
0.0054969
0.00549761
0.00549821
0.00549866
0.00549896
0.00549913
0.0054992
0.00549922
0.00548299
0.00548297
0.00548296
0.00548298
0.00548306
0.00548322
0.00548347
0.0054838
0.00548421
0.00548471
0.0054853
0.00548596
0.00548671
0.00548754
0.00548844
0.00548941
0.00549041
0.00549136
0.00549221
0.00549301
0.00549377
0.00549452
0.00549527
0.00549603
0.00549679
0.00549751
0.00549815
0.00549867
0.00549903
0.00549924
0.00549933
0.00549935
0.00548351
0.00548345
0.00548336
0.00548329
0.0054833
0.00548341
0.00548364
0.005484
0.0054845
0.00548512
0.00548587
0.0054867
0.00548761
0.00548855
0.00548951
0.00549047
0.00549139
0.0054922
0.00549292
0.00549358
0.00549422
0.00549486
0.00549551
0.00549618
0.00549687
0.00549755
0.00549817
0.0054987
0.0054991
0.00549934
0.00549945
0.00549948
0.00548449
0.00548437
0.00548421
0.00548406
0.005484
0.00548408
0.00548434
0.00548478
0.00548539
0.00548615
0.00548702
0.00548797
0.00548896
0.00548994
0.00549089
0.0054918
0.00549262
0.00549331
0.0054939
0.00549443
0.00549495
0.00549546
0.005496
0.00549655
0.00549713
0.00549772
0.00549828
0.00549878
0.00549918
0.00549943
0.00549956
0.0054996
0.005486
0.00548584
0.00548564
0.00548546
0.0054854
0.00548552
0.00548584
0.00548636
0.00548705
0.00548788
0.0054888
0.00548975
0.00549071
0.00549163
0.0054925
0.00549331
0.00549401
0.00549457
0.00549504
0.00549545
0.00549585
0.00549624
0.00549665
0.00549709
0.00549754
0.00549801
0.00549848
0.00549891
0.00549928
0.00549953
0.00549966
0.00549971
0.00548806
0.0054879
0.00548775
0.00548766
0.00548768
0.00548787
0.00548824
0.00548878
0.00548946
0.00549024
0.00549108
0.00549193
0.00549275
0.00549353
0.00549425
0.0054949
0.00549545
0.00549589
0.00549624
0.00549654
0.00549683
0.00549711
0.00549741
0.00549772
0.00549805
0.00549839
0.00549875
0.00549909
0.0054994
0.00549962
0.00549975
0.0054998
0.00549068
0.0054906
0.0054906
0.00549067
0.0054908
0.00549103
0.00549137
0.00549184
0.00549239
0.00549301
0.00549366
0.0054943
0.00549492
0.00549549
0.00549601
0.00549648
0.00549688
0.00549718
0.00549742
0.00549762
0.00549782
0.005498
0.0054982
0.0054984
0.00549861
0.00549884
0.00549908
0.00549932
0.00549954
0.00549972
0.00549983
0.00549987
0.00549392
0.00549397
0.00549413
0.00549429
0.00549445
0.00549464
0.00549488
0.00549517
0.00549552
0.0054959
0.0054963
0.00549669
0.00549706
0.0054974
0.00549771
0.00549799
0.00549822
0.00549839
0.00549853
0.00549864
0.00549875
0.00549886
0.00549896
0.00549907
0.00549919
0.00549931
0.00549945
0.00549958
0.00549972
0.00549983
0.0054999
0.00549993
0.00549787
0.00549793
0.00549802
0.0054981
0.00549817
0.00549825
0.00549833
0.00549843
0.00549855
0.00549867
0.0054988
0.00549893
0.00549905
0.00549917
0.00549927
0.00549936
0.00549943
0.00549949
0.00549953
0.00549957
0.0054996
0.00549963
0.00549967
0.0054997
0.00549974
0.00549978
0.00549982
0.00549986
0.0054999
0.00549994
0.00549997
0.00549998
)
;

boundaryField
{
    movingWall
    {
        type            fixedValue;
        value           uniform 0.0055;
    }
    fixedWalls
    {
        type            zeroGradient;
    }
    floor
    {
        type            zeroGradient;
    }
    frontAndBack
    {
        type            empty;
    }
}


// ************************************************************************* //
