/*--------------------------------*- C++ -*----------------------------------*\
| =========                 |                                                 |
| \\      /  F ield         | OpenFOAM: The Open Source CFD Toolbox           |
|  \\    /   O peration     | Version:  2212                                  |
|   \\  /    A nd           | Website:  www.openfoam.com                      |
|    \\/     M anipulation  |                                                 |
\*---------------------------------------------------------------------------*/
FoamFile
{
    version     2.0;
    format      ascii;
    arch        "LSB;label=64;scalar=64";
    class       volScalarField;
    location    "460";
    object      Sch4;
}
// * * * * * * * * * * * * * * * * * * * * * * * * * * * * * * * * * * * * * //

dimensions      [1 -3 0 0 0 0 0];

internalField   nonuniform List<scalar> 
1024
(
0.0376001
0.0376236
0.03768
0.0377773
0.0379179
0.0380961
0.0382987
0.0385095
0.0387134
0.0388977
0.0390472
0.0391529
0.0392135
0.0392247
0.0391796
0.0390691
0.0388937
0.0386798
0.0384529
0.0382182
0.0379765
0.0377265
0.037467
0.0372014
0.0369411
0.0367011
0.0364956
0.0363335
0.0362166
0.0361407
0.0360982
0.0360808
0.0376041
0.0376286
0.0376876
0.0377888
0.037934
0.0381163
0.038322
0.038535
0.0387412
0.0389277
0.0390784
0.0391838
0.0392438
0.0392542
0.0392083
0.0390969
0.0389204
0.0387056
0.0384781
0.038243
0.0380015
0.0377519
0.0374927
0.0372269
0.0369651
0.0367222
0.0365129
0.0363467
0.0362265
0.0361483
0.0361045
0.0360867
0.0376129
0.037639
0.0377018
0.0378091
0.0379617
0.0381518
0.0383647
0.0385854
0.0388007
0.0389972
0.0391541
0.0392603
0.0393185
0.0393256
0.0392758
0.0391601
0.0389792
0.0387609
0.0385311
0.0382949
0.0380533
0.0378045
0.0375464
0.0372806
0.0370162
0.0367677
0.0365505
0.0363761
0.0362488
0.0361658
0.0361194
0.0361004
0.0376259
0.0376535
0.0377201
0.037834
0.0379956
0.0381964
0.0384224
0.0386594
0.0388952
0.039114
0.0392868
0.0393977
0.0394533
0.0394533
0.0393939
0.0392672
0.0390753
0.0388483
0.0386126
0.0383732
0.0381307
0.0378828
0.0376265
0.0373613
0.037094
0.036838
0.0366097
0.0364232
0.0362853
0.0361948
0.0361443
0.0361237
0.0376416
0.0376702
0.0377396
0.0378592
0.0380301
0.0382447
0.0384903
0.0387543
0.0390243
0.0392805
0.0394822
0.0396059
0.0396606
0.0396499
0.0395738
0.0394265
0.0392135
0.0389692
0.0387215
0.0384748
0.0382289
0.037981
0.0377266
0.0374628
0.0371933
0.0369293
0.0366881
0.0364866
0.0363354
0.0362354
0.0361796
0.0361571
0.0376581
0.037687
0.0377579
0.0378815
0.038061
0.0382916
0.038563
0.0388639
0.0391809
0.0394884
0.0397336
0.0398827
0.0399426
0.0399205
0.0398211
0.0396426
0.0393954
0.0391222
0.0388537
0.0385934
0.0383401
0.0380897
0.0378362
0.037574
0.0373031
0.0370321
0.0367782
0.0365614
0.0363959
0.0362855
0.036224
0.0361994
0.0376741
0.0377028
0.0377737
0.0378992
0.0380861
0.0383332
0.0386338
0.0389781
0.0393507
0.0397195
0.0400212
0.0402104
0.0402854
0.0402549
0.040129
0.0399099
0.0396149
0.0392998
0.0390002
0.0387188
0.0384527
0.0381962
0.0379415
0.0376802
0.0374087
0.0371326
0.0368685
0.0366385
0.0364604
0.0363407
0.036274
0.0362476
0.0376886
0.0377166
0.0377863
0.0379119
0.0381038
0.0383658
0.0386955
0.0390846
0.0395161
0.0399512
0.0403182
0.040559
0.0406588
0.0406254
0.0404725
0.0402063
0.0398519
0.0394829
0.0391432
0.0388342
0.0385507
0.0382849
0.0380267
0.0377653
0.037494
0.0372153
0.036945
0.0367067
0.0365204
0.0363947
0.0363247
0.0362972
0.0377012
0.0377282
0.0377958
0.0379194
0.0381133
0.0383866
0.0387417
0.0391734
0.0396637
0.0401669
0.0406019
0.0408975
0.0410256
0.0409911
0.0408101
0.040491
0.0400667
0.0396353
0.0392509
0.0389123
0.0386108
0.0383355
0.038074
0.037813
0.0375433
0.0372658
0.0369953
0.0367555
0.0365677
0.0364408
0.0363702
0.0363425
0.0377119
0.0377377
0.0378023
0.0379221
0.0381145
0.0383945
0.0387707
0.0392424
0.0397915
0.0403632
0.0408633
0.0412065
0.0413549
0.0413119
0.0410943
0.0407095
0.0402011
0.0397015
0.0392753
0.0389134
0.0386006
0.0383221
0.0380625
0.0378063
0.037543
0.0372727
0.0370097
0.0367772
0.0365955
0.036473
0.0364047
0.0363776
0.0377225
0.0377466
0.0378075
0.0379219
0.03811
0.0383928
0.0387879
0.0393009
0.0399118
0.0405517
0.041108
0.0414826
0.0416332
0.0415642
0.0412897
0.0408109
0.0401898
0.0396133
0.0391554
0.038787
0.0384802
0.0382138
0.0379691
0.0377285
0.0374812
0.0372278
0.0369825
0.0367668
0.0365992
0.036486
0.0364223
0.0363964
0.0377411
0.0377632
0.03782
0.037929
0.038113
0.0383994
0.0388155
0.039375
0.0400516
0.0407542
0.0413506
0.0417345
0.041866
0.0417505
0.0413904
0.0407709
0.0399846
0.0393098
0.0388331
0.0384837
0.0382097
0.0379802
0.0377716
0.0375646
0.0373487
0.0371255
0.0369091
0.0367197
0.0365727
0.036473
0.0364157
0.0363915
0.0377915
0.0378115
0.0378653
0.0379726
0.0381599
0.0384602
0.0389078
0.0395189
0.0402542
0.0409988
0.0416076
0.0419768
0.0420748
0.0419029
0.041433
0.0406183
0.0395934
0.0387755
0.0382827
0.0379768
0.0377652
0.0376018
0.0374559
0.0373061
0.0371427
0.0369679
0.0367947
0.0366409
0.0365194
0.0364344
0.036383
0.0363598
0.0379192
0.037938
0.037992
0.0381048
0.0383079
0.0386391
0.0391325
0.0397934
0.0405609
0.0413059
0.0418886
0.0422242
0.0422955
0.042085
0.0415092
0.0404674
0.0391344
0.0381005
0.0375571
0.0372965
0.0371639
0.0370877
0.0370242
0.0369472
0.0368474
0.036729
0.0366054
0.0364924
0.0364003
0.0363327
0.0362892
0.0362683
0.0381773
0.0381968
0.0382554
0.0383814
0.0386109
0.0389823
0.0395203
0.0402077
0.0409629
0.041658
0.0421815
0.0424879
0.0425761
0.0423928
0.0417773
0.0405543
0.0389029
0.0375685
0.036869
0.0365851
0.0365076
0.0365204
0.0365525
0.0365634
0.0365403
0.0364879
0.0364181
0.036343
0.0362722
0.0362124
0.0361694
0.0361471
0.0385859
0.0386076
0.0386735
0.0388152
0.0390696
0.0394694
0.0400227
0.0406892
0.0413775
0.041982
0.0424417
0.0427628
0.0429588
0.0429389
0.0424656
0.0412634
0.0394151
0.0377223
0.0366806
0.0361619
0.0359794
0.0359767
0.0360435
0.0361068
0.0361306
0.0361085
0.0360525
0.0359826
0.0359174
0.0358682
0.0358383
0.0358252
0.0390486
0.0390723
0.0391431
0.0392917
0.039551
0.0399431
0.0404606
0.0410523
0.0416353
0.0421396
0.0425576
0.042944
0.0433399
0.0436633
0.0436556
0.0429422
0.0413689
0.0395413
0.038085
0.0370377
0.0363467
0.0359102
0.0356518
0.0355166
0.0354699
0.0354921
0.0355729
0.0357011
0.0358559
0.036006
0.0361196
0.0361772
0.0393892
0.0394126
0.0394803
0.0396189
0.0398545
0.0402001
0.0406416
0.0411321
0.041607
0.0420202
0.0423879
0.0427931
0.0433282
0.0440002
0.0446488
0.0449232
0.0444384
0.043388
0.0423232
0.0414112
0.0406922
0.0401459
0.0397604
0.0395175
0.0394061
0.0394153
0.0395314
0.0397272
0.0399605
0.04018
0.0403409
0.0404204
0.0395953
0.0396169
0.0396775
0.0397988
0.0400013
0.0402934
0.0406604
0.0410623
0.0414465
0.0417757
0.0420637
0.0423896
0.042872
0.0436061
0.0445908
0.045659
0.0464185
0.0466774
0.0467174
0.0467254
0.0467481
0.0467915
0.0468499
0.0469025
0.0469325
0.0469262
0.046881
0.0468036
0.0467132
0.0466353
0.0465875
0.0465696
0.0397103
0.03973
0.039783
0.0398868
0.0400577
0.0403024
0.0406088
0.0409441
0.0412641
0.0415346
0.04176
0.0420006
0.0423643
0.0429713
0.0439079
0.0451712
0.0465138
0.0475852
0.0484012
0.0490985
0.049725
0.0502852
0.0507654
0.0511449
0.0514034
0.0515271
0.0515167
0.051393
0.0512001
0.0509987
0.0508464
0.0507725
0.0397646
0.0397826
0.039829
0.0399173
0.0400604
0.0402645
0.0405212
0.0408048
0.0410799
0.041317
0.0415154
0.0417176
0.0420093
0.0424977
0.0432811
0.0444194
0.0457961
0.0470918
0.0481794
0.0491136
0.0499328
0.0506574
0.0512945
0.0518406
0.0522845
0.0526122
0.0528141
0.0528937
0.0528722
0.0527898
0.0526987
0.0526437
0.0397792
0.0397953
0.0398357
0.0399105
0.0400299
0.0401993
0.0404136
0.0406548
0.0408971
0.04112
0.0413235
0.0415397
0.0418328
0.0422843
0.0429704
0.0439478
0.0451592
0.0463762
0.0474587
0.0484184
0.04928
0.0500698
0.0508055
0.0514875
0.0520988
0.0526107
0.0529975
0.0532497
0.0533776
0.0534105
0.0533915
0.0533665
0.0397817
0.0397936
0.039825
0.0398852
0.0399826
0.040122
0.0403006
0.0405077
0.0407296
0.0409579
0.0411992
0.0414792
0.0418419
0.042338
0.0430115
0.0438942
0.0449406
0.0459965
0.0469648
0.0478536
0.048684
0.0494827
0.0502696
0.0510455
0.0517879
0.0524531
0.0529946
0.0533841
0.0536206
0.0537295
0.0537545
0.0537464
0.0398295
0.03983
0.0398413
0.0398763
0.039946
0.040056
0.0402064
0.0403942
0.0406184
0.0408843
0.0412042
0.0415962
0.0420816
0.0426796
0.0434013
0.044252
0.0451817
0.046086
0.0469183
0.0477009
0.0484571
0.0492112
0.0499821
0.0507735
0.0515669
0.0523177
0.0529678
0.0534683
0.0537986
0.0539726
0.0540323
0.0540352
0.0400257
0.0400024
0.0399723
0.0399593
0.0399847
0.0400612
0.0401946
0.0403902
0.0406575
0.0410088
0.0414534
0.041994
0.042627
0.0433445
0.044133
0.0449801
0.0458305
0.0466116
0.0473163
0.0479835
0.0486421
0.049315
0.0500189
0.0507595
0.0515258
0.052283
0.052977
0.0535469
0.0539502
0.0541818
0.0542746
0.0542879
0.0405038
0.0404427
0.0403486
0.0402631
0.0402278
0.0402714
0.04041
0.0406546
0.0410154
0.0414973
0.0420938
0.0427865
0.0435508
0.0443612
0.0451929
0.0460268
0.0468082
0.0474853
0.0480757
0.0486293
0.0491794
0.0497491
0.0503541
0.0510017
0.0516872
0.0523874
0.0530604
0.0536474
0.0540924
0.0543684
0.0544915
0.0545158
0.0413851
0.0412793
0.0411161
0.0409597
0.0408745
0.040909
0.0410884
0.0414206
0.0419033
0.0425215
0.0432475
0.0440457
0.0448803
0.0457207
0.0465421
0.0473275
0.0480279
0.0486063
0.0490922
0.0495384
0.0499795
0.0504378
0.0509281
0.0514592
0.0520313
0.0526329
0.0532352
0.0537897
0.0542386
0.0545388
0.0546861
0.0547216
0.0427424
0.0426013
0.0424053
0.0422325
0.042154
0.042227
0.0424753
0.042897
0.0434724
0.0441687
0.0449444
0.0457577
0.046573
0.0473638
0.0481112
0.0488035
0.0494008
0.0498768
0.0502637
0.0506105
0.0509486
0.0512983
0.0516728
0.0520808
0.0525259
0.0530048
0.0535025
0.0539847
0.0544002
0.0546994
0.0548603
0.0549058
0.0446008
0.0444589
0.0443142
0.0442228
0.0442268
0.0443716
0.0446748
0.0451294
0.0457097
0.0463781
0.0470933
0.047818
0.0485237
0.0491911
0.0498082
0.0503685
0.0508416
0.0512096
0.0515012
0.0517565
0.0520013
0.0522519
0.0525193
0.0528107
0.0531308
0.0534809
0.053856
0.0542371
0.0545865
0.0548573
0.0550166
0.0550687
0.0469754
0.0468958
0.046898
0.0469544
0.0470625
0.0472539
0.0475479
0.0479436
0.0484227
0.0489563
0.049513
0.0500656
0.0505942
0.0510867
0.0515361
0.0519391
0.0522751
0.0525324
0.0527326
0.0529047
0.0530669
0.0532311
0.0534049
0.0535939
0.0538017
0.0540309
0.0542818
0.054547
0.0548049
0.0550203
0.0551592
0.0552111
0.0499235
0.049969
0.0501129
0.0502542
0.0503927
0.0505553
0.0507626
0.0510209
0.0513234
0.0516542
0.0519953
0.0523304
0.0526482
0.0529419
0.0532081
0.0534452
0.0536414
0.0537903
0.053905
0.0540022
0.0540926
0.0541832
0.0542783
0.0543813
0.0544942
0.054619
0.0547571
0.0549067
0.0550593
0.0551961
0.0552932
0.0553348
0.053541
0.0535902
0.0536784
0.0537515
0.0538137
0.0538768
0.05395
0.0540377
0.0541388
0.0542486
0.0543613
0.0544715
0.0545757
0.0546716
0.0547583
0.0548353
0.0548988
0.0549468
0.0549835
0.0550145
0.0550431
0.0550715
0.0551013
0.0551333
0.0551683
0.0552069
0.0552496
0.0552964
0.0553451
0.0553909
0.0554261
0.0554432
)
;

boundaryField
{
    movingWall
    {
        type            fixedValue;
        value           uniform 0.0555;
    }
    fixedWalls
    {
        type            zeroGradient;
    }
    floor
    {
        type            zeroGradient;
    }
    frontAndBack
    {
        type            empty;
    }
}


// ************************************************************************* //
