/*--------------------------------*- C++ -*----------------------------------*\
| =========                 |                                                 |
| \\      /  F ield         | OpenFOAM: The Open Source CFD Toolbox           |
|  \\    /   O peration     | Version:  2212                                  |
|   \\  /    A nd           | Website:  www.openfoam.com                      |
|    \\/     M anipulation  |                                                 |
\*---------------------------------------------------------------------------*/
FoamFile
{
    version     2.0;
    format      ascii;
    arch        "LSB;label=64;scalar=64";
    class       volScalarField;
    location    "1510";
    object      p_rgh;
}
// * * * * * * * * * * * * * * * * * * * * * * * * * * * * * * * * * * * * * //

dimensions      [0 2 -2 0 0 0 0];

internalField   nonuniform List<scalar> 
1024
(
0.0431944
0.043193
0.0431915
0.0431913
0.0431936
0.0431994
0.0432097
0.0432256
0.0432474
0.0432722
0.04329
0.0432892
0.0432698
0.0432358
0.0431974
0.043158
0.0431165
0.0430724
0.0430325
0.043003
0.0429838
0.0429724
0.0429657
0.0429619
0.0429596
0.0429583
0.0429576
0.0429577
0.0429585
0.0429596
0.0429607
0.0429613
0.043197
0.0431956
0.0431944
0.0431946
0.0431971
0.0432028
0.0432128
0.0432282
0.0432496
0.0432738
0.0432912
0.0432907
0.0432719
0.0432382
0.0431999
0.0431603
0.0431186
0.0430745
0.0430348
0.0430053
0.0429862
0.0429748
0.0429681
0.0429642
0.0429618
0.0429604
0.0429597
0.0429596
0.0429601
0.042961
0.0429619
0.0429625
0.0432013
0.0431996
0.0431985
0.0431992
0.043202
0.043208
0.0432181
0.0432337
0.0432552
0.0432797
0.0432971
0.0432969
0.0432783
0.0432446
0.0432061
0.0431662
0.0431242
0.0430798
0.0430398
0.0430102
0.042991
0.0429793
0.0429725
0.0429683
0.0429657
0.0429641
0.0429631
0.0429627
0.0429629
0.0429635
0.0429644
0.0429653
0.0432058
0.0432039
0.0432028
0.0432039
0.0432075
0.0432143
0.0432254
0.0432421
0.0432651
0.043291
0.0433091
0.0433092
0.0432903
0.0432562
0.0432173
0.0431769
0.0431344
0.0430893
0.0430484
0.0430181
0.0429984
0.0429864
0.0429792
0.0429746
0.0429715
0.0429693
0.0429678
0.0429669
0.0429667
0.0429671
0.0429682
0.0429693
0.0432089
0.0432069
0.0432061
0.0432079
0.0432126
0.0432211
0.0432342
0.0432533
0.0432789
0.0433068
0.043326
0.0433264
0.0433073
0.043273
0.0432339
0.0431932
0.0431501
0.0431039
0.0430614
0.0430298
0.0430091
0.0429964
0.0429885
0.0429832
0.0429793
0.0429763
0.0429738
0.0429721
0.0429714
0.0429716
0.0429728
0.0429743
0.0432088
0.0432071
0.0432069
0.0432097
0.0432161
0.0432271
0.0432434
0.043266
0.0432948
0.0433249
0.0433453
0.0433461
0.0433271
0.0432935
0.043255
0.0432147
0.0431714
0.0431239
0.043079
0.0430452
0.0430231
0.0430093
0.0430003
0.0429939
0.0429888
0.0429844
0.0429806
0.0429778
0.0429762
0.0429761
0.0429773
0.042979
0.0432043
0.0432032
0.0432039
0.0432081
0.0432167
0.0432308
0.0432512
0.0432782
0.0433106
0.0433429
0.043364
0.0433651
0.0433466
0.0433147
0.0432781
0.0432394
0.0431967
0.0431481
0.0431004
0.0430635
0.0430394
0.0430241
0.0430137
0.0430057
0.0429987
0.0429924
0.0429868
0.0429825
0.0429798
0.0429791
0.0429802
0.042982
0.043196
0.0431957
0.0431974
0.0432029
0.0432138
0.0432315
0.0432564
0.0432884
0.0433249
0.0433596
0.043381
0.0433815
0.0433633
0.0433337
0.0432999
0.043264
0.0432227
0.0431733
0.0431228
0.0430822
0.0430558
0.0430387
0.0430264
0.0430162
0.0430069
0.042998
0.0429901
0.0429839
0.0429801
0.0429787
0.0429793
0.0429808
0.0431865
0.0431868
0.0431893
0.0431959
0.0432089
0.0432299
0.0432596
0.0432971
0.0433389
0.0433767
0.0433976
0.043396
0.043377
0.0433489
0.0433182
0.0432855
0.043246
0.0431959
0.0431421
0.0430977
0.0430686
0.0430496
0.0430352
0.0430225
0.0430102
0.0429985
0.0429881
0.04298
0.042975
0.0429728
0.0429729
0.0429739
0.0431801
0.0431808
0.0431836
0.043191
0.0432056
0.0432295
0.0432639
0.0433078
0.0433572
0.0433985
0.0434173
0.0434113
0.0433894
0.0433613
0.0433327
0.043303
0.0432651
0.0432141
0.0431563
0.0431081
0.0430749
0.0430537
0.0430373
0.0430219
0.0430066
0.0429921
0.0429795
0.0429701
0.0429643
0.0429617
0.0429612
0.0429616
0.0431821
0.0431827
0.0431856
0.0431935
0.0432096
0.0432367
0.0432763
0.0433276
0.0433862
0.0434295
0.0434434
0.0434306
0.0434039
0.043374
0.0433459
0.043318
0.0432817
0.043231
0.0431727
0.0431177
0.0430772
0.0430518
0.0430331
0.0430152
0.0429976
0.0429811
0.0429674
0.0429577
0.042952
0.0429494
0.0429485
0.0429484
0.0431986
0.0431988
0.0432015
0.0432099
0.0432281
0.04326
0.0433076
0.0433692
0.0434318
0.0434715
0.0434766
0.043456
0.0434244
0.0433924
0.0433642
0.0433381
0.043306
0.0432607
0.0432058
0.0431486
0.0430974
0.0430592
0.0430352
0.0430135
0.0429936
0.0429758
0.0429619
0.0429525
0.0429473
0.0429451
0.0429444
0.0429441
0.0432349
0.0432346
0.0432372
0.043247
0.0432696
0.0433098
0.0433686
0.0434374
0.0434933
0.0435203
0.0435165
0.0434925
0.0434607
0.0434287
0.0434003
0.0433768
0.0433547
0.0433254
0.0432887
0.0432473
0.0432016
0.0431501
0.0430953
0.0430555
0.0430256
0.0430004
0.0429827
0.0429717
0.0429665
0.0429651
0.0429654
0.0429657
0.0432985
0.0432978
0.0433017
0.0433163
0.0433483
0.0434018
0.0434719
0.0435402
0.0435828
0.043592
0.0435782
0.0435536
0.0435255
0.0434973
0.0434712
0.0434495
0.0434371
0.0434308
0.0434265
0.0434239
0.0434181
0.0434006
0.0433606
0.0432909
0.043207
0.0431345
0.043094
0.0430691
0.0430568
0.0430534
0.0430544
0.0430559
0.0433545
0.0433536
0.0433584
0.0433759
0.0434122
0.0434683
0.043535
0.0435945
0.0436313
0.0436428
0.043636
0.0436188
0.0435969
0.0435731
0.0435495
0.0435288
0.0435174
0.0435232
0.0435435
0.0435764
0.0436159
0.0436532
0.0436774
0.043678
0.0436467
0.0435794
0.0434812
0.0433903
0.043328
0.0432998
0.0432898
0.043288
0.0433669
0.043366
0.0433706
0.0433876
0.043423
0.0434766
0.0435395
0.0435963
0.0436351
0.0436538
0.0436566
0.0436488
0.0436331
0.0436113
0.0435847
0.0435569
0.0435374
0.0435359
0.0435564
0.0435953
0.0436477
0.0437067
0.0437638
0.0438105
0.0438398
0.043848
0.0438349
0.0438033
0.0437597
0.0437146
0.0436855
0.0436736
0.0433287
0.0433279
0.0433315
0.0433461
0.0433778
0.0434279
0.0434893
0.0435486
0.043594
0.0436217
0.0436338
0.0436339
0.0436237
0.0436036
0.0435748
0.043541
0.0435142
0.0435017
0.0435079
0.043531
0.0435682
0.0436167
0.0436715
0.0437255
0.0437718
0.043805
0.0438234
0.0438286
0.0438243
0.0438152
0.0438054
0.0437985
0.0432791
0.0432783
0.0432806
0.0432919
0.0433185
0.0433636
0.043423
0.0434853
0.0435384
0.0435755
0.0435967
0.0436046
0.0436008
0.0435856
0.0435604
0.0435299
0.0435077
0.0434948
0.0434901
0.0434932
0.043505
0.0435272
0.04356
0.0436003
0.0436419
0.0436778
0.0437032
0.0437167
0.0437206
0.0437183
0.0437132
0.0437081
0.0432479
0.0432473
0.0432485
0.0432566
0.0432776
0.0433158
0.0433705
0.0434344
0.0434931
0.0435389
0.0435687
0.0435841
0.0435863
0.0435766
0.0435568
0.0435328
0.04352
0.0435158
0.0435098
0.043504
0.043498
0.0434955
0.0435017
0.0435194
0.0435464
0.0435761
0.0436012
0.0436173
0.0436239
0.0436232
0.0436183
0.0436127
0.043239
0.0432384
0.0432388
0.0432444
0.0432608
0.043293
0.0433421
0.0434031
0.0434642
0.0435164
0.0435536
0.0435752
0.0435821
0.0435755
0.0435582
0.0435368
0.0435252
0.0435272
0.0435304
0.0435313
0.0435226
0.04351
0.0434983
0.0434958
0.0435066
0.0435269
0.043549
0.0435657
0.0435739
0.0435741
0.0435688
0.0435622
0.043246
0.0432453
0.043245
0.0432487
0.0432617
0.0432892
0.0433333
0.0433908
0.0434521
0.0435073
0.0435489
0.0435742
0.0435827
0.0435762
0.0435576
0.0435344
0.043519
0.0435213
0.0435316
0.0435421
0.0435464
0.0435433
0.0435298
0.0435162
0.0435157
0.0435291
0.0435496
0.0435681
0.0435788
0.0435804
0.0435748
0.043567
0.0432621
0.0432612
0.0432602
0.0432625
0.0432732
0.0432975
0.0433382
0.0433929
0.0434531
0.0435089
0.0435515
0.0435769
0.043584
0.0435744
0.0435515
0.0435233
0.043503
0.0435034
0.0435186
0.0435379
0.043555
0.0435659
0.043568
0.0435651
0.0435611
0.0435741
0.0435987
0.0436242
0.043641
0.0436462
0.0436411
0.043632
0.0432815
0.0432802
0.0432786
0.0432802
0.0432899
0.0433132
0.0433527
0.0434059
0.0434648
0.0435188
0.043559
0.0435808
0.0435831
0.0435675
0.0435383
0.0435036
0.0434784
0.0434768
0.0434947
0.0435207
0.0435492
0.0435756
0.0435978
0.0436162
0.0436334
0.0436563
0.0436921
0.0437325
0.0437629
0.0437761
0.0437733
0.0437631
0.0433001
0.0432981
0.0432961
0.0432979
0.0433086
0.0433332
0.043374
0.0434276
0.0434849
0.0435351
0.0435696
0.0435841
0.0435783
0.0435545
0.0435172
0.0434753
0.0434452
0.0434413
0.0434603
0.0434918
0.0435304
0.0435727
0.0436172
0.0436641
0.0437146
0.0437692
0.0438289
0.0438932
0.0439479
0.0439775
0.0439806
0.0439709
0.0433148
0.0433117
0.0433096
0.0433131
0.0433271
0.0433562
0.0434006
0.0434556
0.0435108
0.0435549
0.0435807
0.043585
0.0435687
0.0435346
0.0434882
0.0434385
0.0434034
0.043397
0.0434157
0.0434522
0.0435002
0.0435584
0.0436268
0.0437068
0.0437989
0.0439008
0.0440063
0.0441087
0.0442002
0.0442595
0.0442761
0.0442708
0.043323
0.0433185
0.043317
0.0433246
0.0433454
0.0433809
0.0434305
0.0434875
0.0435393
0.0435751
0.0435895
0.0435815
0.0435528
0.0435074
0.043451
0.0433936
0.0433537
0.0433452
0.0433642
0.0434044
0.043461
0.0435345
0.0436275
0.0437431
0.0438826
0.0440423
0.0442119
0.0443762
0.0445208
0.0446298
0.0446753
0.044683
0.0433188
0.0433133
0.0433146
0.0433302
0.0433618
0.0434069
0.0434615
0.0435195
0.0435661
0.0435914
0.0435927
0.043571
0.0435292
0.043472
0.0434059
0.0433414
0.0432978
0.0432878
0.0433078
0.0433516
0.0434164
0.0435044
0.043621
0.0437719
0.0439605
0.0441837
0.0444296
0.0446777
0.0449036
0.0450878
0.0451895
0.0452269
0.0432893
0.0432864
0.0432964
0.0433272
0.0433747
0.0434315
0.0434912
0.0435475
0.0435862
0.0435994
0.043587
0.0435516
0.0434973
0.0434294
0.0433548
0.0432849
0.0432391
0.043229
0.0432506
0.0432982
0.0433709
0.0434721
0.0436096
0.0437922
0.0440264
0.044312
0.044639
0.0449868
0.0453253
0.045618
0.045818
0.0459152
0.0432089
0.0432209
0.0432559
0.0433145
0.0433835
0.0434524
0.0435164
0.043568
0.0435965
0.0435973
0.0435719
0.0435244
0.0434596
0.0433832
0.0433025
0.0432295
0.0431835
0.0431744
0.0431981
0.0432499
0.0433294
0.0434414
0.0435956
0.0438036
0.0440748
0.0444135
0.0448159
0.045268
0.0457437
0.0461984
0.0465524
0.0467796
0.0430238
0.0430978
0.0431991
0.0433023
0.0433936
0.0434733
0.0435376
0.0435815
0.0435992
0.0435886
0.0435523
0.0434952
0.0434226
0.0433406
0.0432565
0.0431824
0.0431372
0.0431298
0.0431558
0.0432113
0.0432959
0.0434154
0.043581
0.0438061
0.0441025
0.0444787
0.0449387
0.0454822
0.0461026
0.0467718
0.0474031
0.047954
0.0425338
0.0429252
0.0431683
0.0433191
0.0434232
0.0435037
0.0435618
0.0435953
0.0436024
0.0435819
0.0435372
0.0434731
0.0433953
0.0433099
0.0432241
0.0431498
0.0431057
0.0430997
0.0431275
0.0431853
0.0432727
0.0433961
0.0435675
0.043801
0.0441097
0.0445049
0.0449973
0.045601
0.0463399
0.0472483
0.0483556
0.0496136
0.0415157
0.0427523
0.0432181
0.0433685
0.0434656
0.04354
0.0435887
0.0436125
0.0436109
0.0435834
0.0435328
0.0434644
0.0433835
0.043296
0.0432092
0.0431348
0.043091
0.0430857
0.0431142
0.0431728
0.0432611
0.0433856
0.0435583
0.0437936
0.0441049
0.0445048
0.0450077
0.045639
0.0464515
0.0475526
0.0491604
0.0514223
)
;

boundaryField
{
    movingWall
    {
        type            fixedFluxPressure;
        gradient        uniform 0;
        value           nonuniform List<scalar> 
32
(
0.0415157
0.0427523
0.0432181
0.0433685
0.0434656
0.04354
0.0435887
0.0436125
0.0436109
0.0435834
0.0435328
0.0434644
0.0433835
0.043296
0.0432092
0.0431348
0.043091
0.0430857
0.0431142
0.0431728
0.0432611
0.0433856
0.0435583
0.0437936
0.0441049
0.0445048
0.0450077
0.045639
0.0464515
0.0475526
0.0491604
0.0514223
)
;
    }
    fixedWalls
    {
        type            fixedFluxPressure;
        gradient        uniform 0;
        value           nonuniform List<scalar> 
64
(
0.0431944
0.043197
0.0432013
0.0432058
0.0432089
0.0432088
0.0432043
0.043196
0.0431865
0.0431801
0.0431821
0.0431986
0.0432349
0.0432985
0.0433545
0.0433669
0.0433287
0.0432791
0.0432479
0.043239
0.043246
0.0432621
0.0432815
0.0433001
0.0433148
0.043323
0.0433188
0.0432893
0.0432089
0.0430238
0.0425338
0.0415157
0.0429613
0.0429625
0.0429653
0.0429693
0.0429743
0.042979
0.042982
0.0429808
0.0429739
0.0429616
0.0429484
0.0429441
0.0429657
0.0430559
0.043288
0.0436736
0.0437985
0.0437081
0.0436127
0.0435622
0.043567
0.043632
0.0437631
0.0439709
0.0442708
0.044683
0.0452269
0.0459152
0.0467796
0.047954
0.0496136
0.0514223
)
;
    }
    floor
    {
        type            fixedFluxPressure;
        gradient        uniform 0;
        value           nonuniform List<scalar> 
32
(
0.0431944
0.043193
0.0431915
0.0431913
0.0431936
0.0431994
0.0432097
0.0432256
0.0432474
0.0432722
0.04329
0.0432892
0.0432698
0.0432358
0.0431974
0.043158
0.0431165
0.0430724
0.0430325
0.043003
0.0429838
0.0429724
0.0429657
0.0429619
0.0429596
0.0429583
0.0429576
0.0429577
0.0429585
0.0429596
0.0429607
0.0429613
)
;
    }
    frontAndBack
    {
        type            empty;
    }
}


// ************************************************************************* //
