/*--------------------------------*- C++ -*----------------------------------*\
| =========                 |                                                 |
| \\      /  F ield         | OpenFOAM: The Open Source CFD Toolbox           |
|  \\    /   O peration     | Version:  2212                                  |
|   \\  /    A nd           | Website:  www.openfoam.com                      |
|    \\/     M anipulation  |                                                 |
\*---------------------------------------------------------------------------*/
FoamFile
{
    version     2.0;
    format      ascii;
    arch        "LSB;label=64;scalar=64";
    class       surfaceScalarField;
    location    "1510";
    object      phi;
}
// * * * * * * * * * * * * * * * * * * * * * * * * * * * * * * * * * * * * * //

dimensions      [0 3 -1 0 0 0 0];

oriented        oriented;

internalField   nonuniform List<scalar> 
1984
(
-5.26725e-10
5.26622e-10
-6.70303e-09
6.17631e-09
-2.00888e-08
1.33858e-08
-3.91034e-08
1.90147e-08
-6.0899e-08
2.17956e-08
-8.21796e-08
2.12806e-08
-9.90569e-08
1.68773e-08
-1.06269e-07
7.21196e-09
-9.58457e-08
-1.04231e-08
-5.94878e-08
-3.63579e-08
-1.61629e-10
-5.93262e-08
5.94223e-08
-5.9584e-08
9.94871e-08
-4.00649e-08
1.19546e-07
-2.00589e-08
1.28939e-07
-9.39295e-09
1.38497e-07
-9.55837e-09
1.49997e-07
-1.15e-08
1.54025e-07
-4.02804e-09
1.45875e-07
8.15083e-09
1.29389e-07
1.64855e-08
1.10005e-07
1.93842e-08
9.11464e-08
1.88585e-08
7.41759e-08
1.69705e-08
5.92048e-08
1.4971e-08
4.57833e-08
1.34217e-08
3.33925e-08
1.23906e-08
2.19872e-08
1.14054e-08
1.21369e-08
9.85014e-09
4.78052e-09
7.35641e-09
6.18177e-10
4.16232e-09
-5.21534e-10
1.13962e-09
-5.2157e-10
-6.54856e-09
7.07518e-09
-2.95027e-08
2.91305e-08
-7.05381e-08
5.44213e-08
-1.26357e-07
7.48333e-08
-1.89561e-07
8.50001e-08
-2.50162e-07
8.18816e-08
-2.95906e-07
6.26211e-08
-3.11312e-07
2.26183e-08
-2.75691e-07
-4.60441e-08
-1.69533e-07
-1.42517e-07
2.36327e-09
-2.31222e-07
1.78654e-07
-2.35875e-07
3.02599e-07
-1.6401e-07
3.72838e-07
-9.02971e-08
4.10916e-07
-4.74718e-08
4.46128e-07
-4.47702e-08
4.83149e-07
-4.85212e-08
4.97301e-07
-1.81799e-08
4.762e-07
2.92523e-08
4.2904e-07
6.36451e-08
3.706e-07
7.78239e-08
3.11288e-07
7.81711e-08
2.55962e-07
7.2296e-08
2.05772e-07
6.51616e-08
1.60086e-07
5.91075e-08
1.18078e-07
5.43987e-08
8.00332e-08
4.94498e-08
4.76603e-08
4.22229e-08
2.31996e-08
3.18171e-08
7.94882e-09
1.9413e-08
1.20055e-09
7.88778e-09
6.78948e-10
-1.52846e-08
2.23597e-08
-5.94768e-08
7.33228e-08
-1.31674e-07
1.26619e-07
-2.25905e-07
1.69065e-07
-3.30274e-07
1.89369e-07
-4.279e-07
1.79508e-07
-4.97691e-07
1.32412e-07
-5.14083e-07
3.90106e-08
-4.4634e-07
-1.13788e-07
-2.68926e-07
-3.1993e-07
1.20427e-08
-5.12191e-07
3.03274e-07
-5.27106e-07
5.1796e-07
-3.78697e-07
6.52377e-07
-2.24713e-07
7.34018e-07
-1.29113e-07
8.06684e-07
-1.17436e-07
8.77302e-07
-1.19139e-07
9.07944e-07
-4.88219e-08
8.79062e-07
5.81343e-08
8.03495e-07
1.39213e-07
7.04326e-07
1.76993e-07
5.99294e-07
1.83203e-07
4.97817e-07
1.73773e-07
4.03255e-07
1.59723e-07
3.1587e-07
1.46493e-07
2.35395e-07
1.34874e-07
1.62906e-07
1.21939e-07
1.01232e-07
1.03897e-07
5.36111e-08
7.94377e-08
2.17752e-08
5.12488e-08
4.87575e-09
2.47872e-08
5.55464e-09
-2.37477e-08
4.61075e-08
-8.92756e-08
1.38851e-07
-1.9225e-07
2.29593e-07
-3.22821e-07
2.99635e-07
-4.6417e-07
3.30718e-07
-5.9269e-07
3.08027e-07
-6.78855e-07
2.18578e-07
-6.88022e-07
4.81771e-08
-5.82968e-07
-2.18842e-07
-3.38371e-07
-5.64527e-07
3.23174e-08
-8.8288e-07
4.18443e-07
-9.13231e-07
7.19742e-07
-6.79996e-07
9.26704e-07
-4.31676e-07
1.06628e-06
-2.68685e-07
1.19029e-06
-2.41449e-07
1.30642e-06
-2.35272e-07
1.36508e-06
-1.0748e-07
1.33887e-06
8.43417e-08
1.24238e-06
2.35704e-07
1.10579e-06
3.13583e-07
9.539e-07
3.35094e-07
8.01365e-07
3.26308e-07
6.54951e-07
3.06137e-07
5.17141e-07
2.84303e-07
3.89283e-07
2.62731e-07
2.738e-07
2.37422e-07
1.74733e-07
2.02964e-07
9.64146e-08
1.57756e-07
4.15505e-08
1.06113e-07
1.01509e-08
5.61866e-08
1.57056e-08
-2.94317e-08
7.55392e-08
-1.10402e-07
2.19821e-07
-2.36665e-07
3.55856e-07
-3.95131e-07
4.58101e-07
-5.64403e-07
4.9999e-07
-7.14612e-07
4.58237e-07
-8.08543e-07
3.12508e-07
-8.03766e-07
4.34006e-08
-6.60783e-07
-3.61825e-07
-3.61258e-07
-8.64051e-07
6.39438e-08
-1.30808e-06
5.05419e-07
-1.35471e-06
8.73452e-07
-1.04803e-06
1.14947e-06
-7.07694e-07
1.35487e-06
-4.74083e-07
1.54261e-06
-4.29195e-07
1.71898e-06
-4.1164e-07
1.8236e-06
-2.12099e-07
1.81771e-06
9.02361e-08
1.71425e-06
3.39156e-07
1.54996e-06
4.77876e-07
1.35624e-06
5.28814e-07
1.15317e-06
5.29382e-07
9.51753e-07
5.07551e-07
7.57907e-07
4.7815e-07
5.75727e-07
4.44911e-07
4.09776e-07
4.03373e-07
2.65806e-07
3.46934e-07
1.49789e-07
2.73772e-07
6.61915e-08
1.8971e-07
1.66638e-08
1.05714e-07
3.23695e-08
-3.01096e-08
1.05649e-07
-1.14813e-07
3.04525e-07
-2.49146e-07
4.90188e-07
-4.19729e-07
6.28685e-07
-6.02708e-07
6.82969e-07
-7.63303e-07
6.18832e-07
-8.57648e-07
4.06853e-07
-8.36883e-07
2.26353e-08
-6.63225e-07
-5.35483e-07
-3.31745e-07
-1.19553e-06
1.0134e-07
-1.74117e-06
5.45352e-07
-1.79872e-06
9.41412e-07
-1.44409e-06
1.26407e-06
-1.03036e-06
1.52797e-06
-7.3798e-07
1.78273e-06
-6.83957e-07
2.03246e-06
-6.61364e-07
2.20702e-06
-3.86661e-07
2.24788e-06
4.9371e-08
2.15892e-06
4.28116e-07
1.98402e-06
6.52783e-07
1.76115e-06
7.51682e-07
1.51571e-06
7.74823e-07
1.2633e-06
7.59958e-07
1.01402e-06
7.27432e-07
7.75742e-07
6.83186e-07
5.56247e-07
6.22869e-07
3.63918e-07
5.39263e-07
2.07116e-07
4.30574e-07
9.25158e-08
3.04311e-07
2.35752e-08
1.74655e-07
5.59447e-08
-2.47842e-08
1.30433e-07
-9.82151e-08
3.77956e-07
-2.20045e-07
6.12018e-07
-3.80966e-07
7.89606e-07
-5.58789e-07
8.60792e-07
-7.16877e-07
7.7692e-07
-8.06648e-07
4.96624e-07
-7.74708e-07
-9.30453e-09
-5.87238e-07
-7.22953e-07
-2.58427e-07
-1.52434e-06
1.29983e-07
-2.12958e-06
5.17913e-07
-2.18665e-06
8.85285e-07
-1.81146e-06
1.20944e-06
-1.35451e-06
1.50154e-06
-1.03009e-06
1.8075e-06
-9.89912e-07
2.13294e-06
-9.86805e-07
2.40221e-06
-6.55936e-07
2.52558e-06
-7.39951e-08
2.48222e-06
4.71474e-07
2.32232e-06
8.1269e-07
2.0917e-06
9.82302e-07
1.82133e-06
1.04519e-06
1.53139e-06
1.0499e-06
1.2365e-06
1.02233e-06
9.49251e-07
9.70432e-07
6.81846e-07
8.90274e-07
4.46433e-07
7.74676e-07
2.5422e-07
6.22786e-07
1.13653e-07
4.44878e-07
2.90063e-08
2.59302e-07
8.4951e-08
-1.45889e-08
1.45022e-07
-6.31467e-08
4.26514e-07
-1.51776e-07
7.00648e-07
-2.79035e-07
9.16864e-07
-4.29702e-07
1.01146e-06
-5.7049e-07
9.17708e-07
-6.51666e-07
5.778e-07
-6.20087e-07
-4.08837e-08
-4.44472e-07
-8.98568e-07
-1.64303e-07
-1.80451e-06
1.2266e-07
-2.41654e-06
3.92241e-07
-2.45623e-06
6.60558e-07
-2.07978e-06
9.20168e-07
-1.61412e-06
1.18494e-06
-1.29485e-06
1.49912e-06
-1.30409e-06
1.87952e-06
-1.36721e-06
2.25569e-06
-1.03211e-06
2.5051e-06
-3.23405e-07
2.55506e-06
4.2152e-07
2.44675e-06
9.21e-07
2.23996e-06
1.18908e-06
1.973e-06
1.31215e-06
1.67035e-06
1.35255e-06
1.35153e-06
1.34115e-06
1.03488e-06
1.28708e-06
7.38373e-07
1.18678e-06
4.78775e-07
1.03427e-06
2.6961e-07
8.31951e-07
1.19187e-07
5.95301e-07
3.00793e-08
3.4841e-07
1.1503e-07
-2.81239e-09
1.47834e-07
-1.98025e-08
4.43504e-07
-6.16921e-08
7.42537e-07
-1.35705e-07
9.90877e-07
-2.37971e-07
1.11372e-06
-3.45228e-07
1.02497e-06
-4.14146e-07
6.46718e-07
-3.9433e-07
-6.06997e-08
-2.6448e-07
-1.02842e-06
-9.0885e-08
-1.97811e-06
2.87781e-08
-2.5362e-06
1.11742e-07
-2.53919e-06
2.03401e-07
-2.17144e-06
3.18982e-07
-1.7297e-06
4.8074e-07
-1.45661e-06
7.30477e-07
-1.55383e-06
1.11092e-06
-1.74765e-06
1.5799e-06
-1.50109e-06
2.0057e-06
-7.49209e-07
2.21957e-06
2.07651e-07
2.21393e-06
9.26644e-07
2.07573e-06
1.32729e-06
1.85413e-06
1.53374e-06
1.57754e-06
1.62914e-06
1.27118e-06
1.64751e-06
9.60587e-07
1.59767e-06
6.70861e-07
1.47651e-06
4.23146e-07
1.28199e-06
2.30961e-07
1.02414e-06
9.88296e-08
7.27433e-07
2.4075e-08
4.23164e-07
1.39105e-07
6.44041e-09
1.41394e-07
1.70831e-08
4.32861e-07
2.08023e-08
7.38818e-07
5.50671e-09
1.00617e-06
-3.50811e-08
1.15431e-06
-9.26547e-08
1.08254e-06
-1.40546e-07
6.9461e-07
-1.47007e-07
-5.4239e-08
-1.08294e-07
-1.06713e-06
-1.1366e-07
-1.97274e-06
-2.31469e-07
-2.41839e-06
-4.11857e-07
-2.35881e-06
-5.79221e-07
-2.00407e-06
-6.93551e-07
-1.61537e-06
-7.23632e-07
-1.42653e-06
-6.29596e-07
-1.64786e-06
-3.41694e-07
-2.03555e-06
1.39454e-07
-1.98224e-06
7.65173e-07
-1.37493e-06
1.25827e-06
-2.85442e-07
1.45644e-06
7.28473e-07
1.46035e-06
1.32337e-06
1.34831e-06
1.64579e-06
1.15601e-06
1.82143e-06
9.17659e-07
1.88587e-06
6.68408e-07
1.84692e-06
4.40781e-07
1.70414e-06
2.57705e-07
1.46506e-06
1.28491e-07
1.15335e-06
4.95441e-08
8.06379e-07
1.05708e-08
4.62138e-07
1.49676e-07
1.03072e-08
1.31087e-07
3.51723e-08
4.07996e-07
6.66488e-08
7.07341e-07
9.37416e-08
9.7908e-07
1.05642e-07
1.14241e-06
9.72071e-08
1.09097e-06
7.25596e-08
7.19257e-07
1.93484e-08
-1.02754e-09
-9.62113e-08
-9.51572e-07
-3.70991e-07
-1.69796e-06
-8.16191e-07
-1.97319e-06
-1.33763e-06
-1.83737e-06
-1.83709e-06
-1.50461e-06
-2.25789e-06
-1.19457e-06
-2.56274e-06
-1.12168e-06
-2.70142e-06
-1.50919e-06
-2.57663e-06
-2.16034e-06
-2.17125e-06
-2.38762e-06
-1.52024e-06
-2.02594e-06
-6.8104e-07
-1.12464e-06
-2.64274e-08
7.38603e-08
2.60794e-07
1.03615e-06
3.67861e-07
1.53872e-06
3.51765e-07
1.83753e-06
2.65667e-07
1.97196e-06
1.57172e-07
1.95542e-06
6.39542e-08
1.79735e-06
5.258e-09
1.52376e-06
-1.80807e-08
1.17669e-06
-1.7194e-08
8.05493e-07
-6.83836e-09
4.51782e-07
1.42838e-07
6.67669e-09
1.2441e-07
2.49306e-08
3.89742e-07
5.12268e-08
6.81045e-07
7.88086e-08
9.51498e-07
9.89665e-08
1.12225e-06
1.00657e-07
1.08928e-06
6e-08
7.59914e-07
-7.72758e-08
1.36248e-07
-4.46803e-07
-5.82045e-07
-1.09844e-06
-1.04632e-06
-1.95704e-06
-1.1146e-06
-2.88436e-06
-9.10036e-07
-3.7692e-06
-6.1977e-07
-4.54914e-06
-4.14641e-07
-5.18305e-06
-4.87766e-07
-5.61562e-06
-1.07661e-06
-5.71026e-06
-2.0657e-06
-5.41947e-06
-2.67841e-06
-4.77111e-06
-2.67431e-06
-3.81741e-06
-2.07834e-06
-2.68479e-06
-1.05876e-06
-1.74922e-06
1.00583e-07
-1.17199e-06
9.61492e-07
-8.28826e-07
1.49436e-06
-6.19738e-07
1.76287e-06
-4.831e-07
1.81878e-06
-3.70823e-07
1.68508e-06
-2.63976e-07
1.41691e-06
-1.63487e-07
1.0762e-06
-7.89842e-08
7.2099e-07
-2.17378e-08
3.94536e-07
1.211e-07
-4.64699e-09
1.29057e-07
-2.02456e-08
4.05341e-07
-4.70072e-08
7.07807e-07
-8.33227e-08
9.87813e-07
-1.30955e-07
1.16989e-06
-2.08619e-07
1.16695e-06
-3.81436e-07
9.32731e-07
-7.89519e-07
5.44331e-07
-1.58014e-06
2.08577e-07
-2.72652e-06
1.00062e-07
-4.06333e-06
2.22208e-07
-5.41272e-06
4.39346e-07
-6.65537e-06
6.22882e-07
-7.72984e-06
6.59829e-07
-8.61899e-06
4.01385e-07
-9.30211e-06
-3.93495e-07
-9.61812e-06
-1.74969e-06
-9.47229e-06
-2.82424e-06
-8.88291e-06
-3.26368e-06
-7.8689e-06
-3.09235e-06
-6.47496e-06
-2.4527e-06
-4.85376e-06
-1.52062e-06
-3.42094e-06
-4.71333e-07
-2.33278e-06
4.06204e-07
-1.58227e-06
1.01236e-06
-1.07878e-06
1.31529e-06
-7.08691e-07
1.31499e-06
-4.35471e-07
1.14369e-06
-2.37711e-07
8.78441e-07
-1.03518e-07
5.86796e-07
-2.6075e-08
3.17093e-07
9.50251e-08
-3.65709e-08
1.65628e-07
-1.43494e-07
5.12264e-07
-3.21464e-07
8.85777e-07
-5.68891e-07
1.23524e-06
-8.93429e-07
1.49442e-06
-1.33478e-06
1.6083e-06
-1.98201e-06
1.57996e-06
-2.93692e-06
1.49925e-06
-4.20795e-06
1.47961e-06
-5.66446e-06
1.55657e-06
-7.14712e-06
1.70487e-06
-8.58111e-06
1.87333e-06
-9.94314e-06
1.98491e-06
-1.12058e-05
1.92253e-06
-1.23139e-05
1.50949e-06
-1.31918e-05
4.84388e-07
-1.36666e-05
-1.27491e-06
-1.36684e-05
-2.82244e-06
-1.31882e-05
-3.74384e-06
-1.22179e-05
-4.06266e-06
-1.07772e-05
-3.89341e-06
-8.93619e-06
-3.36164e-06
-6.82484e-06
-2.58268e-06
-4.761e-06
-1.65764e-06
-3.0152e-06
-7.33443e-07
-1.72638e-06
2.647e-08
-8.84351e-07
4.72962e-07
-4.03097e-07
6.6244e-07
-1.56898e-07
6.32242e-07
-4.42699e-08
4.74168e-07
-5.1407e-09
2.77964e-07
8.98845e-08
-5.97621e-08
2.2539e-07
-2.40116e-07
6.92618e-07
-5.50211e-07
1.19587e-06
-9.94909e-07
1.67994e-06
-1.58255e-06
2.08207e-06
-2.33649e-06
2.36224e-06
-3.29216e-06
2.53562e-06
-4.46342e-06
2.67051e-06
-5.8182e-06
2.83439e-06
-7.30661e-06
3.04498e-06
-8.87622e-06
3.27448e-06
-1.04738e-05
3.47095e-06
-1.20478e-05
3.55885e-06
-1.35461e-05
3.42085e-06
-1.49063e-05
2.86965e-06
-1.60404e-05
1.61855e-06
-1.66952e-05
-6.201e-07
-1.68595e-05
-2.65816e-06
-1.65559e-05
-4.04746e-06
-1.57646e-05
-4.85389e-06
-1.4479e-05
-5.17909e-06
-1.27346e-05
-5.10601e-06
-1.06214e-05
-4.69585e-06
-8.27105e-06
-4.00801e-06
-5.88311e-06
-3.12138e-06
-3.72078e-06
-2.13586e-06
-2.07036e-06
-1.17746e-06
-9.77562e-07
-4.30357e-07
-3.67428e-07
2.21076e-08
-9.49714e-08
2.01712e-07
-8.18528e-09
1.91178e-07
8.16992e-08
-5.54488e-08
2.80839e-07
-2.31036e-07
8.68205e-07
-5.48205e-07
1.51304e-06
-1.02556e-06
2.1573e-06
-1.67716e-06
2.73367e-06
-2.51143e-06
3.19651e-06
-3.52717e-06
3.55136e-06
-4.70787e-06
3.85121e-06
-6.02609e-06
4.15261e-06
-7.45523e-06
4.47412e-06
-8.97157e-06
4.79082e-06
-1.05479e-05
5.04729e-06
-1.21495e-05
5.16045e-06
-1.3733e-05
5.00434e-06
-1.52442e-05
4.3808e-06
-1.66038e-05
2.97824e-06
-1.74902e-05
2.66258e-07
-1.78847e-05
-2.26362e-06
-1.78853e-05
-4.04686e-06
-1.7467e-05
-5.27219e-06
-1.6583e-05
-6.06309e-06
-1.52137e-05
-6.47538e-06
-1.33899e-05
-6.51965e-06
-1.12034e-05
-6.19451e-06
-8.8061e-06
-5.51868e-06
-6.3906e-06
-4.55135e-06
-4.16449e-06
-3.40357e-06
-2.36022e-06
-2.23463e-06
-1.11373e-06
-1.22439e-06
-3.99429e-07
-5.12586e-07
-7.79627e-08
-1.30289e-07
3.73647e-09
-2.2512e-08
3.03351e-07
-1.06714e-07
9.52407e-07
-2.81635e-07
1.68796e-06
-5.80338e-07
2.456e-06
-1.02946e-06
3.18279e-06
-1.63957e-06
3.80662e-06
-2.39934e-06
4.31113e-06
-3.2805e-06
4.73237e-06
-4.2523e-06
5.12441e-06
-5.29205e-06
5.51387e-06
-6.38419e-06
5.88296e-06
-7.51446e-06
6.17756e-06
-8.66698e-06
6.31297e-06
-9.82474e-06
6.1621e-06
-1.09726e-05
5.52864e-06
-1.20992e-05
4.10482e-06
-1.30662e-05
1.23333e-06
-1.37002e-05
-1.62968e-06
-1.41212e-05
-3.62584e-06
-1.43282e-05
-5.0652e-06
-1.42289e-05
-6.16238e-06
-1.37225e-05
-6.98173e-06
-1.27414e-05
-7.50074e-06
-1.1285e-05
-7.65096e-06
-9.42978e-06
-7.37387e-06
-7.32531e-06
-6.65583e-06
-5.17876e-06
-5.55012e-06
-3.22768e-06
-4.18571e-06
-1.68517e-06
-2.7669e-06
-6.64976e-07
-1.53278e-06
-1.42842e-07
-6.52423e-07
-1.39106e-07
9.13086e-09
2.9422e-07
1.79492e-08
9.43589e-07
-7.10994e-10
1.70662e-06
-8.23325e-08
2.53762e-06
-2.62872e-07
3.36333e-06
-5.65287e-07
4.10903e-06
-9.86023e-07
4.73186e-06
-1.49313e-06
5.23948e-06
-2.04788e-06
5.67916e-06
-2.62138e-06
6.08737e-06
-3.19623e-06
6.4578e-06
-3.76116e-06
6.74249e-06
-4.30791e-06
6.85972e-06
-4.83075e-06
6.68493e-06
-5.32855e-06
6.02645e-06
-5.82582e-06
4.60209e-06
-6.35747e-06
1.76498e-06
-6.90677e-06
-1.08037e-06
-7.514e-06
-3.01862e-06
-8.17027e-06
-4.40893e-06
-8.76013e-06
-5.57253e-06
-9.14821e-06
-6.59365e-06
-9.18091e-06
-7.46804e-06
-8.75486e-06
-8.07701e-06
-7.84735e-06
-8.28138e-06
-6.52457e-06
-7.9786e-06
-4.93266e-06
-7.14204e-06
-3.2839e-06
-5.83446e-06
-1.82379e-06
-4.22701e-06
-7.60221e-07
-2.59635e-06
-1.72354e-07
-1.24029e-06
-3.11459e-07
2.67751e-08
2.67445e-07
9.11537e-08
8.7921e-07
1.7182e-07
1.62596e-06
2.37663e-07
2.47178e-06
2.51012e-07
3.34998e-06
1.80844e-07
4.1792e-06
1.874e-08
4.89397e-06
-2.11444e-07
5.46966e-06
-4.68359e-07
5.93608e-06
-7.12074e-07
6.33109e-06
-9.17563e-07
6.66329e-06
-1.07385e-06
6.89878e-06
-1.17984e-06
6.96571e-06
-1.24298e-06
6.74807e-06
-1.27846e-06
6.06192e-06
-1.298e-06
4.62163e-06
-1.45123e-06
1.9182e-06
-1.86335e-06
-6.68249e-07
-2.45829e-06
-2.42368e-06
-3.22202e-06
-3.6452e-06
-4.08008e-06
-4.71446e-06
-4.95508e-06
-5.71865e-06
-5.66081e-06
-6.76231e-06
-6.01967e-06
-7.71814e-06
-5.91972e-06
-8.38133e-06
-5.34143e-06
-8.5569e-06
-4.35305e-06
-8.13042e-06
-3.11085e-06
-7.07667e-06
-1.84523e-06
-5.49263e-06
-8.13212e-07
-3.62836e-06
-1.93081e-07
-1.86042e-06
-5.0454e-07
3.26011e-08
2.34844e-07
1.20717e-07
7.91094e-07
2.50827e-07
1.49585e-06
3.97629e-07
2.32498e-06
5.28333e-07
3.21928e-06
6.12842e-07
4.09469e-06
6.37228e-07
4.86958e-06
6.11599e-07
5.49529e-06
5.72808e-07
5.97487e-06
5.64613e-07
6.33928e-06
6.18336e-07
6.60957e-06
7.45969e-07
6.77115e-06
9.42199e-07
6.76948e-06
1.18647e-06
6.5038e-06
1.44224e-06
5.80615e-06
1.66018e-06
4.40369e-06
1.64411e-06
1.93427e-06
1.30173e-06
-3.25869e-07
7.63668e-07
-1.88562e-06
7.37198e-08
-2.95525e-06
-7.7125e-07
-3.86949e-06
-1.74542e-06
-4.74448e-06
-2.73856e-06
-5.76918e-06
-3.56786e-06
-6.88885e-06
-4.04151e-06
-7.90768e-06
-4.06583e-06
-8.53258e-06
-3.62629e-06
-8.56995e-06
-2.80612e-06
-7.89684e-06
-1.7887e-06
-6.51005e-06
-8.37629e-07
-4.57943e-06
-2.0794e-07
-2.49011e-06
-7.1248e-07
3.07769e-08
2.04067e-07
1.19493e-07
7.02377e-07
2.60697e-07
1.35464e-06
4.37739e-07
2.14793e-06
6.25598e-07
3.03142e-06
7.99247e-07
3.92104e-06
9.44848e-07
4.72398e-06
1.06816e-06
5.37198e-06
1.19681e-06
5.84622e-06
1.36819e-06
6.1679e-06
1.61158e-06
6.36618e-06
1.93663e-06
6.44609e-06
2.33171e-06
6.3744e-06
2.76499e-06
6.07052e-06
3.18116e-06
5.38998e-06
3.48399e-06
4.10087e-06
3.47401e-06
1.94425e-06
3.14048e-06
7.664e-09
2.61673e-06
-1.36187e-06
1.99212e-06
-2.33064e-06
1.25537e-06
-3.13275e-06
4.06728e-07
-3.89583e-06
-5.63891e-07
-4.79856e-06
-1.57476e-06
-5.87798e-06
-2.38835e-06
-7.09409e-06
-2.85197e-06
-8.06896e-06
-2.87013e-06
-8.55179e-06
-2.44604e-06
-8.32093e-06
-1.69549e-06
-7.2606e-06
-8.53627e-07
-5.42129e-06
-2.23299e-07
-3.12044e-06
-9.3578e-07
2.44129e-08
1.79654e-07
9.84223e-08
6.28368e-07
2.23347e-07
1.22972e-06
3.92477e-07
1.9788e-06
5.91803e-07
2.83209e-06
8.05747e-07
3.7071e-06
1.0256e-06
4.50413e-06
1.25571e-06
5.14187e-06
1.51478e-06
5.58715e-06
1.82789e-06
5.85479e-06
2.21402e-06
5.98005e-06
2.67577e-06
5.98434e-06
3.19566e-06
5.85451e-06
3.7349e-06
5.53128e-06
4.22732e-06
4.89755e-06
4.55922e-06
3.76897e-06
4.56969e-06
1.93378e-06
4.2701e-06
3.07252e-07
3.75019e-06
-8.41961e-07
3.11975e-06
-1.7002e-06
2.42262e-06
-2.43562e-06
1.69289e-06
-3.1661e-06
8.86062e-07
-3.99173e-06
-3.13286e-08
-4.96059e-06
-9.82032e-07
-6.14339e-06
-1.73127e-06
-7.31973e-06
-2.11502e-06
-8.16804e-06
-2.05163e-06
-8.38432e-06
-1.57607e-06
-7.73616e-06
-8.67674e-07
-6.12969e-06
-2.43491e-07
-3.74462e-06
-1.17927e-06
1.46421e-08
1.65012e-07
6.21791e-08
5.80831e-07
1.49973e-07
1.14192e-06
2.83206e-07
1.84557e-06
4.62476e-07
2.65282e-06
6.84549e-07
3.48502e-06
9.483e-07
4.24038e-06
1.25755e-06
4.83262e-06
1.62088e-06
5.22382e-06
2.04738e-06
5.42829e-06
2.54116e-06
5.48627e-06
3.09545e-06
5.43005e-06
3.68834e-06
5.26163e-06
4.27896e-06
4.94066e-06
4.79943e-06
4.37708e-06
5.13794e-06
3.43046e-06
5.1633e-06
1.90842e-06
4.90801e-06
5.62535e-07
4.45201e-06
-3.85958e-07
3.87788e-06
-1.12606e-06
3.23275e-06
-1.79049e-06
2.55006e-06
-2.48342e-06
1.83702e-06
-3.27869e-06
1.08512e-06
-4.20869e-06
2.13358e-07
-5.27162e-06
-6.71513e-07
-6.43486e-06
-1.34026e-06
-7.4993e-06
-1.60767e-06
-8.11691e-06
-1.418e-06
-7.92583e-06
-8.73808e-07
-6.67388e-06
-2.70918e-07
-4.34751e-06
-1.45019e-06
2.4482e-10
1.64767e-07
7.97925e-09
5.73096e-07
3.97835e-08
1.11012e-06
1.18511e-07
1.76684e-06
2.62255e-07
2.50908e-06
4.78577e-07
3.2687e-06
7.72082e-07
3.94687e-06
1.14478e-06
4.45993e-06
1.59319e-06
4.7754e-06
2.1087e-06
4.91278e-06
2.68026e-06
4.91471e-06
3.29276e-06
4.81755e-06
3.92242e-06
4.63197e-06
4.53077e-06
4.3323e-06
5.05555e-06
3.8523e-06
5.39945e-06
3.08656e-06
5.45865e-06
1.84922e-06
5.27275e-06
7.4843e-07
4.91361e-06
-2.68134e-08
4.44194e-06
-6.54386e-07
3.89133e-06
-1.23988e-06
3.28694e-06
-1.87902e-06
2.63878e-06
-2.63053e-06
1.94434e-06
-3.51425e-06
1.18516e-06
-4.51244e-06
3.28343e-07
-5.57803e-06
-5.14601e-07
-6.65635e-06
-1.0874e-06
-7.54411e-06
-1.19989e-06
-7.81334e-06
-8.59497e-07
-7.01427e-06
-3.06503e-07
-4.9005e-06
-1.75669e-06
-2.10259e-08
1.85793e-07
-6.87481e-08
6.20818e-07
-1.09065e-07
1.15044e-06
-9.50065e-08
1.75279e-06
1.23644e-08
2.40171e-06
2.26287e-07
3.05478e-06
5.48804e-07
3.62436e-06
9.77569e-07
4.03116e-06
1.49536e-06
4.25761e-06
2.07702e-06
4.33112e-06
2.70009e-06
4.29165e-06
3.3448e-06
4.17284e-06
3.9887e-06
3.98807e-06
4.59927e-06
3.72173e-06
5.12486e-06
3.32672e-06
5.48798e-06
2.72344e-06
5.60556e-06
1.73163e-06
5.52031e-06
8.33688e-07
5.28275e-06
2.10739e-07
4.9336e-06
-3.05232e-07
4.50447e-06
-8.10754e-07
4.00561e-06
-1.38016e-06
3.43574e-06
-2.06066e-06
2.78825e-06
-2.86676e-06
2.05651e-06
-3.7807e-06
1.24102e-06
-4.76255e-06
3.50906e-07
-5.76624e-06
-4.62287e-07
-6.73092e-06
-8.97184e-07
-7.37844e-06
-8.07741e-07
-7.10372e-06
-3.47628e-07
-5.36062e-06
-2.10432e-06
-5.60601e-08
2.41853e-07
-1.78245e-07
7.43004e-07
-2.98069e-07
1.27026e-06
-3.4317e-07
1.79789e-06
-2.63115e-07
2.32165e-06
-3.57515e-08
2.82742e-06
3.25979e-07
3.26263e-06
8.09175e-07
3.54797e-06
1.38308e-06
3.68371e-06
2.0112e-06
3.70299e-06
2.66624e-06
3.6366e-06
3.32843e-06
3.51065e-06
3.97939e-06
3.33711e-06
4.59448e-06
3.10664e-06
5.13444e-06
2.78675e-06
5.54064e-06
2.31724e-06
5.73904e-06
1.53324e-06
5.75921e-06
8.13517e-07
5.64766e-06
3.22294e-07
5.43399e-06
-9.15637e-08
5.13657e-06
-5.1333e-07
4.75251e-06
-9.96112e-07
4.2692e-06
-1.57735e-06
3.67267e-06
-2.27023e-06
2.95606e-06
-3.0641e-06
2.12704e-06
-3.93352e-06
1.21171e-06
-4.85091e-06
2.66301e-07
-5.78551e-06
-4.81086e-07
-6.63105e-06
-6.94872e-07
-6.88993e-06
-3.84482e-07
-5.67101e-06
-2.4888e-06
-1.15209e-07
3.57062e-07
-3.302e-07
9.57995e-07
-5.19844e-07
1.4599e-06
-5.94539e-07
1.87258e-06
-5.09171e-07
2.23628e-06
-2.5312e-07
2.57137e-06
1.60948e-07
2.84856e-06
7.02559e-07
3.00636e-06
1.32374e-06
3.06254e-06
1.98692e-06
3.03981e-06
2.66672e-06
2.9568e-06
3.34649e-06
2.83088e-06
4.01262e-06
2.67099e-06
4.64743e-06
2.47183e-06
5.2221e-06
2.21209e-06
5.69107e-06
1.84827e-06
5.97886e-06
1.24544e-06
6.10039e-06
6.91982e-07
6.10255e-06
3.20141e-07
6.00835e-06
2.62807e-09
5.82457e-06
-3.29551e-07
5.54031e-06
-7.11844e-07
5.13602e-06
-1.17306e-06
4.59148e-06
-1.72569e-06
3.89483e-06
-2.36745e-06
3.05076e-06
-3.08945e-06
2.08544e-06
-3.8856e-06
1.05495e-06
-4.75502e-06
8.45534e-08
-5.66066e-06
-4.86385e-07
-6.31899e-06
-3.96994e-07
-5.7604e-06
-2.8858e-06
-2.07363e-07
5.64424e-07
-5.16322e-07
1.26695e-06
-7.34585e-07
1.67817e-06
-7.83127e-07
1.92112e-06
-6.43765e-07
2.09692e-06
-3.24045e-07
2.25165e-06
1.6213e-07
2.36238e-06
7.65773e-07
2.40271e-06
1.43194e-06
2.39637e-06
2.13035e-06
2.34141e-06
2.83989e-06
2.24725e-06
3.54664e-06
2.12413e-06
4.23949e-06
1.97813e-06
4.90431e-06
1.80702e-06
5.51816e-06
1.59823e-06
6.04253e-06
1.32391e-06
6.39807e-06
8.89902e-07
6.59145e-06
4.98601e-07
6.67337e-06
2.38222e-07
6.66119e-06
1.48063e-08
6.55423e-06
-2.22592e-07
6.34031e-06
-4.97922e-07
5.99816e-06
-8.30912e-07
5.5044e-06
-1.23193e-06
4.84118e-06
-1.70423e-06
4.00376e-06
-2.25203e-06
3.00734e-06
-2.88917e-06
1.89522e-06
-3.6429e-06
7.65681e-07
-4.53112e-06
-1.31774e-07
-5.42154e-06
-3.54303e-07
-5.53787e-06
-3.2401e-06
-3.25533e-07
8.89958e-07
-6.84836e-07
1.62626e-06
-8.32981e-07
1.82631e-06
-7.59462e-07
1.8476e-06
-4.94328e-07
1.83179e-06
-5.46224e-08
1.81194e-06
5.26853e-07
1.78091e-06
1.18986e-06
1.73971e-06
1.90125e-06
1.68498e-06
2.63537e-06
1.60728e-06
3.37311e-06
1.50952e-06
4.10067e-06
1.39657e-06
4.80651e-06
1.27229e-06
5.47712e-06
1.13641e-06
6.09283e-06
9.82515e-07
6.62089e-06
7.9585e-07
6.98708e-06
5.23712e-07
7.19911e-06
2.8657e-07
7.3078e-06
1.29536e-07
7.32919e-06
-6.58343e-09
7.2599e-06
-1.53306e-07
7.08751e-06
-3.25531e-07
6.79263e-06
-5.36027e-07
6.35216e-06
-7.91469e-07
5.74439e-06
-1.09645e-06
4.95362e-06
-1.46126e-06
3.97585e-06
-1.91141e-06
2.82899e-06
-2.49603e-06
1.5783e-06
-3.28043e-06
4.07844e-07
-4.25108e-06
-2.15473e-07
-4.91455e-06
-3.45557e-06
-4.43661e-07
1.33362e-06
-6.81287e-07
1.86388e-06
-5.56621e-07
1.70165e-06
-2.09545e-07
1.50053e-06
2.79342e-07
1.3429e-06
8.73496e-07
1.21779e-06
1.53842e-06
1.11598e-06
2.24777e-06
1.03036e-06
2.97976e-06
9.52985e-07
3.71303e-06
8.74017e-07
4.43041e-06
7.92138e-07
5.11854e-06
7.08432e-07
5.76648e-06
6.2435e-07
6.36319e-06
5.39707e-07
6.89448e-06
4.51222e-07
7.33765e-06
3.52675e-07
7.6384e-06
2.22966e-07
7.8103e-06
1.14666e-07
7.89772e-06
4.21179e-08
7.91276e-06
-2.16226e-08
7.85152e-06
-9.20688e-08
7.70395e-06
-1.77961e-07
7.45303e-06
-2.85101e-07
7.07813e-06
-4.16573e-07
6.55733e-06
-5.75646e-07
5.86787e-06
-7.71795e-07
4.98628e-06
-1.02982e-06
3.8921e-06
-1.40186e-06
2.58871e-06
-1.97704e-06
1.18814e-06
-2.85052e-06
1.15907e-07
-3.84232e-06
-3.33967e-06
-3.75925e-07
1.70954e-06
1.7933e-08
1.47003e-06
7.2603e-07
9.93549e-07
1.43722e-06
7.89338e-07
2.13799e-06
6.42131e-07
2.83412e-06
5.21655e-07
3.51891e-06
4.31194e-07
4.18563e-06
3.63634e-07
4.82769e-06
3.10929e-07
5.43529e-06
2.66417e-07
5.99996e-06
2.27467e-07
6.51549e-06
1.92896e-07
6.97782e-06
1.62023e-07
7.38361e-06
1.33917e-07
7.72797e-06
1.06861e-07
8.00162e-06
7.90264e-08
8.17823e-06
4.63605e-08
8.27264e-06
2.02573e-08
8.31273e-06
2.02435e-09
8.30579e-06
-1.46819e-08
8.24813e-06
-3.44111e-08
8.13045e-06
-6.02819e-08
7.93903e-06
-9.36827e-08
7.65782e-06
-1.3536e-07
7.26878e-06
-1.866e-07
6.74914e-06
-2.5216e-07
6.06517e-06
-3.45843e-07
5.16365e-06
-5.00338e-07
3.96817e-06
-7.81561e-07
2.41885e-06
-1.30119e-06
7.46424e-07
-2.16989e-06
-2.59324e-06
1.70954e-06
3.17957e-06
4.17312e-06
4.96246e-06
5.60459e-06
6.12624e-06
6.55744e-06
6.92107e-06
7.232e-06
7.49842e-06
7.72588e-06
7.91878e-06
8.0808e-06
8.21472e-06
8.32158e-06
8.40061e-06
8.44697e-06
8.46723e-06
8.46925e-06
8.45457e-06
8.42016e-06
8.35987e-06
8.26619e-06
8.13083e-06
7.94423e-06
7.69207e-06
7.34623e-06
6.84589e-06
6.06433e-06
4.76314e-06
2.59324e-06
)
;

boundaryField
{
    movingWall
    {
        type            calculated;
        value           uniform 0;
    }
    fixedWalls
    {
        type            calculated;
        value           uniform 0;
    }
    floor
    {
        type            calculated;
        value           uniform 0;
    }
    frontAndBack
    {
        type            empty;
        value           nonuniform List<scalar> 0();
    }
}


// ************************************************************************* //
