/*--------------------------------*- C++ -*----------------------------------*\
| =========                 |                                                 |
| \\      /  F ield         | OpenFOAM: The Open Source CFD Toolbox           |
|  \\    /   O peration     | Version:  2212                                  |
|   \\  /    A nd           | Website:  www.openfoam.com                      |
|    \\/     M anipulation  |                                                 |
\*---------------------------------------------------------------------------*/
FoamFile
{
    version     2.0;
    format      ascii;
    arch        "LSB;label=64;scalar=64";
    class       volScalarField;
    location    "1510";
    object      Sch4;
}
// * * * * * * * * * * * * * * * * * * * * * * * * * * * * * * * * * * * * * //

dimensions      [1 -3 0 0 0 0 0];

internalField   nonuniform List<scalar> 
1024
(
0.034712
0.0347197
0.0347383
0.0347724
0.0348267
0.0349059
0.0350133
0.0351488
0.0353078
0.0354805
0.0356533
0.0358104
0.0359393
0.0360343
0.0360946
0.0361197
0.0360945
0.0359962
0.0358261
0.0355954
0.0353231
0.0350327
0.034748
0.0344894
0.03427
0.0340952
0.0339637
0.0338702
0.0338077
0.0337691
0.0337481
0.0337396
0.0347147
0.0347224
0.0347414
0.0347759
0.0348311
0.0349116
0.0350205
0.0351578
0.0353185
0.0354928
0.0356668
0.0358243
0.035953
0.0360476
0.0361076
0.0361329
0.0361083
0.0360106
0.0358406
0.0356099
0.0353372
0.0350459
0.0347598
0.0344994
0.0342781
0.0341015
0.0339685
0.0338739
0.0338108
0.0337717
0.0337505
0.0337419
0.0347212
0.0347291
0.0347485
0.0347841
0.034841
0.034924
0.0350363
0.0351775
0.0353426
0.0355214
0.0356993
0.0358589
0.0359876
0.0360811
0.03614
0.0361653
0.0361417
0.0360444
0.0358741
0.0356423
0.0353682
0.0350746
0.0347854
0.0345211
0.0342958
0.0341154
0.0339793
0.0338825
0.0338178
0.033778
0.0337563
0.0337475
0.0347328
0.0347409
0.034761
0.034798
0.0348574
0.0349443
0.0350619
0.0352099
0.0353833
0.0355714
0.035758
0.0359229
0.0360523
0.0361439
0.0362008
0.0362255
0.0362026
0.0361046
0.0359316
0.0356963
0.0354185
0.0351206
0.0348261
0.0345558
0.0343241
0.034138
0.0339972
0.033897
0.0338301
0.0337889
0.0337666
0.0337575
0.0347513
0.0347596
0.0347805
0.0348192
0.0348817
0.0349737
0.035099
0.0352576
0.0354447
0.035649
0.0358515
0.0360269
0.0361589
0.0362479
0.0363013
0.0363246
0.0363014
0.0361998
0.0360195
0.0357759
0.0354901
0.0351846
0.0348822
0.0346034
0.0343634
0.0341698
0.034023
0.0339184
0.0338487
0.0338059
0.0337827
0.0337734
0.0347791
0.0347876
0.0348092
0.0348497
0.0349159
0.0350144
0.03515
0.035324
0.0355319
0.0357615
0.0359893
0.0361824
0.0363204
0.0364072
0.0364561
0.0364771
0.0364517
0.0363414
0.0361459
0.0358855
0.0355848
0.0352664
0.0349524
0.0346627
0.0344126
0.0342103
0.0340566
0.0339473
0.0338745
0.0338301
0.0338062
0.0337967
0.0348199
0.0348284
0.0348506
0.0348929
0.0349632
0.0350696
0.0352187
0.0354137
0.0356511
0.0359167
0.0361807
0.0364005
0.0365504
0.0366372
0.0366823
0.0367012
0.0366712
0.0365445
0.0363216
0.0360313
0.0357044
0.0353652
0.0350343
0.0347308
0.0344693
0.034258
0.0340978
0.0339841
0.0339089
0.0338633
0.0338391
0.0338295
0.0348795
0.034888
0.0349105
0.0349545
0.0350294
0.0351452
0.0353113
0.0355336
0.0358099
0.0361232
0.0364347
0.0366913
0.0368612
0.0369537
0.036999
0.0370184
0.0369818
0.0368282
0.0365612
0.0362224
0.0358532
0.0354812
0.0351262
0.0348053
0.0345315
0.0343119
0.0341467
0.0340304
0.0339545
0.0339091
0.0338854
0.0338762
0.0349679
0.0349761
0.0349989
0.0350447
0.0351247
0.0352517
0.0354385
0.0356947
0.0360193
0.036391
0.0367605
0.037064
0.037264
0.0373721
0.0374276
0.0374545
0.0374108
0.0372188
0.0368875
0.0364762
0.0360427
0.0356213
0.0352318
0.0348884
0.0346013
0.0343751
0.0342079
0.0340925
0.0340188
0.0339761
0.0339547
0.0339467
0.0351007
0.0351088
0.0351319
0.03518
0.0352663
0.0354067
0.0356184
0.0359147
0.036296
0.0367349
0.0371705
0.0375295
0.0377712
0.0379103
0.037993
0.0380419
0.0379951
0.037756
0.0373421
0.0368325
0.0363071
0.0358136
0.035374
0.0349997
0.0346968
0.0344655
0.0343001
0.0341903
0.0341237
0.0340876
0.0340712
0.0340659
0.035301
0.0353092
0.0353335
0.0353852
0.0354801
0.0356376
0.0358791
0.0362218
0.036666
0.037177
0.0376831
0.0381047
0.0384012
0.038593
0.0387298
0.0388256
0.0387925
0.0385135
0.0380131
0.0373894
0.0367444
0.0361477
0.0356326
0.0352096
0.0348811
0.0346419
0.0344805
0.0343814
0.0343279
0.0343042
0.0342971
0.0342967
0.0355976
0.0356066
0.0356335
0.0356918
0.0357997
0.0359803
0.0362586
0.0366539
0.0371644
0.0377482
0.0383254
0.0388152
0.0391836
0.0394581
0.0396874
0.0398714
0.0398967
0.0396277
0.0390854
0.0383715
0.0376002
0.0368678
0.036235
0.0357234
0.0353387
0.0350728
0.0349073
0.0348187
0.0347823
0.0347762
0.0347829
0.0347899
0.036016
0.0360267
0.0360589
0.0361282
0.0362561
0.036469
0.0367941
0.0372501
0.0378297
0.0384839
0.0391302
0.0396946
0.0401569
0.0405523
0.0409232
0.0412573
0.0414303
0.0412937
0.0408444
0.0401616
0.0393469
0.0385048
0.0377227
0.0370594
0.0365456
0.0361889
0.035974
0.0358673
0.0358325
0.0358368
0.0358546
0.0358684
0.036557
0.0365708
0.0366115
0.0366983
0.0368565
0.0371153
0.0375022
0.03803
0.0386806
0.0393976
0.0401041
0.0407464
0.0413239
0.0418752
0.0424326
0.0429833
0.0434165
0.043584
0.0434475
0.043041
0.0424207
0.0416614
0.0408466
0.0400597
0.0393675
0.0388203
0.0384403
0.0382108
0.0380985
0.0380618
0.0380621
0.0380712
0.0371625
0.0371788
0.0372266
0.037328
0.0375106
0.0378049
0.0382361
0.038812
0.0395115
0.0402834
0.0410644
0.0418119
0.0425263
0.0432385
0.0439739
0.0447327
0.0454392
0.0459775
0.0462997
0.0463985
0.0462713
0.0459323
0.0454166
0.0447789
0.0440916
0.0434314
0.0428646
0.0424314
0.042143
0.0419803
0.0419071
0.0418859
0.037747
0.037764
0.0378138
0.037919
0.0381078
0.038411
0.0388537
0.0394451
0.0401681
0.0409786
0.0418195
0.0426458
0.0434437
0.0442235
0.0449965
0.04577
0.0465169
0.0472115
0.0478484
0.0484046
0.0488354
0.0491001
0.0491752
0.0490592
0.0487762
0.0483744
0.0479211
0.0474896
0.0471368
0.0468911
0.0467514
0.0466958
0.0382046
0.0382209
0.0382678
0.0383655
0.0385405
0.0388221
0.0392362
0.0397955
0.0404903
0.041284
0.0421208
0.0429443
0.0437153
0.0444134
0.0450269
0.0455573
0.0460284
0.0465442
0.0471791
0.0479125
0.0486722
0.0493794
0.0499692
0.0503997
0.0506539
0.0507395
0.0506867
0.0505442
0.0503691
0.0502122
0.0501047
0.0500548
0.038493
0.0385082
0.0385504
0.0386366
0.0387895
0.0390352
0.0393991
0.0398967
0.0405249
0.041255
0.0420349
0.0428014
0.0434957
0.0440727
0.0445011
0.0447735
0.0449452
0.0452113
0.0457186
0.0464717
0.0473906
0.0483645
0.0492843
0.0500689
0.050674
0.0510891
0.0513307
0.0514338
0.051444
0.0514088
0.0513669
0.0513419
0.0386518
0.038666
0.0387037
0.0387788
0.0389098
0.0391191
0.0394297
0.0398584
0.0404068
0.0410541
0.0417555
0.0424487
0.0430681
0.0435567
0.043873
0.0440064
0.0440261
0.0441523
0.0445514
0.0452628
0.0462382
0.0473765
0.0485427
0.049611
0.0504933
0.0511502
0.0515855
0.0518335
0.0519443
0.0519716
0.0519624
0.0519495
0.0387309
0.0387437
0.0387771
0.038842
0.0389535
0.0391302
0.039392
0.0397548
0.0402231
0.0407829
0.0413977
0.0420127
0.0425656
0.0429985
0.0432699
0.0433708
0.0433754
0.0434853
0.0438435
0.0445033
0.0454524
0.0466266
0.0479094
0.0491632
0.0502652
0.0511375
0.0517553
0.0521389
0.0523377
0.0524132
0.0524246
0.052417
0.0387751
0.0387856
0.0388128
0.0388664
0.0389589
0.0391059
0.0393241
0.0396277
0.0400218
0.040497
0.0410257
0.0415639
0.0420592
0.0424624
0.0427389
0.042887
0.0429761
0.0431623
0.0435499
0.0441904
0.0450943
0.0462309
0.0475207
0.0488465
0.0500775
0.0511074
0.0518794
0.0523896
0.0526765
0.0528021
0.0528344
0.0528315
0.0388397
0.0388451
0.0388616
0.0388981
0.0389668
0.0390821
0.0392587
0.0395086
0.0398368
0.0402371
0.04069
0.0411638
0.0416202
0.0420228
0.0423482
0.0426029
0.0428399
0.0431538
0.0436097
0.0442552
0.0451151
0.0461829
0.0474114
0.0487147
0.0499817
0.0510995
0.051984
0.0526027
0.0529734
0.0531506
0.053206
0.0532084
0.0389947
0.0389909
0.0389887
0.0389979
0.0390324
0.0391083
0.0392408
0.0394414
0.0397153
0.0400593
0.0404611
0.0409002
0.0413514
0.0417907
0.0422043
0.042603
0.043013
0.0434649
0.0439928
0.0446429
0.04545
0.0464285
0.0475576
0.0487779
0.0500044
0.0511386
0.0520865
0.0527879
0.0532338
0.0534628
0.0535433
0.053552
0.0393177
0.0392996
0.0392694
0.0392397
0.0392289
0.0392578
0.0393455
0.039506
0.039746
0.0400649
0.0404549
0.0409024
0.0413899
0.0419003
0.0424243
0.0429718
0.0435386
0.0441022
0.0446783
0.0453145
0.0460528
0.046922
0.0479229
0.0490219
0.0501564
0.0512465
0.052205
0.0529564
0.0534634
0.0537415
0.0538489
0.0538651
0.0398787
0.0398415
0.0397765
0.0397027
0.0396453
0.039632
0.0396878
0.0398309
0.0400699
0.0404036
0.0408242
0.0413183
0.0418697
0.0424627
0.0430878
0.0437512
0.0444236
0.0450488
0.0456343
0.046231
0.046884
0.0476294
0.0484828
0.049432
0.0504374
0.051438
0.0523587
0.0531217
0.0536692
0.0539899
0.0541246
0.0541495
0.0407281
0.0406686
0.0405702
0.040463
0.0403805
0.0403542
0.0404122
0.0405751
0.0408495
0.04123
0.0417044
0.0422559
0.0428659
0.043518
0.0442015
0.0449193
0.0456278
0.0462568
0.0468118
0.0473448
0.0479006
0.0485162
0.0492145
0.0499984
0.0508482
0.0517236
0.052565
0.0532998
0.0538603
0.0542118
0.054372
0.0544068
0.0418947
0.0418138
0.0416977
0.0415922
0.0415329
0.0415457
0.0416525
0.0418703
0.0421997
0.0426305
0.0431465
0.0437286
0.0443575
0.0450171
0.0456968
0.0463979
0.0470736
0.0476544
0.0481465
0.0485987
0.0490522
0.0495403
0.0500875
0.0507044
0.051386
0.0521108
0.052838
0.0535068
0.0540484
0.0544124
0.0545927
0.0546381
0.0433954
0.0433014
0.0432037
0.0431571
0.0431822
0.0432847
0.0434722
0.0437532
0.0441232
0.0445722
0.0450853
0.0456453
0.0462352
0.0468415
0.0474552
0.0480772
0.0486656
0.0491602
0.0495679
0.0499307
0.0502831
0.0506528
0.0510612
0.0515216
0.052037
0.0525997
0.0531873
0.0537564
0.0542462
0.0545988
0.0547891
0.054844
0.0452532
0.0451681
0.0451444
0.045214
0.0453602
0.0455638
0.0458206
0.0461327
0.0464978
0.0469115
0.0473648
0.0478455
0.0483415
0.0488428
0.0493429
0.0498427
0.0503089
0.0506953
0.051008
0.0512799
0.0515374
0.0518013
0.0520886
0.0524108
0.0527741
0.0531784
0.0536148
0.0540588
0.0544653
0.0547795
0.0549643
0.0550253
0.0475179
0.0474846
0.0475859
0.047779
0.0480142
0.0482677
0.0485345
0.048818
0.0491215
0.0494473
0.0497925
0.0501508
0.0505151
0.0508791
0.0512385
0.051594
0.0519224
0.0521923
0.0524083
0.0525931
0.0527647
0.0529372
0.0531222
0.0533283
0.0535609
0.0538226
0.0541117
0.0544182
0.054716
0.0549638
0.0551232
0.055183
0.0502841
0.05035
0.0505443
0.0507635
0.0509813
0.0511897
0.0513885
0.0515829
0.0517791
0.0519816
0.0521913
0.052406
0.0526224
0.0528371
0.0530477
0.0532547
0.0534449
0.0536004
0.0537241
0.0538288
0.0539247
0.0540198
0.0541206
0.054232
0.0543573
0.0544986
0.0546568
0.054829
0.0550045
0.0551612
0.055272
0.0553194
0.0536674
0.0537195
0.0538197
0.0539156
0.0540038
0.0540841
0.0541573
0.0542259
0.0542928
0.0543605
0.0544297
0.0545
0.0545706
0.0546403
0.0547085
0.0547754
0.0548366
0.0548866
0.0549262
0.0549596
0.0549899
0.0550198
0.0550512
0.0550857
0.0551244
0.055168
0.0552168
0.0552704
0.0553264
0.0553788
0.0554188
0.0554383
)
;

boundaryField
{
    movingWall
    {
        type            fixedValue;
        value           uniform 0.0555;
    }
    fixedWalls
    {
        type            zeroGradient;
    }
    floor
    {
        type            zeroGradient;
    }
    frontAndBack
    {
        type            empty;
    }
}


// ************************************************************************* //
