/*--------------------------------*- C++ -*----------------------------------*\
| =========                 |                                                 |
| \\      /  F ield         | OpenFOAM: The Open Source CFD Toolbox           |
|  \\    /   O peration     | Version:  2212                                  |
|   \\  /    A nd           | Website:  www.openfoam.com                      |
|    \\/     M anipulation  |                                                 |
\*---------------------------------------------------------------------------*/
FoamFile
{
    version     2.0;
    format      ascii;
    arch        "LSB;label=64;scalar=64";
    class       volScalarField;
    location    "1510";
    object      Sco2;
}
// * * * * * * * * * * * * * * * * * * * * * * * * * * * * * * * * * * * * * //

dimensions      [1 -3 0 0 0 0 0];

internalField   nonuniform List<scalar> 
1024
(
0.00550586
0.0055073
0.00551081
0.00551722
0.00552743
0.00554235
0.00556256
0.00558806
0.00561798
0.00565049
0.00568301
0.00571256
0.00573681
0.00575468
0.00576599
0.00577067
0.00576586
0.0057473
0.00571524
0.0056718
0.00562055
0.00556588
0.00551232
0.00546365
0.00542238
0.00538948
0.00536474
0.00534715
0.0053354
0.00532814
0.00532418
0.00532257
0.00550637
0.00550782
0.00551138
0.00551788
0.00552827
0.00554342
0.00556392
0.00558975
0.00561999
0.0056528
0.00568554
0.00571518
0.0057394
0.00575719
0.00576844
0.00577314
0.00576846
0.00575
0.00571798
0.00567453
0.0056232
0.00556837
0.00551453
0.00546553
0.00542389
0.00539066
0.00536564
0.00534785
0.00533596
0.00532862
0.00532463
0.00532301
0.00550758
0.00550907
0.00551272
0.00551942
0.00553012
0.00554575
0.00556688
0.00559346
0.00562453
0.00565818
0.00569166
0.00572169
0.0057459
0.00576348
0.00577455
0.00577926
0.00577474
0.00575637
0.00572427
0.00568063
0.00562903
0.00557377
0.00551935
0.00546962
0.00542722
0.00539327
0.00536767
0.00534946
0.00533729
0.00532979
0.00532571
0.00532406
0.00550977
0.00551129
0.00551508
0.00552204
0.00553322
0.00554957
0.0055717
0.00559956
0.00563219
0.00566759
0.00570271
0.00573374
0.00575809
0.00577531
0.00578597
0.00579058
0.00578619
0.00576769
0.00573509
0.00569079
0.00563849
0.00558242
0.00552701
0.00547614
0.00543256
0.00539753
0.00537105
0.00535219
0.0053396
0.00533185
0.00532765
0.00532595
0.00551325
0.00551482
0.00551875
0.00552603
0.0055378
0.00555511
0.00557868
0.00560854
0.00564375
0.00568219
0.00572031
0.00575332
0.00577814
0.00579488
0.00580488
0.00580922
0.00580477
0.00578558
0.00575161
0.00570575
0.00565196
0.00559447
0.00553756
0.0054851
0.00543995
0.00540351
0.00537589
0.00535621
0.00534309
0.00533504
0.00533069
0.00532893
0.00551849
0.00552009
0.00552415
0.00553177
0.00554423
0.00556276
0.00558828
0.00562102
0.00566015
0.00570335
0.00574623
0.00578257
0.00580855
0.00582485
0.00583401
0.00583791
0.00583304
0.00581222
0.00577539
0.00572637
0.00566977
0.00560986
0.00555076
0.00549625
0.00544919
0.00541112
0.00538222
0.00536164
0.00534795
0.00533959
0.0053351
0.0053333
0.00552616
0.00552777
0.00553193
0.00553989
0.00555312
0.00557314
0.0056012
0.00563789
0.00568256
0.00573256
0.00578224
0.00582361
0.00585182
0.00586814
0.00587656
0.00588004
0.00587432
0.0058504
0.00580842
0.00575378
0.00569227
0.00562843
0.00556618
0.00550907
0.00545987
0.0054201
0.00538996
0.00536856
0.00535442
0.00534584
0.00534128
0.00533948
0.00553739
0.00553898
0.00554321
0.0055515
0.00556558
0.00558737
0.00561862
0.00566045
0.00571244
0.00577139
0.00583003
0.00587833
0.0059103
0.00592768
0.00593615
0.0059397
0.00593271
0.00590375
0.00585347
0.00578971
0.00572026
0.00565026
0.00558347
0.00552308
0.00547156
0.00543024
0.00539915
0.00537728
0.00536299
0.00535445
0.00534999
0.00534827
0.00555402
0.00555557
0.00555985
0.00556847
0.00558352
0.00560741
0.00564256
0.00569075
0.00575184
0.00582179
0.00589135
0.00594846
0.00598609
0.00600641
0.00601677
0.00602174
0.00601339
0.00597718
0.00591483
0.00583744
0.00575589
0.00567661
0.00560332
0.00553871
0.0054847
0.00544214
0.00541067
0.00538896
0.00537509
0.00536705
0.00536301
0.00536152
0.00557902
0.00558054
0.0055849
0.00559395
0.00561017
0.00563659
0.0056764
0.00573216
0.00580391
0.0058865
0.00596848
0.00603606
0.00608153
0.00610766
0.00612314
0.00613222
0.0061233
0.00607823
0.00600033
0.00590446
0.00580562
0.00571278
0.00563008
0.00555966
0.00550266
0.00545913
0.005428
0.00540735
0.00539481
0.00538802
0.00538493
0.00538394
0.00561674
0.00561829
0.00562285
0.00563259
0.00565043
0.00568006
0.00572548
0.00578995
0.00587354
0.0059697
0.00606494
0.00614429
0.00620008
0.00623611
0.00626176
0.00627965
0.0062733
0.00622073
0.00612656
0.00600921
0.00588787
0.00577562
0.00567871
0.00559912
0.00553731
0.0054923
0.00546193
0.00544329
0.00543323
0.00542876
0.00542742
0.00542735
0.00567261
0.0056743
0.00567938
0.00569033
0.00571062
0.00574459
0.00579694
0.0058713
0.00596736
0.00607721
0.00618584
0.00627801
0.0063473
0.00639888
0.00644193
0.00647644
0.00648109
0.0064304
0.00632833
0.00619399
0.00604887
0.0059111
0.00579203
0.00569577
0.0056234
0.00557336
0.00554223
0.00552554
0.0055187
0.00551756
0.00551881
0.00552013
0.00575143
0.00575345
0.00575951
0.00577255
0.0057966
0.00583664
0.00589781
0.00598358
0.00609263
0.00621573
0.00633733
0.00644354
0.00653049
0.00660484
0.00667455
0.00673734
0.00676982
0.00674403
0.00665943
0.00653091
0.00637759
0.00621912
0.00607194
0.00594713
0.00585046
0.00578334
0.00574291
0.00572284
0.0057163
0.00571712
0.00572046
0.00572305
0.00585334
0.00585594
0.00586361
0.00587994
0.00590969
0.00595839
0.00603118
0.00613049
0.00625291
0.00638781
0.00652074
0.00664158
0.00675022
0.00685393
0.00695879
0.00706241
0.0071439
0.00717537
0.00714963
0.00707307
0.00695627
0.00681331
0.00665993
0.00651182
0.00638155
0.00627857
0.00620707
0.00616388
0.00614276
0.00613586
0.00613594
0.00613764
0.00596739
0.00597045
0.00597946
0.00599853
0.0060329
0.00608829
0.00616943
0.0062778
0.00640942
0.00655467
0.00670163
0.00684229
0.00697675
0.00711079
0.00724923
0.00739208
0.00752509
0.00762642
0.00768705
0.0077056
0.00768158
0.0076177
0.00752055
0.00740046
0.00727104
0.00714674
0.00704002
0.00695847
0.00690421
0.00687358
0.00685981
0.00685582
0.00607745
0.00608065
0.00609004
0.00610983
0.00614537
0.00620243
0.00628576
0.00639706
0.00653313
0.00668568
0.00684393
0.00699947
0.00714968
0.0072965
0.00744209
0.00758779
0.0077285
0.00785932
0.00797922
0.00808391
0.00816496
0.00821475
0.0082288
0.0082069
0.00815354
0.00807784
0.00799244
0.00791116
0.00784473
0.00779846
0.00777215
0.00776169
0.00616362
0.00616669
0.00617551
0.00619392
0.00622686
0.00627987
0.0063578
0.0064631
0.00659388
0.00674327
0.00690079
0.00705582
0.00720098
0.00733246
0.00744804
0.007548
0.00763679
0.00773396
0.00785352
0.00799157
0.00813458
0.00826769
0.00837869
0.0084597
0.00850753
0.00852359
0.0085136
0.00848673
0.00845374
0.00842417
0.00840391
0.00839451
0.00621791
0.00622077
0.00622872
0.00624496
0.00627373
0.00632
0.0063885
0.00648218
0.00660043
0.00673786
0.0068847
0.00702899
0.00715972
0.00726841
0.00734911
0.00740048
0.00743288
0.007483
0.00757854
0.00772031
0.00789329
0.00807663
0.00824977
0.00839747
0.00851136
0.0085895
0.00863498
0.00865437
0.00865628
0.00864963
0.00864174
0.00863704
0.00624781
0.00625047
0.00625759
0.00627173
0.00629638
0.00633579
0.00639427
0.00647497
0.00657822
0.00670008
0.00683212
0.00696263
0.00707927
0.00717128
0.00723088
0.00725603
0.00725979
0.00728357
0.0073587
0.00749264
0.00767628
0.00789057
0.00811011
0.00831123
0.00847734
0.008601
0.00868296
0.00872964
0.00875049
0.00875563
0.0087539
0.00875146
0.00626268
0.00626511
0.00627139
0.00628362
0.00630461
0.00633788
0.00638717
0.00645547
0.00654364
0.00664902
0.00676477
0.00688057
0.00698466
0.00706619
0.0071173
0.00713634
0.00713722
0.00715792
0.00722536
0.00734958
0.00752827
0.00774935
0.00799085
0.0082269
0.00843438
0.00859861
0.00871491
0.00878713
0.00882457
0.00883879
0.00884092
0.0088395
0.00627102
0.00627298
0.00627812
0.0062882
0.00630561
0.00633329
0.00637439
0.00643154
0.00650574
0.00659521
0.00669475
0.00679607
0.00688934
0.00696526
0.00701733
0.00704522
0.00706201
0.00709707
0.00717004
0.00729063
0.0074608
0.00767479
0.00791763
0.00816725
0.00839903
0.00859294
0.00873828
0.00883435
0.00888836
0.00891201
0.00891809
0.00891755
0.00628317
0.00628418
0.00628729
0.00629417
0.0063071
0.00632881
0.00636206
0.00640912
0.0064709
0.00654627
0.00663154
0.00672075
0.00680667
0.00688248
0.00694376
0.00699171
0.00703634
0.00709543
0.00718127
0.0073028
0.00746469
0.00766574
0.00789703
0.00814242
0.00838099
0.00859144
0.00875798
0.00887446
0.00894426
0.00897764
0.00898805
0.00898851
0.00631235
0.00631163
0.00631122
0.00631296
0.00631946
0.00633374
0.00635869
0.00639646
0.00644803
0.00651279
0.00658844
0.00667112
0.00675607
0.00683878
0.00691666
0.00699172
0.00706891
0.00715399
0.00725339
0.00737577
0.00752773
0.00771197
0.00792455
0.00815431
0.00838525
0.0085988
0.00877728
0.00890935
0.0089933
0.00903642
0.00905158
0.00905322
0.00637316
0.00636975
0.00636407
0.00635848
0.00635645
0.00636188
0.00637839
0.00640862
0.00645381
0.00651384
0.00658728
0.00667153
0.00676331
0.00685941
0.00695807
0.00706115
0.00716785
0.00727398
0.00738243
0.00750223
0.00764123
0.00780487
0.00799333
0.00820024
0.00841385
0.00861911
0.00879959
0.00894107
0.00903653
0.0090889
0.00910912
0.00911216
0.00647878
0.00647178
0.00645954
0.00644564
0.00643485
0.00643234
0.00644284
0.0064698
0.00651478
0.00657762
0.0066568
0.00674984
0.00685365
0.0069653
0.00708298
0.00720788
0.00733448
0.0074522
0.00756244
0.00767478
0.00779773
0.00793806
0.00809875
0.00827747
0.00846676
0.00865516
0.00882852
0.00897218
0.00907527
0.00913566
0.00916103
0.00916571
0.00663871
0.00662751
0.00660898
0.0065888
0.00657327
0.00656833
0.00657924
0.00660992
0.00666157
0.00673322
0.00682254
0.00692636
0.00704121
0.00716399
0.00729267
0.00742781
0.00756121
0.00767963
0.00778414
0.00788449
0.00798914
0.00810503
0.00823653
0.00838411
0.00854411
0.00870894
0.00886737
0.00900572
0.00911127
0.00917745
0.00920761
0.00921417
0.00685836
0.00684312
0.00682126
0.00680139
0.00679024
0.00679266
0.00681277
0.00685378
0.00691581
0.0069969
0.00709405
0.00720364
0.00732205
0.00744624
0.0075742
0.0077062
0.00783344
0.00794279
0.00803543
0.00812058
0.00820596
0.00829787
0.00840089
0.00851704
0.00864538
0.00878185
0.00891877
0.0090447
0.00914669
0.00921521
0.00924917
0.00925771
0.00714091
0.0071232
0.00710481
0.00709604
0.00710078
0.00712007
0.00715538
0.0072083
0.00727797
0.0073625
0.0074591
0.00756453
0.00767559
0.00778974
0.00790528
0.0080224
0.00813317
0.0082263
0.00830306
0.00837137
0.00843773
0.00850733
0.00858423
0.00867091
0.00876795
0.00887391
0.00898454
0.0090917
0.00918392
0.00925032
0.00928615
0.00929648
0.0074907
0.00747467
0.00747021
0.00748332
0.00751084
0.0075492
0.00759754
0.00765632
0.00772505
0.00780295
0.00788829
0.00797879
0.00807217
0.00816656
0.00826072
0.00835482
0.00844259
0.00851534
0.00857422
0.00862541
0.0086739
0.00872359
0.00877767
0.00883835
0.00890675
0.00898287
0.00906504
0.00914864
0.00922517
0.00928434
0.00931914
0.00933061
0.0079171
0.00791083
0.00792991
0.00796627
0.00801056
0.00805828
0.00810852
0.0081619
0.00821905
0.00828039
0.00834538
0.00841284
0.00848143
0.00854996
0.00861762
0.00868455
0.00874639
0.00879721
0.00883787
0.00887266
0.00890497
0.00893746
0.00897229
0.0090111
0.0090549
0.00910416
0.00915861
0.00921632
0.00927237
0.00931905
0.00934906
0.00936031
0.00843794
0.00845034
0.00848692
0.00852819
0.00856921
0.00860845
0.00864587
0.00868249
0.00871942
0.00875755
0.00879703
0.00883746
0.00887819
0.00891861
0.00895827
0.00899724
0.00903305
0.00906234
0.00908562
0.00910534
0.0091234
0.0091413
0.00916028
0.00918124
0.00920483
0.00923145
0.00926123
0.00929366
0.0093267
0.00935622
0.00937707
0.009386
0.00907495
0.00908475
0.00910363
0.00912168
0.00913829
0.00915341
0.00916719
0.0091801
0.00919272
0.00920545
0.00921848
0.00923172
0.009245
0.00925813
0.00927098
0.00928356
0.00929509
0.0093045
0.00931196
0.00931824
0.00932396
0.00932958
0.0093355
0.00934199
0.00934928
0.00935748
0.00936667
0.00937678
0.00938732
0.00939717
0.00940472
0.00940838
)
;

boundaryField
{
    movingWall
    {
        type            fixedValue;
        value           uniform 0.00942;
    }
    fixedWalls
    {
        type            zeroGradient;
    }
    floor
    {
        type            zeroGradient;
    }
    frontAndBack
    {
        type            empty;
    }
}


// ************************************************************************* //
