/*--------------------------------*- C++ -*----------------------------------*\
| =========                 |                                                 |
| \\      /  F ield         | OpenFOAM: The Open Source CFD Toolbox           |
|  \\    /   O peration     | Version:  2212                                  |
|   \\  /    A nd           | Website:  www.openfoam.com                      |
|    \\/     M anipulation  |                                                 |
\*---------------------------------------------------------------------------*/
FoamFile
{
    version     2.0;
    format      ascii;
    arch        "LSB;label=64;scalar=64";
    class       volScalarField;
    location    "1510";
    object      SIC;
}
// * * * * * * * * * * * * * * * * * * * * * * * * * * * * * * * * * * * * * //

dimensions      [1 -3 0 0 0 0 0];

internalField   nonuniform List<scalar> 
1024
(
0.0911857
0.0911871
0.0911906
0.091197
0.0912072
0.0912222
0.0912424
0.0912679
0.0912978
0.0913303
0.0913629
0.0913924
0.0914167
0.0914346
0.0914459
0.0914507
0.0914459
0.0914274
0.0913954
0.0913519
0.0913007
0.091246
0.0911924
0.0911437
0.0911024
0.0910695
0.0910447
0.0910271
0.0910153
0.0910081
0.0910041
0.0910025
0.0911862
0.0911876
0.0911912
0.0911977
0.0912081
0.0912232
0.0912437
0.0912696
0.0912998
0.0913327
0.0913654
0.0913951
0.0914193
0.0914371
0.0914484
0.0914532
0.0914485
0.0914301
0.0913981
0.0913547
0.0913033
0.0912485
0.0911946
0.0911456
0.0911039
0.0910706
0.0910456
0.0910278
0.0910159
0.0910086
0.0910046
0.0910029
0.0911874
0.0911889
0.0911925
0.0911992
0.0912099
0.0912256
0.0912467
0.0912733
0.0913044
0.091338
0.0913715
0.0914016
0.0914258
0.0914434
0.0914545
0.0914593
0.0914548
0.0914365
0.0914044
0.0913608
0.0913092
0.0912539
0.0911994
0.0911497
0.0911072
0.0910733
0.0910476
0.0910294
0.0910172
0.0910097
0.0910057
0.091004
0.0911896
0.0911911
0.0911949
0.0912018
0.091213
0.0912294
0.0912515
0.0912794
0.091312
0.0913475
0.0913826
0.0914136
0.091438
0.0914552
0.0914659
0.0914706
0.0914663
0.0914478
0.0914153
0.091371
0.0913186
0.0912625
0.0912071
0.0911562
0.0911126
0.0910775
0.091051
0.0910322
0.0910196
0.0910118
0.0910076
0.0910059
0.0911931
0.0911946
0.0911986
0.0912058
0.0912176
0.0912349
0.0912585
0.0912884
0.0913236
0.0913621
0.0914002
0.0914332
0.0914581
0.0914748
0.0914849
0.0914893
0.0914849
0.0914658
0.0914318
0.0913859
0.0913321
0.0912746
0.0912176
0.0911652
0.09112
0.0910835
0.0910559
0.0910362
0.0910231
0.091015
0.0910106
0.0910089
0.0911983
0.0911999
0.091204
0.0912116
0.091224
0.0912426
0.0912681
0.0913009
0.09134
0.0913833
0.0914261
0.0914625
0.0914885
0.0915048
0.091514
0.091518
0.0915132
0.0914924
0.0914556
0.0914066
0.0913499
0.09129
0.0912309
0.0911763
0.0911292
0.0910911
0.0910622
0.0910416
0.0910279
0.0910195
0.0910151
0.0910133
0.091206
0.0912076
0.0912117
0.0912197
0.0912329
0.091253
0.0912811
0.0913178
0.0913625
0.0914125
0.0914622
0.0915036
0.0915318
0.0915481
0.0915566
0.0915602
0.0915545
0.0915307
0.0914887
0.091434
0.0913725
0.0913086
0.0912463
0.0911892
0.0911399
0.0911001
0.09107
0.0910485
0.0910344
0.0910258
0.0910212
0.0910194
0.0912172
0.0912188
0.091223
0.0912313
0.0912454
0.0912672
0.0912985
0.0913403
0.0913924
0.0914513
0.09151
0.0915583
0.0915903
0.0916077
0.0916163
0.0916199
0.091613
0.0915841
0.0915338
0.09147
0.0914005
0.0913304
0.0912636
0.0912032
0.0911516
0.0911103
0.0910792
0.0910573
0.091043
0.0910344
0.09103
0.0910282
0.0912338
0.0912354
0.0912397
0.0912483
0.0912634
0.0912873
0.0913225
0.0913707
0.0914318
0.0915018
0.0915714
0.0916285
0.0916661
0.0916865
0.0916969
0.091702
0.0916938
0.0916576
0.0915953
0.0915178
0.0914362
0.0913568
0.0912835
0.0912188
0.0911648
0.0911222
0.0910907
0.091069
0.0910551
0.091047
0.091043
0.0910415
0.0912588
0.0912604
0.0912647
0.0912738
0.09129
0.0913165
0.0913563
0.0914121
0.0914839
0.0915665
0.0916485
0.0917162
0.0917617
0.0917879
0.0918034
0.0918126
0.0918038
0.0917588
0.0916809
0.0915849
0.091486
0.091393
0.0913103
0.0912398
0.0911827
0.0911392
0.091108
0.0910874
0.0910748
0.091068
0.0910649
0.0910639
0.0912965
0.0912981
0.0913027
0.0913124
0.0913303
0.0913599
0.0914054
0.0914699
0.0915536
0.0916498
0.0917451
0.0918245
0.0918803
0.0919164
0.0919422
0.0919602
0.091954
0.0919014
0.0918072
0.0916898
0.0915683
0.0914559
0.0913589
0.0912793
0.0912174
0.0911724
0.091142
0.0911234
0.0911133
0.0911088
0.0911075
0.0911074
0.0913524
0.0913541
0.0913592
0.0913701
0.0913904
0.0914244
0.0914768
0.0915513
0.0916474
0.0917573
0.091866
0.0919583
0.0920276
0.0920793
0.0921225
0.0921571
0.0921619
0.0921112
0.0920091
0.0918747
0.0917294
0.0915916
0.0914724
0.091376
0.0913036
0.0912535
0.0912224
0.0912057
0.0911988
0.0911977
0.091199
0.0912003
0.0914312
0.0914332
0.0914393
0.0914523
0.0914764
0.0915165
0.0915777
0.0916635
0.0917727
0.0918959
0.0920176
0.0921238
0.0922109
0.0922854
0.0923552
0.0924181
0.0924507
0.0924249
0.0923403
0.0922118
0.0920584
0.0918998
0.0917525
0.0916276
0.0915309
0.0914637
0.0914232
0.0914031
0.0913966
0.0913974
0.0914008
0.0914033
0.091533
0.0915356
0.0915433
0.0915597
0.0915894
0.0916382
0.091711
0.0918104
0.0919329
0.0920679
0.0922009
0.0923219
0.0924306
0.0925344
0.0926394
0.0927431
0.0928247
0.0928562
0.0928305
0.092754
0.0926372
0.0924942
0.0923408
0.0921926
0.0920622
0.0919592
0.0918877
0.0918444
0.0918233
0.0918164
0.0918164
0.0918181
0.0916471
0.0916501
0.0916591
0.0916782
0.0917126
0.091768
0.0918492
0.0919576
0.0920894
0.0922347
0.0923818
0.0925225
0.0926571
0.0927912
0.0929296
0.0930725
0.0932055
0.0933069
0.0933676
0.0933862
0.0933622
0.0932984
0.0932013
0.0930812
0.0929518
0.0928275
0.0927207
0.0926392
0.0925849
0.0925542
0.0925404
0.0925365
0.0917571
0.0917603
0.0917697
0.0917895
0.091825
0.0918821
0.0919655
0.0920769
0.092213
0.0923656
0.092524
0.0926796
0.0928298
0.0929766
0.0931222
0.0932678
0.0934085
0.0935393
0.0936592
0.0937639
0.0938451
0.0938949
0.093909
0.0938872
0.0938339
0.0937583
0.0936729
0.0935916
0.0935252
0.0934789
0.0934526
0.0934422
0.0918433
0.0918463
0.0918552
0.0918736
0.0919065
0.0919595
0.0920375
0.0921428
0.0922737
0.0924231
0.0925807
0.0927358
0.0928809
0.0930124
0.0931279
0.0932278
0.0933165
0.0934136
0.0935332
0.0936713
0.0938143
0.0939475
0.0940585
0.0941396
0.0941875
0.0942036
0.0941937
0.0941668
0.0941339
0.0941043
0.0940841
0.0940747
0.0918976
0.0919004
0.0919084
0.0919246
0.0919534
0.0919997
0.0920682
0.0921619
0.0922802
0.0924177
0.0925645
0.0927088
0.0928396
0.0929482
0.0930289
0.0930802
0.0931125
0.0931626
0.0932582
0.0934
0.093573
0.0937564
0.0939296
0.0940773
0.0941913
0.0942694
0.0943149
0.0943343
0.0943363
0.0943296
0.0943217
0.094317
0.0919275
0.0919301
0.0919373
0.0919514
0.0919761
0.0920155
0.092074
0.0921547
0.0922579
0.0923798
0.0925119
0.0926424
0.0927591
0.0928511
0.0929106
0.0929358
0.0929395
0.0929632
0.0930384
0.0931723
0.093356
0.0935703
0.0937899
0.0939911
0.0941572
0.0942809
0.0943629
0.0944096
0.0944305
0.0944356
0.0944339
0.0944314
0.0919424
0.0919448
0.0919511
0.0919633
0.0919843
0.0920176
0.0920669
0.0921352
0.0922234
0.0923288
0.0924445
0.0925603
0.0926644
0.092746
0.0927971
0.0928161
0.0928169
0.0928376
0.0929051
0.0930293
0.093208
0.0934292
0.0936707
0.0939068
0.0941143
0.0942785
0.0943949
0.0944671
0.0945045
0.0945188
0.0945209
0.0945195
0.0919507
0.0919527
0.0919578
0.0919679
0.0919853
0.092013
0.0920541
0.0921112
0.0921854
0.0922749
0.0923745
0.0924758
0.0925691
0.092645
0.0926971
0.092725
0.0927418
0.0927768
0.0928498
0.0929704
0.0931406
0.0933546
0.0935975
0.0938471
0.0940789
0.0942729
0.0944182
0.0945143
0.0945683
0.094592
0.0945981
0.0945975
0.0919629
0.0919639
0.091967
0.0919739
0.0919868
0.0920085
0.0920418
0.0920888
0.0921506
0.092226
0.0923113
0.0924005
0.0924864
0.0925622
0.0926235
0.0926715
0.0927161
0.0927752
0.0928611
0.0929826
0.0931445
0.0933456
0.0935769
0.0938223
0.0940609
0.0942714
0.0944379
0.0945544
0.0946242
0.0946576
0.094668
0.0946685
0.0919921
0.0919913
0.0919909
0.0919927
0.0919992
0.0920134
0.0920384
0.0920762
0.0921277
0.0921925
0.0922682
0.0923509
0.0924358
0.0925185
0.0925964
0.0926715
0.0927487
0.0928338
0.0929332
0.0930556
0.0932076
0.0933918
0.0936044
0.0938342
0.0940652
0.0942788
0.0944572
0.0945893
0.0946733
0.0947164
0.0947316
0.0947332
0.0920529
0.0920495
0.0920438
0.0920382
0.0920362
0.0920416
0.0920581
0.0920883
0.0921335
0.0921936
0.092267
0.0923513
0.0924431
0.0925392
0.0926378
0.0927409
0.0928477
0.0929538
0.0930623
0.0931821
0.0933211
0.0934848
0.0936732
0.0938802
0.0940938
0.0942991
0.0944796
0.094621
0.0947165
0.0947689
0.0947891
0.0947921
0.0921585
0.0921515
0.0921393
0.0921254
0.0921146
0.092112
0.0921225
0.0921495
0.0921945
0.0922573
0.0923365
0.0924296
0.0925334
0.0926451
0.0927628
0.0928877
0.0930143
0.093132
0.0932423
0.0933547
0.0934776
0.093618
0.0937787
0.0939574
0.0941467
0.0943351
0.0945085
0.0946522
0.0947553
0.0948157
0.094841
0.0948457
0.0923184
0.0923072
0.0922887
0.0922685
0.092253
0.092248
0.092259
0.0922896
0.0923413
0.092413
0.0925023
0.0926061
0.092721
0.0928438
0.0929725
0.0931076
0.0932411
0.0933595
0.093464
0.0935644
0.093669
0.0937849
0.0939164
0.094064
0.0942241
0.0943889
0.0945473
0.0946857
0.0947913
0.0948574
0.0948876
0.0948942
0.0925381
0.0925229
0.092501
0.0924811
0.09247
0.0924724
0.0924925
0.0925335
0.0925956
0.0926767
0.0927738
0.0928834
0.0930019
0.0931261
0.0932541
0.0933861
0.0935133
0.0936227
0.0937153
0.0938005
0.0938859
0.0939778
0.0940808
0.094197
0.0943253
0.0944618
0.0945987
0.0947247
0.0948267
0.0948952
0.0949292
0.0949377
0.0928207
0.092803
0.0927846
0.0927758
0.0927806
0.0927998
0.0928352
0.0928881
0.0929577
0.0930423
0.0931389
0.0932444
0.0933554
0.0934696
0.0935852
0.0937023
0.0938131
0.0939062
0.093983
0.0940513
0.0941177
0.0941873
0.0942642
0.0943509
0.0944479
0.0945539
0.0946645
0.0947717
0.0948639
0.0949303
0.0949661
0.0949765
0.0931705
0.0931545
0.09315
0.0931631
0.0931907
0.093229
0.0932774
0.0933361
0.0934049
0.0934828
0.0935681
0.0936587
0.093752
0.0938465
0.0939406
0.0940347
0.0941225
0.0941953
0.0942542
0.0943054
0.0943538
0.0944035
0.0944576
0.0945183
0.0945867
0.0946628
0.094745
0.0948286
0.0949052
0.0949643
0.0949991
0.0950106
0.093597
0.0935907
0.0936098
0.0936461
0.0936904
0.0937381
0.0937884
0.0938418
0.0938989
0.0939603
0.0940253
0.0940927
0.0941613
0.0942299
0.0942976
0.0943645
0.0944263
0.0944772
0.0945178
0.0945526
0.0945849
0.0946174
0.0946523
0.0946911
0.0947349
0.0947841
0.0948386
0.0948963
0.0949524
0.094999
0.0950291
0.0950403
0.0941178
0.0941303
0.0941668
0.0942081
0.0942491
0.0942884
0.0943258
0.0943624
0.0943993
0.0944375
0.094477
0.0945174
0.0945581
0.0945986
0.0946382
0.0946772
0.094713
0.0947423
0.0947656
0.0947853
0.0948034
0.0948213
0.0948403
0.0948612
0.0948848
0.0949114
0.0949412
0.0949737
0.0950067
0.0950362
0.0950571
0.095066
0.0947549
0.0947647
0.0947836
0.0948017
0.0948183
0.0948334
0.0948472
0.0948601
0.0948727
0.0948854
0.0948985
0.0949117
0.094925
0.0949381
0.094951
0.0949635
0.0949751
0.0949845
0.094992
0.0949982
0.095004
0.0950096
0.0950155
0.095022
0.0950293
0.0950375
0.0950467
0.0950568
0.0950673
0.0950772
0.0950847
0.0950884
)
;

boundaryField
{
    movingWall
    {
        type            fixedValue;
        value           uniform 0.0951;
    }
    fixedWalls
    {
        type            zeroGradient;
    }
    floor
    {
        type            zeroGradient;
    }
    frontAndBack
    {
        type            empty;
    }
}


// ************************************************************************* //
