/*--------------------------------*- C++ -*----------------------------------*\
| =========                 |                                                 |
| \\      /  F ield         | OpenFOAM: The Open Source CFD Toolbox           |
|  \\    /   O peration     | Version:  2212                                  |
|   \\  /    A nd           | Website:  www.openfoam.com                      |
|    \\/     M anipulation  |                                                 |
\*---------------------------------------------------------------------------*/
FoamFile
{
    version     2.0;
    format      ascii;
    arch        "LSB;label=64;scalar=64";
    class       volScalarField;
    location    "1510";
    object      Xli;
}
// * * * * * * * * * * * * * * * * * * * * * * * * * * * * * * * * * * * * * //

dimensions      [1 -3 0 0 0 0 0];

internalField   nonuniform List<scalar> 
1024
(
0.0423011
0.0423017
0.042303
0.0423055
0.0423094
0.042315
0.0423227
0.0423325
0.0423438
0.0423561
0.0423684
0.0423795
0.0423884
0.0423949
0.0423987
0.0423997
0.0423969
0.042389
0.042376
0.0423588
0.0423385
0.042317
0.0422958
0.0422765
0.04226
0.0422469
0.0422371
0.04223
0.0422253
0.0422224
0.0422208
0.0422202
0.0423013
0.0423019
0.0423032
0.0423057
0.0423097
0.0423155
0.0423233
0.0423331
0.0423446
0.042357
0.0423693
0.0423804
0.0423894
0.0423958
0.0423996
0.0424006
0.0423979
0.0423899
0.042377
0.0423598
0.0423395
0.0423179
0.0422966
0.0422772
0.0422606
0.0422474
0.0422374
0.0422303
0.0422255
0.0422226
0.042221
0.0422204
0.0423018
0.0423023
0.0423037
0.0423063
0.0423104
0.0423163
0.0423244
0.0423345
0.0423463
0.042359
0.0423716
0.0423828
0.0423918
0.0423981
0.0424018
0.0424028
0.0424001
0.0423923
0.0423793
0.042362
0.0423417
0.0423199
0.0422984
0.0422787
0.0422619
0.0422484
0.0422382
0.0422309
0.042226
0.042223
0.0422214
0.0422208
0.0423026
0.0423032
0.0423046
0.0423073
0.0423116
0.0423178
0.0423262
0.0423368
0.0423492
0.0423625
0.0423757
0.0423873
0.0423963
0.0424025
0.042406
0.0424069
0.0424043
0.0423963
0.0423832
0.0423657
0.0423452
0.0423232
0.0423013
0.0422812
0.0422639
0.04225
0.0422395
0.0422319
0.0422269
0.0422238
0.0422221
0.0422215
0.0423039
0.0423045
0.042306
0.0423088
0.0423133
0.0423199
0.0423288
0.0423402
0.0423535
0.042368
0.0423823
0.0423946
0.0424037
0.0424096
0.0424128
0.0424137
0.0424109
0.0424027
0.0423892
0.0423712
0.0423501
0.0423276
0.0423053
0.0422846
0.0422667
0.0422523
0.0422413
0.0422334
0.0422282
0.042225
0.0422233
0.0422226
0.0423059
0.0423066
0.0423081
0.042311
0.0423157
0.0423228
0.0423325
0.0423449
0.0423597
0.0423759
0.0423919
0.0424054
0.0424149
0.0424206
0.0424234
0.042424
0.042421
0.0424122
0.0423976
0.0423785
0.0423565
0.0423332
0.0423101
0.0422887
0.0422701
0.0422551
0.0422436
0.0422355
0.04223
0.0422267
0.0422249
0.0422242
0.0423089
0.0423095
0.0423111
0.0423141
0.0423191
0.0423267
0.0423374
0.0423512
0.0423681
0.0423868
0.0424053
0.0424206
0.0424308
0.0424364
0.0424388
0.0424391
0.0424357
0.0424257
0.0424092
0.0423881
0.0423645
0.0423398
0.0423156
0.0422933
0.042274
0.0422584
0.0422465
0.042238
0.0422324
0.0422289
0.0422271
0.0422264
0.0423132
0.0423138
0.0423154
0.0423185
0.0423239
0.0423321
0.0423439
0.0423597
0.0423792
0.0424013
0.0424231
0.0424408
0.0424523
0.042458
0.0424603
0.0424604
0.0424563
0.0424444
0.0424249
0.0424006
0.0423741
0.0423473
0.0423216
0.0422982
0.0422781
0.042262
0.0422497
0.0422411
0.0422354
0.042232
0.0422302
0.0422296
0.0423195
0.0423201
0.0423217
0.042325
0.0423307
0.0423397
0.042353
0.0423711
0.042394
0.0424201
0.0424458
0.0424666
0.04248
0.0424866
0.0424892
0.0424895
0.0424847
0.04247
0.0424461
0.0424169
0.0423862
0.0423562
0.0423283
0.0423034
0.0422826
0.042266
0.0422537
0.0422452
0.0422397
0.0422365
0.0422349
0.0422343
0.0423291
0.0423296
0.0423313
0.0423347
0.0423408
0.0423508
0.0423657
0.0423867
0.0424135
0.0424441
0.0424743
0.0424988
0.0425147
0.0425231
0.0425272
0.0425287
0.0425233
0.0425051
0.0424755
0.0424397
0.0424029
0.0423682
0.042337
0.0423103
0.0422885
0.0422717
0.0422597
0.0422516
0.0422466
0.0422439
0.0422427
0.0422422
0.0423435
0.042344
0.0423457
0.0423494
0.0423561
0.0423672
0.0423843
0.0424084
0.0424395
0.042475
0.0425098
0.0425383
0.0425577
0.0425693
0.0425767
0.0425809
0.0425761
0.0425549
0.0425193
0.0424757
0.0424309
0.0423894
0.0423533
0.0423235
0.0423002
0.0422831
0.0422715
0.0422642
0.0422603
0.0422584
0.0422578
0.0422577
0.0423648
0.0423654
0.0423673
0.0423714
0.0423789
0.0423916
0.0424112
0.0424388
0.0424744
0.0425148
0.0425542
0.042587
0.0426108
0.0426277
0.042641
0.0426507
0.0426495
0.0426287
0.04259
0.0425403
0.042487
0.0424365
0.0423927
0.0423572
0.0423304
0.0423117
0.0423
0.0422936
0.0422908
0.0422903
0.0422906
0.0422911
0.0423947
0.0423955
0.0423977
0.0424026
0.0424115
0.0424264
0.0424491
0.0424808
0.0425209
0.0425658
0.0426096
0.0426471
0.0426769
0.0427017
0.0427243
0.0427439
0.0427524
0.0427402
0.0427075
0.0426597
0.0426034
0.0425457
0.0424921
0.0424466
0.0424114
0.0423868
0.042372
0.0423645
0.042362
0.0423622
0.0423634
0.0423643
0.0424334
0.0424344
0.0424372
0.0424432
0.0424542
0.0424721
0.042499
0.0425354
0.0425802
0.042629
0.0426766
0.0427191
0.0427566
0.0427918
0.042827
0.0428611
0.0428868
0.0428947
0.0428826
0.042853
0.0428096
0.0427574
0.0427019
0.0426484
0.0426015
0.0425645
0.0425387
0.0425232
0.0425156
0.0425131
0.0425131
0.0425137
0.0424767
0.0424778
0.0424811
0.042488
0.0425006
0.042521
0.0425507
0.0425903
0.0426382
0.0426907
0.0427433
0.042793
0.0428399
0.0428861
0.0429335
0.0429816
0.0430255
0.0430575
0.0430753
0.0430786
0.0430674
0.0430429
0.0430073
0.0429641
0.0429179
0.0428737
0.0428359
0.0428071
0.0427879
0.0427771
0.0427723
0.0427709
0.0425186
0.0425198
0.0425232
0.0425304
0.0425433
0.0425642
0.0425947
0.0426353
0.0426849
0.0427401
0.042797
0.0428525
0.0429056
0.042957
0.0430073
0.0430568
0.0431031
0.0431448
0.043182
0.0432139
0.043238
0.0432521
0.0432545
0.0432454
0.043226
0.0431994
0.0431697
0.0431416
0.0431187
0.0431028
0.0430937
0.0430901
0.0425519
0.042553
0.0425562
0.0425628
0.0425748
0.0425942
0.0426227
0.0426613
0.0427091
0.0427636
0.0428208
0.0428768
0.0429289
0.0429758
0.0430165
0.0430507
0.0430793
0.0431089
0.0431449
0.0431865
0.0432297
0.04327
0.0433036
0.0433282
0.0433426
0.0433472
0.0433437
0.0433348
0.0433241
0.0433145
0.0433079
0.0433048
0.0425735
0.0425745
0.0425774
0.0425832
0.0425936
0.0426105
0.0426357
0.0426701
0.0427136
0.0427641
0.042818
0.0428709
0.0429187
0.0429585
0.0429879
0.0430062
0.0430163
0.0430306
0.0430586
0.043101
0.043153
0.0432082
0.0432605
0.0433051
0.0433397
0.0433636
0.0433778
0.0433841
0.0433851
0.0433834
0.0433812
0.0433799
0.0425861
0.042587
0.0425895
0.0425945
0.0426035
0.0426179
0.0426394
0.0426691
0.0427073
0.0427524
0.0428013
0.0428498
0.0428932
0.0429277
0.0429504
0.0429604
0.0429615
0.0429675
0.0429893
0.0430294
0.043085
0.04315
0.0432164
0.0432772
0.0433274
0.0433648
0.0433897
0.0434042
0.0434109
0.0434128
0.0434126
0.0434121
0.0425929
0.0425937
0.0425959
0.0426003
0.0426079
0.04262
0.0426381
0.0426634
0.0426961
0.0427354
0.0427786
0.0428221
0.0428613
0.0428925
0.0429126
0.0429207
0.0429212
0.0429266
0.0429463
0.0429837
0.0430381
0.0431054
0.0431788
0.0432503
0.043313
0.0433625
0.0433977
0.0434196
0.0434312
0.0434358
0.0434368
0.0434365
0.0425971
0.0425978
0.0425996
0.0426032
0.0426095
0.0426196
0.0426347
0.0426559
0.0426835
0.042717
0.0427544
0.0427927
0.0428281
0.0428573
0.0428777
0.0428889
0.0428947
0.0429051
0.042927
0.0429637
0.0430158
0.0430812
0.0431553
0.0432311
0.0433012
0.0433597
0.0434034
0.0434324
0.0434489
0.0434562
0.0434583
0.0434583
0.0426021
0.0426025
0.0426036
0.0426061
0.0426108
0.0426188
0.0426311
0.0426486
0.0426717
0.0427
0.0427321
0.0427658
0.0427984
0.0428272
0.0428505
0.0428681
0.0428832
0.0429017
0.0429281
0.0429655
0.0430154
0.0430771
0.0431479
0.0432226
0.0432948
0.0433583
0.0434084
0.0434434
0.0434645
0.0434747
0.043478
0.0434783
0.0426123
0.0426121
0.0426121
0.0426129
0.0426155
0.0426209
0.0426303
0.0426444
0.0426637
0.0426879
0.0427162
0.0427471
0.0427787
0.0428093
0.0428376
0.042864
0.0428897
0.0429169
0.042948
0.0429861
0.0430331
0.04309
0.0431552
0.0432253
0.0432953
0.0433598
0.0434134
0.043453
0.0434782
0.0434912
0.043496
0.0434966
0.0426324
0.0426314
0.0426296
0.0426281
0.0426278
0.0426303
0.0426368
0.0426481
0.0426649
0.042687
0.0427139
0.0427445
0.0427777
0.042812
0.0428466
0.0428818
0.0429171
0.0429513
0.0429856
0.0430232
0.0430665
0.0431171
0.0431751
0.0432383
0.0433032
0.0433652
0.0434194
0.0434618
0.0434904
0.0435061
0.0435123
0.0435133
0.0426667
0.0426645
0.0426607
0.0426564
0.0426533
0.0426532
0.0426575
0.0426675
0.0426838
0.0427062
0.0427343
0.042767
0.0428033
0.042842
0.0428823
0.0429243
0.042966
0.043004
0.0430392
0.0430746
0.0431131
0.0431567
0.0432062
0.0432609
0.0433185
0.0433754
0.0434275
0.0434705
0.0435013
0.0435193
0.043527
0.0435285
0.0427181
0.0427146
0.0427088
0.0427025
0.0426979
0.0426968
0.0427011
0.042712
0.04273
0.0427548
0.0427854
0.042821
0.0428601
0.0429018
0.0429452
0.0429902
0.0430339
0.0430723
0.0431057
0.0431376
0.0431704
0.0432065
0.0432471
0.0432924
0.0433411
0.043391
0.0434386
0.04348
0.0435115
0.0435312
0.0435402
0.0435422
0.0427884
0.0427836
0.0427767
0.0427705
0.0427672
0.0427684
0.0427755
0.0427895
0.0428104
0.0428377
0.0428703
0.0429071
0.0429468
0.0429884
0.043031
0.0430747
0.0431164
0.0431518
0.0431816
0.0432087
0.0432356
0.0432643
0.0432962
0.0433319
0.043371
0.0434123
0.0434535
0.0434912
0.0435215
0.0435419
0.043552
0.0435546
0.0428785
0.0428729
0.0428671
0.0428644
0.0428661
0.0428726
0.0428843
0.0429018
0.0429249
0.0429528
0.0429848
0.0430198
0.0430566
0.0430945
0.0431328
0.0431714
0.0432076
0.0432378
0.0432625
0.0432843
0.0433053
0.0433271
0.0433509
0.0433776
0.0434073
0.0434394
0.0434727
0.0435048
0.0435322
0.0435518
0.0435624
0.0435655
0.0429897
0.0429846
0.0429832
0.0429875
0.0429964
0.0430088
0.0430245
0.0430436
0.0430661
0.0430916
0.0431196
0.0431494
0.0431801
0.0432113
0.0432424
0.0432733
0.043302
0.0433256
0.0433446
0.043361
0.0433763
0.0433919
0.0434088
0.0434275
0.0434484
0.0434715
0.0434963
0.0435213
0.043544
0.0435615
0.0435718
0.0435752
0.0431249
0.0431229
0.043129
0.0431406
0.0431547
0.04317
0.0431862
0.0432034
0.0432219
0.0432419
0.0432631
0.0432852
0.0433077
0.0433303
0.0433525
0.0433745
0.0433947
0.0434113
0.0434244
0.0434355
0.0434458
0.043456
0.0434669
0.0434789
0.0434923
0.0435072
0.0435237
0.043541
0.0435576
0.0435714
0.0435802
0.0435835
0.0432898
0.0432937
0.0433053
0.0433184
0.0433314
0.0433439
0.0433559
0.0433677
0.0433796
0.043392
0.0434048
0.043418
0.0434314
0.0434447
0.0434577
0.0434705
0.0434822
0.0434917
0.0434993
0.0435056
0.0435113
0.043517
0.0435229
0.0435294
0.0435366
0.0435447
0.0435537
0.0435634
0.0435733
0.043582
0.0435881
0.0435907
0.0434911
0.0434942
0.0435002
0.0435059
0.0435112
0.043516
0.0435204
0.0435245
0.0435286
0.0435327
0.0435369
0.0435413
0.0435456
0.0435499
0.0435541
0.0435583
0.0435621
0.0435651
0.0435675
0.0435695
0.0435714
0.0435731
0.043575
0.043577
0.0435792
0.0435817
0.0435845
0.0435875
0.0435907
0.0435936
0.0435958
0.0435968
)
;

boundaryField
{
    movingWall
    {
        type            fixedValue;
        value           uniform 0.0436;
    }
    fixedWalls
    {
        type            zeroGradient;
    }
    floor
    {
        type            zeroGradient;
    }
    frontAndBack
    {
        type            empty;
    }
}


// ************************************************************************* //
