/*--------------------------------*- C++ -*----------------------------------*\
| =========                 |                                                 |
| \\      /  F ield         | OpenFOAM: The Open Source CFD Toolbox           |
|  \\    /   O peration     | Version:  2212                                  |
|   \\  /    A nd           | Website:  www.openfoam.com                      |
|    \\/     M anipulation  |                                                 |
\*---------------------------------------------------------------------------*/
FoamFile
{
    version     2.0;
    format      ascii;
    arch        "LSB;label=64;scalar=64";
    class       volScalarField;
    location    "1510";
    object      Xpr;
}
// * * * * * * * * * * * * * * * * * * * * * * * * * * * * * * * * * * * * * //

dimensions      [1 -3 0 0 0 0 0];

internalField   nonuniform List<scalar> 
1024
(
0.0816447
0.0816458
0.0816484
0.0816532
0.0816609
0.0816721
0.0816873
0.0817063
0.0817287
0.0817529
0.081777
0.0817988
0.0818165
0.0818291
0.0818366
0.0818386
0.0818332
0.0818175
0.081792
0.0817581
0.0817183
0.0816759
0.0816342
0.0815962
0.0815639
0.0815381
0.0815187
0.0815049
0.0814956
0.0814899
0.0814868
0.0814855
0.0816451
0.0816462
0.0816489
0.0816537
0.0816615
0.0816729
0.0816883
0.0817076
0.0817302
0.0817546
0.0817789
0.0818007
0.0818184
0.081831
0.0818384
0.0818404
0.081835
0.0818194
0.081794
0.0817601
0.0817203
0.0816777
0.0816358
0.0815976
0.081565
0.081539
0.0815194
0.0815054
0.081496
0.0814903
0.0814871
0.0814858
0.081646
0.0816471
0.0816499
0.0816549
0.0816629
0.0816746
0.0816905
0.0817104
0.0817335
0.0817586
0.0817834
0.0818055
0.0818231
0.0818355
0.0818427
0.0818448
0.0818395
0.081824
0.0817985
0.0817645
0.0817246
0.0816817
0.0816394
0.0816007
0.0815675
0.081541
0.0815209
0.0815066
0.081497
0.0814911
0.0814879
0.0814866
0.0816476
0.0816488
0.0816516
0.0816569
0.0816652
0.0816775
0.0816941
0.0817149
0.0817392
0.0817655
0.0817915
0.0818143
0.0818319
0.0818441
0.0818509
0.0818528
0.0818476
0.081832
0.0818062
0.0817718
0.0817314
0.0816881
0.0816451
0.0816055
0.0815715
0.0815441
0.0815234
0.0815086
0.0814987
0.0814926
0.0814893
0.081488
0.0816503
0.0816514
0.0816544
0.0816598
0.0816687
0.0816816
0.0816993
0.0817215
0.0817477
0.0817763
0.0818044
0.0818286
0.0818465
0.0818582
0.0818645
0.0818661
0.0818608
0.0818446
0.0818179
0.0817825
0.0817411
0.0816968
0.0816528
0.0816122
0.081577
0.0815486
0.081527
0.0815116
0.0815013
0.0814949
0.0814915
0.0814901
0.0816542
0.0816554
0.0816584
0.0816641
0.0816735
0.0816873
0.0817064
0.0817308
0.0817598
0.0817918
0.0818234
0.0818499
0.0818685
0.0818797
0.0818853
0.0818864
0.0818806
0.0818633
0.0818345
0.0817969
0.0817537
0.0817078
0.0816624
0.0816203
0.0815838
0.0815541
0.0815316
0.0815155
0.0815048
0.0814982
0.0814947
0.0814933
0.08166
0.0816612
0.0816643
0.0816702
0.0816801
0.0816951
0.081716
0.0817433
0.0817764
0.0818133
0.0818497
0.0818798
0.0818998
0.0819108
0.0819156
0.0819161
0.0819095
0.0818897
0.0818573
0.0818159
0.0817693
0.0817208
0.0816732
0.0816294
0.0815914
0.0815606
0.0815372
0.0815205
0.0815094
0.0815027
0.0814991
0.0814977
0.0816684
0.0816696
0.0816727
0.0816789
0.0816894
0.0817057
0.0817289
0.08176
0.0817984
0.0818418
0.0818846
0.0819195
0.081942
0.0819534
0.0819578
0.081958
0.0819501
0.0819265
0.0818882
0.0818403
0.0817883
0.0817356
0.081685
0.081639
0.0815995
0.0815677
0.0815436
0.0815266
0.0815155
0.0815088
0.0815053
0.0815039
0.0816809
0.081682
0.0816852
0.0816917
0.0817029
0.0817206
0.0817467
0.0817824
0.0818274
0.0818787
0.0819293
0.0819703
0.0819965
0.0820096
0.0820147
0.0820153
0.0820059
0.0819769
0.0819298
0.0818725
0.0818121
0.081753
0.0816981
0.0816493
0.0816082
0.0815757
0.0815515
0.0815347
0.0815239
0.0815176
0.0815144
0.0815132
0.0816997
0.0817008
0.081704
0.0817107
0.0817228
0.0817424
0.0817718
0.081813
0.0818657
0.0819261
0.0819854
0.0820336
0.0820649
0.0820814
0.0820896
0.0820924
0.0820819
0.0820461
0.0819878
0.0819174
0.081845
0.0817766
0.0817153
0.0816628
0.0816199
0.0815869
0.0815632
0.0815473
0.0815375
0.0815322
0.0815297
0.0815289
0.081728
0.0817291
0.0817325
0.0817397
0.0817529
0.0817748
0.0818083
0.0818557
0.0819169
0.0819868
0.0820553
0.0821114
0.0821494
0.0821723
0.0821868
0.0821951
0.0821857
0.082144
0.0820739
0.0819882
0.0819001
0.0818184
0.0817474
0.0816888
0.0816429
0.0816093
0.0815864
0.0815721
0.0815643
0.0815607
0.0815595
0.0815594
0.0817699
0.0817711
0.0817748
0.0817829
0.0817978
0.0818228
0.0818612
0.0819156
0.0819856
0.082065
0.0821426
0.0822071
0.082254
0.0822871
0.0823133
0.0823325
0.0823302
0.0822892
0.0822131
0.0821152
0.0820104
0.081911
0.0818249
0.0817551
0.0817023
0.0816655
0.0816424
0.0816298
0.0816245
0.0816234
0.0816241
0.0816249
0.0818289
0.0818304
0.0818348
0.0818443
0.0818618
0.0818911
0.0819357
0.0819981
0.082077
0.0821654
0.0822516
0.0823254
0.0823841
0.0824327
0.0824772
0.0825159
0.0825325
0.0825085
0.0824442
0.0823501
0.0822395
0.0821258
0.0820204
0.081931
0.0818616
0.0818133
0.0817841
0.0817694
0.0817645
0.0817649
0.0817672
0.0817689
0.081905
0.0819069
0.0819124
0.0819242
0.0819458
0.0819811
0.0820339
0.0821057
0.0821936
0.0822898
0.0823834
0.082467
0.0825408
0.08261
0.0826792
0.0827464
0.082797
0.0828125
0.0827887
0.0827304
0.0826451
0.0825424
0.0824331
0.082328
0.0822357
0.0821628
0.0821122
0.0820816
0.0820666
0.0820617
0.0820618
0.082063
0.0819901
0.0819923
0.0819987
0.0820125
0.0820372
0.0820772
0.0821357
0.0822137
0.0823079
0.0824111
0.0825145
0.0826123
0.0827046
0.0827956
0.0828887
0.0829835
0.0830697
0.0831328
0.0831677
0.0831742
0.0831523
0.0831041
0.083034
0.0829489
0.0828581
0.0827712
0.0826968
0.0826401
0.0826024
0.0825812
0.0825716
0.0825689
0.0820726
0.0820749
0.0820815
0.0820957
0.0821212
0.0821622
0.0822222
0.0823022
0.0823996
0.0825083
0.0826203
0.0827294
0.0828338
0.082935
0.0830341
0.0831314
0.0832225
0.0833044
0.0833776
0.0834404
0.0834879
0.0835155
0.0835204
0.0835024
0.0834642
0.0834118
0.0833534
0.0832981
0.0832531
0.0832218
0.083204
0.0831969
0.0821382
0.0821403
0.0821465
0.0821596
0.0821832
0.0822213
0.0822774
0.0823532
0.0824473
0.0825545
0.082667
0.0827772
0.0828798
0.082972
0.083052
0.0831193
0.0831756
0.0832339
0.0833047
0.0833865
0.0834715
0.0835507
0.0836169
0.0836652
0.0836936
0.0837026
0.0836957
0.0836783
0.0836572
0.0836383
0.0836253
0.0836193
0.0821806
0.0821826
0.0821881
0.0821996
0.0822202
0.0822534
0.0823029
0.0823706
0.0824562
0.0825555
0.0826616
0.0827656
0.0828597
0.0829379
0.0829958
0.0830318
0.0830517
0.0830798
0.0831349
0.0832182
0.0833206
0.0834293
0.0835321
0.0836199
0.0836879
0.0837349
0.0837628
0.0837753
0.0837772
0.0837739
0.0837696
0.083767
0.0822053
0.0822071
0.082212
0.082222
0.0822395
0.0822678
0.0823101
0.0823687
0.0824438
0.0825325
0.0826288
0.0827241
0.0828095
0.0828774
0.0829221
0.0829417
0.0829438
0.0829557
0.0829986
0.0830775
0.0831868
0.0833146
0.0834454
0.083565
0.0836637
0.0837373
0.0837863
0.0838147
0.0838279
0.0838318
0.0838314
0.0838303
0.0822187
0.0822204
0.0822247
0.0822333
0.0822482
0.0822721
0.0823077
0.0823574
0.0824218
0.082499
0.0825841
0.0826695
0.0827468
0.0828081
0.0828477
0.0828637
0.0828645
0.0828752
0.082914
0.0829876
0.0830945
0.083227
0.0833713
0.083512
0.0836354
0.0837328
0.083802
0.0838451
0.0838679
0.083877
0.0838789
0.0838784
0.082227
0.0822283
0.0822319
0.0822389
0.0822513
0.0822712
0.0823009
0.0823426
0.082397
0.0824628
0.0825364
0.0826117
0.0826815
0.0827389
0.0827791
0.082801
0.0828125
0.082833
0.0828761
0.0829482
0.0830507
0.0831794
0.0833251
0.0834743
0.0836122
0.0837272
0.0838133
0.0838703
0.0839027
0.0839172
0.0839213
0.0839213
0.0822368
0.0822375
0.0822398
0.0822447
0.082254
0.0822697
0.0822939
0.0823283
0.0823737
0.0824293
0.0824925
0.0825589
0.082623
0.0826797
0.0827254
0.0827602
0.0827898
0.0828262
0.0828782
0.0829518
0.0830498
0.0831713
0.0833105
0.0834575
0.0835996
0.0837245
0.083823
0.0838919
0.0839333
0.0839534
0.0839601
0.0839606
0.0822569
0.0822565
0.0822565
0.0822581
0.0822631
0.0822738
0.0822922
0.08232
0.082358
0.0824056
0.0824613
0.0825221
0.0825843
0.0826445
0.0827002
0.0827521
0.0828026
0.0828561
0.0829173
0.0829922
0.0830848
0.0831966
0.0833249
0.0834628
0.0836006
0.0837274
0.0838329
0.0839108
0.0839604
0.0839861
0.0839954
0.0839966
0.0822965
0.0822944
0.082291
0.0822879
0.0822875
0.0822923
0.082305
0.0823274
0.0823603
0.0824038
0.0824567
0.082517
0.0825822
0.0826497
0.0827178
0.0827871
0.0828566
0.0829238
0.0829914
0.0830653
0.0831504
0.0832501
0.0833641
0.0834885
0.0836161
0.0837381
0.0838448
0.0839281
0.0839843
0.0840152
0.0840274
0.0840295
0.0823639
0.0823596
0.082352
0.0823437
0.0823376
0.0823373
0.0823458
0.0823655
0.0823975
0.0824416
0.0824968
0.0825613
0.0826327
0.0827088
0.0827881
0.0828707
0.0829527
0.0830275
0.0830967
0.0831664
0.0832421
0.0833278
0.0834253
0.0835329
0.0836461
0.0837582
0.0838607
0.0839453
0.0840058
0.0840413
0.0840564
0.0840593
0.0824651
0.0824581
0.0824467
0.0824343
0.0824252
0.0824231
0.0824316
0.0824531
0.0824885
0.0825371
0.0825975
0.0826674
0.0827445
0.0828265
0.0829118
0.0830003
0.0830864
0.0831618
0.0832276
0.0832902
0.0833549
0.0834259
0.0835058
0.0835949
0.0836907
0.0837888
0.0838825
0.083964
0.0840258
0.0840646
0.0840823
0.0840864
0.0826034
0.0825939
0.0825803
0.0825681
0.0825617
0.082564
0.0825779
0.0826054
0.0826466
0.0827002
0.0827644
0.0828368
0.082915
0.0829967
0.0830807
0.0831666
0.0832486
0.0833183
0.0833768
0.0834301
0.0834831
0.0835395
0.0836023
0.0836725
0.0837495
0.0838308
0.0839118
0.0839859
0.0840457
0.0840857
0.0841055
0.0841106
0.0827805
0.0827695
0.0827581
0.0827529
0.0827562
0.082769
0.082792
0.0828265
0.0828718
0.0829268
0.0829897
0.0830585
0.083131
0.0832055
0.0832808
0.0833568
0.083428
0.0834875
0.0835361
0.0835789
0.0836202
0.0836631
0.08371
0.0837625
0.0838208
0.083884
0.0839496
0.0840127
0.0840666
0.0841053
0.0841261
0.0841322
0.0829993
0.0829893
0.0829866
0.0829949
0.0830124
0.0830369
0.0830678
0.0831054
0.0831496
0.0831998
0.0832549
0.0833135
0.083374
0.0834353
0.0834964
0.0835573
0.0836137
0.0836602
0.0836976
0.0837298
0.08376
0.0837907
0.0838238
0.0838606
0.0839017
0.0839472
0.0839959
0.0840452
0.0840899
0.0841243
0.0841445
0.0841511
0.0832653
0.0832614
0.0832734
0.0832961
0.083324
0.083354
0.0833858
0.0834198
0.0834562
0.0834955
0.0835372
0.0835807
0.083625
0.0836694
0.0837132
0.0837564
0.0837962
0.0838287
0.0838545
0.0838765
0.0838966
0.0839167
0.0839381
0.0839617
0.0839881
0.0840175
0.0840499
0.0840839
0.0841166
0.0841437
0.084161
0.0841675
0.0835897
0.0835974
0.0836202
0.0836459
0.0836716
0.0836962
0.0837198
0.083743
0.0837664
0.0837908
0.0838161
0.083842
0.0838683
0.0838944
0.0839201
0.0839453
0.0839683
0.083987
0.0840018
0.0840143
0.0840256
0.0840367
0.0840483
0.0840611
0.0840753
0.0840913
0.084109
0.0841281
0.0841474
0.0841645
0.0841765
0.0841816
0.0839857
0.0839918
0.0840036
0.0840148
0.0840252
0.0840347
0.0840433
0.0840515
0.0840595
0.0840676
0.0840759
0.0840844
0.084093
0.0841015
0.0841098
0.0841179
0.0841253
0.0841314
0.0841361
0.0841401
0.0841437
0.0841471
0.0841508
0.0841547
0.0841591
0.0841641
0.0841695
0.0841755
0.0841817
0.0841874
0.0841917
0.0841938
)
;

boundaryField
{
    movingWall
    {
        type            fixedValue;
        value           uniform 0.0842;
    }
    fixedWalls
    {
        type            zeroGradient;
    }
    floor
    {
        type            zeroGradient;
    }
    frontAndBack
    {
        type            empty;
    }
}


// ************************************************************************* //
