/*--------------------------------*- C++ -*----------------------------------*\
| =========                 |                                                 |
| \\      /  F ield         | OpenFOAM: The Open Source CFD Toolbox           |
|  \\    /   O peration     | Version:  2212                                  |
|   \\  /    A nd           | Website:  www.openfoam.com                      |
|    \\/     M anipulation  |                                                 |
\*---------------------------------------------------------------------------*/
FoamFile
{
    version     2.0;
    format      ascii;
    arch        "LSB;label=64;scalar=64";
    class       volScalarField::Internal;
    location    "170";
    object      dGch4;
}
// * * * * * * * * * * * * * * * * * * * * * * * * * * * * * * * * * * * * * //

dimensions      [1 -3 -1 0 0 0 0];

value           nonuniform List<scalar> 
1024
(
0.0011473
0.00114757
0.00114823
0.00114933
0.00115087
0.00115272
0.00115471
0.00115668
0.00115855
0.00116035
0.00116215
0.00116394
0.00116558
0.0011667
0.00116716
0.00116683
0.00116574
0.00116415
0.0011623
0.0011603
0.00115817
0.00115595
0.00115366
0.00115132
0.001149
0.0011468
0.00114486
0.00114327
0.0011421
0.00114132
0.00114088
0.0011407
0.00114735
0.00114764
0.00114833
0.00114948
0.00115107
0.00115295
0.00115494
0.00115687
0.00115871
0.0011605
0.00116229
0.0011641
0.00116578
0.00116691
0.00116737
0.00116704
0.00116594
0.00116437
0.00116255
0.00116056
0.00115845
0.00115625
0.00115397
0.00115163
0.0011493
0.00114708
0.00114509
0.00114345
0.00114223
0.00114142
0.00114096
0.00114077
0.00114745
0.00114776
0.00114851
0.00114973
0.00115139
0.00115329
0.00115526
0.00115713
0.00115892
0.00116068
0.0011625
0.00116441
0.00116624
0.00116745
0.00116788
0.0011675
0.00116638
0.00116482
0.00116303
0.00116108
0.00115902
0.00115685
0.0011546
0.00115228
0.00114993
0.00114765
0.00114558
0.00114384
0.00114252
0.00114163
0.00114113
0.00114093
0.00114758
0.00114792
0.00114871
0.00115
0.0011517
0.0011536
0.00115551
0.0011573
0.00115901
0.00116076
0.00116268
0.00116483
0.00116698
0.00116836
0.00116877
0.00116826
0.00116706
0.00116548
0.00116373
0.00116184
0.00115983
0.00115772
0.00115552
0.00115322
0.00115086
0.00114852
0.00114633
0.00114444
0.00114298
0.00114198
0.00114142
0.00114119
0.0011477
0.00114805
0.00114887
0.00115018
0.00115187
0.00115372
0.00115553
0.00115721
0.00115886
0.00116062
0.0011627
0.00116525
0.00116794
0.00116965
0.00117003
0.00116932
0.00116794
0.00116632
0.00116458
0.00116275
0.00116081
0.00115878
0.00115663
0.00115438
0.00115202
0.00114962
0.0011473
0.00114523
0.00114359
0.00114247
0.00114182
0.00114157
0.00114777
0.00114811
0.00114891
0.00115018
0.0011518
0.00115353
0.0011552
0.00115674
0.0011583
0.00116008
0.00116241
0.00116551
0.00116897
0.00117117
0.00117155
0.00117055
0.00116894
0.00116723
0.00116551
0.00116373
0.00116187
0.0011599
0.00115783
0.00115562
0.00115328
0.00115083
0.00114838
0.00114614
0.00114432
0.00114305
0.00114233
0.00114204
0.00114772
0.00114805
0.00114879
0.00114995
0.00115142
0.00115297
0.00115443
0.0011558
0.00115722
0.00115901
0.00116162
0.00116545
0.00116988
0.00117272
0.00117306
0.00117169
0.00116981
0.00116803
0.00116635
0.00116465
0.00116287
0.00116099
0.00115898
0.00115683
0.0011545
0.00115201
0.00114946
0.00114707
0.00114508
0.00114368
0.00114289
0.00114257
0.00114752
0.00114782
0.00114848
0.00114948
0.00115072
0.00115201
0.00115321
0.00115432
0.00115555
0.00115731
0.00116028
0.00116505
0.00117064
0.00117412
0.00117426
0.00117235
0.00117019
0.00116842
0.00116687
0.00116533
0.00116369
0.00116191
0.00115997
0.00115786
0.00115554
0.00115302
0.00115039
0.00114789
0.00114579
0.00114431
0.00114346
0.00114313
0.00114712
0.00114739
0.00114794
0.00114875
0.00114971
0.00115068
0.00115154
0.00115232
0.0011533
0.00115502
0.00115848
0.00116447
0.00117139
0.00117535
0.00117492
0.00117212
0.0011696
0.00116798
0.00116675
0.00116553
0.00116413
0.00116252
0.00116068
0.00115862
0.00115631
0.00115376
0.00115109
0.00114852
0.00114638
0.00114486
0.001144
0.00114367
0.00114645
0.00114669
0.00114715
0.00114776
0.00114842
0.00114903
0.00114949
0.0011499
0.00115059
0.00115235
0.00115653
0.00116407
0.00117242
0.00117655
0.00117496
0.00117073
0.00116766
0.0011663
0.00116563
0.00116496
0.00116399
0.00116266
0.001161
0.00115902
0.00115673
0.00115417
0.00115149
0.00114893
0.0011468
0.00114531
0.00114447
0.00114415
0.00114543
0.00114566
0.00114604
0.00114648
0.00114687
0.00114711
0.00114718
0.00114722
0.00114768
0.00114963
0.00115493
0.00116437
0.00117408
0.00117785
0.00117436
0.00116807
0.00116414
0.00116313
0.00116327
0.00116341
0.00116309
0.00116221
0.00116081
0.00115898
0.00115675
0.00115423
0.00115158
0.00114909
0.00114705
0.00114563
0.00114484
0.00114454
0.00114393
0.00114416
0.00114451
0.00114484
0.00114504
0.00114502
0.00114478
0.00114453
0.00114492
0.00114745
0.00115442
0.00116604
0.00117673
0.00117923
0.00117298
0.0011641
0.00115911
0.0011585
0.00115964
0.00116082
0.00116134
0.00116106
0.00116005
0.00115844
0.00115635
0.00115392
0.00115139
0.00114905
0.00114715
0.00114585
0.00114511
0.00114483
0.00114172
0.00114196
0.00114233
0.00114266
0.00114281
0.00114269
0.00114232
0.00114204
0.00114281
0.00114671
0.00115619
0.00117008
0.00118068
0.0011804
0.00117046
0.0011588
0.00115287
0.0011528
0.00115505
0.00115736
0.00115882
0.00115923
0.00115869
0.00115739
0.0011555
0.00115324
0.00115088
0.00114873
0.00114702
0.00114585
0.0011452
0.00114494
0.00113839
0.00113861
0.00113897
0.00113934
0.00113956
0.00113957
0.0011395
0.00113997
0.00114248
0.00114946
0.00116247
0.00117775
0.0011858
0.00118057
0.00116627
0.00115233
0.00114606
0.00114678
0.0011501
0.00115343
0.00115574
0.00115681
0.00115678
0.00115586
0.00115428
0.00115232
0.00115026
0.00114837
0.00114687
0.00114584
0.00114525
0.001145
0.00113506
0.00113515
0.00113534
0.00113562
0.00113603
0.00113672
0.00113819
0.00114151
0.00114836
0.00116031
0.00117621
0.0011893
0.00119053
0.00117826
0.00116009
0.0011454
0.00113979
0.00114143
0.00114551
0.00114948
0.00115235
0.00115392
0.00115431
0.00115375
0.0011525
0.00115083
0.00114907
0.00114749
0.00114624
0.00114538
0.00114488
0.00114467
0.00113887
0.00113896
0.00113924
0.00113994
0.00114142
0.00114423
0.00114918
0.00115723
0.00116904
0.00118369
0.00119674
0.00120067
0.00119116
0.00117241
0.00115314
0.00113993
0.00113564
0.00113772
0.00114183
0.00114582
0.00114886
0.00115076
0.00115159
0.00115153
0.00115077
0.00114957
0.00114821
0.00114692
0.00114588
0.00114514
0.00114468
0.00114446
0.00115685
0.00115728
0.00115837
0.00116045
0.00116402
0.00116964
0.00117775
0.00118834
0.00120015
0.00120977
0.0012121
0.0012037
0.00118667
0.00116713
0.00115032
0.0011391
0.00113519
0.00113664
0.00113989
0.0011432
0.00114586
0.00114764
0.0011485
0.00114853
0.00114793
0.00114698
0.00114598
0.0011451
0.0011444
0.00114388
0.00114353
0.00114335
0.00117887
0.00117965
0.00118148
0.0011847
0.00118966
0.00119657
0.00120513
0.00121412
0.0012211
0.0012228
0.00121714
0.0012049
0.00118882
0.00117158
0.00115567
0.0011436
0.00113796
0.0011379
0.00114001
0.00114244
0.00114442
0.00114571
0.00114638
0.00114657
0.00114642
0.00114602
0.00114542
0.00114466
0.00114387
0.00114321
0.0011428
0.00114263
0.00119464
0.00119556
0.00119771
0.00120143
0.00120694
0.0012141
0.0012221
0.00122925
0.00123332
0.00123254
0.00122654
0.00121603
0.001202
0.00118561
0.00116858
0.00115335
0.00114355
0.00114037
0.00114078
0.00114235
0.00114392
0.00114502
0.00114546
0.00114519
0.00114426
0.0011429
0.00114153
0.00114067
0.00114066
0.00114145
0.00114247
0.00114312
0.00120367
0.00120466
0.00120703
0.00121117
0.00121725
0.0012249
0.00123306
0.00124006
0.00124429
0.00124481
0.00124149
0.00123437
0.00122332
0.00120839
0.00119044
0.00117143
0.00115556
0.00114644
0.00114248
0.00114087
0.00113999
0.00113914
0.00113821
0.00113756
0.00113783
0.00113974
0.00114385
0.00115016
0.00115778
0.00116501
0.00117014
0.00117252
0.00120776
0.00120881
0.00121134
0.00121578
0.0012223
0.00123049
0.00123933
0.00124738
0.00125348
0.00125705
0.00125791
0.00125556
0.00124912
0.00123772
0.00122124
0.00120078
0.00118043
0.00116567
0.0011571
0.00115266
0.00115117
0.00115227
0.00115625
0.00116352
0.00117427
0.00118809
0.00120383
0.00121955
0.00123308
0.00124277
0.0012481
0.00125003
0.00120835
0.00120939
0.00121186
0.00121619
0.00122259
0.00123084
0.00124019
0.00124954
0.00125796
0.00126504
0.00127055
0.00127383
0.00127353
0.00126799
0.00125611
0.00123815
0.00121789
0.00120226
0.00119395
0.00119222
0.00119679
0.00120748
0.00122379
0.00124448
0.00126751
0.00129032
0.00131034
0.00132545
0.00133455
0.00133821
0.00133849
0.00133784
0.00120704
0.001208
0.00121027
0.00121421
0.00122005
0.00122774
0.00123684
0.00124666
0.00125662
0.00126651
0.00127619
0.00128501
0.00129141
0.00129315
0.00128813
0.00127558
0.00125864
0.00124545
0.00124073
0.00124456
0.00125689
0.00127671
0.00130175
0.00132867
0.00135392
0.00137462
0.00138933
0.00139786
0.00140097
0.00140028
0.00139793
0.00139608
0.00120538
0.00120618
0.00120809
0.00121145
0.00121651
0.00122333
0.00123172
0.00124131
0.00125186
0.00126335
0.00127589
0.00128909
0.0013015
0.00131052
0.00131322
0.00130759
0.00129522
0.00128439
0.00128191
0.0012887
0.0013044
0.00132672
0.00135192
0.00137586
0.00139555
0.00140974
0.00141897
0.00142421
0.00142638
0.00142629
0.00142491
0.00142358
0.00120543
0.00120588
0.00120717
0.00120975
0.00121393
0.0012199
0.00122761
0.00123695
0.00124781
0.00126028
0.0012745
0.00129034
0.0013068
0.00132156
0.00133125
0.00133277
0.00132564
0.00131675
0.00131407
0.00131983
0.00133394
0.00135358
0.00137455
0.00139315
0.00140763
0.00141816
0.00142565
0.00143078
0.00143389
0.00143522
0.0014352
0.00143464
0.00120977
0.00120961
0.00120996
0.00121152
0.00121485
0.00122025
0.00122778
0.00123732
0.00124881
0.0012622
0.0012775
0.00129456
0.00131274
0.00133049
0.00134487
0.00135229
0.00135043
0.0013439
0.0013404
0.00134317
0.00135306
0.00136788
0.00138394
0.00139828
0.00140988
0.00141912
0.00142657
0.00143244
0.00143663
0.00143905
0.00143992
0.00143985
0.00122095
0.00121999
0.00121922
0.00121979
0.00122259
0.00122799
0.00123596
0.00124626
0.00125859
0.00127271
0.00128846
0.00130559
0.00132363
0.00134167
0.00135772
0.00136857
0.00137091
0.00136714
0.00136356
0.0013637
0.00136922
0.0013791
0.00139074
0.00140179
0.00141143
0.0014198
0.00142716
0.00143347
0.0014384
0.00144161
0.0014431
0.00144334
0.00124082
0.0012391
0.00123758
0.00123782
0.00124081
0.00124683
0.00125559
0.00126658
0.00127929
0.00129335
0.00130846
0.00132438
0.00134078
0.00135716
0.00137237
0.00138398
0.00138868
0.00138732
0.00138447
0.00138326
0.00138561
0.0013915
0.00139943
0.00140765
0.00141536
0.00142248
0.0014291
0.00143514
0.00144022
0.00144384
0.00144575
0.00144623
0.00127028
0.0012683
0.00126719
0.00126831
0.00127226
0.00127899
0.00128803
0.00129875
0.00131062
0.00132325
0.00133638
0.00134981
0.00136335
0.00137676
0.00138945
0.00139979
0.00140503
0.00140519
0.00140334
0.00140188
0.00140249
0.00140563
0.00141065
0.00141634
0.00142202
0.00142753
0.00143286
0.00143797
0.00144253
0.00144606
0.00144813
0.00144878
0.00130973
0.00130854
0.00130938
0.00131219
0.00131692
0.00132345
0.00133139
0.00134032
0.00134983
0.00135964
0.00136958
0.00137954
0.0013894
0.00139909
0.00140833
0.00141616
0.00142058
0.00142133
0.00142033
0.00141917
0.00141909
0.0014206
0.00142349
0.00142706
0.0014308
0.00143455
0.0014383
0.00144201
0.00144552
0.00144845
0.00145036
0.00145107
0.00135992
0.00136073
0.00136354
0.00136693
0.00137094
0.00137567
0.00138102
0.00138679
0.00139277
0.00139883
0.00140486
0.00141083
0.00141668
0.00142239
0.00142785
0.00143257
0.00143539
0.00143607
0.00143562
0.00143494
0.00143474
0.00143537
0.00143681
0.00143869
0.00144074
0.00144284
0.00144496
0.00144711
0.00144924
0.00145114
0.00145252
0.00145312
0.00142218
0.00142302
0.00142461
0.00142613
0.0014277
0.00142942
0.00143128
0.00143325
0.00143526
0.00143728
0.00143927
0.00144122
0.00144313
0.00144499
0.00144676
0.00144831
0.00144926
0.00144951
0.00144939
0.00144917
0.00144909
0.00144926
0.00144968
0.00145026
0.0014509
0.00145155
0.00145222
0.0014529
0.00145359
0.00145423
0.00145474
0.00145499
)
;


// ************************************************************************* //
