/*--------------------------------*- C++ -*----------------------------------*\
| =========                 |                                                 |
| \\      /  F ield         | OpenFOAM: The Open Source CFD Toolbox           |
|  \\    /   O peration     | Version:  2212                                  |
|   \\  /    A nd           | Website:  www.openfoam.com                      |
|    \\/     M anipulation  |                                                 |
\*---------------------------------------------------------------------------*/
FoamFile
{
    version     2.0;
    format      ascii;
    arch        "LSB;label=64;scalar=64";
    class       volScalarField;
    location    "170";
    object      Gco2;
}
// * * * * * * * * * * * * * * * * * * * * * * * * * * * * * * * * * * * * * //

dimensions      [1 -3 0 0 0 0 0];

internalField   nonuniform List<scalar> 
1024
(
0.0391006
0.0390777
0.0390238
0.0389329
0.0388062
0.0386533
0.0384893
0.0383276
0.0381735
0.038025
0.0378769
0.0377291
0.0375931
0.0375004
0.0374618
0.0374879
0.0375775
0.0377078
0.037859
0.0380241
0.0381994
0.0383827
0.0385726
0.0387666
0.0389598
0.0391429
0.0393051
0.0394373
0.0395354
0.0396003
0.039637
0.0396522
0.0390964
0.0390724
0.0390156
0.0389206
0.0387899
0.0386347
0.038471
0.0383115
0.0381601
0.0380134
0.0378656
0.037716
0.0375767
0.0374826
0.0374444
0.0374713
0.0375608
0.0376899
0.0378393
0.0380026
0.0381762
0.0383581
0.038547
0.0387408
0.0389348
0.0391202
0.039286
0.0394225
0.0395245
0.0395923
0.0396307
0.0396466
0.0390881
0.0390621
0.0390008
0.0388997
0.0387636
0.0386064
0.0384449
0.0382903
0.0381436
0.037999
0.037849
0.0376911
0.0375394
0.0374394
0.0374026
0.0374338
0.0375254
0.0376534
0.0378
0.0379597
0.0381297
0.0383085
0.038495
0.0386876
0.0388828
0.0390725
0.0392454
0.0393905
0.0395005
0.0395743
0.0396162
0.0396335
0.0390772
0.0390494
0.038984
0.0388776
0.0387378
0.0385811
0.0384247
0.0382772
0.0381362
0.0379925
0.037835
0.0376579
0.0374797
0.037365
0.0373305
0.0373719
0.0374707
0.0375996
0.0377433
0.0378984
0.0380632
0.038237
0.0384194
0.0386097
0.0388055
0.0390003
0.039183
0.0393404
0.0394624
0.0395452
0.0395922
0.0396114
0.0390671
0.0390383
0.038971
0.038863
0.0387238
0.0385717
0.0384234
0.038285
0.0381501
0.0380055
0.0378343
0.037625
0.0374023
0.0372603
0.0372278
0.0372864
0.0373988
0.037532
0.0376739
0.0378242
0.037983
0.0381507
0.0383276
0.0385141
0.0387094
0.0389091
0.0391025
0.0392745
0.039411
0.039505
0.0395586
0.0395802
0.0390619
0.0390335
0.0389677
0.0388632
0.0387304
0.0385879
0.0384513
0.0383243
0.0381971
0.0380509
0.0378605
0.0376055
0.0373197
0.0371361
0.0371044
0.0371867
0.0373186
0.0374587
0.0375995
0.0377449
0.0378974
0.0380586
0.0382294
0.0384113
0.0386053
0.0388088
0.0390122
0.0391987
0.0393504
0.0394564
0.039517
0.039541
0.0390657
0.0390388
0.0389779
0.0388823
0.0387621
0.0386349
0.0385147
0.0384033
0.0382872
0.0381409
0.037927
0.0376121
0.0372457
0.03701
0.0369812
0.0370947
0.0372491
0.0373951
0.0375325
0.037671
0.0378161
0.0379703
0.0381353
0.0383128
0.0385051
0.0387114
0.0389231
0.0391222
0.0392872
0.0394038
0.0394703
0.0394964
0.0390826
0.0390578
0.0390042
0.0389219
0.0388202
0.0387142
0.0386163
0.0385261
0.0384263
0.0382826
0.0380397
0.0376474
0.0371846
0.0368959
0.0368835
0.0370423
0.0372212
0.0373664
0.0374923
0.0376175
0.037751
0.0378963
0.0380549
0.0382284
0.0384195
0.0386281
0.0388461
0.0390542
0.0392285
0.0393522
0.0394227
0.03945
0.0391164
0.039094
0.0390487
0.0389825
0.0389035
0.0388244
0.0387549
0.0386918
0.0386134
0.0384727
0.0381899
0.0376973
0.0371245
0.0367945
0.0368294
0.0370623
0.0372723
0.0374063
0.0375057
0.0376044
0.037717
0.037848
0.0379979
0.0381668
0.0383569
0.0385673
0.0387891
0.0390017
0.03918
0.0393063
0.0393779
0.0394054
0.0391721
0.0391517
0.0391143
0.0390646
0.0390103
0.0389617
0.0389248
0.038893
0.0388377
0.038695
0.0383527
0.0377319
0.0370406
0.036695
0.036825
0.0371772
0.0374351
0.0375482
0.0376015
0.0376543
0.0377312
0.037838
0.0379735
0.0381353
0.0383232
0.038534
0.0387564
0.0389685
0.0391449
0.0392689
0.0393388
0.0393657
0.0392566
0.0392374
0.0392061
0.0391704
0.0391389
0.0391198
0.0391156
0.0391147
0.039079
0.0389208
0.0384871
0.0377092
0.0369037
0.0365864
0.0368725
0.0373965
0.0377266
0.0378127
0.0378001
0.0377856
0.0378085
0.037878
0.0379905
0.0381401
0.0383227
0.0385306
0.0387494
0.0389555
0.0391248
0.0392424
0.0393082
0.0393337
0.0393807
0.0393617
0.0393331
0.0393058
0.0392898
0.0392926
0.0393139
0.0393366
0.0393074
0.0391027
0.0385316
0.0375731
0.0366844
0.0364699
0.0369837
0.0377232
0.0381427
0.0381968
0.0381025
0.0380025
0.0379556
0.037975
0.0380552
0.0381857
0.0383573
0.0385568
0.0387657
0.0389598
0.0391169
0.0392251
0.0392858
0.0393097
0.0395643
0.0395442
0.0395139
0.0394865
0.0394744
0.0394854
0.0395171
0.0395427
0.0394827
0.0391656
0.038388
0.0372404
0.0363562
0.0363692
0.0371884
0.0381584
0.0386579
0.0386684
0.0384832
0.03829
0.0381659
0.0381282
0.0381693
0.0382744
0.038429
0.0386145
0.0388085
0.0389864
0.0391282
0.0392249
0.0392792
0.039301
0.0398415
0.0398233
0.0397932
0.0397628
0.0397443
0.0397443
0.0397514
0.0397151
0.0395126
0.0389417
0.0378713
0.0366046
0.0359278
0.0363503
0.0375316
0.0386912
0.0392198
0.0391662
0.0388923
0.0386152
0.0384214
0.0383293
0.038329
0.0384022
0.0385304
0.0386914
0.0388613
0.0390169
0.0391409
0.0392261
0.0392751
0.0392958
0.0401203
0.0401127
0.040097
0.0400737
0.0400407
0.0399843
0.0398638
0.0395919
0.03903
0.0380472
0.0367324
0.0356425
0.0355279
0.0365362
0.0380409
0.0392641
0.0397371
0.0396076
0.0392708
0.0389412
0.0387016
0.038569
0.0385337
0.0385771
0.0386791
0.0388152
0.0389599
0.0390909
0.0391939
0.0392647
0.0393062
0.0393243
0.0398016
0.0397945
0.0397709
0.0397133
0.0395916
0.0393596
0.0389522
0.0382886
0.0373147
0.0361046
0.0350224
0.0346889
0.0354685
0.0370187
0.0386175
0.0397179
0.0400797
0.0399124
0.0395735
0.0392422
0.0389889
0.0388297
0.0387586
0.0387621
0.0388232
0.0389207
0.0390325
0.0391383
0.0392244
0.0392861
0.0393242
0.0393418
0.0382951
0.0382592
0.0381691
0.0379968
0.0377023
0.037239
0.0365706
0.0356982
0.0347256
0.0339317
0.0337387
0.0344329
0.0358426
0.0374613
0.0388557
0.0397882
0.0401157
0.0399989
0.0397312
0.0394565
0.0392349
0.0390864
0.0390136
0.0390089
0.0390576
0.0391351
0.0392174
0.0392901
0.0393479
0.0393911
0.0394202
0.0394347
0.0364541
0.0363895
0.0362381
0.0359723
0.0355635
0.0349954
0.0342932
0.0335562
0.0329864
0.0328517
0.0333241
0.0343388
0.0356708
0.0370969
0.0384143
0.0394152
0.0398854
0.0398924
0.0397184
0.0395171
0.039353
0.0392447
0.0391884
0.0391718
0.0391834
0.0392155
0.0392647
0.039327
0.0393924
0.0394469
0.0394812
0.0394956
0.0351406
0.0350644
0.0348869
0.0345809
0.0341287
0.0335417
0.0328873
0.0323044
0.0319759
0.032047
0.0325481
0.0334199
0.0345814
0.0359379
0.0373474
0.0386087
0.0394214
0.0396862
0.0396531
0.0395228
0.0393916
0.0392994
0.0392619
0.0392834
0.0393594
0.0394712
0.0395845
0.0396572
0.0396589
0.0395952
0.0395109
0.0394575
0.0343901
0.0343084
0.0341129
0.0337724
0.0332737
0.0326461
0.0319782
0.0314063
0.0310641
0.0310276
0.0313072
0.0318997
0.0328167
0.0340529
0.0355385
0.0371132
0.0384279
0.0391837
0.0395114
0.0396438
0.0397153
0.0397855
0.0398619
0.0399163
0.039896
0.0397403
0.0394025
0.0388829
0.0382541
0.0376565
0.0372318
0.037035
0.0340489
0.0339628
0.0337539
0.033388
0.032852
0.0321781
0.0314524
0.0307918
0.0302936
0.0300042
0.0299397
0.0301385
0.0306756
0.0316217
0.0329881
0.034684
0.0363706
0.0375949
0.0383057
0.0386734
0.0387985
0.038709
0.0383823
0.0377831
0.0368959
0.0357542
0.034451
0.0331484
0.0320256
0.0312213
0.0307779
0.030617
0.0339976
0.0339124
0.0337079
0.0333507
0.032823
0.0321422
0.0313714
0.0306014
0.0299091
0.0293291
0.0288791
0.0286137
0.0286451
0.0291083
0.0300955
0.0315868
0.0332682
0.0345667
0.0352578
0.0354045
0.0350291
0.0341464
0.0327969
0.0310839
0.0291749
0.0272821
0.0256195
0.0243627
0.0236044
0.0232983
0.0232732
0.0233266
0.034104
0.0340243
0.0338366
0.0335112
0.0330284
0.0323924
0.0316398
0.0308283
0.0300061
0.0291913
0.0283954
0.0276719
0.0271497
0.027013
0.0274346
0.0284793
0.0298878
0.0309859
0.0313806
0.0310673
0.0300479
0.0284059
0.0263285
0.0240936
0.0219952
0.0202733
0.0190482
0.0183375
0.0180769
0.0181338
0.0183286
0.0184816
0.034238
0.0341722
0.0340142
0.0337363
0.0333171
0.0327518
0.0320565
0.0312614
0.0303889
0.0294389
0.0284048
0.0273178
0.0262992
0.0255609
0.0253453
0.0258185
0.0268498
0.0277522
0.0279614
0.0274015
0.0261007
0.0242487
0.0221553
0.0201643
0.0185258
0.0173442
0.016576
0.0161399
0.0159593
0.015967
0.0160821
0.0161926
0.0342302
0.0341934
0.0340864
0.0338734
0.0335261
0.0330311
0.0323905
0.0316163
0.0307161
0.029684
0.0285092
0.0272026
0.0258471
0.0246344
0.0238414
0.0237233
0.0243207
0.0250631
0.0252882
0.0248129
0.0236428
0.0220119
0.0202684
0.0187207
0.0175154
0.0166399
0.0160176
0.0155919
0.0153339
0.0152235
0.0152256
0.0152717
0.0338683
0.0338811
0.0338522
0.0337225
0.0334457
0.0329972
0.0323727
0.0315804
0.0306286
0.02952
0.0282554
0.0268471
0.0253482
0.0238864
0.0227042
0.0220981
0.022259
0.0228055
0.0230992
0.0228715
0.0220513
0.02082
0.0194845
0.0182918
0.017327
0.0165591
0.0159404
0.0154537
0.0151068
0.0149058
0.014834
0.0148393
0.0329408
0.0330196
0.0330829
0.0330344
0.032802
0.0323536
0.0316918
0.0308386
0.0298177
0.0286486
0.0273472
0.0259322
0.0244436
0.0229567
0.0216346
0.0207436
0.0205561
0.0208739
0.021174
0.0211647
0.0207077
0.0198864
0.018919
0.0180002
0.0171985
0.0165031
0.0158925
0.0153689
0.0149601
0.0146936
0.0145706
0.0145505
0.0312951
0.0314365
0.0315612
0.0315407
0.0312919
0.0307922
0.0300662
0.029157
0.028105
0.0269424
0.0256934
0.0243778
0.0230239
0.021673
0.0204196
0.0194637
0.0190799
0.0191975
0.0194366
0.019539
0.0193451
0.0188565
0.018197
0.0175138
0.0168732
0.0162815
0.0157315
0.0152303
0.0148095
0.0145093
0.014351
0.0143113
0.0288576
0.029021
0.0291112
0.0290173
0.0286892
0.0281311
0.0273834
0.0264969
0.0255153
0.024471
0.0233861
0.0222761
0.0211579
0.0200516
0.0190054
0.018153
0.0177236
0.0177141
0.0178694
0.0179926
0.0179432
0.0176827
0.017266
0.0167929
0.0163205
0.0158631
0.0154201
0.0149968
0.0146183
0.0143257
0.0141535
0.0140998
0.0255958
0.0256931
0.0256229
0.0253891
0.0249963
0.0244563
0.0237987
0.0230609
0.0222749
0.0214638
0.0206425
0.0198201
0.019005
0.0182053
0.0174428
0.0167982
0.0164352
0.016375
0.0164597
0.0165569
0.0165649
0.0164402
0.0161999
0.0159035
0.0155923
0.0152806
0.0149699
0.014662
0.0143707
0.0141275
0.013969
0.0139105
0.0214455
0.0213783
0.0211452
0.0208645
0.020532
0.0201403
0.0196978
0.0192211
0.0187264
0.018226
0.0177273
0.0172346
0.0167512
0.0162799
0.0158291
0.0154402
0.0152083
0.0151534
0.0151915
0.0152488
0.0152661
0.0152139
0.0150947
0.0149381
0.0147679
0.0145938
0.0144176
0.0142389
0.0140624
0.0139042
0.01379
0.0137407
0.0162979
0.0162285
0.0160968
0.0159706
0.0158407
0.0156988
0.0155447
0.0153822
0.0152158
0.0150491
0.0148845
0.0147229
0.0145653
0.0144122
0.0142656
0.014138
0.0140601
0.0140394
0.0140498
0.0140681
0.0140754
0.0140614
0.0140261
0.0139782
0.0139253
0.0138707
0.0138153
0.0137588
0.0137018
0.0136484
0.0136065
0.0135858
)
;

boundaryField
{
    movingWall
    {
        type            fixedValue;
        value           uniform 0.0135;
    }
    fixedWalls
    {
        type            zeroGradient;
    }
    floor
    {
        type            zeroGradient;
    }
    frontAndBack
    {
        type            empty;
    }
}


// ************************************************************************* //
