/*--------------------------------*- C++ -*----------------------------------*\
| =========                 |                                                 |
| \\      /  F ield         | OpenFOAM: The Open Source CFD Toolbox           |
|  \\    /   O peration     | Version:  2212                                  |
|   \\  /    A nd           | Website:  www.openfoam.com                      |
|    \\/     M anipulation  |                                                 |
\*---------------------------------------------------------------------------*/
FoamFile
{
    version     2.0;
    format      ascii;
    arch        "LSB;label=64;scalar=64";
    class       volScalarField;
    location    "170";
    object      T;
}
// * * * * * * * * * * * * * * * * * * * * * * * * * * * * * * * * * * * * * //

dimensions      [0 0 0 1 0 0 0];

internalField   nonuniform List<scalar> 
1024
(
309.944
309.941
309.935
309.925
309.913
309.902
309.89
309.878
309.865
309.85
309.83
309.812
309.805
309.825
309.845
309.866
309.884
309.896
309.906
309.914
309.921
309.927
309.933
309.938
309.943
309.948
309.953
309.958
309.962
309.966
309.968
309.969
309.829
309.819
309.797
309.765
309.729
309.693
309.658
309.621
309.58
309.533
309.478
309.432
309.416
309.466
309.522
309.583
309.637
309.675
309.705
309.73
309.752
309.771
309.789
309.805
309.821
309.836
309.851
309.866
309.881
309.893
309.9
309.903
309.709
309.693
309.652
309.595
309.532
309.471
309.412
309.351
309.286
309.213
309.144
309.089
309.07
309.129
309.201
309.285
309.367
309.432
309.482
309.525
309.562
309.595
309.626
309.655
309.682
309.709
309.735
309.763
309.79
309.812
309.825
309.83
309.594
309.571
309.511
309.428
309.34
309.256
309.177
309.1
309.024
308.95
308.892
308.849
308.835
308.878
308.938
309.017
309.104
309.184
309.25
309.308
309.359
309.406
309.449
309.491
309.53
309.568
309.608
309.649
309.691
309.725
309.746
309.753
309.491
309.461
309.384
309.279
309.171
309.071
308.983
308.905
308.837
308.784
308.749
308.726
308.718
308.738
308.771
308.823
308.891
308.964
309.033
309.097
309.157
309.213
309.267
309.319
309.37
309.42
309.472
309.528
309.585
309.634
309.664
309.675
309.4
309.367
309.279
309.159
309.038
308.932
308.846
308.779
308.732
308.705
308.692
308.683
308.677
308.682
308.693
308.716
308.753
308.802
308.858
308.917
308.976
309.035
309.094
309.153
309.212
309.273
309.337
309.406
309.478
309.542
309.584
309.598
309.321
309.289
309.198
309.07
308.944
308.84
308.764
308.715
308.689
308.681
308.679
308.676
308.67
308.668
308.669
308.673
308.685
308.706
308.741
308.784
308.833
308.887
308.944
309.005
309.069
309.136
309.21
309.291
309.378
309.455
309.507
309.525
309.253
309.225
309.137
309.01
308.884
308.786
308.723
308.69
308.68
308.682
308.685
308.68
308.673
308.67
308.667
308.664
308.663
308.666
308.679
308.704
308.737
308.779
308.829
308.886
308.949
309.02
309.1
309.191
309.289
309.378
309.437
309.457
309.195
309.172
309.094
308.973
308.851
308.759
308.706
308.685
308.684
308.692
308.695
308.687
308.678
308.675
308.673
308.668
308.661
308.656
308.656
308.665
308.683
308.711
308.749
308.798
308.857
308.927
309.011
309.108
309.215
309.312
309.375
309.396
309.145
309.128
309.065
308.955
308.839
308.752
308.704
308.689
308.694
308.707
308.707
308.694
308.684
308.68
308.679
308.675
308.668
308.659
308.652
308.651
308.657
308.673
308.699
308.738
308.791
308.858
308.942
309.044
309.155
309.256
309.32
309.34
309.1
309.089
309.043
308.955
308.851
308.762
308.713
308.699
308.709
308.724
308.718
308.701
308.689
308.685
308.685
308.682
308.675
308.666
308.657
308.65
308.648
308.654
308.671
308.7
308.746
308.809
308.893
308.996
309.11
309.211
309.272
309.29
309.06
309.054
309.022
308.959
308.876
308.798
308.746
308.726
308.734
308.742
308.729
308.707
308.693
308.689
308.691
308.69
308.683
308.674
308.663
308.653
308.647
308.646
308.655
308.678
308.717
308.776
308.858
308.962
309.076
309.173
309.229
309.244
309.023
309.02
309.002
308.96
308.902
308.843
308.798
308.776
308.773
308.762
308.736
308.71
308.695
308.694
308.697
308.697
308.69
308.68
308.669
308.657
308.647
308.643
308.647
308.664
308.699
308.755
308.836
308.94
309.05
309.141
309.19
309.202
308.987
308.986
308.978
308.955
308.919
308.88
308.847
308.826
308.806
308.773
308.735
308.706
308.696
308.699
308.704
308.703
308.695
308.684
308.672
308.659
308.648
308.641
308.643
308.657
308.689
308.743
308.824
308.926
309.032
309.114
309.154
309.164
308.945
308.947
308.945
308.936
308.918
308.895
308.871
308.841
308.798
308.752
308.716
308.697
308.696
308.705
308.712
308.709
308.696
308.684
308.67
308.656
308.645
308.639
308.64
308.654
308.685
308.741
308.823
308.924
309.022
309.091
309.122
309.13
308.888
308.89
308.892
308.89
308.88
308.86
308.822
308.775
308.733
308.702
308.687
308.689
308.702
308.716
308.721
308.713
308.693
308.675
308.661
308.65
308.641
308.636
308.64
308.657
308.693
308.757
308.842
308.935
309.017
309.07
309.094
309.099
308.8
308.799
308.794
308.783
308.761
308.73
308.701
308.678
308.666
308.667
308.679
308.698
308.717
308.73
308.729
308.716
308.692
308.667
308.654
308.646
308.641
308.643
308.656
308.684
308.732
308.798
308.876
308.953
309.015
309.054
309.07
309.074
308.702
308.698
308.69
308.678
308.664
308.651
308.643
308.644
308.654
308.675
308.697
308.716
308.729
308.737
308.737
308.728
308.707
308.681
308.666
308.662
308.666
308.678
308.701
308.738
308.788
308.848
308.913
308.971
309.016
309.042
309.052
309.054
308.647
308.645
308.64
308.633
308.628
308.628
308.636
308.65
308.668
308.686
308.703
308.718
308.731
308.742
308.749
308.748
308.738
308.72
308.708
308.708
308.718
308.737
308.765
308.802
308.847
308.896
308.945
308.985
309.013
309.028
309.031
309.031
308.619
308.618
308.617
308.616
308.619
308.626
308.638
308.652
308.666
308.68
308.695
308.709
308.724
308.74
308.755
308.766
308.771
308.768
308.764
308.768
308.78
308.801
308.828
308.859
308.894
308.928
308.958
308.978
308.986
308.98
308.967
308.956
308.604
308.604
308.604
308.605
308.609
308.617
308.628
308.639
308.65
308.661
308.673
308.687
308.703
308.721
308.742
308.764
308.785
308.799
308.806
308.812
308.824
308.841
308.861
308.88
308.896
308.906
308.905
308.889
308.852
308.805
308.773
308.763
308.597
308.596
308.596
308.595
308.596
308.599
308.605
308.612
308.622
308.631
308.641
308.652
308.667
308.685
308.707
308.733
308.763
308.788
308.803
308.81
308.817
308.821
308.82
308.811
308.791
308.756
308.705
308.652
308.618
308.608
308.607
308.608
308.592
308.591
308.59
308.588
308.586
308.585
308.586
308.589
308.592
308.597
308.605
308.614
308.626
308.641
308.66
308.684
308.713
308.74
308.756
308.762
308.758
308.744
308.718
308.682
308.637
308.595
308.573
308.566
308.562
308.562
308.562
308.563
308.589
308.588
308.586
308.583
308.579
308.576
308.574
308.572
308.571
308.571
308.574
308.58
308.59
308.602
308.617
308.636
308.66
308.683
308.698
308.701
308.69
308.667
308.634
308.598
308.569
308.559
308.557
308.557
308.557
308.557
308.557
308.556
308.587
308.586
308.584
308.58
308.575
308.57
308.565
308.561
308.558
308.555
308.554
308.556
308.563
308.573
308.585
308.599
308.617
308.635
308.649
308.653
308.642
308.62
308.591
308.567
308.556
308.555
308.556
308.557
308.558
308.558
308.558
308.557
308.586
308.585
308.583
308.579
308.573
308.567
308.561
308.555
308.551
308.547
308.544
308.544
308.547
308.555
308.564
308.575
308.588
308.602
308.614
308.62
308.614
308.596
308.575
308.56
308.555
308.555
308.557
308.558
308.559
308.559
308.559
308.559
308.585
308.584
308.582
308.578
308.572
308.565
308.559
308.553
308.548
308.544
308.541
308.541
308.542
308.547
308.553
308.561
308.571
308.58
308.589
308.597
308.596
308.585
308.57
308.561
308.558
308.558
308.558
308.559
308.56
308.56
308.56
308.56
308.585
308.584
308.581
308.577
308.572
308.565
308.559
308.554
308.549
308.546
308.543
308.543
308.543
308.546
308.551
308.556
308.562
308.568
308.574
308.581
308.582
308.577
308.57
308.565
308.562
308.56
308.56
308.56
308.56
308.561
308.561
308.561
308.584
308.583
308.581
308.577
308.572
308.567
308.562
308.558
308.554
308.551
308.549
308.548
308.548
308.55
308.552
308.556
308.559
308.563
308.566
308.57
308.572
308.571
308.569
308.566
308.564
308.563
308.562
308.561
308.561
308.561
308.561
308.561
308.585
308.584
308.582
308.579
308.575
308.571
308.567
308.564
308.561
308.558
308.557
308.555
308.554
308.555
308.555
308.557
308.559
308.561
308.563
308.565
308.567
308.567
308.566
308.565
308.564
308.564
308.563
308.562
308.562
308.562
308.562
308.562
308.585
308.584
308.583
308.581
308.578
308.576
308.573
308.571
308.568
308.566
308.563
308.561
308.56
308.559
308.558
308.559
308.56
308.561
308.562
308.563
308.564
308.565
308.565
308.565
308.564
308.564
308.564
308.563
308.563
308.562
308.562
308.562
308.585
308.585
308.584
308.583
308.582
308.58
308.578
308.575
308.573
308.57
308.568
308.565
308.563
308.561
308.56
308.56
308.56
308.561
308.562
308.563
308.563
308.564
308.564
308.564
308.564
308.564
308.564
308.563
308.563
308.563
308.562
308.562
)
;

boundaryField
{
    movingWall
    {
        type            zeroGradient;
    }
    fixedWalls
    {
        type            zeroGradient;
    }
    floor
    {
        type            fixedValue;
        value           uniform 310;
    }
    frontAndBack
    {
        type            empty;
    }
}


// ************************************************************************* //
