/*--------------------------------*- C++ -*----------------------------------*\
| =========                 |                                                 |
| \\      /  F ield         | OpenFOAM: The Open Source CFD Toolbox           |
|  \\    /   O peration     | Version:  2212                                  |
|   \\  /    A nd           | Website:  www.openfoam.com                      |
|    \\/     M anipulation  |                                                 |
\*---------------------------------------------------------------------------*/
FoamFile
{
    version     2.0;
    format      ascii;
    arch        "LSB;label=64;scalar=64";
    class       volScalarField;
    location    "170";
    object      Xch;
}
// * * * * * * * * * * * * * * * * * * * * * * * * * * * * * * * * * * * * * //

dimensions      [1 -3 0 0 0 0 0];

internalField   nonuniform List<scalar> 
1024
(
0.0202304
0.0202307
0.0202313
0.0202323
0.0202337
0.0202354
0.0202372
0.020239
0.0202407
0.0202424
0.020244
0.0202456
0.0202471
0.0202482
0.0202486
0.0202484
0.0202474
0.020246
0.0202443
0.0202425
0.0202406
0.0202386
0.0202365
0.0202343
0.0202322
0.0202302
0.0202284
0.0202269
0.0202258
0.0202251
0.0202247
0.0202245
0.0202305
0.0202307
0.0202314
0.0202324
0.0202339
0.0202356
0.0202374
0.0202392
0.0202409
0.0202425
0.0202441
0.0202458
0.0202473
0.0202484
0.0202488
0.0202485
0.0202476
0.0202462
0.0202446
0.0202428
0.0202408
0.0202388
0.0202367
0.0202346
0.0202325
0.0202304
0.0202286
0.0202271
0.0202259
0.0202252
0.0202247
0.0202246
0.0202306
0.0202309
0.0202315
0.0202327
0.0202342
0.0202359
0.0202377
0.0202394
0.020241
0.0202426
0.0202443
0.020246
0.0202477
0.0202488
0.0202493
0.020249
0.020248
0.0202466
0.020245
0.0202432
0.0202414
0.0202394
0.0202373
0.0202352
0.020233
0.0202309
0.020229
0.0202274
0.0202262
0.0202254
0.0202249
0.0202247
0.0202307
0.020231
0.0202317
0.0202329
0.0202345
0.0202362
0.0202379
0.0202396
0.0202411
0.0202427
0.0202444
0.0202464
0.0202484
0.0202496
0.0202501
0.0202496
0.0202486
0.0202472
0.0202456
0.0202439
0.0202421
0.0202402
0.0202382
0.0202361
0.0202339
0.0202317
0.0202297
0.020228
0.0202266
0.0202257
0.0202252
0.020225
0.0202308
0.0202311
0.0202319
0.0202331
0.0202346
0.0202363
0.0202379
0.0202395
0.0202409
0.0202425
0.0202444
0.0202467
0.0202492
0.0202508
0.0202512
0.0202506
0.0202494
0.0202479
0.0202464
0.0202447
0.020243
0.0202411
0.0202392
0.0202371
0.020235
0.0202327
0.0202306
0.0202287
0.0202272
0.0202261
0.0202255
0.0202253
0.0202309
0.0202312
0.0202319
0.0202331
0.0202345
0.0202361
0.0202376
0.020239
0.0202404
0.020242
0.0202441
0.0202469
0.0202501
0.0202521
0.0202525
0.0202517
0.0202502
0.0202487
0.0202472
0.0202456
0.0202439
0.0202422
0.0202403
0.0202383
0.0202361
0.0202339
0.0202316
0.0202295
0.0202279
0.0202267
0.020226
0.0202257
0.0202308
0.0202311
0.0202318
0.0202329
0.0202342
0.0202356
0.0202369
0.0202381
0.0202394
0.020241
0.0202433
0.0202468
0.0202509
0.0202535
0.0202538
0.0202526
0.020251
0.0202494
0.0202479
0.0202464
0.0202448
0.0202431
0.0202413
0.0202394
0.0202372
0.0202349
0.0202326
0.0202304
0.0202286
0.0202273
0.0202265
0.0202262
0.0202306
0.0202309
0.0202315
0.0202324
0.0202335
0.0202347
0.0202358
0.0202368
0.0202378
0.0202394
0.0202421
0.0202464
0.0202515
0.0202547
0.0202549
0.0202532
0.0202513
0.0202497
0.0202484
0.020247
0.0202456
0.020244
0.0202422
0.0202403
0.0202382
0.0202359
0.0202335
0.0202311
0.0202292
0.0202278
0.0202271
0.0202268
0.0202303
0.0202305
0.020231
0.0202317
0.0202326
0.0202335
0.0202342
0.0202349
0.0202358
0.0202373
0.0202404
0.0202458
0.0202521
0.0202558
0.0202555
0.020253
0.0202507
0.0202493
0.0202482
0.0202472
0.020246
0.0202445
0.0202429
0.020241
0.0202389
0.0202366
0.0202341
0.0202317
0.0202298
0.0202283
0.0202276
0.0202273
0.0202296
0.0202299
0.0202303
0.0202308
0.0202314
0.020232
0.0202323
0.0202327
0.0202333
0.0202348
0.0202386
0.0202454
0.020253
0.0202569
0.0202555
0.0202517
0.0202489
0.0202477
0.0202472
0.0202466
0.0202458
0.0202446
0.0202432
0.0202414
0.0202393
0.0202369
0.0202345
0.0202321
0.0202301
0.0202288
0.020228
0.0202277
0.0202287
0.0202289
0.0202293
0.0202297
0.02023
0.0202302
0.0202302
0.0202302
0.0202306
0.0202323
0.0202371
0.0202456
0.0202545
0.020258
0.0202549
0.0202492
0.0202456
0.0202448
0.020245
0.0202452
0.020245
0.0202442
0.020243
0.0202413
0.0202393
0.020237
0.0202345
0.0202322
0.0202304
0.0202291
0.0202283
0.020228
0.0202273
0.0202275
0.0202278
0.0202281
0.0202283
0.0202283
0.020228
0.0202278
0.0202281
0.0202303
0.0202366
0.0202471
0.0202569
0.0202593
0.0202537
0.0202456
0.020241
0.0202405
0.0202416
0.0202428
0.0202434
0.0202432
0.0202423
0.0202408
0.0202389
0.0202367
0.0202344
0.0202322
0.0202305
0.0202293
0.0202286
0.0202283
0.0202253
0.0202255
0.0202258
0.0202261
0.0202263
0.0202261
0.0202258
0.0202255
0.0202261
0.0202296
0.0202381
0.0202507
0.0202605
0.0202603
0.0202514
0.0202408
0.0202353
0.0202353
0.0202374
0.0202396
0.0202411
0.0202415
0.020241
0.0202399
0.0202381
0.0202361
0.0202339
0.0202319
0.0202303
0.0202293
0.0202287
0.0202284
0.0202222
0.0202224
0.0202227
0.0202231
0.0202233
0.0202233
0.0202232
0.0202236
0.0202258
0.020232
0.0202438
0.0202577
0.0202651
0.0202605
0.0202476
0.0202349
0.0202291
0.0202298
0.0202329
0.0202361
0.0202382
0.0202393
0.0202393
0.0202385
0.020237
0.0202352
0.0202333
0.0202316
0.0202302
0.0202293
0.0202287
0.0202285
0.0202191
0.0202192
0.0202193
0.0202196
0.02022
0.0202206
0.0202219
0.0202249
0.020231
0.0202418
0.0202563
0.0202682
0.0202695
0.0202584
0.0202419
0.0202286
0.0202234
0.0202249
0.0202288
0.0202325
0.0202352
0.0202366
0.020237
0.0202366
0.0202354
0.0202339
0.0202322
0.0202308
0.0202296
0.0202288
0.0202284
0.0202282
0.0202225
0.0202226
0.0202229
0.0202235
0.0202249
0.0202274
0.0202319
0.0202392
0.0202498
0.0202631
0.020275
0.0202786
0.02027
0.0202531
0.0202356
0.0202236
0.0202197
0.0202216
0.0202254
0.0202291
0.020232
0.0202338
0.0202346
0.0202345
0.0202338
0.0202327
0.0202314
0.0202303
0.0202293
0.0202286
0.0202282
0.020228
0.0202391
0.0202395
0.0202405
0.0202424
0.0202456
0.0202507
0.020258
0.0202675
0.0202782
0.0202868
0.0202889
0.0202812
0.0202658
0.0202482
0.020233
0.0202229
0.0202193
0.0202207
0.0202237
0.0202268
0.0202293
0.0202309
0.0202317
0.0202318
0.0202312
0.0202303
0.0202294
0.0202286
0.0202279
0.0202275
0.0202271
0.020227
0.0202593
0.02026
0.0202617
0.0202646
0.020269
0.0202752
0.0202829
0.0202909
0.020297
0.0202984
0.0202932
0.0202821
0.0202676
0.0202521
0.0202378
0.020227
0.0202219
0.0202219
0.0202239
0.0202261
0.020228
0.0202292
0.0202298
0.02023
0.0202298
0.0202294
0.0202289
0.0202282
0.0202274
0.0202268
0.0202265
0.0202263
0.0202736
0.0202745
0.0202764
0.0202797
0.0202846
0.020291
0.0202981
0.0203044
0.0203079
0.020307
0.0203015
0.0202919
0.0202793
0.0202646
0.0202493
0.0202357
0.020227
0.0202242
0.0202246
0.0202261
0.0202275
0.0202285
0.0202289
0.0202287
0.0202278
0.0202266
0.0202254
0.0202246
0.0202245
0.0202252
0.0202261
0.0202267
0.0202818
0.0202827
0.0202848
0.0202885
0.0202939
0.0203007
0.0203079
0.020314
0.0203176
0.0203179
0.0203148
0.0203083
0.0202983
0.0202849
0.0202688
0.0202518
0.0202377
0.0202296
0.0202261
0.0202247
0.020224
0.0202232
0.0202224
0.0202218
0.020222
0.0202237
0.0202273
0.0202328
0.0202395
0.0202459
0.0202505
0.0202526
0.0202855
0.0202864
0.0202887
0.0202926
0.0202984
0.0203057
0.0203135
0.0203205
0.0203258
0.0203288
0.0203294
0.0203271
0.0203213
0.020311
0.0202962
0.020278
0.0202598
0.0202466
0.020239
0.0202351
0.0202338
0.0202347
0.0202382
0.0202446
0.0202541
0.0202662
0.0202801
0.020294
0.020306
0.0203146
0.0203194
0.0203211
0.020286
0.0202869
0.0202891
0.020293
0.0202987
0.020306
0.0203143
0.0203225
0.0203299
0.020336
0.0203407
0.0203435
0.020343
0.0203379
0.0203273
0.0203112
0.0202931
0.0202791
0.0202717
0.0202701
0.020274
0.0202834
0.0202978
0.0203161
0.0203364
0.0203565
0.0203742
0.0203875
0.0203956
0.0203989
0.0203992
0.0203986
0.0202848
0.0202857
0.0202877
0.0202912
0.0202964
0.0203033
0.0203114
0.02032
0.0203288
0.0203374
0.0203458
0.0203534
0.0203589
0.0203603
0.0203557
0.0203444
0.0203293
0.0203175
0.0203132
0.0203164
0.0203272
0.0203447
0.0203668
0.0203905
0.0204127
0.0204309
0.0204438
0.0204513
0.020454
0.0204534
0.0204514
0.0204498
0.0202833
0.020284
0.0202857
0.0202887
0.0202933
0.0202993
0.0203068
0.0203153
0.0203246
0.0203346
0.0203456
0.0203571
0.0203678
0.0203756
0.0203778
0.0203727
0.0203617
0.020352
0.0203498
0.0203556
0.0203694
0.020389
0.0204112
0.0204322
0.0204494
0.0204618
0.0204697
0.0204742
0.020476
0.0204759
0.0204747
0.0204736
0.0202833
0.0202837
0.0202849
0.0202872
0.0202909
0.0202962
0.0203031
0.0203113
0.0203209
0.0203318
0.0203443
0.0203581
0.0203724
0.0203853
0.0203936
0.0203949
0.0203885
0.0203806
0.0203782
0.0203833
0.0203957
0.0204129
0.0204313
0.0204476
0.0204601
0.0204691
0.0204754
0.0204797
0.0204823
0.0204834
0.0204834
0.0204829
0.020287
0.0202868
0.0202872
0.0202886
0.0202916
0.0202964
0.0203031
0.0203115
0.0203216
0.0203333
0.0203467
0.0203616
0.0203774
0.0203929
0.0204054
0.0204118
0.0204101
0.0204044
0.0204013
0.0204038
0.0204125
0.0204255
0.0204396
0.0204521
0.020462
0.0204699
0.0204761
0.020481
0.0204845
0.0204865
0.0204872
0.0204872
0.0202966
0.0202958
0.0202952
0.0202957
0.0202982
0.020303
0.02031
0.0203191
0.0203299
0.0203422
0.020356
0.0203709
0.0203867
0.0204024
0.0204164
0.0204259
0.0204279
0.0204245
0.0204215
0.0204216
0.0204265
0.0204352
0.0204454
0.020455
0.0204633
0.0204704
0.0204765
0.0204818
0.0204858
0.0204885
0.0204897
0.0204899
0.0203138
0.0203123
0.0203111
0.0203113
0.020314
0.0203193
0.020327
0.0203366
0.0203477
0.0203599
0.0203731
0.020387
0.0204013
0.0204156
0.0204289
0.020439
0.0204431
0.0204419
0.0204394
0.0204385
0.0204406
0.0204458
0.0204527
0.0204598
0.0204664
0.0204725
0.020478
0.0204831
0.0204873
0.0204903
0.0204918
0.0204922
0.0203393
0.0203376
0.0203367
0.0203377
0.0203412
0.0203471
0.020355
0.0203643
0.0203747
0.0203857
0.0203971
0.0204088
0.0204206
0.0204323
0.0204434
0.0204524
0.020457
0.0204571
0.0204556
0.0204543
0.0204549
0.0204577
0.0204621
0.020467
0.0204719
0.0204766
0.0204811
0.0204853
0.0204891
0.020492
0.0204937
0.0204943
0.0203735
0.0203725
0.0203732
0.0203757
0.0203798
0.0203855
0.0203924
0.0204002
0.0204085
0.020417
0.0204257
0.0204343
0.0204429
0.0204514
0.0204595
0.0204663
0.0204702
0.0204708
0.02047
0.020469
0.020469
0.0204703
0.0204728
0.0204759
0.0204792
0.0204824
0.0204855
0.0204886
0.0204915
0.0204939
0.0204955
0.0204961
0.0204169
0.0204176
0.0204201
0.020423
0.0204265
0.0204306
0.0204353
0.0204403
0.0204455
0.0204508
0.020456
0.0204612
0.0204663
0.0204713
0.0204761
0.0204802
0.0204827
0.0204833
0.0204829
0.0204823
0.0204821
0.0204827
0.020484
0.0204856
0.0204874
0.0204892
0.020491
0.0204928
0.0204945
0.0204961
0.0204972
0.0204977
0.0204708
0.0204715
0.0204729
0.0204742
0.0204756
0.020477
0.0204787
0.0204804
0.0204821
0.0204839
0.0204856
0.0204873
0.020489
0.0204906
0.0204921
0.0204935
0.0204943
0.0204946
0.0204944
0.0204943
0.0204942
0.0204944
0.0204947
0.0204952
0.0204958
0.0204963
0.0204969
0.0204975
0.020498
0.0204986
0.020499
0.0204992
)
;

boundaryField
{
    movingWall
    {
        type            fixedValue;
        value           uniform 0.0205;
    }
    fixedWalls
    {
        type            zeroGradient;
    }
    floor
    {
        type            zeroGradient;
    }
    frontAndBack
    {
        type            empty;
    }
}


// ************************************************************************* //
