/*--------------------------------*- C++ -*----------------------------------*\
| =========                 |                                                 |
| \\      /  F ield         | OpenFOAM: The Open Source CFD Toolbox           |
|  \\    /   O peration     | Version:  2212                                  |
|   \\  /    A nd           | Website:  www.openfoam.com                      |
|    \\/     M anipulation  |                                                 |
\*---------------------------------------------------------------------------*/
FoamFile
{
    version     2.0;
    format      ascii;
    arch        "LSB;label=64;scalar=64";
    class       volScalarField;
    location    "170";
    object      Xpr;
}
// * * * * * * * * * * * * * * * * * * * * * * * * * * * * * * * * * * * * * //

dimensions      [1 -3 0 0 0 0 0];

internalField   nonuniform List<scalar> 
1024
(
0.0830462
0.0830473
0.0830499
0.0830542
0.0830602
0.0830675
0.0830753
0.0830829
0.0830902
0.0830973
0.0831043
0.0831113
0.0831177
0.0831222
0.0831241
0.083123
0.0831189
0.0831128
0.0831058
0.083098
0.0830897
0.0830811
0.0830721
0.0830629
0.0830538
0.0830451
0.0830374
0.0830311
0.0830265
0.0830234
0.0830216
0.0830209
0.0830464
0.0830476
0.0830503
0.0830548
0.083061
0.0830684
0.0830761
0.0830837
0.0830909
0.0830978
0.0831048
0.0831119
0.0831185
0.083123
0.0831249
0.0831238
0.0831197
0.0831137
0.0831067
0.083099
0.0830908
0.0830822
0.0830733
0.0830641
0.0830549
0.0830462
0.0830383
0.0830318
0.083027
0.0830238
0.0830219
0.0830212
0.0830469
0.0830481
0.083051
0.0830558
0.0830623
0.0830697
0.0830774
0.0830847
0.0830916
0.0830985
0.0831056
0.083113
0.0831202
0.083125
0.0831269
0.0831255
0.0831213
0.0831154
0.0831085
0.083101
0.083093
0.0830846
0.0830758
0.0830666
0.0830574
0.0830484
0.0830402
0.0830333
0.0830281
0.0830246
0.0830226
0.0830218
0.0830474
0.0830487
0.0830518
0.0830569
0.0830635
0.0830709
0.0830783
0.0830853
0.083092
0.0830987
0.0831062
0.0831145
0.083123
0.0831285
0.0831302
0.0831284
0.0831239
0.0831179
0.0831112
0.0831039
0.0830962
0.083088
0.0830793
0.0830703
0.0830611
0.0830518
0.0830432
0.0830357
0.0830299
0.083026
0.0830238
0.0830229
0.0830479
0.0830492
0.0830524
0.0830576
0.0830641
0.0830714
0.0830784
0.0830849
0.0830913
0.0830981
0.0831061
0.083116
0.0831266
0.0831334
0.083135
0.0831324
0.0831273
0.0831211
0.0831145
0.0831075
0.0831
0.0830921
0.0830837
0.0830749
0.0830656
0.0830562
0.083047
0.0830388
0.0830324
0.0830279
0.0830254
0.0830243
0.0830481
0.0830495
0.0830526
0.0830575
0.0830638
0.0830706
0.083077
0.083083
0.083089
0.0830958
0.0831048
0.0831168
0.0831303
0.0831391
0.0831408
0.0831371
0.083131
0.0831246
0.083118
0.0831112
0.083104
0.0830964
0.0830884
0.0830798
0.0830706
0.0830609
0.0830513
0.0830424
0.0830352
0.0830302
0.0830273
0.0830262
0.0830479
0.0830492
0.0830521
0.0830566
0.0830623
0.0830683
0.083074
0.0830792
0.0830846
0.0830915
0.0831015
0.0831164
0.0831337
0.083145
0.0831465
0.0831413
0.0831343
0.0831276
0.0831212
0.0831147
0.0831079
0.0831007
0.0830929
0.0830845
0.0830754
0.0830656
0.0830555
0.0830461
0.0830382
0.0830327
0.0830296
0.0830283
0.0830472
0.0830483
0.0830509
0.0830547
0.0830595
0.0830645
0.0830691
0.0830733
0.083078
0.0830847
0.0830961
0.0831146
0.0831365
0.0831502
0.083151
0.0831437
0.0831355
0.0831289
0.0831231
0.0831173
0.0831111
0.0831042
0.0830967
0.0830885
0.0830794
0.0830695
0.0830592
0.0830493
0.083041
0.0830352
0.0830318
0.0830305
0.0830455
0.0830466
0.0830487
0.0830519
0.0830556
0.0830593
0.0830625
0.0830654
0.0830691
0.0830756
0.0830889
0.0831121
0.0831392
0.0831548
0.0831534
0.0831427
0.083133
0.083127
0.0831225
0.083118
0.0831127
0.0831066
0.0830995
0.0830915
0.0830824
0.0830724
0.0830619
0.0830518
0.0830433
0.0830373
0.0830339
0.0830326
0.0830429
0.0830439
0.0830456
0.083048
0.0830505
0.0830528
0.0830544
0.0830559
0.0830584
0.083065
0.0830811
0.0831104
0.083143
0.0831594
0.0831534
0.0831371
0.0831252
0.0831202
0.0831179
0.0831156
0.0831121
0.0831071
0.0831007
0.083093
0.0830841
0.0830741
0.0830635
0.0830534
0.083045
0.0830391
0.0830358
0.0830345
0.0830389
0.0830398
0.0830412
0.0830429
0.0830444
0.0830452
0.0830454
0.0830453
0.0830469
0.0830543
0.0830747
0.0831113
0.0831493
0.0831644
0.0831511
0.0831266
0.0831114
0.0831076
0.0831085
0.0831095
0.0831085
0.0831053
0.0831
0.0830929
0.0830842
0.0830743
0.0830638
0.083054
0.083046
0.0830404
0.0830373
0.0830361
0.0830329
0.0830338
0.0830352
0.0830365
0.0830372
0.083037
0.083036
0.0830348
0.0830361
0.0830457
0.0830725
0.0831176
0.0831595
0.0831697
0.0831457
0.0831111
0.0830916
0.0830894
0.0830942
0.0830992
0.0831016
0.0831008
0.083097
0.0830908
0.0830826
0.0830731
0.0830631
0.0830539
0.0830464
0.0830412
0.0830383
0.0830372
0.0830242
0.0830251
0.0830266
0.0830279
0.0830284
0.0830279
0.0830263
0.0830251
0.0830278
0.0830426
0.0830792
0.0831332
0.0831748
0.0831743
0.0831359
0.0830904
0.0830672
0.0830671
0.0830762
0.0830857
0.0830917
0.0830936
0.0830917
0.0830867
0.0830793
0.0830704
0.0830611
0.0830526
0.0830459
0.0830413
0.0830387
0.0830376
0.083011
0.0830118
0.0830133
0.0830147
0.0830156
0.0830156
0.0830152
0.0830168
0.0830263
0.0830531
0.0831034
0.0831629
0.0831948
0.083175
0.0831196
0.0830653
0.0830406
0.0830436
0.0830569
0.0830703
0.0830797
0.0830842
0.0830842
0.0830807
0.0830745
0.0830668
0.0830587
0.0830512
0.0830453
0.0830412
0.0830389
0.0830379
0.0829976
0.082998
0.0829987
0.0829998
0.0830014
0.083004
0.0830097
0.0830224
0.0830488
0.083095
0.0831568
0.0832079
0.0832133
0.083166
0.0830955
0.0830383
0.0830163
0.0830228
0.0830391
0.083055
0.0830665
0.0830729
0.0830745
0.0830724
0.0830675
0.083061
0.083054
0.0830478
0.0830428
0.0830394
0.0830375
0.0830366
0.0830125
0.0830128
0.0830139
0.0830166
0.0830224
0.0830333
0.0830524
0.0830836
0.0831293
0.0831861
0.0832368
0.0832524
0.0832158
0.0831432
0.0830684
0.083017
0.0830003
0.0830085
0.0830248
0.0830408
0.0830529
0.0830605
0.0830639
0.0830637
0.0830607
0.083056
0.0830506
0.0830455
0.0830414
0.0830384
0.0830366
0.0830358
0.0830833
0.083085
0.0830893
0.0830973
0.0831112
0.0831329
0.0831642
0.0832051
0.0832506
0.0832876
0.0832964
0.0832637
0.0831977
0.0831222
0.0830572
0.0830139
0.0829988
0.0830046
0.0830175
0.0830307
0.0830413
0.0830484
0.0830518
0.083052
0.0830496
0.0830459
0.0830419
0.0830384
0.0830356
0.0830335
0.0830322
0.0830315
0.0831698
0.0831728
0.0831799
0.0831923
0.0832114
0.0832379
0.0832707
0.0833049
0.0833313
0.0833373
0.0833149
0.0832674
0.0832052
0.0831389
0.0830778
0.0830314
0.0830098
0.0830098
0.0830183
0.0830279
0.0830357
0.0830409
0.0830435
0.0830442
0.0830436
0.0830419
0.0830395
0.0830366
0.0830335
0.0830309
0.0830293
0.0830286
0.0832312
0.0832348
0.083243
0.0832573
0.0832783
0.0833055
0.0833358
0.0833627
0.0833776
0.0833739
0.0833502
0.0833095
0.0832554
0.0831924
0.0831271
0.0830689
0.0830315
0.0830196
0.0830214
0.0830276
0.0830338
0.0830381
0.0830398
0.0830388
0.0830352
0.0830299
0.0830246
0.0830212
0.083021
0.0830239
0.0830277
0.0830301
0.0832661
0.0832699
0.083279
0.0832948
0.0833179
0.0833469
0.0833777
0.0834039
0.0834193
0.0834206
0.0834072
0.0833793
0.0833366
0.0832793
0.0832106
0.0831379
0.0830773
0.0830427
0.0830278
0.0830219
0.0830187
0.0830155
0.083012
0.0830094
0.0830103
0.0830173
0.0830328
0.0830565
0.0830852
0.0831125
0.083132
0.083141
0.0832819
0.0832859
0.0832956
0.0833125
0.0833373
0.0833683
0.0834017
0.0834319
0.0834545
0.0834674
0.0834699
0.0834602
0.083435
0.0833911
0.0833279
0.0832497
0.0831719
0.0831156
0.083083
0.0830662
0.0830605
0.0830646
0.0830795
0.0831069
0.0831474
0.0831995
0.083259
0.0833185
0.0833698
0.0834066
0.0834268
0.0834342
0.0832842
0.0832881
0.0832976
0.0833141
0.0833384
0.0833698
0.0834052
0.0834404
0.0834719
0.0834981
0.0835183
0.08353
0.0835281
0.0835064
0.0834607
0.0833919
0.0833144
0.0832546
0.0832227
0.0832158
0.0832329
0.0832731
0.0833347
0.0834127
0.0834997
0.0835858
0.0836615
0.0837187
0.0837532
0.0837672
0.0837684
0.083766
0.083279
0.0832827
0.0832914
0.0833065
0.0833288
0.083358
0.0833926
0.0834297
0.0834671
0.0835041
0.0835401
0.0835727
0.0835962
0.083602
0.0835823
0.0835342
0.0834694
0.0834188
0.0834004
0.0834144
0.0834606
0.0835353
0.0836297
0.0837312
0.0838263
0.0839041
0.0839594
0.0839914
0.0840031
0.0840006
0.0839918
0.083985
0.0832726
0.0832756
0.083283
0.0832958
0.0833152
0.0833412
0.0833731
0.0834094
0.0834491
0.0834922
0.0835391
0.0835883
0.0836344
0.0836677
0.0836772
0.0836553
0.0836081
0.0835667
0.0835569
0.0835822
0.0836411
0.0837251
0.08382
0.0839099
0.0839836
0.0840364
0.0840704
0.0840895
0.0840974
0.084097
0.0840918
0.084087
0.0832724
0.0832741
0.0832792
0.0832891
0.0833051
0.0833279
0.0833572
0.0833925
0.0834334
0.0834802
0.0835334
0.0835926
0.083654
0.083709
0.0837448
0.08375
0.0837227
0.083689
0.0836788
0.0837004
0.0837534
0.0838273
0.083906
0.0839755
0.0840293
0.0840678
0.0840949
0.0841132
0.0841243
0.084129
0.0841289
0.0841269
0.0832882
0.0832877
0.0832892
0.0832953
0.0833081
0.0833287
0.0833572
0.0833932
0.0834363
0.0834865
0.0835438
0.0836075
0.0836754
0.0837417
0.0837953
0.0838227
0.0838154
0.0837908
0.0837777
0.0837883
0.0838256
0.0838813
0.0839415
0.0839949
0.0840376
0.0840712
0.0840979
0.0841187
0.0841335
0.0841421
0.0841452
0.0841451
0.0833295
0.083326
0.0833233
0.0833257
0.0833365
0.0833569
0.083387
0.0834257
0.0834719
0.0835247
0.0835835
0.0836475
0.083715
0.0837823
0.0838423
0.0838827
0.0838912
0.0838771
0.0838638
0.0838646
0.0838856
0.0839228
0.0839664
0.0840074
0.0840428
0.0840731
0.0840995
0.084122
0.0841394
0.0841508
0.084156
0.0841569
0.0834031
0.0833968
0.0833914
0.0833924
0.0834038
0.0834265
0.0834594
0.0835005
0.083548
0.0836005
0.0836569
0.0837163
0.0837776
0.0838388
0.0838956
0.083939
0.0839564
0.0839513
0.0839408
0.0839366
0.0839457
0.0839679
0.0839976
0.0840281
0.0840564
0.0840822
0.084106
0.0841276
0.0841455
0.0841583
0.084165
0.0841668
0.0835123
0.083505
0.0835011
0.0835054
0.0835203
0.0835455
0.0835793
0.0836192
0.0836635
0.0837106
0.0837596
0.0838097
0.0838603
0.0839104
0.0839578
0.0839965
0.084016
0.0840166
0.0840098
0.0840045
0.0840071
0.084019
0.0840378
0.0840589
0.0840798
0.0840998
0.084119
0.0841372
0.0841534
0.0841659
0.0841732
0.0841755
0.0836585
0.0836542
0.0836574
0.0836679
0.0836856
0.08371
0.0837396
0.0837728
0.0838083
0.0838448
0.0838819
0.083919
0.0839558
0.083992
0.0840266
0.0840558
0.0840723
0.0840752
0.0840715
0.0840673
0.0840672
0.0840729
0.0840838
0.084097
0.0841108
0.0841245
0.084138
0.0841512
0.0841637
0.084174
0.0841807
0.0841832
0.0838444
0.0838474
0.0838579
0.0838705
0.0838855
0.0839031
0.083923
0.0839445
0.0839668
0.0839893
0.0840118
0.084034
0.0840559
0.0840772
0.0840976
0.0841153
0.0841258
0.0841284
0.0841267
0.0841243
0.0841236
0.084126
0.0841314
0.0841384
0.084146
0.0841536
0.0841613
0.084169
0.0841766
0.0841833
0.0841881
0.0841902
0.0840748
0.084078
0.0840839
0.0840895
0.0840954
0.0841017
0.0841087
0.084116
0.0841235
0.084131
0.0841384
0.0841457
0.0841528
0.0841598
0.0841664
0.0841722
0.0841757
0.0841767
0.0841762
0.0841755
0.0841752
0.0841758
0.0841774
0.0841796
0.0841819
0.0841843
0.0841867
0.0841892
0.0841916
0.0841939
0.0841956
0.0841965
)
;

boundaryField
{
    movingWall
    {
        type            fixedValue;
        value           uniform 0.0842;
    }
    fixedWalls
    {
        type            zeroGradient;
    }
    floor
    {
        type            zeroGradient;
    }
    frontAndBack
    {
        type            empty;
    }
}


// ************************************************************************* //
