/*--------------------------------*- C++ -*----------------------------------*\
| =========                 |                                                 |
| \\      /  F ield         | OpenFOAM: The Open Source CFD Toolbox           |
|  \\    /   O peration     | Version:  2206                                  |
|   \\  /    A nd           | Website:  www.openfoam.com                      |
|    \\/     M anipulation  |                                                 |
\*---------------------------------------------------------------------------*/
FoamFile
{
    version     2.0;
    format      ascii;
    arch        "LSB;label=64;scalar=64";
    class       surfaceScalarField;
    location    "525600";
    object      phi;
}
// * * * * * * * * * * * * * * * * * * * * * * * * * * * * * * * * * * * * * //

dimensions      [0 3 -1 0 0 0 0];

oriented        oriented;

internalField   nonuniform List<scalar> 
24
(
4.92992e-10
-4.92992e-10
4.70895e-10
2.20977e-11
3.13473e-10
1.57421e-10
3.13473e-10
1.48021e-10
-6.41013e-10
1.50578e-10
1.95407e-11
1.95602e-11
2.88439e-10
3.33033e-10
-2.51129e-10
-3.89884e-10
-2.23913e-10
-7.67493e-12
-1.54028e-10
2.18553e-10
1.79006e-10
-3.89884e-10
-3.97559e-10
-1.79006e-10
)
;

boundaryField
{
    movingWall
    {
        type            calculated;
        value           uniform 0;
    }
    fixedWalls
    {
        type            calculated;
        value           uniform 0;
    }
    frontAndBack
    {
        type            empty;
        value           nonuniform List<scalar> 0();
    }
}


// ************************************************************************* //
