/*--------------------------------*- C++ -*----------------------------------*\
| =========                 |                                                 |
| \\      /  F ield         | OpenFOAM: The Open Source CFD Toolbox           |
|  \\    /   O peration     | Version:  2212                                  |
|   \\  /    A nd           | Website:  www.openfoam.com                      |
|    \\/     M anipulation  |                                                 |
\*---------------------------------------------------------------------------*/
FoamFile
{
    version     2.0;
    format      ascii;
    arch        "LSB;label=64;scalar=64";
    class       volScalarField;
    location    "150";
    object      Gco2;
}
// * * * * * * * * * * * * * * * * * * * * * * * * * * * * * * * * * * * * * //

dimensions      [1 -3 0 0 0 0 0];

internalField   nonuniform List<scalar> 
1024
(
0.0377029
0.0376968
0.0376829
0.0376596
0.0376264
0.0375842
0.0375349
0.0374802
0.0374212
0.0373581
0.0372904
0.0372196
0.0371425
0.0370586
0.0369707
0.0368856
0.0368218
0.0367905
0.0367891
0.0368114
0.0368527
0.0369102
0.0369816
0.0370646
0.0371565
0.0372504
0.0373377
0.0374108
0.0374659
0.0375026
0.0375235
0.0375322
0.0377018
0.0376955
0.0376809
0.0376564
0.0376217
0.0375782
0.0375278
0.037472
0.0374115
0.0373464
0.0372764
0.0372039
0.0371255
0.0370408
0.0369528
0.0368686
0.0368062
0.036776
0.0367754
0.0367981
0.0368395
0.0368967
0.0369678
0.0370506
0.0371426
0.0372376
0.0373267
0.0374021
0.0374594
0.0374978
0.0375197
0.0375289
0.0377001
0.0376934
0.0376777
0.0376513
0.0376144
0.0375685
0.0375156
0.0374565
0.0373915
0.03732
0.0372427
0.0371641
0.0370806
0.0369925
0.0369038
0.0368221
0.0367646
0.0367392
0.0367421
0.0367671
0.0368098
0.0368674
0.0369383
0.0370209
0.0371132
0.03721
0.0373028
0.0373831
0.037445
0.037487
0.037511
0.037521
0.0376984
0.0376912
0.0376743
0.037646
0.0376064
0.0375573
0.0374999
0.0374345
0.0373603
0.0372761
0.0371834
0.0370907
0.0369952
0.0368985
0.0368067
0.0367298
0.036683
0.0366687
0.0366808
0.0367124
0.0367596
0.0368199
0.036892
0.036975
0.037068
0.0371674
0.0372655
0.0373528
0.0374218
0.0374692
0.0374964
0.0375076
0.0376968
0.0376894
0.0376716
0.0376418
0.0375997
0.0375464
0.0374826
0.0374073
0.0373186
0.0372139
0.0370956
0.0369769
0.0368578
0.0367431
0.0366434
0.0365727
0.0365443
0.0365507
0.0365806
0.0366264
0.036684
0.0367515
0.036828
0.0369136
0.0370087
0.0371117
0.0372162
0.0373122
0.03739
0.0374444
0.0374757
0.0374884
0.0376961
0.0376885
0.0376704
0.0376396
0.0375952
0.0375374
0.0374656
0.0373774
0.0372691
0.0371363
0.036981
0.0368207
0.0366615
0.0365147
0.0363982
0.0363335
0.0363317
0.0363703
0.0364296
0.0364999
0.0365768
0.0366587
0.0367454
0.036838
0.0369382
0.0370465
0.0371585
0.0372641
0.0373518
0.037414
0.0374498
0.037464
0.0376966
0.0376891
0.0376711
0.0376399
0.0375938
0.0375317
0.0374512
0.0373485
0.0372171
0.0370496
0.0368457
0.0366258
0.0364057
0.036208
0.0360627
0.0360016
0.0360341
0.0361174
0.0362188
0.0363255
0.0364324
0.0365381
0.0366429
0.036749
0.0368593
0.0369763
0.0370975
0.0372133
0.0373107
0.0373803
0.0374203
0.0374359
0.0376988
0.0376914
0.0376737
0.0376429
0.037596
0.0375305
0.0374423
0.037325
0.0371688
0.0369608
0.0366964
0.036398
0.0360942
0.0358254
0.0356388
0.0355795
0.0356538
0.0357927
0.0359482
0.0361028
0.0362503
0.0363894
0.0365212
0.0366482
0.0367749
0.0369052
0.037038
0.0371641
0.0372703
0.0373461
0.0373894
0.0374061
0.0377033
0.037696
0.0376789
0.037649
0.0376025
0.0375353
0.0374414
0.0373108
0.0371285
0.0368735
0.0365353
0.0361384
0.0357293
0.0353732
0.0351402
0.0350879
0.0352134
0.0354169
0.0356341
0.0358441
0.0360397
0.0362197
0.0363855
0.0365402
0.0366892
0.0368372
0.0369838
0.0371204
0.0372338
0.0373139
0.0373591
0.0373763
0.0377108
0.0377036
0.0376874
0.037659
0.0376143
0.0375475
0.0374502
0.0373078
0.0370971
0.0367855
0.036356
0.0358396
0.0353077
0.0348592
0.0345925
0.0345706
0.0347645
0.0350382
0.035317
0.0355811
0.0358248
0.036047
0.0362493
0.0364347
0.0366092
0.0367775
0.0369388
0.0370849
0.0372034
0.0372854
0.0373311
0.0373483
0.0377228
0.0377158
0.0377005
0.0376743
0.0376326
0.0375684
0.0374698
0.0373156
0.0370707
0.0366876
0.0361449
0.0354871
0.0348225
0.0342967
0.0340393
0.0341013
0.0343942
0.0347387
0.0350657
0.0353687
0.0356474
0.0359024
0.0361349
0.0363474
0.0365453
0.036732
0.0369058
0.0370582
0.0371785
0.0372602
0.0373053
0.0373225
0.0377414
0.0377347
0.0377205
0.0376968
0.0376593
0.0375993
0.0375001
0.0373309
0.0370398
0.0365629
0.03588
0.0350615
0.0342699
0.033714
0.0335516
0.0337901
0.0342279
0.0346336
0.034976
0.0352822
0.0355651
0.0358284
0.0360729
0.0362995
0.0365119
0.0367112
0.036893
0.0370483
0.0371674
0.0372463
0.037289
0.0373053
0.0377692
0.0377627
0.0377494
0.0377278
0.0376937
0.0376365
0.037533
0.0373381
0.036979
0.036379
0.0355277
0.0345396
0.0336562
0.0331633
0.033232
0.0337759
0.0344117
0.0348495
0.0351504
0.0354026
0.0356404
0.0358721
0.036097
0.0363127
0.0365191
0.0367137
0.0368899
0.0370384
0.0371511
0.0372258
0.0372671
0.0372836
0.0378063
0.0378
0.0377867
0.037765
0.0377294
0.0376658
0.0375423
0.0372964
0.0368355
0.036077
0.0350357
0.0338965
0.0330033
0.0327189
0.0331906
0.0341776
0.0350504
0.0354632
0.0356499
0.035782
0.0359182
0.0360721
0.0362415
0.0364204
0.0366034
0.036782
0.0369446
0.0370796
0.0371799
0.037245
0.0372809
0.0372954
0.0378446
0.0378379
0.0378228
0.0377955
0.0377473
0.0376567
0.0374793
0.0371363
0.0365252
0.0355738
0.0343462
0.0331224
0.0323525
0.0324439
0.0334659
0.034976
0.0360805
0.036402
0.0364204
0.0363917
0.0363871
0.0364214
0.0364917
0.0365914
0.0367132
0.0368455
0.036974
0.0370856
0.0371718
0.0372307
0.0372657
0.0372812
0.0378641
0.0378553
0.0378334
0.0377905
0.0377106
0.0375613
0.0372834
0.0367893
0.0359811
0.0348219
0.0334533
0.0322539
0.0317369
0.0322886
0.0338677
0.0358502
0.0371381
0.0373597
0.0372394
0.0370912
0.0369786
0.0369115
0.0368898
0.036912
0.0369718
0.0370554
0.0371438
0.0372215
0.0372812
0.0373232
0.0373498
0.0373628
0.0378471
0.0378332
0.0377975
0.0377264
0.0375956
0.0373614
0.036954
0.0362855
0.0352831
0.0339655
0.0325442
0.0314281
0.0311082
0.0319333
0.0338325
0.0361308
0.0376174
0.0378553
0.0377056
0.0375249
0.0373788
0.0372784
0.0372173
0.0371867
0.0371802
0.0371912
0.037216
0.0372527
0.0372967
0.0373392
0.037371
0.037387
0.0378198
0.0377991
0.037747
0.037646
0.0374669
0.0371622
0.0366632
0.035894
0.0348075
0.033445
0.0319977
0.0308055
0.0303185
0.0309467
0.0327762
0.0352808
0.0372103
0.0377985
0.0377984
0.0376415
0.0374582
0.0373129
0.037224
0.0371984
0.0372342
0.0373186
0.0374271
0.0375275
0.0375902
0.0376052
0.0375898
0.0375731
0.0378292
0.0378038
0.0377425
0.0376286
0.0374356
0.0371221
0.0366304
0.0358961
0.0348703
0.033555
0.0320514
0.0305945
0.0295926
0.0295567
0.0308402
0.0332596
0.035736
0.0370928
0.0376482
0.0378529
0.0379121
0.0379442
0.0379806
0.0380173
0.0380234
0.0379536
0.0377659
0.0374455
0.0370283
0.0366061
0.0362894
0.0361376
0.0378905
0.0378643
0.0378048
0.0377008
0.0375338
0.0372746
0.0368787
0.0362858
0.0354312
0.0342623
0.0327768
0.0310748
0.0294619
0.0284738
0.0286946
0.030355
0.0328044
0.0347182
0.0358492
0.036474
0.0367621
0.0368135
0.0366552
0.0362872
0.0357016
0.0349089
0.0339562
0.0329492
0.0320213
0.0313019
0.0308669
0.030695
0.0379876
0.0379634
0.0379118
0.0378281
0.0377032
0.0375206
0.0372505
0.0368427
0.0362226
0.035296
0.0339729
0.0322176
0.0301832
0.0283188
0.027292
0.0276291
0.0291565
0.0307241
0.0317037
0.0321275
0.0320478
0.0315385
0.0306782
0.0295599
0.0282922
0.0270037
0.0258261
0.0248814
0.024255
0.0239436
0.0238499
0.0238494
0.0380966
0.038076
0.0380339
0.0379696
0.0378814
0.0377628
0.0375968
0.0373459
0.0369409
0.0362725
0.0351953
0.0335709
0.0314062
0.0290096
0.0270038
0.026046
0.02633
0.0270177
0.0273385
0.0271679
0.0264874
0.0253888
0.0240274
0.0225832
0.0212307
0.0201096
0.0193154
0.0188701
0.0187424
0.018834
0.0189998
0.0191127
0.0381844
0.0381716
0.0381433
0.0380984
0.038038
0.0379623
0.0378631
0.0377127
0.0374497
0.036965
0.036094
0.0346457
0.0325341
0.0299376
0.027371
0.025507
0.0247879
0.0247066
0.0244873
0.0239034
0.0229314
0.0216931
0.020371
0.0191365
0.0181107
0.0173439
0.0168386
0.016566
0.0164885
0.0165531
0.0166812
0.0167785
0.0381762
0.0381832
0.0381867
0.0381761
0.038148
0.0381038
0.0380395
0.0379304
0.0377152
0.0372845
0.0364842
0.0351388
0.0331298
0.0305402
0.0277623
0.0254005
0.0240355
0.0234632
0.0229894
0.0223013
0.0213545
0.0202641
0.0191833
0.0182205
0.0174165
0.0167709
0.0162767
0.0159328
0.0157388
0.0156789
0.0157103
0.0157618
0.0379214
0.0379703
0.0380432
0.0381072
0.0381395
0.0381323
0.0380782
0.0379479
0.0376751
0.037155
0.0362633
0.0348845
0.0329421
0.0304776
0.0277451
0.0252179
0.0235094
0.0226507
0.0220879
0.0214628
0.0206778
0.0198008
0.0189338
0.0181336
0.0174078
0.0167543
0.0161864
0.0157342
0.0154256
0.0152657
0.0152256
0.0152438
0.0372104
0.0373261
0.0375136
0.0377043
0.0378367
0.0378756
0.0377989
0.0375711
0.0371307
0.0363993
0.0353069
0.0338149
0.031909
0.0296202
0.0270994
0.0246668
0.0228645
0.0218647
0.021275
0.0207488
0.0201397
0.0194564
0.018759
0.0180776
0.0174122
0.0167631
0.0161518
0.0156231
0.0152261
0.0149873
0.0148932
0.0148884
0.0358448
0.0360405
0.036359
0.0366913
0.0369267
0.0369883
0.036835
0.0364361
0.0357587
0.0347757
0.0334826
0.0319046
0.0300735
0.0280156
0.0258056
0.0236358
0.021935
0.0209207
0.0203393
0.0198989
0.0194368
0.0189153
0.0183637
0.0178
0.0172227
0.0166309
0.0160419
0.0154974
0.0150545
0.01476
0.0146219
0.0145972
0.0337065
0.033965
0.0343568
0.0347496
0.035006
0.0350185
0.0347394
0.0341569
0.0332793
0.0321322
0.0307601
0.0292209
0.0275624
0.0258038
0.0239704
0.0221615
0.0206918
0.0197674
0.0192333
0.0188669
0.0185195
0.0181332
0.017715
0.0172744
0.0168093
0.016317
0.0158065
0.0153077
0.0148718
0.0145548
0.0143862
0.0143438
0.0307614
0.0310213
0.0313383
0.0316175
0.0317579
0.0316555
0.0312666
0.0305933
0.0296687
0.0285448
0.0272831
0.0259443
0.0245716
0.0231762
0.0217582
0.0203598
0.0191967
0.0184369
0.0179896
0.0176976
0.0174437
0.0171702
0.0168718
0.0165522
0.0162089
0.015838
0.0154411
0.015034
0.014654
0.0143537
0.0141755
0.0141199
0.0269962
0.0271493
0.0272179
0.0272433
0.0272
0.0270031
0.0266047
0.0260018
0.025224
0.0243194
0.0233407
0.0223352
0.0213336
0.020342
0.0193525
0.0183785
0.0175561
0.0170049
0.0166745
0.0164635
0.0162909
0.016112
0.0159177
0.0157082
0.0154815
0.015234
0.0149634
0.0146748
0.0143885
0.0141432
0.0139816
0.0139219
0.0223279
0.02227
0.0220839
0.0219297
0.0217921
0.0216042
0.0213192
0.0209238
0.0204312
0.0198701
0.0192734
0.0186693
0.0180762
0.0174971
0.0169253
0.0163634
0.0158847
0.0155587
0.0153608
0.0152354
0.0151368
0.0150377
0.0149312
0.0148163
0.0146919
0.0145557
0.0144054
0.014241
0.0140699
0.0139119
0.0137963
0.0137463
0.0166027
0.0165283
0.0164009
0.0163067
0.0162353
0.0161596
0.0160593
0.015926
0.0157618
0.0155761
0.0153796
0.0151819
0.0149888
0.0148015
0.0146173
0.0144365
0.0142817
0.0141756
0.0141108
0.0140698
0.0140382
0.014007
0.0139737
0.0139378
0.0138991
0.0138567
0.01381
0.0137586
0.0137038
0.0136507
0.0136084
0.0135875
)
;

boundaryField
{
    movingWall
    {
        type            fixedValue;
        value           uniform 0.0135;
    }
    fixedWalls
    {
        type            zeroGradient;
    }
    floor
    {
        type            zeroGradient;
    }
    frontAndBack
    {
        type            empty;
    }
}


// ************************************************************************* //
