/*--------------------------------*- C++ -*----------------------------------*\
| =========                 |                                                 |
| \\      /  F ield         | OpenFOAM: The Open Source CFD Toolbox           |
|  \\    /   O peration     | Version:  2212                                  |
|   \\  /    A nd           | Website:  www.openfoam.com                      |
|    \\/     M anipulation  |                                                 |
\*---------------------------------------------------------------------------*/
FoamFile
{
    version     2.0;
    format      ascii;
    arch        "LSB;label=64;scalar=64";
    class       volScalarField;
    location    "150";
    object      Gh2;
}
// * * * * * * * * * * * * * * * * * * * * * * * * * * * * * * * * * * * * * //

dimensions      [1 -3 0 0 0 0 0];

internalField   nonuniform List<scalar> 
1024
(
1.17726e-05
1.17724e-05
1.1772e-05
1.17713e-05
1.17703e-05
1.17691e-05
1.17676e-05
1.17659e-05
1.17641e-05
1.17621e-05
1.176e-05
1.17577e-05
1.17553e-05
1.17526e-05
1.17497e-05
1.17469e-05
1.17448e-05
1.17436e-05
1.17435e-05
1.17441e-05
1.17453e-05
1.17471e-05
1.17493e-05
1.17518e-05
1.17547e-05
1.17577e-05
1.17604e-05
1.17627e-05
1.17644e-05
1.17656e-05
1.17662e-05
1.17665e-05
1.17726e-05
1.17724e-05
1.1772e-05
1.17712e-05
1.17702e-05
1.17689e-05
1.17674e-05
1.17656e-05
1.17638e-05
1.17618e-05
1.17596e-05
1.17573e-05
1.17548e-05
1.1752e-05
1.17492e-05
1.17464e-05
1.17443e-05
1.17432e-05
1.17431e-05
1.17437e-05
1.17449e-05
1.17466e-05
1.17488e-05
1.17514e-05
1.17543e-05
1.17572e-05
1.176e-05
1.17624e-05
1.17642e-05
1.17654e-05
1.17661e-05
1.17664e-05
1.17725e-05
1.17723e-05
1.17719e-05
1.17711e-05
1.177e-05
1.17686e-05
1.1767e-05
1.17652e-05
1.17632e-05
1.1761e-05
1.17585e-05
1.1756e-05
1.17534e-05
1.17505e-05
1.17476e-05
1.17449e-05
1.1743e-05
1.1742e-05
1.1742e-05
1.17427e-05
1.1744e-05
1.17457e-05
1.17479e-05
1.17505e-05
1.17534e-05
1.17564e-05
1.17593e-05
1.17618e-05
1.17638e-05
1.17651e-05
1.17658e-05
1.17662e-05
1.17725e-05
1.17723e-05
1.17718e-05
1.17709e-05
1.17698e-05
1.17683e-05
1.17665e-05
1.17645e-05
1.17622e-05
1.17596e-05
1.17567e-05
1.17537e-05
1.17507e-05
1.17476e-05
1.17446e-05
1.1742e-05
1.17404e-05
1.17398e-05
1.17401e-05
1.1741e-05
1.17424e-05
1.17442e-05
1.17465e-05
1.1749e-05
1.17519e-05
1.1755e-05
1.17581e-05
1.17609e-05
1.1763e-05
1.17645e-05
1.17654e-05
1.17657e-05
1.17725e-05
1.17722e-05
1.17717e-05
1.17708e-05
1.17696e-05
1.1768e-05
1.1766e-05
1.17637e-05
1.1761e-05
1.17577e-05
1.1754e-05
1.17502e-05
1.17464e-05
1.17427e-05
1.17394e-05
1.1737e-05
1.1736e-05
1.17361e-05
1.17369e-05
1.17383e-05
1.174e-05
1.17421e-05
1.17445e-05
1.17471e-05
1.17501e-05
1.17533e-05
1.17566e-05
1.17596e-05
1.1762e-05
1.17638e-05
1.17647e-05
1.17651e-05
1.17725e-05
1.17722e-05
1.17717e-05
1.17708e-05
1.17694e-05
1.17677e-05
1.17655e-05
1.17628e-05
1.17595e-05
1.17553e-05
1.17504e-05
1.17453e-05
1.17402e-05
1.17355e-05
1.17317e-05
1.17295e-05
1.17293e-05
1.17304e-05
1.17321e-05
1.17343e-05
1.17366e-05
1.17392e-05
1.17419e-05
1.17447e-05
1.17479e-05
1.17513e-05
1.17548e-05
1.17581e-05
1.17608e-05
1.17628e-05
1.17639e-05
1.17644e-05
1.17725e-05
1.17723e-05
1.17717e-05
1.17708e-05
1.17694e-05
1.17675e-05
1.17651e-05
1.17619e-05
1.17579e-05
1.17526e-05
1.17462e-05
1.17392e-05
1.17321e-05
1.17258e-05
1.1721e-05
1.17189e-05
1.17198e-05
1.17223e-05
1.17254e-05
1.17287e-05
1.17321e-05
1.17353e-05
1.17386e-05
1.17419e-05
1.17454e-05
1.1749e-05
1.17528e-05
1.17565e-05
1.17595e-05
1.17617e-05
1.1763e-05
1.17635e-05
1.17726e-05
1.17724e-05
1.17718e-05
1.17709e-05
1.17695e-05
1.17675e-05
1.17648e-05
1.17612e-05
1.17564e-05
1.17499e-05
1.17415e-05
1.1732e-05
1.17223e-05
1.17136e-05
1.17075e-05
1.17055e-05
1.17077e-05
1.1712e-05
1.17168e-05
1.17216e-05
1.17263e-05
1.17306e-05
1.17348e-05
1.17387e-05
1.17427e-05
1.17468e-05
1.1751e-05
1.17549e-05
1.17583e-05
1.17607e-05
1.1762e-05
1.17626e-05
1.17727e-05
1.17725e-05
1.1772e-05
1.17711e-05
1.17697e-05
1.17677e-05
1.17648e-05
1.17608e-05
1.17552e-05
1.17471e-05
1.17364e-05
1.17238e-05
1.17107e-05
1.16992e-05
1.16916e-05
1.16898e-05
1.16936e-05
1.17e-05
1.17068e-05
1.17134e-05
1.17195e-05
1.17252e-05
1.17304e-05
1.17353e-05
1.174e-05
1.17446e-05
1.17493e-05
1.17536e-05
1.17571e-05
1.17597e-05
1.17611e-05
1.17616e-05
1.1773e-05
1.17728e-05
1.17723e-05
1.17714e-05
1.17701e-05
1.17681e-05
1.17651e-05
1.17607e-05
1.17542e-05
1.17444e-05
1.17308e-05
1.17143e-05
1.16973e-05
1.16828e-05
1.16741e-05
1.16732e-05
1.16792e-05
1.16878e-05
1.16966e-05
1.1705e-05
1.17127e-05
1.17197e-05
1.17261e-05
1.17319e-05
1.17374e-05
1.17427e-05
1.17478e-05
1.17524e-05
1.17562e-05
1.17588e-05
1.17602e-05
1.17607e-05
1.17734e-05
1.17732e-05
1.17727e-05
1.17719e-05
1.17707e-05
1.17687e-05
1.17657e-05
1.1761e-05
1.17533e-05
1.17413e-05
1.17241e-05
1.17031e-05
1.16818e-05
1.16648e-05
1.16564e-05
1.16582e-05
1.16673e-05
1.16782e-05
1.16885e-05
1.16981e-05
1.1707e-05
1.17151e-05
1.17224e-05
1.17291e-05
1.17354e-05
1.17413e-05
1.17468e-05
1.17516e-05
1.17554e-05
1.1758e-05
1.17594e-05
1.17599e-05
1.1774e-05
1.17738e-05
1.17733e-05
1.17726e-05
1.17715e-05
1.17697e-05
1.17667e-05
1.17615e-05
1.17524e-05
1.17373e-05
1.17157e-05
1.16896e-05
1.16642e-05
1.16462e-05
1.16408e-05
1.16482e-05
1.1662e-05
1.16748e-05
1.16856e-05
1.16953e-05
1.17043e-05
1.17127e-05
1.17204e-05
1.17276e-05
1.17343e-05
1.17406e-05
1.17464e-05
1.17513e-05
1.1755e-05
1.17575e-05
1.17589e-05
1.17594e-05
1.17749e-05
1.17747e-05
1.17743e-05
1.17736e-05
1.17726e-05
1.17709e-05
1.17677e-05
1.17617e-05
1.17505e-05
1.17315e-05
1.17045e-05
1.1673e-05
1.16446e-05
1.16287e-05
1.16306e-05
1.16477e-05
1.16678e-05
1.16816e-05
1.16912e-05
1.16991e-05
1.17067e-05
1.1714e-05
1.17212e-05
1.1728e-05
1.17345e-05
1.17407e-05
1.17463e-05
1.17509e-05
1.17545e-05
1.17569e-05
1.17582e-05
1.17587e-05
1.17761e-05
1.17759e-05
1.17755e-05
1.17748e-05
1.17737e-05
1.17718e-05
1.1768e-05
1.17604e-05
1.1746e-05
1.1722e-05
1.16889e-05
1.16526e-05
1.16239e-05
1.16146e-05
1.16294e-05
1.16606e-05
1.16882e-05
1.17013e-05
1.17071e-05
1.17113e-05
1.17156e-05
1.17204e-05
1.17258e-05
1.17314e-05
1.17372e-05
1.17428e-05
1.1748e-05
1.17522e-05
1.17554e-05
1.17575e-05
1.17586e-05
1.17591e-05
1.17773e-05
1.17771e-05
1.17767e-05
1.17758e-05
1.17744e-05
1.17716e-05
1.17661e-05
1.17555e-05
1.17363e-05
1.17061e-05
1.16671e-05
1.1628e-05
1.16033e-05
1.1606e-05
1.16383e-05
1.16862e-05
1.17212e-05
1.17313e-05
1.17318e-05
1.17308e-05
1.17306e-05
1.17316e-05
1.17337e-05
1.17369e-05
1.17407e-05
1.17449e-05
1.17489e-05
1.17524e-05
1.17552e-05
1.1757e-05
1.17581e-05
1.17586e-05
1.17781e-05
1.17778e-05
1.17772e-05
1.17758e-05
1.17734e-05
1.17688e-05
1.17601e-05
1.17447e-05
1.17192e-05
1.16824e-05
1.16388e-05
1.16006e-05
1.1584e-05
1.16013e-05
1.16513e-05
1.17142e-05
1.17549e-05
1.17619e-05
1.1758e-05
1.17531e-05
1.17495e-05
1.17472e-05
1.17465e-05
1.17471e-05
1.17489e-05
1.17515e-05
1.17543e-05
1.17567e-05
1.17586e-05
1.176e-05
1.17608e-05
1.17612e-05
1.17778e-05
1.17774e-05
1.17763e-05
1.17741e-05
1.177e-05
1.17627e-05
1.175e-05
1.17289e-05
1.16972e-05
1.16554e-05
1.16102e-05
1.15747e-05
1.15644e-05
1.15905e-05
1.16506e-05
1.17233e-05
1.17702e-05
1.17776e-05
1.17728e-05
1.17669e-05
1.17622e-05
1.17589e-05
1.17568e-05
1.17558e-05
1.17555e-05
1.17558e-05
1.17566e-05
1.17578e-05
1.17591e-05
1.17605e-05
1.17615e-05
1.1762e-05
1.17772e-05
1.17766e-05
1.17749e-05
1.17718e-05
1.17662e-05
1.17567e-05
1.1741e-05
1.17167e-05
1.16824e-05
1.16391e-05
1.15932e-05
1.15554e-05
1.15399e-05
1.15597e-05
1.16175e-05
1.16966e-05
1.17573e-05
1.17757e-05
1.17756e-05
1.17705e-05
1.17646e-05
1.176e-05
1.17571e-05
1.17562e-05
1.17573e-05
1.17599e-05
1.17633e-05
1.17665e-05
1.17684e-05
1.17689e-05
1.17685e-05
1.1768e-05
1.17777e-05
1.17769e-05
1.1775e-05
1.17714e-05
1.17654e-05
1.17556e-05
1.17402e-05
1.1717e-05
1.16846e-05
1.16429e-05
1.15953e-05
1.15492e-05
1.15175e-05
1.15163e-05
1.15568e-05
1.16331e-05
1.1711e-05
1.17535e-05
1.17707e-05
1.1777e-05
1.17788e-05
1.17797e-05
1.17807e-05
1.17818e-05
1.1782e-05
1.17798e-05
1.1774e-05
1.1764e-05
1.1751e-05
1.17379e-05
1.1728e-05
1.17233e-05
1.17798e-05
1.1779e-05
1.17771e-05
1.17738e-05
1.17686e-05
1.17605e-05
1.17481e-05
1.17295e-05
1.17025e-05
1.16656e-05
1.16187e-05
1.15649e-05
1.1514e-05
1.14828e-05
1.14897e-05
1.15421e-05
1.16191e-05
1.16791e-05
1.17145e-05
1.17339e-05
1.17429e-05
1.17444e-05
1.17394e-05
1.17279e-05
1.17097e-05
1.16851e-05
1.16554e-05
1.16241e-05
1.15953e-05
1.15729e-05
1.15594e-05
1.1554e-05
1.1783e-05
1.17822e-05
1.17806e-05
1.1778e-05
1.17741e-05
1.17684e-05
1.176e-05
1.17472e-05
1.17277e-05
1.16985e-05
1.16569e-05
1.16016e-05
1.15374e-05
1.14786e-05
1.14462e-05
1.14568e-05
1.1505e-05
1.15544e-05
1.15852e-05
1.15985e-05
1.15961e-05
1.15804e-05
1.15537e-05
1.15191e-05
1.14798e-05
1.14399e-05
1.14035e-05
1.13742e-05
1.13548e-05
1.13451e-05
1.13421e-05
1.13421e-05
1.17865e-05
1.17858e-05
1.17845e-05
1.17825e-05
1.17798e-05
1.17761e-05
1.1771e-05
1.17632e-05
1.17505e-05
1.17295e-05
1.16957e-05
1.16447e-05
1.15767e-05
1.15012e-05
1.1438e-05
1.14077e-05
1.14168e-05
1.14387e-05
1.14491e-05
1.14442e-05
1.14234e-05
1.13896e-05
1.13477e-05
1.13033e-05
1.12617e-05
1.12273e-05
1.1203e-05
1.11894e-05
1.11854e-05
1.11882e-05
1.11932e-05
1.11966e-05
1.17893e-05
1.17889e-05
1.1788e-05
1.17866e-05
1.17848e-05
1.17824e-05
1.17794e-05
1.17748e-05
1.17666e-05
1.17515e-05
1.17243e-05
1.16789e-05
1.16128e-05
1.15313e-05
1.14506e-05
1.13918e-05
1.13691e-05
1.13667e-05
1.13603e-05
1.13426e-05
1.13129e-05
1.1275e-05
1.12346e-05
1.1197e-05
1.1166e-05
1.11429e-05
1.11277e-05
1.11196e-05
1.11174e-05
1.11193e-05
1.11231e-05
1.1126e-05
1.17892e-05
1.17894e-05
1.17895e-05
1.17891e-05
1.17883e-05
1.17869e-05
1.1785e-05
1.17816e-05
1.1775e-05
1.17617e-05
1.17368e-05
1.16949e-05
1.16322e-05
1.15512e-05
1.1464e-05
1.13897e-05
1.13465e-05
1.13285e-05
1.13139e-05
1.12928e-05
1.12639e-05
1.12307e-05
1.11979e-05
1.11689e-05
1.11449e-05
1.11258e-05
1.11112e-05
1.11011e-05
1.10954e-05
1.10937e-05
1.10946e-05
1.1096e-05
1.17814e-05
1.17829e-05
1.17851e-05
1.17871e-05
1.17881e-05
1.17879e-05
1.17863e-05
1.17823e-05
1.17739e-05
1.17578e-05
1.17302e-05
1.16875e-05
1.16271e-05
1.15502e-05
1.14647e-05
1.13854e-05
1.13314e-05
1.13042e-05
1.12865e-05
1.12672e-05
1.12432e-05
1.12165e-05
1.11903e-05
1.11663e-05
1.11448e-05
1.11255e-05
1.11088e-05
1.10956e-05
1.10866e-05
1.10819e-05
1.10807e-05
1.10812e-05
1.17595e-05
1.17631e-05
1.17689e-05
1.17747e-05
1.17788e-05
1.178e-05
1.17777e-05
1.17707e-05
1.17572e-05
1.17347e-05
1.17009e-05
1.16548e-05
1.15957e-05
1.15245e-05
1.14458e-05
1.13696e-05
1.13129e-05
1.12812e-05
1.12625e-05
1.1246e-05
1.12272e-05
1.12064e-05
1.11854e-05
1.1165e-05
1.11452e-05
1.1126e-05
1.11081e-05
1.10926e-05
1.1081e-05
1.10741e-05
1.10713e-05
1.10711e-05
1.17175e-05
1.17235e-05
1.17333e-05
1.17436e-05
1.17508e-05
1.17528e-05
1.17481e-05
1.17358e-05
1.1715e-05
1.16847e-05
1.16449e-05
1.15961e-05
1.15395e-05
1.14756e-05
1.14068e-05
1.1339e-05
1.12855e-05
1.12534e-05
1.12349e-05
1.1221e-05
1.12067e-05
1.11907e-05
1.1174e-05
1.11571e-05
1.11399e-05
1.11224e-05
1.11051e-05
1.10892e-05
1.10762e-05
1.10677e-05
1.10636e-05
1.10629e-05
1.16518e-05
1.16597e-05
1.16718e-05
1.16839e-05
1.16918e-05
1.16922e-05
1.16836e-05
1.16657e-05
1.16387e-05
1.16034e-05
1.15612e-05
1.15137e-05
1.14624e-05
1.1408e-05
1.1351e-05
1.12945e-05
1.12485e-05
1.12193e-05
1.12023e-05
1.11907e-05
1.11798e-05
1.11679e-05
1.11552e-05
1.11419e-05
1.11281e-05
1.11135e-05
1.10984e-05
1.10838e-05
1.10711e-05
1.10619e-05
1.1057e-05
1.10557e-05
1.15613e-05
1.15692e-05
1.1579e-05
1.15876e-05
1.1592e-05
1.15888e-05
1.15769e-05
1.15562e-05
1.15278e-05
1.14932e-05
1.14544e-05
1.14131e-05
1.13707e-05
1.13276e-05
1.12836e-05
1.124e-05
1.12036e-05
1.11796e-05
1.11654e-05
1.11561e-05
1.11481e-05
1.11397e-05
1.11306e-05
1.11209e-05
1.11107e-05
1.10997e-05
1.10879e-05
1.1076e-05
1.10649e-05
1.10562e-05
1.1051e-05
1.10494e-05
1.14457e-05
1.14504e-05
1.14525e-05
1.14533e-05
1.1452e-05
1.1446e-05
1.14338e-05
1.14152e-05
1.13913e-05
1.13635e-05
1.13334e-05
1.13024e-05
1.12715e-05
1.12409e-05
1.12102e-05
1.11799e-05
1.11542e-05
1.11368e-05
1.11263e-05
1.11196e-05
1.11142e-05
1.11086e-05
1.11027e-05
1.10963e-05
1.10895e-05
1.10822e-05
1.10742e-05
1.10657e-05
1.10573e-05
1.10502e-05
1.10455e-05
1.10438e-05
1.13025e-05
1.13007e-05
1.1295e-05
1.12903e-05
1.12861e-05
1.12803e-05
1.12716e-05
1.12595e-05
1.12443e-05
1.12271e-05
1.12087e-05
1.11901e-05
1.11718e-05
1.11539e-05
1.11362e-05
1.11187e-05
1.11038e-05
1.10935e-05
1.10873e-05
1.10833e-05
1.10801e-05
1.10771e-05
1.10738e-05
1.10703e-05
1.10666e-05
1.10625e-05
1.10581e-05
1.10532e-05
1.10482e-05
1.10436e-05
1.10403e-05
1.10389e-05
1.1127e-05
1.11247e-05
1.11208e-05
1.1118e-05
1.11158e-05
1.11135e-05
1.11104e-05
1.11063e-05
1.11012e-05
1.10955e-05
1.10895e-05
1.10834e-05
1.10774e-05
1.10717e-05
1.1066e-05
1.10603e-05
1.10555e-05
1.10522e-05
1.10501e-05
1.10488e-05
1.10478e-05
1.10468e-05
1.10458e-05
1.10447e-05
1.10436e-05
1.10423e-05
1.10409e-05
1.10394e-05
1.10378e-05
1.10363e-05
1.1035e-05
1.10344e-05
)
;

boundaryField
{
    movingWall
    {
        type            fixedValue;
        value           uniform 1.1032e-05;
    }
    fixedWalls
    {
        type            zeroGradient;
    }
    floor
    {
        type            zeroGradient;
    }
    frontAndBack
    {
        type            empty;
    }
}


// ************************************************************************* //
