/*--------------------------------*- C++ -*----------------------------------*\
| =========                 |                                                 |
| \\      /  F ield         | OpenFOAM: The Open Source CFD Toolbox           |
|  \\    /   O peration     | Version:  2212                                  |
|   \\  /    A nd           | Website:  www.openfoam.com                      |
|    \\/     M anipulation  |                                                 |
\*---------------------------------------------------------------------------*/
FoamFile
{
    version     2.0;
    format      ascii;
    arch        "LSB;label=64;scalar=64";
    class       surfaceScalarField;
    location    "150";
    object      phi;
}
// * * * * * * * * * * * * * * * * * * * * * * * * * * * * * * * * * * * * * //

dimensions      [0 3 -1 0 0 0 0];

oriented        oriented;

internalField   nonuniform List<scalar> 
1984
(
-3.84657e-08
3.84625e-08
-1.52746e-07
1.14281e-07
-2.97673e-07
1.44928e-07
-4.32984e-07
1.35311e-07
-5.41189e-07
1.08205e-07
-6.13114e-07
7.19253e-08
-6.38066e-07
2.49513e-08
-5.93003e-07
-4.50618e-08
-4.50217e-07
-1.42787e-07
-1.96629e-07
-2.53587e-07
1.36801e-07
-3.3343e-07
4.43943e-07
-3.07142e-07
7.16156e-07
-2.72214e-07
9.17675e-07
-2.01518e-07
1.0232e-06
-1.05529e-07
1.01871e-06
4.49584e-09
9.30977e-07
8.77306e-08
8.13695e-07
1.17282e-07
6.91644e-07
1.22052e-07
5.76195e-07
1.15449e-07
4.71384e-07
1.04811e-07
3.7865e-07
9.27346e-08
2.98803e-07
7.9847e-08
2.32599e-07
6.62037e-08
1.80363e-07
5.22354e-08
1.40961e-07
3.94028e-08
1.10131e-07
3.08298e-08
8.08035e-08
2.93274e-08
4.85897e-08
3.22135e-08
1.82981e-08
3.02913e-08
1.35039e-09
1.69476e-08
1.35028e-09
-1.56044e-07
1.94507e-07
-4.92805e-07
4.51041e-07
-8.81866e-07
5.33989e-07
-1.23113e-06
4.84572e-07
-1.49241e-06
3.69487e-07
-1.63999e-06
2.19503e-07
-1.65116e-06
3.61242e-08
-1.48889e-06
-2.07326e-07
-1.10637e-06
-5.25308e-07
-4.62814e-07
-8.97146e-07
3.85064e-07
-1.18131e-06
1.20186e-06
-1.12393e-06
1.94174e-06
-1.01209e-06
2.53907e-06
-7.98853e-07
2.91823e-06
-4.84693e-07
3.01844e-06
-9.57111e-08
2.87226e-06
2.33907e-07
2.60952e-06
3.80028e-07
2.30047e-06
4.31099e-07
1.98428e-06
4.3164e-07
1.68e-06
4.0909e-07
1.3973e-06
3.75434e-07
1.14217e-06
3.3498e-07
9.19012e-07
2.89365e-07
7.30298e-07
2.4095e-07
5.74255e-07
1.95446e-07
4.42128e-07
1.62957e-07
3.20038e-07
1.51416e-07
2.00148e-07
1.52103e-07
9.28402e-08
1.37599e-07
2.18311e-08
8.79565e-08
2.31811e-08
-2.71163e-07
4.6567e-07
-8.04255e-07
9.84133e-07
-1.39116e-06
1.1209e-06
-1.90153e-06
9.94946e-07
-2.26409e-06
7.32043e-07
-2.44043e-06
3.95841e-07
-2.40194e-06
-2.36094e-09
-2.12101e-06
-4.88255e-07
-1.55407e-06
-1.09225e-06
-6.40476e-07
-1.81074e-06
5.74576e-07
-2.39636e-06
1.80283e-06
-2.35219e-06
2.95351e-06
-2.16278e-06
3.94874e-06
-1.79408e-06
4.67445e-06
-1.2104e-06
5.00754e-06
-4.28806e-07
4.93561e-06
3.05842e-07
4.63368e-06
6.81956e-07
4.21585e-06
8.48931e-07
3.74902e-06
8.98476e-07
3.27073e-06
8.87371e-07
2.80293e-06
8.43233e-07
2.36003e-06
7.77881e-07
1.95235e-06
6.9705e-07
1.58629e-06
6.07008e-07
1.26225e-06
5.19481e-07
9.72743e-07
4.52465e-07
7.04824e-07
4.19335e-07
4.51043e-07
4.05884e-07
2.24583e-07
3.64059e-07
6.18961e-08
2.50642e-07
8.50771e-08
-3.30743e-07
7.96414e-07
-9.83736e-07
1.63713e-06
-1.70278e-06
1.83994e-06
-2.32023e-06
1.61239e-06
-2.74325e-06
1.15506e-06
-2.92579e-06
5.78389e-07
-2.84635e-06
-8.18045e-08
-2.48995e-06
-8.44652e-07
-1.81223e-06
-1.76998e-06
-7.4376e-07
-2.8792e-06
6.88963e-07
-3.82908e-06
2.21165e-06
-3.87488e-06
3.68863e-06
-3.63975e-06
5.03159e-06
-3.13705e-06
6.10971e-06
-2.28852e-06
6.75629e-06
-1.0754e-06
6.87961e-06
1.82524e-07
6.65184e-06
9.09728e-07
6.22767e-06
1.2731e-06
5.69596e-06
1.43019e-06
5.10992e-06
1.47341e-06
4.50285e-06
1.4503e-06
3.89747e-06
1.38327e-06
3.31013e-06
1.28439e-06
2.75169e-06
1.16545e-06
2.22687e-06
1.04429e-06
1.73417e-06
9.45166e-07
1.268e-06
8.85507e-07
8.26173e-07
8.4771e-07
4.26856e-07
7.63376e-07
1.25362e-07
5.52136e-07
2.10439e-07
-3.19485e-07
1.1159e-06
-9.98895e-07
2.31654e-06
-1.77952e-06
2.62057e-06
-2.46061e-06
2.29348e-06
-2.92631e-06
1.62077e-06
-3.12601e-06
7.78086e-07
-3.0467e-06
-1.61117e-07
-2.67321e-06
-1.21814e-06
-1.94237e-06
-2.50082e-06
-7.79837e-07
-4.04174e-06
7.78808e-07
-5.38773e-06
2.50199e-06
-5.59806e-06
4.22426e-06
-5.36202e-06
5.83765e-06
-4.75044e-06
7.20589e-06
-3.65676e-06
8.15315e-06
-2.02266e-06
8.51816e-06
-1.8248e-07
8.43601e-06
9.91874e-07
8.08774e-06
1.62137e-06
7.57493e-06
1.943e-06
6.95955e-06
2.0888e-06
6.28121e-06
2.12864e-06
5.56717e-06
2.09731e-06
4.8372e-06
2.01436e-06
4.10535e-06
1.89731e-06
3.38088e-06
1.76877e-06
2.66957e-06
1.65647e-06
1.97558e-06
1.5795e-06
1.30645e-06
1.51684e-06
6.91338e-07
1.37849e-06
2.11316e-07
1.03216e-06
4.21756e-07
-2.5505e-07
1.37095e-06
-8.80322e-07
2.94181e-06
-1.661e-06
3.40124e-06
-2.37665e-06
3.00913e-06
-2.88817e-06
2.13229e-06
-3.13672e-06
1.02664e-06
-3.10363e-06
-1.94205e-07
-2.75311e-06
-1.56866e-06
-1.99228e-06
-3.26164e-06
-7.42839e-07
-5.29118e-06
9.09919e-07
-7.04048e-06
2.77696e-06
-7.46511e-06
4.68898e-06
-7.27403e-06
6.50837e-06
-6.56983e-06
8.08794e-06
-5.23633e-06
9.24893e-06
-3.18365e-06
9.80453e-06
-7.38078e-07
9.86865e-06
9.27754e-07
9.62281e-06
1.86721e-06
9.17301e-06
2.3928e-06
8.58251e-06
2.67929e-06
7.89053e-06
2.82062e-06
7.12305e-06
2.86478e-06
6.29887e-06
2.83854e-06
5.43267e-06
2.76351e-06
4.53699e-06
2.66445e-06
3.62395e-06
2.56951e-06
2.70687e-06
2.49659e-06
1.80544e-06
2.41827e-06
9.66214e-07
2.21771e-06
3.01282e-07
1.69709e-06
7.23037e-07
-1.68027e-07
1.53898e-06
-6.84729e-07
3.45851e-06
-1.41843e-06
4.13494e-06
-2.15048e-06
3.74118e-06
-2.71893e-06
2.70074e-06
-3.04569e-06
1.3534e-06
-3.08663e-06
-1.53268e-07
-2.77054e-06
-1.88476e-06
-1.9726e-06
-4.05958e-06
-6.20851e-07
-6.64293e-06
1.11865e-06
-8.77999e-06
3.09947e-06
-9.44592e-06
5.16645e-06
-9.34101e-06
7.15331e-06
-8.55669e-06
8.89196e-06
-6.97498e-06
1.01874e-05
-4.47911e-06
1.08413e-05
-1.39196e-06
1.0982e-05
7.87008e-07
1.07969e-05
2.05234e-06
1.03941e-05
2.79561e-06
9.83404e-06
3.23935e-06
9.15009e-06
3.50457e-06
8.36141e-06
3.65346e-06
7.48104e-06
3.71891e-06
6.52071e-06
3.72384e-06
5.49365e-06
3.6915e-06
4.4161e-06
3.64706e-06
3.30905e-06
3.60364e-06
2.20572e-06
3.52159e-06
1.17575e-06
3.24768e-06
3.6486e-07
2.50799e-06
1.0879e-06
-8.3249e-08
1.62222e-06
-4.61909e-07
3.83717e-06
-1.11278e-06
4.78581e-06
-1.84562e-06
4.47402e-06
-2.47657e-06
3.3317e-06
-2.89406e-06
1.77089e-06
-3.01195e-06
-3.53775e-08
-2.71847e-06
-2.17824e-06
-1.85963e-06
-4.91842e-06
-3.95743e-07
-8.10681e-06
1.41608e-06
-1.05918e-05
3.48598e-06
-1.15158e-05
5.67441e-06
-1.15294e-05
7.79897e-06
-1.06813e-05
9.66926e-06
-8.84526e-06
1.10613e-05
-5.87115e-06
1.17468e-05
-2.07741e-06
1.18795e-05
6.5424e-07
1.16752e-05
2.25668e-06
1.12553e-05
3.21544e-06
1.06828e-05
3.81189e-06
9.98599e-06
4.20138e-06
9.17544e-06
4.46401e-06
8.2553e-06
4.63906e-06
7.23076e-06
4.74838e-06
6.11202e-06
4.81025e-06
4.91598e-06
4.8431e-06
3.66915e-06
4.85046e-06
2.41924e-06
4.77151e-06
1.26337e-06
4.40354e-06
3.79437e-07
3.39192e-06
1.46733e-06
-1.16476e-08
1.63387e-06
-2.32711e-07
4.05823e-06
-7.65124e-07
5.31823e-06
-1.47619e-06
5.18508e-06
-2.16248e-06
4.01798e-06
-2.66537e-06
2.27377e-06
-2.84357e-06
1.42825e-07
-2.54871e-06
-2.4731e-06
-1.60085e-06
-5.86628e-06
-3.74022e-08
-9.67026e-06
1.8076e-06
-1.24368e-05
3.92851e-06
-1.36367e-05
6.18827e-06
-1.37892e-05
8.40603e-06
-1.2899e-05
1.03791e-05
-1.08184e-05
1.1853e-05
-7.34497e-06
1.25462e-05
-2.77066e-06
1.26212e-05
5.79222e-07
1.23285e-05
2.54944e-06
1.18183e-05
3.72557e-06
1.11683e-05
4.46189e-06
1.04109e-05
4.95882e-06
9.55275e-06
5.32215e-06
8.59006e-06
5.60176e-06
7.51929e-06
5.81914e-06
6.34353e-06
5.98601e-06
5.07589e-06
6.11073e-06
3.74564e-06
6.18071e-06
2.41578e-06
6.10137e-06
1.21385e-06
5.60547e-06
3.4215e-07
4.26362e-06
1.80948e-06
5.46184e-08
1.57925e-06
7.49178e-09
4.10536e-06
-3.41224e-07
5.66694e-06
-9.85058e-07
5.82892e-06
-1.70302e-06
4.73594e-06
-2.2735e-06
2.84425e-06
-2.49343e-06
3.62758e-07
-2.16942e-06
-2.79711e-06
-1.10778e-06
-6.92792e-06
4.82877e-07
-1.12609e-05
2.30051e-06
-1.42545e-05
4.40753e-06
-1.57438e-05
6.65804e-06
-1.60397e-05
8.89289e-06
-1.51339e-05
1.09158e-05
-1.28413e-05
1.24518e-05
-8.88092e-06
1.31502e-05
-3.46913e-06
1.31579e-05
5.71599e-07
1.27478e-05
2.95954e-06
1.21042e-05
4.36917e-06
1.13285e-05
5.23759e-06
1.04681e-05
5.81922e-06
9.5351e-06
6.25511e-06
8.52271e-06
6.61415e-06
7.41881e-06
6.92305e-06
6.21606e-06
7.18876e-06
4.91956e-06
7.40723e-06
3.55928e-06
7.541e-06
2.21565e-06
7.445e-06
1.04782e-06
6.7733e-06
2.66796e-07
5.04464e-06
2.07628e-06
1.31261e-07
1.44799e-06
2.89118e-07
3.9475e-06
2.21027e-07
5.73503e-06
-2.19083e-07
6.26903e-06
-9.13751e-07
5.43061e-06
-1.55843e-06
3.48894e-06
-1.79858e-06
6.02912e-07
-1.43385e-06
-3.16185e-06
-2.73537e-07
-8.08822e-06
1.21436e-06
-1.27488e-05
2.9246e-06
-1.59647e-05
4.89104e-06
-1.77102e-05
7.00256e-06
-1.81512e-05
9.13508e-06
-1.72664e-05
1.1118e-05
-1.48242e-05
1.26759e-05
-1.04388e-05
1.33761e-05
-4.16942e-06
1.33271e-05
6.20664e-07
1.28105e-05
3.4761e-06
1.20391e-05
5.14063e-06
1.11372e-05
6.13946e-06
1.01712e-05
6.78524e-06
9.16476e-06
7.26152e-06
8.11298e-06
7.66594e-06
6.99665e-06
8.03938e-06
5.79645e-06
8.38896e-06
4.50763e-06
8.69606e-06
3.16256e-06
8.88608e-06
1.86446e-06
8.7431e-06
8.029e-07
7.83486e-06
1.73243e-07
5.6743e-06
2.24952e-06
2.10672e-07
1.23732e-06
5.97567e-07
3.56061e-06
8.87628e-07
5.44497e-06
8.49877e-07
6.30678e-06
4.24935e-07
5.85555e-06
-1.40958e-07
4.05483e-06
-4.48522e-07
9.10478e-07
-4.26084e-09
-3.60611e-06
9.89641e-07
-9.08212e-06
2.21436e-06
-1.39735e-05
3.66206e-06
-1.74124e-05
5.2996e-06
-1.93477e-05
7.08128e-06
-1.99329e-05
8.94016e-06
-1.91253e-05
1.07508e-05
-1.66349e-05
1.22662e-05
-1.19541e-05
1.29608e-05
-4.86404e-06
1.28718e-05
7.09684e-07
1.22898e-05
4.05807e-06
1.14472e-05
5.98323e-06
1.04814e-05
7.10525e-06
9.46971e-06
7.79693e-06
8.44368e-06
8.28755e-06
7.39919e-06
8.71042e-06
6.31009e-06
9.12848e-06
5.1458e-06
9.55325e-06
3.89529e-06
9.94656e-06
2.60215e-06
1.01792e-05
1.40274e-06
9.9425e-06
5.12277e-07
8.72532e-06
7.77833e-08
6.10879e-06
2.32731e-06
2.57494e-07
9.79827e-07
8.2466e-07
2.99344e-06
1.44115e-06
4.82849e-06
1.85366e-06
5.89427e-06
1.94518e-06
5.76404e-06
1.79184e-06
4.20817e-06
1.638e-06
1.06432e-06
2.00766e-06
-3.97578e-06
2.67125e-06
-9.74571e-06
3.47685e-06
-1.47791e-05
4.39363e-06
-1.83292e-05
5.4335e-06
-2.03876e-05
6.6337e-06
-2.11331e-05
7.99887e-06
-2.04904e-05
9.46598e-06
-1.8102e-05
1.08556e-05
-1.33437e-05
1.15416e-05
-5.55005e-06
1.14448e-05
8.06485e-07
1.08718e-05
4.63102e-06
1.00745e-05
6.78059e-06
9.17917e-06
8.00056e-06
8.25432e-06
8.72178e-06
7.32341e-06
9.21846e-06
6.37392e-06
9.65991e-06
5.37056e-06
1.01318e-05
4.27612e-06
1.06477e-05
3.08567e-06
1.1137e-05
1.87476e-06
1.13901e-05
8.32318e-07
1.09849e-05
1.91089e-07
9.36655e-06
-1.28307e-08
6.31271e-06
2.31448e-06
2.35497e-07
7.44329e-07
8.31998e-07
2.39694e-06
1.5996e-06
4.06089e-06
2.30751e-06
5.18635e-06
2.82562e-06
5.24593e-06
3.19805e-06
3.83574e-06
3.62491e-06
6.37463e-07
4.10439e-06
-4.45526e-06
4.44488e-06
-1.00862e-05
4.60489e-06
-1.49391e-05
4.68467e-06
-1.8409e-05
4.82733e-06
-2.05303e-05
5.17488e-06
-2.14806e-05
5.81085e-06
-2.11264e-05
6.74615e-06
-1.90373e-05
7.91527e-06
-1.45128e-05
8.67373e-06
-6.30851e-06
8.59323e-06
8.86989e-07
8.18347e-06
5.04077e-06
7.63994e-06
7.32412e-06
7.03675e-06
8.60376e-06
6.40035e-06
9.35818e-06
5.7222e-06
9.89661e-06
4.96953e-06
1.04126e-05
4.09915e-06
1.10022e-05
3.08123e-06
1.16656e-05
1.94365e-06
1.22746e-05
8.48342e-07
1.24854e-05
9.29481e-08
1.17403e-05
-1.80086e-07
9.63958e-06
-1.10727e-07
6.24335e-06
2.20375e-06
1.50285e-07
5.94045e-07
5.91471e-07
1.95575e-06
1.2458e-06
3.40656e-06
1.9688e-06
4.46335e-06
2.68266e-06
4.53207e-06
3.45753e-06
3.06087e-06
4.41648e-06
-3.21495e-07
5.10231e-06
-5.14109e-06
5.12375e-06
-1.01077e-05
4.50323e-06
-1.43186e-05
3.54432e-06
-1.74501e-05
2.57495e-06
-1.95609e-05
1.86929e-06
-2.0775e-05
1.59886e-06
-2.0856e-05
1.8598e-06
-1.92982e-05
2.70325e-06
-1.53563e-05
3.65325e-06
-7.25851e-06
3.99497e-06
5.45273e-07
4.04979e-06
4.98595e-06
4.05524e-06
7.31867e-06
3.99301e-06
8.66599e-06
3.82655e-06
9.52464e-06
3.48263e-06
1.02405e-05
2.88769e-06
1.10075e-05
2.02005e-06
1.18699e-05
9.65386e-07
1.27203e-05
-6.59217e-08
1.33059e-05
-7.86621e-07
1.32061e-05
-9.69359e-07
1.19231e-05
-6.86716e-07
9.35694e-06
-2.46632e-07
5.80327e-06
1.95712e-06
3.41309e-08
5.59914e-07
1.89406e-07
1.80048e-06
5.05359e-07
3.0906e-06
9.74267e-07
3.99444e-06
1.60442e-06
3.90192e-06
2.47218e-06
2.19311e-06
3.48417e-06
-1.33349e-06
3.90229e-06
-5.5592e-06
3.23471e-06
-9.44007e-06
1.57094e-06
-1.26549e-05
-5.83632e-07
-1.52955e-05
-2.70456e-06
-1.744e-05
-4.44582e-06
-1.90337e-05
-5.57455e-06
-1.97273e-05
-5.91595e-06
-1.89568e-05
-5.34093e-06
-1.59313e-05
-4.14262e-06
-8.45682e-06
-2.80714e-06
-7.90209e-07
-1.79222e-06
3.97103e-06
-1.08731e-06
6.61376e-06
-6.47867e-07
8.22655e-06
-5.66317e-07
9.44309e-06
-8.96025e-07
1.05702e-05
-1.59704e-06
1.17085e-05
-2.49699e-06
1.27698e-05
-3.30524e-06
1.35285e-05
-3.68836e-06
1.3689e-05
-3.42315e-06
1.29409e-05
-2.58092e-06
1.10808e-05
-1.44462e-06
8.22064e-06
-4.46801e-07
4.80545e-06
1.51032e-06
-8.85435e-08
6.48458e-07
-2.63268e-07
1.97521e-06
-4.02619e-07
3.22995e-06
-3.87517e-07
3.97934e-06
-1.40455e-07
3.65486e-06
2.75844e-07
1.77681e-06
3.73363e-07
-1.43101e-06
-4.75425e-07
-4.71041e-06
-2.40217e-06
-7.51332e-06
-5.0771e-06
-9.97992e-06
-8.02477e-06
-1.23478e-05
-1.08288e-05
-1.46359e-05
-1.31991e-05
-1.66634e-05
-1.48648e-05
-1.80616e-05
-1.55576e-05
-1.8264e-05
-1.50192e-05
-1.64697e-05
-1.33801e-05
-1.0096e-05
-1.15467e-05
-2.62358e-06
-1.00416e-05
2.4659e-06
-9.09879e-06
5.671e-06
-8.66873e-06
7.79649e-06
-8.67142e-06
9.44578e-06
-8.9572e-06
1.0856e-05
-9.28732e-06
1.20387e-05
-9.37813e-06
1.28606e-05
-8.97278e-06
1.31232e-05
-7.91598e-06
1.26322e-05
-6.23254e-06
1.12575e-05
-4.17094e-06
9.01925e-06
-2.13761e-06
6.1873e-06
-6.12349e-07
3.28019e-06
8.97967e-07
-1.57177e-07
8.05634e-07
-5.24786e-07
2.34281e-06
-9.86431e-07
3.6916e-06
-1.42068e-06
4.41359e-06
-1.78781e-06
4.02199e-06
-2.30951e-06
2.29851e-06
-3.50346e-06
-2.37054e-07
-5.46472e-06
-2.74915e-06
-8.04727e-06
-4.93077e-06
-1.09429e-05
-7.08427e-06
-1.39188e-05
-9.37189e-06
-1.67708e-05
-1.17839e-05
-1.9287e-05
-1.41473e-05
-2.12305e-05
-1.61181e-05
-2.23357e-05
-1.71588e-05
-2.23123e-05
-1.64931e-05
-2.11298e-05
-1.12785e-05
-1.96095e-05
-4.14383e-06
-1.84044e-05
1.26076e-06
-1.76335e-05
4.90007e-06
-1.72015e-05
7.36451e-06
-1.69017e-05
9.14598e-06
-1.6496e-05
1.04503e-05
-1.57565e-05
1.12992e-05
-1.45095e-05
1.16136e-05
-1.26719e-05
1.12856e-05
-1.02801e-05
1.02404e-05
-7.51231e-06
8.48973e-06
-4.69072e-06
6.19767e-06
-2.23795e-06
3.73453e-06
-5.86633e-07
1.62888e-06
3.11334e-07
-1.39258e-07
9.44892e-07
-4.94665e-07
2.69822e-06
-1.03008e-06
4.22702e-06
-1.71775e-06
5.10126e-06
-2.60023e-06
4.90447e-06
-3.88987e-06
3.58815e-06
-5.79789e-06
1.67096e-06
-8.13443e-06
-4.12614e-07
-1.06544e-05
-2.41085e-06
-1.33435e-05
-4.39509e-06
-1.61255e-05
-6.58988e-06
-1.88984e-05
-9.01101e-06
-2.15282e-05
-1.15175e-05
-2.38408e-05
-1.38055e-05
-2.56159e-05
-1.53837e-05
-2.65873e-05
-1.55216e-05
-2.65116e-05
-1.13543e-05
-2.58113e-05
-4.84414e-06
-2.5045e-05
4.94472e-07
-2.43229e-05
4.17805e-06
-2.36081e-05
6.64968e-06
-2.26854e-05
8.22331e-06
-2.13467e-05
9.11158e-06
-1.94558e-05
9.40821e-06
-1.6978e-05
9.13585e-06
-1.3988e-05
8.29556e-06
-1.0668e-05
6.92041e-06
-7.30158e-06
5.1233e-06
-4.23309e-06
3.12917e-06
-1.82759e-06
1.32903e-06
-4.21854e-07
2.23139e-07
-1.1052e-07
-4.79428e-08
9.92836e-07
-2.11608e-07
2.86189e-06
-5.50779e-07
4.56619e-06
-1.14926e-06
5.69974e-06
-2.10188e-06
5.85709e-06
-3.50356e-06
4.98982e-06
-5.3797e-06
3.54711e-06
-7.67621e-06
1.88389e-06
-1.00474e-05
-3.96862e-08
-1.24244e-05
-2.01806e-06
-1.4896e-05
-4.11827e-06
-1.74813e-05
-6.42569e-06
-2.01275e-05
-8.87128e-06
-2.27288e-05
-1.12043e-05
-2.51143e-05
-1.29982e-05
-2.70471e-05
-1.35888e-05
-2.80629e-05
-1.03385e-05
-2.81826e-05
-4.72446e-06
-2.78053e-05
1.17199e-07
-2.71086e-05
3.48136e-06
-2.6124e-05
5.66499e-06
-2.46802e-05
6.77956e-06
-2.26223e-05
7.05367e-06
-1.9888e-05
6.67391e-06
-1.65408e-05
5.78868e-06
-1.2769e-05
4.52374e-06
-8.83398e-06
2.98539e-06
-5.18771e-06
1.47703e-06
-2.37156e-06
3.1302e-07
-7.32065e-07
-3.10459e-07
-9.26467e-08
-4.16278e-07
-2.03166e-07
5.66595e-08
9.36176e-07
1.35661e-07
2.78288e-06
1.24604e-07
4.57725e-06
-1.19341e-07
5.94368e-06
-7.43842e-07
6.48159e-06
-1.82635e-06
6.07233e-06
-3.26108e-06
4.98184e-06
-4.97201e-06
3.59482e-06
-7.03712e-06
2.02542e-06
-9.14832e-06
9.314e-08
-1.12637e-05
-2.00289e-06
-1.35363e-05
-4.15313e-06
-1.60164e-05
-6.39112e-06
-1.86635e-05
-8.55723e-06
-2.13463e-05
-1.03153e-05
-2.38557e-05
-1.10795e-05
-2.55915e-05
-8.60264e-06
-2.63136e-05
-4.00237e-06
-2.62212e-05
2.47582e-08
-2.56419e-05
2.90205e-06
-2.45712e-05
4.59432e-06
-2.29023e-05
5.11071e-06
-2.05289e-05
4.68021e-06
-1.74286e-05
3.57363e-06
-1.37036e-05
2.06373e-06
-9.66162e-06
4.81721e-07
-5.89144e-06
-7.84791e-07
-2.86941e-06
-1.545e-06
-9.01202e-07
-1.65519e-06
-3.08032e-08
-1.18086e-06
9.80247e-08
-5.45106e-07
-1.05141e-07
1.26043e-07
8.10133e-07
3.88094e-07
2.52083e-06
6.60788e-07
4.30455e-06
7.97139e-07
5.80733e-06
6.28839e-07
6.64988e-06
5.63373e-08
6.64483e-06
-8.5106e-07
5.88924e-06
-1.95946e-06
4.70321e-06
-3.26108e-06
3.32704e-06
-4.8922e-06
1.72426e-06
-6.679e-06
-2.16087e-07
-8.55696e-06
-2.27518e-06
-1.07098e-05
-4.23829e-06
-1.31465e-05
-6.12056e-06
-1.5754e-05
-7.70776e-06
-1.83379e-05
-8.49562e-06
-2.0287e-05
-6.65346e-06
-2.12542e-05
-3.03517e-06
-2.13751e-05
1.45668e-07
-2.09347e-05
2.46156e-06
-1.99633e-05
3.62296e-06
-1.84337e-05
3.58111e-06
-1.63313e-05
2.5778e-06
-1.37061e-05
9.48464e-07
-1.08336e-05
-8.08795e-07
-8.04982e-06
-2.30205e-06
-5.57403e-06
-3.26058e-06
-3.52329e-06
-3.59574e-06
-1.91767e-06
-3.26081e-06
-7.56347e-07
-2.34218e-06
-1.35149e-07
-1.1663e-06
-2.4029e-07
1.49007e-07
6.61125e-07
5.01087e-07
2.16875e-06
9.42219e-07
3.86342e-06
1.33364e-06
5.41591e-06
1.5321e-06
6.45143e-06
1.44401e-06
6.73292e-06
1.06221e-06
6.27104e-06
4.90088e-07
5.27533e-06
-1.79182e-07
3.99631e-06
-9.98151e-07
2.54323e-06
-2.24061e-06
1.02638e-06
-3.8408e-06
-6.74991e-07
-5.61662e-06
-2.46247e-06
-7.72434e-06
-4.01284e-06
-1.00379e-05
-5.39417e-06
-1.2347e-05
-6.18654e-06
-1.40897e-05
-4.91081e-06
-1.49644e-05
-2.16047e-06
-1.51398e-05
3.2112e-07
-1.47946e-05
2.11631e-06
-1.40081e-05
2.83645e-06
-1.2847e-05
2.42006e-06
-1.13991e-05
1.1299e-06
-9.87658e-06
-5.74074e-07
-8.46163e-06
-2.22374e-06
-7.12286e-06
-3.64082e-06
-5.74382e-06
-4.63963e-06
-4.28544e-06
-5.05412e-06
-2.77364e-06
-4.77261e-06
-1.35495e-06
-3.76087e-06
-3.37001e-07
-2.18425e-06
-5.77291e-07
1.38271e-07
5.22854e-07
4.99186e-07
1.80783e-06
1.0008e-06
3.36181e-06
1.52722e-06
4.88948e-06
1.95942e-06
6.01923e-06
2.20984e-06
6.4825e-06
2.24982e-06
6.23105e-06
2.11831e-06
5.40684e-06
1.87809e-06
4.23653e-06
1.52038e-06
2.90094e-06
9.79482e-07
1.56727e-06
1.65607e-08
2.87929e-07
-1.4413e-06
-1.00461e-06
-3.21716e-06
-2.23698e-06
-5.1983e-06
-3.41302e-06
-7.18041e-06
-4.20443e-06
-8.61414e-06
-3.47707e-06
-9.26998e-06
-1.50463e-06
-9.33521e-06
3.86344e-07
-8.97196e-06
1.75306e-06
-8.3144e-06
2.17889e-06
-7.50835e-06
1.61401e-06
-6.68975e-06
3.11306e-07
-6.06681e-06
-1.19702e-06
-5.62083e-06
-2.66972e-06
-5.19553e-06
-4.06613e-06
-4.65129e-06
-5.18387e-06
-3.86883e-06
-5.83659e-06
-2.79818e-06
-5.84325e-06
-1.5506e-06
-5.00846e-06
-4.53751e-07
-3.28109e-06
-1.03104e-06
1.07736e-07
4.15118e-07
4.18356e-07
1.49721e-06
8.94405e-07
2.88576e-06
1.45833e-06
4.32555e-06
2.02159e-06
5.45598e-06
2.50695e-06
5.99714e-06
2.86501e-06
5.87299e-06
3.07951e-06
5.19234e-06
3.1567e-06
4.15934e-06
3.08549e-06
2.97215e-06
2.84589e-06
1.80688e-06
2.3435e-06
7.90317e-07
1.47381e-06
-1.34919e-07
2.33187e-07
-9.96354e-07
-1.37895e-06
-1.80089e-06
-3.07198e-06
-2.5114e-06
-4.28687e-06
-2.26218e-06
-4.79517e-06
-9.96326e-07
-4.74577e-06
3.36945e-07
-4.31591e-06
1.32319e-06
-3.68997e-06
1.55295e-06
-3.06527e-06
9.89316e-07
-2.64755e-06
-1.06418e-07
-2.51666e-06
-1.3279e-06
-2.61457e-06
-2.57181e-06
-2.80947e-06
-3.87123e-06
-2.95147e-06
-5.04186e-06
-2.85922e-06
-5.92884e-06
-2.37489e-06
-6.32758e-06
-1.51419e-06
-5.86916e-06
-5.29116e-07
-4.26617e-06
-1.56016e-06
6.0666e-08
3.54453e-07
2.75924e-07
1.28195e-06
6.65805e-07
2.49588e-06
1.20432e-06
3.78703e-06
1.8349e-06
4.82541e-06
2.48589e-06
5.34614e-06
3.08146e-06
5.27743e-06
3.55929e-06
4.71451e-06
3.88175e-06
3.83688e-06
4.02418e-06
2.82972e-06
3.976e-06
1.85505e-06
3.73475e-06
1.03157e-06
3.23475e-06
3.65083e-07
2.46123e-06
-2.22835e-07
1.44104e-06
-7.80702e-07
2.05357e-07
-1.27571e-06
-8.26036e-07
-1.23079e-06
-1.274e-06
-5.48366e-07
-1.21959e-06
2.82538e-07
-8.18353e-07
9.21957e-07
-2.88789e-07
1.02338e-06
2.07457e-07
4.9307e-07
4.34404e-07
-3.33366e-07
3.59036e-07
-1.25254e-06
4.37079e-08
-2.25648e-06
-4.71731e-07
-3.35579e-06
-1.07098e-06
-4.44262e-06
-1.56015e-06
-5.43967e-06
-1.6809e-06
-6.20683e-06
-1.31113e-06
-6.23893e-06
-5.6561e-07
-5.01169e-06
-2.12577e-06
-1.43191e-08
3.68772e-07
6.02519e-08
1.20738e-06
3.35979e-07
2.22015e-06
8.31048e-07
3.29197e-06
1.5054e-06
4.15106e-06
2.28231e-06
4.56923e-06
3.05401e-06
4.50573e-06
3.72363e-06
4.04489e-06
4.228e-06
3.33251e-06
4.5359e-06
2.52182e-06
4.6455e-06
1.74545e-06
4.58045e-06
1.09662e-06
4.34873e-06
5.96806e-07
3.93575e-06
1.90141e-07
3.34961e-06
-1.94561e-07
2.61476e-06
-5.40868e-07
1.94921e-06
-5.65237e-07
1.61775e-06
-2.16903e-07
1.64211e-06
2.58171e-07
1.9413e-06
6.22772e-07
2.33821e-06
6.26469e-07
2.61929e-06
2.11992e-07
2.68547e-06
-3.99546e-07
2.5269e-06
-1.09396e-06
2.14662e-06
-1.8762e-06
1.52991e-06
-2.73908e-06
7.33015e-07
-3.64572e-06
-1.16392e-07
-4.59026e-06
-7.95705e-07
-5.52752e-06
-9.63453e-07
-6.07118e-06
-5.51909e-07
-5.42324e-06
-2.67768e-06
-1.32197e-07
5.00969e-07
-2.28166e-07
1.30335e-06
-6.37375e-08
2.05572e-06
4.11788e-07
2.81644e-06
1.14208e-06
3.42076e-06
2.02534e-06
3.68597e-06
2.92537e-06
3.60569e-06
3.72985e-06
3.24042e-06
4.36948e-06
2.69289e-06
4.81599e-06
2.07531e-06
5.07577e-06
1.48567e-06
5.18069e-06
9.91703e-07
5.16447e-06
6.13028e-07
5.03306e-06
3.21554e-07
4.77668e-06
6.18182e-08
4.40741e-06
-1.71591e-07
4.05732e-06
-2.15154e-07
3.88033e-06
-3.99062e-08
3.91524e-06
2.23259e-07
4.12233e-06
4.15682e-07
4.37702e-06
3.7178e-07
4.52464e-06
6.43742e-08
4.49555e-06
-3.70455e-07
4.2673e-06
-8.65713e-07
3.82194e-06
-1.43085e-06
3.1506e-06
-2.06774e-06
2.28258e-06
-2.7777e-06
1.2767e-06
-3.58438e-06
2.48977e-07
-4.4998e-06
-4.54879e-07
-5.36733e-06
-4.66197e-07
-5.41192e-06
-3.14388e-06
-2.96744e-07
7.97712e-07
-5.4115e-07
1.54776e-06
-4.28625e-07
1.9432e-06
8.73117e-08
2.3005e-06
9.05974e-07
2.6021e-06
1.8825e-06
2.70945e-06
2.87536e-06
2.61284e-06
3.7783e-06
2.33747e-06
4.52844e-06
1.94275e-06
5.1022e-06
1.50155e-06
5.50684e-06
1.08102e-06
5.76968e-06
7.28865e-07
5.92154e-06
4.61166e-07
5.98003e-06
2.63074e-07
5.93937e-06
1.0248e-07
5.8014e-06
-3.36212e-08
5.65334e-06
-6.71004e-08
5.59008e-06
2.33581e-08
5.64804e-06
1.65294e-07
5.80588e-06
2.57844e-07
5.97412e-06
2.03542e-07
6.04212e-06
-3.62901e-09
5.9558e-06
-2.84126e-07
5.69078e-06
-6.00696e-07
5.22401e-06
-9.64077e-07
4.53951e-06
-1.38325e-06
3.63959e-06
-1.87777e-06
2.54933e-06
-2.49412e-06
1.34436e-06
-3.29483e-06
2.37049e-07
-4.26002e-06
-2.83316e-07
-4.89155e-06
-3.42719e-06
-4.6754e-07
1.26525e-06
-6.94568e-07
1.77479e-06
-4.39914e-07
1.68854e-06
2.06004e-07
1.65458e-06
1.12677e-06
1.68133e-06
2.16864e-06
1.66758e-06
3.21695e-06
1.56452e-06
4.18164e-06
1.37278e-06
5.00601e-06
1.11838e-06
5.66505e-06
8.42506e-07
6.15971e-06
5.86367e-07
6.50944e-06
3.79127e-07
6.74121e-06
2.294e-07
6.8777e-06
1.26587e-07
6.92893e-06
5.12496e-08
6.90272e-06
-7.41465e-09
6.85399e-06
-1.83635e-08
6.84998e-06
2.7367e-08
6.91994e-06
9.53286e-08
7.04542e-06
1.32368e-07
7.15846e-06
9.05059e-08
7.17989e-06
-2.50591e-08
7.06849e-06
-1.72726e-07
6.80561e-06
-3.37821e-07
6.36909e-06
-5.27552e-07
5.73719e-06
-7.51343e-07
4.8907e-06
-1.03129e-06
3.81469e-06
-1.4181e-06
2.51962e-06
-1.99976e-06
1.12956e-06
-2.86996e-06
8.83169e-08
-3.85031e-06
-3.33887e-06
-4.22361e-07
1.68761e-06
-7.30185e-08
1.42544e-06
6.42665e-07
9.72859e-07
1.48415e-06
8.131e-07
2.43645e-06
7.29032e-07
3.44722e-06
6.56816e-07
4.43603e-06
5.75711e-07
5.33257e-06
4.76241e-07
6.08777e-06
3.63186e-07
6.67857e-06
2.51704e-07
7.10755e-06
1.57384e-07
7.39749e-06
8.91913e-08
7.58039e-06
4.64997e-08
7.68533e-06
2.16495e-08
7.73099e-06
5.58484e-09
7.72962e-06
-6.04065e-09
7.71564e-06
-4.38208e-09
7.73107e-06
1.19293e-08
7.79329e-06
3.31115e-08
7.88382e-06
4.18426e-08
7.9511e-06
2.3218e-08
7.94359e-06
-1.7547e-08
7.83649e-06
-6.56268e-08
7.61698e-06
-1.18307e-07
7.26855e-06
-1.79123e-07
6.77025e-06
-2.53046e-07
6.09186e-06
-3.52898e-07
5.18461e-06
-5.10855e-07
3.9775e-06
-7.92653e-07
2.41778e-06
-1.31024e-06
7.43087e-07
-2.17561e-06
-2.59579e-06
1.68761e-06
3.11306e-06
4.08592e-06
4.89902e-06
5.62805e-06
6.28486e-06
6.86058e-06
7.33682e-06
7.7e-06
7.95171e-06
8.10909e-06
8.19828e-06
8.24478e-06
8.26643e-06
8.27202e-06
8.26597e-06
8.26159e-06
8.27352e-06
8.30663e-06
8.34848e-06
8.3717e-06
8.35415e-06
8.28852e-06
8.17021e-06
7.99109e-06
7.73805e-06
7.38515e-06
6.87429e-06
6.08164e-06
4.7714e-06
2.59579e-06
)
;

boundaryField
{
    movingWall
    {
        type            calculated;
        value           uniform 0;
    }
    fixedWalls
    {
        type            calculated;
        value           uniform 0;
    }
    floor
    {
        type            calculated;
        value           uniform 0;
    }
    frontAndBack
    {
        type            empty;
        value           nonuniform List<scalar> 0();
    }
}


// ************************************************************************* //
