/*--------------------------------*- C++ -*----------------------------------*\
| =========                 |                                                 |
| \\      /  F ield         | OpenFOAM: The Open Source CFD Toolbox           |
|  \\    /   O peration     | Version:  2212                                  |
|   \\  /    A nd           | Website:  www.openfoam.com                      |
|    \\/     M anipulation  |                                                 |
\*---------------------------------------------------------------------------*/
FoamFile
{
    version     2.0;
    format      ascii;
    arch        "LSB;label=64;scalar=64";
    class       volScalarField;
    location    "150";
    object      Xpr;
}
// * * * * * * * * * * * * * * * * * * * * * * * * * * * * * * * * * * * * * //

dimensions      [1 -3 0 0 0 0 0];

internalField   nonuniform List<scalar> 
1024
(
0.0831239
0.0831242
0.0831248
0.0831259
0.0831273
0.0831292
0.0831314
0.0831338
0.0831364
0.0831392
0.0831423
0.0831456
0.0831492
0.0831531
0.0831572
0.0831613
0.0831644
0.083166
0.0831662
0.0831653
0.0831635
0.083161
0.0831578
0.083154
0.0831499
0.0831456
0.0831416
0.0831383
0.0831358
0.0831341
0.0831331
0.0831327
0.083124
0.0831243
0.0831249
0.083126
0.0831276
0.0831295
0.0831317
0.0831341
0.0831368
0.0831398
0.0831429
0.0831463
0.0831499
0.0831539
0.083158
0.083162
0.0831651
0.0831666
0.0831668
0.0831659
0.0831641
0.0831616
0.0831584
0.0831547
0.0831505
0.0831462
0.0831421
0.0831387
0.0831361
0.0831343
0.0831333
0.0831329
0.0831241
0.0831244
0.0831251
0.0831262
0.0831279
0.0831299
0.0831322
0.0831348
0.0831377
0.0831409
0.0831445
0.0831481
0.083152
0.0831561
0.0831603
0.0831642
0.083167
0.0831683
0.0831683
0.0831673
0.0831655
0.0831629
0.0831597
0.083156
0.0831518
0.0831474
0.0831432
0.0831395
0.0831367
0.0831348
0.0831337
0.0831333
0.0831242
0.0831245
0.0831253
0.0831265
0.0831282
0.0831304
0.0831329
0.0831358
0.0831391
0.0831429
0.0831471
0.0831514
0.0831558
0.0831604
0.0831647
0.0831684
0.0831707
0.0831715
0.0831711
0.0831698
0.0831677
0.0831651
0.0831618
0.0831581
0.0831539
0.0831494
0.0831449
0.0831409
0.0831378
0.0831356
0.0831344
0.0831339
0.0831243
0.0831246
0.0831254
0.0831267
0.0831285
0.0831308
0.0831336
0.083137
0.083141
0.0831457
0.0831511
0.0831565
0.0831621
0.0831674
0.0831722
0.0831756
0.0831771
0.0831769
0.0831757
0.0831737
0.0831712
0.0831682
0.0831648
0.0831609
0.0831566
0.0831519
0.0831471
0.0831428
0.0831392
0.0831367
0.0831353
0.0831347
0.0831244
0.0831247
0.0831255
0.0831268
0.0831287
0.0831312
0.0831344
0.0831383
0.0831431
0.0831491
0.0831562
0.0831636
0.083171
0.0831779
0.0831834
0.0831866
0.0831869
0.0831852
0.0831827
0.0831795
0.0831761
0.0831724
0.0831685
0.0831643
0.0831598
0.0831549
0.0831498
0.083145
0.083141
0.0831381
0.0831365
0.0831358
0.0831244
0.0831247
0.0831255
0.0831268
0.0831288
0.0831315
0.083135
0.0831395
0.0831454
0.083153
0.0831624
0.0831725
0.0831827
0.083192
0.0831989
0.0832019
0.0832006
0.0831969
0.0831924
0.0831876
0.0831828
0.083178
0.0831732
0.0831684
0.0831634
0.0831581
0.0831526
0.0831473
0.0831428
0.0831397
0.0831378
0.0831371
0.0831243
0.0831246
0.0831253
0.0831266
0.0831286
0.0831315
0.0831353
0.0831406
0.0831476
0.083157
0.0831692
0.0831829
0.083197
0.0832096
0.0832184
0.0832214
0.0832182
0.0832119
0.0832049
0.0831979
0.0831912
0.0831848
0.0831788
0.083173
0.0831673
0.0831613
0.0831553
0.0831495
0.0831447
0.0831412
0.0831393
0.0831385
0.083124
0.0831243
0.0831251
0.0831263
0.0831283
0.0831312
0.0831354
0.0831412
0.0831494
0.083161
0.0831765
0.0831949
0.0832138
0.0832305
0.0832415
0.0832441
0.0832386
0.0832293
0.0832194
0.0832099
0.0832009
0.0831927
0.0831851
0.083178
0.0831712
0.0831645
0.0831578
0.0831515
0.0831464
0.0831427
0.0831406
0.0831399
0.0831236
0.0831239
0.0831246
0.0831258
0.0831278
0.0831306
0.0831349
0.0831413
0.0831508
0.083165
0.0831847
0.0832086
0.0832333
0.0832543
0.0832669
0.0832681
0.0832594
0.0832469
0.0832342
0.0832221
0.0832109
0.0832007
0.0831914
0.0831829
0.0831749
0.0831672
0.0831599
0.0831532
0.0831478
0.083144
0.0831419
0.0831411
0.083123
0.0831233
0.083124
0.0831251
0.0831269
0.0831297
0.083134
0.0831409
0.083152
0.0831695
0.0831944
0.0832249
0.0832557
0.0832803
0.0832925
0.08329
0.0832766
0.0832609
0.0832459
0.0832319
0.0832191
0.0832074
0.0831967
0.083187
0.0831779
0.0831693
0.0831614
0.0831544
0.0831489
0.0831452
0.0831431
0.0831423
0.0831221
0.0831224
0.083123
0.0831241
0.0831257
0.0831283
0.0831327
0.0831402
0.0831534
0.0831752
0.0832066
0.0832445
0.0832813
0.0833073
0.0833151
0.0833044
0.0832844
0.0832658
0.0832501
0.083236
0.083223
0.0832109
0.0831996
0.0831892
0.0831795
0.0831703
0.083162
0.0831549
0.0831494
0.0831458
0.0831438
0.0831431
0.0831208
0.0831211
0.0831217
0.0831226
0.0831241
0.0831266
0.0831312
0.0831399
0.0831562
0.0831836
0.0832228
0.0832685
0.0833096
0.0833327
0.0833299
0.0833051
0.0832759
0.0832559
0.0832421
0.0832305
0.0832195
0.0832089
0.0831986
0.0831886
0.0831792
0.0831702
0.0831622
0.0831553
0.0831502
0.0831468
0.0831449
0.0831441
0.083119
0.0831193
0.0831199
0.0831209
0.0831224
0.0831252
0.0831307
0.0831418
0.0831627
0.0831974
0.0832454
0.0832981
0.0833397
0.0833531
0.0833317
0.0832864
0.0832463
0.0832274
0.0832189
0.0832129
0.0832067
0.0831996
0.0831919
0.0831837
0.0831753
0.0831671
0.0831596
0.0831535
0.0831489
0.0831459
0.0831442
0.0831436
0.0831172
0.0831175
0.0831182
0.0831194
0.0831215
0.0831255
0.0831334
0.0831489
0.0831768
0.0832204
0.0832771
0.0833337
0.0833695
0.0833656
0.0833188
0.0832493
0.0831986
0.0831839
0.0831832
0.0831846
0.0831849
0.0831835
0.0831803
0.0831758
0.0831702
0.0831642
0.0831583
0.0831532
0.0831492
0.0831465
0.0831449
0.0831442
0.083116
0.0831164
0.0831174
0.0831194
0.0831229
0.0831296
0.0831421
0.0831646
0.0832015
0.0832549
0.083318
0.0833735
0.0833976
0.0833724
0.0832999
0.0832088
0.0831496
0.0831396
0.0831452
0.0831522
0.0831575
0.0831607
0.0831619
0.0831609
0.0831583
0.0831545
0.0831505
0.0831469
0.0831442
0.0831423
0.083141
0.0831405
0.0831165
0.0831171
0.0831187
0.0831219
0.0831278
0.0831384
0.0831569
0.0831874
0.0832334
0.083294
0.0833596
0.0834111
0.083426
0.0833882
0.083301
0.0831956
0.0831275
0.0831167
0.0831237
0.0831322
0.083139
0.0831438
0.0831468
0.0831483
0.0831487
0.0831482
0.0831471
0.0831454
0.0831434
0.0831415
0.08314
0.0831393
0.0831174
0.0831183
0.0831207
0.0831253
0.0831334
0.0831472
0.0831699
0.0832051
0.083255
0.0833176
0.0833843
0.0834392
0.0834616
0.0834329
0.083349
0.0832343
0.0831462
0.0831195
0.0831197
0.083127
0.0831355
0.0831423
0.0831464
0.0831477
0.0831462
0.0831423
0.0831374
0.0831328
0.08313
0.0831293
0.0831299
0.0831307
0.0831167
0.0831178
0.0831206
0.0831258
0.0831345
0.0831488
0.0831711
0.0832047
0.0832518
0.0833122
0.0833812
0.0834481
0.0834941
0.0834959
0.0834371
0.0833264
0.0832134
0.0831518
0.0831266
0.0831175
0.083115
0.0831136
0.0831121
0.0831105
0.0831103
0.0831134
0.0831219
0.0831364
0.0831552
0.0831743
0.0831886
0.0831955
0.0831137
0.0831149
0.0831176
0.0831223
0.0831298
0.0831416
0.0831596
0.0831866
0.0832257
0.0832793
0.0833474
0.0834253
0.0834992
0.0835445
0.0835345
0.0834585
0.0833467
0.0832596
0.0832083
0.0831801
0.0831671
0.0831648
0.0831721
0.0831887
0.0832152
0.083251
0.083294
0.0833394
0.0833813
0.0834138
0.0834334
0.0834412
0.0831091
0.0831102
0.0831125
0.0831163
0.0831219
0.0831302
0.0831424
0.083161
0.0831892
0.0832315
0.083292
0.0833723
0.0834653
0.0835506
0.0835976
0.0835822
0.0835123
0.0834407
0.083396
0.0833766
0.0833801
0.083403
0.0834417
0.083492
0.083549
0.0836069
0.0836598
0.0837023
0.0837305
0.0837446
0.0837489
0.083749
0.083104
0.0831049
0.0831068
0.0831097
0.0831137
0.083119
0.0831265
0.0831378
0.0831562
0.0831866
0.0832357
0.0833097
0.0834084
0.0835179
0.0836096
0.0836535
0.0836404
0.0836086
0.0835935
0.0836006
0.0836309
0.08368
0.0837409
0.0838054
0.0838657
0.0839157
0.083951
0.0839708
0.0839765
0.0839725
0.0839652
0.0839602
0.0830998
0.0831004
0.0831017
0.0831038
0.0831065
0.0831098
0.0831143
0.083121
0.0831329
0.0831548
0.0831943
0.0832601
0.083356
0.0834743
0.0835914
0.0836767
0.0837097
0.0837131
0.0837225
0.0837481
0.0837913
0.0838463
0.083905
0.0839597
0.0840048
0.0840384
0.0840604
0.0840722
0.0840755
0.0840727
0.0840671
0.0840629
0.0831001
0.0830997
0.0830996
0.0831001
0.0831014
0.0831033
0.0831062
0.083111
0.0831206
0.08314
0.0831761
0.083237
0.083328
0.0834455
0.083572
0.0836799
0.0837425
0.0837687
0.0837899
0.0838204
0.0838624
0.0839107
0.0839583
0.0840005
0.0840355
0.0840633
0.0840845
0.0840992
0.0841074
0.08411
0.0841087
0.0841065
0.0831114
0.0831092
0.0831059
0.0831031
0.0831016
0.0831019
0.0831043
0.0831101
0.0831222
0.0831456
0.0831856
0.0832478
0.0833355
0.083447
0.0835711
0.0836862
0.0837645
0.083804
0.0838296
0.0838577
0.0838926
0.0839313
0.0839694
0.0840043
0.0840356
0.0840637
0.0840879
0.0841072
0.0841203
0.0841272
0.084129
0.0841282
0.0831431
0.083138
0.0831296
0.083121
0.0831151
0.0831133
0.0831167
0.0831269
0.0831465
0.0831793
0.0832282
0.0832953
0.0833811
0.0834844
0.0835986
0.0837092
0.0837915
0.0838375
0.0838646
0.0838885
0.0839158
0.083946
0.0839766
0.0840063
0.084035
0.0840629
0.0840891
0.0841116
0.0841285
0.0841386
0.0841427
0.0841429
0.0832042
0.0831954
0.0831812
0.0831663
0.0831558
0.083153
0.0831598
0.0831776
0.0832078
0.0832518
0.0833097
0.0833805
0.0834628
0.0835555
0.0836553
0.0837538
0.0838313
0.0838779
0.0839047
0.0839249
0.0839457
0.0839689
0.0839932
0.0840177
0.0840427
0.0840682
0.0840934
0.0841166
0.0841355
0.084148
0.0841539
0.084155
0.0832997
0.0832881
0.0832706
0.083253
0.0832416
0.083241
0.0832534
0.0832794
0.0833186
0.0833698
0.0834312
0.0835002
0.0835746
0.0836537
0.0837364
0.0838184
0.0838852
0.0839276
0.0839522
0.0839691
0.0839849
0.0840021
0.0840206
0.0840399
0.08406
0.0840813
0.0841032
0.0841245
0.084143
0.0841564
0.0841636
0.0841654
0.0834312
0.0834195
0.0834054
0.0833929
0.0833866
0.0833911
0.0834084
0.0834385
0.0834797
0.08353
0.0835864
0.0836463
0.0837078
0.0837705
0.0838344
0.0838977
0.0839505
0.0839853
0.0840059
0.0840193
0.0840309
0.0840432
0.0840564
0.0840705
0.0840854
0.0841014
0.0841185
0.0841359
0.084152
0.0841647
0.0841723
0.0841746
0.0835991
0.0835922
0.0835891
0.083588
0.0835899
0.0835986
0.0836164
0.0836432
0.083678
0.0837184
0.0837621
0.0838071
0.083852
0.0838965
0.083941
0.083985
0.0840224
0.0840475
0.0840627
0.0840725
0.0840804
0.0840885
0.0840971
0.0841063
0.0841162
0.0841269
0.0841385
0.0841509
0.0841631
0.0841734
0.0841803
0.0841828
0.0838071
0.0838096
0.0838179
0.0838248
0.0838309
0.0838392
0.0838519
0.0838695
0.0838915
0.0839166
0.0839432
0.0839703
0.0839968
0.0840228
0.0840485
0.0840739
0.0840956
0.0841105
0.0841196
0.0841254
0.0841299
0.0841344
0.0841391
0.0841442
0.0841496
0.0841555
0.084162
0.0841691
0.0841763
0.084183
0.0841879
0.08419
0.084062
0.0840653
0.0840709
0.0840751
0.0840783
0.0840817
0.0840861
0.0840921
0.0840994
0.0841077
0.0841165
0.0841253
0.084134
0.0841424
0.0841507
0.0841588
0.0841658
0.0841707
0.0841736
0.0841755
0.084177
0.0841784
0.0841799
0.0841815
0.0841832
0.084185
0.084187
0.0841892
0.0841916
0.0841938
0.0841956
0.0841965
)
;

boundaryField
{
    movingWall
    {
        type            fixedValue;
        value           uniform 0.0842;
    }
    fixedWalls
    {
        type            zeroGradient;
    }
    floor
    {
        type            zeroGradient;
    }
    frontAndBack
    {
        type            empty;
    }
}


// ************************************************************************* //
