/*--------------------------------*- C++ -*----------------------------------*\
| =========                 |                                                 |
| \\      /  F ield         | OpenFOAM: The Open Source CFD Toolbox           |
|  \\    /   O peration     | Version:  2212                                  |
|   \\  /    A nd           | Website:  www.openfoam.com                      |
|    \\/     M anipulation  |                                                 |
\*---------------------------------------------------------------------------*/
FoamFile
{
    version     2.0;
    format      ascii;
    arch        "LSB;label=64;scalar=64";
    class       volScalarField;
    location    "0.8";
    object      alpha.air;
}
// * * * * * * * * * * * * * * * * * * * * * * * * * * * * * * * * * * * * * //

dimensions      [0 0 0 0 0 0 0];

internalField   nonuniform List<scalar> 
32768
(
3.40618e-118
8.72616e-115
4.10276e-112
8.3853e-110
1.01236e-107
8.4514e-106
5.34733e-104
2.71217e-102
1.14167e-100
4.07472e-99
1.24929e-97
3.31629e-96
7.65661e-95
1.54109e-93
2.7059e-92
4.14143e-91
5.51326e-90
6.36085e-89
6.32677e-88
5.38611e-87
3.88707e-86
2.34812e-85
1.16752e-84
4.67097e-84
1.45777e-83
3.40113e-83
5.58968e-83
5.89312e-83
3.37093e-83
7.58386e-84
5.96108e-85
4.28467e-86
9.82694e-86
6.67426e-85
3.11826e-84
4.23259e-84
2.68347e-84
1.07005e-84
3.78566e-85
1.3138e-85
4.75642e-86
1.88373e-86
8.66718e-87
5.10629e-87
4.47982e-87
6.78562e-87
1.7938e-86
7.55514e-86
4.70293e-85
4.01423e-84
4.20401e-83
4.80776e-82
5.43402e-81
5.64435e-80
5.27579e-79
5.89158e-78
1.86839e-76
9.97731e-75
4.58373e-73
1.50805e-71
2.86229e-70
1.4917e-69
3.54446e-69
5.52407e-69
8.06424e-69
5.77442e-69
3.47756e-69
1.42529e-69
7.77592e-71
2.55555e-72
6.52675e-74
2.46404e-75
6.52035e-76
2.36548e-76
7.34806e-77
2.04134e-77
5.3487e-78
1.36657e-78
3.54432e-79
9.70237e-80
2.92187e-80
1.00217e-80
4.04747e-81
1.98122e-81
1.22004e-81
9.74876e-82
1.00671e-81
1.30411e-81
2.07716e-81
4.13177e-81
1.07693e-80
3.70181e-80
1.39742e-79
3.97267e-79
4.7733e-79
2.83395e-80
5.82693e-82
5.90691e-83
2.88904e-82
6.56353e-82
7.74205e-82
5.61313e-82
2.77328e-82
1.00264e-82
2.78601e-83
6.16164e-84
1.11278e-84
1.6728e-85
2.12392e-86
2.30336e-87
2.15202e-88
1.74343e-89
1.23051e-90
7.59044e-92
4.09961e-93
1.9397e-94
8.033e-96
2.90479e-97
9.12956e-99
2.47437e-100
5.70784e-102
1.09679e-103
1.69515e-105
1.99124e-107
1.62038e-109
7.79139e-112
1.62417e-114
6.11014e-118
7.54125e-113
9.59259e-110
3.2915e-107
5.50553e-105
5.74503e-103
4.28049e-101
2.47205e-99
1.16549e-97
4.63578e-96
1.58775e-94
4.74079e-93
1.24284e-91
2.87141e-90
5.85511e-89
1.0536e-87
1.6706e-86
2.32778e-85
2.83876e-84
3.0133e-83
2.76404e-82
2.17063e-81
1.442e-80
7.97885e-80
3.60256e-79
1.29098e-78
3.53447e-78
7.01629e-78
9.38412e-78
7.60257e-78
3.22875e-78
6.05237e-79
5.40091e-80
8.41928e-81
1.96413e-80
4.53909e-80
3.71893e-80
1.53096e-80
5.08583e-81
1.64032e-81
5.42551e-82
1.92144e-82
7.5727e-83
3.52135e-83
2.13266e-83
1.94671e-83
3.04115e-83
8.0901e-83
3.37514e-82
2.06798e-81
1.72995e-80
1.76905e-79
1.96951e-78
2.16376e-77
2.18408e-76
1.98095e-75
2.13771e-74
6.59225e-73
3.44353e-71
1.54477e-69
4.94827e-68
9.12005e-67
4.66795e-66
1.06977e-65
1.6617e-65
2.42901e-65
1.75278e-65
1.08894e-65
4.49743e-66
2.58944e-67
8.85193e-69
2.34495e-70
8.97828e-72
2.36963e-72
8.81849e-73
2.81778e-73
8.05739e-74
2.17543e-74
5.73195e-75
1.53391e-75
4.33436e-76
1.3487e-76
4.7877e-77
2.00434e-77
1.01748e-77
6.48249e-78
5.33633e-78
5.6633e-78
7.53259e-78
1.22912e-77
2.49514e-77
6.65494e-77
2.433e-76
1.08258e-75
4.31422e-75
1.05847e-74
9.62669e-75
3.41873e-76
4.68705e-77
1.01469e-76
1.46675e-76
1.2599e-76
7.14678e-77
2.89262e-77
8.82839e-78
2.11554e-78
4.10226e-79
6.58678e-80
8.91402e-81
1.03091e-81
1.02989e-82
8.96277e-84
6.83894e-85
4.59797e-86
2.73355e-87
1.44049e-88
6.73681e-90
2.79615e-91
1.02838e-92
3.33892e-94
9.5019e-96
2.34073e-97
4.88911e-99
8.37459e-101
1.11612e-102
1.06509e-104
6.35071e-107
1.84634e-109
1.44863e-112
2.77551e-110
3.16782e-107
1.01059e-104
1.61508e-102
1.65024e-100
1.23126e-98
7.27007e-97
3.57315e-95
1.50884e-93
5.58085e-92
1.8284e-90
5.33711e-89
1.39151e-87
3.24135e-86
6.73701e-85
1.2463e-83
2.04465e-82
2.96059e-81
3.76047e-80
4.1575e-79
3.96165e-78
3.21343e-77
2.18381e-76
1.21819e-75
5.42953e-75
1.8651e-74
4.70093e-74
8.11759e-74
8.71086e-74
5.07535e-74
1.40103e-74
2.28116e-75
6.97696e-76
3.14262e-76
2.06686e-76
9.33403e-77
2.83049e-77
8.13241e-78
2.42137e-78
7.6574e-79
2.64998e-79
1.0368e-79
4.85724e-80
3.00897e-80
2.83159e-80
4.50637e-80
1.19367e-79
4.88853e-79
2.92446e-78
2.38728e-77
2.38716e-76
2.60397e-75
2.80611e-74
2.77637e-73
2.43711e-72
2.37397e-71
6.66466e-70
3.54902e-68
1.63414e-66
5.31534e-65
9.8307e-64
4.98398e-63
1.10175e-62
1.70621e-62
2.49813e-62
1.81699e-62
1.16365e-62
4.82462e-63
2.93605e-64
1.03587e-65
2.81664e-67
1.09077e-68
2.90253e-69
1.10614e-69
3.62355e-70
1.06262e-70
2.9451e-71
7.97212e-72
2.19301e-72
6.37272e-73
2.04146e-73
7.47316e-74
3.23115e-74
1.69492e-74
1.11359e-74
9.416e-75
1.02371e-74
1.3932e-74
2.32085e-74
4.78771e-74
1.29348e-73
4.88524e-73
2.4011e-72
1.17517e-71
4.1182e-71
7.89409e-71
5.86256e-71
6.10481e-72
1.38062e-72
1.30117e-72
8.39932e-73
3.66036e-73
1.15219e-73
2.76067e-74
5.23823e-75
8.10816e-76
1.04739e-76
1.1495e-77
1.08704e-78
8.95692e-80
6.48784e-81
4.16015e-82
2.37454e-83
1.21164e-84
5.54489e-86
2.28085e-87
8.44243e-89
2.81092e-90
8.39734e-92
2.23742e-93
5.25673e-95
1.06774e-96
1.8153e-98
2.45364e-100
2.42986e-102
1.5412e-104
4.89676e-107
4.34211e-110
6.62118e-108
7.38838e-105
2.26969e-102
3.48738e-100
3.44488e-98
2.50977e-96
1.46563e-94
7.22736e-93
3.10839e-91
1.18859e-89
4.08362e-88
1.26684e-86
3.55379e-85
9.00827e-84
2.05883e-82
4.2286e-81
7.77157e-80
1.27125e-78
1.83863e-77
2.3325e-76
2.57013e-75
2.4302e-74
1.9422e-73
1.28646e-72
6.88298e-72
2.87552e-71
8.97542e-71
1.97363e-70
2.82467e-70
2.40269e-70
1.13641e-70
2.97032e-71
5.65496e-72
1.65154e-72
4.74977e-73
1.32373e-73
3.1875e-74
8.15797e-75
2.27199e-75
6.91297e-76
2.34443e-76
9.12006e-77
4.30842e-77
2.72995e-77
2.64369e-77
4.27658e-77
1.12837e-76
4.54787e-76
2.66469e-75
2.12787e-74
2.0834e-73
2.22724e-72
2.35347e-71
2.28243e-70
1.94541e-69
1.73036e-68
4.37273e-67
2.35959e-65
1.1128e-63
3.67293e-62
6.82402e-61
3.43645e-60
7.31182e-60
1.12856e-59
1.65474e-59
1.21349e-59
8.01001e-60
3.32082e-60
2.1475e-61
7.96259e-63
2.26308e-64
8.7504e-66
2.27246e-66
8.83339e-67
2.96171e-67
8.88943e-68
2.52287e-68
6.99633e-69
1.97155e-69
5.86728e-70
1.9255e-70
7.22828e-71
3.20774e-71
1.72721e-71
1.16226e-71
1.00231e-71
1.10782e-71
1.52982e-71
2.5777e-71
5.34379e-71
1.43799e-70
5.43744e-70
2.79157e-69
1.53004e-68
6.44765e-68
1.64382e-67
2.12026e-67
1.29815e-67
3.3028e-68
3.7719e-69
1.43641e-69
5.02386e-70
1.30408e-70
2.60645e-71
4.16045e-72
5.45898e-73
6.02454e-74
5.6938e-75
4.67472e-76
3.37221e-77
2.15661e-78
1.23157e-79
6.31792e-81
2.92592e-82
1.22824e-83
4.6884e-85
1.63087e-86
5.1729e-88
1.49351e-89
3.9037e-91
9.13395e-93
1.87493e-94
3.26484e-96
4.57059e-98
4.72459e-100
3.13653e-102
1.03768e-104
9.38651e-108
2.43183e-105
2.65505e-102
7.9011e-100
1.17217e-97
1.11795e-95
7.88296e-94
4.47574e-92
2.15951e-90
9.15717e-89
3.48136e-87
1.19949e-85
3.76364e-84
1.07669e-82
2.80531e-81
6.64013e-80
1.42273e-78
2.74702e-77
4.75335e-76
7.3227e-75
9.96307e-74
1.18566e-72
1.21941e-71
1.06816e-70
7.82676e-70
4.68502e-69
2.22054e-68
8.00038e-68
2.07966e-67
3.62085e-67
3.80651e-67
2.16134e-67
6.68554e-68
1.61437e-68
3.44594e-69
6.59006e-70
1.3161e-70
2.71514e-71
6.41064e-72
1.7014e-72
5.0375e-73
1.6867e-73
6.56097e-74
3.14012e-74
2.0429e-74
2.04068e-74
3.36308e-74
8.87969e-74
3.54599e-73
2.04939e-72
1.60895e-71
1.54498e-70
1.61623e-69
1.66925e-68
1.58164e-67
1.31105e-66
1.09914e-65
2.56961e-64
1.37361e-62
6.47974e-61
2.13232e-59
3.93612e-58
1.97031e-57
4.02161e-57
6.18172e-57
9.07076e-57
6.70738e-57
4.56228e-57
1.88375e-57
1.2958e-58
5.04269e-60
1.50249e-61
5.84614e-63
1.4561e-63
5.74792e-64
1.96856e-64
6.03495e-65
1.74943e-65
4.95292e-66
1.42356e-66
4.31558e-67
1.44177e-67
5.51008e-68
2.48945e-68
1.36392e-68
9.31304e-69
8.11108e-69
9.01731e-69
1.24884e-68
2.1012e-68
4.31294e-68
1.1337e-67
4.16284e-67
2.1278e-66
1.21873e-65
5.57015e-65
1.57969e-64
2.36765e-64
1.88854e-64
8.63833e-65
2.42364e-65
4.26143e-66
5.31116e-67
8.41009e-68
1.45581e-68
2.07408e-69
2.46301e-70
2.48659e-71
2.17149e-72
1.66276e-73
1.12784e-74
6.83174e-76
3.72151e-77
1.83368e-78
8.21432e-80
3.35975e-81
1.25898e-82
4.33271e-84
1.37053e-85
3.97832e-87
1.0539e-88
2.51837e-90
5.3151e-92
9.56764e-94
1.38977e-95
1.49322e-97
1.02983e-99
3.52618e-102
3.26444e-105
9.91327e-103
1.04942e-99
3.02772e-97
4.35552e-95
4.02964e-93
2.75873e-91
1.52315e-89
7.1636e-88
2.97051e-86
1.10863e-84
3.76582e-83
1.17012e-81
3.32986e-80
8.66924e-79
2.0597e-77
4.44994e-76
8.70385e-75
1.53311e-73
2.41691e-72
3.38497e-71
4.17308e-70
4.47749e-69
4.12351e-68
3.20316e-67
2.05162e-66
1.05194e-65
4.14902e-65
1.19588e-64
2.35156e-64
2.91534e-64
2.03874e-64
8.41961e-65
2.11202e-65
3.77306e-66
6.05798e-67
1.00793e-67
1.90765e-68
4.30725e-69
1.11292e-69
3.25241e-70
1.08632e-70
4.25988e-71
2.07963e-71
1.39674e-71
1.44404e-71
2.43121e-71
6.45292e-71
2.56867e-70
1.47335e-69
1.14222e-68
1.07749e-67
1.10219e-66
1.11028e-65
1.02531e-64
8.26454e-64
6.66593e-63
1.4846e-61
7.73747e-60
3.57963e-58
1.15655e-56
2.09962e-55
1.04572e-54
2.03952e-54
3.11869e-54
4.57473e-54
3.41046e-54
2.38926e-54
9.77926e-55
7.1616e-56
2.92066e-57
9.10626e-59
3.56315e-60
8.4465e-61
3.37002e-61
1.1744e-61
3.66192e-62
1.07926e-62
3.10468e-63
9.05537e-64
2.7807e-64
9.39657e-65
3.62946e-65
1.6559e-65
9.14943e-66
6.27932e-66
5.4673e-66
6.04601e-66
8.29616e-66
1.37559e-65
2.75557e-65
6.95271e-65
2.41719e-64
1.18456e-63
6.7473e-63
3.13913e-62
9.06719e-62
1.3895e-61
1.1648e-61
5.85695e-62
1.9295e-62
4.46174e-63
7.62585e-64
9.97688e-65
1.02355e-65
9.61212e-67
9.08237e-68
8.46288e-69
7.05535e-70
5.2314e-71
3.46489e-72
2.06209e-73
1.10953e-74
5.42657e-76
2.42402e-77
9.92836e-79
3.74057e-80
1.29925e-81
4.16319e-83
1.22844e-84
3.31879e-86
8.11081e-88
1.75476e-89
3.24343e-91
4.84345e-93
5.35484e-95
3.80353e-97
1.34271e-99
1.28307e-102
3.50344e-100
3.59025e-97
1.00538e-94
1.40577e-92
1.26524e-90
8.4319e-89
4.53484e-87
2.07957e-85
8.41981e-84
3.07396e-82
1.02375e-80
3.12681e-79
8.7711e-78
2.25772e-76
5.32034e-75
1.14393e-73
2.23466e-72
3.94616e-71
6.26178e-70
8.86485e-69
1.10982e-67
1.21577e-66
1.15034e-65
9.24789e-65
6.18628e-64
3.35343e-63
1.42414e-62
4.51976e-62
1.00488e-61
1.46386e-61
1.29704e-61
6.1984e-62
1.64937e-62
2.72647e-63
4.06461e-64
6.24092e-65
1.1448e-65
2.55242e-66
6.5561e-67
1.91951e-67
6.46853e-68
2.58059e-68
1.29487e-68
9.03024e-69
9.69303e-69
1.67098e-68
4.47448e-68
1.78361e-67
1.01981e-66
7.83204e-66
7.26937e-65
7.2724e-64
7.14108e-63
6.42115e-62
5.03235e-61
3.94288e-60
8.50699e-59
4.29012e-57
1.92578e-55
6.05475e-54
1.07409e-52
5.33197e-52
9.89459e-52
1.50311e-51
2.20127e-51
1.65406e-51
1.19267e-51
4.81434e-52
3.75591e-53
1.60251e-54
5.21779e-56
2.0517e-57
4.5912e-58
1.84154e-58
6.50226e-59
2.05292e-59
6.12145e-60
1.77991e-60
5.23866e-61
1.61952e-61
5.49845e-62
2.13083e-62
9.73995e-63
5.38184e-63
3.67986e-63
3.1734e-63
3.45561e-63
4.64621e-63
7.50213e-63
1.44774e-62
3.45253e-62
1.11126e-61
5.06355e-61
2.77629e-60
1.26934e-59
3.5657e-59
5.27748e-59
4.33001e-59
2.17754e-59
7.34429e-60
1.78216e-60
3.28414e-61
4.7921e-62
5.70152e-63
5.65606e-64
4.75448e-65
3.4499e-66
2.32998e-67
1.48899e-68
9.15822e-70
5.34102e-71
2.84684e-72
1.38856e-73
6.22323e-75
2.57033e-76
9.80378e-78
3.4581e-79
1.1281e-80
3.39582e-82
9.3745e-84
2.34387e-85
5.19201e-87
9.83082e-89
1.50449e-90
1.7057e-92
1.24387e-94
4.51777e-97
4.45896e-100
1.00805e-97
9.99639e-95
2.71504e-92
3.687e-90
3.22541e-88
2.09018e-86
1.09351e-84
4.8805e-83
1.92481e-81
6.85356e-80
2.22976e-78
6.66616e-77
1.83444e-75
4.64355e-74
1.07895e-72
2.29408e-71
4.44605e-70
7.8171e-69
1.23992e-67
1.7627e-66
2.22817e-65
2.48035e-64
2.40248e-63
1.99453e-62
1.39166e-61
7.95676e-61
3.60865e-60
1.24701e-59
3.1613e-59
5.36176e-59
5.50029e-59
3.09276e-59
8.72326e-60
1.45184e-60
2.12067e-61
3.21212e-62
5.95533e-63
1.34592e-63
3.50119e-64
1.04147e-64
3.58036e-65
1.46634e-65
7.61994e-66
5.54776e-66
6.19861e-66
1.09615e-65
2.97e-65
1.18981e-64
6.80327e-64
5.18791e-63
4.74403e-62
4.64428e-61
4.44622e-60
3.89231e-59
2.96587e-58
2.26662e-57
4.77359e-56
2.32188e-54
1.00608e-52
3.06326e-51
5.28879e-50
2.62299e-49
4.61093e-49
6.94782e-49
1.0144e-48
7.68129e-49
5.69604e-49
2.25591e-49
1.87587e-50
8.35976e-52
2.83696e-53
1.12058e-54
2.34808e-55
9.41482e-56
3.35425e-56
1.06768e-56
3.20603e-57
9.37593e-58
2.77008e-58
8.57261e-59
2.9062e-59
1.12249e-59
5.1042e-60
2.79955e-60
1.89262e-60
1.60403e-60
1.7058e-60
2.22759e-60
3.47098e-60
6.39467e-60
1.42817e-59
4.20079e-59
1.74153e-58
8.95189e-58
3.91827e-57
1.03846e-56
1.43964e-56
1.11978e-56
5.43434e-57
1.8008e-57
4.36858e-58
8.17543e-59
1.22748e-59
1.52396e-60
1.60096e-61
1.44788e-62
1.14192e-63
7.92804e-65
4.87894e-66
2.6927e-67
1.38369e-68
6.67668e-70
3.05614e-71
1.34613e-72
5.57927e-74
2.14828e-75
7.67258e-77
2.54072e-78
7.78225e-80
2.19075e-81
5.59517e-83
1.26763e-84
2.45699e-86
3.85179e-88
4.477e-90
3.35128e-92
1.25195e-94
1.2753e-97
2.37804e-95
2.27703e-92
5.98245e-90
7.86769e-88
6.66972e-86
4.18988e-84
2.12555e-82
9.20392e-81
3.52505e-79
1.22063e-77
3.86936e-76
1.12966e-74
3.04352e-73
7.56374e-72
1.73068e-70
3.63561e-69
6.9862e-68
1.22271e-66
1.93881e-65
2.76788e-64
3.53111e-63
3.98811e-62
3.94187e-61
3.36272e-60
2.43319e-59
1.46263e-58
7.14358e-58
2.71048e-57
7.53583e-57
1.43733e-56
1.71136e-56
1.09628e-56
3.41701e-57
6.00183e-58
8.929e-59
1.39803e-59
2.70417e-60
6.32308e-61
1.69243e-61
5.17905e-62
1.83471e-62
7.77866e-63
4.21594e-63
3.21955e-63
3.75182e-63
6.81611e-63
1.87348e-62
7.56527e-62
4.33688e-61
3.28947e-60
2.9665e-59
2.84332e-58
2.65461e-57
2.26241e-56
1.67586e-55
1.25157e-54
2.5821e-53
1.20928e-51
5.04267e-50
1.48197e-48
2.48237e-47
1.23326e-46
2.04465e-46
3.05044e-46
4.43401e-46
3.38336e-46
2.57814e-46
9.97033e-47
8.83984e-48
4.10925e-49
1.451e-50
5.75822e-52
1.12136e-52
4.46916e-53
1.60066e-53
5.11734e-54
1.5412e-54
4.5139e-55
1.3327e-55
4.10868e-56
1.38352e-56
5.29581e-57
2.3813e-57
1.28842e-57
8.55834e-58
7.0841e-58
7.30971e-58
9.20787e-58
1.37504e-57
2.40292e-57
4.99799e-57
1.33371e-56
4.95668e-56
2.33817e-55
9.59781e-55
2.34736e-54
2.99147e-54
2.16963e-54
1.00021e-54
3.20494e-55
7.6303e-56
1.41901e-56
2.14111e-57
2.69827e-58
2.90333e-59
2.71222e-60
2.22763e-61
1.62417e-62
1.05895e-63
6.20817e-65
3.28509e-66
1.57279e-67
6.86773e-69
2.79049e-70
1.06223e-71
3.94335e-73
1.41244e-74
4.75005e-76
1.48319e-77
4.26203e-79
1.11172e-80
2.57328e-82
5.09836e-84
8.1768e-86
9.7353e-88
7.47824e-90
2.87401e-92
3.02219e-95
4.70683e-93
4.33659e-90
1.09822e-87
1.39397e-85
1.1416e-83
6.9331e-82
3.40295e-80
1.42711e-78
5.30089e-77
1.78335e-75
5.50398e-74
1.56828e-72
4.13459e-71
1.00827e-69
2.27032e-68
4.70729e-67
8.95585e-66
1.55694e-64
2.46121e-63
3.51787e-62
4.5152e-61
5.161e-60
5.20298e-59
4.57535e-58
3.45714e-57
2.19024e-56
1.12992e-55
4.58024e-55
1.39561e-54
2.97643e-54
3.99171e-54
2.93285e-54
1.04057e-54
1.98147e-55
3.10452e-56
5.20324e-57
1.07532e-57
2.64298e-58
7.37688e-59
2.34763e-59
8.64633e-60
3.82351e-60
2.17511e-60
1.74892e-60
2.12855e-60
3.97785e-60
1.11166e-59
4.53628e-59
2.6123e-58
1.97324e-57
1.75592e-56
1.64804e-55
1.5005e-54
1.24459e-53
8.95815e-53
6.54469e-52
1.32564e-50
5.96906e-49
2.38921e-47
6.75661e-46
1.09455e-44
5.46161e-44
8.50521e-44
1.25376e-43
1.8119e-43
1.39342e-43
1.09022e-43
4.10041e-44
3.87642e-45
1.878e-46
6.89172e-48
2.7502e-49
4.94464e-50
1.94791e-50
6.99187e-51
2.23831e-51
6.73921e-52
1.96999e-52
5.79144e-53
1.77184e-53
5.90104e-54
2.2283e-54
9.85998e-55
5.23617e-55
3.40039e-55
2.7356e-55
2.72517e-55
3.29384e-55
4.68933e-55
7.73615e-55
1.4932e-54
3.60039e-54
1.18749e-53
5.05197e-53
1.91171e-52
4.24111e-52
4.90983e-52
3.29276e-52
1.4313e-52
4.39842e-53
1.01886e-53
1.86607e-54
2.8018e-55
3.54471e-56
3.85871e-57
3.67184e-58
3.09115e-59
2.32353e-60
1.57052e-61
9.59736e-63
5.32403e-64
2.68857e-65
1.237e-66
5.17264e-68
1.95399e-69
6.7036e-71
2.25251e-72
7.49145e-74
2.36712e-75
6.93497e-77
1.84943e-78
4.38227e-80
8.8947e-82
1.4624e-83
1.78671e-85
1.41069e-87
5.58615e-90
6.07326e-93
7.97106e-91
7.04454e-88
1.71477e-85
2.09568e-83
1.65477e-81
9.70096e-80
4.60139e-78
1.86701e-76
6.71839e-75
2.19301e-73
6.57871e-72
1.82575e-70
4.6992e-69
1.12169e-67
2.47927e-66
5.06171e-65
9.51513e-64
1.64078e-62
2.58444e-61
3.70124e-60
4.79268e-59
5.56694e-58
5.73583e-57
5.17528e-56
4.02462e-55
2.64731e-54
1.43864e-53
6.24675e-53
2.05983e-52
4.81429e-52
7.24716e-52
6.1394e-52
2.53073e-52
5.31085e-53
9.05055e-54
1.66816e-54
3.74895e-55
9.80701e-56
2.88688e-56
9.64354e-57
3.72094e-57
1.72774e-57
1.03734e-57
8.80723e-58
1.12038e-57
2.15599e-57
6.13807e-57
2.53645e-56
1.46946e-55
1.10617e-54
9.71328e-54
8.92421e-53
7.91991e-52
6.38842e-51
4.46408e-50
3.19291e-49
6.36098e-48
2.7492e-46
1.05332e-44
2.85685e-43
4.46018e-42
2.2404e-41
3.26599e-41
4.74569e-41
6.80982e-41
5.27993e-41
4.23831e-41
1.54595e-41
1.55749e-42
7.8621e-44
2.99687e-45
1.20468e-46
1.98882e-47
7.70183e-48
2.76399e-48
8.84101e-49
2.65485e-49
7.72635e-50
2.25583e-50
6.82923e-51
2.2423e-51
8.32317e-52
3.61041e-52
1.87443e-52
1.18541e-52
9.23416e-53
8.84733e-53
1.02189e-52
1.38133e-52
2.1436e-52
3.83053e-52
8.33017e-52
2.42205e-51
9.15139e-51
3.14346e-50
6.24438e-50
6.5228e-50
4.02696e-50
1.6441e-50
4.82774e-51
1.08394e-51
1.94717e-52
2.89594e-53
3.65976e-54
4.0082e-55
3.86127e-56
3.30913e-57
2.54489e-58
1.76807e-59
1.11546e-60
6.41571e-62
3.3736e-63
1.62364e-64
7.14021e-66
2.84943e-67
1.01478e-68
3.22809e-70
1.03312e-71
3.24225e-73
9.61547e-75
2.61699e-76
6.35023e-78
1.32218e-79
2.2327e-81
2.80542e-83
2.28214e-85
9.33457e-88
1.05193e-90
1.17307e-88
9.91706e-86
2.31501e-83
2.71893e-81
2.06653e-79
1.16758e-77
5.34272e-76
2.09328e-74
7.28137e-73
2.30067e-71
6.69305e-70
1.80555e-68
4.52981e-67
1.05725e-65
2.29299e-64
4.61202e-63
8.58031e-62
1.47127e-60
2.31401e-59
3.31965e-58
4.31608e-57
5.04701e-56
5.2625e-55
4.84133e-54
3.87773e-53
2.65265e-52
1.51035e-51
6.92242e-51
2.44226e-50
6.23185e-50
1.05115e-49
1.0288e-49
4.98724e-50
1.17417e-50
2.23578e-51
4.62735e-52
1.14555e-52
3.2222e-53
1.01005e-53
3.56958e-54
1.45249e-54
7.12356e-55
4.53484e-55
4.07302e-55
5.41723e-55
1.07422e-54
3.12064e-54
1.308e-53
7.63033e-53
5.72472e-52
4.95739e-51
4.45444e-50
3.84913e-49
3.01529e-48
2.04273e-47
1.43119e-46
2.8086e-45
1.16269e-43
4.25053e-42
1.10155e-40
1.6508e-39
8.35955e-39
1.13823e-38
1.62589e-38
2.31349e-38
1.80935e-38
1.4889e-38
5.26144e-39
5.64026e-40
2.96848e-41
1.17574e-42
4.77388e-44
7.20803e-45
2.72887e-45
9.77566e-46
3.1204e-46
9.33248e-47
2.69997e-47
7.81634e-48
2.33725e-48
7.54886e-49
2.74731e-49
1.16495e-49
5.89503e-50
3.61973e-50
2.72265e-50
2.50183e-50
2.75284e-50
3.52195e-50
5.12618e-50
8.46409e-50
1.65765e-49
4.22403e-49
1.39894e-48
4.3104e-48
7.59809e-48
7.13217e-48
4.04515e-48
1.54905e-48
4.34085e-49
9.43324e-50
1.65928e-50
2.43975e-51
3.07287e-52
3.37715e-53
3.284e-54
2.85569e-55
2.23875e-56
1.59226e-57
1.03243e-58
6.12609e-60
3.33548e-61
1.66843e-62
7.65684e-64
3.20452e-65
1.20527e-66
3.96212e-68
1.24271e-69
3.85612e-71
1.15069e-72
3.18707e-74
7.91799e-76
1.69343e-77
2.94337e-79
3.81338e-81
3.20499e-83
1.35799e-85
1.59082e-88
1.51491e-86
1.22232e-83
2.7309e-81
3.07665e-79
2.24691e-77
1.22136e-75
5.38248e-74
2.03316e-72
6.82759e-71
2.0865e-69
5.88525e-68
1.54406e-66
3.78077e-65
8.64369e-64
1.84216e-62
3.64962e-61
6.69959e-60
1.1355e-58
1.77008e-57
2.52738e-56
3.28894e-55
3.87519e-54
4.09455e-53
3.8355e-52
3.14109e-51
2.2098e-50
1.30569e-49
6.28645e-49
2.36649e-48
6.57374e-48
1.23915e-47
1.4015e-47
8.046e-48
2.16476e-48
4.71311e-49
1.11283e-49
3.0638e-50
9.3499e-51
3.14695e-51
1.18446e-51
5.112e-52
2.66186e-52
1.80315e-52
1.71476e-52
2.38396e-52
4.87341e-52
1.44631e-51
6.15543e-51
3.6166e-50
2.70265e-49
2.30495e-48
2.02221e-47
1.69844e-46
1.28949e-45
8.45241e-45
5.80281e-44
1.12289e-42
4.44079e-41
1.5434e-39
3.80575e-38
5.44993e-37
2.78208e-36
3.53632e-36
4.95074e-36
6.97522e-36
5.50587e-36
4.64054e-36
1.59102e-36
1.8095e-37
9.94684e-39
4.09993e-40
1.68819e-41
2.32572e-42
8.55907e-43
3.05815e-43
9.73925e-44
2.90015e-44
8.33705e-45
2.39186e-45
7.05905e-46
2.23998e-46
7.97982e-47
3.30124e-47
1.62471e-47
9.66503e-48
7.00499e-48
6.16022e-48
6.44124e-48
7.77861e-48
1.0592e-47
1.61295e-47
2.84152e-47
6.32271e-47
1.81607e-46
4.9658e-46
7.71406e-46
6.49409e-46
3.38293e-46
1.21529e-46
3.25044e-47
6.83656e-48
1.17717e-48
1.71029e-49
2.14516e-50
2.36328e-51
2.31673e-52
2.04097e-53
1.62816e-54
1.18306e-55
7.86623e-57
4.80306e-58
2.70013e-59
1.39923e-60
6.67628e-62
2.91703e-63
1.15157e-64
3.99827e-66
1.25925e-67
3.92662e-69
1.18645e-70
3.35359e-72
8.55002e-74
1.88301e-75
3.37789e-77
4.52511e-79
3.94044e-81
1.73433e-83
2.11775e-86
1.72765e-84
1.32795e-81
2.83498e-79
3.05946e-77
2.14448e-75
1.12059e-73
4.75453e-72
1.73202e-70
5.62065e-69
1.66378e-67
4.55658e-66
1.16308e-64
2.77473e-63
6.1883e-62
1.28907e-60
2.50419e-59
4.52717e-58
7.59187e-57
1.17503e-55
1.66982e-54
2.16697e-53
2.55188e-52
2.7059e-51
2.5581e-50
2.12922e-49
1.53538e-48
9.39172e-48
4.73838e-47
1.89794e-46
5.72151e-46
1.20184e-45
1.56571e-45
1.06902e-45
3.35237e-46
8.51049e-47
2.31953e-47
7.15695e-48
2.38983e-48
8.69939e-49
3.50728e-49
1.61378e-49
8.96193e-50
6.47619e-50
6.52055e-50
9.46898e-50
1.99558e-49
6.05439e-49
2.61741e-48
1.5481e-47
1.15063e-46
9.64328e-46
8.24021e-45
6.70961e-44
4.92288e-43
3.11378e-42
2.09452e-41
3.99759e-40
1.50538e-38
4.95312e-37
1.15659e-35
1.57465e-34
8.08325e-34
9.60844e-34
1.31402e-33
1.83004e-33
1.45874e-33
1.25802e-33
4.20559e-34
5.04984e-35
2.90891e-36
1.25173e-37
5.25634e-39
6.60294e-40
2.34761e-40
8.36625e-41
2.66073e-41
7.89523e-42
2.25688e-42
6.42069e-43
1.8709e-43
5.83168e-44
2.0317e-44
8.18942e-45
3.91373e-45
2.25194e-45
1.57042e-45
1.31971e-45
1.30881e-45
1.48862e-45
1.89238e-45
2.65352e-45
4.20209e-45
8.14538e-45
2.01083e-44
4.82971e-44
6.57952e-44
4.96614e-44
2.37847e-44
8.02542e-45
2.05093e-45
4.17847e-46
7.047e-47
1.01197e-47
1.26406e-48
1.39569e-49
1.37875e-50
1.22982e-51
9.97536e-53
7.39816e-54
5.03847e-55
3.16161e-56
1.83236e-57
9.8202e-59
4.86174e-60
2.21221e-61
9.13725e-63
3.34104e-64
1.07735e-65
3.43209e-67
1.06051e-68
3.07426e-70
8.06248e-72
1.8315e-73
3.3968e-75
4.7147e-77
4.26322e-79
1.95369e-81
2.49256e-84
1.74796e-82
1.27805e-79
2.60435e-77
2.69033e-75
1.80928e-73
9.08924e-72
3.71459e-70
1.30584e-68
4.0966e-67
1.17409e-65
3.1174e-64
7.72779e-63
1.79566e-61
3.91633e-60
8.00179e-59
1.52484e-57
2.70322e-56
4.44779e-55
6.76917e-54
9.49119e-53
1.22027e-51
1.43042e-50
1.51787e-49
1.44487e-48
1.21956e-47
8.99203e-47
5.6797e-46
2.99466e-45
1.27247e-44
4.14864e-44
9.66518e-44
1.44427e-43
1.17461e-43
4.37869e-44
1.31686e-44
4.18041e-45
1.45634e-45
5.36638e-46
2.12671e-46
9.23232e-47
4.5504e-47
2.70544e-47
2.08847e-47
2.22431e-47
3.37005e-47
7.31901e-47
2.2702e-46
9.96579e-46
5.92529e-45
4.36956e-44
3.58716e-43
2.9752e-42
2.34029e-41
1.65302e-40
1.00534e-39
6.62134e-39
1.24529e-37
4.44696e-36
1.3785e-34
3.03196e-33
3.9026e-32
2.00247e-31
2.23556e-31
2.97665e-31
4.08905e-31
3.29246e-31
2.90203e-31
9.5537e-32
1.20226e-32
7.29702e-34
3.29623e-35
1.42288e-36
1.63158e-37
5.56312e-38
1.97909e-38
6.29955e-39
1.86684e-39
5.31497e-40
1.50134e-40
4.32323e-41
1.32422e-41
4.51171e-42
1.7713e-42
8.21475e-43
4.56833e-43
3.06288e-43
2.45732e-43
2.30817e-43
2.46783e-43
2.92313e-43
3.76859e-43
5.36147e-43
9.04082e-43
1.90403e-42
3.97772e-42
4.73769e-42
3.20957e-42
1.41605e-42
4.49656e-43
1.09982e-43
2.17354e-44
3.59431e-45
5.1058e-46
6.35499e-47
7.03483e-48
7.00399e-49
6.3253e-50
5.21553e-51
3.94653e-52
2.75156e-53
1.77319e-54
1.05863e-55
5.86188e-57
3.00771e-58
1.42326e-59
6.13912e-61
2.3577e-62
7.92803e-64
2.60474e-65
8.25778e-67
2.45943e-68
6.64787e-70
1.5611e-71
3.0003e-73
4.32449e-75
4.06949e-77
1.94583e-79
2.59916e-82
1.57181e-80
1.09219e-77
2.1229e-75
2.09816e-73
1.35346e-71
6.53619e-70
2.57291e-68
8.7282e-67
2.64728e-65
7.35136e-64
1.89659e-62
4.58183e-61
1.03872e-59
2.20527e-58
4.3861e-57
8.15652e-56
1.41293e-54
2.27501e-53
3.39657e-52
4.68722e-51
5.95363e-50
6.92466e-49
7.32804e-48
6.99828e-47
5.9682e-46
4.4832e-45
2.91335e-44
1.59905e-43
7.17753e-43
2.51913e-42
6.47821e-42
1.10526e-41
1.07015e-41
4.83841e-42
1.74158e-42
6.49049e-43
2.57385e-43
1.05576e-43
4.58424e-44
2.15389e-44
1.14239e-44
7.29483e-45
6.0174e-45
6.76852e-45
1.06825e-44
2.38862e-44
7.57021e-44
3.37021e-43
2.0094e-42
1.465e-41
1.17291e-40
9.39917e-40
7.10891e-39
4.80992e-38
2.80003e-37
1.80268e-36
3.33205e-35
1.1226e-33
3.26013e-32
6.71326e-31
8.1214e-30
4.11943e-29
4.34889e-29
5.62126e-29
7.59553e-29
6.17657e-29
5.55656e-29
1.83173e-29
2.39145e-30
1.5425e-31
7.38146e-33
3.31361e-34
3.47668e-35
1.12566e-35
4.00225e-36
1.27869e-36
3.79425e-37
1.07857e-37
3.03224e-38
8.64814e-39
2.60769e-39
8.69903e-40
3.32858e-40
1.49828e-40
8.05136e-41
5.18806e-41
3.97155e-41
3.52919e-41
3.54066e-41
3.90033e-41
4.61612e-41
5.89623e-41
8.64193e-41
1.54363e-40
2.77891e-40
2.89013e-40
1.7612e-40
7.17732e-41
2.15017e-41
5.04432e-42
9.68724e-43
1.57304e-43
2.21298e-44
2.74707e-45
3.05081e-46
3.06271e-47
2.80118e-48
2.34823e-49
1.81284e-50
1.2937e-51
8.55934e-53
5.2617e-54
3.00859e-55
1.59878e-56
7.8609e-58
3.53694e-59
1.42434e-60
5.0179e-62
1.70975e-63
5.59157e-65
1.71842e-66
4.80354e-68
1.16925e-69
2.3341e-71
3.50088e-73
3.43519e-75
1.71708e-77
2.40597e-80
1.25849e-78
8.30422e-76
1.53882e-73
1.45457e-71
8.99699e-70
4.17504e-68
1.5823e-66
5.17823e-65
1.51856e-63
4.08742e-62
1.02426e-60
2.40493e-59
5.29632e-58
1.10023e-56
2.14343e-55
3.87504e-54
6.52246e-53
1.02268e-51
1.49146e-50
2.01765e-49
2.52286e-48
2.90256e-47
3.05485e-46
2.91929e-45
2.50855e-44
1.91391e-43
1.27508e-42
7.2563e-42
3.42461e-41
1.28703e-40
3.63344e-40
7.0399e-40
8.09619e-40
4.51666e-40
1.97407e-40
8.70868e-41
3.94795e-41
1.81497e-41
8.69295e-42
4.44307e-42
2.54755e-42
1.75166e-42
1.54305e-42
1.82928e-42
3.00163e-42
6.90038e-42
2.23149e-41
1.00523e-40
5.98838e-40
4.29532e-39
3.33451e-38
2.56651e-37
1.85525e-36
1.19489e-35
6.6196e-35
4.15325e-34
7.50772e-33
2.3713e-31
6.409e-30
1.22701e-28
1.38719e-27
6.82982e-27
6.87814e-27
8.61246e-27
1.14074e-26
9.358e-27
8.57763e-27
2.90575e-27
3.8866e-28
2.70066e-29
1.38942e-30
6.55364e-32
6.30415e-33
1.91893e-33
6.82929e-34
2.19867e-34
6.55927e-35
1.86912e-35
5.24978e-36
1.4882e-36
4.43038e-37
1.45017e-37
5.41587e-38
2.36797e-38
1.22995e-38
7.61676e-39
5.56153e-39
4.67073e-39
4.38904e-39
4.48727e-39
4.86716e-39
5.57773e-39
7.10206e-39
1.07137e-38
1.64804e-38
1.49727e-38
8.23314e-39
3.1093e-39
8.81324e-40
1.98802e-40
3.71759e-41
5.9379e-42
8.28439e-43
1.02679e-43
1.14501e-44
1.1598e-45
1.07479e-46
9.16297e-48
7.21808e-49
5.27231e-50
3.58083e-51
2.26602e-52
1.3375e-53
7.35777e-55
3.75669e-56
1.76178e-57
7.43124e-59
2.74648e-60
9.73901e-62
3.30094e-63
1.0511e-64
3.04807e-66
7.70887e-68
1.60133e-69
2.50323e-71
2.56484e-73
1.34205e-75
1.97531e-78
8.96342e-77
5.61433e-74
9.91579e-72
8.96196e-70
5.31349e-68
2.36824e-66
8.63556e-65
2.72398e-63
7.71594e-62
2.01077e-60
4.88723e-59
1.114e-57
2.39776e-56
4.87805e-55
9.14029e-54
1.59447e-52
2.59964e-51
3.96283e-50
5.63941e-49
7.4728e-48
9.19007e-47
1.0446e-45
1.09177e-44
1.04219e-43
9.00718e-43
6.96642e-42
4.74857e-41
2.79566e-40
1.38371e-39
5.54801e-39
1.70945e-38
3.7394e-38
5.08598e-38
3.53962e-38
1.90147e-38
1.01378e-38
5.38375e-39
2.80355e-39
1.47089e-39
8.09249e-40
5.04251e-40
3.73812e-40
3.51182e-40
4.37738e-40
7.45119e-40
1.75765e-39
5.78722e-39
2.62901e-38
1.55706e-37
1.09172e-36
8.15746e-36
5.98549e-35
4.10402e-34
2.4964e-33
1.30664e-32
7.94868e-32
1.39416e-30
4.09577e-29
1.02214e-27
1.80465e-26
1.89813e-25
8.81759e-25
8.5503e-25
1.03629e-24
1.34029e-24
1.10643e-24
1.03068e-24
3.7258e-25
5.04435e-26
3.84695e-27
2.1408e-28
1.06412e-29
9.53823e-31
2.71732e-31
9.70473e-32
3.1652e-32
9.54662e-33
2.7416e-33
7.73201e-34
2.18889e-34
6.45953e-35
2.08107e-35
7.60247e-36
3.23322e-36
1.62428e-36
9.6684e-37
6.73161e-37
5.3377e-37
4.68883e-37
4.43881e-37
4.40408e-37
4.52463e-37
5.00375e-37
6.35779e-37
8.29733e-37
6.59782e-37
3.28667e-37
1.15456e-37
3.10627e-38
6.75535e-39
1.23285e-39
1.94054e-40
2.68912e-41
3.33197e-42
3.73462e-43
3.81979e-44
3.58867e-45
3.11266e-46
2.50256e-47
1.87115e-48
1.3045e-49
8.49664e-51
5.17558e-52
2.94633e-53
1.56141e-54
7.62765e-56
3.36719e-57
1.30647e-58
4.83373e-60
1.70402e-61
5.64014e-63
1.70096e-64
4.47766e-66
9.69169e-68
1.5808e-69
1.69318e-71
9.28506e-74
1.43736e-76
5.67676e-75
3.37372e-72
5.67717e-70
4.9045e-68
2.78639e-66
1.19242e-64
4.18212e-63
1.27098e-61
3.47409e-60
8.74829e-59
2.05764e-57
4.55545e-56
9.63221e-55
1.87518e-53
3.37825e-52
5.68795e-51
8.98263e-50
1.33089e-48
1.84717e-47
2.39571e-46
2.89464e-45
3.24622e-44
3.36349e-43
3.20083e-42
2.77575e-41
2.1706e-40
1.50943e-39
9.16373e-39
4.73903e-38
2.01899e-37
6.75722e-37
1.65834e-36
2.65232e-36
2.31008e-36
1.53543e-36
1.00172e-36
6.33411e-37
3.84132e-37
2.29414e-37
1.39903e-37
9.23751e-38
7.1061e-38
7.09199e-38
9.25723e-38
1.63088e-37
3.93744e-37
1.31595e-36
6.00068e-36
3.51033e-35
2.38615e-34
1.70029e-33
1.17828e-32
7.5912e-32
4.31915e-31
2.11678e-30
1.23859e-29
2.0836e-28
5.63848e-27
1.28696e-25
2.07465e-24
2.02761e-23
8.51393e-23
8.01391e-23
9.40552e-23
1.1836e-22
9.79202e-23
9.22483e-23
3.74835e-23
5.09695e-24
4.30813e-25
2.60623e-26
1.37879e-27
1.18114e-28
3.15008e-29
1.13279e-29
3.76774e-30
1.15697e-30
3.37114e-31
9.60809e-32
2.73268e-32
8.03561e-33
2.5585e-33
9.16987e-34
3.80049e-34
1.84837e-34
1.05771e-34
7.0193e-35
5.24906e-35
4.30097e-35
3.76001e-35
3.40504e-35
3.1337e-35
3.01047e-35
3.21829e-35
3.54479e-35
2.47517e-35
1.12215e-35
3.6818e-36
9.43469e-37
1.98382e-37
3.54181e-38
5.50484e-39
7.58933e-40
9.41329e-41
1.06161e-41
1.09732e-42
1.04579e-43
9.23231e-45
7.57775e-46
5.80031e-47
4.15073e-48
2.78217e-49
1.7485e-50
1.02971e-51
5.66162e-53
2.8795e-54
1.32945e-55
5.41697e-57
2.09475e-58
7.69958e-60
2.65513e-61
8.3424e-63
2.28889e-64
5.1675e-66
8.80219e-68
9.86349e-70
5.67328e-72
9.24501e-75
3.18944e-73
1.79854e-70
2.88365e-68
2.38086e-66
1.29564e-64
5.32032e-63
1.79332e-61
5.24629e-60
1.38256e-58
3.36083e-57
7.64177e-56
1.64314e-54