/*--------------------------------*- C++ -*----------------------------------*\
| =========                 |                                                 |
| \\      /  F ield         | OpenFOAM: The Open Source CFD Toolbox           |
|  \\    /   O peration     | Version:  2212                                  |
|   \\  /    A nd           | Website:  www.openfoam.com                      |
|    \\/     M anipulation  |                                                 |
\*---------------------------------------------------------------------------*/
FoamFile
{
    version     2.0;
    format      ascii;
    arch        "LSB;label=64;scalar=64";
    class       volVectorField;
    location    "0.2";
    object      U;
}
// * * * * * * * * * * * * * * * * * * * * * * * * * * * * * * * * * * * * * //

dimensions      [0 1 -1 0 0 0 0];

internalField   nonuniform List<vector> 
32768
(
(-1.37683e-05 3.31937e-05 0)
(-5.12845e-05 4.6027e-05 0)
(-8.30522e-05 4.19376e-05 0)
(-0.000104188 3.67007e-05 0)
(-0.000118018 3.36381e-05 0)
(-0.000128543 3.21671e-05 0)
(-0.000137841 3.14019e-05 0)
(-0.000146696 3.08695e-05 0)
(-0.000155345 3.03855e-05 0)
(-0.000163851 2.98866e-05 0)
(-0.000172234 2.93516e-05 0)
(-0.000180503 2.8773e-05 0)
(-0.000188666 2.81484e-05 0)
(-0.000196727 2.74793e-05 0)
(-0.000204669 2.67665e-05 0)
(-0.00021249 2.59992e-05 0)
(-0.000220203 2.51799e-05 0)
(-0.000227788 2.43106e-05 0)
(-0.000235235 2.33864e-05 0)
(-0.000242536 2.24066e-05 0)
(-0.000249678 2.1371e-05 0)
(-0.000256642 2.02788e-05 0)
(-0.000263409 1.91294e-05 0)
(-0.000269954 1.79217e-05 0)
(-0.000276249 1.66536e-05 0)
(-0.000282269 1.53231e-05 0)
(-0.000287986 1.39275e-05 0)
(-0.000293369 1.24659e-05 0)
(-0.000298381 1.09382e-05 0)
(-0.000302982 9.33992e-06 0)
(-0.000307127 7.66281e-06 0)
(-0.000310774 5.92064e-06 0)
(-0.000313851 4.12872e-06 0)
(-0.000316306 2.28152e-06 0)
(-0.000318137 3.8547e-07 0)
(-0.000319326 -1.54581e-06 0)
(-0.00031986 -3.5061e-06 0)
(-0.00031974 -5.4772e-06 0)
(-0.000318878 -7.43691e-06 0)
(-0.000317241 -9.41416e-06 0)
(-0.000314866 -1.13981e-05 0)
(-0.00031173 -1.33727e-05 0)
(-0.000307765 -1.53302e-05 0)
(-0.000302968 -1.72928e-05 0)
(-0.000297392 -1.92359e-05 0)
(-0.000290954 -2.11357e-05 0)
(-0.000283653 -2.3021e-05 0)
(-0.000275575 -2.48627e-05 0)
(-0.000266624 -2.66285e-05 0)
(-0.00025681 -2.8363e-05 0)
(-0.000246237 -3.00355e-05 0)
(-0.000234869 -3.16231e-05 0)
(-0.000222729 -3.31363e-05 0)
(-0.000209868 -3.45595e-05 0)
(-0.000196316 -3.58883e-05 0)
(-0.000182128 -3.71107e-05 0)
(-0.000167335 -3.82176e-05 0)
(-0.000151986 -3.92113e-05 0)
(-0.00013616 -4.00863e-05 0)
(-0.000119904 -4.08284e-05 0)
(-0.000103257 -4.14436e-05 0)
(-8.62892e-05 -4.19365e-05 0)
(-6.9084e-05 -4.22859e-05 0)
(-5.17572e-05 -4.24304e-05 0)
(-3.44051e-05 -4.23529e-05 0)
(-1.71186e-05 -4.21057e-05 0)
(-1.80134e-09 -4.17366e-05 0)
(1.68791e-05 -4.12497e-05 0)
(3.3501e-05 -4.06426e-05 0)
(4.97963e-05 -3.99257e-05 0)
(6.57045e-05 -3.90862e-05 0)
(8.11878e-05 -3.81323e-05 0)
(9.61884e-05 -3.70614e-05 0)
(0.000110669 -3.58814e-05 0)
(0.000124586 -3.45979e-05 0)
(0.000137929 -3.32245e-05 0)
(0.000150587 -3.17859e-05 0)
(0.000162522 -3.02472e-05 0)
(0.000173785 -2.86271e-05 0)
(0.000184333 -2.69454e-05 0)
(0.000194138 -2.52103e-05 0)
(0.000203186 -2.34267e-05 0)
(0.000211471 -2.16017e-05 0)
(0.000218991 -1.9741e-05 0)
(0.000225763 -1.78499e-05 0)
(0.000231821 -1.59502e-05 0)
(0.000237073 -1.40637e-05 0)
(0.000241531 -1.21414e-05 0)
(0.000245307 -1.02019e-05 0)
(0.000248389 -8.26449e-06 0)
(0.000250776 -6.3317e-06 0)
(0.000252478 -4.40253e-06 0)
(0.000253512 -2.47821e-06 0)
(0.000253889 -5.65092e-07 0)
(0.00025364 1.32718e-06 0)
(0.000252789 3.16953e-06 0)
(0.000251354 4.95449e-06 0)
(0.000249395 6.67183e-06 0)
(0.000246969 8.31451e-06 0)
(0.000244128 9.88513e-06 0)
(0.000240934 1.13847e-05 0)
(0.000237413 1.28034e-05 0)
(0.000233561 1.41477e-05 0)
(0.000229396 1.54331e-05 0)
(0.000224971 1.66727e-05 0)
(0.000220348 1.78633e-05 0)
(0.000215544 1.89953e-05 0)
(0.000210564 2.00697e-05 0)
(0.000205423 2.10882e-05 0)
(0.000200136 2.20537e-05 0)
(0.000194719 2.29653e-05 0)
(0.000189171 2.38229e-05 0)
(0.000183498 2.46342e-05 0)
(0.000177727 2.53975e-05 0)
(0.000171839 2.61076e-05 0)
(0.000165834 2.6775e-05 0)
(0.000159727 2.73974e-05 0)
(0.000153505 2.79762e-05 0)
(0.000147167 2.85145e-05 0)
(0.000140703 2.90176e-05 0)
(0.000134092 2.95048e-05 0)
(0.000127263 3.00395e-05 0)
(0.000119974 3.08119e-05 0)
(0.000111456 3.22988e-05 0)
(9.96037e-05 3.54014e-05 0)
(8.03265e-05 4.07861e-05 0)
(5.01187e-05 4.51665e-05 0)
(1.35738e-05 3.27062e-05 0)
(-9.98077e-06 8.75778e-05 0)
(-3.87283e-05 0.000101899 0)
(-4.79231e-05 6.39969e-05 0)
(-4.00698e-05 3.12958e-05 0)
(-2.2098e-05 1.41598e-05 0)
(2.23522e-07 7.13739e-06 0)
(2.38863e-05 4.66009e-06 0)
(4.77783e-05 3.86355e-06 0)
(7.15092e-05 3.63495e-06 0)
(9.49131e-05 3.6096e-06 0)
(0.000117895 3.67933e-06 0)
(0.000140381 3.81313e-06 0)
(0.000162306 3.99994e-06 0)
(0.0001836 4.23447e-06 0)
(0.000204203 4.51327e-06 0)
(0.000224052 4.82167e-06 0)
(0.000243086 5.15619e-06 0)
(0.000261253 5.51091e-06 0)
(0.000278497 5.87506e-06 0)
(0.000294769 6.2411e-06 0)
(0.000310021 6.60108e-06 0)
(0.000324212 6.94656e-06 0)
(0.000337301 7.26892e-06 0)
(0.000349254 7.55916e-06 0)
(0.000360038 7.80702e-06 0)
(0.000369626 8.00219e-06 0)
(0.000377989 8.13416e-06 0)
(0.000385109 8.19295e-06 0)
(0.000390963 8.16875e-06 0)
(0.000395518 8.05214e-06 0)
(0.000398775 7.84153e-06 0)
(0.000400746 7.52622e-06 0)
(0.00040143 7.10796e-06 0)
(0.000400822 6.58086e-06 0)
(0.000398918 5.95335e-06 0)
(0.000395731 5.2388e-06 0)
(0.000391291 4.44347e-06 0)
(0.000385632 3.57506e-06 0)
(0.000378781 2.64704e-06 0)
(0.000370769 1.63259e-06 0)
(0.000361625 5.37994e-07 0)
(0.000351387 -6.29355e-07 0)
(0.000340106 -1.85986e-06 0)
(0.000327827 -3.1694e-06 0)
(0.000314588 -4.53962e-06 0)
(0.00030044 -5.94789e-06 0)
(0.000285433 -7.41059e-06 0)
(0.000269605 -8.90389e-06 0)
(0.000253016 -1.03951e-05 0)
(0.000235718 -1.19114e-05 0)
(0.000217752 -1.34224e-05 0)
(0.000199176 -1.49048e-05 0)
(0.000180041 -1.63586e-05 0)
(0.000160396 -1.77623e-05 0)
(0.000140294 -1.91064e-05 0)
(0.000119781 -2.0374e-05 0)
(9.89064e-05 -2.15506e-05 0)
(7.77199e-05 -2.26307e-05 0)
(5.62643e-05 -2.36046e-05 0)
(3.45873e-05 -2.44584e-05 0)
(1.27424e-05 -2.5195e-05 0)
(-9.22007e-06 -2.58127e-05 0)
(-3.12657e-05 -2.62675e-05 0)
(-5.34386e-05 -2.64687e-05 0)
(-7.55423e-05 -2.63845e-05 0)
(-9.75285e-05 -2.61037e-05 0)
(-0.000119413 -2.57056e-05 0)
(-0.000141158 -2.52178e-05 0)
(-0.000162693 -2.46407e-05 0)
(-0.000183962 -2.39805e-05 0)
(-0.000204915 -2.32226e-05 0)
(-0.000225499 -2.23762e-05 0)
(-0.000245665 -2.14413e-05 0)
(-0.000265363 -2.04289e-05 0)
(-0.000284539 -1.93488e-05 0)
(-0.00030314 -1.82154e-05 0)
(-0.000321127 -1.70554e-05 0)
(-0.000338447 -1.58447e-05 0)
(-0.000355044 -1.46079e-05 0)
(-0.000370872 -1.33624e-05 0)
(-0.000385883 -1.21199e-05 0)
(-0.000400027 -1.08903e-05 0)
(-0.000413261 -9.68336e-06 0)
(-0.000425538 -8.50804e-06 0)
(-0.000436818 -7.37285e-06 0)
(-0.00044706 -6.29315e-06 0)
(-0.000456232 -5.28735e-06 0)
(-0.000464295 -4.31588e-06 0)
(-0.00047121 -3.39595e-06 0)
(-0.000476947 -2.53518e-06 0)
(-0.000481477 -1.7315e-06 0)
(-0.00048477 -9.79966e-07 0)
(-0.000486805 -2.77689e-07 0)
(-0.000487554 3.71228e-07 0)
(-0.000487009 9.52417e-07 0)
(-0.000485166 1.43327e-06 0)
(-0.000481986 1.79439e-06 0)
(-0.000477473 2.0295e-06 0)
(-0.000471639 2.14637e-06 0)
(-0.000464493 2.1589e-06 0)
(-0.000456046 2.07854e-06 0)
(-0.000446316 1.90811e-06 0)
(-0.000435328 1.66346e-06 0)
(-0.000423105 1.3662e-06 0)
(-0.000409669 1.0358e-06 0)
(-0.000395047 6.78872e-07 0)
(-0.000379269 2.96653e-07 0)
(-0.000362376 -1.02332e-07 0)
(-0.000344409 -5.09173e-07 0)
(-0.000325416 -9.14301e-07 0)
(-0.000305443 -1.31025e-06 0)
(-0.000284546 -1.69063e-06 0)
(-0.000262778 -2.04187e-06 0)
(-0.000240195 -2.35938e-06 0)
(-0.000216863 -2.64152e-06 0)
(-0.000192843 -2.87341e-06 0)
(-0.000168196 -3.05342e-06 0)
(-0.00014299 -3.17502e-06 0)
(-0.000117297 -3.2277e-06 0)
(-9.11904e-05 -3.18167e-06 0)
(-6.47651e-05 -2.92953e-06 0)
(-3.81873e-05 -2.10366e-06 0)
(-1.18588e-05 4.20206e-07 0)
(1.31183e-05 7.53733e-06 0)
(3.37893e-05 2.49061e-05 0)
(4.41859e-05 5.8212e-05 0)
(3.71086e-05 9.75353e-05 0)
(9.74692e-06 8.53604e-05 0)
(-9.80911e-06 0.000128148 0)
(-3.27365e-05 0.0001266 0)
(-3.22729e-05 4.82663e-05 0)
(-1.37179e-05 -1.36619e-05 0)
(1.49556e-05 -4.50831e-05 0)
(4.76687e-05 -5.75005e-05 0)
(8.17027e-05 -6.14202e-05 0)
(0.000115932 -6.21234e-05 0)
(0.000149924 -6.16615e-05 0)
(0.000183486 -6.07076e-05 0)
(0.000216499 -5.94587e-05 0)
(0.000248865 -5.79701e-05 0)
(0.000280493 -5.62611e-05 0)
(0.000311298 -5.43434e-05 0)
(0.000341195 -5.22266e-05 0)
(0.000370103 -4.9923e-05 0)
(0.000397944 -4.74439e-05 0)
(0.000424643 -4.48025e-05 0)
(0.000450125 -4.20131e-05 0)
(0.000474323 -3.90899e-05 0)
(0.000497169 -3.60478e-05 0)
(0.000518601 -3.29022e-05 0)
(0.000538559 -2.9669e-05 0)
(0.000556988 -2.63639e-05 0)
(0.000573835 -2.30035e-05 0)
(0.000589052 -1.96042e-05 0)
(0.000602594 -1.61814e-05 0)
(0.000614419 -1.2751e-05 0)
(0.000624493 -9.32805e-06 0)
(0.000632799 -5.92489e-06 0)
(0.000639289 -2.54747e-06 0)
(0.000643904 7.83089e-07 0)
(0.000646611 4.05106e-06 0)
(0.000647421 7.2411e-06 0)
(0.000646338 1.03421e-05 0)
(0.000643371 1.33412e-05 0)
(0.000638527 1.62273e-05 0)
(0.00063182 1.89868e-05 0)
(0.000623267 2.1608e-05 0)
(0.000612892 2.40808e-05 0)
(0.000600721 2.64e-05 0)
(0.000586784 2.85633e-05 0)
(0.000571122 3.05693e-05 0)
(0.000553774 3.24144e-05 0)
(0.000534787 3.40993e-05 0)
(0.00051421 3.56266e-05 0)
(0.000492099 3.69966e-05 0)
(0.000468511 3.82147e-05 0)
(0.00044351 3.92882e-05 0)
(0.000417164 4.02202e-05 0)
(0.00038954 4.10192e-05 0)
(0.000360714 4.16951e-05 0)
(0.000330762 4.22547e-05 0)
(0.000299763 4.27086e-05 0)
(0.000267802 4.30655e-05 0)
(0.000234962 4.3335e-05 0)
(0.000201331 4.35274e-05 0)
(0.000166998 4.36512e-05 0)
(0.000132053 4.37157e-05 0)
(9.6584e-05 4.37291e-05 0)
(6.06868e-05 4.36957e-05 0)
(2.4482e-05 4.36181e-05 0)
(-1.19635e-05 4.35118e-05 0)
(-4.87128e-05 4.34129e-05 0)
(-8.53265e-05 4.33444e-05 0)
(-0.000121754 4.32519e-05 0)
(-0.000157962 4.30913e-05 0)
(-0.000193858 4.28483e-05 0)
(-0.000229321 4.25234e-05 0)
(-0.00026425 4.21179e-05 0)
(-0.000298555 4.16329e-05 0)
(-0.000332141 4.10654e-05 0)
(-0.000364916 4.04112e-05 0)
(-0.000396789 3.96659e-05 0)
(-0.00042767 3.88244e-05 0)
(-0.000457474 3.78797e-05 0)
(-0.000486122 3.68254e-05 0)
(-0.000513535 3.56594e-05 0)
(-0.000539636 3.43748e-05 0)
(-0.000564354 3.29669e-05 0)
(-0.000587622 3.1432e-05 0)
(-0.000609379 2.97659e-05 0)
(-0.000629566 2.79659e-05 0)
(-0.000648129 2.60305e-05 0)
(-0.00066502 2.39587e-05 0)
(-0.000680196 2.17511e-05 0)
(-0.00069362 1.94091e-05 0)
(-0.000705256 1.69397e-05 0)
(-0.000715073 1.43457e-05 0)
(-0.000723045 1.16335e-05 0)
(-0.000729148 8.81084e-06 0)
(-0.000733366 5.88495e-06 0)
(-0.000735683 2.86296e-06 0)
(-0.000736091 -2.49723e-07 0)
(-0.000734586 -3.45552e-06 0)
(-0.00073115 -6.7459e-06 0)
(-0.000725789 -1.01176e-05 0)
(-0.000718539 -1.35587e-05 0)
(-0.000709427 -1.70524e-05 0)
(-0.00069848 -2.05823e-05 0)
(-0.000685732 -2.41327e-05 0)
(-0.000671217 -2.76877e-05 0)
(-0.000654976 -3.123e-05 0)
(-0.000637052 -3.47409e-05 0)
(-0.000617489 -3.82016e-05 0)
(-0.000596336 -4.15952e-05 0)
(-0.000573645 -4.49058e-05 0)
(-0.000549474 -4.81181e-05 0)
(-0.000523884 -5.12159e-05 0)
(-0.000496941 -5.41842e-05 0)
(-0.000468713 -5.70079e-05 0)
(-0.00043927 -5.96736e-05 0)
(-0.000408688 -6.21665e-05 0)
(-0.000377043 -6.44751e-05 0)
(-0.000344415 -6.65885e-05 0)
(-0.000310886 -6.84943e-05 0)
(-0.000276541 -7.0184e-05 0)
(-0.000241466 -7.16478e-05 0)
(-0.000205753 -7.28677e-05 0)
(-0.000169499 -7.37887e-05 0)
(-0.000132823 -7.42127e-05 0)
(-9.59194e-05 -7.34619e-05 0)
(-5.92196e-05 -6.94683e-05 0)
(-2.38595e-05 -5.68971e-05 0)
(7.37325e-06 -2.51017e-05 0)
(2.83884e-05 3.78714e-05 0)
(3.10293e-05 0.000118662 0)
(9.5531e-06 0.00012407 0)
(-1.00097e-05 0.000168401 0)
(-3.25197e-05 0.000147842 0)
(-3.03529e-05 2.75496e-05 0)
(-9.65857e-06 -6.39632e-05 0)
(2.13405e-05 -0.000109841 0)
(5.65276e-05 -0.000127763 0)
(9.30266e-05 -0.000133194 0)
(0.000129693 -0.00013384 0)
(0.000166094 -0.000132684 0)
(0.000202031 -0.000130713 0)
(0.000237382 -0.000128218 0)
(0.000272045 -0.000125287 0)
(0.000305926 -0.000121948 0)
(0.000338932 -0.000118222 0)
(0.000370976 -0.000114125 0)
(0.000401971 -0.000109673 0)
(0.000431835 -0.000104884 0)
(0.000460487 -9.97777e-05 0)
(0.00048785 -9.4374e-05 0)
(0.00051385 -8.86938e-05 0)
(0.000538415 -8.27586e-05 0)
(0.000561479 -7.6591e-05 0)
(0.000582977 -7.02139e-05 0)
(0.000602851 -6.36509e-05 0)
(0.000621043 -5.69257e-05 0)
(0.000637501 -5.00624e-05 0)
(0.000652178 -4.30848e-05 0)
(0.000665029 -3.60165e-05 0)
(0.000676017 -2.88804e-05 0)
(0.000685108 -2.17004e-05 0)
(0.000692268 -1.45064e-05 0)
(0.000697469 -7.31502e-06 0)
(0.000700683 -1.46901e-07 0)
(0.000701896 6.97396e-06 0)
(0.000701116 1.40193e-05 0)
(0.000698334 2.09611e-05 0)
(0.00069355 2.77747e-05 0)
(0.00068677 3.4439e-05 0)
(0.000678003 4.09343e-05 0)
(0.000667267 4.72418e-05 0)
(0.000654582 5.33447e-05 0)
(0.000639978 5.92282e-05 0)
(0.000623487 6.48791e-05 0)
(0.00060515 7.02851e-05 0)
(0.00058501 7.54361e-05 0)
(0.000563118 8.03236e-05 0)
(0.000539528 8.49402e-05 0)
(0.000514301 8.92804e-05 0)
(0.000487502 9.33407e-05 0)
(0.000459199 9.71176e-05 0)
(0.000429469 0.00010061 0)
(0.000398388 0.000103819 0)
(0.00036604 0.000106744 0)
(0.000332511 0.00010939 0)
(0.000297892 0.000111758 0)
(0.000262277 0.000113853 0)
(0.000225762 0.000115679 0)
(0.000188447 0.000117241 0)
(0.000150433 0.000118546 0)
(0.000111821 0.000119597 0)
(7.27199e-05 0.000120399 0)
(3.32701e-05 0.000120953 0)
(-6.43287e-06 0.000121255 0)
(-4.64812e-05 0.000121313 0)
(-8.63954e-05 0.000121116 0)
(-0.00012612 0.000120639 0)
(-0.000165619 0.000119865 0)
(-0.000204778 0.000118794 0)
(-0.000243456 0.00011743 0)
(-0.000281536 0.000115776 0)
(-0.000318914 0.000113833 0)
(-0.000355485 0.000111604 0)
(-0.000391144 0.000109089 0)
(-0.000425791 0.000106289 0)
(-0.000459328 0.000103205 0)
(-0.000491662 9.98393e-05 0)
(-0.000522703 9.61935e-05 0)
(-0.000552368 9.22716e-05 0)
(-0.000580574 8.80772e-05 0)
(-0.000607246 8.36147e-05 0)
(-0.000632314 7.88897e-05 0)
(-0.000655711 7.39086e-05 0)
(-0.000677379 6.86794e-05 0)
(-0.000697263 6.32109e-05 0)
(-0.000715312 5.75134e-05 0)
(-0.000731485 5.15983e-05 0)
(-0.000745742 4.54786e-05 0)
(-0.000758051 3.91698e-05 0)
(-0.000768385 3.26873e-05 0)
(-0.000776721 2.60476e-05 0)
(-0.000783043 1.92677e-05 0)
(-0.000787339 1.23638e-05 0)
(-0.000789605 5.34949e-06 0)
(-0.000789844 -1.76412e-06 0)
(-0.000788054 -8.96649e-06 0)
(-0.000784231 -1.62384e-05 0)
(-0.000778392 -2.35596e-05 0)
(-0.000770557 -3.09069e-05 0)
(-0.000760747 -3.82568e-05 0)
(-0.000748991 -4.55854e-05 0)
(-0.00073532 -5.28681e-05 0)
(-0.000719772 -6.00793e-05 0)
(-0.000702388 -6.71927e-05 0)
(-0.000683214 -7.41819e-05 0)
(-0.000662301 -8.10205e-05 0)
(-0.000639701 -8.76834e-05 0)
(-0.000615474 -9.41459e-05 0)
(-0.000589679 -0.000100384 0)
(-0.000562384 -0.000106376 0)
(-0.000533658 -0.000112098 0)
(-0.000503573 -0.000117529 0)
(-0.000472205 -0.000122649 0)
(-0.000439632 -0.000127439 0)
(-0.000405937 -0.00013188 0)
(-0.000371204 -0.000135955 0)
(-0.00033552 -0.00013965 0)
(-0.000298974 -0.000142948 0)
(-0.000261657 -0.000145834 0)
(-0.000223665 -0.000148278 0)
(-0.0001851 -0.000150194 0)
(-0.000146085 -0.00015129 0)
(-0.000106818 -0.000150572 0)
(-6.77366e-05 -0.000145035 0)
(-2.99908e-05 -0.000126902 0)
(3.54997e-06 -8.05018e-05 0)
(2.66218e-05 1.25157e-05 0)
(3.08446e-05 0.000136326 0)
(9.76108e-06 0.000162424 0)
(-1.0401e-05 0.000209878 0)
(-3.36739e-05 0.00016921 0)
(-3.13402e-05 5.50011e-06 0)
(-9.89321e-06 -0.000116489 0)
(2.22183e-05 -0.000177078 0)
(5.86736e-05 -0.00020053 0)
(9.64865e-05 -0.000207431 0)
(0.000134469 -0.000207961 0)
(0.00017217 -0.000206055 0)
(0.000209385 -0.000203011 0)
(0.000245987 -0.000199217 0)
(0.000281871 -0.000194787 0)
(0.00031694 -0.000189763 0)
(0.000351097 -0.000184168 0)
(0.000384253 -0.000178026 0)
(0.000416319 -0.000171357 0)
(0.000447207 -0.000164186 0)
(0.000476835 -0.000156538 0)
(0.000505124 -0.00014844 0)
(0.000531996 -0.000139918 0)
(0.000557378 -0.000131001 0)
(0.000581201 -0.000121719 0)
(0.0006034 -0.000112103 0)
(0.000623912 -0.000102184 0)
(0.00064268 -9.19937e-05 0)
(0.000659651 -8.15649e-05 0)
(0.000674776 -7.09302e-05 0)
(0.00068801 -6.01227e-05 0)
(0.000699315 -4.91754e-05 0)
(0.000708656 -3.81215e-05 0)
(0.000716004 -2.6994e-05 0)
(0.000721332 -1.58246e-05 0)
(0.00072462 -4.64574e-06 0)
(0.000725856 6.50767e-06 0)
(0.000725044 1.75959e-05 0)
(0.000722173 2.85835e-05 0)
(0.000717242 3.94385e-05 0)
(0.000710256 5.01303e-05 0)
(0.000701225 6.06282e-05 0)
(0.000690165 7.09017e-05 0)
(0.000677099 8.09216e-05 0)
(0.000662055 9.06608e-05 0)
(0.000645067 0.000100095 0)
(0.000626177 0.0001092 0)
(0.000605429 0.000117955 0)
(0.000582876 0.000126342 0)
(0.000558574 0.000134342 0)
(0.000532585 0.00014194 0)
(0.000504976 0.000149122 0)
(0.000475819 0.000155875 0)
(0.00044519 0.00016219 0)
(0.000413171 0.000168058 0)
(0.000379846 0.000173471 0)
(0.000345306 0.000178425 0)
(0.000309642 0.000182915 0)
(0.000272952 0.000186938 0)
(0.000235335 0.000190494 0)
(0.000196894 0.000193581 0)
(0.000157734 0.000196201 0)
(0.000117958 0.000198353 0)
(7.76805e-05 0.000200038 0)
(3.70472e-05 0.000201248 0)
(-3.83195e-06 0.000201971 0)
(-4.50722e-05 0.000202194 0)
(-8.61909e-05 0.000201889 0)
(-0.000127115 0.00020104 0)
(-0.000167824 0.000199646 0)
(-0.000208196 0.000197716 0)
(-0.000248079 0.000195263 0)
(-0.000287352 0.000192296 0)
(-0.000325904 0.000188822 0)
(-0.000363627 0.000184847 0)
(-0.000400415 0.000180378 0)
(-0.000436162 0.000175423 0)
(-0.000470769 0.00016999 0)
(-0.000504139 0.000164091 0)
(-0.00053618 0.000157735 0)
(-0.000566804 0.000150935 0)
(-0.000595929 0.000143705 0)
(-0.000623477 0.000136059 0)
(-0.000649374 0.000128013 0)
(-0.000673554 0.000119585 0)
(-0.000695954 0.000110793 0)
(-0.000716517 0.000101657 0)
(-0.000735193 9.21983e-05 0)
(-0.000751935 8.244e-05 0)
(-0.000766706 7.24062e-05 0)
(-0.000779469 6.21227e-05 0)
(-0.000790198 5.16165e-05 0)
(-0.000798869 4.09156e-05 0)
(-0.000805466 3.00484e-05 0)
(-0.000809978 1.90417e-05 0)
(-0.000812399 7.91807e-06 0)
(-0.000812732 -3.30269e-06 0)
(-0.00081098 -1.45966e-05 0)
(-0.000807141 -2.59425e-05 0)
(-0.000801226 -3.73127e-05 0)
(-0.000793252 -4.86742e-05 0)
(-0.000783242 -5.99921e-05 0)
(-0.00077122 -7.12308e-05 0)
(-0.000757221 -8.23548e-05 0)
(-0.00074128 -9.33285e-05 0)
(-0.00072344 -0.000104117 0)
(-0.000703748 -0.000114684 0)
(-0.000682255 -0.000124996 0)
(-0.000659017 -0.000135019 0)
(-0.000634094 -0.000144721 0)
(-0.00060755 -0.000154069 0)
(-0.000579452 -0.000163034 0)
(-0.000549872 -0.000171586 0)
(-0.000518884 -0.000179697 0)
(-0.000486568 -0.000187341 0)
(-0.000453005 -0.000194491 0)
(-0.000418278 -0.000201125 0)
(-0.000382476 -0.00020722 0)
(-0.000345688 -0.000212755 0)
(-0.000308007 -0.000217711 0)
(-0.000269526 -0.000222065 0)
(-0.000230346 -0.000225778 0)
(-0.000190569 -0.000228737 0)
(-0.000150325 -0.000230553 0)
(-0.000109816 -0.000229917 0)
(-6.94972e-05 -0.000222864 0)
(-3.05608e-05 -0.000199125 0)
(4.00086e-06 -0.000137852 0)
(2.77643e-05 -1.39739e-05 0)
(3.20664e-05 0.000154244 0)
(1.01431e-05 0.000202055 0)
(-1.08564e-05 0.000253132 0)
(-3.52069e-05 0.000191629 0)
(-3.29147e-05 -1.71735e-05 0)
(-1.0694e-05 -0.000170829 0)
(2.26695e-05 -0.000246754 0)
(6.05795e-05 -0.000275989 0)
(9.99168e-05 -0.000284433 0)
(0.000139434 -0.000284845 0)
(0.000178655 -0.000282153 0)
(0.000217363 -0.000277986 0)
(0.000255427 -0.000272834 0)
(0.000292737 -0.000266839 0)
(0.00032919 -0.000260054 0)
(0.00036469 -0.00025251 0)
(0.000399141 -0.000244235 0)
(0.00043245 -0.000235255 0)
(0.000464528 -0.000225601 0)
(0.00049529 -0.000215304 0)
(0.000524651 -0.000204398 0)
(0.000552533 -0.000192916 0)
(0.00057886 -0.000180895 0)
(0.00060356 -0.000168372 0)
(0.000626565 -0.000155385 0)
(0.000647812 -0.000141975 0)
(0.000667241 -0.000128182 0)
(0.000684798 -0.000114048 0)
(0.000700433 -9.96141e-05 0)
(0.000714101 -8.49236e-05 0)
(0.000725761 -7.00195e-05 0)
(0.000735379 -5.49452e-05 0)
(0.000742926 -3.97441e-05 0)
(0.000748377 -2.44597e-05 0)
(0.000751708 -9.13597e-06 0)
(0.000752908 6.18106e-06 0)
(0.000751989 2.14433e-05 0)
(0.000748935 3.66062e-05 0)
(0.000743748 5.16292e-05 0)
(0.000736435 6.6472e-05 0)
(0.000727009 8.10929e-05 0)
(0.000715487 9.54488e-05 0)
(0.000701894 0.000109498 0)
(0.000686261 0.000123201 0)
(0.000668625 0.000136521 0)
(0.000649029 0.000149424 0)
(0.000627522 0.000161877 0)
(0.000604159 0.00017385 0)
(0.000578998 0.000185315 0)
(0.000552106 0.000196246 0)
(0.000523551 0.000206619 0)
(0.000493411 0.000216413 0)
(0.000461762 0.000225609 0)
(0.000428691 0.000234188 0)
(0.000394285 0.000242137 0)
(0.000358637 0.000249441 0)
(0.000321841 0.00025609 0)
(0.000283998 0.000262074 0)
(0.000245209 0.000267386 0)
(0.000205581 0.00027202 0)
(0.000165219 0.000275972 0)
(0.00012423 0.000279238 0)
(8.27298e-05 0.000281812 0)
(4.08689e-05 0.000283683 0)
(-1.23254e-06 0.000284826 0)
(-4.37129e-05 0.000285217 0)
(-8.60856e-05 0.000284819 0)
(-0.00012825 0.000283617 0)
(-0.000170205 0.000281613 0)
(-0.000211825 0.000278828 0)
(-0.000252953 0.000275281 0)
(-0.00029346 0.00027099 0)
(-0.000333235 0.000265966 0)
(-0.000372168 0.000260221 0)
(-0.000410147 0.000253769 0)
(-0.000447066 0.000246624 0)
(-0.000482822 0.000238804 0)
(-0.000517316 0.000230326 0)
(-0.000550452 0.00022121 0)
(-0.000582141 0.000211477 0)
(-0.000612296 0.00020115 0)
(-0.000640837 0.000190254 0)
(-0.000667688 0.000178815 0)
(-0.000692778 0.000166862 0)
(-0.000716043 0.000154423 0)
(-0.000737422 0.00014153 0)
(-0.000756862 0.000128215 0)
(-0.000774314 0.000114512 0)
(-0.000789736 0.000100458 0)
(-0.000803091 8.60891e-05 0)
(-0.000814348 7.14441e-05 0)
(-0.000823483 5.65632e-05 0)
(-0.000830476 4.14863e-05 0)
(-0.000835316 2.62507e-05 0)
(-0.000837993 1.08887e-05 0)
(-0.000838501 -4.57152e-06 0)
(-0.000836848 -2.01e-05 0)
(-0.000833035 -3.56641e-05 0)
(-0.000827065 -5.12276e-05 0)
(-0.000818957 -6.67464e-05 0)
(-0.000808735 -8.21742e-05 0)
(-0.000796425 -9.74639e-05 0)
(-0.00078206 -0.000112569 0)
(-0.000765679 -0.000127444 0)
(-0.000747324 -0.000142043 0)
(-0.000727044 -0.000156323 0)
(-0.000704892 -0.000170239 0)
(-0.000680925 -0.000183749 0)
(-0.000655205 -0.000196812 0)
(-0.000627799 -0.000209389 0)
(-0.000598776 -0.00022144 0)
(-0.00056821 -0.000232931 0)
(-0.000536179 -0.000243824 0)
(-0.000502764 -0.000254087 0)
(-0.00046805 -0.000263689 0)
(-0.000432125 -0.0002726 0)
(-0.000395078 -0.000280792 0)
(-0.000357004 -0.000288239 0)
(-0.000317997 -0.000294916 0)
(-0.000278157 -0.000300796 0)
(-0.000237585 -0.000305828 0)
(-0.00019639 -0.000309869 0)
(-0.000154706 -0.000312431 0)
(-0.000112747 -0.000311872 0)
(-7.09924e-05 -0.000303226 0)
(-3.06947e-05 -0.000273631 0)
(5.01725e-06 -0.000196871 0)
(2.94671e-05 -4.09144e-05 0)
(3.36648e-05 0.000173328 0)
(1.06096e-05 0.00024351 0)
(-1.14051e-05 0.000298478 0)
(-3.70141e-05 0.000215255 0)
(-3.47148e-05 -4.06566e-05 0)
(-1.14996e-05 -0.000227445 0)
(2.34385e-05 -0.000319459 0)
(6.31777e-05 -0.000354786 0)
(0.000104437 -0.000364866 0)
(0.000145893 -0.000365155 0)
(0.000187036 -0.000361632 0)
(0.000227638 -0.00035628 0)
(0.000267555 -0.000349692 0)
(0.000306675 -0.000342047 0)
(0.00034489 -0.000333409 0)
(0.000382097 -0.000323814 0)
(0.000418198 -0.000313295 0)
(0.000453095 -0.000301888 0)
(0.000486696 -0.000289628 0)
(0.00051891 -0.000276552 0)
(0.00054965 -0.000262701 0)
(0.000578833 -0.000248117 0)
(0.000606381 -0.000232843 0)
(0.000632219 -0.000216925 0)
(0.000656275 -0.000200411 0)
(0.000678484 -0.000183348 0)
(0.000698785 -0.000165787 0)
(0.000717119 -0.000147778 0)
(0.000733437 -0.000129374 0)
(0.000747691 -0.000110628 0)
(0.00075984 -9.15929e-05 0)
(0.000769848 -7.23232e-05 0)
(0.000777686 -5.28736e-05 0)
(0.000783328 -3.32991e-05 0)
(0.000786748 -1.36552e-05 0)
(0.000787933 6.00114e-06 0)
(0.000786904 2.561e-05 0)
(0.000783643 4.51176e-05 0)
(0.000778152 6.44734e-05 0)
(0.000770444 8.36271e-05 0)
(0.000760531 0.000102526 0)
(0.000748435 0.000121115 0)
(0.000734181 0.000139339 0)
(0.000717804 0.000157145 0)
(0.000699344 0.000174486 0)
(0.000678847 0.000191313 0)
(0.000656365 0.000207584 0)
(0.000631958 0.000223257 0)
(0.000605687 0.000238294 0)
(0.000577623 0.000252658 0)
(0.00054784 0.000266316 0)
(0.000516416 0.000279236 0)
(0.000483435 0.00029139 0)
(0.000448985 0.000302753 0)
(0.000413159 0.000313301 0)
(0.000376052 0.000323014 0)
(0.000337764 0.000331874 0)
(0.000298398 0.000339865 0)
(0.000258059 0.000346974 0)
(0.000216856 0.00035319 0)
(0.000174899 0.000358505 0)
(0.000132297 0.00036291 0)
(8.91678e-05 0.000366394 0)
(4.56659e-05 0.000368941 0)
(1.92135e-06 0.000370516 0)
(-4.22215e-05 0.000371083 0)
(-8.62682e-05 0.0003706 0)
(-0.000130087 0.000369047 0)
(-0.000173697 0.000366431 0)
(-0.00021697 0.000362778 0)
(-0.000259738 0.00035812 0)
(-0.000301871 0.000352478 0)
(-0.000343253 0.000345872 0)
(-0.000383769 0.00033832 0)
(-0.000423306 0.000329841 0)
(-0.000461754 0.000320457 0)
(-0.000499006 0.000310193 0)
(-0.000534958 0.000299074 0)
(-0.000569514 0.000287129 0)
(-0.000602577 0.000274387 0)
(-0.00063406 0.000260882 0)
(-0.000663877 0.000246648 0)
(-0.000691949 0.000231721 0)
(-0.000718201 0.000216141 0)
(-0.000742565 0.000199947 0)
(-0.000764978 0.000183181 0)
(-0.000785381 0.000165888 0)
(-0.000803723 0.000148114 0)
(-0.000819957 0.000129904 0)
(-0.000834045 0.00011131 0)
(-0.000845953 9.23807e-05 0)
(-0.000855652 7.31697e-05 0)
(-0.000863121 5.3728e-05 0)
(-0.000868346 3.41033e-05 0)
(-0.000871315 1.43368e-05 0)
(-0.000872023 -5.5339e-06 0)
(-0.000870471 -2.54757e-05 0)
(-0.000866655 -4.54366e-05 0)
(-0.00086058 -6.53702e-05 0)
(-0.000852269 -8.52214e-05 0)
(-0.000841744 -0.000104932 0)
(-0.000829034 -0.000124444 0)
(-0.000814174 -0.0001437 0)
(-0.000797202 -0.000162643 0)
(-0.000778164 -0.000181219 0)
(-0.00075711 -0.000199371 0)
(-0.000734095 -0.000217049 0)
(-0.000709177 -0.000234199 0)
(-0.000682423 -0.000250772 0)
(-0.000653901 -0.000266721 0)
(-0.000623684 -0.000281997 0)
(-0.000591849 -0.000296558 0)
(-0.000558477 -0.00031036 0)
(-0.000523653 -0.000323363 0)
(-0.000487466 -0.000335529 0)
(-0.000450006 -0.000346823 0)
(-0.000411369 -0.00035721 0)
(-0.000371652 -0.00036666 0)
(-0.000330954 -0.000375142 0)
(-0.00028938 -0.000382622 0)
(-0.000247034 -0.000389039 0)
(-0.000204033 -0.000394218 0)
(-0.000160517 -0.000397561 0)
(-0.000116716 -0.000397072 0)
(-7.31416e-05 -0.000386734 0)
(-3.11204e-05 -0.000350965 0)
(6.07818e-06 -0.000257959 0)
(3.14269e-05 -6.84755e-05 0)
(3.5526e-05 0.000193773 0)
(1.1155e-05 0.000287108 0)
(-1.20491e-05 0.000346254 0)
(-3.91029e-05 0.000240218 0)
(-3.6726e-05 -6.52359e-05 0)
(-1.22523e-05 -0.00028693 0)
(2.46256e-05 -0.000395949 0)
(6.66101e-05 -0.00043775 0)
(0.000110228 -0.000449585 0)
(0.000154065 -0.000449754 0)
(0.000197571 -0.00044535 0)
(0.0002405 -0.000438735 0)
(0.000282701 -0.000430623 0)
(0.00032405 -0.000421227 0)
(0.000364437 -0.000410622 0)
(0.000403752 -0.000398854 0)
(0.000441892 -0.000385963 0)
(0.000478754 -0.000371988 0)
(0.00051424 -0.000356971 0)
(0.000548256 -0.000340959 0)
(0.00058071 -0.000323998 0)
(0.000611514 -0.000306138 0)
(0.000640587 -0.000287432 0)
(0.000667848 -0.000267933 0)
(0.000693225 -0.000247697 0)
(0.000716647 -0.000226783 0)
(0.000738049 -0.00020525 0)
(0.000757373 -0.000183159 0)
(0.000774565 -0.000160574 0)
(0.000789575 -0.000137556 0)
(0.00080236 -0.000114172 0)
(0.000812883 -9.04872e-05 0)
(0.000821115 -6.65671e-05 0)
(0.000827027 -4.24792e-05 0)
(0.000830593 -1.8291e-05 0)
(0.000831797 5.92803e-06 0)
(0.000830668 3.01046e-05 0)
(0.000827186 5.41733e-05 0)
(0.000821354 7.80731e-05 0)
(0.000813186 0.000101744 0)
(0.0008027 0.000125122 0)
(0.000789918 0.00014814 0)
(0.000774869 0.00017073 0)
(0.00075759 0.000192826 0)
(0.000738125 0.000214366 0)
(0.000716522 0.000235289 0)
(0.00069284 0.000255542 0)
(0.00066714 0.00027507 0)
(0.000639491 0.000293826 0)
(0.000609965 0.000311761 0)
(0.000578643 0.000328832 0)
(0.000545608 0.000344999 0)
(0.000510948 0.000360223 0)
(0.000474758 0.000374472 0)
(0.000437132 0.000387713 0)
(0.000398174 0.00039992 0)
(0.000357986 0.000411067 0)
(0.000316676 0.000421133 0)
(0.000274355 0.0004301 0)
(0.000231136 0.000437952 0)
(0.000187132 0.000444676 0)
(0.000142458 0.00045026 0)
(9.72315e-05 0.000454688 0)
(5.16139e-05 0.000457937 0)
(5.74729e-06 0.000459965 0)
(-4.05406e-05 0.000460724 0)
(-8.6747e-05 0.000460159 0)
(-0.000132696 0.000458249 0)
(-0.000178434 0.000455003 0)
(-0.000223827 0.000450458 0)
(-0.000268697 0.000444652 0)
(-0.000312905 0.000437618 0)
(-0.000356334 0.00042938 0)
(-0.000398865 0.000419962 0)
(-0.000440379 0.000409391 0)
(-0.000480762 0.000397694 0)
(-0.000519902 0.000384904 0)
(-0.000557692 0.000371054 0)
(-0.000594029 0.00035618 0)
(-0.000628815 0.000340324 0)
(-0.000661954 0.000323525 0)
(-0.000693359 0.000305829 0)
(-0.000722944 0.000287283 0)
(-0.000750632 0.000267936 0)
(-0.000776348 0.000247838 0)
(-0.000800026 0.000227045 0)
(-0.000821603 0.000205611 0)
(-0.000841025 0.000183593 0)
(-0.00085824 0.000161051 0)
(-0.000873206 0.000138047 0)
(-0.000885887 0.000114645 0)
(-0.000896251 9.09087e-05 0)
(-0.000904275 6.69015e-05 0)
(-0.00090994 4.26795e-05 0)
(-0.00091323 1.82913e-05 0)
(-0.000914148 -6.21614e-06 0)
(-0.000912687 -3.07851e-05 0)
(-0.00090883 -5.53608e-05 0)
(-0.000902591 -7.98838e-05 0)
(-0.000893995 -0.000104286 0)
(-0.000883066 -0.000128496 0)
(-0.000869833 -0.000152445 0)
(-0.000854331 -0.000176063 0)
(-0.000836603 -0.000199283 0)
(-0.000816696 -0.000222037 0)
(-0.000794661 -0.000244263 0)
(-0.000770556 -0.000265896 0)
(-0.000744445 -0.000286875 0)
(-0.000716395 -0.000307141 0)
(-0.000686478 -0.000326637 0)
(-0.000654772 -0.000345308 0)
(-0.000621357 -0.000363101 0)
(-0.000586318 -0.000379966 0)
(-0.000549745 -0.000395855 0)
(-0.000511731 -0.000410723 0)
(-0.000472371 -0.000424528 0)