/*--------------------------------*- C++ -*----------------------------------*\
| =========                 |                                                 |
| \\      /  F ield         | OpenFOAM: The Open Source CFD Toolbox           |
|  \\    /   O peration     | Version:  2212                                  |
|   \\  /    A nd           | Website:  www.openfoam.com                      |
|    \\/     M anipulation  |                                                 |
\*---------------------------------------------------------------------------*/
FoamFile
{
    version     2.0;
    format      ascii;
    arch        "LSB;label=64;scalar=64";
    class       volScalarField;
    location    "580";
    object      p;
}
// * * * * * * * * * * * * * * * * * * * * * * * * * * * * * * * * * * * * * //

dimensions      [0 2 -2 0 0 0 0];

internalField   nonuniform List<scalar> 
1024
(
0
-3.33191e-06
-8.10755e-06
-1.25829e-05
-1.66028e-05
-2.11555e-05
-2.67354e-05
-3.20878e-05
-3.36245e-05
-2.49662e-05
3.7336e-06
6.64702e-05
0.000180475
0.000357364
0.000580518
0.000784549
0.000876783
0.000852859
0.000800783
0.000743011
0.000689419
0.000641193
0.000596939
0.00055624
0.000520725
0.000491736
0.000469768
0.000454772
0.000446533
0.00044466
0.000447694
0.00045194
-0.092815
-0.0928186
-0.0928232
-0.0928277
-0.0928324
-0.0928381
-0.0928451
-0.0928519
-0.0928551
-0.0928484
-0.092822
-0.092762
-0.092651
-0.0924776
-0.0922578
-0.0920561
-0.0919641
-0.0919842
-0.0920326
-0.0920884
-0.0921406
-0.0921879
-0.0922311
-0.0922704
-0.0923042
-0.0923309
-0.0923503
-0.0923627
-0.0923689
-0.0923698
-0.0923665
-0.0923619
-0.199438
-0.199443
-0.199449
-0.199454
-0.199461
-0.199469
-0.19948
-0.19949
-0.199498
-0.199495
-0.199474
-0.199419
-0.199314
-0.199146
-0.198931
-0.198733
-0.198641
-0.198654
-0.198695
-0.198747
-0.198797
-0.198842
-0.198883
-0.19892
-0.19895
-0.198973
-0.198989
-0.198997
-0.199
-0.198999
-0.198994
-0.198988
-0.321929
-0.321936
-0.321944
-0.321952
-0.321962
-0.321976
-0.321992
-0.32201
-0.322024
-0.32203
-0.322016
-0.321969
-0.321872
-0.321712
-0.321503
-0.321308
-0.321215
-0.321218
-0.32125
-0.321295
-0.32134
-0.321381
-0.321419
-0.321452
-0.321479
-0.321497
-0.321507
-0.32151
-0.321509
-0.321504
-0.321497
-0.321489
-0.462656
-0.462666
-0.462677
-0.462689
-0.462705
-0.462727
-0.462753
-0.462781
-0.462806
-0.462821
-0.462818
-0.462782
-0.462695
-0.462544
-0.46234
-0.462148
-0.462054
-0.462044
-0.462064
-0.4621
-0.462139
-0.462175
-0.462208
-0.462237
-0.462258
-0.462271
-0.462276
-0.462272
-0.462265
-0.462256
-0.462246
-0.462237
-0.624346
-0.624358
-0.624373
-0.624391
-0.624416
-0.624448
-0.624485
-0.624525
-0.624563
-0.624591
-0.624601
-0.624577
-0.6245
-0.624356
-0.624156
-0.623967
-0.623871
-0.623848
-0.623854
-0.623881
-0.623912
-0.623942
-0.623969
-0.623991
-0.624008
-0.624015
-0.624013
-0.624004
-0.623991
-0.623978
-0.623966
-0.623956
-0.810135
-0.810148
-0.810166
-0.81019
-0.810223
-0.810266
-0.810316
-0.810368
-0.810419
-0.81046
-0.810481
-0.810469
-0.810401
-0.810261
-0.810063
-0.809875
-0.809776
-0.809741
-0.809737
-0.809754
-0.809777
-0.8098
-0.80982
-0.809837
-0.809847
-0.80985
-0.809842
-0.809828
-0.80981
-0.809794
-0.809781
-0.809771
-1.02362
-1.02363
-1.02365
-1.02368
-1.02372
-1.02377
-1.02383
-1.02389
-1.02395
-1.02401
-1.02404
-1.02403
-1.02397
-1.02383
-1.02363
-1.02344
-1.02334
-1.0233
-1.02329
-1.0233
-1.02331
-1.02333
-1.02334
-1.02335
-1.02336
-1.02336
-1.02335
-1.02333
-1.02331
-1.02329
-1.02328
-1.02327
-1.26892
-1.26893
-1.26895
-1.26898
-1.26903
-1.26908
-1.26914
-1.26921
-1.26928
-1.26933
-1.26937
-1.26937
-1.26931
-1.26917
-1.26897
-1.26878
-1.26867
-1.26863
-1.26861
-1.26862
-1.26863
-1.26863
-1.26864
-1.26865
-1.26865
-1.26864
-1.26863
-1.26861
-1.26859
-1.26857
-1.26856
-1.26856
-1.55075
-1.55076
-1.55078
-1.55081
-1.55085
-1.55091
-1.55097
-1.55104
-1.5511
-1.55116
-1.55119
-1.55119
-1.55113
-1.55099
-1.55078
-1.5506
-1.55049
-1.55044
-1.55042
-1.55043
-1.55043
-1.55044
-1.55044
-1.55044
-1.55044
-1.55043
-1.55042
-1.5504
-1.55038
-1.55036
-1.55036
-1.55035
-1.87452
-1.87452
-1.87454
-1.87456
-1.8746
-1.87465
-1.87471
-1.87477
-1.87483
-1.87488
-1.87492
-1.87492
-1.87485
-1.8747
-1.8745
-1.87432
-1.87421
-1.87416
-1.87415
-1.87415
-1.87415
-1.87415
-1.87415
-1.87415
-1.87414
-1.87414
-1.87412
-1.87411
-1.87409
-1.87408
-1.87407
-1.87407
-2.24641
-2.24641
-2.24642
-2.24644
-2.24648
-2.24653
-2.24658
-2.24663
-2.24669
-2.24673
-2.24676
-2.24675
-2.24669
-2.24653
-2.24633
-2.24616
-2.24606
-2.24602
-2.24601
-2.24602
-2.24602
-2.24602
-2.24601
-2.24601
-2.246
-2.24599
-2.24598
-2.24596
-2.24595
-2.24594
-2.24593
-2.24593
-2.67354
-2.67354
-2.67354
-2.67356
-2.67359
-2.67363
-2.67369
-2.67374
-2.67379
-2.67382
-2.67384
-2.67383
-2.67376
-2.67361
-2.67343
-2.67327
-2.67319
-2.67317
-2.67318
-2.67318
-2.67318
-2.67318
-2.67318
-2.67317
-2.67316
-2.67315
-2.67314
-2.67312
-2.67311
-2.6731
-2.67309
-2.67309
-3.16407
-3.16407
-3.16407
-3.16408
-3.16411
-3.16415
-3.1642
-3.16426
-3.16431
-3.16434
-3.16436
-3.16433
-3.16426
-3.16413
-3.16398
-3.16387
-3.16383
-3.16384
-3.16385
-3.16387
-3.16387
-3.16387
-3.16387
-3.16386
-3.16385
-3.16383
-3.1638
-3.16378
-3.16376
-3.16375
-3.16375
-3.16375
-3.72743
-3.72742
-3.72742
-3.72743
-3.72745
-3.72748
-3.72753
-3.72758
-3.72763
-3.72767
-3.72769
-3.72767
-3.7276
-3.72751
-3.72741
-3.72737
-3.72739
-3.72743
-3.72747
-3.7275
-3.72751
-3.72751
-3.72749
-3.72748
-3.72745
-3.72741
-3.72737
-3.72734
-3.72732
-3.7273
-3.7273
-3.72731
-4.37447
-4.37447
-4.37447
-4.37447
-4.37448
-4.3745
-4.37453
-4.37457
-4.37461
-4.37465
-4.37466
-4.37465
-4.37462
-4.3746
-4.37459
-4.37463
-4.37471
-4.37478
-4.37483
-4.37486
-4.37486
-4.37485
-4.37482
-4.37477
-4.37471
-4.37465
-4.3746
-4.37456
-4.37454
-4.37453
-4.37453
-4.37454
-5.06634
-5.06633
-5.06633
-5.06633
-5.06633
-5.06634
-5.06635
-5.06637
-5.06639
-5.06642
-5.06643
-5.06644
-5.06646
-5.06651
-5.06659
-5.0667
-5.06681
-5.06688
-5.06691
-5.06691
-5.06688
-5.06682
-5.06673
-5.06663
-5.06653
-5.06646
-5.06641
-5.06639
-5.06639
-5.06639
-5.0664
-5.0664
-5.7136
-5.71359
-5.71359
-5.71359
-5.71359
-5.71359
-5.71359
-5.71359
-5.7136
-5.71361
-5.71363
-5.71366
-5.71368
-5.71373
-5.71389
-5.71405
-5.71418
-5.71426
-5.71428
-5.71426
-5.71418
-5.71406
-5.71392
-5.71377
-5.71365
-5.71356
-5.71352
-5.7135
-5.7135
-5.71351
-5.71352
-5.71353
-6.27722
-6.27722
-6.27722
-6.27722
-6.27721
-6.27721
-6.27721
-6.2772
-6.27719
-6.27719
-6.27721
-6.27727
-6.27735
-6.27745
-6.27756
-6.27771
-6.27785
-6.27797
-6.27804
-6.27804
-6.27798
-6.27786
-6.27771
-6.27755
-6.2774
-6.27729
-6.27722
-6.2772
-6.27719
-6.2772
-6.27722
-6.27722
-6.76794
-6.76794
-6.76794
-6.76794
-6.76794
-6.76794
-6.76794
-6.76794
-6.76794
-6.76795
-6.76797
-6.76801
-6.76808
-6.76818
-6.76831
-6.76847
-6.76866
-6.76882
-6.76893
-6.76897
-6.76894
-6.76885
-6.76873
-6.76858
-6.76843
-6.7683
-6.76821
-6.76815
-6.76813
-6.76813
-6.76814
-6.76815
-7.19515
-7.19515
-7.19515
-7.19515
-7.19515
-7.19516
-7.19516
-7.19517
-7.19518
-7.19519
-7.19522
-7.19526
-7.19533
-7.19543
-7.19556
-7.19574
-7.19595
-7.19614
-7.19627
-7.19634
-7.19633
-7.19628
-7.19618
-7.19606
-7.19592
-7.19578
-7.19566
-7.19558
-7.19553
-7.19552
-7.19553
-7.19554
-7.56707
-7.56707
-7.56707
-7.56707
-7.56707
-7.56708
-7.56708
-7.56709
-7.5671
-7.56712
-7.56715
-7.5672
-7.56727
-7.56737
-7.56751
-7.56769
-7.56791
-7.56812
-7.56827
-7.56835
-7.56835
-7.56831
-7.56823
-7.56813
-7.568
-7.56787
-7.56774
-7.56763
-7.56757
-7.56754
-7.56754
-7.56756
-7.89085
-7.89085
-7.89085
-7.89085
-7.89086
-7.89086
-7.89087
-7.89087
-7.89089
-7.8909
-7.89094
-7.89098
-7.89105
-7.89115
-7.8913
-7.89149
-7.89172
-7.89194
-7.89209
-7.89216
-7.89217
-7.89213
-7.89205
-7.89195
-7.89183
-7.8917
-7.89156
-7.89144
-7.89136
-7.89131
-7.89131
-7.89132
-8.17272
-8.17273
-8.17273
-8.17273
-8.17273
-8.17273
-8.17273
-8.17274
-8.17275
-8.17277
-8.1728
-8.17284
-8.17292
-8.17302
-8.17316
-8.17336
-8.17359
-8.17381
-8.17397
-8.17404
-8.17404
-8.17399
-8.17391
-8.17379
-8.17366
-8.17351
-8.17337
-8.17323
-8.17312
-8.17306
-8.17304
-8.17305
-8.41812
-8.41812
-8.41812
-8.41812
-8.41812
-8.41812
-8.41812
-8.41812
-8.41812
-8.41814
-8.41817
-8.41822
-8.41829
-8.41839
-8.41854
-8.41874
-8.41897
-8.4192
-8.41935
-8.41942
-8.41941
-8.41935
-8.41925
-8.41911
-8.41894
-8.41877
-8.41859
-8.41842
-8.41828
-8.41819
-8.41816
-8.41817
-8.63175
-8.63175
-8.63176
-8.63175
-8.63175
-8.63174
-8.63173
-8.63173
-8.63173
-8.63174
-8.63177
-8.63182
-8.63189
-8.632
-8.63215
-8.63235
-8.63259
-8.63281
-8.63296
-8.63303
-8.63302
-8.63294
-8.63282
-8.63265
-8.63244
-8.63221
-8.63198
-8.63177
-8.63158
-8.63145
-8.63139
-8.63138
-8.81774
-8.81775
-8.81775
-8.81774
-8.81772
-8.8177
-8.81769
-8.81768
-8.81768
-8.81769
-8.81772
-8.81777
-8.81785
-8.81796
-8.81811
-8.81831
-8.81855
-8.81877
-8.81892
-8.81898
-8.81897
-8.81888
-8.81874
-8.81854
-8.81829
-8.818
-8.8177
-8.81741
-8.81715
-8.81695
-8.81684
-8.8168
-8.97968
-8.97968
-8.97967
-8.97965
-8.97962
-8.97959
-8.97957
-8.97956
-8.97956
-8.97957
-8.9796
-8.97965
-8.97973
-8.97984
-8.97999
-8.98019
-8.98044
-8.98066
-8.98081
-8.98087
-8.98085
-8.98075
-8.98059
-8.98036
-8.98007
-8.97973
-8.97935
-8.97897
-8.97861
-8.9783
-8.9781
-8.978
-9.12071
-9.1207
-9.12066
-9.12061
-9.12056
-9.12052
-9.12049
-9.12048
-9.12048
-9.12049
-9.12052
-9.12057
-9.12065
-9.12077
-9.12092
-9.12113
-9.12137
-9.12159
-9.12174
-9.1218
-9.12177
-9.12167
-9.12149
-9.12124
-9.12092
-9.12053
-9.12009
-9.11961
-9.11911
-9.11865
-9.1183
-9.11807
-9.24359
-9.24351
-9.24341
-9.24332
-9.24325
-9.24319
-9.24316
-9.24315
-9.24315
-9.24317
-9.2432
-9.24325
-9.24333
-9.24345
-9.24361
-9.24381
-9.24405
-9.24428
-9.24443
-9.24448
-9.24445
-9.24435
-9.24416
-9.2439
-9.24356
-9.24314
-9.24264
-9.24208
-9.24144
-9.24077
-9.24014
-9.23959
-9.35088
-9.35049
-9.35024
-9.3501
-9.35002
-9.34997
-9.34994
-9.34993
-9.34994
-9.34996
-9.34999
-9.35005
-9.35013
-9.35025
-9.35041
-9.35062
-9.35086
-9.35108
-9.35123
-9.35129
-9.35126
-9.35115
-9.35096
-9.3507
-9.35035
-9.34991
-9.34939
-9.34876
-9.34802
-9.34711
-9.346
-9.34475
-9.44488
-9.44364
-9.44317
-9.44303
-9.44296
-9.44291
-9.44289
-9.44288
-9.4429
-9.44292
-9.44296
-9.44302
-9.44311
-9.44323
-9.44339
-9.44359
-9.44384
-9.44406
-9.44421
-9.44427
-9.44424
-9.44413
-9.44395
-9.44368
-9.44333
-9.44289
-9.44236
-9.44171
-9.44089
-9.43979
-9.43819
-9.43593
)
;

boundaryField
{
    movingWall
    {
        type            calculated;
        value           nonuniform List<scalar> 
32
(
-9.48815
-9.48691
-9.48644
-9.4863
-9.48623
-9.48618
-9.48616
-9.48616
-9.48617
-9.48619
-9.48624
-9.4863
-9.48638
-9.4865
-9.48666
-9.48687
-9.48711
-9.48734
-9.48749
-9.48755
-9.48752
-9.48741
-9.48722
-9.48695
-9.4866
-9.48617
-9.48563
-9.48498
-9.48416
-9.48306
-9.48146
-9.4792
)
;
    }
    fixedWalls
    {
        type            calculated;
        value           nonuniform List<scalar> 
64
(
6.93889e-18
-0.092815
-0.199438
-0.321929
-0.462656
-0.624346
-0.810135
-1.02362
-1.26892
-1.55075
-1.87452
-2.24641
-2.67354
-3.16407
-3.72743
-4.37447
-5.06634
-5.7136
-6.27722
-6.76794
-7.19515
-7.56707
-7.89085
-8.17272
-8.41812
-8.63175
-8.81774
-8.97968
-9.12071
-9.24359
-9.35088
-9.44488
0.00045194
-0.0923619
-0.198988
-0.321489
-0.462237
-0.623956
-0.809771
-1.02327
-1.26856
-1.55035
-1.87407
-2.24593
-2.67309
-3.16375
-3.72731
-4.37454
-5.0664
-5.71353
-6.27722
-6.76815
-7.19554
-7.56756
-7.89132
-8.17305
-8.41817
-8.63138
-8.8168
-8.978
-9.11807
-9.23959
-9.34475
-9.43593
)
;
    }
    floor
    {
        type            calculated;
        value           nonuniform List<scalar> 
32
(
0.0431956
0.0431923
0.0431876
0.0431833
0.0431795
0.0431752
0.0431699
0.0431648
0.0431636
0.0431725
0.0432016
0.0432646
0.043379
0.0435564
0.04378
0.0439843
0.0440765
0.044052
0.0439994
0.0439413
0.0438875
0.0438391
0.0437946
0.0437537
0.043718
0.0436887
0.0436664
0.0436511
0.0436426
0.0436405
0.0436435
0.0436477
)
;
    }
    frontAndBack
    {
        type            empty;
    }
}


// ************************************************************************* //
