/*--------------------------------*- C++ -*----------------------------------*\
| =========                 |                                                 |
| \\      /  F ield         | OpenFOAM: The Open Source CFD Toolbox           |
|  \\    /   O peration     | Version:  2212                                  |
|   \\  /    A nd           | Website:  www.openfoam.com                      |
|    \\/     M anipulation  |                                                 |
\*---------------------------------------------------------------------------*/
FoamFile
{
    version     2.0;
    format      ascii;
    arch        "LSB;label=64;scalar=64";
    class       volScalarField;
    location    "580";
    object      Sch4;
}
// * * * * * * * * * * * * * * * * * * * * * * * * * * * * * * * * * * * * * //

dimensions      [1 -3 0 0 0 0 0];

internalField   nonuniform List<scalar> 
1024
(
0.0349982
0.035003
0.0350144
0.0350348
0.0350662
0.0351095
0.0351638
0.0352259
0.035291
0.0353539
0.0354118
0.035463
0.0355055
0.0355351
0.0355426
0.0355126
0.0354321
0.0353195
0.0352033
0.0350927
0.0349903
0.0348962
0.0348098
0.0347301
0.0346572
0.0345924
0.0345376
0.0344945
0.0344633
0.034443
0.0344317
0.034427
0.0349995
0.0350044
0.0350161
0.0350371
0.0350693
0.0351137
0.035169
0.0352318
0.035297
0.0353598
0.0354176
0.0354687
0.0355115
0.0355415
0.0355496
0.03552
0.0354392
0.0353258
0.0352091
0.0350982
0.0349956
0.0349014
0.0348149
0.0347352
0.034662
0.0345966
0.0345411
0.0344971
0.0344652
0.0344443
0.0344326
0.0344277
0.0350023
0.0350074
0.0350199
0.0350421
0.0350762
0.0351226
0.0351797
0.0352435
0.035309
0.0353717
0.0354292
0.0354807
0.0355246
0.0355566
0.0355671
0.0355389
0.0354571
0.0353412
0.0352225
0.0351103
0.0350069
0.0349122
0.0348253
0.0347451
0.0346712
0.0346047
0.0345478
0.0345022
0.0344688
0.0344469
0.0344346
0.0344295
0.035007
0.0350125
0.035026
0.03505
0.0350866
0.0351358
0.0351952
0.0352603
0.035326
0.0353884
0.0354462
0.0354991
0.0355461
0.0355829
0.0355991
0.0355744
0.0354906
0.0353691
0.0352457
0.0351304
0.0350248
0.0349286
0.0348404
0.0347591
0.0346839
0.0346158
0.0345569
0.0345092
0.034474
0.0344508
0.0344377
0.0344323
0.0350134
0.0350194
0.0350341
0.0350603
0.0350998
0.035152
0.0352138
0.0352801
0.0353459
0.0354084
0.0354674
0.0355236
0.0355768
0.0356229
0.0356498
0.0356319
0.0355446
0.0354133
0.0352812
0.0351598
0.0350499
0.0349505
0.0348597
0.0347761
0.0346988
0.0346285
0.0345672
0.0345173
0.0344802
0.0344556
0.0344418
0.0344361
0.0350211
0.0350275
0.0350434
0.0350717
0.0351138
0.0351688
0.0352325
0.0352997
0.0353658
0.0354291
0.0354907
0.0355528
0.0356163
0.0356775
0.0357217
0.0357152
0.0356233
0.0354775
0.0353319
0.0352004
0.0350829
0.0349776
0.0348821
0.0347947
0.0347142
0.0346411
0.0345774
0.0345254
0.0344866
0.0344608
0.0344464
0.0344405
0.0350292
0.0350359
0.0350526
0.0350824
0.0351264
0.0351831
0.035248
0.0353156
0.0353821
0.0354469
0.0355128
0.0355834
0.0356614
0.035744
0.0358137
0.0358249
0.0357283
0.035564
0.0353998
0.0352533
0.0351241
0.0350096
0.0349067
0.0348134
0.0347284
0.034652
0.0345859
0.0345321
0.0344922
0.0344658
0.034451
0.034445
0.0350362
0.0350431
0.0350601
0.0350903
0.0351348
0.0351917
0.0352566
0.0353239
0.0353905
0.035457
0.0355278
0.0356085
0.0357043
0.0358145
0.0359192
0.0359567
0.0358571
0.035672
0.035485
0.0353186
0.0351734
0.0350458
0.0349325
0.0348312
0.0347403
0.03466
0.0345916
0.0345367
0.0344963
0.0344698
0.034455
0.034449
0.0350407
0.0350475
0.0350642
0.0350935
0.0351367
0.035192
0.0352549
0.0353204
0.0353859
0.0354529
0.0355274
0.0356176
0.0357326
0.0358763
0.0360272
0.036102
0.0360035
0.0357971
0.0355841
0.0353939
0.0352286
0.0350846
0.0349581
0.0348468
0.0347489
0.0346645
0.0345941
0.0345387
0.0344985
0.0344724
0.0344578
0.0344519
0.0350408
0.0350474
0.0350631
0.0350903
0.0351303
0.0351815
0.03524
0.0353011
0.0353627
0.0354269
0.0355014
0.035598
0.035732
0.0359157
0.036127
0.0362524
0.0361597
0.0359311
0.0356895
0.0354724
0.0352844
0.0351219
0.0349809
0.0348586
0.0347535
0.0346651
0.0345932
0.0345379
0.0344985
0.0344731
0.034459
0.0344533
0.0350343
0.0350406
0.0350549
0.0350791
0.035114
0.0351586
0.0352095
0.0352625
0.0353158
0.0353723
0.0354413
0.0355398
0.0356927
0.0359266
0.0362172
0.0364062
0.0363201
0.0360643
0.0357895
0.0355429
0.0353312
0.0351503
0.0349955
0.0348636
0.0347525
0.0346612
0.0345889
0.0345343
0.0344961
0.0344717
0.0344581
0.0344525
0.0350182
0.0350242
0.0350371
0.0350577
0.0350864
0.0351221
0.0351622
0.0352031
0.0352434
0.0352867
0.0353452
0.0354426
0.0356193
0.0359219
0.036315
0.0365749
0.036486
0.0361883
0.0358703
0.0355899
0.0353544
0.0351577
0.034993
0.0348556
0.0347422
0.0346509
0.0345799
0.0345273
0.0344907
0.0344675
0.0344544
0.034449
0.0349876
0.0349934
0.0350051
0.0350222
0.0350443
0.0350703
0.0350979
0.0351244
0.0351488
0.0351759
0.0352221
0.0353223
0.03554
0.0359428
0.0364611
0.036784
0.0366648
0.036298
0.0359189
0.0355966
0.0353363
0.0351277
0.0349597
0.0348243
0.0347154
0.0346293
0.0345632
0.0345146
0.0344808
0.034459
0.0344466
0.0344413
0.0349375
0.0349437
0.0349557
0.034972
0.0349907
0.0350095
0.0350256
0.0350369
0.0350441
0.0350555
0.0350963
0.0352207
0.0355215
0.0360687
0.0367191
0.0370668
0.0368674
0.0363942
0.0359317
0.0355552
0.0352649
0.035045
0.0348798
0.0347554
0.03466
0.0345864
0.0345303
0.0344889
0.0344599
0.0344408
0.0344296
0.0344245
0.034856
0.0348575
0.0348615
0.0348692
0.0348804
0.034893
0.0349039
0.0349106
0.0349158
0.0349357
0.0350117
0.035225
0.0356868
0.0364198
0.0371694
0.0374584
0.0371135
0.0365068
0.0359516
0.0355097
0.0351721
0.0349238
0.0347516
0.0346397
0.0345684
0.0345201
0.0344837
0.0344542
0.0344305
0.0344131
0.0344023
0.0343974
0.0350105
0.0349945
0.0349638
0.0349234
0.0348816
0.0348468
0.0348262
0.0348269
0.0348614
0.0349581
0.0351721
0.0355912
0.0362896
0.037176
0.0378976
0.0380063
0.0375
0.0368264
0.0362411
0.035743
0.035315
0.0349653
0.0347012
0.0345189
0.0344044
0.0343394
0.0343083
0.0343005
0.0343092
0.0343271
0.034346
0.0343578
0.0360653
0.0360385
0.0359816
0.0358969
0.0357949
0.0356939
0.0356176
0.0355935
0.0356526
0.0358359
0.0361949
0.0367768
0.0375742
0.038387
0.0388978
0.0388674
0.038517
0.0381985
0.0379188
0.0375869
0.0371884
0.0367518
0.0363177
0.0359374
0.0356351
0.0354323
0.0353347
0.0353315
0.0353949
0.0354863
0.0355676
0.0356128
0.0375134
0.0374957
0.0374548
0.0373879
0.0372991
0.0372026
0.0371241
0.0370999
0.0371707
0.0373795
0.0377609
0.0383219
0.0390246
0.0397131
0.0402953
0.0408047
0.0413899
0.0420509
0.0426197
0.0430085
0.0432015
0.0432118
0.0430704
0.042826
0.0425098
0.0421674
0.041839
0.0415609
0.0413571
0.041234
0.0411779
0.0411627
0.0385423
0.0385346
0.0385162
0.038485
0.0384422
0.038396
0.0383662
0.0383855
0.0384949
0.0387354
0.0391313
0.0396774
0.0403502
0.0411168
0.0420265
0.0431768
0.0445928
0.0460566
0.0473212
0.0483295
0.0490972
0.0496499
0.0500004
0.0501606
0.0501393
0.0499542
0.049633
0.0492237
0.0487945
0.048423
0.0481698
0.0480539
0.0391666
0.0391628
0.0391549
0.0391439
0.0391327
0.0391289
0.0391474
0.0392122
0.0393547
0.0396077
0.0399968
0.0405349
0.0412336
0.0421156
0.0432414
0.0446888
0.046396
0.0480329
0.0493451
0.0503355
0.0510872
0.0516805
0.0521551
0.0525244
0.0527821
0.0529151
0.0529153
0.0527911
0.0525767
0.052333
0.0521319
0.0520255
0.0395941
0.0395909
0.0395862
0.0395833
0.039588
0.0396095
0.0396613
0.0397621
0.0399351
0.0402053
0.0405966
0.0411289
0.041825
0.0427208
0.0438722
0.0453353
0.0469992
0.0484986
0.049613
0.050398
0.0509825
0.0514744
0.0519291
0.0523615
0.0527565
0.0530864
0.053326
0.0534626
0.0535012
0.0534677
0.0534052
0.0533599
0.0399617
0.0399568
0.0399502
0.0399476
0.0399576
0.0399917
0.0400638
0.0401898
0.0403871
0.0406732
0.0410664
0.0415839
0.0422474
0.0430901
0.0441587
0.0454978
0.0469926
0.048304
0.049257
0.0499281
0.0504506
0.0509312
0.0514258
0.0519461
0.052465
0.0529362
0.0533172
0.0535842
0.0537377
0.0537988
0.053803
0.0537898
0.0403555
0.0403462
0.0403325
0.0403235
0.0403313
0.0403708
0.040457
0.0406044
0.0408251
0.0411296
0.0415285
0.0420322
0.0426555
0.0434232
0.0443721
0.0455416
0.0468393
0.0479855
0.0488446
0.0494844
0.0500119
0.0505152
0.0510464
0.0516223
0.0522217
0.0527961
0.0532899
0.0536611
0.0538967
0.0540134
0.0540482
0.0540465
0.0408424
0.040825
0.0407988
0.0407779
0.0407802
0.0408249
0.0409284
0.0411032
0.0413559
0.0416891
0.042105
0.0426059
0.0431981
0.0438969
0.0447293
0.0457316
0.0468424
0.0478495
0.0486474
0.0492822
0.0498272
0.0503485
0.0508918
0.0514784
0.0520992
0.0527177
0.0532788
0.0537278
0.0540336
0.0542002
0.0542612
0.0542671
0.0414793
0.04145
0.0414068
0.0413727
0.0413737
0.0414332
0.041568
0.0417856
0.042085
0.0424604
0.0429056
0.043415
0.0439878
0.0446318
0.0453652
0.0462213
0.0471658
0.0480456
0.0487797
0.0493936
0.0499344
0.0504493
0.0509761
0.051537
0.0521325
0.0527408
0.0533171
0.053806
0.0541619
0.054371
0.0544571
0.0544707
0.0423147
0.0422697
0.042209
0.0421693
0.0421849
0.0422806
0.0424683
0.0427465
0.0431047
0.0435285
0.044005
0.0445236
0.0450793
0.0456749
0.0463223
0.0470512
0.0478458
0.0485987
0.0492499
0.0498125
0.0503157
0.0507929
0.0512737
0.0517789
0.0523154
0.0528733
0.0534208
0.0539096
0.0542888
0.0545286
0.0546371
0.054659
0.0433879
0.0433256
0.043256
0.0432321
0.0432912
0.0434507
0.0437102
0.0440564
0.0444697
0.0449301
0.045422
0.0459338
0.0464596
0.0470001
0.0475634
0.0481745
0.0488282
0.0494508
0.0500005
0.0504848
0.0509221
0.0513354
0.0517471
0.0521749
0.0526287
0.0531074
0.0535927
0.054047
0.054421
0.0546751
0.0548011
0.0548315
0.0447321
0.0446572
0.0446028
0.044631
0.0447666
0.0450076
0.0453381
0.0457351
0.0461754
0.0466396
0.0471138
0.047589
0.0480607
0.0485297
0.0490017
0.0494968
0.0500144
0.0505057
0.0509437
0.0513339
0.0516882
0.0520222
0.0523519
0.0526912
0.05305
0.0534326
0.0538319
0.0542232
0.054565
0.0548142
0.0549492
0.0549873
0.0463842
0.0463137
0.0463168
0.0464347
0.0466595
0.0469672
0.0473339
0.0477355
0.048154
0.0485752
0.0489904
0.0493943
0.0497847
0.0501631
0.050534
0.0509121
0.0512986
0.0516627
0.0519882
0.0522801
0.0525458
0.0527955
0.05304
0.0532893
0.0535519
0.0538335
0.0541342
0.0544419
0.0547272
0.0549506
0.055083
0.0551261
0.0483973
0.0483692
0.0484729
0.0486807
0.0489549
0.0492691
0.0496058
0.0499494
0.0502905
0.050622
0.0509402
0.0512428
0.0515298
0.051803
0.0520657
0.0523277
0.0525905
0.0528361
0.0530556
0.0532529
0.0534326
0.0536008
0.0537645
0.0539299
0.0541031
0.054289
0.0544904
0.054704
0.0549136
0.0550904
0.0552053
0.0552483
0.0508582
0.0509165
0.0510944
0.0513071
0.0515355
0.0517699
0.052004
0.0522318
0.0524506
0.0526582
0.0528539
0.0530372
0.0532089
0.0533704
0.0535238
0.0536747
0.053824
0.0539625
0.0540863
0.0541975
0.0542987
0.0543931
0.0544844
0.054576
0.0546713
0.0547732
0.0548842
0.0550046
0.0551283
0.0552404
0.0553207
0.0553552
0.0538688
0.0539148
0.0540048
0.0540949
0.0541834
0.05427
0.0543534
0.0544326
0.0545072
0.0545772
0.0546423
0.0547029
0.0547592
0.0548118
0.0548615
0.0549101
0.0549578
0.0550019
0.0550412
0.0550766
0.0551087
0.0551386
0.0551674
0.0551961
0.0552258
0.0552574
0.0552919
0.0553294
0.0553689
0.0554064
0.0554355
0.0554497
)
;

boundaryField
{
    movingWall
    {
        type            fixedValue;
        value           uniform 0.0555;
    }
    fixedWalls
    {
        type            zeroGradient;
    }
    floor
    {
        type            zeroGradient;
    }
    frontAndBack
    {
        type            empty;
    }
}


// ************************************************************************* //
