/*--------------------------------*- C++ -*----------------------------------*\
| =========                 |                                                 |
| \\      /  F ield         | OpenFOAM: The Open Source CFD Toolbox           |
|  \\    /   O peration     | Version:  2212                                  |
|   \\  /    A nd           | Website:  www.openfoam.com                      |
|    \\/     M anipulation  |                                                 |
\*---------------------------------------------------------------------------*/
FoamFile
{
    version     2.0;
    format      ascii;
    arch        "LSB;label=64;scalar=64";
    class       volScalarField;
    location    "580";
    object      Sco2;
}
// * * * * * * * * * * * * * * * * * * * * * * * * * * * * * * * * * * * * * //

dimensions      [1 -3 0 0 0 0 0];

internalField   nonuniform List<scalar> 
1024
(
0.00556047
0.00556135
0.0055635
0.00556733
0.00557323
0.00558138
0.00559161
0.0056033
0.00561553
0.00562738
0.00563829
0.00564792
0.00565593
0.0056615
0.0056629
0.00565724
0.00564209
0.00562088
0.00559901
0.00557818
0.0055589
0.00554118
0.00552491
0.00550991
0.00549618
0.00548398
0.00547367
0.00546555
0.00545968
0.00545586
0.00545372
0.00545284
0.00556069
0.0055616
0.00556381
0.00556777
0.00557383
0.00558218
0.00559258
0.00560439
0.00561667
0.0056285
0.00563938
0.00564901
0.00565706
0.0056627
0.00566422
0.00565863
0.00564342
0.00562207
0.00560011
0.00557922
0.0055599
0.00554217
0.00552588
0.00551086
0.00549708
0.00548478
0.00547432
0.00546605
0.00546003
0.0054561
0.0054539
0.00545298
0.00556122
0.00556218
0.00556453
0.00556871
0.00557512
0.00558384
0.00559459
0.00560661
0.00561893
0.00563073
0.00564157
0.00565126
0.00565952
0.00566554
0.0056675
0.00566218
0.00564678
0.00562497
0.00560262
0.0055815
0.00556203
0.00554419
0.00552783
0.00551272
0.00549881
0.0054863
0.00547558
0.005467
0.00546072
0.00545659
0.00545427
0.00545331
0.00556209
0.00556313
0.00556567
0.0055702
0.00557708
0.00558633
0.00559751
0.00560976
0.00562213
0.00563388
0.00564477
0.00565472
0.00566355
0.00567049
0.00567351
0.00566885
0.00565307
0.0056302
0.00560698
0.00558527
0.0055654
0.00554728
0.00553068
0.00551536
0.0055012
0.00548839
0.00547729
0.00546832
0.00546169
0.00545732
0.00545486
0.00545385
0.0055633
0.00556442
0.00556719
0.00557213
0.00557955
0.00558937
0.005601
0.00561348
0.00562588
0.00563764
0.00564874
0.00565931
0.00566932
0.005678
0.00568304
0.00567965
0.00566322
0.00563851
0.00561366
0.00559082
0.00557013
0.0055514
0.00553431
0.00551857
0.00550401
0.00549077
0.00547924
0.00546984
0.00546286
0.00545823
0.00545562
0.00545456
0.00556474
0.00556595
0.00556894
0.00557426
0.00558219
0.00559253
0.00560453
0.00561717
0.00562961
0.00564151
0.00565312
0.0056648
0.00567674
0.00568825
0.00569655
0.0056953
0.00567802
0.00565058
0.00562319
0.00559844
0.00557634
0.0055565
0.00553853
0.00552207
0.00550691
0.00549315
0.00548115
0.00547135
0.00546405
0.00545921
0.00545649
0.00545539
0.00556625
0.00556752
0.00557067
0.00557626
0.00558454
0.00559521
0.00560743
0.00562015
0.00563266
0.00564485
0.00565724
0.00567053
0.0056852
0.00570073
0.00571382
0.00571591
0.00569773
0.00566683
0.00563595
0.0056084
0.0055841
0.00556254
0.00554317
0.00552561
0.0055096
0.00549521
0.00548275
0.00547263
0.00546511
0.00546014
0.00545736
0.00545624
0.00556757
0.00556886
0.00557207
0.00557774
0.00558611
0.00559683
0.00560903
0.00562169
0.00563422
0.00564673
0.00566004
0.00567522
0.00569323
0.00571397
0.00573364
0.00574065
0.00572192
0.00568713
0.00565197
0.0056207
0.00559338
0.00556937
0.00554804
0.00552895
0.00551184
0.00549672
0.00548384
0.0054735
0.0054659
0.0054609
0.00545812
0.005457
0.0055684
0.00556968
0.00557281
0.00557833
0.00558645
0.00559685
0.00560869
0.00562101
0.00563332
0.00564592
0.00565991
0.00567688
0.00569851
0.00572555
0.00575391
0.00576794
0.00574942
0.00571063
0.00567061
0.00563485
0.00560377
0.00557667
0.00555287
0.0055319
0.00551347
0.00549757
0.00548431
0.00547388
0.00546631
0.00546139
0.00545866
0.00545755
0.0055684
0.00556964
0.00557259
0.00557772
0.00558523
0.00559485
0.00560585
0.00561734
0.0056289
0.00564097
0.00565497
0.00567313
0.00569833
0.0057329
0.00577263
0.00579615
0.00577871
0.00573578
0.00569042
0.00564962
0.00561427
0.00558371
0.00555716
0.00553414
0.00551435
0.00549769
0.00548416
0.00547374
0.00546632
0.00546154
0.00545888
0.0054578
0.00556716
0.00556834
0.00557104
0.00557558
0.00558214
0.00559052
0.00560007
0.00561003
0.00562003
0.00563063
0.0056436
0.00566211
0.00569088
0.0057349
0.00578953
0.00582498
0.0058088
0.00576076
0.00570918
0.00566286
0.00562307
0.00558906
0.00555992
0.00553509
0.00551417
0.00549697
0.00548334
0.00547308
0.00546587
0.00546127
0.00545871
0.00545766
0.00556409
0.00556523
0.00556766
0.00557153
0.00557692
0.00558362
0.00559114
0.00559881
0.00560636
0.00561448
0.00562545
0.00564377
0.00567704
0.00573399
0.00580785
0.00585658
0.00583984
0.00578397
0.00572429
0.00567165
0.00562741
0.00559044
0.00555946
0.00553359
0.00551224
0.00549504
0.00548167
0.00547175
0.00546487
0.00546048
0.00545803
0.005457
0.00555829
0.0055594
0.00556159
0.00556481
0.00556896
0.00557382
0.00557899
0.00558394
0.0055885
0.00559358
0.00560226
0.00562115
0.00566217
0.00573799
0.0058353
0.00589574
0.00587325
0.00580441
0.00573329
0.00567281
0.00562396
0.00558477
0.00555319
0.0055277
0.0055072
0.00549099
0.00547853
0.00546937
0.00546301
0.00545891
0.00545657
0.00545556
0.0055488
0.00554997
0.00555221
0.00555528
0.00555881
0.00556233
0.00556535
0.00556746
0.00556878
0.00557092
0.00557864
0.00560216
0.00565894
0.00576186
0.00588381
0.00594867
0.005911
0.00582215
0.00573541
0.00566481
0.00561038
0.00556913
0.00553812
0.00551474
0.00549679
0.00548292
0.00547234
0.00546455
0.00545909
0.00545549
0.00545337
0.00545242
0.00553352
0.00553376
0.00553447
0.00553583
0.00553786
0.0055402
0.00554222
0.00554348
0.00554453
0.00554844
0.00556302
0.00560353
0.00569069
0.00582833
0.00596847
0.00602188
0.00595664
0.00584268
0.00573852
0.00565572
0.00559254
0.00554609
0.00551387
0.00549292
0.00547952
0.00547043
0.00546358
0.00545802
0.00545355
0.00545028
0.00544823
0.00544731
0.00556421
0.00556115
0.00555527
0.00554753
0.00553948
0.00553276
0.00552877
0.00552889
0.00553554
0.00555408
0.00559485
0.00567418
0.00580552
0.00597121
0.00610514
0.006124
0.00602811
0.00590137
0.00579144
0.00569814
0.00561817
0.00555298
0.00550377
0.00546983
0.00544854
0.00543643
0.00543061
0.00542912
0.00543068
0.00543399
0.00543749
0.00543967
0.00576548
0.00576046
0.00574979
0.00573388
0.00571471
0.00569572
0.00568139
0.00567695
0.00568824
0.00572294
0.00579059
0.00589967
0.00604834
0.00619876
0.00629202
0.00628422
0.00621719
0.00615659
0.00610362
0.0060412
0.0059665
0.00588479
0.00580355
0.00573257
0.00567612
0.00563837
0.00562038
0.00562006
0.0056322
0.00564953
0.00566489
0.00567343
0.00603861
0.00603536
0.00602782
0.00601549
0.00599908
0.00598126
0.00596681
0.00596249
0.0059759
0.006015
0.00608609
0.00619021
0.00631999
0.00644645
0.00655331
0.00664722
0.00675584
0.00687902
0.00698531
0.00705816
0.00709432
0.00709628
0.00706976
0.00702407
0.00696484
0.00690082
0.00683956
0.00678781
0.00675004
0.00672735
0.00671712
0.0067144
0.00623131
0.00622993
0.00622662
0.00622098
0.00621325
0.00620494
0.0061997
0.00620358
0.00622415
0.00626894
0.00634242
0.00644356
0.00656815
0.00671039
0.0068799
0.00709501
0.00736041
0.00763536
0.00787336
0.00806344
0.00820818
0.00831241
0.00837846
0.00840864
0.0084046
0.00836977
0.00830933
0.00823236
0.00815168
0.00808189
0.00803435
0.00801261
0.00634787
0.00634718
0.0063458
0.00634388
0.00634201
0.00634158
0.00634533
0.00635772
0.00638455
0.00643184
0.00650432
0.00660453
0.00673475
0.00689948
0.0071103
0.00738188
0.00770279
0.00801112
0.00825882
0.00844609
0.00858823
0.00870034
0.00878988
0.00885939
0.00890775
0.00893254
0.00893225
0.00890853
0.00886785
0.00882172
0.00878371
0.00876362
0.0064277
0.00642713
0.0064263
0.00642587
0.00642693
0.00643119
0.00644116
0.00646031
0.00649294
0.00654365
0.00661689
0.00671643
0.00684666
0.00701447
0.0072305
0.00750542
0.00781856
0.00810125
0.00831178
0.00846021
0.00857067
0.00866344
0.00874903
0.00883028
0.00890441
0.00896626
0.00901114
0.00903662
0.0090437
0.00903722
0.00902532
0.00901673
0.00649648
0.00649559
0.00649441
0.00649402
0.00649605
0.00650265
0.00651642
0.00654033
0.0065776
0.00663145
0.00670527
0.0068023
0.00692672
0.0070848
0.00728547
0.00753724
0.00781865
0.00806591
0.0082458
0.00837253
0.00847106
0.00856153
0.00865449
0.0087522
0.00884961
0.00893806
0.00900957
0.00905967
0.00908844
0.00909988
0.0091006
0.0090981
0.00657034
0.0065686
0.00656609
0.00656447
0.00656609
0.00657369
0.00659014
0.0066181
0.00665984
0.00671727
0.00679233
0.00688695
0.00700398
0.00714812
0.00732636
0.00754625
0.00779051
0.00800652
0.0081685
0.00828911
0.00838844
0.00848311
0.00858295
0.00869116
0.00880376
0.00891166
0.00900442
0.00907415
0.00911839
0.00914028
0.00914681
0.00914648
0.00666175
0.00665851
0.00665362
0.00664977
0.00665036
0.00665894
0.00667867
0.00671182
0.00675962
0.00682254
0.00690091
0.00699514
0.00710644
0.0072377
0.00739407
0.00758246
0.00779143
0.00798107
0.00813138
0.0082509
0.00835347
0.00845151
0.00855364
0.00866389
0.00878057
0.00889683
0.00900229
0.00908666
0.00914414
0.00917544
0.0091869
0.009188
0.00678144
0.00677594
0.00676785
0.00676152
0.00676184
0.00677325
0.00679886
0.00684008
0.00689673
0.00696764
0.00705159
0.00714752
0.00725527
0.00737628
0.00751403
0.00767487
0.00785244
0.00801796
0.00815613
0.00827167
0.0083734
0.00847022
0.00856929
0.00867475
0.00878671
0.00890107
0.00900943
0.00910135
0.00916826
0.00920758
0.00922376
0.00922632
0.00693853
0.00693007
0.00691868
0.00691127
0.00691433
0.00693254
0.0069681
0.00702074
0.00708847
0.00716852
0.0072584
0.00735611
0.00746068
0.00757264
0.00769425
0.00783113
0.00798041
0.00812197
0.00824447
0.0083503
0.00844496
0.00853469
0.00862511
0.00872012
0.00882102
0.00892592
0.00902889
0.00912082
0.00919213
0.00923722
0.00925763
0.00926175
0.00714039
0.00712867
0.0071156
0.00711116
0.00712239
0.00715257
0.00720163
0.00726705
0.00734512
0.00743206
0.00752486
0.00762131
0.00772028
0.00782193
0.00792774
0.00804249
0.00816524
0.00828223
0.00838558
0.00847666
0.0085589
0.00863664
0.00871408
0.00879454
0.00887989
0.00896992
0.0090612
0.00914664
0.00921699
0.00926478
0.00928847
0.00929419
0.00739332
0.00737921
0.00736898
0.00737433
0.00739993
0.00744541
0.00750781
0.00758275
0.00766588
0.00775348
0.00784294
0.0079325
0.00802133
0.00810954
0.00819824
0.00829118
0.00838836
0.00848064
0.00856295
0.00863633
0.00870296
0.00876578
0.00882779
0.00889161
0.0089591
0.00903107
0.00910617
0.00917978
0.00924408
0.00929095
0.00931635
0.00932351
0.00770423
0.00769096
0.00769154
0.00771375
0.00775611
0.00781411
0.00788326
0.00795904
0.00803799
0.00811746
0.00819577
0.0082719
0.00834544
0.00841664
0.00848635
0.00855734
0.00862989
0.00869826
0.00875943
0.0088143
0.00886426
0.00891121
0.0089572
0.00900411
0.0090535
0.00910648
0.00916304
0.00922093
0.00927459
0.00931662
0.00934153
0.00934964
0.00808313
0.00807783
0.00809734
0.00813645
0.00818809
0.00824728
0.00831074
0.00837554
0.00843987
0.00850241
0.0085624
0.00861945
0.00867352
0.00872492
0.00877431
0.00882352
0.00887285
0.00891896
0.0089602
0.00899729
0.00903108
0.00906271
0.00909349
0.00912462
0.00915719
0.00919216
0.00923005
0.00927023
0.00930966
0.00934293
0.00936455
0.00937264
0.00854632
0.00855728
0.00859076
0.00863079
0.00867378
0.00871793
0.00876204
0.00880499
0.00884624
0.00888541
0.0089223
0.00895687
0.00898922
0.0090196
0.00904845
0.00907678
0.00910481
0.00913083
0.00915407
0.00917498
0.00919401
0.00921176
0.00922893
0.00924617
0.00926408
0.00928325
0.00930414
0.00932679
0.00935007
0.00937115
0.00938625
0.00939275
0.00911298
0.00912163
0.00913857
0.00915552
0.00917219
0.00918848
0.0092042
0.00921913
0.0092332
0.00924639
0.00925868
0.0092701
0.00928071
0.00929061
0.00929996
0.00930907
0.00931803
0.00932631
0.0093337
0.00934034
0.00934638
0.009352
0.00935742
0.00936282
0.00936841
0.00937436
0.00938084
0.00938791
0.00939534
0.00940238
0.00940786
0.00941053
)
;

boundaryField
{
    movingWall
    {
        type            fixedValue;
        value           uniform 0.00942;
    }
    fixedWalls
    {
        type            zeroGradient;
    }
    floor
    {
        type            zeroGradient;
    }
    frontAndBack
    {
        type            empty;
    }
}


// ************************************************************************* //
