/*--------------------------------*- C++ -*----------------------------------*\
| =========                 |                                                 |
| \\      /  F ield         | OpenFOAM: The Open Source CFD Toolbox           |
|  \\    /   O peration     | Version:  2212                                  |
|   \\  /    A nd           | Website:  www.openfoam.com                      |
|    \\/     M anipulation  |                                                 |
\*---------------------------------------------------------------------------*/
FoamFile
{
    version     2.0;
    format      ascii;
    arch        "LSB;label=64;scalar=64";
    class       volScalarField;
    location    "580";
    object      Xch;
}
// * * * * * * * * * * * * * * * * * * * * * * * * * * * * * * * * * * * * * //

dimensions      [1 -3 0 0 0 0 0];

internalField   nonuniform List<scalar> 
1024
(
0.019934
0.0199341
0.0199345
0.0199351
0.019936
0.0199374
0.019939
0.0199408
0.0199428
0.0199447
0.0199464
0.0199478
0.0199491
0.0199499
0.01995
0.019949
0.0199465
0.019943
0.0199394
0.0199359
0.0199327
0.0199298
0.0199271
0.0199245
0.0199222
0.0199202
0.0199184
0.0199171
0.0199161
0.0199154
0.0199151
0.0199149
0.019934
0.0199342
0.0199345
0.0199352
0.0199361
0.0199375
0.0199391
0.019941
0.019943
0.0199448
0.0199465
0.019948
0.0199492
0.0199501
0.0199502
0.0199492
0.0199467
0.0199432
0.0199395
0.0199361
0.0199329
0.0199299
0.0199272
0.0199247
0.0199224
0.0199203
0.0199185
0.0199171
0.0199161
0.0199155
0.0199151
0.0199149
0.0199341
0.0199343
0.0199347
0.0199353
0.0199363
0.0199377
0.0199395
0.0199414
0.0199433
0.0199452
0.0199469
0.0199484
0.0199496
0.0199505
0.0199507
0.0199498
0.0199472
0.0199436
0.0199399
0.0199364
0.0199332
0.0199303
0.0199275
0.019925
0.0199227
0.0199206
0.0199188
0.0199173
0.0199162
0.0199155
0.0199152
0.019915
0.0199343
0.0199344
0.0199348
0.0199356
0.0199367
0.0199381
0.0199399
0.0199419
0.0199438
0.0199457
0.0199474
0.0199489
0.0199502
0.0199513
0.0199517
0.0199508
0.0199482
0.0199444
0.0199406
0.019937
0.0199338
0.0199307
0.019928
0.0199254
0.019923
0.0199209
0.019919
0.0199175
0.0199164
0.0199157
0.0199153
0.0199151
0.0199345
0.0199346
0.0199351
0.0199359
0.0199371
0.0199386
0.0199405
0.0199425
0.0199444
0.0199463
0.019948
0.0199496
0.0199512
0.0199524
0.0199531
0.0199525
0.0199497
0.0199457
0.0199416
0.0199379
0.0199345
0.0199314
0.0199285
0.0199259
0.0199235
0.0199213
0.0199193
0.0199178
0.0199166
0.0199158
0.0199154
0.0199152
0.0199347
0.0199349
0.0199354
0.0199362
0.0199375
0.0199391
0.019941
0.019943
0.019945
0.0199469
0.0199487
0.0199505
0.0199523
0.0199541
0.0199553
0.0199549
0.019952
0.0199476
0.0199431
0.0199391
0.0199354
0.0199322
0.0199292
0.0199265
0.0199239
0.0199217
0.0199196
0.019918
0.0199168
0.019916
0.0199155
0.0199153
0.0199349
0.0199351
0.0199356
0.0199365
0.0199379
0.0199396
0.0199415
0.0199435
0.0199455
0.0199474
0.0199493
0.0199514
0.0199537
0.019956
0.019958
0.0199582
0.0199551
0.0199501
0.0199451
0.0199406
0.0199366
0.0199331
0.0199299
0.019927
0.0199243
0.019922
0.0199199
0.0199182
0.0199169
0.0199161
0.0199157
0.0199155
0.0199351
0.0199353
0.0199359
0.0199368
0.0199381
0.0199398
0.0199418
0.0199438
0.0199457
0.0199477
0.0199498
0.0199521
0.0199549
0.0199581
0.0199611
0.019962
0.0199588
0.0199532
0.0199475
0.0199424
0.019938
0.0199341
0.0199306
0.0199275
0.0199247
0.0199222
0.01992
0.0199183
0.0199171
0.0199162
0.0199158
0.0199156
0.0199353
0.0199355
0.019936
0.0199369
0.0199382
0.0199398
0.0199417
0.0199437
0.0199456
0.0199476
0.0199498
0.0199524
0.0199558
0.01996
0.0199643
0.0199663
0.0199631
0.0199568
0.0199503
0.0199446
0.0199395
0.0199351
0.0199313
0.0199279
0.0199248
0.0199222
0.0199201
0.0199184
0.0199171
0.0199163
0.0199158
0.0199156
0.0199353
0.0199355
0.0199359
0.0199368
0.019938
0.0199395
0.0199413
0.0199431
0.0199449
0.0199468
0.019949
0.0199518
0.0199557
0.0199611
0.0199672
0.0199706
0.0199676
0.0199606
0.0199533
0.0199467
0.019941
0.0199361
0.0199318
0.0199281
0.0199249
0.0199222
0.01992
0.0199183
0.0199171
0.0199163
0.0199158
0.0199157
0.0199351
0.0199353
0.0199357
0.0199364
0.0199375
0.0199388
0.0199403
0.0199419
0.0199435
0.0199452
0.0199472
0.0199501
0.0199546
0.0199614
0.0199698
0.0199751
0.0199721
0.0199643
0.019956
0.0199486
0.0199422
0.0199368
0.0199321
0.0199281
0.0199247
0.019922
0.0199198
0.0199181
0.019917
0.0199162
0.0199158
0.0199156
0.0199346
0.0199348
0.0199352
0.0199358
0.0199366
0.0199377
0.0199389
0.0199401
0.0199413
0.0199426
0.0199443
0.0199472
0.0199524
0.0199612
0.0199727
0.0199799
0.0199767
0.0199676
0.019958
0.0199496
0.0199426
0.0199367
0.0199318
0.0199277
0.0199243
0.0199216
0.0199194
0.0199178
0.0199167
0.019916
0.0199156
0.0199154
0.0199337
0.0199338
0.0199342
0.0199347
0.0199354
0.0199361
0.019937
0.0199378
0.0199385
0.0199393
0.0199406
0.0199435
0.01995
0.0199618
0.0199769
0.0199858
0.0199816
0.0199704
0.019959
0.0199494
0.0199417
0.0199355
0.0199305
0.0199265
0.0199233
0.0199208
0.0199188
0.0199174
0.0199163
0.0199157
0.0199153
0.0199151
0.0199321
0.0199323
0.0199327
0.0199332
0.0199337
0.0199343
0.0199348
0.0199351
0.0199353
0.0199356
0.0199368
0.0199405
0.0199494
0.0199655
0.0199843
0.0199938
0.0199871
0.0199726
0.0199588
0.0199476
0.0199391
0.0199327
0.0199278
0.0199242
0.0199215
0.0199193
0.0199177
0.0199165
0.0199156
0.019915
0.0199147
0.0199145
0.0199296
0.0199297
0.0199298
0.01993
0.0199304
0.0199307
0.0199311
0.0199313
0.0199314
0.019932
0.0199342
0.0199406
0.0199543
0.0199758
0.0199973
0.0200047
0.0199936
0.0199752
0.0199587
0.0199457
0.0199358
0.0199287
0.0199237
0.0199206
0.0199186
0.0199172
0.0199162
0.0199153
0.0199146
0.0199141
0.0199137
0.0199136
0.0199343
0.0199338
0.0199329
0.0199316
0.0199304
0.0199293
0.0199287
0.0199287
0.0199297
0.0199326
0.019939
0.0199515
0.0199721
0.0199978
0.020018
0.0200199
0.0200039
0.0199836
0.0199664
0.0199518
0.0199395
0.0199294
0.0199219
0.0199167
0.0199135
0.0199117
0.0199108
0.0199106
0.0199108
0.0199113
0.0199118
0.0199121
0.0199662
0.0199654
0.0199637
0.0199611
0.019958
0.019955
0.0199527
0.0199519
0.0199536
0.0199591
0.0199697
0.0199867
0.0200098
0.0200326
0.0200461
0.0200438
0.0200326
0.0200228
0.0200145
0.0200047
0.0199932
0.0199806
0.0199681
0.0199572
0.0199485
0.0199427
0.0199399
0.0199398
0.0199416
0.0199442
0.0199466
0.0199479
0.0200097
0.0200092
0.0200079
0.0200059
0.0200032
0.0200003
0.0199979
0.019997
0.019999
0.0200049
0.0200158
0.0200317
0.0200512
0.0200699
0.0200855
0.0200993
0.0201155
0.020134
0.02015
0.0201607
0.0201659
0.0201659
0.0201617
0.0201545
0.0201454
0.0201355
0.0201262
0.0201182
0.0201125
0.020109
0.0201074
0.020107
0.0200403
0.0200401
0.0200395
0.0200385
0.0200371
0.0200356
0.0200346
0.0200349
0.0200377
0.0200443
0.0200552
0.0200703
0.0200889
0.0201102
0.0201357
0.0201683
0.0202085
0.02025
0.0202857
0.0203139
0.0203351
0.0203501
0.0203595
0.0203635
0.0203625
0.020357
0.0203478
0.0203362
0.0203241
0.0203136
0.0203065
0.0203032
0.0200587
0.0200585
0.0200583
0.0200578
0.0200574
0.0200571
0.0200574
0.0200589
0.0200626
0.0200695
0.0200801
0.0200951
0.0201146
0.0201396
0.0201716
0.0202129
0.0202616
0.0203081
0.020345
0.0203725
0.0203928
0.0204085
0.0204208
0.0204302
0.0204365
0.0204397
0.0204393
0.0204357
0.0204297
0.0204229
0.0204174
0.0204145
0.0200711
0.020071
0.0200708
0.0200707
0.0200707
0.0200711
0.0200723
0.0200749
0.0200795
0.0200868
0.0200976
0.0201125
0.0201322
0.0201577
0.0201907
0.0202326
0.0202802
0.0203229
0.0203543
0.0203759
0.0203914
0.020404
0.0204153
0.0204259
0.0204355
0.0204436
0.0204495
0.0204529
0.0204538
0.020453
0.0204514
0.0204502
0.0200818
0.0200816
0.0200814
0.0200812
0.0200814
0.0200822
0.020084
0.0200873
0.0200927
0.0201005
0.0201114
0.020126
0.0201448
0.0201689
0.0201996
0.0202381
0.020281
0.0203184
0.0203453
0.0203638
0.0203776
0.0203899
0.0204022
0.020415
0.0204277
0.0204393
0.0204487
0.0204553
0.0204591
0.0204607
0.0204609
0.0204606
0.020093
0.0200927
0.0200923
0.020092
0.0200921
0.0200931
0.0200953
0.0200993
0.0201053
0.0201137
0.0201248
0.020139
0.0201568
0.0201787
0.020206
0.0202396
0.0202769
0.0203096
0.0203339
0.0203515
0.0203656
0.0203786
0.020392
0.0204064
0.0204212
0.0204354
0.0204476
0.0204567
0.0204626
0.0204655
0.0204665
0.0204665
0.0201066
0.0201061
0.0201054
0.0201048
0.0201048
0.0201059
0.0201087
0.0201134
0.0201203
0.0201295
0.0201411
0.0201552
0.020172
0.0201919
0.0202158
0.0202446
0.0202765
0.0203052
0.0203277
0.0203452
0.0203599
0.0203735
0.0203874
0.0204022
0.0204177
0.0204331
0.020447
0.0204581
0.0204656
0.0204698
0.0204713
0.0204715
0.0201242
0.0201234
0.0201222
0.0201212
0.0201212
0.0201228
0.0201264
0.0201323
0.0201406
0.0201509
0.0201633
0.0201775
0.0201937
0.0202119
0.0202329
0.0202574
0.0202844
0.0203094
0.02033
0.020347
0.0203616
0.0203752
0.0203889
0.0204032
0.0204181
0.0204333
0.0204477
0.0204597
0.0204685
0.0204737
0.0204758
0.0204762
0.020147
0.0201458
0.0201441
0.020143
0.0201434
0.020146
0.0201511
0.0201586
0.0201684
0.0201801
0.0201932
0.0202076
0.0202232
0.02024
0.0202583
0.0202791
0.0203017
0.0203231
0.0203413
0.0203569
0.0203705
0.0203832
0.0203957
0.0204087
0.0204223
0.0204363
0.02045
0.0204621
0.0204714
0.0204773
0.02048
0.0204806
0.0201761
0.0201744
0.0201725
0.0201719
0.0201734
0.0201777
0.0201847
0.0201941
0.0202054
0.020218
0.0202315
0.0202456
0.0202602
0.0202753
0.0202912
0.0203085
0.0203271
0.0203446
0.02036
0.0203734
0.0203853
0.0203964
0.0204072
0.0204182
0.0204298
0.0204419
0.020454
0.0204653
0.0204745
0.0204807
0.0204838
0.0204846
0.0202124
0.0202103
0.0202088
0.0202096
0.0202132
0.0202197
0.0202286
0.0202394
0.0202513
0.0202639
0.0202769
0.02029
0.020303
0.020316
0.0203292
0.0203432
0.0203578
0.0203716
0.0203839
0.0203947
0.0204043
0.0204133
0.020422
0.0204308
0.02044
0.0204497
0.0204597
0.0204694
0.0204779
0.020484
0.0204873
0.0204882
0.0202567
0.0202548
0.0202549
0.020258
0.0202641
0.0202723
0.0202822
0.020293
0.0203043
0.0203158
0.0203271
0.0203381
0.0203488
0.0203593
0.0203696
0.0203803
0.0203911
0.0204014
0.0204105
0.0204185
0.0204258
0.0204325
0.020439
0.0204455
0.0204523
0.0204594
0.020467
0.0204747
0.0204817
0.0204872
0.0204904
0.0204914
0.0203106
0.0203098
0.0203126
0.0203182
0.0203255
0.0203339
0.020343
0.0203522
0.0203614
0.0203704
0.020379
0.0203873
0.0203951
0.0204027
0.02041
0.0204173
0.0204247
0.0204316
0.0204377
0.0204432
0.0204481
0.0204526
0.020457
0.0204613
0.0204658
0.0204705
0.0204756
0.020481
0.0204861
0.0204904
0.0204932
0.0204943
0.0203763
0.0203779
0.0203826
0.0203883
0.0203944
0.0204007
0.0204069
0.0204131
0.020419
0.0204246
0.0204299
0.0204349
0.0204396
0.020444
0.0204483
0.0204525
0.0204567
0.0204606
0.020464
0.0204671
0.0204699
0.0204724
0.0204749
0.0204773
0.0204797
0.0204824
0.0204852
0.0204882
0.0204912
0.020494
0.0204959
0.0204967
0.0204566
0.0204578
0.0204602
0.0204626
0.020465
0.0204673
0.0204695
0.0204716
0.0204737
0.0204755
0.0204773
0.020479
0.0204805
0.0204819
0.0204833
0.0204847
0.020486
0.0204873
0.0204883
0.0204893
0.0204902
0.020491
0.0204918
0.0204925
0.0204933
0.0204941
0.020495
0.0204959
0.0204969
0.0204978
0.0204985
0.0204989
)
;

boundaryField
{
    movingWall
    {
        type            fixedValue;
        value           uniform 0.0205;
    }
    fixedWalls
    {
        type            zeroGradient;
    }
    floor
    {
        type            zeroGradient;
    }
    frontAndBack
    {
        type            empty;
    }
}


// ************************************************************************* //
