/*--------------------------------*- C++ -*----------------------------------*\
| =========                 |                                                 |
| \\      /  F ield         | OpenFOAM: The Open Source CFD Toolbox           |
|  \\    /   O peration     | Version:  2212                                  |
|   \\  /    A nd           | Website:  www.openfoam.com                      |
|    \\/     M anipulation  |                                                 |
\*---------------------------------------------------------------------------*/
FoamFile
{
    version     2.0;
    format      ascii;
    arch        "LSB;label=64;scalar=64";
    class       volScalarField;
    location    "0.32";
    object      alpha.air;
}
// * * * * * * * * * * * * * * * * * * * * * * * * * * * * * * * * * * * * * //

dimensions      [0 0 0 0 0 0 0];

internalField   nonuniform List<scalar> 
32768
(
1.33763e-120
1.29345e-117
4.12186e-115
7.49124e-113
9.6111e-111
9.61201e-109
7.86879e-107
5.4088e-105
3.16707e-103
1.59412e-101
6.94018e-100
2.62455e-98
8.64471e-97
2.48321e-95
6.22004e-94
1.35645e-92
2.56732e-91
4.19693e-90
5.88736e-89
7.02598e-88
7.05273e-87
5.8669e-86
3.96835e-85
2.12924e-84
8.7484e-84
2.61334e-83
5.32374e-83
6.70514e-83
4.35972e-83
1.03545e-83
8.21685e-85
4.41756e-86
2.70858e-87
4.55223e-86
6.38276e-86
1.19369e-86
1.40684e-87
1.33851e-88
1.11949e-89
8.49712e-91
5.92684e-92
3.81749e-93
2.28187e-94
1.26347e-95
6.49203e-97
3.09656e-98
1.37013e-99
5.62202e-101
2.12965e-102
7.42007e-104
2.37535e-105
6.93724e-107
1.8383e-108
4.38261e-110
9.27843e-112
1.723e-113
2.75948e-115
3.72301e-117
4.10206e-119
3.52453e-121
2.19092e-123
8.55341e-126
1.44891e-128
1.73249e-130
7.39138e-128
1.83006e-125
3.09341e-123
3.92807e-121
3.96299e-119
3.29402e-117
2.31457e-115
1.40423e-113
7.46572e-112
3.51721e-110
1.4874e-108
5.69691e-107
1.99389e-105
6.40927e-104
1.90967e-102
5.28682e-101
1.37234e-99
3.34981e-98
7.72369e-97
1.68496e-95
3.48227e-94
6.81221e-93
1.26629e-91
2.2405e-90
3.81273e-89
6.30124e-88
1.00726e-86
1.46554e-85
1.66262e-84
1.04539e-83
4.2513e-85
1.45185e-85
4.3567e-84
6.7148e-83
3.73838e-82
7.76366e-82
7.96502e-82
4.81228e-82
1.90821e-82
5.38726e-83
1.14365e-83
1.89897e-84
2.53897e-85
2.79325e-86
2.57309e-87
2.01096e-88
1.34714e-89
7.79574e-91
3.91881e-92
1.71787e-93
6.58351e-95
2.20834e-96
6.48243e-98
1.66279e-99
3.71665e-101
7.20794e-103
1.20533e-104
1.72205e-106
2.07164e-108
2.04573e-110
1.57938e-112
8.63788e-115
2.70722e-117
2.81795e-120
3.09409e-117
3.14833e-114
1.04053e-111
1.95435e-109
2.60094e-107
2.72052e-105
2.35869e-103
1.74775e-101
1.12645e-99
6.36606e-98
3.16383e-96
1.38424e-94
5.33146e-93
1.80553e-91
5.36649e-90
1.39643e-88
3.16999e-87
6.24856e-86
1.06313e-84
1.54665e-83
1.90345e-82
1.95283e-81
1.63771e-80
1.09701e-79
5.69765e-79
2.18811e-78
5.82457e-78
9.88032e-78
9.48701e-78
4.46213e-78
8.72513e-79
7.7449e-80
5.10803e-81
3.79495e-81
7.37415e-82
7.50553e-83
6.19335e-84
4.62629e-85
3.24302e-86
2.14869e-87
1.34582e-88
7.94489e-90
4.41798e-91
2.30352e-92
1.12563e-93
5.14825e-95
2.19975e-96
8.76981e-98
3.24571e-99
1.11077e-100
3.50855e-102
1.01564e-103
2.67844e-105
6.38074e-107
1.35563e-108
2.53588e-110
4.10593e-112
5.6221e-114
6.3136e-116
5.55679e-118
3.56573e-120
1.45933e-122
2.71508e-125
2.45076e-127
1.04455e-124
2.58823e-122
4.35117e-120
5.48903e-118
5.50451e-116
4.55267e-114
3.18679e-112
1.93089e-110
1.02758e-108
4.85476e-107
2.06483e-105
7.97521e-104
2.8237e-102
9.20491e-101
2.79292e-99
7.90325e-98
2.10684e-96
5.30687e-95
1.2705e-93
2.8977e-92
6.31004e-91
1.31344e-89
2.63016e-88
5.09787e-87
9.71848e-86
1.85697e-84
3.57798e-83
6.63208e-82
1.05812e-80
1.23298e-79
7.3561e-79
9.85005e-79
8.76675e-78
4.8562e-77
1.26143e-76
1.61404e-76
1.15132e-76
5.14521e-77
1.56841e-77
3.47308e-78
5.85971e-79
7.81242e-80
8.46392e-81
7.61344e-82
5.78006e-83
3.75028e-84
2.09934e-85
1.0212e-86
4.34049e-88
1.61833e-89
5.30742e-91
1.53345e-92
3.90721e-94
8.78148e-96
1.73966e-97
3.03204e-99
4.6327e-101
6.151e-103
6.96844e-105
6.53135e-107
4.8038e-109
2.50182e-111
7.41082e-114
7.1535e-117
1.29611e-114
1.49345e-111
5.80271e-109
1.30964e-106
2.11693e-104
2.67307e-102
2.72347e-100
2.28597e-98
1.62578e-96
1.00123e-94
5.39469e-93
2.55372e-91
1.06153e-89
3.86975e-88
1.23511e-86
3.44743e-85
8.39375e-84
1.77435e-82
3.23784e-81
5.06372e-80
6.72102e-79
7.47448e-78
6.84606e-77
5.05199e-76
2.91592e-75
1.26449e-74
3.90054e-74
7.9411e-74
9.61763e-74
6.03072e-74
1.70914e-74
2.69052e-75
4.89545e-76
5.10469e-77
3.85454e-78
2.52063e-79
1.56346e-80
9.55519e-82
5.77454e-83
3.41087e-84
1.94819e-85
1.06649e-86
5.5685e-88
2.75509e-89
1.28848e-90
5.68271e-92
2.35571e-93
9.16151e-95
3.3253e-96
1.1216e-97
3.50793e-99
1.00946e-100
2.65693e-102
6.34236e-104
1.35588e-105
2.5612e-107
4.20228e-109
5.85287e-111
6.71254e-113
6.06205e-115
4.01933e-117
1.72108e-119
3.47081e-122
2.37845e-124
1.03299e-121
2.54356e-119
4.23498e-117
5.29022e-115
5.2584e-113
4.31648e-111
3.00174e-109
1.81158e-107
9.6239e-106
4.54649e-104
1.93893e-102
7.52509e-101
2.68508e-99
8.83853e-98
2.71767e-96
7.81915e-95
2.12745e-93
5.49173e-92
1.35437e-90
3.20134e-89
7.2721e-88
1.593e-86
3.39187e-85
7.08726e-84
1.48329e-82
3.18814e-81
7.11874e-80
1.58394e-78
3.20026e-77
5.28994e-76
6.47523e-75
5.25949e-74
2.47587e-73
7.55938e-73
1.34134e-72
1.30862e-72
7.5701e-73
2.8525e-73
7.53184e-74
1.47518e-74
2.23848e-75
2.71613e-76
2.70135e-77
2.24647e-78
1.58434e-79
9.58681e-81
5.01657e-82
2.28393e-83
9.08688e-85
3.16916e-86
9.70379e-88
2.61414e-89
6.20053e-91
1.29393e-92
2.37333e-94
3.82223e-96
5.36352e-98
6.41979e-100
6.33857e-102
5.0268e-104
3.09422e-106
1.35625e-108
3.43975e-111
2.93836e-114
7.89872e-112
9.44146e-109
3.87716e-106
9.39468e-104
1.6504e-101
2.27463e-99
2.50305e-97
2.21818e-95
1.63257e-93
1.033e-91
5.70017e-90
2.75721e-88
1.1706e-86
4.35064e-85
1.4152e-83
4.025e-82
9.98076e-81
2.14998e-79
4.00477e-78
6.41349e-77
8.75961e-76
1.00893e-74
9.66602e-74
7.5594e-73
4.70207e-72
2.24445e-71
7.85018e-71
1.893e-70
2.89699e-70
2.5473e-70
1.11034e-70
2.25154e-71
2.45706e-72
1.76838e-73
1.01778e-74
5.37461e-76
2.82354e-77
1.52437e-78
8.38673e-80
4.59699e-81
2.4711e-82
1.28639e-83
6.4368e-85
3.07416e-86
1.39598e-87
6.01039e-89
2.44374e-90
9.36005e-92
3.36096e-93
1.1264e-94
3.51476e-96
1.01232e-97
2.67579e-99
6.43682e-101
1.39239e-102
2.66933e-104
4.45669e-106
6.33848e-108
7.44905e-110
6.92146e-112
4.74643e-114
2.12166e-116
4.57751e-119
2.32048e-121
1.01513e-118
2.51169e-116
4.15978e-114
5.15306e-112
5.07644e-110
4.13181e-108
2.8485e-106
1.70764e-104
9.02642e-103
4.24699e-101
1.80782e-99
7.0114e-98
2.50599e-96
8.26917e-95
2.55534e-93
7.40632e-92
2.03455e-90
5.31724e-89
1.33206e-87
3.21117e-86
7.47095e-85
1.68695e-83
3.72807e-82
8.15835e-81
1.80797e-79
4.17353e-78
1.01641e-76
2.50078e-75
5.65505e-74
1.05963e-72
1.49858e-71
1.44282e-70
8.27591e-70
2.42025e-69
3.50227e-69
2.76919e-69
1.35092e-69
4.50186e-70
1.08548e-70
1.98146e-71
2.84149e-72
3.29501e-73
3.16101e-74
2.55201e-75
1.75698e-76
1.04118e-77
5.34405e-79
2.38741e-80
9.32979e-82
3.19831e-83
9.63627e-85
2.55593e-86
5.96497e-88
1.22181e-89
2.19875e-91
3.45667e-93
4.67658e-95
5.30057e-97
4.84324e-99
3.53113e-101
2.01507e-103
8.30946e-106
2.01565e-108
1.67731e-111
4.31061e-109
5.11565e-106
2.10267e-103
5.13544e-101
9.16398e-99
1.29294e-96
1.46185e-94
1.31874e-92
9.75875e-91
6.1636e-89
3.38626e-87
1.63338e-85
6.91466e-84
2.56767e-82
8.36718e-81
2.38811e-79
5.95271e-78
1.29304e-76
2.44145e-75
3.98338e-74
5.57988e-73
6.63959e-72
6.62241e-71
5.44119e-70
3.59064e-69
1.84199e-68
7.02853e-68
1.87773e-67
3.22976e-67
3.18671e-67
1.56004e-67
3.42622e-68
3.79651e-69
2.63658e-70
1.42566e-71
7.0187e-73
3.48362e-74
1.81258e-75
9.71617e-77
5.21704e-78
2.7565e-79
1.41325e-80
6.97987e-82
3.29827e-83
1.48493e-84
6.35578e-86
2.57525e-87
9.85158e-89
3.54542e-90
1.19447e-91
3.76061e-93
1.09468e-94
2.9323e-96
7.16703e-98
1.58078e-99
3.09681e-101
5.29139e-103
7.72422e-105
9.34377e-107
8.96716e-109
6.38618e-111
2.99705e-113
7.00145e-116
2.75264e-118
1.16095e-115
2.85362e-113
4.66442e-111
5.69394e-109
5.5272e-107
4.43702e-105
3.01436e-103
1.78382e-101
9.32087e-100
4.3356e-98
1.82763e-96
7.01758e-95
2.48818e-93
8.13665e-92
2.49496e-90
7.18348e-89
1.96055e-87
5.09461e-86
1.26978e-84
3.05044e-83
7.07832e-82
1.59906e-80
3.54047e-79
7.77744e-78
1.73281e-76
4.03639e-75
1.00086e-73
2.54457e-72
6.008e-71
1.17246e-69
1.70539e-68
1.64794e-67
9.09938e-67
2.45085e-66
3.24274e-66
2.37259e-66
1.07842e-66
3.33163e-67
7.47997e-68
1.28296e-68
1.74558e-69
1.93829e-70
1.7945e-71
1.40893e-72
9.50737e-74
5.55424e-75
2.82388e-76
1.25438e-77
4.87825e-79
1.66908e-80
5.02863e-82
1.33624e-83
3.13102e-85
6.454e-87
1.16904e-88
1.84984e-90
2.51087e-92
2.82783e-94
2.55099e-96
1.83542e-98
1.03687e-100
4.25703e-103
1.03543e-105
8.7158e-109
1.6803e-106
1.95645e-103
7.92639e-101
1.91746e-98
3.40907e-96
4.82786e-94
5.51303e-92
4.995e-90
3.67597e-88
2.29531e-86
1.24463e-84
5.92939e-83
2.48338e-81
9.14215e-80
2.96031e-78
8.42027e-77
2.09791e-75
4.56837e-74
8.67247e-73
1.42873e-71
2.02889e-70
2.46032e-69
2.51568e-68
2.1326e-67
1.46532e-66
7.91541e-66
3.22452e-65
9.35456e-65
1.78428e-64
2.00084e-64
1.13712e-64
2.86541e-65
3.43975e-66
2.47216e-67
1.35131e-68
6.66639e-70
3.35056e-71
1.78237e-72
9.77364e-74
5.36193e-75
2.89125e-76
1.50966e-77
7.58227e-79
3.63609e-80
1.6614e-81
7.21743e-83
2.97007e-84
1.15478e-85
4.23435e-87
1.45497e-88
4.68327e-90
1.3946e-91
3.82694e-93
9.59745e-95
2.17705e-96
4.38901e-98
7.71914e-100
1.16258e-101
1.45368e-103
1.44581e-105
1.07189e-107
5.28581e-110
1.32934e-112
4.24224e-115
1.67542e-112
4.07278e-110
6.53938e-108
7.829e-106
7.44947e-104
5.86666e-102
3.90377e-100
2.26492e-98
1.16046e-96
5.29437e-95
2.18989e-93
8.23869e-92
2.86432e-90
9.1721e-89
2.75174e-87
7.75471e-86
2.06613e-84
5.24027e-83
1.27301e-81
2.97526e-80
6.71601e-79
1.47535e-77
3.17245e-76
6.75072e-75
1.4536e-73
3.26752e-72
7.85237e-71
1.9635e-69
4.62476e-68
8.98585e-67
1.28108e-65
1.17936e-64
5.93599e-64
1.41037e-63
1.65516e-63
1.09412e-63
4.57713e-64
1.32247e-64
2.8145e-65
4.62857e-66
6.09722e-67
6.60964e-68
6.01635e-69
4.66714e-70
3.11917e-71
1.81007e-72
9.1684e-74
4.06725e-75
1.5842e-76
5.44065e-78
1.64851e-79
4.41137e-81
1.04229e-82
2.16834e-84
3.97465e-86
6.35598e-88
8.67463e-90
9.8033e-92
8.87514e-94
6.43185e-96
3.6783e-98
1.53497e-100
3.80839e-103
3.2825e-106
4.86686e-104
5.50832e-101
2.17699e-98
5.1575e-96
9.02278e-94
1.26579e-91
1.44485e-89
1.30941e-87
9.46075e-86
5.7618e-84
3.0539e-82
1.42502e-80
5.86984e-79
2.1323e-77
6.83339e-76
1.93103e-74
4.79943e-73
1.04624e-71
1.99612e-70
3.31963e-69
4.78245e-68
5.91678e-67
6.21241e-66
5.44883e-65
3.90858e-64
2.22837e-63
9.71076e-63
3.0647e-62
6.49507e-62
8.30554e-62
5.52962e-62
1.63893e-62
2.20376e-63
1.69927e-64
9.7828e-66
5.05749e-67
2.69262e-68
1.52143e-69
8.83719e-71
5.12467e-72
2.90749e-73
1.59058e-74
8.3345e-76
4.16292e-77
1.97945e-78
8.92893e-80
3.81646e-81
1.54223e-82
5.87792e-84
2.09713e-85
7.00506e-87
2.16778e-88
6.17355e-90
1.6069e-91
3.78443e-93
7.91894e-95
1.44368e-96
2.25707e-98
2.93309e-100
3.03816e-102
2.35547e-104
1.22576e-106
3.32282e-109
8.86218e-112
3.17418e-109
7.60934e-107
1.1942e-104
1.39446e-102
1.29203e-100
9.90619e-99
6.4122e-97
3.61774e-95
1.79834e-93
7.97014e-92
3.19521e-90
1.16442e-88
3.91529e-87
1.21105e-85
3.50215e-84
9.5019e-83
2.42846e-81
5.88946e-80
1.36541e-78
3.03199e-77
6.50389e-76
1.35467e-74
2.75317e-73
5.51964e-72
1.11296e-70
2.33409e-69
5.24249e-68
1.24127e-66
2.81549e-65
5.27822e-64
7.15533e-63
6.08781e-62
2.71121e-61
5.58137e-61
5.75636e-61
3.41825e-61
1.31044e-61
3.52786e-62
7.09248e-63
1.11453e-63
1.41645e-64
1.49344e-65
1.3312e-66
1.01713e-67
6.72863e-69
3.88148e-70
1.96174e-71
8.71244e-73
3.41393e-74
1.18313e-75
3.63008e-77
9.86487e-79
2.3733e-80
5.04071e-82
9.44402e-84
1.54145e-85
2.1272e-87
2.40994e-89
2.20314e-91
1.62476e-93
9.50306e-96
4.06981e-98
1.0391e-100
9.24134e-104
1.11154e-101
1.21265e-98
4.63642e-96
1.06682e-93
1.82209e-91
2.51013e-89
2.84085e-87
2.51437e-85
1.75817e-83
1.04377e-81
5.41798e-80
2.4839e-78
1.00883e-76
3.62462e-75
1.15208e-73
3.23967e-72
8.04154e-71
1.75691e-69
3.37199e-68
5.6651e-67
8.28461e-66
1.04614e-64
1.1282e-63
1.02388e-62
7.66649e-62
4.61133e-61
2.14823e-60
7.36893e-60
1.73355e-59
2.527e-59
1.97696e-59
6.9952e-60
1.07995e-60
9.16358e-62
5.71997e-63
3.20355e-64
1.86584e-65
1.15149e-66
7.28823e-68
4.58589e-69
2.79908e-70
1.64003e-71
9.1982e-73
4.91537e-74
2.50356e-75
1.20777e-76
5.51502e-78
2.37484e-79
9.61834e-81
3.65505e-82
1.29036e-83
4.23337e-85
1.27052e-86
3.48111e-88
8.60241e-90
1.89005e-91
3.61325e-93
5.92216e-95
8.071e-97
8.78348e-99
7.18124e-101
3.97317e-103
1.16622e-105
2.68035e-108
8.33937e-106
1.96261e-103
2.98661e-101
3.36913e-99
3.00863e-97
2.21587e-95
1.37899e-93
7.47284e-92
3.5438e-90
1.50756e-88
5.7503e-87
2.00243e-85
6.39789e-84
1.88113e-82
5.1516e-81
1.32114e-79
3.17729e-78
7.22074e-77
1.56379e-75
3.22902e-74
6.42247e-73
1.23753e-71
2.3235e-70
4.28931e-69
7.90974e-68
1.50509e-66
3.06981e-65
6.66908e-64
1.41402e-62
2.49568e-61
3.14525e-60
2.41944e-59
9.33798e-59
1.64965e-58
1.49018e-58
7.93946e-59
2.78789e-59
6.9915e-60
1.32758e-60
1.99306e-61
2.44302e-62
2.50414e-63
2.18449e-64
1.64267e-65
1.07456e-66
6.15472e-68
3.09957e-69
1.37693e-70
5.41909e-72
1.89143e-73
5.86277e-75
1.61437e-76
3.94444e-78
8.53738e-80
1.6355e-81
2.74157e-83
3.9131e-85
4.49273e-87
4.16252e-89
3.1445e-91
1.89603e-93
8.39907e-96
2.22365e-98
2.05553e-101
2.0849e-99
2.17914e-96
8.0074e-94
1.77676e-91
2.9389e-89
3.94222e-87
4.39912e-85
3.74084e-83
2.53881e-81
1.47193e-79
7.49257e-78
3.37918e-76
1.35461e-74
4.81722e-73
1.51976e-71
4.2545e-70
1.05479e-68
2.30946e-67
4.45789e-66
7.56313e-65
1.12213e-63
1.44532e-62
1.59973e-61
1.50085e-60
1.17176e-59
7.42595e-59
3.69236e-58
1.37404e-57
3.58066e-57
5.93897e-57
5.46123e-57
2.32875e-57
4.21605e-58
4.01597e-59
2.78176e-60
1.73418e-61
1.13272e-62
7.81326e-64
5.5135e-65
3.82564e-66
2.56424e-67
1.65171e-68
1.02031e-69
6.01592e-71
3.37542e-72
1.79506e-73
9.02083e-75
4.26515e-76
1.89306e-77
7.84978e-79
3.02118e-80
1.07333e-81
3.48172e-83
1.02747e-84
2.71685e-86
6.37002e-88
1.30301e-89
2.27437e-91
3.29707e-93
3.82093e-95
3.33016e-97
1.96806e-99
6.27773e-102
1.29657e-104
3.37689e-102
7.70864e-100
1.12525e-97
1.20391e-95
1.01393e-93
7.01514e-92
4.11193e-90
2.07944e-88
9.24885e-87
3.66355e-85
1.30535e-83
4.22878e-82
1.25448e-80
3.42693e-79
8.69302e-78
2.05785e-76
4.56224e-75
9.54016e-74
1.89213e-72
3.57475e-71
6.46382e-70
1.1262e-68
1.907e-67
3.17458e-66
5.25124e-65
8.87465e-64
1.60335e-62
3.11061e-61
6.00236e-60
9.76703e-59
1.12312e-57
7.6712e-57
2.52535e-56
3.8078e-56
3.01047e-56
1.43997e-56
4.63607e-57
1.08424e-57
1.94664e-58
2.79473e-59
3.30687e-60
3.29763e-61
2.81685e-62
2.08541e-63
1.34928e-64
7.67411e-66
3.85082e-67
1.71188e-68
6.76208e-70
2.37611e-71
7.43468e-73
2.07233e-74
5.13726e-76
1.13185e-77
2.2144e-79
3.80594e-81
5.60447e-83
6.66336e-85
6.27453e-87
4.88474e-89
3.05369e-91
1.40815e-93
3.89118e-96
3.76485e-99
3.29286e-97
3.28003e-94
1.15252e-91
2.45407e-89
3.91183e-87
5.07712e-85
5.51568e-83
4.51209e-81
2.97541e-79
1.68584e-77
8.41945e-76
3.73764e-74
1.4792e-72
5.20765e-71
1.63089e-69
4.54484e-68
1.12499e-66
2.46698e-65
4.7856e-64
8.19153e-63
1.23178e-61
1.61641e-60
1.83386e-59
1.77609e-58
1.44354e-57
9.62139e-57
5.09537e-56
2.0521e-55
5.90768e-55
1.11185e-54
1.20002e-54
6.20152e-55
1.3419e-55
1.45944e-56
1.14401e-57
8.12032e-59
6.07225e-60
4.77778e-61
3.81884e-62
2.97582e-63
2.24653e-64
1.63555e-65
1.14294e-66
7.63745e-68
4.8503e-69
2.92874e-70
1.67262e-71
9.04272e-73
4.59385e-74
2.17765e-75
9.54368e-77
3.84372e-78
1.41277e-79
4.70066e-81
1.40219e-82
3.70597e-84
8.55112e-86
1.68977e-87
2.78645e-89
3.69492e-91
3.72177e-93
2.58127e-95
1.00171e-97
1.9466e-100
3.04989e-98
6.4738e-96
8.58267e-94
8.25451e-92
6.20951e-90
3.82434e-88
1.98862e-86
8.92521e-85
3.51548e-83
1.23109e-81
3.89071e-80
1.12563e-78
2.99335e-77
7.34999e-76
1.67416e-74
3.56664e-73
7.10752e-72
1.33903e-70
2.38751e-69
4.04028e-68
6.54731e-67
1.01778e-65
1.52727e-64
2.24096e-63
3.26892e-62
4.82346e-61
7.5468e-60
1.27586e-58
2.18704e-57
3.21841e-56
3.32137e-55
1.98158e-54
5.49492e-54
7.05242e-54
4.88366e-54
2.10063e-54
6.21229e-55
1.35736e-55
2.30821e-56
3.17409e-57
3.63072e-58
3.52681e-59
2.95318e-60
2.15454e-61
1.37987e-62
7.79816e-64
3.90208e-65
1.73647e-66
6.88549e-68
2.43565e-69
7.69264e-71
2.16988e-72
5.45672e-74
1.22351e-75
2.44387e-77
4.30464e-79
6.53351e-81
8.08261e-83
7.7943e-85
6.29005e-87
4.0978e-89
1.97577e-91
5.72331e-94
5.82056e-97
4.45135e-95
4.20958e-92
1.40895e-89
2.86638e-87
4.38324e-85
5.48482e-83
5.75565e-81
4.53489e-79
2.90685e-77
1.60985e-75
7.88847e-74
3.44743e-72
1.34697e-70
4.69438e-69
1.45918e-67
4.04649e-66
9.99466e-65
2.19321e-63
4.27123e-62
7.3675e-61
1.12132e-59
1.49694e-58
1.73801e-57
1.7346e-56
1.46485e-55
1.02462e-54
5.7654e-54
2.50591e-53
7.94455e-53
1.69086e-52
2.13618e-52
1.34145e-52
3.52914e-53
4.4459e-54
4.01366e-55
3.31186e-56
2.88921e-57
2.6451e-58
2.43182e-59
2.17472e-60
1.89237e-61
1.59333e-62
1.28785e-63
9.96256e-65
7.39397e-66
5.22941e-67
3.47174e-68
2.15386e-69
1.24478e-70
6.67738e-72
3.31081e-73
1.50982e-74
6.29492e-76
2.38216e-77
8.10865e-79
2.45462e-80
6.51253e-82
1.48578e-83
2.84059e-85
4.38833e-87
5.18459e-89
4.26932e-91
2.02859e-93
4.30784e-96
3.72767e-94
7.30687e-92
8.7181e-90
7.46337e-88
4.96902e-86
2.70084e-84
1.23815e-82
4.90065e-81
1.70441e-79
5.28003e-78
1.47265e-76
3.72991e-75
8.63936e-74
1.84068e-72
3.63847e-71
6.77595e-70
1.18769e-68
1.96458e-67
3.08385e-66
4.61043e-65
6.58471e-64
9.00281e-63
1.1863e-61
1.51316e-60
1.90761e-59
2.42631e-58
3.22511e-57
4.64796e-56
6.91402e-55
9.03182e-54
8.23375e-53
4.22342e-52
9.77064e-52
1.06655e-51
6.48074e-52
2.51268e-52
6.84205e-53
1.39989e-53
2.2596e-54
2.98214e-55
3.30356e-56
3.13097e-57
2.57367e-58
1.85269e-59
1.17583e-60
6.6092e-62
3.30147e-63
1.47148e-64
5.85929e-66
2.08736e-67
6.65534e-69
1.89986e-70
4.84773e-72
1.1062e-73
2.25571e-75
4.07198e-77
6.36781e-79
8.18616e-81
8.15249e-83
6.84939e-85
4.66546e-87
2.35919e-89
7.1887e-92
7.71345e-95
5.22404e-93
4.67015e-90
1.48308e-87
2.8725e-85
4.20273e-83
5.05684e-81
5.0954e-79
3.86829e-77
2.41028e-75
1.30466e-73
6.27193e-72
2.69817e-70
1.0405e-68
3.58878e-67
1.10682e-65
3.05309e-64
7.51927e-63
1.64945e-61
3.22103e-60
5.59113e-59
8.59955e-58
1.16591e-56
1.38274e-55
1.41928e-54
1.24264e-53
9.09983e-53
5.42558e-52
2.53718e-51
8.82676e-51
2.11611e-50
3.11778e-50
2.37944e-50
7.72356e-51
1.14173e-51
1.2072e-52
1.18208e-53
1.22643e-54
1.33062e-55
1.43109e-56
1.50219e-57
1.53655e-58
1.51701e-59
1.44124e-60
1.32118e-61
1.14164e-62
9.24422e-64
7.00794e-65
4.96788e-66
3.28729e-67
2.02515e-68
1.15728e-69
6.10431e-71
2.95311e-72
1.29982e-73
5.15382e-75
1.81851e-76
5.62409e-78
1.49547e-79
3.33341e-81
6.0135e-83
8.33202e-85
8.12872e-87
4.70112e-89
1.16658e-91
5.30198e-90
9.65243e-88
1.04349e-85
7.99693e-84
4.73014e-82
2.27076e-80
9.14857e-79
3.16863e-77
9.60851e-76
2.58805e-74
6.26494e-73
1.37629e-71
2.76626e-70
5.12182e-69
8.7858e-68
1.40288e-66
2.09354e-65
2.97688e-64
4.03545e-63
5.22458e-62
6.4723e-61
7.70402e-60
8.79978e-59
9.70415e-58
1.0436e-56
1.12849e-55
1.25705e-54
1.51398e-53
1.91045e-52
2.17375e-51
1.72405e-50
7.48303e-50
1.43426e-49
1.33259e-49
7.12403e-50
2.49699e-50
6.27834e-51
1.20609e-51
1.85248e-52
2.35178e-53
2.52832e-54
2.34229e-55
1.89323e-56
1.34674e-57
8.48122e-59
4.74703e-60
2.36971e-61
1.05857e-62
4.23547e-64
1.52017e-65
4.89464e-67
1.41454e-68
3.66345e-70
8.50945e-72
1.77192e-73
3.27893e-75
5.28351e-77
7.05533e-79
7.29558e-81
6.39633e-83
4.56571e-85
2.42968e-87
7.81337e-90
8.8769e-93
5.34539e-91
4.50858e-88
1.35587e-85
2.49528e-83
3.48451e-81
4.02352e-79
3.87753e-77
2.83643e-75
1.7176e-73
9.0843e-72
4.2833e-70
1.81383e-68
6.90195e-67
2.35517e-65
7.20399e-64
1.9755e-62
4.84707e-61
1.06172e-59
2.07628e-58
3.62143e-57
5.61934e-56
7.72269e-55
9.33643e-54
9.83392e-53
8.9052e-52
6.80923e-51
4.28913e-50
2.15068e-49
8.17867e-49
2.19886e-48
3.76096e-48
3.48142e-48
1.41053e-48
2.47818e-49
3.12375e-50
3.70818e-51
4.66946e-52
6.10405e-53
7.80961e-54
9.75511e-55
1.1836e-55
1.38341e-56
1.56376e-57
1.66241e-58
1.65886e-59
1.55558e-60
1.37114e-61
1.13479e-62
8.79636e-64
6.36109e-65
4.26918e-66
2.64244e-67
1.49738e-68
7.7034e-70
3.56317e-71
1.46485e-72
5.27741e-74
1.63652e-75
4.26505e-77
9.03526e-79
1.48016e-80
1.72718e-82
1.22406e-84
3.74338e-87
8.91153e-86
1.44859e-83
1.38884e-81
9.3729e-80
4.87208e-78
2.05486e-76
7.27472e-75
2.21383e-73
5.89381e-72
1.39134e-70
2.94394e-69
5.63303e-68
9.82114e-67
1.57066e-65
2.31799e-64
3.17428e-63
4.05407e-62
4.85163e-61
5.48477e-60
5.98104e-59
6.2712e-58
6.34917e-57
6.2057e-56
5.83429e-55
5.32724e-54
4.82919e-53
4.46942e-52
4.42402e-51
4.63527e-50
4.50447e-49
3.06191e-48
1.10672e-47
1.74975e-47
1.38661e-47
6.54378e-48
2.08058e-48
4.84615e-49
8.76733e-50
1.28494e-50
1.57316e-51
1.64506e-52
1.49278e-53
1.18863e-54
8.36886e-56
5.23735e-57
2.92287e-58
1.45963e-59
6.54014e-61
2.63141e-62
9.5198e-64
3.09687e-65
9.06417e-67
2.38364e-68
5.63754e-70
1.19916e-71
2.27558e-73
3.77917e-75
5.24154e-77
5.64699e-79
5.17819e-81
3.88236e-83
2.1778e-85
7.40551e-88
8.92766e-91
4.80264e-89
3.81219e-86
1.08326e-83
1.89029e-81
2.51457e-79
2.78349e-77
2.56004e-75
1.80429e-73
1.06154e-71
5.48418e-70
2.53538e-68
1.05659e-66
3.96599e-65
1.33832e-63
4.05862e-62
1.10578e-60
2.70045e-59
5.8998e-58
1.15386e-56
2.01909e-55
3.15506e-54
4.38639e-53
5.39371e-52
5.81569e-51
5.43276e-50
4.32508e-49
2.86901e-48
1.53692e-47
6.3619e-47
1.90882e-46
3.76997e-46
4.21655e-46
2.14941e-46
4.55419e-47
6.98259e-48
1.02654e-48
1.59622e-49
2.53621e-50
3.90362e-51
5.85046e-52
8.46544e-53
1.19178e-53
1.58547e-54
1.98548e-55
2.34491e-56
2.61171e-57
2.73825e-58
2.69399e-59
2.47715e-60
2.11922e-61
1.67858e-62
1.22436e-63
8.17387e-65
4.95878e-66
2.70988e-67
1.31955e-68
5.64692e-70
2.08615e-71
6.49682e-73
1.65023e-74
3.25631e-76
4.61287e-78
4.03996e-80
1.55818e-82
2.07676e-81
2.90022e-79
2.38949e-77
1.37164e-75
6.03894e-74
2.15517e-72
6.46438e-71
1.67171e-69
3.79761e-68
7.68559e-67
1.40058e-65
2.31714e-64
3.50232e-63
4.8604e-62
6.21816e-61
7.3597e-60
8.08574e-59
8.27459e-58
7.91769e-57
7.11824e-56
6.16443e-55
5.15814e-54
4.18855e-53
3.29764e-52
2.51712e-51
1.88822e-50
1.44102e-49
1.1574e-48
9.8833e-48
8.04309e-47
4.61851e-46
1.3688e-45
1.78167e-45
1.20815e-45
5.05345e-46
1.46318e-46
3.16858e-47
5.41644e-48
7.59789e-49
8.99545e-50
9.17236e-51
8.17074e-52
6.42177e-53
4.48316e-54
2.79245e-55
1.55608e-56
7.78139e-58
3.50035e-59
1.41728e-60
5.17101e-62
1.70038e-63
5.04239e-65
1.347e-66
3.24486e-68
7.05301e-70
1.37303e-71
2.35074e-73
3.38645e-75
3.80958e-77
3.65997e-79
2.8873e-81
1.70986e-83
6.15728e-86
7.88884e-89
3.80471e-87
2.84012e-84
7.61839e-82
1.25861e-79
1.59072e-77
1.68561e-75
1.47641e-73
1.00239e-71
5.72844e-70
2.89001e-68
1.30965e-66
5.36927e-65
1.9875e-63
6.63013e-62
1.99271e-60
5.3908e-59
1.30884e-57
2.84879e-56
5.56451e-55
9.75314e-54
1.53192e-52
2.14993e-51
2.68252e-50
2.95321e-49
2.83783e-48
2.34496e-47
1.63246e-46
9.30627e-46
4.17413e-45
1.39028e-44
3.15152e-44
4.23571e-44
2.72724e-44
7.10394e-45
1.35639e-45
2.51767e-46
4.88366e-47
9.43684e-48
1.75641e-48
3.17784e-49
5.61401e-50
9.50214e-51
1.5162e-51
2.28417e-52
3.24702e-53
4.34692e-54
5.46657e-55
6.44007e-56
7.0865e-57
7.25921e-58
6.89475e-59
6.04176e-60
4.85455e-61
3.54962e-62
2.34011e-63
1.37522e-64
7.10329e-66
3.16755e-67
1.19114e-68
3.6574e-70
8.74729e-72
1.51076e-73
1.63636e-75
8.02363e-78
6.4676e-77
7.75974e-75
5.47901e-73
2.66643e-71
9.88802e-70
2.95847e-68
7.41273e-67
1.59688e-65
3.01628e-64
5.07178e-63
7.68342e-62
1.05884e-60
1.33756e-59
1.55816e-58
1.68148e-57
1.68637e-56
1.5752e-55
1.37235e-54
1.11643e-53
8.49277e-53
6.05528e-52
4.14533e-51
2.74308e-50
1.76832e-49
1.10584e-48
6.76975e-48
4.1921e-47
2.69867e-46
1.84787e-45
1.2352e-44
5.90938e-44
1.41606e-43
1.51815e-43
8.84697e-44
3.2951e-44
8.72619e-45
1.76391e-45
2.85945e-46
3.8517e-47
4.42291e-48
4.40923e-49
3.86482e-50
3.00451e-51
2.08361e-52
1.29385e-53
7.20958e-55
3.61386e-56
1.63349e-57
6.66066e-59
2.45214e-60
8.15439e-62
2.45092e-63
6.65363e-65
1.63309e-66
3.62827e-68
7.24814e-70
1.2795e-71
1.91422e-73
2.25148e-75
2.26715e-77
1.88322e-79
1.17947e-81
4.50588e-84
6.14975e-87
2.66066e-85
1.86407e-82
4.71401e-80
7.36538e-78
8.84102e-76
8.95769e-74
7.47239e-72
4.88735e-70
2.71248e-68
1.33602e-66
5.93364e-65
2.39251e-63
8.73147e-62
2.87844e-60
8.5701e-59
2.30038e-57
5.54645e-56
1.20135e-54
2.34047e-53
4.10244e-52
6.46475e-51
9.13857e-50
1.15412e-48
1.2937e-47
1.27492e-46
1.08984e-45
7.93298e-45
4.79248e-44
2.31789e-43
8.5211e-43
2.2021e-42
3.53199e-42
2.87189e-42
9.4279e-43
2.30135e-43
5.48633e-44
1.33942e-44
3.17985e-45
7.30797e-46
1.63909e-46
3.59267e-47
7.40391e-48
1.43495e-48
2.61763e-49
4.49565e-50
7.26789e-51
1.10515e-51
1.57818e-52
2.11128e-53
2.63688e-54
3.06093e-55
3.28425e-56
3.23541e-57
2.90296e-58
2.34949e-59
1.69531e-60
1.07506e-61
5.88443e-63
2.71581e-64
1.02379e-65
3.01048e-67
6.41781e-69
8.67086e-71
5.4489e-73
3.01927e-72
3.07031e-70
1.81402e-68
7.32542e-67
2.23845e-65
5.49273e-64
1.12506e-62
1.9773e-61
3.04404e-60
4.1714e-59
5.15313e-58
5.79679e-57
5.98536e-56
5.70817e-55
5.05279e-54
4.16708e-53
3.21098e-52
2.31643e-51
1.56641e-50
9.93379e-50
5.90851e-49
3.29771e-48
1.76774e-47
9.1574e-47
4.61841e-46
2.26399e-45
1.10923e-44
5.61677e-44
3.02712e-43
1.62561e-42
6.39053e-42
1.22429e-41
1.084e-41
5.45768e-42
1.81963e-42
4.42873e-43
8.39287e-44
1.29533e-44
1.68141e-45
1.87855e-46
1.83605e-47
1.58748e-48
1.22335e-49
8.44384e-51
5.23608e-52
2.92182e-53
1.46967e-54
6.68039e-56
2.74519e-57
1.02037e-58
3.43272e-60
1.04602e-61
2.88698e-63
7.22168e-65
1.64048e-66
3.36386e-68
6.12402e-70
9.51539e-72
1.1715e-73
1.23756e-75
1.08428e-77
7.1858e-80
2.91294e-82
4.23474e-85
1.6448e-83
1.08169e-80
2.5787e-78
3.8088e-76
4.33645e-74
4.19286e-72
3.33177e-70
2.09933e-68
1.1314e-66
5.43926e-65
2.36726e-63
9.38544e-62
3.37606e-60
1.09955e-58
3.24131e-57
8.62482e-56
2.06312e-54
4.44194e-53
8.61998e-52
1.50866e-50
2.3807e-49
3.38222e-48
4.31226e-47
4.90747e-46
4.94376e-45
4.3564e-44
3.30255e-43
2.10484e-42
1.09202e-41
4.40369e-41
1.28786e-40
2.44472e-40
2.4999e-40
1.06093e-40
3.37286e-41
1.04123e-41
3.22199e-42
9.56416e-43
2.76425e-43
7.85315e-44
2.11863e-44
5.35557e-45
1.27353e-45
2.85806e-46
6.06486e-47
1.2174e-47
2.30915e-48
4.12921e-49
6.93681e-50
1.08982e-50
1.59226e-51
2.14914e-52
2.65931e-53
2.99015e-54
3.02428e-55
2.71892e-56
2.14205e-57
1.45299e-58
8.29513e-60
3.8647e-61
1.40526e-62
3.71576e-64
6.28032e-66
5.05508e-68
2.03488e-67
1.74947e-65
8.53818e-64
2.83728e-62
7.07915e-61
1.40919e-59
2.32755e-58
3.28005e-57
4.02829e-56
4.38501e-55
4.29058e-54
3.81854e-53
3.12214e-52
2.36458e-51
1.66953e-50
1.10402e-49
6.85752e-49
4.00702e-48
2.20374e-47
1.14062e-46
5.55358e-46
2.54196e-45
1.09484e-44
4.54245e-44
1.82686e-43
7.0975e-43
2.70004e-42
1.05232e-41
4.35104e-41
1.82611e-40
5.80797e-40
8.83138e-40
6.48905e-40
2.84051e-40
8.52789e-41
1.91772e-41
3.4234e-42
5.05159e-43
6.34273e-44
6.91765e-45
6.64807e-46
5.68444e-47
4.35208e-48
2.99557e-49
1.85813e-50
1.03987e-51
5.25453e-53
2.40387e-54
9.96149e-56
3.73987e-57
1.27324e-58
3.93474e-60
1.10432e-61
2.81599e-63
6.54178e-65
1.37707e-66
2.58562e-68
4.17173e-70
5.37914e-72
5.96226e-74
5.50228e-76
3.8546e-78
1.6577e-80
2.56837e-83
8.97707e-82
5.53998e-79
1.2451e-76
1.73946e-74
1.87836e-72
1.7319e-70
1.31179e-68
7.96502e-67
4.16853e-65
1.95581e-63
8.3421e-62
3.25113e-60
1.15246e-58
3.70747e-57
1.08153e-55
2.84991e-54
6.75695e-53
1.44451e-51
2.78875e-50
4.86616e-49
7.67562e-48
1.09351e-46
1.40384e-45
1.61704e-44
1.65956e-43
1.50178e-42
1.18072e-41
7.90112e-41
4.37289e-40
1.92157e-39
6.30831e-39
1.40384e-38
1.79131e-38
1.00086e-38
4.17951e-39
1.6835e-39
6.69407e-40
2.53934e-40
9.41148e-41
3.39332e-41
1.1435e-41
3.62167e-42
1.08421e-42
3.07971e-43
8.31689e-44
2.13581e-44
5.2074e-45
1.20126e-45
2.60834e-46
5.29624e-47
9.98121e-48
1.73166e-48
2.74179e-49
3.92517e-50
5.02935e-51
5.7012e-52
5.63984e-53
4.78688e-54
3.41036e-55
1.97947e-56
8.9638e-58
2.95707e-59
6.2751e-61
6.46259e-63
2.06861e-62
1.50315e-60
6.02315e-59
1.63931e-57
3.33113e-56
5.36648e-55
7.12894e-54
8.0273e-53
7.82208e-52
6.70561e-51
5.12741e-50
3.53941e-49
2.22983e-48
1.29509e-47
6.99862e-47
3.54749e-46
1.69749e-45
7.7003e-45
3.31736e-44
1.35657e-43
5.25422e-43
1.92181e-42
6.61884e-42
2.15278e-41
6.76376e-41
2.05854e-40
6.03822e-40
1.77916e-39
5.48021e-39
1.74421e-38
4.40487e-38
5.30352e-38
3.25607e-38
1.24828e-38
3.39695e-39
7.09915e-40
1.1999e-40
1.7005e-41
2.0735e-42
2.21528e-43
2.09967e-44
1.78012e-45
1.35709e-46
9.33312e-48
5.80063e-49
3.26022e-50
1.65695e-51
7.6346e-53
3.19192e-54
1.21093e-55
4.17344e-57
1.30829e-58
3.73443e-60
9.70948e-62
2.30654e-63
4.98426e-65
9.65118e-67
1.61653e-68
2.1841e-70
2.53933e-72
2.47046e-74
1.83106e-76
8.35682e-79
1.3803e-81
4.3366e-80
2.51136e-77
5.32167e-75
7.02786e-73
7.19635e-71
6.3224e-69
4.5672e-67
2.67352e-65
1.35914e-63
6.22444e-62
2.60272e-60
9.96933e-59
3.48178e-57
1.10632e-55
3.19264e-54
8.3194e-53
1.95323e-51
4.14182e-50
7.94525e-49
1.38025e-47
2.1724e-46
3.0969e-45
3.99283e-44
4.64081e-43
4.83494e-42
4.47517e-41
3.63267e-40
2.5394e-39
1.49043e-38
7.08639e-38
2.58885e-37
6.68205e-37
1.05229e-36
7.81029e-37
4.29715e-37
2.27882e-37
1.1753e-37
5.76756e-38
2.76624e-38
1.26258e-38
5.41584e-39
2.20294e-39
8.55387e-40
3.18413e-40
1.13801e-40
3.89834e-41
1.27359e-41
3.93849e-42
1.14265e-42
3.08141e-43
7.65458e-44
1.73652e-44
3.56748e-45
6.57998e-46
1.07949e-46
1.55848e-47
1.95482e-48
2.09625e-49
1.88176e-50
1.37376e-51
7.81974e-53
3.24657e-54
8.71235e-56
1.15012e-57
2.87979e-57
1.75471e-55
5.74882e-54
1.27234e-52
2.09495e-51
2.71921e-50
2.89311e-49
2.59245e-48
1.99603e-47
1.34128e-46
7.96781e-46
4.23136e-45
2.02972e-44
8.88446e-44
3.58606e-43
1.34933e-42
4.78461e-42
1.61434e-41
5.2187e-41
1.62092e-40
4.82948e-40
1.37347e-39
3.70433e-39
9.41765e-39
2.27317e-38
5.31547e-38
1.19739e-37
2.64625e-37
5.98686e-37
1.40718e-36
2.76589e-36
2.64472e-36
1.36866e-36
4.63357e-37
1.1513e-37
2.25025e-38
3.62098e-39
4.95226e-40
5.88866e-41
6.18501e-42
5.79949e-43
4.88809e-44
3.71899e-45
2.5604e-46
1.597e-47
9.02666e-49
4.6205e-50
2.1456e-51
9.0542e-53
3.47228e-54
1.21177e-55
3.85356e-57
1.11872e-58
2.9661e-60
7.20459e-62
1.59782e-63
3.1897e-65