/*--------------------------------*- C++ -*----------------------------------*\
| =========                 |                                                 |
| \\      /  F ield         | OpenFOAM: The Open Source CFD Toolbox           |
|  \\    /   O peration     | Version:  2212                                  |
|   \\  /    A nd           | Website:  www.openfoam.com                      |
|    \\/     M anipulation  |                                                 |
\*---------------------------------------------------------------------------*/
FoamFile
{
    version     2.0;
    format      ascii;
    arch        "LSB;label=64;scalar=64";
    class       surfaceScalarField;
    location    "490";
    object      phi;
}
// * * * * * * * * * * * * * * * * * * * * * * * * * * * * * * * * * * * * * //

dimensions      [0 3 -1 0 0 0 0];

oriented        oriented;

internalField   nonuniform List<scalar> 
1984
(
-6.47666e-09
6.47816e-09
-4.45464e-08
3.80704e-08
-1.08506e-07
6.39592e-08
-1.82795e-07
7.42885e-08
-2.59477e-07
7.6682e-08
-3.36754e-07
7.72768e-08
-4.12211e-07
7.54574e-08
-4.78304e-07
6.60927e-08
-5.18248e-07
3.99442e-08
-4.98231e-07
-2.00169e-08
-3.69183e-07
-1.29047e-07
-1.10595e-07
-2.58588e-07
1.7244e-07
-2.83035e-07
3.85788e-07
-2.13348e-07
5.04871e-07
-1.19083e-07
5.33996e-07
-2.91237e-08
5.05804e-07
2.8192e-08
4.57233e-07
4.8571e-08
4.02429e-07
5.48041e-08
3.47244e-07
5.51857e-08
2.94e-07
5.32441e-08
2.44269e-07
4.97317e-08
1.99632e-07
4.46375e-08
1.61234e-07
3.83971e-08
1.29309e-07
3.1925e-08
1.02497e-07
2.68126e-08
7.78609e-08
2.46355e-08
5.2813e-08
2.5048e-08
2.81486e-08
2.46645e-08
8.82013e-09
1.93284e-08
-1.96886e-12
8.8219e-09
-1.87738e-12
-4.87353e-08
5.52142e-08
-1.86389e-07
1.75723e-07
-3.85875e-07
2.63445e-07
-6.11102e-07
2.99516e-07
-8.38143e-07
3.03723e-07
-1.05401e-06
2.93142e-07
-1.2451e-06
2.66545e-07
-1.38757e-06
2.08564e-07
-1.43955e-06
9.19284e-08
-1.32809e-06
-1.31475e-07
-9.58663e-07
-4.98478e-07
-2.62882e-07
-9.54368e-07
5.17305e-07
-1.06322e-06
1.11679e-06
-8.12837e-07
1.49231e-06
-4.94597e-07
1.63178e-06
-1.68593e-07
1.59521e-06
6.4763e-08
1.48045e-06
1.63323e-07
1.33308e-06
2.02184e-07
1.17446e-06
2.13804e-07
1.01469e-06
2.13008e-07
8.60278e-07
2.04147e-07
7.16714e-07
1.88202e-07
5.8804e-07
1.67071e-07
4.75634e-07
1.44331e-07
3.7683e-07
1.25616e-07
2.85615e-07
1.15851e-07
1.97241e-07
1.13421e-07
1.14508e-07
1.07398e-07
4.85016e-08
8.53344e-08
1.02082e-08
4.71153e-08
1.02062e-08
-1.09469e-07
1.64682e-07
-3.71787e-07
4.38042e-07
-7.21497e-07
6.13154e-07
-1.10038e-06
6.784e-07
-1.46874e-06
6.72077e-07
-1.79935e-06
6.23754e-07
-2.06545e-06
5.32646e-07
-2.22977e-06
3.72885e-07
-2.23368e-06
9.5842e-08
-1.99046e-06
-3.74693e-07
-1.39682e-06
-1.09212e-06
-3.51988e-07
-1.9992e-06
8.37318e-07
-2.25253e-06
1.7942e-06
-1.76972e-06
2.46187e-06
-1.16227e-06
2.78745e-06
-4.94176e-07
2.81274e-06
3.94764e-08
2.67887e-06
2.97193e-07
2.46776e-06
4.13293e-07
2.21982e-06
4.61742e-07
1.95629e-06
4.76545e-07
1.69092e-06
4.69513e-07
1.43449e-06
4.44634e-07
1.19497e-06
4.06594e-07
9.76221e-07
3.63078e-07
7.76673e-07
3.25163e-07
5.90632e-07
3.01893e-07
4.13763e-07
2.9029e-07
2.50553e-07
2.70608e-07
1.16436e-07
2.19451e-07
2.98543e-08
1.33697e-07
4.00604e-08
-1.66839e-07
3.31521e-07
-5.47139e-07
8.18342e-07
-1.03576e-06
1.10178e-06
-1.54888e-06
1.19152e-06
-2.02968e-06
1.15288e-06
-2.43758e-06
1.03166e-06
-2.73552e-06
8.30579e-07
-2.87904e-06
5.16412e-07
-2.80164e-06
1.84403e-08
-2.42414e-06
-7.5219e-07
-1.64781e-06
-1.86845e-06
-3.77116e-07
-3.2699e-06
1.07997e-06
-3.70961e-06
2.33381e-06
-3.02356e-06
3.29383e-06
-2.12228e-06
3.86599e-06
-1.06634e-06
4.03322e-06
-1.27748e-07
3.94592e-06
3.84488e-07
3.72365e-06
6.35569e-07
3.4249e-06
7.60486e-07
3.08279e-06
8.18653e-07
2.71939e-06
8.32912e-07
2.35148e-06
8.12546e-07
1.99172e-06
7.66358e-07
1.64785e-06
7.06945e-07
1.32212e-06
6.50894e-07
1.01271e-06
6.11301e-07
7.18376e-07
5.84626e-07
4.45943e-07
5.4304e-07
2.15963e-07
4.49431e-07
5.88813e-08
2.90778e-07
9.89418e-08
-1.97979e-07
5.295e-07
-6.52819e-07
1.27318e-06
-1.23932e-06
1.68827e-06
-1.84983e-06
1.80203e-06
-2.40772e-06
1.71077e-06
-2.85949e-06
1.48343e-06
-3.16153e-06
1.13262e-06
-3.26736e-06
6.22243e-07
-3.11892e-06
-1.30005e-07
-2.63792e-06
-1.23319e-06
-1.72736e-06
-2.77901e-06
-3.37268e-07
-4.65999e-06
1.25507e-06
-5.30195e-06
2.72507e-06
-4.49356e-06
3.92962e-06
-3.32683e-06
4.75203e-06
-1.88876e-06
5.1123e-06
-4.88018e-07
5.13504e-06
3.61752e-07
4.96218e-06
8.08427e-07
4.66642e-06
1.05625e-06
4.29e-06
1.19508e-06
3.86168e-06
1.26123e-06
3.4034e-06
1.27082e-06
2.93226e-06
1.2375e-06
2.46056e-06
1.17865e-06
1.99608e-06
1.11537e-06
1.54335e-06
1.06404e-06
1.10687e-06
1.0211e-06
6.98392e-07
9.51522e-07
3.46339e-07
8.01484e-07
9.75687e-08
5.39549e-07
1.96511e-07
-1.89452e-07
7.18951e-07
-6.52803e-07
1.73653e-06
-1.2771e-06
2.31257e-06
-1.9398e-06
2.46473e-06
-2.54303e-06
2.314e-06
-3.01942e-06
1.95981e-06
-3.32098e-06
1.43418e-06
-3.40411e-06
7.05376e-07
-3.21621e-06
-3.17907e-07
-2.67075e-06
-1.77865e-06
-1.65978e-06
-3.78997e-06
-2.13563e-07
-6.10621e-06
1.42662e-06
-6.94214e-06
3.03218e-06
-6.09912e-06
4.40276e-06
-4.69741e-06
5.41315e-06
-2.89915e-06
5.95388e-06
-1.02874e-06
6.11547e-06
2.00161e-07
6.0347e-06
8.89197e-07
5.79026e-06
1.30068e-06
5.4274e-06
1.55794e-06
4.97714e-06
1.71148e-06
4.46365e-06
1.78431e-06
3.90677e-06
1.79438e-06
3.32292e-06
1.7625e-06
2.72564e-06
1.71264e-06
2.12658e-06
1.66311e-06
1.53797e-06
1.60971e-06
9.79844e-07
1.50964e-06
4.92315e-07
1.28901e-06
1.4133e-07
8.90533e-07
3.3784e-07
-1.43077e-07
8.62027e-07
-5.43588e-07
2.13705e-06
-1.13685e-06
2.90583e-06
-1.80337e-06
3.13125e-06
-2.42596e-06
2.93659e-06
-2.92064e-06
2.45449e-06
-3.2334e-06
1.74695e-06
-3.32088e-06
7.92856e-07
-3.1238e-06
-5.14995e-07
-2.53243e-06
-2.37002e-06
-1.43508e-06
-4.88733e-06
2.97207e-08
-7.57101e-06
1.66382e-06
-8.57624e-06
3.33752e-06
-7.77281e-06
4.79518e-06
-6.15508e-06
5.90388e-06
-4.00785e-06
6.55459e-06
-1.67945e-06
6.82616e-06
-7.14054e-08
6.83913e-06
8.7622e-07
6.66691e-06
1.47291e-06
6.34939e-06
1.87547e-06
5.91354e-06
2.14733e-06
5.38101e-06
2.31684e-06
4.77145e-06
2.40394e-06
4.10354e-06
2.43042e-06
3.39546e-06
2.42071e-06
2.66552e-06
2.39305e-06
1.93473e-06
2.3405e-06
1.23475e-06
2.20962e-06
6.21181e-07
1.90258e-06
1.78886e-07
1.33283e-06
5.16726e-07
-7.1219e-08
9.33246e-07
-3.42177e-07
2.408e-06
-8.28496e-07
3.39215e-06
-1.4436e-06
3.74636e-06
-2.05901e-06
3.552e-06
-2.56858e-06
2.96407e-06
-2.90375e-06
2.08211e-06
-3.01103e-06
9.00137e-07
-2.81234e-06
-7.13683e-07
-2.17351e-06
-3.00885e-06
-1.00302e-06
-6.05781e-06
4.32981e-07
-9.00701e-06
2.02053e-06
-1.01638e-05
3.69794e-06
-9.45023e-06
5.17199e-06
-7.62913e-06
6.2967e-06
-5.13256e-06
6.96533e-06
-2.34808e-06
7.27332e-06
-3.79397e-07
7.34253e-06
8.07009e-07
7.22764e-06
1.5878e-06
6.95917e-06
2.14394e-06
6.55478e-06
2.55173e-06
6.02871e-06
2.8429e-06
5.39651e-06
3.03615e-06
4.6762e-06
3.15072e-06
3.88844e-06
3.20847e-06
3.05694e-06
3.22456e-06
2.21208e-06
3.18536e-06
1.4002e-06
3.0215e-06
6.95256e-07
2.60753e-06
1.96912e-07
1.83117e-06
7.13639e-07
1.12696e-08
9.21976e-07
-7.6496e-08
2.49577e-06
-3.62758e-07
3.67841e-06
-8.43859e-07
4.22746e-06
-1.40774e-06
4.11588e-06
-1.91741e-06
3.47374e-06
-2.27448e-06
2.43918e-06
-2.39678e-06
1.02244e-06
-2.17922e-06
-9.31241e-07
-1.48116e-06
-3.70692e-06
-2.84398e-07
-7.25457e-06
1.05247e-06
-1.03439e-05
2.54746e-06
-1.16588e-05
4.14174e-06
-1.10445e-05
5.55328e-06
-9.04066e-06
6.6229e-06
-6.20219e-06
7.23916e-06
-2.96434e-06
7.50886e-06
-6.491e-07
7.56718e-06
7.48693e-07
7.46481e-06
1.69016e-06
7.22192e-06
2.38683e-06
6.84418e-06
2.92947e-06
6.33485e-06
3.35224e-06
5.70141e-06
3.66958e-06
4.95771e-06
3.89442e-06
4.1239e-06
4.04229e-06
3.22751e-06
4.12094e-06
2.30899e-06
4.10389e-06
1.43204e-06
3.89844e-06
6.89829e-07
3.34974e-06
1.87579e-07
2.33342e-06
9.01217e-07
9.08805e-08
8.31096e-07
2.14933e-07
2.37172e-06
2.20168e-07
3.67318e-06
9.7728e-09
4.43785e-06
-3.75086e-07
4.50073e-06
-8.24127e-07
3.92278e-06
-1.18954e-06
2.80459e-06
-1.32204e-06
1.15494e-06
-1.04517e-06
-1.20811e-06
-2.65051e-07
-4.48703e-06
7.96629e-07
-8.31625e-06
1.95434e-06
-1.15016e-05
3.28075e-06
-1.29852e-05
4.67661e-06
-1.24404e-05
5.91887e-06
-1.02829e-05
6.8554e-06
-7.13872e-06
7.36604e-06
-3.47498e-06
7.54608e-06
-8.29138e-07
7.53659e-06
7.58185e-07
7.39771e-06
1.82904e-06
7.14639e-06
2.63815e-06
6.77858e-06
3.29728e-06
6.28575e-06
3.84507e-06
5.66473e-06
4.2906e-06
4.92171e-06
4.63745e-06
4.07339e-06
4.8906e-06
3.14997e-06
5.04436e-06
2.20341e-06
5.05045e-06
1.31745e-06
4.7844e-06
6.01796e-07
4.0654e-06
1.5213e-07
2.78309e-06
1.05335e-06
1.61006e-07
6.7009e-07
4.96095e-07
2.03663e-06
8.39266e-07
3.33001e-06
1.04277e-06
4.23435e-06
1.02151e-06
4.522e-06
8.23431e-07
4.12086e-06
5.88307e-07
3.03972e-06
5.09622e-07
1.23362e-06
8.1193e-07
-1.51041e-06
1.48781e-06
-5.16291e-06
2.31662e-06
-9.14507e-06
3.23102e-06
-1.2416e-05
4.24118e-06
-1.39953e-05
5.28004e-06
-1.34792e-05
6.20988e-06
-1.12128e-05
6.91495e-06
-7.84379e-06
7.26977e-06
-3.82979e-06
7.33255e-06
-8.91916e-07
7.22961e-06
8.6112e-07
7.02966e-06
2.02898e-06
6.75103e-06
2.91678e-06
6.3837e-06
3.66461e-06
5.90875e-06
4.32002e-06
5.31146e-06
4.88789e-06
4.58838e-06
5.36052e-06
3.75139e-06
5.72759e-06
2.83441e-06
5.96135e-06
1.9049e-06
5.97995e-06
1.06912e-06
5.62018e-06
4.45261e-07
4.68926e-06
9.84679e-08
3.12988e-06
1.15182e-06
1.99802e-07
4.70289e-07
6.95625e-07
1.5408e-06
1.34135e-06
2.68428e-06
1.96311e-06
3.61258e-06
2.42897e-06
4.05614e-06
2.70302e-06
3.84681e-06
2.85221e-06
2.89053e-06
2.99816e-06
1.08767e-06
3.31477e-06
-1.82703e-06
3.81151e-06
-5.65965e-06
4.35277e-06
-9.68633e-06
4.86881e-06
-1.2932e-05
5.36642e-06
-1.4493e-05
5.85299e-06
-1.39658e-05
6.30276e-06
-1.16625e-05
6.66707e-06
-8.2081e-06
6.82051e-06
-3.98323e-06
6.7578e-06
-8.29207e-07
6.57316e-06
1.04576e-06
6.33001e-06
2.27213e-06
6.04124e-06
3.20556e-06
5.68935e-06
4.0165e-06
5.2455e-06
4.76386e-06
4.68381e-06
5.44958e-06
3.99247e-06
6.05187e-06
3.18172e-06
6.53834e-06
2.29594e-06
6.84712e-06
1.42675e-06
6.84915e-06
7.04447e-07
6.34248e-06
2.38188e-07
5.15552e-06
3.61401e-08
3.33193e-06
1.18796e-06
1.92001e-07
2.78289e-07
7.37284e-07
9.95519e-07
1.55472e-06
1.86685e-06
2.48883e-06
2.67847e-06
3.38339e-06
3.16159e-06
4.14596e-06
3.08423e-06
4.77515e-06
2.26134e-06
5.36705e-06
4.95765e-07
5.95761e-06
-2.41758e-06
6.41377e-06
-6.11581e-06
6.63074e-06
-9.9033e-06
6.59356e-06
-1.28949e-05
6.38598e-06
-1.42854e-05
6.13106e-06
-1.37109e-05
5.95295e-06
-1.14844e-05
5.89709e-06
-8.15224e-06
5.8395e-06
-3.92564e-06
5.67717e-06
-6.66874e-07
5.46947e-06
1.25346e-06
5.24946e-06
2.49213e-06
5.00686e-06
3.44816e-06
4.70852e-06
4.31484e-06
4.31355e-06
5.15883e-06
3.78554e-06
5.97759e-06
3.11456e-06
6.72285e-06
2.32392e-06
7.32898e-06
1.48696e-06
7.68408e-06
7.34846e-07
7.60127e-06
2.22026e-07
6.8553e-06
-5.05939e-09
5.3826e-06
-3.08243e-08
3.35769e-06
1.15713e-06
1.41179e-07
1.3711e-07
5.99015e-07
5.37683e-07
1.38065e-06
1.08521e-06
2.40285e-06
1.65627e-06
3.53727e-06
2.02717e-06
4.68422e-06
1.93728e-06
5.83546e-06
1.1101e-06
7.02716e-06
-6.95936e-07
7.99613e-06
-3.38656e-06
8.49151e-06
-6.61118e-06
8.37519e-06
-9.78698e-06
7.69923e-06
-1.22189e-05
6.67216e-06
-1.32583e-05
5.574e-06
-1.26127e-05
4.72458e-06
-1.0635e-05
4.26925e-06
-7.6969e-06
4.07849e-06
-3.73489e-06
3.93918e-06
-5.27567e-07
3.82987e-06
1.36277e-06
3.72746e-06
2.59454e-06
3.58635e-06
3.58928e-06
3.35783e-06
4.54335e-06
2.99135e-06
5.52532e-06
2.41265e-06
6.55629e-06
1.66957e-06
7.46593e-06
8.72133e-07
8.12642e-06
1.70795e-07
8.38542e-06
-2.84869e-07
8.05693e-06
-4.17985e-07
6.98842e-06
-3.02036e-07
5.26665e-06
-1.08857e-07
3.16451e-06
1.04827e-06
7.76513e-08
5.94586e-08
3.77214e-07
2.38121e-07
9.7336e-07
4.89065e-07
1.88788e-06
7.41746e-07
3.0937e-06
8.21344e-07
4.55319e-06
4.77799e-07
6.18016e-06
-5.16867e-07
7.69896e-06
-2.21473e-06
8.74549e-06
-4.43309e-06
9.02847e-06
-6.89416e-06
8.40962e-06
-9.16813e-06
7.00221e-06
-1.08115e-05
5.15964e-06
-1.14157e-05
3.29806e-06
-1.07511e-05
1.93561e-06
-9.27254e-06
1.24931e-06
-7.01061e-06
1.12087e-06
-3.60645e-06
1.26851e-06
-6.75207e-07
1.38413e-06
1.24716e-06
1.37347e-06
2.6052e-06
1.19139e-06
3.77136e-06
8.03201e-07
4.93154e-06
2.12288e-07
6.11624e-06
-5.14513e-07
7.28309e-06
-1.23152e-06
8.18294e-06
-1.76463e-06
8.65952e-06
-1.96702e-06
8.58781e-06
-1.77981e-06
7.86971e-06
-1.29597e-06
6.50458e-06
-6.99516e-07
4.6702e-06
-2.08995e-07
2.67399e-06
8.39279e-07
6.12194e-08
-1.761e-09
2.93597e-07
5.74324e-09
7.82224e-07
4.37166e-10
1.59835e-06
-7.43848e-08
2.75882e-06
-3.39125e-07
4.18309e-06
-9.46472e-07
5.62962e-06
-1.96339e-06
6.72175e-06
-3.30687e-06
7.15008e-06
-4.86142e-06
6.68158e-06
-6.42567e-06
5.2089e-06
-7.69545e-06
2.92541e-06
-8.528e-06
3.27621e-07
-8.81794e-06
-1.90615e-06
-8.51738e-06
-3.41499e-06
-7.76369e-06
-4.12541e-06
-6.30019e-06
-4.23475e-06
-3.49711e-06
-4.22288e-06
-6.87071e-07
-4.35044e-06
1.37472e-06
-4.67526e-06
2.93002e-06
-5.14669e-06
4.24279e-06
-5.68988e-06
5.47473e-06
-6.18731e-06
6.61367e-06
-6.45348e-06
7.54926e-06
-6.38015e-06
8.10961e-06
-5.89769e-06
8.17706e-06
-4.99557e-06
7.68569e-06
-3.7654e-06
6.63954e-06
-2.40829e-06
5.14748e-06
-1.17988e-06
3.44179e-06
-3.23787e-07
1.8179e-06
5.15491e-07
4.80683e-08
-4.98294e-08
2.02581e-07
-1.4877e-07
4.92362e-07
-2.89343e-07
9.43716e-07
-5.25738e-07
1.52677e-06
-9.22176e-07
2.09766e-06
-1.51737e-06
2.41641e-06
-2.28214e-06
2.23521e-06
-3.12567e-06
1.32956e-06
-3.95577e-06
-3.87873e-07
-4.70823e-06
-2.74159e-06
-5.34173e-06
-5.36557e-06
-5.90403e-06
-7.84997e-06
-6.33354e-06
-9.88648e-06
-6.48087e-06
-1.14808e-05
-6.16941e-06
-1.26276e-05
-5.15337e-06
-1.34104e-05
-2.71432e-06
-1.41036e-05
6.20361e-09
-1.4591e-05
1.86204e-06
-1.48736e-05
3.2126e-06
-1.49272e-05
4.2964e-06
-1.46628e-05
5.21032e-06
-1.39939e-05
5.94482e-06
-1.2868e-05
6.42331e-06
-1.13056e-05
6.54723e-06
-9.37936e-06
6.25085e-06
-7.21762e-06
5.52395e-06
-5.0051e-06
4.42702e-06
-2.97186e-06
3.11423e-06
-1.35637e-06
1.8263e-06
-3.44382e-07
8.05907e-07
1.71109e-07
-3.02993e-08
-1.95299e-08
-1.32449e-07
-4.662e-08
-3.12224e-07
-1.09568e-07
-5.72859e-07
-2.65104e-07
-9.44821e-07
-5.50214e-07
-1.51861e-06
-9.43584e-07
-2.43115e-06
-1.3696e-06
-3.79221e-06
-1.76461e-06
-5.60677e-06
-2.14121e-06
-7.74339e-06
-2.5716e-06
-9.9984e-06
-3.08672e-06
-1.22521e-05
-3.65032e-06
-1.44208e-05
-4.16485e-06
-1.64208e-05
-4.48085e-06
-1.8205e-05
-4.38522e-06
-1.97641e-05
-3.59428e-06
-2.09595e-05
-1.5189e-06
-2.16406e-05
6.87268e-07
-2.18965e-05
2.11792e-06
-2.17288e-05
3.04498e-06
-2.10473e-05
3.61489e-06
-1.97767e-05
3.93965e-06
-1.79031e-05
4.07125e-06
-1.54951e-05
4.01534e-06
-1.27001e-05
3.75222e-06
-9.70856e-06
3.25928e-06
-6.78542e-06
2.60082e-06
-4.20489e-06
1.84649e-06
-2.19231e-06
1.10165e-06
-8.62147e-07
4.96134e-07
-1.8221e-07
1.2597e-07
-1.11013e-08
-1.20195e-07
1.00665e-07
-4.71958e-07
3.05143e-07
-1.06195e-06
4.80425e-07
-1.88744e-06
5.60382e-07
-2.95129e-06
5.13635e-07
-4.26426e-06
3.6939e-07
-5.81402e-06
1.80162e-07
-7.54161e-06
-3.70143e-08
-9.36182e-06
-3.20993e-07
-1.12416e-05
-6.91823e-07
-1.31705e-05
-1.15781e-06
-1.51393e-05
-1.68156e-06
-1.71258e-05
-2.17827e-06
-1.90737e-05
-2.53299e-06
-2.09292e-05
-2.52976e-06
-2.26397e-05
-1.88377e-06
-2.39251e-05
-2.33507e-07
-2.46031e-05
1.36533e-06
-2.47816e-05
2.29644e-06
-2.43743e-05
2.6376e-06
-2.32661e-05
2.50672e-06
-2.13787e-05
2.0523e-06
-1.87277e-05
1.42027e-06
-1.54442e-05
7.3181e-07
-1.18011e-05
1.09132e-07
-8.18177e-06
-3.60083e-07
-4.96336e-06
-6.17586e-07
-2.47046e-06
-6.46419e-07
-8.86391e-07
-4.82411e-07
-1.53961e-07
-2.36295e-07
2.44314e-08
-5.24225e-08
1.33302e-08
-1.26137e-07
2.26801e-07
-4.86125e-07
6.65131e-07
-1.08052e-06
1.07482e-06
-1.90524e-06
1.38511e-06
-2.95217e-06
1.56056e-06
-4.20036e-06
1.61758e-06
-5.60961e-06
1.58941e-06
-7.12876e-06
1.48213e-06
-8.72104e-06
1.27129e-06
-1.03615e-05
9.48681e-07
-1.20288e-05
5.09429e-07
-1.36898e-05
-2.05182e-08
-1.53556e-05
-5.12512e-07
-1.70391e-05
-8.49495e-07
-1.87114e-05
-8.57481e-07
-2.02918e-05
-3.03344e-07
-2.14937e-05
9.68361e-07
-2.22216e-05
2.09324e-06
-2.24655e-05
2.54034e-06
-2.21289e-05
2.30106e-06
-2.11367e-05
1.51452e-06
-1.94124e-05
3.27987e-07
-1.71127e-05
-8.79496e-07
-1.43727e-05
-2.00819e-06
-1.13647e-05
-2.8988e-06
-8.33678e-06
-3.38803e-06
-5.52913e-06
-3.42524e-06
-3.17373e-06
-3.00182e-06
-1.45432e-06
-2.20183e-06
-4.47649e-07
-1.24296e-06
-5.33098e-08
-4.46762e-07
-3.99795e-08
-7.52199e-08
3.02021e-07
-3.00944e-07
8.90855e-07
-6.8768e-07
1.46156e-06
-1.23199e-06
1.92942e-06
-1.91191e-06
2.24048e-06
-2.69228e-06
2.39795e-06
-3.54147e-06
2.4386e-06
-4.44694e-06
2.3876e-06
-5.41893e-06
2.24328e-06
-6.46972e-06
1.99947e-06
-7.62364e-06
1.66335e-06
-8.91218e-06
1.26803e-06
-1.02845e-05
8.59764e-07
-1.16802e-05
5.46204e-07
-1.30566e-05
5.18941e-07
-1.44094e-05
1.04952e-06
-1.55139e-05
2.07284e-06
-1.61733e-05
2.75257e-06
-1.63949e-05
2.76203e-06
-1.61726e-05
2.07873e-06
-1.55099e-05
8.51792e-07
-1.45523e-05
-6.2959e-07
-1.33416e-05
-2.09016e-06
-1.19078e-05
-3.44206e-06
-1.02675e-05
-4.53908e-06
-8.42607e-06
-5.22945e-06
-6.44835e-06
-5.40296e-06
-4.44573e-06
-5.00444e-06
-2.58763e-06
-4.05993e-06
-1.11231e-06
-2.71827e-06
-2.45529e-07
-1.31355e-06
-2.85508e-07
-3.15763e-08
3.33597e-07
-1.43167e-07
1.00245e-06
-3.58143e-07
1.67653e-06
-6.8593e-07
2.25721e-06
-1.11239e-06
2.66695e-06
-1.60339e-06
2.88895e-06
-2.12296e-06
2.95818e-06
-2.65173e-06
2.91638e-06
-3.19174e-06
2.78329e-06
-3.75758e-06
2.56531e-06
-4.37052e-06
2.27629e-06
-5.05346e-06
1.95097e-06
-5.83408e-06
1.64038e-06
-6.72523e-06
1.43736e-06
-7.70502e-06
1.49873e-06
-8.69705e-06
2.04156e-06
-9.44432e-06
2.82011e-06
-9.8185e-06
3.12675e-06
-9.89393e-06
2.83747e-06
-9.74941e-06
1.9342e-06
-9.46534e-06
5.67726e-07
-9.15375e-06
-9.41178e-07
-8.81148e-06
-2.43244e-06
-8.38549e-06
-3.86805e-06
-7.79583e-06
-5.12874e-06
-6.95497e-06
-6.07031e-06
-5.81702e-06
-6.54091e-06
-4.40498e-06
-6.41648e-06
-2.8384e-06
-5.62651e-06
-1.36613e-06
-4.19055e-06
-3.40239e-07
-2.33943e-06
-6.25747e-07
-7.37912e-09
3.40976e-07
-4.93119e-08
1.04438e-06
-1.51379e-07
1.7786e-06
-3.29664e-07
2.43549e-06
-5.78399e-07
2.91568e-06
-8.69007e-07
3.17955e-06
-1.16566e-06
3.25483e-06
-1.44536e-06
3.19608e-06
-1.70655e-06
3.04448e-06
-1.96583e-06
2.82459e-06
-2.24736e-06
2.55781e-06
-2.57477e-06
2.27838e-06
-2.97008e-06
2.03569e-06
-3.43802e-06
1.9053e-06
-3.9516e-06
2.01231e-06
-4.43162e-06
2.52158e-06
-4.69644e-06
3.08494e-06
-4.69644e-06
3.12674e-06
-4.52816e-06
2.66919e-06
-4.32132e-06
1.72736e-06
-4.21766e-06
4.64074e-07
-4.25964e-06
-8.99203e-07
-4.4201e-06
-2.27198e-06
-4.63969e-06
-3.64846e-06
-4.81007e-06
-4.95836e-06
-4.78545e-06
-6.09492e-06
-4.44262e-06
-6.88374e-06
-3.72061e-06
-7.13849e-06
-2.6524e-06
-6.69472e-06
-1.42329e-06
-5.41966e-06
-3.99808e-07
-3.36292e-06
-1.02556e-06
1.04247e-09
3.39934e-07
-1.02472e-08
1.05567e-06
-5.06129e-08
1.81897e-06
-1.31867e-07
2.51675e-06
-2.51999e-07
3.03581e-06
-3.89823e-07
3.31738e-06
-5.16067e-07
3.38107e-06
-6.12362e-07
3.29237e-06
-6.79724e-07
3.11184e-06
-7.37234e-07
2.8821e-06
-8.10213e-07
2.63079e-06
-9.1845e-07
2.38661e-06
-1.07125e-06
2.18849e-06
-1.25748e-06
2.09152e-06
-1.43564e-06
2.19047e-06
-1.5221e-06
2.60804e-06
-1.40594e-06
2.96877e-06
-1.11724e-06
2.83805e-06
-7.71421e-07
2.32337e-06
-4.80431e-07
1.43637e-06
-3.88241e-07
3.71885e-07
-5.38379e-07
-7.49065e-07
-8.84564e-07
-1.92579e-06
-1.38353e-06
-3.1495e-06
-1.96591e-06
-4.37598e-06
-2.48926e-06
-5.57157e-06
-2.79082e-06
-6.58218e-06
-2.72507e-06
-7.20424e-06
-2.21591e-06
-7.20388e-06
-1.3485e-06
-6.28707e-06
-4.35757e-07
-4.27566e-06
-1.46131e-06
-4.4012e-09
3.44335e-07
-1.84986e-08
1.06977e-06
-3.89153e-08
1.83938e-06
-6.21947e-08
2.54003e-06
-8.50567e-08
3.05868e-06
-9.37498e-08
3.32607e-06
-7.25133e-08
3.35984e-06
-1.77311e-08
3.23759e-06
6.34846e-08
3.03062e-06
1.48652e-07
2.79694e-06
2.16735e-07
2.56271e-06
2.55099e-07
2.34825e-06
2.64764e-07
2.17883e-06
2.66109e-07
2.09017e-06
3.08613e-07
2.14796e-06
4.79055e-07
2.4376e-06
8.37029e-07
2.6108e-06
1.29143e-06
2.38364e-06
1.7163e-06
1.8985e-06
1.99759e-06
1.15508e-06
2.0701e-06
2.99374e-07
1.92799e-06
-6.0696e-07
1.58857e-06
-1.58637e-06
1.06721e-06
-2.62813e-06
3.89545e-07
-3.69832e-06
-3.8458e-07
-4.79745e-06
-1.12338e-06
-5.84338e-06
-1.60347e-06
-6.72414e-06
-1.64073e-06
-7.16662e-06
-1.18834e-06
-6.73946e-06
-4.58686e-07
-5.00531e-06
-1.92e-06
-2.60232e-08
3.70359e-07
-7.44377e-08
1.11818e-06
-1.061e-07
1.87104e-06
-9.37729e-08
2.5277e-06
-3.26557e-08
2.99756e-06
8.13666e-08
3.21205e-06
2.42565e-07
3.19864e-06
4.33785e-07
3.04637e-06
6.34619e-07
2.82979e-06
8.30018e-07
2.60154e-06
1.00769e-06
2.38504e-06
1.16331e-06
2.19263e-06
1.30411e-06
2.03802e-06
1.45229e-06
1.942e-06
1.65272e-06
1.94753e-06
1.9821e-06
2.10821e-06
2.45708e-06
2.13581e-06
2.96387e-06
1.87685e-06
3.39448e-06
1.46789e-06
3.65918e-06
8.90385e-07
3.72819e-06
2.30361e-07
3.60742e-06
-4.86192e-07
3.29863e-06
-1.27758e-06
2.80742e-06
-2.13692e-06
2.15432e-06
-3.04523e-06
1.34381e-06
-3.98694e-06
4.29743e-07
-4.92931e-06
-4.29021e-07
-5.86538e-06
-9.7104e-07
-6.6246e-06
-9.59212e-07
-6.75129e-06
-4.68431e-07
-5.49609e-06
-2.38843e-06
-7.2789e-08
4.43148e-07
-1.85706e-07
1.2311e-06
-2.43034e-07
1.92837e-06
-1.95802e-07
2.48047e-06
-4.4874e-08
2.84663e-06
1.96145e-07
2.97103e-06
4.91641e-07
2.90314e-06
8.06562e-07
2.73145e-06
1.11847e-06
2.51788e-06
1.41769e-06
2.30232e-06
1.70092e-06
2.10181e-06
1.97048e-06
1.92307e-06
2.23556e-06
1.77294e-06
2.5142e-06
1.66335e-06
2.83975e-06
1.62198e-06
3.26727e-06
1.68069e-06
3.78124e-06
1.62185e-06
4.27976e-06
1.37833e-06
4.68804e-06
1.05961e-06
4.94255e-06
6.35879e-07
5.02578e-06
1.47131e-07
4.93573e-06
-3.96147e-07
4.66067e-06
-1.00252e-06
4.19347e-06
-1.66972e-06
3.53848e-06
-2.39023e-06
2.70987e-06
-3.15833e-06
1.75053e-06
-3.96997e-06
7.17633e-07
-4.83248e-06
-1.96196e-07
-5.71077e-06
-6.47689e-07
-6.2998e-06
-4.51921e-07
-5.69186e-06
-2.84035e-06
-1.58432e-07
6.0158e-07
-3.55523e-07
1.42819e-06
-4.2302e-07
1.99587e-06
-3.1305e-07
2.3705e-06
-4.50117e-08
2.57859e-06
3.36357e-07
2.58966e-06
7.66465e-07
2.47303e-06
1.20415e-06
2.29376e-06
1.63061e-06
2.09142e-06
2.04146e-06
1.89147e-06
2.43797e-06
1.70529e-06
2.82394e-06
1.53711e-06
3.20585e-06
1.39103e-06
3.59465e-06
1.27456e-06
4.01144e-06
1.20518e-06
4.49102e-06
1.20111e-06
4.99882e-06
1.11405e-06
5.45724e-06
9.19903e-07
5.82479e-06
6.9207e-07
6.05972e-06
4.00949e-07
6.14685e-06
5.99944e-08
6.07453e-06
-3.23822e-07
5.82346e-06
-7.51459e-07
5.3798e-06
-1.22605e-06
4.73739e-06
-1.74783e-06
3.90163e-06
-2.32256e-06
2.89825e-06
-2.96659e-06
1.77752e-06
-3.71175e-06
6.46375e-07
-4.57963e-06
-2.13912e-07
-5.43951e-06
-3.83715e-07
-5.52205e-06
-3.22407e-06
-2.85287e-07
8.86867e-07
-5.48584e-07
1.69149e-06
-5.55118e-07
2.0024e-06
-3.12516e-07
2.12789e-06
1.22091e-07
2.14399e-06
6.61563e-07
2.05019e-06
1.23096e-06
1.90364e-06
1.79675e-06
1.72797e-06
2.3443e-06
1.54387e-06
2.86999e-06
1.36578e-06
3.37397e-06
1.20131e-06
3.85727e-06
1.05382e-06
4.32214e-06
9.26153e-07
4.77393e-06
8.22776e-07
5.2259e-06
7.53211e-07
5.70031e-06
7.26698e-07
6.15888e-06
6.55493e-07
6.54991e-06
5.28874e-07
6.85594e-06
3.86032e-07
7.051e-06
2.05889e-07
7.11824e-06
-7.24442e-09
7.04167e-06
-2.47252e-07
6.80306e-06
-5.12847e-07
6.387e-06
-8.09994e-07
5.78085e-06
-1.14168e-06
4.9774e-06
-1.51911e-06
3.98059e-06
-1.96978e-06
2.81463e-06
-2.54579e-06
1.55039e-06
-3.3154e-06
3.79345e-07
-4.26846e-06
-2.27524e-07
-4.91519e-06
-3.45159e-06
-4.27705e-07
1.31457e-06
-6.10135e-07
1.87392e-06
-3.77513e-07
1.76978e-06
1.22498e-07
1.62788e-06
7.68465e-07
1.49802e-06
1.46352e-06
1.35513e-06
2.16377e-06
1.20338e-06
2.84138e-06
1.05036e-06
3.48228e-06
9.02966e-07
4.08065e-06
7.67414e-07
4.63434e-06
6.47616e-07
5.14309e-06
5.4506e-07
5.60889e-06
4.60352e-07
6.03724e-06
3.94435e-07
6.44023e-06
3.50218e-07
6.83611e-06
3.30812e-07
7.19639e-06
2.95218e-07
7.49086e-06
2.34405e-07
7.71358e-06
1.63305e-07
7.84792e-06
7.1558e-08
7.87626e-06
-3.55839e-08
7.78358e-06
-1.54574e-07
7.55843e-06
-2.87698e-07
7.18635e-06
-4.37916e-07
6.65253e-06
-6.07855e-07
5.94096e-06
-8.07542e-07
5.0342e-06
-1.06302e-06
3.91663e-06
-1.42822e-06
2.59548e-06
-1.99424e-06
1.1855e-06
-2.85848e-06
1.13588e-07
-3.84327e-06
-3.338e-06
-3.83452e-07
1.69802e-06
2.77241e-08
1.46274e-06
7.89177e-07
1.00833e-06
1.59299e-06
8.24068e-07
2.4022e-06
6.88815e-07
3.19026e-06
5.67071e-07
3.93075e-06
4.62888e-07
4.60737e-06
3.73746e-07
5.21245e-06
2.97884e-07
5.74467e-06
2.35194e-07
6.20709e-06
1.85198e-07
6.6056e-06
1.46548e-07
6.94832e-06
1.17634e-07
7.24559e-06
9.71627e-08
7.51116e-06
8.46521e-08
7.76163e-06
8.03411e-08
7.98362e-06
7.32327e-08
8.16035e-06
5.76747e-08
8.28703e-06
3.66266e-08
8.35029e-06
8.28958e-09
8.33877e-06
-2.40603e-08
8.24356e-06
-5.93657e-08
8.05568e-06
-9.98136e-08
7.76397e-06
-1.46213e-07
7.35573e-06
-1.99609e-07
6.81314e-06
-2.64949e-07
6.10663e-06
-3.5652e-07
5.18613e-06
-5.07722e-07
3.97719e-06
-7.85306e-07
2.42064e-06
-1.30193e-06
7.46197e-07
-2.16883e-06
-2.5918e-06
1.69802e-06
3.16077e-06
4.16909e-06
4.99316e-06
5.68198e-06
6.24905e-06
6.71194e-06
7.08568e-06
7.38357e-06
7.61876e-06
7.80396e-06
7.95051e-06
8.06814e-06
8.1653e-06
8.24995e-06
8.3303e-06
8.40353e-06
8.4612e-06
8.49783e-06
8.50612e-06
8.48206e-06
8.42269e-06
8.32288e-06
8.17667e-06
7.97706e-06
7.71211e-06
7.35559e-06
6.84787e-06
6.06256e-06
4.76063e-06
2.5918e-06
)
;

boundaryField
{
    movingWall
    {
        type            calculated;
        value           uniform 0;
    }
    fixedWalls
    {
        type            calculated;
        value           uniform 0;
    }
    floor
    {
        type            calculated;
        value           uniform 0;
    }
    frontAndBack
    {
        type            empty;
        value           nonuniform List<scalar> 0();
    }
}


// ************************************************************************* //
