/*--------------------------------*- C++ -*----------------------------------*\
| =========                 |                                                 |
| \\      /  F ield         | OpenFOAM: The Open Source CFD Toolbox           |
|  \\    /   O peration     | Version:  2212                                  |
|   \\  /    A nd           | Website:  www.openfoam.com                      |
|    \\/     M anipulation  |                                                 |
\*---------------------------------------------------------------------------*/
FoamFile
{
    version     2.0;
    format      ascii;
    arch        "LSB;label=64;scalar=64";
    class       volScalarField;
    location    "490";
    object      Sch4;
}
// * * * * * * * * * * * * * * * * * * * * * * * * * * * * * * * * * * * * * //

dimensions      [1 -3 0 0 0 0 0];

internalField   nonuniform List<scalar> 
1024
(
0.0385142
0.0385232
0.0385445
0.0385816
0.038636
0.0387064
0.0387881
0.0388749
0.0389617
0.0390461
0.0391281
0.0392063
0.0392741
0.0393212
0.03934
0.0393227
0.0392684
0.0391904
0.0391005
0.0390006
0.0388883
0.0387593
0.0386101
0.0384429
0.0382675
0.0380983
0.0379496
0.0378304
0.0377439
0.0376874
0.0376557
0.0376427
0.0385152
0.0385245
0.0385466
0.0385849
0.0386407
0.0387122
0.0387944
0.0388809
0.038967
0.0390509
0.0391328
0.0392117
0.0392802
0.0393273
0.0393455
0.0393277
0.0392732
0.0391955
0.0391063
0.0390075
0.0388968
0.0387696
0.0386224
0.0384567
0.0382815
0.0381113
0.0379605
0.0378391
0.0377504
0.0376925
0.03766
0.0376466
0.0385171
0.0385269
0.0385503
0.0385905
0.0386484
0.0387213
0.0388038
0.0388895
0.0389744
0.0390578
0.039141
0.0392231
0.0392947
0.0393424
0.039359
0.0393387
0.0392827
0.0392051
0.0391172
0.0390206
0.038913
0.0387899
0.038647
0.0384847
0.0383107
0.0381388
0.0379841
0.0378579
0.037765
0.037704
0.0376699
0.0376559
0.0385194
0.0385297
0.0385543
0.0385962
0.0386558
0.0387296
0.0388115
0.0388956
0.0389794
0.0390635
0.0391508
0.0392407
0.0393201
0.0393697
0.0393827
0.0393564
0.0392962
0.0392175
0.0391308
0.0390372
0.0389343
0.0388174
0.0386814
0.038525
0.0383537
0.0381803
0.0380205
0.0378876
0.0377885
0.0377231
0.0376865
0.0376715
0.0385208
0.0385314
0.0385566
0.0385993
0.0386591
0.0387322
0.0388122
0.0388942
0.0389772
0.039064
0.0391594
0.0392635
0.0393572
0.0394111
0.0394178
0.0393805
0.0393116
0.0392294
0.0391432
0.039053
0.038956
0.038847
0.0387204
0.0385725
0.0384061
0.0382325
0.0380676
0.0379271
0.0378206
0.0377497
0.03771
0.0376939
0.0385196
0.0385302
0.0385551
0.0385967
0.0386547
0.0387247
0.0388013
0.0388804
0.038963
0.0390545
0.0391628
0.0392885
0.0394039
0.0394653
0.0394627
0.0394079
0.0393245
0.0392355
0.0391487
0.0390618
0.0389713
0.0388716
0.0387561
0.0386191
0.0384604
0.0382887
0.0381203
0.0379728
0.0378589
0.0377824
0.0377395
0.0377223
0.0385136
0.0385239
0.0385473
0.0385861
0.0386396
0.0387041
0.038775
0.0388499
0.0389321
0.0390303
0.0391564
0.0393118
0.0394564
0.0395276
0.039511
0.0394308
0.0393265
0.0392273
0.0391387
0.0390554
0.0389721
0.0388828
0.0387796
0.0386553
0.0385066
0.0383399
0.0381708
0.0380188
0.0378992
0.0378181
0.0377726
0.0377545
0.0385003
0.03851
0.0385313
0.0385655
0.0386122
0.0386685
0.0387311
0.0387998
0.0388809
0.0389875
0.0391371
0.039331
0.0395107
0.0395906
0.0395515
0.0394355
0.0393036
0.0391919
0.0391015
0.039023
0.0389488
0.0388712
0.0387818
0.0386716
0.0385351
0.0383764
0.0382104
0.0380578
0.0379359
0.0378526
0.0378058
0.0377873
0.0384764
0.0384856
0.0385044
0.0385332
0.0385714
0.0386171
0.0386688
0.038729
0.0388081
0.0389257
0.0391071
0.0393496
0.0395676
0.0396479
0.0395701
0.039403
0.0392361
0.0391112
0.0390217
0.0389517
0.0388901
0.0388274
0.0387541
0.0386597
0.0385374
0.0383898
0.0382314
0.0380831
0.0379635
0.0378813
0.0378351
0.0378168
0.0384376
0.0384464
0.0384631
0.0384866
0.0385159
0.0385498
0.0385889
0.0386394
0.0387172
0.0388517
0.0390776
0.0393799
0.0396342
0.0396969
0.0395536
0.039312
0.0391003
0.0389637
0.038881
0.0388264
0.0387839
0.0387417
0.0386884
0.038613
0.0385075
0.0383747
0.0382286
0.0380902
0.0379777
0.0379001
0.0378562
0.0378386
0.038377
0.0383857
0.0384012
0.0384209
0.0384429
0.0384662
0.0384939
0.0385366
0.0386189
0.038784
0.0390724
0.0394431
0.0397229
0.0397375
0.0394903
0.0391427
0.0388732
0.0387281
0.0386615
0.0386326
0.0386186
0.0386049
0.038578
0.0385261
0.0384418
0.0383281
0.0381995
0.0380762
0.0379754
0.0379054
0.0378653
0.0378487
0.0382854
0.038294
0.0383091
0.0383273
0.0383457
0.0383639
0.0383871
0.0384327
0.0385373
0.0387583
0.0391305
0.0395696
0.0398457
0.0397654
0.0393682
0.0388807
0.0385401
0.038391
0.0383516
0.0383603
0.0383862
0.0384104
0.0384178
0.0383959
0.0383383
0.0382495
0.0381439
0.0380405
0.0379548
0.0378943
0.0378585
0.037843
0.0381627
0.0381699
0.0381833
0.0382009
0.0382208
0.0382446
0.0382823
0.0383601
0.0385274
0.0388442
0.0393163
0.0397966
0.0400065
0.0397648
0.0391719
0.0385218
0.0381039
0.0379567
0.037954
0.0380104
0.0380855
0.0381565
0.0382061
0.0382212
0.0381963
0.0381373
0.0380587
0.0379782
0.0379097
0.0378596
0.0378286
0.0378145
0.0380731
0.0380771
0.0380867
0.0381038
0.0381322
0.0381807
0.0382685
0.0384312
0.0387183
0.0391636
0.0397109
0.0401463
0.0401825
0.0397041
0.0388923
0.038087
0.0376011
0.0374601
0.037496
0.0376022
0.0377297
0.0378517
0.0379492
0.0380091
0.0380256
0.0380038
0.037957
0.037901
0.0378485
0.0378066
0.0377783
0.0377643
0.0382158
0.0382198
0.0382321
0.0382603
0.0383168
0.0384208
0.0385996
0.0388866
0.0393056
0.0398322
0.0403354
0.0405695
0.0403112
0.0395616
0.0385692
0.0376626
0.0371299
0.0369873
0.0370485
0.037194
0.0373659
0.0375303
0.0376646
0.0377555
0.0378001
0.0378063
0.0377873
0.0377559
0.0377214
0.0376901
0.0376664
0.0376538
0.0388166
0.0388284
0.0388595
0.0389214
0.0390312
0.0392107
0.0394823
0.0398576
0.0403151
0.0407668
0.0410398
0.0409342
0.0403613
0.0394347
0.0383918
0.0374676
0.036893
0.0367116
0.0367633
0.0369255
0.0371293
0.0373303
0.0374988
0.0376186
0.0376857
0.0377063
0.037692
0.0376562
0.037612
0.0375707
0.0375403
0.0375247
0.039734
0.0397561
0.0398099
0.0399082
0.0400663
0.040299
0.0406115
0.0409844
0.0413555
0.0416081
0.0416014
0.0412531
0.0405954
0.0397371
0.0387967
0.0378969
0.0372312
0.0369103
0.0368349
0.0368827
0.0369813
0.0370856
0.0371691
0.0372192
0.0372362
0.0372304
0.0372172
0.0372109
0.0372185
0.0372371
0.0372571
0.0372689
0.0404915
0.0405196
0.0405873
0.0407087
0.0408972
0.0411593
0.0414842
0.0418314
0.0421264
0.0422781
0.0422215
0.041948
0.0414876
0.0408736
0.0401389
0.0393378
0.038612
0.0381127
0.037817
0.0376312
0.0375163
0.0374518
0.0374337
0.0374662
0.0375559
0.0377058
0.0379079
0.0381444
0.0383846
0.0385913
0.0387338
0.0388007
0.0409287
0.0409594
0.041035
0.0411719
0.0413841
0.041675
0.0420265
0.0423935
0.0427131
0.042929
0.0430172
0.0429833
0.0428389
0.0425859
0.0422283
0.0417967
0.0413955
0.0411699
0.0411356
0.0412338
0.0414335
0.0416988
0.0420029
0.042324
0.0426412
0.0429371
0.0431937
0.043399
0.0435481
0.0436449
0.0436997
0.0437227
0.0411126
0.0411433
0.0412193
0.0413575
0.0415731
0.0418713
0.0422393
0.0426421
0.0430323
0.0433711
0.0436459
0.0438645
0.0440349
0.0441576
0.0442413
0.0443295
0.0445138
0.0448915
0.0454584
0.046158
0.0469287
0.0476984
0.0484004
0.0489948
0.0494411
0.0497161
0.0498172
0.0497635
0.0496025
0.049407
0.0492502
0.0491725
0.041151
0.0411798
0.0412503
0.0413776
0.041576
0.0418532
0.0422043
0.042609
0.043037
0.0434623
0.043875
0.0442797
0.0446808
0.045078
0.0454823
0.0459463
0.0465488
0.047328
0.0482331
0.0491915
0.0501272
0.0509737
0.0516836
0.0522456
0.0526502
0.0528968
0.0529935
0.0529563
0.0528177
0.0526321
0.052467
0.0523766
0.04113
0.0411559
0.0412191
0.0413329
0.0415108
0.0417622
0.0420883
0.0424791
0.0429174
0.0433866
0.0438789
0.0443949
0.0449347
0.0454933
0.0460737
0.0467176
0.0474822
0.0483713
0.0493084
0.0502174
0.0510345
0.0517275
0.0522984
0.0527669
0.053148
0.0534459
0.0536558
0.0537725
0.0538003
0.0537603
0.0536919
0.0536423
0.0411164
0.041137
0.0411893
0.0412868
0.0414434
0.0416706
0.0419742
0.0423523
0.0427973
0.0432997
0.0438521
0.0444497
0.045084
0.0457405
0.0464088
0.0471118
0.0478823
0.048717
0.0495525
0.0503309
0.0510129
0.0515967
0.0521073
0.0525727
0.0530043
0.0533913
0.0537098
0.0539392
0.0540734
0.0541247
0.0541216
0.0541031
0.0411854
0.0411955
0.0412291
0.0413037
0.041437
0.0416445
0.0419366
0.0423173
0.0427843
0.0433307
0.0439458
0.0446168
0.0453256
0.0460481
0.0467625
0.0474731
0.0481905
0.0489164
0.0496216
0.0502756
0.0508583
0.0513795
0.0518667
0.0523455
0.0528237
0.0532836
0.0536902
0.054008
0.0542182
0.054326
0.0543578
0.0543539
0.0414268
0.0414186
0.0414226
0.0414652
0.0415735
0.0417699
0.0420694
0.0424778
0.0429918
0.0435994
0.0442824
0.0450189
0.0457831
0.0465456
0.0472789
0.0479753
0.0486274
0.0492427
0.0498255
0.0503724
0.0508752
0.0513436
0.0518001
0.0522654
0.0527471
0.0532313
0.0536841
0.054062
0.0543321
0.0544866
0.054546
0.0545516
0.0419344
0.0418998
0.0418646
0.0418711
0.04196
0.0421627
0.0424953
0.0429578
0.0435374
0.0442114
0.0449521
0.0457313
0.04652
0.0472894
0.0480126
0.0486769
0.0492636
0.0497815
0.0502575
0.0507082
0.0511336
0.0515418
0.0519495
0.0523724
0.0528181
0.0532792
0.0537301
0.05413
0.0544368
0.054628
0.054712
0.0547266
0.0427867
0.042721
0.0426487
0.0426326
0.0427253
0.0429619
0.0433508
0.043878
0.0445168
0.0452344
0.0459975
0.0467767
0.0475456
0.0482803
0.0489589
0.049569
0.0500864
0.0505177
0.0509002
0.0512616
0.051608
0.0519467
0.0522897
0.0526488
0.0530316
0.0534362
0.0538464
0.05423
0.0545448
0.0547573
0.0548612
0.0548848
0.0440347
0.0439432
0.04386
0.043862
0.0439982
0.0442934
0.0447395
0.0453081
0.0459643
0.0466723
0.0474006
0.0481239
0.0488219
0.0494777
0.0500758
0.0506062
0.0510443
0.0513937
0.0516924
0.0519711
0.0522398
0.052505
0.0527753
0.0530594
0.0533643
0.0536917
0.0540346
0.0543712
0.0546654
0.0548798
0.0549955
0.0550273
0.0457075
0.0456133
0.0455756
0.0456525
0.0458628
0.0462103
0.046674
0.0472238
0.0478278
0.0484565
0.0490855
0.0496966
0.0502763
0.0508139
0.0512998
0.051727
0.0520742
0.0523425
0.0525644
0.052768
0.0529638
0.0531575
0.0533551
0.0535629
0.0537863
0.0540287
0.0542893
0.0545568
0.0548056
0.055001
0.0551169
0.0551543
0.0478352
0.0477871
0.047859
0.0480343
0.0482955
0.0486377
0.0490452
0.0494983
0.0499767
0.0504612
0.0509365
0.0513912
0.0518174
0.0522091
0.0525609
0.0528686
0.0531161
0.0533034
0.0534544
0.0535906
0.0537208
0.0538493
0.05398
0.054117
0.0542641
0.0544244
0.0545997
0.0547864
0.0549705
0.0551266
0.0552285
0.0552665
0.0504816
0.0505337
0.050701
0.0508991
0.0511211
0.0513711
0.0516455
0.051937
0.0522365
0.0525347
0.0528238
0.0530977
0.0533525
0.0535854
0.0537937
0.0539753
0.0541205
0.054229
0.0543151
0.0543916
0.0544643
0.0545357
0.054608
0.0546834
0.0547641
0.0548519
0.0549487
0.0550543
0.0551633
0.0552626
0.0553342
0.0553651
0.0537359
0.0537826
0.0538724
0.0539593
0.0540461
0.0541372
0.054233
0.0543324
0.054433
0.0545324
0.054628
0.0547182
0.0548018
0.0548779
0.0549458
0.0550049
0.055052
0.055087
0.0551146
0.0551389
0.0551619
0.0551844
0.0552071
0.0552307
0.0552558
0.0552831
0.0553131
0.055346
0.0553808
0.0554141
0.0554401
0.0554529
)
;

boundaryField
{
    movingWall
    {
        type            fixedValue;
        value           uniform 0.0555;
    }
    fixedWalls
    {
        type            zeroGradient;
    }
    floor
    {
        type            zeroGradient;
    }
    frontAndBack
    {
        type            empty;
    }
}


// ************************************************************************* //
