/*--------------------------------*- C++ -*----------------------------------*\
| =========                 |                                                 |
| \\      /  F ield         | OpenFOAM: The Open Source CFD Toolbox           |
|  \\    /   O peration     | Version:  2212                                  |
|   \\  /    A nd           | Website:  www.openfoam.com                      |
|    \\/     M anipulation  |                                                 |
\*---------------------------------------------------------------------------*/
FoamFile
{
    version     2.0;
    format      ascii;
    arch        "LSB;label=64;scalar=64";
    class       volScalarField;
    location    "490";
    object      SIC;
}
// * * * * * * * * * * * * * * * * * * * * * * * * * * * * * * * * * * * * * //

dimensions      [1 -3 0 0 0 0 0];

internalField   nonuniform List<scalar> 
1024
(
0.0919015
0.0919032
0.0919073
0.0919143
0.0919245
0.0919378
0.0919531
0.0919695
0.0919858
0.0920017
0.0920172
0.0920319
0.0920447
0.0920535
0.0920571
0.0920538
0.0920436
0.0920289
0.092012
0.0919931
0.091972
0.0919477
0.0919196
0.0918881
0.0918551
0.0918233
0.0917953
0.0917728
0.0917565
0.0917459
0.0917399
0.0917375
0.0919018
0.0919035
0.0919077
0.0919149
0.0919254
0.0919389
0.0919543
0.0919706
0.0919868
0.0920026
0.0920181
0.0920329
0.0920458
0.0920547
0.0920581
0.0920548
0.0920445
0.0920299
0.0920131
0.0919945
0.0919736
0.0919497
0.0919219
0.0918907
0.0918578
0.0918257
0.0917973
0.0917744
0.0917578
0.0917468
0.0917407
0.0917382
0.0919021
0.091904
0.0919084
0.0919159
0.0919268
0.0919406
0.0919561
0.0919722
0.0919882
0.0920039
0.0920196
0.092035
0.0920486
0.0920575
0.0920606
0.0920568
0.0920463
0.0920317
0.0920151
0.0919969
0.0919766
0.0919535
0.0919266
0.091896
0.0918632
0.0918309
0.0918018
0.091778
0.0917605
0.091749
0.0917426
0.09174
0.0919026
0.0919045
0.0919091
0.091917
0.0919282
0.0919421
0.0919575
0.0919734
0.0919892
0.092005
0.0920215
0.0920384
0.0920533
0.0920627
0.0920651
0.0920602
0.0920488
0.092034
0.0920177
0.092
0.0919807
0.0919587
0.0919331
0.0919036
0.0918713
0.0918387
0.0918086
0.0917836
0.0917649
0.0917526
0.0917457
0.0917429
0.0919028
0.0919048
0.0919096
0.0919176
0.0919289
0.0919426
0.0919577
0.0919731
0.0919888
0.0920051
0.0920231
0.0920427
0.0920603
0.0920705
0.0920717
0.0920647
0.0920517
0.0920362
0.09202
0.092003
0.0919847
0.0919642
0.0919404
0.0919125
0.0918812
0.0918485
0.0918175
0.091791
0.091771
0.0917576
0.0917502
0.0917471
0.0919026
0.0919046
0.0919093
0.0919171
0.091928
0.0919412
0.0919556
0.0919705
0.0919861
0.0920033
0.0920237
0.0920474
0.0920691
0.0920807
0.0920802
0.0920699
0.0920542
0.0920374
0.092021
0.0920047
0.0919876
0.0919689
0.0919471
0.0919213
0.0918914
0.0918591
0.0918274
0.0917996
0.0917782
0.0917638
0.0917557
0.0917525
0.0919015
0.0919034
0.0919078
0.0919151
0.0919252
0.0919373
0.0919507
0.0919648
0.0919803
0.0919988
0.0920225
0.0920518
0.092079
0.0920924
0.0920893
0.0920742
0.0920545
0.0920359
0.0920192
0.0920035
0.0919878
0.091971
0.0919515
0.0919281
0.0919002
0.0918688
0.0918369
0.0918083
0.0917858
0.0917705
0.0917619
0.0917585
0.091899
0.0919008
0.0919048
0.0919112
0.09192
0.0919306
0.0919424
0.0919553
0.0919706
0.0919907
0.0920189
0.0920554
0.0920892
0.0921043
0.0920969
0.0920751
0.0920502
0.0920292
0.0920122
0.0919974
0.0919834
0.0919688
0.091952
0.0919312
0.0919055
0.0918756
0.0918444
0.0918156
0.0917927
0.091777
0.0917682
0.0917647
0.0918945
0.0918962
0.0918997
0.0919052
0.0919123
0.0919209
0.0919307
0.091942
0.0919569
0.0919791
0.0920132
0.0920589
0.0920999
0.0921151
0.0921004
0.0920689
0.0920375
0.092014
0.0919971
0.091984
0.0919724
0.0919606
0.0919467
0.091929
0.0919059
0.0918782
0.0918483
0.0918204
0.0917979
0.0917824
0.0917737
0.0917702
0.0918872
0.0918888
0.091892
0.0918964
0.0919019
0.0919083
0.0919156
0.0919251
0.0919398
0.0919651
0.0920077
0.0920646
0.0921125
0.0921243
0.0920973
0.0920518
0.0920119
0.0919862
0.0919706
0.0919604
0.0919524
0.0919444
0.0919344
0.0919202
0.0919003
0.0918753
0.0918478
0.0918217
0.0918006
0.0917859
0.0917777
0.0917744
0.0918757
0.0918774
0.0918803
0.091884
0.0918881
0.0918925
0.0918977
0.0919058
0.0919213
0.0919524
0.0920067
0.0920765
0.0921292
0.0921319
0.0920854
0.0920199
0.0919692
0.0919419
0.0919293
0.0919239
0.0919212
0.0919186
0.0919136
0.0919038
0.0918879
0.0918665
0.0918423
0.0918191
0.0918001
0.0917869
0.0917794
0.0917763
0.0918585
0.0918601
0.0918629
0.0918664
0.0918698
0.0918733
0.0918776
0.0918862
0.0919059
0.0919475
0.0920176
0.0921003
0.0921523
0.0921372
0.0920624
0.0919706
0.0919064
0.0918784
0.091871
0.0918726
0.0918775
0.091882
0.0918834
0.0918793
0.0918685
0.0918517
0.0918318
0.0918124
0.0917962
0.0917848
0.0917781
0.0917752
0.0918354
0.0918367
0.0918393
0.0918426
0.0918463
0.0918508
0.0918579
0.0918726
0.0919041
0.0919637
0.0920526
0.0921431
0.0921826
0.0921371
0.0920254
0.091903
0.0918243
0.0917966
0.0917961
0.0918067
0.0918209
0.0918342
0.0918436
0.0918464
0.0918417
0.0918306
0.0918158
0.0918007
0.0917877
0.0917783
0.0917725
0.0917698
0.0918185
0.0918193
0.0918211
0.0918243
0.0918297
0.0918388
0.0918553
0.091886
0.09194
0.0920239
0.0921269
0.0922089
0.0922157
0.0921256
0.0919728
0.0918211
0.0917296
0.0917031
0.0917098
0.0917298
0.0917539
0.0917768
0.0917952
0.0918065
0.0918096
0.0918055
0.0917967
0.0917861
0.0917762
0.0917683
0.091763
0.0917604
0.0918454
0.0918461
0.0918485
0.0918538
0.0918644
0.091884
0.0919177
0.0919717
0.0920506
0.0921498
0.0922445
0.0922886
0.0922399
0.0920988
0.0919119
0.0917412
0.0916409
0.0916141
0.0916256
0.091653
0.0916853
0.0917163
0.0917416
0.0917587
0.0917671
0.0917683
0.0917647
0.0917588
0.0917523
0.0917464
0.0917419
0.0917396
0.0919585
0.0919607
0.0919666
0.0919783
0.0919989
0.0920327
0.0920839
0.0921545
0.0922407
0.0923257
0.0923772
0.0923573
0.0922494
0.0920749
0.0918785
0.0917045
0.0915963
0.0915621
0.0915719
0.0916024
0.0916408
0.0916786
0.0917104
0.0917329
0.0917456
0.0917494
0.0917468
0.09174
0.0917317
0.0917239
0.0917182
0.0917153
0.0921313
0.0921354
0.0921456
0.0921641
0.0921938
0.0922377
0.0922965
0.0923667
0.0924366
0.0924842
0.0924829
0.0924173
0.0922935
0.0921318
0.0919548
0.0917853
0.09166
0.0915996
0.0915854
0.0915944
0.0916129
0.0916326
0.0916483
0.0916577
0.0916609
0.0916598
0.0916574
0.0916562
0.0916576
0.0916611
0.0916649
0.0916671
0.0922739
0.0922792
0.0922919
0.0923148
0.0923503
0.0923996
0.0924608
0.0925262
0.0925817
0.0926103
0.0925997
0.0925482
0.0924615
0.0923459
0.0922075
0.0920567
0.09192
0.091826
0.0917703
0.0917353
0.0917137
0.0917015
0.0916981
0.0917042
0.0917211
0.0917494
0.0917874
0.0918319
0.0918772
0.0919161
0.0919429
0.0919555
0.0923562
0.092362
0.0923762
0.092402
0.092442
0.0924967
0.0925629
0.092632
0.0926922
0.0927329
0.0927495
0.0927431
0.0927159
0.0926683
0.0926009
0.0925197
0.0924441
0.0924016
0.0923952
0.0924137
0.0924513
0.0925012
0.0925585
0.0926189
0.0926787
0.0927344
0.0927827
0.0928214
0.0928495
0.0928677
0.092878
0.0928823
0.0923909
0.0923966
0.0924109
0.092437
0.0924775
0.0925337
0.092603
0.0926788
0.0927523
0.0928161
0.0928679
0.092909
0.0929411
0.0929642
0.09298
0.0929966
0.0930313
0.0931024
0.0932092
0.0933409
0.093486
0.093631
0.0937631
0.0938751
0.0939591
0.0940109
0.0940299
0.0940198
0.0939895
0.0939527
0.0939232
0.0939085
0.0923981
0.0924035
0.0924168
0.0924407
0.0924781
0.0925303
0.0925964
0.0926726
0.0927532
0.0928333
0.092911
0.0929872
0.0930628
0.0931375
0.0932137
0.093301
0.0934145
0.0935612
0.0937316
0.0939121
0.0940883
0.0942477
0.0943814
0.0944872
0.0945634
0.0946098
0.094628
0.094621
0.0945949
0.09456
0.0945289
0.0945119
0.0923941
0.092399
0.0924109
0.0924323
0.0924658
0.0925132
0.0925746
0.0926481
0.0927307
0.0928191
0.0929117
0.0930089
0.0931106
0.0932158
0.093325
0.0934463
0.0935903
0.0937577
0.0939341
0.0941053
0.0942591
0.0943896
0.0944971
0.0945854
0.0946571
0.0947132
0.0947527
0.0947747
0.0947799
0.0947724
0.0947595
0.0947502
0.0923915
0.0923954
0.0924053
0.0924236
0.0924531
0.0924959
0.0925531
0.0926243
0.0927081
0.0928027
0.0929067
0.0930192
0.0931387
0.0932623
0.0933881
0.0935205
0.0936656
0.0938228
0.0939801
0.0941267
0.0942551
0.094365
0.0944612
0.0945488
0.0946301
0.0947029
0.0947629
0.0948061
0.0948314
0.094841
0.0948404
0.094837
0.0924045
0.0924064
0.0924128
0.0924268
0.0924519
0.092491
0.092546
0.0926177
0.0927056
0.0928085
0.0929243
0.0930507
0.0931842
0.0933202
0.0934547
0.0935885
0.0937236
0.0938603
0.0939931
0.0941162
0.094226
0.0943241
0.0944158
0.094506
0.0945961
0.0946827
0.0947592
0.0948191
0.0948586
0.0948789
0.0948849
0.0948842
0.09245
0.0924484
0.0924492
0.0924572
0.0924776
0.0925146
0.092571
0.0926479
0.0927447
0.0928591
0.0929877
0.0931264
0.0932703
0.0934139
0.093552
0.0936831
0.0938059
0.0939218
0.0940315
0.0941345
0.0942291
0.0943174
0.0944033
0.0944909
0.0945816
0.0946728
0.0947581
0.0948292
0.0948801
0.0949092
0.0949204
0.0949214
0.0925456
0.0925391
0.0925324
0.0925337
0.0925504
0.0925886
0.0926512
0.0927383
0.0928474
0.0929744
0.0931139
0.0932606
0.0934091
0.093554
0.0936901
0.0938152
0.0939257
0.0940232
0.0941128
0.0941977
0.0942778
0.0943547
0.0944314
0.0945111
0.094595
0.0946818
0.0947667
0.094842
0.0948998
0.0949358
0.0949516
0.0949544
0.0927061
0.0926937
0.0926801
0.0926771
0.0926945
0.0927391
0.0928123
0.0929116
0.0930319
0.093167
0.0933107
0.0934574
0.0936022
0.0937405
0.0938683
0.0939832
0.0940806
0.0941618
0.0942339
0.0943019
0.0943671
0.0944309
0.0944955
0.0945631
0.0946352
0.0947114
0.0947886
0.0948609
0.0949201
0.0949601
0.0949797
0.0949842
0.0929411
0.0929238
0.0929082
0.0929085
0.0929342
0.0929898
0.0930738
0.0931809
0.0933044
0.0934377
0.0935749
0.0937111
0.0938425
0.093966
0.0940786
0.0941785
0.094261
0.0943268
0.094383
0.0944355
0.0944861
0.094536
0.0945869
0.0946404
0.0946978
0.0947595
0.0948241
0.0948874
0.0949428
0.0949832
0.095005
0.095011
0.093256
0.0932383
0.0932312
0.0932457
0.0932853
0.0933507
0.0934381
0.0935416
0.0936553
0.0937737
0.0938922
0.0940072
0.0941164
0.0942176
0.0943091
0.0943896
0.0944549
0.0945054
0.0945472
0.0945856
0.0946224
0.0946589
0.0946961
0.0947352
0.0947773
0.094823
0.094872
0.0949224
0.0949692
0.095006
0.0950279
0.0950349
0.0936567
0.0936476
0.0936612
0.0936942
0.0937434
0.0938078
0.0938846
0.0939699
0.09406
0.0941512
0.0942407
0.0943263
0.0944066
0.0944803
0.0945466
0.0946045
0.0946511
0.0946864
0.0947148
0.0947405
0.094765
0.0947892
0.0948138
0.0948396
0.0948673
0.0948975
0.0949305
0.0949656
0.0950003
0.0950297
0.0950489
0.095056
0.094155
0.0941648
0.0941963
0.0942336
0.0942754
0.0943225
0.0943742
0.0944291
0.0944855
0.0945416
0.0945961
0.0946477
0.0946956
0.0947395
0.0947787
0.0948129
0.0948402
0.0948607
0.0948769
0.0948913
0.094905
0.0949184
0.094932
0.0949462
0.0949614
0.094978
0.0949962
0.0950161
0.0950366
0.0950553
0.0950688
0.0950746
0.0947678
0.0947766
0.0947935
0.0948099
0.0948262
0.0948434
0.0948614
0.0948801
0.0948991
0.0949178
0.0949358
0.0949528
0.0949685
0.0949829
0.0949956
0.0950068
0.0950156
0.0950222
0.0950274
0.095032
0.0950363
0.0950406
0.0950448
0.0950493
0.095054
0.0950592
0.0950648
0.095071
0.0950776
0.0950838
0.0950887
0.0950911
)
;

boundaryField
{
    movingWall
    {
        type            fixedValue;
        value           uniform 0.0951;
    }
    fixedWalls
    {
        type            zeroGradient;
    }
    floor
    {
        type            zeroGradient;
    }
    frontAndBack
    {
        type            empty;
    }
}


// ************************************************************************* //
