/*--------------------------------*- C++ -*----------------------------------*\
| =========                 |                                                 |
| \\      /  F ield         | OpenFOAM: The Open Source CFD Toolbox           |
|  \\    /   O peration     | Version:  2212                                  |
|   \\  /    A nd           | Website:  www.openfoam.com                      |
|    \\/     M anipulation  |                                                 |
\*---------------------------------------------------------------------------*/
FoamFile
{
    version     2.0;
    format      ascii;
    arch        "LSB;label=64;scalar=64";
    class       volVectorField;
    location    "490";
    object      U;
}
// * * * * * * * * * * * * * * * * * * * * * * * * * * * * * * * * * * * * * //

dimensions      [0 1 -1 0 0 0 0];

internalField   nonuniform List<vector> 
1024
(
(1.48913e-05 -1.88311e-05 0)
(-0.000228321 5.47927e-05 0)
(-0.000820293 0.000101982 0)
(-0.00161619 0.000105073 0)
(-0.00246514 9.78174e-05 0)
(-0.0033214 9.42951e-05 0)
(-0.00417447 9.15847e-05 0)
(-0.00497661 8.35887e-05 0)
(-0.00559252 6.33699e-05 0)
(-0.00574629 2.03353e-05 0)
(-0.00494745 -5.9805e-05 0)
(-0.00287445 -0.000129397 0)
(0.000606481 -0.000117358 0)
(0.00327366 -7.68599e-05 0)
(0.0051384 -2.81215e-05 0)
(0.00589989 3.09584e-06 0)
(0.00581871 1.54453e-05 0)
(0.0053548 2.0542e-05 0)
(0.00476471 2.32226e-05 0)
(0.00414928 2.4746e-05 0)
(0.00354656 2.59145e-05 0)
(0.00297441 2.64493e-05 0)
(0.00244966 2.56817e-05 0)
(0.00198834 2.34405e-05 0)
(0.00159978 1.99976e-05 0)
(0.00127889 1.69476e-05 0)
(0.000999963 1.74337e-05 0)
(0.000726842 2.33113e-05 0)
(0.000445152 3.01736e-05 0)
(0.000190161 2.69243e-05 0)
(2.69205e-05 6.31576e-06 0)
(-1.39496e-05 -1.43004e-05 0)
(-8.55464e-05 0.000247025 0)
(-0.0010124 0.00084661 0)
(-0.00270379 0.00118008 0)
(-0.00483134 0.00119653 0)
(-0.00704802 0.00107798 0)
(-0.00919734 0.000937285 0)
(-0.0111808 0.000782313 0)
(-0.0128324 0.000580835 0)
(-0.0138302 0.000290414 0)
(-0.0136281 -0.000145346 0)
(-0.0113178 -0.000735762 0)
(-0.00649012 -0.00129092 0)
(0.00192744 -0.00124074 0)
(0.00829494 -0.000807858 0)
(0.0130773 -0.000397782 0)
(0.0154737 -8.61338e-05 0)
(0.0157419 8.16395e-05 0)
(0.0149051 0.000165707 0)
(0.0135885 0.000217571 0)
(0.0120911 0.000253719 0)
(0.010547 0.000282692 0)
(0.009026 0.00030452 0)
(0.00758319 0.00031528 0)
(0.00626639 0.000313096 0)
(0.00510568 0.000301158 0)
(0.00409747 0.000292848 0)
(0.00319536 0.00030884 0)
(0.00233442 0.000355053 0)
(0.00149368 0.00039378 0)
(0.000747142 0.000353514 0)
(0.000231198 0.000200971 0)
(8.47334e-06 2.55539e-05 0)
(-0.000211049 0.00112639 0)
(-0.00186928 0.00277603 0)
(-0.00453899 0.00349148 0)
(-0.00771246 0.0034194 0)
(-0.0109023 0.00299534 0)
(-0.0138574 0.00247807 0)
(-0.0163878 0.00191159 0)
(-0.0182431 0.00124727 0)
(-0.0190184 0.000407791 0)
(-0.0180634 -0.0007105 0)
(-0.0145098 -0.00208687 0)
(-0.00814888 -0.00343203 0)
(0.00295876 -0.00334613 0)
(0.0115137 -0.00223222 0)
(0.0184817 -0.0012125 0)
(0.0226362 -0.000385444 0)
(0.0238093 0.000111829 0)
(0.0231851 0.00038099 0)
(0.0216562 0.000558158 0)
(0.0196913 0.00068941 0)
(0.0175272 0.00079792 0)
(0.0152967 0.00088634 0)
(0.0130976 0.000946975 0)
(0.0110101 0.00097526 0)
(0.00908807 0.000978869 0)
(0.0073438 0.000988303 0)
(0.00574128 0.00104757 0)
(0.0042231 0.00116555 0)
(0.00277386 0.00125488 0)
(0.00148266 0.00115296 0)
(0.000535876 0.000768688 0)
(4.55957e-05 0.000234578 0)
(-0.000293851 0.00269249 0)
(-0.00244604 0.00594031 0)
(-0.0057562 0.00707006 0)
(-0.00955723 0.00672649 0)
(-0.0132514 0.005735 0)
(-0.0165201 0.00455215 0)
(-0.0191192 0.00328787 0)
(-0.0207715 0.00189386 0)
(-0.0210718 0.000264673 0)
(-0.0193763 -0.00174485 0)
(-0.0151001 -0.00405463 0)
(-0.00817838 -0.0063266 0)
(0.003452 -0.00622903 0)
(0.0128583 -0.00431413 0)
(0.0211386 -0.00253864 0)
(0.0268227 -0.00101179 0)
(0.0292645 -6.65285e-06 0)
(0.0293351 0.000577137 0)
(0.0281096 0.000976504 0)
(0.0261569 0.00128602 0)
(0.0237918 0.00155021 0)
(0.0212008 0.00177741 0)
(0.0185193 0.00195742 0)
(0.0158549 0.00208297 0)
(0.0132854 0.00216612 0)
(0.0108485 0.00225357 0)
(0.00854061 0.00241075 0)
(0.00633701 0.00264844 0)
(0.00423921 0.00282408 0)
(0.00234646 0.00265304 0)
(0.000899852 0.00191628 0)
(8.88745e-05 0.000713164 0)
(-0.000293689 0.00476407 0)
(-0.00253017 0.01005 0)
(-0.00600472 0.0116445 0)
(-0.00997325 0.0108659 0)
(-0.0137578 0.0090534 0)
(-0.0169864 0.00693284 0)
(-0.0193932 0.00472079 0)
(-0.0207178 0.00238921 0)
(-0.0206033 -0.00018925 0)
(-0.0185271 -0.00315723 0)
(-0.0140433 -0.0064399 0)
(-0.00715748 -0.00959996 0)
(0.00361979 -0.00950302 0)
(0.0129219 -0.00686218 0)
(0.0216246 -0.00430676 0)
(0.0282163 -0.00200654 0)
(0.0318005 -0.00038083 0)
(0.0327969 0.000634418 0)
(0.0322221 0.00135198 0)
(0.0306798 0.00192925 0)
(0.028517 0.00243852 0)
(0.0259454 0.00289715 0)
(0.0231186 0.00329497 0)
(0.0201596 0.00362308 0)
(0.0171633 0.00389658 0)
(0.0141934 0.00417206 0)
(0.0112845 0.00452736 0)
(0.00845429 0.00497096 0)
(0.00573351 0.00530315 0)
(0.00324177 0.00508283 0)
(0.00128271 0.0038593 0)
(0.000135571 0.00157222 0)
(-0.00021564 0.0069601 0)
(-0.0021369 0.0145652 0)
(-0.00532108 0.0167919 0)
(-0.00906133 0.0155464 0)
(-0.0126418 0.0127477 0)
(-0.0156447 0.00948639 0)
(-0.0177988 0.00614711 0)
(-0.0188808 0.00274893 0)
(-0.0185786 -0.00085128 0)
(-0.0164821 -0.00481602 0)
(-0.0121091 -0.00911679 0)
(-0.00553035 -0.0130404 0)
(0.00384908 -0.0129182 0)
(0.0125021 -0.00970662 0)
(0.0209235 -0.0063921 0)
(0.0276743 -0.00331186 0)
(0.03183 -0.0010332 0)
(0.0336115 0.000475024 0)
(0.0337463 0.00158036 0)
(0.0327989 0.00250055 0)
(0.0310973 0.00333964 0)
(0.0288396 0.00412754 0)
(0.0261704 0.00485706 0)
(0.0232091 0.00551921 0)
(0.0200561 0.00613005 0)
(0.0167931 0.00674849 0)
(0.0134862 0.00745343 0)
(0.0101915 0.00824073 0)
(0.0069756 0.00884207 0)
(0.00399083 0.00861621 0)
(0.0016043 0.00676269 0)
(0.000175346 0.00290128 0)
(-0.00010185 0.00884154 0)
(-0.00144447 0.0188233 0)
(-0.00399651 0.0219857 0)
(-0.00721618 0.0204449 0)
(-0.01041 0.0166523 0)
(-0.0131192 0.0121592 0)
(-0.0150632 0.00760161 0)
(-0.0160453 0.00307888 0)
(-0.015764 -0.00157851 0)
(-0.0138018 -0.0066364 0)
(-0.0096499 -0.0120436 0)
(-0.00347733 -0.0165597 0)
(0.0043638 -0.0163537 0)
(0.0121378 -0.0127235 0)
(0.0198434 -0.00866694 0)
(0.0261815 -0.00480875 0)
(0.0302914 -0.00189062 0)
(0.0324017 0.000108749 0)
(0.0330189 0.00162328 0)
(0.0325984 0.00292584 0)
(0.0314068 0.00415413 0)
(0.0295941 0.00535404 0)
(0.0272682 0.00652447 0)
(0.0245249 0.00765723 0)
(0.0214555 0.00876657 0)
(0.0181476 0.00990664 0)
(0.0146857 0.0111462 0)
(0.011155 0.0124519 0)
(0.00765733 0.013459 0)
(0.00438563 0.0132698 0)
(0.00176143 0.0106274 0)
(0.00019148 0.00469712 0)
(3.78816e-06 0.0100503 0)
(-0.000660713 0.0221554 0)
(-0.00236016 0.0266283 0)
(-0.00484365 0.0251972 0)
(-0.00752723 0.020611 0)
(-0.00991697 0.014931 0)
(-0.0116968 0.00914339 0)
(-0.0126588 0.00346699 0)
(-0.0124569 -0.00231751 0)
(-0.0106125 -0.00860721 0)
(-0.0067019 -0.0152056 0)
(-0.00106154 -0.0200794 0)
(0.0052473 -0.0197382 0)
(0.0120301 -0.0158053 0)
(0.0187696 -0.0110204 0)
(0.0243715 -0.00637678 0)
(0.0280316 -0.00282935 0)
(0.0299586 -0.000384289 0)
(0.0307182 0.0015197 0)
(0.0305921 0.00320327 0)
(0.0297856 0.00484197 0)
(0.0283874 0.00650422 0)
(0.0264533 0.00819978 0)
(0.0240406 0.00992204 0)
(0.0212178 0.0116803 0)
(0.0180646 0.0135173 0)
(0.0146707 0.0154797 0)
(0.0111395 0.017481 0)
(0.0076053 0.0190138 0)
(0.00430375 0.0188546 0)
(0.00169184 0.0152237 0)
(0.000173733 0.00681168 0)
(7.38788e-05 0.0103715 0)
(4.37543e-05 0.0239409 0)
(-0.000672921 0.0300405 0)
(-0.0022059 0.0293404 0)
(-0.00422886 0.0244175 0)
(-0.00624461 0.0177522 0)
(-0.00785888 0.0107849 0)
(-0.00880037 0.00392035 0)
(-0.00861145 -0.00310373 0)
(-0.00679638 -0.0107673 0)
(-0.00316827 -0.0185383 0)
(0.00161172 -0.023466 0)
(0.00657698 -0.0229949 0)
(0.0121927 -0.0188208 0)
(0.0177812 -0.013341 0)
(0.0224634 -0.00791606 0)
(0.0254854 -0.00373665 0)
(0.0269872 -0.000868369 0)
(0.0275582 0.00137785 0)
(0.0274502 0.00340541 0)
(0.0268231 0.00543494 0)
(0.0257117 0.00756774 0)
(0.0241188 0.00983195 0)
(0.0220571 0.012225 0)
(0.0195625 0.014749 0)
(0.0166952 0.0174289 0)
(0.0135382 0.0202749 0)
(0.0102042 0.023113 0)
(0.00685701 0.0252274 0)
(0.00377266 0.0249953 0)
(0.00141516 0.0201199 0)
(0.000127769 0.00897536 0)
(0.000118982 0.00982036 0)
(0.000581163 0.0237897 0)
(0.000809691 0.0313385 0)
(0.000480073 0.032188 0)
(-0.000562546 0.0277202 0)
(-0.00201684 0.0204973 0)
(-0.00338202 0.0124548 0)
(-0.00428813 0.00433883 0)
(-0.00400851 -0.00402779 0)
(-0.00217167 -0.0131465 0)
(0.00102414 -0.0218578 0)
(0.00452225 -0.0264671 0)
(0.00830441 -0.0259877 0)
(0.0125676 -0.0215861 0)
(0.0168246 -0.015483 0)
(0.0204377 -0.00932793 0)
(0.0227384 -0.00453175 0)
(0.0237561 -0.0012383 0)
(0.023988 0.0013185 0)
(0.0237198 0.00364126 0)
(0.0231024 0.00601318 0)
(0.0221442 0.0085846 0)
(0.0208095 0.0114141 0)
(0.0190707 0.0145099 0)
(0.016928 0.0178677 0)
(0.0144146 0.021489 0)
(0.0115997 0.0253287 0)
(0.00860018 0.0290763 0)
(0.00560871 0.0317242 0)
(0.00293552 0.0311918 0)
(0.00101407 0.0247799 0)
(7.04575e-05 0.010883 0)
(0.000137796 0.00839413 0)
(0.000932577 0.0215405 0)
(0.00191511 0.0298774 0)
(0.00267755 0.0322978 0)
(0.00288476 0.0293595 0)
(0.0025136 0.0228566 0)
(0.00183785 0.0144934 0)
(0.00125182 0.00515921 0)
(0.001651 -0.00512081 0)
(0.00326889 -0.0156449 0)
(0.00547403 -0.0243251 0)
(0.0078137 -0.0289529 0)
(0.0103077 -0.0284632 0)
(0.0130319 -0.0238413 0)
(0.0157788 -0.0172411 0)
(0.0181822 -0.010487 0)
(0.01971 -0.0051439 0)
(0.0202635 -0.00143722 0)
(0.0201587 0.00141761 0)
(0.0197008 0.0039945 0)
(0.0190376 0.00665012 0)
(0.0181694 0.00960118 0)
(0.01704 0.0129533 0)
(0.0155924 0.0167373 0)
(0.0137949 0.0209481 0)
(0.0116542 0.0255592 0)
(0.00922522 0.0304418 0)
(0.00663332 0.0350804 0)
(0.00410348 0.0380801 0)
(0.00196824 0.0368947 0)
(0.000584115 0.0286779 0)
(1.79521e-05 0.0122847 0)
(0.000124251 0.00631999 0)
(0.00103559 0.0173689 0)
(0.00246352 0.0255661 0)
(0.00403132 0.0291966 0)
(0.00533413 0.0279557 0)
(0.0061765 0.0227971 0)
(0.00661453 0.0150121 0)
(0.00693444 0.00548015 0)
(0.00758726 -0.00562122 0)
(0.00869344 -0.0169678 0)
(0.0100391 -0.026015 0)
(0.0112432 -0.0306217 0)
(0.0122781 -0.0300378 0)
(0.0133118 -0.0252448 0)
(0.0144209 -0.0183506 0)
(0.0155276 -0.011234 0)
(0.0162716 -0.00549717 0)
(0.0164202 -0.00143313 0)
(0.0160639 0.00169189 0)
(0.0155071 0.00447769 0)
(0.0148635 0.00735422 0)
(0.0141162 0.0106152 0)
(0.0131943 0.0144283 0)
(0.0120208 0.0188622 0)
(0.0105425 0.0239175 0)
(0.00874978 0.0295306 0)
(0.00669671 0.0354437 0)
(0.00453276 0.0408411 0)
(0.00252434 0.043851 0)
(0.00100308 0.0415585 0)
(0.000192464 0.0313769 0)
(-2.09924e-05 0.0130311 0)
(8.6791e-05 0.00404386 0)
(0.000886734 0.0120608 0)
(0.0023585 0.0190566 0)
(0.00425523 0.0231662 0)
(0.00619648 0.0233625 0)
(0.00791168 0.0197721 0)
(0.00931962 0.0131248 0)
(0.0106072 0.0041015 0)
(0.0119377 -0.00706508 0)
(0.0131264 -0.0182833 0)
(0.0139001 -0.026934 0)
(0.0140055 -0.0311271 0)
(0.0135443 -0.0303064 0)
(0.0128745 -0.0254336 0)
(0.0123639 -0.0185382 0)
(0.0122246 -0.0114095 0)
(0.0122745 -0.00552524 0)
(0.0121493 -0.0012266 0)
(0.0116916 0.00208808 0)
(0.0112021 0.00500867 0)
(0.0107172 0.00803667 0)
(0.0101756 0.011546 0)
(0.00948501 0.0157756 0)
(0.0085537 0.020844 0)
(0.00732403 0.0267467 0)
(0.00579981 0.0333541 0)
(0.00406847 0.0402051 0)
(0.00233593 0.0460627 0)
(0.000925459 0.0485313 0)
(0.000107674 0.0445994 0)
(-0.000125002 0.0324728 0)
(-4.42632e-05 0.0130563 0)
(4.4309e-05 0.00210984 0)
(0.000579141 0.00693011 0)
(0.00172573 0.0118795 0)
(0.00342741 0.0154964 0)
(0.00543635 0.0164304 0)
(0.00751683 0.0141139 0)
(0.00958612 0.00862763 0)
(0.0117636 0.000108559 0)
(0.0138235 -0.0102117 0)
(0.0152688 -0.0200077 0)
(0.0156453 -0.027166 0)
(0.0148118 -0.0302826 0)
(0.0130348 -0.0289827 0)
(0.0108931 -0.0241451 0)
(0.00903917 -0.0176387 0)
(0.00793153 -0.0109573 0)
(0.00753045 -0.00524791 0)
(0.00739942 -0.000890643 0)
(0.00710716 0.00246804 0)
(0.00687188 0.0054185 0)
(0.00665307 0.00853783 0)
(0.00634264 0.0122625 0)
(0.00583502 0.0168936 0)
(0.00500015 0.0226252 0)
(0.00380509 0.0294409 0)
(0.00238382 0.037058 0)
(0.00096194 0.0446186 0)
(-0.000171293 0.0502887 0)
(-0.000737753 0.0511709 0)
(-0.000743738 0.0451977 0)
(-0.000417231 0.0317771 0)
(-6.87468e-05 0.0123248 0)
(1.26884e-05 0.000937671 0)
(0.000286006 0.00331404 0)
(0.000983987 0.00602356 0)
(0.00220792 0.00823982 0)
(0.00392899 0.00880378 0)
(0.0060751 0.00676159 0)
(0.00855217 0.00151185 0)
(0.011103 -0.00638631 0)
(0.0132457 -0.0146424 0)
(0.014372 -0.0217915 0)
(0.0140885 -0.0264817 0)
(0.0123482 -0.0279108 0)
(0.00953349 -0.0259429 0)
(0.0063873 -0.0213436 0)
(0.00379223 -0.0157659 0)
(0.00223197 -0.0101011 0)
(0.00171782 -0.00495408 0)
(0.00192579 -0.000723129 0)
(0.00220243 0.00245354 0)
(0.00220688 0.00527554 0)
(0.0020546 0.00845547 0)
(0.00161576 0.0125124 0)
(0.000871838 0.0178643 0)
(-0.000190149 0.0249444 0)
(-0.00137083 0.0329279 0)
(-0.00239009 0.0409702 0)
(-0.00300612 0.0478306 0)
(-0.00304718 0.0516306 0)
(-0.00251542 0.0502444 0)
(-0.00162371 0.0424695 0)
(-0.00071433 0.0286322 0)
(-9.26551e-05 0.0106122 0)
(1.11134e-05 0.000295608 0)
(0.00019283 0.00103469 0)
(0.000671156 0.00175671 0)
(0.00157942 0.00195932 0)
(0.00298445 0.000810188 0)
(0.00482358 -0.00240552 0)
(0.0068549 -0.0073797 0)
(0.00868298 -0.0128804 0)
(0.00979713 -0.0180658 0)
(0.00978239 -0.0220216 0)
(0.00835849 -0.0239496 0)
(0.00563765 -0.0236499 0)
(0.00210213 -0.0212631 0)
(-0.00150674 -0.0172935 0)
(-0.00398758 -0.0133411 0)
(-0.00547036 -0.00927288 0)
(-0.00594157 -0.00526638 0)
(-0.00570873 -0.00166002 0)
(-0.00578899 0.00176731 0)
(-0.00622249 0.00524597 0)
(-0.00680264 0.00927259 0)
(-0.00753077 0.0143357 0)
(-0.00825393 0.020598 0)
(-0.00876427 0.0278514 0)
(-0.00890197 0.0353109 0)
(-0.00852982 0.0419778 0)
(-0.00758464 0.0465646 0)
(-0.0061113 0.0475848 0)
(-0.00429918 0.043792 0)
(-0.00246248 0.0349377 0)
(-0.000978449 0.022167 0)
(-0.000111806 0.00765227 0)
(1.36988e-05 -0.000368783 0)
(0.000146703 -0.00100223 0)
(0.00044908 -0.00182014 0)
(0.000974773 -0.00315674 0)
(0.00172542 -0.00528355 0)
(0.00257327 -0.00822336 0)
(0.00323679 -0.0116161 0)
(0.0033718 -0.0148278 0)
(0.00266754 -0.0172641 0)
(0.000851901 -0.0185063 0)
(-0.00224046 -0.0182824 0)
(-0.00580387 -0.0171794 0)
(-0.00938891 -0.0155802 0)
(-0.0125032 -0.0135805 0)
(-0.0149834 -0.0110926 0)
(-0.0168228 -0.00804035 0)
(-0.0180591 -0.00441395 0)
(-0.018949 -0.000543677 0)
(-0.0199309 0.00317669 0)
(-0.0204313 0.00688935 0)
(-0.0206922 0.011041 0)
(-0.0205502 0.0158816 0)
(-0.0198864 0.0213806 0)
(-0.0186191 0.027178 0)
(-0.0167473 0.032564 0)
(-0.0143312 0.0366178 0)
(-0.0115028 0.0382985 0)
(-0.00846578 0.0366591 0)
(-0.00549381 0.0312792 0)
(-0.00291341 0.0227822 0)
(-0.00106242 0.0129322 0)
(-0.000102813 0.00384324 0)
(-6.98154e-06 -0.00067153 0)
(-0.000108351 -0.00173697 0)
(-0.000323778 -0.00284654 0)
(-0.000660045 -0.00425324 0)
(-0.00113419 -0.00606633 0)
(-0.00184804 -0.00809188 0)
(-0.00300862 -0.00985111 0)
(-0.00483808 -0.0109393 0)
(-0.00743055 -0.0113772 0)
(-0.0106489 -0.011473 0)
(-0.0141867 -0.0114651 0)
(-0.017788 -0.0113426 0)
(-0.0213058 -0.0109043 0)
(-0.0246157 -0.00996433 0)
(-0.0276165 -0.00839367 0)
(-0.0302283 -0.00608288 0)
(-0.0324039 -0.00296366 0)
(-0.0340279 0.000507489 0)
(-0.0346701 0.00375992 0)
(-0.0347896 0.00689282 0)
(-0.0341428 0.0101204 0)
(-0.0325786 0.013546 0)
(-0.0300386 0.0171087 0)
(-0.026587 0.0205222 0)
(-0.022411 0.0232691 0)
(-0.0177896 0.0246725 0)
(-0.0130819 0.0240441 0)
(-0.00868958 0.0209252 0)
(-0.00498627 0.0155151 0)
(-0.00226954 0.00905263 0)
(-0.000674254 0.00351259 0)
(-3.97255e-05 0.000356448 0)
(-4.47591e-05 0.000285504 0)
(-0.000465667 0.000829733 0)
(-0.0013086 0.00097099 0)
(-0.00260462 0.000362649 0)
(-0.00433767 -0.000941362 0)
(-0.00652605 -0.00243589 0)
(-0.00917609 -0.00359668 0)
(-0.0122021 -0.00429942 0)
(-0.0154575 -0.00474424 0)
(-0.0188319 -0.00525823 0)
(-0.0223025 -0.00584518 0)
(-0.0258571 -0.00635734 0)
(-0.0294618 -0.00659053 0)
(-0.0330567 -0.00633226 0)
(-0.0365445 -0.00539556 0)
(-0.0397926 -0.00365575 0)
(-0.0426031 -0.00106982 0)
(-0.0444566 0.00184422 0)
(-0.0452171 0.00440053 0)
(-0.0450858 0.00655698 0)
(-0.043743 0.0082928 0)
(-0.0409872 0.0096354 0)
(-0.0367638 0.0105737 0)
(-0.03124 0.0109861 0)
(-0.024834 0.0106681 0)
(-0.0181841 0.00931787 0)
(-0.0119351 0.00729349 0)
(-0.00666934 0.00492563 0)
(-0.00284968 0.00262017 0)
(-0.000704536 0.000826598 0)
(4.01311e-05 -0.000152364 0)
(5.92664e-05 -0.000285764 0)
(-5.6159e-05 0.00185874 0)
(-0.000556596 0.00480096 0)
(-0.00154001 0.00671487 0)
(-0.00303862 0.00737187 0)
(-0.00502457 0.00697709 0)
(-0.00746467 0.00600584 0)
(-0.0102866 0.00481618 0)
(-0.01338 0.00348319 0)
(-0.016644 0.00196776 0)
(-0.0200335 0.000436968 0)
(-0.0235011 -0.00099449 0)
(-0.026983 -0.00216943 0)
(-0.0304037 -0.00290312 0)
(-0.0339199 -0.00313112 0)
(-0.0374779 -0.00272461 0)
(-0.0409062 -0.00155641 0)
(-0.0438549 0.000426327 0)
(-0.0459327 0.00259664 0)
(-0.0470233 0.00415411 0)
(-0.0470054 0.00475437 0)
(-0.0456447 0.00418978 0)
(-0.0427768 0.00237949 0)
(-0.0384201 -0.000656682 0)
(-0.0330145 -0.00448377 0)
(-0.026937 -0.00836401 0)
(-0.0206054 -0.0112959 0)
(-0.0145135 -0.0127615 0)
(-0.0090885 -0.0121186 0)
(-0.00471625 -0.00912589 0)
(-0.00174764 -0.00471238 0)
(-0.00030759 -0.00101688 0)
(3.03491e-05 0.000409046 0)
(-3.32461e-05 0.00298827 0)
(-0.000382945 0.00763964 0)
(-0.00110814 0.010809 0)
(-0.00224804 0.0122629 0)
(-0.00375417 0.0122254 0)
(-0.00554285 0.0112484 0)
(-0.00752403 0.00985319 0)
(-0.00964114 0.00830415 0)
(-0.0118908 0.00667146 0)
(-0.0143022 0.00499102 0)
(-0.0169181 0.00332033 0)
(-0.0198199 0.00177424 0)
(-0.0231036 0.000497408 0)
(-0.0264583 -0.000206987 0)
(-0.0297907 -0.000213232 0)
(-0.032998 0.00058799 0)
(-0.0360536 0.00215281 0)
(-0.0383001 0.00384838 0)
(-0.0394051 0.00475462 0)
(-0.0394413 0.00438678 0)
(-0.0384062 0.00249858 0)
(-0.0363197 -0.000917533 0)
(-0.0336125 -0.00552523 0)
(-0.0304127 -0.0109177 0)
(-0.0267094 -0.01658 0)
(-0.0225381 -0.0216583 0)
(-0.0179695 -0.0250727 0)
(-0.0131809 -0.0256595 0)
(-0.00846696 -0.02253 0)
(-0.0043082 -0.0157887 0)
(-0.00138621 -0.00756528 0)
(-8.74381e-05 -0.00139849 0)
(-9.51328e-06 0.00355982 0)
(-0.000188482 0.00922557 0)
(-0.000626552 0.013292 0)
(-0.00139171 0.015412 0)
(-0.00246664 0.0157085 0)
(-0.00376744 0.0147289 0)
(-0.00518343 0.0131015 0)
(-0.00663454 0.0112353 0)
(-0.00810145 0.00930327 0)
(-0.00961099 0.00739185 0)
(-0.0112124 0.00559349 0)
(-0.0129756 0.00402343 0)
(-0.0149831 0.00277712 0)
(-0.0172838 0.00194467 0)
(-0.019894 0.00169717 0)
(-0.0226357 0.00220089 0)
(-0.0251506 0.00342091 0)
(-0.0268086 0.00466836 0)
(-0.027457 0.00502387 0)
(-0.0273559 0.00397666 0)
(-0.0267204 0.00130957 0)
(-0.0257359 -0.00277916 0)
(-0.0248412 -0.00800327 0)
(-0.0237765 -0.014332 0)
(-0.0223983 -0.0213709 0)
(-0.0204655 -0.0283368 0)
(-0.0177796 -0.0340709 0)
(-0.0142821 -0.0370917 0)
(-0.0101305 -0.0357821 0)
(-0.00579293 -0.0289234 0)
(-0.00215534 -0.0172082 0)
(-0.00017721 -0.00481876 0)
(3.93947e-06 0.00374835 0)
(-5.34464e-05 0.00990718 0)
(-0.000267137 0.0145593 0)
(-0.000719192 0.0172102 0)
(-0.00142505 0.0178188 0)
(-0.00231538 0.0168623 0)
(-0.00327028 0.0150379 0)
(-0.00418863 0.0128962 0)
(-0.0050352 0.0107251 0)
(-0.00584018 0.00865657 0)
(-0.00667176 0.00678055 0)
(-0.00761184 0.00518698 0)
(-0.00873979 0.00394791 0)
(-0.0101047 0.00313776 0)
(-0.0116844 0.00286591 0)
(-0.013289 0.00322112 0)
(-0.0145848 0.00414279 0)
(-0.0151133 0.0050266 0)
(-0.0148708 0.00508279 0)
(-0.0142285 0.00387511 0)
(-0.0135484 0.00121953 0)
(-0.0133879 -0.00267636 0)
(-0.0137317 -0.00776826 0)
(-0.0143417 -0.0142258 0)
(-0.0149988 -0.0218784 0)
(-0.015287 -0.0301898 0)
(-0.0147832 -0.0380962 0)
(-0.013165 -0.0439782 0)
(-0.0103398 -0.0456557 0)
(-0.00659734 -0.0405828 0)
(-0.00281098 -0.0273294 0)
(-0.000290945 -0.00896214 0)
(6.73612e-06 0.00375726 0)
(3.51196e-06 0.0101017 0)
(-7.71685e-05 0.0150891 0)
(-0.000299657 0.0181065 0)
(-0.000688763 0.0189599 0)
(-0.00119169 0.0180291 0)
(-0.0016967 0.0160416 0)
(-0.00210555 0.0136684 0)
(-0.00238879 0.0113095 0)
(-0.00259173 0.00914151 0)
(-0.00280244 0.00724679 0)
(-0.00311079 0.00568165 0)
(-0.00357716 0.00448777 0)
(-0.00420276 0.00370385 0)
(-0.0049001 0.00339293 0)
(-0.00542543 0.0035997 0)
(-0.00546754 0.00424538 0)
(-0.00480914 0.00482409 0)
(-0.00363145 0.00468386 0)
(-0.00240572 0.00348219 0)
(-0.00142238 0.00115878 0)
(-0.00155323 -0.00211103 0)
(-0.00249632 -0.00656672 0)
(-0.00403374 -0.0124822 0)
(-0.00602256 -0.0199054 0)
(-0.0080854 -0.0286906 0)
(-0.00970106 -0.038051 0)
(-0.0102604 -0.04647 0)
(-0.00930696 -0.0515319 0)
(-0.00678094 -0.0495861 0)
(-0.00336589 -0.036853 0)
(-0.000426918 -0.0136136 0)
(-3.08709e-06 0.00374449 0)
(-4.18251e-05 0.0101592 0)
(-0.000109648 0.0152799 0)
(-0.00020129 0.0184474 0)
(-0.000312534 0.0194001 0)
(-0.000404782 0.0184452 0)
(-0.000395301 0.0163186 0)
(-0.000228257 0.0137731 0)
(7.89717e-05 0.0112768 0)
(0.000448695 0.00907955 0)
(0.00079226 0.00723482 0)
(0.001029 0.00574949 0)
(0.00112733 0.00462373 0)
(0.00112951 0.00385856 0)
(0.00116764 0.00348591 0)
(0.00154714 0.00353003 0)
(0.00259198 0.00390884 0)
(0.00426285 0.00420739 0)
(0.00614462 0.00390864 0)
(0.00769203 0.00275973 0)
(0.0086017 0.000839248 0)
(0.00845932 -0.00178435 0)
(0.00745538 -0.00541353 0)
(0.00570041 -0.0103225 0)
(0.00326271 -0.0167151 0)
(0.000193239 -0.0250585 0)
(-0.00310918 -0.0349343 0)
(-0.00582701 -0.0450761 0)
(-0.00710831 -0.0533144 0)
(-0.00634847 -0.0552718 0)
(-0.00383422 -0.0449281 0)
(-0.000611742 -0.018577 0)
(-3.82702e-05 0.00386812 0)
(-0.000256369 0.0103877 0)
(-0.000459725 0.0154477 0)
(-0.000509553 0.0184695 0)
(-0.000340467 0.0192851 0)
(6.94099e-05 0.0181741 0)
(0.000730774 0.0158935 0)
(0.00159603 0.0132626 0)
(0.00256672 0.0107701 0)
(0.00354284 0.0086399 0)
(0.00445598 0.00689983 0)
(0.00526137 0.0055213 0)
(0.00596363 0.00447244 0)
(0.00663454 0.00372957 0)
(0.00742098 0.00329959 0)
(0.00862991 0.00318383 0)
(0.0105173 0.00331427 0)
(0.0128642 0.0034066 0)
(0.0151773 0.00308658 0)
(0.016924 0.00215882 0)
(0.0178163 0.000664064 0)
(0.0177142 -0.00147086 0)
(0.0167083 -0.00449833 0)
(0.0148446 -0.00864265 0)
(0.0121619 -0.0140903 0)
(0.00869358 -0.0210635 0)
(0.00455902 -0.0297505 0)
(5.95441e-05 -0.0404562 0)
(-0.00362258 -0.0512232 0)
(-0.00515701 -0.057355 0)
(-0.00415312 -0.0509692 0)
(-0.000871358 -0.02373 0)
(-0.00013279 0.00434587 0)
(-0.000780031 0.0111009 0)
(-0.00127274 0.0158115 0)
(-0.00130021 0.0182774 0)
(-0.000752179 0.0186498 0)
(0.000355524 0.0172324 0)
(0.00186174 0.0148241 0)
(0.00358043 0.0122261 0)
(0.00534186 0.00985459 0)
(0.0070466 0.00787206 0)
(0.00866104 0.00627808 0)
(0.0101832 0.00502242 0)
(0.0116452 0.00405672 0)
(0.0131235 0.00334591 0)
(0.0147451 0.00288284 0)
(0.0167733 0.00265493 0)
(0.0193309 0.00261745 0)
(0.0221078 0.00259189 0)
(0.0246725 0.00230908 0)
(0.0265693 0.00160983 0)
(0.0275566 0.000476539 0)
(0.0275833 -0.00118843 0)
(0.0266167 -0.0035831 0)
(0.0246357 -0.00690569 0)
(0.0216163 -0.0113613 0)
(0.0175903 -0.0171933 0)
(0.0126881 -0.0246523 0)
(0.00713762 -0.0340845 0)
(0.00142647 -0.0455264 0)
(-0.00285991 -0.0556535 0)
(-0.00410921 -0.0544672 0)
(-0.00120006 -0.0288938 0)
(-0.000358151 0.00554065 0)
(-0.00182645 0.0125907 0)
(-0.00266229 0.0164071 0)
(-0.00250093 0.017791 0)
(-0.00129056 0.017405 0)
(0.000870132 0.0155692 0)
(0.00348555 0.0131143 0)
(0.00628015 0.0106783 0)
(0.00905052 0.008534 0)
(0.0117169 0.00676768 0)
(0.0142763 0.00535671 0)
(0.01675 0.00424548 0)
(0.0191715 0.00338388 0)
(0.0215965 0.00273569 0)
(0.0241111 0.00228664 0)
(0.0269185 0.00201754 0)
(0.0299976 0.00190003 0)
(0.033022 0.00182223 0)
(0.0356921 0.00159304 0)
(0.037658 0.00108833 0)
(0.0387298 0.000259463 0)
(0.0388408 -0.000975506 0)
(0.0378649 -0.0027554 0)
(0.0357355 -0.00524307 0)
(0.0323774 -0.00862719 0)
(0.0277733 -0.013157 0)
(0.022004 -0.0191788 0)
(0.0152739 -0.0272223 0)
(0.00799593 -0.0378169 0)
(0.001158 -0.0499952 0)
(-0.00326945 -0.0549072 0)
(-0.00150813 -0.0338358 0)
(-0.000806024 0.00806662 0)
(-0.00350345 0.0149408 0)
(-0.00435214 0.0168861 0)
(-0.00341715 0.0166488 0)
(-0.00088699 0.0152869 0)
(0.00284967 0.0130632 0)
(0.00692315 0.0107343 0)
(0.0111075 0.00859614 0)
(0.0151922 0.00677316 0)
(0.0191091 0.00528952 0)
(0.0228554 0.0041122 0)
(0.0264418 0.00319094 0)
(0.0298811 0.00248112 0)
(0.0331998 0.00194887 0)
(0.0364522 0.00157503 0)
(0.0397972 0.00133777 0)
(0.0431252 0.00121563 0)
(0.04616 0.00113466 0)
(0.0487379 0.000966545 0)
(0.0506066 0.000624413 0)
(0.0516293 5.67113e-05 0)
(0.0516574 -0.000782671 0)
(0.0505619 -0.0019862 0)
(0.0482518 -0.00367389 0)
(0.0446166 -0.00599393 0)
(0.0395755 -0.00916901 0)
(0.0331068 -0.0135706 0)
(0.0252935 -0.0198413 0)
(0.0164386 -0.028924 0)
(0.00732917 -0.0412111 0)
(-0.000849988 -0.0515866 0)
(-0.001519 -0.0380659 0)
(-0.00160224 0.0129076 0)
(-0.00520891 0.0175388 0)
(-0.00457195 0.0162807 0)
(-0.00138353 0.0141519 0)
(0.00368315 0.0118832 0)
(0.00938596 0.00966013 0)
(0.0152826 0.0076691 0)
(0.0210983 0.00596824 0)
(0.0266395 0.00457096 0)
(0.0318256 0.00346055 0)
(0.0366329 0.00259983 0)
(0.0410579 0.0019449 0)
(0.0451092 0.00145616 0)
(0.0488177 0.0011017 0)
(0.0522477 0.000859247 0)
(0.0555542 0.000707898 0)
(0.0586352 0.000629347 0)
(0.0613099 0.000575386 0)
(0.0635044 0.000471383 0)
(0.0650328 0.000266272 0)
(0.0657998 -6.92064e-05 0)
(0.0655702 -0.000556641 0)
(0.0642925 -0.00125229 0)
(0.0618636 -0.0022301 0)
(0.0581573 -0.00358513 0)
(0.0530429 -0.00547957 0)
(0.0463805 -0.00822916 0)
(0.0380327 -0.0124623 0)
(0.0279762 -0.0193165 0)
(0.0165479 -0.0302079 0)
(0.00437903 -0.0435171 0)
(-0.000177475 -0.0396081 0)
(-0.00128327 0.0181245 0)
(-0.00303341 0.0181378 0)
(0.00364752 0.0128987 0)
(0.0114084 0.00977355 0)
(0.0193372 0.00748419 0)
(0.0270761 0.00564286 0)
(0.0344545 0.00419336 0)
(0.0412848 0.00306717 0)
(0.0474404 0.00220681 0)
(0.0528802 0.0015665 0)
(0.0576213 0.00110304 0)
(0.0617143 0.000775494 0)
(0.0652299 0.000549089 0)
(0.0682579 0.000396908 0)
(0.0709095 0.000300099 0)
(0.0733494 0.000244623 0)
(0.0755493 0.000218567 0)
(0.0774183 0.000197438 0)
(0.0789016 0.000149979 0)
(0.0798517 5.51398e-05 0)
(0.0801582 -9.18758e-05 0)
(0.0796779 -0.000302564 0)
(0.0783605 -0.000602807 0)
(0.0761123 -0.00102585 0)
(0.0728179 -0.00161581 0)
(0.068335 -0.00245917 0)
(0.0624478 -0.00375328 0)
(0.0547922 -0.00595301 0)
(0.0447888 -0.0100293 0)
(0.0316966 -0.0176836 0)
(0.0155166 -0.0297944 0)
(0.00631381 -0.033453 0)
(0.0207397 0.0112667 0)
(0.0270306 0.0092044 0)
(0.040118 0.00539747 0)
(0.0509745 0.00331056 0)
(0.059372 0.00209617 0)
(0.0661772 0.00131138 0)
(0.0717771 0.000805639 0)
(0.0763339 0.000486156 0)
(0.0799823 0.000287924 0)
(0.0828666 0.000168104 0)
(0.0851338 9.79796e-05 0)
(0.0869195 5.81384e-05 0)
(0.0883403 3.6087e-05 0)
(0.0894951 2.43148e-05 0)
(0.0904708 1.85675e-05 0)
(0.0913617 1.67742e-05 0)
(0.092182 1.72331e-05 0)
(0.0928901 1.57017e-05 0)
(0.0934244 8.26404e-06 0)
(0.0936938 -7.29334e-06 0)
(0.093627 -2.90053e-05 0)
(0.0931831 -5.92807e-05 0)
(0.092326 -0.000102988 0)
(0.0909964 -0.00016521 0)
(0.0891239 -0.000252531 0)
(0.0866113 -0.000380768 0)
(0.0832698 -0.000592657 0)
(0.078677 -0.00100062 0)
(0.0718847 -0.00188513 0)
(0.0608836 -0.00399338 0)
(0.0432755 -0.0091948 0)
(0.0285883 -0.014529 0)
)
;

boundaryField
{
    movingWall
    {
        type            fixedValue;
        value           uniform (0.1 0 0);
    }
    fixedWalls
    {
        type            noSlip;
    }
    floor
    {
        type            noSlip;
    }
    frontAndBack
    {
        type            empty;
    }
}


// ************************************************************************* //
