/*--------------------------------*- C++ -*----------------------------------*\
| =========                 |                                                 |
| \\      /  F ield         | OpenFOAM: The Open Source CFD Toolbox           |
|  \\    /   O peration     | Version:  2212                                  |
|   \\  /    A nd           | Website:  www.openfoam.com                      |
|    \\/     M anipulation  |                                                 |
\*---------------------------------------------------------------------------*/
FoamFile
{
    version     2.0;
    format      ascii;
    arch        "LSB;label=64;scalar=64";
    class       volScalarField;
    location    "490";
    object      Xch;
}
// * * * * * * * * * * * * * * * * * * * * * * * * * * * * * * * * * * * * * //

dimensions      [1 -3 0 0 0 0 0];

internalField   nonuniform List<scalar> 
1024
(
0.020049
0.0200493
0.0200499
0.020051
0.0200525
0.0200545
0.0200568
0.0200592
0.0200617
0.020064
0.0200663
0.0200684
0.0200703
0.0200716
0.0200721
0.0200717
0.0200702
0.020068
0.0200655
0.0200627
0.0200594
0.0200557
0.0200513
0.0200463
0.0200411
0.020036
0.0200315
0.0200279
0.0200253
0.0200236
0.0200226
0.0200222
0.0200491
0.0200493
0.02005
0.0200511
0.0200526
0.0200547
0.020057
0.0200594
0.0200618
0.0200641
0.0200664
0.0200686
0.0200705
0.0200718
0.0200723
0.0200718
0.0200703
0.0200681
0.0200656
0.0200628
0.0200597
0.020056
0.0200517
0.0200467
0.0200415
0.0200364
0.0200318
0.0200282
0.0200255
0.0200237
0.0200227
0.0200223
0.0200491
0.0200494
0.0200501
0.0200512
0.0200528
0.0200549
0.0200572
0.0200596
0.020062
0.0200643
0.0200666
0.0200689
0.0200708
0.0200721
0.0200726
0.020072
0.0200705
0.0200683
0.0200659
0.0200632
0.0200601
0.0200566
0.0200524
0.0200476
0.0200424
0.0200372
0.0200325
0.0200287
0.0200259
0.0200241
0.020023
0.0200226
0.0200492
0.0200495
0.0200502
0.0200514
0.0200531
0.0200551
0.0200574
0.0200598
0.0200621
0.0200644
0.0200668
0.0200693
0.0200715
0.0200728
0.0200732
0.0200724
0.0200708
0.0200686
0.0200662
0.0200636
0.0200607
0.0200573
0.0200534
0.0200487
0.0200436
0.0200384
0.0200336
0.0200296
0.0200266
0.0200246
0.0200235
0.0200231
0.0200492
0.0200495
0.0200502
0.0200514
0.0200531
0.0200552
0.0200574
0.0200597
0.020062
0.0200644
0.020067
0.0200698
0.0200724
0.0200738
0.020074
0.0200729
0.020071
0.0200688
0.0200664
0.020064
0.0200612
0.0200581
0.0200545
0.0200501
0.0200452
0.02004
0.020035
0.0200308
0.0200276
0.0200254
0.0200242
0.0200238
0.0200492
0.0200495
0.0200502
0.0200514
0.020053
0.020055
0.0200571
0.0200593
0.0200615
0.020064
0.020067
0.0200704
0.0200735
0.0200751
0.020075
0.0200734
0.0200712
0.0200688
0.0200664
0.020064
0.0200615
0.0200587
0.0200554
0.0200514
0.0200468
0.0200416
0.0200366
0.0200322
0.0200287
0.0200264
0.0200251
0.0200246
0.020049
0.0200493
0.0200499
0.020051
0.0200525
0.0200543
0.0200563
0.0200584
0.0200606
0.0200633
0.0200667
0.0200709
0.0200748
0.0200766
0.020076
0.0200737
0.0200709
0.0200682
0.0200659
0.0200636
0.0200614
0.0200589
0.020056
0.0200524
0.0200481
0.0200431
0.0200381
0.0200335
0.0200299
0.0200275
0.0200261
0.0200256
0.0200486
0.0200489
0.0200495
0.0200504
0.0200517
0.0200533
0.020055
0.0200569
0.0200591
0.020062
0.020066
0.0200713
0.0200761
0.0200781
0.0200767
0.0200734
0.0200697
0.0200668
0.0200644
0.0200624
0.0200605
0.0200584
0.0200559
0.0200528
0.0200489
0.0200442
0.0200392
0.0200347
0.020031
0.0200285
0.0200271
0.0200266
0.0200479
0.0200482
0.0200487
0.0200495
0.0200505
0.0200518
0.0200532
0.0200548
0.0200569
0.0200601
0.0200651
0.0200717
0.0200775
0.0200793
0.0200767
0.0200718
0.0200672
0.0200639
0.0200617
0.02006
0.0200585
0.0200569
0.0200549
0.0200523
0.0200488
0.0200445
0.0200398
0.0200354
0.0200318
0.0200294
0.020028
0.0200274
0.0200468
0.020047
0.0200475
0.0200481
0.0200489
0.0200499
0.0200509
0.0200522
0.0200543
0.020058
0.0200642
0.0200724
0.0200791
0.0200803
0.0200756
0.0200685
0.0200626
0.020059
0.0200571
0.0200559
0.020055
0.0200541
0.0200528
0.0200508
0.0200478
0.020044
0.0200397
0.0200356
0.0200322
0.0200299
0.0200286
0.0200281
0.020045
0.0200452
0.0200457
0.0200462
0.0200468
0.0200474
0.0200482
0.0200493
0.0200515
0.020056
0.020064
0.0200741
0.0200814
0.020081
0.0200732
0.0200629
0.0200553
0.0200515
0.0200501
0.0200497
0.0200498
0.0200498
0.0200493
0.020048
0.0200457
0.0200425
0.0200387
0.0200351
0.0200321
0.02003
0.0200288
0.0200283
0.0200423
0.0200425
0.020043
0.0200435
0.020044
0.0200445
0.0200451
0.0200463
0.0200491
0.0200553
0.0200656
0.0200775
0.0200845
0.0200812
0.0200689
0.0200545
0.0200448
0.020041
0.0200405
0.0200413
0.0200426
0.0200437
0.0200443
0.020044
0.0200425
0.0200401
0.020037
0.020034
0.0200315
0.0200297
0.0200286
0.0200281
0.0200386
0.0200389
0.0200392
0.0200397
0.0200403
0.020041
0.020042
0.0200441
0.0200488
0.0200576
0.0200707
0.0200837
0.0200886
0.0200805
0.0200625
0.0200433
0.0200314
0.0200277
0.0200283
0.0200306
0.0200333
0.0200359
0.0200378
0.0200386
0.0200382
0.0200366
0.0200344
0.0200321
0.0200301
0.0200286
0.0200277
0.0200272
0.0200359
0.020036
0.0200363
0.0200368
0.0200376
0.020039
0.0200415
0.020046
0.0200541
0.0200666
0.0200817
0.0200932
0.0200929
0.0200779
0.0200536
0.02003
0.0200162
0.0200127
0.0200145
0.0200182
0.0200226
0.0200267
0.02003
0.0200322
0.020033
0.0200325
0.0200313
0.0200297
0.0200282
0.0200269
0.0200261
0.0200257
0.0200399
0.02004
0.0200404
0.0200412
0.0200428
0.0200457
0.0200508
0.0200589
0.0200707
0.0200853
0.0200989
0.0201044
0.0200956
0.0200728
0.0200435
0.0200172
0.0200022
0.0199987
0.0200011
0.020006
0.0200117
0.0200171
0.0200215
0.0200246
0.0200262
0.0200266
0.0200262
0.0200253
0.0200243
0.0200234
0.0200227
0.0200223
0.0200573
0.0200576
0.0200585
0.0200602
0.0200633
0.0200684
0.020076
0.0200865
0.0200992
0.0201113
0.020118
0.0201136
0.0200958
0.0200683
0.0200379
0.0200114
0.0199953
0.0199908
0.019993
0.0199983
0.0200049
0.0200113
0.0200166
0.0200204
0.0200227
0.0200234
0.0200231
0.0200221
0.0200208
0.0200196
0.0200187
0.0200182
0.0200838
0.0200844
0.0200859
0.0200887
0.0200931
0.0200995
0.0201081
0.0201182
0.020128
0.0201341
0.0201327
0.0201215
0.0201017
0.0200765
0.0200494
0.0200239
0.0200054
0.0199969
0.0199955
0.0199976
0.020001
0.0200045
0.0200073
0.020009
0.0200097
0.0200096
0.0200092
0.020009
0.0200091
0.0200095
0.0200099
0.0200102
0.0201056
0.0201064
0.0201082
0.0201115
0.0201167
0.0201238
0.0201325
0.0201417
0.0201491
0.0201523
0.0201496
0.0201408
0.0201269
0.0201089
0.0200878
0.020065
0.0200448
0.0200312
0.0200233
0.0200186
0.0200158
0.0200143
0.020014
0.020015
0.0200176
0.0200217
0.0200272
0.0200337
0.0200403
0.0200459
0.0200498
0.0200516
0.0201182
0.020119
0.020121
0.0201248
0.0201305
0.0201383
0.0201477
0.0201574
0.0201656
0.0201707
0.0201723
0.0201705
0.0201657
0.0201578
0.0201472
0.0201346
0.0201232
0.0201168
0.0201159
0.0201187
0.0201243
0.0201316
0.02014
0.0201489
0.0201576
0.0201657
0.0201728
0.0201785
0.0201826
0.0201853
0.0201868
0.0201874
0.0201236
0.0201244
0.0201265
0.0201302
0.0201361
0.0201442
0.0201541
0.0201648
0.0201751
0.0201839
0.0201909
0.0201963
0.0202003
0.020203
0.0202046
0.0202064
0.0202109
0.020221
0.0202364
0.0202555
0.0202765
0.0202974
0.0203165
0.0203326
0.0203446
0.020352
0.0203547
0.0203533
0.0203489
0.0203436
0.0203393
0.0203372
0.0201249
0.0201257
0.0201276
0.0201311
0.0201365
0.020144
0.0201536
0.0201645
0.020176
0.0201874
0.0201983
0.020209
0.0202196
0.0202299
0.0202405
0.0202526
0.0202687
0.0202896
0.0203141
0.0203401
0.0203653
0.020388
0.0204068
0.0204216
0.0204321
0.0204383
0.0204407
0.0204395
0.0204358
0.0204308
0.0204264
0.020424
0.0201245
0.0201252
0.020127
0.0201301
0.0201349
0.0201418
0.0201507
0.0201614
0.0201733
0.020186
0.0201992
0.020213
0.0202275
0.0202424
0.0202579
0.0202751
0.0202957
0.0203197
0.020345
0.0203694
0.0203912
0.0204094
0.0204241
0.0204359
0.0204453
0.0204526
0.0204577
0.0204605
0.0204611
0.0204601
0.0204583
0.0204571
0.0201242
0.0201248
0.0201262
0.0201289
0.0201332
0.0201395
0.0201478
0.0201581
0.0201702
0.0201838
0.0201988
0.0202149
0.0202319
0.0202496
0.0202676
0.0202865
0.0203074
0.0203299
0.0203525
0.0203734
0.0203914
0.0204066
0.0204195
0.020431
0.0204415
0.0204509
0.0204586
0.0204642
0.0204674
0.0204687
0.0204687
0.0204683
0.0201261
0.0201263
0.0201273
0.0201294
0.020133
0.0201387
0.0201467
0.0201571
0.0201698
0.0201846
0.0202012
0.0202193
0.0202383
0.0202578
0.0202771
0.0202963
0.0203158
0.0203355
0.0203545
0.0203721
0.0203874
0.0204009
0.0204132
0.0204251
0.0204368
0.020448
0.0204578
0.0204655
0.0204706
0.0204733
0.0204741
0.020474
0.0201324
0.0201322
0.0201324
0.0201336
0.0201366
0.020142
0.0201501
0.0201612
0.0201751
0.0201914
0.0202098
0.0202296
0.0202501
0.0202706
0.0202904
0.0203093
0.020327
0.0203437
0.0203595
0.0203742
0.0203874
0.0203996
0.0204111
0.0204227
0.0204346
0.0204464
0.0204574
0.0204666
0.0204731
0.0204769
0.0204783
0.0204785
0.0201457
0.0201448
0.0201439
0.0201442
0.0201467
0.0201522
0.0201612
0.0201736
0.0201891
0.0202072
0.020227
0.0202479
0.020269
0.0202897
0.0203092
0.0203271
0.0203431
0.0203572
0.0203701
0.0203822
0.0203934
0.020404
0.0204144
0.020425
0.020436
0.0204474
0.0204584
0.020468
0.0204754
0.0204801
0.0204821
0.0204825
0.020168
0.0201663
0.0201645
0.0201641
0.0201667
0.0201731
0.0201835
0.0201975
0.0202146
0.0202337
0.0202541
0.0202748
0.0202954
0.0203151
0.0203333
0.0203498
0.0203638
0.0203755
0.0203859
0.0203956
0.0204048
0.0204136
0.0204224
0.0204315
0.020441
0.020451
0.020461
0.0204703
0.0204779
0.020483
0.0204855
0.0204861
0.0202007
0.0201984
0.0201962
0.0201963
0.0202
0.0202079
0.0202197
0.0202348
0.0202522
0.020271
0.0202904
0.0203096
0.0203282
0.0203458
0.0203618
0.0203761
0.0203879
0.0203974
0.0204055
0.020413
0.0204202
0.0204271
0.0204341
0.0204413
0.0204489
0.020457
0.0204654
0.0204736
0.0204807
0.0204858
0.0204886
0.0204893
0.0202445
0.0202421
0.0202411
0.0202432
0.0202487
0.0202579
0.0202702
0.0202847
0.0203007
0.0203174
0.020334
0.0203503
0.0203657
0.02038
0.020393
0.0204045
0.0204139
0.0204212
0.0204272
0.0204327
0.0204379
0.020443
0.0204481
0.0204534
0.020459
0.020465
0.0204714
0.0204779
0.0204839
0.0204886
0.0204913
0.0204922
0.0203001
0.0202989
0.0203008
0.0203054
0.0203123
0.0203213
0.020332
0.020344
0.0203566
0.0203694
0.020382
0.020394
0.0204054
0.0204158
0.0204252
0.0204335
0.0204401
0.0204452
0.0204493
0.020453
0.0204565
0.0204598
0.0204632
0.0204667
0.0204704
0.0204744
0.0204787
0.0204833
0.0204877
0.0204915
0.0204939
0.0204948
0.0203692
0.0203706
0.0203749
0.0203801
0.020386
0.0203925
0.0203997
0.0204074
0.0204153
0.0204232
0.0204308
0.0204381
0.0204449
0.0204511
0.0204566
0.0204615
0.0204654
0.0204684
0.0204707
0.0204728
0.0204747
0.0204766
0.0204785
0.0204804
0.0204824
0.0204846
0.020487
0.0204896
0.0204922
0.0204946
0.0204963
0.020497
0.0204541
0.0204553
0.0204576
0.0204599
0.0204622
0.0204646
0.0204671
0.0204697
0.0204723
0.020475
0.0204775
0.0204799
0.0204821
0.0204841
0.0204859
0.0204875
0.0204888
0.0204897
0.0204905
0.0204911
0.0204918
0.0204924
0.0204929
0.0204936
0.0204942
0.0204949
0.0204956
0.0204964
0.0204973
0.020498
0.0204987
0.020499
)
;

boundaryField
{
    movingWall
    {
        type            fixedValue;
        value           uniform 0.0205;
    }
    fixedWalls
    {
        type            zeroGradient;
    }
    floor
    {
        type            zeroGradient;
    }
    frontAndBack
    {
        type            empty;
    }
}


// ************************************************************************* //
