/*--------------------------------*- C++ -*----------------------------------*\
| =========                 |                                                 |
| \\      /  F ield         | OpenFOAM: The Open Source CFD Toolbox           |
|  \\    /   O peration     | Version:  2212                                  |
|   \\  /    A nd           | Website:  www.openfoam.com                      |
|    \\/     M anipulation  |                                                 |
\*---------------------------------------------------------------------------*/
FoamFile
{
    version     2.0;
    format      ascii;
    arch        "LSB;label=64;scalar=64";
    class       volScalarField::Internal;
    location    "910";
    object      dGch4;
}
// * * * * * * * * * * * * * * * * * * * * * * * * * * * * * * * * * * * * * //

dimensions      [1 -3 -1 0 0 0 0];

value           nonuniform List<scalar> 
1024
(
0.000950331
0.000950426
0.000950656
0.000951068
0.000951707
0.000952606
0.000953759
0.000955123
0.000956612
0.000958126
0.000959584
0.000960877
0.000961846
0.000962253
0.000961889
0.00096064
0.000958643
0.000956408
0.000954237
0.000952123
0.000949979
0.000947717
0.000945324
0.000942887
0.00094055
0.000938475
0.000936772
0.000935483
0.000934584
0.000934013
0.000933697
0.000933568
0.000950335
0.000950432
0.000950667
0.000951088
0.000951741
0.000952655
0.000953824
0.000955198
0.000956693
0.000958211
0.000959674
0.000960975
0.000961951
0.000962356
0.000961979
0.000960713
0.000958701
0.000956458
0.000954286
0.000952178
0.000950047
0.000947801
0.000945423
0.000942993
0.000940652
0.000938563
0.000936843
0.000935536
0.000934623
0.000934043
0.000933722
0.000933589
0.000950341
0.000950441
0.000950685
0.000951123
0.0009518
0.000952741
0.000953935
0.000955328
0.000956836
0.000958369
0.000959857
0.000961194
0.000962203
0.000962607
0.000962191
0.000960869
0.000958809
0.000956541
0.000954364
0.00095227
0.000950167
0.00094796
0.000945616
0.000943205
0.000940859
0.000938747
0.000936992
0.000935651
0.000934709
0.000934109
0.000933778
0.000933641
0.000950343
0.000950448
0.000950704
0.000951161
0.000951865
0.000952836
0.000954058
0.000955475
0.000957008
0.000958579
0.000960133
0.000961561
0.000962652
0.000963062
0.000962564
0.000961119
0.000958953
0.000956627
0.000954435
0.000952358
0.000950302
0.000948158
0.000945875
0.000943502
0.00094116
0.00093902
0.000937219
0.000935829
0.000934846
0.000934219
0.000933872
0.00093373
0.000950332
0.000950441
0.000950707
0.00095118
0.000951904
0.000952898
0.000954144
0.000955587
0.000957163
0.000958814
0.0009605
0.000962107
0.000963355
0.000963785
0.000963143
0.000961469
0.000959103
0.000956664
0.000954434
0.000952377
0.000950384
0.000948331
0.000946141
0.000943834
0.000941515
0.000939355
0.000937507
0.000936062
0.000935032
0.000934371
0.000934006
0.000933857
0.000950289
0.000950401
0.000950671
0.000951149
0.000951879
0.00095288
0.000954138
0.00095561
0.000957255
0.000959043
0.000960958
0.000962863
0.000964365
0.000964837
0.000963969
0.000961918
0.000959214
0.000956577
0.000954272
0.000952228
0.000950314
0.000948381
0.00094632
0.000944117
0.000941853
0.000939697
0.000937815
0.000936322
0.000935246
0.000934553
0.00093417
0.000934014
0.000950193
0.000950304
0.00095057
0.000951037
0.000951751
0.000952735
0.000953989
0.000955494
0.000957241
0.000959243
0.000961508
0.000963858
0.000965732
0.000966267
0.000965069
0.000962449
0.000959223
0.000956272
0.000953836
0.000951791
0.000949966
0.00094818
0.000946287
0.000944233
0.00094207
0.000939959
0.000938078
0.00093656
0.000935455
0.000934738
0.000934341
0.000934179
0.000950023
0.000950129
0.00095038
0.000950819
0.000951492
0.000952433
0.000953666
0.000955209
0.000957103
0.000959415
0.000962177
0.000965142
0.000967506
0.000968113
0.000966452
0.000963029
0.000959055
0.000955642
0.000953001
0.00095093
0.000949202
0.00094759
0.000945904
0.000944049
0.000942044
0.000940035
0.000938207
0.000936707
0.000935603
0.000934882
0.00093448
0.000934316
0.000949786
0.000949881
0.000950104
0.000950497
0.000951108
0.000951988
0.00095319
0.000954789
0.000956892
0.000959636
0.000963073
0.000966829
0.000969777
0.000970413
0.000968104
0.000963609
0.000958639
0.000954599
0.000951662
0.000949528
0.000947895
0.000946479
0.000945039
0.000943435
0.00094165
0.000939813
0.000938106
0.000936683
0.000935624
0.000934924
0.00093453
0.000934368
0.000949598
0.000949669
0.000949847
0.000950175
0.000950711
0.000951525
0.000952715
0.000954421
0.000956841
0.000960189
0.000964499
0.000969185
0.000972719
0.000973231
0.000970014
0.00096416
0.000957959
0.000953131
0.000949794
0.000947537
0.000945977
0.000944765
0.0009436
0.000942294
0.000940792
0.000939202
0.00093769
0.00093641
0.000935442
0.000934794
0.000934421
0.000934263
0.000949901
0.00094993
0.000950032
0.000950269
0.000950723
0.000951501
0.000952752
0.000954696
0.000957617
0.000961777
0.000967111
0.000972718
0.000976632
0.000976683
0.000972218
0.000964766
0.000957187
0.000951448
0.000947582
0.000945084
0.000943515
0.000942465
0.000941572
0.000940589
0.000939422
0.000938141
0.000936893
0.000935813
0.000934978
0.000934404
0.000934061
0.00093391
0.000951896
0.000951873
0.000951884
0.000952019
0.000952408
0.00095322
0.000954679
0.000957069
0.000960709
0.000965798
0.000972056
0.000978214
0.000981937
0.000980964
0.000974924
0.000965851
0.000956978
0.000950273
0.000945671
0.000942663
0.000940843
0.000939784
0.000939066
0.000938373
0.00093755
0.000936613
0.000935667
0.000934819
0.000934138
0.000933646
0.000933337
0.000933193
0.00095791
0.000957872
0.000957859
0.000957986
0.000958428
0.00095942
0.000961245
0.000964204
0.000968538
0.000974252
0.000980773
0.000986525
0.000989065
0.000986448
0.00097886
0.000968738
0.00095911
0.000951474
0.000945716
0.000941567
0.000938864
0.000937289
0.00093641
0.00093582
0.000935253
0.000934623
0.000933962
0.000933336
0.000932803
0.000932398
0.000932135
0.00093201
0.000970541
0.000970582
0.000970728
0.000971089
0.00097183
0.000973174
0.000975375
0.000978657
0.000983096
0.000988472
0.000993984
0.000998007
0.00099847
0.000994279
0.000986325
0.000976922
0.000967833
0.00095946
0.000951803
0.000945225
0.000940185
0.000936732
0.00093462
0.000933413
0.000932677
0.00093213
0.000931668
0.000931291
0.000931033
0.0009309
0.000930861
0.000930864
0.000989761
0.000989945
0.000990367
0.0009911
0.000992243
0.000993923
0.000996275
0.000999386
0.00100317
0.00100727
0.00101087
0.0010128
0.001012
0.00100862
0.00100379
0.000998586
0.00099263
0.000984867
0.000975401
0.000965236
0.00095574
0.000947506
0.000941073
0.000936578
0.000933854
0.000932559
0.000932363
0.000932945
0.000933978
0.00093512
0.000936059
0.000936575
0.001011
0.00101128
0.00101188
0.00101287
0.00101432
0.00101629
0.00101885
0.00102198
0.00102552
0.00102912
0.00103239
0.00103518
0.00103785
0.00104115
0.00104544
0.00105037
0.00105388
0.00105346
0.00104871
0.00104064
0.00103053
0.00101932
0.00100828
0.000998446
0.000990666
0.000985169
0.000982056
0.000981127
0.000981811
0.000983291
0.000984754
0.00098562
0.00102778
0.00102812
0.00102892
0.00103035
0.0010326
0.00103582
0.00104013
0.00104552
0.00105186
0.00105903
0.00106714
0.00107669
0.00108842
0.00110298
0.00112058
0.00114097
0.00116171
0.00117864
0.00118998
0.00119664
0.00119882
0.0011971
0.0011921
0.0011845
0.00117514
0.00116478
0.00115451
0.00114548
0.00113861
0.00113425
0.00113209
0.0011314
0.00103754
0.00103789
0.0010388
0.00104055
0.00104345
0.00104781
0.00105386
0.0010617
0.00107135
0.00108279
0.00109618
0.00111189
0.00113045
0.00115227
0.00117745
0.00120576
0.00123456
0.00125968
0.00128008
0.00129727
0.00131133
0.00132209
0.00132916
0.0013322
0.00133107
0.00132612
0.00131822
0.00130874
0.0012994
0.00129182
0.00128694
0.00128481
0.00104311
0.00104346
0.00104438
0.00104618
0.00104925
0.00105397
0.00106071
0.00106969
0.00108096
0.0010945
0.00111029
0.00112844
0.00114909
0.00117226
0.00119755
0.00122407
0.00124873
0.00126863
0.00128514
0.00130061
0.00131578
0.00133051
0.00134416
0.00135584
0.00136469
0.00137014
0.00137209
0.00137099
0.00136784
0.00136405
0.00136095
0.00135934
0.00104636
0.00104669
0.00104755
0.00104926
0.00105217
0.00105672
0.0010633
0.0010722
0.00108355
0.00109727
0.00111323
0.00113128
0.00115128
0.00117295
0.00119559
0.00121798
0.00123708
0.00125131
0.00126352
0.00127659
0.00129163
0.00130851
0.00132625
0.00134342
0.00135852
0.00137046
0.00137873
0.00138347
0.0013853
0.00138523
0.0013844
0.00138374
0.00104836
0.00104864
0.0010494
0.00105089
0.00105348
0.00105755
0.00106351
0.00107168
0.00108218
0.00109497
0.00110985
0.00112653
0.00114476
0.00116415
0.00118403
0.00120327
0.00121928
0.00123123
0.00124204
0.00125445
0.00126976
0.00128819
0.00130893
0.00133041
0.00135056
0.00136755
0.00138032
0.00138867
0.00139318
0.00139492
0.00139511
0.00139486
0.0010503
0.00105048
0.00105101
0.00105216
0.00105425
0.00105768
0.00106281
0.00106995
0.00107924
0.00109065
0.00110398
0.00111897
0.00113533
0.00115274
0.0011707
0.00118842
0.00120388
0.00121638
0.00122801
0.00124098
0.00125658
0.00127536
0.00129704
0.00132044
0.00134358
0.0013643
0.00138086
0.00139249
0.0013994
0.00140259
0.00140346
0.0014034
0.00105374
0.00105372
0.00105385
0.00105443
0.00105581
0.00105841
0.00106261
0.00106869
0.00107681
0.00108695
0.00109897
0.00111264
0.00112775
0.00114406
0.00116125
0.0011789
0.00119546
0.00120985
0.00122318
0.00123715
0.00125298
0.0012714
0.00129259
0.00131588
0.00133981
0.00136236
0.00138147
0.00139572
0.0014048
0.00140942
0.00141097
0.00141107
0.00106066
0.00106029
0.00105978
0.00105949
0.00105991
0.00106154
0.00106483
0.00107008
0.00107745
0.00108693
0.00109841
0.00111167
0.0011265
0.00114271
0.0011601
0.00117856
0.00119675
0.00121305
0.00122781
0.00124245
0.00125807
0.00127556
0.00129535
0.00131721
0.00134019
0.00136273
0.00138287
0.00139883
0.00140966
0.00141559
0.00141784
0.00141813
0.00107304
0.00107218
0.0010708
0.00106945
0.00106881
0.00106956
0.00107227
0.00107727
0.00108468
0.00109444
0.00110633
0.00112009
0.00113545
0.00115218
0.00117016
0.00118944
0.00120876
0.00122609
0.00124137
0.00125587
0.00127063
0.00128656
0.00130424
0.00132378
0.00134468
0.00136581
0.00138557
0.00140215
0.00141414
0.00142117
0.0014241
0.00142461
0.00109251
0.00109106
0.00108876
0.00108649
0.00108517
0.00108564
0.00108854
0.00109417
0.00110251
0.00111331
0.00112622
0.00114086
0.00115688
0.00117403
0.00119218
0.00121149
0.00123078
0.00124787
0.00126257
0.00127605
0.00128929
0.00130313
0.00131822
0.00133484
0.00135286
0.00137161
0.00138987
0.00140601
0.00141842
0.00142623
0.00142978
0.00143053
0.00112011
0.00111806
0.00111517
0.00111273
0.00111178
0.0011131
0.00111721
0.00112424
0.00113393
0.00114587
0.00115959
0.00117465
0.00119067
0.00120739
0.00122473
0.00124287
0.00126075
0.00127636
0.00128952
0.00130128
0.00131251
0.00132396
0.00133622
0.00134965
0.00136434
0.00138002
0.0013959
0.00141066
0.00142271
0.00143085
0.00143488
0.00143587
0.00115644
0.001154
0.0011514
0.00115016
0.00115102
0.00115433
0.00116029
0.00116877
0.00117937
0.00119166
0.00120519
0.00121953
0.00123436
0.00124949
0.00126484
0.00128062
0.00129594
0.00130914
0.0013201
0.0013297
0.00133868
0.00134764
0.00135707
0.00136733
0.00137861
0.00139088
0.00140376
0.00141635
0.00142726
0.00143516
0.00143943
0.00144065
0.00120206
0.00119979
0.00119891
0.00120037
0.00120402
0.00120958
0.00121697
0.00122595
0.00123623
0.0012475
0.00125943
0.00127173
0.00128417
0.0012966
0.001309
0.00132155
0.00133357
0.00134382
0.00135224
0.00135952
0.00136621
0.00137276
0.00137956
0.00138688
0.00139494
0.00140382
0.00141341
0.00142324
0.0014323
0.00143935
0.00144351
0.00144487
0.00125806
0.00125708
0.00125931
0.0012638
0.00126955
0.00127611
0.0012834
0.00129131
0.00129975
0.00130861
0.00131772
0.00132692
0.00133606
0.00134508
0.00135396
0.00136284
0.00137126
0.00137839
0.0013842
0.00138917
0.00139368
0.00139804
0.0014025
0.00140726
0.00141247
0.00141825
0.00142463
0.00143141
0.00143805
0.00144362
0.00144721
0.00144856
0.00132663
0.00132818
0.00133281
0.00133804
0.00134335
0.00134862
0.0013539
0.00135922
0.00136463
0.00137014
0.00137569
0.00138122
0.00138667
0.00139199
0.00139719
0.00140234
0.0014072
0.0014113
0.00141462
0.00141745
0.00141999
0.00142241
0.00142487
0.00142747
0.0014303
0.00143344
0.00143693
0.00144075
0.00144466
0.00144818
0.00145068
0.00145175
0.00141056
0.00141182
0.00141425
0.00141656
0.00141871
0.00142072
0.00142263
0.00142449
0.00142633
0.00142817
0.00143001
0.00143182
0.0014336
0.00143533
0.00143701
0.00143868
0.00144024
0.00144155
0.00144262
0.00144352
0.00144432
0.00144509
0.00144586
0.00144667
0.00144755
0.00144852
0.00144959
0.00145078
0.00145203
0.00145321
0.00145411
0.00145455
)
;


// ************************************************************************* //
