/*--------------------------------*- C++ -*----------------------------------*\
| =========                 |                                                 |
| \\      /  F ield         | OpenFOAM: The Open Source CFD Toolbox           |
|  \\    /   O peration     | Version:  2212                                  |
|   \\  /    A nd           | Website:  www.openfoam.com                      |
|    \\/     M anipulation  |                                                 |
\*---------------------------------------------------------------------------*/
FoamFile
{
    version     2.0;
    format      ascii;
    arch        "LSB;label=64;scalar=64";
    class       volScalarField;
    location    "910";
    object      Gh2;
}
// * * * * * * * * * * * * * * * * * * * * * * * * * * * * * * * * * * * * * //

dimensions      [1 -3 0 0 0 0 0];

internalField   nonuniform List<scalar> 
1024
(
1.26659e-05
1.26656e-05
1.26648e-05
1.26634e-05
1.26613e-05
1.26583e-05
1.26545e-05
1.265e-05
1.26452e-05
1.26403e-05
1.26357e-05
1.26318e-05
1.26291e-05
1.26285e-05
1.26306e-05
1.26359e-05
1.26436e-05
1.26519e-05
1.26597e-05
1.26672e-05
1.26747e-05
1.26827e-05
1.26912e-05
1.27e-05
1.27084e-05
1.2716e-05
1.27223e-05
1.2727e-05
1.27303e-05
1.27324e-05
1.27336e-05
1.27341e-05
1.26659e-05
1.26656e-05
1.26648e-05
1.26634e-05
1.26612e-05
1.26582e-05
1.26543e-05
1.26498e-05
1.26449e-05
1.264e-05
1.26354e-05
1.26314e-05
1.26287e-05
1.26281e-05
1.26304e-05
1.26357e-05
1.26434e-05
1.26518e-05
1.26596e-05
1.2667e-05
1.26745e-05
1.26824e-05
1.26909e-05
1.26996e-05
1.27081e-05
1.27157e-05
1.2722e-05
1.27268e-05
1.27302e-05
1.27323e-05
1.27335e-05
1.2734e-05
1.26659e-05
1.26655e-05
1.26647e-05
1.26633e-05
1.2661e-05
1.26579e-05
1.26539e-05
1.26493e-05
1.26444e-05
1.26395e-05
1.26348e-05
1.26307e-05
1.26279e-05
1.26274e-05
1.26297e-05
1.26353e-05
1.26432e-05
1.26516e-05
1.26594e-05
1.26668e-05
1.26742e-05
1.26819e-05
1.26902e-05
1.26989e-05
1.27074e-05
1.27151e-05
1.27215e-05
1.27264e-05
1.27299e-05
1.27321e-05
1.27333e-05
1.27338e-05
1.26659e-05
1.26655e-05
1.26647e-05
1.26631e-05
1.26608e-05
1.26576e-05
1.26535e-05
1.26488e-05
1.26438e-05
1.26388e-05
1.26339e-05
1.26295e-05
1.26265e-05
1.26259e-05
1.26286e-05
1.26346e-05
1.26429e-05
1.26515e-05
1.26594e-05
1.26667e-05
1.26738e-05
1.26813e-05
1.26894e-05
1.26979e-05
1.27063e-05
1.27141e-05
1.27207e-05
1.27258e-05
1.27294e-05
1.27317e-05
1.2733e-05
1.27335e-05
1.26659e-05
1.26655e-05
1.26646e-05
1.26631e-05
1.26606e-05
1.26573e-05
1.26532e-05
1.26485e-05
1.26433e-05
1.2638e-05
1.26326e-05
1.26277e-05
1.26242e-05
1.26237e-05
1.2627e-05
1.26338e-05
1.26428e-05
1.26518e-05
1.26598e-05
1.26669e-05
1.26738e-05
1.2681e-05
1.26886e-05
1.26968e-05
1.27051e-05
1.2713e-05
1.27197e-05
1.2725e-05
1.27287e-05
1.27312e-05
1.27325e-05
1.27331e-05
1.2666e-05
1.26657e-05
1.26648e-05
1.26632e-05
1.26607e-05
1.26574e-05
1.26532e-05
1.26483e-05
1.26429e-05
1.26371e-05
1.2631e-05
1.26251e-05
1.26209e-05
1.26204e-05
1.26246e-05
1.26329e-05
1.26431e-05
1.26527e-05
1.26609e-05
1.2668e-05
1.26745e-05
1.26811e-05
1.26883e-05
1.2696e-05
1.27041e-05
1.27118e-05
1.27186e-05
1.27241e-05
1.2728e-05
1.27305e-05
1.27319e-05
1.27325e-05
1.26664e-05
1.2666e-05
1.26651e-05
1.26635e-05
1.26611e-05
1.26579e-05
1.26537e-05
1.26487e-05
1.26429e-05
1.26363e-05
1.2629e-05
1.26217e-05
1.26163e-05
1.26159e-05
1.26216e-05
1.2632e-05
1.2644e-05
1.26547e-05
1.26633e-05
1.26702e-05
1.26763e-05
1.26823e-05
1.26888e-05
1.26959e-05
1.27035e-05
1.2711e-05
1.27178e-05
1.27233e-05
1.27273e-05
1.27299e-05
1.27314e-05
1.2732e-05
1.26669e-05
1.26666e-05
1.26657e-05
1.26643e-05
1.2662e-05
1.26588e-05
1.26547e-05
1.26496e-05
1.26432e-05
1.26356e-05
1.26266e-05
1.26172e-05
1.26104e-05
1.26101e-05
1.26177e-05
1.26312e-05
1.26459e-05
1.26582e-05
1.26673e-05
1.26742e-05
1.26799e-05
1.26851e-05
1.26906e-05
1.26969e-05
1.27039e-05
1.2711e-05
1.27175e-05
1.27229e-05
1.27269e-05
1.27295e-05
1.27309e-05
1.27315e-05
1.26677e-05
1.26674e-05
1.26666e-05
1.26653e-05
1.26633e-05
1.26603e-05
1.26562e-05
1.26508e-05
1.26438e-05
1.26346e-05
1.26233e-05
1.26114e-05
1.26028e-05
1.26029e-05
1.26132e-05
1.26307e-05
1.2649e-05
1.26634e-05
1.26734e-05
1.26804e-05
1.26855e-05
1.26899e-05
1.26944e-05
1.26996e-05
1.27057e-05
1.2712e-05
1.2718e-05
1.27231e-05
1.27269e-05
1.27294e-05
1.27309e-05
1.27315e-05
1.26683e-05
1.2668e-05
1.26674e-05
1.26663e-05
1.26645e-05
1.26618e-05
1.26577e-05
1.26519e-05
1.26437e-05
1.26324e-05
1.26182e-05
1.26032e-05
1.2593e-05
1.25939e-05
1.26079e-05
1.26305e-05
1.26533e-05
1.26703e-05
1.26816e-05
1.26888e-05
1.26935e-05
1.26969e-05
1.27003e-05
1.27043e-05
1.27092e-05
1.27146e-05
1.27198e-05
1.27243e-05
1.27277e-05
1.27301e-05
1.27314e-05
1.2732e-05
1.2667e-05
1.2667e-05
1.26666e-05
1.26658e-05
1.26643e-05
1.26616e-05
1.26574e-05
1.26507e-05
1.26407e-05
1.26266e-05
1.26089e-05
1.2591e-05
1.25799e-05
1.2583e-05
1.26018e-05
1.26303e-05
1.2658e-05
1.26781e-05
1.26911e-05
1.26989e-05
1.27034e-05
1.27061e-05
1.27083e-05
1.2711e-05
1.27146e-05
1.27187e-05
1.2723e-05
1.27267e-05
1.27296e-05
1.27317e-05
1.27329e-05
1.27335e-05
1.26598e-05
1.26599e-05
1.26599e-05
1.26594e-05
1.26581e-05
1.26553e-05
1.26503e-05
1.26421e-05
1.26297e-05
1.26125e-05
1.25918e-05
1.25723e-05
1.25624e-05
1.25695e-05
1.25941e-05
1.26284e-05
1.26606e-05
1.26839e-05
1.26993e-05
1.27087e-05
1.27139e-05
1.27164e-05
1.27179e-05
1.27195e-05
1.27217e-05
1.27246e-05
1.27277e-05
1.27306e-05
1.27329e-05
1.27347e-05
1.27358e-05
1.27363e-05
1.26382e-05
1.26384e-05
1.26384e-05
1.26381e-05
1.26366e-05
1.26332e-05
1.2627e-05
1.26169e-05
1.26022e-05
1.25831e-05
1.25619e-05
1.25444e-05
1.25391e-05
1.25521e-05
1.25822e-05
1.26199e-05
1.26544e-05
1.26808e-05
1.27e-05
1.27134e-05
1.27216e-05
1.27259e-05
1.27279e-05
1.2729e-05
1.27304e-05
1.27321e-05
1.27342e-05
1.27363e-05
1.27381e-05
1.27396e-05
1.27405e-05
1.2741e-05
1.25933e-05
1.25932e-05
1.25928e-05
1.25916e-05
1.25891e-05
1.25847e-05
1.25773e-05
1.25664e-05
1.25517e-05
1.25344e-05
1.25173e-05
1.25063e-05
1.25085e-05
1.25268e-05
1.25576e-05
1.25921e-05
1.26242e-05
1.2653e-05
1.26789e-05
1.27008e-05
1.27172e-05
1.27281e-05
1.27345e-05
1.27379e-05
1.27399e-05
1.27415e-05
1.27429e-05
1.27442e-05
1.27451e-05
1.27456e-05
1.27459e-05
1.27459e-05
1.25257e-05
1.25251e-05
1.25238e-05
1.25214e-05
1.25177e-05
1.25123e-05
1.25047e-05
1.24949e-05
1.24832e-05
1.24709e-05
1.24611e-05
1.24576e-05
1.24637e-05
1.24783e-05
1.2497e-05
1.2516e-05
1.25369e-05
1.25637e-05
1.25963e-05
1.2631e-05
1.26633e-05
1.26911e-05
1.27128e-05
1.27278e-05
1.27369e-05
1.27412e-05
1.27418e-05
1.27398e-05
1.27363e-05
1.27325e-05
1.27293e-05
1.27276e-05
1.2452e-05
1.24511e-05
1.24492e-05
1.24461e-05
1.24416e-05
1.24355e-05
1.24278e-05
1.24184e-05
1.24081e-05
1.23979e-05
1.23891e-05
1.23819e-05
1.23745e-05
1.23643e-05
1.23502e-05
1.23337e-05
1.23223e-05
1.23246e-05
1.23419e-05
1.23703e-05
1.24055e-05
1.24443e-05
1.24823e-05
1.25161e-05
1.25427e-05
1.25616e-05
1.25722e-05
1.25754e-05
1.25731e-05
1.25681e-05
1.25631e-05
1.25601e-05
1.23942e-05
1.23932e-05
1.23907e-05
1.23862e-05
1.23792e-05
1.23692e-05
1.23556e-05
1.23386e-05
1.23183e-05
1.22949e-05
1.2268e-05
1.22358e-05
1.21958e-05
1.21458e-05
1.20855e-05
1.20161e-05
1.19464e-05
1.18906e-05
1.18541e-05
1.18337e-05
1.18282e-05
1.18357e-05
1.18539e-05
1.18806e-05
1.19129e-05
1.19483e-05
1.19832e-05
1.20138e-05
1.2037e-05
1.20516e-05
1.20589e-05
1.20612e-05
1.23595e-05
1.23584e-05
1.23556e-05
1.235e-05
1.23407e-05
1.23265e-05
1.23067e-05
1.22807e-05
1.22484e-05
1.22095e-05
1.21635e-05
1.21092e-05
1.20448e-05
1.19693e-05
1.18827e-05
1.17863e-05
1.16897e-05
1.16071e-05
1.15416e-05
1.14875e-05
1.14441e-05
1.14115e-05
1.13909e-05
1.13831e-05
1.13884e-05
1.14059e-05
1.14327e-05
1.14643e-05
1.14953e-05
1.15204e-05
1.15365e-05
1.15436e-05
1.23387e-05
1.23376e-05
1.23347e-05
1.23289e-05
1.23189e-05
1.23032e-05
1.22807e-05
1.22505e-05
1.2212e-05
1.21654e-05
1.21105e-05
1.20471e-05
1.19749e-05
1.18941e-05
1.18065e-05
1.17157e-05
1.16327e-05
1.15679e-05
1.15162e-05
1.14693e-05
1.14244e-05
1.13811e-05
1.13412e-05
1.13072e-05
1.12814e-05
1.12656e-05
1.12602e-05
1.1264e-05
1.1274e-05
1.1286e-05
1.12957e-05
1.13008e-05
1.23257e-05
1.23247e-05
1.23219e-05
1.23164e-05
1.23068e-05
1.22917e-05
1.22696e-05
1.22393e-05
1.22003e-05
1.21527e-05
1.20969e-05
1.20334e-05
1.19629e-05
1.18868e-05
1.18076e-05
1.173e-05
1.16651e-05
1.16187e-05
1.15809e-05
1.1542e-05
1.1498e-05
1.14489e-05
1.13973e-05
1.13474e-05
1.13034e-05
1.12685e-05
1.12441e-05
1.12299e-05
1.12241e-05
1.12239e-05
1.1226e-05
1.12279e-05
1.2317e-05
1.23161e-05
1.23137e-05
1.23089e-05
1.23004e-05
1.22869e-05
1.22667e-05
1.22389e-05
1.22026e-05
1.21581e-05
1.21059e-05
1.20469e-05
1.19824e-05
1.19137e-05
1.18436e-05
1.17764e-05
1.17215e-05
1.16821e-05
1.16484e-05
1.16111e-05
1.15657e-05
1.15115e-05
1.14506e-05
1.13877e-05
1.13288e-05
1.12792e-05
1.12418e-05
1.12172e-05
1.12037e-05
1.11982e-05
1.11972e-05
1.11977e-05
1.23088e-05
1.23082e-05
1.23066e-05
1.23029e-05
1.22961e-05
1.22846e-05
1.22673e-05
1.22429e-05
1.22108e-05
1.2171e-05
1.21241e-05
1.20712e-05
1.20132e-05
1.19515e-05
1.18881e-05
1.18261e-05
1.17731e-05
1.17317e-05
1.16949e-05
1.16551e-05
1.16081e-05
1.15521e-05
1.14879e-05
1.14189e-05
1.1351e-05
1.12903e-05
1.12419e-05
1.12079e-05
1.11875e-05
1.11778e-05
1.11749e-05
1.11749e-05
1.2296e-05
1.22961e-05
1.22958e-05
1.2294e-05
1.22895e-05
1.22808e-05
1.22666e-05
1.22458e-05
1.22178e-05
1.21825e-05
1.21405e-05
1.20924e-05
1.20391e-05
1.19818e-05
1.19216e-05
1.18604e-05
1.18041e-05
1.17566e-05
1.1714e-05
1.16705e-05
1.16221e-05
1.15665e-05
1.15032e-05
1.14341e-05
1.13635e-05
1.12973e-05
1.12414e-05
1.11998e-05
1.11732e-05
1.11595e-05
1.11547e-05
1.11542e-05
1.22726e-05
1.22738e-05
1.22755e-05
1.22765e-05
1.2275e-05
1.22695e-05
1.22584e-05
1.22405e-05
1.22152e-05
1.21826e-05
1.21429e-05
1.2097e-05
1.20455e-05
1.19894e-05
1.19294e-05
1.18663e-05
1.18052e-05
1.17516e-05
1.17042e-05
1.16581e-05
1.16098e-05
1.15566e-05
1.1497e-05
1.14318e-05
1.13637e-05
1.12973e-05
1.12383e-05
1.11918e-05
1.11602e-05
1.11428e-05
1.1136e-05
1.11349e-05
1.22322e-05
1.2235e-05
1.22394e-05
1.22437e-05
1.22457e-05
1.2243e-05
1.22339e-05
1.2217e-05
1.2192e-05
1.2159e-05
1.21187e-05
1.2072e-05
1.20197e-05
1.19628e-05
1.19018e-05
1.18369e-05
1.17727e-05
1.1716e-05
1.16668e-05
1.16209e-05
1.15749e-05
1.1526e-05
1.14724e-05
1.14138e-05
1.13517e-05
1.12893e-05
1.12313e-05
1.1183e-05
1.11481e-05
1.11276e-05
1.11189e-05
1.11172e-05
1.21698e-05
1.21745e-05
1.21818e-05
1.2189e-05
1.21931e-05
1.21914e-05
1.21817e-05
1.21631e-05
1.21355e-05
1.20998e-05
1.20569e-05
1.20081e-05
1.19546e-05
1.18973e-05
1.18366e-05
1.17723e-05
1.17087e-05
1.1653e-05
1.16056e-05
1.15627e-05
1.15213e-05
1.14785e-05
1.14326e-05
1.13825e-05
1.13287e-05
1.12732e-05
1.12196e-05
1.11725e-05
1.11364e-05
1.11137e-05
1.11034e-05
1.11011e-05
1.20823e-05
1.20888e-05
1.20979e-05
1.21056e-05
1.21086e-05
1.21043e-05
1.20909e-05
1.20681e-05
1.20366e-05
1.19977e-05
1.19528e-05
1.19034e-05
1.18507e-05
1.17955e-05
1.17381e-05
1.16783e-05
1.16196e-05
1.15688e-05
1.15264e-05
1.14889e-05
1.14536e-05
1.14181e-05
1.13806e-05
1.134e-05
1.1296e-05
1.12494e-05
1.12027e-05
1.11596e-05
1.11246e-05
1.11011e-05
1.10894e-05
1.10864e-05
1.19678e-05
1.19755e-05
1.19837e-05
1.19876e-05
1.19849e-05
1.19743e-05
1.19553e-05
1.19282e-05
1.18941e-05
1.18545e-05
1.18107e-05
1.17641e-05
1.17158e-05
1.16663e-05
1.16159e-05
1.15641e-05
1.15141e-05
1.14712e-05
1.14359e-05
1.14052e-05
1.13769e-05
1.1349e-05
1.132e-05
1.12888e-05
1.1255e-05
1.12185e-05
1.11805e-05
1.11437e-05
1.1112e-05
1.10892e-05
1.10769e-05
1.10734e-05
1.18245e-05
1.18317e-05
1.18345e-05
1.18299e-05
1.18185e-05
1.18009e-05
1.17775e-05
1.1749e-05
1.17162e-05
1.16802e-05
1.16419e-05
1.16022e-05
1.15619e-05
1.15214e-05
1.1481e-05
1.144e-05
1.14007e-05
1.13675e-05
1.13403e-05
1.1317e-05
1.12959e-05
1.12754e-05
1.12544e-05
1.12321e-05
1.12078e-05
1.11814e-05
1.1153e-05
1.11243e-05
1.1098e-05
1.10777e-05
1.10658e-05
1.10619e-05
1.16493e-05
1.16523e-05
1.16454e-05
1.16314e-05
1.16134e-05
1.15928e-05
1.15698e-05
1.15448e-05
1.1518e-05
1.14898e-05
1.14606e-05
1.14311e-05
1.14016e-05
1.13724e-05
1.13435e-05
1.13145e-05
1.12871e-05
1.1264e-05
1.12452e-05
1.12293e-05
1.1215e-05
1.12013e-05
1.11875e-05
1.1173e-05
1.11572e-05
1.114e-05
1.11211e-05
1.11012e-05
1.1082e-05
1.1066e-05
1.10557e-05
1.10519e-05
1.14351e-05
1.14303e-05
1.14159e-05
1.13995e-05
1.13829e-05
1.13664e-05
1.13498e-05
1.13331e-05
1.13159e-05
1.12984e-05
1.12807e-05
1.1263e-05
1.12455e-05
1.12283e-05
1.12114e-05
1.11946e-05
1.11787e-05
1.11655e-05
1.11547e-05
1.11457e-05
1.11376e-05
1.113e-05
1.11223e-05
1.11144e-05
1.11058e-05
1.10964e-05
1.10861e-05
1.10749e-05
1.10635e-05
1.10534e-05
1.10463e-05
1.10433e-05
1.11735e-05
1.11696e-05
1.1162e-05
1.11548e-05
1.11481e-05
1.11418e-05
1.11358e-05
1.11299e-05
1.11241e-05
1.11183e-05
1.11124e-05
1.11066e-05
1.11009e-05
1.10953e-05
1.10898e-05
1.10844e-05
1.10793e-05
1.10751e-05
1.10716e-05
1.10688e-05
1.10662e-05
1.10638e-05
1.10614e-05
1.10589e-05
1.10562e-05
1.10533e-05
1.10501e-05
1.10467e-05
1.1043e-05
1.10397e-05
1.10371e-05
1.10358e-05
)
;

boundaryField
{
    movingWall
    {
        type            fixedValue;
        value           uniform 1.1032e-05;
    }
    fixedWalls
    {
        type            zeroGradient;
    }
    floor
    {
        type            zeroGradient;
    }
    frontAndBack
    {
        type            empty;
    }
}


// ************************************************************************* //
