/*--------------------------------*- C++ -*----------------------------------*\
| =========                 |                                                 |
| \\      /  F ield         | OpenFOAM: The Open Source CFD Toolbox           |
|  \\    /   O peration     | Version:  2212                                  |
|   \\  /    A nd           | Website:  www.openfoam.com                      |
|    \\/     M anipulation  |                                                 |
\*---------------------------------------------------------------------------*/
FoamFile
{
    version     2.0;
    format      ascii;
    arch        "LSB;label=64;scalar=64";
    class       volScalarField;
    location    "910";
    object      T;
}
// * * * * * * * * * * * * * * * * * * * * * * * * * * * * * * * * * * * * * //

dimensions      [0 0 0 1 0 0 0];

internalField   nonuniform List<scalar> 
1024
(
309.994
309.994
309.993
309.992
309.991
309.99
309.988
309.987
309.985
309.983
309.981
309.979
309.978
309.979
309.981
309.983
309.985
309.987
309.988
309.989
309.99
309.99
309.991
309.992
309.993
309.993
309.994
309.995
309.995
309.995
309.995
309.995
309.98
309.98
309.978
309.976
309.972
309.968
309.963
309.958
309.952
309.947
309.94
309.935
309.931
309.934
309.94
309.947
309.953
309.958
309.961
309.964
309.967
309.97
309.972
309.974
309.977
309.979
309.981
309.983
309.984
309.985
309.986
309.986
309.965
309.964
309.962
309.957
309.951
309.943
309.935
309.926
309.917
309.907
309.896
309.887
309.882
309.886
309.896
309.907
309.917
309.925
309.932
309.937
309.942
309.946
309.95
309.954
309.958
309.962
309.966
309.97
309.972
309.974
309.975
309.975
309.95
309.948
309.945
309.938
309.929
309.917
309.905
309.892
309.88
309.866
309.853
309.842
309.836
309.84
309.851
309.865
309.878
309.889
309.898
309.906
309.913
309.92
309.926
309.932
309.938
309.944
309.95
309.955
309.959
309.962
309.963
309.963
309.934
309.933
309.928
309.919
309.907
309.892
309.876
309.86
309.845
309.83
309.817
309.806
309.799
309.802
309.811
309.825
309.839
309.852
309.863
309.873
309.882
309.891
309.899
309.907
309.915
309.923
309.932
309.939
309.945
309.948
309.95
309.951
309.919
309.918
309.912
309.902
309.887
309.87
309.851
309.834
309.817
309.803
309.791
309.782
309.775
309.775
309.781
309.791
309.804
309.816
309.829
309.84
309.851
309.861
309.871
309.881
309.891
309.902
309.912
309.922
309.93
309.935
309.937
309.938
309.905
309.904
309.899
309.888
309.872
309.853
309.833
309.815
309.799
309.787
309.778
309.769
309.762
309.76
309.762
309.768
309.777
309.787
309.798
309.809
309.82
309.832
309.843
309.855
309.867
309.88
309.893
309.905
309.914
309.921
309.924
309.925
309.893
309.892
309.887
309.877
309.861
309.842
309.823
309.805
309.791
309.782
309.774
309.765
309.757
309.753
309.752
309.754
309.758
309.765
309.773
309.783
309.794
309.805
309.817
309.83
309.844
309.859
309.874
309.888
309.899
309.907
309.911
309.912
309.882
309.882
309.878
309.87
309.856
309.838
309.82
309.804
309.792
309.784
309.775
309.765
309.756
309.751
309.748
309.747
309.748
309.751
309.756
309.764
309.773
309.783
309.795
309.809
309.823
309.84
309.857
309.873
309.886
309.894
309.898
309.899
309.872
309.872
309.869
309.864
309.853
309.839
309.824
309.81
309.799
309.789
309.777
309.766
309.756
309.75
309.746
309.745
309.744
309.744
309.747
309.751
309.758
309.767
309.778
309.792
309.807
309.824
309.843
309.86
309.874
309.883
309.887
309.887
309.861
309.861
309.86
309.857
309.85
309.84
309.828
309.817
309.806
309.793
309.779
309.765
309.755
309.749
309.746
309.744
309.742
309.741
309.742
309.744
309.749
309.757
309.767
309.78
309.796
309.814
309.833
309.851
309.864
309.873
309.876
309.877
309.848
309.848
309.848
309.847
309.843
309.837
309.829
309.819
309.807
309.792
309.775
309.762
309.753
309.748
309.746
309.744
309.742
309.741
309.74
309.741
309.745
309.751
309.761
309.774
309.79
309.809
309.828
309.845
309.857
309.864
309.867
309.867
309.829
309.829
309.83
309.83
309.829
309.825
309.818
309.808
309.794
309.779
309.765
309.755
309.749
309.746
309.746
309.745
309.744
309.742
309.741
309.742
309.746
309.752
309.762
309.776
309.792
309.81
309.828
309.842
309.851
309.856
309.858
309.858
309.797
309.798
309.798
309.798
309.797
309.792
309.785
309.775
309.765
309.757
309.75
309.746
309.745
309.746
309.747
309.748
309.748
309.748
309.749
309.752
309.756
309.764
309.774
309.786
309.801
309.816
309.829
309.839
309.846
309.849
309.85
309.85
309.752
309.751
309.751
309.749
309.748
309.746
309.744
309.742
309.74
309.74
309.74
309.742
309.745
309.748
309.75
309.753
309.756
309.76
309.765
309.77
309.776
309.782
309.791
309.8
309.811
309.821
309.829
309.835
309.838
309.84
309.84
309.84
309.73
309.729
309.729
309.729
309.729
309.729
309.729
309.73
309.732
309.736
309.739
309.742
309.745
309.747
309.75
309.752
309.755
309.758
309.762
309.768
309.775
309.783
309.792
309.801
309.808
309.814
309.818
309.821
309.822
309.822
309.821
309.82
309.721
309.721
309.721
309.721
309.721
309.721
309.721
309.72
309.72
309.719
309.719
309.718
309.716
309.714
309.71
309.707
309.703
309.7
309.698
309.698
309.7
309.702
309.706
309.712
309.719
309.728
309.738
309.747
309.755
309.76
309.762
309.762
309.715
309.715
309.715
309.715
309.715
309.714
309.713
309.711
309.709
309.706
309.703
309.699
309.695
309.69
309.684
309.677
309.672
309.668
309.667
309.668
309.669
309.67
309.672
309.673
309.675
309.676
309.678
309.68
309.682
309.685
309.688
309.689
309.712
309.712
309.712
309.712
309.712
309.71
309.708
309.706
309.703
309.699
309.695
309.69
309.684
309.678
309.671
309.665
309.661
309.659
309.659
309.661
309.663
309.665
309.667
309.669
309.671
309.672
309.673
309.673
309.673
309.673
309.673
309.672
309.71
309.71
309.71
309.71
309.71
309.708
309.706
309.703
309.7
309.695
309.69
309.685
309.679
309.673
309.667
309.661
309.657
309.655
309.656
309.658
309.66
309.663
309.666
309.669
309.671
309.673
309.674
309.675
309.675
309.674
309.674
309.673
309.708
309.708
309.708
309.709
309.708
309.707
309.705
309.702
309.698
309.694
309.689
309.684
309.678
309.672
309.666
309.66
309.656
309.654
309.655
309.656
309.659
309.661
309.665
309.668
309.671
309.673
309.675
309.676
309.677
309.676
309.676
309.675
309.707
309.707
309.707
309.707
309.707
309.706
309.704
309.702
309.698
309.694
309.689
309.684
309.678
309.673
309.667
309.662
309.658
309.657
309.657
309.658
309.659
309.661
309.664
309.667
309.671
309.674
309.676
309.677
309.678
309.678
309.678
309.677
309.705
309.705
309.706
309.706
309.706
309.705
309.704
309.701
309.698
309.694
309.69
309.685
309.68
309.675
309.67
309.665
309.662
309.661
309.66
309.661
309.662
309.663
309.665
309.668
309.671
309.674
309.676
309.678
309.679
309.679
309.679
309.679
309.704
309.704
309.704
309.705
309.705
309.704
309.703
309.701
309.698
309.695
309.691
309.686
309.682
309.677
309.673
309.669
309.667
309.665
309.665
309.665
309.665
309.666
309.667
309.669
309.672
309.674
309.677
309.678
309.679
309.68
309.68
309.68
309.703
309.703
309.703
309.704
309.704
309.704
309.702
309.701
309.698
309.695
309.692
309.688
309.684
309.68
309.677
309.673
309.671
309.67
309.669
309.669
309.669
309.669
309.67
309.672
309.673
309.675
309.677
309.679
309.68
309.681
309.681
309.68
309.702
309.702
309.702
309.703
309.703
309.703
309.702
309.7
309.698
309.696
309.693
309.69
309.686
309.683
309.68
309.677
309.675
309.674
309.673
309.673
309.673
309.673
309.673
309.674
309.675
309.677
309.678
309.679
309.68
309.681
309.681
309.681
309.701
309.701
309.702
309.702
309.702
309.702
309.701
309.7
309.698
309.696
309.694
309.691
309.689
309.686
309.683
309.681
309.679
309.678
309.677
309.677
309.676
309.676
309.676
309.677
309.677
309.678
309.679
309.68
309.681
309.682
309.682
309.682
309.701
309.701
309.701
309.701
309.702
309.701
309.701
309.7
309.698
309.697
309.695
309.693
309.691
309.689
309.686
309.684
309.683
309.682
309.681
309.68
309.68
309.679
309.679
309.679
309.68
309.68
309.68
309.681
309.682
309.682
309.682
309.682
309.7
309.7
309.701
309.701
309.701
309.701
309.7
309.699
309.698
309.697
309.696
309.694
309.693
309.691
309.689
309.688
309.686
309.685
309.684
309.683
309.683
309.682
309.682
309.682
309.682
309.682
309.682
309.682
309.682
309.682
309.682
309.682
309.7
309.7
309.7
309.7
309.7
309.7
309.7
309.699
309.699
309.698
309.697
309.696
309.694
309.693
309.692
309.69
309.689
309.687
309.686
309.686
309.685
309.684
309.684
309.684
309.683
309.683
309.683
309.683
309.683
309.683
309.683
309.683
309.7
309.7
309.7
309.7
309.7
309.7
309.7
309.699
309.699
309.698
309.698
309.697
309.696
309.695
309.693
309.692
309.69
309.689
309.688
309.687
309.686
309.686
309.685
309.685
309.684
309.684
309.684
309.683
309.683
309.683
309.683
309.683
309.7
309.7
309.7
309.7
309.7
309.7
309.7
309.699
309.699
309.699
309.698
309.697
309.696
309.695
309.694
309.693
309.691
309.69
309.689
309.688
309.687
309.686
309.686
309.685
309.685
309.685
309.684
309.684
309.684
309.683
309.683
309.683
)
;

boundaryField
{
    movingWall
    {
        type            zeroGradient;
    }
    fixedWalls
    {
        type            zeroGradient;
    }
    floor
    {
        type            fixedValue;
        value           uniform 310;
    }
    frontAndBack
    {
        type            empty;
    }
}


// ************************************************************************* //
