/*--------------------------------*- C++ -*----------------------------------*\
| =========                 |                                                 |
| \\      /  F ield         | OpenFOAM: The Open Source CFD Toolbox           |
|  \\    /   O peration     | Version:  2212                                  |
|   \\  /    A nd           | Website:  www.openfoam.com                      |
|    \\/     M anipulation  |                                                 |
\*---------------------------------------------------------------------------*/
FoamFile
{
    version     2.0;
    format      ascii;
    arch        "LSB;label=64;scalar=64";
    class       volScalarField;
    location    "910";
    object      Xch;
}
// * * * * * * * * * * * * * * * * * * * * * * * * * * * * * * * * * * * * * //

dimensions      [1 -3 0 0 0 0 0];

internalField   nonuniform List<scalar> 
1024
(
0.0199538
0.0199539
0.0199542
0.0199546
0.0199553
0.0199563
0.0199576
0.0199591
0.0199607
0.0199623
0.0199639
0.0199652
0.0199661
0.0199663
0.0199656
0.0199639
0.0199613
0.0199586
0.019956
0.0199535
0.019951
0.0199483
0.0199455
0.0199426
0.0199397
0.0199372
0.0199351
0.0199336
0.0199325
0.0199318
0.0199314
0.0199312
0.0199538
0.0199539
0.0199542
0.0199546
0.0199554
0.0199564
0.0199576
0.0199592
0.0199608
0.0199624
0.019964
0.0199653
0.0199662
0.0199664
0.0199657
0.0199639
0.0199614
0.0199586
0.019956
0.0199535
0.019951
0.0199484
0.0199456
0.0199427
0.0199399
0.0199373
0.0199352
0.0199336
0.0199325
0.0199318
0.0199314
0.0199313
0.0199538
0.0199539
0.0199542
0.0199547
0.0199554
0.0199565
0.0199578
0.0199593
0.0199609
0.0199626
0.0199642
0.0199655
0.0199665
0.0199667
0.0199659
0.0199641
0.0199614
0.0199587
0.0199561
0.0199536
0.0199512
0.0199486
0.0199458
0.0199429
0.0199401
0.0199375
0.0199354
0.0199338
0.0199326
0.0199319
0.0199315
0.0199313
0.0199538
0.0199539
0.0199542
0.0199547
0.0199555
0.0199566
0.0199579
0.0199595
0.0199611
0.0199628
0.0199645
0.0199659
0.019967
0.0199672
0.0199663
0.0199643
0.0199615
0.0199587
0.0199561
0.0199536
0.0199513
0.0199488
0.0199461
0.0199433
0.0199404
0.0199379
0.0199357
0.019934
0.0199328
0.019932
0.0199316
0.0199314
0.0199538
0.0199539
0.0199542
0.0199547
0.0199555
0.0199566
0.019958
0.0199596
0.0199613
0.0199631
0.0199649
0.0199665
0.0199677
0.0199679
0.0199668
0.0199646
0.0199616
0.0199586
0.019956
0.0199536
0.0199513
0.0199489
0.0199463
0.0199436
0.0199408
0.0199382
0.019936
0.0199343
0.019933
0.0199322
0.0199317
0.0199316
0.0199537
0.0199539
0.0199542
0.0199547
0.0199555
0.0199566
0.019958
0.0199596
0.0199614
0.0199634
0.0199654
0.0199674
0.0199688
0.019969
0.0199676
0.0199649
0.0199615
0.0199583
0.0199556
0.0199532
0.019951
0.0199488
0.0199465
0.0199439
0.0199412
0.0199386
0.0199364
0.0199346
0.0199332
0.0199324
0.0199319
0.0199317
0.0199536
0.0199537
0.019954
0.0199546
0.0199554
0.0199564
0.0199578
0.0199595
0.0199614
0.0199636
0.0199661
0.0199685
0.0199703
0.0199705
0.0199687
0.0199652
0.0199612
0.0199577
0.0199548
0.0199525
0.0199504
0.0199485
0.0199463
0.0199439
0.0199414
0.0199389
0.0199366
0.0199348
0.0199335
0.0199326
0.0199321
0.0199319
0.0199534
0.0199535
0.0199538
0.0199543
0.0199551
0.0199561
0.0199575
0.0199592
0.0199613
0.0199639
0.0199669
0.01997
0.0199723
0.0199725
0.01997
0.0199655
0.0199606
0.0199565
0.0199535
0.0199512
0.0199493
0.0199475
0.0199457
0.0199436
0.0199413
0.0199389
0.0199367
0.019935
0.0199336
0.0199328
0.0199323
0.0199321
0.0199532
0.0199533
0.0199535
0.019954
0.0199546
0.0199556
0.019957
0.0199588
0.0199611
0.0199642
0.019968
0.019972
0.0199748
0.0199749
0.0199715
0.0199657
0.0199596
0.0199548
0.0199515
0.0199491
0.0199474
0.019946
0.0199445
0.0199427
0.0199407
0.0199386
0.0199366
0.0199349
0.0199336
0.0199328
0.0199323
0.0199321
0.019953
0.019953
0.0199532
0.0199536
0.0199542
0.0199551
0.0199565
0.0199584
0.0199612
0.0199649
0.0199697
0.0199747
0.0199781
0.0199779
0.0199733
0.0199658
0.0199582
0.0199525
0.0199488
0.0199464
0.0199448
0.0199436
0.0199425
0.0199412
0.0199395
0.0199377
0.019936
0.0199345
0.0199333
0.0199326
0.0199321
0.0199319
0.0199534
0.0199534
0.0199535
0.0199538
0.0199543
0.0199552
0.0199566
0.0199588
0.0199621
0.0199668
0.0199728
0.0199788
0.0199825
0.0199815
0.0199753
0.0199659
0.0199567
0.01995
0.0199457
0.019943
0.0199415
0.0199406
0.0199399
0.0199389
0.0199377
0.0199363
0.0199349
0.0199337
0.0199327
0.019932
0.0199316
0.0199314
0.0199558
0.0199558
0.0199558
0.0199559
0.0199563
0.0199573
0.0199589
0.0199617
0.0199658
0.0199716
0.0199785
0.019985
0.0199884
0.0199861
0.0199779
0.0199666
0.0199559
0.0199481
0.019943
0.0199398
0.019938
0.0199372
0.0199367
0.0199361
0.0199354
0.0199344
0.0199334
0.0199324
0.0199316
0.019931
0.0199307
0.0199305
0.019963
0.0199629
0.0199629
0.019963
0.0199635
0.0199646
0.0199667
0.0199701
0.019975
0.0199813
0.0199884
0.0199943
0.0199962
0.0199919
0.0199819
0.0199694
0.019958
0.0199492
0.0199427
0.0199383
0.0199355
0.0199341
0.0199334
0.019933
0.0199325
0.0199319
0.0199312
0.0199305
0.0199299
0.0199294
0.0199291
0.019929
0.0199779
0.0199779
0.0199781
0.0199785
0.0199793
0.0199808
0.0199832
0.0199869
0.0199918
0.0199976
0.0200033
0.020007
0.0200064
0.0200003
0.0199902
0.0199787
0.019968
0.0199584
0.0199498
0.0199425
0.019937
0.0199333
0.0199312
0.01993
0.0199293
0.0199288
0.0199283
0.0199279
0.0199276
0.0199274
0.0199274
0.0199273
0.0200004
0.0200006
0.0200011
0.0200019
0.0200031
0.0200049
0.0200074
0.0200107
0.0200147
0.0200188
0.0200221
0.0200233
0.0200214
0.0200166
0.0200104
0.020004
0.0199971
0.0199881
0.0199773
0.0199657
0.0199549
0.0199456
0.0199384
0.0199334
0.0199304
0.0199289
0.0199287
0.0199294
0.0199305
0.0199318
0.0199329
0.0199335
0.020025
0.0200253
0.0200259
0.020027
0.0200285
0.0200305
0.0200331
0.0200362
0.0200397
0.0200431
0.0200461
0.0200486
0.0200511
0.0200545
0.0200592
0.0200647
0.0200685
0.0200678
0.020062
0.0200526
0.0200408
0.0200279
0.0200152
0.020004
0.0199951
0.0199888
0.0199853
0.0199842
0.019985
0.0199867
0.0199883
0.0199893
0.0200442
0.0200446
0.0200454
0.0200469
0.0200493
0.0200526
0.0200572
0.0200629
0.0200697
0.0200775
0.0200865
0.0200972
0.0201106
0.0201272
0.0201473
0.0201705
0.0201937
0.0202124
0.0202245
0.0202314
0.0202333
0.0202308
0.0202247
0.0202158
0.0202051
0.0201933
0.0201816
0.0201715
0.0201637
0.0201588
0.0201564
0.0201556
0.0200558
0.0200561
0.0200571
0.020059
0.0200621
0.0200668
0.0200734
0.0200821
0.0200929
0.0201059
0.0201212
0.0201393
0.0201608
0.0201859
0.0202148
0.0202469
0.0202791
0.0203067
0.0203286
0.0203468
0.0203613
0.0203722
0.0203792
0.0203818
0.02038
0.0203742
0.0203653
0.0203547
0.0203444
0.020336
0.0203306
0.0203283
0.0200627
0.020063
0.020064
0.020066
0.0200693
0.0200745
0.0200821
0.0200922
0.020105
0.0201205
0.0201388
0.0201599
0.020184
0.0202109
0.02024
0.0202703
0.020298
0.0203197
0.020337
0.0203527
0.0203678
0.0203823
0.0203957
0.0204072
0.0204158
0.0204212
0.020423
0.0204217
0.0204184
0.0204144
0.0204111
0.0204094
0.020067
0.0200673
0.0200683
0.0200701
0.0200733
0.0200784
0.0200857
0.0200958
0.0201088
0.0201247
0.0201433
0.0201644
0.0201879
0.0202132
0.0202396
0.0202654
0.0202871
0.0203026
0.0203152
0.0203283
0.0203431
0.0203596
0.0203769
0.0203937
0.0204085
0.0204202
0.0204284
0.0204332
0.0204352
0.0204352
0.0204345
0.0204339
0.0200699
0.0200702
0.020071
0.0200726
0.0200754
0.0200799
0.0200866
0.0200959
0.020108
0.0201229
0.0201402
0.0201599
0.0201813
0.0202042
0.0202275
0.0202499
0.0202682
0.0202813
0.0202926
0.0203051
0.0203204
0.0203386
0.0203591
0.0203802
0.0204
0.0204167
0.0204293
0.0204375
0.0204421
0.0204439
0.0204442
0.0204441
0.0200726
0.0200728
0.0200733
0.0200745
0.0200768
0.0200806
0.0200864
0.0200946
0.0201053
0.0201185
0.0201341
0.0201517
0.020171
0.0201916
0.0202127
0.0202333
0.020251
0.0202648
0.0202771
0.0202904
0.0203062
0.020325
0.0203466
0.0203698
0.0203926
0.020413
0.0204293
0.0204407
0.0204476
0.0204508
0.0204518
0.0204518
0.0200768
0.0200768
0.0200769
0.0200775
0.020079
0.0200819
0.0200866
0.0200936
0.0201029
0.0201146
0.0201287
0.0201447
0.0201624
0.0201815
0.0202015
0.0202219
0.0202407
0.0202565
0.0202708
0.0202854
0.0203016
0.0203202
0.0203415
0.0203647
0.0203884
0.0204107
0.0204295
0.0204435
0.0204524
0.020457
0.0204586
0.0204588
0.0200846
0.0200842
0.0200836
0.0200833
0.0200838
0.0200856
0.0200894
0.0200953
0.0201037
0.0201146
0.0201278
0.0201431
0.0201603
0.020179
0.020199
0.02022
0.0202404
0.0202583
0.0202741
0.0202896
0.0203057
0.0203236
0.0203436
0.0203655
0.0203884
0.0204107
0.0204305
0.0204462
0.0204568
0.0204626
0.0204649
0.0204653
0.0200981
0.0200972
0.0200957
0.0200943
0.0200936
0.0200945
0.0200975
0.0201032
0.0201115
0.0201225
0.020136
0.0201515
0.020169
0.0201879
0.0202083
0.0202299
0.0202514
0.0202703
0.0202868
0.0203021
0.0203175
0.0203339
0.0203519
0.0203716
0.0203924
0.0204134
0.0204329
0.0204491
0.0204609
0.0204678
0.0204707
0.0204712
0.020119
0.0201174
0.020115
0.0201126
0.0201112
0.0201118
0.020115
0.0201212
0.0201304
0.0201424
0.0201567
0.0201729
0.0201908
0.0202099
0.0202302
0.0202516
0.0202729
0.0202915
0.0203073
0.0203217
0.0203356
0.0203499
0.0203653
0.0203821
0.0204002
0.0204188
0.0204368
0.0204527
0.0204648
0.0204724
0.0204759
0.0204767
0.0201483
0.0201461
0.020143
0.0201404
0.0201395
0.0201409
0.0201454
0.020153
0.0201635
0.0201765
0.0201915
0.020208
0.0202256
0.0202441
0.0202632
0.0202832
0.0203028
0.0203198
0.020334
0.0203465
0.0203583
0.0203702
0.0203828
0.0203964
0.0204112
0.0204268
0.0204425
0.020457
0.0204688
0.0204767
0.0204806
0.0204816
0.0201866
0.020184
0.0201813
0.02018
0.0201809
0.0201844
0.0201908
0.0201998
0.0202112
0.0202245
0.0202391
0.0202547
0.0202708
0.0202874
0.0203042
0.0203215
0.0203382
0.0203526
0.0203644
0.0203746
0.0203841
0.0203935
0.0204032
0.0204136
0.020425
0.0204373
0.02045
0.0204624
0.020473
0.0204807
0.0204848
0.020486
0.0202346
0.0202322
0.0202312
0.0202328
0.0202366
0.0202425
0.0202503
0.0202598
0.0202708
0.0202829
0.0202957
0.0203089
0.0203224
0.0203359
0.0203495
0.0203632
0.0203763
0.0203874
0.0203965
0.0204042
0.0204113
0.0204182
0.0204252
0.0204327
0.0204408
0.0204497
0.0204593
0.0204689
0.0204777
0.0204846
0.0204886
0.0204899
0.0202933
0.0202922
0.0202946
0.0202993
0.0203053
0.0203122
0.0203199
0.0203282
0.0203372
0.0203466
0.0203564
0.0203663
0.0203761
0.0203859
0.0203956
0.0204052
0.0204144
0.0204221
0.0204284
0.0204337
0.0204385
0.0204431
0.0204477
0.0204526
0.0204579
0.0204637
0.02047
0.0204767
0.0204832
0.0204885
0.020492
0.0204933
0.020365
0.0203666
0.0203714
0.0203769
0.0203825
0.020388
0.0203935
0.0203991
0.0204049
0.0204107
0.0204167
0.0204226
0.0204285
0.0204342
0.0204399
0.0204455
0.0204508
0.0204552
0.0204588
0.0204618
0.0204645
0.0204671
0.0204696
0.0204723
0.0204752
0.0204783
0.0204818
0.0204856
0.0204894
0.0204928
0.0204952
0.0204962
0.0204526
0.0204539
0.0204565
0.0204589
0.0204611
0.0204632
0.0204652
0.0204672
0.0204691
0.0204711
0.020473
0.020475
0.0204769
0.0204788
0.0204806
0.0204824
0.0204841
0.0204855
0.0204867
0.0204877
0.0204885
0.0204893
0.0204901
0.0204909
0.0204918
0.0204928
0.0204939
0.0204951
0.0204963
0.0204974
0.0204983
0.0204987
)
;

boundaryField
{
    movingWall
    {
        type            fixedValue;
        value           uniform 0.0205;
    }
    fixedWalls
    {
        type            zeroGradient;
    }
    floor
    {
        type            zeroGradient;
    }
    frontAndBack
    {
        type            empty;
    }
}


// ************************************************************************* //
