/*--------------------------------*- C++ -*----------------------------------*\
| =========                 |                                                 |
| \\      /  F ield         | OpenFOAM: The Open Source CFD Toolbox           |
|  \\    /   O peration     | Version:  2212                                  |
|   \\  /    A nd           | Website:  www.openfoam.com                      |
|    \\/     M anipulation  |                                                 |
\*---------------------------------------------------------------------------*/
FoamFile
{
    version     2.0;
    format      ascii;
    arch        "LSB;label=64;scalar=64";
    class       volScalarField;
    location    "910";
    object      Xli;
}
// * * * * * * * * * * * * * * * * * * * * * * * * * * * * * * * * * * * * * //

dimensions      [1 -3 0 0 0 0 0];

internalField   nonuniform List<scalar> 
1024
(
0.0424118
0.042412
0.0424125
0.0424135
0.042415
0.0424172
0.0424199
0.0424232
0.0424267
0.0424302
0.0424336
0.0424365
0.0424384
0.0424389
0.0424374
0.0424336
0.0424281
0.0424221
0.0424164
0.042411
0.0424056
0.0423998
0.0423936
0.0423873
0.0423811
0.0423756
0.0423711
0.0423677
0.0423653
0.0423638
0.042363
0.0423626
0.0424118
0.042412
0.0424125
0.0424135
0.0424151
0.0424173
0.0424201
0.0424234
0.0424269
0.0424305
0.0424338
0.0424367
0.0424387
0.0424391
0.0424376
0.0424338
0.0424282
0.0424222
0.0424165
0.0424111
0.0424057
0.0424
0.0423939
0.0423875
0.0423814
0.0423759
0.0423713
0.0423678
0.0423654
0.0423639
0.042363
0.0423627
0.0424118
0.042412
0.0424126
0.0424136
0.0424152
0.0424175
0.0424203
0.0424237
0.0424272
0.0424308
0.0424342
0.0424372
0.0424393
0.0424397
0.042438
0.0424341
0.0424284
0.0424223
0.0424166
0.0424113
0.042406
0.0424003
0.0423943
0.0423881
0.0423819
0.0423763
0.0423717
0.0423681
0.0423656
0.042364
0.0423632
0.0423628
0.0424117
0.042412
0.0424126
0.0424137
0.0424154
0.0424177
0.0424206
0.042424
0.0424277
0.0424313
0.0424349
0.0424381
0.0424403
0.0424408
0.0424388
0.0424345
0.0424285
0.0424224
0.0424167
0.0424114
0.0424062
0.0424007
0.0423949
0.0423888
0.0423827
0.042377
0.0423723
0.0423686
0.042366
0.0423643
0.0423634
0.042363
0.0424117
0.042412
0.0424126
0.0424137
0.0424155
0.0424179
0.0424208
0.0424243
0.042428
0.0424319
0.0424358
0.0424394
0.042442
0.0424424
0.0424401
0.0424351
0.0424286
0.0424222
0.0424164
0.0424112
0.0424062
0.042401
0.0423955
0.0423895
0.0423835
0.0423779
0.042373
0.0423692
0.0423665
0.0423647
0.0423637
0.0423633
0.0424116
0.0424118
0.0424125
0.0424136
0.0424154
0.0424178
0.0424208
0.0424244
0.0424283
0.0424325
0.042437
0.0424413
0.0424444
0.0424448
0.0424418
0.0424358
0.0424285
0.0424215
0.0424156
0.0424105
0.0424057
0.0424009
0.0423958
0.0423901
0.0423843
0.0423787
0.0423738
0.0423698
0.042367
0.0423652
0.0423641
0.0423637
0.0424113
0.0424116
0.0424122
0.0424134
0.0424151
0.0424175
0.0424205
0.0424241
0.0424283
0.0424331
0.0424384
0.0424438
0.0424477
0.0424481
0.042444
0.0424366
0.0424278
0.0424201
0.0424139
0.0424089
0.0424044
0.0424001
0.0423954
0.0423903
0.0423847
0.0423793
0.0423744
0.0423704
0.0423675
0.0423656
0.0423646
0.0423641
0.0424109
0.0424112
0.0424118
0.0424128
0.0424145
0.0424168
0.0424197
0.0424235
0.0424281
0.0424336
0.0424402
0.042447
0.042452
0.0424523
0.0424469
0.0424372
0.0424265
0.0424177
0.042411
0.042406
0.0424019
0.0423981
0.0423941
0.0423895
0.0423845
0.0423793
0.0423746
0.0423707
0.0423678
0.0423659
0.0423649
0.0423644
0.0424103
0.0424106
0.0424111
0.0424121
0.0424135
0.0424157
0.0424186
0.0424225
0.0424277
0.0424343
0.0424426
0.0424513
0.0424575
0.0424576
0.0424502
0.0424376
0.0424243
0.042414
0.0424067
0.0424016
0.0423979
0.0423947
0.0423914
0.0423876
0.0423832
0.0423786
0.0423742
0.0423706
0.0423678
0.042366
0.0423649
0.0423645
0.0424099
0.0424101
0.0424105
0.0424113
0.0424126
0.0424146
0.0424176
0.0424218
0.0424277
0.0424359
0.0424463
0.0424572
0.0424647
0.0424641
0.0424541
0.0424378
0.0424213
0.042409
0.0424008
0.0423955
0.0423921
0.0423896
0.0423872
0.0423842
0.0423807
0.0423768
0.042373
0.0423697
0.0423672
0.0423655
0.0423646
0.0423641
0.0424108
0.0424108
0.0424111
0.0424116
0.0424128
0.0424147
0.0424178
0.0424226
0.0424299
0.0424401
0.042453
0.042466
0.0424742
0.0424721
0.0424586
0.042438
0.042418
0.0424034
0.042394
0.0423883
0.042385
0.042383
0.0423814
0.0423794
0.0423768
0.0423737
0.0423707
0.042368
0.0423659
0.0423644
0.0423635
0.0423631
0.042416
0.042416
0.042416
0.0424163
0.0424172
0.0424192
0.0424229
0.0424288
0.0424379
0.0424504
0.0424654
0.0424796
0.0424869
0.0424819
0.0424642
0.0424395
0.0424162
0.0423993
0.0423881
0.0423812
0.0423774
0.0423756
0.0423744
0.0423733
0.0423716
0.0423695
0.0423673
0.0423652
0.0423635
0.0423622
0.0423614
0.042361
0.0424316
0.0424315
0.0424315
0.0424317
0.0424328
0.0424353
0.0424398
0.0424471
0.0424578
0.0424716
0.0424871
0.0424999
0.0425039
0.0424946
0.0424729
0.0424457
0.0424207
0.0424016
0.0423876
0.0423779
0.0423719
0.0423688
0.0423673
0.0423664
0.0423654
0.0423641
0.0423626
0.0423611
0.0423597
0.0423587
0.042358
0.0423577
0.0424641
0.0424642
0.0424645
0.0424654
0.0424672
0.0424704
0.0424758
0.0424837
0.0424944
0.042507
0.0425195
0.0425275
0.0425261
0.042513
0.0424908
0.0424659
0.0424426
0.0424217
0.042403
0.042387
0.0423751
0.0423671
0.0423625
0.0423599
0.0423585
0.0423573
0.0423563
0.0423554
0.0423547
0.0423543
0.0423542
0.0423542
0.0425131
0.0425135
0.0425145
0.0425163
0.042519
0.0425229
0.0425284
0.0425355
0.0425441
0.0425531
0.0425603
0.042563
0.0425587
0.0425482
0.0425348
0.042521
0.0425059
0.0424864
0.0424628
0.0424376
0.0424142
0.042394
0.0423782
0.0423673
0.0423607
0.0423576
0.0423572
0.0423586
0.0423611
0.0423639
0.0423662
0.0423675
0.0425666
0.0425672
0.0425686
0.0425709
0.0425742
0.0425786
0.0425842
0.0425911
0.0425986
0.0426061
0.0426126
0.0426179
0.0426234
0.0426308
0.0426411
0.042653
0.0426613
0.0426597
0.0426472
0.0426266
0.0426011
0.042573
0.0425454
0.0425209
0.0425016
0.0424879
0.0424802
0.0424779
0.0424795
0.0424832
0.0424868
0.042489
0.0426085
0.0426092
0.042611
0.0426143
0.0426194
0.0426267
0.0426366
0.042649
0.0426638
0.0426808
0.0427003
0.0427237
0.0427528
0.042789
0.0428328
0.0428831
0.0429336
0.0429742
0.0430007
0.0430157
0.0430197
0.0430143
0.0430011
0.0429818
0.0429584
0.0429327
0.0429074
0.0428852
0.0428684
0.0428577
0.0428525
0.0428508
0.0426336
0.0426344
0.0426365
0.0426405
0.0426473
0.0426576
0.042672
0.0426909
0.0427144
0.0427426
0.0427759
0.0428153
0.042862
0.0429167
0.0429795
0.0430494
0.0431195
0.0431796
0.0432272
0.0432666
0.0432982
0.043322
0.0433371
0.0433429
0.043339
0.0433264
0.043307
0.043284
0.0432615
0.0432433
0.0432315
0.0432264
0.0426486
0.0426494
0.0426515
0.0426558
0.042663
0.0426744
0.0426907
0.0427127
0.0427406
0.0427744
0.0428142
0.0428601
0.0429124
0.0429709
0.0430344
0.0431003
0.0431605
0.0432076
0.0432453
0.0432795
0.0433123
0.043344
0.0433731
0.0433981
0.0434169
0.0434285
0.0434324
0.0434297
0.0434224
0.0434137
0.0434066
0.0434029
0.042658
0.0426587
0.0426607
0.0426647
0.0426717
0.0426827
0.0426988
0.0427207
0.042749
0.0427835
0.0428239
0.0428699
0.0429209
0.0429761
0.0430335
0.0430897
0.0431367
0.0431705
0.043198
0.0432264
0.0432586
0.0432945
0.0433323
0.0433688
0.043401
0.0434265
0.0434443
0.0434547
0.043459
0.0434591
0.0434575
0.0434562
0.0426642
0.0426649
0.0426666
0.0426701
0.0426763
0.0426861
0.0427007
0.042721
0.0427472
0.0427795
0.0428173
0.04286
0.0429067
0.0429564
0.0430072
0.0430559
0.0430957
0.0431243
0.0431488
0.0431761
0.0432092
0.0432489
0.0432934
0.0433394
0.0433825
0.0434188
0.0434461
0.0434641
0.043474
0.043478
0.0434787
0.0434783
0.0426701
0.0426705
0.0426717
0.0426744
0.0426794
0.0426877
0.0427002
0.042718
0.0427412
0.0427701
0.042804
0.0428423
0.0428843
0.042929
0.0429749
0.0430198
0.0430582
0.0430883
0.0431151
0.0431441
0.0431784
0.0432193
0.0432662
0.0433167
0.0433663
0.0434107
0.0434461
0.043471
0.0434859
0.043493
0.0434951
0.0434951
0.0426793
0.0426792
0.0426795
0.0426808
0.0426841
0.0426904
0.0427007
0.0427158
0.0427361
0.0427616
0.0427921
0.0428269
0.0428655
0.042907
0.0429506
0.042995
0.0430358
0.0430703
0.0431013
0.043133
0.0431683
0.0432089
0.0432551
0.0433057
0.0433572
0.0434057
0.0434465
0.043477
0.0434964
0.0435064
0.0435099
0.0435103
0.0426963
0.0426954
0.0426942
0.0426935
0.0426945
0.0426985
0.0427066
0.0427196
0.0427379
0.0427616
0.0427903
0.0428236
0.0428609
0.0429016
0.0429451
0.0429909
0.0430352
0.0430741
0.0431086
0.0431422
0.0431774
0.0432163
0.0432598
0.0433074
0.0433572
0.0434057
0.0434488
0.0434829
0.043506
0.0435187
0.0435236
0.0435244
0.0427257
0.0427237
0.0427204
0.0427173
0.0427159
0.0427178
0.0427244
0.0427367
0.0427548
0.0427788
0.042808
0.0428419
0.0428798
0.0429211
0.0429653
0.0430124
0.0430591
0.0431003
0.0431361
0.0431695
0.043203
0.0432387
0.0432778
0.0433206
0.043366
0.0434116
0.043454
0.0434894
0.0435149
0.0435299
0.0435362
0.0435374
0.042771
0.0427677
0.0427624
0.0427571
0.0427541
0.0427554
0.0427624
0.0427759
0.0427959
0.0428219
0.0428531
0.0428885
0.0429273
0.042969
0.043013
0.0430597
0.0431059
0.0431464
0.0431809
0.0432121
0.0432423
0.0432734
0.043307
0.0433435
0.0433828
0.0434234
0.0434626
0.043497
0.0435234
0.04354
0.0435476
0.0435493
0.0428348
0.0428301
0.0428234
0.0428178
0.0428156
0.0428188
0.0428285
0.042845
0.042868
0.0428962
0.0429289
0.0429648
0.0430031
0.0430432
0.0430849
0.0431284
0.043171
0.0432079
0.0432388
0.043266
0.0432918
0.0433177
0.043345
0.0433747
0.0434068
0.0434408
0.043475
0.0435065
0.0435321
0.0435493
0.0435579
0.04356
0.0429182
0.0429126
0.0429066
0.0429037
0.0429057
0.0429134
0.0429273
0.042947
0.0429718
0.0430006
0.0430324
0.0430663
0.0431015
0.0431374
0.043174
0.0432117
0.0432481
0.0432792
0.0433049
0.0433272
0.0433479
0.0433682
0.0433894
0.0434121
0.0434368
0.0434635
0.0434912
0.0435181
0.0435413
0.043558
0.043567
0.0435696
0.0430225
0.0430173
0.0430153
0.0430186
0.0430269
0.0430397
0.0430567
0.0430775
0.0431014
0.0431276
0.0431555
0.0431844
0.0432136
0.0432431
0.0432725
0.0433023
0.0433308
0.043355
0.0433747
0.0433917
0.0434071
0.043422
0.0434373
0.0434536
0.0434713
0.0434906
0.0435113
0.0435324
0.0435516
0.0435664
0.0435752
0.043578
0.0431502
0.043148
0.043153
0.0431633
0.0431764
0.0431914
0.0432081
0.0432263
0.0432458
0.0432664
0.0432876
0.043309
0.0433305
0.0433518
0.0433728
0.0433938
0.0434138
0.0434306
0.0434442
0.0434558
0.0434662
0.0434762
0.0434862
0.0434968
0.0435083
0.043521
0.0435347
0.0435493
0.0435634
0.0435751
0.0435826
0.0435854
0.0433063
0.0433098
0.0433203
0.0433322
0.0433443
0.0433563
0.0433684
0.0433806
0.0433931
0.0434058
0.0434187
0.0434316
0.0434443
0.0434569
0.0434691
0.0434814
0.0434929
0.0435025
0.0435103
0.0435169
0.0435228
0.0435284
0.0435339
0.0435397
0.043546
0.0435528
0.0435604
0.0435686
0.0435769
0.0435843
0.0435895
0.0435917
0.0434969
0.0434997
0.0435053
0.0435105
0.0435154
0.04352
0.0435244
0.0435286
0.0435328
0.0435371
0.0435414
0.0435456
0.0435498
0.0435538
0.0435578
0.0435617
0.0435654
0.0435685
0.043571
0.0435731
0.043575
0.0435768
0.0435785
0.0435803
0.0435822
0.0435844
0.0435867
0.0435893
0.0435919
0.0435944
0.0435963
0.0435972
)
;

boundaryField
{
    movingWall
    {
        type            fixedValue;
        value           uniform 0.0436;
    }
    fixedWalls
    {
        type            zeroGradient;
    }
    floor
    {
        type            zeroGradient;
    }
    frontAndBack
    {
        type            empty;
    }
}


// ************************************************************************* //
