/*--------------------------------*- C++ -*----------------------------------*\
| =========                 |                                                 |
| \\      /  F ield         | OpenFOAM: The Open Source CFD Toolbox           |
|  \\    /   O peration     | Version:  2212                                  |
|   \\  /    A nd           | Website:  www.openfoam.com                      |
|    \\/     M anipulation  |                                                 |
\*---------------------------------------------------------------------------*/
FoamFile
{
    version     2.0;
    format      ascii;
    arch        "LSB;label=64;scalar=64";
    class       volScalarField;
    location    "2500";
    object      nut;
}
// * * * * * * * * * * * * * * * * * * * * * * * * * * * * * * * * * * * * * //

dimensions      [0 2 -1 0 0 0 0];

internalField   nonuniform List<scalar> 
125000
(
0.125565156482
0.126473746929
0.125565155498
0.378829602894
0.126686105549
0.126473744882
0.368895724964
0.125565155499
0.378829586962
0.657333816506
0.126615855514
0.126686104904
0.361256225517
0.126473744861
0.368895749452
0.637697481135
0.125565155494
0.378829587628
0.657333794845
0.963791783453
0.126421255381
0.12661585471
0.356980457661
0.126686105072
0.361256240313
0.620879496898
0.126473744857
0.368895750536
0.637697494233
0.94704296209
0.125565156482
0.378829586687
0.657333795746
0.963791766651
1.28985709897
0.126153069202
0.126421255163
0.354246730119
0.126615854718
0.356980467131
0.611548531919
0.126686104906
0.361256240321
0.620879501766
0.92632794714
0.126473746918
0.368895749507
0.637697495532
0.947042956892
1.28086017935
0.378829602709
0.657333794497
0.963791767241
1.28985710692
1.63804901578
0.125918350038
0.12615306935
0.352520491972
0.126421255129
0.354246743682
0.604475110227
0.12661585474
0.35698046621
0.611548534475
0.912394768485
0.126686105525
0.361256240484
0.620879501463
0.926327932455
1.26295948926
0.368895724899
0.637697494314
0.947042958332
1.28086014794
1.63525758266
0.657333816221
0.963791766383
1.28985710679
1.63804902933
2.01260547201
0.125733872457
0.125918347992
0.351946800459
0.126153069846
0.352520489288
0.599477023821
0.126421255108
0.35424674732
0.604475130378
0.901373784413
0.12661585553
0.356980467012
0.61154853314
0.912394758583
1.24797662864
0.361256225536
0.620879502075
0.926327932034
1.26295946413
1.62307238249
0.637697481056
0.94704295699
1.28086014956
1.63525754846
2.01201525747
0.963791783188
1.28985710688
1.63804902899
2.01260546782
2.41555359402
0.125591384379
0.125733870093
0.351911748791
0.125918347856
0.351946784205
0.596154358112
0.126153069303
0.352520490611
0.59947701436
0.892505683133
0.126421255412
0.354246742858
0.604475136134
0.901373795604
1.23508298838
0.35698045799
0.611548534564
0.912394758657
1.24797660582
1.61012226924
0.620879497046
0.926327932702
1.26295946415
1.62307235449
2.005504673
0.947042962047
1.28086014793
1.63525755006
2.01201523855
2.41547619816
1.28985709885
1.63804902937
2.0126054676
2.41555358032
2.84912413594
0.125479187098
0.125591382478
0.352064658241
0.125733869874
0.35191175196
0.59400871688
0.125918348095
0.351946779399
0.596154335503
0.88578787537
0.126153069063
0.35252049
0.599477015289
0.892505658831
1.2236380717
0.354246729185
0.604475128843
0.901373801631
1.23508298465
1.59794327527
0.611548532493
0.912394758645
1.24797660649
1.61012224191
1.99587007263
0.926327947316
1.26295946419
1.62307235479
2.00550464768
2.41269922543
1.2808601793
1.63525754836
2.01201523993
2.41547618316
2.84906877147
1.63804901577
2.01260546784
2.41555357933
2.84912411874
3.31564486105
0.125391795157
0.125479188727
0.352304831896
0.125591382038
0.352064661386
0.592542193801
0.125733870204
0.35191175259
0.594008727824
0.880708890564
0.125918350085
0.351946785314
0.596154328167
0.885787851194
1.21424816857
0.352520491467
0.599477015696
0.892505657566
1.22363803503
1.58605184216
0.604475108696
0.901373794068
1.23508298996
1.59794325979
1.9860475715
0.912394768705
1.24797660587
1.61012224262
1.99587004697
2.40623600431
1.26295948929
1.62307235453
2.00550464797
2.41269920253
2.84797735769
1.63525758255
2.0120152384
2.41547618488
2.84906875411
3.31557068594
2.01260547203
2.41555358038
2.84912411745
3.31564484445
3.81761877039
0.125319672266
0.125391791599
0.352597929971
0.125479189638
0.35230483085
0.591698554632
0.125591382468
0.352064661949
0.592542196936
0.876761542057
0.125733872536
0.351911751411
0.594008730223
0.880708901016
1.20657187772
0.351946801961
0.596154336884
0.885787844261
1.2142481454
1.57551632355
0.599477023381
0.892505660716
1.22363803205
1.58605180136
1.97565846794
0.901373782853
1.23508298351
1.59794326341
1.98604754693
2.39909500797
1.2479766287
1.61012224204
1.99587004744
2.40623597965
2.84435947609
1.62307238244
2.00550464777
2.41269920282
2.84797733656
3.31502067992
2.01201525731
2.41547618294
2.84906875559
3.31557066489
3.81755748389
2.41555359415
2.84912411879
3.31564484315
3.81761875624
4.35774846356
0.125259511095
0.125319669277
0.352864282762
0.125391791358
0.352597903614
0.591060494629
0.125479188529
0.35230483319
0.591698544669
0.873752292291
0.125591384536
0.352064660856
0.592542199477
0.876761531366
1.20023298696
0.351911748653
0.594008726524
0.880708905482
1.20657187689
1.56636305019
0.596154360441
0.885787852085
1.21424814114
1.575516302
1.96550815527
0.89250568339
1.22363803695
1.58605179809
1.9756584316
2.39129825866
1.23508298703
1.59794325912
1.98604754777
2.39909498216
2.839305797
1.61012226929
1.99587004718
2.40623597981
2.84435944866
3.31332538692
2.00550467295
2.41269920268
2.84797733689
3.31502065783
3.81716174539
2.4154761979
2.84906875386
3.3155706659
3.81755746053
4.35770937801
2.8491241361
3.31564484449
3.81761875506
4.35774845231
4.93894056981
0.125207676805
0.125259513192
0.353128104753
0.125319668448
0.35286430347
0.590681153038
0.125391791833
0.352597895633
0.591060472502
0.871371800263
0.125479186852
0.352304831214
0.591698543262
0.873752277315
1.1949732288
0.352064658061
0.592542196707
0.876761531699
1.20023295887
1.55845388298
0.594008716304
0.880708899544
1.20657188167
1.56636303308
1.95621276934
0.885787877667
1.21424814554
1.57551630092
1.96550813501
2.38257027676
1.22363807255
1.58605180287
1.9756584298
2.39129822617
2.8338753189
1.59794327441
1.98604754687
2.39909498205
2.8393057708
3.30985455296
1.99587007273
2.40623597992
2.84435944804
3.31332535864
3.8163312741
2.41269922541
2.84797733678
3.31502065803
3.8171617215
4.35738856217
2.84906877117
3.31557066466
3.81755746101
4.35770935417
4.93891853721
3.31564486121
3.81761875628
4.35774845131
4.93894056129
5.56431893833
0.125162112836
0.125207676523
0.353366177612
0.125259513973
0.353128113455
0.590521392954
0.125319669317
0.352864306815
0.590681174549
0.869491607973
0.125391795236
0.352597905156
0.591060467259
0.871371790686
1.1905643819
0.352304831118
0.591698545366
0.873752274075
1.1949732182
1.55154428428
0.592542192949
0.876761531957
1.20023295537
1.55845384245
1.94782338694
0.880708889454
1.20657187596
1.56636303635
1.95621273772
2.37429654982
1.2142481701
1.57551630157
1.96550813641
2.38257025567
2.82724346918
1.58605184317
1.97565843234
2.39129822508
2.83387529192
3.30616669901
1.98604757145
2.39909498225
2.83930577019
3.3098545257
3.81429390171
2.40623600447
2.84435944892
3.31332535771
3.8163312465
4.35686014475
2.84797735772
3.31502065805
3.81716172148
4.35738853746
4.93866035017
3.31557068566
3.81755746033
4.35770935411
4.93891851439
5.56430838632
3.81761877053
4.35774845235
4.93894056047
5.56431893217
6.23724325641
0.125121226804
0.125162105924
0.353580578084
0.125207677441
0.353366147134
0.590443377065
0.125259512913
0.353128119872
0.59052139812
0.868060672901
0.125319672499
0.352864301246
0.590681177445
0.869491617027
1.18681979083
0.352597932186
0.591060474024
0.87137178813
1.19056438263
1.54549588537
0.591698554903
0.87375227786
1.1949732163
1.55154428255
1.94013345518
0.876761541892
1.20023296009
1.55845383588
1.94782334296
2.36633368414
1.20657187654
1.56636303304
1.9562127387
2.37429650899
2.8205807657
1.57551632409
1.96550813427
2.38257025795
2.82724344518
3.30164552124
1.97565846854
2.39129822648
2.83387529191
3.30616667286
3.81166954661
2.39909500814
2.83930577092
3.3098545247
3.81429387313
4.35574508649
2.84435947635
3.31332535887
3.81633124555
4.35686011716
4.93824503076
3.31502067996
3.81716172168
4.35738853728
4.93866032589
5.56410379329
3.81755748366
4.357709354
4.93891851386
5.56430836568
6.23724175645
4.35774846367
4.93894056133
5.56431893153
6.2372432522
6.96132861763
0.125084660369
0.125121228726
0.353776002135
0.12516210426
0.353580571999
0.590448080252
0.125207676585
0.353366139679
0.59044334583
0.866869263191
0.125259510887
0.353128113442
0.590521403593
0.868060683894
1.18368997408
0.352864281725
0.590681172107
0.869491619522
1.18681977661
1.54015389877
0.591060496018
0.871371790709
1.19056438592
1.54549588417
1.93317650105
0.873752293092
1.19497321765
1.55154428431
1.94013346159
2.35868208633
1.20023298802
1.55845384376
1.94782333559
2.36633364114
2.81370493924
1.56636304943
1.95621273846
2.37429650791
2.82058072004
3.29661984704
1.96550815494
2.38257025493
2.82724344689
3.3016454954
3.80863389143
2.39129825908
2.83387529193
3.30616667284
3.81166951986
4.35394209077
2.83930579723
3.30985452579
3.81429387183
4.35574505942
4.93754213009
3.31332538719
3.8163312467
4.35686011599
4.9382450039
5.56375108542
3.8171617454
4.35738853758
4.93866032555
5.56410377044
6.23707953142
4.35770937783
4.93891851427
5.56430836474
6.23724173891
6.96133550389
4.9389405699
5.56431893221
6.23724325173
6.96132861497
7.74046526288
0.125051397822
0.125084663126
0.353959301103
0.125121228851
0.353776041015
0.590516847361
0.125162106295
0.353580565975
0.590448068303
0.865976113117
0.125207676584
0.353366149274
0.590443337975
0.866869244633
1.18101205145
0.353128102874
0.590521398327
0.868060689475
1.1836899763
1.53548487905
0.590681152074
0.869491615781
1.18681977512
1.54015385844
1.92688221605
0.871371800976
1.19056438177
1.5454958913
1.93317648605
2.35168952725
1.19497322919
1.55154428063
1.94013346771
2.35868209522
2.8067934194
1.55845388503
1.94782334385
2.36633363394
2.81370489939
3.29123167659
1.95621276919
2.37429651021
2.82058071733
3.29661980135
3.80513656534
2.38257027599
2.82724344461
3.30164549633
3.80863386299
4.35184931882
2.83387531901
3.30616667278
3.81166951948
4.35394206166
4.93644605939
3.30985455319
3.81429387311
4.35574505845
4.93754210427
5.56323023494
3.81633127435
4.35686011733
4.93824500255
5.56375106043
6.2367759408
4.35738856214
4.93866032595
5.56410376986
6.23707951077
6.96120572023
4.93891853709
5.56430836559
6.23724173767
6.96133549018
7.7404800889
5.5643189384
6.23724325223
6.96132861466
7.74046526138
8.57883926963
0.125021152316
0.125051390782
0.354124632525
0.125084665024
0.353959276366
0.590634500328
0.12512122832
0.353776052796
0.590516904678
0.865303488918
0.125162113265
0.353580571242
0.590448058975
0.865976091009
1.17872995254
0.353366179546
0.590443347998
0.866869241654
1.18101203909
1.53133655664
0.59052139123
0.868060683122
1.18368997832
1.5354848835
1.92122725275
0.869491607051
1.18681977695
1.54015385086
1.92688215976
2.34513647584
1.19056438098
1.54549588347
1.93317649287
2.3516894967
2.80036071034
1.55154428352
1.94013345862
2.35868210388
2.80679342644
3.2854478758
1.9478233893
2.36633364142
2.81370489307
3.29123164011
3.80126818562
2.37429655027
2.82058072145
3.29661979801
3.80513652444
4.34944782585
2.82724346842
3.301645495
3.80863386245
4.35184928958
4.93491004857
3.30616669904
3.81166951974
4.35394206021
4.93644603028
5.56250526509
3.81429390185
4.35574505935
4.93754210326
5.56323021062
6.23635076913
4.35686014495
4.93824500402
5.56375105903
6.23677591863
6.9609450477
4.93866035012
5.56410377045
6.23707950991
6.96120570247
7.74037559945
5.56430838625
6.23724173885
6.96133548876
7.74048007959
8.57886127327
6.23724325647
6.961328615
7.74046526121
8.57883926895
9.48095485477
0.124993425106
0.12502115105
0.354277907336
0.125051389254
0.354124593578
0.590771709871
0.125084663029
0.353959275507
0.590634451236
0.864792642011
0.125121226773
0.353776038249
0.590516921812
0.865303535599
1.17684274745
0.353580579448
0.59044806764
0.865976079911
1.17872992798
1.52765569044
0.590443378928
0.86686924593
1.18101203927
1.53133654412
1.9160077425
0.868060671145
1.18368997526
1.53548488572
1.9212272607
2.33908125962
1.18681979104
1.54015386014
1.92688214739
2.3451364088
2.79416815006
1.5454958833
1.93317648628
2.3516895012
2.80036066632
3.2799295677
1.940133453
2.35868209185
2.80679343602
3.28544787716
3.79677676832
2.36633368634
2.8137048992
3.29123163487
3.80126815143
4.34683883275
2.82058076654
3.29661980265
3.8051365217
4.34944779248
4.93321995492
3.3016455206
3.80863386286
4.35184928842
4.9349100195
5.56148860762
3.8116695466
4.35394206154
4.93644602817
5.5625052381
6.23580187506
4.35574508656
4.9375421042
5.56323020929
6.23635074737
6.9605820039
4.93824503091
5.56375106051
6.23677591722
6.96094502904
7.74015253646
5.56410379323
6.23707951076
6.96120570133
7.74037558521
8.57877731754
6.23724175641
6.96133549014
7.74048007809
8.5788612687
9.48098302093
6.96132861767
7.74046526141
8.57883926888
9.48095485458
10.4516585355
0.124967860107
0.124993425834
0.354416716697
0.125021150582
0.354277954487
0.590933510603
0.125051391206
0.354124576798
0.59077167283
0.864392854629
0.125084659867
0.353959279376
0.590634445056
0.864792588549
1.17520918616
0.353775998881
0.590516900724
0.86530354964
1.1768427605
1.52439777231
0.590448082297
0.865976091184
1.17872991908
1.52765565366
1.91125762357
0.866869263569
1.18101203994
1.53133654666
1.91600772247
2.33338951092
1.18368997309
1.53548488145
1.9212272654
2.33908126969
2.78830289488
1.54015390066
1.92688216178
2.34513639337
2.79416808158
3.2745000312
1.93317649893
2.35168949788
2.80036066727
3.27992951593
3.7922481802
2.35868208325
2.80679342316
3.28544788579
3.79677675882
4.34362516763
2.81370494107
3.29123163963
3.80126814705
4.34683879785
4.93143383087
3.29661984793
3.80513652528
4.34944779034
4.93321992391
5.56021890341
3.80863389122
4.35184928952
4.93491001773
5.56148857919
6.23510866918
4.35394209071
4.9364460302
5.56250523599
6.23580185068
6.96013058647
4.93754213013
5.56323021057
6.23635074581
6.96058198579
7.73983700319
5.5637510855
6.23677591867
6.96094502761
7.74015252181
8.57858688973
6.23707953136
6.96120570245
7.74037558383
8.57877730734
9.48091636885
6.96133550387
7.74048007957
8.57886126723
9.4809830212
10.4516917777
7.7404652629
8.57883926896
9.4809548546
10.4516585356
11.4961652072
0.124944364727
0.124967864288
0.354545248272
0.124993426022
0.354416711963
0.591106048961
0.125021150954
0.354277966431
0.590933587569
0.864116966312
0.125051398207
0.354124594721
0.590771651113
0.864392842671
1.17380256087
0.353959301095
0.590634456448
0.864792579413
1.17520917784
1.52152037075
0.590516842622
0.865303532315
1.17684276424
1.52439777403
1.90688321824
0.865976115589
1.17872992857
1.52765564359
1.91125757508
2.32808559249
1.18101205073
1.53133654494
1.91600772457
2.33338948369
2.78268097425
1.53548487783
1.921227258
2.33908127567
2.78830290253
3.26924339847
1.92688221917
2.34513641102
2.7941680654
3.27449996669
3.78778412672
2.35168952556
2.80036066821
3.2799295137
3.79224812921
4.34007625054
2.80679341585
3.28544787434
3.79677676411
4.3436251497
4.92933623566
3.29123167792
3.8012681509
4.34683879375
4.93143379886
5.55889685378
3.80513656581
4.34944779271
4.93321992127
5.5602188749
6.23420170535
4.35184931871
4.93491001948
5.56148857618
6.2351086442
6.95959526205
4.93644605934
5.56250523809
6.23580184818
6.96013056573
7.73944958598
5.56323023495
6.23635074733
6.96058198414
7.73983698955
8.578311164
6.23677594084
6.96094502905
7.74015252036
8.5785868795
9.48075423162
6.96120572018
7.74037558519
8.57877730581
9.48091636305
10.451640053
7.7404800889
8.57886126869
9.48098301987
10.4516917826
11.496202482
8.57883926964
9.48095485459
10.4516585356
11.4961652073
12.6200862057
0.124922675337
0.124944355951
0.354665873981
0.124967866304
0.354545237808
0.591288438628
0.124993425619
0.354416713609
0.5911060169
0.863922953499
0.125021152439
0.354277950797
0.5909336099
0.864117035805
1.17265510186
0.354124636824
0.59077167274
0.864392826715
1.17380255833
1.51894523983
0.590634501344
0.864792593618
1.17520917784
1.52152035009
1.90293456859
0.865303484913
1.17684275911
1.52439777457
1.90688320835
2.32305049133
1.17872995466
1.52765565508
1.91125756329
2.32808553839
2.77735738606
1.53133655517
1.9160077235
2.33338948545
2.7826809407
3.2641102848
1.92122725074
2.33908126641
2.78830290879
3.26924339998
3.78336130958
2.34513647977
2.79416808349
3.2744999514
3.78778406889
4.33656925259
2.80036070941
3.27992951811
3.79224812556
4.34007620216
4.92675851546
3.28544787234
3.79677675685
4.34362515188
4.92933621261
5.55751019141
3.80126818647
4.34683879762
4.93143379532
5.55889682542
6.23317389492
4.34944782595
4.93321992397
5.56021887189
6.23420168058
6.95895724117
4.93491004851
5.56148857918
6.23510864121
6.95959524147
7.7390032225
5.56250526509
6.23580185073
6.96013056299
7.73944957004
8.57797184898
6.23635076909
6.96058198575
7.73983698791
8.57831115534
9.4805132698
6.96094504773
7.74015252181
8.57858687808
9.48075422609
10.451502614
7.74037559941
8.57877730732
9.48091636146
10.4516400517
11.496163763
8.57886127328
9.4809830212
10.4516917815
11.4962024913
12.6201265545
9.48095485477
10.4516585356
11.4961652074
12.6200862057
13.8294594793
0.124902576095
0.124922675886
0.354776470387
0.124944354458
0.354665845233
0.591477795078
0.124967864063
0.354545237354
0.59128840397
0.863807404356
0.124993425064
0.354416712849
0.591106013089
0.863922891999
1.17167302895
0.354277904166
0.590933582475
0.864117059696
1.17265512909
1.51668612657
0.590771715415
0.864392840602
1.17380254942
1.51894526165
1.89930453782
0.864792643532
1.17520917862
1.52152034491
1.90293455631
2.31846199577
1.17684274596
1.5243977729
1.90688320549
2.32305047326
2.77220853322
1.52765569301
1.91125757708
2.32808552618
2.77735732683
3.25916930799
1.91600774107
2.33338948497
2.78268094116
3.26411024814
3.77896543477
2.33908125711
2.78830289929
3.269243405
3.78336130357
4.33302951191
2.79416815406
3.27449996815
3.7877840554
4.3365692017
4.92401302428
3.27992956745
3.79224813112
4.34007619704
4.92675847441
5.55581653497
3.7967767656
4.34362514848
4.92933621209
5.55751016667
6.23213632014
4.34683883343
4.93143379869
5.55889682217
6.23317387029
6.95816998082
4.93321995493
5.5602188749
6.23420167681
6.95895722186
7.73850144736
5.56148860762
6.23510864418
6.9595952383
7.73900320703
8.577584689
6.23580187511
6.96013056582
7.7394495673
8.57797183872
9.48021351795
6.96058200383
7.7398369895
8.57831115381
9.48051326637
10.4512925364
7.74015253648
8.5785868795
9.48075422476
10.4515026132
11.4960480861
8.57877731751
9.48091636304
10.4516400502
11.4961637662
12.6200991741
9.48098302094
10.4516917826
11.4962024905
12.6201265676
13.8295020345
10.4516585355
11.4961652073
12.6200862058
13.8294594793
15.130782037
0.124883783233
0.124902583499
0.354877362352
0.124922675231
0.354776534344
0.591665602713
0.124944356593
0.35466583768
0.591477793148
0.863749141753
0.124967859579
0.354545238971
0.591288390155
0.863807380633
1.17086602127
0.354416715841
0.591106020284
0.863922877629
1.17167296326
1.51467304039
0.590933504509
0.864117032124
1.17265514286
1.51668611281
1.89600413088
0.864392858598
1.17380255648
1.51894526476
1.89930455275
2.31411134795
1.17520918541
1.52152035088
1.90293455277
2.31846199264
2.76736804125
1.52439777154
1.90688320739
2.32305046822
2.77220850938
3.25432864931
1.91125762661
2.32808554048
2.77735731358
3.25916924853
3.77466391665
2.33338950953
2.78268094206
3.26411024721
3.77896539828
4.32945576578
2.78830289216
3.26924339716
3.78336130633
4.33302949885
4.92129755613
3.27450003477
3.78778406994
4.33656918997
4.92401297956
5.5537865819
3.7922481802
4.34007620372
4.92675846896
5.55581650136
6.2310248949
4.3436251657
4.9293362119
5.55751016453
6.23213629611
6.95734275376
4.93143383119
5.55889682535
6.23317386683
6.9581699603
7.73792694935
5.56021890339
6.23420168051
6.95895721873
7.73850143415
8.57716108086
6.23510866922
6.95959524146
7.73900320382
8.5775846793
9.47987133267
6.96013058654
7.73944957014
8.57797183623
9.48021351388
10.4510271495
7.7398370031
8.5783111553
9.48051326503
10.4512925382
11.4958656778
8.57858688975
9.48075422609
10.4515026121
11.4960480901
12.6200027968
9.48091636883
10.4516400517
11.4961637648
12.6200991815
13.82948449
10.4516917777
11.4962024913
12.6201265672
13.8295020506
15.1308260187
11.4961652072
12.6200862057
13.8294594793
15.1307820368
16.5310448529
0.124866283924
0.124883774622
0.354970308816
0.124902586401
0.354877340677
0.59185296447
0.124922675528
0.354776548409
0.591665691529
0.863730796185
0.124944365016
0.354665847129
0.59147778603
0.863749163026
1.17017856037
0.354545248063
0.591288405543
0.863807365927
1.17086601393
1.5129233762
0.591106049002
0.863922896923
1.17167294363
1.5146729995
1.89297275462
0.864116959533
1.17265512856
1.51668611398
1.89600408661
2.3100551703
1.17380256274
1.51894525894
1.89930455908
2.3141113459
2.76272119644
1.521520371
1.9029345558
2.31846199232
2.76736804708
3.24967275398
1.90688321819
2.32305047239
2.77220850234
3.25432862379
3.77040507014
2.32808559554
2.77735732902
3.25916923514
3.77466386054
4.32590297954
2.78268097313
3.26411024935
3.77896539618
4.32945573188
4.9185113376
3.26924339596
3.78336130134
4.33302949895
4.92129753785
5.55169199457
3.78778412962
4.33656920245
4.92401296939
5.55378654531
6.22967238029
4.34007625072
4.92675847535
5.55581649608
6.23102486839
6.95650792558
4.92933623447
5.55751016628
6.23213629268
6.95734273325
7.7372567673
5.5588968538
6.23317387024
6.95816995594
7.73792693401
8.5766994535
6.23420170526
6.95895722173
7.73850143138
8.57716107381
9.47950006957
6.95959526214
7.73900320704
8.57758467629
9.47987132921
10.4507222075
7.73944958605
8.57797183881
9.48021351184
10.4510271517
11.4956310474
8.57831116392
9.48051326633
10.4512925372
11.4958656847
12.6198453154
9.48075423165
10.4515026132
11.4960480892
12.6200028051
13.8294052601
10.451640053
11.4961637662
12.6200991804
13.8294845011
15.1308169309
11.496202482
12.6201265676
13.8295020506
15.130826037
16.5310895672
12.6200862057
13.8294594793
15.1307820369
16.5310448527
18.0377704235
0.124849906858
0.124866272827
0.355056485309
0.124883773481
0.35497022178
0.59203672714
0.124902583115
0.354877343078
0.591852901498
0.863754503261
0.124922675549
0.354776529346
0.591665718943
0.863730865478
1.16959998346
0.354665875589
0.591477791839
0.863749161718
1.17017858321
1.51132798788
0.591288441647
0.863807380812
1.17086600314
1.51292335985
1.89022149023
0.863922955987
1.1716729675
1.51467298431
1.89297273664
2.30623410043
1.17265509744
1.51668611451
1.89600407693
2.31005511027
2.75833197508
1.51894523853
1.8993045512
2.31411135071
2.76272117228
3.24513869799
1.90293456825
2.31846199108
2.76736805076
3.24967276054
3.7662374968
2.32305049166
2.77220850837
3.25432861609
3.77040504479
4.32235227308
2.77735738909
3.25916925055
3.77466384773
4.32590292945
4.91569865445
3.26411028394
3.77896539919
4.32945572884
4.91851130778
5.54958448422
3.78336130757
4.33302949725
4.92129753551
5.55169197357
6.22809292206
4.33656925478
4.9240129802
5.55378653658
6.22967235181
6.95560537862
4.92675851557
5.55581650184
6.23102486402
6.95650790532
7.73657945461
5.55751019086
6.23213629604
6.95734272921
7.7372567524
8.57619175765
6.23317389485
6.95816996032
7.73792693018
8.57669944495
9.47910559584
6.958957241
7.73850143399
8.57716107137
9.47950006868
10.450390989
7.73900322262
8.57758467932
9.47987132669
10.4507222105
11.4953586311
8.57797184901
9.48021351393
10.4510271502
11.4956310555
12.619638631
9.48051326974
10.4512925382
11.4958656841
12.619845327
13.8292703049
10.451502614
11.4960480901
12.6200028046
13.8294052723
15.1307529022
11.496163763
12.6200991815
13.8294845004
15.1308169452
16.5310876617
12.6201265545
13.8295020506
15.1308260375
16.531089587
18.0378152614
13.8294594793
15.1307820368
16.5310448527
18.0377704233
19.6590531794
0.124834638106
0.124849916597
0.355136035826
0.124866268744
0.355056535812
0.592217390103
0.124883775311
0.354970191582
0.592036626991
0.863805535866
0.124902575356
0.354877344008
0.591852893816
0.863754416064
1.16913329031
0.354776466927
0.591665686702
0.863730889665
1.16960001525
1.50992943809
0.591477796776
0.86374916021
1.17017858456
1.5113280017
1.88771223891
0.863807407347
1.17086601288
1.51292334848
1.89022150147
2.30268150784
1.17167303269
1.51467300133
1.89297272558
2.30623410243
2.75405780112
1.51668612529
1.89600408951
2.31005509363
2.75833191192
3.24078261086
1.8993045355
2.31411134576
2.7627211722
3.24513865914
3.76212965943
2.31846199445
2.7673680448
3.24967276566
3.76623749913
4.31883033626
2.77220853392
3.25432862262
3.77040503708
4.32235224867
4.91286304161
3.25916931072
3.77466386226
4.32590291772
4.91569861222
5.5474267912
3.77896543407
4.32945573245
4.91851130401
5.54958445925
6.22648610494
4.33302951052
4.92129753682
5.55169196923
6.22809290152
6.95454091896
4.92401302584
5.55378654576
6.22967234465
6.95560535787
7.73589733466
5.55581653498
6.23102486855
6.95650790108
7.7365794406
8.57562121402
6.23213632002
6.9573427333
7.73725674764
8.57619174826
9.47868749165
6.95816998076
7.73792693407
8.57669944173
9.47910559454
10.4500423809
7.73850144716
8.57716107366
9.4795000667
10.4503909943
11.4950609376
8.57758468913
9.47987132924
10.4507222087
11.4953586403
12.6193955491
9.48021351795
10.4510271517
11.4956310547
12.6196386445
13.8290891993
10.4512925363
11.4958656847
12.6198453269
13.8292703205
15.1306383026
11.4960480861
12.6200028051
13.8294052722
15.1307529175
16.5310370381
12.6200991741
13.8294845011
15.1308169449
16.5310876785
18.0378193605
13.8295020345
15.130826037
16.5310895879
18.0378152819
19.6590976154
15.130782037
16.5310448527
18.0377704233
19.6590531792
21.4036029699
0.124820212871
0.124834645956
0.355210492061
0.124849918361
0.355136115581
0.592393829548
0.12486627315
0.355056539152
0.59221746959
0.863882991188
0.124883783396
0.354970225661
0.592036587549
0.863805470919
1.16874385458
0.354877360875
0.591852908156
0.863754396821
1.16913322109
1.50871453473
0.591665595279
0.863730862636
1.16960002704
1.50992943803
1.88540793695
0.863749141836
1.17017858087
1.511328002
1.88771220955
2.29940080279
1.17086602297
1.51292335952
1.89022150277
2.30268152469
2.75006829899
1.51467304294
1.89297273592
2.3062340967
2.75405781273
3.23652205857
1.89600413231
2.31005511334
2.75833189232
3.24078255201
3.75811391826
2.31411134577
2.76272117357
3.24513865462
3.76212961418
4.3153272202
2.76736803875
3.24967275824
3.76623750349
4.3188303326
4.91001982837
3.25432865001
3.7704050436
4.32235224115
4.91286301859
5.54523394206
3.7746639189
4.3259029308
4.91569860193
5.54742675782
6.22486345106
4.32945576518
4.91851130803
5.54958445494
6.22648608551
6.95331119744
4.92129755533
5.55169197298
6.22809289575
6.95454090195
7.73515621073
5.55378658285
6.22967235208
6.95560535264
7.7358973222
8.57505812879
6.23102489483
6.95650790538
7.73657943643
8.57562120874
9.47824068667
6.95734275377
7.73725675249
8.57619174423
9.47868748917
10.4496796552
7.7379269493
8.57669944501
9.47910559211
10.4500423867
11.4947476935
8.57716108069
9.47950006856
10.4503909929
11.4950609488
12.6191274588
9.47987133279
10.4507222105
11.4953586395
12.6193955641
13.8288730532
10.4510271495
11.4956310555
12.6196386445
13.8290892173
15.1304806748
11.4958656778
12.619845327
13.8292703211
15.1306383216
16.5309407752
12.6200027968
13.8294052723
15.1307529179
16.5310370559
18.0377804694
13.82948449
15.1308169452
16.5310876786
18.0378193789
19.6591066357
15.1308260187
16.531089587
18.0378152832
19.659097636
21.4036465591
16.5310448529
18.0377704233
19.6590531792
21.40360297
23.2807918549
0.124806667636
0.124820197238
0.355278166508
0.124834649924
0.355210418452
0.59256675976
0.124849915705
0.35513614514
0.592393884907
0.863979330828
0.124866284947
0.355056530356
0.59221747915
0.863883062567
1.16843446273
0.354970316243
0.5920366308
0.863805439009
1.16874383196
1.50762372255
0.591852964815
0.863754423468
1.16913320069
1.50871451093
1.88333262962
0.863730789181
1.16960001444
1.50992943724
1.88540792151
2.29630480515
1.17017855946
1.51132800027
1.88771220011
2.29940074274
2.74631317456
1.51292337773
1.89022150024
2.3026815317
2.75006830487
3.23240188819
1.89297275613
2.30623409979
2.75405781125
3.23652207652
3.75416739275
2.31005517345
2.75833191447
3.24078253233
3.75811386767
4.31185142106
2.76272119527
3.24513866116
3.76212960659
4.3153271757
4.9071735166
3.24967275097
3.76623749718
4.31883033483
4.91001981946
5.54301638823
3.7704050707
4.32235224762
4.9128630113
5.54523392117
6.22320229057
4.32590298123
4.91569861318
5.54742674913
6.2248634268
6.95206975244
4.91851133708
5.54958445926
6.226486081
6.95331118361
7.73432505913
5.55169199425
6.22809290128
6.95454089623
7.7351561986
8.57449349956
6.22967238077
6.95560535798
7.73589731835
8.57505812366
9.47775335084
6.95650792561
7.73657944064
8.57562120489
9.4782406888
10.4493042382
7.73725676742
8.57619174837
9.47868748617
10.4496796604
11.4944242297
8.57669945344
9.47910559458
10.4500423852
11.4947477059
12.6188441009
9.47950006945
10.4503909942
11.4950609483
12.6191274756
13.8286319372
10.4507222076
11.4953586404
12.6193955642
13.8288730731
15.1302894722
11.4956310474
12.6196386444
13.8290892181
15.1304806964
16.5308046811
12.6198453154
13.8292703205
15.1306383228
16.5309407968
18.0377006342
13.8294052601
15.1307529175
16.5310370567
18.0377804889
19.6590779177
15.1308169309
16.5310876785
18.0378193796
19.6591066552
21.4036595131
16.5310895672
18.0378152819
19.6590976376
21.4036465793
23.2808342274
18.0377704235
19.6590531792
21.40360297
23.2807918551
25.3007044529
0.124793947929
0.124806664596
0.355341476142
0.124820193617
0.355278098637
0.592728870338
0.124834645766
0.355210405804
0.592566693086
0.86409203835
0.124849906553
0.355136112453
0.592393909647
0.863979367692
1.16818663896
0.355056485286
0.592217462295
0.863883072829
1.16843448927
1.50667870198
0.592036736804
0.863805472462