/*--------------------------------*- C++ -*----------------------------------*\
| =========                 |                                                 |
| \\      /  F ield         | OpenFOAM: The Open Source CFD Toolbox           |
|  \\    /   O peration     | Version:  2206                                  |
|   \\  /    A nd           | Website:  www.openfoam.com                      |
|    \\/     M anipulation  |                                                 |
\*---------------------------------------------------------------------------*/
FoamFile
{
    version     2.0;
    format      ascii;
    arch        "LSB;label=64;scalar=64";
    class       volVectorField;
    location    "396000";
    object      U;
}
// * * * * * * * * * * * * * * * * * * * * * * * * * * * * * * * * * * * * * //

dimensions      [0 1 -1 0 0 0 0];

internalField   nonuniform List<vector> 
16
(
(7.42427e-08 -7.903e-08 0)
(2.21878e-07 -3.39606e-08 0)
(2.11641e-07 5.04709e-08 0)
(6.24419e-08 6.55015e-08 0)
(4.77462e-08 -2.18187e-07 0)
(6.11088e-08 -1.03386e-07 0)
(7.0361e-08 1.10566e-07 0)
(5.86897e-08 2.09029e-07 0)
(-2.79688e-08 -1.88031e-07 0)
(-1.36928e-07 -5.10529e-08 0)
(-1.36099e-07 4.86618e-08 0)
(-2.15285e-08 1.92244e-07 0)
(-9.50183e-08 -5.71558e-08 0)
(-1.45504e-07 5.21894e-09 0)
(-1.48573e-07 -6.3581e-09 0)
(-9.57587e-08 5.60126e-08 0)
)
;

boundaryField
{
    movingWall
    {
        type            noSlip;
    }
    fixedWalls
    {
        type            noSlip;
    }
    frontAndBack
    {
        type            empty;
    }
}


// ************************************************************************* //
