/*--------------------------------*- C++ -*----------------------------------*\
| =========                 |                                                 |
| \\      /  F ield         | OpenFOAM: The Open Source CFD Toolbox           |
|  \\    /   O peration     | Version:  2212                                  |
|   \\  /    A nd           | Website:  www.openfoam.com                      |
|    \\/     M anipulation  |                                                 |
\*---------------------------------------------------------------------------*/
FoamFile
{
    version     2.0;
    format      ascii;
    arch        "LSB;label=64;scalar=64";
    class       volScalarField;
    location    "290";
    object      Gh2;
}
// * * * * * * * * * * * * * * * * * * * * * * * * * * * * * * * * * * * * * //

dimensions      [1 -3 0 0 0 0 0];

internalField   nonuniform List<scalar> 
1024
(
1.21532e-05
1.21518e-05
1.21483e-05
1.21424e-05
1.21342e-05
1.21243e-05
1.21136e-05
1.2103e-05
1.20932e-05
1.20846e-05
1.20781e-05
1.20738e-05
1.2072e-05
1.2073e-05
1.20775e-05
1.20862e-05
1.20993e-05
1.21144e-05
1.21296e-05
1.21447e-05
1.21596e-05
1.21744e-05
1.21893e-05
1.22043e-05
1.22191e-05
1.22328e-05
1.22449e-05
1.22546e-05
1.22616e-05
1.22663e-05
1.22689e-05
1.227e-05
1.2153e-05
1.21515e-05
1.21478e-05
1.21417e-05
1.21333e-05
1.21232e-05
1.21124e-05
1.21017e-05
1.20918e-05
1.20831e-05
1.20766e-05
1.20724e-05
1.20706e-05
1.20717e-05
1.20762e-05
1.2085e-05
1.20981e-05
1.21131e-05
1.21284e-05
1.21434e-05
1.21582e-05
1.2173e-05
1.21878e-05
1.22028e-05
1.22176e-05
1.22315e-05
1.22438e-05
1.22537e-05
1.2261e-05
1.22658e-05
1.22685e-05
1.22697e-05
1.21526e-05
1.21509e-05
1.2147e-05
1.21406e-05
1.21318e-05
1.21214e-05
1.21103e-05
1.20993e-05
1.20889e-05
1.20798e-05
1.2073e-05
1.20689e-05
1.20673e-05
1.20687e-05
1.20735e-05
1.20826e-05
1.20957e-05
1.21108e-05
1.2126e-05
1.21409e-05
1.21556e-05
1.21701e-05
1.21848e-05
1.21997e-05
1.22145e-05
1.22287e-05
1.22414e-05
1.22518e-05
1.22596e-05
1.22647e-05
1.22676e-05
1.22688e-05
1.2152e-05
1.21503e-05
1.21462e-05
1.21394e-05
1.21302e-05
1.21194e-05
1.21077e-05
1.20959e-05
1.20845e-05
1.20742e-05
1.20668e-05
1.20626e-05
1.20615e-05
1.20636e-05
1.20691e-05
1.20789e-05
1.20925e-05
1.21077e-05
1.21228e-05
1.21375e-05
1.21519e-05
1.21662e-05
1.21805e-05
1.21952e-05
1.221e-05
1.22244e-05
1.22377e-05
1.22488e-05
1.22573e-05
1.22629e-05
1.22661e-05
1.22674e-05
1.21514e-05
1.21496e-05
1.21455e-05
1.21385e-05
1.21289e-05
1.21175e-05
1.21049e-05
1.20918e-05
1.20787e-05
1.20665e-05
1.20578e-05
1.20534e-05
1.20528e-05
1.2056e-05
1.2063e-05
1.20741e-05
1.20888e-05
1.21044e-05
1.21195e-05
1.21341e-05
1.21481e-05
1.21619e-05
1.21757e-05
1.21899e-05
1.22045e-05
1.22191e-05
1.2233e-05
1.22449e-05
1.22542e-05
1.22605e-05
1.2264e-05
1.22655e-05
1.2151e-05
1.21492e-05
1.2145e-05
1.2138e-05
1.21281e-05
1.2116e-05
1.21023e-05
1.20874e-05
1.2072e-05
1.20573e-05
1.20467e-05
1.20416e-05
1.20416e-05
1.20464e-05
1.20555e-05
1.20689e-05
1.20853e-05
1.21018e-05
1.21171e-05
1.21314e-05
1.2145e-05
1.21581e-05
1.21713e-05
1.21848e-05
1.2199e-05
1.22136e-05
1.22279e-05
1.22406e-05
1.22506e-05
1.22575e-05
1.22615e-05
1.2263e-05
1.21508e-05
1.21491e-05
1.2145e-05
1.2138e-05
1.2128e-05
1.21153e-05
1.21002e-05
1.20833e-05
1.20652e-05
1.20476e-05
1.20345e-05
1.20282e-05
1.20289e-05
1.20357e-05
1.20478e-05
1.20644e-05
1.20834e-05
1.21012e-05
1.21169e-05
1.21309e-05
1.21438e-05
1.21562e-05
1.21684e-05
1.2181e-05
1.21945e-05
1.22088e-05
1.22232e-05
1.22364e-05
1.2247e-05
1.22544e-05
1.22587e-05
1.22603e-05
1.2151e-05
1.21493e-05
1.21454e-05
1.21386e-05
1.21286e-05
1.21153e-05
1.20991e-05
1.20801e-05
1.2059e-05
1.20382e-05
1.20223e-05
1.20147e-05
1.20161e-05
1.20255e-05
1.20414e-05
1.20623e-05
1.20847e-05
1.21043e-05
1.21202e-05
1.21338e-05
1.21459e-05
1.21571e-05
1.21681e-05
1.21796e-05
1.21921e-05
1.22057e-05
1.22198e-05
1.22331e-05
1.2244e-05
1.22516e-05
1.2256e-05
1.22577e-05
1.21516e-05
1.21501e-05
1.21463e-05
1.21398e-05
1.21299e-05
1.21164e-05
1.20991e-05
1.2078e-05
1.20538e-05
1.20294e-05
1.20105e-05
1.20018e-05
1.20046e-05
1.20175e-05
1.20383e-05
1.20645e-05
1.20913e-05
1.21128e-05
1.21289e-05
1.21417e-05
1.21525e-05
1.21622e-05
1.21716e-05
1.21815e-05
1.21926e-05
1.22051e-05
1.22185e-05
1.22313e-05
1.22419e-05
1.22495e-05
1.22537e-05
1.22554e-05
1.2153e-05
1.21514e-05
1.21479e-05
1.21417e-05
1.21321e-05
1.21185e-05
1.21002e-05
1.20768e-05
1.2049e-05
1.20205e-05
1.19986e-05
1.19893e-05
1.19943e-05
1.20119e-05
1.2039e-05
1.20723e-05
1.21047e-05
1.21285e-05
1.21445e-05
1.21559e-05
1.21647e-05
1.21723e-05
1.21795e-05
1.21874e-05
1.21967e-05
1.22076e-05
1.22197e-05
1.22314e-05
1.22413e-05
1.22483e-05
1.22523e-05
1.22539e-05
1.21551e-05
1.21536e-05
1.21503e-05
1.21445e-05
1.21353e-05
1.21216e-05
1.21022e-05
1.20759e-05
1.20436e-05
1.20104e-05
1.19854e-05
1.1976e-05
1.1984e-05
1.20071e-05
1.20419e-05
1.20842e-05
1.21244e-05
1.21517e-05
1.21676e-05
1.21771e-05
1.21833e-05
1.2188e-05
1.21924e-05
1.21976e-05
1.22045e-05
1.22133e-05
1.22235e-05
1.22336e-05
1.22422e-05
1.22484e-05
1.2252e-05
1.22535e-05
1.21578e-05
1.21565e-05
1.21534e-05
1.21478e-05
1.21389e-05
1.21248e-05
1.21037e-05
1.20736e-05
1.20358e-05
1.19974e-05
1.19694e-05
1.196e-05
1.19708e-05
1.19993e-05
1.20422e-05
1.20955e-05
1.21467e-05
1.21799e-05
1.21966e-05
1.22044e-05
1.22077e-05
1.2209e-05
1.22099e-05
1.22119e-05
1.22159e-05
1.2222e-05
1.22298e-05
1.22379e-05
1.22449e-05
1.225e-05
1.22532e-05
1.22545e-05
1.21601e-05
1.21588e-05
1.21558e-05
1.21502e-05
1.21407e-05
1.21253e-05
1.21011e-05
1.20662e-05
1.20226e-05
1.19797e-05
1.19493e-05
1.19394e-05
1.19514e-05
1.19831e-05
1.20329e-05
1.2098e-05
1.21639e-05
1.22075e-05
1.22279e-05
1.22353e-05
1.22363e-05
1.22342e-05
1.22315e-05
1.22298e-05
1.22303e-05
1.22333e-05
1.22382e-05
1.22439e-05
1.22492e-05
1.22532e-05
1.22559e-05
1.22571e-05
1.21584e-05
1.21572e-05
1.21541e-05
1.21479e-05
1.21367e-05
1.21181e-05
1.20892e-05
1.20487e-05
1.20008e-05
1.19554e-05
1.1924e-05
1.19127e-05
1.19225e-05
1.19531e-05
1.20061e-05
1.2082e-05
1.21657e-05
1.22259e-05
1.22552e-05
1.22653e-05
1.22656e-05
1.22612e-05
1.22552e-05
1.225e-05
1.22469e-05
1.22465e-05
1.22484e-05
1.22518e-05
1.22555e-05
1.22587e-05
1.2261e-05
1.22622e-05
1.21475e-05
1.21464e-05
1.21429e-05
1.21354e-05
1.21215e-05
1.20985e-05
1.20643e-05
1.20196e-05
1.197e-05
1.19253e-05
1.18938e-05
1.18792e-05
1.18821e-05
1.19053e-05
1.19554e-05
1.20381e-05
1.21408e-05
1.22242e-05
1.22699e-05
1.22877e-05
1.22898e-05
1.22844e-05
1.22768e-05
1.22701e-05
1.22656e-05
1.22634e-05
1.22631e-05
1.22641e-05
1.22659e-05
1.22679e-05
1.22697e-05
1.22707e-05
1.21242e-05
1.21229e-05
1.21188e-05
1.21096e-05
1.20929e-05
1.20662e-05
1.20287e-05
1.1983e-05
1.19357e-05
1.1894e-05
1.18625e-05
1.18416e-05
1.18318e-05
1.18394e-05
1.18766e-05
1.19568e-05
1.20757e-05
1.21887e-05
1.22613e-05
1.22954e-05
1.23028e-05
1.2296e-05
1.22844e-05
1.2274e-05
1.22674e-05
1.2265e-05
1.22661e-05
1.22694e-05
1.22737e-05
1.22776e-05
1.22805e-05
1.2282e-05
1.20932e-05
1.20916e-05
1.20869e-05
1.20767e-05
1.20586e-05
1.20311e-05
1.19946e-05
1.19528e-05
1.19114e-05
1.18747e-05
1.18431e-05
1.18142e-05
1.17877e-05
1.17703e-05
1.17778e-05
1.18325e-05
1.19458e-05
1.20811e-05
1.21906e-05
1.22634e-05
1.23033e-05
1.2321e-05
1.23264e-05
1.23262e-05
1.23244e-05
1.23223e-05
1.23197e-05
1.2316e-05
1.23109e-05
1.23051e-05
1.23002e-05
1.22976e-05
1.20692e-05
1.20677e-05
1.2063e-05
1.20532e-05
1.20365e-05
1.20121e-05
1.1981e-05
1.19465e-05
1.19127e-05
1.18819e-05
1.18526e-05
1.18201e-05
1.17808e-05
1.17371e-05
1.1701e-05
1.16964e-05
1.17503e-05
1.18516e-05
1.1958e-05
1.20491e-05
1.21189e-05
1.21672e-05
1.21986e-05
1.22153e-05
1.22197e-05
1.22134e-05
1.21979e-05
1.21759e-05
1.21511e-05
1.21285e-05
1.21124e-05
1.21046e-05
1.20552e-05
1.20537e-05
1.20495e-05
1.20411e-05
1.20269e-05
1.20068e-05
1.19817e-05
1.19545e-05
1.1928e-05
1.19041e-05
1.18808e-05
1.1853e-05
1.18145e-05
1.17613e-05
1.16963e-05
1.16332e-05
1.16007e-05
1.16131e-05
1.16493e-05
1.16903e-05
1.17263e-05
1.17519e-05
1.1768e-05
1.1775e-05
1.17746e-05
1.17684e-05
1.17581e-05
1.17458e-05
1.17336e-05
1.17235e-05
1.17168e-05
1.17138e-05
1.20479e-05
1.20466e-05
1.20429e-05
1.20359e-05
1.20243e-05
1.20079e-05
1.19878e-05
1.19661e-05
1.19453e-05
1.19268e-05
1.19095e-05
1.18889e-05
1.18583e-05
1.1811e-05
1.17435e-05
1.16586e-05
1.15756e-05
1.15181e-05
1.14835e-05
1.14599e-05
1.14399e-05
1.14204e-05
1.14013e-05
1.13837e-05
1.13697e-05
1.13611e-05
1.13588e-05
1.13627e-05
1.13709e-05
1.13804e-05
1.13877e-05
1.13913e-05
1.20449e-05
1.20436e-05
1.20405e-05
1.20346e-05
1.20252e-05
1.2012e-05
1.19958e-05
1.19782e-05
1.19613e-05
1.19464e-05
1.19326e-05
1.19164e-05
1.1892e-05
1.18528e-05
1.17933e-05
1.17117e-05
1.16183e-05
1.15354e-05
1.14698e-05
1.14159e-05
1.13694e-05
1.13279e-05
1.12912e-05
1.12599e-05
1.1235e-05
1.12177e-05
1.12086e-05
1.12072e-05
1.12118e-05
1.12196e-05
1.12269e-05
1.1231e-05
1.20444e-05
1.20434e-05
1.20407e-05
1.20358e-05
1.20281e-05
1.20174e-05
1.20043e-05
1.19899e-05
1.19756e-05
1.19625e-05
1.19496e-05
1.19342e-05
1.19115e-05
1.1876e-05
1.18232e-05
1.17505e-05
1.16645e-05
1.15817e-05
1.15107e-05
1.14492e-05
1.13952e-05
1.13468e-05
1.1303e-05
1.12638e-05
1.12298e-05
1.12021e-05
1.11818e-05
1.11692e-05
1.11638e-05
1.11637e-05
1.11662e-05
1.11684e-05
1.2045e-05
1.20442e-05
1.20421e-05
1.20381e-05
1.20319e-05
1.20233e-05
1.20126e-05
1.20005e-05
1.19879e-05
1.19749e-05
1.19604e-05
1.19421e-05
1.19163e-05
1.18794e-05
1.18285e-05
1.17623e-05
1.16863e-05
1.16124e-05
1.15467e-05
1.14878e-05
1.14341e-05
1.13841e-05
1.13364e-05
1.12908e-05
1.12481e-05
1.12105e-05
1.11803e-05
1.11588e-05
1.1146e-05
1.11405e-05
1.11396e-05
1.11404e-05
1.20434e-05
1.20433e-05
1.20423e-05
1.20398e-05
1.20353e-05
1.20285e-05
1.20196e-05
1.20089e-05
1.19963e-05
1.19812e-05
1.1962e-05
1.19371e-05
1.19043e-05
1.1862e-05
1.18093e-05
1.17463e-05
1.16782e-05
1.16139e-05
1.15565e-05
1.1504e-05
1.14546e-05
1.14068e-05
1.13592e-05
1.13114e-05
1.12643e-05
1.12203e-05
1.11825e-05
1.11536e-05
1.11347e-05
1.11249e-05
1.11217e-05
1.11217e-05
1.20332e-05
1.20346e-05
1.20362e-05
1.20367e-05
1.20348e-05
1.203e-05
1.20222e-05
1.2011e-05
1.19957e-05
1.1975e-05
1.19479e-05
1.19134e-05
1.18714e-05
1.1822e-05
1.1766e-05
1.17046e-05
1.16427e-05
1.15868e-05
1.15377e-05
1.14926e-05
1.14493e-05
1.14063e-05
1.13623e-05
1.13168e-05
1.12703e-05
1.12247e-05
1.11832e-05
1.11494e-05
1.11256e-05
1.1112e-05
1.11067e-05
1.11059e-05
1.20054e-05
1.20093e-05
1.20153e-05
1.20206e-05
1.20227e-05
1.202e-05
1.20117e-05
1.19973e-05
1.19756e-05
1.19461e-05
1.19086e-05
1.18639e-05
1.18132e-05
1.1758e-05
1.17e-05
1.16406e-05
1.15843e-05
1.15358e-05
1.14945e-05
1.14569e-05
1.14205e-05
1.13838e-05
1.13457e-05
1.13054e-05
1.12632e-05
1.12204e-05
1.11795e-05
1.1144e-05
1.11172e-05
1.11007e-05
1.10934e-05
1.10919e-05
1.19511e-05
1.19582e-05
1.19693e-05
1.19798e-05
1.19856e-05
1.19837e-05
1.19728e-05
1.19521e-05
1.19219e-05
1.18826e-05
1.18358e-05
1.17835e-05
1.17278e-05
1.16708e-05
1.16141e-05
1.15588e-05
1.15088e-05
1.14676e-05
1.14335e-05
1.14031e-05
1.13737e-05
1.1344e-05
1.13128e-05
1.12795e-05
1.1244e-05
1.12069e-05
1.11699e-05
1.11359e-05
1.11086e-05
1.10904e-05
1.10815e-05
1.10793e-05
1.18648e-05
1.18746e-05
1.18884e-05
1.1901e-05
1.19072e-05
1.19032e-05
1.18875e-05
1.18604e-05
1.18231e-05
1.17777e-05
1.17266e-05
1.16727e-05
1.1618e-05
1.15643e-05
1.1513e-05
1.14647e-05
1.14224e-05
1.13886e-05
1.13615e-05
1.13377e-05
1.13151e-05
1.12923e-05
1.12683e-05
1.12425e-05
1.12147e-05
1.11849e-05
1.11542e-05
1.11245e-05
1.1099e-05
1.10807e-05
1.10709e-05
1.10681e-05
1.17446e-05
1.17545e-05
1.17655e-05
1.17735e-05
1.17749e-05
1.17664e-05
1.17469e-05
1.1717e-05
1.16786e-05
1.16342e-05
1.15865e-05
1.1538e-05
1.14905e-05
1.14452e-05
1.14029e-05
1.13641e-05
1.13308e-05
1.13048e-05
1.12843e-05
1.12667e-05
1.12503e-05
1.12338e-05
1.12166e-05
1.11981e-05
1.1178e-05
1.11561e-05
1.11328e-05
1.11093e-05
1.10877e-05
1.10711e-05
1.10613e-05
1.10582e-05
1.15896e-05
1.15954e-05
1.15967e-05
1.1595e-05
1.15897e-05
1.15782e-05
1.15591e-05
1.15328e-05
1.15006e-05
1.14648e-05
1.14274e-05
1.13902e-05
1.13546e-05
1.13212e-05
1.12904e-05
1.12626e-05
1.12391e-05
1.1221e-05
1.12069e-05
1.1195e-05
1.11841e-05
1.11732e-05
1.1162e-05
1.11499e-05
1.11368e-05
1.11225e-05
1.11068e-05
1.10904e-05
1.10745e-05
1.10612e-05
1.10527e-05
1.10495e-05
1.13968e-05
1.13941e-05
1.13856e-05
1.13777e-05
1.13698e-05
1.13599e-05
1.13465e-05
1.13293e-05
1.13089e-05
1.12865e-05
1.12635e-05
1.1241e-05
1.12195e-05
1.11996e-05
1.11814e-05
1.11651e-05
1.11514e-05
1.11409e-05
1.11329e-05
1.11262e-05
1.112e-05
1.1114e-05
1.11079e-05
1.11013e-05
1.10941e-05
1.10863e-05
1.10777e-05
1.10684e-05
1.10589e-05
1.10505e-05
1.10445e-05
1.1042e-05
1.11601e-05
1.1157e-05
1.11515e-05
1.11471e-05
1.11435e-05
1.11396e-05
1.11349e-05
1.11291e-05
1.11222e-05
1.11148e-05
1.11072e-05
1.10998e-05
1.10927e-05
1.10862e-05
1.10803e-05
1.1075e-05
1.10706e-05
1.10672e-05
1.10647e-05
1.10625e-05
1.10606e-05
1.10587e-05
1.10567e-05
1.10547e-05
1.10525e-05
1.10501e-05
1.10474e-05
1.10445e-05
1.10415e-05
1.10386e-05
1.10365e-05
1.10354e-05
)
;

boundaryField
{
    movingWall
    {
        type            fixedValue;
        value           uniform 1.1032e-05;
    }
    fixedWalls
    {
        type            zeroGradient;
    }
    floor
    {
        type            zeroGradient;
    }
    frontAndBack
    {
        type            empty;
    }
}


// ************************************************************************* //
