/*--------------------------------*- C++ -*----------------------------------*\
| =========                 |                                                 |
| \\      /  F ield         | OpenFOAM: The Open Source CFD Toolbox           |
|  \\    /   O peration     | Version:  2212                                  |
|   \\  /    A nd           | Website:  www.openfoam.com                      |
|    \\/     M anipulation  |                                                 |
\*---------------------------------------------------------------------------*/
FoamFile
{
    version     2.0;
    format      ascii;
    arch        "LSB;label=64;scalar=64";
    class       volScalarField;
    location    "290";
    object      Saa;
}
// * * * * * * * * * * * * * * * * * * * * * * * * * * * * * * * * * * * * * //

dimensions      [1 -3 0 0 0 0 0];

internalField   nonuniform List<scalar> 
1024
(
0.00548888
0.0054889
0.00548895
0.00548903
0.00548915
0.0054893
0.00548945
0.0054896
0.00548974
0.00548986
0.00548995
0.00549001
0.00549003
0.00549001
0.00548994
0.0054898
0.00548961
0.00548938
0.00548915
0.00548892
0.00548869
0.00548846
0.00548824
0.00548801
0.00548778
0.00548757
0.00548738
0.00548723
0.00548712
0.00548705
0.00548701
0.005487
0.00548888
0.0054889
0.00548895
0.00548904
0.00548917
0.00548931
0.00548947
0.00548962
0.00548976
0.00548988
0.00548997
0.00549003
0.00549005
0.00549003
0.00548996
0.00548982
0.00548962
0.00548939
0.00548916
0.00548893
0.00548871
0.00548849
0.00548826
0.00548803
0.0054878
0.00548759
0.0054874
0.00548725
0.00548713
0.00548706
0.00548702
0.005487
0.00548889
0.00548891
0.00548897
0.00548906
0.00548919
0.00548934
0.0054895
0.00548965
0.0054898
0.00548993
0.00549002
0.00549007
0.00549009
0.00549007
0.00548999
0.00548985
0.00548965
0.00548942
0.0054892
0.00548897
0.00548875
0.00548853
0.0054883
0.00548808
0.00548785
0.00548763
0.00548744
0.00548728
0.00548716
0.00548708
0.00548703
0.00548701
0.00548889
0.00548892
0.00548898
0.00548908
0.00548921
0.00548937
0.00548953
0.0054897
0.00548986
0.00549
0.0054901
0.00549016
0.00549017
0.00549013
0.00549005
0.0054899
0.00548969
0.00548946
0.00548924
0.00548902
0.0054888
0.00548858
0.00548837
0.00548814
0.00548792
0.0054877
0.00548749
0.00548732
0.00548719
0.0054871
0.00548705
0.00548703
0.0054889
0.00548893
0.00548899
0.00548909
0.00548923
0.00548939
0.00548957
0.00548975
0.00548994
0.0054901
0.00549022
0.00549028
0.00549028
0.00549023
0.00549012
0.00548995
0.00548973
0.0054895
0.00548928
0.00548906
0.00548885
0.00548865
0.00548844
0.00548822
0.005488
0.00548778
0.00548756
0.00548738
0.00548724
0.00548714
0.00548709
0.00548706
0.00548891
0.00548893
0.00548899
0.0054891
0.00548924
0.00548941
0.0054896
0.00548981
0.00549002
0.00549022
0.00549037
0.00549043
0.00549042
0.00549034
0.0054902
0.00549
0.00548976
0.00548952
0.0054893
0.00548909
0.00548889
0.00548869
0.0054885
0.00548829
0.00548808
0.00548786
0.00548764
0.00548745
0.00548729
0.00548719
0.00548713
0.0054871
0.00548891
0.00548893
0.00548899
0.00548909
0.00548924
0.00548942
0.00548963
0.00548986
0.00549011
0.00549035
0.00549052
0.0054906
0.00549058
0.00549047
0.00549028
0.00549004
0.00548976
0.0054895
0.00548928
0.00548908
0.00548889
0.00548871
0.00548853
0.00548835
0.00548814
0.00548793
0.00548771
0.00548751
0.00548735
0.00548723
0.00548717
0.00548714
0.00548891
0.00548893
0.00548899
0.00548908
0.00548923
0.00548941
0.00548964
0.0054899
0.00549019
0.00549047
0.00549068
0.00549076
0.00549072
0.00549057
0.00549033
0.00549002
0.0054897
0.00548942
0.0054892
0.00548901
0.00548884
0.00548868
0.00548853
0.00548836
0.00548817
0.00548797
0.00548776
0.00548756
0.00548739
0.00548727
0.00548721
0.00548718
0.00548889
0.00548892
0.00548897
0.00548906
0.0054892
0.00548939
0.00548964
0.00548993
0.00549026
0.00549058
0.00549082
0.00549092
0.00549085
0.00549063
0.00549032
0.00548993
0.00548955
0.00548925
0.00548904
0.00548887
0.00548872
0.00548859
0.00548846
0.00548832
0.00548816
0.00548797
0.00548777
0.00548758
0.00548742
0.0054873
0.00548724
0.00548721
0.00548887
0.0054889
0.00548895
0.00548903
0.00548917
0.00548936
0.00548962
0.00548994
0.00549032
0.0054907
0.00549097
0.00549106
0.00549094
0.00549065
0.00549024
0.00548975
0.00548929
0.00548897
0.00548876
0.00548862
0.00548851
0.00548842
0.00548832
0.00548822
0.00548809
0.00548793
0.00548775
0.00548757
0.00548743
0.00548732
0.00548726
0.00548723
0.00548884
0.00548886
0.00548891
0.00548899
0.00548912
0.00548931
0.00548959
0.00548995
0.00549039
0.00549083
0.00549114
0.00549121
0.00549104
0.00549066
0.00549013
0.00548951
0.00548894
0.00548858
0.00548838
0.00548827
0.0054882
0.00548816
0.00548811
0.00548805
0.00548796
0.00548783
0.00548769
0.00548754
0.00548741
0.00548732
0.00548726
0.00548724
0.0054888
0.00548882
0.00548886
0.00548894
0.00548907
0.00548927
0.00548956
0.00548998
0.00549049
0.005491
0.00549134
0.0054914
0.00549118
0.00549071
0.00549005
0.00548928
0.00548856
0.00548811
0.00548791
0.00548783
0.00548781
0.00548782
0.00548783
0.00548782
0.00548777
0.00548769
0.00548758
0.00548747
0.00548736
0.00548729
0.00548724
0.00548722
0.00548877
0.00548878
0.00548883
0.00548891
0.00548904
0.00548926
0.0054896
0.00549008
0.00549067
0.00549124
0.0054916
0.00549166
0.00549141
0.00549088
0.00549012
0.00548918
0.00548826
0.00548767
0.00548742
0.00548735
0.00548737
0.00548742
0.00548749
0.00548754
0.00548755
0.00548751
0.00548745
0.00548737
0.00548729
0.00548723
0.00548719
0.00548718
0.00548879
0.0054888
0.00548885
0.00548894
0.00548909
0.00548936
0.00548976
0.00549033
0.00549098
0.00549157
0.00549194
0.005492
0.00549177
0.00549125
0.00549045
0.00548935
0.00548818
0.00548737
0.00548699
0.00548689
0.00548691
0.00548701
0.00548712
0.00548722
0.00548729
0.00548731
0.00548729
0.00548724
0.00548719
0.00548715
0.00548711
0.00548709
0.00548894
0.00548896
0.00548901
0.00548911
0.00548931
0.00548964
0.00549012
0.00549074
0.00549141
0.00549198
0.00549234
0.00549244
0.0054923
0.00549188
0.0054911
0.00548991
0.00548848
0.00548736
0.00548676
0.00548655
0.00548655
0.00548666
0.0054868
0.00548692
0.00548701
0.00548705
0.00548707
0.00548706
0.00548703
0.005487
0.00548697
0.00548696
0.00548928
0.0054893
0.00548936
0.00548949
0.00548973
0.0054901
0.00549063
0.00549126
0.00549189
0.00549241
0.00549277
0.00549295
0.00549297
0.00549275
0.00549213
0.00549096
0.00548932
0.00548781
0.00548687
0.00548644
0.00548638
0.0054865
0.00548669
0.00548685
0.00548696
0.00548701
0.005487
0.00548696
0.0054869
0.00548684
0.0054868
0.00548678
0.00548974
0.00548976
0.00548983
0.00548997
0.00549023
0.00549062
0.00549113
0.0054917
0.00549225
0.0054927
0.00549305
0.00549334
0.00549358
0.00549368
0.00549344
0.00549258
0.005491
0.0054892
0.00548778
0.00548685
0.00548637
0.00548617
0.00548613
0.00548615
0.00548619
0.00548622
0.00548625
0.00548629
0.00548635
0.00548642
0.00548647
0.0054865
0.00549011
0.00549013
0.00549019
0.00549033
0.00549057
0.00549092
0.00549136
0.00549183
0.00549228
0.00549266
0.00549299
0.00549334
0.00549374
0.00549417
0.00549448
0.00549437
0.00549352
0.00549212
0.00549073
0.00548956
0.00548869
0.00548809
0.00548771
0.00548751
0.00548746
0.00548754
0.00548774
0.00548801
0.00548832
0.0054886
0.00548879
0.00548889
0.00549033
0.00549035
0.00549041
0.00549053
0.00549073
0.00549103
0.00549139
0.00549177
0.00549213
0.00549244
0.0054927
0.005493
0.0054934
0.00549396
0.00549464
0.00549526
0.00549547
0.00549515
0.00549459
0.00549401
0.00549352
0.00549318
0.00549297
0.00549288
0.00549288
0.00549295
0.00549308
0.00549324
0.0054934
0.00549353
0.00549361
0.00549365
0.00549046
0.00549048
0.00549053
0.00549063
0.0054908
0.00549104
0.00549134
0.00549165
0.00549195
0.00549219
0.00549239
0.00549261
0.00549293
0.00549342
0.00549414
0.00549504
0.00549589
0.00549641
0.00549668
0.00549684
0.00549697
0.00549713
0.00549729
0.00549745
0.00549758
0.00549767
0.00549769
0.00549765
0.00549757
0.00549747
0.0054974
0.00549736
0.00549052
0.00549054
0.00549059
0.00549067
0.00549081
0.00549101
0.00549125
0.00549151
0.00549176
0.00549197
0.00549214
0.00549231
0.00549255
0.00549295
0.00549358
0.00549445
0.00549545
0.00549631
0.00549694
0.00549744
0.00549785
0.00549821
0.00549852
0.00549879
0.00549899
0.00549913
0.0054992
0.00549921
0.00549916
0.0054991
0.00549903
0.005499
0.00549055
0.00549056
0.0054906
0.00549067
0.00549079
0.00549095
0.00549115
0.00549137
0.00549158
0.00549177
0.00549193
0.00549209
0.00549232
0.00549267
0.00549321
0.00549399
0.00549492
0.0054958
0.00549652
0.00549712
0.00549762
0.00549804
0.0054984
0.00549871
0.00549897
0.00549918
0.00549934
0.00549944
0.00549949
0.0054995
0.00549949
0.00549948
0.00549055
0.00549056
0.0054906
0.00549065
0.00549075
0.00549088
0.00549104
0.00549123
0.00549142
0.0054916
0.00549177
0.00549197
0.00549222
0.00549259
0.0054931
0.00549379
0.00549461
0.00549541
0.00549609
0.00549669
0.0054972
0.00549765
0.00549805
0.00549842
0.00549875
0.00549904
0.00549927
0.00549943
0.00549954
0.00549959
0.00549961
0.00549961
0.00549057
0.00549057
0.00549059
0.00549063
0.0054907
0.00549081
0.00549094
0.0054911
0.00549128
0.00549148
0.0054917
0.00549196
0.00549229
0.0054927
0.00549323
0.00549388
0.0054946
0.00549529
0.0054959
0.00549645
0.00549693
0.00549737
0.00549779
0.00549819
0.00549857
0.00549891
0.0054992
0.00549941
0.00549956
0.00549964
0.00549967
0.00549968
0.00549066
0.00549065
0.00549065
0.00549066
0.0054907
0.00549077
0.00549089
0.00549104
0.00549124
0.00549147
0.00549177
0.00549212
0.00549254
0.00549303
0.00549359
0.00549422
0.00549487
0.00549546
0.00549599
0.00549646
0.00549689
0.0054973
0.0054977
0.00549809
0.00549847
0.00549883
0.00549915
0.0054994
0.00549958
0.00549968
0.00549972
0.00549974
0.00549092
0.00549089
0.00549084
0.0054908
0.0054908
0.00549085
0.00549096
0.00549114
0.00549138
0.00549169
0.00549208
0.00549254
0.00549304
0.00549359
0.00549417
0.00549477
0.00549535
0.00549587
0.0054963
0.0054967
0.00549707
0.00549742
0.00549777
0.00549813
0.00549848
0.00549883
0.00549914
0.00549941
0.0054996
0.00549972
0.00549978
0.00549979
0.00549144
0.00549137
0.00549127
0.00549118
0.00549114
0.00549118
0.00549131
0.00549153
0.00549185
0.00549225
0.00549272
0.00549324
0.0054938
0.00549436
0.00549493
0.00549548
0.005496
0.00549643
0.00549679
0.00549711
0.00549741
0.0054977
0.00549799
0.00549829
0.00549859
0.00549889
0.00549918
0.00549944
0.00549963
0.00549976
0.00549982
0.00549984
0.00549225
0.00549216
0.00549204
0.00549192
0.00549187
0.00549193
0.00549209
0.00549237
0.00549275
0.0054932
0.00549371
0.00549424
0.00549478
0.00549531
0.00549582
0.00549631
0.00549674
0.00549709
0.00549738
0.00549763
0.00549786
0.00549808
0.00549831
0.00549854
0.00549878
0.00549903
0.00549927
0.00549949
0.00549967
0.0054998
0.00549986
0.00549989
0.00549339
0.0054933
0.00549319
0.00549312
0.00549312
0.00549321
0.0054934
0.0054937
0.00549408
0.00549451
0.00549498
0.00549546
0.00549593
0.00549638
0.0054968
0.00549718
0.00549752
0.00549779
0.00549801
0.00549819
0.00549836
0.00549852
0.00549869
0.00549886
0.00549903
0.00549921
0.0054994
0.00549957
0.00549973
0.00549984
0.0054999
0.00549992
0.00549484
0.00549479
0.00549477
0.00549479
0.00549485
0.00549496
0.00549515
0.0054954
0.00549572
0.00549607
0.00549643
0.0054968
0.00549715
0.00549748
0.00549778
0.00549806
0.0054983
0.00549849
0.00549863
0.00549876
0.00549887
0.00549898
0.00549909
0.0054992
0.00549931
0.00549943
0.00549956
0.00549968
0.00549979
0.00549988
0.00549993
0.00549995
0.00549664
0.00549666
0.00549674
0.00549681
0.00549689
0.00549698
0.00549711
0.00549728
0.00549748
0.0054977
0.00549792
0.00549814
0.00549835
0.00549855
0.00549873
0.00549889
0.00549903
0.00549914
0.00549922
0.00549929
0.00549935
0.00549941
0.00549947
0.00549954
0.0054996
0.00549966
0.00549973
0.0054998
0.00549987
0.00549993
0.00549996
0.00549998
0.00549882
0.00549885
0.0054989
0.00549894
0.00549898
0.00549902
0.00549906
0.00549912
0.00549918
0.00549926
0.00549933
0.0054994
0.00549947
0.00549953
0.00549959
0.00549965
0.00549969
0.00549973
0.00549975
0.00549977
0.0054998
0.00549981
0.00549983
0.00549985
0.00549987
0.00549989
0.00549991
0.00549994
0.00549996
0.00549998
0.00549999
0.00549999
)
;

boundaryField
{
    movingWall
    {
        type            fixedValue;
        value           uniform 0.0055;
    }
    fixedWalls
    {
        type            zeroGradient;
    }
    floor
    {
        type            zeroGradient;
    }
    frontAndBack
    {
        type            empty;
    }
}


// ************************************************************************* //
