/*--------------------------------*- C++ -*----------------------------------*\
| =========                 |                                                 |
| \\      /  F ield         | OpenFOAM: The Open Source CFD Toolbox           |
|  \\    /   O peration     | Version:  2212                                  |
|   \\  /    A nd           | Website:  www.openfoam.com                      |
|    \\/     M anipulation  |                                                 |
\*---------------------------------------------------------------------------*/
FoamFile
{
    version     2.0;
    format      ascii;
    arch        "LSB;label=64;scalar=64";
    class       volScalarField;
    location    "290";
    object      SIC;
}
// * * * * * * * * * * * * * * * * * * * * * * * * * * * * * * * * * * * * * //

dimensions      [1 -3 0 0 0 0 0];

internalField   nonuniform List<scalar> 
1024
(
0.0922153
0.0922188
0.0922271
0.0922411
0.0922607
0.0922844
0.0923101
0.0923355
0.0923592
0.0923799
0.0923956
0.092406
0.0924105
0.0924083
0.0923978
0.0923771
0.0923463
0.0923106
0.0922745
0.0922388
0.0922036
0.0921687
0.0921335
0.0920982
0.0920634
0.092031
0.0920027
0.0919799
0.0919632
0.0919523
0.0919461
0.0919435
0.0922158
0.0922195
0.0922282
0.0922428
0.092263
0.0922871
0.092313
0.0923386
0.0923625
0.0923834
0.0923992
0.0924094
0.0924138
0.0924114
0.0924008
0.0923801
0.0923493
0.0923136
0.0922776
0.0922419
0.0922069
0.0921721
0.0921371
0.0921018
0.0920669
0.0920341
0.0920053
0.091982
0.0919647
0.0919534
0.091947
0.0919444
0.0922169
0.0922208
0.0922301
0.0922455
0.0922666
0.0922915
0.0923181
0.0923445
0.0923695
0.0923916
0.092408
0.092418
0.0924219
0.0924188
0.0924075
0.0923861
0.092355
0.0923193
0.0922834
0.092248
0.0922133
0.0921789
0.0921443
0.0921092
0.0920742
0.0920408
0.092011
0.0919864
0.0919681
0.091956
0.0919492
0.0919464
0.0922182
0.0922224
0.0922321
0.0922484
0.0922704
0.0922964
0.0923244
0.0923527
0.0923803
0.0924052
0.0924232
0.0924333
0.0924362
0.0924314
0.0924183
0.0923953
0.0923631
0.0923269
0.0922911
0.0922562
0.092222
0.0921883
0.0921544
0.0921198
0.0920849
0.0920509
0.0920197
0.0919934
0.0919735
0.0919602
0.0919527
0.0919497
0.0922197
0.0922239
0.0922339
0.0922506
0.0922735
0.092301
0.0923312
0.0923628
0.0923945
0.092424
0.0924451
0.0924559
0.0924575
0.0924501
0.0924336
0.0924072
0.0923725
0.0923352
0.0922992
0.0922647
0.0922314
0.0921987
0.0921659
0.0921323
0.0920978
0.0920633
0.0920308
0.0920026
0.0919808
0.091966
0.0919577
0.0919543
0.0922207
0.0922249
0.092235
0.0922519
0.0922755
0.0923045
0.0923376
0.0923735
0.0924109
0.0924464
0.0924723
0.092485
0.0924852
0.092474
0.0924524
0.0924205
0.0923815
0.092342
0.0923055
0.0922714
0.0922391
0.0922078
0.0921766
0.0921445
0.092111
0.0920765
0.0920429
0.0920129
0.0919892
0.091973
0.0919638
0.0919601
0.0922212
0.0922253
0.0922351
0.0922519
0.0922759
0.0923065
0.0923427
0.0923836
0.0924276
0.0924702
0.0925023
0.0925179
0.0925169
0.092501
0.0924724
0.0924327
0.0923873
0.0923444
0.092307
0.0922734
0.0922424
0.0922129
0.0921838
0.0921537
0.0921218
0.092088
0.092054
0.0920229
0.0919977
0.0919803
0.0919704
0.0919664
0.0922208
0.0922248
0.0922342
0.0922505
0.0922746
0.0923065
0.0923457
0.0923917
0.0924427
0.0924933
0.0925324
0.0925514
0.0925488
0.092527
0.0924894
0.0924396
0.0923858
0.0923387
0.0923001
0.0922673
0.0922383
0.0922112
0.0921848
0.0921574
0.0921277
0.0920955
0.0920621
0.0920307
0.092005
0.091987
0.0919767
0.0919727
0.0922193
0.0922231
0.092232
0.0922478
0.0922715
0.0923041
0.0923459
0.092397
0.0924556
0.0925151
0.0925616
0.0925836
0.0925782
0.0925483
0.0924991
0.0924364
0.0923721
0.09232
0.0922808
0.0922497
0.0922235
0.0921999
0.0921772
0.0921533
0.0921268
0.092097
0.0920653
0.092035
0.0920099
0.0919921
0.091982
0.091978
0.0922162
0.0922199
0.0922284
0.0922433
0.0922663
0.0922992
0.0923434
0.0924
0.0924675
0.092537
0.0925911
0.092615
0.0926046
0.0925639
0.0924999
0.0924205
0.0923426
0.0922846
0.0922453
0.0922172
0.0921954
0.0921768
0.092159
0.0921399
0.0921175
0.0920913
0.0920626
0.0920348
0.0920115
0.0919949
0.0919854
0.0919816
0.0922113
0.0922147
0.0922227
0.0922367
0.0922589
0.0922919
0.0923388
0.0924023
0.0924807
0.0925619
0.0926237
0.0926484
0.0926315
0.0925778
0.0924957
0.0923947
0.092298
0.0922315
0.0921922
0.0921683
0.0921525
0.0921405
0.0921293
0.0921164
0.0920995
0.0920782
0.0920539
0.0920298
0.0920094
0.0919948
0.0919863
0.0919827
0.0922048
0.092208
0.0922155
0.0922288
0.0922504
0.0922842
0.0923353
0.092408
0.0924997
0.0925934
0.0926628
0.0926883
0.0926652
0.0925991
0.0924976
0.0923704
0.0922471
0.0921661
0.0921246
0.0921046
0.0920955
0.0920914
0.0920883
0.0920829
0.092073
0.0920579
0.0920392
0.0920199
0.0920032
0.091991
0.0919836
0.0919804
0.0921996
0.0922025
0.0922097
0.0922232
0.0922461
0.0922833
0.0923416
0.092426
0.0925315
0.0926365
0.092712
0.092739
0.0927138
0.0926403
0.0925224
0.0923668
0.0922081
0.0921019
0.0920513
0.0920321
0.0920285
0.0920323
0.0920378
0.0920411
0.0920392
0.0920316
0.0920195
0.0920058
0.0919933
0.0919837
0.0919774
0.0919744
0.0922038
0.0922065
0.0922139
0.0922289
0.0922558
0.0923006
0.0923704
0.092468
0.0925844
0.0926953
0.092774
0.0928048
0.092785
0.0927147
0.0925893
0.0924076
0.0922056
0.0920593
0.0919873
0.0919614
0.0919594
0.0919688
0.091982
0.0919936
0.0920003
0.0920007
0.0919957
0.0919875
0.0919787
0.091971
0.0919655
0.0919626
0.0922297
0.0922324
0.0922408
0.0922589
0.0922923
0.0923476
0.0924301
0.0925381
0.0926585
0.0927685
0.0928476
0.0928867
0.0928839
0.0928318
0.0927137
0.0925158
0.0922675
0.0920647
0.0919526
0.0919082
0.0919019
0.0919138
0.0919309
0.0919459
0.0919559
0.0919606
0.091961
0.0919584
0.0919541
0.0919493
0.0919451
0.0919427
0.0922853
0.0922884
0.0922985
0.0923204
0.0923606
0.0924249
0.0925154
0.0926258
0.0927412
0.0928441
0.0929236
0.0929783
0.0930064
0.0929926
0.0929066
0.092715
0.0924274
0.0921522
0.0919742
0.0918897
0.0918704
0.0918857
0.0919127
0.0919371
0.0919524
0.0919577
0.0919548
0.0919465
0.0919363
0.0919268
0.09192
0.0919166
0.0923592
0.0923629
0.0923744
0.092399
0.0924424
0.0925086
0.0925966
0.0926978
0.092799
0.0928899
0.0929696
0.0930438
0.0931131
0.0931607
0.0931479
0.0930195
0.0927463
0.0924164
0.0921477
0.0919684
0.0918693
0.0918249
0.0918106
0.0918101
0.0918141
0.0918191
0.0918253
0.0918345
0.0918474
0.091862
0.0918743
0.091881
0.0924157
0.0924196
0.0924309
0.0924544
0.0924945
0.0925532
0.092628
0.0927113
0.0927938
0.09287
0.0929439
0.0930268
0.0931273
0.0932397
0.0933344
0.0933526
0.0932263
0.092981
0.0927209
0.0924968
0.0923244
0.0922048
0.0921269
0.092085
0.092074
0.0920895
0.0921277
0.0921823
0.0922436
0.0922996
0.0923396
0.0923588
0.0924484
0.092452
0.0924622
0.0924825
0.0925163
0.0925646
0.0926246
0.0926902
0.0927543
0.0928134
0.0928719
0.0929425
0.0930409
0.0931763
0.0933422
0.0935048
0.0935928
0.0935686
0.0934834
0.0933848
0.0932974
0.0932348
0.0931955
0.0931784
0.0931797
0.093195
0.0932203
0.0932506
0.0932806
0.0933053
0.0933218
0.0933293
0.092465
0.0924683
0.092477
0.092494
0.0925217
0.0925606
0.0926086
0.0926605
0.0927105
0.0927556
0.0927988
0.0928514
0.0929299
0.0930504
0.093222
0.0934379
0.0936506
0.0938005
0.0938924
0.0939563
0.0940099
0.0940616
0.094112
0.0941578
0.094194
0.0942163
0.0942222
0.0942122
0.094191
0.0941667
0.0941479
0.0941387
0.0924715
0.0924745
0.092482
0.0924961
0.0925185
0.0925499
0.0925884
0.0926301
0.0926704
0.0927065
0.0927407
0.0927819
0.0928446
0.0929452
0.0930966
0.093304
0.0935412
0.0937534
0.0939227
0.0940629
0.0941845
0.0942931
0.0943896
0.0944722
0.0945379
0.0945836
0.0946079
0.0946118
0.0945998
0.0945794
0.0945602
0.0945495
0.0924718
0.0924745
0.0924809
0.0924926
0.0925109
0.0925361
0.0925672
0.0926012
0.0926349
0.0926666
0.0926983
0.0927375
0.092796
0.0928874
0.0930226
0.0932073
0.0934256
0.0936361
0.0938181
0.0939767
0.0941173
0.0942441
0.0943595
0.0944634
0.094554
0.0946279
0.094682
0.0947152
0.0947293
0.094729
0.094722
0.0947159
0.0924699
0.092472
0.0924771
0.0924865
0.0925012
0.0925216
0.0925468
0.0925752
0.0926051
0.0926366
0.0926725
0.0927192
0.0927854
0.0928806
0.0930113
0.0931801
0.0933732
0.0935608
0.0937282
0.0938794
0.0940184
0.094149
0.0942743
0.0943949
0.0945082
0.0946084
0.0946891
0.0947464
0.0947802
0.0947945
0.0947962
0.0947938
0.0924741
0.0924744
0.0924765
0.0924822
0.0924929
0.0925088
0.0925297
0.0925552
0.0925855
0.0926228
0.0926708
0.0927343
0.0928186
0.0929276
0.0930631
0.0932242
0.0933973
0.0935606
0.0937066
0.093841
0.0939684
0.0940927
0.0942171
0.0943429
0.0944676
0.0945846
0.0946854
0.0947625
0.0948128
0.0948388
0.0948469
0.0948467
0.0925007
0.092497
0.0924924
0.0924906
0.0924946
0.0925056
0.0925243
0.0925514
0.0925893
0.092641
0.0927099
0.092798
0.092906
0.0930331
0.093177
0.0933344
0.0934923
0.0936345
0.0937592
0.0938744
0.0939856
0.0940969
0.0942116
0.094331
0.0944538
0.0945747
0.0946852
0.0947755
0.0948391
0.0948753
0.0948894
0.094891
0.0925729
0.0925626
0.0925468
0.0925326
0.0925264
0.0925324
0.0925525
0.0925886
0.0926431
0.092718
0.0928138
0.0929285
0.0930589
0.0932008
0.0933499
0.0935023
0.0936463
0.0937697
0.0938747
0.0939707
0.0940639
0.0941587
0.0942579
0.0943632
0.0944743
0.0945876
0.0946965
0.0947914
0.0948631
0.0949073
0.0949268
0.0949304
0.0927134
0.0926949
0.0926661
0.0926384
0.0926228
0.0926269
0.0926544
0.0927066
0.0927838
0.0928843
0.0930044
0.0931389
0.093282
0.0934287
0.0935746
0.0937165
0.0938444
0.0939495
0.0940363
0.094114
0.0941892
0.0942658
0.0943467
0.0944336
0.094527
0.0946251
0.0947234
0.0948141
0.0948874
0.0949363
0.0949602
0.0949658
0.092937
0.0929117
0.0928756
0.0928427
0.0928262
0.0928362
0.0928761
0.0929455
0.0930412
0.093158
0.0932892
0.0934281
0.0935688
0.0937069
0.0938389
0.093963
0.0940713
0.0941575
0.0942267
0.0942874
0.0943453
0.0944041
0.0944662
0.0945333
0.0946063
0.0946849
0.0947666
0.0948459
0.0949143
0.0949636
0.09499
0.0949974
0.0932487
0.0932229
0.0931943
0.0931734
0.0931694
0.093191
0.0932411
0.0933181
0.093417
0.0935314
0.0936543
0.0937792
0.0939016
0.0940181
0.0941269
0.0942267
0.094312
0.0943785
0.0944306
0.0944755
0.0945176
0.0945599
0.0946045
0.0946527
0.0947054
0.094763
0.0948248
0.0948877
0.0949455
0.0949904
0.0950168
0.0950254
0.0936507
0.0936356
0.0936322
0.0936365
0.0936502
0.0936799
0.0937291
0.0937969
0.0938798
0.0939722
0.0940687
0.0941645
0.0942564
0.0943423
0.0944214
0.0944929
0.0945532
0.0945996
0.0946354
0.0946657
0.0946938
0.0947216
0.0947507
0.094782
0.0948163
0.0948541
0.0948956
0.0949394
0.0949822
0.0950181
0.0950412
0.0950499
0.0941516
0.0941584
0.0941805
0.0942011
0.0942213
0.0942469
0.0942816
0.0943261
0.0943787
0.0944364
0.0944957
0.0945539
0.0946092
0.0946605
0.0947072
0.0947492
0.0947843
0.0948111
0.0948316
0.0948488
0.0948645
0.0948799
0.0948958
0.094913
0.0949316
0.0949522
0.0949751
0.0949998
0.0950252
0.095048
0.0950643
0.0950712
0.0947667
0.0947749
0.0947891
0.0948005
0.0948099
0.0948198
0.0948321
0.0948471
0.0948647
0.0948839
0.0949035
0.0949227
0.0949408
0.0949576
0.0949728
0.0949864
0.0949977
0.0950064
0.0950129
0.0950184
0.0950234
0.0950282
0.0950332
0.0950386
0.0950443
0.0950507
0.0950578
0.0950655
0.0950736
0.0950813
0.0950872
0.0950901
)
;

boundaryField
{
    movingWall
    {
        type            fixedValue;
        value           uniform 0.0951;
    }
    fixedWalls
    {
        type            zeroGradient;
    }
    floor
    {
        type            zeroGradient;
    }
    frontAndBack
    {
        type            empty;
    }
}


// ************************************************************************* //
