/*--------------------------------*- C++ -*----------------------------------*\
| =========                 |                                                 |
| \\      /  F ield         | OpenFOAM: The Open Source CFD Toolbox           |
|  \\    /   O peration     | Version:  2206                                  |
|   \\  /    A nd           | Website:  www.openfoam.com                      |
|    \\/     M anipulation  |                                                 |
\*---------------------------------------------------------------------------*/
FoamFile
{
    version     2.0;
    format      ascii;
    arch        "LSB;label=64;scalar=64";
    class       volScalarField;
    location    "2";
    object      Gch4_0;
}
// * * * * * * * * * * * * * * * * * * * * * * * * * * * * * * * * * * * * * //

dimensions      [0 0 0 0 0 0 0];

internalField   nonuniform List<scalar> 
1024
(
8.79542e-23
1.36931e-22
3.00955e-22
7.13046e-22
1.65313e-21
3.66977e-21
7.76834e-21
1.56557e-20
2.99606e-20
5.42206e-20
9.22885e-20
1.46872e-19
2.17453e-19
2.98591e-19
3.79e-19
4.38264e-19
4.42282e-19
3.9283e-19
3.23244e-19
2.50499e-19
1.83747e-19
1.28032e-19
8.51375e-20
5.43414e-20
3.35009e-20
2.00717e-20
1.17602e-20
6.79125e-21
3.92508e-21
2.3634e-21
1.6369e-21
1.5158e-21
1.85453e-22
2.76988e-22
5.77366e-22
1.3112e-21
2.94265e-21
6.36705e-21
1.32029e-20
2.61609e-20
4.93451e-20
8.81387e-20
1.48152e-19
2.3291e-19
3.40842e-19
4.63133e-19
5.82766e-19
6.69967e-19
6.75345e-19
6.01618e-19
4.97425e-19
3.87698e-19
2.86158e-19
2.00668e-19
1.3429e-19
8.62516e-20
5.34987e-20
3.22459e-20
1.90072e-20
1.10459e-20
6.43017e-21
3.90503e-21
2.72638e-21
2.52331e-21
5.81645e-22
8.3226e-22
1.63928e-21
3.55352e-21
7.69138e-21
1.61674e-20
3.27354e-20
6.35453e-20
1.17622e-19
2.0626e-19
3.40352e-19
5.25395e-19
7.55794e-19
1.01157e-18
1.25745e-18
1.43412e-18
1.44367e-18
1.29164e-18
1.0753e-18
8.45007e-19
6.29272e-19
4.45339e-19
3.00768e-19
1.94919e-19
1.21964e-19
7.41451e-20
4.40793e-20
2.58456e-20
1.51967e-20
9.3376e-21
6.58966e-21
6.09474e-21
1.98429e-21
2.74715e-21
5.17565e-21
1.08112e-20
2.27313e-20
4.66664e-20
9.25697e-20
1.76253e-19
3.1995e-19
5.49915e-19
8.89294e-19
1.34653e-18
1.90357e-18
2.51057e-18
3.08537e-18
3.49372e-18
3.51353e-18
3.15716e-18
2.64635e-18
2.09678e-18
1.57562e-18
1.1256e-18
7.67415e-19
5.02e-19
3.16986e-19
1.94431e-19
1.1662e-19
6.90122e-20
4.09958e-20
2.54895e-20
1.81805e-20
1.6808e-20
7.05198e-21
9.5097e-21
1.72826e-20
3.50189e-20
7.18641e-20
1.44491e-19
2.80992e-19
5.24208e-19
9.31442e-19
1.56641e-18
2.48035e-18
3.68424e-18
5.12295e-18
6.66626e-18
8.11029e-18
9.12774e-18
9.17377e-18
8.27737e-18
6.98363e-18
5.57785e-18
4.22903e-18
3.04969e-18
2.09919e-18
1.38628e-18
8.83571e-19
5.46952e-19
3.31079e-19
1.97795e-19
1.18745e-19
7.47252e-20
5.38666e-20
4.97951e-20
2.64721e-20
3.49353e-20
6.16048e-20
1.21593e-19
2.44064e-19
4.80641e-19
9.14943e-19
1.66877e-18
2.89725e-18
4.76377e-18
7.38875e-18
1.07786e-17
1.47633e-17
1.89819e-17
2.28909e-17
2.56287e-17
2.57479e-17
2.33223e-17
1.98e-17
1.59375e-17
1.21899e-17
8.87293e-18
6.1662e-18
4.11121e-18
2.64521e-18
1.65277e-18
1.00984e-18
6.0922e-19
3.69735e-19
2.35542e-19
1.71604e-19
1.58668e-19
1.07227e-19
1.38959e-19
2.38707e-19
4.59886e-19
9.02824e-19
1.7386e-18
3.23275e-18
5.75564e-18
9.76e-18
1.57022e-17
2.3892e-17
3.42895e-17
4.6339e-17
5.89485e-17
7.05336e-17
7.86084e-17
7.89528e-17
7.17766e-17
6.13015e-17
4.97165e-17
3.8354e-17
2.81758e-17
1.9767e-17
1.3305e-17
8.64138e-18
5.44966e-18
3.36101e-18
2.04769e-18
1.25644e-18
8.10307e-19
5.96519e-19
5.51836e-19
4.78875e-19
6.10757e-19
1.02401e-18
1.92557e-18
3.69125e-18
6.93713e-18
1.25825e-17
2.18656e-17
3.62537e-17
5.71734e-17
8.55091e-17
1.20946e-16
1.61473e-16
2.03409e-16
2.41615e-16
2.68118e-16
2.69227e-16
2.45625e-16
2.11016e-16
1.72424e-16
1.34161e-16
9.94681e-17
7.04449e-17
4.78655e-17
3.13784e-17
1.99715e-17
1.24319e-17
7.64849e-18
4.74449e-18
3.09692e-18
2.30282e-18
2.13202e-18
2.40653e-18
3.02333e-18
4.94677e-18
9.06459e-18
1.69342e-17
3.10198e-17
5.48845e-17
9.32046e-17
1.51387e-16
2.34496e-16
3.45316e-16
4.81909e-16
6.36003e-16
7.93527e-16
9.35719e-16
1.03382e-15
1.0378e-15
9.50238e-16
8.21311e-16
6.76301e-16
5.30884e-16
3.97335e-16
2.84127e-16
1.94914e-16
1.28979e-16
8.28493e-17
5.20506e-17
3.23358e-17
2.02757e-17
1.3391e-17
1.00535e-17
9.31772e-18
1.38616e-17
1.71491e-17
2.73404e-17
4.87196e-17
8.85804e-17
1.58143e-16
2.7326e-16
4.54306e-16
7.24257e-16
1.10362e-15
1.60165e-15
2.20602e-15
2.87737e-15
3.55402e-15
4.15806e-15
4.5719e-15
4.58783e-15
4.21713e-15
3.6689e-15
3.04634e-15
2.41405e-15
1.82506e-15
1.31847e-15
9.13609e-16
6.1046e-16
3.95845e-16
2.51038e-16
1.57488e-16
9.98151e-17
6.66826e-17
5.05284e-17
4.68949e-17
9.30145e-17
1.13219e-16
1.75547e-16
3.03732e-16
5.37273e-16
9.35682e-16
1.58146e-15
2.57842e-15
4.03987e-15
6.0599e-15
8.66663e-15
1.17728e-14
1.51593e-14
1.85129e-14
2.14646e-14
2.34676e-14
2.35379e-14
2.17326e-14
1.90484e-14
1.59649e-14
1.2786e-14
9.77531e-15
7.14208e-15
5.00363e-15
3.37865e-15
2.21299e-15
1.41735e-15
8.9822e-16
5.75523e-16
3.88895e-16
2.97379e-16
2.76477e-16
7.37741e-16
8.82778e-16
1.32947e-15
2.23206e-15
3.8431e-15
6.53669e-15
1.08214e-14
1.73201e-14
2.66803e-14
3.93789e-14
5.54298e-14
7.41217e-14
9.40119e-14
1.13256e-13
1.29867e-13
1.40979e-13
1.41307e-13
1.3118e-13
1.16007e-13
9.83104e-14
7.97186e-14
6.17479e-14
4.5707e-14
3.24271e-14
2.21581e-14
1.46773e-14
9.50264e-15
6.08812e-15
3.94583e-15
2.69774e-15
2.08215e-15
1.94012e-15
7.01121e-15
8.24462e-15
1.20561e-14
1.96439e-14
3.29448e-14
5.47773e-14
8.88788e-14
1.39647e-13
2.11311e-13
3.06317e-13
4.23206e-13
5.55198e-13
6.91102e-13
8.18455e-13
9.25401e-13
9.95482e-13
9.96986e-13
9.31975e-13
8.33353e-13
7.15881e-13
5.89329e-13
4.63739e-13
3.487e-13
2.51139e-13
1.74044e-13
1.1681e-13
7.65765e-14
4.96677e-14
3.25993e-14
2.25708e-14
1.75947e-14
1.64421e-14
8.09152e-14
9.35251e-14
1.3284e-13
2.10142e-13
3.43417e-13
5.5825e-13
8.87357e-13
1.36684e-12
2.02677e-12
2.87537e-12
3.88212e-12
4.97314e-12
6.04973e-12
7.01982e-12
7.8097e-12
8.31807e-12
8.3275e-12
7.84917e-12
7.11007e-12
6.20591e-12
5.20096e-12
4.17042e-12
3.19558e-12
2.34363e-12
1.65201e-12
1.12638e-12
7.49433e-13
4.93131e-13
3.28387e-13
2.30618e-13
1.81796e-13
1.70532e-13
1.14907e-12
1.30613e-12
1.80293e-12
2.76915e-12
4.40779e-12
6.99807e-12
1.0877e-11
1.6377e-11
2.36992e-11
3.27427e-11
4.29839e-11
5.35488e-11
6.34991e-11
7.21295e-11
7.89861e-11
8.33712e-11
8.34877e-11
7.93751e-11
7.28828e-11
6.47115e-11
5.53117e-11
4.53062e-11
3.54796e-11
2.65799e-11
1.91171e-11
1.32819e-11
8.99481e-12
6.02071e-12
4.07812e-12
2.91145e-12
2.32493e-12
2.19149e-12
2.03317e-11
2.27394e-11
3.05108e-11
4.54668e-11
7.03798e-11
1.08867e-10
1.64892e-10
2.41597e-10
3.39471e-10
4.54557e-10
5.78222e-10
6.9952e-10
8.09012e-10
9.01192e-10
9.73379e-10
1.01974e-09
1.02171e-09
9.79186e-10
9.10753e-10
8.22398e-10
7.17291e-10
6.00993e-10
4.82018e-10
3.69862e-10
2.72246e-10
1.93344e-10
1.33697e-10
9.13202e-11
6.31092e-11
4.59279e-11
3.72288e-11
3.53024e-11
4.23496e-10
4.66234e-10
6.07915e-10
8.77501e-10
1.3172e-09
1.97763e-09
2.90558e-09
4.12277e-09
5.60096e-09
7.24936e-09
8.93124e-09
1.05082e-08
1.18842e-08
1.30187e-08
1.39005e-08
1.44712e-08
1.45043e-08
1.39955e-08
1.31668e-08
1.20764e-08
1.07408e-08
9.20726e-09
7.5717e-09
5.96255e-09
4.50336e-09
3.27901e-09
2.32272e-09
1.62439e-09
1.14915e-09
8.55025e-10
7.05025e-10
6.73257e-10
8.15866e-09
8.84579e-09
1.12042e-08
1.56343e-08
2.2683e-08
3.29238e-08
4.67378e-08
6.40251e-08
8.39814e-08
1.0514e-07
1.25763e-07
1.44398e-07
1.60242e-07
1.7311e-07
1.83063e-07
1.89539e-07
1.89976e-07
1.84323e-07
1.75087e-07
1.62793e-07
1.47391e-07
1.29123e-07
1.08855e-07
8.8041e-08
6.83405e-08
5.11339e-08
3.72054e-08
2.67199e-08
1.94061e-08
1.47985e-08
1.24318e-08
1.19628e-08
1.21249e-07
1.29556e-07
1.59401e-07
2.1469e-07
3.0028e-07
4.20236e-07
5.75342e-07
7.60662e-07
9.6471e-07
1.17158e-06
1.36555e-06
1.5356e-06
1.67718e-06
1.79076e-06
1.87817e-06
1.93523e-06
1.9393e-06
1.89008e-06
1.80984e-06
1.70241e-06
1.56563e-06
1.39903e-06
1.20756e-06
1.00273e-06
8.00397e-07
6.16223e-07
4.61415e-07
3.41012e-07
2.54768e-07
1.99377e-07
1.70728e-07
1.65547e-07
1.40264e-06
1.47846e-06
1.76803e-06
2.29722e-06
3.09376e-06
4.17061e-06
5.50694e-06
7.03547e-06
8.64709e-06
1.02167e-05
1.16389e-05
1.28533e-05
1.38461e-05
1.46335e-05
1.52366e-05
1.56308e-05
1.56588e-05
1.53196e-05
1.47697e-05
1.40318e-05
1.30817e-05
1.18999e-05
1.04995e-05
8.94344e-06
7.34097e-06
5.81994e-06
4.49036e-06
3.41997e-06
2.63114e-06
2.11393e-06
1.84454e-06
1.80144e-06
1.27059e-05
1.32289e-05
1.54009e-05
1.93237e-05
2.50713e-05
3.25775e-05
4.15354e-05
5.13689e-05
6.13248e-05
7.06674e-05
7.88727e-05
8.57146e-05
9.1217e-05
9.55371e-05
9.88306e-05
0.000100986
0.000101132
9.92703e-05
9.62737e-05
9.22525e-05
8.70354e-05
8.04403e-05
7.24213e-05
6.31997e-05
5.33159e-05
4.35336e-05
3.46309e-05
2.71992e-05
2.15538e-05
1.77691e-05
1.57831e-05
1.55127e-05
9.08522e-05
9.35819e-05
0.000106321
0.000129127
0.00016171
0.000202881
0.000250205
0.000300143
0.000348782
0.000392854
0.000430464
0.000461164
0.000485502
0.00050444
0.00051882
0.000528237
0.000528833
0.000520626
0.000507522
0.000489955
0.00046705
0.000437748
0.000401364
0.000358243
0.000310264
0.000260788
0.000213878
0.000173211
0.000141311
0.000119405
0.000107812
0.000106536
0.00051859
0.000529283
0.000588455
0.000693829
0.000840896
0.00102092
0.00122043
0.00142297
0.00161298
0.00177954
0.00191799
0.0020289
0.00211574
0.00218281
0.00223356
0.00226683
0.00226875
0.00223942
0.00219295
0.00213076
0.0020494
0.00194441
0.00181191
0.00165079
0.00146533
0.00126643
0.00106997
0.00089292
0.000749237
0.000647968
0.000593822
0.000589366
0.00239597
0.00242631
0.00264664
0.00303889
0.0035747
0.00421055
0.00488987
0.00555345
0.00615359
0.00666353
0.00707752
0.00740387
0.00765679
0.00785089
0.00799742
0.0080936
0.00809857
0.00801269
0.00787765
0.00769716
0.00746054
0.00715331
0.00676068
0.00627322
0.00569523
0.00505227
0.00439144
0.00377198
0.00325111
0.0028735
0.00266909
0.0026584
0.0090955
0.00915103
0.00981812
0.0110118
0.0126093
0.0144454
0.016334
0.0181081
0.0196567
0.0209355
0.0219527
0.0227439
0.0233521
0.0238165
0.0241665
0.0243966
0.0244071
0.024199
0.0238739
0.02344
0.0228701
0.0221268
0.021168
0.0199579
0.0184868
0.0167957
0.0149907
0.0132314
0.0116972
0.0105512
0.00992244
0.00991161
0.0288174
0.0288468
0.0305162
0.0335281
0.0374699
0.0418445
0.0461667
0.0500707
0.0533661
0.0560197
0.0580951
0.0596926
0.0609128
0.061841
0.0625396
0.0629999
0.0630185
0.0625971
0.0619428
0.0610702
0.0599225
0.0584202
0.056469
0.0539749
0.0508802
0.0472198
0.0431748
0.0390815
0.0353802
0.0325305
0.0309472
0.0309911
0.0774174
0.0772199
0.0807223
0.0870856
0.0951865
0.103826
0.112008
0.119122
0.124948
0.129541
0.133087
0.135794
0.137852
0.139414
0.140588
0.141363
0.141391
0.140673
0.139565
0.138087
0.136141
0.133586
0.130251
0.125945
0.120515
0.113936
0.106436
0.0985791
0.0912277
0.085404
0.0821412
0.0824305
0.179006
0.178171
0.184386
0.195665
0.209515
0.223637
0.236449
0.2472
0.255784
0.262441
0.267528
0.271391
0.274318
0.276533
0.278199
0.279301
0.279337
0.278308
0.276724
0.274613
0.27183
0.268168
0.263367
0.257123
0.249145
0.239284
0.227738
0.215262
0.203229
0.193472
0.188012
0.188969
0.360939
0.359016
0.368334
0.384924
0.404363
0.42325
0.4397
0.453092
0.463572
0.471602
0.477696
0.482305
0.485789
0.488422
0.490401
0.491715
0.491756
0.490521
0.488627
0.486105
0.482775
0.478384
0.472608
0.465053
0.455303
0.443052
0.428376
0.412079
0.395952
0.382678
0.37542
0.377659
0.641634
0.638703
0.650197
0.669695
0.691302
0.711336
0.728186
0.741587
0.751924
0.759779
0.765714
0.77019
0.773568
0.776118
0.778035
0.779312
0.779352
0.778149
0.776307
0.773854
0.770612
0.766331
0.760686
0.753269
0.743623
0.731344
0.716347
0.69928
0.681993
0.667674
0.660332
0.66427
1.01444
1.01169
1.02216
1.03866
1.05599
1.07145
1.08413
1.09405
1.10164
1.10737
1.11169
1.11495
1.1174
1.11925
1.12064
1.12157
1.1216
1.12073
1.11939
1.11761
1.11525
1.11213
1.10801
1.10259
1.09549
1.08637
1.07505
1.06188
1.04822
1.0368
1.03153
1.03643
1.43641
1.43502
1.43949
1.44618
1.45295
1.45884
1.46359
1.46727
1.47007
1.47219
1.47378
1.47497
1.47588
1.47656
1.47707
1.47741
1.47742
1.4771
1.47661
1.47596
1.47509
1.47394
1.47243
1.47042
1.4678
1.4644
1.46014
1.4551
1.44972
1.44507
1.44299
1.44564
)
;

boundaryField
{
    movingWall
    {
        type            fixedValue;
        value           uniform 1.6535;
    }
    fixedWalls
    {
        type            zeroGradient;
    }
    frontAndBack
    {
        type            empty;
    }
}


// ************************************************************************* //
