/*--------------------------------*- C++ -*----------------------------------*\
| =========                 |                                                 |
| \\      /  F ield         | OpenFOAM: The Open Source CFD Toolbox           |
|  \\    /   O peration     | Version:  2206                                  |
|   \\  /    A nd           | Website:  www.openfoam.com                      |
|    \\/     M anipulation  |                                                 |
\*---------------------------------------------------------------------------*/
FoamFile
{
    version     2.0;
    format      ascii;
    arch        "LSB;label=64;scalar=64";
    class       volVectorField;
    location    "2";
    object      U_0;
}
// * * * * * * * * * * * * * * * * * * * * * * * * * * * * * * * * * * * * * //

dimensions      [0 1 -1 0 0 0 0];

internalField   nonuniform List<vector> 
1024
(
(-4.25798e-08 4.25603e-08 0)
(-2.8103e-07 1.06938e-07 0)
(-7.3266e-07 1.33932e-07 0)
(-1.3088e-06 1.41328e-07 0)
(-1.98136e-06 1.43662e-07 0)
(-2.75336e-06 1.44437e-07 0)
(-3.63453e-06 1.44044e-07 0)
(-4.63313e-06 1.42256e-07 0)
(-5.75358e-06 1.38729e-07 0)
(-6.99376e-06 1.3303e-07 0)
(-8.34049e-06 1.24622e-07 0)
(-9.76318e-06 1.12861e-07 0)
(-1.12049e-05 9.70219e-08 0)
(-1.25708e-05 7.6357e-08 0)
(-1.37146e-05 5.0272e-08 0)
(-1.44145e-05 1.79583e-08 0)
(-1.44157e-05 -1.78255e-08 0)
(-1.37179e-05 -5.01639e-08 0)
(-1.25755e-05 -7.62871e-08 0)
(-1.12102e-05 -9.69928e-08 0)
(-9.76858e-06 -1.12871e-07 0)
(-8.34562e-06 -1.24665e-07 0)
(-6.99839e-06 -1.33099e-07 0)
(-5.7576e-06 -1.38818e-07 0)
(-4.63649e-06 -1.42358e-07 0)
(-3.63727e-06 -1.44153e-07 0)
(-2.75551e-06 -1.44548e-07 0)
(-1.98301e-06 -1.43774e-07 0)
(-1.30998e-06 -1.41454e-07 0)
(-7.33426e-07 -1.3409e-07 0)
(-2.8139e-07 -1.07122e-07 0)
(-4.27077e-08 -4.26841e-08 0)
(-1.06922e-07 2.80866e-07 0)
(-6.32969e-07 6.32555e-07 0)
(-1.55692e-06 7.89244e-07 0)
(-2.72401e-06 8.31651e-07 0)
(-4.09528e-06 8.41816e-07 0)
(-5.67575e-06 8.42385e-07 0)
(-7.48293e-06 8.36434e-07 0)
(-9.53235e-06 8.2292e-07 0)
(-1.18324e-05 7.99912e-07 0)
(-1.43781e-05 7.64895e-07 0)
(-1.7142e-05 7.14733e-07 0)
(-2.0061e-05 6.45686e-07 0)
(-2.3018e-05 5.53554e-07 0)
(-2.58179e-05 4.3404e-07 0)
(-2.81601e-05 2.83456e-07 0)
(-2.95916e-05 1.00214e-07 0)
(-2.95936e-05 -9.95969e-08 0)
(-2.81656e-05 -2.82954e-07 0)
(-2.58257e-05 -4.33716e-07 0)
(-2.30269e-05 -5.53421e-07 0)
(-2.007e-05 -6.45735e-07 0)
(-1.71505e-05 -7.14938e-07 0)
(-1.43858e-05 -7.65224e-07 0)
(-1.18391e-05 -8.00335e-07 0)
(-9.53796e-06 -8.23408e-07 0)
(-7.48748e-06 -8.36962e-07 0)
(-5.67933e-06 -8.42929e-07 0)
(-4.098e-06 -8.42367e-07 0)
(-2.72596e-06 -8.32231e-07 0)
(-1.55818e-06 -7.89889e-07 0)
(-6.33594e-07 -6.33225e-07 0)
(-1.07163e-07 -2.8127e-07 0)
(-1.34208e-07 7.32978e-07 0)
(-7.91728e-07 1.55714e-06 0)
(-1.90999e-06 1.90527e-06 0)
(-3.3137e-06 2.00435e-06 0)
(-4.96378e-06 2.02933e-06 0)
(-6.86809e-06 2.02974e-06 0)
(-9.04747e-06 2.01352e-06 0)
(-1.152e-05 1.97896e-06 0)
(-1.42953e-05 1.92179e-06 0)
(-1.73669e-05 1.83612e-06 0)
(-2.07016e-05 1.71448e-06 0)
(-2.42227e-05 1.54791e-06 0)
(-2.77887e-05 1.32636e-06 0)
(-3.11641e-05 1.03951e-06 0)
(-3.39859e-05 6.78468e-07 0)
(-3.57091e-05 2.39677e-07 0)
(-3.57112e-05 -2.38439e-07 0)
(-3.39916e-05 -6.77467e-07 0)
(-3.11722e-05 -1.03886e-06 0)
(-2.77979e-05 -1.32611e-06 0)
(-2.4232e-05 -1.54803e-06 0)
(-2.07104e-05 -1.71491e-06 0)
(-1.73749e-05 -1.8368e-06 0)
(-1.43022e-05 -1.92267e-06 0)
(-1.15258e-05 -1.97997e-06 0)
(-9.05216e-06 -2.01461e-06 0)
(-6.87176e-06 -2.03087e-06 0)
(-4.96652e-06 -2.03048e-06 0)
(-3.31563e-06 -2.00555e-06 0)
(-1.91121e-06 -1.90656e-06 0)
(-7.92331e-07 -1.55843e-06 0)
(-1.34441e-07 -7.33735e-07 0)
(-1.42476e-07 1.3121e-06 0)
(-8.39508e-07 2.73008e-06 0)
(-2.02218e-06 3.31237e-06 0)
(-3.50577e-06 3.48194e-06 0)
(-5.24874e-06 3.52743e-06 0)
(-7.26011e-06 3.52968e-06 0)
(-9.56245e-06 3.50202e-06 0)
(-1.2175e-05 3.4419e-06 0)
(-1.51076e-05 3.34219e-06 0)
(-1.83534e-05 3.19283e-06 0)
(-2.18769e-05 2.98094e-06 0)
(-2.5597e-05 2.69104e-06 0)
(-2.93639e-05 2.30566e-06 0)
(-3.29288e-05 1.8069e-06 0)
(-3.59079e-05 1.17927e-06 0)
(-3.77264e-05 4.16545e-07 0)
(-3.77286e-05 -4.14555e-07 0)
(-3.59138e-05 -1.17767e-06 0)
(-3.2937e-05 -1.80587e-06 0)
(-2.93732e-05 -2.30527e-06 0)
(-2.56064e-05 -2.69124e-06 0)
(-2.18858e-05 -2.98164e-06 0)
(-1.83615e-05 -3.19393e-06 0)
(-1.51146e-05 -3.3436e-06 0)
(-1.21808e-05 -3.44353e-06 0)
(-9.56715e-06 -3.50379e-06 0)
(-7.26375e-06 -3.53152e-06 0)
(-5.25143e-06 -3.52932e-06 0)
(-3.50761e-06 -3.48388e-06 0)
(-2.02329e-06 -3.3144e-06 0)
(-8.40039e-07 -2.73205e-06 0)
(-1.42667e-07 -1.31323e-06 0)
(-1.46499e-07 1.99409e-06 0)
(-8.59809e-07 4.12057e-06 0)
(-2.07179e-06 4.98144e-06 0)
(-3.59402e-06 5.23368e-06 0)
(-5.38214e-06 5.30331e-06 0)
(-7.44481e-06 5.30828e-06 0)
(-9.80551e-06 5.26778e-06 0)
(-1.24842e-05 5.17794e-06 0)
(-1.54911e-05 5.02818e-06 0)
(-1.88188e-05 4.80353e-06 0)
(-2.24308e-05 4.48475e-06 0)
(-2.62438e-05 4.04861e-06 0)
(-3.01041e-05 3.46891e-06 0)
(-3.37564e-05 2.71876e-06 0)
(-3.68073e-05 1.77486e-06 0)
(-3.86686e-05 6.27114e-07 0)
(-3.86708e-05 -6.24242e-07 0)
(-3.68132e-05 -1.77254e-06 0)
(-3.37647e-05 -2.71727e-06 0)
(-3.01136e-05 -3.46834e-06 0)
(-2.62535e-05 -4.04889e-06 0)
(-2.244e-05 -4.48576e-06 0)
(-1.8827e-05 -4.80513e-06 0)
(-1.54982e-05 -5.03022e-06 0)
(-1.24902e-05 -5.18029e-06 0)
(-9.81031e-06 -5.27034e-06 0)
(-7.44851e-06 -5.31096e-06 0)
(-5.38484e-06 -5.30607e-06 0)
(-3.59583e-06 -5.23651e-06 0)
(-2.07287e-06 -4.98431e-06 0)
(-8.60316e-07 -4.12328e-06 0)
(-1.46662e-07 -1.99561e-06 0)
(-1.50121e-07 2.78895e-06 0)
(-8.77239e-07 5.74806e-06 0)
(-2.11296e-06 6.93782e-06 0)
(-3.66711e-06 7.28694e-06 0)
(-5.4932e-06 7.38415e-06 0)
(-7.59913e-06 7.39189e-06 0)
(-1.00088e-05 7.33624e-06 0)
(-1.27427e-05 7.21161e-06 0)
(-1.58111e-05 7.00328e-06 0)
(-1.92065e-05 6.69045e-06 0)
(-2.28913e-05 6.24644e-06 0)
(-2.67802e-05 5.63902e-06 0)
(-3.07161e-05 4.83179e-06 0)
(-3.44385e-05 3.78737e-06 0)
(-3.75461e-05 2.47334e-06 0)
(-3.94407e-05 8.74311e-07 0)
(-3.9443e-05 -8.70392e-07 0)
(-3.75523e-05 -2.47018e-06 0)
(-3.44472e-05 -3.78535e-06 0)
(-3.07259e-05 -4.83101e-06 0)
(-2.67902e-05 -5.6394e-06 0)
(-2.29008e-05 -6.24782e-06 0)
(-1.92151e-05 -6.69263e-06 0)
(-1.58185e-05 -7.00606e-06 0)
(-1.27489e-05 -7.21484e-06 0)
(-1.00138e-05 -7.33976e-06 0)
(-7.60297e-06 -7.39558e-06 0)
(-5.496e-06 -7.38795e-06 0)
(-3.66899e-06 -7.29081e-06 0)
(-2.11407e-06 -6.94167e-06 0)
(-8.7776e-07 -5.75162e-06 0)
(-1.50271e-07 -2.79091e-06 0)
(-1.54199e-07 3.71851e-06 0)
(-8.97551e-07 7.65498e-06 0)
(-2.16003e-06 9.23231e-06 0)
(-3.74943e-06 9.69565e-06 0)
(-5.61755e-06 9.82495e-06 0)
(-7.77164e-06 9.83555e-06 0)
(-1.02359e-05 9.76183e-06 0)
(-1.30312e-05 9.59617e-06 0)
(-1.61679e-05 9.31894e-06 0)
(-1.9638e-05 8.90251e-06 0)
(-2.34028e-05 8.31144e-06 0)
(-2.73746e-05 7.50298e-06 0)
(-3.13925e-05 6.42891e-06 0)
(-3.51903e-05 5.03966e-06 0)
(-3.83583e-05 3.29214e-06 0)
(-4.02879e-05 1.16426e-06 0)
(-4.02903e-05 -1.15908e-06 0)
(-3.83649e-05 -3.28796e-06 0)
(-3.51995e-05 -5.03699e-06 0)
(-3.14029e-05 -6.42787e-06 0)
(-2.73852e-05 -7.50348e-06 0)
(-2.34129e-05 -8.31325e-06 0)
(-1.96472e-05 -8.90538e-06 0)
(-1.61758e-05 -9.32263e-06 0)
(-1.30377e-05 -9.60044e-06 0)
(-1.02412e-05 -9.76649e-06 0)
(-7.77572e-06 -9.84046e-06 0)
(-5.62052e-06 -9.83001e-06 0)
(-3.75143e-06 -9.70076e-06 0)
(-2.16122e-06 -9.23735e-06 0)
(-8.98111e-07 -7.65957e-06 0)
(-1.54346e-07 -3.72101e-06 0)
(-1.59138e-07 4.8113e-06 0)
(-9.23321e-07 9.89866e-06 0)
(-2.21993e-06 1.19334e-05 0)
(-3.85337e-06 1.25318e-05 0)
(-5.7737e-06 1.2699e-05 0)
(-7.98774e-06 1.27127e-05 0)
(-1.052e-05 1.26173e-05 0)
(-1.33918e-05 1.24029e-05 0)
(-1.66133e-05 1.20441e-05 0)
(-2.01761e-05 1.15052e-05 0)
(-2.40395e-05 1.07404e-05 0)
(-2.81131e-05 9.69474e-06 0)
(-3.22311e-05 8.30622e-06 0)
(-3.61203e-05 6.5112e-06 0)
(-3.93611e-05 4.25417e-06 0)
(-4.13327e-05 1.50498e-06 0)
(-4.13353e-05 -1.49825e-06 0)
(-3.93682e-05 -4.24874e-06 0)
(-3.61302e-05 -6.50772e-06 0)
(-3.22424e-05 -8.30486e-06 0)
(-2.81246e-05 -9.69538e-06 0)
(-2.40505e-05 -1.07427e-05 0)
(-2.0186e-05 -1.15089e-05 0)
(-1.66219e-05 -1.20489e-05 0)
(-1.33989e-05 -1.24085e-05 0)
(-1.05258e-05 -1.26234e-05 0)
(-7.99218e-06 -1.27191e-05 0)
(-5.77694e-06 -1.27056e-05 0)
(-3.85556e-06 -1.25385e-05 0)
(-2.22124e-06 -1.19399e-05 0)
(-9.23937e-07 -9.90453e-06 0)
(-1.59288e-07 -4.81448e-06 0)
(-1.65441e-07 6.10527e-06 0)
(-9.57491e-07 1.25564e-05 0)
(-2.30003e-06 1.51338e-05 0)
(-3.992e-06 1.58926e-05 0)
(-5.98134e-06 1.61046e-05 0)
(-8.27456e-06 1.61217e-05 0)
(-1.08967e-05 1.60001e-05 0)
(-1.38694e-05 1.57273e-05 0)
(-1.72028e-05 1.52709e-05 0)
(-2.08873e-05 1.45857e-05 0)
(-2.488e-05 1.36139e-05 0)
(-2.90864e-05 1.2286e-05 0)
(-3.33344e-05 1.05242e-05 0)
(-3.73416e-05 8.24853e-06 0)
(-4.0676e-05 5.38927e-06 0)
(-4.27017e-05 1.90688e-06 0)
(-4.27046e-05 -1.8982e-06 0)
(-4.06838e-05 -5.38226e-06 0)
(-3.73526e-05 -8.24402e-06 0)
(-3.3347e-05 -1.05224e-05 0)
(-2.90992e-05 -1.22868e-05 0)
(-2.48922e-05 -1.36169e-05 0)
(-2.08983e-05 -1.45905e-05 0)
(-1.72123e-05 -1.52771e-05 0)
(-1.38774e-05 -1.57345e-05 0)
(-1.09031e-05 -1.6008e-05 0)
(-8.27952e-06 -1.61299e-05 0)
(-5.98497e-06 -1.61131e-05 0)
(-3.99446e-06 -1.59012e-05 0)
(-2.3015e-06 -1.51422e-05 0)
(-9.58186e-07 -1.25639e-05 0)
(-1.65603e-07 -6.10932e-06 0)
(-1.73819e-07 7.65273e-06 0)
(-1.00413e-06 1.57353e-05 0)
(-2.41015e-06 1.89622e-05 0)
(-4.1825e-06 1.99129e-05 0)
(-6.26629e-06 2.01782e-05 0)
(-8.66776e-06 2.01988e-05 0)
(-1.14127e-05 2.0045e-05 0)
(-1.45231e-05 1.9701e-05 0)
(-1.80089e-05 1.91261e-05 0)
(-2.18588e-05 1.82638e-05 0)
(-2.60268e-05 1.7042e-05 0)
(-3.04124e-05 1.53745e-05 0)
(-3.48349e-05 1.31647e-05 0)
(-3.89997e-05 1.03143e-05 0)
(-4.24586e-05 6.73738e-06 0)
(-4.45564e-05 2.38386e-06 0)
(-4.45597e-05 -2.37265e-06 0)
(-4.24676e-05 -6.72831e-06 0)
(-3.90123e-05 -1.03084e-05 0)
(-3.48493e-05 -1.31623e-05 0)
(-3.04272e-05 -1.53755e-05 0)
(-2.60409e-05 -1.70459e-05 0)
(-2.18715e-05 -1.827e-05 0)
(-1.80199e-05 -1.91341e-05 0)
(-1.45323e-05 -1.97103e-05 0)
(-1.14201e-05 -2.00552e-05 0)
(-8.67351e-06 -2.02095e-05 0)
(-6.27051e-06 -2.01893e-05 0)
(-4.18537e-06 -1.9924e-05 0)
(-2.41187e-06 -1.89729e-05 0)
(-1.00494e-06 -1.5745e-05 0)
(-1.74e-07 -7.65792e-06 0)
(-1.85284e-07 9.52816e-06 0)
(-1.06903e-06 1.95882e-05 0)
(-2.56419e-06 2.36022e-05 0)
(-4.44902e-06 2.47853e-05 0)
(-6.66468e-06 2.51146e-05 0)
(-9.21716e-06 2.51383e-05 0)
(-1.21332e-05 2.49438e-05 0)
(-1.54353e-05 2.4511e-05 0)
(-1.91326e-05 2.37894e-05 0)
(-2.32116e-05 2.27087e-05 0)
(-2.76213e-05 2.11797e-05 0)
(-3.22529e-05 1.90963e-05 0)
(-3.69136e-05 1.6341e-05 0)
(-4.12921e-05 1.27944e-05 0)
(-4.49191e-05 8.35301e-06 0)
(-4.7114e-05 2.95484e-06 0)
(-4.71179e-05 -2.94024e-06 0)
(-4.49297e-05 -8.34116e-06 0)
(-4.1307e-05 -1.27868e-05 0)
(-3.69308e-05 -1.63379e-05 0)
(-3.22705e-05 -1.90976e-05 0)
(-2.76381e-05 -2.11846e-05 0)
(-2.32269e-05 -2.27167e-05 0)
(-1.91459e-05 -2.37998e-05 0)
(-1.54463e-05 -2.45231e-05 0)
(-1.21421e-05 -2.4957e-05 0)
(-9.22409e-06 -2.51524e-05 0)
(-6.66977e-06 -2.51291e-05 0)
(-4.45248e-06 -2.47998e-05 0)
(-2.56626e-06 -2.36163e-05 0)
(-1.07e-06 -1.96007e-05 0)
(-1.85497e-07 -9.53491e-06 0)
(-2.01316e-07 1.18411e-05 0)
(-1.16071e-06 2.43398e-05 0)
(-2.7825e-06 2.93246e-05 0)
(-4.82684e-06 3.07935e-05 0)
(-7.22927e-06 3.12004e-05 0)
(-9.99534e-06 3.12257e-05 0)
(-1.3153e-05 3.09776e-05 0)
(-1.67252e-05 3.04309e-05 0)
(-2.072e-05 2.95225e-05 0)
(-2.51197e-05 2.81652e-05 0)
(-2.9866e-05 2.62495e-05 0)
(-3.48381e-05 2.36462e-05 0)
(-3.98257e-05 2.02135e-05 0)
(-4.44949e-05 1.58093e-05 0)
(-4.83488e-05 1.03115e-05 0)
(-5.06741e-05 3.64581e-06 0)
(-5.06789e-05 -3.6265e-06 0)
(-4.83618e-05 -1.02958e-05 0)
(-4.45134e-05 -1.5799e-05 0)
(-3.9847e-05 -2.02092e-05 0)
(-3.48601e-05 -2.36477e-05 0)
(-2.9887e-05 -2.6256e-05 0)
(-2.51388e-05 -2.81758e-05 0)
(-2.07366e-05 -2.95363e-05 0)
(-1.67392e-05 -3.0447e-05 0)
(-1.31643e-05 -3.09953e-05 0)
(-1.00041e-05 -3.12444e-05 0)
(-7.23569e-06 -3.12197e-05 0)
(-4.83121e-06 -3.08128e-05 0)
(-2.78512e-06 -2.93433e-05 0)
(-1.16194e-06 -2.43566e-05 0)
(-2.01578e-07 -1.185e-05 0)
(-2.24168e-07 1.47579e-05 0)
(-1.29227e-06 3.03324e-05 0)
(-3.09632e-06 3.65409e-05 0)
(-5.36999e-06 3.83688e-05 0)
(-8.04058e-06 3.88709e-05 0)
(-1.11129e-05 3.88939e-05 0)
(-1.46163e-05 3.8572e-05 0)
(-1.85739e-05 3.7873e-05 0)
(-2.2991e-05 3.67177e-05 0)
(-2.78438e-05 3.49982e-05 0)
(-3.30621e-05 3.25801e-05 0)
(-3.85068e-05 2.93074e-05 0)
(-4.39429e-05 2.50119e-05 0)
(-4.90053e-05 1.95286e-05 0)
(-5.31618e-05 1.27176e-05 0)
(-5.56595e-05 4.49251e-06 0)
(-5.56656e-05 -4.46639e-06 0)
(-5.31785e-05 -1.26962e-05 0)
(-4.90291e-05 -1.95144e-05 0)
(-4.39704e-05 -2.50057e-05 0)
(-3.85354e-05 -2.93091e-05 0)
(-3.30896e-05 -3.25887e-05 0)
(-2.78689e-05 -3.50125e-05 0)
(-2.30129e-05 -3.67364e-05 0)
(-1.85923e-05 -3.78949e-05 0)
(-1.46312e-05 -3.85962e-05 0)
(-1.11244e-05 -3.89196e-05 0)
(-8.04909e-06 -3.88973e-05 0)
(-5.37579e-06 -3.83953e-05 0)
(-3.09979e-06 -3.65666e-05 0)
(-1.29389e-06 -3.03554e-05 0)
(-2.24508e-07 -1.47702e-05 0)
(-2.57435e-07 1.85412e-05 0)
(-1.48475e-06 3.81056e-05 0)
(-3.556e-06 4.59006e-05 0)
(-6.16552e-06 4.81912e-05 0)
(-9.22817e-06 4.88114e-05 0)
(-1.27472e-05 4.88229e-05 0)
(-1.67534e-05 4.83927e-05 0)
(-2.12688e-05 4.74787e-05 0)
(-2.62936e-05 4.59809e-05 0)
(-3.17925e-05 4.37645e-05 0)
(-3.76759e-05 4.06656e-05 0)
(-4.37769e-05 3.64982e-05 0)
(-4.98237e-05 3.10678e-05 0)
(-5.54095e-05 2.41905e-05 0)
(-5.99594e-05 1.57146e-05 0)
(-6.26766e-05 5.54301e-06 0)
(-6.26848e-05 -5.50664e-06 0)
(-5.99817e-05 -1.56845e-05 0)
(-5.54416e-05 -2.41702e-05 0)
(-4.98611e-05 -3.10586e-05 0)
(-4.38161e-05 -3.64999e-05 0)
(-3.77139e-05 -4.06772e-05 0)
(-3.18273e-05 -4.37842e-05 0)
(-2.63241e-05 -4.6007e-05 0)
(-2.12945e-05 -4.75096e-05 0)
(-1.67742e-05 -4.8427e-05 0)
(-1.27635e-05 -4.88594e-05 0)
(-9.24014e-06 -4.8849e-05 0)
(-6.17367e-06 -4.8229e-05 0)
(-3.56087e-06 -4.59372e-05 0)
(-1.48703e-06 -3.81382e-05 0)
(-2.57903e-07 -1.85586e-05 0)
(-3.07063e-07 2.36204e-05 0)
(-1.77457e-06 4.85445e-05 0)
(-4.24841e-06 5.84697e-05 0)
(-7.36337e-06 6.13764e-05 0)
(-1.10146e-05 6.21445e-05 0)
(-1.5202e-05 6.21232e-05 0)
(-1.99566e-05 6.15215e-05 0)
(-2.52967e-05 6.02826e-05 0)
(-3.1211e-05 5.82775e-05 0)
(-3.76427e-05 5.53373e-05 0)
(-4.44687e-05 5.12633e-05 0)
(-5.14762e-05 4.584e-05 0)
(-5.83395e-05 3.88548e-05 0)
(-6.45978e-05 3.01199e-05 0)
(-6.96307e-05 1.94883e-05 0)
(-7.26074e-05 6.85755e-06 0)
(-7.26187e-05 -6.80512e-06 0)
(-6.96618e-05 -1.94443e-05 0)
(-6.4643e-05 -3.00893e-05 0)
(-5.83929e-05 -3.884e-05 0)
(-5.15326e-05 -4.58411e-05 0)
(-4.4524e-05 -5.1279e-05 0)
(-3.76939e-05 -5.53654e-05 0)
(-3.12562e-05 -5.83155e-05 0)
(-2.5335e-05 -6.03281e-05 0)
(-1.99878e-05 -6.15724e-05 0)
(-1.52264e-05 -6.21776e-05 0)
(-1.10326e-05 -6.22007e-05 0)
(-7.37563e-06 -6.1433e-05 0)
(-4.25574e-06 -5.85245e-05 0)
(-1.77798e-06 -4.85933e-05 0)
(-3.07755e-07 -2.36464e-05 0)
(-3.85681e-07 3.07686e-05 0)
(-2.22917e-06 6.32357e-05 0)
(-5.33309e-06 7.61534e-05 0)
(-9.23793e-06 7.99124e-05 0)
(-1.38074e-05 8.08617e-05 0)
(-1.90337e-05 8.07512e-05 0)
(-2.49441e-05 7.98444e-05 0)
(-3.15439e-05 7.80602e-05 0)
(-3.8795e-05 7.52285e-05 0)
(-4.65959e-05 7.11374e-05 0)
(-5.47602e-05 6.55537e-05 0)
(-6.29981e-05 5.82468e-05 0)
(-7.0904e-05 4.9017e-05 0)
(-7.79543e-05 3.77157e-05 0)
(-8.35023e-05 2.42413e-05 0)
(-8.67299e-05 8.49579e-06 0)
(-8.6746e-05 -8.41738e-06 0)
(-8.35472e-05 -2.4174e-05 0)
(-7.80207e-05 -3.76669e-05 0)
(-7.09841e-05 -4.89909e-05 0)
(-6.30844e-05 -5.82447e-05 0)
(-5.48463e-05 -6.55746e-05 0)
(-4.66767e-05 -7.11786e-05 0)
(-3.88673e-05 -7.52863e-05 0)
(-3.16057e-05 -7.81309e-05 0)
(-2.49947e-05 -7.99244e-05 0)
(-1.90734e-05 -8.08374e-05 0)
(-1.38368e-05 -8.09514e-05 0)
(-9.25797e-06 -8.00029e-05 0)
(-5.34507e-06 -7.62412e-05 0)
(-2.23472e-06 -6.33138e-05 0)
(-3.86796e-07 -3.08101e-05 0)
(-5.11328e-07 4.05976e-05 0)
(-2.94074e-06 8.34105e-05 0)
(-7.02757e-06 0.000100406 0)
(-1.21614e-05 0.000105291 0)
(-1.81553e-05 0.000106417 0)
(-2.49827e-05 0.000106073 0)
(-3.26529e-05 0.000104589 0)
(-4.11334e-05 0.000101845 0)
(-5.03212e-05 9.76181e-05 0)
(-6.00207e-05 9.16565e-05 0)
(-6.99271e-05 8.37176e-05 0)
(-7.96248e-05 7.36112e-05 0)
(-8.86063e-05 6.12324e-05 0)
(-9.63089e-05 4.65648e-05 0)
(-0.000102142 2.96229e-05 0)
(-0.000105438 1.03179e-05 0)
(-0.00010546 -1.02007e-05 0)
(-0.000102207 -2.95192e-05 0)
(-9.64073e-05 -4.6485e-05 0)
(-8.8729e-05 -6.11842e-05 0)
(-7.97613e-05 -7.35991e-05 0)
(-7.00672e-05 -8.37425e-05 0)
(-6.01554e-05 -9.17158e-05 0)
(-5.0444e-05 -9.77071e-05 0)
(-4.124e-05 -0.000101957 0)
(-3.27412e-05 -0.000104719 0)
(-2.50524e-05 -0.000106216 0)
(-1.8207e-05 -0.000106567 0)
(-1.21968e-05 -0.000105443 0)
(-7.04873e-06 -0.000100554 0)
(-2.95052e-06 -8.35417e-05 0)
(-5.1328e-07 -4.06673e-05 0)
(-6.945e-07 5.28602e-05 0)
(-3.98028e-06 0.000108532 0)
(-9.49997e-06 0.000130544 0)
(-1.64164e-05 0.000136738 0)
(-2.44569e-05 0.000137935 0)
(-3.35498e-05 0.000137074 0)
(-4.3651e-05 0.000134552 0)
(-5.46378e-05 0.000130203 0)
(-6.62727e-05 0.000123756 0)
(-7.8187e-05 0.000114957 0)
(-8.98879e-05 0.000103636 0)
(-0.000100799 8.97628e-05 0)
(-0.000110339 7.34682e-05 0)
(-0.000118011 5.49872e-05 0)
(-0.000123457 3.45091e-05 0)
(-0.000126381 1.19233e-05 0)
(-0.000126411 -1.17576e-05 0)
(-0.000123543 -3.43568e-05 0)
(-0.000118148 -5.48612e-05 0)
(-0.000110519 -7.33817e-05 0)
(-0.000101008 -8.97265e-05 0)
(-9.01116e-05 -0.000103656 0)
(-7.84102e-05 -0.000115034 0)
(-6.64821e-05 -0.000123885 0)
(-5.48238e-05 -0.000130377 0)
(-4.38076e-05 -0.00013476 0)
(-3.36748e-05 -0.000137306 0)
(-2.45505e-05 -0.000138182 0)
(-1.64806e-05 -0.000136991 0)
(-9.53839e-06 -0.00013079 0)
(-3.99799e-06 -0.000108751 0)
(-6.98023e-07 -5.29765e-05 0)
(-9.47335e-07 6.73952e-05 0)
(-5.4288e-06 0.00013826 0)
(-1.29392e-05 0.000166122 0)
(-2.23138e-05 0.000173707 0)
(-3.31354e-05 0.000174724 0)
(-4.52338e-05 0.000172849 0)
(-5.84437e-05 0.000168552 0)
(-7.24623e-05 0.000161622 0)
(-8.68147e-05 0.000151792 0)
(-0.000100869 0.000138911 0)
(-0.000113897 0.000123042 0)
(-0.000125198 0.0001045 0)
(-0.000134238 8.38044e-05 0)
(-0.000140783 6.15207e-05 0)
(-0.000144922 3.7996e-05 0)
(-0.000146932 1.30066e-05 0)
(-0.000146967 -1.27886e-05 0)
(-0.000145027 -3.77867e-05 0)
(-0.000140958 -6.13334e-05 0)
(-0.00013448 -8.36577e-05 0)
(-0.000125496 -0.000104415 0)
(-0.000114234 -0.000123036 0)
(-0.000101221 -0.000138994 0)
(-8.71593e-05 -0.000151963 0)
(-7.27783e-05 -0.000161874 0)
(-5.87165e-05 -0.000168869 0)
(-4.54552e-05 -0.000173215 0)
(-3.3303e-05 -0.000175121 0)
(-2.24296e-05 -0.000174118 0)
(-1.30086e-05 -0.000166525 0)
(-5.4606e-06 -0.000138618 0)
(-9.53599e-07 -6.75846e-05 0)
(-1.30836e-06 8.47396e-05 0)
(-7.49224e-06 0.000173673 0)
(-1.78217e-05 0.000208366 0)
(-3.06404e-05 0.000217336 0)
(-4.52822e-05 0.000217676 0)
(-6.13733e-05 0.000213919 0)
(-7.8499e-05 0.000206624 0)
(-9.60274e-05 0.000195597 0)
(-0.00011311 0.000180712 0)
(-0.000128777 0.000162139 0)
(-0.000142101 0.00014042 0)
(-0.000152412 0.000116424 0)
(-0.000159477 9.1153e-05 0)
(-0.000163575 6.5464e-05 0)
(-0.000165429 3.97287e-05 0)
(-0.000166 1.34662e-05 0)
(-0.000166037 -1.31972e-05 0)
(-0.000165544 -3.94586e-05 0)
(-0.000163776 -6.52019e-05 0)
(-0.000159775 -9.09207e-05 0)
(-0.000152807 -0.000116253 0)
(-0.000142579 -0.000140347 0)
(-0.000129309 -0.000162192 0)
(-0.000113658 -0.000180907 0)
(-9.65516e-05 -0.000195933 0)
(-7.89667e-05 -0.000207083 0)
(-6.17621e-05 -0.000214475 0)
(-4.55813e-05 -0.000218299 0)
(-3.08489e-05 -0.000217991 0)
(-1.79468e-05 -0.000209014 0)
(-7.54935e-06 -0.000174249 0)
(-1.31951e-06 -8.50425e-05 0)
(-1.83714e-06 0.00010573 0)
(-1.05081e-05 0.000216425 0)
(-2.49223e-05 0.000259119 0)
(-4.26544e-05 0.000269264 0)
(-6.25882e-05 0.000267983 0)
(-8.39423e-05 0.000260824 0)
(-0.000105829 0.000248538 0)
(-0.000127078 0.000231141 0)
(-0.000146346 0.000208953 0)
(-0.000162361 0.00018282 0)
(-0.000174215 0.00015406 0)
(-0.000181617 0.000124217 0)
(-0.000184973 9.47025e-05 0)
(-0.000185306 6.64473e-05 0)
(-0.000184043 3.96082e-05 0)
(-0.000182781 1.32957e-05 0)
(-0.000182815 -1.29823e-05 0)
(-0.000184154 -3.92795e-05 0)
(-0.000185515 -6.61025e-05 0)
(-0.000185309 -9.43601e-05 0)
(-0.0001821 -0.000123917 0)
(-0.000174849 -0.000153858 0)
(-0.000163121 -0.000182777 0)
(-0.000147183 -0.000209119 0)
(-0.000127925 -0.00023154 0)
(-0.00010662 -0.000249162 0)
(-8.46224e-05 -0.000261639 0)
(-6.31236e-05 -0.000268938 0)
(-4.30325e-05 -0.000270296 0)
(-2.51504e-05 -0.00026015 0)
(-1.06116e-05 -0.000217344 0)
(-1.85715e-06 -0.000106211 0)
(-2.63448e-06 0.000131602 0)
(-1.50419e-05 0.000268932 0)
(-3.55188e-05 0.000320994 0)
(-6.03723e-05 0.00033168 0)
(-8.76426e-05 0.000326993 0)
(-0.000115758 0.000313819 0)
(-0.000143018 0.00029341 0)
(-0.000167502 0.000266452 0)
(-0.000187409 0.00023425 0)
(-0.000201479 0.000198772 0)
(-0.000209331 0.000162293 0)
(-0.000211545 0.000126906 0)
(-0.000209489 9.41019e-05 0)
(-0.000205003 6.4508e-05 0)
(-0.000200101 3.77957e-05 0)
(-0.000196817 1.25756e-05 0)
(-0.000196844 -1.22282e-05 0)
(-0.000200194 -3.74166e-05 0)
(-0.000205196 -6.40809e-05 0)
(-0.000209829 -9.36328e-05 0)
(-0.000212085 -0.000126432 0)
(-0.00021011 -0.000161885 0)
(-0.0002025 -0.00019853 0)
(-0.000188628 -0.00023428 0)
(-0.000168828 -0.000266837 0)
(-0.000144331 -0.000294187 0)
(-0.000116942 -0.000314962 0)
(-8.86057e-05 -0.000328427 0)
(-6.10664e-05 -0.000333292 0)
(-3.59408e-05 -0.000322636 0)
(-1.52326e-05 -0.0002704 0)
(-2.67086e-06 -0.000132364 0)
(-3.87829e-06 0.000164223 0)
(-2.20814e-05 0.000334791 0)
(-5.17848e-05 0.000397719 0)
(-8.70801e-05 0.000407384 0)
(-0.000124384 0.000395957 0)
(-0.000160686 0.000372384 0)
(-0.000193079 0.000339196 0)
(-0.000218916 0.000298625 0)
(-0.000236408 0.000253681 0)
(-0.000245086 0.000207739 0)
(-0.000245846 0.000163834 0)
(-0.000240612 0.000124102 0)
(-0.000231814 8.95361e-05 0)
(-0.000221928 6.00501e-05 0)
(-0.000213252 3.46411e-05 0)
(-0.000207974 1.14405e-05 0)
(-0.000207991 -1.1071e-05 0)
(-0.000213316 -3.42241e-05 0)
(-0.000222078 -5.95504e-05 0)
(-0.000232116 -8.89374e-05 0)
(-0.000241154 -0.000123421 0)
(-0.000246719 -0.000163141 0)
(-0.000246357 -0.00020716 0)
(-0.000238079 -0.000253396 0)
(-0.0002209 -0.000298823 0)
(-0.000195202 -0.000340019 0)
(-0.000162725 -0.000373879 0)
(-0.000126125 -0.000398049 0)
(-8.83754e-05 -0.000409884 0)
(-5.25839e-05 -0.000400347 0)
(-2.24413e-05 -0.000337153 0)
(-3.94582e-06 -0.000165436 0)
(-5.90366e-06 0.000206532 0)
(-3.34531e-05 0.000419509 0)
(-7.75651e-05 0.000494609 0)
(-0.00012821 0.000499686 0)
(-0.000178687 0.000475376 0)
(-0.000223662 0.000434374 0)
(-0.00025896 0.000382093 0)
(-0.000281963 0.000323567 0)
(-0.000292159 0.000264003 0)
(-0.000291075 0.000207867 0)
(-0.000281612 0.000158137 0)
(-0.000267171 0.000116107 0)
(-0.000250958 8.16606e-05 0)
(-0.000235649 5.37145e-05 0)
(-0.000223431 3.05787e-05 0)
(-0.000216358 1.00419e-05 0)
(-0.000216363 -9.66198e-06 0)
(-0.000223457 -3.01386e-05 0)
(-0.000235736 -5.31595e-05 0)
(-0.000251178 -8.09451e-05 0)
(-0.000267642 -0.000115211 0)
(-0.000282486 -0.000157096 0)
(-0.000292515 -0.000206805 0)
(-0.000294281 -0.000263155 0)
(-0.000284763 -0.000323262 0)
(-0.000262257 -0.00038268 0)
(-0.000227106 -0.000436105 0)
(-0.000181838 -0.000478284 0)
(-0.000130672 -0.000503522 0)
(-7.91259e-05 -0.000498847 0)
(-3.41567e-05 -0.000423371 0)
(-6.03298e-06 -0.00020849 0)
(-9.40021e-06 0.000263444 0)
(-5.27843e-05 0.000531832 0)
(-0.000119934 0.000619123 0)
(-0.000192757 0.000611769 0)
(-0.000258898 0.000563641 0)
(-0.000310186 0.000494828 0)
(-0.000342474 0.000416141 0)
(-0.000355402 0.000336361 0)
(-0.000351814 0.00026234 0)
(-0.000336412 0.000198249 0)
(-0.000314274 0.000145584 0)
(-0.000289791 0.000103849 0)
(-0.000266266 7.14222e-05 0)
(-0.000246015 4.62193e-05 0)
(-0.000230748 2.60342e-05 0)
(-0.000222186 8.51864e-06 0)
(-0.000222179 -8.13834e-06 0)
(-0.000230733 -2.55857e-05 0)
(-0.000246023 -4.56306e-05 0)
(-0.000266369 -7.06166e-05 0)
(-0.000290116 -0.000102758 0)
(-0.000315023 -0.000144177 0)
(-0.000337859 -0.000196587 0)
(-0.000354255 -0.000260649 0)
(-0.000359053 -0.000335086 0)
(-0.000347307 -0.000415922 0)
(-0.000315806 -0.000496347 0)
(-0.000264546 -0.000567333 0)
(-0.000197517 -0.000617503 0)
(-0.000123107 -0.000626017 0)
(-5.42387e-05 -0.000538303 0)
(-9.66162e-06 -0.00026668 0)
(-1.59474e-05 0.000343901 0)
(-8.7855e-05 0.000686127 0)
(-0.000192212 0.000781086 0)
(-0.000295115 0.000744725 0)
(-0.000375527 0.000654652 0)
(-0.00042454 0.000544761 0)
(-0.000442436 0.000433462 0)
(-0.00043506 0.000332247 0)
(-0.00041067 0.000247057 0)
(-0.000377335 0.000179297 0)
(-0.000341413 0.000127443 0)
(-0.000307164 8.86474e-05 0)
(-0.000277127 5.98432e-05 0)
(-0.000252759 3.82279e-05 0)
(-0.000235077 2.13641e-05 0)
(-0.000225371 6.98137e-06 0)
(-0.000225351 -6.60848e-06 0)
(-0.000235019 -2.092e-05 0)
(-0.000252682 -3.76277e-05 0)
(-0.000277085 -5.89825e-05 0)
(-0.000307274 -8.7406e-05 0)
(-0.000341894 -0.000125702 0)
(-0.000378545 -0.000176993 0)
(-0.000413118 -0.000244294 0)
(-0.000439324 -0.000329449 0)
(-0.000448937 -0.000431517 0)
(-0.000433178 -0.000545003 0)
(-0.000385352 -0.00065848 0)
(-0.000304356 -0.000752785 0)
(-0.000198937 -0.000792303 0)
(-9.11149e-05 -0.000697342 0)
(-1.65286e-05 -0.0003495 0)
(-2.94314e-05 0.000465865 0)
(-0.000155961 0.000906273 0)
(-0.000318409 0.000991003 0)
(-0.000455038 0.000892868 0)
(-0.000537083 0.000734467 0)
(-0.000564451 0.000570687 0)
(-0.000550443 0.000425575 0)
(-0.000511108 0.000308071 0)
(-0.000460209 0.000218466 0)
(-0.000407365 0.000152737 0)
(-0.000358208 0.000105547 0)
(-0.000315458 7.19124e-05 0)
(-0.000280164 4.78428e-05 0)
(-0.00025266 3.02693e-05 0)
(-0.000233213 1.68296e-05 0)
(-0.000222693 5.50727e-06 0)
(-0.000222659 -5.14813e-06 0)
(-0.000233107 -1.64013e-05 0)
(-0.000252481 -2.96791e-05 0)
(-0.000279941 -4.69662e-05 0)
(-0.000315274 -7.05852e-05 0)
(-0.00035825 -0.000103559 0)
(-0.000408003 -0.000149862 0)
(-0.000462099 -0.000214559 0)
(-0.000515241 -0.000303294 0)
(-0.000558012 -0.000420763 0)
(-0.000576342 -0.00056776 0)
(-0.000552926 -0.00073644 0)
(-0.000472328 -0.00090268 0)
(-0.000332844 -0.00100874 0)
(-0.000163897 -0.000926427 0)
(-3.08955e-05 -0.000476379 0)
(-5.86322e-05 0.000667818 0)
(-0.00029163 0.00122899 0)
(-0.000531056 0.00125091 0)
(-0.000682776 0.00103374 0)
(-0.000729335 0.000777473 0)
(-0.000701222 0.000555733 0)
(-0.000633734 0.000385741 0)
(-0.000552511 0.000263606 0)
(-0.000472624 0.000178914 0)
(-0.000401253 0.000121153 0)
(-0.000340835 8.18479e-05 0)
(-0.000291432 5.48808e-05 0)
(-0.000252277 3.61219e-05 0)
(-0.000222579 2.27048e-05 0)
(-0.000201938 1.2594e-05 0)
(-0.00019087 4.14095e-06 0)
(-0.00019081 -3.80337e-06 0)
(-0.000201749 -1.21941e-05 0)
(-0.000222237 -2.21484e-05 0)
(-0.00025177 -3.52747e-05 0)
(-0.000290776 -5.35522e-05 0)
(-0.00034012 -7.97582e-05 0)
(-0.000400742 -0.000117917 0)
(-0.000472917 -0.000174075 0)
(-0.00055479 -0.00025682 0)
(-0.000639978 -0.000377248 0)
(-0.000714008 -0.000547349 0)
(-0.000750543 -0.000773794 0)
(-0.000710961 -0.00104207 0)
(-0.000559516 -0.00127667 0)
(-0.000310969 -0.00126591 0)
(-6.25243e-05 -0.000689969 0)
(-0.000117246 0.00103478 0)
(-0.000534482 0.00169355 0)
(-0.00081744 0.00152279 0)
(-0.000899018 0.00110996 0)
(-0.000832871 0.000744417 0)
(-0.00070362 0.000483611 0)
(-0.000563594 0.000311836 0)
(-0.000436433 0.000202069 0)
(-0.00032953 0.000132172 0)
(-0.00024289 8.73017e-05 0)
(-0.000174016 5.80083e-05 0)
(-0.000119951 3.8448e-05 0)
(-7.82226e-05 2.51216e-05 0)
(-4.71141e-05 1.57314e-05 0)
(-2.57054e-05 8.73144e-06 0)
(-1.42447e-05 2.89754e-06 0)
(-1.41281e-05 -2.59604e-06 0)
(-2.53343e-05 -8.38032e-06 0)
(-4.64332e-05 -1.52427e-05 0)
(-7.71523e-05 -2.43654e-05 0)
(-0.000118392 -3.72339e-05 0)
(-0.000171869 -5.60322e-05 0)
(-0.00024012 -8.40873e-05 0)
(-0.000326324 -0.000127016 0)
(-0.00043353 -0.000194067 0)
(-0.000562903 -0.000300188 0)
(-0.000708929 -0.000468878 0)
(-0.000849546 -0.000731227 0)
(-0.000930439 -0.00111042 0)
(-0.000858998 -0.00155404 0)
(-0.00057285 -0.00175838 0)
(-0.000125574 -0.00108488 0)
(-0.000200203 0.00171157 0)
(-0.000800677 0.002246 0)
(-0.00087996 0.00165557 0)
(-0.000677255 0.00101783 0)
(-0.000391497 0.000595466 0)
(-0.000127376 0.000349584 0)
(8.65614e-05 0.00021042 0)
(0.000251607 0.000130448 0)
(0.000377252 8.30042e-05 0)
(0.000473025 5.38669e-05 0)
(0.000546253 3.53788e-05 0)
(0.000602327 2.32835e-05 0)
(0.000644933 1.51476e-05 0)
(0.000676396 9.47414e-06 0)
(0.000697985 5.27986e-06 0)
(0.000709638 1.77962e-06 0)
(0.00070987 -1.53734e-06 0)
(0.000698704 -5.00648e-06 0)
(0.000677691 -9.09782e-06 0)
(0.000646984 -1.45599e-05 0)
(0.000605409 -2.23263e-05 0)
(0.000550761 -3.37864e-05 0)
(0.000479493 -5.11897e-05 0)
(0.000386319 -7.84904e-05 0)
(0.00026386 -0.000122885 0)
(0.000101918 -0.00019809 0)
(-0.000111054 -0.000331025 0)
(-0.000380307 -0.000572912 0)
(-0.000680161 -0.00100532 0)
(-0.000900349 -0.00168516 0)
(-0.000837225 -0.00234567 0)
(-0.000206319 -0.00182026 0)
(-0.000112041 0.00250504 0)
(-0.000353329 0.00245917 0)
(0.000437131 0.00137516 0)
(0.00117011 0.0006841 0)
(0.00168856 0.000340872 0)
(0.00203926 0.00017937 0)
(0.00227939 0.000101189 0)
(0.00244771 6.05127e-05 0)
(0.00256896 3.7753e-05 0)
(0.0026584 2.4207e-05 0)
(0.00272543 1.57667e-05 0)
(0.00277609 1.03349e-05 0)
(0.00281427 6.70865e-06 0)
(0.00284236 4.20027e-06 0)
(0.0028617 2.36099e-06 0)
(0.00287235 8.1833e-07 0)
(0.00287274 -6.61236e-07 0)
(0.00286284 -2.19235e-06 0)
(0.00284434 -3.97359e-06 0)
(0.00281734 -6.35285e-06 0)
(0.00278069 -9.75054e-06 0)
(0.00273223 -1.47805e-05 0)
(0.00266841 -2.25102e-05 0)
(0.00258367 -3.4783e-05 0)
(0.00246928 -5.52035e-05 0)
(0.00231063 -9.15712e-05 0)
(0.00208279 -0.000162058 0)
(0.00174407 -0.000312612 0)
(0.00123089 -0.000652047 0)
(0.000497856 -0.00137873 0)
(-0.000307609 -0.00253254 0)
(-5.2947e-05 -0.0026062 0)
(0.00270049 0.00123467 0)
(0.00364397 0.000959118 0)
(0.00524171 0.000394875 0)
(0.00612965 0.000166669 0)
(0.00655916 7.45343e-05 0)
(0.00679162 3.63427e-05 0)