/*--------------------------------*- C++ -*----------------------------------*\
| =========                 |                                                 |
| \\      /  F ield         | OpenFOAM: The Open Source CFD Toolbox           |
|  \\    /   O peration     | Version:  2206                                  |
|   \\  /    A nd           | Website:  www.openfoam.com                      |
|    \\/     M anipulation  |                                                 |
\*---------------------------------------------------------------------------*/
FoamFile
{
    version     2.0;
    format      ascii;
    arch        "LSB;label=64;scalar=64";
    class       volScalarField;
    location    "4.9/water";
    object      alpha.gas;
}
// * * * * * * * * * * * * * * * * * * * * * * * * * * * * * * * * * * * * * //

dimensions      [0 0 0 0 0 0 0];

internalField   nonuniform List<scalar> 
23300
(
1e-15
1e-15
1e-15
1e-15
1e-15
1e-15
1e-15
1e-15
1e-15
1e-15
1e-15
1e-15
1e-15
1e-15
1e-15
1e-15
1e-15
1e-15
1e-15
1e-15
1e-15
1e-15
1e-15
1e-15
1e-15
1e-15
1e-15
1e-15
1e-15
1e-15
1e-15
1e-15
1e-15
1e-15
1e-15
1e-15
1e-15
1e-15
1e-15
1e-15
1e-15
1e-15
1e-15
1e-15
1e-15
1e-15
1e-15
1e-15
1e-15
1e-15
1e-15
1e-15
1e-15
1e-15
1e-15
1e-15
1e-15
1e-15
1e-15
1e-15
1e-15
1e-15
1e-15
1e-15
1e-15
1e-15
1e-15
1e-15
1e-15
1e-15
1e-15
1e-15
1e-15
1e-15
1e-15
1e-15
1e-15
1e-15
1e-15
1e-15
1e-15
1e-15
1e-15
1e-15
1e-15
1e-15
1e-15
1e-15
1e-15
1e-15
1e-15
1e-15
1e-15
1e-15
1e-15
1e-15
1e-15
1e-15
1e-15
1e-15
1e-15
1e-15
1e-15
1e-15
1e-15
1e-15
1e-15
1e-15
1e-15
1e-15
1e-15
1e-15
1e-15
1e-15
1e-15
1e-15
1e-15
1e-15
1e-15
1e-15
1e-15
1e-15
1e-15
1e-15
1e-15
1e-15
1e-15
1e-15
1e-15
1e-15
1e-15
1e-15
1e-15
1e-15
1e-15
1e-15
1e-15
1e-15
1e-15
1e-15
1e-15
1e-15
1e-15
1e-15
1e-15
1e-15
1e-15
1e-15
1e-15
1e-15
1e-15
1e-15
1e-15
1e-15
1e-15
1e-15
1e-15
1e-15
1e-15
1e-15
1e-15
1e-15
1e-15
1e-15
1e-15
1e-15
1e-15
1e-15
1e-15
1e-15
1e-15
1e-15
1e-15
1e-15
1e-15
1e-15
1e-15
1e-15
1e-15
1e-15
1e-15
1e-15
1e-15
1e-15
1e-15
1e-15
1e-15
1e-15
1e-15
1e-15
1e-15
1e-15
1e-15
1e-15
1e-15
1e-15
1e-15
1e-15
1e-15
1e-15
1e-15
1e-15
1e-15
1e-15
1e-15
1e-15
1e-15
1e-15
1e-15
1e-15
1e-15
1e-15
1e-15
1e-15
1e-15
1e-15
1e-15
1e-15
1e-15
1e-15
1e-15
1e-15
1e-15
1e-15
1e-15
1e-15
1e-15
1e-15
1e-15
1e-15
1e-15
1e-15
1e-15
1e-15
1e-15
1e-15
1e-15
1e-15
1e-15
1e-15
1e-15
1e-15
1e-15
1e-15
1e-15
1e-15
1e-15
1e-15
1e-15
1e-15
1e-15
1e-15
1e-15
1e-15
1e-15
1e-15
1e-15
1e-15
1e-15
1e-15
1e-15
1e-15
1e-15
1e-15
1e-15
1e-15
1e-15
1e-15
1e-15
1e-15
1e-15
1e-15
1e-15
1e-15
1e-15
1e-15
1e-15
1e-15
1e-15
1e-15
1e-15
1e-15
1e-15
1e-15
1e-15
1e-15
1e-15
1e-15
1e-15
1e-15
1e-15
1e-15
1e-15
1e-15
1e-15
1e-15
1e-15
1e-15
1e-15
1e-15
1e-15
1e-15
1e-15
1e-15
1e-15
1e-15
1e-15
1e-15
1e-15
1e-15
1e-15
1e-15
1e-15
1e-15
1e-15
1e-15
1e-15
1e-15
1e-15
1e-15
1e-15
1e-15
1e-15
1e-15
1e-15
1e-15
1e-15
1e-15
1e-15
1e-15
1e-15
1e-15
1e-15
1e-15
1e-15
1e-15
1e-15
1e-15
1e-15
1e-15
1e-15
1e-15
1e-15
1e-15
1e-15
1e-15
1e-15
1e-15
1e-15
1e-15
1e-15
1e-15
1e-15
1e-15
1e-15
1e-15
1e-15
1e-15
1e-15
1e-15
1e-15
1e-15
1e-15
1e-15
1e-15
1e-15
1e-15
1e-15
1e-15
1e-15
1e-15
1e-15
1e-15
1e-15
1e-15
1e-15
1e-15
1e-15
1e-15
1e-15
1e-15
1e-15
1e-15
1e-15
1e-15
1e-15
1e-15
1e-15
1e-15
1e-15
1e-15
1e-15
1e-15
1e-15
1e-15
1e-15
1e-15
1e-15
1e-15
1e-15
1e-15
1e-15
1e-15
1e-15
1e-15
1e-15
1e-15
1e-15
1e-15
1e-15
1e-15
1e-15
1e-15
1e-15
1e-15
1e-15
1e-15
1e-15
1e-15
1e-15
1e-15
1e-15
1e-15
1e-15
1e-15
1e-15
1e-15
1e-15
1e-15
1e-15
1e-15
1e-15
1e-15
1e-15
1e-15
1e-15
1e-15
1e-15
1e-15
1e-15
1e-15
1e-15
1e-15
1e-15
1e-15
1e-15
1e-15
1e-15
1e-15
1e-15
1e-15
1e-15
1e-15
1e-15
1e-15
1e-15
1e-15
1e-15
1e-15
1e-15
1e-15
1e-15
1e-15
1e-15
1e-15
1e-15
1e-15
1e-15
1e-15
1e-15
1e-15
1e-15
1e-15
1e-15
1e-15
1e-15
1e-15
1e-15
1e-15
1e-15
1e-15
1e-15
1e-15
1e-15
1e-15
1e-15
1e-15
1e-15
1e-15
1e-15
1e-15
1e-15
1e-15
1e-15
1e-15
1e-15
1e-15
1e-15
1e-15
1e-15
1e-15
1e-15
1e-15
1e-15
1e-15
1e-15
1e-15
1e-15
1e-15
1e-15
1e-15
1e-15
1e-15
1e-15
1e-15
1e-15
1e-15
1e-15
1e-15
1e-15
1e-15
1e-15
1e-15
1e-15
1e-15
1e-15
1e-15
1e-15
1e-15
1e-15
1e-15
1e-15
1e-15
1e-15
1e-15
1e-15
1e-15
1e-15
1e-15
1e-15
1e-15
1e-15
1e-15
1e-15
1e-15
1e-15
1e-15
1e-15
1e-15
1e-15
1e-15
1e-15
1e-15
1e-15
1e-15
1e-15
1e-15
1e-15
1e-15
1e-15
1.01220663212e-15
1e-15
1e-15
1e-15
1e-15
1e-15
1e-15
1e-15
1e-15
1e-15
1e-15
1e-15
1e-15
1e-15
1e-15
1e-15
1e-15
1e-15
1e-15
1e-15
1e-15
1e-15
1e-15
1e-15
1e-15
1e-15
1e-15
1e-15
1e-15
1e-15
1e-15
1e-15
1e-15
1e-15
1e-15
1e-15
1e-15
1e-15
1e-15
1e-15
1e-15
1e-15
1e-15
1e-15
1e-15
1e-15
1e-15
1e-15
1e-15
1e-15
1e-15
1e-15
1e-15
1e-15
1e-15
1e-15
1e-15
1e-15
1e-15
1e-15
1e-15
1e-15
1e-15
1e-15
1e-15
1e-15
1e-15
1e-15
1e-15
1e-15
1e-15
1e-15
1e-15
1e-15
1e-15
1e-15
1e-15
1e-15
1e-15
1e-15
1e-15
1e-15
1e-15
1e-15
1e-15
1e-15
1e-15
1e-15
1e-15
1e-15
1e-15
1e-15
1e-15
1e-15
1e-15
1e-15
1e-15
1e-15
1e-15
1e-15
1e-15
1e-15
1e-15
1e-15
1e-15
1e-15
1e-15
1e-15
1e-15
1e-15
1e-15
1e-15
1e-15
1e-15
1e-15
1e-15
1e-15
1e-15
1e-15
1e-15
1e-15
1e-15
1e-15
1e-15
1e-15
1e-15
1e-15
1e-15
1e-15
1e-15
1e-15
1e-15
1e-15
1.02528549481e-15
1.02272968918e-15
1e-15
1e-15
1e-15
1.01464310323e-15
1e-15
1.01633334648e-15
1e-15
1e-15
1e-15
1e-15
1e-15
1e-15
1e-15
1e-15
1e-15
1e-15
1e-15
1e-15
1e-15
1e-15
1e-15
1e-15
1e-15
1e-15
1e-15
1e-15
1e-15
1e-15
1e-15
1e-15
1e-15
1e-15
1e-15
1e-15
1e-15
1e-15
1e-15
1e-15
1e-15
1e-15
1e-15
1e-15
1e-15
1e-15
1e-15
1e-15
1e-15
1e-15
1e-15
1e-15
1e-15
1e-15
1e-15
1e-15
1e-15
1e-15
1e-15
1e-15
1e-15
1e-15
1e-15
1e-15
1e-15
1e-15
1e-15
1e-15
1e-15
1e-15
1e-15
1e-15
1e-15
1e-15
1e-15
1e-15
1e-15
1e-15
1e-15
1e-15
1e-15
1e-15
1e-15
1e-15
1e-15
1e-15
1e-15
1e-15
1e-15
1e-15
1e-15
1e-15
1e-15
1e-15
1e-15
1e-15
1e-15
1e-15
1e-15
1e-15
1e-15
1e-15
1e-15
1e-15
1e-15
1e-15
1e-15
1e-15
1e-15
1e-15
1e-15
1e-15
1e-15
1e-15
1e-15
1e-15
1e-15
1e-15
1e-15
1e-15
1e-15
1e-15
1e-15
1e-15
1e-15
1e-15
1e-15
1e-15
1e-15
1e-15
1e-15
1e-15
1e-15
1e-15
1e-15
1e-15
1e-15
1e-15
1e-15
1.01907239565e-15
1.02890015112e-15
1.02783828274e-15
1e-15
1e-15
1e-15
1.01298708452e-15
1e-15
1.01220663212e-15
1e-15
1e-15
1e-15
1e-15
1e-15
1.0000013753e-15
1.00008979528e-15
1.00017268517e-15
1.00025144094e-15
1.00031362533e-15
1.00036320943e-15
1.00038998565e-15
1.00040058103e-15
1.0003930079e-15
1.00037036978e-15
1.0003256752e-15
1.00026591469e-15
1.00018610578e-15
1.00009429633e-15
1e-15
1e-15
1e-15
1e-15
1e-15
1e-15
1e-15
1e-15
1e-15
1e-15
1e-15
1e-15
1e-15
1e-15
1e-15
1e-15
1e-15
1.00000128427e-15
1.0000039142e-15
1.00001173709e-15
1.00007900463e-15
1.0000840696e-15
1.00003290861e-15
1.00005343706e-15
1.00006152443e-15
1.00006614478e-15
1.00006253347e-15
1.00005475375e-15
1.00004002977e-15
1.0000318843e-15
1.00002442356e-15
1.00001736307e-15
1.00000974594e-15
1.00000493378e-15
1.00000227039e-15
1.00000072123e-15
1e-15
1e-15
1e-15
1e-15
1e-15
1e-15
1e-15
1e-15
1e-15
1e-15
1e-15
1e-15
1e-15
1e-15
1e-15
1e-15
1e-15
1e-15
1e-15
1e-15
1e-15
1e-15
1e-15
1e-15
1e-15
1e-15
1e-15
1e-15
1e-15
1e-15
1.00000192994e-15
1.00001050606e-15
1.00003422583e-15
1.00006133129e-15
1.00008767374e-15
1.00013160813e-15
1.00017364955e-15
1.00020570117e-15
1.00023218939e-15
1.00025165796e-15
1.00026682368e-15
1.0002764067e-15
1.00028247872e-15
1.0002834584e-15
1.00028165261e-15
1.0002752893e-15
1.00026591666e-15
1.00025197408e-15
1.00023417186e-15
1.00019580353e-15
1.00313125614e-15
1.01132005841e-15
1.01157899506e-15
1.01144953331e-15
1.01083396933e-15
1.01050118271e-15
1.00939702216e-15
1.00695948233e-15
1.00035980939e-15
1.00000417233e-15
1.00000142974e-15
1e-15
1e-15
1e-15
1e-15
1e-15
1e-15
1e-15
1e-15
1.00000063766e-15
1.00000398745e-15
1.00001372988e-15
1.00007516493e-15
1.00022127093e-15
1.00038954647e-15
1.00054265158e-15
1.02877553194e-15
1.02783828274e-15
1.02885431472e-15
1.02026341636e-15
1.00081215945e-15
1.00016439517e-15
1.01460081314e-15
1e-15
1.0157903104e-15
1e-15
1e-15
1e-15
1.00008532332e-15
1.00027782634e-15
1.00048558752e-15
1.00065515304e-15
1.0008130119e-15
1.00094769533e-15
1.00105971814e-15
1.00114977242e-15
1.00120044543e-15
1.00121995263e-15
1.0011963545e-15
1.00113943831e-15
1.00104215535e-15
1.00091651967e-15
1.00075694229e-15
1.00057417731e-15
1.00036429213e-15
1.00009223784e-15
1e-15
1e-15
1e-15
1e-15
1e-15
1e-15
1e-15
1e-15
1e-15
1e-15
1e-15
1e-15
1e-15
1e-15
1e-15
1.00000253318e-15
1.00002964823e-15
1.00027100963e-15
1.00069748594e-15
1.00061626038e-15
1.00024022696e-15
1.00024488741e-15
1.00025645519e-15
1.00025692844e-15
1.00024332405e-15
1.00021859259e-15
1.00018045401e-15
1.00012549335e-15
1.00006197609e-15
1.00002311201e-15
1.00001102886e-15
1.0000074063e-15
1e-15
1e-15
1e-15
1e-15
1e-15
1e-15
1e-15
1e-15
1e-15
1e-15
1e-15
1e-15
1e-15
1e-15
1e-15
1e-15
1e-15
1e-15
1e-15
1e-15
1e-15
1e-15
1e-15
1e-15
1e-15
1e-15
1e-15
1e-15
1e-15
1e-15
1e-15
1e-15
1.00000096824e-15
1.00001437332e-15
1.00003483376e-15
1.00006576015e-15
1.00016918121e-15
1.00028362844e-15
1.00038004847e-15
1.00045634785e-15
1.00052034039e-15
1.00056954471e-15
1.00060894973e-15
1.00063587082e-15
1.00065445282e-15
1.00066171279e-15
1.000661626e-15
1.0006520452e-15
1.00063512306e-15
1.00060837173e-15
1.00059074239e-15
1.0006963014e-15
1.01304926866e-15
1.01272199576e-15
1.01315544761e-15
1.01272199576e-15
1.01314836497e-15
1.01272199576e-15
1.01312616645e-15
1.01272199576e-15
1.01135023401e-15
1.00096257736e-15
1.00000265599e-15
1e-15
1e-15
1e-15
1e-15
1e-15
1e-15
1e-15
1e-15
1e-15
1.00001170756e-15
1.00008181535e-15
1.00023704071e-15
1.00058529256e-15
1.00097253811e-15
1.00136630607e-15
1.02783828274e-15
1.02888283069e-15
1.02783828274e-15
1.02850717861e-15
1.00228695677e-15
1.0007301001e-15
1.01298708452e-15
1e-15
1.01220663212e-15
1e-15
1e-15
1.00020457002e-15
1.00037563272e-15
1.00057378538e-15
1.0007978082e-15
1.00105768444e-15
1.00132844178e-15
1.00156169033e-15
1.00174434917e-15
1.00190343223e-15
1.001997995e-15
1.00203769712e-15
1.00200886375e-15
1.00192175737e-15
1.0017694202e-15
1.00156734029e-15
1.00131001051e-15
1.00102919222e-15
1.00074996481e-15
1.00046744596e-15
1.00015759815e-15
1e-15
1e-15
1e-15
1e-15
1e-15
1e-15
1e-15
1e-15
1e-15
1e-15
1e-15
1e-15
1.00000253559e-15
1.0000113876e-15
1.00010058635e-15
1.00031221129e-15
1.00089661236e-15
1.00136009774e-15
1.00129264551e-15
1.00071975728e-15
1.00050142669e-15
1.00052969987e-15
1.00052321922e-15
1.00050054744e-15
1.00046130593e-15
1.0004012277e-15
1.00032217842e-15
1.00021980861e-15
1.00011001581e-15
1.00002228973e-15
1.00000186214e-15
1e-15
1e-15
1e-15
1e-15
1e-15
1e-15
1e-15
1e-15
1e-15
1e-15
1e-15
1e-15
1e-15
1e-15
1e-15
1e-15
1e-15
1e-15
1e-15
1e-15
1e-15
1e-15
1e-15
1e-15
1e-15
1e-15
1e-15
1e-15
1e-15
1e-15
1e-15
1e-15
1e-15
1.00000563465e-15
1.000022027e-15
1.00010908737e-15
1.00032668096e-15
1.00050537843e-15
1.00064844885e-15
1.00076657154e-15
1.00086731346e-15
1.00094868031e-15
1.0010150577e-15
1.00106401076e-15
1.00109965863e-15
1.00111941902e-15
1.0011270443e-15
1.00112137544e-15
1.00110495807e-15
1.00107244085e-15
1.00095020073e-15
1.0121554322e-15
1.01272199576e-15
1.01315591625e-15
1.01272199576e-15
1.01315385125e-15
1.01272199576e-15
1.01313492315e-15
1.01272199576e-15
1.01312730731e-15
1.01272199576e-15
1.01283380242e-15
1.00126611919e-15
1.00004420735e-15
1.00003051988e-15
1.00002224469e-15
1.00001570209e-15
1.00001144951e-15
1.0000117342e-15
1.00001806762e-15
1.00003069109e-15
1.00005301417e-15
1.00009533533e-15
1.00020485194e-15
1.00053958434e-15
1.00112893052e-15
1.00170261094e-15
1.00234470273e-15
1.02881176089e-15
1.02783828274e-15
1.02879530036e-15
1.02783828274e-15
1.00399020084e-15
1.00147203595e-15
1.01403507189e-15
1e-15
1.01513027041e-15
1e-15
1.00005130521e-15
1.00021944828e-15
1.00036088692e-15
1.00055671651e-15
1.00078944963e-15
1.00106724125e-15
1.00138514748e-15
1.00177160435e-15
1.00209483507e-15
1.00235756124e-15
1.00252764607e-15
1.00260563662e-15
1.00259437458e-15
1.00248959867e-15
1.00229550328e-15
1.00202064192e-15
1.0016719217e-15
1.00129693077e-15
1.00094746667e-15
1.00065627717e-15
1.00039447262e-15
1.00010839898e-15
1e-15
1e-15
1e-15
1e-15
1e-15
1e-15
1e-15
1e-15
1e-15
1e-15
1e-15
1.00000226917e-15
1.00008352142e-15
1.00028814058e-15
1.0007124413e-15
1.00131843397e-15
1.00136991455e-15
1.00136993326e-15
1.00119259e-15
1.00078021294e-15
1.00076683262e-15
1.00076929407e-15
1.00074129721e-15
1.00070234809e-15
1.00065593685e-15
1.00059014404e-15
1.00047072579e-15
1.00030386912e-15
1.00010163906e-15
1e-15
1e-15
1e-15
1e-15
1e-15
1e-15
1e-15
1e-15
1e-15
1e-15
1e-15
1e-15
1e-15
1e-15
1e-15
1e-15
1e-15
1e-15
1e-15
1e-15
1e-15
1e-15
1e-15
1e-15
1e-15
1e-15
1e-15
1e-15
1e-15
1e-15
1e-15
1e-15
1e-15
1e-15
1.00000263804e-15
1.00001342842e-15
1.00025991992e-15
1.00054101137e-15
1.000760885e-15
1.00094925325e-15
1.00111157117e-15
1.00125238121e-15
1.00136941391e-15
1.00146632724e-15
1.0015410254e-15
1.00159740916e-15
1.00163342284e-15
1.00165262965e-15
1.00165367022e-15
1.00164073998e-15
1.00162932969e-15
1.00491702972e-15
1.01272199576e-15
1.01313789756e-15
1.01272199576e-15
1.01314298396e-15
1.01272199576e-15
1.0131346225e-15
1.01272199576e-15
1.01313085742e-15
1.01272199576e-15
1.01311718089e-15
1.01272199576e-15
1.01296455651e-15
1.00137149302e-15
1.00005635306e-15
1.00003970949e-15
1.0000342754e-15
1.00003104185e-15
1.00003242572e-15
1.0000389184e-15
1.00005502492e-15
1.00009309823e-15
1.0002097682e-15
1.00045357328e-15
1.00102058128e-15
1.00178961585e-15
1.00252027714e-15
1.00311052515e-15
1.02783828274e-15
1.02884197064e-15
1.02783828274e-15
1.02847733162e-15
1.00568643814e-15
1.0021675814e-15
1.01298708452e-15
1e-15
1.01220663212e-15
1e-15
1e-15
1.00014874062e-15
1.00029007851e-15
1.00048930124e-15
1.00073012381e-15
1.00102147039e-15
1.00134901366e-15
1.00180033444e-15
1.0022664073e-15
1.00263321024e-15
1.00288964086e-15
1.00301747783e-15
1.00303590206e-15
1.00292461856e-15
1.00270338925e-15
1.00236971667e-15
1.00194987339e-15
1.00149471619e-15
1.00108594013e-15
1.00076499353e-15
1.00050508532e-15
1.00028318035e-15
1.00002317903e-15
1e-15
1e-15
1e-15
1e-15
1e-15
1e-15
1e-15
1e-15
1e-15
1e-15
1.00000166286e-15
1.00018418497e-15
1.00047132514e-15
1.00094950466e-15
1.00132743594e-15
1.00135466136e-15
1.00136375993e-15
1.00129474473e-15
1.00109195414e-15
1.00101206103e-15
1.00099968374e-15
1.00095368616e-15
1.00087169162e-15
1.00076610961e-15
1.00062819968e-15
1.00047792402e-15
1.00029484242e-15
1.00007655607e-15
1e-15
1e-15
1e-15
1e-15
1e-15
1e-15
1e-15
1e-15
1e-15
1e-15
1e-15
1e-15
1e-15
1e-15
1e-15
1e-15
1e-15
1e-15
1e-15
1e-15
1e-15
1e-15
1e-15
1e-15
1e-15
1e-15
1e-15
1e-15
1e-15
1e-15
1e-15
1e-15
1e-15
1e-15
1.00000127436e-15
1.0000098768e-15
1.00037226016e-15
1.00072763317e-15
1.00099198595e-15
1.0012331099e-15
1.00144721271e-15
1.00163479251e-15
1.00179257715e-15
1.00192479082e-15
1.00202904989e-15
1.00210981736e-15
1.0021649077e-15
1.00219833218e-15
1.00220809684e-15
1.00220154093e-15
1.00211328343e-15
1.01272199576e-15
1.01313322971e-15
1.01272199576e-15
1.01313553565e-15
1.01272199576e-15
1.01313432951e-15
1.01272199576e-15
1.01313222204e-15
1.01272199576e-15
1.01311801914e-15
1.01272199576e-15
1.01310562005e-15
1.01272199576e-15
1.01295566692e-15
1.00087892927e-15
1.00006658566e-15
1.00005749408e-15
1.00005406144e-15
1.00005692429e-15
1.00006849881e-15
1.00009095237e-15
1.00018257823e-15
1.00043672799e-15
1.00083489275e-15
1.00158661584e-15
1.00249027125e-15
1.00338487496e-15
1.02142395107e-15
1.02880067167e-15
1.02783828274e-15
1.02873390683e-15
1.02783828274e-15
1.00726028458e-15
1.00271042855e-15
1.01362697031e-15
1e-15
1.01447268767e-15
1e-15
1e-15
1.00005501102e-15
1.00019657988e-15
1.00039738725e-15
1.00063774022e-15
1.00093333943e-15
1.00128738786e-15
1.00182650921e-15
1.00242201571e-15
1.00288893051e-15
1.00323320979e-15
1.00341642829e-15
1.00346876735e-15
1.00335778529e-15
1.00311821523e-15
1.00273586235e-15
1.00225534448e-15
1.00171778056e-15
1.00124130528e-15
1.00087278422e-15
1.00058584491e-15
1.00036728932e-15
1.00016790876e-15
1e-15
1e-15
1e-15
1e-15
1e-15
1e-15
1e-15
1e-15
1e-15
1e-15
1.00006781596e-15
1.00031479209e-15
1.00065887321e-15
1.00110803999e-15
1.00127631956e-15
1.00128138867e-15
1.00130346786e-15
1.00125757475e-15
1.00112498623e-15
1.00104855529e-15
1.00100016856e-15
1.00094562839e-15
1.00084596119e-15
1.00071953514e-15
1.00056508615e-15
1.00039185285e-15
1.00017153817e-15
1e-15
1e-15
1e-15
1e-15
1e-15
1e-15
1e-15
1e-15
1e-15
1e-15
1e-15
1e-15
1e-15
1e-15
1e-15
1e-15
1e-15
1e-15
1e-15
1e-15
1e-15
1e-15
1e-15
1e-15
1e-15
1e-15
1e-15
1e-15
1e-15
1e-15
1e-15
1e-15
1e-15
1e-15
1e-15
1.00000089225e-15
1.00000907216e-15
1.00038150026e-15
1.00081468038e-15
1.00116024798e-15
1.00147224719e-15
1.00174773178e-15
1.00198914969e-15
1.00219320234e-15
1.00236572648e-15
1.00250376862e-15
1.00261293495e-15
1.00269048816e-15
1.00274149493e-15
1.00276322022e-15
1.00276478954e-15
1.00871585007e-15
1.01311248352e-15
1.01272199576e-15
1.01312858389e-15
1.01272199576e-15
1.01313154691e-15
1.01272199576e-15
1.01312659009e-15
1.01272199576e-15
1.01311740002e-15
1.01272199576e-15
1.01310564342e-15
1.01272199576e-15
1.01309152504e-15
1.01272199576e-15
1.01072609227e-15
1.00055083949e-15
1.00008815369e-15
1.00008445649e-15
1.00008900071e-15
1.00010715313e-15
1.00017628796e-15
1.000406676e-15
1.00078025145e-15
1.00130596995e-15
1.00217739089e-15
1.00320136357e-15
1.00429116701e-15
1.02849434493e-15
1.02783828274e-15
1.02878352954e-15
1.02783828274e-15
1.02842489276e-15
1.0086515701e-15
1.00303882022e-15
1.01298622547e-15
1e-15
1.01220663212e-15
1e-15
1e-15
1e-15
1.00009716105e-15
1.00029893846e-15
1.00053636085e-15
1.00083298702e-15
1.00127272433e-15
1.00193553026e-15
1.00265495766e-15
1.00322526388e-15
1.00365887865e-15
1.00390018952e-15
1.00398794233e-15
1.00388035072e-15
1.00362532146e-15
1.00319876874e-15
1.00265993192e-15
1.00202872281e-15
1.00145488057e-15
1.00100064063e-15
1.00066652735e-15
1.00043251444e-15
1.00023907267e-15
1.00001040272e-15
1e-15
1e-15
1e-15
1e-15
1e-15
1e-15
1e-15
1e-15
1e-15
1.00010623632e-15
1.00040386668e-15
1.00078789107e-15
1.00109791779e-15
1.00118080843e-15
1.0011796234e-15
1.0012160991e-15
1.00116748869e-15
1.00106543928e-15
1.00099267351e-15
1.00092917306e-15
1.00085351641e-15
1.00072893642e-15
1.00057386864e-15
1.00038289377e-15
1.00014577133e-15
1e-15
1e-15
1e-15
1e-15
1e-15
1e-15
1e-15
1e-15
1e-15
1e-15
1e-15
1e-15
1e-15
1e-15
1e-15
1e-15
1e-15
1e-15
1e-15
1e-15
1e-15
1e-15
1e-15
1e-15
1e-15
1e-15
1e-15
1e-15
1e-15
1e-15
1e-15
1e-15
1e-15
1e-15
1e-15
1e-15
1.00000134705e-15
1.00000995717e-15
1.00037111202e-15
1.00084277788e-15
1.00127361497e-15
1.00166422929e-15
1.00200565173e-15
1.00230457261e-15
1.00255837711e-15
1.00277456624e-15
1.00294954535e-15
1.0030901443e-15
1.00319297207e-15
1.00326448853e-15
1.00330062868e-15
1.00329677179e-15
1.01305972962e-15
1.01272199576e-15
1.01310853451e-15
1.01272199576e-15
1.01311905138e-15
1.01272199576e-15
1.01311933182e-15
1.01272199576e-15
1.01311417683e-15
1.01272199576e-15
1.01310370607e-15
1.01272199576e-15
1.01309303323e-15
1.01272199576e-15
1.01308457125e-15
1.01272199576e-15
1.0036548336e-15
1.00024067399e-15
1.00015975434e-15
1.00017256606e-15
1.00022792687e-15
1.00039640581e-15
1.00074454083e-15
1.00118044107e-15
1.00181893726e-15
1.00276866382e-15
1.00389384403e-15
1.00517436854e-15
1.02783828274e-15
1.02875132938e-15
1.02783828274e-15
1.02867618883e-15
1.02783828274e-15
1.00986700474e-15
1.00317504533e-15
1.01335305233e-15
1e-15
1.01383817904e-15
1e-15
1e-15
1e-15
1e-15
1.00019515258e-15
1.00043178833e-15
1.00073374594e-15
1.00133542212e-15
1.00222778263e-15
1.00304116861e-15
1.00369576034e-15
1.0042172234e-15
1.00451780038e-15
1.00464059537e-15
1.00453729691e-15
1.00426450221e-15
1.00379319616e-15
1.00319482589e-15
1.00246718772e-15
1.00176284882e-15
1.00117181775e-15
1.00075661787e-15
1.0004924283e-15
1.00029029337e-15
1.00011621446e-15
1e-15
1e-15
1e-15
1e-15
1e-15
1e-15
1e-15
1e-15
1e-15
1.00007454308e-15
1.00038378973e-15
1.00077011225e-15
1.00102291536e-15
1.0010458112e-15
1.0010411751e-15
1.00106090911e-15
1.00104364845e-15
1.00095040477e-15
1.00084508223e-15
1.00076771937e-15
1.00066119141e-15
1.00051225308e-15
1.00031588156e-15
1.00004731151e-15
1e-15
1e-15
1e-15
1e-15
1e-15
1e-15
1e-15
1e-15
1e-15
1e-15
1e-15
1e-15
1e-15
1e-15
1e-15
1e-15
1e-15
1e-15
1e-15
1e-15
1e-15
1e-15
1e-15
1e-15
1e-15
1e-15
1e-15
1e-15
1e-15
1e-15
1e-15
1e-15
1e-15
1e-15
1e-15
1e-15
1e-15
1.00000175068e-15
1.00001152105e-15
1.00034686581e-15
1.00086961381e-15
1.00137681165e-15
1.00184056747e-15
1.00224452213e-15
1.00259929437e-15
1.00290249682e-15
1.00316248614e-15
1.00337497973e-15
1.00354768248e-15
1.00367669895e-15
1.00376908842e-15
1.00382415755e-15
1.0110278739e-15
1.01272199576e-15
1.01308891447e-15
1.01272199576e-15
1.01310279174e-15
1.01272199576e-15
1.013109074e-15
1.01272199576e-15
1.0131051883e-15
1.01272199576e-15
1.01309869241e-15
1.01272199576e-15
1.01309035218e-15
1.01272199576e-15
1.01307963793e-15
1.01272199576e-15
1.01307095602e-15
1.01272136203e-15
1.0012609179e-15
1.00038720108e-15
1.00040327087e-15
1.00050826749e-15
1.00074485516e-15
1.00112510614e-15
1.00161235332e-15
1.00233186086e-15
1.00332604088e-15
1.00454314141e-15
1.00599855585e-15
1.02852155979e-15
1.02783828274e-15
1.02873142471e-15
1.02783828274e-15
1.02837906865e-15
1.01091260067e-15
1.00311498639e-15
1.01298261405e-15
1e-15
1.01220663212e-15
1e-15
1e-15
1e-15
1e-15
1.00008035254e-15
1.00032135705e-15
1.00062992734e-15
1.00133760253e-15
1.00253896512e-15
1.00352937499e-15
1.00425771483e-15
1.0048680725e-15
1.00523485433e-15
1.0053953647e-15
1.00529985919e-15
1.00500570071e-15
1.00448533767e-15
1.00382339614e-15
1.00301398843e-15
1.00218037809e-15
1.00142035902e-15
1.0008742202e-15
1.00054631265e-15
1.0003272292e-15
1.00014271168e-15
1e-15
1e-15
1e-15
1e-15
1e-15
1e-15
1e-15
1e-15
1e-15
1e-15
1.0003106196e-15
1.00068298822e-15
1.00086123312e-15
1.00085729112e-15
1.00084920559e-15
1.00086021994e-15
1.00088571375e-15
1.00075945491e-15
1.00060676774e-15
1.00052939661e-15
1.00039449916e-15
1.00019289887e-15
1e-15
1e-15
1e-15
1e-15
1e-15
1e-15
1e-15
1e-15
1e-15
1e-15
1e-15
1e-15
1e-15
1e-15
1e-15
1e-15
1e-15
1e-15
1e-15
1e-15
1e-15
1e-15
1e-15
1e-15
1e-15
1e-15
1e-15
1e-15
1e-15
1e-15
1e-15
1e-15
1e-15
1e-15
1e-15
1e-15
1e-15
1e-15
1e-15
1.00000541554e-15
1.00001580981e-15
1.00034914516e-15
1.00092734195e-15
1.0015140985e-15
1.00204282074e-15
1.00250351414e-15
1.00291090977e-15
1.00326154376e-15
1.00356381905e-15
1.00381282051e-15
1.00401674073e-15
1.0041714858e-15
1.00428561076e-15
1.00434691997e-15
1.01272199576e-15
1.01306509963e-15
1.01272199576e-15
1.01307988003e-15
1.01272199576e-15
1.01309305315e-15
1.01272199576e-15
1.01309493748e-15
1.01272199576e-15
1.01309247806e-15
1.01272199576e-15
1.01308593741e-15
1.01272199576e-15
1.01307667531e-15
1.01272199576e-15
1.01307058735e-15
1.01272199576e-15
1.01306293501e-15
1.002275156e-15
1.00070398752e-15
1.00076029077e-15
1.00088721518e-15
1.00113599674e-15
1.00151942287e-15
1.0020513542e-15
1.00280887397e-15
1.00383861809e-15
1.00515847843e-15
1.00677117717e-15
1.02783828274e-15
1.02870257007e-15
1.02783828274e-15
1.02862437691e-15
1.02783828274e-15
1.01181953734e-15
1.0029530264e-15
1.01317789254e-15
1e-15
1.01325684198e-15
1e-15
1e-15
1e-15
1e-15
1e-15
1.00019793166e-15
1.0005140261e-15
1.00125431991e-15
1.00254515976e-15
1.00382817353e-15
1.00474435489e-15
1.00547705411e-15
1.00593511532e-15
1.00614549053e-15
1.00607134212e-15
1.00575724136e-15
1.00518404321e-15
1.00445219077e-15
1.00357860928e-15
1.00266307928e-15
1.00176283705e-15
1.00104644223e-15
1.00060202018e-15
1.00034688581e-15
1.00014804375e-15
1.00000073756e-15
1e-15
1e-15
1e-15
1e-15
1e-15
1e-15
1e-15
1e-15
1e-15
1.00018605139e-15
1.00051454533e-15
1.00062258724e-15
1.00061043094e-15
1.00060053423e-15
1.00061836227e-15
1.00068617646e-15
1.0005210591e-15
1.00031365917e-15
1.00019669319e-15
1.00000054027e-15
1e-15
1e-15
1e-15
1e-15
1e-15
1e-15
1e-15
1e-15
1e-15
1e-15
1e-15
1e-15
1e-15
1e-15
1e-15
1e-15
1e-15
1e-15
1e-15
1e-15
1e-15
1e-15
1e-15
1e-15
1e-15
1e-15
1e-15
1e-15
1e-15
1e-15
1e-15
1e-15
1e-15
1e-15
1e-15
1e-15
1e-15
1e-15
1e-15
1e-15
1.00000482182e-15
1.00000632737e-15
1.00039929275e-15
1.00105387594e-15
1.00170355912e-15
1.00229734172e-15
1.00281291569e-15
1.00327030663e-15
1.00366762428e-15
1.00401162345e-15
1.00429653447e-15
1.00453106322e-15
1.00471011774e-15
1.0048521895e-15
1.00943716798e-15
1.01303851628e-15
1.01272199576e-15
1.01305906358e-15
1.01272199576e-15
1.01307325357e-15
1.01272199576e-15
1.01308254569e-15
1.01272199576e-15
1.01308131816e-15
1.01272199576e-15
1.01307660788e-15
1.01272199576e-15
1.01307071143e-15
1.01272199576e-15
1.0130624691e-15
1.01272199576e-15
1.01306343378e-15
1.01272199576e-15
1.01062941472e-15
1.00147200535e-15
1.00115077695e-15
1.00127345205e-15
1.00152002052e-15
1.00190405339e-15
1.00246708958e-15
1.00324794602e-15
1.00433820392e-15
1.0057765676e-15
1.00752580846e-15
1.02852369603e-15
1.02783828274e-15
1.02868212043e-15
1.02783828274e-15
1.02834072226e-15
1.0125922441e-15
1.0026973388e-15
1.01297809832e-15
1e-15
1.01220663212e-15
1e-15
1e-15
1e-15
1e-15
1e-15
1.00005496399e-15
1.00038114259e-15
1.00102096045e-15
1.00245485131e-15
1.00383707023e-15
1.00503497269e-15
1.00594439632e-15
1.00652887164e-15
1.00680694642e-15
1.00677529418e-15
1.0064487443e-15
1.005823391e-15
1.00501700377e-15
1.00408088886e-15
1.00312639624e-15
1.00216211797e-15
1.00129232966e-15
1.00067818836e-15
1.00035140611e-15
1.00013934799e-15
1.00000367077e-15
1.00000054514e-15
1e-15
1e-15
1e-15
1e-15
1e-15
1e-15
1e-15
1e-15
1e-15
1.00027431884e-15
1.00033175042e-15
1.00031572758e-15
1.00030288874e-15
1.00032518171e-15
1.00037490946e-15
1.00025090172e-15
1e-15
1e-15
1e-15
1e-15
1e-15
1e-15
1e-15
1e-15
1e-15
1e-15
1e-15
1e-15
1e-15
1e-15
1e-15
1e-15
1e-15
1e-15
1e-15
1e-15
1e-15
1e-15
1e-15
1e-15
1e-15
1e-15
1e-15
1e-15
1e-15
1e-15
1e-15
1e-15
1e-15
1e-15
1e-15
1e-15
1e-15
1e-15
1e-15
1e-15
1e-15
1e-15
1e-15
1.00000269824e-15
1.00002113226e-15
1.00046525615e-15
1.00119007684e-15
1.00197868234e-15
1.0026018481e-15
1.00316183994e-15
1.00368105225e-15
1.00412758259e-15
1.00451323083e-15
1.00483530983e-15
1.00510143818e-15
1.00530953803e-15
1.00543140872e-15
1.0129796586e-15
1.01272199576e-15
1.01303393563e-15
1.01272199576e-15
1.01304877184e-15
1.01272199576e-15
1.0130626796e-15
1.01272199576e-15
1.01306787891e-15
1.01272199576e-15
1.01306705892e-15
1.01272199576e-15
1.01306302079e-15
1.01272199576e-15
1.01305737253e-15
1.01272199576e-15
1.01305634985e-15
1.01272199576e-15
1.01305237507e-15
1.01272199576e-15
1.00262026649e-15
1.0015205269e-15
1.00163142054e-15
1.00187327305e-15
1.0022636481e-15
1.00286049513e-15
1.00368456202e-15
1.00487173492e-15
1.00643005156e-15
1.00829286896e-15
1.02783828274e-15
1.02865711585e-15
1.02783828274e-15
1.02857850142e-15
1.02783828274e-15
1.01324441952e-15
1.00236654211e-15
1.01307044565e-15
1e-15
1.0127641884e-15
1e-15
1e-15
1e-15
1e-15
1e-15
1e-15
1.00022744938e-15
1.00072568328e-15
1.00222448888e-15
1.00379923926e-15
1.00519268628e-15
1.00630325208e-15
1.00703754231e-15
1.00740098042e-15
1.0074250926e-15
1.00709532743e-15
1.00642058291e-15
1.00553703367e-15
1.00452509604e-15
1.00352889836e-15
1.00254702327e-15
1.00159491775e-15
1.00079967292e-15
1.00034799866e-15
1.00011330783e-15
1.00000743144e-15
1.00000325421e-15
1e-15
1e-15
1e-15
1e-15
1e-15
1e-15
1e-15
1e-15
1e-15
1e-15
1e-15
1e-15
1e-15
1e-15
1e-15
1e-15
1e-15
1e-15
1e-15
1e-15
1e-15
1e-15
1e-15
1e-15
1e-15
1e-15
1e-15
1e-15
1e-15
1e-15
1e-15
1e-15
1e-15
1e-15
1e-15
1e-15
1e-15
1e-15
1e-15
1e-15
1e-15
1e-15
1e-15
1e-15
1e-15
1e-15
1e-15
1e-15
1e-15
1e-15
1e-15
1e-15
1e-15
1e-15
1e-15
1e-15
1e-15
1e-15
1e-15
1.00000730454e-15
1.0000238259e-15
1.00052149641e-15
1.00136542104e-15
1.00218326453e-15
1.00289297924e-15
1.00356776108e-15
1.00411278213e-15
1.0046050591e-15
1.00504610796e-15
1.00540766266e-15
1.00570631094e-15
1.00593726962e-15
1.00726256625e-15
1.01272199576e-15
1.01300668234e-15
1.01272199576e-15
1.01302608136e-15
1.01272199576e-15
1.01303975943e-15
1.01272199576e-15
1.01305305859e-15
1.01272199576e-15
1.01305524129e-15
1.01272199576e-15
1.01305102614e-15
1.01272199576e-15
1.01304770995e-15
1.01272199576e-15
1.01304216305e-15
1.01272199576e-15
1.01304548748e-15
1.01272199576e-15
1.01303985496e-15
1.0036899133e-15
1.001861333e-15
1.00195473573e-15
1.00219877761e-15
1.00261633099e-15
1.00326503703e-15
1.00416306947e-15
1.00546600433e-15
1.00712106108e-15
1.00907921072e-15
1.0285215309e-15
1.02783828274e-15
1.0286381639e-15
1.02783828274e-15
1.02830877168e-15
1.01376783198e-15
1.00197082617e-15
1.01297366311e-15
1e-15
1.01220615481e-15
1e-15
1e-15
1e-15
1e-15
1e-15
1e-15
1.00004446612e-15
1.00049232743e-15
1.001869714e-15
1.00372265705e-15
1.00532393438e-15
1.00664855645e-15
1.00754837523e-15
1.00801663137e-15
1.00809645467e-15
1.00777069454e-15
1.00704622864e-15
1.00607934145e-15
1.00496973711e-15
1.00389611591e-15
1.00287904185e-15
1.00189936292e-15
1.00097512319e-15
1.000352486e-15
1.00005810597e-15
1.00001132874e-15
1.0000052543e-15
1e-15
1e-15
1e-15
1e-15
1e-15
1e-15
1e-15
1e-15
1e-15
1e-15
1e-15
1e-15
1e-15
1e-15
1e-15
1e-15
1e-15
1e-15
1e-15
1e-15
1e-15
1e-15
1e-15
1e-15
1e-15
1e-15
1e-15
1e-15
1e-15
1e-15
1e-15
1e-15
1e-15
1e-15
1e-15
1e-15
1e-15
1e-15
1e-15
1e-15
1e-15
1e-15
1e-15
1e-15
1e-15
1e-15
1e-15
1e-15
1e-15
1e-15
1e-15
1e-15
1e-15
1e-15
1e-15
1e-15
1e-15
1e-15
1e-15
1.00000677046e-15
1.00002680632e-15
1.00063037797e-15
1.00149099652e-15
1.00234110568e-15
1.00317494135e-15
1.00387051829e-15
1.00453518031e-15
1.00511474936e-15
1.00556687181e-15
1.00596860363e-15
1.00631315985e-15
1.00658195161e-15
1.01272199576e-15
1.01297795046e-15
1.01272199576e-15
1.01300013879e-15
1.01272199576e-15
1.01301443729e-15
1.01272199576e-15
1.01302800278e-15
1.01272199576e-15
1.01303817961e-15
1.01272199576e-15
1.01303880163e-15
1.01272199576e-15
1.01303732474e-15
1.01272199576e-15
1.01303609155e-15
1.01272199576e-15
1.01303574578e-15
1.01272199576e-15
1.01303493245e-15
1.01272199576e-15
1.00470801778e-15
1.00220862676e-15
1.00227244239e-15
1.00253164234e-15
1.00300214362e-15
1.00371765902e-15
1.00470574674e-15