/*--------------------------------*- C++ -*----------------------------------*\
| =========                 |                                                 |
| \\      /  F ield         | OpenFOAM: The Open Source CFD Toolbox           |
|  \\    /   O peration     | Version:  2206                                  |
|   \\  /    A nd           | Website:  www.openfoam.com                      |
|    \\/     M anipulation  |                                                 |
\*---------------------------------------------------------------------------*/
FoamFile
{
    version     2.0;
    format      ascii;
    arch        "LSB;label=64;scalar=64";
    class       volScalarField;
    location    "4.9/water";
    object      Ct2;
}
// * * * * * * * * * * * * * * * * * * * * * * * * * * * * * * * * * * * * * //

dimensions      [0 0 0 0 0 0 0];

internalField   nonuniform List<scalar> 
23300
(
8.96853173187
8.96866659642
8.96881772519
8.96899868254
8.96920550427
8.96943409979
8.96968082037
8.9699424917
8.97021593348
8.9704981147
8.97078583563
8.97107601291
8.97136547865
8.97165130752
8.97193066975
8.97220112947
8.972460503
8.97270708977
8.97293951186
8.97315687156
8.97335857416
8.97354442898
8.9737144711
8.97386902983
8.97400856535
8.97413372396
8.97424519829
8.97434378015
8.97443024535
8.9745054076
8.97457002432
8.97462485142
8.97467056505
8.97470781624
8.97473716429
8.97475913058
8.9747741404
8.97478257534
8.97478472073
8.97478081532
8.97477099994
8.97475538855
8.97473404101
8.97470696676
8.97467408757
8.97463528635
8.9745903657
8.97453909301
8.97448115873
8.97441622034
8.97434386179
8.9742636382
8.9741750381
8.97407753126
8.97397053647
8.97385347604
8.9737257535
8.97358682027
8.97343617014
8.97327342692
8.97309836677
8.97291104065
8.97271184223
8.97250168616
8.97228214699
8.97205572273
8.97182608285
8.97159847922
8.97138023599
8.97118161525
8.97101721277
8.97090826211
8.97088202875
8.97094484634
8.97107234366
8.9712415851
8.97143623581
8.97164515325
8.97186068689
8.97207748528
8.9722917143
8.9725005997
8.97270213458
8.97289490623
8.9730779663
8.97325074173
8.97341295559
8.97356456576
8.97370570886
8.97383665491
8.97395776824
8.97406947519
8.974172239
8.97426653813
8.97435285182
8.97443164628
8.97450336761
8.97456843327
8.97462722966
8.97468010662
8.97472737757
8.9747693153
8.97480615278
8.97483807806
8.97486523258
8.97488769897
8.97490549104
8.9749186537
8.97492716492
8.97493093383
8.97492980081
8.97492352789
8.97491179161
8.97489416669
8.9748701122
8.97483894776
8.97479983206
8.97475173106
8.97469338937
8.97462329298
8.97453963999
8.97444030972
8.97432285268
8.97418449631
8.97402219732
8.97383274039
8.97361292012
8.97335980258
8.97307109323
8.97274557788
8.97238361975
8.97198761535
8.97156232759
8.97111495289
8.97065486186
8.97019303248
8.96974154772
8.96931417264
8.96892906902
8.96862878499
8.96392188911
8.96401914961
8.96418299418
8.96440089739
8.96466462056
8.96496749444
8.96530361753
8.96566773183
8.96605467473
8.96645951634
8.96687719384
8.96730282264
8.96773146211
8.9681584941
8.96857945339
8.96899038848
8.96938769869
8.96976842665
8.9701300708
8.97047079581
8.97078921863
8.97108455081
8.97135637423
8.97160474084
8.9718299571
8.97203266393
8.97221364243
8.97237388777
8.97251443983
8.97263645651
8.97274106703
8.9728294457
8.97290268414
8.97296186595
8.97300795487
8.97304187116
8.97306439349
8.97307623742
8.97307796835
8.97307008145
8.97305292338
8.97302678403
8.97299185596
8.97294826572
8.97289600602
8.97283501636
8.97276511778
8.97268609059
8.97259760985
8.97249932205
8.97239078294
8.97227153561
8.97214105318
8.97199882172
8.97184429109
8.97167696761
8.97149637808
8.97130217891
8.97109414103
8.97087228561
8.97063690205
8.97038872566
8.97012900703
8.96985975228
8.96958386351
8.96930545476
8.9690300609
8.96876499697
8.96851955739
8.96830526024
8.96813569418
8.96802571878
8.96798811123
8.96802593394
8.968129558
8.96828481424
8.96847809927
8.96869804794
8.96893560712
8.96918370875
8.96943679183
8.96969050081
8.96994139713
8.97018682165
8.97042472831
8.97065361356
8.970872398
8.97108037908
8.97127713705
8.97146250078
8.9716364729
8.97179920702
8.97195095008
8.97209202946
8.97222280979
8.97234368787
8.97245506058
8.97255732512
8.97265085497
8.97273600315
8.97281308349
8.97288237475
8.97294410445
8.97299845149
8.97304552935
8.97308538543
8.9731179614
8.97314320889
8.97316100178
8.97317111892
8.97317322703
8.97316687324
8.97315146287
8.97312624383
8.97309027752
8.9730424157
8.97298126626
8.97290516652
8.97281215128
8.97269993514
8.97256590176
8.9724071227
8.97222040483
8.97200239222
8.97174972612
8.97145928749
8.97112852093
8.97075584784
8.97034114092
8.96988622379
8.96939531215
8.96887529252
8.96833569192
8.96778817698
8.96724538645
8.96671883336
8.96621537714
8.96573110394
8.96523978547
8.96467130071
8.96628117429
8.96632472363
8.96641613933
8.9665489049
8.96671816777
8.96691967804
8.96714945298
8.96740372179
8.96767867523
8.96797055571
8.96827548582
8.9685896487
8.9689091839
8.96923040976
8.96954975441
8.96986397134
8.97017007096
8.97046549644
8.97074803466
8.97101594157
8.9712678298
8.97150275101
8.97172007
8.97191951936
8.97210107275
8.97226498595
8.97241167799
8.97254176717
8.97265596297
8.97275510054
8.97284004291
8.97291171528
8.97297101681
8.97301885635
8.97305607415
8.97308348124
8.97310179165
8.97311166691
8.97311365833
8.97310825657
8.97309584305
8.97307672368
8.97305111679
8.9730191886
8.97298100949
8.97293660702
8.97288592676
8.97282888467
8.97276532923
8.97269509333
8.97261795843
8.97253370727
8.9724420915
8.97234288741
8.97223586909
8.97212086978
8.97199776348
8.97186653537
8.97172727541
8.97158026251
8.97142597485
8.9712651935
8.97109903473
8.97092907681
8.97075741345
8.97058679307
8.97042066456
8.97026327191
8.97011959573
8.96999525835
8.96989616227
8.96982792018
8.96979464467
8.96979762927
8.96983461614
8.96990109177
8.96999186997
8.97010191084
8.97022665111
8.97036212546
8.9705049175
8.97065214003
8.97080135293
8.97095054144
8.9710980451
8.97124254012
8.97138297576
8.97151855775
8.97164869124
8.97177296648
8.97189110964
8.97200297253
8.97210849188
8.97220768363
8.97230061006
8.97238737793
8.97246811227
8.97254295732
8.9726120554
8.97267554953
8.97273356588
8.97278621698
8.97283358637
8.97287573121
8.97291266799
8.97294437487
8.97297078058
8.97299173638
8.97300705341
8.97301647347
8.97301965112
8.9730161469
8.97300540785
8.97298675742
8.97295937422
8.97292228075
8.97287432433
8.97281417126
8.97274030005
8.97265101555
8.97254447361
8.97241873939
8.97227187169
8.97210205573
8.97190777585
8.97168804386
8.97144266538
8.97117254283
8.97087997566
8.970568927
8.97024518586
8.96991636174
8.96959161791
8.96928106395
8.96899470419
8.96874082585
8.96852362905
8.96833980752
8.96817270516
8.9680070245
8.96694461124
8.96698132811
8.96705507764
8.9671634508
8.96730357536
8.96747232382
8.96766643238
8.96788258655
8.96811738613
8.96836742376
8.96862924604
8.96889945944
8.96917471035
8.96945180507
8.96972769983
8.96999961234
8.97026500504
8.97052167175
8.97076770384
8.97100154718
8.97122195099
8.9714280002
8.97161905353
8.97179476042
8.97195499589
8.97209986985
8.97222966341
8.97234483455
8.97244595713
8.97253372423
8.97260888975
8.97267227054
8.9727246915
8.9727669891
8.97279996244
8.97282438139
8.9728409461
8.97285030202
8.97285300858
8.97284956121
8.97284037037
8.97282575299
8.97280593229
8.97278108004
8.9727512963
8.97271663823
8.97267710469
8.97263266486
8.97258324416
8.97252875278
8.97246907291
8.97240408783
8.97233367142
8.97225771904
8.97217614062
8.97208889491
8.97199598782
8.97189751184
8.9717936514
8.97168472947
8.9715712218
8.97145381237
8.97133341715
8.97121124695
8.97108883493
8.97096809323
8.97085131833
8.97074119869
8.97064073484
8.97055311745
8.97048147533
8.97042855189
8.9703962321
8.97038521221
8.97039492755
8.97042367779
8.97046913728
8.97052880019
8.97060014855
8.97068079929
8.9707685549
8.97086144565
8.97095772693
8.9710558887
8.97115463468
8.97125287871
8.97134971713
8.97144441948
8.97153639958
8.97162520499
8.97171049001
8.97179200635
8.9718695796
8.97194310212
8.97201251321
8.97207779422
8.97213895211
8.97219601638
8.97224902534
8.97229802433
8.97234305406
8.97238414948
8.97242132962
8.97245459682
8.9724839279
8.97250927439
8.97253055702
8.97254758714
8.97256013436
8.97256790852
8.97257054502
8.97256759612
8.97255851644
8.97254265432
8.97251923911
8.97248737598
8.97244604059
8.97239408583
8.97233025529
8.97225321675
8.97216161248
8.9720541398
8.97192965901
8.97178733963
8.9716268381
8.97144851009
8.97125364069
8.97104468112
8.97082545888
8.97060133063
8.97037922739
8.97016754703
8.96997584096
8.96981426046
8.96969273585
8.96961988009
8.96960159401
8.96963926387
8.96972438184
8.96985151113
8.96763208009
8.96766283999
8.96772388054
8.96781378287
8.96793062432
8.96807205783
8.96823547271
8.96841808902
8.96861700466
8.96882926739
8.96905190103
8.96928197623
8.96951663233
8.96975314649
8.96998895032
8.97022168811
8.9704492227
8.97066967608
8.9708814213
8.97108310488
8.97127362644
8.97145214715
8.97161806181
8.97177099878
8.97191078865
8.97203745948
8.972151204
8.97225237126
8.97234143224
8.97241896815
8.97248563457
8.97254214758
8.97258924833
8.9726276902
8.97265820732
8.97268150655
8.97269824304
8.97270901951
8.97271437006
8.97271476707
8.97271061244
8.97270222745
8.97268981995
8.97267354728
8.97265351667
8.97262979624
8.97260241258
8.97257136577
8.97253662758
8.97249815649
8.97245589641
8.97240979201
8.97235978854
8.97230584802
8.97224795101
8.97218611453
8.97212039648
8.97205091616
8.97197786202
8.9719015153
8.97182226135
8.97174061614
8.97165724005
8.97157296435
8.971488802
8.97140596452
8.97132585414
8.97125004864
8.97118024607
8.97111818614
8.97106552145
8.97102366737
8.97099363716
8.97097584436
8.97097025035
8.97097633692
8.97099307886
8.97101927656
8.97105364002
8.97109485872
8.97114165531
8.97119282705
8.97124726477
8.97130396977
8.97136205509
8.97142074886
8.97147938631
8.97153740642
8.97159433996
8.97164980349
8.9717034866
8.97175514553
8.97180459116
8.9718516832
8.97189631952
8.97193843126
8.97197797346
8.97201492111
8.97204926092
8.97208098808
8.97211009903
8.97213658868
8.97216044403
8.97218164197
8.97220014388
8.97221589443
8.97222881817
8.97223872149
8.97224536481
8.97224845614
8.97224764019
8.97224249032
8.97223249878
8.97221707092
8.97219551981
8.97216706725
8.97213084928
8.97208593298
8.97203134421
8.9719661139
8.97188934338
8.97180029569
8.97169851232
8.97158395879
8.97145719356
8.97131955625
8.97117336059
8.97102207682
8.9708704771
8.97072471638
8.97059231188
8.97048198737
8.97040334779
8.97036636362
8.97038065522
8.97045457251
8.97059402059
8.97080083197
8.97106916013
8.97138937017
8.96818134158
8.96820750767
8.96825930326
8.968335694
8.96843519414
8.96855592724
8.96869574175
8.96885228754
8.96902308192
8.96920557415
8.96939719315
8.96959540538
8.96979775008
8.9700018878
8.97020562422
8.97040694584
8.97060403129
8.97079527273
8.9709792754
8.97115486651
8.97132108621
8.9714771878
8.97162262382
8.97175704118
8.97188026463
8.97199228833
8.9720932569
8.97218345322
8.9722632762
8.97233322458
8.97239387165
8.97244584645
8.97248980784
8.97252642655
8.97255636227
8.97258025036
8.97259868505
8.97261221308
8.97262132412
8.97262645144
8.9726279668
8.97262619201
8.97262131084
8.97261345914
8.97260273622
8.97258920817
8.97257291041
8.97255385672
8.97253204157
8.97250744895
8.97248005476
8.97244983568
8.97241677184
8.97238085603
8.97234209718
8.9723005302
8.97225622061
8.97220927544
8.97215984904
8.97210815499
8.97205447279
8.97199915998
8.9719426584
8.9718855041
8.9718283296
8.97177186619
8.97171693442
8.97166442926
8.97161528795
8.97157044794
8.97153078672
8.97149705731
8.97146982063
8.97144937189
8.9714357181
8.97142878328
8.97142822947
8.97143346423
8.97144386126
8.97145874537
8.97147742771
8.97149923165
8.97152351111
8.97154966432
8.9715771408
8.97160544656
8.97163414412
8.97166285264
8.97169124422
8.97171904154
8.97174601265
8.9717719676
8.97179675285
8.97182024768
8.97184235871
8.97186301647
8.9718821702
8.97189978465
8.97191583522
8.97193030497
8.97194318011
8.97195444727
8.97196408936
8.97197208327
8.97197839642
8.97198298504
8.97198579181
8.97198664113
8.97198531034
8.97198153074
8.97197497976
8.97196527474
8.97195196716
8.97193454029
8.97191240956
8.97188492922
8.97185140574
8.97181112222
8.97176337545
8.97170753001
8.97164309133
8.97156980093
8.97148775363
8.97139753645
8.9713003837
8.97119834138
8.97109442749
8.97099277259
8.97089871842
8.97081884978
8.97076092997
8.97073370911
8.97074657422
8.97080901538
8.97092988744
8.97111644502
8.97137308279
8.97169956631
8.97208790331
8.97252163342
8.96865017671
8.96867277384
8.96871747243
8.96878343635
8.96886943828
8.96897390518
8.9690950114
8.9692307387
8.96937894113
8.96953740273
8.96970389076
8.96987620438
8.9700522144
8.97022990036
8.97040737606
8.97058291332
8.97075495447
8.97092212351
8.97108322839
8.97123726277
8.97138340192
8.97152099881
8.97164957684
8.97176882283
8.9718785778
8.9719788273
8.97206968957
8.97215140231
8.97222430723
8.9722888328
8.97234547558
8.97239478055
8.97243732152
8.97247368236
8.97250444001
8.9725301499
8.97255133428
8.97256847382
8.97258200204
8.97259230314
8.97259971211
8.9726045212
8.97260691373
8.97260699832
8.97260485684
8.97260054511
8.97259409665
8.97258552808
8.97257484266
8.97256203551
8.97254709695
8.9725300176
8.97251079158
8.97248942159
8.97246592221
8.9724403252
8.97241268297
8.97238307413
8.97235160725
8.97231842637
8.97228371462
8.97224769913
8.97221065352
8.97217290071
8.97213481235
8.97209680692
8.97205934287
8.97202290845
8.97198800503
8.9719551261
8.97192473051
8.97189721402
8.97187288049
8.97185192878
8.97183439269
8.97182019051
8.9718093235
8.97180159294
8.97179666135
8.97179421692
8.97179391796
8.97179541979
8.97179838242
8.97180248066
8.97180740973
8.9718128896
8.97181866722
8.97182451759
8.97183024376
8.9718356761
8.97184067096
8.9718451091
8.97184889365
8.97185194809
8.97185421389
8.97185564835
8.97185622199
8.97185591632
8.97185472118
8.97185263243
8.9718496493
8.97184577213
8.97184099983
8.97183532793
8.9718287464
8.97182123804
8.97181277706
8.97180322458
8.97179239575
8.97178006638
8.97176596756
8.9717497815
8.9717311392
8.97170962133
8.97168476321
8.97165606602
8.97162301581
8.97158511315
8.97154191558
8.97149309578
8.97143851704
8.97137832765
8.97131307343
8.97124382623
8.9711723229
8.97110110648
8.97103365762
8.9709745006
8.97092926488
8.97090467908
8.97090847071
8.97094914096
8.97103558057
8.97117649062
8.97137957181
8.97165044131
8.97199120501
8.97239849613
8.97286040706
8.97335384971
8.96905222841
8.96907202647
8.96911123332
8.9691690974
8.96924455522
8.96933623875
8.96944255251
8.96956172483
8.96969186964
8.96983103743
8.96997726799
8.97012863367
8.97028327826
8.9704394473
8.97059551241
8.97074998782
8.97090154175
8.97104900149
8.97119135552
8.9713277511
8.97145749143
8.97158002947
8.97169496322
8.97180202767
8.97190108898
8.97199213453
8.97207526494
8.97215068115
8.97221867315
8.97227960375
8.97233389436
8.97238200683
8.9724244285
8.9724616549
8.97249417707
8.97252246787
8.97254697365
8.97256810586
8.97258623762
8.97260170058
8.97261478597
8.97262575302
8.97263479526
8.97264199136
8.97264740342
8.97265107328
8.97265302702
8.97265327798
8.97265183027
8.97264868181
8.97264382744
8.97263726176
8.97262898188
8.97261899011
8.97260729655
8.97259392164
8.97257889864
8.9725622761
8.97254412011
8.9725245166
8.97250357313
8.97248142048
8.97245821355
8.97243413155
8.97240937695
8.97238417321
8.9723587607
8.97233339073
8.97230831751
8.97228378812
8.97226003095
8.97223724337
8.97221558062
8.97219514494
8.97217599224
8.97215806748
8.97214128762
8.97212572964
8.97211128663
8.97209777531
8.97208505535
8.97207296866
8.97206135987
8.97205007587
8.97203897179
8.9720279128
8.97201677628
8.97200545285
8.97199384724
8.97198187835
8.97196947935
8.97195659705
8.97194319158
8.97192923529
8.97191471203
8.97189961589
8.97188395012
8.97186772563
8.97185095978
8.97183367467
8.97181589577
8.97179765021
8.97177896538
8.97175986743
8.97174038008
8.97172052337
8.97170031342
8.97167966313
8.97165844023
8.97163648055
8.97161358438
8.9715895144
8.97156399613
8.97153672165
8.97150735812
8.97147556243
8.97144100401
8.97140339763
8.97136254866
8.97131841214
8.97127116751
8.97122130891
8.97116975015
8.97111794092
8.97106798894
8.9710227793
8.97098607992
8.97096261844
8.97095811308
8.97097923597
8.97103348358
8.971128923
8.97127377651
8.97147579906
8.97174139701
8.97207442811
8.97247460191
8.97293531464
8.97344048713
8.97396111247
8.96940281334
8.9694203959
8.96945531594
8.96950683875
8.96957400812
8.96965559508
8.96975016668
8.96985613306
8.96997180471
8.97009544078
8.97022529948
8.9703596767
8.9704969428
8.97063556791
8.97077414344
8.97091139356
8.97104618395
8.97117752246
8.9713045596
8.97142658295
8.97154301387
8.97165339957
8.97175740897
8.97185482409
8.97194553573
8.97202953383
8.97210690183
8.97217780495
8.97224248198
8.97230123106
8.97235439915
8.97240236637
8.97244553482
8.97248431376
8.97251911014
8.97255031675
8.97257830612
8.97260342283
8.97262598123
8.97264626187
8.9726645125
8.97268095222
8.9726957946
8.97270909857
8.97272090257
8.97273123417
8.9727401096
8.97274753584
8.97275351375
8.97275803977
8.97276110828
8.97276271309
8.97276284946
8.97276151545
8.97275871358
8.97275445208
8.97274874631
8.9727416198
8.97273310545
8.97272324625
8.97271209618
8.97269972041
8.97268619559
8.97267160927
8.97265605921
8.97263965167
8.9726224993
8.972604718
8.97258642335
8.972567726
8.97254872707
8.97252951286
8.97251015046
8.97249068429
8.97247113203
8.9724514963
8.97243169697
8.97241166746
8.97239152603
8.97237122851
8.97235068507
8.97232984179
8.97230863837
8.97228701902
8.97226493106
8.97224232639
8.97221916362
8.97219540784
8.9721710319
8.97214601641
8.97212035038
8.97209403098
8.97206706385
8.97203946254
8.97201124863
8.97198245094
8.97195310533
8.97192325377
8.97189294389
8.9718622279
8.97183116193
8.97179980492
8.97176821797
8.97173646334
8.97170460404
8.97167270305
8.97164082438
8.97160894439
8.97157699233
8.97154487376
8.97151246813
8.97147962856
8.97144618452
8.9714119479
8.97137672416
8.97134032935
8.97130261535
8.97126350427
8.97122303439
8.9711814183
8.97113911465
8.97109691247
8.97105602707
8.97101820329
8.97098582108
8.97096199459
8.97095065469
8.97095660108
8.97098550804
8.97104386372
8.97113881879
8.97127791319
8.971468641
8.97171780125
8.97203056853
8.97240920086
8.97285127761
8.97334729285
8.97387724814
8.97440674764
8.96971304607
8.96972886143
8.9697604182
8.96980695319
8.96986757843
8.96994115942
8.97002637666
8.97012177178
8.97022580379
8.97033689473
8.97045347767
8.97057403273
8.97069712045
8.97082140298
8.970945662
8.97106880574
8.9711898743
8.97130803655
8.97142258791
8.97153294215
8.97163862659
8.97173927277
8.97183461196
8.97192446635
8.97200874541
8.97208743712
8.97216060409
8.97222837363
8.97229093221
8.97234851386
8.97240139281
8.97244987073
8.97249426879
8.97253491541
8.97257213941
8.97260625995
8.97263758207
8.97266638983
8.97269294466
8.97271748178
8.97274021137
8.97276131007
8.97278098278
8.97279932012
8.97281632955
8.97283202358
8.97284640722
8.9728594798
8.97287123722
8.97288167256
8.97289077776
8.97289854415
8.97290496377
8.9729100299
8.97291373813
8.97291608668
8.97291707734
8.97291671564
8.97291501152
8.97291197929
8.97290763815
8.97290201182
8.97289512874
8.97288702132
8.97287772572
8.97286728065
8.97285572663
8.97284310426
8.97282945305
8.97281480929
8.97279920458
8.97278266365
8.97276520304
8.97274682934
8.97272753925
8.97270731641
8.97268614388
8.97266394046
8.97264065333
8.97261639659
8.97259117969
8.97256496842
8.97253774485
8.97250949675
8.97248021513
8.97244989789
8.97241854515
8.97238616227
8.97235276003
8.97231835443
8.97228296765
8.9722466278
8.97220936963
8.97217123424
8.97213226949
8.9720925297
8.97205207581
8.97201097494
8.97196930038
8.97192713098
8.97188455103
8.97184164961
8.97179852048
8.97175526162
8.9717119754
8.97166876834
8.97162575358
8.97158297888
8.97154043839
8.97149811168
8.97145596189
8.97141393706
8.97137197468
8.97133000947
8.97128798644
8.97124587952
8.97120371801
8.97116162146
8.97111984498
8.97107883509
8.9710392972
8.97100227306
8.97096922696
8.97094213629
8.97092358138
8.97091682645
8.97092588222
8.9709555375
8.97101134529
8.97109954469
8.97122689605
8.97140039854
8.97162684913
8.97191218505
8.97226052937
8.97267282811
8.9731449246
8.97366484424
8.97420895708
8.97473766938
8.96999189032
8.97000628467
8.9700351893
8.97007778043
8.97013321176
8.97020040954
8.97027813175
8.97036501487
8.97045962898
8.97056052351
8.97066627361
8.97077551292
8.97088696414
8.97099945597
8.97111193713
8.97122347891
8.97133327662
8.97144064264
8.97154500125
8.97164587773
8.97174289189
8.97183574733
8.97192422655
8.9720081821
8.97208753368
8.97216226059
8.97223239961
8.97229803726
8.97235930692
8.9724163799
8.97246946114
8.9725187792
8.97256458108
8.97260712229
8.972646662
8.97268345451
8.97271774587
8.97274976768
8.97277973567
8.97280784623
8.97283427734
8.97285918262
8.9728827193
8.97290503845
8.97292612646
8.9729459796
8.97296459204
8.97298195561
8.97299806096
8.97301289747
8.9730264542
8.97303871988
8.97304968368
8.97305933516
8.97306766493
8.9730746645
8.97308032684
8.97308464612
8.97308761813
8.97308923991
8.97308951006
8.97308842824
8.97308599536
8.9730822129
8.97307708299
8.97307060762
8.97306278855
8.97305362642
8.97304312062
8.97303126832
8.97301806441
8.97300350052
8.97298756507
8.9729702425
8.9729515134
8.97293135431
8.9729097359
8.9728866322
8.97286197182
8.97283570708
8.97280790226
8.97277862735
8.97274788032
8.97271564221
8.97268192919
8.97264674763
8.97261011571
8.97257205374
8.97253258649
8.97249174408
8.972449562
8.97240608124
8.97236134913
8.97231541928
8.97226835224
8.97222021547
8.97217108385
8.97212103955
8.97207017243
8.9720185798
8.97196636677
8.97191364594
8.97186053785
8.97180717094
8.97175368222
8.97170021767
8.97164693618
8.97159396091
8.97154134945
8.97148915469
8.97143742305
8.97138619709
8.97133552147
8.97128545203
8.97123607018
8.97118750236
8.97113994703
8.97109370911
8.97104924383
8.97100720948
8.97096853003
8.97093446538
8.97090668807
8.97088736172
8.9708792168
8.97088561559
8.97091059813
8.97095889751
8.97103591146
8.97114761334
8.9713003813
8.97150071601
8.97175480523
8.97206787164
8.97244320848
8.97288075629
8.97337499982
8.97391186361
8.97446425212
8.97498731049
8.97024660164
8.9702598407
8.9702866384
8.97032608675
8.97037736035
8.97043942262
8.9705110821
8.97059104142
8.97067795462
8.97077047215
8.97086728603
8.97096716063
8.97106895964
8.97117165892
8.97127435609
8.9713762685
8.97147673044
8.9715751823
8.97167116218
8.97176429249
8.97185427158
8.97194086211
8.97202388574
8.97210321467
8.9721787698
8.97225051471
8.9723184556
8.97238263598
8.97244313638
8.97250006823
8.9725535721
8.97260381041
8.97265096426
8.97269522559
8.97273679365
8.97277586769
8.97281264415
8.97284731082
8.97288004532
8.97291101126
8.97294035797
8.9729682188
8.97299472708
8.97302006696
8.97304421798
8.97306716642
8.97308889753
8.97310939655
8.97312864919
8.97314664132
8.97316335951
8.97317879046
8.97319292147
8.9732057399
8.97321723362
8.97322739048
8.97323619875
8.97324364654
8.97324972215
8.97325441352
8.97325770853
8.97325959437
8.97326005783
8.97325908469
8.97325665998
8.97325276739
8.97324738953
8.9732405074
8.97323210076
8.97322214759
8.97321062458
8.9731975067
8.97318276771
8.97316637978
8.973148314
8.97312853973
8.97310702533
8.97308373587
8.97305863928
8.97303167866
8.97300280142
8.97297199625
8.97293939904
8.97290500949
8.9728688055
8.97283081358
8.97279104284
8.97274950977
8.97270624068
8.97266126328
8.97261461152
8.97256632521
8.97251645051
8.9724650403
8.97241215511
8.97235786324
8.9723022417
8.97224537637
8.97218736278
8.97212830622
8.97206832258
8.97200753842
8.9719460919
8.97188413317
8.97182182557
8.97175934648
8.97169689282
8.97163466387
8.97157277473
8.9715113468
8.97145050515
8.97139038219
8.97133112475
8.97127290407
8.97121593102
8.97116047598
8.97110689574
8.97105566698
8.97100742816
8.97096302881
8.97092358707
8.97089055295
8.9708657761
8.97085157333
8.97085079192
8.97086686116
8.97090382477
8.97096634377
8.97105965834
8.97118949306
8.97136188643
8.97158291541
8.9718582728
8.97219262808
8.97258865941
8.97304557017
8.97355678718
8.97410638849
8.97466385014
8.97517888796
8.97048319763
8.97049548091
8.97052058064
8.97055748702
8.97060538102
8.97066324431
8.97072991586
8.97080414457
8.97088464766
8.97097015732
8.97105946503
8.97115144944
8.97124510008
8.97133952572
8.97143395917
8.97152775041
8.97162035923
8.97171134044
8.97180033229
8.97188704056
8.97197122876
8.97205270569
8.97213132028
8.972206954
8.97227952031
8.97234896079
8.97241524722
8.97247837899
8.97253838521
8.97259532135
8.97264926968
8.97270033417
8.97274863901
8.9727943222
8.97283753299
8.97287842536
8.97291715541
8.97295387579
8.97298873394
8.9730218679
8.97305340554
8.97308346213
8.97311212763
8.97313962068
8.97316595803
8.9731910974
8.97321501862
8.97323770088
8.97325912545
8.97327927524
8.97329813496
8.97331569013
8.97333192724
8.97334683289
8.97336039409
8.97337259748
8.97338342966
8.97339287646
8.97340092327
8.97340755436
8.97341275318
8.97341650171
8.97341878084
8.97341956971
8.97341884617
8.97341658616
8.97341276427
8.97340735323
8.9734003245
8.9733916479
8.97338129231
8.97336922531
8.97335541396
8.97333982441
8.9733224226
8.97330317377
8.97328204273
8.97325899328
8.97323398772
8.97320698609
8.97317794833
8.9731468046
8.97311351061
8.97307817369
8.97304082015
8.97300145127
8.97296005722
8.97291665788
8.97287125878
8.97282387916
8.97277454307
8.97272327838
8.97267012054
8.97261511191
8.97255830286
8.97249975239
8.97243952926
8.97237771257
8.97231439289
8.97224967287
8.97218366843
8.97211650937
8.97204834077
8.97197932384
8.97190963762
8.97183948012
8.9717690754
8.97169869413
8.97162850132
8.97155867944
8.97148942378
8.97142094841
8.97135349382
8.97128733758
8.97122281002
8.97116031424
8.97110035258
8.97104355882
8.97099073783
8.97094291138
8.97090137074
8.97086773338
8.97084400267
8.97083262583
8.97083654664
8.97085924592
8.97090476346
8.97097769181
8.97108313227
8.97122659864
8.97141385099
8.97165063122
8.9719422564
8.9722929947
8.97270509346
8.97317722954
8.9737019862
8.97426174532
8.97482250726
8.97532841064
8.9707067733
8.97071824349
8.97074193843
8.97077673343
8.97082180397
8.97087613737
8.97093858862
8.97100793759
8.97108295139
8.97116243138
8.97124525657
8.97133040951
8.97141699575
8.97150424742
8.97159152285
8.9716782944
8.97176413652
8.97184870685
8.97193173149
8.97201298705
8.97209228955
8.97216948185
8.97224442901
8.97231701216
8.97238712969
8.97245469591
8.9725196454
8.97258193328
8.97264153963
8.97269846851
8.97275275033
8.97280443843
8.97285360877
8.97290035461
8.97294478435
8.9729870155
8.97302717207
8.973065379
8.97310176019
8.97313643424
8.9731695139
8.97320110478
8.97323128988
8.97326018946
8.97328796482
8.97331454763
8.97333990455
8.9733640076
8.97338683386
8.97340836369
8.97342858043
8.97344746902
8.97346501597
8.9734812082
8.97349603318
8.97350947801
8.97352152968
8.97353217414
8.97354139674
8.97354918134
8.97355551075
8.97356036597
8.97356372663
8.97356557033
8.97356587316
8.9735646091
8.97356175065
8.97355726833
8.97355113137
8.97354330728
8.97353376267
8.97352246285
8.97350937265
8.97349445602
8.97347767674
8.97345899792
8.97343838245
8.97341579221
8.9733911881
8.97336452984
8.97333577165
8.97330487797
8.97327177494
8.97323641195
8.97319878343
8.97315899661
8.97311703875
8.97307288369
8.97302654995
8.97297803441
8.9729273378
8.97287447578
8.97281946741
8.97276233756
8.97270312002
8.97264185731
8.9725786022
8.97251341869
8.9724463836
8.97237758754
8.97230713665
8.97223515373
8.97216178015
8.9720871773
8.97201152885
8.9719350426
8.97185795032
8.97178058342
8.9717031596
8.97162590657
8.97154907973
8.97147296374
8.9713978813
8.97132420447
8.97125237058
8.97118290218
8.97111643284
8.97105373801
8.97099577236
8.97094371227
8.97089900377
8.97086341346
8.97083908102
8.97082856906
8.97083490703
8.97086162289
8.97091275703
8.97099285
8.9711068954
8.97126024495
8.97145844901
8.97170700438
8.97201096405
8.97237432642
8.97279905529
8.97328345521
8.97381940663
8.97438766982
8.97495068526
8.97544696118
8.97092175911
8.97093250909
8.97095498906
8.97098795051
8.97103055658
8.97108179045
8.97114051379
8.97120552912
8.97127564487
8.97134972447
8.97142672901
8.97150573965
8.97158597306
8.97166677954
8.97174763688
8.97182813279
8.9719079479
8.97198683302
8.97206459138
8.97214105905
8.97221609295
8.9722895589
8.97236132786
8.97243127197
8.97249926789
8.97256519824
8.97262895854
8.97269046011
8.97274963674
8.97280644581
8.97286087201
8.97291292538
8.97296264158
8.97301007722
8.97305530788
8.97309842214
8.9731395188
8.9731787012
8.97321607475
8.97325174238
8.97328580309
8.97331834838
8.97334946309
8.97337924097
8.97340787441
8.97343531027
8.9734615106
8.97348644276
8.97351008052
8.97353240198
8.97355338939
8.97357302751
8.97359130339
8.97360820494
8.97362372096
8.97363784
8.9736505506
8.97366184029
8.97367169592
8.97368010278
8.97368704505
8.97369250494
8.97369646327
8.97369889866
8.97369978822
8.97369910681
8.97369682781
8.97369292246
8.97368736072
8.97368011072
8.97367113955
8.97366041286
8.97364789563
8.97363355171
8.97361734453
8.97359923659
8.97357918992
8.97355716537
8.97353312298
8.97350702062
8.97347881546
8.97344845935
8.97341590025
8.97338108981
8.97334395294
8.97330443362
8.973262589
8.97321845227
8.97317201766
8.97312323726
8.97307213109
8.97301868391
8.97296289103
8.97290476103
8.97284430723
8.972781551
8.97271652449
8.97264927113
8.97257984758
8.97250832528
8.97243479266
8.97235935679
8.97228214598
8.97220331196
8.97212303336
8.97204151939
8.9719590083
8.97187580938
8.9717922487
8.97170858076
8.97162510545
8.97154216362
8.97146014622
8.97137950567
8.97130077188
8.97122457193
8.97115165515
8.97108292261
8.97101946235
8.97096258874
8.97091388636
8.97087525576
8.97084895996
8.97083766746
8.97084448914
8.97087300297
8.9709272622
8.97101177908
8.97113147683
8.97129159764
8.97149755069
8.97175467217
8.97206784929
8.9724409192
8.97287567475
8.97337015588