/*--------------------------------*- C++ -*----------------------------------*\
| =========                 |                                                 |
| \\      /  F ield         | OpenFOAM: The Open Source CFD Toolbox           |
|  \\    /   O peration     | Version:  2206                                  |
|   \\  /    A nd           | Website:  www.openfoam.com                      |
|    \\/     M anipulation  |                                                 |
\*---------------------------------------------------------------------------*/
FoamFile
{
    version     2.0;
    format      ascii;
    arch        "LSB;label=64;scalar=64";
    class       surfaceScalarField;
    location    "4.9/water";
    object      phi;
}
// * * * * * * * * * * * * * * * * * * * * * * * * * * * * * * * * * * * * * //

dimensions      [0 3 -1 0 0 0 0];

oriented        oriented;

internalField   nonuniform List<scalar> 
46280
(
-3.19559030251e-10
3.19525077223e-10
-6.49626214767e-10
3.30008059993e-10
-9.9200989375e-10
3.42357465817e-10
-1.35013227737e-09
3.58062076677e-10
-1.72760308742e-09
3.77451009757e-10
-2.1282393955e-09
4.00574304556e-10
-2.55570001356e-09
4.27452986607e-10
-3.01379838251e-09
4.58037418189e-10
-3.50603105824e-09
4.92232220764e-10
-4.035925119e-09
5.29834641398e-10
-4.60649542279e-09
5.70575474753e-10
-5.22061179108e-09
6.14058835868e-10
-5.88040995612e-09
6.59807812126e-10
-6.58766836923e-09
7.07202828211e-10
-7.34318732189e-09
7.55532712053e-10
-8.14718008802e-09
8.0393851127e-10
-8.99863888055e-09
8.51476378153e-10
-9.89576637183e-09
8.97073756614e-10
-1.08353545527e-08
9.39609335641e-10
-1.18132927201e-08
9.77884330625e-10
-1.282398809e-08
1.0107198726e-09
-1.38609822003e-08
1.0369399856e-09
-1.49164346723e-08
1.05548011789e-09
-1.59818609599e-08
1.06537200968e-09
-1.7047681457e-08
1.06585101909e-09
-1.81040645784e-08
1.05632910385e-09
-1.91405181138e-08
1.03648657703e-09
-2.01467922745e-08
1.00622090953e-09
-2.11124701645e-08
9.65712979407e-10
-2.20278695025e-08
9.15347427002e-10
-2.28835865206e-08
8.55753594607e-10
-2.36713410167e-08
7.87704451758e-10
-2.43834462334e-08
7.12142652724e-10
-2.50135666493e-08
6.30072736974e-10
-2.55561153624e-08
5.42586356327e-10
-2.60069219252e-08
4.50761657558e-10
-2.63625817908e-08
3.55697066505e-10
-2.66210481799e-08
2.58424607151e-10
-2.67809658282e-08
1.59953792102e-10
-2.68422032327e-08
6.11990048666e-11
-2.68052069935e-08
-3.69617093501e-11
-2.66714871181e-08
-1.33754694511e-10
-2.64430065896e-08
-2.28448097015e-10
-2.6122624391e-08
-3.20413313411e-10
-2.57135383025e-08
-4.09056153334e-10
-2.5219700638e-08
-4.93865009674e-10
-2.46453123892e-08
-5.7436112368e-10
-2.39951939046e-08
-6.5014205391e-10
-2.32743338929e-08
-7.20835920718e-10
-2.24882129352e-08
-7.86140799723e-10
-2.16424075305e-08
-8.45784492673e-10
-2.07428631455e-08
-8.99560595875e-10
-1.97955510789e-08
-9.4729439842e-10
-1.88066880748e-08
-9.88875736571e-10
-1.77824426635e-08
-1.02423098835e-09
-1.67290996485e-08
-1.05335247121e-09
-1.56528123493e-08
-1.07627605877e-09
-1.4559712135e-08
-1.09310666189e-09
-1.34557031935e-08
-1.10400077188e-09
-1.23465192453e-08
-1.10918770655e-09
-1.12375572852e-08
-1.10895669519e-09
-1.0133884323e-08
-1.10367441172e-09
-9.04010444402e-09
-1.0937773084e-09
-7.96031655521e-09
-1.0797874438e-09
-6.89800431285e-09
-1.06231210717e-09
-5.85594120547e-09
-1.04206121675e-09
-4.83608544013e-09
-1.01985777074e-09
-3.83941774855e-09
-9.96664808846e-10
-2.86579631332e-09
-9.73625259263e-10
-1.91364858371e-09
-9.52144291515e-10
-9.79616373064e-10
-9.34037527512e-10
-5.79516263353e-11
-9.21661094901e-10
8.59336738092e-10
-9.17294868862e-10
1.78071059251e-09
-9.21370214422e-10
2.71258732545e-09
-9.31884142704e-10
3.65869302816e-09
-9.46102191663e-10
4.62060758524e-09
-9.61922597757e-10
5.59852047889e-09
-9.77909562395e-10
6.5915886524e-09
-9.93076588233e-10
7.59828458661e-09
-1.00669277986e-09
8.61644736691e-09
-1.01817134803e-09
9.64345261731e-09
-1.02700224451e-09
1.06761750694e-08
-1.03273099632e-09
1.17111228869e-08
-1.03494490833e-09
1.27443937551e-08
-1.03327925748e-09
1.37718121948e-08
-1.0274155717e-09
1.47888951318e-08
-1.01709108215e-09
1.5790994534e-08
-1.00209651434e-09
1.67732693992e-08
-9.82282714369e-10
1.77308279416e-08
-9.57555583666e-10
1.86586998201e-08
-9.27879410418e-10
1.95519723703e-08
-8.93269473562e-10
2.04057582462e-08
-8.53793092207e-10
2.12153224999e-08
-8.09561028115e-10
2.19760430482e-08
-7.6072746697e-10
2.26835277067e-08
-7.07481259475e-10
2.33335669133e-08
-6.50045855118e-10
2.39222416315e-08
-5.88671136509e-10
2.44458692175e-08
-5.23633996047e-10
2.49011041003e-08
-4.55231112922e-10
2.52848782698e-08
-3.83780371268e-10
2.55944965185e-08
-3.09614296193e-10
2.58275720965e-08
-2.33081597834e-10
2.59821158615e-08
-1.5453963602e-10
2.60564635401e-08
-7.43535370071e-11
2.60493537215e-08
7.11410784382e-12
2.59598595927e-08
8.94884172923e-11
2.57874639309e-08
1.72400094856e-10
2.55319894871e-08
2.55468872505e-10
2.51937002748e-08
3.38293763539e-10
2.47732451263e-08
4.2044971766e-10
2.42717576606e-08
5.0149210908e-10
2.36908026667e-08
5.80949711465e-10
2.30324822913e-08
6.58325075266e-10
2.22993940121e-08
7.3308315949e-10
2.14947513435e-08
8.04647383413e-10
2.06223626962e-08
8.7238371138e-10
1.96867742639e-08
9.35593105514e-10
1.8693275285e-08
9.9349425333e-10
1.7648060312e-08
1.04521953442e-09
1.65582467396e-08
1.08980908947e-09
1.54320220076e-08
1.1262290898e-09
1.42786166679e-08
1.15340113854e-09
1.31083529175e-08
1.17026779722e-09
1.19324730156e-08
1.17587603194e-09
1.07629844449e-08
1.16949217532e-09
9.61226520786e-09
1.15071574939e-09
8.49267863929e-09
1.11958960004e-09
7.41601034894e-09
1.07666524839e-09
6.39299076823e-09
1.02302192601e-09
5.43277202312e-09
9.60216244839e-10
4.54258615587e-09
8.90187433686e-10
3.7274548119e-09
8.15129462957e-10
2.99007478044e-09
7.37380830584e-10
2.33070776312e-09
6.59365908988e-10
1.74705662382e-09
5.83651105276e-10
1.23388290992e-09
5.13172892787e-10
7.82163365885e-10
4.51718612832e-10
3.77521513723e-10
4.04640918133e-10
3.77521251427e-10
-3.45233156959e-10
6.64721710343e-10
-6.94930821623e-10
6.79656765833e-10
-1.05537935856e-09
7.02771763451e-10
-1.43120892317e-09
7.33842077155e-10
-1.82655230808e-09
7.7276501678e-10
-2.24547747169e-09
8.19451504469e-10
-2.69185258467e-09
8.73804627295e-10
-3.1695066423e-09
9.35645593635e-10
-3.68196745753e-09
1.00467510519e-09
-4.2326063394e-09
1.08042996678e-09
-4.82432348716e-09
1.16227905484e-09
-5.45969809944e-09
1.24939276297e-09
-6.14064501909e-09
1.34074535929e-09
-6.86856762393e-09
1.43508764183e-09
-7.64399724301e-09
1.5309569306e-09
-8.46675744585e-09
1.62666323376e-09
-9.33560174005e-09
1.72031872764e-09
-1.02484108957e-08
1.80984895056e-09
-1.1201851058e-08
1.8930505169e-09
-1.21916317022e-08
1.96763192621e-09
-1.3212207605e-08
2.03129936157e-09
-1.4257121146e-08
2.08182112429e-09
-1.53187650652e-08
2.11712996586e-09
-1.63888188549e-08
2.13539405381e-09
-1.74580742075e-08
2.13511443561e-09
-1.85169543082e-08
2.11517830798e-09
-1.95553845345e-08
2.07492683021e-09
-2.05633616172e-08
2.01416821112e-09
-2.15308352236e-08
1.93319831301e-09
-2.24482798931e-08
1.83276370778e-09
-2.33065474399e-08
1.71403429106e-09
-2.40973951827e-08
1.57852544282e-09
-2.48132784368e-08
1.42804011314e-09
-2.54478043618e-08
1.26457374305e-09
-2.59954547861e-08
1.09025168654e-09
-2.64519578988e-08
9.0724182695e-10
-2.68139533918e-08
7.17707764283e-10
-2.70792933134e-08
5.23743650397e-10
-2.72466751905e-08
3.27350816589e-10
-2.73158924707e-08
1.30397520507e-10
-2.72874562197e-08
-6.53832264995e-11
-2.71628033548e-08
-2.58424201648e-10
-2.69439326043e-08
-4.47304816287e-10
-2.6633611362e-08
-6.30749091567e-10
-2.62350475302e-08
-8.07606917951e-10
-2.57520672772e-08
-9.76857737101e-10
-2.51888244603e-08
-1.13759202806e-09
-2.45499617387e-08
-1.28901524741e-09
-2.38403555626e-08
-1.43043149388e-09
-2.30652563772e-08
-1.56124853571e-09
-2.22300663004e-08
-1.68096537061e-09
-2.13404542748e-08
-1.78917934382e-09
-2.04021628074e-08
-1.88557813096e-09
-1.94210945861e-08
-1.96994897041e-09
-1.84031445796e-08
-2.0421747439e-09
-1.73542558587e-08
-2.10224463365e-09
-1.6280273766e-08
-2.15025337859e-09
-1.518697015e-08
-2.18641232104e-09
-1.4079916751e-08
-2.21105084831e-09
-1.2964478095e-08
-2.22462720644e-09
-1.18457007785e-08
-2.22773208979e-09
-1.07282748575e-08
-2.22110020711e-09
-9.61643354409e-09
-2.20561803528e-09
-8.51388081534e-09
-2.18233932405e-09
-7.42369293789e-09
-2.15250064427e-09
-6.34820849233e-09
-2.11754435294e-09
-5.28892385036e-09
-2.07914421956e-09
-4.24634985062e-09
-2.03923730397e-09
-3.21991710267e-09
-2.00006084586e-09
-2.20787030142e-09
-1.96418964269e-09
-1.20737942437e-09
-1.93453215252e-09
-2.1494393195e-10
-1.91409537931e-09
7.72959106152e-10
-1.90520241582e-09
1.75990215564e-09
-1.90831239354e-09
2.74941324278e-09
-1.92140033555e-09
3.74452306229e-09
-1.94121148455e-09
4.74725001345e-09
-1.96465506727e-09
5.75856170929e-09
-1.98922102406e-09
6.77843549166e-09
-2.0129561262e-09
7.80605794518e-09
-2.03431521276e-09
8.83990768722e-09
-2.05202692199e-09
9.87790727072e-09
-2.06500193583e-09
1.0917456559e-08
-2.07228606626e-09
1.19555476788e-08
-2.07303618128e-09
1.29887782554e-08
-2.06651546386e-09
1.40134541953e-08
-2.05209163626e-09
1.50255991145e-08
-2.02924141271e-09
1.6021053193e-08
-1.99755062588e-09
1.69954817814e-08
-1.95671645034e-09
1.7944470202e-08
-1.90654389732e-09
1.88635296699e-08
-1.84694374435e-09
1.97481858942e-08
-1.77792541543e-09
2.05939799175e-08
-1.69959169511e-09
2.13965489683e-08
-1.61212959941e-09
2.21516208254e-08
-1.51580363059e-09
2.28550866095e-08
-1.41094635615e-09
2.3502988484e-08
-1.29795178e-09
2.40915851963e-08
-1.17726695267e-09
2.46173339045e-08
-1.04938652487e-09
2.50769499793e-08
-9.14846087451e-10
2.54673842569e-08
-7.7421826084e-10
2.57858788711e-08
-6.28107615498e-10
2.60299415191e-08
-4.77147673504e-10
2.61973996077e-08
-3.21996246026e-10
2.62863750412e-08
-1.63332229683e-10
2.62953427891e-08
-1.85199220686e-12
2.62230890202e-08
1.61739078565e-10
2.6068761094e-08
3.26729822318e-10
2.58318662655e-08
4.92360737362e-10
2.5512335493e-08
6.57826472811e-10
2.51105115366e-08
8.22270846116e-10
2.46272238529e-08
9.84781845326e-10
2.40637879473e-08
1.14438292589e-09
2.34220919964e-08
1.30002317127e-09
2.27046089498e-08
1.45056365066e-09
2.19144953774e-08
1.59476316467e-09
2.10556149943e-08
1.73126168092e-09
2.01326437651e-08
1.85856656989e-09
1.9151093163e-08
1.97504258629e-09
1.81174006477e-08
2.07891426218e-09
1.70389224456e-08
2.16828517219e-09
1.59239682484e-08
2.24118541474e-09
1.47817159188e-08
2.2956515022e-09
1.36221404968e-08
2.329845187e-09
1.24558103118e-08
2.34220440969e-09
1.12936878405e-08
2.33161636853e-09
1.01468151747e-08
2.29758677504e-09
9.02602665225e-09
2.24037951642e-09
7.9415951206e-09
2.16109532455e-09
6.90294436468e-09
2.0616736805e-09
5.91834634001e-09
1.9448130261e-09
4.99470335165e-09
1.81383100717e-09
4.13733181415e-09
1.67250004223e-09
3.34979939682e-09
1.5249133529e-09
2.63372409475e-09
1.37544066431e-09
1.9885293881e-09
1.22884550824e-09
1.41105780617e-09
1.0906437782e-09
8.95000816971e-10
9.67774586187e-10
4.30294129257e-10
8.69346630295e-10
8.07815117729e-10
-3.72669870942e-10
1.03735598394e-09
-7.4785864197e-10
1.05479651801e-09
-1.13287152379e-09
1.08775070642e-09
-1.53316149101e-09
1.13408381212e-09
-1.9534020834e-09
1.19297555023e-09
-2.39801987704e-09
1.26402188126e-09
-2.87114293595e-09
1.34690249517e-09
-3.37674404649e-09
1.44120113615e-09
-3.9184048541e-09
1.54631481693e-09
-4.49942419948e-09
1.66140640112e-09
-5.12254425127e-09
1.78538239953e-09
-5.79006356749e-09
1.91687236097e-09
-6.50354694298e-09
2.05421657381e-09
-7.26394775527e-09
2.19545208318e-09
-8.07131101367e-09
2.33831235488e-09
-8.92491479542e-09
2.480233368e-09
-9.82298115501e-09
2.61838097016e-09
-1.0762855457e-08
2.74969149055e-09
-1.17407429099e-08
2.87093692324e-09
-1.27519461733e-08
2.97880462112e-09
-1.37906435505e-08
3.06999827945e-09
-1.4850199594e-08
3.14134747143e-09
-1.59229939945e-08
3.18992817155e-09
-1.70008080004e-08
3.21317915523e-09
-1.80747015484e-08
3.20901382388e-09
-1.9135463004e-08
3.17591178776e-09
-2.01735183121e-08
3.11298979808e-09
-2.11794159219e-08
3.02003895367e-09
-2.21437398848e-08
2.89753151546e-09
-2.30575917895e-08
2.74659008269e-09
-2.39124756441e-08
2.56892867873e-09
-2.4700739246e-08
2.36676502407e-09
-2.54154062374e-08
2.14271861064e-09
-2.60505520934e-08
1.89969724758e-09
-2.66010756145e-08
1.64078733946e-09
-2.70630034403e-08
1.36914905892e-09
-2.74332113597e-08
1.08792809367e-09
-2.77096673049e-08
8.00180828545e-10
-2.78911241148e-08
5.08819978438e-10
-2.79773165135e-08
2.16572995329e-10
-2.79686445705e-08
-7.40431782889e-11
-2.78663505061e-08
-3.60733342683e-10
-2.76721963429e-08
-6.41447615402e-10
-2.73886229716e-08
-9.14335720933e-10
-2.70184800123e-08
-1.17773935559e-09
-2.65651654982e-08
-1.43018372669e-09
-2.60323837423e-08
-1.67036427373e-09
-2.54242722629e-08
-1.89713647341e-09
-2.47451904075e-08
-2.10950497004e-09
-2.39998298046e-08
-2.30661721808e-09
-2.3193030618e-08
-2.48775738677e-09
-2.23298715205e-08
-2.65234492733e-09
-2.14155099987e-08
-2.79993373079e-09
-2.04552484744e-08
-2.93021547878e-09
-1.94543951166e-08
-3.04302344064e-09
-1.84183038031e-08
-3.13833953813e-09
-1.73522523205e-08
-3.21630145207e-09
-1.62614550709e-08
-3.27721190847e-09
-1.51509559769e-08
-3.32154776093e-09
-1.40256138714e-08
-3.34997055822e-09
-1.2890007509e-08
-3.36333746241e-09
-1.17483940989e-08
-3.36271396613e-09
-1.0604623672e-08
-3.34938861479e-09
-9.46207221211e-09
-3.32489044581e-09
-8.32356454164e-09
-3.29100954789e-09
-7.19128953929e-09
-3.24981856767e-09
-6.06674332729e-09
-3.20369267164e-09
-4.95066082015e-09
-3.15531882043e-09
-3.84304200045e-09
-3.10768282975e-09
-2.74322646661e-09
-3.06400422822e-09
-1.65020123668e-09
-3.02756136946e-09
-5.63000897359e-10
-3.00129499886e-09
5.18843781133e-10
-2.98705177223e-09
1.59577071231e-09
-2.98523893536e-09
2.66877279006e-09
-2.99440761636e-09
3.73920221229e-09
-3.01164085152e-09
4.80829967526e-09
-3.03375807712e-09
5.87686506407e-09
-3.05778663873e-09
6.94506548759e-09
-3.08116226527e-09
8.01244936147e-09
-3.10169950678e-09
9.07793852688e-09
-3.11752182089e-09
1.01399320647e-08
-3.12699600153e-09
1.11963305624e-08
-3.12869019525e-09
1.22446441637e-08
-3.12135033181e-09
1.32820136589e-08
-3.10389040006e-09
1.43053099902e-08
-3.07538846833e-09
1.5311149284e-08
-3.03508589771e-09
1.62959839451e-08
-2.98238567771e-09
1.72561123446e-08
-2.91684975779e-09
1.81877621063e-08
-2.83819389781e-09
1.90870945114e-08
-2.74628076088e-09
1.99502801023e-08
-2.64111105974e-09
2.07734975437e-08
-2.52281345458e-09
2.15530017424e-08
-2.39163365095e-09
2.22851171037e-08
-2.24792303087e-09
2.29662987225e-08
-2.09212761704e-09
2.35931204039e-08
-1.92477724344e-09
2.41623299569e-08
-1.74647594069e-09
2.46708328189e-08
-1.55789293649e-09
2.51157428721e-08
-1.35975537221e-09
2.54943629375e-08
-1.15284166809e-09
2.58042329176e-08
-9.37976635492e-10
2.60431089319e-08
-7.1602684346e-10
2.62090111761e-08
-4.87897346637e-10
2.6300204063e-08
-2.54528104139e-10
2.63152439262e-08
-1.68905437412e-11
2.62529608811e-08
2.2401929043e-10
2.6112514788e-08
4.67177383161e-10
2.58933818327e-08
7.11491003785e-10
2.55954180783e-08
9.55791832951e-10
2.52188571189e-08
1.19882925537e-09
2.47643813145e-08
1.43925937779e-09
2.42331295796e-08
1.67563224648e-09
2.36267784189e-08
1.90637615943e-09
2.29475586378e-08
2.12978115362e-09
2.21983421007e-08
2.3439816035e-09
2.13826601595e-08
2.54694148093e-09
2.0504783969e-08
2.73644469992e-09
1.95697276074e-08
2.91009694485e-09
1.85832989702e-08
3.06534483145e-09
1.75520610258e-08
3.19952125048e-09
1.64833246842e-08
3.30992362152e-09
1.53850436924e-08
3.39393076358e-09
1.42657332505e-08
3.44915735536e-09
1.31342980327e-08
3.47363803046e-09
1.19998929082e-08
3.46602300354e-09
1.08717184561e-08
3.42575977115e-09
9.75886756066e-09
3.35323162833e-09
8.6701340253e-09
3.24982755247e-09
7.61387871117e-09
3.11792984939e-09
6.59786706586e-09
2.96082354403e-09
5.62914579856e-09
2.78255269909e-09
4.71387790891e-09
2.58776703762e-09
3.85717353334e-09
2.38161779834e-09
3.06284120298e-09
2.16977240986e-09
2.3330539196e-09
1.95863245076e-09
1.66783129036e-09
1.75586573123e-09
1.06417308217e-09
1.57143174485e-09
5.14014727532e-10
1.41950398768e-09
1.32182957632e-09
-3.98969476445e-10
1.43629005898e-09
-8.01790462464e-10
1.45756768971e-09
-1.21474143683e-09
1.50066835717e-09
-1.64350390515e-09
1.56279708219e-09
-2.09309207591e-09
1.64253442797e-09
-2.56823848106e-09
1.7391206192e-09
-3.07330605491e-09
1.85194436779e-09
-3.61241279696e-09
1.98026226653e-09
-4.18918723095e-09
2.12306763241e-09
-4.80685844075e-09
2.27903463648e-09
-5.46798760764e-09
2.4464941907e-09
-6.17457268234e-09
2.62341790795e-09
-6.92777759122e-09
2.80740879698e-09
-7.72805653887e-09
2.99569501867e-09
-8.57488937508e-09
3.18513705779e-09
-9.46693651282e-09
3.37224737214e-09
-1.04017918139e-08
3.55323205085e-09
-1.13761833351e-08
3.72405186823e-09
-1.23857555307e-08
3.88050811597e-09
-1.34253286837e-08
4.01834792204e-09
-1.44887181795e-08
4.13338943561e-09
-1.55690582795e-08
4.22165863325e-09
-1.66586595171e-08
4.27953335624e-09
-1.77493924623e-08
4.30388397867e-09
-1.88325757824e-08
4.29220308736e-09
-1.98994044553e-08
4.24271323067e-09
-2.09408520662e-08
4.15444509745e-09
-2.19481177344e-08
4.02727844553e-09
-2.29125194825e-08
3.8619424184e-09
-2.3825928888e-08
3.65997454266e-09
-2.46806321539e-08
3.42364226588e-09
-2.54697247744e-08
3.1558340926e-09
-2.61869251246e-08
2.85993010982e-09
-2.68269128249e-08
2.53966291445e-09
-2.7385093375e-08
2.19897952303e-09
-2.78578781471e-08
1.84191340685e-09
-2.82424114055e-08
1.472473122e-09
-2.85368006933e-08
1.09455135399e-09
-2.87398245577e-08
7.1185543211e-10
-2.88511268125e-08
3.27858179656e-10
-2.88709193264e-08
-5.42395451186e-11
-2.880016411e-08
-4.31503933661e-10
-2.86402618625e-08
-8.01339453896e-10
-2.83932171195e-08
-1.16139415118e-09
-2.80613851606e-08
-1.50956181038e-09
-2.76476114105e-08
-1.84396950076e-09
-2.71550068326e-08
-2.16296039279e-09
-2.65870748245e-08
-2.46507887314e-09
-2.59475147356e-08
-2.749057742e-09
-2.52403320941e-08
-3.01380866045e-09
-2.44696679059e-08
-3.25841545194e-09
-2.36398890059e-08
-3.48213108866e-09
-2.27554402241e-08
-3.68437760325e-09
-2.18209121341e-08
-3.86474935855e-09
-2.08409131352e-08
-4.02301873794e-09
-1.98201127577e-08
-4.15914432221e-09
-1.87631310154e-08
-4.27328067756e-09
-1.76745565269e-08
-4.36578953607e-09
-1.65588510269e-08
-4.43725189515e-09
-1.54203428824e-08
-4.48848071851e-09
-1.42631455381e-08
-4.52053454889e-09
-1.30911289036e-08
-4.53473166661e-09
-1.19078525223e-08
-4.53266579596e-09
-1.07165212301e-08
-4.51622205494e-09
-9.51993941083e-09
-4.48759316374e-09
-8.32046716175e-09
-4.4492906108e-09
-7.12001705332e-09
-4.40414550537e-09
-5.9200511644e-09
-4.35528422569e-09
-4.72167593123e-09
-4.3060616381e-09
-3.52576024256e-09
-4.25991939349e-09
-2.33319320083e-09
-4.2201327412e-09
-1.14508250826e-09
-4.18940531715e-09
3.72352374181e-11
-4.16937447464e-09
1.2121330333e-09
-4.16013661128e-09
2.37852006347e-09
-4.16080007066e-09
3.53622463881e-09
-4.16934557957e-09
4.68521683814e-09
-4.18275599139e-09
5.8254893745e-09
-4.19805955715e-09
6.95676940051e-09
-4.21244812989e-09
8.07844645607e-09
-4.22337710051e-09
9.18948778435e-09
-4.2285689669e-09
1.02884862349e-08
-4.22599506523e-09
1.1373649261e-08
-4.21385890607e-09
1.24428825794e-08
-4.19058426207e-09
1.34937962047e-08
-4.15480949546e-09
1.4523791092e-08
-4.10538390019e-09
1.55300650134e-08
-4.04136502312e-09
1.6509693365e-08
-3.96201445417e-09
1.7459630712e-08
-3.86679201465e-09
1.83767841821e-08
-3.75534763403e-09
1.92580101064e-08
-3.6275112938e-09
2.01001803393e-08
-3.48328137417e-09
2.0900174247e-08
-3.32281167638e-09
2.16549387278e-08
-3.14639801416e-09
2.23614759594e-08
-2.95446430004e-09
2.30168980092e-08
-2.74754934547e-09
2.36184108643e-08
-2.52629388271e-09
2.4163364661e-08
-2.29142921448e-09
2.46492347295e-08
-2.04376656227e-09
2.50736686749e-08
-1.78418860002e-09
2.54344654618e-08
-1.51364180918e-09
2.5729620865e-08
-1.23313113537e-09
2.59573060229e-08
-9.43715174331e-10
2.61159130647e-08
-6.46503309172e-10
2.62040345397e-08
-3.42652587156e-10
2.62205106361e-08
-3.33653962327e-11
2.61644116326e-08
2.80115437671e-10
2.60350904025e-08
5.96500008955e-10
2.58321676441e-08
9.14411049925e-10
2.55555896589e-08
1.23237135157e-09
2.52056236023e-08
1.54879273815e-09
2.47829232518e-08
1.86196138273e-09
2.42885313092e-08
2.17002175275e-09
2.37239510192e-08
2.4709582053e-09
2.3091152484e-08
2.76257738942e-09
2.2392644188e-08
3.04249173029e-09
2.16314746287e-08
3.30810887949e-09
2.08112912819e-08
3.55662991782e-09
1.9936322444e-08
3.7850637599e-09
1.90114059963e-08
3.99026314419e-09
1.80419346314e-08
4.16899073008e-09
1.70338403765e-08
4.31801967646e-09
1.59934973144e-08
4.43427207269e-09
1.49276659943e-08
4.51499033962e-09
1.38433713287e-08
4.55793107636e-09
1.27478347147e-08
4.56156106851e-09
1.16483620574e-08
4.5252309442e-09
1.05522951151e-08
4.44929972419e-09
9.46693127047e-09
4.33519005373e-09
8.39949624453e-09
4.18536566094e-09
7.35707812512e-09
4.00324047019e-09
6.34658274883e-09
3.79304847452e-09
5.37462657866e-09
3.55972224031e-09
4.44739882692e-09
3.30884547575e-09
3.57040929273e-09
3.04676133734e-09
2.74809644359e-09
2.78094484851e-09
1.98315783078e-09
2.52080355094e-09
1.27537928598e-09
2.27920921969e-09
6.19373113895e-10
2.0755091288e-09
1.9412024086e-09
-4.25996546241e-10
1.86225061396e-09
-8.56850794158e-10
1.88837013708e-09
-1.29891167258e-09
1.94269591149e-09
-1.75791180303e-09
2.0217472136e-09
-2.2390718823e-09
2.12366521631e-09
-2.74735151619e-09
2.2473520187e-09
-3.28729566954e-09
2.3918633033e-09
-3.86313349726e-09
2.55605435398e-09
-4.47850892084e-09
2.73842145694e-09
-5.13656006641e-09
2.9370432411e-09
-5.83964650683e-09
3.14956333569e-09
-6.58945186741e-09
3.37318431143e-09
-7.38672467149e-09
3.60466907372e-09
-8.23141282121e-09
3.84034781001e-09
-9.12242351103e-09
4.07613986381e-09
-1.00577998367e-08
4.30759123525e-09
-1.10345075138e-08
4.52993584928e-09
-1.20486645792e-08
4.73817845852e-09
-1.30953600448e-08
4.92720298589e-09
-1.41689422223e-08
5.09190089954e-09
-1.52628691042e-08
5.22731842465e-09
-1.63700528505e-08
5.32881407193e-09
-1.74827356807e-08
5.39222057449e-09
-1.85928796101e-08
5.41400037258e-09
-1.96920557561e-08
5.39138557666e-09
-2.07718606682e-08
5.32249143595e-09
-2.1823802079e-08
5.20639451067e-09
-2.28397178166e-08
5.04316843616e-09
-2.38116394521e-08
4.83387341058e-09
-2.47321896954e-08
4.58050015693e-09
-2.55944094863e-08
4.28587243809e-09
-2.63921160602e-08
3.953517294e-09
-2.71196881887e-08
3.58751329607e-09
-2.77723772626e-08
3.19232998796e-09
-2.83460556607e-08
2.77266930075e-09
-2.88374825778e-08
2.33331977605e-09
-2.92440277958e-08
1.87902970065e-09
-2.95638995533e-08
1.41440407301e-09
-2.97958587017e-08
9.43825611951e-10
-2.99394174238e-08
4.71399407819e-10
-2.99945708501e-08
9.24314887857e-13
-2.99619544716e-08
-4.64136242183e-10
-2.98425689207e-08
-9.20715390749e-10
-2.96379571128e-08
-1.36602031848e-09
-2.93499501502e-08
-1.79756014595e-09
-2.89808166329e-08
-2.21311580926e-09
-2.85330491315e-08
-2.61072037102e-09
-2.80094976442e-08
-2.98864159422e-09
-2.74131818929e-08
-3.34536714223e-09
-2.67474071093e-08
-3.67959313901e-09
-2.60156010539e-08
-3.990216357e-09
-2.52214099688e-08
-4.27633035947e-09
-2.43685582875e-08
-4.53722533155e-09
-2.3460922865e-08
-4.77239150468e-09
-2.25024131825e-08
-4.9815256395e-09
-2.14970227162e-08
-5.16454011908e-09
-2.04487276522e-08
-5.32157409374e-09
-1.93615152803e-08
-5.45300594318e-09
-1.82392998351e-08
-5.55946677907e-09
-1.70859293365e-08
-5.64185408466e-09
-1.59051185777e-08
-5.70134578152e-09
-1.47004385341e-08
-5.73941357052e-09
-1.34752696351e-08
-5.75783614739e-09
-1.22327829214e-08
-5.75870981107e-09
-1.09759229321e-08
-5.74445552181e-09
-9.70739851191e-09
-5.71781547322e-09
-8.42971462385e-09
-5.68183260937e-09
-7.14520177998e-09
-5.63979714551e-09
-5.85612293625e-09
-5.5951444671e-09
-4.56476202002e-09
-5.55128024663e-09
-3.27358030407e-09
-5.51131911652e-09
-1.98524504465e-09
-5.47774055566e-09
-7.02614003642e-10
-5.45201072663e-09
5.71477053383e-10
-5.43422779937e-09
1.83434156175e-09
-5.42367019101e-09
3.08405590702e-09
-5.41906023937e-09
4.3193980971e-09
-5.41810403057e-09
5.53933056311e-09
-5.4179924974e-09
6.74282922343e-09
-5.41595272144e-09
7.92879495702e-09
-5.40934341224e-09
9.09593423482e-09
-5.39571412537e-09
1.02427725852e-08
-5.37283403203e-09
1.13676099194e-08
-5.33870196712e-09
1.24685767546e-08
-5.29155168726e-09
1.3543616711e-08
-5.22985495159e-09
1.45905541478e-08
-5.1523218449e-09
1.5607083013e-08
-5.05789911534e-09
1.65908335752e-08
-4.94576539726e-09
1.75393606387e-08
-4.81532401031e-09
1.84502058917e-08
-4.66619310903e-09
1.93208837529e-08
-4.49819378891e-09
2.01489389568e-08
-4.31133661968e-09
2.09319298747e-08
-4.1058069402e-09
2.16674818216e-08
-3.88194981216e-09
2.23532680512e-08
-3.64025460714e-09
2.29870594518e-08
-3.3813404037e-09
2.35667035174e-08
-3.10594178194e-09
2.40901711916e-08
-2.81489635704e-09
2.45555342521e-08
-2.50913323846e-09
2.49610101897e-08
-2.18966382352e-09
2.53049386683e-08
-1.85757370959e-09
2.55858255384e-08
-1.51401711762e-09
2.58023193234e-08
-1.16021220747e-09
2.5953255629e-08
-7.97438561286e-10
2.60376347102e-08
-4.2703475786e-10
2.60546675368e-08
-5.03970136737e-11
2.60037560568e-08
3.31023975962e-10
2.5884538936e-08
7.15718484039e-10
2.56968718533e-08
1.10207533196e-09
2.54408804714e-08
1.48836421978e-09
2.51169487952e-08
1.87272175164e-09
2.47257772748e-08
2.25313450692e-09
2.42683750786e-08
2.62742142359e-09
2.37461201263e-08
2.99321485939e-09
2.31607512252e-08
3.34794390367e-09
2.25144239211e-08
3.68882080928e-09
2.18096946762e-08
4.01283587734e-09
2.10495624905e-08
4.31676391616e-09
2.02374345098e-08
4.59718963367e-09
1.93771427358e-08
4.85055672271e-09
1.84728836663e-08
5.07324783133e-09
1.75292072972e-08
5.26169778166e-09
1.65509365243e-08
5.41254101219e-09
1.55431423992e-08
5.52278606231e-09
1.45110665944e-08
5.59000518156e-09
1.34601101505e-08
5.61251888752e-09
1.23957865037e-08
5.58955302228e-09
1.1323742066e-08
5.52134522974e-09
1.02497454472e-08
5.40918523744e-09
9.17972702189e-09
5.25538477313e-09
8.11977633904e-09
5.06318987751e-09
7.07615795693e-09
4.83666706818e-09
6.05526484474e-09
4.58061426933e-09
5.06354243518e-09
4.30056773259e-09
4.10730307428e-09
4.00299989142e-09
3.19240709945e-09
3.69584025806e-09
2.32368382372e-09
3.38952597444e-09
1.50391717356e-09
3.09897471037e-09
7.32047837277e-10
2.84737738024e-09
2.6732499467e-09
-4.52917603439e-10
2.31513106214e-09
-9.11672410786e-10
2.34707151599e-09
-1.38285836968e-09
2.41384813218e-09
-1.87241512987e-09
2.51125241857e-09
-2.38577171744e-09
2.63699272466e-09
-2.92810098851e-09
2.78963259686e-09
-3.50411549434e-09
2.96785249794e-09
-4.11814073508e-09
3.17003413297e-09
-4.77382572352e-09
3.3940852457e-09
-5.47421116733e-09
3.63738664424e-09
-6.2214529989e-09
3.89678827632e-09
-7.01692606446e-09
4.16861924941e-09
-7.86097555417e-09
4.44870649909e-09
-8.75306281074e-09
4.73240061793e-09
-9.69154866875e-09
5.01461834385e-09
-1.06738914503e-08
5.28990244611e-09
-1.16964652686e-08
5.55250631975e-09
-1.27548170258e-08
5.79650057299e-09
-1.3843518338e-08
6.01590424689e-09
-1.49564803211e-08
6.20483445052e-09
-1.60868315344e-08
6.35767228518e-09
-1.72272808455e-08
6.46923577083e-09
-1.837000863e-08
6.53495325932e-09
-1.95070610538e-08
6.55102587867e-09
-2.0630238359e-08
6.51456967779e-09
-2.17314993733e-08
6.42372626467e-09
-2.28028298962e-08
6.27773339875e-09
-2.38366356203e-08
6.07694882341e-09
-2.48255769957e-08
5.82282438574e-09
-2.57629333781e-08
5.51783218748e-09
-2.66423985696e-08
5.1653481132e-09
-2.74584075183e-08
4.76950300309e-09
-2.82058960204e-08
4.33501280151e-09
-2.88805895844e-08
3.86700152746e-09
-2.94787374539e-08
3.37082833367e-09
-2.99973680592e-08
2.85192965217e-09
-3.04340099402e-08
2.31568256586e-09
-3.07869194357e-08
1.76729419327e-09
-3.10548004706e-08
1.21171715429e-09
-3.12370099284e-08
6.53590892124e-10
-3.13332799294e-08
9.72040936664e-11
-3.13439092881e-08
-4.5352342198e-10
-3.12695356813e-08
-9.95080147891e-10
-3.11112480745e-08
-1.52432300099e-09
-3.08703697088e-08
-2.03843073348e-09
-3.05486160798e-08
-2.534883034e-09
-3.01478902874e-08
-3.01143954658e-09
-2.967042306e-08
-3.46612092584e-09
-2.9118592391e-08
-3.89719239827e-09
-2.84950453154e-08
-4.3031508241e-09
-2.78025417119e-08
-4.68271575497e-09
-2.70440564418e-08
-5.03482475403e-09
-2.62226459746e-08
-5.35863277465e-09
-2.53415297731e-08
-5.65351537358e-09
-2.44039782395e-08
-5.919075286e-09
-2.34133728985e-08
-6.15515172312e-09
-2.23731142981e-08
-6.36183188842e-09
-2.12866614838e-08
-6.53946369809e-09
-2.01574590557e-08
-6.68866942359e-09
-1.89889579574e-08
-6.81035891601e-09
-1.77845623781e-08
-6.90574253767e-09
-1.65476366595e-08
-6.97634196247e-09
-1.52814758427e-08
-7.023999039e-09
-1.39893081156e-08
-7.05087933121e-09
-1.26742976203e-08
-7.05946892352e-09
-1.13395572399e-08
-7.05255697168e-09
-9.98819555866e-09
-7.03319795829e-09
-8.62335389919e-09
-7.00463946814e-09
-7.24829791085e-09
-6.9702048054e-09
-5.86646290549e-09
-6.93311567193e-09
-4.48153077985e-09
-6.89625618075e-09
-3.09737893956e-09
-6.86189274491e-09
-1.71799292033e-09
-6.8314021572e-09
-3.47100323983e-10
-6.8051207849e-09
1.01134378467e-09
-6.78212004569e-09
2.35379646552e-09
-6.76151339446e-09
3.67775878584e-09
-6.74207228357e-09
4.98114387268e-09
-6.721378139e-09
6.26208635684e-09
-6.69690118559e-09
7.51883964464e-09
-6.66609730009e-09
8.74967326304e-09
-6.62655365225e-09
9.95286283193e-09
-6.57602419813e-09
1.1126625096e-08
-6.51246997562e-09
1.22691513745e-08
-6.4340785104e-09
1.33785681389e-08
-6.3392772311e-09
1.44529855455e-08
-6.22673969936e-09
1.54904680646e-08
-6.09538688069e-09
1.64890860873e-08
-5.94438373547e-09
1.74468895542e-08
-5.7731324368e-09
1.8361958695e-08
-5.58126240781e-09
1.92323783255e-08
-5.36861809154e-09
2.00562866978e-08
-5.13524497698e-09