/*--------------------------------*- C++ -*----------------------------------*\
| =========                 |                                                 |
| \\      /  F ield         | OpenFOAM: The Open Source CFD Toolbox           |
|  \\    /   O peration     | Version:  2206                                  |
|   \\  /    A nd           | Website:  www.openfoam.com                      |
|    \\/     M anipulation  |                                                 |
\*---------------------------------------------------------------------------*/
FoamFile
{
    version     2.0;
    format      ascii;
    arch        "LSB;label=64;scalar=64";
    class       volVectorField;
    location    "4.9/water";
    object      U.gas;
}
// * * * * * * * * * * * * * * * * * * * * * * * * * * * * * * * * * * * * * //

dimensions      [0 1 -1 0 0 0 0];

internalField   nonuniform List<vector> 
23300
(
(-0.00191136601987 0.135898317982 0)
(-0.00169894242666 0.135893161941 0)
(0.000493394192059 0.135857376694 0)
(0.000614819873163 0.135813689146 0)
(0.000704737981637 0.135763673689 0)
(0.000755934799908 0.135706942879 0)
(0.000759911728381 0.135645408325 0)
(0.000710171995025 0.135579390787 0)
(0.000601688558257 0.13551144031 0)
(0.000430757758277 0.135442140353 0)
(0.000195291891355 0.135374440956 0)
(-0.00010511732087 0.135309121049 0)
(-0.000469166461562 0.135249298527 0)
(-0.000893879758677 0.135195695387 0)
(-0.00137487900126 0.135151212929 0)
(-0.00190649558446 0.135116188546 0)
(-0.00248219428897 0.135092962982 0)
(-0.00309474899236 0.135081217042 0)
(-0.00373670831155 0.135082524541 0)
(-0.00440053525112 0.135095798159 0)
(-0.00507902243014 0.135121828121 0)
(-0.00576530165819 0.13515883585 0)
(-0.00645316513843 0.13520698694 0)
(-0.0071369066142 0.135264037245 0)
(-0.00781154917731 0.135329795266 0)
(-0.00847253893364 0.135401842005 0)
(-0.00911591529985 0.135479915252 0)
(-0.00973791392841 0.135561691221 0)
(-0.0103351302446 0.135647066731 0)
(-0.0109041052495 0.135734001377 0)
(-0.0114415356047 0.135822683138 0)
(-0.0119439066385 0.135911441089 0)
(-0.012407780708 0.136000786659 0)
(-0.0128295086003 0.136089413557 0)
(-0.0132055903126 0.136178111764 0)
(-0.0135324530667 0.136265873956 0)
(-0.0138068454551 0.136353679406 0)
(-0.0140256436051 0.136440725009 0)
(-0.0141862202844 0.136528075658 0)
(-0.0142860932535 0.136615028606 0)
(-0.0143232236495 0.136702621181 0)
(-0.01429615692 0.136790160241 0)
(-0.0142044775067 0.136878591763 0)
(-0.0140481028717 0.136967168739 0)
(-0.0138273782578 0.137056672449 0)
(-0.0135430670033 0.137146247389 0)
(-0.0131965770813 0.137236459833 0)
(-0.0127896935956 0.137326308822 0)
(-0.0123247694179 0.137416122966 0)
(-0.0118044513146 0.137504737921 0)
(-0.0112318685556 0.137592228768 0)
(-0.010610355735 0.13767725451 0)
(-0.00994365196087 0.13775962688 0)
(-0.00923561931121 0.137837822449 0)
(-0.00849046414342 0.137911392018 0)
(-0.00771245296331 0.137978641901 0)
(-0.00690617017836 0.138038891035 0)
(-0.00607623614212 0.13809032451 0)
(-0.00522761444584 0.138132109103 0)
(-0.00436534286496 0.138162425081 0)
(-0.0034949062774 0.138180455471 0)
(-0.00262199915226 0.1381846078 0)
(-0.00175297963692 0.138174401334 0)
(-0.000894685050623 0.138148902099 0)
(-5.49505216114e-05 0.138108547228 0)
(0.000757599212988 0.138053830487 0)
(0.00153326250514 0.137987111806 0)
(0.00226220640837 0.137911577507 0)
(0.0029362390937 0.137833019579 0)
(0.00355499494174 0.137758861048 0)
(0.00413830726174 0.137698992314 0)
(0.00471297437947 0.137661828205 0)
(0.00528170809811 0.13765229434 0)
(0.00582596483898 0.137671040456 0)
(0.00634197502886 0.137715947869 0)
(0.00686063570839 0.13777914554 0)
(0.00741354487271 0.137850641333 0)
(0.00800954115731 0.137921832167 0)
(0.00864610515773 0.137986995386 0)
(0.00931644816502 0.138041977093 0)
(0.0100125415893 0.13808453716 0)
(0.0107261269886 0.138113157067 0)
(0.0114493958385 0.138127564314 0)
(0.0121750187664 0.138127751644 0)
(0.0128963942852 0.138114571876 0)
(0.0136074600995 0.138088867423 0)
(0.0143028236154 0.138052074627 0)
(0.0149775283561 0.138005433391 0)
(0.0156271542442 0.137950585936 0)
(0.016247601942 0.137888859641 0)
(0.0168351941089 0.1378218538 0)
(0.0173864971265 0.137750790512 0)
(0.0178984284756 0.137677082505 0)
(0.0183681155817 0.137601745304 0)
(0.0187930050212 0.137525938894 0)
(0.0191707504168 0.137450434305 0)
(0.0194993169322 0.137376123244 0)
(0.0197768904566 0.137303533066 0)
(0.0200019738342 0.137233300287 0)
(0.0201733114002 0.137165729056 0)
(0.0202899757272 0.13710122617 0)
(0.0203513049678 0.13703989892 0)
(0.0203569823922 0.136981950192 0)
(0.0203069826824 0.136927311856 0)
(0.0202016119365 0.13687600062 0)
(0.020041291221 0.136827805864 0)
(0.019826696152 0.136782708315 0)
(0.0195588991841 0.13674050179 0)
(0.019239176693 0.136700976816 0)
(0.0188688959873 0.136663755422 0)
(0.0184497190574 0.136628554997 0)
(0.0179835601045 0.136594956421 0)
(0.0174726119606 0.13656262944 0)
(0.0169192802821 0.136531132295 0)
(0.016326200764 0.13650011249 0)
(0.0156961616987 0.136469138189 0)
(0.0150321075149 0.136437878035 0)
(0.0143370404725 0.13640596483 0)
(0.0136140051747 0.136373159191 0)
(0.0128659622858 0.136339247353 0)
(0.0120957548812 0.136304194157 0)
(0.0113059612132 0.136268076242 0)
(0.010498871894 0.136231225995 0)
(0.00967637653923 0.136194192206 0)
(0.00884005552226 0.136157858757 0)
(0.00799125478565 0.136123397082 0)
(0.00713150337813 0.136092307387 0)
(0.00626299890517 0.13606629147 0)
(0.00538952134941 0.136047144678 0)
(0.00451732960651 0.136036495234 0)
(0.0036563076157 0.136035546779 0)
(0.00282068927737 0.136044756885 0)
(0.00202967425439 0.136063589728 0)
(0.00130732969528 0.136090342066 0)
(0.000682597449198 0.136122119835 0)
(0.000189231373695 0.136154962653 0)
(-0.000133943284252 0.13618412071 0)
(-0.000250246848054 0.136204806274 0)
(-0.00255950543599 0.136210313836 0)
(-0.00243318106082 0.136191340473 0)
(-0.00112047061452 0.247198779269 0)
(-0.00119876292964 0.247217544433 0)
(-0.000187063033128 0.247197538283 0)
(-0.000260345757714 0.247174750304 0)
(-0.000357312974762 0.2471509414 0)
(-0.000479133019638 0.2471247501 0)
(-0.000629343769231 0.247098148973 0)
(-0.000811547282349 0.247070485511 0)
(-0.00102858550489 0.247044424749 0)
(-0.00128254225601 0.247019270813 0)
(-0.00157457663948 0.246997966145 0)
(-0.00190501025852 0.246979765491 0)
(-0.00227338172877 0.246967619055 0)
(-0.00267851005825 0.246960587795 0)
(-0.00311859118291 0.246961301751 0)
(-0.00359127814213 0.246968375265 0)
(-0.00409378478344 0.246983839444 0)
(-0.00462295319009 0.247005668484 0)
(-0.00517535369719 0.247035164229 0)
(-0.00574732157655 0.247069631447 0)
(-0.00633504335013 0.247109712982 0)
(-0.00693455308566 0.247152211337 0)
(-0.00754180823587 0.247197363922 0)
(-0.00815264801814 0.247241791209 0)
(-0.00876286548458 0.247285683367 0)
(-0.00936813774149 0.247325848857 0)
(-0.0099641039959 0.247362776053 0)
(-0.0105462833791 0.247393764877 0)
(-0.0111101700506 0.247419829702 0)
(-0.0116511593224 0.247438912764 0)
(-0.0121646740564 0.247452609499 0)
(-0.0126461179733 0.247459484229 0)
(-0.0130910378861 0.247461612568 0)
(-0.013495106128 0.247458033163 0)
(-0.0138543040925 0.247451109602 0)
(-0.0141649146806 0.247440155591 0)
(-0.0144236975255 0.247427614548 0)
(-0.0146278652541 0.247412888025 0)
(-0.014775232566 0.247398323582 0)
(-0.0148640889252 0.247383263681 0)
(-0.014893219117 0.247369836111 0)
(-0.0148620414756 0.247357307412 0)
(-0.0147708577137 0.247347574485 0)
(-0.0146204246516 0.24733963522 0)
(-0.0144119007091 0.247334990437 0)
(-0.0141468950134 0.247332437675 0)
(-0.0138274924571 0.247333142942 0)
(-0.0134561346355 0.247335701987 0)
(-0.0130356563731 0.247340955044 0)
(-0.0125691668375 0.247347312498 0)
(-0.0120600876016 0.247355306996 0)
(-0.0115120307189 0.247363184637 0)
(-0.0109288393759 0.247371195031 0)
(-0.0103144598541 0.247377447709 0)
(-0.00967298465652 0.247381946099 0)
(-0.00900851569897 0.247382708752 0)
(-0.00832521047325 0.247379557077 0)
(-0.00762713480079 0.247370500723 0)
(-0.00691831036423 0.247355293698 0)
(-0.00620255404773 0.247332084715 0)
(-0.00548352075652 0.247300759821 0)
(-0.00476452083303 0.247259860722 0)
(-0.00404853965212 0.247209738036 0)
(-0.0033380111405 0.247149746365 0)
(-0.00263477169535 0.247081239019 0)
(-0.00193972480226 0.247005050963 0)
(-0.00125258685357 0.246924358216 0)
(-0.000571172637124 0.246842413625 0)
(0.000109587388171 0.246765153114 0)
(0.000799274999142 0.246698740383 0)
(0.00151170091342 0.246650631306 0)
(0.0022505966718 0.24662424349 0)
(0.00299792780162 0.246620349267 0)
(0.00372536148452 0.246637941134 0)
(0.0044121994108 0.246679348292 0)
(0.00505867983393 0.246743201412 0)
(0.00567993690678 0.246823181523 0)
(0.00629000097328 0.246911524814 0)
(0.00689739427987 0.247002389759 0)
(0.00750630044264 0.247090518126 0)
(0.00811817522696 0.2471727823 0)
(0.00873278027825 0.24724643896 0)
(0.00934890263623 0.247310466256 0)
(0.00996468061613 0.24736389086 0)
(0.0105778753728 0.247407072511 0)
(0.0111859378453 0.247440146698 0)
(0.0117861396984 0.247464269595 0)
(0.0123755737588 0.247480178503 0)
(0.0129512488649 0.247489394996 0)
(0.0135100810107 0.247492898969 0)
(0.0140489782886 0.247492284339 0)
(0.0145648342715 0.247488539804 0)
(0.0150546050741 0.247483150106 0)
(0.0155153039229 0.247476975232 0)
(0.0159440685669 0.247471291091 0)
(0.0163381547464 0.247466759193 0)
(0.0166949924392 0.24746440212 0)
(0.0170121767975 0.247464656418 0)
(0.0172875136839 0.247468280337 0)
(0.0175190078474 0.247475483776 0)
(0.0177048984938 0.247486767431 0)
(0.0178436446118 0.247502124549 0)
(0.0179339519157 0.24752181237 0)
(0.0179747569423 0.247545621734 0)
(0.017965271799 0.24757358468 0)
(0.0179051139218 0.247605317328 0)
(0.0177941673512 0.247640749674 0)
(0.0176322426795 0.247679467251 0)
(0.0174193778843 0.247721178174 0)
(0.0171560320629 0.247765252326 0)
(0.0168429736277 0.247811254305 0)
(0.0164812646562 0.247858450619 0)
(0.0160722898949 0.247906283598 0)
(0.0156177597054 0.247953929111 0)
(0.0151197430022 0.248000720243 0)
(0.0145806701517 0.24804575343 0)
(0.0140033625063 0.248088265494 0)
(0.0133910238695 0.248127287391 0)
(0.0127472513165 0.248161981951 0)
(0.0120759931052 0.248191350843 0)
(0.0113815152602 0.248214548039 0)
(0.0106682985405 0.248230654044 0)
(0.0099409412654 0.248238984744 0)
(0.00920399159494 0.24823894331 0)
(0.00846181540503 0.248230324115 0)
(0.00771843536406 0.248213212941 0)
(0.00697748793116 0.248188225593 0)
(0.00624223391424 0.248156359097 0)
(0.00551578455008 0.248119052222 0)
(0.0048014243137 0.24807788662 0)
(0.00410314877021 0.248034427929 0)
(0.0034261901058 0.24798983019 0)
(0.00277760323744 0.247944628974 0)
(0.00216664642434 0.247898511378 0)
(0.00160517646704 0.247850367101 0)
(0.00110802295696 0.247798494422 0)
(0.000694167546284 0.247741173907 0)
(0.000392560712022 0.247678086099 0)
(-0.00117163777456 0.247606590079 0)
(-0.00130882697563 0.247511992173 0)
(-0.00118166393541 0.226753306955 0)
(-0.00127056279252 0.226795037994 0)
(-0.000208441454501 0.226831607 0)
(-0.000283578593315 0.226878000814 0)
(-0.000385761514786 0.226935566782 0)
(-0.000515872504138 0.227003067617 0)
(-0.000676846239128 0.227080568751 0)
(-0.000872313959424 0.227166552937 0)
(-0.00110527873703 0.227261144617 0)
(-0.00137775354078 0.227362319708 0)
(-0.00169067176717 0.227469867828 0)
(-0.00204394590713 0.227581256114 0)
(-0.00243648867686 0.227695881038 0)
(-0.00286638862887 0.227810785915 0)
(-0.00333100809399 0.227924981932 0)
(-0.00382714291885 0.228035179982 0)
(-0.00435114691674 0.228140088465 0)
(-0.0048990744897 0.228236220947 0)
(-0.00546679827928 0.228322146393 0)
(-0.00605010938653 0.228394385433 0)
(-0.00664480829777 0.228451612133 0)
(-0.00724674555186 0.228490627816 0)
(-0.00785188240105 0.228510513024 0)
(-0.00845626968569 0.22850865984 0)
(-0.00905608419151 0.228484860583 0)
(-0.00964755797002 0.228437373093 0)
(-0.0102270046742 0.228366924479 0)
(-0.0107907211683 0.228272789838 0)
(-0.0113350244217 0.228156690496 0)
(-0.0118561566187 0.228018880049 0)
(-0.0123503576787 0.227861931253 0)
(-0.0128138022999 0.227686847688 0)
(-0.0132427220162 0.227496750493 0)
(-0.0136333830406 0.227293050155 0)
(-0.0139822472602 0.227079052955 0)
(-0.0142859723222 0.226856231212 0)
(-0.0145415803881 0.226627761212 0)
(-0.0147464513811 0.226394917017 0)
(-0.0148984738114 0.226160537114 0)
(-0.0149959109618 0.225925555205 0)
(-0.0150372272499 0.225692358402 0)
(-0.0150215054222 0.225461625663 0)
(-0.014949106534 0.22523544445 0)
(-0.0148207806865 0.225014014897 0)
(-0.0146374125191 0.224798928076 0)
(-0.0144002996348 0.224590119589 0)
(-0.0141111846298 0.224388886777 0)
(-0.0137721307639 0.224194978129 0)
(-0.0133855609311 0.224009467217 0)
(-0.0129541335929 0.223831985264 0)
(-0.0124807829518 0.223663446873 0)
(-0.0119685900025 0.223503427409 0)
(-0.0114208244862 0.223352739296 0)
(-0.0108408085678 0.223210953167 0)
(-0.0102319600022 0.223078826811 0)
(-0.00959764692157 0.222955967798 0)
(-0.00894123231069 0.222843119019 0)
(-0.00826591850788 0.222739957623 0)
(-0.00757479087538 0.2226472425 0)
(-0.00687065063963 0.222564741735 0)
(-0.00615605262016 0.222493245668 0)
(-0.00543312126972 0.222432609078 0)
(-0.00470357028807 0.222383628547 0)
(-0.00396849306026 0.222346177143 0)
(-0.00322834321319 0.222320934845 0)
(-0.00248267644963 0.222307579321 0)
(-0.00173004021732 0.222306338435 0)
(-0.000967610411783 0.222316160048 0)
(-0.000190989502643 0.222335960057 0)
(0.000605716937961 0.222362496893 0)
(0.00142793831396 0.222390983125 0)
(0.00227142075805 0.222413341551 0)
(0.00311596793179 0.222424424745 0)
(0.00394115334987 0.222421315524 0)
(0.00473585403072 0.222409833186 0)
(0.00549279533018 0.222400576279 0)
(0.00621340460672 0.222400071212 0)
(0.00690595568223 0.222411175705 0)
(0.00757745091371 0.222435097037 0)
(0.0082328064634 0.222471325665 0)
(0.00887512224899 0.222519404238 0)
(0.00950606735534 0.222578156573 0)
(0.0101263137204 0.222646949196 0)
(0.0107357634424 0.22272470314 0)
(0.0113337900499 0.222810952455 0)
(0.0119193172805 0.22290484008 0)
(0.0124909584432 0.223006086684 0)
(0.0130470354413 0.223114029593 0)
(0.0135856784564 0.223228531743 0)
(0.0141048288506 0.22334907594 0)
(0.0146023240721 0.223475620194 0)
(0.0150758987285 0.223607748032 0)
(0.015523260688 0.223745471586 0)
(0.0159420927787 0.223888436399 0)
(0.0163301201948 0.224036673523 0)
(0.0166851112843 0.224189856993 0)
(0.0170049349959 0.224348006347 0)
(0.0172875595088 0.224510794706 0)
(0.0175310997139 0.2246782035 0)
(0.0177338128074 0.224849879174 0)
(0.0178941363308 0.225025742279 0)
(0.0180106811182 0.225205391206 0)
(0.0180822621878 0.225388668834 0)
(0.0181078927778 0.225575112912 0)
(0.0180868150303 0.225764483736 0)
(0.0180186477924 0.225956247188 0)
(0.0179032900602 0.226150060106 0)
(0.0177405307822 0.226345333069 0)
(0.0175303551295 0.226541622894 0)
(0.0172731815782 0.226738198956 0)
(0.0169697273356 0.226934451152 0)
(0.0166210019264 0.227129488278 0)
(0.0162283356133 0.227322508099 0)
(0.0157933823951 0.227512424424 0)
(0.0153181468111 0.227698198476 0)
(0.0148049779749 0.227878491543 0)
(0.014256580609 0.228051959951 0)
(0.0136759817941 0.22821693541 0)
(0.0130665047027 0.228371693342 0)
(0.0124316828878 0.22851417468 0)
(0.0117751744871 0.228642251441 0)
(0.0111006094012 0.228753519096 0)
(0.0104114485876 0.228845594193 0)
(0.00971079650008 0.228916007629 0)
(0.00900127866696 0.22896255233 0)
(0.00828493537936 0.22898326945 0)
(0.0075632742408 0.228976804247 0)
(0.0068374197297 0.228942407703 0)
(0.00610850168807 0.228880197199 0)
(0.00537815578849 0.228791067706 0)
(0.00464923094615 0.228676777692 0)
(0.00392647422048 0.228539748952 0)
(0.00321725743722 0.228383035344 0)
(0.00253208128391 0.228210151972 0)
(0.00188505721819 0.228025137557 0)
(0.00129444035165 0.227832668397 0)
(0.000784676887702 0.227638500984 0)
(0.000389956616122 0.227450324931 0)
(-0.00142832904212 0.227274019021 0)
(-0.00154151242408 0.227128137053 0)
(-0.00114486825893 0.230303903447 0)
(-0.00123991091277 0.230336055692 0)
(-0.000233174112707 0.230382647633 0)
(-0.000331112194805 0.230443544414 0)
(-0.000454078595704 0.230519513367 0)
(-0.000605511637625 0.230609862921 0)
(-0.000788886748964 0.230714263027 0)
(-0.00100783924434 0.230831630377 0)
(-0.00126537195509 0.230961442476 0)
(-0.00156354792534 0.231102078641 0)
(-0.00190321056136 0.231252565788 0)
(-0.00228407213702 0.231410668378 0)
(-0.00270478438683 0.231574824609 0)
(-0.00316308005055 0.231742163226 0)
(-0.00365588157603 0.231910484112 0)
(-0.00417950331748 0.23207631038 0)
(-0.00472977288108 0.232236871223 0)
(-0.0053022298228 0.232388233083 0)
(-0.00589224549744 0.232527274069 0)
(-0.00649517866621 0.232649900918 0)
(-0.00710646932604 0.232753011572 0)
(-0.00772172512402 0.23283277914 0)
(-0.00833677740934 0.23288659282 0)
(-0.00894769105312 0.232911378501 0)
(-0.00955078404105 0.232905495553 0)
(-0.0101425699621 0.232867055764 0)
(-0.0107197548048 0.23279574811 0)
(-0.0112791365399 0.232691124684 0)
(-0.0118176041598 0.232554331387 0)
(-0.0123320308478 0.23238634639 0)
(-0.0128193069359 0.232189615635 0)
(-0.0132762622249 0.231966258965 0)
(-0.0136997533631 0.231719632988 0)
(-0.0140866295206 0.231452541054 0)
(-0.0144338679051 0.231168758953 0)
(-0.0147385675172 0.230871290796 0)
(-0.0149981030408 0.230563885209 0)
(-0.0152101159891 0.230249364152 0)
(-0.0153726570093 0.22993113978 0)
(-0.0154841728447 0.229611632192 0)
(-0.0155429456775 0.229293637939 0)
(-0.0155476599905 0.228979172632 0)
(-0.0154986924068 0.228670734663 0)
(-0.0153967673309 0.228369724777 0)
(-0.0152424788755 0.228078045214 0)
(-0.0150367700964 0.227796705936 0)
(-0.0147809681763 0.227527217693 0)
(-0.014476665478 0.227270279372 0)
(-0.0141257657782 0.227027098467 0)
(-0.0137303606028 0.226798136787 0)
(-0.0132927754136 0.226584360982 0)
(-0.0128154410188 0.226386048078 0)
(-0.0123009415718 0.22620396371 0)
(-0.0117518802248 0.226038227504 0)
(-0.0111709291246 0.22588941898 0)
(-0.0105606890015 0.225757503094 0)
(-0.00992374168755 0.225642865155 0)
(-0.00926250456569 0.225545295028 0)
(-0.0085792852986 0.225464953093 0)
(-0.00787613232515 0.225401410017 0)
(-0.00715488974382 0.225354544489 0)
(-0.00641704492367 0.225323631136 0)
(-0.0056637792894 0.225308168108 0)
(-0.00489581560304 0.225307002254 0)
(-0.00411346195165 0.225319082852 0)
(-0.0033164681157 0.225342611449 0)
(-0.00250407235753 0.225375718762 0)
(-0.00167492557535 0.225415624912 0)
(-0.000827325473032 0.22545922843 0)
(4.02124574683e-05 0.225502272907 0)
(0.00092725425686 0.225540013865 0)
(0.0018289352527 0.225567074488 0)
(0.00272706255719 0.225580965667 0)
(0.00360491224791 0.225581571869 0)
(0.00446168516326 0.225570001359 0)
(0.00529170608731 0.225551503071 0)
(0.00608850830287 0.225533124019 0)
(0.00685445453702 0.225518839942 0)
(0.00759269968704 0.225511856141 0)
(0.00830610081974 0.22551410228 0)
(0.00899684077998 0.225527087309 0)
(0.00966639926055 0.225551614649 0)
(0.0103156919947 0.225588423603 0)
(0.010945130778 0.225637804331 0)
(0.0115547556913 0.225700122797 0)
(0.0121442550607 0.225775398615 0)
(0.0127130608763 0.225863771134 0)
(0.0132603451715 0.225965079953 0)
(0.0137850969379 0.226079296875 0)
(0.0142861133589 0.226206123759 0)
(0.014762069557 0.226345398556 0)
(0.0152115124734 0.226496714571 0)
(0.0156329262426 0.22665980255 0)
(0.0160247294779 0.226834171455 0)
(0.0163853354887 0.227019466727 0)
(0.016713151327 0.227215131802 0)
(0.0170066312496 0.227420742542 0)
(0.0172642756337 0.22763568844 0)
(0.0174846769073 0.227859483485 0)
(0.0176665171663 0.22809146638 0)
(0.0178086065908 0.228331088696 0)
(0.0179098794989 0.228577633733 0)
(0.0179694268225 0.228830483452 0)
(0.0179864918823 0.229088856079 0)
(0.0179604974922 0.229352052757 0)
(0.0178912106313 0.229619213833 0)
(0.0177786749837 0.229889566381 0)
(0.0176227594871 0.230162201633 0)
(0.017423468026 0.230436205419 0)
(0.0171812338868 0.230710459925 0)
(0.0168967564118 0.23098383637 0)
(0.0165709871847 0.231254990255 0)
(0.0162051569854 0.231522526182 0)
(0.0158007732178 0.231784805244 0)
(0.0153596376254 0.232040091417 0)
(0.0148838283457 0.23228637254 0)
(0.014375695296 0.232521494593 0)
(0.0138378086179 0.232743005698 0)
(0.0132729125185 0.232948294631 0)
(0.0126838208717 0.233134479779 0)
(0.012073317397 0.233298580831 0)
(0.0114439983046 0.233437484112 0)
(0.0107981415545 0.233548177128 0)
(0.0101375475993 0.233627808155 0)
(0.0094634644446 0.233673979774 0)
(0.00877654474107 0.233684866631 0)
(0.00807696965931 0.233659495246 0)
(0.00736466516534 0.233597815697 0)
(0.00663974036798 0.233500847308 0)
(0.00590301201936 0.233370595469 0)
(0.00515670959702 0.233209997436 0)
(0.00440514314739 0.233022691557 0)
(0.00365539827564 0.232812859953 0)
(0.00291780493313 0.232585038249 0)
(0.00220634541867 0.232344116362 0)
(0.00153893917387 0.232095493445 0)
(0.000938795289657 0.231845555264 0)
(0.000435868257062 0.231602353853 0)
(-0.00145161167973 0.231372842724 0)
(-0.00155806231656 0.231231449978 0)
(-0.00114333834856 0.2299618804 0)
(-0.00124227074148 0.229991742948 0)
(-0.000248694485814 0.230048895076 0)
(-0.000362319561418 0.23012845922 0)
(-0.000501560515226 0.230229397641 0)
(-0.00067033641315 0.230350748821 0)
(-0.000872556370242 0.230491647726 0)
(-0.00111206412016 0.230650834886 0)
(-0.00139194758446 0.230826988009 0)
(-0.001714140775 0.231018132213 0)
(-0.00207936782967 0.231222253916 0)
(-0.00248716610167 0.2314365933 0)
(-0.00293588650815 0.231658377773 0)
(-0.00342291313096 0.231884054992 0)
(-0.0039447475896 0.232110082506 0)
(-0.00449724326022 0.232332190377 0)
(-0.00507573179593 0.232546195096 0)
(-0.00567526077056 0.232747332106 0)
(-0.00629072325808 0.23293108402 0)
(-0.00691705669789 0.233092587495 0)
(-0.0075493450106 0.233227466517 0)
(-0.00818294337823 0.233331293567 0)
(-0.00881353497516 0.233400410903 0)
(-0.00943716624787 0.233431412494 0)
(-0.0100502553044 0.233421925353 0)
(-0.010649543386 0.233370069836 0)
(-0.0112320680138 0.233275169257 0)
(-0.0117950565583 0.233137152052 0)
(-0.0123358935721 0.232957166975 0)
(-0.012851998752 0.232736909753 0)
(-0.0133408267857 0.232479146497 0)
(-0.0137997718989 0.232186980029 0)
(-0.0142262269713 0.231864312623 0)
(-0.0146175340916 0.231515091472 0)
(-0.0149711003033 0.231143756784 0)
(-0.015284381396 0.230754511233 0)
(-0.0155550255225 0.230351790523 0)
(-0.0157808586679 0.229939584319 0)
(-0.0159600112617 0.229521944278 0)
(-0.0160911173027 0.229102362201 0)
(-0.0161723051866 0.228684316464 0)
(-0.0162017134413 0.228270618794 0)
(-0.0161795556962 0.227864099163 0)
(-0.0161065077328 0.227467204848 0)
(-0.0159828994306 0.227082179656 0)
(-0.015809296282 0.226710768388 0)
(-0.0155865874793 0.226354760019 0)
(-0.0153158800664 0.226015496727 0)
(-0.0149985554614 0.225694394714 0)
(-0.0146361454606 0.225392468491 0)
(-0.0142303887536 0.22511082304 0)
(-0.0137831029224 0.224850192662 0)
(-0.0132962433813 0.224611401388 0)
(-0.0127717716104 0.224394916969 0)
(-0.0122117172595 0.224201278761 0)
(-0.011618043736 0.224030668603 0)
(-0.0109927145789 0.223883306479 0)
(-0.0103375585906 0.223759039309 0)
(-0.00965434102458 0.223657705638 0)
(-0.00894463136265 0.223578742782 0)
(-0.0082098789495 0.223521521161 0)
(-0.00745128725802 0.223484967595 0)
(-0.00666989351074 0.223467869068 0)
(-0.00586645771108 0.223468509075 0)
(-0.00504155217333 0.223484942082 0)
(-0.00419548845439 0.223514643741 0)
(-0.0033284501162 0.223554767514 0)
(-0.00244054410813 0.22360182616 0)
(-0.00153214938167 0.223651970156 0)
(-0.000604437783128 0.223700785878 0)
(0.00033965422148 0.223743811624 0)
(0.00129454982248 0.223776915896 0)
(0.00224726662447 0.223797361252 0)
(0.00318089164155 0.223807704432 0)
(0.00409152605739 0.223808236899 0)
(0.00498150474549 0.223799222861 0)
(0.00584469783754 0.223787254041 0)
(0.00667655414338 0.223777090384 0)
(0.00747780881223 0.22377230929 0)
(0.00824933089027 0.223775815491 0)
(0.0089920492917 0.223790033933 0)
(0.0097066976645 0.223816818885 0)
(0.0103938300332 0.223857727574 0)
(0.0110537805077 0.223913893803 0)
(0.0116867204626 0.22398625311 0)
(0.012292630653 0.2240754004 0)
(0.0128713555525 0.22418179029 0)
(0.0134225724714 0.224305592897 0)
(0.0139458420807 0.224446881149 0)
(0.0144405813282 0.224605489988 0)
(0.0149061144279 0.224781193844 0)
(0.0153416533088 0.224973570665 0)
(0.0157463493718 0.225182169491 0)
(0.0161192810174 0.225406378936 0)
(0.0164595043706 0.225645584102 0)
(0.0167660456694 0.225899038999 0)
(0.0170379487406 0.226166012045 0)
(0.0172742699571 0.226445661934 0)
(0.0174741210148 0.226737171437 0)
(0.0176366646648 0.227039626725 0)
(0.0177611521023 0.227352139677 0)
(0.0178469185841 0.227673731016 0)
(0.0178934158408 0.228003442008 0)
(0.017900207179 0.228340222313 0)
(0.0178669948679 0.228683032434 0)
(0.0177938081356 0.229030737482 0)
(0.0176809487884 0.229382221048 0)
(0.0175284520694 0.229736289273 0)
(0.0173364133527 0.230091671437 0)
(0.0171053550147 0.230446930948 0)
(0.0168360298974 0.230800542266 0)
(0.0165293922273 0.231150790543 0)
(0.0161866199235 0.231495829275 0)
(0.0158091041433 0.23183358315 0)
(0.0153984580042 0.232161798687 0)
(0.0149564865042 0.232477956196 0)
(0.0144851698499 0.232779322708 0)
(0.0139865981907 0.233062886489 0)
(0.0134629147834 0.233325431401 0)
(0.0129162030367 0.233563517995 0)
(0.0123483865823 0.233773607197 0)
(0.0117610792657 0.233952115473 0)
(0.011155475333 0.234095609002 0)
(0.0105322205074 0.234200938926 0)
(0.00989137942026 0.234265488074 0)
(0.00923243643026 0.234287338014 0)
(0.00855446218599 0.234265488551 0)
(0.00785635596043 0.234199953406 0)
(0.00713729226155 0.234091842878 0)
(0.00639722727103 0.233943297688 0)
(0.00563757142626 0.233757391037 0)
(0.00486181442304 0.233537929095 0)
(0.00407619978137 0.233289290843 0)
(0.00329019006649 0.233016310189 0)
(0.00251687317204 0.232724365427 0)
(0.00177319874441 0.232419747346 0)
(0.001080726319 0.232110501518 0)
(0.000466594215976 0.231807814002 0)
(-0.00145174809935 0.231524937177 0)
(-0.001543190381 0.231380615389 0)
(-0.00114410524884 0.230356428271 0)
(-0.00124710875775 0.230389903409 0)
(-0.000263044366404 0.230459260509 0)
(-0.000389710272371 0.23055761009 0)
(-0.000543123897358 0.230683472825 0)
(-0.000727310221286 0.230835542468 0)
(-0.000946654083323 0.231012550078 0)
(-0.00120516967865 0.231212913596 0)
(-0.00150596748237 0.23143464719 0)
(-0.00185104189189 0.231675202176 0)
(-0.00224100500763 0.231931667817 0)
(-0.00267518482528 0.232200514546 0)
(-0.00315170653016 0.232477895742 0)
(-0.00366764969349 0.232759358983 0)
(-0.00421915421533 0.23304019183 0)
(-0.00480167858503 0.233315163341 0)
(-0.0054101246144 0.233578905754 0)
(-0.00603911365689 0.23382571826 0)
(-0.00668311901641 0.234049974366 0)
(-0.00733670477591 0.234245991655 0)
(-0.00799463219637 0.234408449752 0)
(-0.00865201856492 0.234532306547 0)
(-0.00930439271665 0.234613203634 0)
(-0.00994775274957 0.234647394173 0)
(-0.0105785632062 0.234632103361 0)
(-0.0111937147543 0.234565423731 0)
(-0.0117904761876 0.234446596108 0)
(-0.0123663843208 0.234275833549 0)
(-0.012919184636 0.234054500472 0)
(-0.0134466987435 0.233784848061 0)
(-0.0139467975795 0.233470098077 0)
(-0.014417293693 0.233114106929 0)
(-0.0148559778415 0.232721391837 0)
(-0.0152605585412 0.232296766463 0)
(-0.0156287615831 0.231845361941 0)
(-0.0159583058176 0.231372280686 0)
(-0.016247037806 0.230882654354 0)
(-0.0164929140653 0.230381343459 0)
(-0.0166941423995 0.229873049163 0)
(-0.0168491549728 0.229362057238 0)
(-0.0169562844439 0.228852497476 0)
(-0.0170137679164 0.228347752515 0)
(-0.0170207734533 0.22785108869 0)
(-0.0169776989352 0.227365687187 0)
(-0.0168851154293 0.226894177533 0)
(-0.0167431977915 0.226438817669 0)
(-0.0165524285214 0.22600171192 0)
(-0.0163134736998 0.225584635056 0)
(-0.0160272457414 0.225189246685 0)
(-0.0156947807817 0.224816913568 0)
(-0.0153173047392 0.224468911797 0)
(-0.0148961084812 0.224146244674 0)
(-0.014432616919 0.223849829417 0)
(-0.013928262563 0.223580311941 0)
(-0.013384558629 0.223338237219 0)
(-0.0128029727914 0.223123863616 0)
(-0.0121850053937 0.222937317387 0)
(-0.0115320662527 0.222778409377 0)
(-0.0108455586824 0.222646775259 0)
(-0.0101267629317 0.222541697394 0)
(-0.00937692620841 0.222462232632 0)
(-0.00859715794499 0.222407040925 0)
(-0.00778852722908 0.222374502715 0)
(-0.00695198057167 0.222362556522 0)
(-0.00608845683802 0.222368811363 0)
(-0.0051988554213 0.222390402234 0)
(-0.00428420657993 0.222424116458 0)
(-0.00334576580786 0.222466298256 0)
(-0.00238535031618 0.222513043228 0)
(-0.00140570692557 0.222560243652 0)
(-0.000411096709178 0.222603998691 0)
(0.000592189948436 0.222640963888 0)
(0.00159627278234 0.222669042894 0)
(0.00258662394984 0.222689086421 0)
(0.00355077146634 0.222704881716 0)
(0.00449220894519 0.222714907835 0)
(0.00541260142573 0.222720165154 0)
(0.00630456784286 0.222726970235 0)
(0.00716449292709 0.222738775181 0)
(0.00799198502823 0.222758691637 0)
(0.00878679065351 0.222789432561 0)
(0.0095488319273 0.222833317887 0)
(0.0102781168968 0.222892326976 0)
(0.0109746579538 0.222968068979 0)
(0.0116384858649 0.223061861642 0)
(0.0122695940254 0.223174687261 0)
(0.0128679650874 0.223307278208 0)
(0.0134335207977 0.223460074187 0)
(0.0139661508708 0.223633308383 0)
(0.0144656708106 0.22382696726 0)
(0.0149318556265 0.22404087572 0)
(0.0153644078645 0.224274658082 0)
(0.0157629955987 0.224527820425 0)
(0.0161272298393 0.224799710988 0)
(0.0164567046522 0.225089597823 0)
(0.0167509817068 0.225396627334 0)
(0.0170096301445 0.225719895751 0)
(0.0172322158613 0.22605840496 0)
(0.0174183392528 0.226411126899 0)
(0.0175676271936 0.226776956506 0)
(0.0176797674578 0.227154768783 0)
(0.0177545018946 0.227543369254 0)
(0.0177916570376 0.22794154411 0)
(0.017791137308 0.228348009294 0)
(0.0177529516417 0.228761455037 0)
(0.0176774315168 0.229180495114 0)
(0.0175651899927 0.229603729061 0)
(0.0174164652224 0.230029709982 0)
(0.017231463772 0.230456877149 0)
(0.0170108238796 0.230883507976 0)
(0.0167553830908 0.231307752183 0)