/*--------------------------------*- C++ -*----------------------------------*\
| =========                 |                                                 |
| \\      /  F ield         | OpenFOAM: The Open Source CFD Toolbox           |
|  \\    /   O peration     | Version:  2212                                  |
|   \\  /    A nd           | Website:  www.openfoam.com                      |
|    \\/     M anipulation  |                                                 |
\*---------------------------------------------------------------------------*/
FoamFile
{
    version     2.0;
    format      ascii;
    arch        "LSB;label=64;scalar=64";
    class       volScalarField::Internal;
    location    "630";
    object      dGco2;
}
// * * * * * * * * * * * * * * * * * * * * * * * * * * * * * * * * * * * * * //

dimensions      [1 -3 -1 0 0 0 0];

value           nonuniform List<scalar> 
1024
(
0.00014624
0.000146335
0.000146563
0.000146965
0.00014757
0.000148376
0.000149349
0.00015042
0.00015151
0.000152542
0.000153445
0.000154161
0.000154634
0.000154826
0.000154711
0.000154252
0.000153431
0.00015235
0.000151155
0.000149899
0.000148613
0.00014731
0.000146
0.000144708
0.000143482
0.000142383
0.000141464
0.000140754
0.000140248
0.000139924
0.000139743
0.000139669
0.000146261
0.000146359
0.000146595
0.000147011
0.000147635
0.000148461
0.000149451
0.000150536
0.000151635
0.000152674
0.00015358
0.000154296
0.000154765
0.000154951
0.000154831
0.00015437
0.000153547
0.000152465
0.000151268
0.000150011
0.000148726
0.000147424
0.000146115
0.000144819
0.000143584
0.00014247
0.000141533
0.000140804
0.000140284
0.000139949
0.000139764
0.000139688
0.000146309
0.000146412
0.000146662
0.000147103
0.00014776
0.000148625
0.000149654
0.000150774
0.000151906
0.000152974
0.000153903
0.000154627
0.00015509
0.000155259
0.000155122
0.000154645
0.000153807
0.000152709
0.000151499
0.000150234
0.000148946
0.000147647
0.000146339
0.00014504
0.00014379
0.000142649
0.000141677
0.000140912
0.000140363
0.000140008
0.000139811
0.000139731
0.000146386
0.000146496
0.000146763
0.000147236
0.000147938
0.000148859
0.00014995
0.000151139
0.000152344
0.000153485
0.000154472
0.000155226
0.000155683
0.000155821
0.000155643
0.000155125
0.000154242
0.000153097
0.000151845
0.000150552
0.000149252
0.000147952
0.000146649
0.000145348
0.000144084
0.000142909
0.000141891
0.000141078
0.000140486
0.000140102
0.000139888
0.000139801
0.000146493
0.000146608
0.000146893
0.000147399
0.000148154
0.000149148
0.000150332
0.000151635
0.000152972
0.000154248
0.000155348
0.000156166
0.000156622
0.000156711
0.000156464
0.000155863
0.000154886
0.000153638
0.000152297
0.000150941
0.000149606
0.000148296
0.000146996
0.0001457
0.000144426
0.000143221
0.000142154
0.000141286
0.000140645
0.000140226
0.000139993
0.000139898
0.000146625
0.000146745
0.000147045
0.000147584
0.000148396
0.00014948
0.000150793
0.000152266
0.000153809
0.000155299
0.00015658
0.000157504
0.000157974
0.000157998
0.000157643
0.000156908
0.000155765
0.000154335
0.000152832
0.000151358
0.000149956
0.000148618
0.000147318
0.000146029
0.000144754
0.00014353
0.000142424
0.000141507
0.000140821
0.000140368
0.000140115
0.000140013
0.000146782
0.000146905
0.000147217
0.000147785
0.000148658
0.000149848
0.000151328
0.000153035
0.000154864
0.000156655
0.000158191
0.000159271
0.000159771
0.000159719
0.000159219
0.000158287
0.00015689
0.000155172
0.000153411
0.00015175
0.000150235
0.000148846
0.000147536
0.000146258
0.000144996
0.000143769
0.000142644
0.000141697
0.00014098
0.000140503
0.000140237
0.000140129
0.000146964
0.000147089
0.000147409
0.000148005
0.000148942
0.000150256
0.000151941
0.000153943
0.000156141
0.000158318
0.000160179
0.000161455
0.000162003
0.000161867
0.00016119
0.000159999
0.000158243
0.000156105
0.000153967
0.000152033
0.000150357
0.000148894
0.000147569
0.000146308
0.000145073
0.000143869
0.000142756
0.000141809
0.000141088
0.000140605
0.000140334
0.000140225
0.000147181
0.000147306
0.000147635
0.000148257
0.000149263
0.000150718
0.000152646
0.000155004
0.000157646
0.000160283
0.000162524
0.000164025
0.000164627
0.000164403
0.000163524
0.000162014
0.00015978
0.000157065
0.000154408
0.000152106
0.000150221
0.000148667
0.000147329
0.0001461
0.000144917
0.00014377
0.000142706
0.0001418
0.000141108
0.000140643
0.00014038
0.000140271
0.000147451
0.000147578
0.000147915
0.000148568
0.000149653
0.00015127
0.00015348
0.000156254
0.000159408
0.000162565
0.000165218
0.000166948
0.000167599
0.000167285
0.000166196
0.000164314
0.000161474
0.000158001
0.000154654
0.000151869
0.000149726
0.000148074
0.000146738
0.000145568
0.000144474
0.000143426
0.00014246
0.000141639
0.00014101
0.000140586
0.000140342
0.000140238
0.000147809
0.000147938
0.000148288
0.000148982
0.000150163
0.000151974
0.000154515
0.000157768
0.000161499
0.000165216
0.000168287
0.00017023
0.000170918
0.000170527
0.000169247
0.000166964
0.000163408
0.000158995
0.00015475
0.000151315
0.000148828
0.00014706
0.000145745
0.000144674
0.000143715
0.000142816
0.000141996
0.000141302
0.000140768
0.000140402
0.000140184
0.000140087
0.000148312
0.000148446
0.000148817
0.000149569
0.000150877
0.00015293
0.000155867
0.000159674
0.00016404
0.000168333
0.000171798
0.000173922
0.000174651
0.000174235
0.000172834
0.000170198
0.000165928
0.00016048
0.000155114
0.000150741
0.000147682
0.000145691
0.000144374
0.000143425
0.000142644
0.000141942
0.000141309
0.000140771
0.00014035
0.00014005
0.000139861
0.000139772
0.000149052
0.000149194
0.000149599
0.000150436
0.000151919
0.000154281
0.000157699
0.000162139
0.000167183
0.000172035
0.000175836
0.000178107
0.000178919
0.000178596
0.000177235
0.000174461
0.00016976
0.000163494
0.000156945
0.00015124
0.000147059
0.000144408
0.000142855
0.000141943
0.000141338
0.000140855
0.000140426
0.000140045
0.000139727
0.000139487
0.000139329
0.000139253
0.000150149
0.000150304
0.00015076
0.00015172
0.000153444
0.000156208
0.000160207
0.000165349
0.000171073
0.00017641
0.000180446
0.000182826
0.000183795
0.000183733
0.000182693
0.00018029
0.000175987
0.000169799
0.000162578
0.000155428
0.000149406
0.000145041
0.000142303
0.000140734
0.000139879
0.000139395
0.000139089
0.000138885
0.000138768
0.000138728
0.000138739
0.00013876
0.000151825
0.000152005
0.000152546
0.000153699
0.000155773
0.000159073
0.000163752
0.000169583
0.000175821
0.000181388
0.000185442
0.000187835
0.000188966
0.000189245
0.00018879
0.000187474
0.000185006
0.000180944
0.000175147
0.000168122
0.000160881
0.000154376
0.000149159
0.000145347
0.000142812
0.000141332
0.000140703
0.000140706
0.000141101
0.000141646
0.000142129
0.000142402
0.000154186
0.000154396
0.000155029
0.00015637
0.000158752
0.000162454
0.000167539
0.000173656
0.00018
0.000185545
0.00018954
0.000191868
0.000192916
0.000193134
0.000192886
0.000192621
0.000192848
0.000193283
0.000192757
0.000190565
0.00018684
0.000182208
0.000177362
0.000172881
0.000169075
0.00016613
0.00016415
0.000163098
0.000162792
0.000162948
0.000163258
0.00016348
0.000156645
0.000156867
0.000157524
0.000158902
0.000161314
0.000164998
0.000169958
0.000175828
0.000181859
0.000187111
0.000190828
0.00019274
0.000193035
0.000192089
0.000190398
0.000188841
0.000188971
0.000191741
0.000196166
0.000200736
0.000204366
0.000206594
0.000207426
0.000207104
0.000205968
0.000204344
0.000202536
0.000200814
0.000199408
0.000198451
0.000197936
0.000197753
0.000158515
0.000158732
0.000159358
0.000160646
0.000162882
0.000166276
0.000170829
0.000176219
0.000181793
0.0001867
0.000190168
0.000191766
0.000191455
0.000189436
0.000186083
0.000182157
0.000179462
0.000179916
0.000183574
0.000189432
0.000196231
0.000202865
0.000208596
0.000213046
0.000216109
0.000217858
0.000218493
0.000218322
0.000217716
0.00021703
0.000216514
0.000216266
0.000159697
0.000159905
0.000160476
0.000161627
0.000163603
0.000166604
0.000170656
0.000175506
0.000180608
0.000185214
0.000188588
0.000190213
0.000189895
0.000187703
0.00018391
0.000179109
0.000174923
0.000173455
0.000175298
0.000180049
0.000186861
0.000194652
0.000202367
0.000209194
0.000214662
0.000218616
0.000221138
0.000222477
0.000222966
0.000222967
0.000222798
0.000222669
0.00016031
0.000160508
0.000161025
0.000162031
0.000163731
0.000166305
0.00016981
0.000174076
0.000178671
0.000182962
0.00018628
0.000188087
0.000188096
0.000186273
0.000182803
0.000178164
0.000173742
0.000171474
0.000172112
0.000175624
0.000181615
0.000189356
0.00019787
0.000206123
0.000213279
0.000218847
0.000222708
0.000225038
0.000226186
0.000226567
0.00022657
0.00022649
0.000160453
0.000160645
0.000161119
0.000162
0.000163446
0.00016561
0.000168565
0.000172209
0.000176224
0.000180103
0.000183268
0.000185214
0.000185621
0.000184387
0.000181629
0.000177753
0.00017395
0.000171852
0.000172132
0.000174886
0.000179981
0.000187027
0.000195333
0.000203985
0.000212045
0.000218763
0.000223753
0.000227004
0.000228791
0.000229535
0.000229693
0.00022965
0.000160229
0.000160414
0.000160851
0.000161631
0.000162866
0.000164673
0.000167117
0.000170142
0.000173523
0.000176872
0.000179732
0.000181682
0.000182432
0.000181867
0.000180074
0.000177407
0.000174827
0.000173563
0.000174119
0.000176621
0.000181071
0.000187311
0.000194936
0.000203285
0.000211528
0.000218833
0.0002246
0.000228603
0.000230972
0.00023208
0.000232405
0.000232402
0.00015986
0.000160016
0.000160388
0.000161056
0.000162101
0.000163602
0.0001656
0.000168055
0.000170805
0.000173577
0.000176048
0.000177926
0.000179008
0.000179212
0.000178612
0.000177487
0.0001765
0.000176418
0.000177578
0.000180123
0.00018414
0.000189621
0.000196382
0.000204009
0.000211879
0.000219243
0.000225411
0.000229956
0.000232821
0.000234274
0.000234772
0.000234816
0.000159827
0.000159899
0.000160114
0.000160571
0.000161362
0.00016255
0.000164146
0.000166103
0.000168308
0.000170591
0.000172773
0.0001747
0.000176264
0.000177414
0.000178189
0.000178757
0.000179438
0.000180573
0.000182384
0.000185051
0.000188719
0.000193482
0.000199315
0.000206012
0.000213152
0.000220144
0.000226332
0.000231171
0.000234415
0.000236178
0.000236849
0.000236945
0.000160861
0.000160772
0.000160683
0.000160745
0.000161116
0.000161891
0.000163081
0.000164639
0.000166492
0.00016856
0.000170773
0.000173068
0.000175375
0.00017763
0.000179804
0.000181938
0.000184052
0.000186172
0.000188472
0.000191184
0.000194493
0.000198552
0.000203436
0.000209092
0.000215292
0.000221606
0.000227479
0.000232346
0.000235818
0.000237835
0.000238674
0.000238825
0.000163734
0.000163416
0.000162898
0.000162402
0.000162189
0.00016245
0.000163255
0.000164582
0.000166391
0.00016864
0.000171285
0.000174259
0.000177461
0.00018077
0.000184094
0.000187381
0.000190451
0.000193157
0.000195676
0.000198279
0.000201176
0.000204539
0.000208493
0.000213079
0.000218218
0.000223646
0.00022894
0.000233575
0.000237094
0.000239284
0.000240273
0.000240486
0.000168989
0.000168428
0.000167499
0.000166493
0.000165754
0.000165591
0.00016617
0.000167512
0.000169574
0.000172284
0.000175542
0.000179212
0.00018313
0.000187134
0.0001911
0.000194939
0.000198389
0.000201246
0.000203699
0.000206035
0.000208463
0.00021115
0.000214231
0.000217792
0.000221842
0.000226262
0.000230775
0.000234947
0.000238317
0.000240565
0.000241671
0.000241947
0.000176843
0.000176113
0.000175034
0.000173916
0.000173065
0.000172831
0.000173453
0.000174978
0.000177349
0.000180435
0.00018407
0.000188052
0.000192187
0.000196307
0.000200296
0.000204071
0.000207372
0.000210009
0.000212168
0.000214116
0.000216043
0.000218095
0.00022039
0.000223022
0.000226041
0.000229423
0.000233024
0.000236542
0.000239566
0.00024173
0.00024289
0.000243224
0.000187301
0.000186601
0.000185871
0.000185266
0.000184871
0.000184953
0.000185768
0.000187397
0.000189795
0.00019282
0.000196283
0.000199978
0.000203719
0.000207366
0.000210831
0.000214053
0.000216821
0.000218981
0.000220699
0.000222196
0.000223624
0.000225099
0.000226713
0.000228543
0.000230648
0.000233047
0.000235695
0.000238419
0.000240915
0.000242835
0.000243958
0.000244328
0.000200428
0.000200082
0.000200202
0.000200488
0.000200786
0.00020126
0.000202149
0.000203587
0.000205575
0.000208014
0.000210752
0.000213622
0.000216483
0.000219233
0.000221813
0.000224185
0.0002262
0.00022775
0.000228961
0.000229992
0.000230953
0.000231921
0.000232961
0.000234127
0.000235464
0.000237002
0.000238742
0.000240612
0.000242434
0.000243945
0.000244912
0.000245274
0.000216597
0.000216913
0.000217791
0.000218584
0.000219199
0.000219758
0.000220445
0.000221394
0.000222646
0.000224156
0.000225837
0.000227586
0.000229317
0.000230968
0.000232506
0.000233912
0.000235098
0.000236005
0.000236705
0.000237293
0.000237832
0.000238367
0.000238934
0.000239562
0.000240279
0.000241104
0.00024205
0.000243097
0.000244168
0.000245124
0.000245795
0.000246081
0.000236405
0.000236696
0.00023721
0.000237626
0.000237931
0.000238177
0.000238433
0.000238756
0.000239172
0.00023967
0.000240224
0.000240799
0.000241367
0.000241906
0.000242408
0.000242864
0.000243249
0.000243541
0.000243767
0.000243954
0.000244125
0.000244293
0.00024447
0.000244665
0.000244885
0.000245139
0.000245429
0.000245755
0.000246096
0.000246415
0.000246658
0.000246776
)
;


// ************************************************************************* //
