/*--------------------------------*- C++ -*----------------------------------*\
| =========                 |                                                 |
| \\      /  F ield         | OpenFOAM: The Open Source CFD Toolbox           |
|  \\    /   O peration     | Version:  2212                                  |
|   \\  /    A nd           | Website:  www.openfoam.com                      |
|    \\/     M anipulation  |                                                 |
\*---------------------------------------------------------------------------*/
FoamFile
{
    version     2.0;
    format      ascii;
    arch        "LSB;label=64;scalar=64";
    class       volScalarField;
    location    "630";
    object      Gco2;
}
// * * * * * * * * * * * * * * * * * * * * * * * * * * * * * * * * * * * * * //

dimensions      [1 -3 0 0 0 0 0];

internalField   nonuniform List<scalar> 
1024
(
0.0581027
0.058061
0.0579597
0.057781
0.0575127
0.0571549
0.0567236
0.0562486
0.0557656
0.0553085
0.0549085
0.054592
0.054383
0.0542986
0.0543498
0.0545525
0.0549157
0.0553937
0.0559229
0.0564796
0.0570498
0.0576277
0.0582093
0.0587839
0.0593292
0.0598183
0.0602273
0.0605439
0.060769
0.0609136
0.0609941
0.0610271
0.0580936
0.0580504
0.0579454
0.0577606
0.057484
0.0571173
0.0566781
0.0561971
0.0557099
0.0552499
0.0548484
0.0545319
0.0543247
0.0542429
0.0542963
0.0545002
0.0548641
0.0553428
0.0558728
0.0564297
0.0569996
0.057577
0.0581583
0.0587345
0.0592839
0.0597796
0.0601967
0.0605214
0.060753
0.0609021
0.060985
0.0610188
0.0580725
0.0580267
0.0579156
0.0577198
0.0574283
0.0570444
0.0565883
0.0560915
0.0555897
0.0551165
0.0547052
0.0543848
0.0541806
0.0541062
0.0541673
0.0543782
0.0547486
0.0552344
0.0557703
0.0563308
0.0569018
0.0574782
0.0580585
0.0586361
0.0591921
0.0596999
0.0601326
0.0604731
0.0607179
0.060876
0.0609638
0.0609996
0.0580382
0.0579896
0.0578707
0.0576612
0.0573496
0.0569409
0.0564568
0.0559296
0.0553951
0.0548897
0.0544524
0.0541188
0.0539176
0.0538572
0.0539359
0.0541652
0.0545555
0.0550623
0.0556166
0.0561894
0.0567659
0.0573425
0.0579209
0.0584987
0.0590611
0.0595836
0.0600369
0.0603993
0.0606629
0.0608341
0.0609293
0.060968
0.0579911
0.0579398
0.0578133
0.0575888
0.0572538
0.0568128
0.0562873
0.0557093
0.0551162
0.0545505
0.0540631
0.0537016
0.0535006
0.0534619
0.0535721
0.0538377
0.0542699
0.0548222
0.0554162
0.0560171
0.0566086
0.0571896
0.0577662
0.0583422
0.0589087
0.0594448
0.0599196
0.0603064
0.0605917
0.0607785
0.0608825
0.0609246
0.0579323
0.0578791
0.0577459
0.0575069
0.0571464
0.0566655
0.0560828
0.0554289
0.0547445
0.0540836
0.0535159
0.0531071
0.0529006
0.0528909
0.0530487
0.0533743
0.0538798
0.054513
0.0551788
0.0558316
0.0564531
0.0570462
0.0576232
0.0581956
0.0587621
0.0593069
0.0597992
0.0602077
0.0605134
0.0607153
0.0608279
0.0608733
0.0578629
0.0578083
0.0576699
0.0574177
0.0570303
0.0565019
0.0558451
0.0550876
0.0542757
0.053481
0.0528001
0.0523229
0.0521031
0.0521274
0.0523497
0.0527622
0.0533808
0.054142
0.0549221
0.0556583
0.0563294
0.0569449
0.057526
0.0580933
0.0586544
0.0591999
0.0597006
0.0601226
0.060442
0.0606545
0.0607734
0.0608212
0.0577818
0.0577266
0.0575843
0.05732
0.0569042
0.0563211
0.055573
0.054684
0.0537085
0.0527425
0.0519177
0.0513532
0.0511127
0.0511744
0.0514755
0.0520033
0.0527816
0.0537292
0.0546763
0.0555332
0.0562756
0.0569239
0.0575116
0.0580712
0.0586197
0.0591549
0.0596506
0.0600722
0.0603938
0.0606088
0.0607296
0.0607784
0.0576855
0.0576299
0.0574842
0.057208
0.0567616
0.0561159
0.05526
0.0542129
0.0530403
0.0518702
0.0508773
0.0502136
0.049949
0.0500502
0.0504408
0.051111
0.0521022
0.053306
0.0544832
0.0555029
0.0563376
0.0570255
0.0576185
0.0581637
0.0586889
0.059199
0.0596721
0.0600758
0.0603845
0.0605918
0.0607091
0.0607573
0.0575656
0.0575095
0.0573598
0.0570699
0.0565886
0.0558707
0.0548896
0.0536582
0.0522583
0.0508582
0.0496829
0.0489178
0.0486319
0.0487736
0.0492581
0.0500948
0.0513559
0.0528965
0.0543793
0.0556119
0.0565601
0.0572907
0.057882
0.0584001
0.0588858
0.0593517
0.0597817
0.0601476
0.0604276
0.0606168
0.0607258
0.0607719
0.0574065
0.0573493
0.0571939
0.056886
0.0563619
0.055558
0.05443
0.0529862
0.0513308
0.0496829
0.0483228
0.0474642
0.0471627
0.0473396
0.0479111
0.0489276
0.0505079
0.0524659
0.0543458
0.055865
0.0569633
0.057744
0.0583247
0.0587986
0.0592237
0.059623
0.0599879
0.0602974
0.0605352
0.0606985
0.0607958
0.060839
0.0571824
0.0571232
0.0569584
0.0566249
0.0560443
0.0551333
0.0538296
0.0521407
0.0502044
0.0483017
0.0467682
0.0458307
0.0455127
0.0457028
0.0463309
0.0475072
0.0494066
0.0518238
0.054199
0.0561313
0.0574803
0.058357
0.0589367
0.0593552
0.0597005
0.0600125
0.0602942
0.0605338
0.0607214
0.0608554
0.0609397
0.0609795
0.056853
0.0567899
0.0566101
0.0562388
0.0555808
0.0545327
0.0530164
0.0510473
0.0488116
0.046663
0.0449825
0.0439822
0.0436302
0.0437829
0.0443969
0.0456379
0.0477299
0.05051
0.0534093
0.0559301
0.0577721
0.0589366
0.0596171
0.060017
0.060283
0.0604965
0.0606872
0.0608569
0.0609987
0.0611063
0.0611769
0.0612108
0.0563643
0.0562954
0.0560932
0.0556673
0.0549028
0.0536765
0.0519034
0.0496239
0.047089
0.0447286
0.0429476
0.0419026
0.0414849
0.0415261
0.0420015
0.0430799
0.0449958
0.0477429
0.0509434
0.054106
0.0567625
0.0586819
0.0598805
0.0605648
0.0609374
0.0611487
0.0612838
0.0613749
0.0614283
0.0614474
0.0614439
0.0614352
0.0556178
0.0555381
0.0552983
0.054787
0.0538674
0.0524048
0.050332
0.04775
0.044991
0.0425324
0.0407476
0.0397011
0.0392158
0.0391093
0.0393265
0.0399217
0.0410225
0.04283
0.0454073
0.0485268
0.0517341
0.0546078
0.0569053
0.058579
0.0596896
0.060335
0.0606064
0.0606009
0.0604246
0.060183
0.0599693
0.0598487
0.0545674
0.0544744
0.0541942
0.0535999
0.0525451
0.0509058
0.0486554
0.0459499
0.0431476
0.0407026
0.0389483
0.0379345
0.0374891
0.0374097
0.0375321
0.0376545
0.0375512
0.0373588
0.0376027
0.038593
0.040262
0.0423278
0.0444798
0.0464631
0.0481428
0.0494375
0.0503028
0.0507574
0.050883
0.0508068
0.0506652
0.0505651
0.0534752
0.0533769
0.0530859
0.0524761
0.051409
0.0497795
0.0475863
0.0449933
0.042332
0.0400188
0.0383885
0.0375591
0.037446
0.0378795
0.0386357
0.0393194
0.039242
0.0379912
0.0360177
0.0339967
0.0324052
0.0314406
0.0310934
0.0312531
0.0317674
0.0324923
0.0332944
0.0340551
0.0346734
0.035093
0.0353173
0.0353965
0.052645
0.0525489
0.0522724
0.0517024
0.0507139
0.0492136
0.0472017
0.0448218
0.0423631
0.0402027
0.0386809
0.0379882
0.0381403
0.0390446
0.0405331
0.0422628
0.0434325
0.0431981
0.0415469
0.0389323
0.0359163
0.032987
0.0304657
0.0285142
0.0271763
0.0264185
0.0261502
0.0262355
0.0265098
0.0268166
0.0270466
0.0271566
0.0521201
0.0520286
0.0517761
0.0512673
0.0503934
0.0490672
0.0472775
0.0451362
0.042886
0.0408573
0.0393752
0.0386674
0.0388187
0.039796
0.0414765
0.043594
0.0454278
0.0460498
0.0452046
0.0430762
0.0400464
0.0365971
0.0331923
0.0301873
0.0277852
0.0260515
0.0249481
0.0243655
0.0241555
0.0241588
0.0242357
0.0242936
0.0518476
0.0517603
0.0515318
0.051087
0.0503356
0.049198
0.0476496
0.045766
0.043739
0.0418478
0.0403886
0.0395977
0.0396007
0.040412
0.0419473
0.0439932
0.0459352
0.0469186
0.0466134
0.0450374
0.0423703
0.0389386
0.0351761
0.0315383
0.02839
0.0259438
0.0242496
0.0232286
0.0227268
0.0225619
0.0225621
0.0225978
0.0517827
0.0516979
0.0514887
0.0510993
0.0504601
0.0495034
0.048198
0.0465886
0.0448164
0.0431058
0.0417121
0.0408572
0.0406819
0.0412301
0.0424482
0.0441557
0.0458262
0.0467401
0.0466007
0.0453674
0.0431003
0.0399766
0.0363034
0.0324855
0.0289352
0.0259795
0.0237871
0.0223596
0.0215762
0.0212504
0.0211819
0.0212014
0.0518794
0.051798
0.0516049
0.0512604
0.0507146
0.0499161
0.0488359
0.0474994
0.0460068
0.0445288
0.0432677
0.0424087
0.0420794
0.0423293
0.0431185
0.0442909
0.0454221
0.0459716
0.0457163
0.0446015
0.0426254
0.0398611
0.0364891
0.0328031
0.0291688
0.0259524
0.0234154
0.0216556
0.0206146
0.0201283
0.0199863
0.0199876
0.0520402
0.0519717
0.0518072
0.0515127
0.051051
0.0503878
0.0495044
0.0484198
0.0472046
0.0459807
0.0448897
0.04406
0.0435813
0.0434886
0.043749
0.0442393
0.0446681
0.0446988
0.0441819
0.0430535
0.0412745
0.0388489
0.0358604
0.0324927
0.0290216
0.0257765
0.0230607
0.0210611
0.0198007
0.0191618
0.0189432
0.0189239
0.0520536
0.052022
0.0519269
0.0517252
0.0513755
0.0508508
0.0501453
0.0492802
0.0483051
0.0472958
0.0463308
0.0454774
0.0447832
0.0442705
0.0439223
0.0436654
0.0433592
0.0428554
0.0420547
0.0408766
0.0392557
0.0371508
0.0345734
0.031617
0.0284669
0.0253849
0.0226585
0.0205274
0.0190996
0.0183237
0.0180284
0.0179864
0.0515967
0.051636
0.0516751
0.0516472
0.0514829
0.0511401
0.0506137
0.0499246
0.0491042
0.0481885
0.0472079
0.0461903
0.045166
0.0441646
0.043199
0.0422515
0.0413151
0.0403791
0.0393647
0.0381693
0.0367091
0.0349174
0.0327607
0.0302639
0.0275287
0.0247446
0.0221561
0.0200118
0.0184826
0.0175943
0.0172249
0.017158
0.0503291
0.0504693
0.0506975
0.0509156
0.0510087
0.0508918
0.0505348
0.0499465
0.0491445
0.048148
0.0469753
0.0456568
0.0442378
0.042771
0.0412988
0.0398443
0.038488
0.0372946
0.0361849
0.0350387
0.0337621
0.0322787
0.0305338
0.0285094
0.0262424
0.0238482
0.0215147
0.0194718
0.017921
0.0169564
0.0165204
0.0164264
0.0480096
0.0482575
0.0486673
0.0491103
0.0494347
0.0495039
0.0492452
0.0486495
0.0477348
0.046534
0.0450904
0.0434652
0.0417307
0.0399585
0.0382044
0.0365078
0.0349852
0.0337259
0.0326455
0.0316175
0.0305485
0.0293639
0.0280049
0.0264339
0.0246468
0.0226972
0.0207076
0.0188681
0.0173831
0.0163924
0.0159049
0.0157829
0.0445427
0.044865
0.0453411
0.045833
0.0462066
0.0463067
0.0460282
0.0453505
0.0442994
0.042932
0.0413232
0.0395609
0.037732
0.0359102
0.0341475
0.0324803
0.0310236
0.0298617
0.0289113
0.0280538
0.0272055
0.0263017
0.0252896
0.0241289
0.0227968
0.0213052
0.0197171
0.0181661
0.0168331
0.0158792
0.0153679
0.0152208
0.0399245
0.0402338
0.0405559
0.0408221
0.0409942
0.0409543
0.0405906
0.0398671
0.0388042
0.0374647
0.0359322
0.0342984
0.0326445
0.0310326
0.0295021
0.0280794
0.0268585
0.0259064
0.0251503
0.0244916
0.0238629
0.0232134
0.0225022
0.021695
0.0207663
0.0197079
0.0185402
0.0173393
0.016239
0.0153924
0.0148973
0.0147344
0.0341271
0.0342798
0.0342269
0.0340999
0.0339667
0.0337548
0.0333585
0.0327204
0.0318392
0.0307596
0.0295485
0.0282794
0.0270149
0.0257998
0.0246605
0.0236132
0.0227247
0.0220412
0.0215082
0.0210543
0.0206318
0.0202054
0.0197471
0.0192329
0.0186431
0.0179647
0.0171973
0.0163729
0.0155697
0.0149033
0.0144771
0.0143175
0.0269856
0.0268462
0.0264586
0.0261078
0.0258357
0.025587
0.0252815
0.0248603
0.0243056
0.0236371
0.0228936
0.0221203
0.0213556
0.0206261
0.0199466
0.019326
0.0188026
0.0184032
0.0180949
0.017836
0.0175988
0.0173632
0.0171137
0.0168365
0.0165204
0.0161564
0.0157392
0.0152777
0.0148053
0.0143842
0.0140882
0.013962
0.0182372
0.0181087
0.0178815
0.0176979
0.0175628
0.0174536
0.0173401
0.0171966
0.0170124
0.0167917
0.0165466
0.0162924
0.0160417
0.0158032
0.0155819
0.0153802
0.0152106
0.0150816
0.0149826
0.0148999
0.0148247
0.0147506
0.0146729
0.0145871
0.0144897
0.014378
0.0142497
0.0141062
0.0139556
0.013815
0.0137079
0.0136562
)
;

boundaryField
{
    movingWall
    {
        type            fixedValue;
        value           uniform 0.0135;
    }
    fixedWalls
    {
        type            zeroGradient;
    }
    floor
    {
        type            zeroGradient;
    }
    frontAndBack
    {
        type            empty;
    }
}


// ************************************************************************* //
