/*--------------------------------*- C++ -*----------------------------------*\
| =========                 |                                                 |
| \\      /  F ield         | OpenFOAM: The Open Source CFD Toolbox           |
|  \\    /   O peration     | Version:  2212                                  |
|   \\  /    A nd           | Website:  www.openfoam.com                      |
|    \\/     M anipulation  |                                                 |
\*---------------------------------------------------------------------------*/
FoamFile
{
    version     2.0;
    format      ascii;
    arch        "LSB;label=64;scalar=64";
    class       volScalarField;
    location    "630";
    object      T;
}
// * * * * * * * * * * * * * * * * * * * * * * * * * * * * * * * * * * * * * //

dimensions      [0 0 0 1 0 0 0];

internalField   nonuniform List<scalar> 
1024
(
309.987
309.987
309.985
309.983
309.98
309.976
309.972
309.969
309.964
309.961
309.959
309.959
309.96
309.962
309.963
309.964
309.966
309.968
309.97
309.972
309.974
309.976
309.978
309.98
309.982
309.984
309.986
309.987
309.988
309.989
309.99
309.99
309.961
309.959
309.954
309.947
309.937
309.925
309.913
309.901
309.888
309.878
309.873
309.872
309.875
309.88
309.884
309.888
309.893
309.899
309.906
309.913
309.919
309.926
309.932
309.938
309.943
309.949
309.954
309.96
309.964
309.967
309.969
309.969
309.932
309.929
309.921
309.907
309.889
309.868
309.847
309.826
309.805
309.789
309.78
309.778
309.784
309.791
309.798
309.805
309.812
309.821
309.834
309.846
309.857
309.869
309.879
309.89
309.9
309.91
309.919
309.929
309.936
309.942
309.945
309.946
309.902
309.897
309.885
309.865
309.838
309.808
309.777
309.747
309.72
309.701
309.689
309.687
309.693
309.702
309.711
309.719
309.728
309.74
309.756
309.773
309.789
309.806
309.821
309.837
309.851
309.866
309.88
309.894
309.906
309.915
309.92
309.922
309.872
309.866
309.85
309.823
309.787
309.748
309.71
309.674
309.645
309.624
309.612
309.609
309.614
309.623
309.631
309.64
309.649
309.662
309.679
309.699
309.719
309.74
309.76
309.78
309.799
309.819
309.838
309.857
309.874
309.887
309.894
309.896
309.843
309.837
309.818
309.785
309.743
309.697
309.653
309.614
309.586
309.566
309.555
309.552
309.555
309.562
309.569
309.576
309.585
309.596
309.611
309.631
309.653
309.677
309.7
309.724
309.747
309.771
309.795
309.82
309.842
309.859
309.868
309.871
309.816
309.81
309.789
309.753
309.706
309.656
309.61
309.573
309.546
309.529
309.52
309.517
309.518
309.523
309.528
309.534
309.541
309.55
309.561
309.578
309.598
309.621
309.646
309.671
309.698
309.726
309.755
309.784
309.811
309.832
309.843
309.847
309.791
309.785
309.765
309.729
309.68
309.629
309.583
309.547
309.523
309.508
309.5
309.498
309.499
309.502
309.506
309.511
309.518
309.524
309.532
309.543
309.559
309.579
309.602
309.628
309.656
309.686
309.719
309.752
309.784
309.807
309.82
309.824
309.769
309.764
309.745
309.71
309.662
309.612
309.567
309.534
309.511
309.498
309.491
309.489
309.49
309.493
309.497
309.503
309.509
309.516
309.521
309.526
309.536
309.551
309.571
309.595
309.623
309.655
309.69
309.727
309.761
309.786
309.8
309.804
309.748
309.744
309.728
309.696
309.651
309.603
309.56
309.527
309.505
309.492
309.486
309.485
309.487
309.491
309.496
309.502
309.51
309.518
309.522
309.524
309.528
309.538
309.553
309.575
309.602
309.634
309.671
309.709
309.744
309.769
309.782
309.785
309.729
309.726
309.712
309.684
309.643
309.598
309.556
309.523
309.5
309.488
309.483
309.484
309.487
309.492
309.498
309.506
309.516
309.526
309.531
309.531
309.53
309.534
309.546
309.565
309.591
309.623
309.661
309.7
309.734
309.756
309.766
309.769
309.712
309.709
309.697
309.673
309.637
309.593
309.552
309.519
309.496
309.485
309.482
309.484
309.488
309.494
309.502
309.513
309.525
309.536
309.544
309.544
309.538
309.539
309.549
309.566
309.592
309.625
309.663
309.699
309.728
309.745
309.752
309.753
309.694
309.692
309.682
309.661
309.628
309.587
309.547
309.513
309.491
309.482
309.481
309.484
309.489
309.497
309.507
309.519
309.533
309.547
309.557
309.562
309.56
309.558
309.567
309.584
309.609
309.64
309.672
309.701
309.722
309.733
309.738
309.738
309.677
309.675
309.666
309.647
309.617
309.577
309.537
309.504
309.485
309.478
309.479
309.483
309.49
309.499
309.509
309.523
309.538
309.555
309.569
309.581
309.588
309.593
309.601
309.615
309.635
309.658
309.681
309.7
309.713
309.72
309.721
309.721
309.658
309.656
309.648
309.63
309.599
309.56
309.521
309.491
309.476
309.473
309.475
309.48
309.488
309.496
309.507
309.52
309.536
309.553
309.569
309.584
309.6
309.614
309.627
309.64
309.653
309.668
309.681
309.691
309.697
309.698
309.697
309.696
309.639
309.637
309.629
309.61
309.581
309.543
309.506
309.479
309.466
309.463
309.465
309.47
309.478
309.487
309.498
309.511
309.526
309.54
309.552
309.563
309.573
309.583
309.594
309.608
309.622
309.635
309.646
309.652
309.653
309.65
309.647
309.644
309.624
309.622
309.614
309.596
309.568
309.533
309.498
309.473
309.46
309.455
309.455
309.458
309.465
309.473
309.485
309.499
309.515
309.53
309.542
309.551
309.557
309.562
309.564
309.566
309.566
309.566
309.566
309.566
309.566
309.565
309.563
309.561
309.614
309.612
309.605
309.589
309.563
309.53
309.497
309.471
309.456
309.449
309.447
309.448
309.452
309.459
309.469
309.484
309.501
309.52
309.535
309.547
309.557
309.563
309.568
309.571
309.573
309.573
309.572
309.57
309.567
309.564
309.56
309.559
309.607
309.605
309.599
309.585
309.563
309.532
309.499
309.473
309.456
309.446
309.442
309.441
309.442
309.446
309.453
309.466
309.485
309.506
309.524
309.539
309.551
309.561
309.567
309.572
309.576
309.578
309.579
309.579
309.578
309.576
309.574
309.573
309.603
309.601
309.596
309.584
309.564
309.537
309.507
309.48
309.459
309.447
309.44
309.437
309.436
309.437
309.442
309.452
309.47
309.492
309.512
309.528
309.543
309.555
309.564
309.57
309.575
309.578
309.58
309.581
309.581
309.581
309.581
309.58
309.6
309.598
309.594
309.584
309.567
309.543
309.516
309.489
309.468
309.453
309.443
309.438
309.435
309.435
309.439
309.448
309.464
309.483
309.502
309.519
309.535
309.548
309.558
309.567
309.573
309.577
309.579
309.581
309.582
309.582
309.583
309.583
309.599
309.597
309.593
309.584
309.57
309.55
309.525
309.501
309.479
309.462
309.451
309.444
309.44
309.439
309.443
309.451
309.466
309.482
309.499
309.515
309.53
309.543
309.554
309.563
309.57
309.575
309.578
309.58
309.581
309.582
309.583
309.583
309.599
309.597
309.593
309.585
309.573
309.556
309.534
309.512
309.491
309.475
309.463
309.455
309.45
309.449
309.452
309.46
309.473
309.487
309.502
309.516
309.529
309.541
309.551
309.56
309.567
309.573
309.576
309.579
309.58
309.581
309.582
309.583
309.599
309.598
309.594
309.587
309.576
309.561
309.543
309.523
309.504
309.489
309.477
309.469
309.464
309.463
309.465
309.473
309.484
309.496
309.508
309.52
309.531
309.541
309.551
309.559
309.565
309.571
309.575
309.578
309.579
309.58
309.581
309.582
309.6
309.599
309.595
309.589
309.579
309.566
309.55
309.533
309.517
309.503
309.492
309.485
309.48
309.479
309.482
309.488
309.497
309.507
309.517
309.527
309.536
309.544
309.552
309.559
309.565
309.57
309.573
309.576
309.578
309.579
309.58
309.581
309.601
309.6
309.596
309.59
309.582
309.57
309.557
309.542
309.528
309.517
309.508
309.501
309.498
309.497
309.499
309.505
309.512
309.52
309.528
309.535
309.542
309.548
309.554
309.56
309.565
309.569
309.573
309.575
309.577
309.578
309.579
309.58
309.602
309.6
309.597
309.592
309.584
309.574
309.562
309.55
309.539
309.53
309.523
309.518
309.516
309.515
309.517
309.521
309.527
309.533
309.538
309.544
309.549
309.554
309.558
309.562
309.566
309.569
309.572
309.575
309.576
309.578
309.578
309.579
309.602
309.601
309.598
309.593
309.586
309.577
309.568
309.559
309.55
309.543
309.538
309.534
309.533
309.532
309.534
309.537
309.541
309.545
309.549
309.552
309.555
309.559
309.562
309.565
309.567
309.57
309.572
309.574
309.576
309.577
309.578
309.578
309.602
309.601
309.598
309.594
309.588
309.581
309.574
309.567
309.561
309.556
309.552
309.55
309.549
309.548
309.549
309.55
309.552
309.555
309.557
309.559
309.561
309.563
309.565
309.567
309.569
309.571
309.572
309.574
309.575
309.576
309.577
309.577
309.602
309.601
309.599
309.596
309.592
309.587
309.582
309.577
309.572
309.569
309.566
309.564
309.562
309.561
309.56
309.56
309.561
309.562
309.563
309.564
309.566
309.567
309.568
309.569
309.57
309.571
309.573
309.574
309.575
309.576
309.576
309.577
309.603
309.602
309.601
309.599
309.596
309.593
309.59
309.586
309.583
309.58
309.577
309.574
309.572
309.57
309.568
309.567
309.567
309.567
309.567
309.568
309.568
309.569
309.57
309.57
309.571
309.572
309.573
309.574
309.574
309.575
309.576
309.576
309.603
309.603
309.602
309.601
309.6
309.598
309.595
309.592
309.589
309.586
309.583
309.58
309.577
309.574
309.572
309.57
309.569
309.569
309.569
309.569
309.569
309.57
309.57
309.571
309.572
309.572
309.573
309.573
309.574
309.575
309.575
309.576
)
;

boundaryField
{
    movingWall
    {
        type            zeroGradient;
    }
    fixedWalls
    {
        type            zeroGradient;
    }
    floor
    {
        type            fixedValue;
        value           uniform 310;
    }
    frontAndBack
    {
        type            empty;
    }
}


// ************************************************************************* //
