/*--------------------------------*- C++ -*----------------------------------*\
| =========                 |                                                 |
| \\      /  F ield         | OpenFOAM: The Open Source CFD Toolbox           |
|  \\    /   O peration     | Version:  2206                                  |
|   \\  /    A nd           | Website:  www.openfoam.com                      |
|    \\/     M anipulation  |                                                 |
\*---------------------------------------------------------------------------*/
FoamFile
{
    version     2.0;
    format      ascii;
    arch        "LSB;label=64;scalar=64";
    class       volScalarField;
    location    "4.6/water";
    object      alpha.gas_0;
}
// * * * * * * * * * * * * * * * * * * * * * * * * * * * * * * * * * * * * * //

dimensions      [0 0 0 0 0 0 0];

internalField   nonuniform List<scalar> 
23300
(
1e-15
1e-15
1e-15
1e-15
1e-15
1e-15
1e-15
1e-15
1e-15
1e-15
1e-15
1e-15
1e-15
1e-15
1e-15
1e-15
1e-15
1e-15
1e-15
1e-15
1e-15
1e-15
1e-15
1e-15
1e-15
1e-15
1e-15
1e-15
1e-15
1e-15
1e-15
1e-15
1e-15
1e-15
1e-15
1e-15
1e-15
1e-15
1e-15
1e-15
1e-15
1e-15
1e-15
1e-15
1e-15
1e-15
1e-15
1e-15
1e-15
1e-15
1e-15
1e-15
1e-15
1e-15
1e-15
1e-15
1e-15
1e-15
1e-15
1e-15
1e-15
1e-15
1e-15
1e-15
1e-15
1e-15
1e-15
1e-15
1e-15
1e-15
1e-15
1e-15
1e-15
1e-15
1e-15
1e-15
1e-15
1e-15
1e-15
1e-15
1e-15
1e-15
1e-15
1e-15
1e-15
1e-15
1e-15
1e-15
1e-15
1e-15
1e-15
1e-15
1e-15
1e-15
1e-15
1e-15
1e-15
1e-15
1e-15
1e-15
1e-15
1e-15
1e-15
1e-15
1e-15
1e-15
1e-15
1e-15
1e-15
1e-15
1e-15
1e-15
1e-15
1e-15
1e-15
1e-15
1e-15
1e-15
1e-15
1e-15
1e-15
1e-15
1e-15
1e-15
1e-15
1e-15
1e-15
1e-15
1e-15
1e-15
1e-15
1e-15
1e-15
1e-15
1e-15
1e-15
1e-15
1e-15
1e-15
1e-15
1e-15
1e-15
1e-15
1e-15
1e-15
1e-15
1e-15
1e-15
1e-15
1e-15
1e-15
1e-15
1e-15
1e-15
1e-15
1e-15
1e-15
1e-15
1e-15
1e-15
1e-15
1e-15
1e-15
1e-15
1e-15
1e-15
1e-15
1e-15
1e-15
1e-15
1e-15
1e-15
1e-15
1e-15
1e-15
1e-15
1e-15
1e-15
1e-15
1e-15
1e-15
1e-15
1e-15
1e-15
1e-15
1e-15
1e-15
1e-15
1e-15
1e-15
1e-15
1e-15
1e-15
1e-15
1e-15
1e-15
1e-15
1e-15
1e-15
1e-15
1e-15
1e-15
1e-15
1e-15
1e-15
1e-15
1e-15
1e-15
1e-15
1e-15
1e-15
1e-15
1e-15
1e-15
1e-15
1e-15
1e-15
1e-15
1e-15
1e-15
1e-15
1e-15
1e-15
1e-15
1e-15
1e-15
1e-15
1e-15
1e-15
1e-15
1e-15
1e-15
1e-15
1e-15
1e-15
1e-15
1e-15
1e-15
1e-15
1e-15
1e-15
1e-15
1e-15
1e-15
1e-15
1e-15
1e-15
1e-15
1e-15
1e-15
1e-15
1e-15
1e-15
1e-15
1e-15
1e-15
1e-15
1e-15
1e-15
1e-15
1e-15
1e-15
1e-15
1e-15
1e-15
1e-15
1e-15
1e-15
1e-15
1e-15
1e-15
1e-15
1e-15
1e-15
1e-15
1e-15
1e-15
1e-15
1e-15
1e-15
1e-15
1e-15
1e-15
1e-15
1e-15
1e-15
1e-15
1e-15
1e-15
1e-15
1e-15
1e-15
1e-15
1e-15
1e-15
1e-15
1e-15
1e-15
1e-15
1e-15
1e-15
1e-15
1e-15
1e-15
1e-15
1e-15
1e-15
1e-15
1e-15
1e-15
1e-15
1e-15
1e-15
1e-15
1e-15
1e-15
1e-15
1e-15
1e-15
1e-15
1e-15
1e-15
1e-15
1e-15
1e-15
1e-15
1e-15
1e-15
1e-15
1e-15
1e-15
1e-15
1e-15
1e-15
1e-15
1e-15
1e-15
1e-15
1e-15
1e-15
1e-15
1e-15
1e-15
1e-15
1e-15
1e-15
1e-15
1e-15
1e-15
1e-15
1e-15
1e-15
1e-15
1e-15
1e-15
1e-15
1e-15
1e-15
1e-15
1e-15
1e-15
1e-15
1e-15
1e-15
1e-15
1e-15
1e-15
1e-15
1e-15
1e-15
1e-15
1e-15
1e-15
1e-15
1e-15
1e-15
1e-15
1e-15
1e-15
1e-15
1e-15
1e-15
1e-15
1e-15
1e-15
1e-15
1e-15
1e-15
1e-15
1e-15
1e-15
1e-15
1e-15
1e-15
1e-15
1e-15
1e-15
1e-15
1e-15
1e-15
1e-15
1e-15
1e-15
1e-15
1e-15
1e-15
1e-15
1e-15
1e-15
1e-15
1e-15
1e-15
1e-15
1e-15
1e-15
1e-15
1e-15
1e-15
1e-15
1e-15
1e-15
1e-15
1e-15
1e-15
1e-15
1e-15
1e-15
1e-15
1e-15
1e-15
1e-15
1e-15
1e-15
1e-15
1e-15
1e-15
1e-15
1e-15
1e-15
1e-15
1e-15
1e-15
1e-15
1e-15
1e-15
1e-15
1e-15
1e-15
1e-15
1e-15
1e-15
1e-15
1e-15
1e-15
1e-15
1e-15
1e-15
1e-15
1e-15
1e-15
1e-15
1e-15
1e-15
1e-15
1e-15
1e-15
1e-15
1e-15
1e-15
1e-15
1e-15
1e-15
1e-15
1e-15
1e-15
1e-15
1e-15
1e-15
1e-15
1e-15
1e-15
1e-15
1e-15
1e-15
1e-15
1e-15
1e-15
1e-15
1e-15
1e-15
1e-15
1e-15
1e-15
1e-15
1e-15
1e-15
1e-15
1e-15
1e-15
1e-15
1e-15
1e-15
1e-15
1e-15
1e-15
1e-15
1e-15
1e-15
1e-15
1e-15
1e-15
1e-15
1e-15
1e-15
1e-15
1e-15
1e-15
1e-15
1e-15
1e-15
1e-15
1e-15
1e-15
1e-15
1e-15
1e-15
1e-15
1e-15
1e-15
1e-15
1e-15
1e-15
1e-15
1e-15
1e-15
1e-15
1e-15
1e-15
1e-15
1e-15
1e-15
1e-15
1e-15
1e-15
1e-15
1e-15
1e-15
1e-15
1e-15
1e-15
1e-15
1e-15
1e-15
1e-15
1e-15
1e-15
1e-15
1e-15
1e-15
1e-15
1.01220663212e-15
1e-15
1e-15
1e-15
1e-15
1e-15
1e-15
1e-15
1e-15
1e-15
1e-15
1e-15
1e-15
1e-15
1e-15
1e-15
1e-15
1e-15
1e-15
1e-15
1e-15
1e-15
1e-15
1e-15
1e-15
1e-15
1e-15
1e-15
1e-15
1e-15
1e-15
1e-15
1e-15
1e-15
1e-15
1e-15
1e-15
1e-15
1e-15
1e-15
1e-15
1e-15
1e-15
1e-15
1e-15
1e-15
1e-15
1e-15
1e-15
1e-15
1e-15
1e-15
1e-15
1e-15
1e-15
1e-15
1e-15
1e-15
1e-15
1e-15
1e-15
1e-15
1e-15
1e-15
1e-15
1e-15
1e-15
1e-15
1e-15
1e-15
1e-15
1e-15
1e-15
1e-15
1e-15
1e-15
1e-15
1e-15
1e-15
1e-15
1e-15
1e-15
1e-15
1e-15
1e-15
1e-15
1e-15
1e-15
1e-15
1e-15
1e-15
1e-15
1e-15
1e-15
1e-15
1e-15
1e-15
1e-15
1e-15
1e-15
1e-15
1e-15
1e-15
1e-15
1e-15
1e-15
1e-15
1e-15
1e-15
1e-15
1e-15
1e-15
1e-15
1e-15
1e-15
1e-15
1e-15
1e-15
1e-15
1e-15
1e-15
1e-15
1e-15
1e-15
1e-15
1e-15
1e-15
1e-15
1e-15
1e-15
1e-15
1e-15
1.02843146331e-15
1.02783828274e-15
1.02849909668e-15
1e-15
1e-15
1e-15
1.01471925752e-15
1e-15
1.01610497736e-15
1e-15
1e-15
1e-15
1e-15
1e-15
1e-15
1e-15
1e-15
1e-15
1e-15
1e-15
1e-15
1e-15
1e-15
1e-15
1e-15
1e-15
1e-15
1e-15
1e-15
1e-15
1e-15
1e-15
1e-15
1e-15
1e-15
1e-15
1e-15
1e-15
1e-15
1e-15
1e-15
1e-15
1e-15
1e-15
1e-15
1e-15
1e-15
1e-15
1e-15
1e-15
1e-15
1e-15
1e-15
1e-15
1e-15
1e-15
1e-15
1e-15
1e-15
1e-15
1e-15
1e-15
1e-15
1e-15
1e-15
1e-15
1e-15
1e-15
1e-15
1e-15
1e-15
1e-15
1e-15
1e-15
1e-15
1e-15
1e-15
1e-15
1e-15
1e-15
1e-15
1e-15
1e-15
1e-15
1e-15
1e-15
1e-15
1e-15
1e-15
1e-15
1e-15
1e-15
1e-15
1e-15
1e-15
1e-15
1e-15
1e-15
1e-15
1e-15
1e-15
1e-15
1e-15
1e-15
1e-15
1e-15
1e-15
1e-15
1e-15
1e-15
1e-15
1e-15
1e-15
1e-15
1e-15
1e-15
1e-15
1e-15
1e-15
1e-15
1e-15
1e-15
1e-15
1e-15
1e-15
1e-15
1e-15
1e-15
1e-15
1e-15
1e-15
1e-15
1e-15
1e-15
1e-15
1e-15
1e-15
1e-15
1e-15
1e-15
1.02783828274e-15
1.02895460342e-15
1.02783828274e-15
1.00309782923e-15
1e-15
1e-15
1.01298708452e-15
1e-15
1.01220663212e-15
1e-15
1.00000028361e-15
1.00000208034e-15
1.00000609501e-15
1.00001811806e-15
1.00006343961e-15
1.00013253748e-15
1.00019045035e-15
1.00026331229e-15
1.00031796647e-15
1.00035501691e-15
1.00037694619e-15
1.00037998723e-15
1.00036816797e-15
1.00033695849e-15
1.00028815359e-15
1.00022014456e-15
1.00012963061e-15
1.00004247938e-15
1.00000630407e-15
1.00000139204e-15
1e-15
1e-15
1e-15
1e-15
1e-15
1e-15
1e-15
1e-15
1e-15
1e-15
1e-15
1e-15
1e-15
1e-15
1.00000083625e-15
1.00000306948e-15
1.00001709227e-15
1.00014829372e-15
1.00105373697e-15
1.00128318413e-15
1.00141694801e-15
1.00131776824e-15
1.00026283241e-15
1.00023488481e-15
1.00024196809e-15
1.00024425243e-15
1.0002435893e-15
1.00023771879e-15
1.00022843696e-15
1.00021353269e-15
1.00019408806e-15
1.00016756308e-15
1.0001366207e-15
1.0000974298e-15
1.00005283113e-15
1.00000422507e-15
1.00000099593e-15
1e-15
1e-15
1e-15
1e-15
1e-15
1e-15
1e-15
1e-15
1e-15
1e-15
1e-15
1e-15
1e-15
1e-15
1e-15
1e-15
1e-15
1e-15
1e-15
1e-15
1e-15
1e-15
1e-15
1e-15
1e-15
1e-15
1e-15
1e-15
1e-15
1e-15
1e-15
1.00000090274e-15
1.00000531233e-15
1.00007370365e-15
1.00013767447e-15
1.00018663381e-15
1.00022301424e-15
1.00024774572e-15
1.00026604245e-15
1.00027978687e-15
1.00028926417e-15
1.00029477644e-15
1.00029646216e-15
1.00029481369e-15
1.00028982049e-15
1.00028126331e-15
1.00026685715e-15
1.00024578044e-15
1.00021521683e-15
1.00017846069e-15
1.00013912309e-15
1.00010124915e-15
1.00005892531e-15
1.00001444915e-15
1.0000039556e-15
1.00000284724e-15
1.00000091563e-15
1e-15
1e-15
1e-15
1e-15
1e-15
1e-15
1e-15
1e-15
1e-15
1e-15
1.00000071779e-15
1.00000419444e-15
1.00007758362e-15
1.00024360154e-15
1.00038879956e-15
1.0029473741e-15
1.02890982707e-15
1.02783828274e-15
1.02892491587e-15
1.02783828274e-15
1.00093777053e-15
1.0003184178e-15
1.0146800459e-15
1e-15
1.01579663252e-15
1e-15
1e-15
1e-15
1.00000916255e-15
1.00003134269e-15
1.00010155861e-15
1.00018872098e-15
1.00033431404e-15
1.00047935395e-15
1.00062364005e-15
1.00072959435e-15
1.00079615722e-15
1.00081520371e-15
1.0007958442e-15
1.00072800812e-15
1.00061623623e-15
1.00045907051e-15
1.00027991551e-15
1.00013197632e-15
1.00002622765e-15
1e-15
1e-15
1e-15
1e-15
1e-15
1e-15
1e-15
1e-15
1e-15
1e-15
1e-15
1e-15
1e-15
1e-15
1e-15
1e-15
1.00005710312e-15
1.00023952316e-15
1.00086190495e-15
1.00151010827e-15
1.00152667817e-15
1.00151010827e-15
1.00152667838e-15
1.00139250918e-15
1.00057845825e-15
1.00062303001e-15
1.00062596824e-15
1.00061984709e-15
1.00060524114e-15
1.00058198924e-15
1.00055015336e-15
1.00050819168e-15
1.00046444564e-15
1.00040849393e-15
1.0003366688e-15
1.00025224551e-15
1.00014811055e-15
1e-15
1e-15
1e-15
1e-15
1e-15
1e-15
1e-15
1e-15
1e-15
1e-15
1e-15
1e-15
1e-15
1e-15
1e-15
1e-15
1e-15
1e-15
1e-15
1e-15
1e-15
1e-15
1e-15
1e-15
1e-15
1e-15
1e-15
1e-15
1e-15
1e-15
1e-15
1e-15
1e-15
1.00010376806e-15
1.0002501722e-15
1.00037840277e-15
1.00047787228e-15
1.00055789784e-15
1.00061909721e-15
1.00066707877e-15
1.00070359523e-15
1.00073060516e-15
1.00074755304e-15
1.00075602679e-15
1.00075534418e-15
1.00074776717e-15
1.00073101213e-15
1.0007048785e-15
1.00066858982e-15
1.00061651305e-15
1.00054455366e-15
1.00049876891e-15
1.00035934298e-15
1.00026571223e-15
1.00018444106e-15
1.00010059242e-15
1.00003856643e-15
1e-15
1e-15
1e-15
1e-15
1e-15
1e-15
1e-15
1e-15
1e-15
1e-15
1e-15
1e-15
1.00011451622e-15
1.00039902461e-15
1.00073602348e-15
1.00105001901e-15
1.0282357342e-15
1.02783828274e-15
1.02894305345e-15
1.02783828274e-15
1.02860908626e-15
1.00247431469e-15
1.0010552487e-15
1.01298708452e-15
1e-15
1.01220663212e-15
1e-15
1e-15
1.00000097211e-15
1.00000710341e-15
1.00002380831e-15
1.0000860309e-15
1.00016982661e-15
1.00033025884e-15
1.00055756239e-15
1.00081814616e-15
1.00100455336e-15
1.00113415191e-15
1.00117802747e-15
1.00116561571e-15
1.00106586108e-15
1.00090584846e-15
1.00067075035e-15
1.00042058436e-15
1.000208232e-15
1.00008019353e-15
1.00002099108e-15
1.00000255934e-15
1e-15
1e-15
1e-15
1e-15
1e-15
1e-15
1e-15
1e-15
1e-15
1e-15
1e-15
1e-15
1.00000555153e-15
1.00007620832e-15
1.00025806237e-15
1.00063465708e-15
1.00151010827e-15
1.00152148104e-15
1.00151010827e-15
1.00152568766e-15
1.00151010827e-15
1.00152061681e-15
1.00128943366e-15
1.00100815192e-15
1.00101311141e-15
1.00100226106e-15
1.00097548879e-15
1.00093888312e-15
1.00089342356e-15
1.00085925495e-15
1.00077860925e-15
1.00066681795e-15
1.00052761004e-15
1.00037054311e-15
1.00018373787e-15
1.00000984467e-15
1e-15
1e-15
1e-15
1e-15
1e-15
1e-15
1e-15
1e-15
1e-15
1e-15
1e-15
1e-15
1e-15
1e-15
1e-15
1e-15
1e-15
1e-15
1e-15
1e-15
1e-15
1e-15
1e-15
1e-15
1e-15
1e-15
1e-15
1e-15
1e-15
1e-15
1e-15
1.00000310555e-15
1.00022780246e-15
1.0004552705e-15
1.00062958054e-15
1.00077561319e-15
1.00090075355e-15
1.00100465439e-15
1.00108887166e-15
1.00115514962e-15
1.00120558323e-15
1.00124028922e-15
1.00126084124e-15
1.00126653869e-15
1.00126091543e-15
1.00124147555e-15
1.00120883169e-15
1.00116337423e-15
1.00108780684e-15
1.00102680356e-15
1.00082632711e-15
1.00208712454e-15
1.00638516928e-15
1.00793887101e-15
1.00610763024e-15
1.00040920353e-15
1.00012643517e-15
1.00010278662e-15
1.0000731827e-15
1.00004445399e-15
1.0000170426e-15
1.00000139628e-15
1.00000029989e-15
1.0000002544e-15
1.00000189164e-15
1.00003663992e-15
1.00009043976e-15
1.00015149557e-15
1.00042389478e-15
1.00087088888e-15
1.00135904424e-15
1.0018385063e-15
1.02783828274e-15
1.02887032469e-15
1.02783828274e-15
1.02886253919e-15
1.02783828274e-15
1.00417911409e-15
1.0018805862e-15
1.01410296193e-15
1e-15
1.01514065146e-15
1e-15
1e-15
1e-15
1.00000403662e-15
1.00001423926e-15
1.00006011503e-15
1.00013522491e-15
1.0002991465e-15
1.00062255102e-15
1.00099773631e-15
1.00126267225e-15
1.00145789102e-15
1.00153099844e-15
1.00153357241e-15
1.00141016092e-15
1.00121354794e-15
1.00090929258e-15
1.00057932084e-15
1.0002993728e-15
1.00013085515e-15
1.00004359299e-15
1.00000572029e-15
1e-15
1e-15
1e-15
1e-15
1e-15
1e-15
1e-15
1e-15
1e-15
1e-15
1e-15
1e-15
1.00005916086e-15
1.00024036483e-15
1.00050361024e-15
1.00094177576e-15
1.00151491954e-15
1.00151010827e-15
1.00151699926e-15
1.00151010827e-15
1.00151820949e-15
1.00151010827e-15
1.00151372146e-15
1.00137422617e-15
1.00131230953e-15
1.00128379121e-15
1.00122606545e-15
1.0011679124e-15
1.0010690799e-15
1.00094233043e-15
1.00080347303e-15
1.00066334365e-15
1.00050483009e-15
1.0003277409e-15
1.00012159662e-15
1e-15
1e-15
1e-15
1e-15
1e-15
1e-15
1e-15
1e-15
1e-15
1e-15
1e-15
1e-15
1e-15
1e-15
1e-15
1e-15
1e-15
1e-15
1e-15
1e-15
1e-15
1e-15
1e-15
1e-15
1e-15
1e-15
1e-15
1e-15
1e-15
1e-15
1e-15
1e-15
1e-15
1.00029426306e-15
1.00060370027e-15
1.00082742833e-15
1.00102308169e-15
1.00120166887e-15
1.00135706512e-15
1.00148461462e-15
1.00158793962e-15
1.00166783711e-15
1.00172662136e-15
1.00176445408e-15
1.00178276671e-15
1.0017824816e-15
1.00176603615e-15
1.00173050444e-15
1.0016802287e-15
1.00162174965e-15
1.00138810695e-15
1.00583052324e-15
1.01189779385e-15
1.01172954793e-15
1.01198754121e-15
1.01172954793e-15
1.0110100225e-15
1.00078485889e-15
1.00028341353e-15
1.00023657016e-15
1.00017605833e-15
1.00012172811e-15
1.00007139685e-15
1.00004740198e-15
1.00005065704e-15
1.00008411407e-15
1.00016909912e-15
1.00028069344e-15
1.00044088005e-15
1.00086297896e-15
1.00142865235e-15
1.00204592273e-15
1.00268619723e-15
1.02852505998e-15
1.02783828274e-15
1.02888253291e-15
1.02783828274e-15
1.0285534473e-15
1.00585004185e-15
1.00262379105e-15
1.01298708452e-15
1e-15
1.01220663212e-15
1e-15
1e-15
1e-15
1.00000106297e-15
1.00000786462e-15
1.00003322663e-15
1.00009900453e-15
1.0003214137e-15
1.00077644987e-15
1.0012580779e-15
1.0016012863e-15
1.0018590408e-15
1.00196432791e-15
1.00198190772e-15
1.00184102198e-15
1.00161071477e-15
1.00124322487e-15
1.00081797576e-15
1.00043154002e-15
1.00018273347e-15
1.00006520864e-15
1.00000792991e-15
1e-15
1e-15
1e-15
1e-15
1e-15
1e-15
1e-15
1e-15
1e-15
1e-15
1e-15
1e-15
1.0001753134e-15
1.00042469983e-15
1.000731621e-15
1.00122997905e-15
1.00151010827e-15
1.00151262565e-15
1.00151010827e-15
1.00151456873e-15
1.00151010827e-15
1.00151191987e-15
1.00151010827e-15
1.00151059521e-15
1.0014240008e-15
1.00137831717e-15
1.00129083137e-15
1.00117213288e-15
1.00104155496e-15
1.00089278608e-15
1.00073495577e-15
1.00056972308e-15
1.00038300124e-15
1.00016949764e-15
1e-15
1e-15
1e-15
1e-15
1e-15
1e-15
1e-15
1e-15
1e-15
1e-15
1e-15
1e-15
1e-15
1e-15
1e-15
1e-15
1e-15
1e-15
1e-15
1e-15
1e-15
1e-15
1e-15
1e-15
1e-15
1e-15
1e-15
1e-15
1e-15
1e-15
1e-15
1e-15
1e-15
1e-15
1.00028981995e-15
1.00061454865e-15
1.0009126957e-15
1.00118524503e-15
1.00143161616e-15
1.00164577431e-15
1.00182255446e-15
1.00196862248e-15
1.00208334266e-15
1.00217116882e-15
1.00223093369e-15
1.00226641946e-15
1.00227566694e-15
1.00226521554e-15
1.00223150831e-15
1.00217830108e-15
1.00199562154e-15
1.00718034621e-15
1.01195737791e-15
1.01172954793e-15
1.01199710124e-15
1.01172954793e-15
1.01199299248e-15
1.01172954793e-15
1.0112800179e-15
1.0009651245e-15
1.00047343739e-15
1.00039783844e-15
1.00032087146e-15
1.0002508621e-15
1.00020952945e-15
1.00021692547e-15
1.00027492873e-15
1.00039834945e-15
1.00056867826e-15
1.00083637677e-15
1.00135872078e-15
1.00200137676e-15
1.00273560705e-15
1.00353731626e-15
1.02783828274e-15
1.02881535523e-15
1.02783828274e-15
1.02879803843e-15
1.02783828274e-15
1.00739868205e-15
1.00320038571e-15
1.01368466432e-15
1e-15
1.01448816639e-15
1e-15
1e-15
1e-15
1e-15
1.00000436434e-15
1.00001923864e-15
1.00006756718e-15
1.00051566445e-15
1.00114440894e-15
1.00165841303e-15
1.00207970449e-15
1.00239480881e-15
1.0025334484e-15
1.00256247933e-15
1.00240604681e-15
1.00213934553e-15
1.00171610619e-15
1.00120006193e-15
1.00065542113e-15
1.0002687989e-15
1.00008288797e-15
1.00001593633e-15
1.00000103229e-15
1e-15
1e-15
1e-15
1e-15
1e-15
1e-15
1e-15
1e-15
1e-15
1e-15
1.00000041669e-15
1.00029354856e-15
1.00053524714e-15
1.00092629653e-15
1.0014683079e-15
1.00151047411e-15
1.00151010827e-15
1.0015108131e-15
1.00151010827e-15
1.00151116125e-15
1.00151010827e-15
1.00150821442e-15
1.00150676373e-15
1.00145712545e-15
1.00136590727e-15
1.00125633202e-15
1.00112503498e-15
1.00095196092e-15
1.00076672344e-15
1.00056268626e-15
1.00034379362e-15
1.00010025307e-15
1e-15
1e-15
1e-15
1e-15
1e-15
1e-15
1e-15
1e-15
1e-15
1e-15
1e-15
1e-15
1e-15
1e-15
1e-15
1e-15
1e-15
1e-15
1e-15
1e-15
1e-15
1e-15
1e-15
1e-15
1e-15
1e-15
1e-15
1e-15
1e-15
1e-15
1e-15
1e-15
1e-15
1e-15
1e-15
1.00026436187e-15
1.00060017285e-15
1.00095238124e-15
1.00130400394e-15
1.00161984893e-15
1.00189165725e-15
1.00211770327e-15
1.00230722139e-15
1.00245842814e-15
1.00257704762e-15
1.00266111285e-15
1.00271594333e-15
1.00273821989e-15
1.00273490144e-15
1.00270281812e-15
1.00264422173e-15
1.00570719192e-15
1.01196158246e-15
1.01172954793e-15
1.01199338273e-15
1.01172954793e-15
1.01198971805e-15
1.01172954793e-15
1.01198234185e-15
1.01172954793e-15
1.00738272863e-15
1.00096046911e-15
1.00069458985e-15
1.00059418371e-15
1.00051249934e-15
1.00046249125e-15
1.00047452972e-15
1.00054959793e-15
1.00070396748e-15
1.00092788668e-15
1.00127892561e-15
1.00183330535e-15
1.00253751523e-15
1.00339547484e-15
1.00436203608e-15
1.02852914144e-15
1.02783828274e-15
1.02882125902e-15
1.02783828274e-15
1.02849652687e-15
1.00877289563e-15
1.00359206453e-15
1.01298708452e-15
1e-15
1.01220663212e-15
1e-15
1e-15
1e-15
1e-15
1.00000106047e-15
1.00001024551e-15
1.00003934958e-15
1.0006559452e-15
1.00150910981e-15
1.00217364593e-15
1.00263153669e-15
1.00300483753e-15
1.00318215563e-15
1.00322415474e-15
1.00305386802e-15
1.00274658966e-15
1.00227107906e-15
1.00169279136e-15
1.00101237056e-15
1.00043741572e-15
1.00011530487e-15
1.00003374728e-15
1.00000406472e-15
1e-15
1e-15
1e-15
1e-15
1e-15
1e-15
1e-15
1e-15
1e-15
1e-15
1.0000679244e-15
1.00029277058e-15
1.00057107772e-15
1.00103916151e-15
1.00147974621e-15
1.00149173285e-15
1.00149694462e-15
1.00149812249e-15
1.00150192661e-15
1.00151010827e-15
1.00150404399e-15
1.00148317835e-15
1.00148143972e-15
1.0014250556e-15
1.00131993114e-15
1.00117692784e-15
1.00101935049e-15
1.00081394447e-15
1.00058062441e-15
1.00028767123e-15
1e-15
1e-15
1e-15
1e-15
1e-15
1e-15
1e-15
1e-15
1e-15
1e-15
1e-15
1e-15
1e-15
1e-15
1e-15
1e-15
1e-15
1e-15
1e-15
1e-15
1e-15
1e-15
1e-15
1e-15
1e-15
1e-15
1e-15
1e-15
1e-15
1e-15
1e-15
1e-15
1e-15
1e-15
1e-15
1e-15
1e-15
1.00021585738e-15
1.00059314306e-15
1.00100965098e-15
1.00143972309e-15
1.00181924242e-15
1.00214366804e-15
1.00241616274e-15
1.00264702115e-15
1.00283383314e-15
1.00298273788e-15
1.00309155255e-15
1.00316615789e-15
1.00320326191e-15
1.00320861567e-15
1.00320514746e-15
1.00315527569e-15
1.01192208617e-15
1.01172954793e-15
1.01198376296e-15
1.01172954793e-15
1.01198294221e-15
1.01172954793e-15
1.01197778599e-15
1.01172954793e-15
1.0119708385e-15
1.01172952063e-15
1.00171603832e-15
1.00098138508e-15
1.00089120516e-15
1.00081018313e-15
1.00076388013e-15
1.00078133632e-15
1.00086578485e-15
1.00103740635e-15
1.00130004674e-15
1.00169656409e-15
1.00225897447e-15
1.00304542696e-15
1.0040390461e-15
1.00516782083e-15
1.02783828274e-15
1.02876018199e-15
1.02783828274e-15
1.02873611512e-15
1.02783828274e-15
1.00999612735e-15
1.00382090648e-15
1.01339811805e-15
1e-15
1.01386639664e-15
1e-15
1e-15
1e-15
1e-15
1e-15
1.0000056611e-15
1.00002337534e-15
1.00060985544e-15
1.00152289983e-15
1.00242218498e-15
1.00305231413e-15
1.00351324718e-15
1.00375039779e-15
1.00382222692e-15
1.00364732869e-15
1.00330203849e-15
1.0027720615e-15
1.00215570677e-15
1.001434829e-15
1.00072176377e-15
1.00020079693e-15
1.00004651483e-15
1.00000501189e-15
1e-15
1e-15
1e-15
1e-15
1e-15
1e-15
1e-15
1e-15
1e-15
1e-15
1.00005585774e-15
1.00026075596e-15
1.00059085617e-15
1.00110963547e-15
1.00144426361e-15
1.00145383839e-15
1.00146307348e-15
1.00146751304e-15
1.00147339366e-15
1.00149219659e-15
1.00147927038e-15
1.0014310896e-15
1.00142350213e-15
1.00134248915e-15
1.00121988331e-15
1.00105012126e-15
1.00086103496e-15
1.00062298106e-15
1.00030678331e-15
1e-15
1e-15
1e-15
1e-15
1e-15
1e-15
1e-15
1e-15
1e-15
1e-15
1e-15
1e-15
1e-15
1e-15
1e-15
1e-15
1e-15
1e-15
1e-15
1e-15
1e-15
1e-15
1e-15
1e-15
1e-15
1e-15
1e-15
1e-15
1e-15
1e-15
1e-15
1e-15
1e-15
1e-15
1e-15
1e-15
1e-15
1e-15
1.00017539436e-15
1.00061111449e-15
1.00112733198e-15
1.00163104398e-15
1.00206415712e-15
1.00243754337e-15
1.00275525788e-15
1.00302632333e-15
1.00324814957e-15
1.00342692104e-15
1.00356060259e-15
1.00365507236e-15
1.00370791556e-15
1.0037214426e-15
1.00361931712e-15
1.01184412106e-15
1.01172954793e-15
1.01197015653e-15
1.01172954793e-15
1.01197357577e-15
1.01172954793e-15
1.01197171853e-15
1.01172954793e-15
1.01196660067e-15
1.01172954793e-15
1.01195922281e-15
1.00748486142e-15
1.00141735855e-15
1.0011721892e-15
1.00109443058e-15
1.00105688496e-15
1.00108014601e-15
1.0011712698e-15
1.00135379541e-15
1.00164665828e-15
1.002072553e-15
1.0026750612e-15
1.00357546017e-15
1.00470223635e-15
1.00597803378e-15
1.02852943962e-15
1.02783828274e-15
1.02876278506e-15
1.02783828274e-15
1.02844532783e-15
1.01108411441e-15
1.00397748675e-15
1.01298575588e-15
1e-15
1.01220663212e-15
1e-15
1e-15
1e-15
1e-15
1e-15
1.00000146332e-15
1.00001193606e-15
1.00030885068e-15
1.00141873462e-15
1.00241095701e-15
1.00322917702e-15
1.00382591583e-15
1.00415103413e-15
1.00427584668e-15
1.00411272743e-15
1.00374221074e-15
1.00315954556e-15
1.0025081165e-15
1.00180013193e-15
1.00107288361e-15
1.00038197053e-15
1.00006052972e-15
1.0000052547e-15
1e-15
1e-15
1e-15
1e-15
1e-15
1e-15
1e-15
1e-15
1e-15
1e-15
1e-15
1.0002081436e-15
1.00064175443e-15
1.00116803909e-15
1.00137335939e-15
1.00138832505e-15
1.00140021399e-15
1.0014093327e-15
1.00141775812e-15
1.001454538e-15
1.00144062353e-15
1.00136022947e-15
1.00131013382e-15
1.00119348664e-15
1.00105142669e-15
1.00085673551e-15
1.00061987003e-15
1.00029320383e-15
1e-15
1e-15
1e-15
1e-15
1e-15
1e-15
1e-15
1e-15
1e-15
1e-15
1e-15
1e-15
1e-15
1e-15
1e-15
1e-15
1e-15
1e-15
1e-15
1e-15
1e-15
1e-15
1e-15
1e-15
1e-15
1e-15
1e-15
1e-15
1e-15
1e-15
1e-15
1e-15
1e-15
1e-15
1e-15
1e-15
1e-15
1e-15
1e-15
1.0001958609e-15
1.00070169373e-15
1.00129663647e-15
1.00186506015e-15
1.00234949254e-15
1.00277201838e-15
1.00313710533e-15
1.00345042809e-15
1.0037086301e-15
1.00391836487e-15
1.00407774624e-15
1.00419286067e-15
1.00426090273e-15
1.00430127437e-15
1.00666680261e-15
1.01172954793e-15
1.0119525987e-15
1.01172954793e-15
1.01196221335e-15
1.01172954793e-15
1.01196288858e-15
1.01172954793e-15
1.01195965734e-15
1.01172954793e-15
1.01195490704e-15
1.01172954793e-15
1.01192533094e-15
1.00225246065e-15
1.00144613421e-15
1.00136176433e-15
1.00132504376e-15
1.00135302732e-15
1.0014540907e-15
1.00165622051e-15
1.00198598917e-15
1.00245049148e-15
1.00313944491e-15
1.00416621332e-15
1.00540265906e-15
1.00680183011e-15
1.02783828274e-15
1.02870724784e-15
1.02783828274e-15
1.028679234e-15
1.02783828274e-15
1.01205995513e-15
1.00394571955e-15
1.01321221205e-15
1e-15
1.01329537005e-15
1e-15
1e-15
1e-15
1e-15
1e-15
1e-15
1.0000060229e-15
1.00005278362e-15
1.00116780559e-15
1.00232246789e-15
1.00328057238e-15
1.00402131649e-15
1.00444856863e-15
1.00464023806e-15
1.00450350549e-15
1.00412231757e-15
1.00349241386e-15
1.00279637447e-15
1.00208544066e-15
1.00140069656e-15
1.00066280106e-15
1.00012721728e-15
1.00000471462e-15
1e-15
1e-15
1e-15
1e-15
1e-15
1e-15
1e-15
1e-15
1e-15
1e-15
1e-15
1.00014616525e-15
1.00067501672e-15
1.00113982965e-15
1.00128685399e-15
1.00130211768e-15
1.00131396156e-15
1.00132346331e-15
1.00133130378e-15
1.00136284514e-15
1.00138209658e-15
1.00126929777e-15
1.00111099371e-15
1.00096039572e-15
1.00078805156e-15
1.00052540574e-15
1.00018576506e-15
1e-15
1e-15
1e-15
1e-15
1e-15
1e-15
1e-15
1e-15
1e-15
1e-15
1e-15
1e-15
1e-15
1e-15
1e-15
1e-15
1e-15
1e-15
1e-15
1e-15
1e-15
1e-15
1e-15
1e-15
1e-15
1e-15
1e-15
1e-15
1e-15
1e-15
1e-15
1e-15
1e-15
1e-15
1e-15
1e-15
1e-15
1e-15
1e-15
1e-15
1.00023326383e-15
1.00075165589e-15
1.00149954723e-15
1.00210064767e-15
1.00262609997e-15
1.00311373044e-15
1.00353320901e-15
1.00389160824e-15
1.00418918981e-15
1.00443267445e-15
1.00461950864e-15
1.00475661202e-15
1.00484477725e-15
1.0048000307e-15
1.01172954793e-15
1.01193529057e-15
1.01172954793e-15
1.01194537938e-15
1.01172954793e-15
1.01195152752e-15
1.01172954793e-15
1.01195151303e-15
1.01172954793e-15
1.01194835155e-15
1.01172954793e-15
1.01194348538e-15
1.01172954793e-15
1.00309452319e-15
1.00176977845e-15
1.00165214276e-15
1.00160411969e-15
1.00163509946e-15
1.00175085406e-15
1.00198642771e-15
1.00236267341e-15
1.00288103785e-15
1.00367953897e-15
1.00480997394e-15
1.00612212672e-15
1.0076221282e-15
1.02852574964e-15
1.02783828274e-15
1.02870855438e-15
1.02783828274e-15
1.02840028802e-15
1.01290388747e-15
1.00383094366e-15
1.01298079875e-15
1e-15
1.01220663212e-15
1e-15
1e-15
1e-15
1e-15
1e-15
1e-15
1.00000101395e-15
1.00001556044e-15
1.00085767223e-15
1.00221838701e-15
1.00332051161e-15
1.00420690727e-15
1.00474757717e-15
1.00501508077e-15
1.00491623585e-15
1.00453516076e-15
1.00386045351e-15
1.00310216576e-15
1.00234727916e-15
1.00167735848e-15
1.00098156364e-15
1.00030969808e-15
1.00000323375e-15
1e-15
1e-15
1e-15
1e-15
1e-15
1e-15
1e-15
1e-15
1e-15
1e-15
1e-15
1.00005549019e-15
1.00063345523e-15
1.00105509224e-15
1.00117677393e-15
1.0011924664e-15
1.0012045826e-15
1.00121308298e-15
1.00122081579e-15
1.00123639041e-15
1.00127941835e-15
1.00106774824e-15
1.0007835898e-15
1.00057595803e-15
1.00027076683e-15
1e-15
1e-15
1e-15
1e-15
1e-15
1e-15
1e-15
1e-15
1e-15
1e-15
1e-15
1e-15
1e-15
1e-15
1e-15
1e-15
1e-15
1e-15
1e-15
1e-15
1e-15
1e-15
1e-15
1e-15
1e-15
1e-15
1e-15
1e-15
1e-15
1e-15
1e-15
1e-15
1e-15
1e-15
1e-15
1e-15
1e-15
1e-15
1e-15
1e-15
1e-15
1e-15
1.00023423013e-15
1.00082051443e-15
1.00160472639e-15
1.00227438802e-15
1.00291090002e-15
1.0034376461e-15
1.00390767785e-15
1.00432242146e-15
1.00466157005e-15
1.00493974252e-15
1.00515574979e-15
1.00531685218e-15
1.00541408195e-15
1.00760641368e-15
1.01191245176e-15
1.01172954793e-15
1.01192672722e-15
1.01172954793e-15
1.01193749566e-15
1.01172954793e-15
1.01194057441e-15
1.01172954793e-15
1.01193913386e-15
1.01172954793e-15
1.0119364503e-15
1.01172954793e-15
1.01193250598e-15
1.00507456371e-15
1.00213914888e-15
1.00200810529e-15
1.00194414826e-15
1.00197653619e-15
1.00210875843e-15
1.00238253344e-15
1.00280387625e-15
1.00338201968e-15
1.00427192958e-15
1.00546024363e-15
1.0068229598e-15
1.00841312762e-15
1.02783828274e-15
1.02865683595e-15
1.02783828274e-15
1.02862830306e-15
1.02783828274e-15
1.01361663272e-15
1.00362256995e-15
1.01309550257e-15
1e-15
1.0128080545e-15
1e-15
1e-15
1e-15
1e-15
1e-15
1e-15
1e-15
1.0000069151e-15
1.00055409972e-15
1.0021439677e-15
1.0034037006e-15
1.00445626815e-15
1.00512837875e-15
1.00548094843e-15
1.0054317462e-15
1.00505810236e-15
1.00433841779e-15
1.00349391718e-15
1.00264541666e-15
1.00193282216e-15
1.00127004516e-15
1.0005859074e-15
1.00003688584e-15
1e-15
1e-15
1e-15
1e-15
1e-15
1e-15
1e-15
1e-15
1e-15
1e-15
1e-15
1e-15
1.00051405163e-15
1.0008834069e-15
1.00099371388e-15
1.00101017056e-15
1.00102144226e-15
1.00102835471e-15
1.00103699179e-15
1.00103083101e-15
1.00101454707e-15
1.00069023896e-15
1.00023742064e-15
1e-15
1e-15
1e-15
1e-15
1e-15
1e-15
1e-15
1e-15
1e-15
1e-15
1e-15
1e-15
1e-15
1e-15
1e-15
1e-15
1e-15
1e-15
1e-15
1e-15
1e-15
1e-15
1e-15
1e-15
1e-15
1e-15
1e-15
1e-15
1e-15
1e-15
1e-15
1e-15
1e-15
1e-15
1e-15
1e-15
1e-15
1e-15
1e-15
1e-15
1e-15
1e-15
1e-15
1e-15
1.00027132766e-15
1.0008763747e-15
1.00168425729e-15
1.00243434425e-15
1.00311428351e-15
1.00375712763e-15
1.00429913768e-15
1.00473132006e-15
1.00511323973e-15
1.00543445115e-15
1.00567899635e-15
1.00586264266e-15
1.00600210396e-15
1.0118542176e-15
1.01172954793e-15
1.01190795937e-15
1.01172954793e-15
1.01191747622e-15
1.01172954793e-15
1.01192737086e-15
1.01172954793e-15
1.01192897511e-15
1.01172954793e-15
1.01192770703e-15
1.01172954793e-15
1.01192476786e-15
1.01172954793e-15
1.01185350738e-15
1.0029547821e-15
1.00244179509e-15
1.0023661566e-15
1.00240039786e-15
1.00254492881e-15
1.00284505152e-15
1.00329723662e-15
1.00392715795e-15
1.00486285566e-15
1.00607092037e-15
1.00747843918e-15
1.00914672543e-15
1.0285184812e-15
1.02783828274e-15
1.02865850517e-15
1.02783828274e-15
1.0283619157e-15
1.01419350612e-15
1.00333730696e-15
1.01297752717e-15
1e-15
1.01220663212e-15
1e-15
1e-15
1e-15
1e-15
1e-15
1e-15
1e-15
1.00000053989e-15
1.00011649855e-15
1.00205350089e-15
1.00360920034e-15
1.0048006458e-15
1.00562527677e-15
1.00607680673e-15
1.00608696106e-15
1.00572607094e-15
1.00496357252e-15
1.00401439269e-15
1.00302324745e-15
1.00220585716e-15
1.00151811199e-15
1.0008708263e-15
1.00019926113e-15
1e-15
1e-15
1e-15
1e-15
1e-15
1e-15
1e-15
1e-15
1e-15
1e-15
1e-15
1e-15
1.00029007252e-15
1.00060212057e-15
1.00068741063e-15
1.00069420214e-15
1.00069454015e-15
1.00069362419e-15
1.00070109366e-15
1.00065417545e-15
1.00045661828e-15
1.00010111612e-15
1e-15
1e-15
1e-15
1e-15
1e-15
1e-15
1e-15
1e-15
1e-15
1e-15
1e-15
1e-15
1e-15
1e-15
1e-15
1e-15
1e-15
1e-15
1e-15
1e-15
1e-15
1e-15
1e-15
1e-15
1e-15
1e-15
1e-15
1e-15
1e-15
1e-15
1e-15
1e-15
1e-15
1e-15
1e-15
1e-15
1e-15
1e-15
1e-15
1e-15
1e-15
1e-15
1e-15
1e-15
1e-15
1.00030390781e-15
1.00096047446e-15
1.0018233919e-15
1.00258252089e-15
1.00334720117e-15
1.00406774248e-15
1.00461395134e-15
1.00517822999e-15
1.00559695578e-15
1.0059214196e-15
1.00619869509e-15
1.00641357545e-15
1.00654795785e-15
1.01172954793e-15
1.01188706148e-15
1.01172954793e-15
1.01189885973e-15
1.01172954793e-15
1.01190917434e-15
1.01172954793e-15
1.0119158533e-15
1.01172954793e-15
1.01191639996e-15
1.01172954793e-15
1.01191564655e-15
1.01172954793e-15
1.01191379542e-15
1.01172954793e-15
1.00386885901e-15
1.00291835777e-15
1.00284110242e-15
1.00287803416e-15
1.00302734854e-15
1.00333477246e-15
1.00380253306e-15
1.00446803067e-15
1.00541057451e-15
1.00662837213e-15
1.00808877722e-15
1.00989318456e-15
1.02783828274e-15
1.02860951319e-15
1.02783828274e-15
1.02858289762e-15
1.02783828274e-15
1.01466649737e-15