/*--------------------------------*- C++ -*----------------------------------*\
| =========                 |                                                 |
| \\      /  F ield         | OpenFOAM: The Open Source CFD Toolbox           |
|  \\    /   O peration     | Version:  2206                                  |
|   \\  /    A nd           | Website:  www.openfoam.com                      |
|    \\/     M anipulation  |                                                 |
\*---------------------------------------------------------------------------*/
FoamFile
{
    version     2.0;
    format      ascii;
    arch        "LSB;label=64;scalar=64";
    class       volScalarField;
    location    "4.6/water";
    object      alphat.gas;
}
// * * * * * * * * * * * * * * * * * * * * * * * * * * * * * * * * * * * * * //

dimensions      [1 -1 -1 0 0 0 0];

internalField   nonuniform List<scalar> 
23300
(
9.59469387089e-05
9.43469208039e-05
9.25212674748e-05
9.03049969698e-05
8.775204522e-05
8.49162406457e-05
8.18438759203e-05
7.85782910306e-05
7.51603687178e-05
7.16317495042e-05
6.803325559e-05
6.4406421416e-05
6.07909181941e-05
5.72252092016e-05
5.37439588557e-05
5.0378528928e-05
4.71550146506e-05
4.40950159621e-05
4.12145006163e-05
3.85249287123e-05
3.603278973e-05
3.37409115459e-05
3.16483730674e-05
2.97517698279e-05
2.8045239593e-05
2.65215324806e-05
2.51720049242e-05
2.3987456811e-05
2.29580590961e-05
2.20740002094e-05
2.13253690384e-05
2.0702672402e-05
2.01966954315e-05
1.97989297942e-05
1.95014112076e-05
1.92970733983e-05
1.91795519569e-05
1.91434748339e-05
1.91842314476e-05
1.92982226514e-05
1.94826138614e-05
1.97355907437e-05
2.00559986531e-05
2.04429012597e-05
2.08961448901e-05
2.14164899962e-05
2.20052772714e-05
2.26646602838e-05
2.33973041193e-05
2.42066598035e-05
2.50966636564e-05
2.60720386206e-05
2.71379789282e-05
2.83004673287e-05
2.9565928362e-05
3.09415444597e-05
3.24348520285e-05
3.40540273543e-05
3.58073839331e-05
3.77035796325e-05
3.97509504834e-05
4.19575604771e-05
4.43302732164e-05
4.68745213233e-05
4.95929566165e-05
5.24847267378e-05
5.55434072803e-05
5.87553501013e-05
6.20962471033e-05
6.55275336661e-05
6.89900009201e-05
7.23957063785e-05
7.56146126419e-05
7.84560213321e-05
8.06421787473e-05
8.17927148062e-05
8.15776732792e-05
8.01951144466e-05
7.80065830708e-05
7.52873480959e-05
7.22315321174e-05
6.89778945997e-05
6.56277259925e-05
6.22566245435e-05
5.89212767716e-05
5.56642739678e-05
5.25168891161e-05
4.95015403646e-05
4.66332614105e-05
4.39213245636e-05
4.13702111214e-05
3.89808125668e-05
3.67511077367e-05
3.46770519329e-05
3.27530260234e-05
3.09724689554e-05
2.93281480679e-05
2.7812590053e-05
2.6418221357e-05
2.51376511763e-05
2.39637254664e-05
2.28897083729e-05
2.19092856987e-05
2.10166833831e-05
2.02066511641e-05
1.94745560779e-05
1.88163886771e-05
1.82289073566e-05
1.77093097992e-05
1.72551316719e-05
1.68646783295e-05
1.65370444216e-05
1.62721108361e-05
1.60706262022e-05
1.59342564411e-05
1.58657057937e-05
1.58688077937e-05
1.59486774839e-05
1.61118275464e-05
1.63663239573e-05
1.67218776248e-05
1.7189925648e-05
1.77835800417e-05
1.85174687765e-05
1.94073205699e-05
2.04692956327e-05
2.17189073133e-05
2.31695646031e-05
2.48306597663e-05
2.67053845273e-05
2.87884291789e-05
3.1064028824e-05
3.3504769483e-05
3.60716965953e-05
3.87158441975e-05
4.13806654004e-05
4.40030545452e-05
4.65071015453e-05
4.87768946924e-05
5.05816527591e-05
8.32594506558e-05
8.25905720336e-05
8.14668410741e-05
7.99597893948e-05
7.81269899367e-05
7.60172219376e-05
7.36735642503e-05
7.11358103968e-05
6.8441870567e-05
6.56287630286e-05
6.27327669028e-05
5.97894027481e-05
5.68328647646e-05
5.38955310911e-05
5.10072254744e-05
4.81947410471e-05
4.54813301489e-05
4.28865225888e-05
4.04259960981e-05
3.81117292874e-05
3.59521913723e-05
3.39527096692e-05
3.21158185454e-05
3.04416836035e-05
2.89284642648e-05
2.75726875075e-05
2.63695508775e-05
2.5313215653e-05
2.43970469294e-05
2.36138478477e-05
2.29560634153e-05
2.24159834029e-05
2.19859245175e-05
2.16584055739e-05
2.1426297621e-05
2.12829555614e-05
2.12223182284e-05
2.12389845816e-05
2.1328259455e-05
2.14861804689e-05
2.17095232494e-05
2.19957989983e-05
2.23432158046e-05
2.27500502594e-05
2.32153063828e-05
2.37386451071e-05
2.43203183613e-05
2.49611248303e-05
2.56623653614e-05
2.64258163514e-05
2.72536940947e-05
2.81486344284e-05
2.91136544334e-05
3.01521266585e-05
3.12677242751e-05
3.24643739598e-05
3.37461645489e-05
3.51172547986e-05
3.65817157812e-05
3.81433581603e-05
3.9805464995e-05
4.15704876188e-05
4.34396074133e-05
4.54122265925e-05
4.7485266072e-05
4.9652329961e-05
5.19025735789e-05
5.42193106224e-05
5.65781340183e-05
5.89445542692e-05
6.12709100626e-05
6.34926998433e-05
6.5524599232e-05
6.725783306e-05
6.85629506219e-05
6.93078690225e-05
6.94067275737e-05
6.88819461074e-05
6.78257187105e-05
6.63462716764e-05
6.45447682822e-05
6.25084407726e-05
6.03100618399e-05
5.80095022471e-05
5.56555757773e-05
5.32877648603e-05
5.09376234663e-05
4.86299966747e-05
4.63840207264e-05
4.42140328145e-05
4.21303395964e-05
4.0139927826e-05
3.82470628004e-05
3.64538342671e-05
3.47606074804e-05
3.31664261414e-05
3.16693386275e-05
3.02666835561e-05
2.89553166497e-05
2.7731805479e-05
2.65925816996e-05
2.55340698329e-05
2.45527877742e-05
2.36454326818e-05
2.28089516386e-05
2.20406073579e-05
2.13380406443e-05
2.06993323264e-05
2.01229924221e-05
1.9607708106e-05
1.91527001557e-05
1.87577643751e-05
1.84233162044e-05
1.81504412646e-05
1.79409522721e-05
1.77974495485e-05
1.77233813971e-05
1.77230966503e-05
1.78018794071e-05
1.79659505687e-05
1.82224167719e-05
1.85791410968e-05
1.90445056634e-05
1.96270325858e-05
2.03348305151e-05
2.11748415009e-05
2.21518800188e-05
2.32674891593e-05
2.45186874956e-05
2.58967502792e-05
2.738624664e-05
2.8964636155e-05
3.06027817024e-05
3.22667678576e-05
3.39214517601e-05
3.55364010928e-05
3.70957280736e-05
3.86159913876e-05
4.01839960328e-05
4.20386709586e-05
7.37793821633e-05
7.34328943438e-05
7.27261855791e-05
7.17011014218e-05
7.03950358782e-05
6.8842189848e-05
6.7074851507e-05
6.51242975661e-05
6.30213474029e-05
6.07966282072e-05
5.84805473128e-05
5.61030529307e-05
5.36932221495e-05
5.12787798673e-05
4.88856017031e-05
4.65372828388e-05
4.42548031765e-05
4.20563224743e-05
3.99571015827e-05
3.79695399473e-05
3.61033050147e-05
3.43655228988e-05
3.27610069417e-05
3.12924943263e-05
2.99608824971e-05
2.87654468656e-05
2.77040488066e-05
2.67733254951e-05
2.59688803007e-05
2.52854668603e-05
2.47171844005e-05
2.42576708628e-05
2.39003042294e-05
2.36383912577e-05
2.34653495293e-05
2.33748608467e-05
2.33610040479e-05
2.34183500168e-05
2.35420323187e-05
2.37277814235e-05
2.39719389215e-05
2.42714410662e-05
2.46239506681e-05
2.50273209409e-05
2.54799671884e-05
2.59808315044e-05
2.65293422246e-05
2.71253652112e-05
2.77691624207e-05
2.84613469709e-05
2.92028448354e-05
2.99948509033e-05
3.08387874437e-05
3.17362526921e-05
3.2688965717e-05
3.36986953133e-05
3.47671768149e-05
3.58960044258e-05
3.70865002897e-05
3.8339547745e-05
3.96553872273e-05
4.10333625621e-05
4.24716136052e-05
4.3966703628e-05
4.55131743169e-05
4.71030162559e-05
4.87250429741e-05
5.03641567947e-05
5.200049917e-05
5.36085043575e-05
5.51559251239e-05
5.6603023221e-05
5.79023227759e-05
5.89996813352e-05
5.98378807999e-05
6.03644458201e-05
6.05444904884e-05
6.03726353761e-05
5.98706394976e-05
5.90759292051e-05
5.80325139173e-05
5.67852817575e-05
5.53768836701e-05
5.38462367033e-05
5.22279274635e-05
5.05520973969e-05
4.88445777481e-05
4.71271600076e-05
4.54179361902e-05
4.37316742256e-05
4.20802030343e-05
4.04727910045e-05
3.89165064003e-05
3.7416551699e-05
3.5976569272e-05
3.45989152958e-05
3.3284904335e-05
3.20350233781e-05
3.08491199586e-05
2.97265636259e-05
2.86663863773e-05
2.76674015407e-05
2.67283071767e-05
2.5847773602e-05
2.502452095e-05
2.42573857376e-05
2.35453801398e-05
2.28877387733e-05
2.22840449921e-05
2.17340995798e-05
2.12380457157e-05
2.07964239599e-05
2.04102211289e-05
2.00809128123e-05
1.98105010065e-05
1.96015418017e-05
1.94571593809e-05
1.93810362341e-05
1.93773699943e-05
1.94507811362e-05
1.96061561808e-05
1.98484064781e-05
2.01821253997e-05
2.06111272383e-05
2.11378608315e-05
2.17627018867e-05
2.24831506452e-05
2.32929885629e-05
2.41814870809e-05
2.51328039351e-05
2.61257488412e-05
2.71341339783e-05
2.81279378245e-05
2.90754923465e-05
2.99468770844e-05
3.07187337685e-05
3.13809309127e-05
3.19462538013e-05
3.24711603698e-05
3.29953913048e-05
6.8058699231e-05
6.77785328386e-05
6.7222245935e-05
6.64069471419e-05
6.5354821873e-05
6.40903269978e-05
6.26389470483e-05
6.10266291733e-05
5.92794827535e-05
5.74235499086e-05
5.54845652814e-05
5.34876767747e-05
5.14571366335e-05
4.94159824939e-05
4.73857406484e-05
4.53861726314e-05
4.34350881889e-05
4.15482268962e-05
3.97392130525e-05
3.80195673927e-05
3.63987689362e-05
3.48843430306e-05
3.34819700162e-05
3.21955944662e-05
3.10275389649e-05
2.99786112001e-05
2.90482184627e-05
2.82344842506e-05
2.75343848526e-05
2.69438987611e-05
2.64581822722e-05
2.60717560857e-05
2.57787084132e-05
2.55728923703e-05
2.54481195587e-05
2.53983273802e-05
2.54177252557e-05
2.55009027877e-05
2.56429112813e-05
2.58393075257e-05
2.60861749928e-05
2.63801123798e-05
2.67182837435e-05
2.70985292875e-05
2.75189272047e-05
2.79779997523e-05
2.84746770509e-05
2.90082504402e-05
2.95783304502e-05
3.01848002929e-05
3.08277747846e-05
3.15075541438e-05
3.22245806603e-05
3.29793875579e-05
3.37725466313e-05
3.46046040994e-05
3.54760098766e-05
3.6387029825e-05
3.73376448135e-05
3.83274263625e-05
3.9355391606e-05
4.0419828058e-05
4.15180905862e-05
4.26463626764e-05
4.37993850803e-05
4.49701466458e-05
4.61495431259e-05
4.73260060869e-05
4.84851213648e-05
4.96092693316e-05
5.06773618665e-05
5.16648039524e-05
5.25438944601e-05
5.32849604194e-05
5.3858550705e-05
5.42388512804e-05
5.44078660602e-05
5.43585951248e-05
5.40957313909e-05
5.36332531859e-05
5.29909656971e-05
5.2191792504e-05
5.12597181479e-05
5.02183708413e-05
4.90901191732e-05
4.78955428776e-05
4.66531661992e-05
4.53793677992e-05
4.40884089931e-05
4.27925352637e-05
4.15021230309e-05
4.02258482153e-05
3.89708648734e-05
3.7742982235e-05
3.65468371836e-05
3.53860563027e-05
3.42634084183e-05
3.31809440233e-05
3.21401239824e-05
3.11419348493e-05
3.01869939093e-05
2.92756419131e-05
2.84080270099e-05
2.7584178164e-05
2.68040713755e-05
2.60676865091e-05
2.53750566446e-05
2.47263059506e-05
2.41218231077e-05
2.35622766096e-05
2.30485545793e-05
2.25818113159e-05
2.21635058868e-05
2.17954299128e-05
2.14797237398e-05
2.12188749053e-05
2.10156940692e-05
2.08732584074e-05
2.07948134492e-05
2.07836200389e-05
2.08427350394e-05
2.09747127536e-05
2.11812193567e-05
2.14625565025e-05
2.18171020388e-05
2.22406879181e-05
2.27259555421e-05
2.3261749561e-05
2.3832637701e-05
2.44186680201e-05
2.49954964368e-05
2.55350226764e-05
2.60066525601e-05
2.63792390469e-05
2.66236375407e-05
2.67156541966e-05
2.66390397035e-05
2.63886916249e-05
2.59895654988e-05
2.54392993452e-05
6.35233621476e-05
6.32945709545e-05
6.2841991761e-05
6.21764157607e-05
6.13128162077e-05
6.0269067064e-05
5.90649201441e-05
5.77212675036e-05
5.62596042131e-05
5.47016095523e-05
5.30688000127e-05
5.1382221843e-05
4.9662178255e-05
4.7927986479e-05
4.61977753457e-05
4.44883227189e-05
4.28149412401e-05
4.11914040788e-05
3.96299117987e-05
3.81410844787e-05
3.67339772016e-05
3.54161019142e-05
3.41934579076e-05
3.30705588945e-05
3.20504672027e-05
3.11348295015e-05
3.03239312588e-05
2.96167665871e-05
2.90111408548e-05
2.85037978435e-05
2.80905822243e-05
2.77666200063e-05
2.75265198709e-05
2.73645716386e-05
2.72749422743e-05
2.72518464585e-05
2.72896962795e-05
2.73832131152e-05
2.75275128751e-05
2.77181538695e-05
2.79511629047e-05
2.82230321091e-05
2.85307044883e-05
2.8872080158e-05
2.92451263375e-05
2.96481885773e-05
3.00799549513e-05
3.05394127184e-05
3.10258090977e-05
3.153860723e-05
3.20774472414e-05
3.2642102834e-05
3.32324415705e-05
3.38483792637e-05
3.44898353801e-05
3.51566802076e-05
3.58486796495e-05
3.65654288623e-05
3.73062796998e-05
3.80702538044e-05
3.8855945748e-05
3.96614091435e-05
4.04840303455e-05
4.13203846855e-05
4.21660813839e-05
4.30155956674e-05
4.38620980612e-05
4.46972865478e-05
4.55112417247e-05
4.62923283245e-05
4.70271893214e-05
4.77008930974e-05
4.82973210444e-05
4.87998843353e-05
4.91926323655e-05
4.94617051361e-05
4.95968859102e-05
4.95927792506e-05
4.94491540536e-05
4.91709393651e-05
4.87668514115e-05
4.8248166299e-05
4.76276852814e-05
4.69188755497e-05
4.61352151754e-05
4.52897254688e-05
4.43946623271e-05
4.34613300038e-05
4.24999881073e-05
4.1519823005e-05
4.05289652547e-05
3.95345350888e-05
3.85427073861e-05
3.75587860488e-05
3.65872852581e-05
3.56320116654e-05
3.46961477567e-05
3.3782332166e-05
3.28927382986e-05
3.20291478506e-05
3.11930211872e-05
3.03855617182e-05
2.96077765564e-05
2.88605308544e-05
2.81445979613e-05
2.74607025264e-05
2.68095579865e-05
2.61918951805e-05
2.56086487487e-05
2.50610713346e-05
2.4550557191e-05
2.40786741138e-05
2.36471866919e-05
2.32580665695e-05
2.29134876573e-05
2.26157994106e-05
2.23674730551e-05
2.21710112049e-05
2.20288132003e-05
2.1942985361e-05
2.19150886722e-05
2.19458163235e-05
2.20346003452e-05
2.21791516199e-05
2.23749496572e-05
2.26147096331e-05
2.28878712363e-05
2.31801689753e-05
2.34733615571e-05
2.37452108377e-05
2.39698104638e-05
2.41183602394e-05
2.41604588345e-05
2.40659277548e-05
2.38070768746e-05
2.33611923682e-05
2.27129767617e-05
2.18571269459e-05
2.08080650837e-05
1.95787629968e-05
5.98522887938e-05
5.9663236431e-05
5.92890871083e-05
5.87377328701e-05
5.80202455403e-05
5.71502518642e-05
5.61432624714e-05
5.50160721121e-05
5.37862512556e-05
5.24717169128e-05
5.10903757878e-05
4.96598238911e-05
4.81971011844e-05
4.67184911816e-05
4.5239368039e-05
4.37740808844e-05
4.23358762358e-05
4.09368444673e-05
3.95878890498e-05
3.82987026878e-05
3.70777510331e-05
3.59322508951e-05
3.48681501e-05
3.38901018962e-05
3.30014488482e-05
3.22042140875e-05
3.14991191663e-05
3.08856259456e-05
3.03620192362e-05
2.99255205817e-05
2.95724419139e-05
2.92983599357e-05
2.9098312542e-05
2.89669927326e-05
2.88989399995e-05
2.88887064448e-05
2.89310024092e-05
2.90208051897e-05
2.9153442192e-05
2.9324638154e-05
2.95305420029e-05
2.97677258342e-05
3.00331717986e-05
3.0324832935e-05
3.06407466121e-05
3.09792667456e-05
3.13390324303e-05
3.17189295394e-05
3.21180562241e-05
3.25356836112e-05
3.29712215941e-05
3.34241807701e-05
3.38941388359e-05
3.43807025517e-05
3.48834724396e-05
3.54020017619e-05
3.5935756092e-05
3.64840656384e-05
3.70460759818e-05
3.76206901524e-05
3.82065073517e-05
3.88017523495e-05
3.94042010995e-05
4.00110984047e-05
4.06190744278e-05
4.12240588234e-05
4.1821202085e-05
4.24048077037e-05
4.29682901987e-05
4.3504170852e-05
4.40041357127e-05
4.44591787834e-05
4.48598623533e-05
4.51967143025e-05
4.54607671949e-05
4.56441961933e-05
4.57409608466e-05
4.57473044183e-05
4.56619901557e-05
4.54862575068e-05
4.52237939545e-05
4.48799671271e-05
4.44613418594e-05
4.39752398252e-05
4.34293614162e-05
4.2831482224e-05
4.21892252515e-05
4.15098976974e-05
4.08003832153e-05
4.00670753825e-05
3.93158445415e-05
3.85520269511e-05
3.77804322964e-05
3.70053621411e-05
3.62306383856e-05
3.54596365551e-05
3.46953245228e-05
3.39403025583e-05
3.31968460045e-05
3.24669470467e-05
3.17523572553e-05
3.10546277528e-05
3.0375148841e-05
2.97151860872e-05
2.9075914519e-05
2.8458447761e-05
2.78638633764e-05
2.72932214618e-05
2.67477468916e-05
2.6229001026e-05
2.57386378654e-05
2.52784213714e-05
2.48502332795e-05
2.44560666177e-05
2.4098002426e-05
2.3778162634e-05
2.34986341966e-05
2.32613557358e-05
2.30679605162e-05
2.29195672917e-05
2.28165147752e-05
2.27580362424e-05
2.27418782517e-05
2.27638727226e-05
2.28174832488e-05
2.28933562259e-05
2.29789218506e-05
2.3058101465e-05
2.31111910995e-05
2.31149994044e-05
2.30433250019e-05
2.28678565088e-05
2.25595670191e-05
2.20906408517e-05
2.14369050632e-05
2.05806400739e-05
1.95135772036e-05
1.82401315408e-05
1.67839964311e-05
1.51845866033e-05
5.68500613647e-05
5.66921407904e-05
5.63793818715e-05
5.59179102636e-05
5.53163555185e-05
5.4585477382e-05
5.37377016222e-05
5.27866589486e-05
5.17467608712e-05
5.06328212903e-05
4.94597352506e-05
4.82422100286e-05
4.69945528459e-05
4.57305051785e-05
4.44631240554e-05
4.32046960693e-05
4.196668153e-05
4.0759671792e-05
3.95933574568e-05
3.84764917529e-05
3.74168516756e-05
3.64211864779e-05
3.54951640889e-05
3.46433116712e-05
3.38689682193e-05
3.31742491509e-05
3.25600431427e-05
3.20260385956e-05
3.15707953884e-05
3.11918508086e-05
3.08858666155e-05
3.06487967805e-05
3.04760762734e-05
3.03628062574e-05
3.03039359051e-05
3.02944188961e-05
3.03293500067e-05
3.04040661867e-05
3.05142237675e-05
3.06558418253e-05
3.08253270806e-05
3.10194727994e-05
3.1235446838e-05
3.14712731765e-05
3.17251817293e-05
3.19956639036e-05
3.22814455058e-05
3.25814535987e-05
3.28947874364e-05
3.32206848066e-05
3.35584935104e-05
3.39076394644e-05
3.426759978e-05
3.46378724115e-05
3.50179496501e-05
3.5407287515e-05
3.58052775689e-05
3.62112138661e-05
3.66242610219e-05
3.70434168869e-05
3.74674755109e-05
3.78949848536e-05
3.83242050177e-05
3.87530628395e-05
3.91791093299e-05
3.95994778044e-05
4.00108507323e-05
4.04094359119e-05
4.07909624099e-05
4.11507002847e-05
4.1483517215e-05
4.17839783934e-05
4.20465018928e-05
4.22655700202e-05
4.24359939381e-05
4.25532072798e-05
4.2613554016e-05
4.26145199306e-05
4.2554868406e-05
4.24346498347e-05
4.22551339122e-05
4.20187864325e-05
4.17288642134e-05
4.13892049044e-05
4.10040326269e-05
4.05777871046e-05
4.0114984695e-05
3.96201075189e-05
3.90975206164e-05
3.85514106156e-05
3.79857447076e-05
3.74042435552e-05
3.68103677066e-05
3.62073122777e-05
3.55980105504e-05
3.4985142222e-05
3.43711476191e-05
3.375824418e-05
3.31484468476e-05
3.25435890307e-05
3.1945345925e-05
3.13552570785e-05
3.07747499735e-05
3.02051615469e-05
2.96477591499e-05
2.91037577041e-05
2.85743342381e-05
2.80606369626e-05
2.75639469263e-05
2.70858947849e-05
2.66281733479e-05
2.61925423006e-05
2.57808226513e-05
2.53948760667e-05
2.50365666211e-05
2.47076982081e-05
2.44099232712e-05
2.41446150973e-05
2.39126989773e-05
2.37144358213e-05
2.35491565503e-05
2.34149467825e-05
2.33082889672e-05
2.32236742036e-05
2.31532069112e-05
2.30862339962e-05
2.3009042872e-05
2.29046820811e-05
2.27529697578e-05
2.25307625785e-05
2.22125659959e-05
2.1771570528e-05
2.11812006777e-05
2.04172527643e-05
1.94606640177e-05
1.83008763801e-05
1.69396459937e-05
1.53951695296e-05
1.37078602568e-05
1.1943481828e-05
5.43725744017e-05
5.42396232163e-05
5.3976185564e-05
5.35871909208e-05
5.30795917843e-05
5.24621038919e-05
5.17448576523e-05
5.09390353084e-05
5.00565246083e-05
4.91096005965e-05
4.81106530594e-05
4.70719592115e-05
4.60055089307e-05
4.49228729673e-05
4.38351139543e-05
4.27527239941e-05
4.16855848351e-05
4.06429323148e-05
3.96333227786e-05
3.86645864046e-05
3.77437718739e-05
3.68770741631e-05
3.60697587047e-05
3.53260804577e-05
3.46492177376e-05
3.40412218219e-05
3.35030027744e-05
3.30343482116e-05
3.26339893624e-05
3.2299701828e-05
3.2028446564e-05
3.18165297928e-05
3.16597818429e-05
3.15537307048e-05
3.14937711688e-05
3.14753087041e-05
3.14938843001e-05
3.15452655533e-05
3.16255159411e-05
3.17310326253e-05
3.1858567869e-05
3.20052263282e-05
3.21684522962e-05
3.23463412143e-05
3.25373934748e-05
3.27403212642e-05
3.2954025528e-05
3.31775677059e-05
3.34101461163e-05
3.36510680139e-05
3.38997267644e-05
3.41555759122e-05
3.44181084803e-05
3.46868334223e-05
3.49612565259e-05
3.52408581287e-05
3.55250742494e-05
3.58132741407e-05
3.61047403839e-05
3.63986452594e-05
3.66940292041e-05
3.69897759148e-05
3.72845898401e-05
3.75769716301e-05
3.78651975662e-05
3.81472998152e-05
3.84210541888e-05
3.86839737538e-05
3.89333158364e-05
3.91661021316e-05
3.93791598688e-05
3.95691838356e-05
3.97328253146e-05
3.98668039354e-05
3.9968041312e-05
4.00338028501e-05
4.0061835842e-05
4.00504829032e-05
3.99987591334e-05
3.99063803393e-05
3.97737280114e-05
3.96017549233e-05
3.93920368889e-05
3.91465411238e-05
3.88675243792e-05
3.85574441333e-05
3.82188824285e-05
3.78544800795e-05
3.74668835381e-05
3.70587010334e-05
3.6632470093e-05
3.61906323752e-05
3.57355173965e-05
3.52693311656e-05
3.47941514772e-05
3.43119262471e-05
3.38244768343e-05
3.33335030281e-05
3.28405917307e-05
3.23472262281e-05
3.18547980658e-05
3.13646185466e-05
3.08779317221e-05
3.03959258592e-05
2.99197449073e-05
2.94504967475e-05
2.89892593752e-05
2.85370821239e-05
2.80951060223e-05
2.76648408194e-05
2.72478384425e-05
2.68456879803e-05
2.64599996382e-05
2.60923730433e-05
2.57443477744e-05
2.54173299189e-05
2.51124910505e-05
2.48306329327e-05
2.45720146207e-05
2.43361373083e-05
2.4121487265e-05
2.39252385964e-05
2.37429251095e-05
2.35680953087e-05
2.33919747721e-05
2.32031676471e-05
2.29874405388e-05
2.27276403852e-05
2.24038087822e-05
2.19935630563e-05
2.14728246953e-05
2.08169848177e-05
2.00026079481e-05
1.90097818199e-05
1.78252108594e-05
1.64460919882e-05
1.48846728386e-05
1.3173240206e-05
1.13698962569e-05
9.5638872553e-06
5.23090096586e-05
5.21965618295e-05
5.19736814431e-05
5.16444306631e-05
5.1214531629e-05
5.06911657333e-05
5.00826933945e-05
4.93983578189e-05
4.86479997515e-05
4.78417935965e-05
4.69900232591e-05
4.61028978619e-05
4.51904156584e-05
4.42622659131e-05
4.33277680552e-05
4.23958305658e-05
4.147492501e-05
4.05730563947e-05
3.96977282205e-05
3.88558881676e-05
3.80538607795e-05
3.72972608506e-05
3.6590902935e-05
3.59387071468e-05
3.53436222977e-05
3.4807567712e-05
3.43314138047e-05
3.39149971359e-05
3.35571829549e-05
3.32559613461e-05
3.30085814716e-05
3.2811702225e-05
3.26615593809e-05
3.25541257705e-05
3.24852662316e-05
3.24508676532e-05
3.24469511587e-05
3.24697525211e-05
3.25157830073e-05
3.25818612694e-05
3.26651312251e-05
3.27630585392e-05
3.28734207155e-05
3.29943768197e-05
3.3124724621e-05
3.32634417382e-05
3.34096557744e-05
3.35626175183e-05
3.37216819578e-05
3.3886285651e-05
3.4055929186e-05
3.42301566106e-05
3.44085401151e-05
3.4590662121e-05
3.47761020568e-05
3.49644203774e-05
3.51551464377e-05
3.5347763387e-05
3.55416962415e-05
3.5736296973e-05
3.59308324501e-05
3.61244697678e-05
3.63162646295e-05
3.65051480714e-05
3.66899172029e-05
3.68692260827e-05
3.70415825828e-05
3.72053481907e-05
3.73587467925e-05
3.74998799696e-05
3.76267546355e-05
3.77373202838e-05
3.7829520243e-05
3.79013521607e-05
3.79509386609e-05
3.79765995114e-05
3.79769222689e-05
3.79508206513e-05
3.78975782195e-05
3.78168706322e-05
3.7708768247e-05
3.7573707149e-05
3.74123141183e-05
3.72256065376e-05
3.70147930907e-05
3.67812243419e-05
3.652635536e-05
3.62517098603e-05
3.59588490541e-05
3.56493435102e-05
3.53247515451e-05
3.49866009407e-05
3.46363764711e-05
3.42755097834e-05
3.39053740313e-05
3.35272799771e-05
3.31424759352e-05
3.27521484433e-05
3.23574259816e-05
3.19593827771e-05
3.15590449094e-05
3.11573958391e-05
3.07553833625e-05
3.03539250623e-05
2.99539138809e-05
2.95562206972e-05
2.91616951403e-05
2.87711617482e-05
2.83854751875e-05
2.80058858193e-05
2.76336716188e-05
2.72701260637e-05
2.69165342434e-05
2.65741331048e-05
2.62440542274e-05
2.59272435689e-05
2.5624355342e-05
2.53356143451e-05
2.50606446519e-05
2.47982614872e-05
2.45462282425e-05
2.43009819975e-05
2.405733826e-05
2.38081899663e-05
2.35442253344e-05
2.32536958211e-05
2.29222760755e-05
2.25330653992e-05
2.20667908345e-05
2.15022803812e-05
2.08172869019e-05
1.99897559437e-05
1.89996489547e-05
1.78314520406e-05
1.64775112047e-05
1.494230439e-05
1.32476326942e-05
1.14384602958e-05
9.58918125265e-06
7.80961233647e-06
5.05711867917e-05
5.04759657341e-05
5.0287193379e-05
5.0008264684e-05
4.96439469539e-05
4.92002122197e-05
4.86839998503e-05
4.81029665762e-05
4.74652485324e-05
4.67792433239e-05
4.60534300128e-05
4.52962261258e-05
4.4515889313e-05
4.37204521651e-05
4.29176886073e-05
4.21150930689e-05
4.13198675972e-05
4.05388979947e-05
3.97787183988e-05
3.90454514549e-05
3.83447323895e-05
3.76816123884e-05
3.70604584794e-05
3.64848511786e-05
3.5957501618e-05
3.54801893301e-05
3.50537401435e-05
3.46780387871e-05
3.4352088046e-05
3.40740995681e-05
3.38416202092e-05
3.36516721927e-05
3.35009075718e-05
3.33857544008e-05
3.33025573034e-05
3.32476938205e-05
3.32176743009e-05
3.32092120652e-05
3.32192761801e-05
3.32451175853e-05
3.32842832324e-05
3.3334610734e-05
3.33942179285e-05
3.34614791611e-05
3.35353142417e-05
3.36150062809e-05
3.36999403938e-05
3.37895857577e-05
3.38834827735e-05
3.39812259904e-05
3.4082451673e-05
3.41868220936e-05
3.42940148403e-05
3.44037095088e-05
3.45155790649e-05
3.46292785717e-05
3.47444378859e-05
3.48606515802e-05
3.49774722543e-05
3.50944011157e-05
3.52108816668e-05
3.53262909862e-05
3.54399342114e-05
3.55510373045e-05
3.56587435805e-05
3.57621096577e-05
3.58601062613e-05
3.59516200474e-05
3.60354618005e-05
3.61103774643e-05
3.61750670242e-05
3.6228207486e-05
3.62684840155e-05
3.62946244126e-05
3.63054392101e-05
3.62998608782e-05
3.6276982758e-05
3.62360906185e-05
3.61766880151e-05
3.60985103332e-05
3.60015312587e-05
3.58859576171e-05
3.57522241891e-05
3.56007361458e-05
3.54321812381e-05
3.52473324921e-05
3.50470330585e-05
3.48321780272e-05
3.46036960921e-05
3.43625308698e-05
3.4109627471e-05
3.38459202654e-05
3.35723246858e-05
3.3289729803e-05
3.29989944599e-05
3.27009438203e-05
3.2396368979e-05
3.20860265847e-05
3.17706409728e-05
3.14509058894e-05
3.11274881529e-05
3.08010304144e-05
3.04721551243e-05
3.01414668268e-05
2.98095545151e-05
2.94769910509e-05
2.91443311401e-05
2.88121053687e-05
2.84808096288e-05
2.81513275919e-05
2.78245784178e-05
2.7501478732e-05
2.7182912804e-05
2.68696873398e-05
2.65624696162e-05
2.62617038972e-05
2.59675039887e-05
2.56795171809e-05
2.53967585687e-05
2.51174138249e-05
2.48386136483e-05
2.45561844619e-05
2.42643869941e-05
2.39556582679e-05
2.36203814057e-05
2.32467135573e-05
2.28205120937e-05
2.23254061965e-05
2.17430712681e-05
2.1053772279e-05
2.02372553875e-05
1.927408248e-05
1.81475268266e-05
1.6846177563e-05
1.53674333205e-05
1.37220731896e-05
1.19400101917e-05
1.00770485772e-05
8.222078763e-06
6.5033509817e-06
4.90870685783e-05
4.90066708776e-05
4.88472642554e-05
4.86117013223e-05
4.83039685745e-05
4.79290376955e-05
4.74926568938e-05
4.70011347043e-05
4.64611394716e-05
4.58795208602e-05
4.52631699111e-05
4.46189148942e-05
4.39534595068e-05
4.32733498689e-05
4.25849675682e-05
4.18945286611e-05
4.12080836471e-05
4.0531499621e-05
3.98704252507e-05
3.92302270336e-05
3.86159070287e-05
3.80319989494e-05
3.74824612888e-05
3.69705694308e-05
3.64988288124e-05
3.60689098894e-05
3.56816236736e-05
3.53369314037e-05
3.50339992944e-05
3.47712827608e-05
3.45466437587e-05
3.43574797139e-05
3.42008651033e-05
3.4073683961e-05
3.39727568665e-05
3.38949446842e-05
3.38372373797e-05
3.37968151029e-05
3.37710939082e-05
3.37577468707e-05
3.37547149156e-05
3.37601996219e-05
3.37726516516e-05
3.37907449352e-05
3.38134134058e-05
3.38402368954e-05
3.38708611937e-05
3.39049809275e-05
3.394232936e-05
3.39826658163e-05
3.40257679545e-05
3.40714205009e-05
3.41194086195e-05
3.4169508465e-05
3.42214822287e-05
3.42750704942e-05
3.43299885014e-05
3.43859196365e-05
3.4442512315e-05
3.44993741547e-05
3.45560692862e-05
3.46121132419e-05
3.46669710173e-05
3.47200532374e-05
3.4770715834e-05
3.48182586046e-05
3.48619279098e-05
3.49009192308e-05
3.49343846678e-05
3.49614412801e-05
3.49811850177e-05
3.49927060103e-05
3.4995109305e-05
3.49875362366e-05
3.49691895054e-05
3.49393563384e-05
3.4897431987e-05
3.48429378189e-05
3.47755366576e-05
3.46950409038e-05
3.46014175206e-05
3.44947871957e-05
3.43754218461e-05
3.42437406837e-05
3.41000778606e-05
3.39448953544e-05
3.37787287171e-05
3.36021520824e-05
3.34157599415e-05
3.3220152651e-05
3.30159284951e-05
3.28036753489e-05
3.25839652005e-05
3.23573484779e-05
3.21243512754e-05
3.1885472406e-05
3.16411831236e-05
3.13919264587e-05
3.11381187826e-05
3.08801506608e-05
3.06183894315e-05
3.03531806604e-05
3.00848506449e-05
2.98137070907e-05
2.95400397242e-05
2.9264117779e-05
2.89861856309e-05
2.87064534102e-05
2.84250836931e-05
2.81424869753e-05
2.78591897175e-05
2.75756938073e-05
2.72924446061e-05
2.70097835616e-05
2.67278847315e-05
2.64466708474e-05
2.61657075336e-05
2.58840718116e-05
2.56001948469e-05
2.53116780452e-05
2.50150867215e-05
2.47057267734e-05
2.43774165343e-05
2.40222694016e-05
2.36305110621e-05
2.31903603e-05
2.26880114184e-05
2.21077626317e-05
2.14323446766e-05
2.06435126606e-05
1.97229782792e-05
1.86537772074e-05
1.7422195263e-05
1.6020417934e-05
1.44501247223e-05
1.27273047496e-05
1.08885574929e-05
8.9988813043e-06
7.16018104118e-06
5.51773547007e-06
4.77964166193e-05
4.77291155012e-05
4.75956604656e-05
4.73984386896e-05
4.71407637749e-05
4.68267379809e-05
4.64610638101e-05
4.60488541608e-05
4.55954635519e-05
4.51063447302e-05
4.45869461229e-05
4.40426452623e-05
4.34787228029e-05
4.29003614078e-05
4.23126652908e-05
4.1720678914e-05
4.11293997882e-05
4.05437667996e-05
3.99686260655e-05
3.94086640884e-05
3.88683202321e-05
3.83516766962e-05
3.78623459084e-05
3.74033577305e-05
3.69770687342e-05
3.65850937995e-05
3.62282782161e-05
3.59067030017e-05
3.56197337812e-05
3.53660972034e-05
3.51439885383e-05
3.49511892554e-05
3.47851962434e-05
3.46433417111e-05
3.45229080423e-05
3.44212205502e-05
3.43357268474e-05
3.42640503144e-05
3.4204029995e-05
3.41537376439e-05
3.4111486006e-05
3.40758207127e-05
3.40455102242e-05
3.40195278307e-05
3.3996881376e-05
3.39773070277e-05
3.39607054599e-05
3.39469947456e-05
3.39360967996e-05
3.39279293268e-05
3.39224031587e-05
3.39194155013e-05
3.39188471866e-05
3.39205567136e-05
3.3924378479e-05
3.39301181448e-05
3.39375517603e-05
3.39464220038e-05
3.39564377235e-05
3.3967270683e-05
3.39785553823e-05
3.39898863559e-05
3.40008185627e-05
3.40108656942e-05
3.40195017996e-05
3.40261614103e-05
3.40302433733e-05
3.40311138405e-05
3.40281134147e-05
3.40205640272e-05
3.40077802421e-05
3.39890804805e-05
3.3963802373e-05
3.39313173973e-05
3.38910483587e-05
3.38424844533e-05
3.37851969975e-05
3.37188505874e-05
3.36432130349e-05
3.35581597015e-05
3.34636765626e-05
3.33598586877e-05
3.32469092694e-05
3.31251351383e-05
3.29949436888e-05
3.28567219781e-05