/*--------------------------------*- C++ -*----------------------------------*\
| =========                 |                                                 |
| \\      /  F ield         | OpenFOAM: The Open Source CFD Toolbox           |
|  \\    /   O peration     | Version:  2206                                  |
|   \\  /    A nd           | Website:  www.openfoam.com                      |
|    \\/     M anipulation  |                                                 |
\*---------------------------------------------------------------------------*/
FoamFile
{
    version     2.0;
    format      ascii;
    arch        "LSB;label=64;scalar=64";
    class       surfaceScalarField;
    location    "4.6/water";
    object      phi.gas;
}
// * * * * * * * * * * * * * * * * * * * * * * * * * * * * * * * * * * * * * //

dimensions      [0 3 -1 0 0 0 0];

oriented        oriented;

internalField   nonuniform List<scalar> 
46280
(
-6.56586486571e-09
2.71970987111e-07
-9.76324605892e-11
2.71954783796e-07
-3.23259100774e-10
2.71881907875e-07
-5.77796426638e-10
2.71791821619e-07
-8.88085387989e-10
2.71687256136e-07
-1.26833857062e-09
2.71569137887e-07
-1.74114060456e-09
2.71439399967e-07
-2.30464932145e-09
2.71301487277e-07
-2.97477956613e-09
2.71158218553e-07
-3.74403896252e-09
2.71013757966e-07
-4.6224048644e-09
2.70871529525e-07
-5.59762962343e-09
2.70736061295e-07
-6.67315145739e-09
2.70610966904e-07
-7.8326465865e-09
2.70500516928e-07
-9.07378969328e-09
2.7040784325e-07
-1.03776396415e-08
2.7033624619e-07
-1.17381575251e-08
2.70287714165e-07
-1.31358404675e-08
2.70264026161e-07
-1.45633860827e-08
2.70265628214e-07
-1.60026764705e-08
2.70292583926e-07
-1.74471337716e-08
2.70343793479e-07
-1.88812729512e-08
2.70417812305e-07
-2.03003037518e-08
2.70512356307e-07
-2.1691705366e-08
2.70624979167e-07
-2.30525899445e-08
2.70752789543e-07
-2.43729277749e-08
2.70892964457e-07
-2.56511366264e-08
2.71042608249e-07
-2.6878711301e-08
2.71199085345e-07
-2.80544670445e-08
2.71359970744e-07
-2.91703959042e-08
2.71523201372e-07
-3.02249452208e-08
2.71687091474e-07
-3.12099435278e-08
2.71850318509e-07
-3.21232044416e-08
2.72011996057e-07
-3.29563259372e-08
2.72171520086e-07
-3.37067864755e-08
2.72328702622e-07
-3.43663879951e-08
2.72483507586e-07
-3.49329163917e-08
2.72636252327e-07
-3.53990145325e-08
2.72787260116e-07
-3.57634407722e-08
2.72937135362e-07
-3.60202038548e-08
2.7308635509e-07
-3.61691604379e-08
2.73235610574e-07
-3.6204726267e-08
2.73385318502e-07
-3.61286778643e-08
2.73536029841e-07
-3.59394657845e-08
2.73687975649e-07
-3.56401297047e-08
2.73841584897e-07
-3.52293763203e-08
2.7399691986e-07
-3.47116815167e-08
2.74154161825e-07
-3.40873163041e-08
2.7431305761e-07
-3.33620876995e-08
2.74473480459e-07
-3.25376197762e-08
2.74634853846e-07
-3.16208251928e-08
2.74796734106e-07
-3.06144669651e-08
2.7495821395e-07
-2.95263516085e-08
2.75118519419e-07
-2.83601780906e-08
2.75276400292e-07
-2.71244512681e-08
2.75430735529e-07
-2.58236149376e-08
2.75579918877e-07
-2.44666986924e-08
2.75722469405e-07
-2.30587230818e-08
2.75856422136e-07
-2.16091130796e-08
2.75979943918e-07
-2.01233546827e-08
2.76090742156e-07
-1.86112307875e-08
2.76186690884e-07
-1.70786995573e-08
2.7626527483e-07
-1.55360274511e-08
2.76324236726e-07
-1.39898397437e-08
2.76361079199e-07
-1.24512372724e-08
2.76373750873e-07
-1.09279343811e-08
2.76360236143e-07
-9.43244698403e-09
2.76319310232e-07
-7.97416952698e-09
2.76250266855e-07
-6.56765215381e-09
2.76153806381e-07
-5.22418140633e-09
2.76032001173e-07
-3.95948205216e-09
2.75889446434e-07
-2.78242808054e-09
2.75733606966e-07
-1.69640898209e-09
2.75576251184e-07
-6.71159520344e-10
2.75433514803e-07
3.42892596205e-10
2.75324137766e-07
1.3389990766e-09
2.75262220137e-07
2.25703678481e-09
2.75253219382e-07
3.11222044348e-09
2.75298057647e-07
3.97004390234e-09
2.75388705628e-07
4.88481285945e-09
2.75506855376e-07
5.86402879759e-09
2.75634547565e-07
6.90388255013e-09
2.75757682564e-07
7.98988749285e-09
2.75866517937e-07
9.11111858954e-09
2.75954392164e-07
1.02519584028e-08
2.76017481898e-07
1.1402306712e-08
2.76053668845e-07
1.25485506607e-08
2.76062633334e-07
1.36825527593e-08
2.76044920148e-07
1.47930051542e-08
2.76002229119e-07
1.58736066446e-08
2.75936567686e-07
1.69150402422e-08
2.75850657615e-07
1.79124507164e-08
2.75747138718e-07
1.88581079316e-08
2.75629061989e-07
1.97482481454e-08
2.75499136835e-07
2.0576413454e-08
2.75360291273e-07
2.13397032098e-08
2.75214957891e-07
2.20327438774e-08
2.75065681305e-07
2.26533936126e-08
2.74914437032e-07
2.31972840907e-08
2.74763266769e-07
2.36630199727e-08
2.74613624694e-07
2.40472335258e-08
2.74467023268e-07
2.43493204778e-08
2.74324402445e-07
2.45669543903e-08
2.74186771537e-07
2.4700398969e-08
2.74054598351e-07
2.47484352633e-08
2.73928435226e-07
2.47122610335e-08
2.7380832669e-07
2.45916101805e-08
2.73694421507e-07
2.43884340235e-08
2.73586470404e-07
2.41033591058e-08
2.73484458944e-07
2.37390717953e-08
2.73387931687e-07
2.32970290428e-08
2.73296526882e-07
2.27805475488e-08
2.73209541201e-07
2.21920420407e-08
2.73126465244e-07
2.15356065043e-08
2.73046505735e-07
2.08144933685e-08
2.72969083625e-07
2.00333978511e-08
2.72893396573e-07
1.91961819262e-08
2.72818893333e-07
1.83078644697e-08
2.72744883037e-07
1.73725706644e-08
2.72670989328e-07
1.63952333586e-08
2.72596812927e-07
1.53797652384e-08
2.72522368155e-07
1.433050652e-08
2.72447801146e-07
1.32506705608e-08
2.72373802058e-07
1.21436565807e-08
2.72301363243e-07
1.10119395587e-08
2.72232131036e-07
9.8584995612e-09
2.72168145766e-07
8.68644778498e-09
2.72112046761e-07
7.50085058973e-09
2.7206668944e-07
6.30922599702e-09
2.72035097023e-07
5.12364237933e-09
2.72019882344e-07
3.96154021503e-09
2.72022949394e-07
2.84723341929e-09
2.72044837283e-07
1.81205032758e-09
2.72084408459e-07
8.94719961425e-10
2.72138436735e-07
1.41433740786e-10
2.72201603703e-07
-3.92396004917e-10
2.72266543602e-07
-6.40825636588e-10
2.72324241725e-07
-5.45988964059e-10
2.72365114958e-07
-8.36206164936e-09
2.72372813928e-07
2.72340543372e-07
-3.86465270982e-09
2.2287348168e-07
-7.17901531621e-10
2.22917794653e-07
-1.07260369222e-09
2.22947449828e-07
-1.46145851883e-09
2.22987439419e-07
-1.88901113334e-09
2.23038624608e-07
-2.36028346291e-09
2.23100214165e-07
-2.88502196421e-09
2.23171173742e-07
-3.46517865803e-09
2.23250575517e-07
-4.10717984024e-09
2.23337060652e-07
-4.80988955001e-09
2.23429285737e-07
-5.57676223116e-09
2.23525511313e-07
-6.40419664103e-09
2.23624047276e-07
-7.292899942e-09
2.23722872861e-07
-8.2373139082e-09
2.23820061238e-07
-9.23584509595e-09
2.23913441406e-07
-1.02815508692e-08
2.24000961652e-07
-1.13711892569e-08
2.24080429048e-07
-1.24970003616e-08
2.2414980177e-07
-1.36547103693e-08
2.24207014182e-07
-1.48361772322e-08
2.24250201218e-07
-1.60365313857e-08
2.24277608203e-07
-1.72475002638e-08
2.24287749417e-07
-1.8463851235e-08
2.24279394266e-07
-1.96772667124e-08
2.24251654742e-07
-2.0882224078e-08
2.2420402841e-07
-2.20703280797e-08
2.2413640124e-07
-2.32357377487e-08
2.24049122342e-07
-2.43698969167e-08
2.23942907961e-07
-2.546661977e-08
2.23818928233e-07
-2.65171879548e-08
2.23678611069e-07
-2.75152002752e-08
2.23523741251e-07
-2.84520051529e-08
2.23356184653e-07
-2.93213821467e-08
2.23178020046e-07
-3.01152408346e-08
2.22991217636e-07
-3.0828139667e-08
2.22797829242e-07
-3.14531535049e-08
2.22599649246e-07
-3.19862053338e-08
2.22398474627e-07
-3.24220213972e-08
2.22195758294e-07
-3.27582632491e-08
2.21992933169e-07
-3.29915572091e-08
2.21791053733e-07
-3.31214222366e-08
2.21591174341e-07
-3.31457011884e-08
2.21393951966e-07
-3.30656132753e-08
2.21200276879e-07
-3.28818376673e-08
2.21010656859e-07
-3.25969923042e-08
2.20825519747e-07
-3.22126439067e-08
2.20644977003e-07
-3.17327401939e-08
2.20469279975e-07
-3.11600602816e-08
2.20298385169e-07
-3.04995771158e-08
2.20132423214e-07
-2.97550814672e-08
2.19971249561e-07
-2.89323812843e-08
2.1981492472e-07
-2.80361033872e-08
2.19663255707e-07
-2.70727155493e-08
2.19516282891e-07
-2.60475131e-08
2.19373815395e-07
-2.49674506446e-08
2.19235921548e-07
-2.38383152534e-08
2.19102461752e-07
-2.26673601902e-08
2.18973580385e-07
-2.14606622009e-08
2.18849239123e-07
-2.02255553714e-08
2.18729708952e-07
-1.89681667486e-08
2.18615106257e-07
-1.76956563325e-08
2.18505883743e-07
-1.64139220679e-08
2.18402370419e-07
-1.51296579567e-08
2.18305260406e-07
-1.38482091703e-08
2.18215156823e-07
-1.25754547865e-08
2.18133056274e-07
-1.13157618057e-08
2.18059892118e-07
-1.00736626037e-08
2.17997005074e-07
-8.8517761507e-09
2.17945664848e-07
-7.65214909592e-09
2.17907487881e-07
-6.47381892525e-09
2.17883863116e-07
-5.31341074928e-09
2.1787618901e-07
-4.16158565475e-09
2.17884976038e-07
-3.00238869788e-09
2.17909515066e-07
-1.81135535789e-09
2.1794604173e-07
-5.76069144483e-10
2.17986598895e-07
6.63817273932e-10
2.18020908237e-07
1.85534501248e-09
2.18042379314e-07
2.97243401921e-09
2.18053544938e-07
4.01643118867e-09
2.18065633162e-07
5.01681882441e-09
2.18087820691e-07
5.99400983258e-09
2.18124082588e-07
6.96076533198e-09
2.18174887751e-07
7.92254476418e-09
2.18239443396e-07
8.88216496574e-09
2.1831610358e-07
9.83888074036e-09
2.18403341527e-07
1.07916445686e-08
2.1849947013e-07
1.17372852643e-08
2.18603221043e-07
1.26731311703e-08
2.18713271473e-07
1.35949303597e-08
2.18828734908e-07
1.44991899332e-08
2.18948650832e-07
1.53811045466e-08
2.19072461783e-07
1.62367292428e-08
2.19199502565e-07
1.70610096784e-08
2.19329473949e-07
1.78498140784e-08
2.19461937513e-07
1.85980911156e-08
2.19596783901e-07
1.93017612529e-08
2.19733735667e-07
1.99560050649e-08
2.19872807636e-07
2.0557012626e-08
2.20013820648e-07
2.11003985488e-08
2.20156852462e-07
2.15828108157e-08
2.20301765409e-07
2.2000465677e-08
2.20448646247e-07
2.23506203495e-08
2.20597350449e-07
2.26302213325e-08
2.20747929907e-07
2.28372470495e-08
2.20900196762e-07
2.29694641712e-08
2.21054138731e-07
2.30256683724e-08
2.21209506853e-07
2.30046767574e-08
2.21366214337e-07
2.29064617412e-08
2.21523917881e-07
2.27304386948e-08
2.21682429032e-07
2.24769330726e-08
2.2184132682e-07
2.21464890106e-08
2.2200031589e-07
2.17406382779e-08
2.22158863693e-07
2.12610464811e-08
2.22316529136e-07
2.07103416459e-08
2.2247263013e-07
2.00913744468e-08
2.22626551988e-07
1.94079542362e-08
2.22777432073e-07
1.86641858726e-08
2.22924437985e-07
1.78650956249e-08
2.23066470264e-07
1.70160166849e-08
2.23202412493e-07
1.61230752351e-08
2.23330859621e-07
1.51925874078e-08
2.23450351841e-07
1.42313769512e-08
2.23559147772e-07
1.32461659215e-08
2.23655465257e-07
1.22437424418e-08
2.23737325717e-07
1.12304091945e-08
2.23802823071e-07
1.02121306367e-08
2.2385005017e-07
9.19423059809e-09
2.23877387049e-07
8.18175517118e-09
2.23883478807e-07
7.1796441205e-09
2.23867490844e-07
6.19346963696e-09
2.23829075349e-07
5.23006213431e-09
2.23768535268e-07
4.29841167231e-09
2.23686747061e-07
3.41032577493e-09
2.23585246068e-07
2.58106304997e-09
2.23466175011e-07
1.82984662102e-09
2.23332424819e-07
1.18105580361e-09
2.23187797715e-07
6.67377618346e-10
2.23037484163e-07
3.46297423367e-10
2.22889282055e-07
-4.49328409124e-09
2.22749846895e-07
2.22614418309e-07
-4.10959014716e-09
2.31336123289e-07
-8.14156606603e-10
2.31366639999e-07
-1.20021640078e-09
2.31406110209e-07
-1.62352268927e-09
2.31453972848e-07
-2.09084006336e-09
2.31513792586e-07
-2.60650400818e-09
2.31585750625e-07
-3.1796293147e-09
2.31669484964e-07
-3.81278721172e-09
2.31764525475e-07
-4.51170104633e-09
2.31870184845e-07
-5.27523033186e-09
2.3198564899e-07
-6.1054742402e-09
2.32109769784e-07
-6.99817189194e-09
2.32241230149e-07
-7.95219090735e-09
2.32378341327e-07
-8.960868518e-09
2.32519177126e-07
-1.00206391233e-08
2.32661435477e-07
-1.11233255118e-08
2.32802562131e-07
-1.22639184535e-08
2.32939681269e-07
-1.34336422654e-08
2.3306972258e-07
-1.4626963198e-08
2.33189433101e-07
-1.58352298287e-08
2.33295507107e-07
-1.70530251146e-08
2.33384675641e-07
-1.82722278329e-08
2.33453826111e-07
-1.94878266441e-08
2.33500147821e-07
-2.06923089713e-08
2.33521215667e-07
-2.18810407633e-08
2.33515157635e-07
-2.30469271358e-08
2.33480670064e-07
-2.41854536285e-08
2.33417169089e-07
-2.52896033555e-08
2.33324709165e-07
-2.63546643776e-08
2.33204092309e-07
-2.7373415517e-08
2.33056681669e-07
-2.83408034143e-08
2.32884468311e-07
-2.92494055832e-08
2.32689801413e-07
-3.00940368197e-08
2.3247544104e-07
-3.08674475171e-08
2.32244248168e-07
-3.15648489768e-08
2.31999262495e-07
-3.21797631591e-08
2.31743394127e-07
-3.27084156881e-08
2.31479553443e-07
-3.31456593502e-08
2.31210366345e-07
-3.34891957451e-08
2.3093836068e-07
-3.37355470503e-08
2.30665707011e-07
-3.38842007755e-08
2.30394451824e-07
-3.39318939737e-08
2.30126272872e-07
-3.38795774683e-08
2.29862754576e-07
-3.37283424541e-08
2.29605139874e-07
-3.34805101958e-08
2.2935466508e-07
-3.31372604596e-08
2.29112172159e-07
-3.27021297234e-08
2.28878492069e-07
-3.21774560939e-08
2.28654206403e-07
-3.1567729691e-08
2.28439927574e-07
-3.08762405015e-08
2.28236055788e-07
-3.01082274361e-08
2.2804305366e-07
-2.92677444016e-08
2.27861201335e-07
-2.83605876647e-08
2.27690862909e-07
-2.73913904125e-08
2.27532241126e-07
-2.63663118865e-08
2.2738563402e-07
-2.52903647089e-08
2.27251191116e-07
-2.41698558977e-08
2.27129159539e-07
-2.30099459704e-08
2.27019643335e-07
-2.18168393519e-08
2.26922838815e-07
-2.05955703536e-08
2.2683879844e-07
-1.93519486439e-08
2.26767655483e-07
-1.80905627684e-08
2.2670939315e-07
-1.68164920301e-08
2.26664058409e-07
-1.55335083477e-08
2.26631535587e-07
-1.42455629412e-08
2.26611746938e-07
-1.29551433703e-08
2.26604424967e-07
-1.16645255496e-08
2.26609290397e-07
-1.03742022589e-08
2.26625806639e-07
-9.08386378952e-09
2.26653312336e-07
-7.79076639425e-09
2.26690724039e-07
-6.49041985097e-09
2.26736581723e-07
-5.1749494639e-09
2.26788645005e-07
-3.83458488415e-09
2.26843798911e-07
-2.45994540393e-09
2.26897586378e-07
-1.05243636024e-09
2.26944540859e-07
3.45572934699e-10
2.26978946222e-07
1.69669396358e-09
2.27000020098e-07
2.99103076567e-09
2.27007894033e-07
4.21457623499e-09
2.27006353174e-07
5.37491950637e-09
2.27003506344e-07
6.48494469776e-09
2.27003626233e-07
7.55593172312e-09
2.27009840787e-07
8.59497142478e-09
2.27024059927e-07
9.60736258384e-09
2.27047322009e-07
1.05954039482e-08
2.27080264158e-07
1.15607938132e-08
2.27123122129e-07
1.25031621566e-08
2.27176054641e-07
1.34222142696e-08
2.27239016418e-07
1.43160706135e-08
2.27312004832e-07
1.51832425199e-08
2.27394877851e-07
1.60209263968e-08
2.27487570524e-07
1.68268687661e-08
2.27589893032e-07
1.75976972306e-08
2.27701737403e-07
1.83306906491e-08
2.27822870254e-07
1.90221845396e-08
2.27953135923e-07
1.96692436714e-08
2.28092249856e-07
2.02681569665e-08
2.2823999909e-07
2.08160066061e-08
2.28396038922e-07
2.13092572755e-08
2.28560089701e-07
2.1745216686e-08
2.28731738124e-07
2.21207192087e-08
2.28910628784e-07
2.2433476179e-08
2.2909627093e-07
2.26808526428e-08
2.29288223345e-07
2.28611090803e-08
2.29485907662e-07
2.29722736226e-08
2.29688785844e-07
2.30132867646e-08
2.29896180827e-07
2.29830365168e-08
2.30107445e-07
2.28816153386e-08
2.30321796027e-07
2.27084602839e-08
2.30538507799e-07
2.24638727658e-08
2.30756694489e-07
2.21484075653e-08
2.30975432844e-07
2.17635307956e-08
2.3119362621e-07
2.13108514609e-08
2.31410136408e-07
2.07928837362e-08
2.31623631415e-07
2.0212354148e-08
2.31832705501e-07
1.95728620724e-08
2.32035737299e-07
1.88782406697e-08
2.32231001102e-07
1.81330890585e-08
2.32416541588e-07
1.73421547941e-08
2.32590286748e-07
1.65107086143e-08
2.32749954984e-07
1.56439223365e-08
2.32893189425e-07
1.47470807295e-08
2.33017520533e-07
1.38249756454e-08
2.33120543795e-07
1.28820238903e-08
2.33199953484e-07
1.19217984005e-08
2.33253764664e-07
1.09472326093e-08
2.33280397752e-07
9.96051134981e-09
2.33278897761e-07
8.96359798871e-09
2.33248997625e-07
7.95867339544e-09
2.33191246987e-07
6.94908232418e-09
2.33106969042e-07
5.94022578272e-09
2.32998240022e-07
4.94065228687e-09
2.32867730558e-07
3.96292964909e-09
2.32718593203e-07
3.02441174662e-09
2.32554315051e-07
2.14783086332e-09
2.32378690848e-07
1.36263009316e-09
2.32195870933e-07
7.10499870026e-10
2.32010531287e-07
2.51740179541e-10
2.31828020313e-07
-5.24144107086e-09
2.31649883689e-07
2.31529552539e-07
-4.02133938381e-09
2.30288260029e-07
-8.53489619672e-10
2.30312923249e-07
-1.2898268895e-09
2.30362417549e-07
-1.7556914535e-09
2.30430040745e-07
-2.26522831889e-09
2.30516825554e-07
-2.82441003531e-09
2.30622425133e-07
-3.44231442292e-09
2.30746072651e-07
-4.12168128816e-09
2.30886736216e-07
-4.86797091639e-09
2.31043108196e-07
-5.68018715929e-09
2.31213619075e-07
-6.55982617938e-09
2.31396395918e-07
-7.50241476355e-09
2.31589201557e-07
-8.50598075809e-09
2.31789414255e-07
-9.56332127263e-09
2.31994018067e-07
-1.06698585567e-08
2.32199599107e-07
-1.18166875842e-08
2.32402370047e-07
-1.29977704718e-08
2.32598231824e-07
-1.42035985688e-08
2.32782827256e-07
-1.54277820377e-08
2.32951676575e-07
-1.6661129448e-08
2.33100254215e-07
-1.78977171486e-08
2.33224187996e-07
-1.91292418052e-08
2.33319340809e-07
-2.03506554591e-08
2.3338204817e-07
-2.15547055012e-08
2.33409173816e-07
-2.27372146527e-08
2.33398347315e-07
-2.38917693678e-08
2.33347954447e-07
-2.50147260884e-08
2.33257332555e-07
-2.61000542757e-08
2.33126660976e-07
-2.71441689553e-08
2.32957084257e-07
-2.81409688605e-08
2.32750491554e-07
-2.908659664e-08
2.32509569593e-07
-2.99747058751e-08
2.32237496505e-07
-3.08012050543e-08
2.31937960605e-07
-3.1559734274e-08
2.31614820811e-07
-3.22463744376e-08
2.31272141137e-07
-3.28552654133e-08
2.30913868556e-07
-3.33832175144e-08
2.30543917923e-07
-3.38254047497e-08
2.30165894037e-07
-3.41798215682e-08
2.29783234602e-07
-3.44430244024e-08
2.29398977447e-07
-3.46145214144e-08
2.29015947269e-07
-3.46907328969e-08
2.28636588537e-07
-3.46721656171e-08
2.28263061721e-07
-3.45594353554e-08
2.27897204734e-07
-3.43550429418e-08
2.2754086863e-07
-3.40596458504e-08
2.27195403989e-07
-3.36762682744e-08
2.26862084702e-07
-3.32066068489e-08
2.26541939769e-07
-3.2654513894e-08
2.26235965768e-07
-3.20225341956e-08
2.25944961584e-07
-3.13151511773e-08
2.25669727772e-07
-3.05355780726e-08
2.25410902675e-07
-2.96887455851e-08
2.25169145882e-07
-2.87783578908e-08
2.24944976088e-07
-2.78096067162e-08
2.24738937811e-07
-2.67864958568e-08
2.24551442024e-07
-2.57142755119e-08
2.24382915982e-07
-2.45970328189e-08
2.24233647501e-07
-2.34398491941e-08
2.24103918336e-07
-2.22466494309e-08
2.23993852871e-07
-2.10220942392e-08
2.23903535764e-07
-1.97696761633e-08
2.23832865476e-07
-1.84933666956e-08
2.23781657125e-07
-1.71959400062e-08
2.23749500723e-07
-1.58803961224e-08
2.23735849245e-07
-1.45484795203e-08
2.23739878777e-07
-1.32018965602e-08
2.2376055824e-07
-1.18409798454e-08
2.23796502956e-07
-1.04657280814e-08
2.23846015741e-07
-9.074586929e-09
2.23906918478e-07
-7.66546578636e-09
2.23976551792e-07
-6.23494951113e-09
2.24051579271e-07
-4.78040434915e-09
2.24127985537e-07
-3.30162396064e-09
2.24201029631e-07
-1.80623848158e-09
2.24265690301e-07
-3.20642101326e-10
2.24317525134e-07
1.11931036785e-09
2.24356350643e-07
2.51298297629e-09
2.24383264692e-07
3.85913362033e-09
2.24398262897e-07
5.14511208661e-09
2.24405954437e-07
6.37552361667e-09
2.24412699807e-07
7.55570371052e-09
2.24422121754e-07
8.6898466233e-09
2.24437400059e-07
9.78191042462e-09
2.24460981425e-07
1.08340137521e-08
2.2449480264e-07
1.18482586927e-08
2.24540314372e-07
1.28251648748e-08
2.24598646958e-07
1.37655125102e-08
2.24670595253e-07
1.46687107755e-08
2.24756750602e-07
1.55345921638e-08
2.24857455234e-07
1.63617679566e-08
2.24972916697e-07
1.71493689008e-08
2.25103146198e-07
1.78954338591e-08
2.25248064592e-07
1.859858909e-08
2.25407432162e-07
1.92564991733e-08
2.25580949643e-07
1.9867474059e-08
2.25768183294e-07
2.04289976795e-08
2.25968662029e-07
2.09392518907e-08
2.26181799801e-07
2.13957300493e-08
2.26406988707e-07
2.17966691507e-08
2.26643519747e-07
2.21397508084e-08
2.26890671058e-07
2.24234360239e-08
2.27147627663e-07
2.26457543735e-08
2.27413564214e-07
2.28055397216e-08
2.27687564597e-07
2.29013090308e-08
2.27968698949e-07
2.29323988722e-08
2.28255944205e-07
2.28980092972e-08
2.28548256273e-07
2.27985899436e-08
2.28844497432e-07
2.26337437353e-08
2.29143532044e-07
2.24038240946e-08
2.29444105418e-07
2.21094484594e-08
2.29744861531e-07
2.17520553469e-08
2.30044287965e-07
2.13331359618e-08
2.30340763468e-07
2.08549907426e-08
2.30632481811e-07
2.0320022633e-08
2.30917493425e-07
1.97313793063e-08
2.31193636474e-07
1.90922925457e-08
2.3145858024e-07
1.84065846691e-08
2.31709773733e-07
1.76780282341e-08
2.31944504555e-07
1.6910698328e-08
2.32159882915e-07
1.6108343154e-08
2.32352936458e-07
1.52745980091e-08
2.32520650604e-07
1.44124109845e-08
2.32660116091e-07
1.35242084911e-08
2.32768632508e-07
1.26115077935e-08
2.32843898985e-07
1.16752087466e-08
2.328841496e-07
1.07155875528e-08
2.32888332254e-07
9.73290220588e-09
2.32856201275e-07
8.72789475628e-09
2.32788401367e-07
7.7027533593e-09
2.32686442826e-07
6.66199976669e-09
2.32552645267e-07
5.61354087738e-09
2.32389999538e-07
4.56949944298e-09
2.32202043479e-07
3.54687246516e-09
2.31992755388e-07
2.56785970838e-09
2.31766583659e-07
1.66038185975e-09
2.31528663279e-07
8.6162533845e-10
2.31285343867e-07
2.18790442893e-10
2.31044879127e-07
-5.26201631599e-09
2.30815090898e-07
2.30698601705e-07
-4.0528586473e-09
2.30978599877e-07
-8.97830638055e-10
2.31006949108e-07
-1.37629580467e-09
2.31067313392e-07
-1.88398676371e-09
2.3115220452e-07
-2.43569481748e-09
2.31262591401e-07
-3.03863995553e-09
2.31397740292e-07
-3.70212587783e-09
2.31556539011e-07
-4.42904305828e-09
2.31737459719e-07
-5.22460872307e-09
2.31938681416e-07
-6.08767063511e-09
2.3215798567e-07
-7.01932172103e-09
2.32392747513e-07
-8.01474387658e-09
2.32639908209e-07
-9.07128165893e-09
2.32895953887e-07
-1.01811652773e-08
2.33156881891e-07
-1.13389663803e-08
2.33418250781e-07
-1.25350445974e-08
2.33675183877e-07
-1.37624707085e-08
2.3392248275e-07
-1.50109796729e-08
2.34154679351e-07
-1.62734187084e-08
2.34366216493e-07
-1.7540003697e-08
2.34551536878e-07
-1.88043525236e-08
2.34705319367e-07
-2.00578982494e-08
2.34822580398e-07
-2.12955669712e-08
2.34898938315e-07
-2.25102629937e-08
2.34930690418e-07
-2.36982491744e-08
2.34915063659e-07
-2.48536739832e-08
2.34850222316e-07
-2.59737262471e-08
2.34735458635e-07
-2.70532299706e-08
2.34571091984e-07
-2.80896723226e-08
2.34358568331e-07
-2.90779320832e-08
2.34100239554e-07
-3.00152833807e-08
2.33799376671e-07
-3.0896315839e-08
2.33459859175e-07
-3.17179666269e-08
2.33086145087e-07
-3.24746326185e-08
2.32682929118e-07
-3.31632045169e-08
2.32255126416e-07
-3.37783180824e-08
2.31807555917e-07
-3.43173150204e-08
2.31344977577e-07
-3.47755775583e-08
2.30871830344e-07
-3.51513444424e-08
2.3039233221e-07
-3.54411140244e-08
2.29910273667e-07
-3.56442618235e-08
2.29429166575e-07
-3.57573273275e-08
2.28952074328e-07
-3.57799849643e-08
2.28481674744e-07
-3.57117406733e-08
2.28020404836e-07
-3.55556981504e-08
2.27570608826e-07
-3.53118948749e-08
2.27134087094e-07
-3.49828034776e-08
2.26712507837e-07
-3.45694034782e-08
2.26307281407e-07
-3.40748837805e-08
2.25919734629e-07
-3.35009859053e-08
2.25550988715e-07
-3.28514316574e-08
2.25202119078e-07
-3.21285617636e-08
2.24874032816e-07
-3.13364655638e-08
2.24567610462e-07
-3.04779238538e-08
2.24283583179e-07
-2.9557229062e-08
2.24022656294e-07
-2.85774342508e-08
2.23785387085e-07
-2.75428626253e-08
2.23572290577e-07
-2.64566573185e-08
2.23383718838e-07
-2.53229893066e-08
2.23219950207e-07
-2.41448967602e-08
2.23081071209e-07
-2.29262103149e-08
2.22967051029e-07
-2.16696660585e-08
2.2287762728e-07
-2.03785750067e-08
2.22812368314e-07
-1.9055187501e-08
2.22770564301e-07
-1.77021379915e-08
2.22751280083e-07
-1.6321029395e-08
2.22753252085e-07
-1.49136873302e-08
2.2277493304e-07
-1.34809285094e-08
2.2281439268e-07
-1.20236833345e-08
2.22869353353e-07
-1.05419562059e-08
2.22937092344e-07
-9.03601667761e-09
2.23014474719e-07
-7.50583729899e-09
2.23097880562e-07
-5.9530635129e-09
2.23183306297e-07
-4.38174222878e-09
2.23266474394e-07
-2.801545984e-09
2.23343291591e-07
-1.22618982117e-09
2.23410546089e-07
3.10564006112e-10
2.23465987314e-07
1.79542048997e-09
2.23514041367e-07
3.24102619857e-09
2.23554131081e-07
4.63931421442e-09
2.23585080625e-07
5.98032025166e-09
2.2361332538e-07
7.26612734609e-09
2.23642677763e-07
8.4978525165e-09
2.23676471071e-07
9.67751788939e-09
2.23717583893e-07
1.08061226241e-08
2.23768515447e-07
1.18852316813e-08
2.23831341254e-07
1.29153088203e-08
2.23907795453e-07
1.38973941338e-08
2.23999248468e-07
1.48314291601e-08
2.24106788735e-07
1.57179534369e-08
2.24231197716e-07
1.65564381255e-08
2.24373026323e-07
1.73469690533e-08
2.24532567694e-07
1.80886144144e-08
2.24709931365e-07
1.87810724949e-08
2.24905012614e-07
1.94230974021e-08
2.25117564285e-07
2.00140941367e-08
2.25347162963e-07
2.05526175651e-08
2.25593277988e-07
2.10378997406e-08
2.25855234651e-07
2.14684305076e-08
2.26132279448e-07
2.18434049382e-08
2.26423540156e-07
2.21613897048e-08
2.26728086121e-07
2.24216819184e-08
2.27044885079e-07
2.26230631143e-08
2.27372857613e-07
2.27650641605e-08
2.27710831036e-07
2.28468075918e-08
2.28057587829e-07
2.28681749277e-08
2.28411817549e-07
2.28288319924e-08
2.28772160314e-07
2.27297724542e-08
2.29137162711e-07
2.2570908801e-08
2.2950535503e-07
2.23527275339e-08
2.29875162597e-07
2.20760066548e-08
2.30244866924e-07
2.17422631146e-08
2.30612587771e-07
2.13529468687e-08
2.30976305531e-07
2.09102127988e-08
2.31333808665e-07
2.04161767372e-08
2.31682714197e-07
1.98735644003e-08
2.32020423497e-07
1.92850141224e-08
2.32344150397e-07
1.86535859471e-08
2.32650897652e-07
1.79820936143e-08
2.32937507713e-07
1.72734660398e-08
2.33200677648e-07
1.65301123022e-08
2.33437051269e-07
1.57541651971e-08
2.3364328923e-07
1.49469349353e-08
2.33816212862e-07
1.41091304107e-08
2.33952928248e-07
1.32405279586e-08
2.34051003844e-07
1.23403261161e-08
2.3410861023e-07
1.14071898891e-08
2.34124673472e-07
1.04398841219e-08
2.34098958509e-07
9.43777741843e-09
2.34032123689e-07
8.40176870366e-09
2.33925686475e-07
7.33512713261e-09
2.33781951079e-07
6.24448784098e-09
2.33603880166e-07
5.14064583079e-09
2.33394988095e-07
4.03919859256e-09
2.33159298614e-07
2.96081288201e-09
2.32901482215e-07
1.93140731192e-09
2.32627280468e-07
9.83483429301e-10
2.32344382719e-07
1.57006074119e-10
2.32063859072e-07
-5.18676694948e-09
2.31798971084e-07
2.31683675464e-07
-4.08818404284e-09
2.31429816517e-07
-9.44607665217e-10
2.3146478506e-07
-1.46082979979e-09
2.31538029421e-07
-2.00744143162e-09
2.31642474866e-07
-2.59905012931e-09
2.31778963844e-07
-3.243457497e-09
2.31946376665e-07
-3.9503441759e-09
2.32143115976e-07
-4.72264495667e-09
2.32367123751e-07
-5.56547479254e-09
2.32615853115e-07
-6.47764582102e-09
2.32886281709e-07
-7.45983501533e-09
2.33174922249e-07
-8.50695407302e-09
2.33477733851e-07
-9.61578867667e-09
2.3379015945e-07
-1.07780769918e-08
2.3410711366e-07
-1.19876794231e-08
2.34423033044e-07
-1.32343211337e-08
2.34731927207e-07
-1.45103109369e-08
2.35027492237e-07
-1.58047306796e-08
2.35303213243e-07
-1.71097671577e-08
2.35552542774e-07
-1.84151226423e-08
2.35769040252e-07
-1.97140127308e-08
2.35946599668e-07
-2.09976364596e-08
2.36079599392e-07
-2.22608834192e-08
2.36163148513e-07
-2.34967732714e-08
2.36193207583e-07
-2.47019172796e-08
2.36166809255e-07
-2.58709051561e-08
2.36082102074e-07
-2.70015882343e-08
2.35938497614e-07
-2.80894584294e-08
2.35736597299e-07
-2.91328521511e-08
2.35478236427e-07
-3.01274102775e-08
2.35166285275e-07
-3.10713029554e-08
2.34804599834e-07
-3.19598480259e-08
2.34397732087e-07
-3.27908014977e-08
2.33950836101e-07
-3.35591511942e-08
2.33469350646e-07
-3.42624359248e-08
2.32958921576e-07
-3.48956758757e-08
2.32425115317e-07
-3.5456633798e-08
2.31873398978e-07
-3.59408388613e-08
2.31308914368e-07
-3.63467052667e-08
2.30736525465e-07
-3.66706468538e-08
2.3016065311e-07
-3.69119908959e-08
2.29585376259e-07
-3.70676986807e-08
2.29014301125e-07
-3.71360503601e-08
2.28450470992e-07
-3.71154356274e-08
2.27896873671e-07
-3.70097458838e-08
2.27356254831e-07
-3.68184486367e-08
2.268307934e-07
-3.65434834072e-08
2.2632248366e-07
-3.61851676488e-08
2.25833054355e-07
-3.57460547076e-08
2.25364101836e-07
-3.52271465658e-08
2.24917013736e-07
-3.46314476727e-08
2.24493088481e-07
-3.39605081564e-08
2.24093453493e-07
-3.32176452848e-08
2.23719167319e-07
-3.2404823891e-08
2.23371134696e-07
-3.15255398157e-08
2.23050191437e-07
-3.05820360771e-08
2.22757017208e-07
-2.95778532371e-08
2.22492204049e-07
-2.85153713585e-08
2.2225616812e-07
-2.73980428961e-08
2.22049203568e-07
-2.62282439708e-08
2.21871394852e-07
-2.50092151526e-08
2.21722658444e-07
-2.37432001646e-08
2.21602657758e-07
-2.24331276282e-08
2.21510836026e-07
-2.10810097696e-08
2.21446336415e-07
-1.96894028935e-08
2.21408030084e-07
-1.82600325591e-08
2.21394443969e-07
-1.6795077104e-08
2.21403787843e-07
-1.52959880921e-08
2.21433891774e-07
-1.37646701733e-08
2.21482236357e-07
-1.2202512572e-08
2.21545905279e-07
-1.06116500161e-08
2.21621634079e-07
-8.99438537555e-09
2.21705810059e-07
-7.35491898055e-09
2.21794606939e-07
-5.6993481346e-09
2.21884148332e-07
-4.03750580152e-09
2.21970887695e-07
-2.3822493334e-09
2.22052015317e-07
-7.47345769094e-10
2.22126222406e-07
8.33790189467e-10
2.22192635194e-07
2.3637160179e-09
2.22257861854e-07
3.85894275782e-09
2.22319626446e-07
5.30121702788e-09
2.22375856943e-07
6.68567987435e-09
2.22434259327e-07
8.0115749684e-09
2.22497240566e-07
9.2790788886e-09
2.22567781723e-07
1.04879392959e-08
2.22648474768e-07
1.16388694469e-08
2.22741604965e-07
1.27318760915e-08
2.22849127328e-07
1.37678168782e-08
2.22972675033e-07
1.47467090132e-08
2.23113578339e-07
1.56693518767e-08
2.23272854072e-07
1.6535654159e-08
2.23451248883e-07
1.73462628319e-08
2.23649228119e-07
1.81009210947e-08
2.23867025619e-07
1.88000787841e-08
2.24104633212e-07
1.9443303244e-08
2.24361851491e-07
2.00308521416e-08
2.24638278424e-07
2.05621524753e-08
2.24933359283e-07
2.10373184476e-08
2.25246373123e-07
2.14557081081e-08
2.2557648012e-07
2.18173721437e-08
2.25922704717e-07
2.21216937018e-08