/*--------------------------------*- C++ -*----------------------------------*\
| =========                 |                                                 |
| \\      /  F ield         | OpenFOAM: The Open Source CFD Toolbox           |
|  \\    /   O peration     | Version:  2206                                  |
|   \\  /    A nd           | Website:  www.openfoam.com                      |
|    \\/     M anipulation  |                                                 |
\*---------------------------------------------------------------------------*/
FoamFile
{
    version     2.0;
    format      ascii;
    arch        "LSB;label=64;scalar=64";
    class       volScalarField;
    location    "4.6/water";
    object      T.gas;
}
// * * * * * * * * * * * * * * * * * * * * * * * * * * * * * * * * * * * * * //

dimensions      [0 0 0 1 0 0 0];

internalField   nonuniform List<scalar> 
23300
(
333.205486757
333.205525072
333.205603083
333.205722104
333.205883711
333.206089715
333.206342167
333.206643365
333.206995865
333.207402478
333.207866259
333.208390477
333.20897856
333.209634017
333.210360326
333.21116079
333.212038353
333.21299539
333.214033452
333.215153003
333.216353144
333.217631353
333.218983272
333.220402565
333.221880891
333.223408005
333.224972018
333.226559794
333.228157472
333.229751069
333.231327085
333.232873071
333.234378075
333.235832951
333.23723051
333.238565504
333.239834498
333.24103565
333.242168438
333.243233373
333.244231721
333.245165258
333.246035939
333.246845219
333.247594698
333.248286031
333.248920865
333.249500788
333.250027311
333.250501845
333.250925707
333.251300115
333.251626199
333.251905016
333.252137556
333.252324765
333.252467557
333.252566828
333.252623478
333.25263842
333.252612598
333.252546992
333.252442634
333.252300609
333.252122057
333.251908169
333.251660182
333.251379363
333.251066983
333.250724282
333.250352415
333.249952368
333.24952483
333.249069989
333.248587206
333.24807449
333.247528387
333.246945198
333.246321868
333.245656289
333.24494689
333.244192404
333.243391758
333.242544028
333.241648433
333.24070432
333.239711172
333.238668595
333.237576312
333.23643415
333.235242019
333.233999898
333.23270781
333.231365802
333.229973921
333.228532192
333.227040594
333.225499039
333.223907353
333.222265256
333.220572356
333.218828135
333.217031953
333.215183053
333.213280583
333.211323629
333.209311271
333.207242671
333.205116979
333.202933305
333.200691067
333.19839017
333.196031228
333.193615813
333.191146747
333.188628404
333.186067017
333.183470962
333.180850963
333.178220185
333.175594159
333.172990495
333.170428357
333.167927716
333.165508415
333.163189148
333.160986474
333.15891399
333.156981778
333.155196429
333.153561687
333.152078077
333.150743718
333.149555215
333.148508513
333.147599654
333.146825349
333.146183331
333.14567243
333.145292419
333.205780751
333.205822893
333.205907598
333.206035958
333.206209462
333.206429926
333.206699472
333.207020513
333.20739575
333.207828153
333.208320939
333.208877527
333.209501475
333.210196384
333.21096578
333.211812955
333.212740771
333.21375144
333.214846269
333.216025385
333.217287466
333.218629491
333.220046532
333.221531639
333.223075829
333.224668214
333.226296282
333.227946313
333.22960392
333.231254651
333.232884602
333.234480971
333.236032508
333.237529809
333.238965457
333.240334012
333.24163188
333.242857091
333.244009034
333.245088174
333.24609578
333.247033689
333.247904039
333.248708385
333.249448468
333.25012611
333.250743148
333.251301386
333.251802561
333.252248335
333.252640283
333.252979897
333.253268591
333.253507709
333.253698543
333.253842337
333.253940308
333.25399366
333.254003594
333.253971321
333.253898077
333.253785131
333.253633788
333.253445396
333.253221346
333.252963066
333.252672012
333.252349656
333.251997465
333.251616864
333.251209188
333.250775605
333.250317005
333.249833818
333.249325772
333.24879158
333.248228863
333.247634772
333.247005973
333.24633964
333.245633483
333.24488564
333.244094577
333.243259014
333.242377881
333.241450282
333.24047548
333.23945287
333.238381968
333.237262385
333.236093818
333.234876019
333.233608785
333.23229193
333.23092527
333.229508599
333.228041671
333.226524179
333.22495574
333.223335882
333.221664026
333.219939492
333.218161486
333.216329121
333.214441424
333.212497378
333.210495964
333.208436234
333.206317293
333.204138217
333.201898408
333.199597766
333.197236898
333.194817364
333.19234195
333.189814968
333.187242549
333.184632909
333.181996556
333.179346376
333.176697566
333.174067368
333.171474573
333.16893882
333.166479718
333.164115885
333.161864018
333.159738114
333.157748964
333.155903986
333.154207388
333.152660466
333.151262198
333.150009993
333.148900474
333.147930199
333.147096265
333.146396789
333.1458313
333.145401039
333.206152597
333.206198555
333.206290858
333.206430444
333.206618705
333.206857435
333.207148783
333.20749523
333.207899564
333.208364849
333.208894382
333.209491639
333.21016019
333.210903594
333.211725267
333.212628306
333.213615295
333.214688074
333.215847482
333.2170931
333.218422989
333.219833459
333.2213189
333.222871692
333.224482231
333.226139088
333.227829316
333.229538878
333.231253186
333.232957692
333.234638465
333.236282725
333.237879247
333.239418636
333.240893451
333.242298181
333.243629121
333.244884159
333.24606253
333.247164544
333.248191331
333.249144619
333.250026616
333.250838834
333.251582977
333.252260855
333.252874321
333.253425222
333.253915373
333.254346536
333.254720414
333.25503865
333.255302828
333.255514487
333.255675123
333.255786208
333.255849196
333.255865539
333.255836697
333.255764147
333.255649396
333.255493982
333.255299485
333.25506752
333.254799742
333.254497831
333.254163487
333.25379841
333.253404274
333.252982693
333.252535169
333.252063019
333.251567266
333.251048491
333.250506642
333.249940838
333.249349242
333.248729951
333.248080244
333.247397302
333.24667856
333.245921762
333.245124959
333.244286475
333.243404877
333.242478941
333.241507624
333.24049004
333.239425437
333.238313176
333.237152708
333.235943555
333.234685294
333.233377532
333.232019895
333.230612001
333.22915345
333.2276438
333.226082559
333.224469167
333.222802991
333.221083314
333.219309343
333.217480211
333.215594994
333.213652744
333.211652528
333.209593488
333.207474845
333.205295806
333.203055917
333.200755217
333.198394436
333.195975214
333.193500356
333.190974101
333.188402391
333.185793112
333.183156275
333.180504097
333.177850938
333.17521306
333.172608189
333.170054882
333.167571751
333.165176599
333.162885585
333.160712507
333.158668313
333.156760875
333.154995056
333.153373009
333.151894701
333.15055857
333.14936224
333.148303225
333.147379549
333.14659026
333.145935866
333.145417809
333.206609497
333.206659655
333.20676042
333.206912707
333.20711788
333.207377718
333.207694388
333.208070398
333.208508573
333.209012
333.209583976
333.210227932
333.210947343
333.211745601
333.212625874
333.213590926
333.214642912
333.215783153
333.217011888
333.218328026
333.219728913
333.221210131
333.222765362
333.224386341
333.22606292
333.22778326
333.229534155
333.231301468
333.233070654
333.234827316
333.236557749
333.238249416
333.239891315
333.241474215
333.242990759
333.244435432
333.245804447
333.247095543
333.248307757
333.249441185
333.250496741
333.251475948
333.252380824
333.253212968
333.253973901
333.254665283
333.255288855
333.25584639
333.25633966
333.256770421
333.257140396
333.257451278
333.25770473
333.257902388
333.258045873
333.258136801
333.258176788
333.258167464
333.258110482
333.258007525
333.257860314
333.257670614
333.25744023
333.257171011
333.256864842
333.256523631
333.256149296
333.255743742
333.255308828
333.254846333
333.254357892
333.253844932
333.253308566
333.252749481
333.252167792
333.251562926
333.25093355
333.250278033
333.249594763
333.248881267
333.248135086
333.247353885
333.246535522
333.245678067
333.244779803
333.243839218
333.242854982
333.241825935
333.240751062
333.239629476
333.238460398
333.23724314
333.235977085
333.234661672
333.233296377
333.231880697
333.230414133
333.228896177
333.227326297
333.225703926
333.224028452
333.222299217
333.220515513
333.218676595
333.216781688
333.21483002
333.212820856
333.210753547
333.208627541
333.206442273
333.204197525
333.201893562
333.199531307
333.197112537
333.194640108
333.192118191
333.189552502
333.186950511
333.184321596
333.181677111
333.179030319
333.176396189
333.173791008
333.171231841
333.168735852
333.166319566
333.163998126
333.161784662
333.159689822
333.157721542
333.155885047
333.154183096
333.152616415
333.151184283
333.149885192
333.14871753
333.147680197
333.146773105
333.145997687
333.145356429
333.207150674
333.207205563
333.207315785
333.207482248
333.207706307
333.207989733
333.208334684
333.208743666
333.20921948
333.209765173
333.210383961
333.211079148
333.211854014
333.212711685
333.213654978
333.214686221
333.215807043
333.217018159
333.218319133
333.219708152
333.221181821
333.222734995
333.22436069
333.226050069
333.227792548
333.229576012
333.231387153
333.2332119
333.235035916
333.236845115
333.238626158
333.240366871
333.242056568
333.243686251
333.245248693
333.246738399
333.248151503
333.249485579
333.250739445
333.251912935
333.253006695
333.254021987
333.254960535
333.255824067
333.256613831
333.257331255
333.257977885
333.258555336
333.259065258
333.259509315
333.259889174
333.260206498
333.260462949
333.260660189
333.260799886
333.260883723
333.260913403
333.260890663
333.260817275
333.260695056
333.260525872
333.26031164
333.260054329
333.259755953
333.259418563
333.259044237
333.258635054
333.258193072
333.257720294
333.25721862
333.256689797
333.256135342
333.255556466
333.25495397
333.254328155
333.253678729
333.253004779
333.252304801
333.251577763
333.25082206
333.250035503
333.249215893
333.248361103
333.24746913
333.246538127
333.245566407
333.244552454
333.243494909
333.24239256
333.241244334
333.240049278
333.238806545
333.237515381
333.236175108
333.23478511
333.233344817
333.231853691
333.230311215
333.228716874
333.227070154
333.225370526
333.223617446
333.221810357
333.21994869
333.218031884
333.216059401
333.214030767
333.211945609
333.209803665
333.207604653
333.205348634
333.203036139
333.200668316
333.198247104
333.195775424
333.193257378
333.190698444
333.188105649
333.185487691
333.182854988
333.180219617
333.177595132
333.174996238
333.172438321
333.169936886
333.167506913
333.165162227
333.16291494
333.160775019
333.158750051
333.156845206
333.155063403
333.15340566
333.151871595
333.150460024
333.149169617
333.147999551
333.146950083
333.146023143
333.14522239
333.207778044
333.207838058
333.20795852
333.208140322
333.208384804
333.208693714
333.209069183
333.209513668
333.210029907
333.210620845
333.211289554
333.212039137
333.212872605
333.213792744
333.214801946
333.215902036
333.217094063
333.218378091
333.219752988
333.221216218
333.222763667
333.224389521
333.226086201
333.227844399
333.229653209
333.231500366
333.233372582
333.235255967
333.237136496
333.239000474
333.240834987
333.242628263
333.244369956
333.246051314
333.247665234
333.24920624
333.25067037
333.25205502
333.25335876
333.254581137
333.255722491
333.256783777
333.257766424
333.258672283
333.259502289
333.260257589
333.260939482
333.26154937
333.262088723
333.26255906
333.26296193
333.263298911
333.263571603
333.263781629
333.263930644
333.264020333
333.264052424
333.264028688
333.26395095
333.263821088
333.263641042
333.263412807
333.263138437
333.262820037
333.262459751
333.262059746
333.261622194
333.261149238
333.26064296
333.260105334
333.259538174
333.258943068
333.258321309
333.257673817
333.257001064
333.256303019
333.255579119
333.254828285
333.254048988
333.253240924
333.252402428
333.25153157
333.250626405
333.249685028
333.24870562
333.247686476
333.246626023
333.245522824
333.244375579
333.243183123
333.241944414
333.240658528
333.239324646
333.237942044
333.236510078
333.235028172
333.233495809
333.231912513
333.230277845
333.228591388
333.226852745
333.225061529
333.223217373
333.221319924
333.219368865
333.217363929
333.215304931
333.213191803
333.211024616
333.208803387
333.20652847
333.204200669
333.201821363
333.199392654
333.196917527
333.194400013
333.191845351
333.189260122
333.186652348
333.184031515
333.181408523
333.178795512
333.176205593
333.173652449
333.171149854
333.168711136
333.166348634
333.164073204
333.161893837
333.159817409
333.157848606
333.155990017
333.154242389
333.152605017
333.151076262
333.149654155
333.148337083
333.147124501
333.146017739
333.145020758
333.208491562
333.20855699
333.208688265
333.208886259
333.209152283
333.209488046
333.209895623
333.210377395
333.210935992
333.21157421
333.212294927
333.213100988
333.213995084
333.214979608
333.216056487
333.217227005
333.218491611
333.219849721
333.221299518
333.222837781
333.224459742
333.226158987
333.227927442
333.229755429
333.231631827
333.233544318
333.235479724
333.237424403
333.239364681
333.24128728
333.24317971
333.245030591
333.246829892
333.248569076
333.250241142
333.251840603
333.253363379
333.254806668
333.256168774
333.257448938
333.258647166
333.25976408
333.260800783
333.261759302
333.262640241
333.263444442
333.264172926
333.264826849
333.265407462
333.265916099
333.266354152
333.266723066
333.267024336
333.267259502
333.267430153
333.267537927
333.267584517
333.267571677
333.267501219
333.26737502
333.267195024
333.266963238
333.266681726
333.266352609
333.265978045
333.265560217
333.26510131
333.26460348
333.264068822
333.263499325
333.262896823
333.262262939
333.261599025
333.260906097
333.260184784
333.25943528
333.25865732
333.257850184
333.257012736
333.25614364
333.255243126
333.254309625
333.253341484
333.25233703
333.251294618
333.250212667
333.249089691
333.247924309
333.246715258
333.245461394
333.244161696
333.242815257
333.241421283
333.239979083
333.23848806
333.236947702
333.235357571
333.233717295
333.232026554
333.23028508
333.228492643
333.226649052
333.224754158
333.222807851
333.220810079
333.21876086
333.21666031
333.214508678
333.212306389
333.210053758
333.207751426
333.205400461
333.203002461
333.200559677
333.198075145
333.195552821
333.192997705
333.19041595
333.187814924
333.185203233
333.182590649
333.179987974
333.177406791
333.174859136
333.172357087
333.169912309
333.167535585
333.165236388
333.163022519
333.16089986
333.158872255
333.156941518
333.155107579
333.153368747
333.151722087
333.15016392
333.148690476
333.147298716
333.145987473
333.144759098
333.209289462
333.209360499
333.209502974
333.209717733
333.210006045
333.210369565
333.210810291
333.2113305
333.211932681
333.21261945
333.213393449
333.214257235
333.215213143
333.216263147
333.217408691
333.218650519
333.219988488
333.221421388
333.222946767
333.22456078
333.226258076
333.228031735
333.229873278
333.231772751
333.233718903
333.235699431
333.237701316
333.239711188
333.241715728
333.243702049
333.24565805
333.247572693
333.249436213
333.251240236
333.252977823
333.254643434
333.256232851
333.257743047
333.259172047
333.260518769
333.261782876
333.26296463
333.264064759
333.265085468
333.266027108
333.266890225
333.267675546
333.268383951
333.26901645
333.269574159
333.270058284
333.27047011
333.270810992
333.271082351
333.271285673
333.271422511
333.271494482
333.271503271
333.271450631
333.271338387
333.271168427
333.270942709
333.270663249
333.270332115
333.269951412
333.26952327
333.26904982
333.268533165
333.26797535
333.267378323
333.266743888
333.266073664
333.265369025
333.264631061
333.263860523
333.263057795
333.262222871
333.26135535
333.260454461
333.259519098
333.258548164
333.257542364
333.25650041
333.255420941
333.254302596
333.253144039
333.251943998
333.250701275
333.249414767
333.248083472
333.246706497
333.24528306
333.243812485
333.242294204
333.240727748
333.239112741
333.237448892
333.235735988
333.233973887
333.23216251
333.230301836
333.228391904
333.226432807
333.2244247
333.22236781
333.220262449
333.218109037
333.215908132
333.21366054
333.211366857
333.209028001
333.206645282
333.204220494
333.201756018
333.199254926
333.196721088
333.19415927
333.191575214
333.188975679
333.186368443
333.183762242
333.18116663
333.178591775
333.176048168
333.173546279
333.171096161
333.16870705
333.166386977
333.164142435
333.16197812
333.15989676
333.157899047
333.155983648
333.15414731
333.15238504
333.150690398
333.149055977
333.147474209
333.145938834
333.144447778
333.210168714
333.210245473
333.210399372
333.210631224
333.21094225
333.211334039
333.211808494
333.212367771
333.213014199
333.213750189
333.214578129
333.215500267
333.216518574
333.2176346
333.218849313
333.220162933
333.221574758
333.223083001
333.224684632
333.226375255
333.228149018
333.229998578
333.231915134
333.233888532
333.235907447
333.237959635
333.240032246
333.242112177
333.244186428
333.246242458
333.248268489
333.250253758
333.252188696
333.254065035
333.255875839
333.257615482
333.259279569
333.260864831
333.262369
333.263790668
333.26512916
333.266384398
333.267556783
333.268647901
333.269658774
333.270589551
333.271440609
333.272212524
333.272906038
333.273522031
333.274061505
333.27452556
333.274915392
333.27523228
333.275477582
333.275652735
333.27575925
333.27579871
333.275772775
333.275683173
333.275531699
333.275320215
333.275050638
333.274724935
333.274345107
333.273913178
333.273431171
333.272901084
333.272324864
333.27170437
333.271041337
333.270337339
333.269593743
333.268811672
333.26799197
333.267135171
333.266241486
333.265310794
333.264342654
333.263336331
333.262290839
333.261205096
333.260080624
333.258916386
333.25771137
333.256464579
333.255175055
333.253841889
333.252464246
333.251041372
333.249572607
333.24805739
333.246495261
333.244885861
333.243228931
333.241524305
333.239771908
333.237971748
333.236123913
333.234228562
333.232285926
333.230296302
333.228260058
333.226177632
333.224049545
333.221876409
333.219658949
333.217398023
333.215094829
333.212750245
333.210365445
333.207941963
333.205481766
333.202987341
333.200461777
333.19790885
333.195333096
333.192739867
333.190135356
333.187526583
333.18492133
333.182328016
333.179755513
333.177212894
333.174709131
333.172252759
333.169851518
333.167512005
333.165239352
333.163036958
333.160906267
333.158846607
333.156855062
333.154926382
333.153052905
333.151224517
333.149428762
333.147651379
333.145877953
333.14409856
333.211125537
333.21120806
333.211373468
333.211622538
333.211956438
333.212376683
333.212885077
333.213483643
333.21417454
333.214959967
333.215842054
333.216822738
333.217903631
333.219085875
333.220369984
333.221755689
333.223241778
333.224825941
333.22650464
333.228272999
333.230124741
333.232052175
333.234046245
333.236096647
333.238192021
333.24032019
333.242468468
333.244623978
333.24677399
333.248906233
333.251009178
333.253072255
333.255086017
333.25704223
333.258933909
333.26075529
333.262501772
333.264169818
333.26575685
333.267261124
333.268681618
333.270017919
333.271270133
333.272438826
333.27352618
333.274531901
333.275456005
333.276298755
333.277060621
333.27774224
333.278344395
333.278867998
333.279314071
333.279683738
333.279978218
333.280198813
333.280346911
333.280423977
333.280431548
333.280371235
333.280244712
333.280053715
333.279800032
333.279485496
333.279111971
333.27868134
333.278195484
333.277656264
333.277065494
333.276424913
333.275736159
333.275000729
333.274219953
333.273394959
333.272526648
333.271615668
333.270662403
333.269666966
333.268629206
333.26754872
333.266424881
333.26525687
333.264043668
333.262787394
333.261487537
333.260143499
333.258754706
333.257320615
333.255840737
333.254314647
333.252742004
333.251122554
333.249456131
333.247742669
333.245982191
333.244174814
333.242320743
333.240420267
333.238473758
333.236481663
333.234444504
333.232362876
333.230237448
333.228068967
333.225858264
333.223606266
333.221314011
333.218982664
333.21661371
333.214208437
333.211768247
333.209294873
333.206790432
333.204257492
333.201699146
333.199119069
333.196521574
333.193911645
333.191294952
333.18867782
333.186067169
333.183470388
333.180895175
333.178349313
333.175840403
333.173375569
333.170961136
333.168602314
333.16630288
333.164064896
333.161888433
333.159771317
333.157708852
333.155693509
333.153714515
333.151757369
333.14980334
333.147829364
333.145809623
333.143722647
333.212155906
333.212244177
333.212421062
333.212687304
333.213044019
333.213492646
333.214034889
333.214672641
333.215407892
333.216242635
333.217178746
333.218217868
333.219361273
333.22060972
333.22196331
333.223421329
333.224982108
333.226642877
333.228399655
333.230247155
333.232178744
333.234186441
333.236260984
333.238391953
333.240567962
333.242776895
333.245006191
333.247243151
333.24947524
333.251690379
333.253877198
333.256025235
333.25812508
333.260168466
333.262148294
333.264058617
333.26589459
333.267652383
333.269329086
333.270922602
333.272431541
333.27385511
333.275193019
333.276445388
333.277614947
333.278701147
333.27970372
333.280622646
333.281458126
333.282210556
333.282880505
333.283468694
333.283975971
333.284403305
333.28475177
333.285022535
333.285216858
333.285336077
333.285381603
333.285354918
333.285257564
333.285091139
333.284857288
333.284557695
333.284194071
333.283768142
333.283281631
333.282736245
333.282133649
333.281475448
333.28076316
333.279998191
333.279181813
333.278315134
333.27739908
333.276434382
333.275421555
333.274360905
333.273252523
333.272096299
333.270891935
333.269638972
333.268336806
333.266984739
333.265584596
333.264137147
333.262642245
333.261099736
333.259509515
333.257871542
333.25618585
333.254452552
333.252671844
333.25084401
333.248969422
333.247048536
333.245081895
333.243070126
333.241013933
333.238914096
333.236771471
333.234586987
333.232361648
333.230096533
333.227792807
333.225451727
333.223074659
333.220663097
333.218218696
333.215743309
333.213238547
333.210706314
333.208148858
333.20556882
333.202969283
333.20035382
333.197726531
333.19509206
333.192455592
333.189822826
333.187199895
333.184593266
333.182009579
333.179455448
333.17693723
333.174460753
333.172031028
333.169651948
333.16732598
333.165053857
333.162834258
333.160663453
333.158534871
333.156438544
333.154360321
333.152280801
333.150173979
333.14800609
333.145736695
333.143329255
333.213256033
333.213349984
333.213538214
333.213821436
333.214200719
333.214677433
333.215253191
333.215929762
333.216708983
333.217592651
333.218582414
333.219679642
333.220885299
333.2221998
333.223622876
333.225153421
333.226789364
333.228527539
333.230363581
333.232291857
333.234305428
333.236396072
333.238554349
333.240769739
333.243030819
333.245325506
333.247641316
333.249965657
333.252286111
333.254590698
333.256868116
333.259107917
333.261300649
333.263437934
333.2655125
333.267518168
333.269449811
333.27130328
333.273075319
333.274763469
333.276365972
333.277881669
333.279309897
333.280650364
333.28190562
333.283075666
333.284159953
333.285158164
333.286070228
333.286896304
333.287636753
333.28829211
333.288863065
333.289350441
333.289755177
333.290078319
333.290321004
333.290484449
333.290569948
333.290578858
333.290512592
333.290372614
333.290160428
333.289877569
333.289525595
333.289106073
333.28862057
333.288070634
333.287457779
333.286783471
333.286049103
333.285255982
333.284405305
333.283498144
333.28253543
333.281517942
333.280446295
333.279320943
333.278142178
333.276910135
333.27562481
333.274286072
333.272893685
333.271447337
333.269946676
333.26839249
333.266787668
333.265132371
333.263426865
333.261671517
333.259866769
333.258013134
333.256111209
333.25416167
333.252165277
333.250122874
333.248035385
333.245903813
333.243729239
333.241512818
333.239255776
333.236959412
333.234625094
333.232254263
333.229848439
333.227409225
333.224938325
333.222437551
333.219908846
333.217354581
333.214776581
333.212176928
333.209557998
333.206922498
333.204273505
333.201614495
333.198949369
333.196282459
333.193618512
333.190962655
333.188320321
333.185697142
333.18309881
333.180530891
333.177998617
333.175506635
333.173058746
333.170657615
333.168304465
333.16599875
333.16373778
333.161516272
333.159325764
333.157153791
333.154982683
333.152787808
333.150535132
333.148178561
333.145660071
333.142925076
333.214422821
333.214522336
333.214721686
333.215021561
333.215422992
333.215927295
333.216536007
333.217250793
333.218073354
333.219005324
333.220048145
333.221202952
333.222470439
333.223850725
333.225343217
333.226946473
333.228658078
333.230474523
333.23239112
333.234401936
333.236499772
333.23867619
333.240921591
333.243225343
333.24557597
333.247961372
333.250369082
333.252786536
333.255201342
333.257601527
333.259975756
333.262313507
333.264605199
333.26684227
333.269017212
333.271123566
333.273155885
333.275109677
333.276981326
333.278768009
333.280467616
333.28207866
333.28360021
333.285031847
333.286373682
333.287628657
333.288795636
333.289873924
333.29086317
333.291763306
333.2925745
333.293297128
333.293931739
333.294479035
333.294939846
333.295315113
333.295605876
333.295813254
333.29593844
333.295982685
333.295947291
333.295833603
333.295642995
333.295376869
333.295036641
333.29462373
333.294139553
333.293585508
333.292962966
333.292273254
333.291517644
333.290697339
333.289813455
333.288867017
333.28785894
333.286790026
333.285660958
333.284472301
333.283224501
333.281917894
333.280552717
333.27912912
333.277647184
333.276106938
333.274508388
333.272851548
333.271136052
333.269366639
333.267543949
333.265668848
333.263742177
333.261764857
333.259737895
333.25766238
333.25553948
333.253370448
333.251156616
333.248899396
333.246600273
333.244260807
333.241882625
333.239467425
333.237016968
333.234533084
333.232017671
333.229472702
333.22690023
333.224302402
333.221681471
333.219040385
333.216381191
333.213706157
333.211017793
333.208318882
333.205612503
333.202902051
333.200191249
333.19748415
333.194785107
333.192098736
333.189429841
333.186783311
333.18416399
333.181576505
333.179025074
333.176513279
333.174043815
333.171618214
333.169236538
333.166897025
333.164595671
333.162325686
333.160076746
333.157833901
333.15557592
333.153272756
333.150881805
333.148343318
333.145579124
333.142514471
333.215654334
333.215759246
333.21596939
333.216285444
333.21670842
333.217239599
333.217880465
333.218632606
333.219497624
333.220477016
333.221572064
333.222783708
333.22411242
333.225558068
333.227119792
333.228795866
333.230583582
333.232479145
333.234477587
333.236572716
333.2387571
333.241022101
333.243357957
333.24575391
333.248198387
333.250679216
333.253183874
333.255699739
333.25821435
333.260715642
333.263192151
333.265633187
333.268028954
333.270370633
333.272650419
333.274861524
333.276998146
333.279055423
333.281029362
333.282916767
333.284715159
333.286422694
333.288038079
333.28956049
333.290989475
333.292328836
333.293577405
333.294734319
333.295799032
333.296771293
333.297651122
333.298438768
333.299134678
333.299739466
333.300253888
333.300678818
333.30101523
333.301264177
333.301426779
333.301504212
333.301497691
333.301408464
333.301237803
333.300986991
333.300657321
333.300250082
333.299766556
333.299208002
333.298575656
333.297870716
333.297094334
333.296247609
333.295331573
333.29434719
333.293295344
333.292176841
333.290992399
333.289742657
333.288428176
333.287049445
333.285606889
333.284100885
333.282531772
333.280899863
333.279205461
333.277448869
333.275630393
333.273750468
333.271811172
333.269816756
333.26776817
333.265666711
333.263513805
333.261310939
333.259059691
333.256761723
333.254418786
333.25203271
333.249605402
333.247138843
333.244635083
333.242096239
333.239524489
333.236922074
333.234291296
333.231634516
333.228954159
333.226252719
333.223532766
333.22079789
333.21805039
333.215292746
333.212527628
333.209757909
333.20698669
333.204217305
333.201453333
333.198698579
333.195957053
333.193232919
333.190530425
333.187853799
333.185207132
333.182594213
333.180018355
333.177482177
333.174987373
333.172534437
333.170122354
333.167748228
333.165406811
333.163089867
333.160785273
333.158475647
333.15613622
333.153731452
333.151209819
333.148496901
333.145492292
333.142100028
333.216950322
333.2170604
333.217280885
333.217612466
333.218056155
333.218613229
333.219285153
333.220073479
333.220979746
333.222005367
333.223151508
333.224418965
333.225808037
333.2273184
333.228948975
333.230697803
333.232561938
333.234537336
333.236618789
333.238799873
333.241072939
333.243429149
333.245858563
333.248350262
333.250892527
333.253473048
333.256079163
333.258698103
333.261317239
333.263924311
333.266507631
333.269056246
333.271560062
333.274009933
333.276397697
333.278716188
333.280959219
333.283121534
333.285198757
333.287187317
333.289084382
333.290887773
333.292595893
333.294207626
333.295722231
333.297142571
333.298469205
333.299701034
333.300837301
333.301877599
333.302821831
333.303670163
333.304422985
333.305080873
333.305644551
333.306114872
333.306492783
333.306779312
333.306975545
333.307082611
333.307101673
333.30703391
333.306880512
333.306642671
333.306321574
333.305918399
333.305434302
333.304870421
333.304227863
333.303507702
333.302710973
333.301838669
333.300891732
333.299871054
333.298777474
333.297611773
333.296374681
333.295066877
333.293688995
333.29224163
333.290725348
333.2891407
333.287488226
333.285768472
333.283982004
333.282129416
333.28021135
333.278228529
333.276181773
333.274071449
333.271903387
333.269679751
333.267402514
333.265073457
333.262694543
333.260267836
333.257795492
333.255279759
333.252722967
333.250127522
333.247495906
333.244830666
333.242134413
333.239409817
333.236659601
333.233886541
333.231093457
333.228283208
333.225458671
333.222624034
333.219782002
333.216935319
333.214086837
333.211239546
333.208396589
333.205561272
333.20273706
333.199927557
333.197136479
333.1943676
333.19162468
333.18891137
333.186231094
333.183586899
333.18098129
333.178416025
333.175891893
333.173408444
333.170963673
333.168553629
333.166171894
333.163808866
333.161450693
333.159077639
333.156661458
333.154161124