/*--------------------------------*- C++ -*----------------------------------*\
| =========                 |                                                 |
| \\      /  F ield         | OpenFOAM: The Open Source CFD Toolbox           |
|  \\    /   O peration     | Version:  2212                                  |
|   \\  /    A nd           | Website:  www.openfoam.com                      |
|    \\/     M anipulation  |                                                 |
\*---------------------------------------------------------------------------*/
FoamFile
{
    version     2.0;
    format      ascii;
    arch        "LSB;label=64;scalar=64";
    class       volScalarField;
    location    "1710";
    object      Sch4;
}
// * * * * * * * * * * * * * * * * * * * * * * * * * * * * * * * * * * * * * //

dimensions      [1 -3 0 0 0 0 0];

internalField   nonuniform List<scalar> 
1024
(
0.0363028
0.0363165
0.0363501
0.0364118
0.0365112
0.0366592
0.0368661
0.0371397
0.0374827
0.03789
0.0383478
0.0388349
0.0393258
0.0397936
0.0402123
0.0405525
0.0407543
0.0407795
0.0406548
0.0404165
0.0400963
0.0397229
0.0393273
0.0389427
0.0385981
0.0383119
0.0380903
0.0379297
0.037821
0.0377534
0.0377164
0.0377014
0.0363072
0.036321
0.036355
0.0364174
0.0365179
0.0366674
0.0368764
0.0371525
0.0374979
0.0379073
0.0383667
0.0388548
0.0393461
0.0398141
0.0402329
0.0405735
0.040776
0.040802
0.0406774
0.0404387
0.0401179
0.0397436
0.0393466
0.0389598
0.0386124
0.0383231
0.0380988
0.0379361
0.037826
0.0377576
0.0377203
0.0377051
0.0363179
0.036332
0.0363668
0.0364306
0.0365334
0.0366864
0.0369
0.0371814
0.0375324
0.0379467
0.0384099
0.0389004
0.039393
0.0398617
0.0402814
0.0406238
0.0408291
0.040857
0.0407316
0.0404896
0.0401648
0.0397867
0.0393858
0.0389943
0.0386413
0.0383463
0.0381168
0.0379502
0.0378375
0.0377676
0.0377296
0.0377141
0.0363372
0.0363518
0.0363877
0.0364538
0.0365604
0.036719
0.03694
0.0372302
0.0375904
0.0380133
0.0384831
0.0389782
0.0394735
0.0399444
0.040367
0.0407143
0.0409259
0.0409575
0.0408288
0.0405774
0.0402414
0.0398534
0.0394441
0.0390447
0.0386837
0.0383809
0.0381446
0.0379729
0.0378568
0.0377849
0.0377459
0.0377301
0.0363677
0.0363828
0.0364204
0.0364895
0.0366014
0.0367679
0.0369995
0.0373025
0.0376763
0.038112
0.0385924
0.039095
0.0395956
0.0400714
0.0405008
0.040858
0.0410815
0.041119
0.0409828
0.0407122
0.040353
0.0399447
0.0395197
0.0391079
0.0387366
0.0384248
0.0381813
0.0380043
0.0378848
0.0378112
0.0377714
0.0377554
0.0364119
0.0364278
0.0364672
0.0365404
0.0366591
0.036836
0.0370816
0.0374017
0.0377942
0.0382478
0.0387436
0.0392581
0.0397683
0.0402536
0.0406956
0.0410704
0.0413132
0.0413589
0.0412092
0.0409064
0.0405076
0.0400635
0.0396115
0.0391811
0.0387967
0.0384757
0.0382258
0.0380447
0.0379232
0.0378488
0.037809
0.0377932
0.0364725
0.0364892
0.0365309
0.0366088
0.0367359
0.0369255
0.0371887
0.0375307
0.0379474
0.0384253
0.0389427
0.0394753
0.040001
0.0405028
0.0409656
0.0413676
0.041638
0.0416941
0.0415249
0.0411757
0.0407176
0.0402178
0.0397234
0.039265
0.0388637
0.0385335
0.0382793
0.038097
0.0379761
0.0379031
0.0378647
0.0378497
0.0365521
0.0365695
0.0366138
0.0366971
0.0368338
0.0370385
0.037323
0.0376917
0.0381391
0.0386485
0.0391953
0.0397539
0.0403035
0.0408305
0.0413239
0.0417636
0.0420703
0.04214
0.041948
0.0415421
0.0410063
0.0404287
0.0398715
0.0393719
0.0389477
0.0386074
0.0383513
0.0381716
0.0380551
0.0379865
0.0379517
0.0379386
0.0366529
0.0366712
0.036718
0.0368072
0.0369547
0.0371767
0.0374859
0.0378867
0.0383716
0.0389208
0.0395063
0.0401003
0.0406833
0.0412451
0.0417789
0.0422656
0.042617
0.0427081
0.0425009
0.0420411
0.0414199
0.0407449
0.0401015
0.0395418
0.0390836
0.0387292
0.0384717
0.0382976
0.0381893
0.0381288
0.0381001
0.0380904
0.0367771
0.0367961
0.0368457
0.0369411
0.0371003
0.0373415
0.0376788
0.0381168
0.0386463
0.039244
0.0398776
0.0405166
0.0411419
0.0417465
0.0423273
0.0428671
0.0432723
0.0434039
0.0432106
0.042728
0.0420415
0.0412682
0.0405195
0.0398735
0.03936
0.0389784
0.0387137
0.038544
0.0384454
0.0383956
0.0383753
0.0383701
0.0369264
0.0369462
0.0369986
0.0371005
0.0372721
0.037534
0.0379022
0.0383818
0.0389619
0.0396152
0.0403043
0.040995
0.0416673
0.0423169
0.0429445
0.0435377
0.0440075
0.0442157
0.0440983
0.0436682
0.0429869
0.0421628
0.0413217
0.0405695
0.0399672
0.0395277
0.0392339
0.0390554
0.03896
0.038918
0.0389054
0.0389048
0.0371016
0.0371222
0.0371772
0.0372856
0.0374698
0.0377529
0.038153
0.0386761
0.0393094
0.040021
0.0407675
0.0415094
0.0422246
0.0429104
0.0435722
0.0442083
0.0447511
0.0450837
0.0451325
0.0448775
0.0443385
0.04359
0.0427455
0.0419241
0.041219
0.0406802
0.0403115
0.040087
0.0399683
0.0399174
0.0399032
0.0399033
0.0373009
0.0373222
0.0373796
0.0374937
0.0376892
0.0379915
0.0384208
0.0389837
0.0396656
0.0404296
0.0412254
0.0420066
0.0427469
0.0434435
0.0441073
0.044754
0.0453568
0.0458441
0.0461412
0.0461938
0.0459726
0.0454983
0.0448401
0.0440964
0.0433697
0.0427443
0.0422672
0.0419455
0.0417551
0.0416592
0.0416213
0.0416124
0.0375176
0.0375393
0.0375983
0.037716
0.0379185
0.0382334
0.0386825
0.0392726
0.0399876
0.0407859
0.0416099
0.0424043
0.0431354
0.0437966
0.0444032
0.0449922
0.0455932
0.0462034
0.0467599
0.0471816
0.0473963
0.0473704
0.047115
0.0466788
0.0461363
0.0455724
0.0450648
0.0446643
0.0443876
0.0442221
0.0441402
0.0441119
0.0377366
0.0377583
0.0378172
0.0379344
0.0381363
0.0384509
0.0389012
0.0394946
0.0402144
0.0410158
0.0418344
0.0426046
0.0432805
0.0438462
0.0443169
0.044748
0.0452328
0.045859
0.0465897
0.0473234
0.0479535
0.0484054
0.0486442
0.048671
0.0485168
0.048236
0.0478968
0.0475665
0.0472959
0.0471079
0.0470004
0.0469571
0.0379322
0.0379535
0.0380099
0.0381208
0.0383107
0.0386066
0.0390312
0.0395934
0.0402782
0.0410416
0.0418156
0.0425246
0.0431068
0.0435308
0.0438039
0.0439908
0.0442431
0.0447546
0.045533
0.0464663
0.0474148
0.0482626
0.048937
0.0494069
0.0496739
0.0497645
0.0497233
0.0496055
0.0494651
0.0493435
0.0492622
0.0492251
0.0380595
0.0380798
0.0381321
0.0382323
0.0384014
0.0386628
0.0390381
0.0395377
0.0401512
0.0408401
0.0415397
0.0421705
0.0426581
0.0429533
0.0430482
0.0429998
0.0429889
0.0432961
0.0440005
0.0450164
0.0461916
0.0473637
0.0484054
0.0492427
0.0498505
0.050241
0.0504503
0.0505273
0.050524
0.0504869
0.050449
0.0504276
0.0380979
0.0381174
0.0381655
0.0382551
0.0384025
0.0386272
0.0389481
0.0393764
0.0399065
0.0405085
0.0411261
0.0416845
0.0421064
0.0423325
0.0423406
0.0421723
0.0420035
0.0421349
0.0426973
0.0436676
0.0449354
0.0463317
0.0476814
0.0488508
0.0497667
0.0504144
0.0508211
0.0510384
0.0511264
0.0511419
0.0511293
0.0511164
0.0380685
0.0380871
0.0381319
0.0382126
0.0383419
0.0385351
0.0388078
0.0391705
0.0396215
0.0401388
0.0406767
0.0411704
0.041548
0.0417491
0.0417444
0.0415634
0.0413687
0.0414362
0.0419
0.04278
0.0440195
0.0454891
0.0470152
0.0484287
0.0496072
0.0504938
0.0510912
0.0514432
0.0516145
0.0516732
0.0516779
0.0516692
0.0379976
0.0380151
0.0380563
0.0381292
0.0382436
0.038411
0.0386435
0.03895
0.0393304
0.0397688
0.04023
0.0406613
0.0410023
0.0411992
0.0412247
0.0411044
0.0409835
0.0410902
0.0415349
0.0423526
0.043523
0.0449646
0.0465408
0.0480846
0.0494452
0.050526
0.0512964
0.0517808
0.0520386
0.0521438
0.0521669
0.0521622
0.0379191
0.037934
0.0379693
0.0380322
0.0381311
0.038275
0.0384732
0.038732
0.0390511
0.0394188
0.0398086
0.0401811
0.0404911
0.0406988
0.0407864
0.040783
0.0408094
0.0410283
0.0415156
0.0423092
0.0434114
0.0447771
0.0463114
0.0478794
0.0493325
0.0505482
0.051461
0.0520674
0.0524121
0.0525671
0.0526109
0.0526107
0.0378857
0.0378947
0.0379182
0.0379633
0.0380392
0.0381549
0.0383182
0.0385334
0.0387992
0.0391064
0.0394368
0.0397647
0.0400622
0.0403065
0.0404929
0.0406542
0.0408755
0.041245
0.0418037
0.0425897
0.0436237
0.0448912
0.0463306
0.0478415
0.0493007
0.0505841
0.0515997
0.0523112
0.0527397
0.0529473
0.0530146
0.0530198
0.037971
0.0379694
0.037971
0.0379848
0.0380227
0.038097
0.0382173
0.0383881
0.0386082
0.0388714
0.0391675
0.0394838
0.0398076
0.0401304
0.0404553
0.0408128
0.0412434
0.0417641
0.0423909
0.0431645
0.0441195
0.0452669
0.0465767
0.0479781
0.0493744
0.0506582
0.051729
0.0525215
0.0530265
0.0532875
0.0533811
0.0533928
0.0382584
0.0382402
0.0382088
0.0381758
0.0381585
0.0381762
0.0382444
0.0383719
0.0385607
0.0388087
0.039112
0.0394663
0.0398667
0.0403093
0.0407964
0.041349
0.0419638
0.0426028
0.0432698
0.0440114
0.0448715
0.0458792
0.0470308
0.0482845
0.0495686
0.0507948
0.0518692
0.0527103
0.0532783
0.0535908
0.0537128
0.0537324
0.038822
0.0387819
0.0387092
0.0386214
0.0385432
0.0385024
0.0385236
0.0386235
0.0388096
0.0390827
0.0394405
0.0398785
0.0403896
0.0409657
0.0416019
0.0423075
0.0430464
0.043748
0.0444146
0.0450991
0.04585
0.0467058
0.047681
0.0487586
0.0498924
0.0510148
0.0520433
0.0528935
0.0535032
0.0538608
0.0540119
0.0540408
0.0397121
0.039647
0.0395347
0.0394035
0.0392861
0.0392153
0.0392218
0.03933
0.039551
0.0398845
0.0403239
0.0408581
0.0414724
0.0421513
0.0428827
0.0436671
0.0444511
0.0451531
0.0457783
0.0463828
0.0470156
0.0477169
0.0485106
0.0493973
0.0503535
0.0513339
0.0522724
0.0530895
0.0537118
0.0541018
0.0542802
0.0543198
0.0409538
0.0408652
0.0407319
0.0405976
0.0404966
0.0404555
0.0405011
0.0406592
0.0409398
0.0413392
0.0418457
0.0424419
0.0431073
0.0438218
0.0445696
0.0453476
0.0460989
0.0467456
0.0472964
0.0478055
0.0483182
0.048871
0.0494902
0.0501862
0.0509521
0.051763
0.0525735
0.0533165
0.0539169
0.0543197
0.0545195
0.0545704
0.0425587
0.0424565
0.0423435
0.0422723
0.0422604
0.042313
0.0424424
0.0426686
0.0429989
0.04343
0.0439501
0.0445412
0.0451819
0.0458528
0.0465385
0.047235
0.0478913
0.0484418
0.0488965
0.0493031
0.0496996
0.0501165
0.0505772
0.0510956
0.0516741
0.0523035
0.0529582
0.0535902
0.0541325
0.0545221
0.0547323
0.0547934
0.0445466
0.0444551
0.0444239
0.0444817
0.0446055
0.0447745
0.0449874
0.0452572
0.0455928
0.045997
0.0464629
0.0469768
0.047522
0.0480823
0.0486455
0.0492079
0.0497293
0.0501595
0.0505077
0.0508116
0.0511004
0.0513972
0.0517205
0.0520829
0.0524904
0.0529425
0.0534288
0.0539218
0.0543716
0.0547184
0.054922
0.0549894
0.0469685
0.0469334
0.0470392
0.0472354
0.0474649
0.0477018
0.0479427
0.0481987
0.0484824
0.0488023
0.049158
0.0495422
0.0499439
0.0503522
0.0507582
0.0511593
0.0515272
0.0518279
0.0520683
0.0522744
0.0524665
0.0526602
0.0528682
0.0530998
0.0533606
0.0536532
0.0539755
0.0543158
0.0546452
0.0549186
0.0550939
0.0551597
0.0499256
0.0499967
0.0502039
0.0504335
0.050655
0.0508594
0.0510467
0.0512268
0.0514115
0.0516102
0.0518257
0.0520554
0.0522937
0.0525345
0.0527727
0.0530065
0.0532198
0.0533932
0.0535308
0.0536476
0.0537548
0.0538615
0.0539747
0.0540998
0.0542403
0.0543984
0.0545747
0.054766
0.0549602
0.055133
0.0552546
0.0553067
0.0535416
0.0535976
0.0537048
0.0538062
0.0538972
0.0539775
0.0540479
0.0541122
0.0541754
0.0542416
0.0543125
0.0543875
0.0544651
0.0545433
0.0546204
0.0546959
0.0547646
0.0548203
0.0548644
0.0549016
0.0549356
0.054969
0.0550043
0.0550431
0.0550865
0.0551352
0.0551896
0.0552493
0.0553112
0.0553689
0.0554129
0.0554342
)
;

boundaryField
{
    movingWall
    {
        type            fixedValue;
        value           uniform 0.0555;
    }
    fixedWalls
    {
        type            zeroGradient;
    }
    floor
    {
        type            zeroGradient;
    }
    frontAndBack
    {
        type            empty;
    }
}


// ************************************************************************* //
