/*--------------------------------*- C++ -*----------------------------------*\
| =========                 |                                                 |
| \\      /  F ield         | OpenFOAM: The Open Source CFD Toolbox           |
|  \\    /   O peration     | Version:  2212                                  |
|   \\  /    A nd           | Website:  www.openfoam.com                      |
|    \\/     M anipulation  |                                                 |
\*---------------------------------------------------------------------------*/
FoamFile
{
    version     2.0;
    format      ascii;
    arch        "LSB;label=64;scalar=64";
    class       volScalarField;
    location    "1710";
    object      SIC;
}
// * * * * * * * * * * * * * * * * * * * * * * * * * * * * * * * * * * * * * //

dimensions      [1 -3 0 0 0 0 0];

internalField   nonuniform List<scalar> 
1024
(
0.0914852
0.0914877
0.0914941
0.0915057
0.0915244
0.0915523
0.0915912
0.0916428
0.0917073
0.091784
0.0918702
0.091962
0.0920544
0.0921425
0.0922213
0.0922854
0.0923234
0.0923281
0.0923046
0.0922598
0.0921995
0.0921292
0.0920547
0.0919823
0.0919174
0.0918635
0.0918217
0.0917915
0.091771
0.0917583
0.0917513
0.0917485
0.091486
0.0914886
0.091495
0.0915067
0.0915257
0.0915538
0.0915932
0.0916452
0.0917102
0.0917873
0.0918738
0.0919657
0.0920582
0.0921463
0.0922252
0.0922893
0.0923275
0.0923324
0.0923089
0.092264
0.0922035
0.0921331
0.0920583
0.0919855
0.0919201
0.0918656
0.0918233
0.0917927
0.091772
0.0917591
0.0917521
0.0917492
0.091488
0.0914907
0.0914972
0.0915092
0.0915286
0.0915574
0.0915976
0.0916506
0.0917167
0.0917947
0.0918819
0.0919743
0.092067
0.0921553
0.0922343
0.0922988
0.0923375
0.0923427
0.0923191
0.0922735
0.0922124
0.0921412
0.0920657
0.091992
0.0919255
0.0918699
0.0918267
0.0917954
0.0917742
0.091761
0.0917538
0.0917509
0.0914917
0.0914944
0.0915012
0.0915136
0.0915337
0.0915635
0.0916051
0.0916598
0.0917276
0.0918072
0.0918957
0.0919889
0.0920822
0.0921709
0.0922505
0.0923158
0.0923557
0.0923616
0.0923374
0.0922901
0.0922268
0.0921537
0.0920767
0.0920014
0.0919335
0.0918765
0.091832
0.0917996
0.0917778
0.0917642
0.0917569
0.0917539
0.0914974
0.0915002
0.0915073
0.0915203
0.0915414
0.0915728
0.0916164
0.0916734
0.0917438
0.0918258
0.0919163
0.0920109
0.0921052
0.0921948
0.0922756
0.0923429
0.092385
0.0923921
0.0923664
0.0923155
0.0922478
0.0921709
0.0920909
0.0920134
0.0919434
0.0918847
0.0918389
0.0918055
0.0917831
0.0917692
0.0917617
0.0917587
0.0915057
0.0915087
0.0915161
0.0915299
0.0915523
0.0915856
0.0916318
0.0916921
0.091766
0.0918514
0.0919448
0.0920417
0.0921377
0.0922291
0.0923123
0.0923829
0.0924286
0.0924372
0.092409
0.092352
0.0922769
0.0921933
0.0921082
0.0920271
0.0919548
0.0918943
0.0918473
0.0918132
0.0917903
0.0917763
0.0917688
0.0917658
0.0915171
0.0915203
0.0915281
0.0915428
0.0915667
0.0916024
0.091652
0.0917164
0.0917949
0.0918848
0.0919823
0.0920825
0.0921815
0.092276
0.0923632
0.0924389
0.0924898
0.0925004
0.0924685
0.0924027
0.0923165
0.0922224
0.0921293
0.0920429
0.0919674
0.0919052
0.0918573
0.091823
0.0918002
0.0917865
0.0917793
0.0917764
0.0915321
0.0915354
0.0915437
0.0915594
0.0915852
0.0916237
0.0916773
0.0917467
0.0918309
0.0919269
0.0920298
0.092135
0.0922385
0.0923377
0.0924306
0.0925134
0.0925712
0.0925843
0.0925482
0.0924717
0.0923708
0.0922621
0.0921571
0.0920631
0.0919832
0.0919191
0.0918709
0.0918371
0.0918151
0.0918022
0.0917956
0.0917932
0.0915511
0.0915545
0.0915634
0.0915801
0.0916079
0.0916497
0.0917079
0.0917834
0.0918747
0.0919781
0.0920884
0.0922002
0.09231
0.0924158
0.0925163
0.092608
0.0926741
0.0926913
0.0926523
0.0925657
0.0924487
0.0923216
0.0922005
0.0920951
0.0920088
0.091942
0.0918936
0.0918608
0.0918404
0.091829
0.0918236
0.0918218
0.0915745
0.0915781
0.0915874
0.0916054
0.0916353
0.0916808
0.0917443
0.0918267
0.0919265
0.092039
0.0921583
0.0922786
0.0923964
0.0925102
0.0926196
0.0927212
0.0927975
0.0928223
0.0927859
0.092695
0.0925658
0.0924201
0.0922792
0.0921575
0.0920608
0.091989
0.0919391
0.0919072
0.0918886
0.0918792
0.0918754
0.0918744
0.0916026
0.0916063
0.0916162
0.0916354
0.0916677
0.091717
0.0917863
0.0918766
0.0919859
0.0921089
0.0922387
0.0923687
0.0924953
0.0926176
0.0927358
0.0928475
0.092936
0.0929752
0.0929531
0.0928721
0.0927438
0.0925886
0.0924302
0.0922886
0.0921752
0.0920924
0.0920371
0.0920035
0.0919855
0.0919776
0.0919752
0.0919751
0.0916356
0.0916395
0.0916498
0.0916702
0.0917049
0.0917582
0.0918336
0.0919321
0.0920513
0.0921853
0.0923259
0.0924656
0.0926002
0.0927294
0.092854
0.0929738
0.093076
0.0931386
0.0931478
0.0930998
0.0929983
0.0928574
0.0926983
0.0925436
0.0924109
0.0923094
0.09224
0.0921977
0.0921754
0.0921658
0.0921631
0.0921631
0.0916731
0.0916771
0.0916879
0.0917094
0.0917462
0.0918031
0.091884
0.09199
0.0921184
0.0922622
0.0924121
0.0925592
0.0926986
0.0928298
0.0929548
0.0930765
0.09319
0.0932818
0.0933377
0.0933476
0.093306
0.0932167
0.0930927
0.0929527
0.0928159
0.0926981
0.0926083
0.0925477
0.0925118
0.0924938
0.0924866
0.092485
0.0917139
0.091718
0.0917291
0.0917513
0.0917894
0.0918487
0.0919333
0.0920444
0.092179
0.0923293
0.0924845
0.0926341
0.0927718
0.0928963
0.0930105
0.0931214
0.0932346
0.0933495
0.0934542
0.0935337
0.0935741
0.0935692
0.0935211
0.093439
0.0933368
0.0932306
0.093135
0.0930596
0.0930075
0.0929764
0.092961
0.0929556
0.0917551
0.0917592
0.0917703
0.0917924
0.0918304
0.0918897
0.0919744
0.0920862
0.0922217
0.0923726
0.0925268
0.0926718
0.0927991
0.0929056
0.0929942
0.0930754
0.0931667
0.0932846
0.0934222
0.0935603
0.093679
0.0937641
0.093809
0.0938141
0.0937851
0.0937322
0.0936683
0.0936061
0.0935552
0.0935198
0.0934995
0.0934914
0.091792
0.091796
0.0918066
0.0918275
0.0918633
0.091919
0.0919989
0.0921048
0.0922337
0.0923775
0.0925232
0.0926567
0.0927664
0.0928462
0.0928976
0.0929328
0.0929803
0.0930766
0.0932232
0.093399
0.0935776
0.0937372
0.0938642
0.0939527
0.0940029
0.09402
0.0940123
0.0939901
0.0939636
0.0939407
0.0939254
0.0939184
0.0918159
0.0918198
0.0918296
0.0918485
0.0918803
0.0919296
0.0920002
0.0920943
0.0922098
0.0923395
0.0924713
0.0925901
0.0926819
0.0927375
0.0927553
0.0927462
0.0927442
0.092802
0.0929347
0.0931259
0.0933472
0.0935679
0.0937641
0.0939217
0.0940362
0.0941097
0.0941492
0.0941636
0.094163
0.094156
0.0941489
0.0941449
0.0918232
0.0918269
0.0918359
0.0918528
0.0918805
0.0919229
0.0919833
0.0920639
0.0921638
0.0922771
0.0923934
0.0924985
0.092578
0.0926206
0.0926221
0.0925904
0.0925586
0.0925834
0.0926893
0.092872
0.0931107
0.0933736
0.0936278
0.093848
0.0940204
0.0941424
0.094219
0.0942599
0.0942765
0.0942794
0.094277
0.0942746
0.0918176
0.0918212
0.0918296
0.0918448
0.0918691
0.0919055
0.0919569
0.0920252
0.0921101
0.0922075
0.0923088
0.0924017
0.0924729
0.0925107
0.0925098
0.0924757
0.0924391
0.0924518
0.0925391
0.0927048
0.0929382
0.093215
0.0935023
0.0937685
0.0939904
0.0941573
0.0942698
0.0943361
0.0943684
0.0943794
0.0943803
0.0943787
0.0918043
0.0918076
0.0918154
0.0918291
0.0918506
0.0918821
0.0919259
0.0919836
0.0920553
0.0921378
0.0922247
0.0923059
0.0923701
0.0924072
0.092412
0.0923893
0.0923666
0.0923866
0.0924704
0.0926244
0.0928447
0.0931162
0.093413
0.0937037
0.0939599
0.0941634
0.0943085
0.0943997
0.0944482
0.094468
0.0944724
0.0944715
0.0917895
0.0917923
0.091799
0.0918108
0.0918294
0.0918565
0.0918938
0.0919426
0.0920027
0.0920719
0.0921453
0.0922155
0.0922738
0.0923129
0.0923294
0.0923288
0.0923338
0.092375
0.0924667
0.0926162
0.0928237
0.0930809
0.0933698
0.0936651
0.0939387
0.0941676
0.0943395
0.0944536
0.0945185
0.0945477
0.094556
0.094556
0.0917832
0.0917849
0.0917893
0.0917978
0.0918121
0.0918339
0.0918647
0.0919052
0.0919552
0.0920131
0.0920753
0.0921371
0.0921931
0.0922391
0.0922742
0.0923045
0.0923462
0.0924158
0.092521
0.092669
0.0928637
0.0931024
0.0933734
0.0936579
0.0939327
0.0941743
0.0943656
0.0944996
0.0945802
0.0946193
0.094632
0.094633
0.0917993
0.091799
0.0917993
0.0918019
0.091809
0.091823
0.0918457
0.0918778
0.0919193
0.0919688
0.0920246
0.0920841
0.0921451
0.0922059
0.0922671
0.0923344
0.0924155
0.0925135
0.0926316
0.0927772
0.092957
0.0931731
0.0934197
0.0936836
0.0939465
0.0941883
0.0943899
0.0945392
0.0946342
0.0946834
0.094701
0.0947032
0.0918534
0.09185
0.0918441
0.0918378
0.0918346
0.0918379
0.0918508
0.0918748
0.0919103
0.091957
0.0920141
0.0920809
0.0921562
0.0922396
0.0923313
0.0924354
0.0925511
0.0926715
0.092797
0.0929367
0.0930987
0.0932884
0.0935052
0.0937413
0.0939831
0.094214
0.0944163
0.0945747
0.0946816
0.0947405
0.0947635
0.0947672
0.0919595
0.091952
0.0919383
0.0919217
0.091907
0.0918994
0.0919033
0.0919222
0.0919572
0.0920086
0.092076
0.0921585
0.0922547
0.0923632
0.092483
0.0926159
0.092755
0.0928871
0.0930126
0.0931415
0.0932829
0.0934441
0.0936277
0.0938306
0.0940441
0.0942554
0.0944491
0.0946092
0.094724
0.0947913
0.0948198
0.0948252
0.0921271
0.0921149
0.0920937
0.092069
0.0920469
0.0920336
0.0920348
0.0920552
0.0920968
0.0921596
0.0922423
0.0923429
0.0924586
0.0925864
0.0927242
0.0928719
0.0930195
0.0931517
0.0932694
0.0933832
0.0935024
0.0936345
0.0937839
0.0939509
0.0941309
0.0943155
0.0944922
0.0946461
0.0947633
0.0948367
0.0948703
0.0948778
0.0923609
0.0923443
0.0923192
0.0922939
0.0922749
0.0922671
0.0922757
0.0923055
0.0923583
0.0924335
0.0925289
0.0926412
0.0927665
0.092901
0.0930418
0.0931883
0.0933298
0.0934515
0.0935553
0.0936511
0.0937477
0.0938518
0.0939684
0.0940994
0.0942436
0.0943963
0.0945489
0.0946889
0.0948019
0.0948777
0.0949154
0.094925
0.0926632
0.0926439
0.0926226
0.0926092
0.092607
0.0926169
0.0926413
0.0926839
0.092746
0.0928272
0.0929252
0.0930364
0.0931571
0.0932834
0.0934125
0.0935437
0.0936673
0.0937709
0.0938566
0.0939331
0.0940078
0.0940863
0.094173
0.0942707
0.0943796
0.0944981
0.0946214
0.0947404
0.0948425
0.0949159
0.0949554
0.0949669
0.0930375
0.0930202
0.0930144
0.0930253
0.0930486
0.0930804
0.0931205
0.0931713
0.0932345
0.0933106
0.0933983
0.0934951
0.0935977
0.0937033
0.0938093
0.0939152
0.0940134
0.0940944
0.09416
0.0942172
0.0942715
0.0943274
0.0943883
0.0944566
0.0945333
0.0946184
0.09471
0.0948028
0.0948875
0.0949528
0.0949912
0.0950039
0.0934935
0.0934869
0.0935068
0.0935438
0.093587
0.0936316
0.093677
0.0937252
0.0937786
0.0938388
0.0939058
0.0939781
0.0940538
0.0941307
0.0942071
0.0942826
0.0943519
0.0944085
0.0944538
0.0944926
0.0945288
0.0945653
0.0946044
0.094648
0.0946972
0.0947522
0.0948129
0.094877
0.0949391
0.0949905
0.0950235
0.0950359
0.0940503
0.0940637
0.0941027
0.094146
0.0941877
0.0942262
0.0942614
0.0942954
0.0943301
0.0943676
0.0944081
0.0944514
0.0944963
0.0945416
0.0945865
0.0946305
0.0946706
0.0947033
0.0947292
0.0947512
0.0947714
0.0947915
0.0948128
0.0948363
0.0948628
0.0948926
0.0949258
0.0949618
0.0949983
0.0950309
0.0950538
0.0950636
0.0947312
0.0947418
0.094762
0.094781
0.0947982
0.0948133
0.0948266
0.0948387
0.0948506
0.0948631
0.0948764
0.0948905
0.0949051
0.0949198
0.0949344
0.0949486
0.0949615
0.094972
0.0949803
0.0949873
0.0949937
0.095
0.0950067
0.095014
0.0950221
0.0950313
0.0950416
0.0950528
0.0950645
0.0950753
0.0950836
0.0950876
)
;

boundaryField
{
    movingWall
    {
        type            fixedValue;
        value           uniform 0.0951;
    }
    fixedWalls
    {
        type            zeroGradient;
    }
    floor
    {
        type            zeroGradient;
    }
    frontAndBack
    {
        type            empty;
    }
}


// ************************************************************************* //
