/*--------------------------------*- C++ -*----------------------------------*\
| =========                 |                                                 |
| \\      /  F ield         | OpenFOAM: The Open Source CFD Toolbox           |
|  \\    /   O peration     | Version:  2212                                  |
|   \\  /    A nd           | Website:  www.openfoam.com                      |
|    \\/     M anipulation  |                                                 |
\*---------------------------------------------------------------------------*/
FoamFile
{
    version     2.0;
    format      ascii;
    arch        "LSB;label=64;scalar=64";
    class       volScalarField;
    location    "1710";
    object      Xch;
}
// * * * * * * * * * * * * * * * * * * * * * * * * * * * * * * * * * * * * * //

dimensions      [1 -3 0 0 0 0 0];

internalField   nonuniform List<scalar> 
1024
(
0.0199615
0.019962
0.0199631
0.0199651
0.0199684
0.0199733
0.0199802
0.0199892
0.0200005
0.0200139
0.0200288
0.0200444
0.02006
0.0200745
0.0200872
0.020097
0.0201025
0.0201025
0.0200981
0.0200903
0.0200801
0.0200682
0.0200557
0.0200435
0.0200325
0.0200234
0.0200163
0.0200111
0.0200076
0.0200055
0.0200043
0.0200038
0.0199617
0.0199621
0.0199632
0.0199653
0.0199687
0.0199736
0.0199805
0.0199897
0.020001
0.0200144
0.0200294
0.0200451
0.0200606
0.0200751
0.0200878
0.0200977
0.0201031
0.0201031
0.0200987
0.0200909
0.0200807
0.0200689
0.0200563
0.020044
0.0200329
0.0200237
0.0200165
0.0200113
0.0200078
0.0200056
0.0200044
0.0200039
0.019962
0.0199625
0.0199636
0.0199657
0.0199692
0.0199742
0.0199813
0.0199906
0.0200021
0.0200157
0.0200307
0.0200465
0.0200621
0.0200766
0.0200892
0.0200992
0.0201047
0.0201048
0.0201003
0.0200924
0.0200821
0.0200701
0.0200575
0.020045
0.0200338
0.0200244
0.0200171
0.0200118
0.0200082
0.0200059
0.0200047
0.0200042
0.0199626
0.0199631
0.0199643
0.0199665
0.0199701
0.0199753
0.0199826
0.0199922
0.020004
0.0200179
0.0200331
0.020049
0.0200646
0.0200791
0.0200918
0.0201019
0.0201075
0.0201077
0.0201032
0.020095
0.0200843
0.0200721
0.0200592
0.0200466
0.0200351
0.0200255
0.0200179
0.0200125
0.0200087
0.0200064
0.0200052
0.0200047
0.0199637
0.0199642
0.0199654
0.0199677
0.0199714
0.0199769
0.0199846
0.0199945
0.0200068
0.020021
0.0200366
0.0200526
0.0200684
0.020083
0.0200959
0.0201062
0.0201121
0.0201125
0.0201076
0.0200989
0.0200876
0.0200748
0.0200614
0.0200484
0.0200367
0.0200268
0.020019
0.0200134
0.0200096
0.0200072
0.020006
0.0200054
0.0199651
0.0199656
0.0199669
0.0199694
0.0199733
0.0199791
0.0199872
0.0199978
0.0200106
0.0200254
0.0200414
0.0200578
0.0200737
0.0200886
0.0201018
0.0201125
0.020119
0.0201195
0.0201142
0.0201045
0.020092
0.0200782
0.0200641
0.0200506
0.0200385
0.0200283
0.0200204
0.0200146
0.0200107
0.0200084
0.0200071
0.0200066
0.0199671
0.0199677
0.019969
0.0199716
0.0199758
0.0199821
0.0199907
0.020002
0.0200156
0.0200311
0.0200477
0.0200646
0.020081
0.0200962
0.0201099
0.0201214
0.0201286
0.0201293
0.0201234
0.0201123
0.020098
0.0200825
0.0200672
0.0200529
0.0200404
0.02003
0.0200219
0.0200161
0.0200123
0.02001
0.0200087
0.0200083
0.0199697
0.0199703
0.0199718
0.0199745
0.019979
0.0199858
0.0199951
0.0200072
0.0200217
0.0200382
0.0200557
0.0200733
0.0200903
0.0201062
0.0201207
0.0201332
0.0201414
0.0201424
0.0201357
0.0201229
0.0201063
0.0200885
0.0200713
0.0200559
0.0200427
0.0200321
0.020024
0.0200183
0.0200146
0.0200124
0.0200113
0.0200109
0.0199731
0.0199737
0.0199752
0.0199781
0.019983
0.0199903
0.0200004
0.0200135
0.0200292
0.0200469
0.0200655
0.0200841
0.020102
0.0201189
0.0201345
0.0201482
0.0201576
0.0201591
0.0201519
0.0201374
0.0201182
0.0200975
0.0200779
0.0200607
0.0200465
0.0200355
0.0200275
0.020022
0.0200186
0.0200167
0.0200158
0.0200154
0.0199772
0.0199778
0.0199794
0.0199825
0.0199878
0.0199957
0.0200067
0.0200209
0.020038
0.0200572
0.0200772
0.0200971
0.0201162
0.0201342
0.020151
0.0201662
0.020177
0.0201796
0.0201727
0.0201575
0.0201363
0.0201127
0.02009
0.0200703
0.0200546
0.0200428
0.0200346
0.0200293
0.0200262
0.0200247
0.020024
0.0200238
0.0199821
0.0199827
0.0199844
0.0199878
0.0199934
0.0200019
0.0200139
0.0200294
0.0200481
0.0200689
0.0200906
0.020112
0.0201324
0.0201516
0.0201697
0.0201863
0.0201989
0.0202037
0.0201989
0.0201852
0.0201642
0.0201391
0.0201136
0.0200908
0.0200725
0.0200591
0.0200501
0.0200447
0.0200417
0.0200404
0.02004
0.02004
0.0199878
0.0199885
0.0199903
0.0199938
0.0199998
0.020009
0.020022
0.0200389
0.0200592
0.0200818
0.0201052
0.0201281
0.0201496
0.0201698
0.0201888
0.0202065
0.0202212
0.0202295
0.0202296
0.0202209
0.0202041
0.0201813
0.0201558
0.0201311
0.0201099
0.0200936
0.0200825
0.0200757
0.0200721
0.0200705
0.0200701
0.0200701
0.0199944
0.0199951
0.0199969
0.0200007
0.020007
0.0200168
0.0200307
0.0200488
0.0200706
0.0200948
0.0201197
0.0201437
0.0201659
0.0201863
0.0202053
0.0202232
0.0202395
0.0202522
0.0202595
0.0202598
0.0202523
0.0202377
0.0202179
0.0201956
0.0201739
0.0201552
0.020141
0.0201314
0.0201257
0.0201229
0.0201217
0.0201215
0.0200015
0.0200022
0.0200041
0.020008
0.0200145
0.0200247
0.0200392
0.0200581
0.020081
0.0201062
0.020132
0.0201564
0.0201783
0.0201977
0.0202149
0.0202311
0.0202472
0.0202633
0.0202779
0.0202888
0.0202939
0.0202924
0.0202844
0.0202714
0.0202554
0.0202388
0.0202239
0.0202122
0.0202041
0.0201992
0.0201968
0.020196
0.0200088
0.0200095
0.0200114
0.0200152
0.0200217
0.0200319
0.0200464
0.0200654
0.0200884
0.0201139
0.0201395
0.0201633
0.0201837
0.0202003
0.0202136
0.0202252
0.0202378
0.0202542
0.0202735
0.0202929
0.0203097
0.0203217
0.0203279
0.0203283
0.0203238
0.0203157
0.0203061
0.0202967
0.0202889
0.0202836
0.0202805
0.0202793
0.0200153
0.020016
0.0200178
0.0200214
0.0200275
0.0200371
0.0200508
0.0200689
0.0200909
0.0201152
0.0201397
0.0201619
0.0201797
0.0201924
0.0202
0.0202047
0.0202106
0.0202235
0.0202439
0.0202686
0.0202939
0.0203166
0.0203347
0.0203474
0.0203548
0.0203574
0.0203564
0.0203533
0.0203496
0.0203464
0.0203442
0.0203432
0.0200198
0.0200204
0.0200221
0.0200253
0.0200308
0.0200392
0.0200514
0.0200676
0.0200874
0.0201096
0.020132
0.0201521
0.0201674
0.0201766
0.0201794
0.0201775
0.020176
0.0201832
0.0202014
0.0202283
0.0202596
0.0202909
0.0203188
0.0203412
0.0203576
0.0203682
0.0203741
0.0203764
0.0203766
0.0203759
0.020375
0.0203745
0.0200213
0.020022
0.0200235
0.0200264
0.0200311
0.0200384
0.0200489
0.0200628
0.0200801
0.0200997
0.0201197
0.0201379
0.0201516
0.0201591
0.0201596
0.0201545
0.0201487
0.020151
0.0201654
0.020191
0.0202249
0.0202623
0.0202984
0.0203296
0.0203541
0.0203714
0.0203825
0.0203885
0.0203911
0.0203917
0.0203916
0.0203913
0.0200207
0.0200213
0.0200227
0.0200253
0.0200295
0.0200358
0.0200447
0.0200566
0.0200713
0.0200883
0.020106
0.0201223
0.0201349
0.0201419
0.0201423
0.020137
0.0201307
0.0201313
0.020143
0.0201663
0.0201994
0.0202389
0.0202798
0.0203176
0.020349
0.0203726
0.0203886
0.0203981
0.0204029
0.0204047
0.0204049
0.0204048
0.0200187
0.0200192
0.0200205
0.0200229
0.0200266
0.0200321
0.0200397
0.0200497
0.0200623
0.0200768
0.0200921
0.0201065
0.0201181
0.0201251
0.0201265
0.0201231
0.020119
0.0201209
0.0201322
0.0201539
0.0201853
0.0202241
0.0202664
0.0203077
0.020344
0.0203728
0.0203933
0.0204063
0.0204133
0.0204162
0.020417
0.0204169
0.0200163
0.0200168
0.0200179
0.02002
0.0200232
0.0200279
0.0200344
0.0200429
0.0200535
0.0200657
0.0200788
0.0200914
0.0201019
0.0201092
0.0201125
0.0201125
0.0201127
0.020118
0.0201307
0.0201518
0.0201815
0.0202184
0.0202597
0.0203017
0.0203405
0.0203729
0.0203971
0.0204132
0.0204225
0.0204267
0.020428
0.0204281
0.0200151
0.0200154
0.0200162
0.0200177
0.0200203
0.0200241
0.0200295
0.0200367
0.0200455
0.0200558
0.0200668
0.0200779
0.0200879
0.0200961
0.0201022
0.020107
0.0201129
0.0201225
0.0201374
0.0201586
0.0201866
0.0202209
0.0202597
0.0203003
0.0203393
0.0203734
0.0204003
0.0204192
0.0204306
0.0204361
0.020438
0.0204383
0.0200172
0.0200172
0.0200174
0.020018
0.0200194
0.0200221
0.0200262
0.0200319
0.0200392
0.020048
0.0200578
0.0200682
0.0200788
0.020089
0.0200989
0.0201093
0.0201212
0.0201354
0.0201523
0.0201733
0.0201993
0.0202304
0.0202658
0.0203035
0.0203408
0.020375
0.0204034
0.0204243
0.0204377
0.0204446
0.0204472
0.0204476
0.0200249
0.0200245
0.0200237
0.020023
0.0200229
0.0200239
0.0200264
0.0200308
0.0200371
0.0200451
0.0200549
0.0200661
0.0200785
0.0200919
0.0201063
0.0201221
0.0201393
0.0201569
0.0201752
0.0201955
0.020219
0.0202464
0.0202775
0.0203113
0.0203457
0.0203783
0.0204068
0.020429
0.0204439
0.0204522
0.0204555
0.0204561
0.0200404
0.0200393
0.0200374
0.0200352
0.0200333
0.0200326
0.0200337
0.0200372
0.0200432
0.0200518
0.0200627
0.020076
0.0200912
0.0201082
0.0201266
0.0201467
0.0201675
0.020187
0.0202054
0.0202242
0.0202448
0.0202681
0.0202945
0.0203236
0.0203539
0.0203838
0.0204111
0.0204335
0.0204495
0.020459
0.020463
0.0204638
0.020065
0.0200632
0.0200602
0.0200567
0.0200537
0.0200521
0.0200527
0.0200563
0.0200631
0.0200731
0.0200861
0.0201018
0.0201197
0.0201393
0.0201603
0.0201826
0.0202046
0.0202242
0.0202416
0.0202582
0.0202756
0.0202948
0.0203163
0.0203402
0.0203659
0.020392
0.0204169
0.0204384
0.0204547
0.020465
0.0204697
0.0204708
0.0200993
0.0200969
0.0200933
0.0200897
0.0200871
0.0200863
0.0200879
0.0200927
0.020101
0.0201126
0.0201273
0.0201445
0.0201636
0.020184
0.0202053
0.0202274
0.0202485
0.0202666
0.0202819
0.020296
0.0203101
0.0203253
0.0203421
0.0203609
0.0203814
0.0204031
0.0204246
0.0204442
0.0204599
0.0204704
0.0204757
0.020477
0.0201437
0.0201409
0.0201378
0.020136
0.0201358
0.0201374
0.0201413
0.0201479
0.0201574
0.0201698
0.0201846
0.0202015
0.0202197
0.0202388
0.0202583
0.020278
0.0202965
0.0203119
0.0203246
0.0203358
0.0203468
0.0203582
0.0203707
0.0203848
0.0204003
0.0204171
0.0204345
0.0204511
0.0204653
0.0204755
0.020481
0.0204826
0.0201986
0.0201961
0.0201953
0.0201969
0.0202004
0.0202053
0.0202113
0.020219
0.0202286
0.02024
0.0202533
0.0202678
0.0202833
0.0202992
0.0203151
0.020331
0.0203457
0.0203577
0.0203675
0.0203759
0.0203839
0.020392
0.0204009
0.0204107
0.0204216
0.0204337
0.0204466
0.0204596
0.0204714
0.0204804
0.0204857
0.0204875
0.0202654
0.0202644
0.0202673
0.0202728
0.0202792
0.0202858
0.0202926
0.0202998
0.0203078
0.0203168
0.0203269
0.0203378
0.0203491
0.0203607
0.0203721
0.0203835
0.0203938
0.0204023
0.020409
0.0204147
0.02042
0.0204254
0.020431
0.0204373
0.0204444
0.0204522
0.0204607
0.0204697
0.0204784
0.0204855
0.02049
0.0204917
0.0203468
0.0203487
0.0203545
0.0203608
0.0203669
0.0203726
0.0203779
0.0203829
0.0203881
0.0203937
0.0203998
0.0204063
0.020413
0.0204198
0.0204265
0.0204331
0.0204391
0.020444
0.0204479
0.0204511
0.0204541
0.020457
0.0204601
0.0204635
0.0204673
0.0204715
0.0204762
0.0204813
0.0204864
0.0204908
0.020494
0.0204953
0.0204462
0.0204478
0.0204507
0.0204535
0.020456
0.0204583
0.0204602
0.020462
0.0204638
0.0204656
0.0204676
0.0204698
0.0204719
0.0204742
0.0204763
0.0204785
0.0204804
0.020482
0.0204832
0.0204842
0.0204852
0.0204861
0.0204871
0.0204881
0.0204893
0.0204906
0.020492
0.0204936
0.0204952
0.0204967
0.0204979
0.0204984
)
;

boundaryField
{
    movingWall
    {
        type            fixedValue;
        value           uniform 0.0205;
    }
    fixedWalls
    {
        type            zeroGradient;
    }
    floor
    {
        type            zeroGradient;
    }
    frontAndBack
    {
        type            empty;
    }
}


// ************************************************************************* //
