/*--------------------------------*- C++ -*----------------------------------*\
| =========                 |                                                 |
| \\      /  F ield         | OpenFOAM: The Open Source CFD Toolbox           |
|  \\    /   O peration     | Version:  2206                                  |
|   \\  /    A nd           | Website:  www.openfoam.com                      |
|    \\/     M anipulation  |                                                 |
\*---------------------------------------------------------------------------*/
FoamFile
{
    version     2.0;
    format      ascii;
    arch        "LSB;label=64;scalar=64";
    class       volScalarField;
    location    "1.1/water";
    object      epsilon.gas;
}
// * * * * * * * * * * * * * * * * * * * * * * * * * * * * * * * * * * * * * //

dimensions      [0 2 -3 0 0 0 0];

internalField   nonuniform List<scalar> 
23300
(
3.33381171518e-05
4.95954320885e-05
7.751914596e-05
0.000114086691249
0.000158954204111
0.000212861912853
0.00027684048856
0.000352064958491
0.000439876869377
0.000541741944656
0.000659288447602
0.000794243849361
0.000948478601265
0.00112392115315
0.00132260338817
0.0015465516448
0.00179783394371
0.00207842575449
0.0023902639113
0.00273508794489
0.00311450893644
0.00352982954991
0.00398213741489
0.00447210846791
0.00500013379518
0.00556611066378
0.00616960937851
0.00680965487714
0.00748493657074
0.00819358131016
0.0089334053611
0.00970167785239
0.0104954109589
0.011311112312
0.0121451075584
0.0129932809105
0.0138514234509
0.0147149623548
0.0155793280461
0.0164396740998
0.0172912561348
0.0181291451632
0.0189486110239
0.0197448321793
0.0205132762838
0.0212494093825
0.0219490661412
0.0226081609579
0.0232230404844
0.023790198084
0.0243066012076
0.0247694087539
0.0251762648344
0.025525015377
0.0258139566263
0.0260415396965
0.0262065513965
0.0263077726322
0.0263440309952
0.0263137025988
0.026214422777
0.0260420843863
0.0257903596364
0.0254729996989
0.0251017358926
0.0246817877801
0.0242172904914
0.0237121724891
0.0231704703932
0.02259622004
0.0219935310103
0.0213664376322
0.0207189541817
0.0200549439886
0.0193781742824
0.0186922067574
0.0180004538245
0.0173060885863
0.0166121019878
0.0159212295499
0.0152360084549
0.0145587185157
0.0138914380812
0.0132359969503
0.0125940300805
0.0119669403905
0.011355949452
0.0107620683447
0.0101861447578
0.00962884031336
0.00909067369971
0.00857200314016
0.00807306535246
0.00759396207229
0.00713469480797
0.00669515447849
0.00627515209414
0.00587441075483
0.00549259244991
0.00512929181399
0.0047840593284
0.00445639633294
0.00414577496492
0.00385163404303
0.00357339607958
0.00331046376025
0.00306223436159
0.00282809664532
0.00260744299254
0.00239966660653
0.00220417166944
0.00202037080405
0.00184769355152
0.00168558410604
0.00153350840608
0.00139095222148
0.00125742717338
0.00113246933724
0.00101564459093
0.000906548084896
0.000804809639559
0.000710095236445
0.000622115316031
0.000540636554968
0.000465526188391
0.000396953748366
0.000336201455201
0.000284900250146
0.000240678976991
0.000202382987696
0.000169974542606
0.000142820752806
0.00011949628205
9.93785534468e-05
8.20040932391e-05
6.61430742659e-05
5.10311105675e-05
3.74491569646e-05
2.80771785194e-05
2.92231395705e-05
2.52664666486e-05
3.56860196297e-05
5.33710255863e-05
7.7125347285e-05
0.000106816891056
0.000142712253711
0.000185227780176
0.000234852066807
0.000292131670332
0.000357654967912
0.000432054932204
0.000515990170623
0.000610144933384
0.000715200695948
0.000831830824106
0.00096066265054
0.00110226790767
0.00125711764972
0.00142557200477
0.00160783202953
0.00180393391342
0.00201370277916
0.00223675681529
0.00247246782184
0.00271997973129
0.00297817925221
0.00324573103883
0.00352105947203
0.00380239990336
0.00408779005748
0.00437513413654
0.00466220044743
0.00494669353196
0.00522625390838
0.0054985330406
0.00576119152704
0.00601197232549
0.00624869471472
0.00646932217805
0.00667195059317
0.00685486823683
0.00701653767319
0.00715564643151
0.00727108308028
0.00736197829671
0.00742767657323
0.00746776854769
0.00748206064016
0.00747060053565
0.00743364769445
0.0073716948434
0.00728544310105
0.00717582369615
0.00704398288855
0.00689131018561
0.0067194401667
0.00653029583811
0.00632611869049
0.00610954915336
0.00588373223426
0.00565252585268
0.00542074640838
0.00519426657668
0.0049736558793
0.00475648287992
0.00454398829173
0.00433722871909
0.00413691422859
0.00394350122926
0.00375725645086
0.00357830901724
0.00340667888052
0.00324230603914
0.00308506597304
0.00293478872565
0.00279126798249
0.00265427415926
0.00252355966706
0.0023988680108
0.00227993661081
0.00216650313905
0.00205830676019
0.00195509252889
0.00185661162517
0.0017626243836
0.00167289991036
0.00158721814452
0.00150536911598
0.00142715432073
0.00135238579
0.00128088697832
0.00121249175245
0.00114704493336
0.00108440127153
0.00102442574358
0.000966992552496
0.00091198525188
0.000859295791788
0.00080882452378
0.000760479302057
0.000714175408656
0.000669834713021
0.000627385546318
0.000586761919172
0.000547903365961
0.000510754218887
0.000475263436742
0.00044138393303
0.000409072398715
0.000378288682362
0.000348995612683
0.000321158429395
0.000294744609077
0.000269723346512
0.000246065386179
0.000223742555095
0.000202727602064
0.000182993783919
0.000164514714572
0.000147264006302
0.00013121513005
0.000116341112312
0.000102614411481
9.00066913368e-05
7.84888276047e-05
6.80313605885e-05
5.86070912542e-05
5.01920199052e-05
4.27463536903e-05
3.62315720407e-05
3.06135689253e-05
2.58239698237e-05
2.18374397822e-05
1.86031430581e-05
1.61462619642e-05
1.46220713536e-05
1.43871929175e-05
1.70848386011e-05
2.82044650392e-05
9.60368761704e-05
1.9106117234e-05
2.55178723406e-05
3.56966736256e-05
4.91867459931e-05
6.61066673066e-05
8.67531991482e-05
0.000111495478482
0.000140732559626
0.000174875076651
0.000214327913559
0.000259481338904
0.00031069449335
0.00036828651725
0.000432517028333
0.000503575895929
0.000581560961886
0.000666467889441
0.000758167406901
0.00085639827344
0.000960747469725
0.00107064998031
0.00118537549081
0.00130403825406
0.00142559292249
0.00154885623824
0.00167251277088
0.00179514792313
0.00191526210838
0.0020313123045
0.00214173140504
0.00224497412758
0.00233953754167
0.00242400686672
0.00249707351201
0.00255757692623
0.00260451738005
0.00263709095453
0.00265469523583
0.00265695542541
0.00264372191604
0.00261508630877
0.00257137056712
0.00251313256849
0.00244114729125
0.00235640243598
0.00226007289145
0.00215350787627
0.00203820061996
0.00191576918523
0.00178792370462
0.00165644341045
0.00152314385243
0.00138985279185
0.00125837995818
0.00113049511462
0.00100790432357
0.00089223556905
0.00078502585049
0.00068771425714
0.000601637006855
0.000528048611252
0.000468193120161
0.000424847860881
0.000387632406299
0.000354159039133
0.000324036207096
0.0002969468663
0.000272589181405
0.000250680944398
0.000230962351355
0.000213197142306
0.00019717194699
0.000182695337575
0.000169596131801
0.000157721870965
0.000146936966136
0.000137121155622
0.000128167812987
0.000119982582197
0.000112481943951
0.000105592080131
9.92477042883e-05
9.33911476774e-05
8.79714258564e-05
8.29435175231e-05
7.8267629644e-05
7.39086354041e-05
6.98355004452e-05
6.60208477082e-05
6.2440511124e-05
5.90731990382e-05
5.5900146722e-05
5.29048548492e-05
5.00728174794e-05
4.73913168588e-05
4.48492084448e-05
4.24367575965e-05
4.01454674036e-05
3.79679463826e-05
3.58977682898e-05
3.39293627956e-05
3.20578992535e-05
3.02791946484e-05
2.85896156155e-05
2.69859998812e-05
2.54655727663e-05
2.40258798895e-05
2.26647159476e-05
2.13800676311e-05
2.01700536218e-05
1.90328774524e-05
1.79667783913e-05
1.696999436e-05
1.60407236748e-05
1.51770981295e-05
1.43771554521e-05
1.36388222776e-05
1.29598966897e-05
1.23380401081e-05
1.17707685377e-05
1.12554516321e-05
1.07893108117e-05
1.03694240839e-05
9.99273143857e-06
9.65605037475e-06
9.3561043451e-06
9.08958940134e-06
8.85330888019e-06
8.6444446735e-06
8.46116928655e-06
8.30392889395e-06
8.17808518693e-06
8.09995202819e-06
8.11345605715e-06
8.33008641844e-06
9.06088078324e-06
1.13887432972e-05
1.92613480525e-05
4.44682506786e-05
0.00019234564801
1.69729882428e-05
2.13715384073e-05
2.79469122886e-05
3.64438999173e-05
4.69614287985e-05
5.96875948172e-05
7.48488028929e-05
9.26873683146e-05
0.000113448093595
0.00013736311885
0.000164640176779
0.00019544646017
0.00022989647162
0.000268035209573
0.000309827295403
0.000355141817594
0.000403745478532
0.000455291978453
0.00050932204831
0.000565259994154
0.000622422857435
0.000680025780015
0.000737201172955
0.000793012914158
0.000846484434123
0.00089661971665
0.000942437139207
0.000982993482043
0.00101741893156
0.00104493946591
0.00106490810614
0.0010768213167
0.00108034228104
0.00107530802299
0.00106174178946
0.00103984907089
0.00101001778918
0.000972803070362
0.000928915728042
0.000879197398669
0.000824599600171
0.000766152422915
0.000704937887224
0.000642056420108
0.000578598964032
0.000515615667657
0.00045409102472
0.000394918545947
0.000338882276887
0.000286640021292
0.000238713356062
0.00019548078009
0.000157177347689
0.000123898369888
9.56092453611e-05
7.21596574483e-05
5.33024160126e-05
3.87142648268e-05
2.80179176732e-05
2.08066254826e-05
1.66754059117e-05
1.52366358607e-05
1.43804227361e-05
1.37008619978e-05
1.31519798024e-05
1.270949439e-05
1.23538797317e-05
1.20689714194e-05
1.18413310428e-05
1.16597257638e-05
1.15147295168e-05
1.13983887232e-05
1.13039823608e-05
1.12258244646e-05
1.1159133787e-05
1.10999219726e-05
1.10449223517e-05
1.09915159264e-05
1.09376776253e-05
1.08819070726e-05
1.08231700915e-05
1.07608231461e-05
1.06945491867e-05
1.06242826487e-05
1.05501512222e-05
1.04724143211e-05
1.03914220898e-05
1.03075749469e-05
1.02213027192e-05
1.01330434926e-05
1.0043237414e-05
9.95231711257e-06
9.86070781444e-06
9.76882166705e-06
9.67705824358e-06
9.58579889001e-06
9.49540587013e-06
9.40621653601e-06
9.31854206939e-06
9.2326627791e-06
9.14882783074e-06
9.06725259782e-06
8.98811995702e-06
8.91157967051e-06
8.83775098372e-06
8.76672340506e-06
8.69855999352e-06
8.63329878814e-06
8.57095621506e-06
8.51152856719e-06
8.45499512839e-06
8.40131927825e-06
8.35045104835e-06
8.30232751463e-06
8.25687450649e-06
8.21400592761e-06
8.17362423957e-06
8.1356182622e-06
8.09986195372e-06
8.06621031811e-06
8.03449640452e-06
8.00452622638e-06
7.97607689989e-06
7.9488981079e-06
7.92272805488e-06
7.89733709385e-06
7.87263433692e-06
7.84890095255e-06
7.82728663133e-06
7.81084847609e-06
7.80672144397e-06
7.8307488847e-06
7.91804959157e-06
8.15106574016e-06
8.72762137719e-06
1.01918975955e-05
1.44477062847e-05
2.83025689887e-05
6.97073835442e-05
0.000314393994874
1.61252455592e-05
1.92831110613e-05
2.38074415695e-05
2.95274475954e-05
3.64975292688e-05
4.48126934443e-05
5.45811766861e-05
6.59123979472e-05
7.89088798757e-05
9.36561965247e-05
0.000110214641326
0.000128608142589
0.000148815809174
0.000170761301334
0.000194306518331
0.0002192441127
0.000245296145176
0.00027211237335
0.000299276107792
0.000326309886033
0.000352689325676
0.000377856056885
0.000401238365247
0.000422269184586
0.000440410283352
0.000455171386903
0.000466133346867
0.000472963785451
0.00047543465715
0.000473430475767
0.000466956919971
0.000456139411912
0.000441221424748
0.000422553321347
0.000400581184724
0.000375827848492
0.000348874921125
0.000320339455961
0.000290853037369
0.000261038260674
0.000231489059673
0.000202750960936
0.00017530623345
0.000149560860965
0.00012583681672
0.000104367193093
8.52963242995e-05
6.86828984291e-05
5.45070746038e-05
4.26798536515e-05
3.30547743266e-05
2.5440254961e-05
1.96120846318e-05
1.53249898925e-05
1.23235981835e-05
1.03532512824e-05
9.1712804325e-06
8.55808148773e-06
8.32671956683e-06
8.32911139228e-06
8.44991537747e-06
8.58682880424e-06
8.73076917794e-06
8.88055291954e-06
9.0357511442e-06
9.19593419177e-06
9.36049179637e-06
9.52842583774e-06
9.69818882866e-06
9.86756801903e-06
1.00336795582e-05
1.01930521608e-05
1.03418314565e-05
1.0476050219e-05
1.05919616907e-05
1.06863594394e-05
1.07568705344e-05
1.08021529129e-05
1.08220017435e-05
1.08173259794e-05
1.07900308464e-05
1.07428001077e-05
1.06788361773e-05
1.06015683873e-05
1.05143885724e-05
1.04204192215e-05
1.0322355511e-05
1.02223683968e-05
1.01220861892e-05
1.00226250616e-05
9.92466948337e-06
9.82856776186e-06
9.73444034012e-06
9.6422727391e-06
9.55199676568e-06
9.46354368407e-06
9.37688027536e-06
9.29202085959e-06
9.20902925798e-06
9.12800762582e-06
9.04908447603e-06
8.97239865334e-06
8.89808791578e-06
8.82627763917e-06
8.7570751996e-06
8.69056498444e-06
8.62680791956e-06
8.56584073057e-06
8.50767824065e-06
8.45231449241e-06
8.39972590024e-06
8.34987267122e-06
8.30270174709e-06
8.25814771445e-06
8.21613500938e-06
8.17657789342e-06
8.13938161195e-06
8.10444120984e-06
8.07164156029e-06
8.04085534004e-06
8.01194301697e-06
7.98475293058e-06
7.95912774183e-06
7.93492061042e-06
7.91203655745e-06
7.89052220763e-06
7.87075624179e-06
7.85384067088e-06
7.84239803994e-06
7.84219935563e-06
7.8655268897e-06
7.93831468571e-06
8.11684028234e-06
8.53192692876e-06
9.50012334695e-06
1.19210418895e-05
1.90476137482e-05
4.11142770199e-05
0.000101717073064
0.000460036859317
1.57244753691e-05
1.80313659573e-05
2.12360649556e-05
2.52144172305e-05
2.99880636519e-05
3.55936487074e-05
4.20673202759e-05
4.94380660863e-05
5.77233654797e-05
6.6923329982e-05
7.7016269627e-05
8.79527568083e-05
9.96518476303e-05
0.000111996454989
0.000124832023114
0.000137965099849
0.000151166225538
0.000164173137607
0.000176698776868
0.000188439363681
0.000199086951834
0.000208340992628
0.000215923200221
0.00022158972804
0.000225144940456
0.000226450684878
0.000225435521559
0.000222098183762
0.000216509993656
0.000208811224686
0.000199206317649
0.000187953811395
0.000175355836982
0.000161743889997
0.000147465371946
0.000132868347111
0.000118288372567
0.000104035402261
9.03837919803e-05
7.7563773209e-05
6.57565041308e-05
5.50912726808e-05
4.56460642734e-05
3.74501565453e-05
3.04891690541e-05
2.47112747477e-05
2.00344841454e-05
1.63539714725e-05
1.35494081657e-05
1.14919098466e-05
1.00508085358e-05
9.09997485656e-06
8.52346415062e-06
8.21990810343e-06
8.10536912819e-06
8.11445657111e-06
8.1998904766e-06
8.33078682162e-06
8.49018572048e-06
8.6688668812e-06
8.86700764418e-06
9.09040656375e-06
9.34620151193e-06
9.64206229392e-06
9.98512930727e-06
1.03806736864e-05
1.08306767272e-05
1.13325393156e-05
1.18782215448e-05
1.24539775693e-05
1.30408374984e-05
1.36157861382e-05
1.41535568024e-05
1.46287804593e-05
1.50182626946e-05
1.53030640136e-05
1.54701781073e-05
1.55135803502e-05
1.54345904884e-05
1.52415005683e-05
1.49485880047e-05
1.45746227024e-05
1.4141099175e-05
1.36703690211e-05
1.31839080757e-05
1.27008542866e-05
1.22369612049e-05
1.18039963013e-05
1.14096038865e-05
1.1057553251e-05
1.07482973466e-05
1.04797084211e-05
1.02478909762e-05
1.00479547424e-05
9.87468530493e-06
9.72305455009e-06
9.58856753761e-06
9.4674459844e-06
9.35668534148e-06
9.25401324106e-06
9.15779367574e-06
9.06690197822e-06
8.980600622e-06
8.89842547894e-06
8.82009508174e-06
8.74544000237e-06
8.67435466075e-06
8.6067639043e-06
8.54260389213e-06
8.4818099878e-06
8.4243119765e-06
8.37003109348e-06
8.31888053194e-06
8.27076526575e-06
8.22558373666e-06
8.18322790699e-06
8.14358465678e-06
8.10653537868e-06
8.07195704339e-06
8.03972221609e-06
8.00970206784e-06
7.98177200001e-06
7.95582715701e-06
7.93181508405e-06
7.90980593057e-06
7.89013543704e-06
7.87369341241e-06
7.86250143742e-06
7.86086960414e-06
7.87773954939e-06
7.93151558046e-06
8.0603725597e-06
8.34745764734e-06
8.98514577268e-06
1.04521660411e-05
1.41649648283e-05
2.5333241453e-05
5.76409667696e-05
0.000140158562999
0.000628856394172
1.54891735255e-05
1.71847580984e-05
1.94854617523e-05
2.22970101708e-05
2.56203920498e-05
2.94589801287e-05
3.38099783486e-05
3.86609721073e-05
4.39881195642e-05
4.97533492316e-05
5.59028640062e-05
6.2364823999e-05
6.9048856359e-05
7.58452072839e-05
8.26262991103e-05
8.92482993025e-05
9.55554309185e-05
0.000101384295357
0.000106570813314
0.000110956677271
0.000114397751013
0.000116771012362
0.000117982359683
0.000117971819037
0.000116718509218
0.000114242161994
0.000110603725333
0.000105902357205
0.000100271507501
9.38719893166e-05
8.68847570796e-05
7.95018189279e-05
7.19177993976e-05
6.43209619e-05
5.68858004391e-05
4.97662334527e-05
4.30909627179e-05
3.69601144453e-05
3.14441238959e-05
2.65839749246e-05
2.23932086216e-05
1.88608257026e-05
1.59551662119e-05
1.36280772477e-05
1.1819420966e-05
1.04615114933e-05
9.4835177511e-06
8.81547739952e-06
8.39181921824e-06
8.15406361128e-06
8.05265299604e-06
8.04780303884e-06
8.10956022753e-06
8.21724205702e-06
8.35869557514e-06
8.52981020224e-06
8.73496328082e-06
8.98899807627e-06
9.32017694005e-06
9.75635392243e-06
1.03435061364e-05
1.11344240636e-05
1.21855596923e-05
1.35501791608e-05
1.52699436163e-05
1.73661409788e-05
1.98321446084e-05
2.26284590832e-05
2.56814332624e-05
2.88859869102e-05
3.21122059074e-05
3.52149379829e-05
3.80453169214e-05
4.0462773523e-05
4.23463275142e-05
4.3603919668e-05
4.41790673597e-05
4.40542358055e-05
4.32509109256e-05
4.18264501696e-05
3.98682980995e-05
3.74861421335e-05
3.48029295484e-05
3.19455233249e-05
2.90359225252e-05
2.61837019175e-05
2.34802926027e-05
2.0995375887e-05
1.87755259085e-05
1.68449051442e-05
1.52076957913e-05
1.38517424403e-05
1.27528736597e-05
1.18793338791e-05
1.1195877631e-05
1.06671710907e-05
1.02603262583e-05
9.94651426826e-06
9.70174737653e-06
9.50698116185e-06
9.34774299557e-06
9.21347707869e-06
9.09678028248e-06
8.99264748437e-06
8.89780832591e-06
8.81018696424e-06
8.72849418478e-06
8.6519347203e-06
8.58001083141e-06
8.51239497662e-06
8.44885329483e-06
8.38920004995e-06
8.33327366853e-06
8.28092326605e-06
8.23200321702e-06
8.18636987833e-06
8.14388146582e-06
8.10439762123e-06
8.06778114116e-06
8.03390001718e-06
8.00263364684e-06
7.97388455619e-06
7.94760399181e-06
7.9238431036e-06
7.90285584042e-06
7.88530285183e-06
7.87265314105e-06
7.86797919956e-06
7.87753799493e-06
7.91396937886e-06
8.00291217301e-06
8.1972525346e-06
8.61404059519e-06
9.52338451097e-06
1.1624935634e-05
1.70838811427e-05
3.37338513088e-05
7.7969145739e-05
0.000184733140967
0.000819452113278
1.53111011402e-05
1.65598373923e-05
1.82230211717e-05
2.02274483471e-05
2.25622780128e-05
2.52133896564e-05
2.81591944305e-05
3.1369241717e-05
3.48041085905e-05
3.84145554079e-05
4.21418624755e-05
4.59176261941e-05
4.96649557408e-05
5.32993746917e-05
5.67313209614e-05
5.9868426349e-05
6.26193517103e-05
6.48972040423e-05
6.66241645523e-05
6.77352241166e-05
6.81825258161e-05
6.79381836087e-05
6.69970295182e-05
6.53773130819e-05
6.31208684763e-05
6.02911033992e-05
5.69704322239e-05
5.32559076201e-05
4.92547075205e-05
4.50785765045e-05
4.08387616657e-05
3.66407622031e-05
3.25801627476e-05
2.87389609775e-05
2.51832901391e-05
2.19619494812e-05
1.91062625133e-05
1.66306684226e-05
1.45342857632e-05
1.28029222736e-05
1.14116430212e-05
1.03274914306e-05
9.51240692537e-06
8.92599813482e-06
8.52814527587e-06
8.28114471565e-06
8.15139145771e-06
8.1104525897e-06
8.13566211315e-06
8.21028655398e-06
8.32357033312e-06
8.4709295367e-06
8.65486123045e-06
8.88724724685e-06
9.19428331561e-06
9.62576727966e-06
1.02712828003e-05
1.128601068e-05
1.28797831238e-05
1.52825859188e-05
1.87854158866e-05
2.36925240168e-05
3.02821561746e-05
3.87611101194e-05
4.92217503576e-05
6.16095013614e-05
7.57069557398e-05
9.1137000283e-05
0.000107384237446
0.000123830763894
0.000139801390739
0.000154612388173
0.000167619107409
0.000178258054802
0.000186081090847
0.000190779615818
0.000192198561786
0.000190339733778
0.000185355642111
0.00017753437084
0.000167277362406
0.000155071334046
0.000141456674735
0.000126994046848
0.000112231765222
9.76758635099e-05
8.37651488145e-05
7.08526961607e-05
5.91950779865e-05
4.89495780782e-05
4.01791143114e-05
3.28636188104e-05
2.69161754084e-05
2.22017193392e-05
1.85561497273e-05
1.58038840151e-05
1.37724399348e-05
1.23032068027e-05
1.12582252341e-05
1.05232882058e-05
1.00080634871e-05
9.64410095709e-06
9.38161305486e-06
9.185781895e-06
9.03316156844e-06
8.90852135238e-06
8.80229437373e-06
8.70864780664e-06
8.62410964078e-06
8.54664073749e-06
8.47504005209e-06
8.4085790895e-06
8.34678850409e-06
8.28933718421e-06
8.23596792754e-06
8.18646336315e-06
8.14063015707e-06
8.0982915199e-06
8.05928620971e-06
8.02347112429e-06
7.99073024277e-06
7.96099270031e-06
7.93426938483e-06
7.91072465883e-06
7.89081586165e-06
7.87556594202e-06
7.86709399904e-06
7.86966051171e-06
7.89174238538e-06
7.95024147525e-06
8.0792462939e-06
8.34916129329e-06
8.91944318653e-06
1.0158274693e-05
1.30658738373e-05
2.08797921668e-05
4.46589057519e-05
0.00010202641529
0.000235072658074
0.00103019669362
1.51458420733e-05
1.60666454332e-05
1.72749938022e-05
1.87134704783e-05
2.03652676801e-05
2.2208127351e-05
2.42130172525e-05
2.63440379628e-05
2.85593292049e-05
3.08113755582e-05
3.30482855192e-05
3.52145685461e-05
3.72529231885e-05
3.91056023734e-05
4.07167486817e-05
4.20342589402e-05
4.30124308185e-05
4.36139318699e-05
4.38122282578e-05
4.35930323114e-05
4.29558289901e-05
4.19141393951e-05
4.0495567484e-05
3.87404919392e-05
3.6700486786e-05
3.44355988169e-05
3.20115845165e-05
2.94964741576e-05
2.69574938974e-05
2.44578614275e-05
2.20543056862e-05
1.979487844e-05
1.77176638384e-05
1.58499571365e-05
1.42082866757e-05
1.27988654634e-05
1.16186843268e-05
1.06568788533e-05
9.89648063469e-06
9.31622849695e-06
8.8924787461e-06
8.60093080289e-06
8.41819053644e-06
8.32297255893e-06
8.29703079833e-06
8.32576182213e-06
8.39870799633e-06
8.51010636128e-06
8.65994919474e-06
8.85607390969e-06
9.11831645694e-06
9.48620770749e-06
1.00328689439e-05
1.08893913062e-05
1.22870314174e-05
1.46282528837e-05
1.85997449899e-05
2.53329783384e-05
3.60524273222e-05
5.1978484665e-05
7.43795788009e-05
0.000104259098351
0.000142162834631
0.000188048235039
0.000241238893097
0.000300463453644
0.000363961417096
0.000429628512709
0.000495176563293
0.000558286282652
0.000616741492332
0.000668537094529
0.000711961323187
0.000745652210506
0.000768633330373
0.00078033014274
0.000780571975681
0.000769579849819
0.000747943813933
0.00071658877772
0.000676731408268
0.000629826753382
0.00057750695979
0.000521511660817
0.000463613313673
0.000405539111496
0.000348894440934
0.00029509183876
0.000245291596507
0.000200358722673
0.000160841075566
0.000126970750833
9.8688822426e-05
7.56901299617e-05
5.74825287942e-05
4.34530389239e-05
3.29330808633e-05
2.52558089785e-05
1.98006928854e-05
1.6023064745e-05
1.34689765938e-05
1.17776498043e-05
1.06748877879e-05
9.961007473e-06
9.4964535688e-06
9.18749677895e-06
8.97355837745e-06
8.81689934377e-06
8.69481032759e-06
8.59404952071e-06
8.50709830522e-06
8.42976520343e-06
8.35972522298e-06
8.29566685468e-06
8.2368153677e-06
8.1826756518e-06
8.13289983846e-06
8.08722155163e-06
8.04542697096e-06
8.0073460043e-06
7.97285853169e-06
7.94191677133e-06
7.91459268597e-06
7.89117167407e-06
7.87233219763e-06
7.85949465959e-06
7.85549653196e-06
7.86592139503e-06
7.90174236567e-06
7.98471119009e-06
8.15867794474e-06
8.51514974729e-06
9.26471955003e-06
1.09019596138e-05
1.483510587e-05
2.58063619258e-05
5.8445807279e-05
0.000129642129861
0.000290900441296
0.00125984961579
1.49750309616e-05
1.56557835939e-05
1.65389279479e-05
1.75792562206e-05
1.87576018111e-05
2.00488519865e-05
2.14224579125e-05
2.28431418042e-05
2.42723753727e-05
2.56692407431e-05
2.69920741666e-05
2.8199556937e-05
2.92524707492e-05
3.01148964126e-05
3.07559481404e-05
3.11508766928e-05
3.1282522521e-05
3.11420173612e-05
3.07296306367e-05
3.00547524636e-05
2.91358559379e-05
2.7999565037e-05
2.66796504539e-05
2.52152540586e-05
2.36491530552e-05
2.20255361524e-05
2.03880510024e-05
1.87777121272e-05
1.72313095374e-05
1.5779957319e-05
1.44482603362e-05
1.32537534414e-05
1.2206936429e-05
1.13115752069e-05
1.05654735525e-05
9.96140884624e-06
9.4883505201e-06
9.13267956323e-06
8.87947899665e-06
8.71365949145e-06
8.62100039492e-06
8.58896405391e-06
8.6074501228e-06
8.66951452722e-06
8.7724230209e-06
8.91940338798e-06
9.12298306303e-06
9.41116591379e-06
9.83883395411e-06
1.05082153353e-05
1.16051816602e-05
1.34624718347e-05
1.6667923948e-05
2.22439472388e-05
3.19280309765e-05
4.85622714502e-05
7.65151064702e-05
0.000121882831912
0.000188582194332
0.00027881450636
0.000393504432699
0.000531519075167
0.000689873215648
0.000864177380858
0.00104917091611
0.00123921895006
0.00142871327968
0.00161235723449
0.00178534977403
0.00194348727757
0.00208321190733
0.00220162161409
0.00229646240241
0.0023661072557
0.00240953402529
0.0024262996282
0.00241651822177
0.00238083733613
0.00232041725982
0.00223690626881
0.00213241539567
0.00200948477535
0.00187104378017
0.00172035695889
0.00156095685408
0.00139655682379
0.00123094538822
0.00106785900943
0.000910838778228
0.000763075797054
0.000627258587507
0.00050543710392
0.000398922945613
0.000308242725136
0.000233157500872
0.000172750431365
0.000125573147882
8.98295955188e-05
6.35696676189e-05
4.48649409945e-05
3.19455502506e-05
2.32876622721e-05
1.76518913361e-05
1.40812788975e-05
1.18717895322e-05
1.05285370495e-05
9.71845446324e-06
9.22654135378e-06
8.91945706199e-06
8.7176025288e-06
8.57513696768e-06
8.46651415131e-06
8.37789628886e-06
8.30194605277e-06
8.2348118358e-06
8.17445537187e-06
8.11976120012e-06
8.07008018447e-06
8.02500611146e-06
7.98427463855e-06
7.9477287761e-06
7.91532830209e-06
7.88720078817e-06
7.8637553301e-06
7.84590404709e-06
7.83549351036e-06
7.83613940166e-06
7.85487338782e-06
7.90543352584e-06
8.01502162779e-06
8.23866021429e-06
8.69373416576e-06
9.6501906464e-06
1.1770428159e-05
1.70101817473e-05
3.21556422125e-05
7.53445251789e-05
0.000160617102059
0.000352033368374
0.00150747293012
1.47913176751e-05
1.52974524997e-05
1.59489559973e-05
1.67101714973e-05
1.75616303049e-05
1.84781071055e-05
1.94303119505e-05
2.03860469093e-05
2.1311939552e-05
2.21745321735e-05
2.29419630066e-05
2.35850123878e-05
2.40785737244e-05
2.4402456532e-05
2.45424610961e-05
2.44907588091e-05
2.42464201319e-05
2.38152384309e-05
2.32096224862e-05
2.2447821411e-05
2.15532003866e-05
2.05529526307e-05
1.94769209795e-05
1.83560371489e-05
1.72209987677e-05
1.61007904609e-05
1.50215847747e-05
1.40056851118e-05
1.30709336183e-05
1.22302707946e-05
1.14917545734e-05
1.08587407007e-05
1.03304357131e-05
9.90254027403e-06
9.56812428487e-06
9.31847607921e-06
9.14403544738e-06
9.03520573621e-06
8.98318397129e-06
8.98071994492e-06
9.02308119201e-06
9.10940584168e-06
9.24513909903e-06
9.44649995295e-06
9.74901356287e-06
1.02235256146e-05
1.10062603479e-05
1.23546423176e-05
1.47500128243e-05
1.90817587136e-05
2.69603605727e-05
4.11989468704e-05
6.64384014931e-05
0.000109744079742
0.000180819430713
0.000291390389783
0.000453428836787
0.000676237541116
0.000955168940614
0.00127857511562
0.00163597372558
0.00201610146129
0.00240799161763
0.00280162069768
0.00318818132677
0.00356011934219
0.00391105812024
0.00423567339391
0.00452956817746
0.00478915529379
0.00501156513504
0.00519456726865
0.00533651596244
0.00543630435172
0.00549333710066
0.00550750638988
0.00547918193157
0.00540920069565
0.00529886743033
0.00514995257501
0.00496469829377
0.00474582003364
0.00449651310568
0.00422045211987
0.00392179035989
0.00360514649442
0.0032755817332
0.00293855320043
0.00259984145028
0.00226543638259
0.00194137649418
0.00163353021106
0.00134732266995
0.0010874181328
0.000857390632887
0.000659431161478
0.000494154955435
0.000360567625336
0.000256224106343
0.000177568558401
0.000120394150575
8.03293060903e-05
5.32569617875e-05
3.56038431221e-05
2.44810955767e-05
1.76962085383e-05
1.36774656519e-05
1.13553669189e-05
1.00363737307e-05
9.29056176181e-06
8.86248561013e-06
8.60629514123e-06
8.44174385103e-06
8.3261428244e-06
8.23743709669e-06
8.16448916283e-06
8.10174845196e-06
8.04644666302e-06
7.99717935779e-06
7.9532190728e-06
7.91420406024e-06
7.88002520109e-06
7.85083127988e-06
7.82714169296e-06
7.81010261479e-06
7.8020026884e-06
7.80727933429e-06
7.83451628749e-06
7.90046270978e-06
8.03836527633e-06
8.31592070265e-06
8.88188461366e-06
1.00766843022e-05
1.27814724194e-05
1.96952995016e-05
4.0250505384e-05
9.55035734509e-05
0.000194765576212
0.000418343252999
0.00177223042297
1.45917914819e-05
1.49720916456e-05
1.54600719484e-05
1.60275481908e-05
1.66557709787e-05
1.73206611184e-05
1.79952084276e-05
1.8650859224e-05
1.92593431415e-05
1.97937852629e-05
2.02302812107e-05
2.05487700701e-05
2.07341545932e-05
2.07766956883e-05
2.06725328167e-05
2.04235101198e-05
2.00370845368e-05
1.95256277621e-05
1.89058287623e-05
1.81976193059e-05
1.74232594027e-05
1.66060985006e-05
1.57695790764e-05
1.49360778499e-05
1.41260755828e-05
1.33573084532e-05
1.26443048663e-05
1.19979942556e-05
1.14257000927e-05
1.0931222646e-05
1.05152419256e-05
1.01757632945e-05
9.90877741272e-06
9.70888592625e-06
9.57004585135e-06
9.48625151095e-06
9.45236797923e-06
9.46511508644e-06
9.52469391578e-06
9.63762493746e-06
9.82233926064e-06
1.01201837269e-05
1.06174989514e-05
1.14896554093e-05
1.30887068052e-05
1.6114693249e-05
2.19373825942e-05
3.31538828247e-05
5.44291251789e-05
9.34933614454e-05
0.000161852562165
0.000274489330762
0.000447959545881
0.000697032792186
0.00103105143875
0.00145161620635
0.00195243418321
0.00252080166863
0.00313399270363
0.00376476900496
0.00439836102328
0.00502351228386
0.00563115880122
0.00621387766921
0.0067655235303
0.0072809626252
0.00775589032019
0.0081866927267
0.0085703547456
0.0089043851251
0.00918677059493
0.00941593459964
0.00959071721006
0.0097103536008
0.00977446953197
0.00978307210256
0.00973655484388
0.0096356962033
0.00948167042539
0.00927605087906
0.00902082428467
0.0087183972041
0.00837161228462
0.00798375724753
0.00755858273678
0.0071003138104
0.00661366918953
0.00610387446373
0.00557667992929
0.00503836881604
0.00449575966565
0.00395618346261
0.00342742608282
0.00291760513207
0.00243495528412
0.00198748558706
0.00158249161468
0.00122593361903
0.000921755308659
0.000671287764643
0.000472932973941
0.000322295003817
0.000212803683819
0.000136696836369
8.60908947516e-05
5.38598846647e-05
3.41563264742e-05
2.25630442354e-05