/*--------------------------------*- C++ -*----------------------------------*\
| =========                 |                                                 |
| \\      /  F ield         | OpenFOAM: The Open Source CFD Toolbox           |
|  \\    /   O peration     | Version:  2206                                  |
|   \\  /    A nd           | Website:  www.openfoam.com                      |
|    \\/     M anipulation  |                                                 |
\*---------------------------------------------------------------------------*/
FoamFile
{
    version     2.0;
    format      ascii;
    arch        "LSB;label=64;scalar=64";
    class       volScalarField;
    location    "1.1/water";
    object      p;
}
// * * * * * * * * * * * * * * * * * * * * * * * * * * * * * * * * * * * * * //

dimensions      [1 -1 -2 0 0 0 0];

internalField   nonuniform List<scalar> 
23300
(
100737.235301
100737.23239
100737.226265
100737.217001
100737.204717
100737.189472
100737.171334
100737.150348
100737.126587
100737.100098
100737.070963
100737.039235
100737.005006
100736.968334
100736.929319
100736.888022
100736.844552
100736.798974
100736.751402
100736.701904
100736.650602
100736.597567
100736.542925
100736.486753
100736.429183
100736.370296
100736.310233
100736.249081
100736.186989
100736.124054
100736.060432
100735.99623
100735.931614
100735.866701
100735.801666
100735.736634
100735.67179
100735.607265
100735.543249
100735.479882
100735.417353
100735.355803
100735.29542
100735.236343
100735.178752
100735.122778
100735.068587
100735.016296
100734.966053
100734.917954
100734.872123
100734.828629
100734.787569
100734.74898
100734.712924
100734.679408
100734.648457
100734.620045
100734.594162
100734.57075
100734.549775
100734.531171
100734.514747
100734.500193
100734.487354
100734.476063
100734.466173
100734.457488
100734.44984
100734.443019
100734.436845
100734.431103
100734.425615
100734.42017
100734.414602
100734.408716
100734.402365
100734.39538
100734.387638
100734.379004
100734.369385
100734.358681
100734.346834
100734.333777
100734.319489
100734.303938
100734.287134
100734.269077
100734.249806
100734.229348
100734.207767
100734.185111
100734.161463
100734.136887
100734.111479
100734.085314
100734.058495
100734.031104
100734.003246
100733.975004
100733.946484
100733.917765
100733.888948
100733.860109
100733.831342
100733.802716
100733.774318
100733.746209
100733.718465
100733.691141
100733.664303
100733.637998
100733.612283
100733.587197
100733.562787
100733.539086
100733.516132
100733.493952
100733.472576
100733.452024
100733.432321
100733.413482
100733.395525
100733.37846
100733.362303
100733.347059
100733.332753
100733.319391
100733.306976
100733.295524
100733.285056
100733.275593
100733.267154
100733.259746
100733.253389
100733.248104
100733.243916
100733.240857
100733.239049
100733.238596
100729.166926
100729.163971
100729.157575
100729.14808
100729.135583
100729.12014
100729.101817
100729.080662
100729.056743
100729.030115
100729.000853
100728.969018
100728.934696
100728.897949
100728.858872
100728.817532
100728.774028
100728.728432
100728.680847
100728.631349
100728.580046
100728.527018
100728.472376
100728.416204
100728.358621
100728.299716
100728.239615
100728.178413
100728.116245
100728.053215
100727.989467
100727.925117
100727.860316
100727.795192
100727.729906
100727.664596
100727.599432
100727.534561
100727.470161
100727.406382
100727.343409
100727.281394
100727.220519
100727.160936
100727.102822
100727.04632
100726.991594
100726.938774
100726.888007
100726.839401
100726.793078
100726.749121
100726.707622
100726.66863
100726.632203
100726.598355
100726.567105
100726.53843
100726.51231
100726.488688
100726.467506
100726.448662
100726.4319
100726.416983
100726.403823
100726.392263
100726.38215
100726.373297
100726.365527
100726.358635
100726.352431
100726.346703
100726.341261
100726.3359
100726.330438
100726.324687
100726.318486
100726.311669
100726.304105
100726.295659
100726.286231
100726.275721
100726.264066
100726.2512
100726.237095
100726.221722
100726.205086
100726.187189
100726.168066
100726.147747
100726.12629
100726.103749
100726.080202
100726.055718
100726.030388
100726.004293
100725.977531
100725.95019
100725.92237
100725.894161
100725.865663
100725.836962
100725.808154
100725.779321
100725.750553
100725.721924
100725.693517
100725.665397
100725.637638
100725.610299
100725.583443
100725.557119
100725.531383
100725.506276
100725.481845
100725.458122
100725.435146
100725.412944
100725.391547
100725.370976
100725.351253
100725.332396
100725.314423
100725.297346
100725.281179
100725.265933
100725.251622
100725.238252
100725.225828
100725.214355
100725.203849
100725.194348
100725.185876
100725.178449
100725.172104
100725.166878
100725.162799
100725.159875
100725.158193
100725.157644
100721.107168
100721.104206
100721.097541
100721.08779
100721.075025
100721.059293
100721.040653
100721.019155
100720.994865
100720.967839
100720.938152
100720.905867
100720.871068
100720.833821
100720.794217
100720.752328
100720.708248
100720.662053
100720.613843
100720.563695
100720.511713
100720.457978
100720.4026
100720.345663
100720.287283
100720.22755
100720.166587
100720.104493
100720.041399
100719.977413
100719.912679
100719.847314
100719.781472
100719.715284
100719.648915
100719.582507
100719.516233
100719.450247
100719.384729
100719.31984
100719.255765
100719.192667
100719.130731
100719.070118
100719.011007
100718.95355
100718.897916
100718.844241
100718.792675
100718.743335
100718.696343
100718.651789
100718.609766
100718.570329
100718.533536
100718.499404
100718.467951
100718.439155
100718.412993
100718.3894
100718.368314
100718.349422
100718.332652
100718.318076
100718.30549
100718.294669
100718.285405
100718.277477
100718.270677
100718.264779
100718.259576
100718.254843
100718.250377
100718.245964
100718.241416
100718.236538
100718.231163
100718.225124
100718.218284
100718.210508
100718.201693
100718.19174
100718.180582
100718.168159
100718.15444
100718.1394
100718.123042
100718.105375
100718.086432
100718.066249
100718.044887
100718.022402
100717.998874
100717.974378
100717.949008
100717.922847
100717.895998
100717.868552
100717.840612
100717.812271
100717.783631
100717.754782
100717.725822
100717.696835
100717.667912
100717.639131
100717.610574
100717.58231
100717.554412
100717.52694
100717.499959
100717.473519
100717.447674
100717.422468
100717.397945
100717.374141
100717.351093
100717.328828
100717.307377
100717.28676
100717.267002
100717.248117
100717.230124
100717.213034
100717.196862
100717.181616
100717.167308
100717.153942
100717.14153
100717.13008
100717.119607
100717.110132
100717.101691
100717.094308
100717.087993
100717.082785
100717.078734
100717.075848
100717.074176
100717.073539
100713.054955
100713.051961
100713.045059
100713.035071
100713.022046
100713.00602
100712.987041
100712.965152
100712.940414
100712.912877
100712.882615
100712.849687
100712.814176
100712.776147
100712.73569
100712.692877
100712.647803
100712.600543
100712.551197
100712.499844
100712.44659
100712.391515
100712.334731
100712.276323
100712.21641
100712.155085
100712.092471
100712.028673
100711.963824
100711.898037
100711.83146
100711.764217
100711.696467
100711.628349
100711.560034
100711.491673
100711.423449
100711.355524
100711.288091
100711.22132
100711.155407
100711.090529
100711.026882
100710.964639
100710.903994
100710.84511
100710.788168
100710.733317
100710.680717
100710.630494
100710.582782
100710.537676
100710.495275
100710.455637
100710.418822
100710.384846
100710.353724
100710.325428
100710.299924
100710.277131
100710.256812
100710.238866
100710.223317
100710.209972
100710.198629
100710.189066
100710.181073
100710.174418
100710.168888
100710.164248
100710.160283
100710.156762
100710.153476
100710.150205
100710.146756
100710.142929
100710.138554
100710.133461
100710.127508
100710.120558
100710.112508
100710.103255
100710.092734
100710.080882
100710.067669
100710.053071
100710.037094
100710.019746
100710.001065
100709.981089
100709.959881
100709.937503
100709.914038
100709.889565
100709.864182
100709.837976
100709.811055
100709.783513
100709.755459
100709.726987
100709.698205
100709.669205
100709.640089
100709.610943
100709.581862
100709.552924
100709.524214
100709.495802
100709.467764
100709.44016
100709.413055
100709.386502
100709.360554
100709.335254
100709.31065
100709.286774
100709.263665
100709.241351
100709.21986
100709.199213
100709.179434
100709.160539
100709.142544
100709.125461
100709.109303
100709.094078
100709.079797
100709.066464
100709.054091
100709.042686
100709.032261
100709.022833
100709.014442
100709.007119
100709.000864
100708.995701
100708.99168
100708.988812
100708.987131
100708.98646
100705.008474
100705.005402
100704.998259
100704.988013
100704.974696
100704.958332
100704.938958
100704.916607
100704.891329
100704.863168
100704.832188
100704.798442
100704.762007
100704.722943
100704.681337
100704.637257
100704.590799
100704.542037
100704.491072
100704.437983
100704.38288
100704.325848
100704.267001
100704.206432
100704.144263
100704.080596
100704.015563
100703.949275
100703.881879
100703.813496
100703.744287
100703.674389
100703.603976
100703.533199
100703.462248
100703.391288
100703.320521
100703.250126
100703.180312
100703.111267
100703.043206
100702.976319
100702.910819
100702.846894
100702.784747
100702.724553
100702.666502
100702.610747
100702.557453
100702.506747
100702.458759
100702.413584
100702.371313
100702.331996
100702.295683
100702.262377
100702.232078
100702.204742
100702.180312
100702.158571
100702.139381
100702.122698
100702.108388
100702.096271
100702.086169
100702.077867
100702.071159
100702.065814
100702.06161
100702.058309
100702.055685
100702.053501
100702.051537
100702.049566
100702.047387
100702.044791
100702.041603
100702.037643
100702.032766
100702.026828
100702.01972
100702.011339
100702.001614
100701.990481
100701.977909
100701.963874
100701.948382
100701.931443
100701.913098
100701.893387
100701.872378
100701.850137
100701.826752
100701.802306
100701.776903
100701.750638
100701.723621
100701.695954
100701.667749
100701.639107
100701.61014
100701.580945
100701.551627
100701.522277
100701.492991
100701.463853
100701.434948
100701.40635
100701.378134
100701.350364
100701.323105
100701.29641
100701.270333
100701.24492
100701.220215
100701.196253
100701.173071
100701.150697
100701.12916
100701.108479
100701.088679
100701.069773
100701.051779
100701.034707
100701.01857
100701.003374
100700.989128
100700.975839
100700.963516
100700.952164
100700.941796
100700.932425
100700.924092
100700.916831
100700.91063
100700.905514
100700.901531
100700.898686
100700.897008
100700.896333
100696.965755
100696.96257
100696.95517
100696.944623
100696.930952
100696.91417
100696.894304
100696.871377
100696.845429
100696.816492
100696.784621
100696.74986
100696.712277
100696.671927
100696.62889
100696.583231
100696.535041
100696.484397
100696.431398
100696.376131
100696.318706
100696.259216
100696.197785
100696.134514
100696.06954
100696.002975
100695.934966
100695.865643
100695.795166
100695.723677
100695.651354
100695.578354
100695.504871
100695.431078
100695.357182
100695.283369
100695.209858
100695.136846
100695.064559
100694.993199
100694.922993
100694.854143
100694.786869
100694.721364
100694.657838
100694.596466
100694.537437
100694.480904
100694.427026
100694.375925
100694.327728
100694.282518
100694.24038
100694.201359
100694.165493
100694.132778
100694.103202
100694.076714
100694.053153
100694.032344
100694.014244
100693.998725
100693.985646
100693.974824
100693.966079
100693.959192
100693.953951
100693.950117
100693.947461
100693.945732
100693.944696
100693.944103
100693.943724
100693.94332
100693.94268
100693.941587
100693.939853
100693.937291
100693.933748
100693.929072
100693.923148
100693.915865
100693.907148
100693.89693
100693.885178
100693.871863
100693.856995
100693.840583
100693.82267
100693.803301
100693.782548
100693.760482
100693.737197
100693.712784
100693.687353
100693.661007
100693.633863
100693.60603
100693.577628
100693.548764
100693.519557
100693.490109
100693.46053
100693.430917
100693.40137
100693.371975
100693.342823
100693.313987
100693.285548
100693.257569
100693.230117
100693.203245
100693.17701
100693.151456
100693.126628
100693.10256
100693.07929
100693.056845
100693.035253
100693.014533
100692.994708
100692.975792
100692.957801
100692.940744
100692.924632
100692.909472
100692.895271
100692.882035
100692.86977
100692.858482
100692.84818
100692.838874
100692.830608
100692.823411
100692.817263
100692.812195
100692.808257
100692.805443
100692.803781
100692.803122
100688.925119
100688.921801
100688.914129
100688.903239
100688.889146
100688.871855
100688.851386
100688.827751
100688.800982
100688.771101
100688.738153
100688.702173
100688.66322
100688.621343
100688.576616
100688.5291
100688.478886
100688.426049
100688.370694
100688.312909
100688.252815
100688.190514
100688.126141
100688.059811
100687.991676
100687.921867
100687.850549
100687.77787
100687.704012
100687.629138
100687.553445
100687.477113
100687.400354
100687.323361
100687.246359
100687.169551
100687.093171
100687.017429
100686.942564
100686.868786
100686.796331
100686.725405
100686.656236
100686.589018
100686.523962
100686.461244
100686.401052
100686.343538
100686.288861
100686.23714
100686.1885
100686.143024
100686.100795
100686.061854
100686.02624
100685.993946
100685.964958
100685.939188
100685.916456
100685.896623
100685.879642
100685.865362
100685.853629
100685.84425
100685.837031
100685.831745
100685.828169
100685.82605
100685.82515
100685.825207
100685.825975
100685.827196
100685.828632
100685.830034
100685.831182
100685.83185
100685.831841
100685.83096
100685.829041
100685.825925
100685.821486
100685.815604
100685.808194
100685.799181
100685.788523
100685.776189
100685.762182
100685.74651
100685.729216
100685.710347
100685.689979
100685.668189
100685.64508
100685.62075
100685.595319
100685.5689
100685.541622
100685.513601
100685.484969
100685.455843
100685.426348
100685.396595
100685.366703
100685.336773
100685.30691
100685.277208
100685.247757
100685.218639
100685.189933
100685.161705
100685.134025
100685.106946
100685.080525
100685.054807
100685.029837
100685.005649
100684.98228
100684.959755
100684.938103
100684.917342
100684.897493
100684.87857
100684.860586
100684.843551
100684.827473
100684.812359
100684.798213
100684.78504
100684.772845
100684.76163
100684.751404
100684.742173
100684.733985
100684.726858
100684.720766
100684.71575
100684.711862
100684.709087
100684.707452
100684.706818
100680.885351
100680.881892
100680.87394
100680.862674
100680.8481
100680.830221
100680.809047
100680.784586
100680.756858
100680.725878
100680.691683
100680.6543
100680.613781
100680.570167
100680.523531
100680.473931
100680.421456
100680.366185
100680.308226
100680.247675
100680.184662
100680.1193
100680.051738
100679.982107
100679.910575
100679.837291
100679.762441
100679.686191
100679.608743
100679.530281
100679.451021
100679.371162
100679.290933
100679.210544
100679.130236
100679.050226
100678.97076
100678.89206
100678.814372
100678.737918
100678.662939
100678.58965
100678.518281
100678.449033
100678.382121
100678.317727
100678.256041
100678.197219
100678.141424
100678.08878
100678.039414
100677.993414
100677.950867
100677.911819
100677.876312
100677.844344
100677.815902
100677.790814
100677.768936
100677.750161
100677.734368
100677.721391
100677.711057
100677.703155
100677.697477
100677.69378
100677.691831
100677.691372
100677.692161
100677.693934
100677.696448
100677.699445
100677.702688
100677.70593
100677.708951
100677.71152
100677.713438
100677.714499
100677.714531
100677.713358
100677.710841
100677.70684
100677.701253
100677.693985
100677.684975
100677.674172
100677.661563
100677.647143
100677.630945
100677.613008
100677.593407
100677.572222
100677.549561
100677.525534
100677.500272
100677.473902
100677.446571
100677.418411
100677.389569
100677.360178
100677.330377
100677.30029
100677.270046
100677.239756
100677.209534
100677.179477
100677.149685
100677.120241
100677.091229
100677.062719
100677.034779
100677.007466
100676.980837
100676.954936
100676.929809
100676.90549
100676.882014
100676.859406
100676.837693
100676.816892
100676.797024
100676.778098
100676.76013
100676.743125
100676.727092
100676.712035
100676.697957
100676.684859
100676.672745
100676.661616
100676.651475
100676.642332
100676.634236
100676.627183
100676.621152
100676.616197
100676.612367
100676.609638
100676.608037
100676.607433
100672.845719
100672.842118
100672.833885
100672.822219
100672.807124
100672.788596
100672.76664
100672.741257
100672.712459
100672.680256
100672.644676
100672.605739
100672.563491
100672.517972
100672.469248
100672.417378
100672.362452
100672.304551
100672.243791
100672.180275
100672.114142
100672.045519
100671.974566
100671.901432
100671.826299
100671.749337
100671.670746
100671.590714
100671.509459
100671.427184
100671.344122
100671.260489
100671.176531
100671.092471
100671.008564
100670.925042
100670.842162
100670.760158
100670.679287
100670.59978
100670.52189
100670.445839
100670.371869
100670.30019
100670.231026
100670.164566
100670.101011
100670.040526
100669.983282
100669.929411
100669.879051
100669.832295
100669.78924
100669.749938
100669.714436
100669.682735
100669.654815
100669.630451
100669.609428
100669.591585
100669.576759
100669.564749
100669.555364
100669.548384
100669.5436
100669.540784
100669.53972
100669.540174
100669.541926
100669.544738
100669.548389
100669.55264
100669.557274
100669.562054
100669.566769
100669.571193
100669.575125
100669.578355
100669.580697
100669.581964
100669.581993
100669.580622
100669.57772
100669.573157
100669.566836
100669.558668
100669.548599
100669.536585
100669.522622
100669.506717
100669.488919
100669.469287
100669.447922
100669.424933
100669.400459
100669.374645
100669.347659
100669.319662
100669.290829
100669.261322
100669.231309
100669.200939
100669.170363
100669.13971
100669.109112
100669.078677
100669.048514
100669.018714
100668.989366
100668.960544
100668.93232
100668.904752
100668.877897
100668.851801
100668.826508
100668.802051
100668.778466
100668.755775
100668.734004
100668.71317
100668.693289
100668.674372
100668.65643
100668.639469
100668.623494
100668.608507
100668.59451
100668.581502
100668.569484
100668.558453
100668.54841
100668.539371
100668.531377
100668.524402
100668.518443
100668.513559
100668.509797
100668.50712
100668.505559
100668.50499
100664.805914
100664.802174
100664.793664
100664.781589
100664.765946
100664.746729
100664.723935
100664.69756
100664.66761
100664.634087
100664.597012
100664.5564
100664.512293
100664.464725
100664.413762
100664.359462
100664.301918
100664.241214
100664.177472
100664.110803
100664.041356
100663.969269
100663.894718
100663.817865
100663.738908
100663.658032
100663.575455
100663.49138
100663.406044
100663.319664
100663.232492
100663.144758
100663.056723
100662.968627
100662.880737
100662.793299
100662.706586
100662.620844
100662.536345
100662.453333
100662.372074
100662.292805
100662.215781
100662.141226
100662.06938
100662.000446
100661.93464
100661.872143
100661.813141
100661.757783
100661.70622
100661.658557
100661.614892
100661.575266
100661.539691
100661.508106
100661.480413
100661.456272
100661.435308
100661.417292
100661.402087
100661.389542
100661.379525
100661.371881
100661.366464
100661.363103
100661.361631
100661.361855
100661.363586
100661.366612
100661.370728
100661.375708
100661.381338
100661.387388
100661.393644
100661.399878
100661.405884
100661.411446
100661.416374
100661.420467
100661.423553
100661.425454
100661.42602
100661.425098
100661.422562
100661.418286
100661.412171
100661.404124
100661.394082
100661.38199
100661.367829
100661.351597
100661.333333
100661.313096
100661.290991
100661.267143
100661.241718
100661.214895
100661.186883
100661.157888
100661.128129
100661.097807
100661.067124
100661.036253
100661.005364
100660.974595
100660.944079
100660.913925
100660.884235
100660.855091
100660.826571
100660.798736
100660.771647
100660.745349
100660.719888
100660.695295
100660.671603
100660.648837
100660.627017
100660.60616
100660.586281
100660.567386
100660.549487
100660.532585
100660.516685
100660.501786
100660.487887
100660.474986
100660.46308
100660.452163
100660.442235
100660.433315
100660.425432
100660.418546
100660.412668
100660.407868
100660.404183
100660.401564
100660.400048
100660.399516
100656.765972
100656.762098
100656.753318
100656.740829
100656.724625
100656.704692
100656.681023
100656.653605
100656.622439
100656.587519
100656.548859
100656.50647
100656.460386
100656.410641
100656.357296
100656.300411
100656.240079
100656.176392
100656.109473
100656.039445
100655.966465
100655.890683
100655.812287
100655.731452
100655.648392
100655.563307
100655.47643
100655.387982
100655.298213
100655.207359
100655.115685
100655.023439
100654.930897
100654.838314
100654.745976
100654.654143
100654.563104
100654.473123
100654.384488
100654.297461
100654.212329
100654.129347
100654.048792
100653.970911
100653.895967
100653.824192
100653.755832
100653.691097
100653.630198
100653.573296
100653.520525
100653.471926
100653.427471
100653.387021
100653.350395
100653.317378
100653.287821
100653.261521
100653.238215
100653.21774
100653.200123
100653.185333
100653.173324
100653.163998
100653.157242
100653.152901
100653.150811
100653.150769
100653.152577
100653.156004
100653.160828
100653.166806
100653.173707
100653.181284
100653.18931
100653.197547
100653.205779
100653.213781
100653.221357
100653.228305
100653.234451
100653.239618
100653.243656
100653.246415
100653.247772
100653.247599
100653.245797
100653.24226
100653.236907
100653.229651
100653.220429
100653.209175
100653.195849
100653.180417
100653.162883
100653.143269
100653.121648
100653.098125
100653.072861
100653.046049
100653.017928
100652.98875
100652.958787
100652.928298
100652.897532
100652.866704
100652.836012
100652.805611
100652.77564
100652.746209
100652.717412
100652.689323
100652.662008
100652.635516
100652.609894
100652.585174
100652.56139
100652.538561
100652.51671
100652.495848
100652.475988
100652.457137
100652.439301
100652.42248
100652.406676
100652.391885
100652.378106
100652.365331
100652.353556
100652.342772
100652.332976
100652.324195
100652.316433
100652.309646
100652.303862
100652.299159
100652.295559
100652.293005
100652.291542
100652.291048
100648.726192
100648.72219
100648.713148
100648.700247
100648.683472
100648.662806
100648.638233
100648.609733
100648.577296
100648.540911
100648.500583
100648.456316
100648.408139
100648.356081
100648.300202
100648.240561
100648.177253
100648.110373
100648.040051
100647.966416
100647.889637
100647.809873
100647.727324
100647.64218
100647.554669
100647.465006
100647.37344
100647.280205
100647.185572
100647.089789
100646.993141
100646.895891
100646.798333
100646.70074
100646.603414
100646.506638
100646.410719
100646.315944
100646.222625
100646.131051
100646.041539
100645.95438
100645.869892
100645.788368
100645.710122
100645.63543
100645.564565
100645.497711
100645.434974
100645.376307
100645.321566
100645.270521
100645.222973
100645.178769
100645.137878
100645.100334
100645.066255
100645.035799
100645.008942
100644.98552
100644.96554
100644.948942
100644.935637
100644.925484
100644.918328
100644.913972
100644.912215
100644.912824
100644.915569
100644.920197
100644.926462
100644.934101
100644.942864
100644.952489
100644.962732
100644.97334
100644.984086
100644.994736
100645.005082
100645.014916
100645.024059
100645.032332
100645.039586
100645.045673
100645.050475
100645.053877
100645.055791
100645.056127
100645.054823
100645.051813
100645.047052
100645.040487
100645.032082
100645.021787
100645.009568
100644.995376
100644.979182
100644.96096
100644.940723
100644.918513
100644.894436
100644.868646
100644.841373
100644.812888
100644.783508
100644.753549
100644.723325
100644.693109
100644.663137
100644.633594
100644.60463
100644.576355
100644.54886
100644.522208
100644.496454
100644.471633
100644.44778
100644.424914
100644.403056
100644.382215
100644.362403
100644.343622
100644.325876
100644.309163
100644.293482
100644.278826
100644.265189
100644.252564
100644.240941
100644.23031
100644.220669
100644.212046
100644.204414
100644.197742
100644.192066
100644.187474
100644.18397
100644.181489
100644.180084
100644.179631
100640.687077
100640.682951
100640.673654
100640.660342
100640.642991
100640.621577
100640.596073
100640.566451
100640.53269
100640.494769
100640.452683
100640.406429
100640.356028
100640.301504
100640.242913
100640.180314
100640.113803
100640.043477
100639.969474
100639.89193
100639.811022
100639.726922
100639.639842
100639.549987
100639.457598
100639.362906
100639.266177
100639.167663
100639.067649
100638.966403
100638.864227
100638.761403
100638.658246
100638.55505
100638.452141
100638.349827
100638.248447
100638.148322
100638.049809
100637.953249
100637.859018
100637.767475
100637.679001
100637.59393
100637.512546
100637.434986
100637.361239
100637.291128
100637.224429
100637.160934
100637.100587
100637.043448
100636.989702
100636.939563
100636.893273
100636.851039
100636.813037
100636.779399
100636.750107
100636.724954
100636.703822
100636.686566
100636.673033
100636.663038
100636.656389
100636.652861
100636.652225
100636.654228
100636.658617
100636.665118
100636.673465
100636.683377
100636.694584
100636.706806
100636.719783
100636.733246
100636.746949
100636.760646
100636.774114
100636.787134
100636.799514
100636.811066
100636.821633
100636.831063
100636.839235
100636.846031
100636.851367
100636.855161
100636.857361
100636.857915
100636.8568
100636.853989
100636.849476
100636.84325
100636.835313
100636.825656
100636.814275
100636.801146
100636.786246
100636.769528
100636.75096
100636.730519
100636.708232
100636.684177
100636.658516
100636.631487
100636.603409
100636.574639
100636.545554
100636.51649
100636.487737
100636.459515
100636.431991
100636.405278
100636.379461
100636.354592
100636.330714
100636.307852
100636.286025
100636.265243
100636.245515
100636.22684
100636.209219
100636.192648
100636.177122
100636.162631
100636.149168
100636.13672
100636.125276
100636.114821
100636.105362
100636.096911
100636.089422
100636.082881
100636.077329
100636.072866
100636.069466
100636.067069
100636.065728
100636.065316
100632.649283
100632.645036
100632.63549
100632.621766
100632.603832
100632.581652
100632.555188
100632.5244
100632.489253
100632.449714
100632.405766
100632.357395
100632.304614
100632.247439
100632.185921
100632.120119
100632.050127
100631.976048
100631.898024
100631.8162
100631.730761
100631.641895
100631.549825
100631.454772
100631.356993
100631.256736
100631.154285
100631.049911
100630.943916
100630.836591
100630.728258
100630.619223
100630.509827
100630.400395
100630.291289
100630.182863
100630.07551
100629.969616
100629.865613
100629.763918
100629.66496
100629.569085
100629.476537
100629.387348
100629.301388
100629.218409
100629.138242
100629.060859
100628.986436
100628.915243
100628.847624
100628.783908
100628.724424
100628.669428
100628.619135
100628.573668
100628.533105
100628.497457
100628.466664
100628.440537
100628.418923
100628.401634
100628.388483
100628.379249
100628.37371
100628.371614
100628.372708
100628.376714
100628.383356
100628.392339
100628.403376
100628.416162
100628.43041
100628.445818
100628.462105
100628.478984
100628.496192
100628.513462
100628.530557
100628.547241
100628.563306
100628.578554
100628.592813
100628.605921
100628.617746
100628.628167
100628.637091
100628.644434
100628.650142
100628.654167
100628.656489
100628.657092
100628.655985
100628.653177
100628.648698
100628.642574
100628.634844
100628.625537
100628.614688
100628.602309
100628.58841
100628.572967
100628.555942
100628.537272
100628.51692
100628.494887
100628.471255
100628.446186
100628.41995
100628.392902
100628.365456
100628.338012
100628.310915
100628.284424
100628.258722
100628.233925
100628.210109
100628.187318
100628.165581
100628.144909
100628.125313
100628.10679
100628.089339
100628.072951
100628.05762
100628.043333
100628.030078
100628.017841
100628.006606
100627.996358
100627.987108
100627.978844
100627.971517
100627.965123
100627.959713
100627.955394
100627.952112
100627.949809
100627.94854
100627.94817
100624.613589
100624.609222
100624.599431
100624.585293
100624.566764
100624.543796
100624.516336
100624.484327
100624.44772
100624.406464
100624.360527
100624.309883
100624.254531
100624.19448
100624.129774
100624.060468
100623.986659
100623.908451
100623.825992
100623.739438
100623.648987
100623.554837
100623.457229
100623.356402
100623.25263
100623.146182
100623.03736
100622.926457
100622.813802
100622.699708
100622.584526
100622.468597
100622.352302
100622.236015
100622.120159
100622.005157
100621.89148
100621.779581
100621.669909
100621.562796
100621.458426
100621.356741
100621.257556
100621.160662
100621.066041
100620.973865
100620.884483
100620.798303
100620.715777
100620.63733
100620.563366
100620.494215
100620.430152
100620.371369
100620.318002
100620.270107
100620.227696
100620.190711
100620.159059
100620.132549
100620.111012
100620.094236
100620.082008
100620.074083
100620.070211
100620.070115
100620.073518
100620.080118
100620.089614
100620.101687
100620.116027
100620.132307
100620.150214
100620.169425
100620.189638
100620.210542
100620.231853
100620.253287
100620.274584
100620.295491
100620.315785
100620.335249
100620.353698
100620.370957
100620.386884
100620.401344
100620.414239
100620.425475
100620.434995
100620.442746
100620.448706
100620.452858
100620.455215
100620.455791
100620.454623
100620.451751
100620.447234
100620.441127
100620.433499
100620.424412
100620.413933
100620.402109
100620.388984
100620.374569
100620.358854
100620.341778
100620.323265
100620.30325
100620.281747
100620.25885
100620.234762
100620.20979
100620.184352
100620.15889
100620.133802
100620.109378
100620.085814
100620.063221
100620.041668
100620.021184
100620.001786
100619.983474
100619.966248
100619.950096
100619.935008
100619.920969
100619.907965
100619.895976
100619.884984
100619.874978
100619.865965
100619.857906
100619.850764