/*--------------------------------*- C++ -*----------------------------------*\
| =========                 |                                                 |
| \\      /  F ield         | OpenFOAM: The Open Source CFD Toolbox           |
|  \\    /   O peration     | Version:  2206                                  |
|   \\  /    A nd           | Website:  www.openfoam.com                      |
|    \\/     M anipulation  |                                                 |
\*---------------------------------------------------------------------------*/
FoamFile
{
    version     2.0;
    format      ascii;
    arch        "LSB;label=64;scalar=64";
    class       volScalarField;
    location    "1.1/water";
    object      reactingEulerHtcModel(T.liquid);
}
// * * * * * * * * * * * * * * * * * * * * * * * * * * * * * * * * * * * * * //

dimensions      [1 0 -3 -1 0 0 0];

internalField   uniform 0;

boundaryField
{
    maxY
    {
        type            calculated;
        value           uniform 0;
    }
    symmetric
    {
        type            symmetry;
    }
    maxX
    {
        type            calculated;
        value           uniform 0;
    }
    minY
    {
        type            calculated;
        value           uniform 0;
    }
    emptyPatch
    {
        type            empty;
    }
    water_to_solid
    {
        type            calculated;
        value           nonuniform List<scalar> 
70
(
-177.787150101
-144.87081039
-146.682483875
-144.990414562
-147.320069889
-145.912745935
-147.51650048
-147.188131768
-169.472439315
-215.7962153
-248.400189077
-248.602766438
-248.790975967
-248.836850371
-248.600562177
-247.871491292
-246.459362219
-244.450235555
-242.64332071
-242.607727266
-245.461250871
-249.081711068
-179.554837248
-159.192744127
-145.484644261
-157.447430236
-143.936860105
-155.927117611
-141.516170892
-154.091080757
-142.039702363
-153.787628341
-141.965375854
-152.827559601
-142.719024874
-152.686741821
-145.623404086
-153.35518363
-149.400022911
-153.738989394
-151.977581508
-154.910323143
-159.244764728
-198.546715651
-237.712664247
-249.593332561
-248.699614337
-245.831521545
-245.265649729
-246.903401691
-249.106360926
-173.506022275
-110.34555251
-105.437382233
-104.766485473
-103.151023206
-103.474468321
-102.973385522
-104.828696185
-234.496883702
-235.246575665
-235.658092682
-236.091426481
-236.506489225
-236.849006077
-237.166863512
-237.820623856
-237.455831965
-128.369605871
-209.008854271
)
;
    }
}


// ************************************************************************* //
