/*--------------------------------*- C++ -*----------------------------------*\
| =========                 |                                                 |
| \\      /  F ield         | OpenFOAM: The Open Source CFD Toolbox           |
|  \\    /   O peration     | Version:  2206                                  |
|   \\  /    A nd           | Website:  www.openfoam.com                      |
|    \\/     M anipulation  |                                                 |
\*---------------------------------------------------------------------------*/
FoamFile
{
    version     2.0;
    format      ascii;
    arch        "LSB;label=64;scalar=64";
    class       volVectorField;
    location    "194400";
    object      U;
}
// * * * * * * * * * * * * * * * * * * * * * * * * * * * * * * * * * * * * * //

dimensions      [0 1 -1 0 0 0 0];

internalField   nonuniform List<vector> 
16
(
(-4.48396e-08 1.0236e-08 0)
(-1.75422e-08 -1.90357e-08 0)
(7.46168e-08 -1.80782e-08 0)
(3.55405e-08 3.0508e-08 0)
(-5.63352e-08 5.36089e-08 0)
(-1.181e-08 -1.02455e-07 0)
(5.74929e-08 -3.55173e-08 0)
(6.75086e-09 8.16166e-08 0)
(1.63123e-08 7.78778e-08 0)
(6.24152e-09 -1.32734e-07 0)
(-3.21064e-08 -3.58705e-08 0)
(-7.57092e-09 9.19079e-08 0)
(8.16608e-08 3.19263e-08 0)
(2.60631e-08 -5.42686e-08 0)
(-1.02493e-07 -2.02259e-08 0)
(-3.3046e-08 4.17838e-08 0)
)
;

boundaryField
{
    movingWall
    {
        type            noSlip;
    }
    fixedWalls
    {
        type            noSlip;
    }
    frontAndBack
    {
        type            empty;
    }
}


// ************************************************************************* //
