/*--------------------------------*- C++ -*----------------------------------*\
| =========                 |                                                 |
| \\      /  F ield         | OpenFOAM: The Open Source CFD Toolbox           |
|  \\    /   O peration     | Version:  2212                                  |
|   \\  /    A nd           | Website:  www.openfoam.com                      |
|    \\/     M anipulation  |                                                 |
\*---------------------------------------------------------------------------*/
FoamFile
{
    version     2.0;
    format      ascii;
    arch        "LSB;label=64;scalar=64";
    class       volScalarField;
    location    "430";
    object      p;
}
// * * * * * * * * * * * * * * * * * * * * * * * * * * * * * * * * * * * * * //

dimensions      [0 2 -2 0 0 0 0];

internalField   nonuniform List<scalar> 
1024
(
0
-6.70458e-06
-1.07447e-05
-6.65844e-06
7.47874e-06
3.35534e-05
7.44951e-05
0.000132873
0.000207419
0.000287577
0.000355272
0.000390429
0.000376436
0.000314282
0.000193793
-5.809e-07
-0.000236953
-0.000475108
-0.000689175
-0.000871057
-0.00101888
-0.00113266
-0.00121503
-0.00127025
-0.00130386
-0.0013221
-0.00133072
-0.00133369
-0.00133287
-0.00132872
-0.00132236
-0.00131685
-0.0928152
-0.0928229
-0.092828
-0.0928264
-0.0928165
-0.0927955
-0.0927597
-0.0927062
-0.0926364
-0.0925604
-0.0924959
-0.0924626
-0.0924772
-0.0925388
-0.0926571
-0.0928481
-0.0930813
-0.0933172
-0.0935295
-0.0937095
-0.0938553
-0.0939667
-0.0940464
-0.0940985
-0.0941289
-0.0941439
-0.0941495
-0.09415
-0.0941477
-0.0941433
-0.094137
-0.0941311
-0.199452
-0.199462
-0.19947
-0.199474
-0.199472
-0.19946
-0.199432
-0.199387
-0.199325
-0.199256
-0.199197
-0.199167
-0.199184
-0.199245
-0.199359
-0.199543
-0.19977
-0.200001
-0.20021
-0.200387
-0.200529
-0.200636
-0.200711
-0.200757
-0.200782
-0.20079
-0.20079
-0.200785
-0.200779
-0.200773
-0.200765
-0.200757
-0.321982
-0.321996
-0.32201
-0.322022
-0.32203
-0.322029
-0.322013
-0.321978
-0.321927
-0.321867
-0.321815
-0.321791
-0.32181
-0.32187
-0.321979
-0.322154
-0.322371
-0.322595
-0.322798
-0.322969
-0.323106
-0.323207
-0.323275
-0.323314
-0.32333
-0.323329
-0.323319
-0.323306
-0.323293
-0.323283
-0.323272
-0.323261
-0.46279
-0.462806
-0.462826
-0.462848
-0.462868
-0.46288
-0.462876
-0.462853
-0.462813
-0.462763
-0.462721
-0.462703
-0.462726
-0.462785
-0.462889
-0.463052
-0.463256
-0.46347
-0.463666
-0.463831
-0.46396
-0.464054
-0.464114
-0.464144
-0.464149
-0.464136
-0.464113
-0.464089
-0.464067
-0.464049
-0.464034
-0.46402
-0.624609
-0.624626
-0.624651
-0.62468
-0.624712
-0.624735
-0.624743
-0.624731
-0.624702
-0.624663
-0.624629
-0.624619
-0.624645
-0.624705
-0.624803
-0.624954
-0.625145
-0.625349
-0.625537
-0.625695
-0.625816
-0.625902
-0.625954
-0.625974
-0.625967
-0.625941
-0.625904
-0.625866
-0.625833
-0.625807
-0.625787
-0.625772
-0.810568
-0.810584
-0.81061
-0.810644
-0.810682
-0.810714
-0.810729
-0.810726
-0.810706
-0.810676
-0.810653
-0.81065
-0.81068
-0.810741
-0.810835
-0.810975
-0.811154
-0.811348
-0.811529
-0.81168
-0.811795
-0.811873
-0.811917
-0.811928
-0.811912
-0.811874
-0.811824
-0.811774
-0.81173
-0.811697
-0.811674
-0.811659
-1.02424
-1.02426
-1.02428
-1.02432
-1.02436
-1.02439
-1.02441
-1.02441
-1.0244
-1.02438
-1.02436
-1.02437
-1.0244
-1.02446
-1.02455
-1.02469
-1.02486
-1.02504
-1.02522
-1.02537
-1.02548
-1.02555
-1.02558
-1.02559
-1.02557
-1.02552
-1.02546
-1.0254
-1.02535
-1.02532
-1.02529
-1.02528
-1.26974
-1.26974
-1.26976
-1.2698
-1.26983
-1.26986
-1.26988
-1.26989
-1.26988
-1.26987
-1.26986
-1.26988
-1.26991
-1.26998
-1.27007
-1.27019
-1.27036
-1.27054
-1.27071
-1.27086
-1.27097
-1.27103
-1.27106
-1.27107
-1.27104
-1.27099
-1.27093
-1.27087
-1.27081
-1.27077
-1.27075
-1.27074
-1.55175
-1.55175
-1.55177
-1.55179
-1.55182
-1.55185
-1.55187
-1.55187
-1.55187
-1.55186
-1.55187
-1.55189
-1.55193
-1.552
-1.55209
-1.55221
-1.55237
-1.55256
-1.55273
-1.55287
-1.55298
-1.55304
-1.55307
-1.55307
-1.55304
-1.55299
-1.55293
-1.55287
-1.55281
-1.55278
-1.55276
-1.55275
-1.87569
-1.87569
-1.8757
-1.87572
-1.87574
-1.87577
-1.87578
-1.87579
-1.87579
-1.87579
-1.8758
-1.87583
-1.87588
-1.87595
-1.87604
-1.87616
-1.87632
-1.87651
-1.87668
-1.87683
-1.87693
-1.87699
-1.87701
-1.87701
-1.87698
-1.87693
-1.87686
-1.8768
-1.87675
-1.87671
-1.8767
-1.8767
-2.24779
-2.24779
-2.2478
-2.24781
-2.24782
-2.24784
-2.24785
-2.24786
-2.24786
-2.24787
-2.2479
-2.24793
-2.24799
-2.24806
-2.24816
-2.24828
-2.24844
-2.24862
-2.24879
-2.24895
-2.24905
-2.2491
-2.24911
-2.24909
-2.24905
-2.24899
-2.24892
-2.24886
-2.24881
-2.24878
-2.24877
-2.24877
-2.67521
-2.67521
-2.67521
-2.67521
-2.67522
-2.67523
-2.67524
-2.67525
-2.67526
-2.67528
-2.67531
-2.67536
-2.67542
-2.6755
-2.6756
-2.67572
-2.67587
-2.67604
-2.67621
-2.67636
-2.67646
-2.6765
-2.6765
-2.67645
-2.67639
-2.67631
-2.67622
-2.67615
-2.67611
-2.67608
-2.67608
-2.67608
-3.16617
-3.16617
-3.16617
-3.16618
-3.16618
-3.16619
-3.16619
-3.1662
-3.16621
-3.16624
-3.16628
-3.16633
-3.16641
-3.1665
-3.1666
-3.16672
-3.16686
-3.167
-3.16714
-3.16725
-3.16733
-3.16735
-3.16731
-3.16723
-3.16713
-3.16703
-3.16694
-3.16688
-3.16684
-3.16682
-3.16682
-3.16683
-3.73016
-3.73016
-3.73016
-3.73016
-3.73017
-3.73017
-3.73017
-3.73018
-3.73021
-3.73024
-3.73029
-3.73035
-3.73044
-3.73053
-3.73065
-3.73077
-3.73088
-3.73097
-3.73104
-3.73107
-3.73106
-3.73101
-3.73091
-3.7308
-3.73067
-3.73057
-3.7305
-3.73046
-3.73044
-3.73044
-3.73045
-3.73045
-4.37806
-4.37807
-4.37807
-4.37807
-4.37806
-4.37806
-4.37807
-4.37808
-4.37811
-4.37816
-4.37823
-4.37831
-4.37841
-4.37852
-4.37864
-4.37875
-4.37884
-4.37887
-4.37885
-4.37878
-4.37866
-4.3785
-4.37832
-4.37814
-4.37799
-4.37789
-4.37783
-4.37781
-4.37781
-4.37782
-4.37783
-4.37784
-5.07092
-5.07092
-5.07092
-5.07092
-5.07093
-5.07094
-5.07095
-5.07097
-5.071
-5.07105
-5.07111
-5.0712
-5.0713
-5.07142
-5.07154
-5.07165
-5.07171
-5.0717
-5.07164
-5.07152
-5.07136
-5.07116
-5.07095
-5.07075
-5.07057
-5.07044
-5.07038
-5.07035
-5.07036
-5.07037
-5.07038
-5.07038
-5.71899
-5.71899
-5.71899
-5.719
-5.71902
-5.71904
-5.71906
-5.71909
-5.71912
-5.71917
-5.71923
-5.71931
-5.71941
-5.71952
-5.71963
-5.71971
-5.71975
-5.71971
-5.71962
-5.7195
-5.71934
-5.71917
-5.71899
-5.71881
-5.71866
-5.71854
-5.71846
-5.71842
-5.7184
-5.7184
-5.71841
-5.71842
-6.28313
-6.28313
-6.28313
-6.28315
-6.28317
-6.28321
-6.28325
-6.28329
-6.28333
-6.28338
-6.28344
-6.28352
-6.28361
-6.28372
-6.28381
-6.28387
-6.28387
-6.28381
-6.2837
-6.28356
-6.28341
-6.28326
-6.2831
-6.28295
-6.28281
-6.28269
-6.28261
-6.28255
-6.28253
-6.28252
-6.28253
-6.28254
-6.77415
-6.77415
-6.77415
-6.77417
-6.77421
-6.77426
-6.77432
-6.77438
-6.77444
-6.7745
-6.77457
-6.77465
-6.77474
-6.77484
-6.77493
-6.77498
-6.77495
-6.77485
-6.77472
-6.77457
-6.77441
-6.77426
-6.77411
-6.77397
-6.77385
-6.77373
-6.77364
-6.77358
-6.77355
-6.77354
-6.77354
-6.77355
-7.20151
-7.2015
-7.20151
-7.20153
-7.20157
-7.20164
-7.20173
-7.20181
-7.2019
-7.20198
-7.20206
-7.20215
-7.20225
-7.20236
-7.20245
-7.20248
-7.20243
-7.20231
-7.20215
-7.20197
-7.2018
-7.20163
-7.20148
-7.20134
-7.20122
-7.20111
-7.20102
-7.20095
-7.20091
-7.20089
-7.20089
-7.2009
-7.57346
-7.57345
-7.57345
-7.57347
-7.57352
-7.5736
-7.5737
-7.57382
-7.57393
-7.57404
-7.57415
-7.57427
-7.57438
-7.5745
-7.57459
-7.57462
-7.57455
-7.57441
-7.57422
-7.57402
-7.57382
-7.57363
-7.57346
-7.57331
-7.57318
-7.57306
-7.57296
-7.57289
-7.57284
-7.57282
-7.57282
-7.57283
-7.8972
-7.89719
-7.89719
-7.8972
-7.89724
-7.89732
-7.89743
-7.89757
-7.89772
-7.89787
-7.89802
-7.89816
-7.8983
-7.89843
-7.89853
-7.89855
-7.89848
-7.89831
-7.8981
-7.89788
-7.89765
-7.89744
-7.89724
-7.89706
-7.89691
-7.89678
-7.89667
-7.89658
-7.89652
-7.8965
-7.89649
-7.8965
-8.179
-8.17899
-8.17898
-8.17899
-8.17902
-8.17908
-8.17919
-8.17933
-8.17951
-8.1797
-8.17989
-8.18008
-8.18025
-8.1804
-8.1805
-8.18053
-8.18045
-8.18027
-8.18004
-8.1798
-8.17955
-8.17931
-8.17908
-8.17887
-8.17868
-8.17852
-8.17839
-8.17828
-8.17821
-8.17817
-8.17816
-8.17817
-8.4243
-8.4243
-8.42429
-8.42428
-8.42429
-8.42433
-8.42442
-8.42457
-8.42476
-8.425
-8.42523
-8.42546
-8.42567
-8.42584
-8.42596
-8.42599
-8.4259
-8.42571
-8.42548
-8.42521
-8.42495
-8.42468
-8.42442
-8.42417
-8.42394
-8.42374
-8.42357
-8.42343
-8.42333
-8.42327
-8.42325
-8.42326
-8.63786
-8.63785
-8.63784
-8.63782
-8.63781
-8.63781
-8.63787
-8.63801
-8.63823
-8.6385
-8.63878
-8.63905
-8.63929
-8.63949
-8.63962
-8.63966
-8.63957
-8.63937
-8.63913
-8.63886
-8.63857
-8.63828
-8.63799
-8.63771
-8.63744
-8.63719
-8.63697
-8.63678
-8.63663
-8.63653
-8.63649
-8.63649
-8.82377
-8.82377
-8.82375
-8.82372
-8.82367
-8.82364
-8.82367
-8.8238
-8.82404
-8.82434
-8.82467
-8.82498
-8.82525
-8.82547
-8.82561
-8.82565
-8.82556
-8.82537
-8.82512
-8.82484
-8.82454
-8.82424
-8.82393
-8.82362
-8.82331
-8.82301
-8.82272
-8.82246
-8.82224
-8.82207
-8.82198
-8.82195
-8.98564
-8.98564
-8.98561
-8.98555
-8.98547
-8.9854
-8.98541
-8.98554
-8.98579
-8.98612
-8.98649
-8.98683
-8.98713
-8.98736
-8.98752
-8.98757
-8.98748
-8.98728
-8.98703
-8.98674
-8.98644
-8.98612
-8.9858
-8.98546
-8.98512
-8.98477
-8.98442
-8.98408
-8.98376
-8.98348
-8.98329
-8.9832
-9.12659
-9.12658
-9.12653
-9.12643
-9.12631
-9.12622
-9.12622
-9.12635
-9.12662
-9.12697
-9.12736
-9.12773
-9.12805
-9.1283
-9.12846
-9.12851
-9.12843
-9.12823
-9.12798
-9.12769
-9.12738
-9.12706
-9.12672
-9.12637
-9.12601
-9.12562
-9.12521
-9.12477
-9.12432
-9.12389
-9.12355
-9.12333
-9.24943
-9.24936
-9.24923
-9.24908
-9.24892
-9.24881
-9.24881
-9.24895
-9.24923
-9.2496
-9.25001
-9.2504
-9.25073
-9.25099
-9.25116
-9.25121
-9.25113
-9.25094
-9.25068
-9.25039
-9.25008
-9.24976
-9.24942
-9.24906
-9.24867
-9.24826
-9.2478
-9.24728
-9.2467
-9.24606
-9.24544
-9.24489
-9.35672
-9.35634
-9.35606
-9.35585
-9.35566
-9.35554
-9.35554
-9.35569
-9.35598
-9.35637
-9.35679
-9.35719
-9.35753
-9.3578
-9.35797
-9.35803
-9.35795
-9.35776
-9.3575
-9.35721
-9.3569
-9.35658
-9.35623
-9.35587
-9.35548
-9.35505
-9.35456
-9.35399
-9.35329
-9.35241
-9.35132
-9.35007
-9.45074
-9.44951
-9.44901
-9.44878
-9.44859
-9.44847
-9.44847
-9.44863
-9.44893
-9.44933
-9.44976
-9.45016
-9.45051
-9.45078
-9.45096
-9.45102
-9.45094
-9.45075
-9.45049
-9.45021
-9.4499
-9.44957
-9.44923
-9.44886
-9.44847
-9.44804
-9.44754
-9.44694
-9.44616
-9.44509
-9.4435
-9.44125
)
;

boundaryField
{
    movingWall
    {
        type            calculated;
        value           nonuniform List<scalar> 
32
(
-9.49401
-9.49278
-9.49228
-9.49206
-9.49187
-9.49174
-9.49174
-9.4919
-9.49221
-9.4926
-9.49303
-9.49344
-9.49379
-9.49406
-9.49424
-9.4943
-9.49422
-9.49403
-9.49377
-9.49349
-9.49318
-9.49285
-9.49251
-9.49214
-9.49175
-9.49132
-9.49082
-9.49022
-9.48944
-9.48837
-9.48678
-9.48453
)
;
    }
    fixedWalls
    {
        type            calculated;
        value           nonuniform List<scalar> 
64
(
6.93889e-18
-0.0928152
-0.199452
-0.321982
-0.46279
-0.624609
-0.810568
-1.02424
-1.26974
-1.55175
-1.87569
-2.24779
-2.67521
-3.16617
-3.73016
-4.37806
-5.07092
-5.71899
-6.28313
-6.77415
-7.20151
-7.57346
-7.8972
-8.179
-8.4243
-8.63786
-8.82377
-8.98564
-9.12659
-9.24943
-9.35672
-9.45074
-0.00131685
-0.0941311
-0.200757
-0.323261
-0.46402
-0.625772
-0.811659
-1.02528
-1.27074
-1.55275
-1.8767
-2.24877
-2.67608
-3.16683
-3.73045
-4.37784
-5.07038
-5.71842
-6.28254
-6.77355
-7.2009
-7.57283
-7.8965
-8.17817
-8.42326
-8.63649
-8.82195
-8.9832
-9.12333
-9.24489
-9.35007
-9.44125
)
;
    }
    floor
    {
        type            calculated;
        value           nonuniform List<scalar> 
32
(
0.0431966
0.0431901
0.0431864
0.0431909
0.0432057
0.0432324
0.043274
0.0433331
0.0434083
0.0434892
0.0435574
0.0435928
0.043579
0.0435167
0.0433959
0.043201
0.0429641
0.0427255
0.0425111
0.0423289
0.0421807
0.0420666
0.0419838
0.0419282
0.0418941
0.0418755
0.0418664
0.0418631
0.0418636
0.0418675
0.0418738
0.0418793
)
;
    }
    frontAndBack
    {
        type            empty;
    }
}


// ************************************************************************* //
