/*--------------------------------*- C++ -*----------------------------------*\
| =========                 |                                                 |
| \\      /  F ield         | OpenFOAM: The Open Source CFD Toolbox           |
|  \\    /   O peration     | Version:  2212                                  |
|   \\  /    A nd           | Website:  www.openfoam.com                      |
|    \\/     M anipulation  |                                                 |
\*---------------------------------------------------------------------------*/
FoamFile
{
    version     2.0;
    format      ascii;
    arch        "LSB;label=64;scalar=64";
    class       volScalarField;
    location    "430";
    object      Sch4;
}
// * * * * * * * * * * * * * * * * * * * * * * * * * * * * * * * * * * * * * //

dimensions      [1 -3 0 0 0 0 0];

internalField   nonuniform List<scalar> 
1024
(
0.0361982
0.0362101
0.036239
0.0362896
0.0363645
0.0364625
0.0365781
0.0367024
0.0368263
0.0369418
0.0370417
0.0371186
0.0371635
0.0371645
0.0371077
0.0369818
0.0367999
0.0366055
0.0364238
0.0362561
0.0361001
0.0359523
0.0358091
0.0356687
0.0355332
0.035408
0.0353
0.035214
0.0351516
0.0351111
0.0350884
0.0350791
0.0362009
0.0362134
0.0362435
0.0362961
0.0363736
0.0364743
0.036592
0.0367178
0.0368425
0.0369585
0.0370588
0.0371358
0.0371801
0.0371802
0.0371222
0.0369952
0.0368126
0.0366179
0.0364361
0.0362683
0.0361125
0.0359649
0.035822
0.0356818
0.0355458
0.0354193
0.0353091
0.0352207
0.0351562
0.0351141
0.0350906
0.0350809
0.0362071
0.0362204
0.0362527
0.0363089
0.0363912
0.0364969
0.0366191
0.0367485
0.0368764
0.0369955
0.0370983
0.0371767
0.0372208
0.0372185
0.0371564
0.037025
0.0368394
0.036643
0.0364601
0.0362915
0.0361352
0.0359879
0.0358456
0.0357058
0.0355692
0.0354405
0.0353266
0.0352339
0.0351655
0.0351206
0.0350954
0.035085
0.0362169
0.0362312
0.0362661
0.036327
0.0364154
0.0365282
0.0366575
0.036794
0.0369294
0.0370563
0.0371663
0.0372494
0.037294
0.0372873
0.0372164
0.037075
0.0368817
0.0366806
0.0364941
0.0363229
0.0361649
0.0360169
0.0358749
0.0357357
0.0355989
0.035468
0.03535
0.035252
0.0351787
0.03513
0.0351027
0.0350915
0.0362298
0.0362451
0.0362826
0.0363483
0.0364437
0.0365652
0.0367047
0.0368533
0.0370027
0.0371449
0.0372691
0.0373619
0.0374087
0.0373948
0.0373087
0.0371494
0.0369416
0.0367304
0.0365364
0.0363592
0.0361967
0.0360461
0.0359036
0.035765
0.0356284
0.035496
0.0353745
0.0352718
0.0351936
0.0351412
0.0351117
0.0350996
0.036245
0.036261
0.0363007
0.0363707
0.0364732
0.0366049
0.0367585
0.0369253
0.0370971
0.0372642
0.0374118
0.0375208
0.0375716
0.0375471
0.0374384
0.0372523
0.0370216
0.0367933
0.0365856
0.0363968
0.0362253
0.0360691
0.0359242
0.0357856
0.0356499
0.0355176
0.0353945
0.0352887
0.0352072
0.0351521
0.0351208
0.0351081
0.0362615
0.0362779
0.0363191
0.0363925
0.0365018
0.0366452
0.0368166
0.0370086
0.0372126
0.0374158
0.0375972
0.0377295
0.037786
0.0377471
0.0376087
0.0373875
0.0371258
0.0368722
0.0366421
0.0364337
0.0362466
0.0360798
0.0359298
0.0357904
0.0356562
0.0355259
0.0354038
0.035298
0.0352158
0.0351599
0.0351281
0.0351151
0.0362785
0.036295
0.036337
0.036413
0.0365287
0.0366849
0.0368781
0.0371025
0.0373488
0.0375998
0.0378257
0.0379881
0.0380509
0.0379937
0.0378207
0.0375601
0.0372621
0.0369742
0.0367105
0.036471
0.0362587
0.0360746
0.0359154
0.0357736
0.0356416
0.0355154
0.0353978
0.0352958
0.0352164
0.0351622
0.0351312
0.0351184
0.0362957
0.0363122
0.0363545
0.0364326
0.0365546
0.0367248
0.0369437
0.0372077
0.0375065
0.0378169
0.0380974
0.0382952
0.0383643
0.0382865
0.0380787
0.0377815
0.0374468
0.037115
0.0368018
0.0365149
0.0362639
0.0360531
0.0358794
0.0357332
0.0356037
0.035484
0.0353743
0.03528
0.0352069
0.0351569
0.0351281
0.0351159
0.0363135
0.03633
0.0363727
0.0364529
0.0365817
0.0367679
0.0370169
0.0373282
0.0376903
0.0380719
0.0384165
0.0386539
0.0387297
0.0386334
0.0384001
0.0380799
0.0377141
0.0373261
0.0369397
0.0365802
0.0362706
0.0360201
0.0358247
0.0356712
0.0355442
0.0354328
0.035334
0.0352508
0.0351866
0.0351428
0.0351171
0.0351059
0.0363333
0.03635
0.0363934
0.0364766
0.0366139
0.0368196
0.0371048
0.0374733
0.0379117
0.038378
0.0387963
0.039078
0.0391651
0.0390631
0.0388289
0.0385135
0.0381268
0.0376638
0.0371674
0.0366965
0.0362973
0.0359877
0.03576
0.0355945
0.0354688
0.0353666
0.0352805
0.03521
0.0351563
0.0351194
0.0350973
0.0350874
0.036358
0.0363751
0.0364202
0.0365083
0.0366576
0.0368886
0.0372197
0.0376597
0.0381919
0.0387595
0.0392631
0.0395978
0.0397118
0.0396368
0.0394486
0.0391807
0.0387854
0.0382209
0.0375636
0.0369227
0.0363834
0.0359804
0.0357006
0.0355135
0.0353856
0.0352914
0.0352179
0.0351601
0.0351169
0.0350869
0.0350685
0.0350599
0.0363927
0.0364106
0.0364589
0.0365552
0.0367224
0.0369886
0.0373807
0.0379127
0.0385625
0.0392525
0.0398578
0.0402646
0.0404421
0.0404549
0.0403829
0.040215
0.0398267
0.0391443
0.0382818
0.0373998
0.0366339
0.0360587
0.0356744
0.0354398
0.0353008
0.0352135
0.0351525
0.0351068
0.0350723
0.0350479
0.0350326
0.0350255
0.0364468
0.0364664
0.0365203
0.0366298
0.0368242
0.0371401
0.0376146
0.0382662
0.039064
0.0399042
0.0406367
0.0411527
0.0414578
0.041644
0.0417672
0.0417524
0.0414144
0.0406654
0.0396279
0.0384742
0.0373784
0.0364779
0.0358355
0.035441
0.0352262
0.0351161
0.0350574
0.0350226
0.035002
0.034993
0.0349922
0.0349942
0.0365312
0.036553
0.0366149
0.036744
0.0369778
0.0373644
0.037952
0.0387614
0.0397454
0.0407704
0.0416667
0.0423461
0.0428536
0.0432846
0.0436455
0.0438237
0.0436523
0.0430626
0.0421146
0.0409029
0.0395675
0.038275
0.0371619
0.0363047
0.0357269
0.0353722
0.0351956
0.0351476
0.0351804
0.0352504
0.03532
0.0353616
0.0366782
0.0367046
0.0367824
0.0369479
0.0372512
0.0377531
0.0385078
0.0395237
0.0407212
0.0419348
0.042995
0.0438473
0.0445531
0.0451715
0.0456699
0.0459781
0.0460702
0.0459865
0.0457063
0.0451665
0.044357
0.0433468
0.042252
0.0411941
0.0402758
0.039534
0.0390024
0.03868
0.0385352
0.0385117
0.038545
0.0385791
0.0369011
0.036933
0.0370277
0.0372296
0.0375965
0.0381915
0.0390602
0.0401922
0.0414942
0.0428042
0.0439659
0.0449122
0.0456566
0.0462022
0.0464993
0.0465369
0.0464867
0.0466424
0.0470602
0.0475874
0.0480495
0.0483208
0.0483536
0.0481636
0.0478053
0.0473505
0.0468666
0.0464125
0.0460392
0.0457789
0.0456339
0.0455799
0.0371243
0.0371591
0.0372611
0.0374764
0.037863
0.0384799
0.0393621
0.0404907
0.0417751
0.0430669
0.0442121
0.0451123
0.0457277
0.0460176
0.0459094
0.0453831
0.0446834
0.0443123
0.0444893
0.0451426
0.0461116
0.0472022
0.048242
0.0491097
0.0497417
0.0501236
0.0502795
0.0502609
0.0501396
0.0499916
0.0498753
0.0498179
0.0372938
0.0373292
0.0374294
0.0376369
0.0380053
0.0385883
0.0394168
0.0404721
0.0416725
0.0428869
0.04397
0.0448067
0.0453249
0.045465
0.0451564
0.0443761
0.0433637
0.0426588
0.0425211
0.0429432
0.0438349
0.0450457
0.0463931
0.0476987
0.0488253
0.0496978
0.0503005
0.0506617
0.0508363
0.0508908
0.0508884
0.0508754
0.0373954
0.0374303
0.0375238
0.0377113
0.0380383
0.0385524
0.0392832
0.0402192
0.0412936
0.0423946
0.0433898
0.0441628
0.0446283
0.0447205
0.044379
0.0435883
0.0425664
0.0418049
0.0415533
0.0418423
0.0426354
0.0438428
0.0453206
0.0468813
0.0483325
0.0495295
0.0504047
0.0509655
0.05127
0.0513983
0.0514298
0.051427
0.0374285
0.0374627
0.0375487
0.0377129
0.0379912
0.0384225
0.0390343
0.0398221
0.0407372
0.0416897
0.0425664
0.0432607
0.0436881
0.0437844
0.0435002
0.04283
0.041976
0.0413485
0.0411514
0.0414201
0.0421418
0.0432706
0.0447185
0.0463429
0.0479599
0.0493883
0.0505027
0.0512619
0.0517014
0.0519028
0.0519622
0.0519639
0.037402
0.0374349
0.0375135
0.0376566
0.0378895
0.0382415
0.0387348
0.039369
0.0401095
0.0408883
0.0416171
0.0422094
0.0425941
0.0427177
0.0425454
0.0420845
0.0415155
0.0411487
0.0411275
0.0414791
0.0421994
0.0432669
0.0446345
0.0462095
0.0478488
0.0493772
0.0506391
0.0515487
0.0521069
0.0523813
0.0524724
0.0524807
0.0373517
0.0373782
0.0374432
0.0375627
0.0377548
0.0380385
0.0384282
0.0389226
0.0394967
0.040101
0.0406739
0.041157
0.0415039
0.0416807
0.0416699
0.0414903
0.0412809
0.041238
0.0414452
0.0419224
0.0426714
0.0436869
0.0449504
0.0464119
0.047975
0.0494958
0.0508181
0.0518247
0.0524772
0.0528183
0.0529424
0.0529588
0.0373708
0.0373782
0.0374084
0.037483
0.0376226
0.0378403
0.0381405
0.0385171
0.0389503
0.0394077
0.0398547
0.0402641
0.0406163
0.0408972
0.0411016
0.0412499
0.0414209
0.0416993
0.0421241
0.0427157
0.0434843
0.0444372
0.0455765
0.0468859
0.0483111
0.0497452
0.0510499
0.0520967
0.0528138
0.0532112
0.0533673
0.0533928
0.0376115
0.0375819
0.0375416
0.0375267
0.0375744
0.0377038
0.0379146
0.0381946
0.0385282
0.0388994
0.0392981
0.0397197
0.0401601
0.0406117
0.0410692
0.0415437
0.0420504
0.0425873
0.0431704
0.0438292
0.0445837
0.0454511
0.046447
0.0475773
0.0488221
0.0501134
0.0513386
0.0523717
0.0531201
0.0535604
0.0537465
0.0537821
0.0382369
0.0381546
0.0380112
0.0378596
0.0377649
0.0377702
0.0378843
0.038096
0.0383942
0.0387726
0.0392311
0.0397675
0.0403725
0.04103
0.0417261
0.0424596
0.0431981
0.0438898
0.0445471
0.0452108
0.0459095
0.0466671
0.0475056
0.0484431
0.0494828
0.050591
0.0516872
0.0526586
0.0534027
0.0538689
0.0540812
0.0541279
0.0393593
0.0392212
0.0389745
0.0386839
0.0384381
0.0383158
0.038351
0.0385423
0.0388791
0.0393506
0.0399451
0.0406431
0.0414177
0.0422407
0.0430908
0.0439607
0.0447955
0.0455275
0.0461746
0.0467851
0.0473923
0.0480222
0.0486982
0.0494423
0.0502698
0.0511722
0.0521016
0.0529683
0.0536715
0.0541419
0.0543738
0.0544322
0.0410168
0.0408414
0.0405503
0.040206
0.0398903
0.0397072
0.039719
0.0399361
0.0403449
0.0409203
0.0416296
0.0424329
0.0432893
0.0441649
0.0450389
0.0459046
0.0467058
0.04738
0.0479505
0.0484659
0.0489589
0.0494539
0.0499719
0.0505336
0.0511571
0.0518491
0.0525885
0.0533144
0.0539401
0.0543881
0.0546281
0.0546972
0.0432013
0.043035
0.042817
0.0425712
0.0423294
0.042189
0.042229
0.0424726
0.0429087
0.0435042
0.0442148
0.0449918
0.0457922
0.0465854
0.0473553
0.0480988
0.0487697
0.0493198
0.0497725
0.0501702
0.0505406
0.0509038
0.0512764
0.0516745
0.0521142
0.0526072
0.0531502
0.0537102
0.0542239
0.054619
0.0548497
0.0549254
0.0459179
0.0458327
0.0458071
0.0457688
0.0456927
0.0456501
0.0457207
0.0459421
0.0463136
0.0468083
0.047386
0.0480041
0.0486273
0.0492326
0.0498097
0.0503575
0.0508442
0.0512369
0.0515547
0.0518289
0.0520798
0.0523216
0.0525659
0.0528235
0.0531059
0.0534234
0.0537804
0.0541642
0.0545382
0.0548482
0.0550462
0.0551202
0.0492423
0.0493015
0.0494553
0.0495632
0.0496053
0.0496294
0.0496951
0.0498408
0.0500752
0.0503845
0.050743
0.0511234
0.0515031
0.0518681
0.0522127
0.0525368
0.0528223
0.0530507
0.0532337
0.05339
0.0535314
0.0536662
0.0538008
0.0539414
0.054094
0.0542651
0.0544594
0.0546742
0.054894
0.0550897
0.0552271
0.0552856
0.0533027
0.0533615
0.05346
0.0535293
0.0535655
0.0535855
0.0536114
0.05366
0.0537371
0.0538392
0.0539576
0.0540829
0.0542076
0.0543269
0.0544391
0.0545442
0.0546364
0.05471
0.0547686
0.0548185
0.0548634
0.0549059
0.0549482
0.0549919
0.0550391
0.0550918
0.0551516
0.0552184
0.0552885
0.0553539
0.0554036
0.0554276
)
;

boundaryField
{
    movingWall
    {
        type            fixedValue;
        value           uniform 0.0555;
    }
    fixedWalls
    {
        type            zeroGradient;
    }
    floor
    {
        type            zeroGradient;
    }
    frontAndBack
    {
        type            empty;
    }
}


// ************************************************************************* //
