/*--------------------------------*- C++ -*----------------------------------*\
| =========                 |                                                 |
| \\      /  F ield         | OpenFOAM: The Open Source CFD Toolbox           |
|  \\    /   O peration     | Version:  2212                                  |
|   \\  /    A nd           | Website:  www.openfoam.com                      |
|    \\/     M anipulation  |                                                 |
\*---------------------------------------------------------------------------*/
FoamFile
{
    version     2.0;
    format      ascii;
    arch        "LSB;label=64;scalar=64";
    class       volVectorField;
    location    "430";
    object      U;
}
// * * * * * * * * * * * * * * * * * * * * * * * * * * * * * * * * * * * * * //

dimensions      [0 1 -1 0 0 0 0];

internalField   nonuniform List<vector> 
1024
(
(1.08683e-06 -5.25505e-06 0)
(-0.000271186 6.92764e-05 0)
(-0.000881169 0.000113157 0)
(-0.0016677 0.000110496 0)
(-0.00245033 9.23358e-05 0)
(-0.00313573 7.1995e-05 0)
(-0.0036636 4.91987e-05 0)
(-0.00395482 2.19326e-05 0)
(-0.00391642 -1.0407e-05 0)
(-0.00344888 -4.11078e-05 0)
(-0.00254326 -5.89912e-05 0)
(-0.00130923 -6.22974e-05 0)
(4.37797e-05 -5.1226e-05 0)
(0.00148801 -4.359e-05 0)
(0.00282026 -3.51854e-05 0)
(0.00394434 -2.02162e-05 0)
(0.00470928 -1.33767e-05 0)
(0.00521031 -8.88627e-06 0)
(0.00550439 -2.5071e-06 0)
(0.00560771 4.27705e-06 0)
(0.00553554 1.32032e-05 0)
(0.0052876 2.42461e-05 0)
(0.00486495 3.66904e-05 0)
(0.00429529 4.81747e-05 0)
(0.0036308 5.60529e-05 0)
(0.00293164 5.97221e-05 0)
(0.00224166 6.16344e-05 0)
(0.00157922 6.48447e-05 0)
(0.000957178 6.77198e-05 0)
(0.000425235 5.7161e-05 0)
(7.92288e-05 1.70629e-05 0)
(-2.38564e-05 -2.61749e-05 0)
(-9.78181e-05 0.000288945 0)
(-0.00102962 0.00087993 0)
(-0.00267635 0.00117442 0)
(-0.00467981 0.00113262 0)
(-0.0066345 0.000926164 0)
(-0.00830203 0.000672229 0)
(-0.00951517 0.000403383 0)
(-0.0100997 0.000124618 0)
(-0.00988598 -0.000160309 0)
(-0.00869517 -0.000409732 0)
(-0.00653319 -0.00056395 0)
(-0.00360658 -0.000606064 0)
(-0.000292204 -0.000561094 0)
(0.00345019 -0.000492749 0)
(0.0068612 -0.000388923 0)
(0.00984487 -0.00025938 0)
(0.0119825 -0.000175292 0)
(0.0134212 -0.000123762 0)
(0.0143313 -6.99724e-05 0)
(0.014765 -6.79625e-06 0)
(0.0147452 7.63144e-05 0)
(0.0142822 0.000184398 0)
(0.0133602 0.000315323 0)
(0.0120261 0.000452506 0)
(0.0103854 0.000575512 0)
(0.00857232 0.000673787 0)
(0.00670503 0.000752649 0)
(0.00486481 0.000818242 0)
(0.00312327 0.000843768 0)
(0.00160911 0.00074539 0)
(0.00053616 0.000451048 0)
(3.02946e-05 8.32813e-05 0)
(-0.000208816 0.00115148 0)
(-0.0017975 0.00273496 0)
(-0.00431739 0.00334622 0)
(-0.0072331 0.00313264 0)
(-0.00999722 0.00251048 0)
(-0.0122812 0.00175929 0)
(-0.0138454 0.000983894 0)
(-0.014471 0.000218742 0)
(-0.0139629 -0.000517385 0)
(-0.0121839 -0.00112921 0)
(-0.00920819 -0.00150442 0)
(-0.00527077 -0.0016229 0)
(-0.000759863 -0.00155765 0)
(0.00457847 -0.001391 0)
(0.0093997 -0.00110403 0)
(0.0138103 -0.000770698 0)
(0.0171627 -0.000538252 0)
(0.0195004 -0.000393012 0)
(0.0210603 -0.000251068 0)
(0.0219268 -8.21569e-05 0)
(0.0221236 0.000140524 0)
(0.0216699 0.000432937 0)
(0.0205402 0.000796724 0)
(0.0187788 0.00119692 0)
(0.0165039 0.00158511 0)
(0.0138804 0.00192856 0)
(0.0110757 0.002222 0)
(0.00823359 0.00245931 0)
(0.00548879 0.00256826 0)
(0.00302808 0.00236363 0)
(0.00115946 0.00166109 0)
(0.000114988 0.000573283 0)
(-0.000281005 0.00263665 0)
(-0.00231693 0.00571173 0)
(-0.00541736 0.00665985 0)
(-0.00889642 0.00608382 0)
(-0.0121061 0.00477902 0)
(-0.0146645 0.00324484 0)
(-0.0162961 0.00169344 0)
(-0.0167755 0.000212549 0)
(-0.015917 -0.00114185 0)
(-0.0137295 -0.00220834 0)
(-0.010348 -0.00284613 0)
(-0.00600229 -0.00305962 0)
(-0.00103644 -0.00299645 0)
(0.00498461 -0.00270929 0)
(0.010432 -0.00217614 0)
(0.0156853 -0.00158415 0)
(0.0199572 -0.00114759 0)
(0.0230687 -0.000864304 0)
(0.0252412 -0.000594468 0)
(0.0265722 -0.000272729 0)
(0.0271043 0.000152804 0)
(0.026833 0.000714916 0)
(0.0257392 0.00142462 0)
(0.0238541 0.00223093 0)
(0.0212823 0.00305304 0)
(0.0181898 0.00382602 0)
(0.0147657 0.00451844 0)
(0.011195 0.00509372 0)
(0.00765786 0.00541543 0)
(0.00438414 0.00516072 0)
(0.00177438 0.00392362 0)
(0.000199884 0.00160335 0)
(-0.000287277 0.00460523 0)
(-0.00244026 0.00959524 0)
(-0.00573785 0.0109174 0)
(-0.00941383 0.00980776 0)
(-0.0127483 0.007567 0)
(-0.0153178 0.0049839 0)
(-0.0168323 0.00241978 0)
(-0.017087 4.53244e-05 0)
(-0.0159459 -0.00202846 0)
(-0.0135892 -0.00357109 0)
(-0.0101551 -0.00446611 0)
(-0.00585632 -0.00476819 0)
(-0.000992309 -0.00470561 0)
(0.00485169 -0.00428569 0)
(0.0102214 -0.00350084 0)
(0.0156949 -0.00265574 0)
(0.0204832 -0.00200181 0)
(0.0241431 -0.00155544 0)
(0.0267993 -0.00112803 0)
(0.0285304 -0.00061976 0)
(0.029423 5.52525e-05 0)
(0.0294275 0.000956713 0)
(0.0285342 0.00210845 0)
(0.0267525 0.0034509 0)
(0.0241595 0.00487116 0)
(0.0209048 0.00626535 0)
(0.0171813 0.00756259 0)
(0.0131951 0.00867887 0)
(0.00915658 0.00939251 0)
(0.00533281 0.0091955 0)
(0.00220474 0.00732829 0)
(0.000258761 0.00323866 0)
(-0.00022987 0.0067676 0)
(-0.00217402 0.0139796 0)
(-0.00529797 0.0158059 0)
(-0.00884566 0.0140915 0)
(-0.0120582 0.0107239 0)
(-0.0144728 0.00686997 0)
(-0.0157946 0.00309974 0)
(-0.0158589 -0.00029626 0)
(-0.0146315 -0.00311402 0)
(-0.0123473 -0.00511572 0)
(-0.00913225 -0.00624429 0)
(-0.00518545 -0.00661216 0)
(-0.000782925 -0.00651118 0)
(0.00432349 -0.00594295 0)
(0.00913782 -0.0049499 0)
(0.0143155 -0.00390864 0)
(0.0192123 -0.00306898 0)
(0.02315 -0.00245816 0)
(0.0261003 -0.0018535 0)
(0.0280871 -0.00113454 0)
(0.0292278 -0.000185012 0)
(0.0295073 0.00110298 0)
(0.0288802 0.0027727 0)
(0.0273328 0.00476488 0)
(0.0249051 0.0069357 0)
(0.0217221 0.00913603 0)
(0.0179705 0.0112431 0)
(0.0138672 0.0131065 0)
(0.0096474 0.0143874 0)
(0.00561591 0.0143315 0)
(0.00230989 0.0117146 0)
(0.00026618 0.00537755 0)
(-0.000140141 0.00877828 0)
(-0.00165609 0.0183567 0)
(-0.00433056 0.020928 0)
(-0.00751153 0.0186891 0)
(-0.0104449 0.0141153 0)
(-0.0126367 0.00884636 0)
(-0.0137906 0.00374175 0)
(-0.0137806 -0.000739269 0)
(-0.0126664 -0.00428832 0)
(-0.0106414 -0.0067315 0)
(-0.00782338 -0.00807218 0)
(-0.00441749 -0.0084736 0)
(-0.000697015 -0.00827533 0)
(0.00343442 -0.00754669 0)
(0.00746095 -0.00641111 0)
(0.0120173 -0.00526176 0)
(0.0167095 -0.00430405 0)
(0.0206976 -0.00354747 0)
(0.0237685 -0.00274943 0)
(0.0258548 -0.00179181 0)
(0.0270756 -0.000552133 0)
(0.0275181 0.00113898 0)
(0.0271119 0.0033746 0)
(0.0258248 0.00610532 0)
(0.0236539 0.00915582 0)
(0.0206937 0.0123234 0)
(0.0171193 0.0154182 0)
(0.0131536 0.0181968 0)
(0.00905656 0.020156 0)
(0.00517059 0.0202248 0)
(0.00205565 0.0166618 0)
(0.000216531 0.00773702 0)
(-5.54868e-05 0.0103607 0)
(-0.00107096 0.0222439 0)
(-0.00315078 0.0258679 0)
(-0.00582819 0.0233489 0)
(-0.00840752 0.0176346 0)
(-0.0103771 0.0109119 0)
(-0.0114358 0.0044234 0)
(-0.011484 -0.00115179 0)
(-0.0106072 -0.00543154 0)
(-0.00894111 -0.00831264 0)
(-0.00662329 -0.00984393 0)
(-0.00387845 -0.0102359 0)
(-0.000970183 -0.00988566 0)
(0.00213015 -0.00900408 0)
(0.00529566 -0.00779644 0)
(0.00907453 -0.00664507 0)
(0.0133618 -0.00566718 0)
(0.01726 -0.00480284 0)
(0.0203598 -0.00379356 0)
(0.0224577 -0.00255018 0)
(0.0236297 -0.000989623 0)
(0.0240698 0.00110353 0)
(0.0237671 0.00392099 0)
(0.0226912 0.00744249 0)
(0.0207968 0.0114618 0)
(0.0181439 0.0157118 0)
(0.0148919 0.0199148 0)
(0.0112672 0.0236963 0)
(0.00755373 0.0263249 0)
(0.00412686 0.0263485 0)
(0.001524 0.0215547 0)
(0.000129542 0.00992199 0)
(1.87249e-06 0.0113901 0)
(-0.000566609 0.0253033 0)
(-0.00203269 0.0302682 0)
(-0.00415964 0.0278443 0)
(-0.00636583 0.0212061 0)
(-0.00814192 0.0131029 0)
(-0.0091729 0.00524474 0)
(-0.00935948 -0.00142455 0)
(-0.00876507 -0.00644564 0)
(-0.00750185 -0.00975857 0)
(-0.00575481 -0.0114403 0)
(-0.00376328 -0.0117691 0)
(-0.00173065 -0.0112304 0)
(0.000323226 -0.01023 0)
(0.00260814 -0.00902707 0)
(0.00554563 -0.00799174 0)
(0.00927646 -0.00712533 0)
(0.0129979 -0.00622607 0)
(0.0161198 -0.00499454 0)
(0.0182588 -0.00338808 0)
(0.019365 -0.00142951 0)
(0.0196768 0.00107564 0)
(0.019363 0.00446202 0)
(0.0184384 0.00877949 0)
(0.0168182 0.0138002 0)
(0.0145243 0.0191805 0)
(0.0116977 0.0245268 0)
(0.0085682 0.0292803 0)
(0.00544553 0.0324051 0)
(0.00272526 0.0320385 0)
(0.000860985 0.0256924 0)
(3.56899e-05 0.0115426 0)
(2.91905e-05 0.0118989 0)
(-0.000214872 0.027408 0)
(-0.00114425 0.0338905 0)
(-0.00274185 0.0319925 0)
(-0.00458442 0.0247708 0)
(-0.00619148 0.0154601 0)
(-0.00722944 0.00629248 0)
(-0.00757597 -0.001473 0)
(-0.00727126 -0.00724287 0)
(-0.00644769 -0.0109477 0)
(-0.00534839 -0.0127027 0)
(-0.00419842 -0.0129103 0)
(-0.00310401 -0.0121876 0)
(-0.00202217 -0.0111004 0)
(-0.000702135 -0.010021 0)
(0.00135978 -0.00921011 0)
(0.00434799 -0.00862644 0)
(0.00777952 -0.0078379 0)
(0.0109321 -0.00642074 0)
(0.0132523 -0.00435391 0)
(0.0144541 -0.00183696 0)
(0.0146402 0.00112817 0)
(0.0142764 0.0050457 0)
(0.0134949 0.0101105 0)
(0.0121699 0.0160993 0)
(0.0102794 0.0225815 0)
(0.00794984 0.0290059 0)
(0.00542764 0.0345509 0)
(0.00305625 0.0378041 0)
(0.00122415 0.0365541 0)
(0.000217813 0.0284161 0)
(-3.87527e-05 0.0123198 0)
(3.06431e-05 0.0120172 0)
(-2.43742e-05 0.0286386 0)
(-0.00054454 0.0366499 0)
(-0.00168222 0.0356676 0)
(-0.00318581 0.0282721 0)
(-0.00463413 0.0180045 0)
(-0.00568327 0.00762713 0)
(-0.00618429 -0.00122189 0)
(-0.00618827 -0.00770574 0)
(-0.00587055 -0.0116961 0)
(-0.00551604 -0.0134065 0)
(-0.00529283 -0.0134455 0)
(-0.00519412 -0.012592 0)
(-0.00507613 -0.011505 0)
(-0.00466619 -0.0106189 0)
(-0.00359773 -0.010171 0)
(-0.0016095 -0.0100503 0)
(0.0013321 -0.0096165 0)
(0.00441094 -0.00818862 0)
(0.00704941 -0.00566071 0)
(0.00874058 -0.00231132 0)
(0.00908059 0.00122344 0)
(0.00874823 0.00562002 0)
(0.00816042 0.0113428 0)
(0.00716408 0.0182175 0)
(0.00570502 0.0257053 0)
(0.00391353 0.0330284 0)
(0.00209877 0.0390114 0)
(0.000649157 0.0418111 0)
(-0.000153458 0.0390765 0)
(-0.000296967 0.0291948 0)
(-8.47068e-05 0.012175 0)
(2.62087e-05 0.0119241 0)
(4.90061e-05 0.0292158 0)
(-0.00022107 0.0386214 0)
(-0.00100486 0.0388183 0)
(-0.00220971 0.0316556 0)
(-0.00350452 0.0207341 0)
(-0.00456015 0.00930078 0)
(-0.00521826 -0.000552177 0)
(-0.00559164 -0.00763266 0)
(-0.00588507 -0.0117181 0)
(-0.00638074 -0.0132452 0)
(-0.00715547 -0.0131031 0)
(-0.00809994 -0.0122185 0)
(-0.00900125 -0.0112792 0)
(-0.00958048 -0.0107069 0)
(-0.00951378 -0.0107057 0)
(-0.00852331 -0.011156 0)
(-0.00652471 -0.0113081 0)
(-0.00388253 -0.0103114 0)
(-0.00105377 -0.00778376 0)
(0.00152265 -0.00340442 0)
(0.00290372 0.00116365 0)
(0.00279457 0.00597931 0)
(0.0024026 0.0122505 0)
(0.0016969 0.01996 0)
(0.000667157 0.028363 0)
(-0.000431471 0.0363829 0)
(-0.00122861 0.0419396 0)
(-0.00152247 0.0433375 0)
(-0.00126405 0.0389085 0)
(-0.000678315 0.0279181 0)
(-0.000114667 0.0111217 0)
(1.58347e-05 0.0117686 0)
(3.60259e-05 0.0294904 0)
(-0.000129193 0.0400487 0)
(-0.000688599 0.0415067 0)
(-0.00166078 0.034902 0)
(-0.00282185 0.0236513 0)
(-0.00389868 0.0113955 0)
(-0.00476457 0.000758359 0)
(-0.00559437 -0.00668853 0)
(-0.00663101 -0.0106029 0)
(-0.0080672 -0.0118275 0)
(-0.00988495 -0.0115503 0)
(-0.0119051 -0.010778 0)
(-0.0138869 -0.0101549 0)
(-0.0155652 -0.0100472 0)
(-0.0166384 -0.0106324 0)
(-0.0167854 -0.0118035 0)
(-0.0157389 -0.0127141 0)
(-0.0137352 -0.0123559 0)
(-0.0111752 -0.0102295 0)
(-0.00839395 -0.00615164 0)
(-0.00578668 -0.000479167 0)
(-0.00474633 0.0056866 0)
(-0.00475326 0.0129235 0)
(-0.00485873 0.0213857 0)
(-0.00498032 0.0300167 0)
(-0.00486557 0.0373732 0)
(-0.00433664 0.0416595 0)
(-0.00338006 0.0413818 0)
(-0.00214091 0.0355673 0)
(-0.000946957 0.0243495 0)
(-0.000128707 0.0091717 0)
(1.62948e-06 0.0117243 0)
(-3.28378e-05 0.0298447 0)
(-0.000207881 0.0413275 0)
(-0.000678464 0.0439597 0)
(-0.00151035 0.0380963 0)
(-0.00258027 0.0268303 0)
(-0.0037101 0.0140971 0)
(-0.00487972 0.00306968 0)
(-0.00629502 -0.00439615 0)
(-0.00822103 -0.00786183 0)
(-0.0106727 -0.00873583 0)
(-0.0135483 -0.00843821 0)
(-0.0166308 -0.00796221 0)
(-0.019685 -0.00784255 0)
(-0.0224715 -0.00836741 0)
(-0.0247144 -0.00969092 0)
(-0.0260848 -0.0117432 0)
(-0.0261851 -0.0136306 0)
(-0.0251193 -0.0142093 0)
(-0.0231781 -0.0128507 0)
(-0.0206194 -0.00916535 0)
(-0.0177613 -0.00316734 0)
(-0.0149137 0.00446541 0)
(-0.0135538 0.012397 0)
(-0.0121484 0.0206864 0)
(-0.0106079 0.0284977 0)
(-0.00884794 0.0344262 0)
(-0.00685302 0.0369977 0)
(-0.00472346 0.0351668 0)
(-0.00268209 0.0286962 0)
(-0.001063 0.018504 0)
(-0.000120452 0.00647346 0)
(-1.1305e-05 0.0119339 0)
(-0.000130784 0.0306156 0)
(-0.000398148 0.0429088 0)
(-0.0009016 0.0465294 0)
(-0.00169526 0.0414225 0)
(-0.00272414 0.0303852 0)
(-0.00392706 0.0175785 0)
(-0.00547069 0.00667935 0)
(-0.00769737 -0.000332864 0)
(-0.0106704 -0.0034968 0)
(-0.0142519 -0.00407469 0)
(-0.0181401 -0.00379092 0)
(-0.0220785 -0.00371414 0)
(-0.0259064 -0.00424377 0)
(-0.0294533 -0.00556235 0)
(-0.0325233 -0.00774244 0)
(-0.0348729 -0.0107204 0)
(-0.0360914 -0.0135994 0)
(-0.036161 -0.0152171 0)
(-0.0351951 -0.0149806 0)
(-0.0331983 -0.0124741 0)
(-0.030199 -0.00752485 0)
(-0.026254 -0.000352486 0)
(-0.0217748 0.00800206 0)
(-0.0179563 0.0152404 0)
(-0.0142304 0.0214584 0)
(-0.0107569 0.0256659 0)
(-0.0075773 0.0267533 0)
(-0.0047543 0.0241559 0)
(-0.00244565 0.0183032 0)
(-0.000865739 0.0107007 0)
(-8.57439e-05 0.00327002 0)
(-2.84185e-05 0.012648 0)
(-0.000240271 0.0324084 0)
(-0.000651517 0.0455889 0)
(-0.00131523 0.0500216 0)
(-0.00228103 0.0455716 0)
(-0.00357628 0.0350193 0)
(-0.0052961 0.0229611 0)
(-0.00770041 0.0135162 0)
(-0.0109508 0.00818957 0)
(-0.014825 0.00578248 0)
(-0.0189338 0.00452845 0)
(-0.0230071 0.00342837 0)
(-0.026925 0.00207702 0)
(-0.0306191 0.000265213 0)
(-0.0340166 -0.00210916 0)
(-0.036986 -0.0051175 0)
(-0.0395016 -0.00893137 0)
(-0.0412381 -0.0127572 0)
(-0.0420605 -0.0155873 0)
(-0.0419017 -0.0170871 0)
(-0.040581 -0.0170498 0)
(-0.0379323 -0.0153482 0)
(-0.0338911 -0.0119098 0)
(-0.0286115 -0.00671719 0)
(-0.0225443 8.66037e-05 0)
(-0.0165979 0.00674726 0)
(-0.0111774 0.0118205 0)
(-0.00668275 0.0138622 0)
(-0.00336012 0.0126325 0)
(-0.00127169 0.00931654 0)
(-0.000268504 0.00526367 0)
(1.5679e-05 0.0015678 0)
(-1.23784e-05 0.0135109 0)
(-0.000157519 0.0346064 0)
(-0.000502294 0.0489432 0)
(-0.00113333 0.0544646 0)
(-0.00212353 0.0510329 0)
(-0.00352313 0.0414682 0)
(-0.0053962 0.0304916 0)
(-0.0077953 0.02193 0)
(-0.0106296 0.0167173 0)
(-0.0137344 0.013727 0)
(-0.0170139 0.0116545 0)
(-0.0204207 0.00972522 0)
(-0.0238962 0.00755344 0)
(-0.0273611 0.00491808 0)
(-0.0307123 0.00165655 0)
(-0.0336953 -0.00234588 0)
(-0.0357585 -0.00685407 0)
(-0.0373632 -0.0113446 0)
(-0.0383691 -0.0151186 0)
(-0.0386419 -0.0181224 0)
(-0.037987 -0.020373 0)
(-0.0362365 -0.0218842 0)
(-0.0333085 -0.0226302 0)
(-0.0292368 -0.0225232 0)
(-0.024204 -0.0213906 0)
(-0.0186042 -0.0189936 0)
(-0.0130018 -0.0151407 0)
(-0.00798041 -0.00980819 0)
(-0.00406312 -0.00411195 0)
(-0.0015514 6.8289e-05 0)
(-0.000339214 0.00180248 0)
(9.54394e-06 0.00121756 0)
(2.16121e-05 0.013715 0)
(7.59282e-05 0.0355283 0)
(2.20916e-05 0.051026 0)
(-0.000300421 0.0580229 0)
(-0.00105965 0.0559824 0)
(-0.00233481 0.047454 0)
(-0.00406593 0.0370744 0)
(-0.00610197 0.0285965 0)
(-0.00826563 0.0230282 0)
(-0.0104498 0.0195157 0)
(-0.0126447 0.0169064 0)
(-0.014865 0.0144392 0)
(-0.0171062 0.011714 0)
(-0.0193415 0.00850541 0)
(-0.0215311 0.00465799 0)
(-0.0236528 9.61704e-05 0)
(-0.0254656 -0.00504215 0)
(-0.0267224 -0.00984765 0)
(-0.0278109 -0.0140332 0)
(-0.0284839 -0.0178071 0)
(-0.0285882 -0.0213356 0)
(-0.0279753 -0.0247069 0)
(-0.0265507 -0.0278738 0)
(-0.0242933 -0.0306239 0)
(-0.0212585 -0.0325605 0)
(-0.0176021 -0.0330814 0)
(-0.0135718 -0.0314755 0)
(-0.00948248 -0.0271995 0)
(-0.00571987 -0.0203552 0)
(-0.00272538 -0.0122053 0)
(-0.000846916 -0.00503087 0)
(-5.64183e-05 -0.000673378 0)
(6.15384e-05 0.0130727 0)
(0.000382411 0.0346696 0)
(0.00075033 0.0508488 0)
(0.000948904 0.0593411 0)
(0.000716343 0.05929 0)
(-0.000160499 0.0521914 0)
(-0.00165385 0.042075 0)
(-0.00341226 0.0332054 0)
(-0.00506123 0.026954 0)
(-0.00645167 0.0227966 0)
(-0.00764946 0.0196795 0)
(-0.00871945 0.0168193 0)
(-0.00971884 0.0137638 0)
(-0.0106928 0.0102574 0)
(-0.0116679 0.00614801 0)
(-0.0126152 0.00137458 0)
(-0.013739 -0.00386071 0)
(-0.0148201 -0.00867494 0)
(-0.0160668 -0.0128808 0)
(-0.0171572 -0.0168664 0)
(-0.0179922 -0.0208903 0)
(-0.0184621 -0.0251425 0)
(-0.0184748 -0.0296629 0)
(-0.017948 -0.0342975 0)
(-0.0167754 -0.0386555 0)
(-0.0148954 -0.0419602 0)
(-0.0123433 -0.0431283 0)
(-0.00929027 -0.0409795 0)
(-0.0060692 -0.0347229 0)
(-0.00315817 -0.0247741 0)
(-0.00108655 -0.0133893 0)
(-8.60157e-05 -0.00358899 0)
(9.59907e-05 0.0116467 0)
(0.000697741 0.0320246 0)
(0.00155152 0.0483639 0)
(0.00238651 0.0581174 0)
(0.00285931 0.0600321 0)
(0.00267062 0.0549912 0)
(0.00172819 0.0460291 0)
(0.000291217 0.0367439 0)
(-0.00109793 0.0292518 0)
(-0.00199218 0.0242593 0)
(-0.00244618 0.0206122 0)
(-0.00254858 0.0174631 0)
(-0.00243785 0.0142808 0)
(-0.00224716 0.0107514 0)
(-0.00211956 0.00668646 0)
(-0.00204373 0.00199061 0)
(-0.00233114 -0.00306427 0)
(-0.00358513 -0.00758853 0)
(-0.00508132 -0.0116037 0)
(-0.00657326 -0.0154955 0)
(-0.00798483 -0.0195095 0)
(-0.0092466 -0.0239036 0)
(-0.0103145 -0.0287977 0)
(-0.0111294 -0.0341845 0)
(-0.0115195 -0.0399199 0)
(-0.0112817 -0.0453154 0)
(-0.0102577 -0.0491598 0)
(-0.00842004 -0.0497597 0)
(-0.00597208 -0.0454116 0)
(-0.00336385 -0.0353655 0)
(-0.00125402 -0.0211642 0)
(-0.000117636 -0.00651902 0)
(0.000117564 0.00973235 0)
(0.000958898 0.0280616 0)
(0.00228693 0.0439952 0)
(0.00378862 0.0546845 0)
(0.00505082 0.0584218 0)
(0.00570766 0.0554773 0)
(0.00557008 0.0480574 0)
(0.00477601 0.0391634 0)
(0.00379417 0.0310543 0)
(0.00317487 0.0249431 0)
(0.00318028 0.0204802 0)
(0.00377449 0.0169192 0)
(0.00475238 0.0136209 0)
(0.00587744 0.0101628 0)
(0.00688133 0.00627844 0)
(0.00765262 0.00185652 0)
(0.00767765 -0.00250792 0)
(0.00647217 -0.00642982 0)
(0.00477364 -0.0101141 0)
(0.00288142 -0.0137718 0)
(0.000944605 -0.0175866 0)
(-0.000999173 -0.0219116 0)
(-0.00285018 -0.0267275 0)
(-0.00460347 -0.0321531 0)
(-0.00615885 -0.0383997 0)
(-0.00728117 -0.0450351 0)
(-0.00768556 -0.0510465 0)
(-0.00711469 -0.05445 0)
(-0.00558264 -0.0527635 0)
(-0.00343172 -0.0439449 0)
(-0.00138198 -0.0282615 0)
(-0.000143027 -0.00944843 0)
(0.000122124 0.00765252 0)
(0.0011188 0.0233933 0)
(0.00283592 0.0383899 0)
(0.00494889 0.0496097 0)
(0.00699579 0.0548929 0)
(0.00856332 0.0539219 0)
(0.00939129 0.0481994 0)
(0.00950491 0.0401651 0)
(0.00924459 0.0319989 0)
(0.00911363 0.0251581 0)
(0.0095228 0.0199157 0)
(0.0105812 0.0158654 0)
(0.0121297 0.0124211 0)
(0.0138817 0.00908456 0)
(0.0154768 0.00551221 0)
(0.0166266 0.001576 0)
(0.0166796 -0.00221259 0)
(0.0154768 -0.00559635 0)
(0.0136011 -0.00881688 0)
(0.0113528 -0.0120899 0)
(0.00892323 -0.0155907 0)
(0.00642653 -0.0194796 0)
(0.00391759 -0.023912 0)
(0.00147685 -0.0290174 0)
(-0.000957438 -0.0352818 0)
(-0.00314395 -0.0423727 0)
(-0.00482629 -0.0498727 0)
(-0.0055252 -0.0557824 0)
(-0.00501318 -0.057086 0)
(-0.00344187 -0.0504671 0)
(-0.00151377 -0.0345177 0)
(-0.000169378 -0.0122719 0)
(0.000109695 0.00569175 0)
(0.00114949 0.0186409 0)
(0.00310438 0.0322693 0)
(0.00568714 0.0435739 0)
(0.00842083 0.050011 0)
(0.0108713 0.0507218 0)
(0.0127379 0.0466154 0)
(0.0139572 0.0396559 0)
(0.0147313 0.0318691 0)
(0.0154332 0.0247931 0)
(0.0164432 0.0190731 0)
(0.0179481 0.0146412 0)
(0.0198851 0.0110721 0)
(0.0220042 0.00787685 0)
(0.0239243 0.0046676 0)
(0.0252457 0.00127725 0)
(0.0252659 -0.0019137 0)
(0.0239795 -0.0047494 0)
(0.021901 -0.00747057 0)
(0.019317 -0.010284 0)
(0.0164157 -0.0133661 0)
(0.0133356 -0.0168803 0)
(0.0101875 -0.020956 0)
(0.00707867 -0.02572 0)
(0.00403767 -0.0313696 0)
(0.00109248 -0.0381758 0)
(-0.00169711 -0.0465128 0)
(-0.00366565 -0.0544456 0)
(-0.0042933 -0.0587843 0)
(-0.00344464 -0.0550827 0)
(-0.00170551 -0.0400052 0)
(-0.000205994 -0.0150371 0)
(8.47293e-05 0.00405136 0)
(0.00104704 0.0143352 0)
(0.00303881 0.026321 0)
(0.00587695 0.0372731 0)
(0.00912183 0.0443942 0)
(0.0123558 0.0463612 0)
(0.0152689 0.0436057 0)
(0.0177238 0.0377187 0)
(0.019775 0.0305622 0)
(0.0216185 0.0236676 0)
(0.0235041 0.0178609 0)
(0.0255988 0.0133025 0)
(0.0279076 0.00972846 0)
(0.03026 0.00671394 0)
(0.0323218 0.00387268 0)
(0.0336665 0.00100784 0)
(0.033581 -0.0016195 0)
(0.0321587 -0.00392886 0)
(0.0298785 -0.00615237 0)
(0.0270136 -0.00847963 0)
(0.0237385 -0.0110773 0)
(0.0201832 -0.0141037 0)
(0.0164592 -0.0177075 0)
(0.0126744 -0.0220432 0)
(0.00892144 -0.0272977 0)
(0.00527807 -0.033692 0)
(0.00178425 -0.041554 0)
(-0.00142711 -0.0509283 0)
(-0.0033477 -0.0581469 0)
(-0.00343126 -0.0578899 0)
(-0.0020144 -0.0448021 0)
(-0.000273256 -0.0178774 0)
(5.03224e-05 0.00284054 0)
(0.000807441 0.0108627 0)
(0.00259628 0.0211177 0)
(0.00542434 0.0313199 0)
(0.0089654 0.0386016 0)
(0.0128602 0.0413032 0)
(0.0168063 0.0395178 0)
(0.0205823 0.0345703 0)
(0.0240679 0.028162 0)
(0.0272529 0.0217502 0)
(0.030218 0.0162064 0)
(0.0330597 0.0118061 0)
(0.0358094 0.00840026 0)
(0.0383742 0.00563949 0)
(0.040497 0.00317159 0)
(0.0417802 0.000797527 0)
(0.0415538 -0.00131539 0)
(0.0400014 -0.00314524 0)
(0.037575 -0.00490512 0)
(0.0345287 -0.00676116 0)
(0.0310136 -0.00886283 0)
(0.0271337 -0.0113603 0)
(0.0229759 -0.0144113 0)
(0.0186303 -0.0181905 0)
(0.014196 -0.0229049 0)
(0.00977955 -0.0288186 0)
(0.00548507 -0.0362954 0)
(0.00140134 -0.0456014 0)
(-0.00198627 -0.0553225 0)
(-0.00330862 -0.0588625 0)
(-0.00247332 -0.0488873 0)
(-0.000407623 -0.0209894 0)
(-6.98688e-06 0.00213467 0)
(0.000350772 0.00851165 0)
(0.00164778 0.0171029 0)
(0.00419987 0.0261659 0)
(0.00786313 0.0330314 0)
(0.0123485 0.0358897 0)
(0.0173456 0.0346563 0)
(0.0225065 0.0304777 0)
(0.0275006 0.0248757 0)
(0.0321013 0.0191601 0)
(0.0362268 0.0141486 0)
(0.039898 0.0101459 0)
(0.0431558 0.00707114 0)
(0.0459711 0.00464334 0)
(0.0481665 0.00256018 0)
(0.0494002 0.000640704 0)
(0.0490955 -0.00101635 0)
(0.0474986 -0.00242643 0)
(0.0450349 -0.0037743 0)
(0.041937 -0.00519868 0)
(0.0383321 -0.00682621 0)
(0.0342949 -0.00879097 0)
(0.0298788 -0.0112463 0)
(0.0251394 -0.0143775 0)
(0.0201515 -0.0184174 0)
(0.0150169 -0.0236718 0)
(0.00986035 -0.0305615 0)
(0.00483047 -0.0395494 0)
(0.000154333 -0.0503309 0)
(-0.0028278 -0.057821 0)
(-0.00302095 -0.052054 0)
(-0.000653716 -0.0245548 0)
(-0.000128176 0.00213292 0)
(-0.000534892 0.00761615 0)
(-0.000105447 0.0145408 0)
(0.00199065 0.0220406 0)
(0.00578813 0.0278532 0)
(0.0109282 0.0302979 0)
(0.0170548 0.0292489 0)
(0.0236449 0.0257089 0)
(0.030141 0.0209607 0)
(0.0361253 0.0160935 0)
(0.0413917 0.011802 0)
(0.0459093 0.00836525 0)
(0.0497311 0.00573841 0)
(0.0528813 0.00370103 0)
(0.0552519 0.00200681 0)
(0.0565596 0.000502796 0)
(0.0563243 -0.000757093 0)
(0.0548086 -0.00180565 0)
(0.0524222 -0.00279527 0)
(0.0493882 -0.00383655 0)
(0.0458218 -0.00503083 0)
(0.0417786 -0.0064895 0)
(0.0372824 -0.00834868 0)
(0.0323478 -0.0107871 0)
(0.0270018 -0.0140485 0)
(0.0213034 -0.0184717 0)
(0.0153545 -0.0245355 0)
(0.00930326 -0.0328567 0)
(0.00340718 -0.0437032 0)
(-0.00148465 -0.0544516 0)
(-0.00340104 -0.0538791 0)
(-0.00102304 -0.0286263 0)
(-0.00042158 0.00331389 0)
(-0.00212797 0.00874054 0)
(-0.00274594 0.0136711 0)
(-0.00128248 0.0186145 0)
(0.00291072 0.0229336 0)
(0.00895569 0.0245471 0)
(0.0163351 0.0234592 0)
(0.0243668 0.0205131 0)
(0.0322999 0.016671 0)
(0.0395884 0.0127502 0)
(0.0459559 0.00928813 0)
(0.0513467 0.00651165 0)
(0.055825 0.0043962 0)
(0.0594481 0.00277715 0)
(0.0621485 0.00146644 0)
(0.0636813 0.000343302 0)
(0.0636264 -0.000565004 0)
(0.0622533 -0.00129766 0)
(0.0599928 -0.00197616 0)
(0.0570813 -0.00268409 0)
(0.0536383 -0.0034976 0)
(0.0497121 -0.00450183 0)
(0.045306 -0.0058059 0)
(0.0403958 -0.00756334 0)
(0.0349481 -0.0100013 0)
(0.0289428 -0.0134612 0)
(0.0223989 -0.0184578 0)
(0.0154057 -0.0257291 0)
(0.00821162 -0.0360204 0)
(0.00147877 -0.0483868 0)
(-0.00305695 -0.0537189 0)
(-0.00141466 -0.0330739 0)
(-0.00100151 0.00634457 0)
(-0.00446654 0.0116879 0)
(-0.00581044 0.0139274 0)
(-0.00448921 0.0157993 0)
(0.000142167 0.0178662 0)
(0.00751635 0.0185212 0)
(0.0162379 0.0174001 0)
(0.0256791 0.0150934 0)
(0.0349719 0.0122019 0)
(0.0435114 0.00927075 0)
(0.050981 0.00668079 0)
(0.0572953 0.00460287 0)
(0.0624997 0.00302805 0)
(0.0666456 0.0018434 0)
(0.0696773 0.000915713 0)
(0.0713838 0.000155127 0)
(0.0714072 -0.000430488 0)
(0.0700971 -0.000883892 0)
(0.0679319 -0.00129615 0)
(0.0651667 -0.00172434 0)
(0.0619239 -0.00222019 0)
(0.0582451 -0.00284184 0)
(0.0541166 -0.00366642 0)
(0.0494817 -0.00480874 0)
(0.0442491 -0.00645156 0)
(0.0383032 -0.00889373 0)
(0.031528 -0.0126277 0)
(0.0238595 -0.018443 0)
(0.0154198 -0.0274165 0)
(0.00677291 -0.0399325 0)
(-0.0010722 -0.0505655 0)
(-0.00151978 -0.0373411 0)
(-0.00187306 0.0120107 0)
(-0.00651043 0.0153983 0)
(-0.00696374 0.0138685 0)
(-0.0043997 0.0127197 0)
(0.00143237 0.0125256 0)
(0.00997369 0.0122081 0)
(0.0198861 0.0112103 0)
(0.030507 0.00961267 0)
(0.0409326 0.00768586 0)
(0.0505075 0.00574512 0)
(0.0588457 0.00403594 0)
(0.0657936 0.00267793 0)
(0.071354 0.00167145 0)
(0.0755797 0.000943606 0)
(0.0784663 0.000403988 0)
(0.0799121 -1.05385e-05 0)
(0.0796924 -0.000309071 0)
(0.0783169 -0.000531385 0)
(0.0762522 -0.000733155 0)
(0.0737293 -0.000945607 0)
(0.0708464 -0.0011978 0)
(0.0676247 -0.00152292 0)
(0.0640311 -0.00196658 0)
(0.0599849 -0.0026002 0)
(0.0553539 -0.00354522 0)
(0.0499446 -0.00501733 0)
(0.0434959 -0.00741026 0)
(0.0357032 -0.0114415 0)
(0.0263546 -0.0183202 0)
(0.0155992 -0.0294409 0)
(0.00392808 -0.0429844 0)
(-0.000251175 -0.0391935 0)
(-0.0014072 0.0179052 0)
(-0.00390556 0.0171701 0)
(0.00136094 0.0116404 0)
(0.0081102 0.00869811 0)
(0.0156538 0.00718498 0)
(0.0246066 0.00624433 0)
(0.0346855 0.00543244 0)
(0.0452647 0.00451291 0)
(0.0555085 0.00349425 0)
(0.0647233 0.00249736 0)
(0.0724687 0.00164407 0)
(0.0785783 0.00099685 0)
(0.0831065 0.000550388 0)
(0.0862142 0.000256614 0)
(0.0880413 5.87488e-05 0)
(0.0886373 -7.90143e-05 0)
(0.0880178 -0.000170944 0)
(0.0866761 -0.000238888 0)
(0.0849413 -0.000303753 0)
(0.0829552 -0.000376266 0)
(0.0807617 -0.00046774 0)
(0.0783506 -0.00059181 0)
(0.0756729 -0.000768311 0)
(0.0726399 -0.00103012 0)
(0.0691106 -0.00143699 0)
(0.0648636 -0.00210448 0)
(0.0595522 -0.00326888 0)
(0.0526475 -0.00542461 0)
(0.0434005 -0.00956644 0)
(0.030931 -0.0173738 0)
(0.0151675 -0.0296292 0)
(0.00624595 -0.0333348 0)
(0.0207662 0.0113035 0)
(0.0268464 0.00905144 0)
(0.0393096 0.0051732 0)
(0.0493985 0.00307264 0)
(0.057174 0.00194697 0)
(0.0641076 0.00129516 0)
(0.0708044 0.000906057 0)
(0.0772302 0.000634662 0)
(0.0830316 0.000415976 0)
(0.0878461 0.000240028 0)
(0.0914864 0.000113935 0)
(0.0939894 3.76151e-05 0)
(0.0955486 -6.86043e-07 0)
(0.0963926 -1.7242e-05 0)
(0.0966872 -2.51273e-05 0)
(0.0965013 -2.90294e-05 0)
(0.0959177 -3.11037e-05 0)
(0.0951426 -3.36431e-05 0)
(0.0942794 -3.77368e-05 0)
(0.0933561 -4.39597e-05 0)
(0.0923664 -5.35072e-05 0)
(0.0912861 -6.81516e-05 0)
(0.090076 -9.08067e-05 0)
(0.0886764 -0.000126714 0)
(0.0869939 -0.00018617 0)
(0.0848721 -0.00029088 0)
(0.0820308 -0.000490398 0)
(0.0779388 -0.000902354 0)
(0.071547 -0.00180826 0)
(0.0607876 -0.00394974 0)
(0.0432745 -0.00918209 0)
(0.0286053 -0.0145215 0)
)
;

boundaryField
{
    movingWall
    {
        type            fixedValue;
        value           uniform (0.1 0 0);
    }
    fixedWalls
    {
        type            noSlip;
    }
    floor
    {
        type            noSlip;
    }
    frontAndBack
    {
        type            empty;
    }
}


// ************************************************************************* //
