/*--------------------------------*- C++ -*----------------------------------*\
| =========                 |                                                 |
| \\      /  F ield         | OpenFOAM: The Open Source CFD Toolbox           |
|  \\    /   O peration     | Version:  2212                                  |
|   \\  /    A nd           | Website:  www.openfoam.com                      |
|    \\/     M anipulation  |                                                 |
\*---------------------------------------------------------------------------*/
FoamFile
{
    version     2.0;
    format      ascii;
    arch        "LSB;label=64;scalar=64";
    class       volScalarField;
    location    "1050";
    object      Gch4;
}
// * * * * * * * * * * * * * * * * * * * * * * * * * * * * * * * * * * * * * //

dimensions      [1 -3 0 0 0 0 0];

internalField   nonuniform List<scalar> 
1024
(
1.91288
1.91268
1.91218
1.91129
1.90991
1.908
1.90558
1.90276
1.89972
1.89668
1.89385
1.89146
1.88974
1.88887
1.88906
1.89057
1.89343
1.8971
1.90105
1.90518
1.90947
1.9139
1.91834
1.92259
1.92639
1.92959
1.9321
1.93394
1.9352
1.93599
1.93643
1.9366
1.91286
1.91265
1.91214
1.91123
1.90982
1.90788
1.90542
1.90258
1.89952
1.89646
1.89361
1.89122
1.8895
1.88863
1.88884
1.89036
1.89323
1.8969
1.90084
1.90496
1.90924
1.91367
1.91811
1.92237
1.92621
1.92944
1.93198
1.93385
1.93513
1.93594
1.93638
1.93656
1.91281
1.91259
1.91206
1.91111
1.90966
1.90766
1.90514
1.90224
1.89913
1.89601
1.89307
1.89061
1.88888
1.88805
1.88831
1.88989
1.8928
1.89648
1.90041
1.90451
1.90877
1.91317
1.91762
1.92191
1.9258
1.9291
1.93171
1.93365
1.93497
1.93581
1.93626
1.93645
1.91273
1.9125
1.91195
1.91096
1.90945
1.90738
1.90479
1.9018
1.89857
1.89529
1.89215
1.88952
1.88775
1.88698
1.88739
1.88912
1.89214
1.89587
1.8998
1.90386
1.90807
1.91242
1.91685
1.92117
1.92514
1.92855
1.93128
1.93331
1.9347
1.93558
1.93606
1.93626
1.91263
1.9124
1.91183
1.91081
1.90925
1.90711
1.90443
1.9013
1.89788
1.89429
1.89077
1.88784
1.88597
1.88532
1.88598
1.88801
1.89127
1.89511
1.89906
1.90309
1.90722
1.9115
1.91588
1.92021
1.92427
1.9278
1.93067
1.93282
1.93431
1.93525
1.93576
1.93597
1.91253
1.9123
1.91173
1.9107
1.90911
1.90692
1.90413
1.90082
1.89708
1.89303
1.88895
1.88553
1.88347
1.88298
1.88405
1.88659
1.89025
1.89431
1.89833
1.90232
1.90636
1.91052
1.91481
1.91913
1.92324
1.9269
1.92992
1.93222
1.93382
1.93482
1.93538
1.9356
1.91246
1.91223
1.91167
1.91065
1.90907
1.90684
1.90394
1.90039
1.89622
1.89154
1.8867
1.88265
1.88032
1.88004
1.88169
1.88496
1.88923
1.89364
1.89779
1.90176
1.90568
1.90969
1.91385
1.91809
1.92222
1.92597
1.92912
1.93155
1.93325
1.93433
1.93492
1.93516
1.9124
1.91219
1.91165
1.91068
1.90913
1.90689
1.90388
1.90005
1.89535
1.88987
1.88412
1.87932
1.8767
1.87673
1.87914
1.88338
1.88848
1.89336
1.89769
1.90165
1.90545
1.90927
1.91324
1.91734
1.92141
1.92519
1.92841
1.93092
1.93271
1.93384
1.93445
1.9347
1.91233
1.91213
1.91164
1.91072
1.90923
1.907
1.90388
1.89971
1.89437
1.88796
1.88121
1.87567
1.87288
1.87342
1.87685
1.8823
1.88842
1.89387
1.8984
1.90233
1.90596
1.90954
1.91326
1.91715
1.92108
1.92477
1.92797
1.93049
1.93229
1.93343
1.93406
1.93431
1.91209
1.91192
1.91147
1.91062
1.90919
1.90696
1.90369
1.8991
1.893
1.88555
1.87781
1.87173
1.86912
1.87056
1.87535
1.88229
1.88956
1.89561
1.90032
1.90416
1.90754
1.91081
1.9142
1.91779
1.92145
1.92494
1.92798
1.9304
1.93213
1.93324
1.93385
1.9341
1.91131
1.91116
1.91077
1.90996
1.90855
1.90625
1.90271
1.89756
1.89056
1.88207
1.87358
1.86742
1.86558
1.86849
1.8751
1.8838
1.89236
1.89901
1.90381
1.90746
1.9105
1.91335
1.91631
1.91948
1.92274
1.92587
1.92862
1.9308
1.93237
1.9334
1.93398
1.93422
1.90926
1.90914
1.90876
1.90795
1.90645
1.90392
1.89991
1.89401
1.88608
1.8768
1.8681
1.86264
1.86235
1.86733
1.87613
1.8868
1.89677
1.90406
1.90894
1.91235
1.91497
1.91732
1.91974
1.92236
1.92508
1.9277
1.93
1.93184
1.93319
1.93408
1.93461
1.93484
1.90492
1.90478
1.90436
1.90344
1.9017
1.89872
1.89405
1.88732
1.87866
1.8692
1.86121
1.8574
1.85935
1.86669
1.87764
1.89017
1.9016
1.90974
1.91495
1.91833
1.92068
1.9226
1.92447
1.92645
1.92851
1.93049
1.93224
1.93367
1.93475
1.93549
1.93594
1.93614
1.89737
1.89718
1.89664
1.89548
1.89334
1.88979
1.88441
1.87705
1.86823
1.85949
1.85321
1.85174
1.85599
1.86509
1.87727
1.89088
1.90352
1.9129
1.91914
1.92328
1.92612
1.92821
1.92992
1.93147
1.93293
1.93428
1.93545
1.93637
1.93702
1.93744
1.93766
1.93774
1.88668
1.88643
1.88572
1.88427
1.8817
1.87761
1.87173
1.86421
1.85593
1.84864
1.84448
1.84498
1.85021
1.85908
1.87032
1.883
1.89549
1.9058
1.91364
1.91969
1.92454
1.92842
1.93145
1.93371
1.93525
1.93613
1.93643
1.93626
1.9358
1.93524
1.93477
1.93451
1.8744
1.87408
1.87324
1.87154
1.86862
1.86417
1.85807
1.85074
1.84327
1.83729
1.83425
1.83464
1.8379
1.84307
1.84955
1.85705
1.86485
1.87186
1.87785
1.88324
1.88836
1.8932
1.89763
1.90139
1.90436
1.90637
1.90733
1.90733
1.90665
1.9057
1.90487
1.90439
1.86394
1.86359
1.86265
1.8608
1.85768
1.85305
1.8469
1.83973
1.83253
1.82646
1.82224
1.81973
1.81813
1.81663
1.81477
1.81223
1.80887
1.80517
1.80175
1.79908
1.79754
1.79734
1.79854
1.80101
1.80463
1.80897
1.81347
1.81752
1.82063
1.82259
1.82356
1.82386
1.85821
1.85789
1.85703
1.85534
1.85253
1.84836
1.8428
1.83616
1.8291
1.82242
1.81665
1.81166
1.80674
1.80101
1.7938
1.78453
1.77342
1.76199
1.7514
1.74194
1.73394
1.7277
1.72348
1.72148
1.72172
1.72401
1.72787
1.73255
1.73716
1.74087
1.74324
1.74426
1.85552
1.85523
1.85446
1.85298
1.85054
1.84691
1.84203
1.83607
1.8295
1.82295
1.81689
1.81134
1.80579
1.79945
1.79153
1.7814
1.76942
1.75742
1.74648
1.7365
1.72734
1.71903
1.71173
1.70575
1.7014
1.69886
1.69813
1.69892
1.70069
1.70271
1.70432
1.70514
1.85453
1.85425
1.85357
1.85228
1.85018
1.84707
1.84288
1.83769
1.83185
1.82585
1.82015
1.81491
1.80982
1.80423
1.79739
1.78861
1.77816
1.76761
1.7578
1.74833
1.73878
1.72911
1.71958
1.71072
1.70313
1.69726
1.69329
1.69112
1.69039
1.69057
1.69109
1.69146
1.85447
1.85422
1.85361
1.85249
1.85069
1.84805
1.84449
1.84006
1.835
1.82971
1.82458
1.81981
1.81526
1.81043
1.80463
1.79716
1.78813
1.7788
1.7698
1.76063
1.75075
1.74
1.72862
1.71732
1.70701
1.69846
1.69214
1.68807
1.68592
1.68514
1.6851
1.68525
1.85469
1.85449
1.85398
1.85305
1.85155
1.84933
1.84634
1.84258
1.83824
1.83359
1.82893
1.82444
1.82006
1.81541
1.80994
1.80299
1.79459
1.7858
1.77716
1.76819
1.75836
1.74737
1.73531
1.72277
1.71069
1.7001
1.69175
1.68597
1.68257
1.68103
1.68063
1.68068
1.8544
1.85429
1.85398
1.85332
1.85217
1.85039
1.84789
1.84468
1.84085
1.83658
1.83206
1.82742
1.82265
1.81751
1.81158
1.80435
1.79591
1.78722
1.77873
1.77001
1.76054
1.74995
1.73819
1.7256
1.71296
1.70126
1.69149
1.68429
1.67975
1.67746
1.6767
1.67666
1.85252
1.85259
1.85261
1.85239
1.85172
1.85041
1.84833
1.84545
1.84178
1.83743
1.83254
1.82722
1.82153
1.81537
1.8085
1.80057
1.79179
1.78311
1.77487
1.7666
1.75779
1.74803
1.73716
1.72536
1.71315
1.70135
1.69093
1.68276
1.67726
1.67427
1.67314
1.673
1.84787
1.84821
1.84871
1.84908
1.84899
1.84814
1.8463
1.84339
1.8394
1.83443
1.82865
1.82224
1.81536
1.80803
1.80019
1.7916
1.78261
1.77414
1.76638
1.75883
1.75096
1.74236
1.73279
1.72229
1.71117
1.70004
1.68973
1.68116
1.675
1.6714
1.66991
1.66965
1.83936
1.84005
1.84111
1.84208
1.84247
1.84183
1.83988
1.83648
1.83171
1.82574
1.81885
1.81133
1.80341
1.79523
1.7868
1.77798
1.76919
1.76125
1.75424
1.74762
1.7409
1.73367
1.72565
1.71677
1.70718
1.69727
1.6877
1.67929
1.67286
1.66882
1.66699
1.6666
1.82628
1.82734
1.82882
1.83006
1.83045
1.82952
1.82696
1.82274
1.81702
1.81013
1.80242
1.79425
1.78589
1.77751
1.76914
1.7607
1.75261
1.74556
1.73952
1.73399
1.7285
1.72269
1.71629
1.70918
1.70137
1.69307
1.68471
1.67698
1.6707
1.66647
1.66437
1.66385
1.80825
1.80956
1.81101
1.8118
1.81145
1.80963
1.80618
1.80119
1.79491
1.78768
1.7799
1.77189
1.7639
1.75609
1.7485
1.74105
1.73411
1.72822
1.7233
1.7189
1.71463
1.7102
1.70536
1.69998
1.69401
1.68751
1.68071
1.6741
1.66839
1.66426
1.66203
1.66139
1.78502
1.78627
1.7869
1.78638
1.7847
1.78182
1.77773
1.77256
1.7665
1.75985
1.75291
1.74593
1.73912
1.73257
1.72633
1.72033
1.71485
1.7103
1.70656
1.70328
1.70016
1.69698
1.69355
1.68974
1.6855
1.6808
1.67573
1.67056
1.6658
1.66211
1.65994
1.65922
1.75615
1.75672
1.75573
1.75363
1.75086
1.74751
1.74359
1.73912
1.7342
1.72899
1.72366
1.7184
1.71333
1.70852
1.704
1.69971
1.69584
1.69267
1.69011
1.68789
1.68581
1.68372
1.6815
1.67905
1.67632
1.67326
1.66989
1.66632
1.66283
1.65991
1.65803
1.65733
1.72062
1.71986
1.71756
1.71499
1.71237
1.7097
1.70691
1.70395
1.70083
1.6976
1.69435
1.69117
1.68813
1.68527
1.6826
1.68009
1.67785
1.67603
1.67456
1.6733
1.67214
1.67099
1.66978
1.66845
1.66697
1.66531
1.66347
1.66146
1.6594
1.65755
1.65625
1.65569
1.67709
1.67644
1.67521
1.67406
1.67299
1.67198
1.67097
1.66995
1.6689
1.66782
1.66675
1.6657
1.66471
1.66377
1.6629
1.66209
1.66137
1.66078
1.66031
1.65991
1.65954
1.65918
1.6588
1.65839
1.65793
1.65742
1.65685
1.65623
1.65557
1.65495
1.65448
1.65425
)
;

boundaryField
{
    movingWall
    {
        type            fixedValue;
        value           uniform 1.6535;
    }
    fixedWalls
    {
        type            zeroGradient;
    }
    floor
    {
        type            zeroGradient;
    }
    frontAndBack
    {
        type            empty;
    }
}


// ************************************************************************* //
