/*--------------------------------*- C++ -*----------------------------------*\
| =========                 |                                                 |
| \\      /  F ield         | OpenFOAM: The Open Source CFD Toolbox           |
|  \\    /   O peration     | Version:  2212                                  |
|   \\  /    A nd           | Website:  www.openfoam.com                      |
|    \\/     M anipulation  |                                                 |
\*---------------------------------------------------------------------------*/
FoamFile
{
    version     2.0;
    format      ascii;
    arch        "LSB;label=64;scalar=64";
    class       volScalarField;
    location    "0.66";
    object      alpha.air;
}
// * * * * * * * * * * * * * * * * * * * * * * * * * * * * * * * * * * * * * //

dimensions      [0 0 0 0 0 0 0];

internalField   nonuniform List<scalar> 
32768
(
2.54041e-118
4.94259e-115
2.07012e-112
3.9758e-110
4.6657e-108
3.88046e-106
2.49028e-104
1.29698e-102
5.6499e-101
2.09615e-99
6.69582e-98
1.85373e-96
4.46521e-95
9.37695e-94
1.71762e-92
2.74195e-91
3.80623e-90
4.57741e-89
4.74353e-88
4.20481e-87
3.15727e-86
1.98248e-85
1.02339e-84
4.2445e-84
1.37042e-83
3.29822e-83
5.5722e-83
6.01362e-83
3.50009e-83
7.93551e-84
6.24369e-85
4.06852e-86
7.20256e-86
5.41293e-85
3.07327e-84
3.73192e-84
1.38278e-84
3.71406e-85
9.01089e-86
2.11554e-86
5.0302e-87
1.25875e-87
3.46199e-88
1.11377e-88
4.69006e-89
3.10711e-89
3.87083e-89
8.8762e-89
3.30553e-88
1.83858e-87
1.39051e-86
1.28202e-85
1.27995e-84
1.2402e-83
1.09167e-82
8.74596e-82
1.38625e-80
8.55169e-79
5.83115e-77
2.89002e-75
8.15565e-74
4.96945e-73
1.46133e-72
2.29418e-72
3.29075e-72
2.31548e-72
1.14746e-72
4.3384e-73
1.72495e-74
4.19607e-76
8.20425e-78
3.7311e-79
1.38055e-79
5.07824e-80
1.61111e-80
4.69939e-81
1.32886e-81
3.78856e-82
1.13949e-82
3.75924e-83
1.41235e-83
6.2355e-84
3.36699e-84
2.32789e-84
2.1914e-84
2.88354e-84
5.11506e-84
1.16919e-83
3.36144e-83
1.21673e-82
5.56548e-82
2.98511e-81
1.49248e-80
4.85276e-80
5.07067e-80
1.37851e-81
4.57374e-83
5.32224e-83
2.98425e-82
6.70966e-82
7.78615e-82
5.5285e-82
2.66489e-82
9.3732e-83
2.52835e-83
5.4188e-84
9.47017e-85
1.37603e-85
1.68712e-86
1.76547e-87
1.59061e-88
1.24196e-89
8.44451e-91
5.01603e-92
2.60771e-93
1.18714e-94
4.72893e-96
1.64471e-97
4.97448e-99
1.29976e-100
2.90201e-102
5.43727e-104
8.29317e-106
9.78615e-108
8.19949e-110
4.19975e-112
9.83914e-115
4.88806e-118
1.66409e-113
1.96339e-110
6.41162e-108
1.04607e-105
1.09159e-103
8.32448e-102
5.01913e-100
2.50921e-98
1.0702e-96
3.95969e-95
1.28305e-93
3.65966e-92
9.21167e-91
2.04767e-89
4.0175e-88
6.94474e-87
1.05456e-85
1.4007e-84
1.61795e-83
1.61309e-82
1.37471e-81
9.89082e-81
5.91267e-80
2.87571e-79
1.10585e-78
3.23159e-78
6.79705e-78
9.54044e-78
8.01206e-78
3.48018e-78
6.58723e-79
5.85232e-80
7.44443e-81
1.70604e-80
4.68167e-80
2.47254e-80
6.53559e-81
1.49092e-81
3.32352e-82
7.48976e-83
1.76057e-83
4.4444e-84
1.25354e-84
4.21334e-85
1.89603e-85
1.36467e-85
1.81008e-85
4.24335e-85
1.57753e-84
8.66638e-84
6.42926e-83
5.78322e-82
5.61221e-81
5.27745e-80
4.50361e-79
3.4622e-78
5.10648e-77
3.07259e-75
2.08114e-73
1.02037e-71
2.8304e-70
1.67212e-69
4.76764e-69
7.4257e-69
1.06732e-68
7.52612e-69
3.83995e-69
1.49286e-69
6.11103e-71
1.52975e-72
3.06802e-74
1.41656e-75
5.34974e-76
2.02011e-76
6.58052e-77
1.97156e-77
5.72942e-78
1.67827e-78
5.18353e-79
1.75569e-79
6.77264e-80
3.07074e-80
1.69994e-80
1.19731e-80
1.13452e-80
1.48598e-80
2.60859e-80
5.87958e-80
1.66488e-79
5.97348e-79
2.78268e-78
1.62925e-77
1.00168e-76
4.85808e-76
1.32363e-75
8.96174e-76
3.88303e-77
3.98534e-77
1.06036e-76
1.49986e-76
1.2438e-76
6.75118e-77
2.59589e-77
7.4831e-78
1.68586e-78
3.06225e-79
4.59261e-80
5.79219e-81
6.23137e-82
5.78249e-83
4.66873e-84
3.30168e-85
2.05553e-86
1.13077e-87
5.51038e-89
2.38219e-90
9.13932e-92
3.10889e-93
9.35246e-95
2.4752e-96
5.70812e-98
1.1278e-99
1.85471e-101
2.41923e-103
2.31116e-105
1.41327e-107
4.3114e-110
3.61792e-113
5.28598e-111
5.78655e-108
1.78563e-105
2.80277e-103
2.86819e-101
2.18848e-99
1.3477e-97
7.02421e-96
3.18605e-94
1.27726e-92
4.56158e-91
1.45632e-89
4.15981e-88
1.06227e-86
2.42052e-85
4.90697e-84
8.81512e-83
1.39624e-81
1.9375e-80
2.33664e-79
2.42437e-78
2.13635e-77
1.57284e-76
9.47206e-76
4.53763e-75
1.66574e-74
4.45321e-74
8.07859e-74
8.99928e-74
5.36817e-74
1.49496e-74
2.40781e-75
7.28345e-76
3.2258e-76
2.13048e-76
5.74095e-77
1.1618e-77
2.31463e-78
4.79307e-79
1.04001e-79
2.41253e-80
6.1164e-81
1.76007e-81
6.14819e-82
2.9357e-82
2.26588e-82
3.14953e-82
7.47247e-82
2.75674e-81
1.4896e-80
1.08189e-79
9.50433e-79
8.99806e-78
8.25123e-77
6.85604e-76
4.99787e-75
6.25322e-74
3.65626e-72
2.58028e-70
1.30351e-68
3.66723e-67
2.11108e-66
5.8414e-66
9.03205e-66
1.30085e-65
9.18814e-66
4.82222e-66
1.92342e-66
8.1224e-68
2.07972e-69
4.23035e-71
1.99044e-72
7.72499e-73
2.98888e-73
9.97259e-74
3.06097e-74
9.11744e-75
2.7367e-75
8.65708e-76
3.00238e-76
1.18599e-76
5.50755e-77
3.11856e-77
2.23489e-77
2.13283e-77
2.7854e-77
4.84966e-77
1.08033e-76
3.0147e-76
1.06667e-75
4.9683e-75
3.04614e-74
2.13536e-73
1.32525e-72
5.60548e-72
1.25957e-71
9.04592e-72
9.58924e-73
1.27492e-72
1.30236e-72
8.15502e-73
3.41111e-73
1.02296e-73
2.32123e-74
4.15133e-75
6.03247e-76
7.29128e-77
7.46705e-78
6.57376e-79
5.03233e-80
3.38016e-81
2.00634e-82
1.05827e-83
4.98228e-85
2.10071e-86
7.95256e-88
2.70756e-89
8.2958e-91
2.2853e-92
5.63998e-94
1.23689e-95
2.3727e-97
3.86994e-99
5.1139e-101
5.05257e-103
3.25828e-105
1.06728e-107
9.78941e-111
1.58972e-108
1.72438e-105
5.19038e-103
7.91236e-101
7.87767e-99
5.88393e-97
3.58108e-95
1.86711e-93
8.58701e-92
3.53893e-90
1.31655e-88
4.43162e-87
1.3492e-85
3.70822e-84
9.1749e-83
2.03607e-81
4.03457e-80
7.09996e-79
1.10217e-77
1.49704e-76
1.76156e-75
1.77382e-74
1.50531e-73
1.05544e-72
5.95543e-72
2.61165e-71
8.50732e-71
1.93867e-70
2.85046e-70
2.46715e-70
1.17811e-70
3.08845e-71
5.8495e-72
1.70841e-72
4.56467e-73
8.05152e-74
1.34426e-74
2.42414e-75
4.75132e-76
1.00311e-76
2.30857e-77
5.89341e-78
1.73312e-78
6.29885e-79
3.18951e-79
2.62694e-79
3.80396e-79
9.12447e-79
3.34857e-78
1.78522e-77
1.27231e-76
1.09235e-75
1.00803e-74
9.00144e-74
7.27635e-73
5.07773e-72
5.57669e-71
3.12697e-69
2.25967e-67
1.16156e-65
3.29107e-64
1.84601e-63
4.94973e-63
7.59854e-63
1.09624e-62
7.75327e-63
4.18391e-63
1.70695e-63
7.54126e-65
2.02621e-66
4.27872e-68
1.979e-69
7.65678e-70
3.02968e-70
1.03403e-70
3.24567e-71
9.88625e-72
3.03226e-72
9.78985e-73
3.46183e-73
1.39351e-73
6.5921e-74
3.79604e-74
2.75299e-74
2.6335e-74
3.41391e-74
5.86766e-74
1.28494e-73
3.50674e-73
1.20748e-72
5.48506e-72
3.36881e-71
2.51273e-70
1.78741e-69
9.36521e-69
2.98098e-68
4.81927e-68
3.54547e-68
9.39e-69
2.87765e-69
1.39165e-69
4.79953e-70
1.21221e-70
2.34548e-71
3.60887e-72
4.54679e-73
4.80123e-74
4.32724e-75
3.37702e-76
2.30808e-77
1.39379e-78
7.48984e-80
3.60311e-81
1.55946e-82
6.09775e-84
2.16173e-85
6.96715e-87
2.0446e-88
5.46289e-90
1.32509e-91
2.89493e-93
5.60324e-95
9.32281e-97
1.26689e-98
1.29278e-100
8.60878e-103
2.89324e-105
2.67286e-108
7.05258e-106
7.48429e-103
2.19628e-100
3.26064e-98
3.16155e-96
2.30219e-94
1.36936e-92
7.0054e-91
3.17839e-89
1.30047e-87
4.83566e-86
1.63785e-84
5.04987e-83
1.41434e-81
3.58724e-80
8.20813e-79
1.68673e-77
3.09585e-76
5.04239e-75
7.23024e-74
9.04054e-73
9.7386e-72
8.90661e-71
6.79257e-70
4.21843e-69
2.06694e-68
7.66584e-68
2.042e-67
3.62465e-67
3.86125e-67
2.20726e-67
6.83676e-68
1.65125e-68
3.52585e-69
5.81523e-70
8.1274e-71
1.21054e-71
2.06064e-72
3.91773e-73
8.17588e-74
1.88603e-74
4.88442e-75
1.47689e-75
5.61299e-76
3.02286e-76
2.65273e-76
3.99325e-76
9.7013e-76
3.5574e-75
1.87976e-74
1.31878e-73
1.10757e-72
9.95063e-72
8.63545e-71
6.77716e-70
4.56017e-69
4.64892e-68
2.49915e-66
1.79292e-64
9.15377e-63
2.57123e-61
1.40409e-60
3.63935e-60
5.54591e-60
8.00853e-60
5.6686e-60
3.14398e-60
1.30759e-60
6.0537e-62
1.70565e-63
3.76835e-65
1.71097e-66
6.50276e-67
2.62428e-67
9.14097e-68
2.92635e-68
9.08649e-69
2.83726e-69
9.30774e-70
3.33737e-70
1.36016e-70
6.50743e-71
3.78145e-71
2.7537e-71
2.62046e-71
3.34571e-71
5.62862e-71
1.20036e-70
3.16755e-70
1.04479e-69
4.5143e-69
2.66705e-68
1.99582e-67
1.50226e-66
8.6288e-66
3.09312e-65
5.88964e-65
5.8189e-65
3.20518e-65
1.06523e-65
2.23089e-66
3.93276e-67
8.08134e-68
1.39129e-68
1.94568e-69
2.25855e-70
2.22007e-71
1.88033e-72
1.39081e-73
9.07289e-75
5.26102e-76
2.73045e-77
1.27543e-78
5.3898e-80
2.06922e-81
7.24335e-83
2.31878e-84
6.80048e-86
1.82735e-87
4.48587e-89
9.97721e-91
1.97589e-92
3.37641e-94
4.72354e-96
4.96796e-98
3.4103e-100
1.18041e-102
1.11907e-105
3.07083e-103
3.1675e-100
9.05295e-98
1.31025e-95
1.23904e-93
8.80209e-92
5.11049e-90
2.55498e-88
1.13507e-86
4.55988e-85
1.67017e-83
5.592e-82
1.71055e-80
4.77049e-79
1.20935e-77
2.77647e-76
5.74767e-75
1.06724e-73
1.76689e-72
2.58963e-71
3.32998e-70
3.71474e-69
3.54596e-68
2.84672e-67
1.8788e-66
9.89673e-66
3.99637e-65
1.17483e-64
2.34547e-64
2.93963e-64
2.06682e-64
8.55903e-65
2.14887e-65
3.80362e-66
5.09252e-67
6.38544e-68
9.06604e-69
1.51589e-69
2.86732e-70
6.01988e-71
1.40965e-71
3.74089e-72
1.17282e-72
4.69355e-73
2.69931e-73
2.52219e-73
3.94244e-73
9.72029e-73
3.57519e-72
1.87935e-71
1.30137e-70
1.07035e-69
9.36099e-69
7.88999e-68
6.00609e-67
3.90896e-66
3.82046e-65
1.97845e-63
1.38285e-61
6.90394e-60
1.90205e-58
1.0112e-57
2.5265e-57
3.82064e-57
5.51643e-57
3.90498e-57
2.22502e-57
9.39274e-58
4.56458e-59
1.3476e-60
3.111e-62
1.38396e-63
5.12735e-64
2.10243e-64
7.44553e-65
2.42081e-65
7.62733e-66
2.41252e-66
7.99733e-67
2.89027e-67
1.18476e-67
5.69068e-68
3.31064e-68
2.40109e-68
2.25451e-68
2.81063e-68
4.58442e-68
9.42294e-68
2.3765e-67
7.40099e-67
2.97932e-66
1.64144e-65
1.18102e-64
8.90896e-64
5.22642e-63
1.9103e-62
3.68936e-62
3.77155e-62
2.23582e-62
8.47316e-63
2.21841e-63
4.24938e-64
6.20876e-65
7.18548e-66
8.06601e-67
8.5332e-68
7.88508e-69
6.42269e-70
4.62922e-71
2.96513e-72
1.69771e-73
8.74174e-75
4.06913e-76
1.72025e-77
6.63031e-79
2.33764e-80
7.56e-82
2.24621e-83
6.13112e-85
1.53267e-86
3.47841e-88
7.03962e-90
1.23054e-91
1.76239e-93
1.89931e-95
1.33774e-97
4.7609e-100
4.65704e-103
1.0815e-100
1.08326e-97
3.01401e-95
4.25261e-93
3.92327e-91
2.71996e-89
1.54157e-87
7.52664e-86
3.26824e-84
1.28504e-82
4.61529e-81
1.51862e-79
4.57668e-78
1.26094e-76
3.16733e-75
7.2283e-74
1.49249e-72
2.77444e-71
4.61666e-70
6.82953e-69
8.90391e-68
1.01248e-66
9.914e-66
8.22422e-65
5.66032e-64
3.14732e-63
1.36696e-62
4.42264e-62
9.98154e-62
1.46976e-61
1.31188e-61
6.29105e-62
1.67626e-62
2.69338e-63
3.34888e-64
4.07585e-65
5.8013e-66
9.84741e-67
1.89563e-67
4.0714e-68
9.80354e-69
2.6946e-69
8.83882e-70
3.75229e-70
2.31353e-70
2.30001e-70
3.73035e-70
9.35195e-70
3.46086e-69
1.81489e-68
1.24299e-67
1.00242e-66
8.53946e-66
6.99296e-65
5.16346e-64
3.25493e-63
3.0909e-62
1.5465e-60
1.04476e-58
5.06404e-57
1.3608e-55
7.05021e-55
1.69253e-54
2.53904e-54
3.661e-54
2.59014e-54
1.51564e-54
6.46036e-55
3.30201e-56
1.02066e-57
2.45888e-59
1.06993e-60
3.83084e-61
1.58941e-61
5.69958e-62
1.87375e-62
5.96184e-63
1.90037e-63
6.33018e-64
2.29181e-64
9.38581e-65
4.49349e-65
2.59728e-65
1.86173e-65
1.71188e-65
2.06772e-65
3.24218e-65
6.36458e-65
1.51911e-64
4.4154e-64
1.6286e-63
8.15098e-63
5.44768e-62
3.97505e-61
2.29132e-60
8.12157e-60
1.4961e-59
1.4698e-59
8.5357e-60
3.23694e-60
8.66368e-61
1.73517e-61
2.71802e-62
3.44331e-63
3.61707e-64
3.2115e-65
2.47102e-66
1.81614e-67
1.24842e-68
7.78492e-70
4.38681e-71
2.23859e-72
1.0396e-73
4.4123e-75
1.7158e-76
6.12601e-78
2.01197e-79
6.0848e-81
1.69373e-82
4.32386e-84
1.00306e-85
2.07597e-87
3.71175e-89
5.43859e-91
5.99941e-93
4.33035e-95
1.58278e-97
1.59606e-100
3.02881e-98
2.94112e-95
7.9494e-93
1.091e-90
9.79764e-89
6.61459e-87
3.65147e-85
1.73701e-83
7.35323e-82
2.82159e-80
9.90479e-79
3.1915e-77
9.43959e-76
2.55852e-74
6.33868e-73
1.43085e-71
2.9317e-70
5.42742e-69
9.02948e-68
1.34152e-66
1.76625e-65
2.04149e-64
2.04716e-63
1.75475e-62
1.2608e-61
7.40274e-61
3.43725e-60
1.211e-59
3.12301e-59
5.36742e-59
5.55472e-59
3.13902e-59
8.83213e-60
1.40341e-60
1.74119e-61
2.16877e-62
3.21371e-63
5.68204e-64
1.13445e-64
2.52963e-65
6.33924e-66
1.82317e-66
6.31173e-67
2.86219e-67
1.89781e-67
2.00538e-67
3.3733e-67
8.61472e-67
3.21601e-66
1.6862e-65
1.1441e-64
9.05667e-64
7.52081e-63
5.98755e-62
4.28972e-61
2.62081e-60
2.43024e-59
1.17625e-57
7.65578e-56
3.59039e-54
9.38006e-53
4.74439e-52
1.0903e-51
1.62196e-51
2.33249e-51
1.64869e-51
9.90708e-52
4.23866e-52
2.28432e-53
7.38822e-55
1.85553e-56
7.88845e-58
2.70459e-58
1.13075e-58
4.09021e-59
1.35397e-59
4.33102e-60
1.38465e-60
4.6111e-61
1.66307e-61
6.76366e-62
3.20675e-62
1.8292e-62
1.28724e-62
1.15184e-62
1.33954e-62
2.00571e-62
3.73459e-62
8.37901e-62
2.25776e-61
7.56501e-61
3.38775e-60
2.05181e-59
1.40693e-58
7.73475e-58
2.57028e-57
4.36964e-57
3.9981e-57
2.20194e-57
8.06208e-58
2.11713e-58
4.2206e-59
6.66854e-60
8.62906e-61
9.37643e-62
8.71766e-63
7.03377e-64
4.97576e-65
3.11087e-66
1.74832e-67
9.32104e-69
4.67384e-70
2.16145e-71
9.1882e-73
3.59294e-74
1.29411e-75
4.29975e-77
1.31932e-78
3.73659e-80
9.72983e-82
2.30651e-83
4.88386e-85
8.94015e-87
1.34186e-88
1.51731e-90
1.12389e-92
4.22359e-95
4.39201e-98
6.92155e-96
6.49385e-93
1.69897e-90
2.26e-88
1.96865e-86
1.28963e-84
6.90941e-83
3.19109e-81
1.3125e-79
4.89978e-78
1.67652e-76
5.27773e-75
1.52908e-73
4.07126e-72
9.93898e-71
2.21807e-69
4.50902e-68
8.31531e-67
1.38416e-65
2.06705e-64
2.74965e-63
3.2285e-62
3.3078e-61
2.91698e-60
2.17565e-59
1.3435e-58
6.72924e-58
2.61209e-57
7.40187e-57
1.43338e-56
1.72605e-56
1.11262e-56
3.43423e-57
5.69561e-58
7.38141e-59
9.77947e-60
1.55268e-60
2.91577e-61
6.13254e-62
1.43786e-62
3.79061e-63
1.15126e-63
4.24009e-64
2.06646e-64
1.47652e-64
1.65619e-64
2.88875e-64
7.52808e-64
2.84134e-63
1.49214e-62
1.00422e-61
7.80868e-61
6.3247e-60
4.89768e-59
3.40521e-58
2.01671e-57
1.83038e-56
8.57406e-55
5.36631e-53
2.42909e-51
6.1528e-50
3.04582e-49
6.67114e-49
9.83782e-49
1.40923e-48
9.95175e-49
6.14297e-49
2.62078e-49
1.4941e-50
5.05522e-52
1.3228e-53
5.49264e-55
1.78606e-55
7.4957e-56
2.7259e-56
9.05315e-57
2.9001e-57
9.26152e-58
3.07e-58
1.09779e-58
4.41093e-59
2.05968e-59
1.15287e-59
7.92077e-60
6.86202e-60
7.64609e-60
1.08762e-59
1.9108e-59
4.01022e-59
9.9749e-59
3.02239e-58
1.20014e-57
6.46734e-57
4.07019e-56
2.08507e-55
6.33351e-55
9.74359e-55
8.17615e-55
4.2094e-55
1.46675e-55
3.72274e-56
7.26944e-57
1.13811e-57
1.47411e-58
1.61755e-59
1.53095e-60
1.26678e-61
9.2585e-63
6.02428e-64
3.5107e-65
1.84029e-66
8.70898e-68
3.78553e-69
1.56976e-70
6.13934e-72
2.23077e-73
7.51483e-75
2.34592e-76
6.77171e-78
1.79852e-79
4.35111e-81
9.41045e-83
1.76159e-84
2.70763e-86
3.14035e-88
2.39054e-90
9.25526e-93
9.94636e-96
1.32751e-93
1.19832e-90
3.02212e-88
3.88081e-86
3.26662e-84
2.06931e-82
1.07287e-80
4.79976e-79
1.91504e-77
6.94828e-76
2.31595e-74
7.12049e-73
2.02047e-71
5.28423e-70
1.27087e-68
2.80258e-67
5.64761e-66
1.03575e-64
1.72059e-63
2.5752e-62
3.44975e-61
4.10251e-60
4.28937e-59
3.90121e-58
3.04387e-57
1.98701e-56
1.05341e-55
4.37428e-55
1.36156e-54
2.95657e-54
4.01864e-54
2.96626e-54
1.03776e-54
1.8587e-55
2.60161e-56
3.77852e-57
6.57034e-58
1.32991e-58
2.98486e-59
7.43984e-60
2.08283e-60
6.73464e-61
2.65769e-61
1.39914e-61
1.07828e-61
1.28197e-61
2.31835e-61
6.17494e-61
2.36066e-60
1.24331e-59
8.30596e-59
6.34625e-58
5.01454e-57
3.77752e-56
2.54832e-55
1.4628e-54
1.30172e-53
5.90251e-52
3.54586e-50
1.54529e-48
3.78326e-47
1.83903e-46
3.81935e-46
5.58108e-46
7.95407e-46
5.61441e-46
3.56278e-46
1.50491e-46
9.11316e-48
3.2262e-49
8.79578e-51
3.56958e-52
1.09002e-52
4.57575e-53
1.66841e-53
5.54308e-54
1.7727e-54
5.63628e-55
1.85317e-55
6.54477e-56
2.5871e-56
1.18443e-56
6.47517e-57
4.32374e-57
3.6119e-57
3.84164e-57
5.17095e-57
8.53717e-57
1.66984e-56
3.82279e-56
1.04478e-55
3.65807e-55
1.72926e-54
9.7806e-54
4.58202e-53
1.24976e-52
1.71907e-52
1.312e-52
6.27125e-53
2.06646e-53
5.0375e-54
9.57189e-55
1.47437e-55
1.89635e-56
2.08301e-57
1.98732e-58
1.66794e-59
1.24353e-60
8.29733e-62
4.98323e-63
2.70595e-64
1.33334e-65
5.97644e-67
2.43896e-68
9.09864e-70
3.22539e-71
1.09372e-72
3.46424e-74
1.01844e-75
2.76217e-77
6.83565e-79
1.51388e-80
2.90452e-82
4.58062e-84
5.45944e-86
4.27978e-88
1.71112e-90
1.90557e-93
2.17866e-91
1.88523e-88
4.56762e-86
5.64515e-84
4.57985e-82
2.79982e-80
1.40274e-78
6.07349e-77
2.34922e-75
8.27837e-74
2.68511e-72
8.05068e-71
2.233e-69
5.7233e-68
1.35273e-66
2.94057e-65
5.86061e-64
1.06702e-62
1.76727e-61
2.65111e-60
3.58468e-59
4.33785e-58
4.64471e-57
4.34474e-56
3.49389e-55
2.3703e-54
1.32545e-53
5.9103e-53
1.99587e-52
4.75982e-52
7.26847e-52
6.17803e-52
2.50699e-52
4.9733e-53
7.7252e-54
1.26024e-54
2.43995e-55
5.38374e-56
1.30361e-56
3.48711e-57
1.04511e-57
3.62327e-58
1.54186e-58
8.8026e-59
7.31628e-59
9.20436e-59
1.72575e-58
4.70432e-58
1.82416e-57
9.64306e-57
6.39604e-56
4.80087e-55
3.6997e-54
2.71037e-53
1.77293e-52
9.85907e-52
8.61678e-51
3.78206e-49
2.176e-47
9.10292e-46
2.14617e-44
1.02873e-43
2.01374e-43
2.91439e-43
4.12795e-43
2.91528e-43
1.90416e-43
7.90301e-44
5.10924e-45
1.89381e-46
5.38309e-48
2.13904e-49
6.07171e-50
2.54134e-50
9.27197e-51
3.07503e-51
9.79468e-52
3.09294e-52
1.00605e-52
3.49875e-53
1.35617e-53
6.06589e-54
3.22683e-54
2.08662e-54
1.6755e-54
1.69631e-54
2.15418e-54
3.33168e-54
6.05634e-54
1.27324e-53
3.13332e-53
9.62595e-53
3.94439e-52
1.97157e-51
8.32939e-51
2.01193e-50
2.45554e-50
1.69727e-50
7.51003e-51
2.33432e-51
5.45211e-52
1.00539e-52
1.519e-53
1.93375e-54
2.11845e-55
2.02898e-56
1.71936e-57
1.3009e-58
8.84967e-60
5.44216e-61
3.03832e-62
1.54534e-63
7.17843e-65
3.04927e-66
1.1832e-67
4.16881e-69
1.36665e-70
4.33716e-72
1.29507e-73
3.58631e-75
9.08562e-77
2.06355e-78
4.06612e-80
6.59543e-82
8.09898e-84
6.55608e-86
2.71473e-88
3.14261e-91
3.1058e-89
2.56778e-86
5.96005e-84
7.07293e-82
5.52039e-80
3.25207e-78
1.57244e-76
6.57987e-75
2.46309e-73
8.412e-72
2.64895e-70
7.7283e-69
2.09154e-67
5.24668e-66
1.21778e-64
2.60949e-63
5.15006e-62
9.33384e-61
1.54623e-59
2.3284e-58
3.1677e-57
3.86369e-56
4.19002e-55
3.9983e-54
3.31521e-53
2.34343e-52
1.37596e-51
6.48824e-51
2.34853e-50
6.12169e-50
1.04762e-49
1.02994e-49
4.92239e-50
1.105e-50
1.95085e-51
3.64503e-52
7.9533e-53
1.93071e-53
5.09151e-54
1.47357e-54
4.76073e-55
1.78081e-55
8.21768e-56
5.10124e-56
4.56783e-56
6.07022e-56
1.17989e-55
3.2951e-55
1.2971e-54
6.88372e-54
4.53137e-53
3.33855e-52
2.50713e-51
1.78462e-50
1.13061e-49
6.08519e-49
5.23271e-48
2.22265e-46
1.22153e-44
4.88801e-43
1.10487e-41
5.24967e-41
9.61856e-41
1.37778e-40
1.93761e-40
1.37129e-40
9.23429e-41
3.73629e-41
2.59435e-42
1.00808e-43
2.99148e-45
1.16754e-46
3.04886e-47
1.26866e-47
4.62578e-48
1.52939e-48
4.84476e-49
1.51703e-49
4.87325e-50
1.66548e-50
6.31526e-51
2.75234e-51
1.42066e-51
8.87174e-52
6.83132e-52
6.57018e-52
7.85472e-52
1.13512e-51
1.9129e-51
3.68596e-51
8.15964e-51
2.19403e-50
7.72367e-50
3.36132e-49
1.26484e-48
2.6757e-48
2.88428e-48
1.80253e-48
7.37817e-49
2.16238e-49
4.83647e-50
8.64953e-51
1.28073e-51
1.61187e-52
1.75862e-53
1.68801e-54
1.44138e-55
1.10422e-56
7.63875e-58
4.79594e-59
2.74389e-60
1.43527e-61
6.88052e-63
3.0268e-64
1.22086e-65
4.49248e-67
1.48746e-68
4.67851e-70
1.41e-71
3.98034e-73
1.03328e-74
2.41158e-76
4.89253e-78
8.18493e-80
1.03857e-81
8.70727e-84
3.7452e-86
4.52023e-89
3.88106e-87
3.05809e-84
6.78527e-82
7.71716e-80
5.78468e-78
3.27849e-76
1.52738e-74
6.16681e-73
2.23062e-71
7.37412e-70
2.25293e-68
6.39603e-67
1.69055e-65
4.15911e-64
9.5057e-63
2.01148e-61
3.92707e-60
7.0486e-59
1.15861e-57
1.73752e-56
2.36661e-55
2.9114e-54
3.20406e-53
3.11882e-52
2.64824e-51
1.92758e-50
1.17593e-49
5.83123e-49
2.25351e-48
6.39945e-48
1.22594e-47
1.39529e-47
7.93324e-48
2.05656e-48
4.21614e-49
9.16098e-50
2.27271e-50
6.12007e-51
1.77247e-51
5.58897e-52
1.95819e-52
7.94829e-53
3.99624e-53
2.70095e-53
2.60087e-53
3.64418e-53
7.34159e-53
2.10179e-52
8.40112e-52
4.47385e-51
2.91949e-50
2.10807e-49
1.5404e-48
1.06377e-47
6.51521e-47
3.38922e-46
2.87255e-45
1.18014e-43
6.17613e-42
2.35426e-40
5.0747e-39
2.40535e-38
4.09215e-38
5.79583e-38
8.08656e-38
5.74782e-38
3.99847e-38
1.5649e-38
1.17518e-39
4.7957e-41
1.48878e-42
5.73331e-44
1.36318e-44
5.6238e-45
2.04845e-45
6.74881e-46
2.12489e-46
6.59365e-47
2.09018e-47
7.01192e-48
2.59704e-48
1.1009e-48
5.50273e-49
3.31186e-49
2.44123e-49
2.22733e-49
2.50286e-49
3.3731e-49
5.25962e-49
9.27473e-49
1.84605e-48
4.34028e-48
1.30393e-47
4.87351e-47
1.6146e-46
2.96513e-46
2.81642e-46
1.59159e-46
6.03118e-47
1.66804e-47
3.57517e-48
6.20403e-49
9.00527e-50
1.12047e-50
1.2172e-51
1.17033e-52
1.00629e-53
7.79852e-55
5.48004e-56
3.50818e-57
2.05376e-58
1.1029e-59
5.44564e-61
2.47531e-62
1.0351e-63
3.96374e-65
1.37279e-66
4.31914e-68
1.31746e-69
3.79994e-71
1.01345e-72
2.43745e-74
5.1062e-76
8.836e-78
1.16181e-79
1.01155e-81
4.53141e-84
5.71723e-87
4.27731e-85
3.20562e-82
6.78712e-80
7.38635e-78
5.30991e-76
2.89167e-74
1.29677e-72
5.04937e-71
1.76536e-69
5.65663e-68
1.6806e-66
4.65462e-65
1.20278e-63
2.89503e-62
6.47844e-61
1.34533e-59
2.58784e-58
4.60205e-57
7.52617e-56
1.1258e-54
1.53231e-53
1.88646e-52
2.08529e-51
2.04982e-50
1.76975e-49
1.32081e-48
8.34382e-48
4.33772e-47
1.7855e-46
5.51174e-46
1.17906e-45
1.55139e-45
1.0556e-45
3.2246e-46
7.82251e-47
1.99929e-47
5.67926e-48
1.71039e-48
5.4812e-49
1.89457e-49
7.23864e-50
3.20513e-50
1.76239e-50
1.29691e-50
1.33978e-50
1.97539e-50
4.12284e-50
1.21002e-49
4.90883e-49
2.61982e-48
1.69144e-47
1.19414e-46
8.47151e-46
5.6628e-45
3.34428e-44
1.67813e-43
1.40421e-42
5.57426e-41
2.76784e-39
1.00021e-37
2.04295e-36
9.7326e-36
1.52374e-35
2.13064e-35
2.94757e-35
2.11014e-35
1.51981e-35
5.71226e-36
4.67444e-37
2.00853e-38
6.54095e-40
2.50092e-41
5.36057e-42
2.18672e-42
7.96081e-43
2.61496e-43
8.186e-44
2.51804e-44
7.87878e-45
2.5941e-45
9.37817e-46
3.86249e-46
1.86717e-46
1.08164e-46
7.62418e-47
6.5938e-47
6.95767e-47
8.73142e-47
1.2577e-46
2.02679e-46
3.62561e-46
7.45267e-46
1.90209e-45
6.03001e-45
1.7392e-44
2.75432e-44
2.3041e-44
1.17904e-44
4.14353e-45
1.08324e-45
2.22816e-46
3.7563e-47
5.34996e-48
6.58549e-49
7.12635e-50
6.86541e-51
5.94454e-52
4.65968e-53
3.32503e-54
2.16939e-55
1.29869e-56
7.1544e-58
3.63496e-59
1.70536e-60
7.38353e-62
2.93754e-63
1.06151e-64
3.41731e-66
1.06741e-67
3.15513e-69
8.6519e-71
2.14708e-72
4.65364e-74
8.34871e-76
1.14018e-77
1.03333e-79
4.8319e-82
6.38747e-85
4.17664e-83
2.9719e-80
5.99579e-78
6.23659e-76
4.29592e-74
2.2467e-72
9.69763e-71
3.64368e-69
1.23275e-67
3.83338e-66
1.1076e-64
2.98605e-63
7.51934e-62
1.77123e-60
3.90471e-59
7.98993e-58
1.51286e-56
2.64436e-55
4.25422e-54
6.27876e-53
8.46569e-52
1.03733e-50
1.1474e-49
1.13572e-48
9.94664e-48
7.59486e-47
4.95871e-46
2.6973e-45
1.17971e-44
3.9471e-44
9.39636e-44
1.42515e-43
1.16336e-43
4.27181e-44
1.24543e-44
3.77635e-45
1.23675e-45
4.20162e-46
1.50045e-46
5.71778e-47
2.39532e-47
1.16274e-47
7.01064e-48
5.61038e-48
6.20026e-48
9.59985e-48
2.07402e-47
6.23674e-47
2.56451e-46
1.36869e-45
8.71678e-45
5.99697e-44
4.11756e-43
2.6557e-42
1.50706e-41
7.27524e-41
6.01839e-40
2.30478e-38
1.08125e-36
3.68361e-35
7.07564e-34
3.41656e-33
4.8761e-33
6.71547e-33
9.20802e-33
6.66225e-33
4.97948e-33
1.78695e-33
1.60557e-34
7.28972e-36
2.499e-37
9.56118e-39
1.83143e-39
7.36573e-40
2.68396e-40
8.8048e-41
2.74424e-41
8.37638e-42
2.5895e-42
8.37381e-43
2.9558e-43
1.18269e-43
5.52718e-44
3.07992e-44
2.07488e-44
1.70046e-44
1.68396e-44
1.96542e-44
2.61131e-44
3.84036e-44
6.1701e-44
1.10907e-43
2.39808e-43
6.37875e-43
1.58392e-42
2.15334e-42
1.58812e-42
7.37627e-43
2.41009e-43
5.96927e-44
1.18071e-44
1.93697e-45
2.71068e-46
3.30477e-47
3.56557e-48
3.44412e-49
3.00451e-50
2.38282e-51
1.72688e-52
1.14826e-53
7.02824e-55
3.97072e-56
2.07506e-57
1.00427e-58
4.49886e-60
1.85798e-61
6.99697e-63
2.3463e-64
7.50491e-66
2.27772e-67
6.43961e-69
1.65352e-70
3.71737e-72
6.92978e-74
9.85035e-76
9.3104e-78
4.55286e-80
6.3176e-83
3.61844e-81
2.442e-78
4.69048e-76
4.65952e-74
3.07345e-72
1.54296e-70
6.40946e-69
2.32404e-67
7.60921e-66
2.29534e-64
6.44768e-63
1.69658e-61
4.19755e-60
9.71155e-59
2.08167e-57
4.13874e-56
7.63321e-55
1.30385e-53
2.05766e-52
2.99079e-51
3.98839e-50
4.85689e-49
5.36803e-48
5.34235e-47
4.7382e-46
3.6946e-45
2.48782e-44
1.41242e-43
6.54447e-43
2.36506e-42
6.24005e-42
1.08628e-41
1.06338e-41
4.77955e-42
1.69426e-42
6.14143e-43
2.33719e-43
9.03961e-44
3.62257e-44
1.53096e-44
7.07235e-45
3.78137e-45
2.50348e-45
2.17413e-45
2.56255e-45
4.15713e-45
9.28555e-45
2.85708e-44
1.18806e-43
6.32026e-43
3.95421e-42
2.63926e-41
1.74657e-40
1.08229e-39
5.875e-39
2.71889e-38
2.22539e-37
8.20147e-36
3.61767e-34
1.15452e-32
2.06713e-31
1.02036e-30
1.3158e-30
1.77831e-30
2.41617e-30
1.7738e-30
1.37886e-30
4.70888e-31
4.67596e-32
2.25394e-33
8.17011e-35
3.15629e-36
5.3701e-37
2.12235e-37
7.75691e-38
2.54764e-38
7.92388e-39
2.40552e-39
7.36357e-40
2.34307e-40
8.08557e-41
3.14545e-41
1.42157e-41
7.61959e-42
4.90556e-42
3.8098e-42
3.53988e-42
3.83844e-42
4.69669e-42
6.29405e-42
9.07329e-42
1.42625e-41
2.60894e-41
5.77096e-41
1.22025e-40
1.42071e-40
9.25941e-41
3.91595e-41
1.1932e-41
2.8075e-42
5.35257e-43
8.56222e-44
1.17937e-44
1.42613e-45
1.53591e-46
1.48893e-47
1.3096e-48
1.05143e-49
7.74192e-51
5.24766e-52
3.2844e-53
1.90296e-54
1.02276e-55
5.10505e-57
2.36543e-58
1.0136e-59
3.9753e-61
1.39529e-62
4.58471e-64
1.43447e-65
4.19597e-67
1.11779e-68
2.61221e-70
5.06966e-72
7.51384e-74
7.41953e-76
3.80072e-78
5.5456e-81
2.78712e-79
1.78224e-76
3.25681e-74
3.08827e-72
1.94986e-70
9.39333e-69
3.75348e-67
1.31247e-65
4.15484e-64
1.21548e-62
3.32478e-61
8.55462e-60
2.07143e-58
4.625e-57
9.58138e-56
1.84793e-54
3.31785e-53
5.53653e-52
8.56614e-51
1.2252e-49
1.61427e-48
1.95096e-47
2.15107e-46
2.14841e-45
1.92561e-44
1.52981e-43
1.05967e-42
6.26103e-42
3.06315e-41
1.19085e-40
3.46566e-40
6.88892e-40
8.06314e-40
4.49996e-40
1.95582e-40
8.5463e-41
3.81401e-41
1.69581e-41
7.68305e-42
3.62499e-42
1.858e-42
1.099e-42
7.99138e-43
7.51133e-43
9.413e-43
1.59618e-42
3.67957e-42
1.15591e-41
4.8443e-41
2.55727e-40
1.56308e-39
1.00637e-38
6.38449e-38
3.78007e-37
1.95152e-36
8.61916e-36
6.97942e-35
2.46672e-33
1.01738e-31
3.01958e-30
4.9876e-29
2.53421e-28
2.93537e-28
3.87148e-28
5.21082e-28
3.89819e-28
3.15795e-28
1.02697e-28
1.13127e-29
5.82399e-31
2.2476e-32
8.83406e-34
1.33246e-34
5.15986e-35
1.89775e-35
6.26398e-36
1.95125e-36
5.91161e-37
1.79781e-37
5.64545e-38
1.90882e-38
7.23092e-39
3.16352e-39
1.63186e-39
1.00427e-39
7.39266e-40
6.44395e-40
6.48493e-40
7.29463e-40
8.89183e-40
1.14856e-39
1.57849e-39
2.44113e-39
4.46045e-39
7.94859e-39
7.92335e-39
4.57945e-39
1.77025e-39
5.04791e-40
1.13181e-40
2.0854e-41
3.26021e-42
4.42851e-43
5.32005e-44
5.72697e-45
5.578e-46
4.95104e-47
4.02684e-48
3.01408e-49
2.08337e-50
1.33364e-51
7.92529e-53
4.38072e-54
2.25495e-55
1.08051e-56
4.80265e-58
1.96078e-59
7.19796e-61
2.44274e-62
7.91159e-64
2.40115e-65
6.64943e-67
1.6178e-68
3.2731e-70
5.06442e-72
5.23061e-74
2.81003e-76
4.31616e-79
1.90652e-77
1.15464e-74
2.00678e-72
1.81601e-70
1.09723e-68
5.07052e-67
1.94806e-65
6.56409e-64
2.00695e-62
5.68542e-61
1.51248e-59
3.81349e-58
8.88846e-57
1.91087e-55
3.82607e-54
7.15692e-53
1.25048e-51
2.03746e-50
3.08834e-49
4.34255e-48
5.64613e-47
6.76204e-46
7.42407e-45
7.42556e-44
6.70998e-43
5.41685e-42
3.84841e-41
2.35855e-40
1.21378e-39
5.05378e-39
1.61371e-38
3.64014e-38
5.06822e-38
3.54324e-38
1.9007e-38
1.01056e-38
5.3426e-39
2.75827e-39
1.42455e-39
7.56242e-40
4.33055e-40
2.8455e-40
2.27141e-40
2.30457e-40
3.06163e-40
5.413e-40
1.28482e-39
4.10762e-39
1.72688e-38
8.99245e-38
5.33184e-37
3.28749e-36
1.98585e-35
1.11556e-34
5.43799e-34
2.27909e-33
1.82308e-32
6.14876e-31
2.3562e-29
6.45129e-28
9.71378e-27
5.08855e-26
5.3011e-26
6.76904e-26
9.01695e-26
6.9039e-26
5.83771e-26
1.82039e-26
2.22013e-27
1.22996e-28
5.05382e-30
2.04205e-31
2.75633e-32
1.04368e-32
3.87966e-33
1.29356e-33
4.05543e-34
1.23188e-34
3.73862e-35
1.16327e-35
3.8662e-36
1.42956e-36
6.06441e-37
3.01346e-37
1.77355e-37
1.2378e-37
1.01203e-37
9.44112e-38
9.742e-38
1.07777e-37
1.24534e-37
1.49562e-37
1.95499e-37
2.93777e-37
4.37242e-37
3.73849e-37
1.92479e-37
6.8311e-38
1.83003e-38
3.92318e-39
7.00615e-40
1.07308e-40
1.44046e-41
1.72217e-42
1.85576e-43
1.81819e-44
1.63019e-45
1.34421e-46
1.02336e-47
7.21625e-49
4.72585e-50
2.88087e-51
1.63779e-52
8.6935e-54
4.30735e-55
1.98549e-56
8.43577e-58
3.23726e-59
1.13934e-60
3.83227e-62
1.20926e-63
3.48562e-65
8.83785e-67
1.8658e-68
3.01685e-70
3.2623e-72
1.83993e-74
2.97839e-77
1.15827e-75
6.64105e-73
1.0975e-70
9.47532e-69
5.47649e-67
2.42641e-65
8.9569e-64
2.90646e-62
8.58087e-61
2.35455e-59
6.07717e-58
1.48741e-56
3.32473e-55
6.88287e-54
1.33181e-52
2.41557e-51
4.10565e-50
6.5281e-49
9.68698e-48
1.33779e-46
1.7143e-45
2.03136e-44
2.21654e-43
2.21515e-42
2.01276e-41
1.64619e-40
1.19561e-39
7.57269e-39
4.08209e-38
1.8114e-37
6.30872e-37
1.60377e-36
2.63751e-36
2.31601e-36
1.54144e-36
1.00683e-36
6.37073e-37
3.85847e-37
2.29347e-37
1.38288e-37
8.9203e-38
6.53827e-38
5.72666e-38
6.25908e-38
8.79254e-38
1.61658e-37
3.93929e-37
1.27619e-36
5.34929e-36
2.72688e-35
1.55436e-34
9.09611e-34
5.18787e-33
2.74099e-32
1.25044e-31
4.9376e-31
3.88773e-30
1.24285e-28
4.39239e-27
1.09938e-25
1.4888e-24
7.95703e-24
7.56645e-24
9.26162e-24
1.21688e-23
9.5769e-24
8.45679e-24
2.57502e-24
3.42668e-25
2.05775e-26
9.05927e-28
3.8124e-29
4.67685e-30
1.72985e-30
6.53527e-31
2.21554e-31
7.03478e-32
2.15528e-32
6.56512e-33
2.03468e-33
6.67535e-34
2.41692e-34
9.96405e-35
4.77582e-35
2.68957e-35
1.77993e-35
1.3645e-35
1.1783e-35
1.1124e-35
1.11384e-35
1.14902e-35
1.20529e-35
1.3318e-35
1.64234e-35
2.02764e-35
1.49262e-35
6.88288e-36
2.25373e-36
5.69636e-37
1.17181e-37
2.0345e-38
3.0609e-39
4.0694e-40
4.85088e-41
5.24043e-42
5.17113e-43
4.68807e-44
3.92212e-45
3.03883e-46
2.18693e-47
1.46556e-48
9.1657e-50
5.35938e-51
2.93338e-52
1.50262e-53
7.1816e-55
3.17441e-56
1.27294e-57
4.65911e-59
1.63105e-60
5.35875e-62
1.60932e-63
4.25575e-65
9.38177e-67
1.58627e-68
1.79706e-70
1.06469e-72
1.81752e-75
6.23363e-74
3.3841e-71
5.319e-69
4.38214e-67
2.42286e-65
1.02887e-63
3.64635e-62
1.138e-60
3.23909e-59
8.60208e-58
2.15654e-56
5.07089e-55
1.08744e-53
2.16807e-52