/*--------------------------------*- C++ -*----------------------------------*\
| =========                 |                                                 |
| \\      /  F ield         | OpenFOAM: The Open Source CFD Toolbox           |
|  \\    /   O peration     | Version:  2212                                  |
|   \\  /    A nd           | Website:  www.openfoam.com                      |
|    \\/     M anipulation  |                                                 |
\*---------------------------------------------------------------------------*/
FoamFile
{
    version     2.0;
    format      ascii;
    arch        "LSB;label=64;scalar=64";
    class       volScalarField;
    location    "10";
    object      Sch4;
}
// * * * * * * * * * * * * * * * * * * * * * * * * * * * * * * * * * * * * * //

dimensions      [1 -3 0 0 0 0 0];

internalField   nonuniform List<scalar> 
1024
(
0.0543814
0.0543814
0.0543811
0.0543806
0.0543799
0.0543792
0.0543785
0.0543777
0.0543771
0.054376
0.054375
0.0543744
0.0543741
0.054374
0.0543739
0.0543736
0.0543737
0.054374
0.054374
0.0543741
0.0543745
0.0543751
0.0543761
0.0543773
0.0543782
0.0543789
0.0543796
0.0543803
0.054381
0.0543816
0.054382
0.0543821
0.0543814
0.0543813
0.054381
0.0543804
0.0543798
0.0543791
0.0543784
0.0543777
0.0543771
0.054376
0.054375
0.0543744
0.0543741
0.054374
0.0543739
0.0543736
0.0543737
0.054374
0.054374
0.0543741
0.0543745
0.0543751
0.0543761
0.0543773
0.0543782
0.0543789
0.0543795
0.0543802
0.0543809
0.0543815
0.0543818
0.0543819
0.0543811
0.0543809
0.0543806
0.0543801
0.0543795
0.0543788
0.0543782
0.0543776
0.054377
0.0543759
0.054375
0.0543744
0.0543741
0.054374
0.0543739
0.0543736
0.0543737
0.054374
0.054374
0.0543741
0.0543745
0.0543751
0.0543761
0.0543772
0.054378
0.0543787
0.0543793
0.05438
0.0543806
0.0543811
0.0543813
0.0543814
0.0543804
0.0543803
0.05438
0.0543796
0.0543791
0.0543785
0.054378
0.0543774
0.0543768
0.0543758
0.0543749
0.0543744
0.0543741
0.054374
0.054374
0.0543736
0.0543737
0.054374
0.0543741
0.0543742
0.0543745
0.0543751
0.0543761
0.0543771
0.0543778
0.0543785
0.054379
0.0543796
0.0543801
0.0543804
0.0543806
0.0543807
0.0543796
0.0543794
0.0543792
0.0543789
0.0543785
0.054378
0.0543776
0.0543772
0.0543766
0.0543757
0.0543749
0.0543744
0.0543742
0.0543741
0.054374
0.0543736
0.0543737
0.054374
0.0543741
0.0543742
0.0543745
0.0543751
0.054376
0.0543769
0.0543775
0.0543781
0.0543785
0.0543789
0.0543793
0.0543796
0.0543797
0.0543798
0.0543786
0.0543785
0.0543783
0.0543781
0.0543778
0.0543775
0.0543772
0.0543768
0.0543764
0.0543756
0.0543749
0.0543744
0.0543742
0.0543741
0.054374
0.0543736
0.0543737
0.0543741
0.0543742
0.0543743
0.0543745
0.0543751
0.0543759
0.0543767
0.0543772
0.0543776
0.0543779
0.0543782
0.0543784
0.0543786
0.0543787
0.0543787
0.0543775
0.0543774
0.0543773
0.0543772
0.054377
0.0543768
0.0543766
0.0543764
0.0543761
0.0543754
0.0543749
0.0543745
0.0543743
0.0543742
0.0543741
0.0543737
0.0543737
0.0543741
0.0543742
0.0543743
0.0543746
0.054375
0.0543757
0.0543763
0.0543767
0.054377
0.0543771
0.0543773
0.0543775
0.0543776
0.0543776
0.0543777
0.0543765
0.0543764
0.0543764
0.0543763
0.0543762
0.0543762
0.0543761
0.0543759
0.0543757
0.0543753
0.0543748
0.0543745
0.0543743
0.0543742
0.0543741
0.0543737
0.0543738
0.0543742
0.0543743
0.0543744
0.0543746
0.0543749
0.0543755
0.0543759
0.0543762
0.0543763
0.0543764
0.0543765
0.0543765
0.0543766
0.0543766
0.0543766
0.0543756
0.0543755
0.0543755
0.0543755
0.0543755
0.0543755
0.0543755
0.0543755
0.0543754
0.0543751
0.0543747
0.0543745
0.0543744
0.0543743
0.0543742
0.0543737
0.0543738
0.0543742
0.0543743
0.0543744
0.0543746
0.0543748
0.0543752
0.0543755
0.0543756
0.0543757
0.0543756
0.0543756
0.0543756
0.0543756
0.0543756
0.0543756
0.0543748
0.0543748
0.0543748
0.0543748
0.0543749
0.0543749
0.054375
0.054375
0.0543751
0.0543749
0.0543746
0.0543745
0.0543744
0.0543743
0.0543742
0.0543737
0.0543738
0.0543742
0.0543744
0.0543744
0.0543745
0.0543747
0.054375
0.0543752
0.0543751
0.0543751
0.054375
0.0543749
0.0543749
0.0543749
0.0543749
0.0543749
0.0543743
0.0543743
0.0543743
0.0543743
0.0543744
0.0543745
0.0543746
0.0543747
0.0543748
0.0543747
0.0543746
0.0543745
0.0543744
0.0543744
0.0543742
0.0543737
0.0543738
0.0543743
0.0543744
0.0543744
0.0543745
0.0543746
0.0543748
0.0543748
0.0543747
0.0543747
0.0543745
0.0543744
0.0543744
0.0543743
0.0543743
0.0543743
0.054374
0.054374
0.054374
0.0543741
0.0543741
0.0543742
0.0543744
0.0543745
0.0543746
0.0543746
0.0543745
0.0543745
0.0543744
0.0543744
0.0543742
0.0543737
0.0543738
0.0543743
0.0543744
0.0543744
0.0543745
0.0543745
0.0543746
0.0543746
0.0543745
0.0543744
0.0543743
0.0543741
0.0543741
0.054374
0.054374
0.054374
0.0543739
0.0543739
0.0543739
0.054374
0.054374
0.0543741
0.0543743
0.0543743
0.0543745
0.0543745
0.0543745
0.0543744
0.0543744
0.0543744
0.0543742
0.0543737
0.0543738
0.0543743
0.0543744
0.0543744
0.0543745
0.0543745
0.0543745
0.0543745
0.0543744
0.0543743
0.0543741
0.054374
0.054374
0.0543739
0.0543739
0.0543739
0.0543739
0.0543739
0.054374
0.054374
0.0543741
0.0543741
0.0543742
0.0543743
0.0543745
0.0543745
0.0543744
0.0543744
0.0543744
0.0543743
0.0543742
0.0543737
0.0543738
0.0543743
0.0543744
0.0543744
0.0543744
0.0543745
0.0543745
0.0543744
0.0543743
0.0543742
0.0543741
0.0543741
0.054374
0.054374
0.0543739
0.0543739
0.054374
0.054374
0.054374
0.054374
0.0543741
0.0543742
0.0543742
0.0543743
0.0543744
0.0543744
0.0543744
0.0543743
0.0543743
0.0543742
0.0543741
0.0543736
0.0543737
0.0543741
0.0543742
0.0543743
0.0543743
0.0543744
0.0543744
0.0543744
0.0543743
0.0543742
0.0543741
0.0543741
0.054374
0.054374
0.054374
0.054374
0.0543738
0.0543738
0.0543738
0.0543738
0.0543739
0.054374
0.0543742
0.0543744
0.0543744
0.0543742
0.054374
0.0543739
0.0543738
0.0543738
0.0543736
0.0543732
0.0543733
0.0543736
0.0543737
0.0543738
0.0543739
0.054374
0.0543742
0.0543745
0.0543744
0.0543741
0.054374
0.0543738
0.0543738
0.0543737
0.0543737
0.0543737
0.0543737
0.0543737
0.0543737
0.0543738
0.0543738
0.0543739
0.0543741
0.0543743
0.0543745
0.0543742
0.0543739
0.0543738
0.0543737
0.0543737
0.0543735
0.0543732
0.0543734
0.0543737
0.0543738
0.0543739
0.054374
0.0543741
0.0543743
0.0543745
0.0543745
0.0543743
0.0543741
0.054374
0.0543739
0.0543739
0.0543738
0.0543738
0.0543739
0.054374
0.054374
0.054374
0.0543741
0.0543741
0.0543742
0.0543743
0.0543744
0.0543744
0.0543743
0.0543743
0.0543742
0.0543742
0.054374
0.0543735
0.0543738
0.0543742
0.0543744
0.0543744
0.0543745
0.0543746
0.0543747
0.0543748
0.0543749
0.0543749
0.0543748
0.0543747
0.0543746
0.0543746
0.0543745
0.0543745
0.0543739
0.0543739
0.054374
0.054374
0.0543741
0.0543742
0.0543742
0.0543743
0.0543745
0.0543745
0.0543745
0.0543745
0.0543745
0.0543745
0.0543743
0.0543738
0.0543742
0.0543747
0.0543748
0.054375
0.0543752
0.0543756
0.0543761
0.0543767
0.0543773
0.0543778
0.054378
0.054378
0.0543778
0.0543776
0.0543774
0.0543773
0.054374
0.054374
0.0543741
0.0543741
0.0543742
0.0543743
0.0543744
0.0543745
0.0543748
0.0543748
0.0543749
0.054375
0.0543751
0.0543751
0.0543751
0.0543747
0.0543753
0.0543758
0.0543762
0.0543766
0.0543774
0.0543788
0.054381
0.0543839
0.0543872
0.05439
0.0543918
0.0543923
0.054392
0.0543911
0.0543903
0.0543898
0.0543747
0.0543747
0.0543747
0.0543747
0.0543748
0.0543749
0.0543751
0.0543754
0.0543758
0.054376
0.0543764
0.0543767
0.0543771
0.0543775
0.0543778
0.0543777
0.0543786
0.0543795
0.0543803
0.0543814
0.0543836
0.0543876
0.0543943
0.0544038
0.054415
0.0544255
0.0544332
0.0544367
0.0544364
0.0544338
0.0544309
0.0544291
0.0543768
0.0543768
0.0543767
0.0543767
0.0543768
0.054377
0.0543774
0.054378
0.0543789
0.0543798
0.0543807
0.0543818
0.054383
0.0543842
0.0543852
0.0543859
0.0543875
0.054389
0.0543904
0.0543926
0.0543969
0.0544053
0.0544203
0.0544426
0.0544702
0.0544979
0.05452
0.0545323
0.0545345
0.0545295
0.0545223
0.0545175
0.0543823
0.0543821
0.0543819
0.0543818
0.0543819
0.0543824
0.0543834
0.0543849
0.054387
0.0543891
0.0543916
0.0543943
0.054397
0.0543996
0.054402
0.054404
0.0544066
0.054409
0.0544113
0.0544145
0.0544209
0.0544341
0.0544589
0.0544978
0.0545478
0.0546003
0.054645
0.0546739
0.0546844
0.0546798
0.0546683
0.0546591
0.0543939
0.0543935
0.054393
0.0543927
0.054393
0.0543942
0.0543966
0.0544
0.0544043
0.0544091
0.0544142
0.0544194
0.0544246
0.0544295
0.054434
0.0544377
0.0544417
0.0544451
0.054448
0.0544519
0.054459
0.0544747
0.054506
0.0545575
0.0546262
0.0547015
0.0547695
0.0548191
0.0548446
0.0548476
0.0548363
0.0548243
0.0544157
0.0544148
0.0544137
0.0544132
0.0544142
0.0544171
0.0544221
0.0544289
0.054437
0.0544456
0.0544545
0.0544632
0.0544716
0.0544794
0.0544863
0.0544921
0.0544975
0.0545018
0.0545052
0.054509
0.0545154
0.0545297
0.0545604
0.0546141
0.0546895
0.0547765
0.0548605
0.0549285
0.0549721
0.0549891
0.0549851
0.054974
0.0544523
0.0544506
0.0544488
0.0544485
0.0544512
0.0544574
0.0544668
0.0544786
0.0544917
0.0545051
0.0545183
0.0545309
0.0545426
0.0545532
0.0545625
0.0545703
0.0545769
0.0545819
0.0545855
0.0545888
0.0545935
0.0546041
0.0546284
0.0546746
0.0547439
0.0548294
0.0549187
0.0549988
0.0550585
0.0550913
0.0550985
0.0550917
0.0545092
0.0545064
0.0545041
0.0545053
0.0545116
0.0545229
0.0545383
0.0545561
0.0545746
0.0545926
0.0546097
0.0546256
0.0546399
0.0546526
0.0546636
0.0546728
0.05468
0.0546853
0.0546889
0.0546916
0.0546948
0.0547013
0.0547177
0.0547521
0.0548078
0.0548819
0.0549659
0.0550489
0.0551187
0.0551648
0.0551834
0.0551822
0.0545924
0.0545883
0.0545869
0.0545918
0.054604
0.054622
0.0546437
0.0546668
0.0546895
0.0547107
0.0547301
0.0547476
0.054763
0.0547765
0.0547879
0.0547973
0.0548045
0.0548096
0.0548129
0.0548152
0.0548172
0.0548207
0.0548305
0.0548534
0.0548938
0.0549516
0.0550223
0.0550985
0.0551695
0.0552232
0.055251
0.0552552
0.0547084
0.0547041
0.0547065
0.054718
0.0547371
0.054761
0.0547868
0.0548124
0.0548363
0.054858
0.0548771
0.0548939
0.0549084
0.0549209
0.0549313
0.0549398
0.054946
0.0549504
0.0549532
0.054955
0.0549563
0.0549581
0.0549634
0.0549773
0.0550038
0.0550446
0.0550978
0.0551596
0.0552227
0.0552761
0.0553088
0.0553175
0.0548651
0.0548636
0.0548736
0.0548921
0.0549153
0.0549405
0.0549655
0.054989
0.0550101
0.0550286
0.0550446
0.0550583
0.0550699
0.0550797
0.0550878
0.0550943
0.055099
0.0551023
0.0551043
0.0551056
0.0551065
0.0551073
0.05511
0.0551176
0.0551332
0.0551588
0.0551938
0.055237
0.055285
0.05533
0.0553615
0.0553728
0.0550733
0.0550788
0.0550948
0.0551136
0.0551332
0.0551525
0.0551706
0.055187
0.0552012
0.0552135
0.0552239
0.0552326
0.0552399
0.0552459
0.0552509
0.0552549
0.0552577
0.0552596
0.0552608
0.0552616
0.0552621
0.0552625
0.0552636
0.0552672
0.055275
0.0552882
0.055307
0.0553313
0.0553599
0.0553894
0.0554129
0.0554233
0.0553452
0.0553493
0.0553574
0.0553654
0.0553731
0.0553803
0.0553869
0.0553928
0.0553978
0.055402
0.0554056
0.0554085
0.055411
0.055413
0.0554146
0.0554159
0.0554168
0.0554175
0.0554179
0.0554181
0.0554182
0.0554184
0.0554187
0.0554197
0.055422
0.0554259
0.0554316
0.0554391
0.0554482
0.0554581
0.0554669
0.0554714
)
;

boundaryField
{
    movingWall
    {
        type            fixedValue;
        value           uniform 0.0555;
    }
    fixedWalls
    {
        type            zeroGradient;
    }
    floor
    {
        type            zeroGradient;
    }
    frontAndBack
    {
        type            empty;
    }
}


// ************************************************************************* //
