/*--------------------------------*- C++ -*----------------------------------*\
| =========                 |                                                 |
| \\      /  F ield         | OpenFOAM: The Open Source CFD Toolbox           |
|  \\    /   O peration     | Version:  2212                                  |
|   \\  /    A nd           | Website:  www.openfoam.com                      |
|    \\/     M anipulation  |                                                 |
\*---------------------------------------------------------------------------*/
FoamFile
{
    version     2.0;
    format      ascii;
    arch        "LSB;label=64;scalar=64";
    class       volScalarField;
    location    "10";
    object      Xpr;
}
// * * * * * * * * * * * * * * * * * * * * * * * * * * * * * * * * * * * * * //

dimensions      [1 -3 0 0 0 0 0];

internalField   nonuniform List<scalar> 
1024
(
0.0841045
0.0841045
0.0841045
0.0841045
0.0841044
0.0841043
0.0841043
0.0841042
0.0841042
0.0841041
0.084104
0.0841039
0.0841039
0.0841039
0.0841039
0.0841039
0.0841039
0.0841039
0.0841039
0.0841039
0.0841039
0.084104
0.0841041
0.0841042
0.0841043
0.0841043
0.0841044
0.0841045
0.0841045
0.0841046
0.0841046
0.0841046
0.0841045
0.0841045
0.0841045
0.0841044
0.0841044
0.0841043
0.0841043
0.0841042
0.0841042
0.0841041
0.084104
0.0841039
0.0841039
0.0841039
0.0841039
0.0841039
0.0841039
0.0841039
0.0841039
0.0841039
0.0841039
0.084104
0.0841041
0.0841042
0.0841043
0.0841043
0.0841044
0.0841044
0.0841045
0.0841046
0.0841046
0.0841046
0.0841045
0.0841045
0.0841045
0.0841044
0.0841044
0.0841043
0.0841043
0.0841042
0.0841042
0.0841041
0.084104
0.0841039
0.0841039
0.0841039
0.0841039
0.0841039
0.0841039
0.0841039
0.0841039
0.0841039
0.0841039
0.084104
0.0841041
0.0841042
0.0841042
0.0841043
0.0841044
0.0841044
0.0841045
0.0841045
0.0841045
0.0841045
0.0841044
0.0841044
0.0841044
0.0841044
0.0841043
0.0841043
0.0841042
0.0841042
0.0841041
0.0841041
0.084104
0.0841039
0.0841039
0.0841039
0.0841039
0.0841039
0.0841039
0.0841039
0.0841039
0.0841039
0.0841039
0.084104
0.0841041
0.0841042
0.0841042
0.0841043
0.0841043
0.0841044
0.0841044
0.0841045
0.0841045
0.0841045
0.0841044
0.0841044
0.0841043
0.0841043
0.0841043
0.0841042
0.0841042
0.0841042
0.0841041
0.0841041
0.084104
0.0841039
0.0841039
0.0841039
0.0841039
0.0841039
0.0841039
0.0841039
0.0841039
0.0841039
0.0841039
0.084104
0.0841041
0.0841041
0.0841042
0.0841043
0.0841043
0.0841043
0.0841044
0.0841044
0.0841044
0.0841044
0.0841043
0.0841043
0.0841043
0.0841042
0.0841042
0.0841042
0.0841042
0.0841041
0.0841041
0.084104
0.084104
0.0841039
0.0841039
0.0841039
0.0841039
0.0841039
0.0841039
0.0841039
0.0841039
0.0841039
0.0841039
0.084104
0.0841041
0.0841041
0.0841042
0.0841042
0.0841042
0.0841043
0.0841043
0.0841043
0.0841043
0.0841043
0.0841042
0.0841042
0.0841042
0.0841042
0.0841042
0.0841041
0.0841041
0.0841041
0.0841041
0.084104
0.084104
0.0841039
0.0841039
0.0841039
0.0841039
0.0841039
0.0841039
0.0841039
0.0841039
0.0841039
0.0841039
0.084104
0.084104
0.0841041
0.0841041
0.0841042
0.0841042
0.0841042
0.0841042
0.0841042
0.0841042
0.0841042
0.0841041
0.0841041
0.0841041
0.0841041
0.0841041
0.0841041
0.0841041
0.0841041
0.084104
0.084104
0.084104
0.0841039
0.0841039
0.0841039
0.0841039
0.0841039
0.0841039
0.0841039
0.0841039
0.0841039
0.084104
0.084104
0.084104
0.0841041
0.0841041
0.0841041
0.0841041
0.0841041
0.0841041
0.0841041
0.0841041
0.0841041
0.084104
0.084104
0.084104
0.084104
0.084104
0.084104
0.084104
0.084104
0.084104
0.084104
0.084104
0.0841039
0.0841039
0.0841039
0.0841039
0.0841039
0.0841039
0.0841039
0.0841039
0.0841039
0.084104
0.084104
0.084104
0.084104
0.084104
0.084104
0.084104
0.084104
0.084104
0.084104
0.084104
0.084104
0.084104
0.084104
0.084104
0.084104
0.084104
0.084104
0.084104
0.084104
0.084104
0.084104
0.084104
0.0841039
0.0841039
0.0841039
0.0841039
0.0841039
0.0841039
0.0841039
0.0841039
0.0841039
0.0841039
0.084104
0.084104
0.084104
0.084104
0.084104
0.084104
0.084104
0.084104
0.084104
0.084104
0.084104
0.0841039
0.0841039
0.0841039
0.0841039
0.0841039
0.0841039
0.084104
0.084104
0.084104
0.084104
0.084104
0.0841039
0.0841039
0.0841039
0.0841039
0.0841039
0.0841039
0.0841039
0.0841039
0.0841039
0.0841039
0.084104
0.084104
0.084104
0.084104
0.084104
0.0841039
0.0841039
0.0841039
0.0841039
0.0841039
0.0841039
0.0841039
0.0841039
0.0841039
0.0841039
0.0841039
0.0841039
0.0841039
0.0841039
0.084104
0.084104
0.084104
0.0841039
0.0841039
0.0841039
0.0841039
0.0841039
0.0841039
0.0841039
0.0841039
0.0841039
0.0841039
0.084104
0.084104
0.084104
0.0841039
0.0841039
0.0841039
0.0841039
0.0841039
0.0841039
0.0841039
0.0841039
0.0841039
0.0841039
0.0841039
0.0841039
0.0841039
0.0841039
0.0841039
0.0841039
0.084104
0.084104
0.0841039
0.0841039
0.0841039
0.0841039
0.0841039
0.0841039
0.0841039
0.0841039
0.0841039
0.0841039
0.0841039
0.0841039
0.0841039
0.0841039
0.0841039
0.0841039
0.0841039
0.0841039
0.0841039
0.0841039
0.0841039
0.0841039
0.0841039
0.0841039
0.0841039
0.0841039
0.0841039
0.0841039
0.0841039
0.0841039
0.0841039
0.0841039
0.0841039
0.0841039
0.0841039
0.0841039
0.0841039
0.0841039
0.0841039
0.0841039
0.0841039
0.0841039
0.0841039
0.0841039
0.0841039
0.0841039
0.0841039
0.0841039
0.0841039
0.0841039
0.0841039
0.0841039
0.0841039
0.0841039
0.0841039
0.0841039
0.0841039
0.0841039
0.0841039
0.0841039
0.0841039
0.0841039
0.0841039
0.0841039
0.0841039
0.0841039
0.0841039
0.0841039
0.0841039
0.0841039
0.0841039
0.0841039
0.0841039
0.0841039
0.0841039
0.0841039
0.0841039
0.0841039
0.0841039
0.0841039
0.0841039
0.0841039
0.0841039
0.0841039
0.0841039
0.0841039
0.0841039
0.0841039
0.0841039
0.0841039
0.0841039
0.0841039
0.0841039
0.0841039
0.0841039
0.0841039
0.0841039
0.0841039
0.0841039
0.0841039
0.0841039
0.0841038
0.0841038
0.0841039
0.0841039
0.0841039
0.0841039
0.0841039
0.0841039
0.0841039
0.0841039
0.0841039
0.0841039
0.0841039
0.0841039
0.0841039
0.0841039
0.0841039
0.0841039
0.0841039
0.0841039
0.0841039
0.0841039
0.0841039
0.0841039
0.0841039
0.0841039
0.0841039
0.0841039
0.0841039
0.0841039
0.0841039
0.0841039
0.0841038
0.0841039
0.0841039
0.0841039
0.0841039
0.0841039
0.0841039
0.0841039
0.0841039
0.0841039
0.0841039
0.0841039
0.0841039
0.0841039
0.0841039
0.0841039
0.0841039
0.0841039
0.0841039
0.0841039
0.0841039
0.0841039
0.0841039
0.0841039
0.0841039
0.0841039
0.0841039
0.0841039
0.0841039
0.0841039
0.0841039
0.0841039
0.0841039
0.0841039
0.0841039
0.0841039
0.0841039
0.0841039
0.084104
0.084104
0.084104
0.084104
0.084104
0.084104
0.084104
0.084104
0.0841039
0.0841039
0.0841039
0.0841039
0.0841039
0.0841039
0.0841039
0.0841039
0.0841039
0.0841039
0.0841039
0.0841039
0.0841039
0.0841039
0.0841039
0.0841039
0.0841039
0.0841039
0.0841039
0.0841039
0.084104
0.084104
0.084104
0.084104
0.084104
0.0841041
0.0841041
0.0841042
0.0841042
0.0841042
0.0841042
0.0841042
0.0841042
0.0841042
0.0841042
0.0841039
0.0841039
0.0841039
0.0841039
0.0841039
0.0841039
0.0841039
0.0841039
0.084104
0.084104
0.084104
0.084104
0.084104
0.084104
0.084104
0.084104
0.084104
0.0841041
0.0841041
0.0841041
0.0841042
0.0841043
0.0841045
0.0841048
0.084105
0.0841053
0.0841054
0.0841055
0.0841054
0.0841054
0.0841053
0.0841053
0.084104
0.084104
0.084104
0.084104
0.084104
0.084104
0.084104
0.084104
0.0841041
0.0841041
0.0841041
0.0841041
0.0841042
0.0841042
0.0841042
0.0841042
0.0841043
0.0841044
0.0841044
0.0841045
0.0841047
0.0841051
0.0841056
0.0841065
0.0841074
0.0841083
0.084109
0.0841093
0.0841093
0.084109
0.0841088
0.0841086
0.0841041
0.0841041
0.0841041
0.0841041
0.0841041
0.0841042
0.0841042
0.0841042
0.0841043
0.0841044
0.0841045
0.0841046
0.0841047
0.0841048
0.0841049
0.0841049
0.0841051
0.0841052
0.0841053
0.0841055
0.0841059
0.0841066
0.0841079
0.0841098
0.0841122
0.0841145
0.0841164
0.0841175
0.0841177
0.0841172
0.0841166
0.0841162
0.0841046
0.0841046
0.0841046
0.0841046
0.0841046
0.0841046
0.0841047
0.0841048
0.084105
0.0841052
0.0841054
0.0841056
0.0841059
0.0841061
0.0841063
0.0841065
0.0841067
0.0841069
0.0841071
0.0841074
0.0841079
0.0841091
0.0841112
0.0841145
0.0841188
0.0841233
0.0841271
0.0841296
0.0841305
0.0841301
0.0841291
0.0841284
0.0841056
0.0841056
0.0841055
0.0841055
0.0841055
0.0841056
0.0841058
0.0841061
0.0841065
0.0841069
0.0841074
0.0841078
0.0841082
0.0841087
0.084109
0.0841094
0.0841097
0.08411
0.0841103
0.0841106
0.0841112
0.0841125
0.0841152
0.0841196
0.0841255
0.084132
0.0841378
0.084142
0.0841442
0.0841445
0.0841435
0.0841425
0.0841075
0.0841074
0.0841073
0.0841073
0.0841074
0.0841076
0.084108
0.0841086
0.0841093
0.08411
0.0841108
0.0841116
0.0841123
0.0841129
0.0841135
0.084114
0.0841145
0.0841149
0.0841152
0.0841155
0.084116
0.0841173
0.0841199
0.0841245
0.084131
0.0841384
0.0841456
0.0841514
0.0841551
0.0841566
0.0841562
0.0841553
0.0841106
0.0841105
0.0841103
0.0841103
0.0841105
0.0841111
0.0841119
0.0841129
0.084114
0.0841151
0.0841163
0.0841173
0.0841183
0.0841193
0.0841201
0.0841207
0.0841213
0.0841217
0.084122
0.0841223
0.0841227
0.0841236
0.0841257
0.0841297
0.0841356
0.0841429
0.0841506
0.0841574
0.0841625
0.0841653
0.0841659
0.0841653
0.0841155
0.0841152
0.084115
0.0841151
0.0841157
0.0841167
0.084118
0.0841195
0.0841211
0.0841226
0.0841241
0.0841254
0.0841267
0.0841278
0.0841287
0.0841295
0.0841301
0.0841306
0.0841309
0.0841311
0.0841314
0.0841319
0.0841333
0.0841363
0.0841411
0.0841474
0.0841546
0.0841617
0.0841676
0.0841715
0.0841731
0.084173
0.0841226
0.0841222
0.0841221
0.0841225
0.0841236
0.0841251
0.084127
0.084129
0.0841309
0.0841327
0.0841344
0.0841359
0.0841372
0.0841383
0.0841393
0.0841401
0.0841407
0.0841412
0.0841415
0.0841417
0.0841418
0.0841421
0.084143
0.0841449
0.0841484
0.0841533
0.0841594
0.0841659
0.0841719
0.0841765
0.0841789
0.0841792
0.0841325
0.0841321
0.0841323
0.0841333
0.084135
0.084137
0.0841392
0.0841414
0.0841434
0.0841453
0.0841469
0.0841484
0.0841496
0.0841507
0.0841516
0.0841523
0.0841528
0.0841532
0.0841534
0.0841536
0.0841537
0.0841538
0.0841543
0.0841555
0.0841578
0.0841613
0.0841658
0.0841711
0.0841764
0.084181
0.0841838
0.0841845
0.0841459
0.0841457
0.0841466
0.0841482
0.0841502
0.0841523
0.0841545
0.0841565
0.0841583
0.0841598
0.0841612
0.0841624
0.0841634
0.0841642
0.0841649
0.0841655
0.0841659
0.0841661
0.0841663
0.0841664
0.0841665
0.0841666
0.0841668
0.0841675
0.0841688
0.084171
0.084174
0.0841777
0.0841817
0.0841856
0.0841883
0.0841892
0.0841636
0.0841641
0.0841655
0.0841671
0.0841687
0.0841704
0.0841719
0.0841733
0.0841746
0.0841756
0.0841765
0.0841772
0.0841779
0.0841784
0.0841788
0.0841791
0.0841794
0.0841795
0.0841796
0.0841797
0.0841798
0.0841798
0.0841799
0.0841802
0.0841809
0.084182
0.0841836
0.0841857
0.0841881
0.0841906
0.0841926
0.0841935
0.0841868
0.0841872
0.0841878
0.0841885
0.0841892
0.0841898
0.0841904
0.0841909
0.0841913
0.0841917
0.084192
0.0841922
0.0841924
0.0841926
0.0841927
0.0841928
0.0841929
0.084193
0.084193
0.084193
0.084193
0.0841931
0.0841931
0.0841932
0.0841934
0.0841937
0.0841942
0.0841948
0.0841956
0.0841964
0.0841972
0.0841976
)
;

boundaryField
{
    movingWall
    {
        type            fixedValue;
        value           uniform 0.0842;
    }
    fixedWalls
    {
        type            zeroGradient;
    }
    floor
    {
        type            zeroGradient;
    }
    frontAndBack
    {
        type            empty;
    }
}


// ************************************************************************* //
