/*--------------------------------*- C++ -*----------------------------------*\
| =========                 |                                                 |
| \\      /  F ield         | OpenFOAM: The Open Source CFD Toolbox           |
|  \\    /   O peration     | Version:  2212                                  |
|   \\  /    A nd           | Website:  www.openfoam.com                      |
|    \\/     M anipulation  |                                                 |
\*---------------------------------------------------------------------------*/
FoamFile
{
    version     2.0;
    format      ascii;
    arch        "LSB;label=64;scalar=64";
    class       volVectorField;
    location    "0.74";
    object      U;
}
// * * * * * * * * * * * * * * * * * * * * * * * * * * * * * * * * * * * * * //

dimensions      [0 1 -1 0 0 0 0];

internalField   nonuniform List<vector> 
32768
(
(3.16975e-07 -1.01716e-06 0)
(-9.22297e-07 -5.58091e-07 0)
(-4.59488e-06 4.83209e-07 0)
(-1.01771e-05 1.31112e-06 0)
(-1.67423e-05 1.71669e-06 0)
(-2.34426e-05 1.77428e-06 0)
(-2.97398e-05 1.64414e-06 0)
(-3.54271e-05 1.46375e-06 0)
(-4.05275e-05 1.31176e-06 0)
(-4.5169e-05 1.21414e-06 0)
(-4.94929e-05 1.1654e-06 0)
(-5.36098e-05 1.14848e-06 0)
(-5.75889e-05 1.14668e-06 0)
(-6.14649e-05 1.14833e-06 0)
(-6.52496e-05 1.14699e-06 0)
(-6.89417e-05 1.13997e-06 0)
(-7.2534e-05 1.12671e-06 0)
(-7.6017e-05 1.10763e-06 0)
(-7.93807e-05 1.08341e-06 0)
(-8.26155e-05 1.05475e-06 0)
(-8.57121e-05 1.02219e-06 0)
(-8.86617e-05 9.8613e-07 0)
(-9.14559e-05 9.46876e-07 0)
(-9.40868e-05 9.04629e-07 0)
(-9.65463e-05 8.59534e-07 0)
(-9.88268e-05 8.11696e-07 0)
(-0.000100921 7.61204e-07 0)
(-0.000102821 7.08143e-07 0)
(-0.00010452 6.52615e-07 0)
(-0.000106012 5.94766e-07 0)
(-0.000107288 5.34811e-07 0)
(-0.000108344 4.73057e-07 0)
(-0.000109173 4.09893e-07 0)
(-0.00010977 3.45773e-07 0)
(-0.000110132 2.81247e-07 0)
(-0.000110253 2.16154e-07 0)
(-0.000110131 1.48557e-07 0)
(-0.000109764 7.84761e-08 0)
(-0.000109148 6.5039e-09 0)
(-0.000108281 -6.69007e-08 0)
(-0.000107163 -1.414e-07 0)
(-0.000105792 -2.16704e-07 0)
(-0.000104168 -2.92537e-07 0)
(-0.000102293 -3.68621e-07 0)
(-0.000100167 -4.44665e-07 0)
(-9.77939e-05 -5.20361e-07 0)
(-9.51762e-05 -5.95386e-07 0)
(-9.23185e-05 -6.69401e-07 0)
(-8.92262e-05 -7.42056e-07 0)
(-8.59057e-05 -8.12988e-07 0)
(-8.23645e-05 -8.81827e-07 0)
(-7.86112e-05 -9.48201e-07 0)
(-7.46555e-05 -1.01174e-06 0)
(-7.05079e-05 -1.07208e-06 0)
(-6.61802e-05 -1.12886e-06 0)
(-6.1685e-05 -1.18176e-06 0)
(-5.70359e-05 -1.23043e-06 0)
(-5.22475e-05 -1.27456e-06 0)
(-4.73349e-05 -1.31379e-06 0)
(-4.23144e-05 -1.3478e-06 0)
(-3.72028e-05 -1.3762e-06 0)
(-3.20179e-05 -1.39866e-06 0)
(-2.67778e-05 -1.41488e-06 0)
(-2.15013e-05 -1.42464e-06 0)
(-1.6207e-05 -1.42787e-06 0)
(-1.09134e-05 -1.42474e-06 0)
(-5.63856e-06 -1.41569e-06 0)
(-3.99287e-07 -1.4014e-06 0)
(4.78818e-06 -1.38286e-06 0)
(9.90761e-06 -1.3602e-06 0)
(1.49462e-05 -1.3331e-06 0)
(1.98897e-05 -1.30175e-06 0)
(2.47246e-05 -1.26627e-06 0)
(2.94379e-05 -1.2268e-06 0)
(3.40168e-05 -1.18353e-06 0)
(3.84493e-05 -1.13672e-06 0)
(4.2724e-05 -1.0866e-06 0)
(4.683e-05 -1.03347e-06 0)
(5.07574e-05 -9.77613e-07 0)
(5.44972e-05 -9.19353e-07 0)
(5.80409e-05 -8.59e-07 0)
(6.13812e-05 -7.96861e-07 0)
(6.45114e-05 -7.33235e-07 0)
(6.74258e-05 -6.68408e-07 0)
(7.01193e-05 -6.02649e-07 0)
(7.25878e-05 -5.36204e-07 0)
(7.48277e-05 -4.69294e-07 0)
(7.68363e-05 -4.02122e-07 0)
(7.86114e-05 -3.3488e-07 0)
(8.01514e-05 -2.67764e-07 0)
(8.14554e-05 -2.01004e-07 0)
(8.25232e-05 -1.34886e-07 0)
(8.33553e-05 -6.97927e-08 0)
(8.39528e-05 -6.21167e-09 0)
(8.43181e-05 5.53443e-08 0)
(8.44545e-05 1.14519e-07 0)
(8.43672e-05 1.71327e-07 0)
(8.40605e-05 2.26689e-07 0)
(8.35406e-05 2.80436e-07 0)
(8.28141e-05 3.32291e-07 0)
(8.18877e-05 3.8203e-07 0)
(8.07684e-05 4.29498e-07 0)
(7.94631e-05 4.74598e-07 0)
(7.7979e-05 5.17263e-07 0)
(7.63232e-05 5.57421e-07 0)
(7.45029e-05 5.94978e-07 0)
(7.25255e-05 6.29791e-07 0)
(7.03985e-05 6.61654e-07 0)
(6.81298e-05 6.90263e-07 0)
(6.57274e-05 7.15196e-07 0)
(6.32002e-05 7.35888e-07 0)
(6.05573e-05 7.51639e-07 0)
(5.78082e-05 7.61729e-07 0)
(5.4962e-05 7.65733e-07 0)
(5.20254e-05 7.64208e-07 0)
(4.89992e-05 7.59895e-07 0)
(4.58708e-05 7.59376e-07 0)
(4.26043e-05 7.74611e-07 0)
(3.91285e-05 8.22761e-07 0)
(3.53294e-05 9.21579e-07 0)
(3.10609e-05 1.07742e-06 0)
(2.61883e-05 1.26548e-06 0)
(2.06795e-05 1.40867e-06 0)
(1.47294e-05 1.37215e-06 0)
(8.85802e-06 1.00051e-06 0)
(3.88435e-06 2.28934e-07 0)
(6.90002e-07 -7.16865e-07 0)
(-3.0775e-07 -1.03162e-06 0)
(-2.69311e-07 2.33268e-06 0)
(-5.39929e-06 1.08498e-05 0)
(-1.51567e-05 1.88285e-05 0)
(-2.78806e-05 2.39212e-05 0)
(-4.17384e-05 2.57172e-05 0)
(-5.52928e-05 2.50198e-05 0)
(-6.77119e-05 2.30248e-05 0)
(-7.87268e-05 2.07385e-05 0)
(-8.84438e-05 1.87488e-05 0)
(-9.71355e-05 1.7259e-05 0)
(-0.00010509 1.62341e-05 0)
(-0.000112536 1.55421e-05 0)
(-0.000119627 1.50455e-05 0)
(-0.000126449 1.46394e-05 0)
(-0.000133043 1.42579e-05 0)
(-0.000139423 1.38654e-05 0)
(-0.000145589 1.34452e-05 0)
(-0.000151531 1.29914e-05 0)
(-0.000157238 1.25028e-05 0)
(-0.000162699 1.198e-05 0)
(-0.000167899 1.14243e-05 0)
(-0.000172826 1.0837e-05 0)
(-0.000177468 1.0219e-05 0)
(-0.000181812 9.57135e-06 0)
(-0.000185845 8.89463e-06 0)
(-0.000189556 8.18947e-06 0)
(-0.000192932 7.45642e-06 0)
(-0.000195963 6.69607e-06 0)
(-0.000198636 5.90907e-06 0)
(-0.000200941 5.09625e-06 0)
(-0.000202867 4.25874e-06 0)
(-0.000204403 3.39812e-06 0)
(-0.00020554 2.51649e-06 0)
(-0.000206268 1.61648e-06 0)
(-0.000206579 7.00979e-07 0)
(-0.000206465 -2.2753e-07 0)
(-0.000205921 -1.16765e-06 0)
(-0.000204943 -2.11704e-06 0)
(-0.000203528 -3.0734e-06 0)
(-0.000201674 -4.03461e-06 0)
(-0.000199379 -4.99854e-06 0)
(-0.000196643 -5.96285e-06 0)
(-0.000193465 -6.9249e-06 0)
(-0.000189849 -7.88179e-06 0)
(-0.000185796 -8.83031e-06 0)
(-0.000181311 -9.76705e-06 0)
(-0.0001764 -1.06884e-05 0)
(-0.000171071 -1.15905e-05 0)
(-0.000165334 -1.24696e-05 0)
(-0.0001592 -1.33217e-05 0)
(-0.000152682 -1.41428e-05 0)
(-0.000145796 -1.49289e-05 0)
(-0.000138558 -1.5676e-05 0)
(-0.000130988 -1.63803e-05 0)
(-0.000123105 -1.70382e-05 0)
(-0.000114933 -1.76459e-05 0)
(-0.000106495 -1.82002e-05 0)
(-9.7816e-05 -1.86978e-05 0)
(-8.89236e-05 -1.91357e-05 0)
(-7.98455e-05 -1.95107e-05 0)
(-7.06108e-05 -1.98204e-05 0)
(-6.12494e-05 -2.00622e-05 0)
(-5.17918e-05 -2.02347e-05 0)
(-4.22684e-05 -2.03369e-05 0)
(-3.27098e-05 -2.03692e-05 0)
(-2.31457e-05 -2.03328e-05 0)
(-1.36051e-05 -2.023e-05 0)
(-4.1161e-06 -2.00637e-05 0)
(5.29674e-06 -1.98372e-05 0)
(1.45984e-05 -1.95544e-05 0)
(2.37698e-05 -1.92182e-05 0)
(3.27862e-05 -1.88305e-05 0)
(4.16242e-05 -1.83924e-05 0)
(5.02613e-05 -1.79053e-05 0)
(5.86757e-05 -1.7371e-05 0)
(6.68463e-05 -1.67919e-05 0)
(7.47533e-05 -1.61705e-05 0)
(8.23778e-05 -1.55095e-05 0)
(8.97021e-05 -1.4812e-05 0)
(9.67101e-05 -1.40809e-05 0)
(0.000103387 -1.33195e-05 0)
(0.000109718 -1.25309e-05 0)
(0.000115692 -1.17183e-05 0)
(0.000121299 -1.08846e-05 0)
(0.000126527 -1.00329e-05 0)
(0.000131369 -9.16598e-06 0)
(0.000135818 -8.28649e-06 0)
(0.000139867 -7.39694e-06 0)
(0.000143513 -6.49973e-06 0)
(0.000146751 -5.5972e-06 0)
(0.000149579 -4.69175e-06 0)
(0.000151996 -3.78592e-06 0)
(0.000154001 -2.88251e-06 0)
(0.000155596 -1.98472e-06 0)
(0.000156783 -1.0962e-06 0)
(0.000157565 -2.20963e-07 0)
(0.000157949 6.36695e-07 0)
(0.000157941 1.47229e-06 0)
(0.00015755 2.28355e-06 0)
(0.000156788 3.0694e-06 0)
(0.000155668 3.82911e-06 0)
(0.000154198 4.56232e-06 0)
(0.000152392 5.26882e-06 0)
(0.000150261 5.94851e-06 0)
(0.000147815 6.60119e-06 0)
(0.000145066 7.22657e-06 0)
(0.000142025 7.82413e-06 0)
(0.000138704 8.39312e-06 0)
(0.000135115 8.93252e-06 0)
(0.000131269 9.44108e-06 0)
(0.000127178 9.91744e-06 0)
(0.000122854 1.03608e-05 0)
(0.000118307 1.07722e-05 0)
(0.000113545 1.11576e-05 0)
(0.000108568 1.15338e-05 0)
(0.000103361 1.19371e-05 0)
(9.78808e-05 1.24346e-05 0)
(9.20386e-05 1.31336e-05 0)
(8.56779e-05 1.41754e-05 0)
(7.85634e-05 1.56969e-05 0)
(7.03978e-05 1.77395e-05 0)
(6.08969e-05 2.01067e-05 0)
(4.99395e-05 2.22199e-05 0)
(3.77753e-05 2.30873e-05 0)
(2.52097e-05 2.15399e-05 0)
(1.36352e-05 1.68267e-05 0)
(4.80225e-06 9.45906e-06 0)
(2.34107e-07 1.89243e-06 0)
(-3.89671e-07 9.20582e-06 0)
(-6.48579e-06 2.89795e-05 0)
(-1.7335e-05 4.46677e-05 0)
(-3.09091e-05 5.35183e-05 0)
(-4.51422e-05 5.55906e-05 0)
(-5.8543e-05 5.28184e-05 0)
(-7.0324e-05 4.7673e-05 0)
(-8.02998e-05 4.21605e-05 0)
(-8.86687e-05 3.74305e-05 0)
(-9.57883e-05 3.38647e-05 0)
(-0.000102019 3.13694e-05 0)
(-0.000107645 2.96578e-05 0)
(-0.000112863 2.84318e-05 0)
(-0.00011779 2.74606e-05 0)
(-0.00012249 2.65942e-05 0)
(-0.000126994 2.57467e-05 0)
(-0.000131313 2.48744e-05 0)
(-0.000135449 2.39573e-05 0)
(-0.000139398 2.29877e-05 0)
(-0.000143156 2.19635e-05 0)
(-0.000146716 2.08847e-05 0)
(-0.00015007 1.97522e-05 0)
(-0.000153211 1.8567e-05 0)
(-0.000156133 1.73304e-05 0)
(-0.000158829 1.60431e-05 0)
(-0.00016129 1.47063e-05 0)
(-0.00016351 1.33208e-05 0)
(-0.000165484 1.18879e-05 0)
(-0.000167203 1.04086e-05 0)
(-0.000168662 8.88425e-06 0)
(-0.000169855 7.31646e-06 0)
(-0.000170777 5.70721e-06 0)
(-0.000171421 4.05907e-06 0)
(-0.000171783 2.37541e-06 0)
(-0.000171856 6.60481e-07 0)
(-0.000171634 -1.08055e-06 0)
(-0.000171115 -2.84155e-06 0)
(-0.000170293 -4.6184e-06 0)
(-0.000169166 -6.40814e-06 0)
(-0.000167729 -8.20768e-06 0)
(-0.000165979 -1.00134e-05 0)
(-0.000163915 -1.18211e-05 0)
(-0.000161536 -1.36259e-05 0)
(-0.00015884 -1.54221e-05 0)
(-0.000155829 -1.72038e-05 0)
(-0.000152506 -1.89644e-05 0)
(-0.000148872 -2.06971e-05 0)
(-0.000144933 -2.23947e-05 0)
(-0.000140694 -2.40496e-05 0)
(-0.000136163 -2.56544e-05 0)
(-0.000131349 -2.72015e-05 0)
(-0.000126261 -2.8683e-05 0)
(-0.000120913 -3.00914e-05 0)
(-0.000115316 -3.14192e-05 0)
(-0.000109486 -3.26592e-05 0)
(-0.00010344 -3.38046e-05 0)
(-9.71938e-05 -3.48487e-05 0)
(-9.07672e-05 -3.57857e-05 0)
(-8.41798e-05 -3.66099e-05 0)
(-7.74518e-05 -3.73166e-05 0)
(-7.06043e-05 -3.79017e-05 0)
(-6.36581e-05 -3.83623e-05 0)
(-5.66337e-05 -3.86967e-05 0)
(-4.95513e-05 -3.89049e-05 0)
(-4.24303e-05 -3.89883e-05 0)
(-3.52894e-05 -3.89496e-05 0)
(-2.81466e-05 -3.87923e-05 0)
(-2.10194e-05 -3.85205e-05 0)
(-1.39249e-05 -3.81382e-05 0)
(-6.87991e-06 -3.76504e-05 0)
(9.95225e-08 -3.70618e-05 0)
(6.9943e-06 -3.6376e-05 0)
(1.37864e-05 -3.55961e-05 0)
(2.04613e-05 -3.47248e-05 0)
(2.70031e-05 -3.37656e-05 0)
(3.33968e-05 -3.27225e-05 0)
(3.96281e-05 -3.16001e-05 0)
(4.56834e-05 -3.04031e-05 0)
(5.15497e-05 -2.91368e-05 0)
(5.72149e-05 -2.78067e-05 0)
(6.26677e-05 -2.64185e-05 0)
(6.78979e-05 -2.49777e-05 0)
(7.28957e-05 -2.34899e-05 0)
(7.76524e-05 -2.19605e-05 0)
(8.21602e-05 -2.0395e-05 0)
(8.6412e-05 -1.87985e-05 0)
(9.04016e-05 -1.71761e-05 0)
(9.41237e-05 -1.55327e-05 0)
(9.75739e-05 -1.3873e-05 0)
(0.000100749 -1.22017e-05 0)
(0.000103646 -1.05236e-05 0)
(0.000106265 -8.84381e-06 0)
(0.000108604 -7.16731e-06 0)
(0.000110666 -5.4995e-06 0)
(0.000112452 -3.84602e-06 0)
(0.000113965 -2.21297e-06 0)
(0.000115207 -6.07128e-07 0)
(0.000116182 9.63814e-07 0)
(0.000116892 2.4937e-06 0)
(0.000117341 3.97858e-06 0)
(0.000117536 5.41691e-06 0)
(0.000117482 6.80869e-06 0)
(0.000117186 8.15395e-06 0)
(0.000116654 9.45265e-06 0)
(0.000115892 1.07046e-05 0)
(0.000114906 1.19096e-05 0)
(0.000113701 1.3067e-05 0)
(0.000112285 1.41759e-05 0)
(0.000110662 1.52355e-05 0)
(0.00010884 1.62448e-05 0)
(0.000106823 1.72036e-05 0)
(0.000104615 1.81137e-05 0)
(0.00010222 1.89827e-05 0)
(9.96335e-05 1.98304e-05 0)
(9.68441e-05 2.07012e-05 0)
(9.38198e-05 2.16822e-05 0)
(9.04949e-05 2.29265e-05 0)
(8.67487e-05 2.46698e-05 0)
(8.23819e-05 2.72181e-05 0)
(7.71019e-05 3.08684e-05 0)
(7.05392e-05 3.57265e-05 0)
(6.23235e-05 4.14241e-05 0)
(5.22408e-05 4.68279e-05 0)
(4.04568e-05 4.99582e-05 0)
(2.77314e-05 4.8395e-05 0)
(1.55072e-05 4.03096e-05 0)
(5.75406e-06 2.58546e-05 0)
(3.42208e-07 8.07336e-06 0)
(-3.12372e-07 1.53646e-05 0)
(-5.7376e-06 4.54895e-05 0)
(-1.54559e-05 6.7975e-05 0)
(-2.74428e-05 7.96219e-05 0)
(-3.9676e-05 8.1072e-05 0)
(-5.07362e-05 7.54794e-05 0)
(-5.99247e-05 6.66231e-05 0)
(-6.71414e-05 5.74974e-05 0)
(-7.26533e-05 4.97839e-05 0)
(-7.68688e-05 4.40097e-05 0)
(-8.0183e-05 3.99939e-05 0)
(-8.29058e-05 3.72736e-05 0)
(-8.52494e-05 3.53747e-05 0)
(-8.73452e-05 3.39305e-05 0)
(-8.92679e-05 3.26998e-05 0)
(-9.10577e-05 3.15424e-05 0)
(-9.2735e-05 3.03842e-05 0)
(-9.43098e-05 2.91896e-05 0)
(-9.57869e-05 2.79429e-05 0)
(-9.71682e-05 2.66382e-05 0)
(-9.84544e-05 2.52736e-05 0)
(-9.96455e-05 2.38491e-05 0)
(-0.000100741 2.23653e-05 0)
(-0.00010174 2.08231e-05 0)
(-0.000102643 1.92234e-05 0)
(-0.000103447 1.75673e-05 0)
(-0.000104152 1.58561e-05 0)
(-0.000104757 1.40913e-05 0)
(-0.000105261 1.22746e-05 0)
(-0.000105664 1.04076e-05 0)
(-0.000105965 8.49241e-06 0)
(-0.000106162 6.53113e-06 0)
(-0.000106257 4.52616e-06 0)
(-0.000106247 2.48033e-06 0)
(-0.000106131 3.97171e-07 0)
(-0.000105909 -1.71871e-06 0)
(-0.000105576 -3.86287e-06 0)
(-0.000105129 -6.03183e-06 0)
(-0.000104563 -8.22211e-06 0)
(-0.000103876 -1.04297e-05 0)
(-0.000103065 -1.26497e-05 0)
(-0.000102126 -1.48765e-05 0)
(-0.000101058 -1.7104e-05 0)
(-9.98587e-05 -1.93251e-05 0)
(-9.85267e-05 -2.1532e-05 0)
(-9.70612e-05 -2.37167e-05 0)
(-9.54617e-05 -2.58704e-05 0)
(-9.37286e-05 -2.7984e-05 0)
(-9.18627e-05 -3.00479e-05 0)
(-8.98658e-05 -3.20524e-05 0)
(-8.77404e-05 -3.39877e-05 0)
(-8.54897e-05 -3.58436e-05 0)
(-8.3118e-05 -3.76102e-05 0)
(-8.06303e-05 -3.92777e-05 0)
(-7.80327e-05 -4.08365e-05 0)
(-7.5332e-05 -4.22776e-05 0)
(-7.25357e-05 -4.35925e-05 0)
(-6.96521e-05 -4.47737e-05 0)
(-6.66898e-05 -4.58147e-05 0)
(-6.36574e-05 -4.67104e-05 0)
(-6.05632e-05 -4.74571e-05 0)
(-5.74148e-05 -4.8053e-05 0)
(-5.42187e-05 -4.84981e-05 0)
(-5.09804e-05 -4.87941e-05 0)
(-4.77045e-05 -4.89441e-05 0)
(-4.43948e-05 -4.89522e-05 0)
(-4.10546e-05 -4.88226e-05 0)
(-3.76872e-05 -4.85597e-05 0)
(-3.42966e-05 -4.81674e-05 0)
(-3.08872e-05 -4.76494e-05 0)
(-2.74642e-05 -4.70085e-05 0)
(-2.40333e-05 -4.62479e-05 0)
(-2.06005e-05 -4.53711e-05 0)
(-1.71719e-05 -4.4382e-05 0)
(-1.37539e-05 -4.32847e-05 0)
(-1.03528e-05 -4.20838e-05 0)
(-6.97454e-06 -4.07846e-05 0)
(-3.62518e-06 -3.93925e-05 0)
(-3.10591e-07 -3.79136e-05 0)
(2.96384e-06 -3.63539e-05 0)
(6.19151e-06 -3.47206e-05 0)
(9.36732e-06 -3.30201e-05 0)
(1.24859e-05 -3.12587e-05 0)
(1.55422e-05 -2.9443e-05 0)
(1.8531e-05 -2.75793e-05 0)
(2.14476e-05 -2.56737e-05 0)
(2.42874e-05 -2.37325e-05 0)
(2.70462e-05 -2.17618e-05 0)
(2.97201e-05 -1.97676e-05 0)
(3.23058e-05 -1.77566e-05 0)
(3.48004e-05 -1.57352e-05 0)
(3.72021e-05 -1.37106e-05 0)
(3.95096e-05 -1.16898e-05 0)
(4.17224e-05 -9.6801e-06 0)
(4.38409e-05 -7.6884e-06 0)
(4.58657e-05 -5.72123e-06 0)
(4.77975e-05 -3.78426e-06 0)
(4.96368e-05 -1.88205e-06 0)
(5.13856e-05 -2.00151e-08 0)
(5.30399e-05 1.79676e-06 0)
(5.45954e-05 3.56466e-06 0)
(5.60532e-05 5.28186e-06 0)
(5.74126e-05 6.9478e-06 0)
(5.86732e-05 8.56243e-06 0)
(5.98345e-05 1.01257e-05 0)
(6.08964e-05 1.16373e-05 0)
(6.18581e-05 1.30969e-05 0)
(6.27193e-05 1.45037e-05 0)
(6.3479e-05 1.58573e-05 0)
(6.41362e-05 1.71576e-05 0)
(6.46889e-05 1.84061e-05 0)
(6.51341e-05 1.96083e-05 0)
(6.54664e-05 2.07796e-05 0)
(6.56747e-05 2.19555e-05 0)
(6.5738e-05 2.32107e-05 0)
(6.5615e-05 2.46879e-05 0)
(6.52293e-05 2.66324e-05 0)
(6.44471e-05 2.94191e-05 0)
(6.30524e-05 3.35334e-05 0)
(6.07287e-05 3.9454e-05 0)
(5.70722e-05 4.73795e-05 0)
(5.16629e-05 5.68023e-05 0)
(4.4219e-05 6.60643e-05 0)
(3.48222e-05 7.22105e-05 0)
(2.41441e-05 7.15404e-05 0)
(1.35538e-05 6.10638e-05 0)
(4.97332e-06 4.04751e-05 0)
(2.62109e-07 1.3466e-05 0)
(-2.49877e-07 2.06304e-05 0)
(-5.11144e-06 5.98787e-05 0)
(-1.38928e-05 8.82392e-05 0)
(-2.46306e-05 0.000101933 0)
(-3.53637e-05 0.000102173 0)
(-4.47321e-05 9.33419e-05 0)
(-5.20979e-05 8.05154e-05 0)
(-5.74168e-05 6.76453e-05 0)
(-6.09999e-05 5.69081e-05 0)
(-6.32859e-05 4.89438e-05 0)
(-6.46887e-05 4.34621e-05 0)
(-6.55294e-05 3.98099e-05 0)
(-6.60271e-05 3.73308e-05 0)
(-6.63177e-05 3.55191e-05 0)
(-6.64801e-05 3.40422e-05 0)
(-6.65583e-05 3.2705e-05 0)
(-6.65768e-05 3.14036e-05 0)
(-6.65499e-05 3.00864e-05 0)
(-6.64862e-05 2.87301e-05 0)
(-6.63923e-05 2.73243e-05 0)
(-6.62729e-05 2.58651e-05 0)
(-6.61321e-05 2.43512e-05 0)
(-6.59734e-05 2.27822e-05 0)
(-6.57998e-05 2.11585e-05 0)
(-6.56141e-05 1.94805e-05 0)
(-6.54188e-05 1.7749e-05 0)
(-6.52161e-05 1.5965e-05 0)
(-6.50078e-05 1.41299e-05 0)
(-6.47958e-05 1.22452e-05 0)
(-6.45817e-05 1.03126e-05 0)
(-6.43669e-05 8.33396e-06 0)
(-6.41525e-05 6.31127e-06 0)
(-6.39395e-05 4.24647e-06 0)
(-6.37285e-05 2.14155e-06 0)
(-6.35189e-05 -1.4124e-09 0)
(-6.3312e-05 -2.18006e-06 0)
(-6.31048e-05 -4.39229e-06 0)
(-6.28952e-05 -6.63531e-06 0)
(-6.26811e-05 -8.90538e-06 0)
(-6.24606e-05 -1.11981e-05 0)
(-6.22313e-05 -1.35083e-05 0)
(-6.19912e-05 -1.58302e-05 0)
(-6.17379e-05 -1.81574e-05 0)
(-6.14691e-05 -2.04826e-05 0)
(-6.11822e-05 -2.27978e-05 0)
(-6.08748e-05 -2.50945e-05 0)
(-6.05446e-05 -2.73634e-05 0)
(-6.01893e-05 -2.95948e-05 0)
(-5.9807e-05 -3.17783e-05 0)
(-5.93957e-05 -3.39034e-05 0)
(-5.89542e-05 -3.59589e-05 0)
(-5.84815e-05 -3.7934e-05 0)
(-5.79769e-05 -3.98173e-05 0)
(-5.74404e-05 -4.15979e-05 0)
(-5.68724e-05 -4.3265e-05 0)
(-5.62738e-05 -4.48084e-05 0)
(-5.56457e-05 -4.6219e-05 0)
(-5.49898e-05 -4.74887e-05 0)
(-5.43073e-05 -4.86112e-05 0)
(-5.35993e-05 -4.95823e-05 0)
(-5.28662e-05 -5.03999e-05 0)
(-5.2107e-05 -5.10646e-05 0)
(-5.13197e-05 -5.15788e-05 0)
(-5.05008e-05 -5.19466e-05 0)
(-4.96456e-05 -5.2173e-05 0)
(-4.87488e-05 -5.22629e-05 0)
(-4.78049e-05 -5.22206e-05 0)
(-4.68084e-05 -5.20496e-05 0)
(-4.57551e-05 -5.17521e-05 0)
(-4.46412e-05 -5.133e-05 0)
(-4.34643e-05 -5.07847e-05 0)
(-4.22227e-05 -5.01179e-05 0)
(-4.09155e-05 -4.93319e-05 0)
(-3.95426e-05 -4.84296e-05 0)
(-3.81042e-05 -4.74146e-05 0)
(-3.66009e-05 -4.62912e-05 0)
(-3.50339e-05 -4.50643e-05 0)
(-3.34043e-05 -4.3739e-05 0)
(-3.17137e-05 -4.2321e-05 0)
(-2.99641e-05 -4.08162e-05 0)
(-2.81575e-05 -3.92308e-05 0)
(-2.62965e-05 -3.75709e-05 0)
(-2.43839e-05 -3.5843e-05 0)
(-2.24227e-05 -3.40531e-05 0)
(-2.04164e-05 -3.22075e-05 0)
(-1.83684e-05 -3.03121e-05 0)
(-1.62823e-05 -2.83732e-05 0)
(-1.4162e-05 -2.6397e-05 0)
(-1.20112e-05 -2.439e-05 0)
(-9.83362e-06 -2.23594e-05 0)
(-7.63261e-06 -2.03126e-05 0)
(-5.41128e-06 -1.82576e-05 0)
(-3.17231e-06 -1.62028e-05 0)
(-9.17946e-07 -1.41564e-05 0)
(1.35012e-06 -1.21261e-05 0)
(3.6301e-06 -1.01193e-05 0)
(5.92029e-06 -8.14199e-06 0)
(8.21927e-06 -6.19813e-06 0)
(1.05254e-05 -4.29046e-06 0)
(1.28366e-05 -2.42108e-06 0)
(1.51511e-05 -5.92275e-07 0)
(1.74629e-05 1.19323e-06 0)
(1.97678e-05 2.93393e-06 0)
(2.20614e-05 4.62913e-06 0)
(2.43399e-05 6.27889e-06 0)
(2.6599e-05 7.88321e-06 0)
(2.88344e-05 9.44201e-06 0)
(3.10415e-05 1.09552e-05 0)
(3.32154e-05 1.24229e-05 0)
(3.53506e-05 1.38461e-05 0)
(3.74414e-05 1.52283e-05 0)
(3.94803e-05 1.65788e-05 0)
(4.14576e-05 1.79207e-05 0)
(4.33584e-05 1.93053e-05 0)
(4.51576e-05 2.08374e-05 0)
(4.68104e-05 2.27149e-05 0)
(4.82365e-05 2.52762e-05 0)
(4.92981e-05 2.90372e-05 0)
(4.97728e-05 3.46695e-05 0)
(4.93343e-05 4.28462e-05 0)
(4.75609e-05 5.38809e-05 0)
(4.4004e-05 6.71583e-05 0)
(3.83395e-05 8.05332e-05 0)
(3.05954e-05 9.01054e-05 0)
(2.13842e-05 9.09069e-05 0)
(1.20176e-05 7.87799e-05 0)
(4.35694e-06 5.29754e-05 0)
(2.0047e-07 1.79668e-05 0)
(-2.40072e-07 2.55157e-05 0)
(-4.97671e-06 7.33691e-05 0)
(-1.35239e-05 0.000107189 0)
(-2.39025e-05 0.000122563 0)
(-3.41439e-05 0.000121277 0)
(-4.2895e-05 0.000108966 0)
(-4.95416e-05 9.2009e-05 0)
(-5.40711e-05 7.53107e-05 0)
(-5.68257e-05 6.15249e-05 0)
(-5.82687e-05 5.13857e-05 0)
(-5.88311e-05 4.44771e-05 0)
(-5.88445e-05 3.99452e-05 0)
(-5.85337e-05 3.69454e-05 0)
(-5.8038e-05 3.48303e-05 0)
(-5.74381e-05 3.31749e-05 0)
(-5.67798e-05 3.17299e-05 0)
(-5.60886e-05 3.03614e-05 0)
(-5.53803e-05 2.90026e-05 0)
(-5.46652e-05 2.76222e-05 0)
(-5.39512e-05 2.62061e-05 0)
(-5.32448e-05 2.47479e-05 0)
(-5.25515e-05 2.32449e-05 0)
(-5.18763e-05 2.16958e-05 0)
(-5.12237e-05 2.00999e-05 0)
(-5.05978e-05 1.84569e-05 0)
(-5.0002e-05 1.67668e-05 0)
(-4.94396e-05 1.50299e-05 0)
(-4.89132e-05 1.3247e-05 0)
(-4.84251e-05 1.14187e-05 0)
(-4.79771e-05 9.54613e-06 0)
(-4.75707e-05 7.63057e-06 0)
(-4.72068e-05 5.67325e-06 0)
(-4.68861e-05 3.67541e-06 0)
(-4.66085e-05 1.63823e-06 0)
(-4.63738e-05 -4.37231e-07 0)
(-4.6182e-05 -2.55007e-06 0)
(-4.60316e-05 -4.69871e-06 0)
(-4.59217e-05 -6.88058e-06 0)
(-4.58511e-05 -9.09227e-06 0)
(-4.58184e-05 -1.13297e-05 0)
(-4.58218e-05 -1.35884e-05 0)
(-4.58592e-05 -1.58629e-05 0)
(-4.59283e-05 -1.81474e-05 0)
(-4.60264e-05 -2.04351e-05 0)
(-4.61503e-05 -2.27185e-05 0)
(-4.6297e-05 -2.49892e-05 0)
(-4.6463e-05 -2.72382e-05 0)
(-4.66449e-05 -2.94555e-05 0)
(-4.68394e-05 -3.16308e-05 0)
(-4.70433e-05 -3.3753e-05 0)
(-4.72535e-05 -3.58107e-05 0)
(-4.74671e-05 -3.77923e-05 0)
(-4.76818e-05 -3.96858e-05 0)
(-4.78955e-05 -4.14796e-05 0)
(-4.81063e-05 -4.31623e-05 0)
(-4.83129e-05 -4.4723e-05 0)
(-4.85142e-05 -4.61522e-05 0)
(-4.8709e-05 -4.7442e-05 0)
(-4.88963e-05 -4.85868e-05 0)
(-4.90741e-05 -4.95836e-05 0)
(-4.92401e-05 -5.04325e-05 0)
(-4.93903e-05 -5.11365e-05 0)
(-4.95197e-05 -5.1701e-05 0)
(-4.96216e-05 -5.21327e-05 0)
(-4.96881e-05 -5.24384e-05 0)
(-4.97107e-05 -5.2624e-05 0)
(-4.96805e-05 -5.26937e-05 0)
(-4.95892e-05 -5.26496e-05 0)
(-4.94289e-05 -5.24923e-05 0)
(-4.91932e-05 -5.22214e-05 0)
(-4.88765e-05 -5.18362e-05 0)
(-4.84743e-05 -5.13365e-05 0)
(-4.79833e-05 -5.07228e-05 0)
(-4.74007e-05 -4.99966e-05 0)
(-4.67246e-05 -4.91604e-05 0)
(-4.59536e-05 -4.82175e-05 0)
(-4.50868e-05 -4.71716e-05 0)
(-4.41237e-05 -4.60272e-05 0)
(-4.30643e-05 -4.47891e-05 0)
(-4.1909e-05 -4.34624e-05 0)
(-4.06586e-05 -4.20523e-05 0)
(-3.93145e-05 -4.05643e-05 0)
(-3.78782e-05 -3.90037e-05 0)
(-3.6352e-05 -3.73761e-05 0)
(-3.47382e-05 -3.56868e-05 0)
(-3.30397e-05 -3.39413e-05 0)
(-3.12595e-05 -3.21452e-05 0)
(-2.94011e-05 -3.03044e-05 0)
(-2.74679e-05 -2.84254e-05 0)
(-2.54635e-05 -2.65153e-05 0)
(-2.33911e-05 -2.45819e-05 0)
(-2.12543e-05 -2.26336e-05 0)
(-1.9056e-05 -2.06794e-05 0)
(-1.67992e-05 -1.87281e-05 0)
(-1.44864e-05 -1.6788e-05 0)
(-1.21202e-05 -1.48664e-05 0)
(-9.7031e-06 -1.29693e-05 0)
(-7.23775e-06 -1.11008e-05 0)
(-4.72683e-06 -9.26399e-06 0)
(-2.17333e-06 -7.46034e-06 0)
(4.19634e-07 -5.69054e-06 0)
(3.04793e-06 -3.95496e-06 0)
(5.70722e-06 -2.25379e-06 0)
(8.39307e-06 -5.86876e-07 0)
(1.10993e-05 1.04539e-06 0)
(1.38203e-05 2.64311e-06 0)
(1.65499e-05 4.20639e-06 0)
(1.9282e-05 5.73598e-06 0)
(2.20098e-05 7.23289e-06 0)
(2.47265e-05 8.69922e-06 0)
(2.74245e-05 1.01403e-05 0)
(3.00949e-05 1.15692e-05 0)
(3.27266e-05 1.30164e-05 0)
(3.53033e-05 1.45484e-05 0)
(3.77986e-05 1.62999e-05 0)
(4.01665e-05 1.85233e-05 0)
(4.23251e-05 2.16507e-05 0)
(4.41339e-05 2.63414e-05 0)
(4.53653e-05 3.34585e-05 0)
(4.56835e-05 4.38796e-05 0)
(4.46515e-05 5.80483e-05 0)
(4.17975e-05 7.52608e-05 0)
(3.67689e-05 9.29002e-05 0)
(2.95644e-05 0.000106128 0)
(2.07762e-05 0.000108697 0)
(1.17125e-05 9.52633e-05 0)
(4.24558e-06 6.46304e-05 0)
(1.92518e-07 2.21078e-05 0)
(-2.5261e-07 3.04597e-05 0)
(-5.13822e-06 8.69905e-05 0)
(-1.39155e-05 0.000126241 0)
(-2.4524e-05 0.000143161 0)
(-3.49255e-05 0.000140153 0)
(-4.373e-05 0.00012415 0)
(-5.03188e-05 0.000102881 0)
(-5.46966e-05 8.22229e-05 0)
(-5.72326e-05 6.5309e-05 0)
(-5.84163e-05 5.29581e-05 0)
(-5.86998e-05 4.4616e-05 0)
(-5.84291e-05 3.92169e-05 0)
(-5.78379e-05 3.57193e-05 0)
(-5.70701e-05 3.33294e-05 0)
(-5.62092e-05 3.15271e-05 0)
(-5.53017e-05 3.00072e-05 0)
(-5.43741e-05 2.86057e-05 0)
(-5.34424e-05 2.72407e-05 0)
(-5.25171e-05 2.58728e-05 0)
(-5.16065e-05 2.44841e-05 0)
(-5.07173e-05 2.30661e-05 0)
(-4.98555e-05 2.16145e-05 0)
(-4.90263e-05 2.01267e-05 0)
(-4.82344e-05 1.86012e-05 0)
(-4.74841e-05 1.70365e-05 0)
(-4.6779e-05 1.54318e-05 0)
(-4.61222e-05 1.37863e-05 0)
(-4.55163e-05 1.20996e-05 0)
(-4.49633e-05 1.03715e-05 0)
(-4.44647e-05 8.60197e-06 0)
(-4.40213e-05 6.79128e-06 0)
(-4.36334e-05 4.93969e-06 0)
(-4.33009e-05 3.04761e-06 0)
(-4.30231e-05 1.11545e-06 0)
(-4.27992e-05 -8.56314e-07 0)
(-4.2628e-05 -2.86699e-06 0)
(-4.25081e-05 -4.91518e-06 0)
(-4.24383e-05 -6.99867e-06 0)
(-4.24169e-05 -9.11457e-06 0)
(-4.24421e-05 -1.12595e-05 0)
(-4.25115e-05 -1.34296e-05 0)
(-4.26226e-05 -1.56203e-05 0)
(-4.27723e-05 -1.78265e-05 0)
(-4.29573e-05 -2.00421e-05 0)
(-4.31739e-05 -2.22603e-05 0)
(-4.34181e-05 -2.4473e-05 0)
(-4.36859e-05 -2.66715e-05 0)
(-4.39731e-05 -2.88459e-05 0)
(-4.42757e-05 -3.09857e-05 0)
(-4.45897e-05 -3.30795e-05 0)
(-4.49115e-05 -3.51156e-05 0)
(-4.52377e-05 -3.70815e-05 0)
(-4.55654e-05 -3.89649e-05 0)
(-4.58922e-05 -4.07533e-05 0)
(-4.6216e-05 -4.24344e-05 0)
(-4.65353e-05 -4.3997e-05 0)
(-4.68488e-05 -4.54311e-05 0)
(-4.71555e-05 -4.67289e-05 0)
(-4.74542e-05 -4.78853e-05 0)
(-4.77433e-05 -4.88989e-05 0)
(-4.80203e-05 -4.97718e-05 0)
(-4.82816e-05 -5.05096e-05 0)
(-4.85221e-05 -5.11205e-05 0)
(-4.87353e-05 -5.1614e-05 0)
(-4.89134e-05 -5.19989e-05 0)
(-4.90476e-05 -5.22821e-05 0)
(-4.91292e-05 -5.24677e-05 0)
(-4.91494e-05 -5.25568e-05 0)
(-4.91003e-05 -5.25481e-05 0)
(-4.89751e-05 -5.24389e-05 0)
(-4.87683e-05 -5.22265e-05 0)
(-4.84752e-05 -5.19083e-05 0)
(-4.80923e-05 -5.14831e-05 0)
(-4.76169e-05 -5.09509e-05 0)
(-4.7047e-05 -5.03128e-05 0)
(-4.63812e-05 -4.95709e-05 0)
(-4.56184e-05 -4.87281e-05 0)
(-4.47581e-05 -4.77878e-05 0)
(-4.38e-05 -4.67541e-05 0)
(-4.27443e-05 -4.56311e-05 0)
(-4.15915e-05 -4.44232e-05 0)
(-4.03425e-05 -4.3135e-05 0)
(-3.89984e-05 -4.17712e-05 0)
(-3.75609e-05 -4.03363e-05 0)
(-3.60318e-05 -3.8835e-05 0)
(-3.44132e-05 -3.72723e-05 0)
(-3.27077e-05 -3.5653e-05 0)
(-3.09178e-05 -3.39828e-05 0)
(-2.90463e-05 -3.22679e-05 0)
(-2.7096e-05 -3.05153e-05 0)
(-2.50695e-05 -2.87331e-05 0)
(-2.29694e-05 -2.69299e-05 0)
(-2.07982e-05 -2.5115e-05 0)
(-1.85581e-05 -2.32975e-05 0)
(-1.62515e-05 -2.14859e-05 0)
(-1.38806e-05 -1.96875e-05 0)
(-1.14479e-05 -1.79081e-05 0)
(-8.95615e-06 -1.61516e-05 0)
(-6.40829e-06 -1.44206e-05 0)
(-3.8076e-06 -1.27161e-05 0)
(-1.15773e-06 -1.1038e-05 0)
(1.53765e-06 -9.3858e-06 0)
(4.2733e-06 -7.75898e-06 0)
(7.04454e-06 -6.15624e-06 0)
(9.84588e-06 -4.57639e-06 0)
(1.26714e-05 -3.01838e-06 0)
(1.5515e-05 -1.48112e-06 0)
(1.83698e-05 3.60954e-08 0)
(2.12291e-05 1.5347e-06 0)
(2.40855e-05 3.01778e-06 0)
(2.6931e-05 4.49234e-06 0)
(2.97565e-05 5.97539e-06 0)
(3.25504e-05 7.50481e-06 0)
(3.52963e-05 9.16211e-06 0)
(3.79673e-05 1.1112e-05 0)
(4.05164e-05 1.36629e-05 0)
(4.28598e-05 1.73426e-05 0)
(4.48526e-05 2.29586e-05 0)
(4.62591e-05 3.15731e-05 0)
(4.67304e-05 4.42788e-05 0)
(4.58097e-05 6.16614e-05 0)
(4.30013e-05 8.29363e-05 0)
(3.79281e-05 0.000105012 0)
(3.05748e-05 0.000122089 0)
(2.15421e-05 0.0001266 0)
(1.21794e-05 0.00011196 0)
(4.43361e-06 7.64884e-05 0)
(2.06771e-07 2.6334e-05 0)
(-2.70509e-07 3.56534e-05 0)
(-5.42274e-06 0.000101237 0)
(-1.46497e-05 0.0001461 0)
(-2.57735e-05 0.000164557 0)
(-3.66484e-05 0.000159673 0)
(-4.58189e-05 0.000139756 0)
(-5.26445e-05 0.00011395 0)
(-5.71397e-05 8.91433e-05 0)
(-5.97e-05 6.8967e-05 0)
(-6.0845e-05 5.43216e-05 0)
(-6.10526e-05 4.45034e-05 0)
(-6.06876e-05 3.82216e-05 0)
(-5.9996e-05 3.42275e-05 0)
(-5.9129e-05 3.15729e-05 0)
(-5.81736e-05 2.9638e-05 0)
(-5.71783e-05 2.80597e-05 0)
(-5.61702e-05 2.66425e-05 0)
(-5.51655e-05 2.52884e-05 0)
(-5.4175e-05 2.39504e-05 0)
(-5.32067e-05 2.26064e-05 0)
(-5.22673e-05 2.12457e-05 0)
(-5.13628e-05 1.98627e-05 0)
(-5.04982e-05 1.84534e-05 0)
(-4.96782e-05 1.70152e-05 0)
(-4.89068e-05 1.55457e-05 0)
(-4.81875e-05 1.40426e-05 0)
(-4.75232e-05 1.25042e-05 0)
(-4.69161e-05 1.09288e-05 0)
(-4.63677e-05 9.31499e-06 0)
(-4.58792e-05 7.66156e-06 0)
(-4.54508e-05 5.96752e-06 0)
(-4.50822e-05 4.23204e-06 0)
(-4.47725e-05 2.45452e-06 0)
(-4.45202e-05 6.34566e-07 0)
(-4.43236e-05 -1.22793e-06 0)
(-4.41805e-05 -3.13253e-06 0)
(-4.40885e-05 -5.07814e-06 0)
(-4.40451e-05 -7.06298e-06 0)
(-4.40475e-05 -9.08473e-06 0)
(-4.40925e-05 -1.11406e-05 0)
(-4.41767e-05 -1.32274e-05 0)
(-4.42963e-05 -1.53413e-05 0)
(-4.44474e-05 -1.7478e-05 0)
(-4.46255e-05 -1.9632e-05 0)
(-4.4826e-05 -2.1797e-05 0)
(-4.50439e-05 -2.39653e-05 0)
(-4.52743e-05 -2.61284e-05 0)
(-4.55124e-05 -2.82762e-05 0)
(-4.57532e-05 -3.0398e-05 0)
(-4.59925e-05 -3.24818e-05 0)
(-4.62261e-05 -3.45151e-05 0)
(-4.64506e-05 -3.64848e-05 0)
(-4.66631e-05 -3.83772e-05 0)
(-4.68612e-05 -4.01788e-05 0)
(-4.70436e-05 -4.18765e-05 0)
(-4.72093e-05 -4.34578e-05 0)
(-4.7358e-05 -4.49123e-05 0)
(-4.74898e-05 -4.62318e-05 0)
(-4.76047e-05 -4.74118e-05 0)
(-4.77025e-05 -4.8452e-05 0)
(-4.77822e-05 -4.93564e-05 0)
(-4.78417e-05 -5.01334e-05 0)
(-4.78772e-05 -5.07941e-05 0)
(-4.78836e-05 -5.13507e-05 0)
(-4.78542e-05 -5.18143e-05 0)
(-4.77816e-05 -5.21929e-05 0)
(-4.76579e-05 -5.24908e-05 0)
(-4.74754e-05 -5.27079e-05 0)
(-4.72275e-05 -5.28412e-05 0)
(-4.69083e-05 -5.28859e-05 0)
(-4.65133e-05 -5.28366e-05 0)
(-4.60393e-05 -5.26889e-05 0)
(-4.54837e-05 -5.24397e-05 0)
(-4.48449e-05 -5.20874e-05 0)
(-4.41221e-05 -5.16321e-05 0)
(-4.33144e-05 -5.1075e-05 0)
(-4.24217e-05 -5.04181e-05 0)
(-4.14438e-05 -4.96643e-05 0)
(-4.0381e-05 -4.88169e-05 0)
(-3.92336e-05 -4.78796e-05 0)
(-3.8002e-05 -4.68562e-05 0)
(-3.6687e-05 -4.57507e-05 0)
(-3.52895e-05 -4.45671e-05 0)
(-3.38105e-05 -4.33096e-05 0)
(-3.22514e-05 -4.19823e-05 0)
(-3.06135e-05 -4.05896e-05 0)
(-2.88984e-05 -3.91361e-05 0)
(-2.71078e-05 -3.76272e-05 0)
(-2.52433e-05 -3.60691e-05 0)
(-2.33064e-05 -3.4469e-05 0)
(-2.12985e-05 -3.2835e-05 0)
(-1.92209e-05 -3.11762e-05 0)
(-1.70746e-05 -2.9502e-05 0)
(-1.4861e-05 -2.78214e-05 0)
(-1.25812e-05 -2.61429e-05 0)
(-1.02369e-05 -2.44733e-05 0)
(-7.82987e-06 -2.28178e-05 0)
(-5.3626e-06 -2.11797e-05 0)
(-2.83789e-06 -1.95608e-05 0)
(-2.58864e-07 -1.79611e-05 0)
(2.37063e-06 -1.63801e-05 0)
(5.04616e-06 -1.48163e-05 0)
(7.76329e-06 -1.32679e-05 0)
(1.05169e-05 -1.1733e-05 0)
(1.33014e-05 -1.02099e-05 0)
(1.6111e-05 -8.69674e-06 0)
(1.89396e-05 -7.19192e-06 0)