/*--------------------------------*- C++ -*----------------------------------*\
| =========                 |                                                 |
| \\      /  F ield         | OpenFOAM: The Open Source CFD Toolbox           |
|  \\    /   O peration     | Version:  2206                                  |
|   \\  /    A nd           | Website:  www.openfoam.com                      |
|    \\/     M anipulation  |                                                 |
\*---------------------------------------------------------------------------*/
FoamFile
{
    version     2.0;
    format      ascii;
    arch        "LSB;label=64;scalar=64";
    class       surfaceScalarField;
    location    "295200";
    object      phi;
}
// * * * * * * * * * * * * * * * * * * * * * * * * * * * * * * * * * * * * * //

dimensions      [0 3 -1 0 0 0 0];

oriented        oriented;

internalField   nonuniform List<scalar> 
24
(
6.55661e-10
-6.55661e-10
5.76537e-10
7.91239e-11
1.97074e-10
3.79463e-10
1.97074e-10
-9.48338e-11
-5.60827e-10
-4.80823e-11
3.23724e-11
-6.5274e-11
3.96655e-10
1.318e-10
-3.28948e-10
-2.31879e-10
-2.85172e-10
-1.14031e-11
-1.19189e-10
2.30671e-10
1.26114e-11
-2.31879e-10
-2.43282e-10
-1.26114e-11
)
;

boundaryField
{
    movingWall
    {
        type            calculated;
        value           uniform 0;
    }
    fixedWalls
    {
        type            calculated;
        value           uniform 0;
    }
    frontAndBack
    {
        type            empty;
        value           nonuniform List<scalar> 0();
    }
}


// ************************************************************************* //
