/*--------------------------------*- C++ -*----------------------------------*\
| =========                 |                                                 |
| \\      /  F ield         | OpenFOAM: The Open Source CFD Toolbox           |
|  \\    /   O peration     | Version:  2206                                  |
|   \\  /    A nd           | Website:  www.openfoam.com                      |
|    \\/     M anipulation  |                                                 |
\*---------------------------------------------------------------------------*/
FoamFile
{
    version     2.0;
    format      ascii;
    arch        "LSB;label=64;scalar=64";
    class       volScalarField;
    location    "5/water";
    object      nut.gas;
}
// * * * * * * * * * * * * * * * * * * * * * * * * * * * * * * * * * * * * * //

dimensions      [0 2 -1 0 0 0 0];

internalField   nonuniform List<scalar> 
23300
(
0.000149532275737
0.000147108113677
0.000144518907714
0.000141421319183
0.000137865004484
0.00013390975181
0.000129609035663
0.000125014046199
0.000120174437226
0.000115142164913
0.000109970041285
0.000104713506959
9.94277664231e-05
9.41681578705e-05
8.89869348909e-05
8.39331768229e-05
7.90500810967e-05
7.437519994e-05
6.99386913696e-05
6.57642154054e-05
6.18681266058e-05
5.82609186516e-05
5.49470402831e-05
5.19265657258e-05
4.91952604884e-05
4.67461809024e-05
4.45697284091e-05
4.2655021398e-05
4.09898291655e-05
3.95616939466e-05
3.83577425839e-05
3.73656073277e-05
3.65731503263e-05
3.59692403011e-05
3.55434161466e-05
3.52865583507e-05
3.5190502326e-05
3.52486330346e-05
3.5455460367e-05
3.58071761753e-05
3.63012302766e-05
3.69360537137e-05
3.77110550552e-05
3.86273817161e-05
3.96873118253e-05
4.08947058015e-05
4.22544323717e-05
4.37728527645e-05
4.54572248111e-05
4.73161865758e-05
4.93591023681e-05
5.15965069542e-05
5.40393406795e-05
5.66992907392e-05
5.95878342951e-05
6.27163764836e-05
6.6094982658e-05
6.97321721172e-05
7.36331725052e-05
7.7799170566e-05
8.22248246498e-05
8.68965860614e-05
9.17888379919e-05
9.68602010448e-05
0.000102046439599
0.000107251639092
0.000112332847584
0.000117078294053
0.000121172710083
0.000124153274684
0.000125399252931
0.000124537678003
0.000122005035912
0.000118326702176
0.000113894207553
0.000108988436678
0.000103813613297
9.85216414325e-05
9.32264225857e-05
8.80136311846e-05
8.29464700817e-05
7.80705469296e-05
7.34169913445e-05
6.90056604956e-05
6.48472162201e-05
6.09454248999e-05
5.72985564856e-05
5.39010079011e-05
5.07441943693e-05
4.78176646197e-05
4.51096279098e-05
4.26076997791e-05
4.02991764543e-05
3.81715176419e-05
3.62124523216e-05
3.44102813839e-05
3.2753879089e-05
3.1232878159e-05
2.98376144722e-05
2.85592405987e-05
2.73896476092e-05
2.63215420477e-05
2.53483744022e-05
2.44644224168e-05
2.36647952915e-05
2.29456832196e-05
2.23033331178e-05
2.17345117624e-05
2.12368832019e-05
2.08090102895e-05
2.04503277372e-05
2.01612289688e-05
1.99431124326e-05
1.97985281341e-05
1.97312920123e-05
1.97466953399e-05
1.9851688821e-05
2.00551531007e-05
2.03681379125e-05
2.0804159654e-05
2.13794275122e-05
2.21130522165e-05
2.30270744507e-05
2.41463127317e-05
2.54978170627e-05
2.71098724569e-05
2.90103139989e-05
3.12241185646e-05
3.37701615173e-05
3.66573633399e-05
3.9880559281e-05
4.34168880508e-05
4.72236099958e-05
5.12383541747e-05
5.53820632409e-05
5.95634546559e-05
6.36808229738e-05
6.76116426605e-05
7.11692897699e-05
7.3986478751e-05
0.000130140983832
0.000129175794112
0.000127590837749
0.000125483016108
0.000122926485527
0.000119982313379
0.000116703642286
0.000113139355601
0.000109336326195
0.000105341036323
0.000101200092881
9.69604092408e-05
9.26685932628e-05
8.83702904772e-05
8.41090989117e-05
7.99257131388e-05
7.58569528546e-05
7.1935197283e-05
6.81878698193e-05
6.4637361052e-05
6.13010130745e-05
5.81914603497e-05
5.53169540819e-05
5.26819212054e-05
5.02874193018e-05
4.81317273485e-05
4.62107820373e-05
4.45186990265e-05
4.30481327953e-05
4.17907090687e-05
4.07373125164e-05
3.98784489723e-05
3.9204479438e-05
3.87059264084e-05
3.83736575114e-05
3.81991327944e-05
3.81745285134e-05
3.8292917833e-05
3.85483296462e-05
3.89358647349e-05
3.94516927092e-05
4.00926979754e-05
4.08565785119e-05
4.17421854714e-05
4.27494016142e-05
4.38791119026e-05
4.51330772436e-05
4.651389716e-05
4.8024863787e-05
4.96698980737e-05
5.14533605263e-05
5.33799312009e-05
5.54543397469e-05
5.76811428977e-05
6.00643182804e-05
6.26068736689e-05
6.53102304456e-05
6.81735819479e-05
7.11929771197e-05
7.43603271935e-05
7.76620636342e-05
8.10776084592e-05
8.45773031698e-05
8.81198378084e-05
9.16486716732e-05
9.5087395156e-05
9.83337048767e-05
0.000101252937582
0.000103673813101
0.000105394695386
0.000106218330369
0.000106040583666
0.000104925505621
0.000103023570685
0.00010050166592
9.75143089417e-05
9.41949744497e-05
9.06553998509e-05
8.69873532281e-05
8.32650771757e-05
7.95476389675e-05
7.5881193494e-05
7.23009844419e-05
6.88332049479e-05
6.54965796827e-05
6.23037847902e-05
5.92626064696e-05
5.63769620122e-05
5.36477127763e-05
5.1073381878e-05
4.86507152281e-05
4.63751789337e-05
4.42413371302e-05
4.22431868497e-05
4.03744013718e-05
3.86285461758e-05
3.69992265279e-05
3.54802203721e-05
3.40655621212e-05
3.27496221037e-05
3.15271530639e-05
3.03933416573e-05
2.93438425107e-05
2.83748291015e-05
2.74830445322e-05
2.66658707238e-05
2.59211616542e-05
2.52468760243e-05
2.46416377161e-05
2.41047747558e-05
2.36363603179e-05
2.32372744944e-05
2.29092766718e-05
2.26551013191e-05
2.24785642194e-05
2.23846860757e-05
2.23798161202e-05
2.24717542545e-05
2.26698450564e-05
2.29850282871e-05
2.34298037885e-05
2.4018076692e-05
2.47648227552e-05
2.56855235763e-05
2.67953038383e-05
2.81077275186e-05
2.96332192946e-05
3.1377142411e-05
3.33376320823e-05
3.55034214837e-05
3.78520445283e-05
4.03489896218e-05
4.29485012802e-05
4.55967515263e-05
4.82379563043e-05
5.08239737394e-05
5.33288808643e-05
5.5774388398e-05
5.8285275314e-05
6.12179848647e-05
0.000115485270172
0.000115012937216
0.000114038090133
0.000112622170469
0.000110816523185
0.00010866574887
0.000106210586232
0.000103489852384
0.000100541711525
9.74044515895e-05
9.4116786621e-05
9.07177955086e-05
8.72465265231e-05
8.37414082756e-05
8.02395275506e-05
7.67759130911e-05
7.33828727616e-05
7.00894782904e-05
6.69211995424e-05
6.38997254042e-05
6.10429303968e-05
5.8364986061e-05
5.58765585874e-05
5.35850821983e-05
5.14950565757e-05
4.96083672648e-05
4.79245951688e-05
4.64413274375e-05
4.51544510641e-05
4.40584479997e-05
4.3146678643e-05
4.24116695195e-05
4.18453894183e-05
4.14395224713e-05
4.11857188138e-05
4.10758269745e-05
4.11020894389e-05
4.12573067e-05
4.15349556695e-05
4.19292711655e-05
4.24352829585e-05
4.3048898861e-05
4.37665840097e-05
4.45856616309e-05
4.55042559787e-05
4.65212226728e-05
4.76360596043e-05
4.88488110539e-05
5.01599522236e-05
5.15702636228e-05
5.30806783655e-05
5.46921096511e-05
5.64052378734e-05
5.82202629333e-05
6.01365983135e-05
6.21525119882e-05
6.42646901329e-05
6.64677312997e-05
6.87535505051e-05
7.11107065173e-05
7.35236351409e-05
7.59718006638e-05
7.84287377115e-05
8.08609808248e-05
8.32268547593e-05
8.54751953349e-05
8.75442186887e-05
8.93611763154e-05
9.08440523111e-05
9.19074702255e-05
9.24758885641e-05
9.25044773858e-05
9.19953510724e-05
9.09892999986e-05
8.95488072748e-05
8.77451505566e-05
8.56501038352e-05
8.3331206191e-05
8.08493325637e-05
7.82576901471e-05
7.56016713247e-05
7.29192250091e-05
7.02415035503e-05
6.75936374117e-05
6.49955249262e-05
6.2462586327e-05
6.00064459083e-05
5.76355424626e-05
5.53556635854e-05
5.31704168898e-05
5.10816387424e-05
4.90897518977e-05
4.71940718954e-05
4.53930713292e-05
4.36846021227e-05
4.20660839481e-05
4.05346597277e-05
3.90873256248e-05
3.77210369919e-05
3.64327968289e-05
3.52197284303e-05
3.40791378427e-05
3.30085675239e-05
3.20058447615e-05
3.10691221266e-05
3.01969024545e-05
2.93882999176e-05
2.864259981e-05
2.79595480499e-05
2.73394186063e-05
2.67830765007e-05
2.62920424756e-05
2.58685611188e-05
2.5515672576e-05
2.52372837399e-05
2.50382326994e-05
2.49243352298e-05
2.49023987389e-05
2.49801828472e-05
2.51662817002e-05
2.54698973242e-05
2.59004716328e-05
2.64671438176e-05
2.71780063259e-05
2.80391435319e-05
2.90534594825e-05
3.02193318901e-05
3.15291760978e-05
3.29680622864e-05
3.45126081724e-05
3.61304608025e-05
3.77807770074e-05
3.94161737954e-05
4.09865869864e-05
4.24452686354e-05
4.37567827122e-05
4.49066234747e-05
4.59130440998e-05
4.68518854191e-05
4.77846069224e-05
0.000106750359673
0.000106364326343
0.000105595630818
0.000104467028741
0.000103007828215
0.000101249707343
9.92251686637e-05
9.69670548533e-05
9.450844289e-05
9.18826132239e-05
8.91229557037e-05
8.62627647378e-05
8.33349212986e-05
8.03714924755e-05
7.74032893782e-05
7.44594307182e-05
7.15669504607e-05
6.87504799462e-05
6.60320189877e-05
6.34308000267e-05
6.09632370867e-05
5.8642946369e-05
5.64808211043e-05
5.4485145055e-05
5.26617314714e-05
5.10140791992e-05
4.95435423761e-05
4.82495134689e-05
4.71296225537e-05
4.61799544725e-05
4.53952857722e-05
4.47693378496e-05
4.42950421616e-05
4.39648068487e-05
4.37707760738e-05
4.37050687423e-05
4.37599890706e-05
4.39281988406e-05
4.42028493859e-05
4.45776691348e-05
4.5047011265e-05
4.56062414661e-05
4.62511518722e-05
4.69782149911e-05
4.77845414592e-05
4.86678147735e-05
4.96262112507e-05
5.065830585e-05
5.1762967342e-05
5.29392400101e-05
5.41862121859e-05
5.55028667196e-05
5.6887911511e-05
5.83395840017e-05
5.98554265281e-05
6.14320265397e-05
6.30647192994e-05
6.47472499365e-05
6.64713968404e-05
6.82265601947e-05
6.99993256452e-05
7.17730158988e-05
7.35272487593e-05
7.52375258118e-05
7.68748933924e-05
7.84057569775e-05
7.97920126427e-05
8.09917933829e-05
8.19612887917e-05
8.26581725133e-05
8.30469102307e-05
8.31050587406e-05
8.28278247294e-05
8.22283128585e-05
8.1332698082e-05
8.0175318524e-05
7.87944438313e-05
7.7229037509e-05
7.55165354494e-05
7.36914864668e-05
7.17848526332e-05
6.98237740776e-05
6.78316313812e-05
6.58282773689e-05
6.38303490268e-05
6.18516046985e-05
5.99032569735e-05
5.7994288051e-05
5.61317430077e-05
5.4321000117e-05
5.25660185817e-05
5.08695640221e-05
4.92334122438e-05
4.76585316428e-05
4.6145245186e-05
4.46933728476e-05
4.33023561194e-05
4.19713659874e-05
4.06993964416e-05
3.94853451073e-05
3.83280830924e-05
3.72265152891e-05
3.61796323482e-05
3.51865536887e-05
3.42465594514e-05
3.33591060631e-05
3.2524237937e-05
3.1742345945e-05
3.1014157086e-05
3.03407998105e-05
2.97238652212e-05
2.91654652559e-05
2.8668287281e-05
2.82356416994e-05
2.78714970489e-05
2.75804936293e-05
2.73679235425e-05
2.72396608757e-05
2.72020223246e-05
2.72615354014e-05
2.7424590416e-05
2.76969540544e-05
2.80831284905e-05
2.85855512629e-05
2.92036486769e-05
2.99327793199e-05
3.07631339306e-05
3.16786925969e-05
3.26563788706e-05
3.36655925555e-05
3.46683469431e-05
3.56202765965e-05
3.64727959919e-05
3.71766197759e-05
3.7686587987e-05
3.79671347331e-05
3.79968282041e-05
3.77704090811e-05
3.731642537e-05
3.66258875442e-05
9.96897660847e-05
9.93726123073e-05
9.87445574951e-05
9.78194501792e-05
9.66166092623e-05
9.5159001026e-05
9.34719199781e-05
9.15821326831e-05
8.95173200176e-05
8.73056773298e-05
8.49755823606e-05
8.25552790646e-05
8.00725591337e-05
7.75544402857e-05
7.50268540134e-05
7.25143567852e-05
7.00398796089e-05
6.76245240534e-05
6.52874092946e-05
6.30455670706e-05
6.09138797422e-05
5.89050523134e-05
5.70296119082e-05
5.5295927427e-05
5.37102479672e-05
5.22767587904e-05
5.0997659764e-05
4.98732690862e-05
4.89021589906e-05
4.80813239356e-05
4.74063832083e-05
4.68718107953e-05
4.64711868538e-05
4.6197456369e-05
4.60431851558e-05
4.60007972323e-05
4.6062785987e-05
4.62218876527e-05
4.64712161784e-05
4.68043551646e-05
4.72154132068e-05
4.76995267706e-05
4.82522648006e-05
4.88697537934e-05
4.95486427456e-05
5.02860460407e-05
5.10794731651e-05
5.1926745708e-05
5.2825907009e-05
5.37751220157e-05
5.47725700958e-05
5.58163267777e-05
5.69042356251e-05
5.80337655654e-05
5.9201854251e-05
6.04047332337e-05
6.1637736414e-05
6.28950900799e-05
6.41696896437e-05
6.54528672792e-05
6.67341628864e-05
6.80011119156e-05
6.92390727125e-05
7.04311191777e-05
7.15580369929e-05
7.25984735069e-05
7.35293173662e-05
7.43264098427e-05
7.49657085081e-05
7.54249832041e-05
7.56859690636e-05
7.57365761206e-05
7.55724214536e-05
7.5197618964e-05
7.46235566896e-05
7.3866769642e-05
7.29470811714e-05
7.18859220409e-05
7.07049881923e-05
6.94252769309e-05
6.80664671885e-05
6.66465735867e-05
6.51817976848e-05
6.36865078625e-05
6.21732968103e-05
6.06530814182e-05
5.9135224568e-05
5.76276665077e-05
5.61370599177e-05
5.46689044663e-05
5.3227678911e-05
5.18169683537e-05
5.04395856288e-05
4.90976851472e-05
4.7792868877e-05
4.65262835284e-05
4.52987093172e-05
4.41106400069e-05
4.29623550859e-05
4.18539841218e-05
4.07855642535e-05
3.97570906675e-05
3.87685602999e-05
3.78200072393e-05
3.69115281226e-05
3.60432946622e-05
3.52160083505e-05
3.44308446333e-05
3.3689243456e-05
3.29929622807e-05
3.23441252131e-05
3.17452670469e-05
3.11993693623e-05
3.07098830581e-05
3.02807301377e-05
2.99162745657e-05
2.96212497083e-05
2.94006265825e-05
2.92594052794e-05
2.92023106067e-05
2.92333746494e-05
2.93553933235e-05
2.95692531612e-05
2.98731381795e-05
3.02616455134e-05
3.0724861089e-05
3.12474718205e-05
3.18080161907e-05
3.23783988607e-05
3.29238159581e-05
3.3403256104e-05
3.37707579319e-05
3.39776102382e-05
3.39756435257e-05
3.37215934891e-05
3.31820612365e-05
3.2337753246e-05
3.11851429469e-05
2.97421243851e-05
2.80178956788e-05
9.38628353267e-05
9.35994994477e-05
9.30779498313e-05
9.23082603121e-05
9.13046432141e-05
9.00846172383e-05
8.86681745837e-05
8.70770691634e-05
8.53342338626e-05
8.34632993929e-05
8.14881882514e-05
7.94327604964e-05
7.73205011066e-05
7.51742424076e-05
7.30159224926e-05
7.08663785176e-05
6.87451759919e-05
6.66704702606e-05
6.46588973092e-05
6.27254867138e-05
6.08835922882e-05
5.91448340139e-05
5.75190502138e-05
5.60142586182e-05
5.4636631593e-05
5.33904897391e-05
5.22783235252e-05
5.13008483401e-05
5.04571010616e-05
4.97445780966e-05
4.91594156349e-05
4.86966028501e-05
4.83502205827e-05
4.81136893583e-05
4.79800160016e-05
4.79420223731e-05
4.7992548833e-05
4.81246213353e-05
4.8331581869e-05
4.86071783566e-05
4.89456202335e-05
4.93420281557e-05
4.97921033634e-05
5.02920070117e-05
5.0838335969e-05
5.14280754834e-05
5.20585398504e-05
5.27273025391e-05
5.34321217893e-05
5.41708599351e-05
5.49413999824e-05
5.57415564114e-05
5.65689825467e-05
5.74210711266e-05
5.82948500249e-05
5.91868702686e-05
6.0093088977e-05
6.10087462527e-05
6.19282411089e-05
6.2845009504e-05
6.37514144385e-05
6.46386575357e-05
6.54967287725e-05
6.63144111297e-05
6.70793637051e-05
6.77783070156e-05
6.83973398516e-05
6.89224140533e-05
6.93399871021e-05
6.96378415077e-05
6.9806004209e-05
6.98376147945e-05
6.97295318371e-05
6.94826081414e-05
6.91018016814e-05
6.85950521707e-05
6.79724453691e-05
6.7245425904e-05
6.64261038671e-05
6.55266992857e-05
6.45591340674e-05
6.35347547619e-05
6.24641603255e-05
6.13571065985e-05
6.02224647535e-05
5.90682157946e-05
5.79014698387e-05
5.67285018226e-05
5.5554799029e-05
5.43851162746e-05
5.32235365699e-05
5.20735345255e-05
5.09380412108e-05
4.98195084635e-05
4.87199719695e-05
4.76411117167e-05
4.65843096643e-05
4.55507037213e-05
4.45412382455e-05
4.35567104411e-05
4.2597812958e-05
4.16651719366e-05
4.07593802329e-05
3.98810240545e-05
3.90307015608e-05
3.82090317112e-05
3.74171169032e-05
3.66565936269e-05
3.59293204622e-05
3.52374176393e-05
3.45833015894e-05
3.39697124941e-05
3.33997308473e-05
3.28767762574e-05
3.24045804183e-05
3.19871236991e-05
3.16285232342e-05
3.13328580862e-05
3.11039164287e-05
3.094484984e-05
3.0857723088e-05
3.08429537149e-05
3.08986461415e-05
3.10198391081e-05
3.11977034659e-05
3.14187477033e-05
3.16641097698e-05
3.19090331184e-05
3.21226408743e-05
3.22681339187e-05
3.23035481328e-05
3.21832169283e-05
3.18601004721e-05
3.12891525255e-05
3.04318440216e-05
2.92616972161e-05
2.77699582314e-05
2.59694357218e-05
2.38971853641e-05
2.16028352047e-05
8.90115430841e-05
8.87906897146e-05
8.83530351699e-05
8.770642567e-05
8.68619815455e-05
8.58336170198e-05
8.46374805352e-05
8.32914061182e-05
8.18144088045e-05
8.02262333629e-05
7.85469608921e-05
7.67966699401e-05
7.49951518743e-05
7.31616750609e-05
7.13147949852e-05
6.9472202219e-05
6.76506022866e-05
6.58656171692e-05
6.41317015203e-05
6.24620642634e-05
6.08685917081e-05
5.93617678255e-05
5.7950594494e-05
5.66425144308e-05
5.54433465701e-05
5.43572415345e-05
5.33866696476e-05
5.25324479721e-05
5.17938146883e-05
5.11685496333e-05
5.06531403559e-05
5.02429826445e-05
4.99326068515e-05
4.97159130064e-05
4.95864039446e-05
4.95374003533e-05
4.95622311904e-05
4.96543893214e-05
4.98076530882e-05
5.00161708705e-05
5.02745159548e-05
5.0577882215e-05
5.09223954049e-05
5.13045078096e-05
5.17210456981e-05
5.21691666078e-05
5.26463089601e-05
5.31501341079e-05
5.36784664486e-05
5.42292299767e-05
5.48003850126e-05
5.53898625299e-05
5.59954988792e-05
5.66149681646e-05
5.72457147596e-05
5.78848836537e-05
5.85292514935e-05
5.91751572707e-05
5.98184369214e-05
6.04543632263e-05
6.10775979427e-05
6.16821611046e-05
6.22614277994e-05
6.28081608056e-05
6.33145915834e-05
6.37725588674e-05
6.41737153061e-05
6.45098056859e-05
6.47730148557e-05
6.49563673949e-05
6.50541438721e-05
6.50622554464e-05
6.49785100552e-05
6.48027174969e-05
6.45367497146e-05
6.41844220774e-05
6.37508011899e-05
6.32418915236e-05
6.26642984782e-05
6.20249366986e-05
6.1330792799e-05
6.05887431941e-05
5.98054214563e-05
5.89871257394e-05
5.81397580149e-05
5.72687872616e-05
5.63792315553e-05
5.54756542094e-05
5.45621712704e-05
5.36424672974e-05
5.27198179448e-05
5.17971171514e-05
5.0876908046e-05
4.99614158709e-05
4.90525824206e-05
4.81521006794e-05
4.72614494646e-05
4.63819270635e-05
4.55146838848e-05
4.46607532915e-05
4.3821080661e-05
4.29965496942e-05
4.21880055009e-05
4.13962726287e-05
4.06221667195e-05
3.98664985639e-05
3.91305276422e-05
3.84160644946e-05
3.77251143337e-05
3.70599045377e-05
3.64229054921e-05
3.58168425487e-05
3.52446947221e-05
3.47096729745e-05
3.42151698107e-05
3.37646698941e-05
3.33616104466e-05
3.30091787244e-05
3.27100341787e-05
3.24659440991e-05
3.22773257862e-05
3.21426949872e-05
3.20580310048e-05
3.20160825882e-05
3.2005655632e-05
3.20109419186e-05
3.20109664033e-05
3.19792466517e-05
3.18837709981e-05
3.16874118106e-05
3.1348899467e-05
3.08244968547e-05
3.00705411107e-05
2.90470615024e-05
2.7722709853e-05
2.60811247529e-05
2.41282756835e-05
2.18989403595e-05
1.94600678539e-05
1.69052297421e-05
8.49400067873e-05
8.47535451144e-05
8.43839080513e-05
8.38374448379e-05
8.31231687019e-05
8.22524250604e-05
8.12384761832e-05
8.0096067631e-05
7.8841006745e-05
7.74897700367e-05
7.60591554124e-05
7.45659848054e-05
7.30268622423e-05
7.14579829752e-05
6.98749891892e-05
6.82928605578e-05
6.67258301922e-05
6.51873124167e-05
6.36898338335e-05
6.22449577619e-05
6.08631994793e-05
5.95539298933e-05
5.83252735976e-05
5.71840069482e-05
5.6135468972e-05
5.51834946845e-05
5.43303846283e-05
5.35769170603e-05
5.29224105318e-05
5.23648341929e-05
5.19009638517e-05
5.15265713538e-05
5.12366379978e-05
5.10255747762e-05
5.08874392589e-05
5.08161338509e-05
5.08055800411e-05
5.08498594702e-05
5.09433233905e-05
5.10806680543e-05
5.12569836222e-05
5.14677787111e-05
5.17095718408e-05
5.19792963526e-05
5.22741960146e-05
5.25917930287e-05
5.29298482081e-05
5.32863142892e-05
5.3659288512e-05
5.4046963173e-05
5.44475780394e-05
5.48593722247e-05
5.52805384493e-05
5.57091771479e-05
5.61432530357e-05
5.65805519378e-05
5.70186406265e-05
5.74548282812e-05
5.78861329968e-05
5.83092533362e-05
5.87205496203e-05
5.91160367544e-05
5.94913946984e-05
5.98419998039e-05
6.01629834686e-05
6.04493207908e-05
6.06959531086e-05
6.0897942613e-05
6.10506553972e-05
6.114996095e-05
6.11924317394e-05
6.11755188596e-05
6.10976807688e-05
6.09584454458e-05
6.07584028697e-05
6.04992158615e-05
6.01834687301e-05
5.98142891527e-05
5.93952416934e-05
5.89301782309e-05
5.84231085644e-05
5.78780902932e-05
5.72991417682e-05
5.66901744168e-05
5.60549420324e-05
5.5397003946e-05
5.47197004993e-05
5.40261382164e-05
5.33191834067e-05
5.26014621145e-05
5.18753656699e-05
5.11430602494e-05
5.04065000508e-05
4.96674427967e-05
4.8927467377e-05
4.8187992559e-05
4.74502967209e-05
4.67155376993e-05
4.59847727969e-05
4.52589781231e-05
4.45390672668e-05
4.38259082921e-05
4.31203385252e-05
4.24231753066e-05
4.17352214413e-05
4.10572643181e-05
4.03904992182e-05
3.9736674721e-05
3.90977133304e-05
3.84757288576e-05
3.78730356056e-05
3.72921470552e-05
3.67357596445e-05
3.62067145804e-05
3.57079296536e-05
3.52422914259e-05
3.4812497715e-05
3.44208395189e-05
3.40689125163e-05
3.37572501837e-05
3.3484875329e-05
3.32487737871e-05
3.30433044617e-05
3.28595728141e-05
3.26848104017e-05
3.25018194186e-05
3.22885574352e-05
3.20179519813e-05
3.16580468857e-05
3.11725929395e-05
3.05222074113e-05
2.96662460675e-05
2.85655665671e-05
2.71864219938e-05
2.55057963667e-05
2.35184869912e-05
2.12458382678e-05
1.87446159914e-05
1.61124061278e-05
1.34840678133e-05
8.14926414644e-05
8.13347043631e-05
8.10215533129e-05
8.05584423002e-05
7.99528220371e-05
7.92140819853e-05
7.83532176346e-05
7.73824748838e-05
7.63149971831e-05
7.51644926395e-05
7.39449398856e-05
7.26703409714e-05
7.13545280956e-05
7.00110191448e-05
6.86529161158e-05
6.72928322394e-05
6.59428365107e-05
6.4614400504e-05
6.3318338798e-05
6.20647335631e-05
6.08628425465e-05
5.97209900685e-05
5.86464496703e-05
5.76453261503e-05
5.67224518479e-05
5.58813076172e-05
5.51239827325e-05
5.44511793945e-05
5.38622686477e-05
5.33553935144e-05
5.29276163162e-05
5.25750967903e-05
5.22932916349e-05
5.20771585194e-05
5.19213553343e-05
5.1820420415e-05
5.17689295649e-05
5.17616215458e-05
5.17934942031e-05
5.1859868729e-05
5.19564290538e-05
5.20792367094e-05
5.22250535306e-05
5.23914010311e-05
5.25760443353e-05
5.27769744175e-05
5.29923790967e-05
5.32206063651e-05
5.34601271504e-05
5.37094966849e-05
5.39673185547e-05
5.42322090861e-05
5.45027649751e-05
5.47775316202e-05
5.50549747333e-05
5.53334529779e-05
5.56111941934e-05
5.58862734971e-05
5.61565960907e-05
5.6419883864e-05
5.66736691436e-05
5.69152956116e-05
5.71419302307e-05
5.73505867921e-05
5.75381647271e-05
5.77015032436e-05
5.78374526696e-05
5.79429605211e-05
5.80151702102e-05
5.80515252477e-05
5.80498716233e-05
5.8008547286e-05
5.7926450137e-05
5.78030771071e-05
5.76385324306e-05
5.74335087203e-05
5.71892491516e-05
5.69074466604e-05
5.65900356828e-05
5.62391664502e-05
5.58571331266e-05
5.544630773e-05
5.50090865354e-05
5.4547846657e-05
5.40649102461e-05
5.35625157837e-05
5.30427969932e-05
5.25077680444e-05
5.19593146311e-05
5.13991894192e-05
5.08290115823e-05
5.02502692199e-05
4.96643246021e-05
4.90724212514e-05
4.84756929281e-05
4.78751736596e-05
4.72718089373e-05
4.66664673052e-05
4.60599524765e-05
4.5453015225e-05
4.48463650907e-05
4.42406809379e-05
4.36366198564e-05
4.30348226136e-05
4.24359143623e-05
4.18404995455e-05
4.12495239831e-05
4.06644954126e-05
4.00870757965e-05
3.95190907964e-05
3.89625297755e-05
3.84195339606e-05
3.78923685765e-05
3.73833722803e-05
3.68948763968e-05
3.64290851818e-05
3.59879083172e-05
3.55727365977e-05
3.51841532636e-05
3.48215757928e-05
3.44828279531e-05
3.4163648815e-05
3.3857155371e-05
3.35532873742e-05
3.32382771187e-05
3.28942016038e-05
3.24986892071e-05
3.20248664263e-05
3.14416425087e-05
3.07144418488e-05
2.98065089544e-05
2.86809342794e-05
2.73035904304e-05
2.5647239055e-05
2.36971715455e-05
2.14588245244e-05
1.89675950936e-05
1.62998251079e-05
1.35808808344e-05
1.09828625638e-05
7.85427331324e-05
7.84090024132e-05
7.81438236961e-05
7.77515921269e-05
7.72385207406e-05
7.6612423791e-05
7.58824358232e-05
7.50587110704e-05
7.41521256932e-05
7.31739984677e-05
7.21358492499e-05
7.10492033827e-05
6.99254482075e-05
6.87757349137e-05
6.76109178999e-05
6.64415153111e-05
6.52776783582e-05
6.4129153616e-05
6.30052303055e-05
6.19146641617e-05
6.08655791978e-05
5.98653489037e-05
5.89204678381e-05
5.80364228775e-05
5.72175803434e-05
5.64670996588e-05
5.57868876898e-05
5.5177598383e-05
5.46386835391e-05
5.41684891812e-05
5.37643937818e-05
5.34229743935e-05
5.31401916132e-05
5.29115769139e-05
5.27324142218e-05
5.25979024754e-05
5.25032961461e-05
5.24440161412e-05
5.24157338676e-05
5.24144261857e-05
5.24364087283e-05
5.24783495875e-05
5.25372311772e-05
5.26111599534e-05
5.26984520052e-05
5.27976039091e-05
5.29072674165e-05
5.302621979e-05
5.3153334295e-05
5.32875496885e-05
5.34278427776e-05
5.35732016639e-05
5.37226024929e-05
5.38749870952e-05
5.4029244007e-05
5.41841905387e-05
5.43385583036e-05
5.44909802822e-05
5.46399818938e-05
5.47839746632e-05
5.49212551239e-05
5.50500080836e-05
5.51683170046e-05
5.52741809209e-05
5.53655403575e-05
5.54403113297e-05
5.54964287908e-05
5.55318972681e-05
5.5544847922e-05
5.55335975234e-05
5.54967060854e-05
5.54330270824e-05
5.53417467971e-05
5.52224089537e-05
5.50749254293e-05
5.48995732189e-05
5.46969826807e-05
5.44680687887e-05
5.42139450573e-05
5.39358434817e-05
5.36351194736e-05
5.33131889585e-05
5.29714999686e-05
5.2611508394e-05
5.22346535219e-05
5.18423364628e-05
5.14359034051e-05
5.1016633086e-05
5.05857285256e-05
5.01443118571e-05
4.96934222206e-05
4.92340157028e-05
4.87669674234e-05
4.82930749266e-05
4.78130630782e-05
4.73275897439e-05
4.68372524804e-05
4.63425955698e-05
4.58441176121e-05
4.53422789996e-05
4.48375093744e-05
4.43302141935e-05
4.38207799808e-05
4.33095765551e-05
4.27969548242e-05
4.22832386476e-05
4.17689861217e-05
4.12553440349e-05
4.07435902197e-05
4.02351378654e-05
3.97315290275e-05
3.9234414952e-05
3.87455196042e-05
3.82665804224e-05
3.77992594863e-05
3.73450172515e-05
3.69049413094e-05
3.64795228374e-05
3.60683752515e-05
3.56698922201e-05
3.5280847223e-05
3.48959435126e-05
3.45073326414e-05
3.41041306823e-05
3.36719740089e-05
3.31926697143e-05
3.26440090363e-05
3.19998246944e-05
3.12303852451e-05
3.0303232735e-05
2.91845872761e-05
2.78414695268e-05
2.62447390751e-05
2.43733283401e-05
2.22200821528e-05
1.9799769264e-05
1.71598032143e-05
1.43932087015e-05
1.16498052236e-05
9.13534464574e-06
7.59852235478e-05
7.58725332951e-05
7.56490695316e-05
7.53185123008e-05
7.4886037188e-05
7.4358123381e-05
7.37423084721e-05
7.30469292744e-05
7.22808692257e-05
7.14533269289e-05
7.05736244718e-05
6.96510624041e-05
6.86948259765e-05
6.77139330109e-05
6.67172132991e-05
6.57133010267e-05
6.47106270128e-05
6.37173947294e-05
6.27415332205e-05
6.17906198742e-05
6.08717765575e-05
5.9991542474e-05
5.91557367524e-05
5.83693211683e-05
5.76362801766e-05
5.69595287718e-05
5.63408620527e-05
5.57809500211e-05
5.5279382644e-05
5.48347585638e-05
5.44448133478e-05
5.41065730452e-05
5.38165244902e-05
5.35707864458e-05
5.33652745319e-05
5.31958475174e-05
5.30584329373e-05
5.29491249785e-05
5.28642578277e-05
5.28004520371e-05
5.27546407509e-05
5.27240757878e-05
5.27061814739e-05
5.26993315519e-05
5.27024250271e-05
5.27144716479e-05
5.27345846556e-05
5.27619615425e-05
5.27958623165e-05
5.28355858697e-05
5.28804491837e-05
5.29297671645e-05
5.29828359469e-05
5.30389169848e-05
5.30972243577e-05
5.31569128846e-05
5.32170693806e-05
5.32767050041e-05
5.33347509881e-05
5.33900560821e-05
5.34413880075e-05
5.34874376153e-05
5.35268280109e-05
5.35581275332e-05
5.35798685739e-05
5.35905709424e-05
5.35887710374e-05
5.35730548017e-05
5.35420944649e-05
5.34946858652e-05
5.34297849513e-05
5.33465394713e-05
5.32443142946e-05
5.31227077006e-05
5.2981559432e-05
5.28209512834e-05
5.26412033054e-05
5.24428670889e-05
5.22266949879e-05
5.19933946751e-05
5.17438437008e-05
5.14789448888e-05
5.1199622734e-05
5.09068173088e-05
5.06014649116e-05
5.02844802766e-05
4.99567433545e-05
4.96190884018e-05
4.92722961811e-05
4.89170884803e-05
4.85541251427e-05
4.81840027401e-05
4.780725505e-05
4.7424354532e-05
4.70357150413e-05
4.66416951022e-05
4.6242602026e-05
4.58386962655e-05
4.54301962732e-05
4.50172832511e-05
4.46001059545e-05
4.41787847949e-05
4.37534150047e-05
4.3324067397e-05
4.28907852915e-05
4.24535752056e-05
4.20125235197e-05
4.15683512237e-05
4.1121880433e-05
4.06740372843e-05
4.02258413544e-05
3.97783802213e-05
3.93327668404e-05
3.88900747074e-05
3.84512447073e-05
3.80169566594e-05
3.75874591689e-05
3.71623519802e-05
3.67403171329e-05
3.6318798035e-05
3.58936305008e-05
3.54586361398e-05
3.50051970757e-05
3.45218409145e-05
3.39938762738e-05
3.34031309677e-05
3.27278568671e-05
3.19428770596e-05
3.10200628727e-05
2.99292422449e-05
2.86396603369e-05
2.71221445321e-05
2.53521799774e-05
2.33141972345e-05
2.10075360407e-05
1.84547858464e-05
1.57133633915e-05
1.28904763596e-05
1.01577116186e-05
7.75164219469e-06
7.37312564552e-05
7.36373563068e-05
7.34511505706e-05
7.31756891018e-05
7.28152290784e-05
7.23750590727e-05
7.18612805891e-05
7.12805826527e-05
7.0640028818e-05
6.99468698414e-05
6.92084002539e-05
6.84318638534e-05
6.76244100792e-05
6.67930883391e-05
6.59448674199e-05
6.50866591959e-05
6.42253327704e-05
6.33677030267e-05
6.2520488104e-05
6.16902302888e-05
6.08831860914e-05
6.01051906139e-05
5.93615110979e-05
5.86567009658e-05
5.79944723053e-05
5.73775970734e-05
5.68078506346e-05
5.62860002235e-05
5.58118427901e-05
5.53842848026e-05
5.50014597812e-05
5.46608692067e-05
5.43595388069e-05
5.40941747991e-05
5.38613139359e-05
5.36574555353e-05
5.34791741837e-05
5.33232063149e-05
5.31865140779e-05
5.3066323853e-05
5.29601463458e-05
5.28657789917e-05
5.27813006044e-05
5.2705016428e-05
5.26363996741e-05
5.25749545084e-05
5.25202285291e-05
5.24718057914e-05
5.24292935875e-05
5.2392305378e-05
5.23604457168e-05
5.23332954613e-05
5.23104002898e-05
5.22912598122e-05
5.22753196708e-05
5.22619641527e-05
5.22505116182e-05
5.22402106161e-05
5.2230238908e-05
5.22197035897e-05
5.22076444599e-05
5.21930391048e-05
5.21748117444e-05
5.21518444655e-05
5.21229926291e-05
5.20871029828e-05
5.20430357311e-05
5.19896886706e-05
5.19260238106e-05
5.18510939132e-05
5.17640684929e-05
5.16642562723e-05
5.15511234462e-05
5.14243054726e-05
5.12836130926e-05
5.11290325206e-05
5.09607228829e-05
5.07790127059e-05
5.05843961613e-05
5.03775356537e-05
5.01589729833e-05
4.9929346023e-05
4.96892972841e-05
4.94395051593e-05
4.91806428668e-05