/*--------------------------------*- C++ -*----------------------------------*\
| =========                 |                                                 |
| \\      /  F ield         | OpenFOAM: The Open Source CFD Toolbox           |
|  \\    /   O peration     | Version:  2206                                  |
|   \\  /    A nd           | Website:  www.openfoam.com                      |
|    \\/     M anipulation  |                                                 |
\*---------------------------------------------------------------------------*/
FoamFile
{
    version     2.0;
    format      ascii;
    arch        "LSB;label=64;scalar=64";
    class       volScalarField;
    location    "5/water";
    object      p;
}
// * * * * * * * * * * * * * * * * * * * * * * * * * * * * * * * * * * * * * //

dimensions      [1 -1 -2 0 0 0 0];

internalField   nonuniform List<scalar> 
23300
(
100731.46829
100731.507146
100731.498701
100731.486603
100731.471076
100731.452388
100731.43094
100731.407172
100731.381587
100731.354672
100731.326957
100731.298915
100731.271042
100731.243736
100731.217395
100731.192289
100731.168675
100731.146662
100731.126358
100731.107721
100731.090729
100731.075232
100731.061128
100731.048216
100731.036374
100731.025408
100731.015228
100731.005686
100730.996753
100730.988348
100730.980507
100730.973208
100730.966534
100730.960496
100730.955197
100730.950653
100730.946954
100730.944095
100730.942133
100730.941024
100730.940775
100730.941292
100730.942535
100730.944373
100730.946723
100730.949419
100730.952339
100730.955291
100730.958126
100730.960638
100730.96266
100730.963984
100730.964433
100730.963805
100730.961929
100730.958618
100730.953714
100730.947064
100730.938544
100730.928051
100730.915523
100730.900944
100730.884354
100730.865868
100730.845678
100730.824081
100730.80146
100730.778286
100730.754995
100730.731737
100730.708338
100730.684832
100730.661726
100730.639415
100730.617719
100730.596176
100730.574279
100730.551598
100730.527784
100730.502599
100730.475881
100730.44756
100730.417621
100730.386114
100730.353122
100730.318773
100730.283213
100730.246616
100730.209162
100730.171048
100730.13247
100730.093631
100730.05473
100730.015966
100729.97753
100729.93961
100729.902382
100729.866016
100729.83067
100729.79649
100729.76361
100729.732148
100729.70221
100729.673881
100729.647231
100729.622315
100729.59917
100729.577812
100729.558244
100729.540447
100729.52439
100729.510022
100729.497276
100729.486066
100729.476295
100729.467849
100729.460603
100729.454425
100729.449182
100729.444742
100729.440986
100729.437819
100729.43518
100729.433054
100729.43149
100729.430611
100729.430619
100729.431795
100729.434484
100729.439064
100729.445898
100729.455264
100729.46728
100729.481816
100729.498419
100729.516234
100729.533933
100729.549632
100729.560966
100729.626859
100723.450415
100723.490046
100723.485277
100723.477586
100723.467289
100723.454657
100723.440008
100723.423671
100723.406009
100723.387362
100723.368076
100723.348446
100723.328755
100723.309208
100723.289988
100723.271187
100723.252875
100723.235031
100723.217626
100723.200552
100723.183718
100723.166976
100723.150218
100723.133304
100723.116157
100723.098683
100723.08087
100723.062694
100723.044218
100723.025488
100723.006629
100722.98774
100722.96898
100722.950467
100722.932362
100722.914769
100722.897819
100722.88158
100722.866139
100722.851513
100722.837733
100722.824761
100722.812578
100722.801117
100722.790324
100722.780102
100722.770374
100722.761028
100722.751976
100722.743103
100722.734321
100722.725525
100722.716634
100722.707564
100722.698249
100722.688626
100722.678652
100722.66829
100722.657518
100722.646323
100722.634707
100722.622677
100722.610248
100722.597435
100722.584237
100722.57062
100722.556465
100722.541506
100722.525208
100722.506694
100722.48507
100722.460122
100722.432401
100722.402854
100722.372334
100722.341358
100722.310198
100722.278994
100722.247805
100722.216658
100722.185555
100722.154495
100722.123475
100722.092497
100722.061566
100722.0307
100721.99992
100721.969261
100721.938762
100721.908477
100721.878464
100721.848793
100721.819537
100721.79078
100721.762607
100721.735112
100721.708387
100721.682527
100721.657626
100721.633776
100721.611065
100721.589577
100721.569387
100721.550562
100721.533162
100721.517229
100721.502787
100721.489855
100721.47844
100721.468536
100721.46012
100721.453155
100721.447586
100721.443341
100721.440332
100721.438455
100721.437589
100721.437597
100721.438331
100721.439634
100721.441344
100721.443301
100721.445361
100721.447401
100721.44934
100721.45115
100721.452872
100721.45463
100721.456627
100721.459147
100721.462523
100721.467102
100721.473186
100721.480953
100721.490385
100721.501172
100721.512618
100721.523511
100721.531724
100721.599254
100715.362643
100715.40097
100715.396406
100715.388863
100715.378681
100715.366182
100715.351717
100715.335643
100715.318349
100715.300196
100715.281551
100715.262722
100715.244001
100715.225594
100715.207678
100715.19033
100715.173596
100715.157429
100715.141763
100715.126452
100715.111361
100715.096299
100715.081114
100715.065625
100715.049714
100715.033258
100715.016213
100714.998538
100714.980276
100714.961473
100714.942249
100714.922713
100714.903037
100714.88336
100714.863867
100714.844694
100714.826006
100714.807911
100714.790534
100714.773941
100714.7582
100714.743317
100714.729311
100714.716167
100714.703878
100714.692398
100714.681696
100714.671709
100714.662389
100714.653667
100714.645489
100714.637784
100714.630498
100714.623564
100714.616928
100714.610528
100714.604306
100714.598199
100714.592143
100714.586063
100714.579875
100714.573479
100714.566753
100714.559546
100714.551663
100714.542848
100714.532754
100714.520918
100714.50672
100714.489427
100714.468399
100714.44362
100714.415445
100714.38437
100714.351124
100714.316318
100714.280429
100714.243828
100714.206799
100714.169569
100714.132319
100714.0952
100714.058332
100714.02182
100713.985752
100713.950203
100713.915239
100713.880922
100713.847303
100713.814438
100713.782376
100713.751166
100713.72086
100713.691508
100713.663163
100713.635878
100713.609706
100713.584702
100713.560917
100713.538406
100713.517215
100713.49739
100713.478972
100713.461995
100713.446485
100713.432458
100713.41991
100713.408836
100713.399219
100713.39103
100713.384228
100713.378755
100713.374536
100713.371481
100713.369482
100713.368414
100713.368136
100713.368489
100713.369305
100713.370406
100713.371613
100713.372755
100713.37368
100713.374271
100713.374463
100713.37426
100713.37375
100713.373117
100713.372648
100713.372716
100713.373762
100713.376247
100713.380596
100713.387114
100713.395905
100713.406772
100713.419113
100713.431759
100713.442695
100713.515564
100707.293417
100707.330803
100707.325802
100707.317937
100707.307454
100707.294669
100707.279941
100707.263639
100707.246161
100707.227876
100707.209162
100707.190335
100707.171691
100707.15344
100707.135759
100707.118723
100707.102372
100707.086647
100707.071469
100707.056676
100707.042113
100707.027567
100707.012864
100706.997799
100706.982235
100706.966025
100706.949109
100706.93143
100706.91302
100706.893918
100706.874242
100706.854103
100706.833678
100706.813118
100706.792622
100706.772345
100706.752472
100706.733138
100706.714493
100706.696633
100706.679656
100706.663593
100706.648487
100706.634354
100706.621217
100706.60906
100706.597879
100706.587638
100706.578309
100706.569844
100706.5622
100706.555319
100706.549148
100706.543618
100706.538663
100706.534203
100706.530156
100706.526421
100706.522889
100706.519432
100706.5159
100706.512123
100706.507898
100706.502991
100706.497123
100706.489967
100706.48113
100706.470152
100706.456509
100706.439666
100706.41917
100706.395038
100706.367593
100706.337081
100706.303889
100706.268539
100706.231498
100706.193181
100706.153948
100706.11412
100706.073973
100706.033752
100705.99367
100705.953914
100705.914643
100705.875999
100705.838101
100705.801056
100705.764951
100705.729865
100705.695867
100705.663015
100705.631364
100705.60096
100705.571848
100705.544066
100705.517652
100705.49264
100705.46906
100705.446941
100705.426306
100705.407175
100705.389563
100705.373479
100705.358925
100705.345893
100705.334356
100705.324285
100705.315644
100705.308385
100705.302445
100705.297751
100705.294211
100705.291719
100705.290153
100705.289374
100705.289228
100705.289549
100705.29016
100705.290878
100705.291526
100705.291938
100705.291974
100705.291536
100705.290584
100705.289155
100705.287375
100705.285472
100705.283774
100705.282703
100705.282746
100705.284417
100705.288195
100705.294453
100705.303372
100705.314854
100705.328427
100705.343116
100705.357286
100705.433404
100699.234042
100699.271079
100699.265656
100699.257357
100699.246418
100699.233143
100699.217901
100699.201067
100699.183048
100699.164222
100699.144975
100699.125628
100699.106486
100699.087765
100699.069647
100699.052209
100699.035494
100699.019443
100699.003975
100698.988923
100698.974126
100698.959365
100698.944453
100698.929178
100698.913389
100698.896931
100698.879732
100698.861727
100698.842942
100698.823409
100698.803243
100698.782557
100698.761526
100698.74031
100698.719111
100698.698096
100698.677462
100698.657356
100698.637944
100698.619339
100698.601664
100698.58496
100698.569279
100698.554654
100698.541126
100698.528695
100698.517371
100698.50713
100698.497954
100698.4898
100698.482629
100698.476379
100698.470993
100698.46639
100698.462491
100698.459194
100698.456392
100698.453957
100698.451745
100698.449593
100698.447313
100698.444694
100698.441498
100698.437455
100698.432262
100698.425582
100698.417037
100698.406217
100698.392692
100698.376061
100698.35601
100698.332408
100698.305616
100698.275917
100698.243404
100698.208472
100698.171517
100698.132928
100698.093069
100698.052284
100698.010886
100697.969165
100697.927381
100697.885774
100697.844552
100697.803905
100697.763996
100697.724972
100697.686956
100697.650059
100697.614372
100697.579975
100697.546936
100697.515312
100697.48515
100697.456493
100697.429374
100697.403819
100697.379851
100697.357486
100697.336734
100697.3176
100697.300082
100697.284174
100697.269859
100697.257113
100697.24589
100697.236143
100697.227821
100697.22086
100697.215183
100697.210703
100697.207317
100697.204907
100697.203341
100697.202474
100697.202147
100697.20219
100697.202427
100697.202679
100697.202776
100697.202566
100697.201923
100697.200771
100697.199093
100697.196949
100697.194494
100697.191979
100697.189756
100697.188271
100697.188033
100697.189584
100697.193442
100697.200035
100697.209624
100697.222216
100697.237484
100697.254671
100697.272481
100697.349332
100691.181734
100691.218564
100691.212728
100691.20394
100691.19244
100691.178532
100691.162591
100691.144996
100691.126166
100691.106487
100691.086355
100691.066099
100691.046037
100691.02639
100691.007351
100690.989003
100690.9714
100690.954485
100690.938184
100690.922333
100690.906774
100690.891284
100690.875681
100690.859746
100690.843328
100690.826268
100690.808489
100690.789924
100690.770593
100690.750526
100690.729836
100690.708632
100690.68709
100690.665368
100690.643671
100690.622169
100690.601062
100690.580503
100690.560664
100690.541664
100690.523649
100690.506661
100690.490747
100690.475949
100690.462316
100690.449854
100690.438581
100690.428475
100690.419522
100690.411678
100690.404902
100690.399126
100690.394285
100690.390287
100690.387038
100690.38442
100690.382308
100690.380553
100690.378991
100690.377436
100690.375681
100690.373496
100690.370628
100690.366798
100690.361702
100690.355014
100690.346384
100690.335451
100690.321856
100690.30528
100690.285478
100690.262322
100690.235956
100690.206784
100690.174973
100690.140641
100690.104123
100690.065768
100690.025917
100689.984906
100689.943052
100689.90066
100689.858009
100689.815365
100689.772964
100689.731025
100689.689744
100689.649295
100689.60983
100689.571487
100689.53438
100689.49861
100689.464262
100689.431408
100689.400107
100689.370407
100689.342345
100689.315952
100689.291247
100689.268244
100689.246946
100689.227352
100689.209451
100689.193226
100689.178652
100689.165692
100689.154287
100689.144377
100689.135901
100689.128783
100689.122938
100689.118269
100689.114664
100689.112001
100689.110142
100689.10894
100689.108233
100689.107856
100689.107635
100689.107402
100689.106996
100689.106277
100689.10514
100689.103523
100689.10143
100689.09894
100689.096223
100689.093545
100689.091273
100689.08986
100689.08983
100689.091743
100689.096147
100689.10352
100689.114192
100689.128266
100689.145529
100689.165372
100689.186683
100689.261896
100683.135763
100683.172375
100683.166089
100683.156736
100683.144559
100683.129866
100683.113033
100683.094451
100683.074548
100683.053719
100683.032374
100683.010854
100682.989489
100682.968515
100682.948136
100682.928448
100682.909516
100682.891295
100682.873719
100682.856633
100682.839884
100682.823259
100682.806577
100682.789626
100682.772254
100682.754305
100682.735702
100682.716378
100682.696352
100682.675651
100682.654384
100682.632657
100682.610644
100682.588498
100682.566422
100682.544581
100682.523175
100682.502356
100682.482296
100682.463114
100682.44496
100682.427888
100682.411943
100682.397152
100682.383565
100682.371194
100682.360055
100682.350128
100682.341397
100682.333816
100682.327338
100682.32189
100682.317397
100682.31376
100682.310871
100682.308603
100682.306815
100682.305346
100682.304019
100682.302635
100682.30098
100682.298814
100682.295883
100682.291909
100682.286598
100682.279641
100682.27072
100682.259514
100682.24572
100682.229074
100682.209377
100682.186529
100682.160524
100682.131638
100682.100257
100682.066493
100682.030476
100681.992512
100681.952915
100681.912001
100681.870076
100681.827443
100681.784387
100681.74118
100681.698074
100681.655304
100681.613083
100681.571607
100681.531048
100681.491563
100681.453287
100681.416338
100681.380818
100681.346813
100681.314395
100681.283621
100681.254538
100681.22718
100681.201571
100681.177726
100681.155647
100681.135331
100681.116764
100681.099925
100681.084784
100681.071296
100681.059394
100681.04901
100681.040074
100681.032507
100681.026217
100681.021101
100681.017045
100681.013922
100681.011595
100681.009917
100681.008729
100681.00787
100681.007176
100681.006486
100681.005653
100681.004551
100681.003089
100681.001224
100680.998973
100680.99643
100680.993776
100680.991285
100680.989329
100680.988365
100680.988924
100680.991575
100680.99689
100681.00538
100681.017428
100681.033199
100681.052547
100681.074918
100681.099224
100681.171052
100675.095683
100675.13197
100675.12519
100675.115188
100675.102214
100675.086578
100675.068665
100675.048872
100675.027639
100675.005376
100674.982505
100674.959386
100674.936364
100674.913691
100674.891591
100674.870175
100674.849522
100674.829602
100674.810364
100674.791664
100674.773361
100674.75525
100674.737159
100674.718883
100674.700278
100674.68119
100674.661547
100674.641281
100674.620412
100674.598964
100674.577044
100674.554753
100674.532257
100674.509704
100674.487288
100674.465171
100674.443544
100674.422555
100674.402371
100674.383109
100674.364901
100674.34783
100674.331944
100674.317232
100674.303747
100674.291498
100674.280501
100674.270734
100674.262177
100674.254781
100674.248494
100674.243238
100674.238929
100674.235461
100674.23272
100674.230566
100674.228853
100674.227409
100674.226051
100674.224575
100674.22276
100674.220369
100674.217147
100674.212827
100674.207126
100674.199756
100674.190425
100674.17885
100674.164766
100674.147951
100674.128235
100674.105529
100674.079829
100674.051207
100674.019994
100673.986554
100673.950978
100673.913409
100673.874125
100673.833423
100673.791592
100673.748925
100673.705703
100673.662199
100673.61867
100673.575357
100673.532486
100673.490263
100673.448875
100673.408493
100673.369266
100673.331328
100673.294794
100673.259763
100673.226318
100673.194527
100673.164444
100673.136113
100673.10956
100673.084805
100673.061854
100673.040704
100673.021341
100673.003743
100672.987877
100672.973699
100672.961135
100672.95011
100672.940552
100672.932377
100672.925493
100672.919795
100672.915167
100672.911484
100672.908611
100672.906403
100672.904707
100672.90337
100672.902235
100672.901155
100672.899993
100672.898639
100672.897017
100672.895096
100672.892908
100672.890556
100672.888229
100672.886206
100672.884857
100672.884639
100672.886081
100672.889757
100672.896245
100672.906077
100672.919662
100672.937193
100672.958535
100672.98311
100673.00973
100673.077123
100667.061236
100667.097019
100667.089695
100667.078959
100667.065066
100667.048331
100667.029147
100667.007921
100666.985106
100666.961127
100666.936426
100666.91138
100666.886359
100666.861633
100666.837448
100666.813937
100666.791197
100666.769216
100666.74796
100666.727299
100666.707108
100666.687193
100666.667393
100666.647513
100666.627417
100666.606957
100666.586065
100666.564675
100666.542807
100666.520483
100666.497804
100666.474865
100666.451825
100666.428822
100666.406041
100666.383634
100666.361782
100666.340626
100666.320323
100666.300985
100666.282735
100666.265678
100666.249851
100666.235212
100666.22181
100666.209654
100666.198753
100666.189084
100666.180624
100666.173319
100666.167113
100666.161922
100666.157658
100666.154208
100666.151451
100666.149243
100666.14743
100666.145836
100666.144275
100666.142538
100666.140407
100666.137644
100666.134002
100666.129222
100666.123036
100666.115173
100666.105368
100666.093365
100666.07893
100666.06187
100666.04204
100666.019358
100665.993812
100665.965465
100665.934438
100665.901064
100665.865696
100665.828451
100665.789464
100665.748989
100665.707307
100665.664694
100665.621426
100665.57777
100665.533984
100665.490313
100665.446985
100665.404215
100665.362199
100665.321117
100665.281128
100665.242378
100665.204992
100665.16908
100665.134735
100665.102033
100665.071038
100665.041799
100665.014349
100664.988712
100664.964898
100664.942906
100664.922726
100664.904335
100664.887702
100664.872784
100664.859505
100664.847784
100664.837548
100664.828713
100664.821187
100664.814865
100664.809635
100664.805373
100664.801948
100664.799221
100664.797047
100664.795279
100664.793773
100664.792392
100664.791013
100664.78954
100664.787908
100664.786101
100664.784162
100664.782201
100664.78041
100664.77907
100664.778545
100664.779289
100664.78182
100664.786707
100664.794524
100664.805804
100664.820957
100664.840171
100664.863283
100664.889628
100664.917837
100664.980318
100659.032299
100659.067339
100659.059419
100659.047862
100659.032926
100659.014934
100658.994287
100658.971402
100658.94675
100658.920772
100658.893934
100658.866636
100658.839273
100658.812142
100658.785515
100658.759548
100658.734364
100658.70997
100658.686353
100658.663401
100658.641003
100658.618981
100658.597186
100658.575433
100658.553595
100658.531532
100658.509179
100658.486473
100658.463432
100658.440075
100658.416498
100658.392789
100658.369095
100658.345545
100658.322313
100658.299539
100658.277393
100658.256004
100658.23552
100658.216044
100658.197687
100658.180582
100658.164752
100658.150126
100658.136745
100658.124609
100658.113727
100658.104071
100658.095614
100658.0883
100658.082067
100658.076829
100658.072492
100658.068939
100658.066044
100658.063659
100658.061626
100658.059766
100658.057891
100658.055792
100658.053252
100658.050037
100658.045906
100658.04061
100658.033894
100658.025505
100658.015197
100658.002738
100657.987919
100657.970568
100657.950557
100657.927813
100657.90232
100657.874128
100657.843339
100657.810117
100657.774737
100657.737581
100657.698825
100657.658568
100657.617042
100657.574515
100657.53126
100657.487536
100657.443598
100657.399691
100657.356045
100657.312878
100657.270391
100657.22877
100657.188185
100657.148785
100657.110707
100657.074066
100657.038964
100657.005486
100656.973702
100656.943665
100656.915417
100656.888984
100656.864382
100656.841613
100656.820668
100656.801528
100656.784164
100656.768537
100656.754571
100656.742178
100656.731286
100656.721813
100656.713669
100656.706751
100656.700951
100656.696149
100656.692219
100656.689029
100656.686443
100656.684323
100656.682535
100656.680954
100656.679472
100656.678002
100656.676495
100656.674945
100656.673401
100656.671982
100656.67088
100656.670371
100656.670815
100656.672651
100656.676386
100656.68257
100656.691764
100656.704484
100656.721122
100656.741838
100656.766407
100656.794047
100656.82317
100656.880656
100651.008856
100651.042859
100651.034289
100651.021819
100651.005716
100650.986304
100650.963996
100650.939222
100650.912469
100650.884201
100650.854909
100650.825022
100650.794966
100650.765069
100650.735635
100650.706848
100650.678858
100650.651699
100650.625378
100650.599803
100650.574881
100650.550449
100650.526371
100650.502474
100650.478638
100650.45473
100650.43069
100650.406455
100650.382042
100650.357467
100650.332817
100650.308173
100650.283671
100650.259429
100650.235608
100650.212336
100650.18977
100650.16803
100650.147251
100650.127527
100650.108962
100650.091666
100650.0757
100650.061006
100650.047553
100650.035345
100650.024386
100650.014646
100650.006096
100649.998674
100649.992317
100649.986935
100649.982429
100649.978681
100649.975559
100649.972913
100649.970582
100649.968386
100649.966135
100649.963621
100649.960628
100649.956928
100649.952286
100649.946461
100649.93921
100649.930297
100649.91949
100649.906577
100649.89137
100649.873711
100649.853487
100649.83063
100649.805126
100649.777013
100649.746382
100649.713368
100649.678166
100649.640954
100649.602207
100649.562131
100649.520731
100649.478311
100649.435103
100649.391369
100649.347355
100649.303305
100649.259449
100649.216006
100649.17318
100649.131163
100649.090126
100649.050228
100649.011609
100648.974391
100648.938683
100648.904575
100648.872141
100648.841443
100648.812525
100648.785419
100648.760143
100648.736703
100648.715093
100648.695297
100648.677285
100648.66103
100648.646458
100648.63347
100648.621997
100648.61196
100648.60327
100648.59583
100648.589534
100648.584269
100648.579914
100648.576346
100648.573436
100648.571057
100648.569086
100648.567408
100648.565928
100648.564572
100648.563299
100648.562115
100648.561075
100648.5603
100648.559982
100648.560391
100648.561874
100648.564855
100648.56982
100648.577299
100648.587825
100648.601886
100648.619842
100648.641808
100648.667483
100648.695954
100648.725407
100648.778045
100642.990965
100643.023592
100643.014315
100643.00084
100642.983438
100642.962439
100642.938265
100642.91136
100642.88223
100642.851364
100642.819284
100642.786453
100642.753334
100642.720292
100642.687667
100642.655677
100642.624507
100642.594215
100642.564834
100642.536294
100642.50852
100642.481363
100642.454703
100642.428375
100642.402268
100642.376254
100642.350277
100642.324274
100642.29826
100642.272245
100642.246311
100642.220526
100642.195018
100642.169892
100642.145297
100642.121349
100642.098192
100642.075934
100642.054701
100642.034576
100642.01566
100641.998012
100641.981766
100641.96688
100641.953241
100641.940851
100641.929711
100641.919788
100641.911049
100641.903431
100641.896867
100641.891262
100641.886518
100641.88251
100641.879105
100641.876151
100641.873484
100641.870922
100641.868274
100641.865334
100641.861888
100641.857712
100641.852576
100641.846248
100641.838495
100641.829092
100641.817824
100641.804492
100641.788922
100641.770973
100641.750538
100641.727558
100641.702015
100641.673945
100641.643425
100641.610579
100641.575561
100641.538567
100641.499813
100641.459692
100641.418427
100641.376101
100641.332995
100641.289308
100641.245288
100641.201179
100641.15721
100641.113601
100641.070556
100641.02827
100640.986919
100640.946663
100640.907648
100640.870003
100640.833837
100640.799248
100640.766314
100640.7351
100640.705655
100640.678014
100640.652199
100640.628218
100640.606068
100640.585735
100640.567192
100640.550419
100640.53535
100640.521875
100640.509927
100640.499429
100640.490295
100640.482433
100640.475741
100640.470112
100640.465431
100640.461583
100640.458448
100640.455908
100640.45385
100640.452172
100640.450787
100640.449634
100640.448681
100640.447941
100640.447473
100640.447401
100640.447911
100640.449265
100640.451796
100640.455908
100640.462064
100640.470762
100640.482506
100640.497745
100640.5168
100640.539728
100640.566153
100640.595029
100640.624334
100640.672384
100634.978745
100635.009613
100634.999568
100634.984993
100634.966159
100634.943399
100634.917144
100634.887852
100634.856052
100634.822259
100634.787033
100634.750876
100634.714294
100634.677698
100634.641471
100634.605872
100634.571118
100634.537301
100634.504482
100634.472611
100634.441634
100634.411417
100634.381851
100634.35278
100634.324103
100634.295695
100634.2675
100634.239456
100634.211576
100634.183862
100634.156389
100634.129217
100634.102462
100634.076219
100634.050622
100634.025777
100634.001816
100633.978835
100633.95695
100633.936235
100633.916779
100633.898627
100633.881962
100633.866729
100633.852775
100633.840087
100633.82866
100633.818459
100633.809447
100633.801558
100633.794722
100633.788842
100633.783816
100633.779516
100633.775807
100633.772533
100633.769528
100633.76661
100633.763587
100633.760252
100633.756394
100633.751792
100633.74622
100633.739453
100633.731267
100633.721447
100633.709789
100633.696107
100633.680238
100633.662052
100633.64145
100633.618376
100633.592815
100633.564796
100633.534391
100633.501708
100633.466896
100633.43013
100633.391611
100633.351601
100633.310303
100633.268079
100633.225107
100633.181507
100633.137561
100633.09348
100633.049497
100633.005828
100632.962681
100632.92025
100632.878715
100632.838239
100632.79897
100632.761041
100632.724565
100632.689643
100632.656358
100632.624776
100632.594951
100632.566921
100632.540709
100632.516327
100632.493775
100632.473039
100632.454097
100632.436922
100632.421472
100632.407638
100632.395338
100632.384499
100632.375039
100632.366869
100632.359892
100632.354006
100632.349106
100632.34508
100632.341818
100632.339212
100632.337158
100632.335564
100632.334353
100632.333472
100632.332899
100632.33265
100632.332791
100632.33344
100632.334781
100632.337062
100632.340602
100632.345782
100632.353036
100632.36283
100632.375631
100632.391849
100632.411754
100632.435352
100632.462187
100632.491093
100632.519871
100632.56364
100626.972355
100627.001037
100626.990168
100626.974398
100626.953995
100626.929295
100626.900734
100626.868784
100626.833997
100626.796924
100626.758161
100626.718261
100626.677782
100626.637185
100626.596906
100626.557248
100626.518473
100626.480705
100626.444034
100626.408435
100626.373871
100626.340224
100626.307395
100626.275238
100626.243656
100626.212526
100626.181795
100626.151399
100626.121344
100626.091631
100626.062324
100626.033476
100626.005192
100625.977556
100625.950692
100625.924693
100625.899682
100625.875745
100625.852987
100625.831476
100625.811291
100625.792469
100625.775167
100625.759396
100625.745019
100625.731931
100625.720126
100625.709567
100625.700216
100625.692003
100625.684857
100625.678676
100625.673355
100625.668764
100625.664765
100625.661198
100625.657896
100625.654673
100625.651337
100625.647681
100625.643494
100625.638557
100625.632648
100625.625548
100625.617039
100625.606914
100625.594977
100625.581053
100625.564988
100625.546659
100625.525975
100625.502882
100625.477365
100625.449452
100625.419206
100625.386731
100625.352162
100625.315665
100625.277435
100625.237675
100625.196635
100625.154509
100625.111632
100625.068229
100625.024392
100624.980455
100624.936569
100624.892953
100624.849825
100624.807376
100624.765789
100624.725229
100624.685846
100624.647776
100624.611136
100624.576028
100624.542537
100624.510735
100624.480676
100624.452401
100624.425936
100624.401295
100624.378478
100624.357475
100624.338264
100624.320815
100624.305109
100624.291046
100624.278522
100624.267465
100624.257798
100624.249436
100624.242286
100624.236254
100624.231237
100624.227132
100624.223838
100624.221253
100624.219282
100624.217843
100624.216867
100624.216309
100624.216153
100624.21642
100624.217176
100624.218537
100624.220678
100624.223837
100624.228312
100624.234461
100624.242688
100624.253426
100624.2671
100624.284078
100624.304584
100624.328566
100624.355501
100624.384117
100624.412075
100624.451875
100618.971985
100618.998025
100618.986275
100618.969216
100618.94711
100618.920285
100618.889182
100618.854288
100618.816178
100618.775435
100618.732709
100618.688605
100618.643745
100618.598652
100618.553821
100618.50961
100618.466326
100618.424134
100618.383154
100618.343384
100618.304807
100618.267317
100618.230827
100618.195194
100618.160327
100618.126105
100618.092474
100618.059366
100618.026786
100617.994726
100617.963246
100617.932388
100617.90225
100617.872906
100617.844472
100617.817029
100617.790692
100617.765538
100617.741665
100617.719133
100617.698015
100617.678349
100617.660195
100617.643698
100617.628781
100617.61519
100617.602925
100617.591946
100617.582209
100617.573645
100617.566176
100617.5597
100617.554107
100617.549262
100617.545025
100617.541233
100617.537714
100617.53428
100617.530737
100617.526877
100617.522489
100617.517353
100617.511252
100617.503967
100617.495288
100617.485011
100617.47295
100617.458934
100617.442819
100617.424485
100617.403848
100617.380856
100617.355495
100617.327788
100617.297796
100617.265614
100617.231371
100617.195225
100617.157356
100617.117966
100617.07727
100617.035493
100616.992933
100616.949672
100616.906122
100616.862462
100616.818722
100616.775295
100616.732317
100616.689983
100616.648482
100616.607979
100616.568626
100616.530559
100616.493899
100616.458751
100616.425201
100616.393323
100616.363174
100616.334797
100616.308219
100616.283456
100616.260509
100616.23937
100616.220018
100616.202421
100616.186585
100616.172418
100616.159791
100616.148635
100616.138877
100616.130435
100616.123221
100616.117144
100616.112108
100616.108017
100616.104774
100616.102286
100616.100467
100616.09924
100616.098546
100616.098345
100616.098626
100616.099413
100616.10077
100616.10281
100616.1057
100616.109663
100616.114979
100616.121978
100616.131037
100616.142551
100616.156906
100616.174426