/*--------------------------------*- C++ -*----------------------------------*\
| =========                 |                                                 |
| \\      /  F ield         | OpenFOAM: The Open Source CFD Toolbox           |
|  \\    /   O peration     | Version:  2206                                  |
|   \\  /    A nd           | Website:  www.openfoam.com                      |
|    \\/     M anipulation  |                                                 |
\*---------------------------------------------------------------------------*/
FoamFile
{
    version     2.0;
    format      ascii;
    arch        "LSB;label=64;scalar=64";
    class       surfaceScalarField;
    location    "5/water";
    object      phi;
}
// * * * * * * * * * * * * * * * * * * * * * * * * * * * * * * * * * * * * * //

dimensions      [0 3 -1 0 0 0 0];

oriented        oriented;

internalField   nonuniform List<scalar> 
46280
(
-2.66582259346e-10
2.66561229815e-10
-5.41813324996e-10
2.7522467407e-10
-8.27773731794e-10
2.85926044458e-10
-1.12804685055e-09
3.00268757801e-10
-1.44672555579e-09
3.18641443702e-10
-1.78780199892e-09
3.4107470123e-10
-2.1553225077e-09
3.67477555282e-10
-2.55303813078e-09
3.97715325874e-10
-2.98467012337e-09
4.31587240429e-10
-3.45352304451e-09
4.68854449973e-10
-3.96275871285e-09
5.09192876646e-10
-4.51497134374e-09
5.52215885858e-10
-5.11243425468e-09
5.97423550916e-10
-5.75665715383e-09
6.4422783856e-10
-6.44860213806e-09
6.91909047021e-10
-7.18824608866e-09
7.39650283492e-10
-7.97478678028e-09
7.86507491885e-10
-8.80623736763e-09
8.31458127731e-10
-9.67965655827e-09
8.73388005694e-10
-1.0590803493e-08
9.11155691802e-10
-1.15344279791e-08
9.43594780283e-10
-1.25040083071e-08
9.69590394886e-10
-1.34921266649e-08
9.88089780429e-10
-1.44902968825e-08
9.98181709906e-10
-1.54894280543e-08
9.99103509372e-10
-1.64797258823e-08
9.90310797494e-10
-1.74512207563e-08
9.7146799288e-10
-1.83937036136e-08
9.42497293526e-10
-1.92972739813e-08
9.03544186078e-10
-2.01522596966e-08
8.55001510026e-10
-2.09497357127e-08
7.97450478025e-10
-2.16813840346e-08
7.3166530194e-10
-2.23399482372e-08
6.58539273567e-10
-2.29190124708e-08
5.7908214715e-10
-2.34133811959e-08
4.94344384586e-10
-2.38187818917e-08
4.05419257161e-10
-2.41321805664e-08
3.13374922753e-10
-2.43514291179e-08
2.1926743995e-10
-2.44755362103e-08
1.24083946006e-10
-2.45042848412e-08
2.87675343708e-11
-2.44384880819e-08
-6.58192644276e-11
-2.42795896002e-08
-1.58879869204e-10
-2.40299044599e-08
-2.49706954994e-10
-2.36922391148e-08
-3.37647284425e-10
-2.32701283851e-08
-4.22131793126e-10
-2.27674746649e-08
-5.02636429817e-10
-2.21887781155e-08
-5.78716796539e-10
-2.15387925903e-08
-6.49969156014e-10
-2.08227478357e-08
-7.16064122201e-10
-2.00460233904e-08
-7.76709095838e-10
-1.92143598685e-08
-8.31681957727e-10
-1.83335496825e-08
-8.80795893354e-10
-1.74096337798e-08
-9.23933369384e-10
-1.6448606923e-08
-9.61013619108e-10
-1.54565967841e-08
-9.92026619009e-10
-1.44395816302e-08
-1.01700293047e-09
-1.34035501719e-08
-1.0360469525e-09
-1.23542306399e-08
-1.04930826667e-09
-1.12972321158e-08
-1.05701304963e-09
-1.02377859937e-08
-1.05943574284e-09
-9.18087181799e-09
-1.05692775894e-09
-8.13097249339e-09
-1.04988975824e-09
-7.09218461756e-09
-1.03880054533e-09
-6.0679782957e-09
-1.02419749054e-09
-5.06126951719e-09
-1.00672055273e-09
-4.07413541347e-09
-9.87125930475e-10
-3.10776276094e-09
-9.66383526059e-10
-2.16197873515e-09
-9.45776413088e-10
-1.23488283216e-09
-9.27105854117e-10
-3.22047106496e-10
-9.12828535997e-10
5.83613282649e-10
-9.05669416809e-10
1.49056226559e-09
-9.06942046614e-10
2.40600281256e-09
-9.15448666191e-10
3.33481461377e-09
-9.28804958756e-10
4.27982836641e-09
-9.4502096706e-10
5.24246993895e-09
-9.62634690188e-10
6.2230153055e-09
-9.80551666911e-10
7.2209054233e-09
-9.97883089223e-10
8.23478013914e-09
-1.0138800916e-09
9.26266234163e-09
-1.0278749435e-09
1.03019377149e-08
-1.03927981921e-09
1.13495086308e-08
-1.04756336962e-09
1.24017696867e-08
-1.05226457684e-09
1.34547540076e-08
-1.05297645485e-09
1.45041128018e-08
-1.04936140585e-09
1.55452571897e-08
-1.04113619407e-09
1.65733420137e-08
-1.02808655258e-09
1.75834026703e-08
-1.01005214414e-09
1.85703412214e-08
-9.86939431473e-10
1.95290557561e-08
-9.5870572763e-10
2.04544255259e-08
-9.25369843006e-10
2.13414297527e-08
-8.86995157459e-10
2.21851288743e-08
-8.43698433302e-10
2.29807707382e-08
-7.95632571357e-10
2.37237665389e-08
-7.42994399574e-10
2.44097839627e-08
-6.86007948888e-10
2.50347180066e-08
-6.24931980683e-10
2.55947720699e-08
-5.60044448879e-10
2.60864250041e-08
-4.91650260417e-10
2.6506501948e-08
-4.20067232468e-10
2.6852139276e-08
-3.45634095705e-10
2.71208465683e-08
-2.68697526464e-10
2.73104694602e-08
-1.89619152833e-10
2.7419240199e-08
-1.08760960063e-10
2.7445731424e-08
-2.64870307803e-11
2.73889042517e-08
5.68369233784e-11
2.72480551245e-08
1.40853726051e-10
2.70228653859e-08
2.2519942285e-10
2.67133772892e-08
3.09493051095e-10
2.63200485768e-08
3.93338292688e-10
2.58437380917e-08
4.76315748497e-10
2.52857586974e-08
5.57988836265e-10
2.46478705375e-08
6.37893689564e-10
2.39323389115e-08
7.15540899177e-10
2.31419428793e-08
7.90401790709e-10
2.2280047255e-08
8.61904703529e-10
2.13506364209e-08
9.29416791397e-10
2.03584099149e-08
9.92235371599e-10
1.93088475512e-08
1.04956849857e-09
1.82083270563e-08
1.10052913438e-09
1.70642049106e-08
1.14412844518e-09
1.58849194829e-08
1.17929383313e-09
1.46800241059e-08
1.20490182961e-09
1.34601841976e-08
1.21984807678e-09
1.22370503388e-08
1.22314045216e-09
1.1023035616e-08
1.21402266047e-09
9.83094289026e-09
1.19209945458e-09
8.67349902472e-09
1.15745160308e-09
7.5628015281e-09
1.11070438397e-09
6.50976957556e-09
1.0530395452e-09
5.52363994482e-09
9.86136687083e-10
4.61158373403e-09
9.12063663423e-10
3.77845185337e-09
8.33139031836e-10
3.02664671229e-09
7.5181243542e-10
2.35604929998e-09
6.70604639817e-10
1.76389734255e-09
5.92159088609e-10
1.24444366952e-09
5.1946031943e-10
7.88153660735e-10
4.56296394295e-10
3.80172857234e-10
4.07987352978e-10
3.80174706825e-10
-2.88668945795e-10
5.55211384482e-10
-5.81139412847e-10
5.67680959812e-10
-8.83237907803e-10
5.87998109505e-10
-1.19962547043e-09
6.16642837938e-10
-1.53476235042e-09
6.53750229024e-10
-1.89289543266e-09
6.99195779249e-10
-2.27815709969e-09
7.52709015831e-10
-2.69437961571e-09
8.13926755965e-10
-3.14520908756e-09
8.82386991054e-10
-3.63389014925e-09
9.57525531804e-10
-4.16336792962e-09
1.03864252502e-09
-4.73604783794e-09
1.12488771316e-09
-5.35387483453e-09
1.21522507354e-09
-6.01807885337e-09
1.30842545876e-09
-6.72923697024e-09
1.40304422858e-09
-7.4870246696e-09
1.49743299942e-09
-8.29027924362e-09
1.58974118429e-09
-9.13677920007e-09
1.67795432362e-09
-1.0023335008e-08
1.75992452907e-09
-1.09456188829e-08
1.83343697423e-09
-1.18983087791e-08
1.89626670172e-09
-1.28749861441e-08
1.94626636661e-09
-1.38683507841e-08
1.9814375742e-09
-1.48701929959e-08
2.00002378118e-09
-1.58716815445e-08
2.00057624756e-09
-1.68633997962e-08
1.98203018834e-09
-1.78356896422e-08
1.94374298308e-09
-1.87787233751e-08
1.88553342347e-09
-1.96828694246e-08
1.80767627761e-09
-2.05387598208e-08
1.7108954808e-09
-2.13376363369e-08
1.59631385227e-09
-2.20713740805e-08
1.46540766203e-09
-2.27327736945e-08
1.31992649033e-09
-2.33155159189e-08
1.16182984829e-09
-2.38143837447e-08
9.93200462702e-10
-2.42251441261e-08
8.16185763613e-10
-2.45447044869e-08
6.32924111034e-10
-2.47709361437e-08
4.45505645924e-10
-2.49027833278e-08
2.55920450578e-10
-2.49400523325e-08
6.60432905474e-11
-2.48834830771e-08
-1.22398758559e-10
-2.47345161924e-08
-3.07840004887e-10
-2.44953700688e-08
-4.88862928485e-10
-2.4168821685e-08
-6.64189097079e-10
-2.3758277625e-08
-8.32685332506e-10
-2.32675640715e-08
-9.93343725576e-10
-2.27010023606e-08
-1.1452876312e-09
-2.20632133915e-08
-1.2877522733e-09
-2.13591945846e-08
-1.420091685e-09
-2.05941370249e-08
-1.54176126032e-09
-1.97735001785e-08
-1.65232718452e-09
-1.89028389587e-08
-1.75145219022e-09
-1.79878723099e-08
-1.83890800118e-09
-1.70343170233e-08
-1.91456444361e-09
-1.60479468119e-08
-1.97840440773e-09
-1.50344301728e-08
-2.03051553971e-09
-1.39993778969e-08
-2.07110638711e-09
-1.29481834274e-08
-2.10049910041e-09
-1.18860583769e-08
-2.11914484305e-09
-1.08178750139e-08
-2.12761582371e-09
-9.74818994185e-09
-2.12661915579e-09
-8.68108690256e-09
-2.11698982727e-09
-7.62018428403e-09
-2.09970907672e-09
-6.56846764855e-09
-2.07591142699e-09
-5.52826389012e-09
-2.04692980454e-09
-4.50103968937e-09
-2.01434765908e-09
-3.48732381939e-09
-1.98010445068e-09
-2.48649014362e-09
-1.94660778453e-09
-1.49676710435e-09
-1.91683346035e-09
-5.15409312939e-10
-1.89418410087e-09
4.60689282001e-10
-1.88177203648e-09
1.4350240731e-09
-1.88127457321e-09
2.41139992831e-09
-1.89182794577e-09
3.39351230146e-09
-1.91091490599e-09
4.38427165849e-09
-1.93578310145e-09
5.38558811436e-09
-1.96394844703e-09
6.39833645872e-09
-1.99330209788e-09
7.42249853054e-09
-2.0220420967e-09
8.45722742574e-09
-2.04861035371e-09
9.50099356651e-09
-2.07163758589e-09
1.05516339019e-08
-2.08992078152e-09
1.16064745016e-08
-2.10239999151e-09
1.26623647025e-08
-2.10815466285e-09
1.37157836579e-08
-2.10639093142e-09
1.47628660794e-08
-2.09644297886e-09
1.57994985248e-08
-2.07776365783e-09
1.68213407536e-08
-2.04992722298e-09
1.78239148337e-08
-2.01262075476e-09
1.88026236165e-08
-1.9656459757e-09
1.97528332142e-08
-1.90890939405e-09
2.06698879817e-08
-1.84242173136e-09
2.15491852896e-08
-1.76628610734e-09
2.23861855715e-08
-1.68069523677e-09
2.31764781782e-08
-1.58591843301e-09
2.39157855671e-08
-1.4822977576e-09
2.46000198774e-08
-1.3702351701e-09
2.52252813847e-08
-1.25018895069e-09
2.57879064746e-08
-1.12266214997e-09
2.62844614154e-08
-9.88200206657e-10
2.67117831135e-08
-8.473812872e-10
2.70669697255e-08
-7.0081530333e-10
2.73474158836e-08
-5.49135831335e-10
2.75508020962e-08
-3.9299960054e-10
2.76751276698e-08
-2.33078515641e-10
2.77187062051e-08
-7.00594879058e-11
2.76801862772e-08
9.53649901625e-11
2.75585354179e-08
2.62510928538e-10
2.73530789554e-08
4.30664101556e-10
2.70635119155e-08
5.9906665398e-10
2.6689938753e-08
7.66919707609e-10
2.62328862878e-08
9.33374952025e-10
2.56933532881e-08
1.09753008598e-09
2.50728369217e-08
1.25841692975e-09
2.43733940803e-08
1.41499195355e-09
2.35976834579e-08
1.56611938703e-09
2.27490398564e-08
1.71055645175e-09
2.18315306394e-08
1.84693305461e-09
2.0850037349e-08
1.97373672043e-09
1.98103138945e-08
2.08929905211e-09
1.87190534322e-08
2.19179755206e-09
1.75839149318e-08
2.27927408591e-09
1.64135306422e-08
2.34968596651e-09
1.52174480065e-08
2.40099163726e-09
1.4006023302e-08
2.43128050893e-09
1.27902337081e-08
2.43893724033e-09
1.15814337056e-08
2.42283027858e-09
1.03910461201e-08
2.38249425955e-09
9.23022729409e-09
2.31827796203e-09
8.10951592916e-09
2.23142303077e-09
7.03850609904e-09
2.12405688426e-09
6.02555388574e-09
1.99909627067e-09
5.07753846801e-09
1.86008657342e-09
4.19966636693e-09
1.71101854354e-09
3.39530302866e-09
1.55618317946e-09
2.66578687302e-09
1.40012823048e-09
2.01017206251e-09
1.24778122551e-09
1.42483921711e-09
1.10479997592e-09
9.02938128712e-10
9.78204023013e-10
4.33841632181e-10
8.77090475453e-10
8.1401820305e-10
-3.12773273147e-10
8.67963825105e-10
-6.27723660726e-10
8.82616160517e-10
-9.51623338866e-10
9.11870490774e-10
-1.28991457478e-09
9.54920368849e-10
-1.64758277387e-09
1.01139037708e-09
-2.029226652e-09
1.08082707613e-09
-2.43920003437e-09
1.16265508991e-09
-2.88146228091e-09
1.25617808659e-09
-3.35966879096e-09
1.36056640925e-09
-3.87698593532e-09
1.47483360843e-09
-4.43616860715e-09
1.59780036239e-09
-5.03935215002e-09
1.72806349251e-09
-5.68811134752e-09
1.86396174566e-09
-6.38324915591e-09
2.00355685973e-09
-7.12484705183e-09
2.14462169583e-09
-7.912068337e-09
2.28464904051e-09
-8.74321932668e-09
2.4208734564e-09
-9.61558527513e-09
2.55031604854e-09
-1.0525522533e-08
2.66984445298e-09
-1.14683426008e-08
2.77625383539e-09
-1.24384525184e-08
2.86636046214e-09
-1.34292972397e-08
2.93710895031e-09
-1.44335584192e-08
2.98568365601e-09
-1.54431566147e-08
3.00962098539e-09
-1.64495072542e-08
3.00691277834e-09
-1.7443571886e-08
2.97609500466e-09
-1.8416155872e-08
2.91631379203e-09
-1.93579846497e-08
2.82736355491e-09
-2.02600147856e-08
2.70969410695e-09
-2.111350207e-08
2.5643852082e-09
-2.19102919994e-08
2.39309227218e-09
-2.26428473556e-08
2.19796643198e-09
-2.33044900861e-08
1.98155842255e-09
-2.38893679333e-08
1.74671190303e-09
-2.43926349678e-08
1.49645731788e-09
-2.48103547434e-08
1.23391035068e-09
-2.513962385e-08
9.62183566252e-10
-2.53784242979e-08
6.84311295717e-10
-2.55257054083e-08
4.03192356762e-10
-2.5581203564e-08
1.2154684258e-10
-2.55454991574e-08
-1.58111989682e-10
-2.54198254285e-08
-4.33508334491e-10
-2.52061084242e-08
-7.02588427424e-10
-2.49067830738e-08
-9.63509195555e-10
-2.45248468809e-08
-1.21462972168e-09
-2.40636841502e-08
-1.45450147494e-09
-2.35271223032e-08
-1.68185738768e-09
-2.29192683412e-08
-1.89560159617e-09
-2.22445672613e-08
-2.09480038464e-09
-2.15076493914e-08
-2.2786748756e-09
-2.07133875283e-08
-2.44659636435e-09
-1.98667523118e-08
-2.59808353847e-09
-1.89728643987e-08
-2.73280291128e-09
-1.80368547416e-08
-2.850570605e-09
-1.70639085351e-08
-2.95135727598e-09
-1.60591275703e-08
-3.03529334603e-09
-1.50275635221e-08
-3.10267675099e-09
-1.39740802066e-08
-3.15397956035e-09
-1.2903374843e-08
-3.18985617009e-09
-1.18198389709e-08
-3.21114910309e-09
-1.07275673852e-08
-3.21889634973e-09
-9.63021741275e-09
-3.21433743844e-09
-8.53100653097e-09
-3.19892520725e-09
-7.43257234427e-09
-3.17434345069e-09
-6.33696648023e-09
-3.14254054697e-09
-5.2455341681e-09
-3.10577797536e-09
-4.15894986981e-09
-3.06669322993e-09
-3.07721240254e-09
-3.02834337143e-09
-1.99989323558e-09
-2.994156663e-09
-9.26433424924e-10
-2.96764207016e-09
1.43507197819e-10
-2.95171618342e-09
1.21015385494e-09
-2.94791932149e-09
2.27442548444e-09
-2.95610251806e-09
3.33797951519e-09
-2.97446684794e-09
4.4024504314e-09
-3.00025631869e-09
5.46912730243e-09
-3.03062294182e-09
6.53869283712e-09
-3.06286924653e-09
7.61118017458e-09
-3.09452668449e-09
8.68594580489e-09
-3.12337688161e-09
9.76175363902e-09
-3.14744223084e-09
1.08368065101e-08
-3.16497382035e-09
1.19088480773e-08
-3.17443788965e-09
1.29751984262e-08
-3.17450445171e-09
1.40328478418e-08
-3.16403617779e-09
1.50784858097e-08
-3.14207967401e-09
1.61085842588e-08
-3.10785743826e-09
1.71194206062e-08
-3.06076161093e-09
1.81071524816e-08
-3.00034747559e-09
1.90678363122e-08
-2.92632719393e-09
1.99974946646e-08
-2.83856213195e-09
2.0892130608e-08
-2.73705444872e-09
2.1747787632e-08
-2.621937089e-09
2.25605593353e-08
-2.49346314304e-09
2.33266416011e-08
-2.35199426679e-09
2.40423373255e-08
-2.19798915892e-09
2.47041009459e-08
-2.03199200846e-09
2.53085385345e-08
-1.8546217362e-09
2.585244543e-08
-1.66656195578e-09
2.63328026735e-08
-1.46855221369e-09
2.67468090717e-08
-1.2613803303e-09
2.70918754909e-08
-1.04587609935e-09
2.73656532179e-08
-8.22905981325e-10
2.75660283225e-08
-5.93368742109e-10
2.76911491312e-08
-3.58191568168e-10
2.77394219144e-08
-1.18326014488e-10
2.7709536637e-08
1.25258159487e-10
2.76004721354e-08
3.7158193388e-10
2.74115257205e-08
6.19618501879e-10
2.71423229953e-08
8.6827608506e-10
2.67928584582e-08
1.11639228272e-09
2.63635159613e-08
1.36272431421e-09
2.58551177433e-08
1.60593635634e-09
2.52689572757e-08
1.84458438247e-09
2.4606858498e-08
2.07709876334e-09
2.38712199519e-08
2.30176500402e-09
2.30650803808e-08
2.51670400626e-09
2.21921664388e-08
2.71985412625e-09
2.12569519518e-08
2.90895912096e-09
2.02646905001e-08
3.08156767458e-09
1.92214435629e-08
3.2350523198e-09
1.81340683537e-08
3.36665649698e-09
1.70101836473e-08
3.47357841443e-09
1.58580853404e-08
3.55309717084e-09
1.46866327576e-08
3.60274074184e-09
1.35050912092e-08
3.62048603341e-09
1.2322958e-08
3.60497105429e-09
1.11497693161e-08
3.55569021437e-09
9.99491423645e-09
3.47314055821e-09
8.86745358469e-09
3.35889102347e-09
7.77595769924e-09
3.2155603009e-09
6.72835298987e-09
3.04670843551e-09
5.73177691067e-09
2.85667020109e-09
4.7924234497e-09
2.65037953097e-09
3.91536229483e-09
2.43325187342e-09
3.10429499852e-09
2.21120308867e-09
2.36119445788e-09
1.99088924857e-09
1.68574613938e-09
1.78025527787e-09
1.07443673441e-09
1.58952013412e-09
5.18539358289e-10
1.43299465267e-09
1.33255945418e-09
-3.36058985315e-10
1.20400080255e-09
-6.75514580419e-10
1.22205690599e-09
-1.02423991981e-09
1.26056787902e-09
-1.38794379512e-09
1.31860999165e-09
-1.7719806813e-09
1.39539971466e-09
-2.18126433781e-09
1.49009970379e-09
-2.62037980744e-09
1.60174326019e-09
-3.09342030081e-09
1.729209383e-09
-3.60407525109e-09
1.87119677011e-09
-4.15544203111e-09
2.02619240644e-09
-4.75009423188e-09
2.19242963846e-09
-5.38988602335e-09
2.36784899026e-09
-6.07600966852e-09
2.55006461353e-09
-6.80880433421e-09
2.7363464662e-09
-7.58781814166e-09
2.9236166134e-09
-8.41164159796e-09
3.10846842408e-09
-9.27799012219e-09
3.28720458522e-09
-1.01835766382e-08
3.45589937021e-09
-1.11242290635e-08
3.61048067577e-09
-1.20948106332e-08
3.74683310149e-09
-1.30893820409e-08
3.86091668917e-09
-1.41011721709e-08
3.94889774096e-09
-1.5122787689e-08
4.00728492124e-09
-1.61462295341e-08
4.03306252839e-09
-1.71631436624e-08
4.02381353016e-09
-1.81648695866e-08
3.97782170241e-09
-1.91427157214e-08
3.89414737713e-09
-2.00880175017e-08
3.77266716758e-09
-2.09924128283e-08
3.61407765825e-09
-2.1847882986e-08
3.41985818444e-09
-2.26470023229e-08
3.19220053655e-09
-2.33829388542e-08
2.93390664081e-09
-2.40496594217e-08
2.64826854173e-09
-2.46418779658e-08
2.33893481712e-09
-2.51552099576e-08
2.00977939541e-09
-2.55860699243e-08
1.66477518689e-09
-2.59317810829e-08
1.30788526307e-09
-2.61904339283e-08
9.42969312738e-10
-2.63609635539e-08
5.73712897505e-10
-2.64429841742e-08
2.03572744222e-10
-2.64368474899e-08
-1.64257437487e-10
-2.63434804527e-08
-5.26870152032e-10
-2.61644133861e-08
-8.81663978629e-10
-2.59016168889e-08
-1.22630067775e-09
-2.55575590179e-08
-1.55869581753e-09
-2.51350479092e-08
-1.8770078753e-09
-2.4637289298e-08
-2.17962396837e-09
-2.40677394741e-08
-2.46514708055e-09
-2.34301636799e-08
-2.73238387808e-09
-2.27284987203e-08
-2.98033588729e-09
-2.19669094991e-08
-3.20819299435e-09
-2.1149659015e-08
-3.41533045968e-09
-2.02811601129e-08
-3.60130890513e-09
-1.93658503283e-08
-3.76587718234e-09
-1.84082362303e-08
-3.90897812767e-09
-1.74127706933e-08
-4.03075599117e-09
-1.63838877899e-08
-4.13156605084e-09
-1.53258805058e-08
-4.21198422343e-09
-1.42429249982e-08
-4.27281770617e-09
-1.31389578354e-08
-4.31511387468e-09
-1.20176903363e-08
-4.3401694992e-09
-1.08824875745e-08
-4.34953800165e-09
-9.73637906426e-09
-4.3450389818e-09
-8.58195136817e-09
-4.32876910806e-09
-7.42137729841e-09
-4.30311947887e-09
-6.25635921576e-09
-4.27079414106e-09
-5.08823552745e-09
-4.2348213516e-09
-3.91805533315e-09
-4.19852171655e-09
-2.74683993743e-09
-4.16537601848e-09
-1.57576920893e-09
-4.13871093888e-09
-4.06308477404e-10
-4.12118034331e-09
7.59842528236e-10
-4.11406836163e-09
1.92143646393e-09
-4.11769928853e-09
3.07804214812e-09
-4.13107036122e-09
4.22956349372e-09
-4.15177985251e-09
5.37603426591e-09
-4.17709124728e-09
6.51728706886e-09
-4.20412355152e-09
7.65285734528e-09
-4.23009412338e-09
8.78188028398e-09
-4.25240061344e-09
9.9031099481e-09
-4.26866863178e-09
1.10149052757e-08
-4.27676922325e-09
1.21152931668e-08
-4.27482205713e-09
1.32019803993e-08
-4.26119104802e-09
1.42724243233e-08
-4.23447590309e-09
1.53238491087e-08
-4.19350312908e-09
1.63533133477e-08
-4.13731700465e-09
1.73577251113e-08
-4.0651713779e-09
1.83339040747e-08
-3.97652130702e-09
1.92785938778e-08
-3.8710143672e-09
2.01885180896e-08
-3.74848077596e-09
2.10603892022e-08
-3.60892233715e-09
2.18909581442e-08
-3.45250005779e-09
2.26770195684e-08
-3.27952078918e-09
2.34154548967e-08
-3.0904232506e-09
2.41032339133e-08
-2.88576388714e-09
2.47374516804e-08
-2.6662030971e-09
2.53153268622e-08
-2.43249216263e-09
2.58342332642e-08
-2.18546138358e-09
2.62916957546e-08
-1.92600952643e-09
2.66854175971e-08
-1.65509494282e-09
2.70132752643e-08
-1.37372821087e-09
2.72733431705e-08
-1.08296644179e-09
2.74638891325e-08
-7.83908815578e-10
2.75833983058e-08
-4.77693120721e-10
2.76305706898e-08
-1.65492221565e-10
2.76043457631e-08
1.51490840848e-10
2.75039079822e-08
4.72026134812e-10
2.73287134476e-08
7.94820883834e-10
2.70784980761e-08
1.11849807627e-09
2.67533129631e-08
1.44158529648e-09
2.63535434046e-08
1.76250065014e-09
2.58799517937e-08
2.07953588413e-09
2.53337057448e-08
2.39083732791e-09
2.47164271846e-08
2.69438522331e-09
2.40302263912e-08
2.98797278011e-09
2.32777512628e-08
3.26918699004e-09
2.24622177733e-08
3.53539465939e-09
2.15874461742e-08
3.78373851189e-09
2.06578710368e-08
4.01114990061e-09
1.96785452136e-08
4.21438586078e-09
1.86551103408e-08
4.3900984963e-09
1.75937532163e-08
4.53494317952e-09
1.65011296111e-08
4.64572793614e-09
1.53842781594e-08
4.7195997578e-09
1.42505166724e-08
4.75425471041e-09
1.31073451768e-08
4.74815004841e-09
1.19623524793e-08
4.70069014155e-09
1.0823142933e-08
4.61235757213e-09
9.69727419919e-09
4.48476707516e-09
8.59220803998e-09
4.3206339689e-09
7.51525673908e-09
4.12366718663e-09
6.47351633005e-09
3.89841818807e-09
5.4737657593e-09
3.6501376586e-09
4.52231220426e-09
3.3847129988e-09
3.62474154373e-09
3.10878139963e-09
2.78549930227e-09
2.83013904635e-09
2.00716125327e-09
2.55860038764e-09
1.2891498613e-09
2.3075383498e-09
6.25412613299e-10
2.09673881411e-09
1.95797397499e-09
-3.59762298697e-10
1.56374012786e-09
-7.2382698815e-10
1.58610688674e-09
-1.09815573431e-09
1.63486785399e-09
-1.48856849392e-09
1.70901087324e-09
-1.90068131514e-09
1.80748439161e-09
-2.33965827805e-09
1.92906625621e-09
-2.81028227411e-09
2.07234217304e-09
-3.31676699253e-09
2.23568603007e-09
-3.86282881694e-09
2.41723448504e-09
-4.45149079167e-09
2.61484853765e-09
-5.08515087125e-09
2.82606845973e-09
-5.7653822055e-09
3.04807564065e-09
-6.49299863801e-09
3.27766197397e-09
-7.26787606971e-09
3.51122034499e-09
-8.08903130861e-09
3.74475450197e-09
-8.95447984949e-09
3.97391432892e-09
-9.86134517554e-09
4.19405386839e-09
-1.08057619285e-08
4.40031428896e-09
-1.17830247732e-08
4.58772850022e-09
-1.27875386652e-08
4.75134596741e-09
-1.38130094046e-08
4.88637327294e-09
-1.48524362101e-08
4.98832439011e-09
-1.58983392764e-08
5.05317461559e-09
-1.69427836475e-08
5.07750767642e-09
-1.7977632069e-08
5.0586493165e-09
-1.89945831749e-08
4.99477454376e-09
-1.99854317924e-08
4.88498405389e-09
-2.09421005747e-08
4.72933861914e-09
-2.1856887303e-08
4.5288530895e-09
-2.27224699805e-08
4.28544438288e-09
-2.35321237777e-08
4.00184361575e-09
-2.42796862144e-08
3.68147332074e-09
-2.49597344862e-08
3.32830659951e-09
-2.55675072277e-08
2.94671235469e-09
-2.60990423582e-08
2.54130473658e-09
-2.65510609318e-08
2.1167989219e-09
-2.69210725797e-08
1.67788747242e-09
-2.72072322088e-08
1.22913427701e-09
-2.74084230215e-08
7.74894562042e-10
-2.75240976838e-08
3.19252736828e-10
-2.75543441696e-08
-1.3401985326e-10
-2.74997462028e-08
-5.81462952056e-10
-2.73614065613e-08
-1.02001229974e-09
-2.71407995617e-08
-1.44690279881e-09
-2.68398397095e-08
-1.85966413378e-09
-2.64607328324e-08
-2.25611024853e-09
-2.60060430238e-08
-2.634322013e-09
-2.54785539089e-08
-2.99263210833e-09
-2.48813350798e-08
-3.32961068848e-09
-2.42176122258e-08
-3.64405507735e-09
-2.34908309646e-08
-3.93498194703e-09
-2.27045344087e-08
-4.20162375011e-09
-2.18624223895e-08
-4.44342828991e-09
-2.09682347604e-08
-4.66006190123e-09
-2.00258042854e-08
-4.8514156097e-09
-1.90389440386e-08
-5.0176136289e-09
-1.80114927105e-08
-5.15902400164e-09
-1.69472048114e-08
-5.27626976019e-09
-1.5849787946e-08
-5.37024079079e-09
-1.47227956202e-08
-5.44210403325e-09
-1.35696581241e-08
-5.49331279669e-09
-1.23935813953e-08
-5.52561271417e-09
-1.1197579539e-08
-5.54104620795e-09
-9.98439367673e-09
-5.54195306383e-09
-8.75654972877e-09
-5.53096834738e-09
-7.5163318001e-09
-5.51101022832e-09
-6.26591010846e-09
-5.48524748677e-09
-5.00741154876e-09
-5.45701844061e-09
-3.74312531397e-09
-5.42966618001e-09
-2.47558148849e-09
-5.40625285862e-09
-1.20760554171e-09
-5.38915965169e-09
5.80520460826e-11
-5.37972388922e-09
1.31830090732e-09
-5.37795089762e-09
2.57064880902e-09
-5.38341596554e-09
3.81360315396e-09
-5.39473629074e-09
5.04579566838e-09
-5.40928115443e-09
6.26599433455e-09
-5.42432362852e-09
7.47295706824e-09
-5.43705388136e-09
8.66532017854e-09
-5.4447644373e-09
9.84157632684e-09
-5.44492139324e-09
1.10000217146e-08
-5.43521462518e-09
1.21387834913e-08
-5.41358001049e-09
1.32558011549e-08
-5.37820803596e-09
1.43488726273e-08
-5.32754310595e-09
1.54156498324e-08
-5.2602789883e-09
1.64536898874e-08
-5.17535234799e-09
1.74604558381e-08
-5.07193533976e-09
1.84333669328e-08
-4.94942726233e-09
1.93698000487e-08
-4.80744488397e-09
2.02671362028e-08
-4.64581138519e-09
2.11227606371e-08
-4.4645435983e-09
2.19341045212e-08
-4.26383801886e-09
2.26986430087e-08
-4.04405556833e-09
2.34139319973e-08
-3.80570596915e-09
2.40776041296e-08
-3.54943181613e-09
2.4687400928e-08
-3.2759933118e-09
2.5241167089e-08
-2.98625366642e-09
2.57368786135e-08
-2.68116604585e-09
2.61726360452e-08
-2.36176188898e-09
2.65466895008e-08
-2.02914129369e-09
2.68574318064e-08
-1.68446507751e-09
2.71034216367e-08
-1.32894896215e-09
2.72833777902e-08
-9.63859202983e-10
2.73962018108e-08
-5.90509664137e-10
2.74409746665e-08
-2.10259026892e-10
2.74169803659e-08
1.75492746957e-10
2.73237064517e-08
5.65306339858e-10
2.71608655007e-08
9.5766952955e-10
2.69283998995e-08
1.35097016653e-09
2.66265116895e-08
1.74348125262e-09
2.62556752253e-08
2.13334376129e-09
2.58166717844e-08
2.51854708704e-09
2.53106078673e-08
2.89690801247e-09
2.47389518071e-08
3.26604902986e-09
2.41035534288e-08
3.62337801496e-09
2.34066763315e-08
3.96607179312e-09
2.26510102023e-08
4.29106771074e-09
2.18396880191e-08
4.59506834332e-09
2.09762789788e-08
4.8745659152e-09
2.00647790007e-08
5.12589342239e-09
1.91095754586e-08
5.34530906019e-09
1.81154080072e-08
5.52911814944e-09
1.70873107199e-08
5.6738322905e-09
1.60305590481e-08
5.77635888705e-09
1.49506144774e-08
5.83420639107e-09
1.38530882839e-08
5.84568364921e-09
1.27437180107e-08
5.81006757777e-09
1.1628368214e-08
5.72771476517e-09
1.05130426214e-08
5.60009993374e-09
9.40390627468e-09
5.42977777491e-09
8.30729911271e-09
5.22028177586e-09
7.22973171254e-09
4.97599312153e-09
6.17784409308e-09
4.70203283348e-09
5.15831090656e-09
4.40425378683e-09
4.17765915832e-09
4.08944079876e-09
3.24193224089e-09
3.76587356264e-09
2.35606463887e-09
3.44447511165e-09
1.52272757636e-09
3.14088228555e-09
7.40349576105e-10
2.87912378571e-09
2.69832546116e-09
-3.82931439876e-10
1.94664903121e-09
-7.71030499877e-10
1.97419343179e-09
-1.17053853457e-09
2.03434799905e-09
-1.5875453962e-09
2.12600590331e-09
-2.02793602788e-09
2.24784853392e-09
-2.49712476562e-09
2.39824717758e-09
-3.0000926057e-09
2.5752844342e-09
-3.54116722511e-09
2.77675485996e-09
-4.1240959103e-09
3.00014162327e-09
-4.75183367689e-09
3.24258168336e-09
-5.42660694226e-09
3.50082208805e-09
-6.14971792224e-09
3.7711836827e-09
-6.92161500785e-09
4.04954154029e-09
-7.7417258034e-09
4.33132929329e-09
-8.60855506756e-09
4.6115679049e-09
-9.51956432985e-09
4.88492256868e-09
-1.04713092569e-08
5.14578412664e-09
-1.14593707132e-08
5.38837544284e-09
-1.24785348584e-08
5.60687886046e-09
-1.35227701687e-08
5.7955817014e-09
-1.45854452313e-08
5.94903526757e-09
-1.56593395208e-08
6.06221988183e-09
-1.673688741e-08
6.13071007051e-09
-1.78102059224e-08
6.15082821672e-09
-1.8871348824e-08
6.11978036971e-09
-1.99123320643e-08
6.03576064791e-09
-2.09253798491e-08
5.8980205347e-09
-2.19029293609e-08
5.70689179081e-09
-2.28378529803e-08
5.4637659009e-09
-2.3723429237e-08
5.17102500359e-09
-2.45535319163e-08
4.83193592337e-09
-2.53225627043e-08
4.45050903915e-09
-2.60256060803e-08
4.03133997269e-09
-2.66583271971e-08
3.57943879795e-09
-2.7217097566e-08
3.10006540246e-09
-2.76988664539e-08
2.59857334592e-09
-2.81012648418e-08
2.08027639668e-09
-2.84224598396e-08
1.55033483912e-09
-2.86612442644e-08
1.01366971761e-09
-2.88168840241e-08
4.74897921586e-10
-2.88892010513e-08
-6.17119262075e-11
-2.88784248959e-08
-5.92233962023e-10
-2.87852329202e-08
-1.11321321289e-09
-2.86106217653e-08
-1.62150919543e-09
-2.83559764169e-08
-2.1143182448e-09
-2.80229287436e-08
-2.58915361561e-09
-2.76134342686e-08
-3.04382504648e-09
-2.71296406732e-08
-3.47642187233e-09
-2.65739623506e-08
-3.88529732198e-09
-2.59489572956e-08
-4.26905676038e-09
-2.52573983914e-08
-4.62654886575e-09
-2.45021581013e-08
-4.95686108459e-09
-2.36862753894e-08
-5.25931867057e-09
-2.28128473224e-08
-5.53348736777e-09
-2.18850907902e-08
-5.7791794225e-09
-2.09062401745e-08
-5.99646193066e-09
-1.98796035053e-08
-6.18566752848e-09
-1.88084656696e-08
-6.34740550042e-09
-1.7696139359e-08
-6.48257351116e-09
-1.65458742242e-08
-6.5923672292e-09
-1.53609047327e-08
-6.67828823089e-09
-1.41443686732e-08
-6.74214693714e-09
-1.28993591316e-08
-6.78606120967e-09
-1.16288637121e-08
-6.81244670056e-09
-1.03358387156e-08
-6.82399830329e-09
-9.02319250322e-09
-6.82365466086e-09
-7.6939070194e-09
-6.81453740503e-09
-6.35107784015e-09
-6.79984578339e-09
-4.99805886287e-09
-6.7826890333e-09
-3.6384664452e-09
-6.76584331277e-09
-2.27616925698e-09
-6.75146012073e-09
-9.15114660339e-10
-6.74077632274e-09
4.40827497546e-10
-6.73389570548e-09
1.78762906742e-09
-6.73021510584e-09
3.12190331224e-09
-6.72901252773e-09
4.44121587648e-09
-6.72859096734e-09
5.74325529319e-09
-6.72636436248e-09
7.02594971618e-09
-6.71974518764e-09
8.28731028295e-09
-6.70612564052e-09
9.52541306168e-09
-6.68302065987e-09
1.07383205218e-08
-6.64812204474e-09
1.19240878923e-08
-6.59934345681e-09
1.30807208314e-08
-6.53484027034e-09
1.42062010922e-08
-6.4530190266e-09
1.52984629276e-08
-6.35253947544e-09
1.63554282929e-08
-6.23231296348e-09
1.7374992835e-08
-6.09149791674e-09
1.83550637481e-08
-5.92949303059e-09
1.92935495109e-08
-5.74592809542e-09
2.01883964436e-08
-5.54065279878e-09
2.10375793566e-08
-5.31372340765e-09
2.18391352233e-08
-5.06538801692e-09