/*--------------------------------*- C++ -*----------------------------------*\
| =========                 |                                                 |
| \\      /  F ield         | OpenFOAM: The Open Source CFD Toolbox           |
|  \\    /   O peration     | Version:  2206                                  |
|   \\  /    A nd           | Website:  www.openfoam.com                      |
|    \\/     M anipulation  |                                                 |
\*---------------------------------------------------------------------------*/
FoamFile
{
    version     2.0;
    format      ascii;
    arch        "LSB;label=64;scalar=64";
    class       volVectorField;
    location    "5/water";
    object      U.gas;
}
// * * * * * * * * * * * * * * * * * * * * * * * * * * * * * * * * * * * * * //

dimensions      [0 1 -1 0 0 0 0];

internalField   nonuniform List<vector> 
23300
(
(-0.00160925476903 0.136013176333 0)
(-0.00144024280568 0.136007908556 0)
(0.000395653332455 0.135976718627 0)
(0.000498159149244 0.135938490029 0)
(0.000571690067794 0.135893626272 0)
(0.000606806028845 0.135842262103 0)
(0.000594216814445 0.135785333005 0)
(0.000527656330291 0.135724027876 0)
(0.000402866947678 0.135659732566 0)
(0.000216585736623 0.135593969603 0)
(-3.27190260579e-05 0.135528436385 0)
(-0.000345560339321 0.135464894 0)
(-0.000720516608284 0.135405188888 0)
(-0.00115506877926 0.135351097291 0)
(-0.00164489760057 0.1353043348 0)
(-0.00218480497613 0.135266384908 0)
(-0.00276831060748 0.135238520428 0)
(-0.00338854241509 0.135221652018 0)
(-0.00403804637085 0.135216384849 0)
(-0.00470952004371 0.135222911165 0)
(-0.00539569515887 0.135241112598 0)
(-0.00608984819533 0.135270496773 0)
(-0.00678566150046 0.135310342326 0)
(-0.00747751076234 0.135359658146 0)
(-0.00816027517087 0.135417359109 0)
(-0.00882944821656 0.135482216877 0)
(-0.00948092015828 0.135553054387 0)
(-0.0101109748129 0.135628659211 0)
(-0.010716093358 0.135707989828 0)
(-0.0112929020182 0.135790032941 0)
(-0.0118380558639 0.135874022273 0)
(-0.0123481848073 0.135959233494 0)
(-0.0128198984552 0.136045220351 0)
(-0.0132497470526 0.136131551454 0)
(-0.0136343567646 0.136218069287 0)
(-0.0139703830701 0.136304579794 0)
(-0.0142547515529 0.136391135959 0)
(-0.0144845591291 0.136477695309 0)
(-0.0146573700606 0.136564424179 0)
(-0.0147708053583 0.13665133062 0)
(-0.014823077402 0.1367385923 0)
(-0.0148130859619 0.136826198785 0)
(-0.0147405537928 0.136914266497 0)
(-0.0146053602214 0.137002687099 0)
(-0.0144080381969 0.13709143142 0)
(-0.014149412731 0.137180243792 0)
(-0.0138310599199 0.137268905879 0)
(-0.0134547717353 0.137356984641 0)
(-0.0130230332889 0.137444045515 0)
(-0.012538451811 0.137529462017 0)
(-0.0120042551469 0.137612566224 0)
(-0.0114237109162 0.137692530571 0)
(-0.0108006380021 0.137768449205 0)
(-0.0101388411346 0.137839300857 0)
(-0.00944262864152 0.137903961223 0)
(-0.00871628970693 0.1379612541 0)
(-0.00796461721636 0.138009902453 0)
(-0.00719245441488 0.138048674223 0)
(-0.00640522144316 0.138076286733 0)
(-0.00560854536214 0.1380916523 0)
(-0.00480877224955 0.138093756125 0)
(-0.00401266130131 0.138082006703 0)
(-0.00322782658388 0.138056116519 0)
(-0.00246241991662 0.138016576308 0)
(-0.00172534190933 0.137964601808 0)
(-0.00102552740502 0.137902798962 0)
(-0.000370814472572 0.13783528219 0)
(0.000236341238488 0.137768527885 0)
(0.000808775601783 0.137711176557 0)
(0.00137179483519 0.137672661024 0)
(0.00193334647489 0.137659316529 0)
(0.00247172997052 0.137673549281 0)
(0.00297769093504 0.137715124524 0)
(0.00348168645701 0.137778713167 0)
(0.00401932165214 0.137854488188 0)
(0.00460454418414 0.137933479759 0)
(0.00523675941877 0.138008740414 0)
(0.00590975212809 0.138075443556 0)
(0.00661560843655 0.138130295823 0)
(0.00734608018282 0.13817138582 0)
(0.00809334899572 0.138197730082 0)
(0.00885010570441 0.138209187455 0)
(0.00960973272407 0.138206150244 0)
(0.0103661404844 0.138189485155 0)
(0.0111138243538 0.138160330705 0)
(0.0118476871391 0.138120045359 0)
(0.0125630832025 0.138070089141 0)
(0.0132556765537 0.138011969954 0)
(0.0139214886188 0.137947192243 0)
(0.0145567915781 0.137877196825 0)
(0.0151581578699 0.137803363109 0)
(0.0157223832917 0.137726940715 0)
(0.0162465368375 0.13764909403 0)
(0.0167279081604 0.137570824706 0)
(0.0171640556095 0.137493048331 0)
(0.0175527712992 0.137416507092 0)
(0.0178921245129 0.13734186963 0)
(0.018180438258 0.137269633578 0)
(0.018416326587 0.137200241185 0)
(0.0185986788351 0.137133972035 0)
(0.0187266918998 0.137071068441 0)
(0.0187998618643 0.137011618758 0)
(0.0188180137924 0.136955687121 0)
(0.0187812844687 0.136903187559 0)
(0.0186899877017 0.136854024205 0)
(0.0185446478479 0.136808046668 0)
(0.0183461469625 0.136765175546 0)
(0.0180955978702 0.136725148953 0)
(0.0177942731393 0.136687697758 0)
(0.0174436481175 0.136652455023 0)
(0.0170454747393 0.136619095615 0)
(0.016601767565 0.136587208404 0)
(0.0161147930937 0.136556430146 0)
(0.0155870432944 0.136526323174 0)
(0.015021213734 0.13649650896 0)
(0.014420165658 0.13646655449 0)
(0.0137868861955 0.136436106433 0)
(0.013124431623 0.136404790021 0)
(0.0124358624863 0.13637234597 0)
(0.0117241628497 0.136338546977 0)
(0.0109921499417 0.136303340657 0)
(0.01024237946 0.136266788618 0)
(0.00947705909512 0.136229215494 0)
(0.00869800177476 0.136191166079 0)
(0.00790664908712 0.136153541816 0)
(0.00710423756142 0.136117541346 0)
(0.00629214489822 0.136084725878 0)
(0.00547250014252 0.136056869093 0)
(0.00464902854909 0.136035870435 0)
(0.00382810587891 0.136023456566 0)
(0.00301983075313 0.136020938721 0)
(0.00223891781084 0.136028845325 0)
(0.00150513344987 0.136046693716 0)
(0.000843195730567 0.136072791481 0)
(0.000282318943875 0.136104257111 0)
(-0.000144064221128 0.136137128121 0)
(-0.000398270220671 0.136166656266 0)
(-0.000444307659764 0.136187932032 0)
(-0.00267942265633 0.136193393884 0)
(-0.0024737864946 0.136174780993 0)
(-0.000945769282902 0.247247724355 0)
(-0.00101856075279 0.247261446248 0)
(-0.000173798631866 0.247244075917 0)
(-0.000241334866871 0.247225677937 0)
(-0.000331562699485 0.247206611477 0)
(-0.00044713591009 0.247186493992 0)
(-0.000591887614146 0.247165627504 0)
(-0.000769213085265 0.247144634806 0)
(-0.000981588398481 0.247124147649 0)
(-0.00123080091617 0.247104992243 0)
(-0.00151775791997 0.247087962578 0)
(-0.00184272134714 0.24707401348 0)
(-0.00220509998149 0.247063963781 0)
(-0.00260371704764 0.247058706704 0)
(-0.00303666207558 0.247058852871 0)
(-0.00350157291626 0.247064974386 0)
(-0.00399555585585 0.247077222748 0)
(-0.00451543440761 0.247095632509 0)
(-0.00505770405703 0.247119745302 0)
(-0.00561871776715 0.247148986132 0)
(-0.00619464482278 0.247182314292 0)
(-0.00678159060962 0.247218660468 0)
(-0.00737555107589 0.247256610507 0)
(-0.00797248307288 0.247294868252 0)
(-0.00856825877353 0.247331966755 0)
(-0.0091587054101 0.247366710323 0)
(-0.0097395708286 0.247397903572 0)
(-0.0103065499641 0.247424728558 0)
(-0.010855274945 0.247446487494 0)
(-0.0113813431122 0.247462886212 0)
(-0.0118803479907 0.247473796876 0)
(-0.0123479193778 0.247479439748 0)
(-0.0127798026648 0.247480182262 0)
(-0.0131719062645 0.247476629231 0)
(-0.0135204210661 0.247469476162 0)
(-0.0138218542147 0.247459527024 0)
(-0.0140731656817 0.247447612362 0)
(-0.0142717621441 0.247434554996 0)
(-0.014415641086 0.247421149898 0)
(-0.0145031773167 0.247408092231 0)
(-0.0145333072426 0.247396048871 0)
(-0.0145056888014 0.247385565531 0)
(-0.0144207347227 0.2473770883 0)
(-0.014279226281 0.247370837454 0)
(-0.0140824378085 0.247366930446 0)
(-0.0138320316918 0.247365317484 0)
(-0.0135301757754 0.247365829967 0)
(-0.0131793324948 0.247368154973 0)
(-0.0127823886596 0.247371845932 0)
(-0.0123424363881 0.24737634949 0)
(-0.0118629065673 0.247380961687 0)
(-0.0113473476621 0.247384920505 0)
(-0.0107995566176 0.247387298398 0)
(-0.0102233601349 0.247387171584 0)
(-0.00962273668247 0.247383447547 0)
(-0.00900160471289 0.247375119401 0)
(-0.00836393130141 0.247361035734 0)
(-0.00771353221157 0.247340246516 0)
(-0.00705416337914 0.247311730876 0)
(-0.00638933266678 0.247274838814 0)
(-0.00572235806739 0.247228998329 0)
(-0.00505615976843 0.247174253252 0)
(-0.00439321492053 0.247110972351 0)
(-0.00373521018209 0.247040477662 0)
(-0.00308269639038 0.246964774611 0)
(-0.00243430194825 0.246887248247 0)
(-0.00178566004986 0.2468123694 0)
(-0.00112781549105 0.24674619976 0)
(-0.000446846074319 0.246695223096 0)
(0.00026631770743 0.246664323743 0)
(0.000999131591278 0.246654852134 0)
(0.00172244932385 0.246666080268 0)
(0.00241338612923 0.246700170108 0)
(0.00306770905047 0.24675809646 0)
(0.00369674652922 0.24683389733 0)
(0.00431453164413 0.246920383963 0)
(0.00493007279117 0.247010880463 0)
(0.00554825468846 0.247100187353 0)
(0.00617131173378 0.247184329285 0)
(0.00679976807317 0.247260644778 0)
(0.00743307242959 0.247327386872 0)
(0.00806991575343 0.247383710813 0)
(0.00870847354568 0.247429363151 0)
(0.00934650602559 0.247464645292 0)
(0.00998148065864 0.247490207504 0)
(0.0106106149081 0.247506994581 0)
(0.0112309622831 0.247516131716 0)
(0.011839438564 0.247518850011 0)
(0.0124328910323 0.247516449173 0)
(0.0130081188249 0.247510202776 0)
(0.0135619322563 0.247501384945 0)
(0.0140911710027 0.247491156947 0)
(0.0145927554861 0.247480646015 0)
(0.0150637024994 0.247470814752 0)
(0.0155011681149 0.247462580795 0)
(0.0159024591222 0.247456670231 0)
(0.0162650668419 0.24745376789 0)
(0.0165866734952 0.247454356113 0)
(0.0168651773733 0.247458886969 0)
(0.0170986941947 0.247467608119 0)
(0.0172855744677 0.247480749918 0)
(0.017424399749 0.247498340525 0)
(0.0175139924807 0.247520402503 0)
(0.0175534190084 0.247546761067 0)
(0.0175421105006 0.247577252298 0)
(0.0174798528495 0.247611584063 0)
(0.0173664480911 0.247649568705 0)
(0.0172017642395 0.247690786261 0)
(0.0169860434617 0.247734815992 0)
(0.0167198615493 0.247781077396 0)
(0.0164040892976 0.247829034354 0)
(0.0160398934106 0.247877999338 0)
(0.0156287565397 0.2479273317 0)
(0.0151724908922 0.247976246463 0)
(0.0146732621674 0.24802400603 0)
(0.0141336047887 0.248069735375 0)
(0.0135564417083 0.248112605929 0)
(0.0129450894255 0.248151661073 0)
(0.0123032563924 0.248185995542 0)
(0.0116350146461 0.248214602049 0)
(0.010944749169 0.248236558883 0)
(0.0102370678593 0.248250918279 0)
(0.00951668067758 0.248256921433 0)
(0.00878824613015 0.248253945464 0)
(0.00805621070148 0.248241743491 0)
(0.00732466958545 0.248220421853 0)
(0.00659729507442 0.248190634837 0)
(0.00587738293044 0.248153487448 0)
(0.00516805483973 0.248110556253 0)
(0.00447263443836 0.248063607036 0)
(0.00379517223893 0.248014394572 0)
(0.00314104722929 0.247964256737 0)
(0.00251753022099 0.247913882273 0)
(0.00193418352244 0.247863082384 0)
(0.001403061683 0.247810866091 0)
(0.00093886032631 0.247755657151 0)
(0.00055973737728 0.247695853414 0)
(0.00029347722543 0.247631043536 0)
(-0.00123365686506 0.247557505979 0)
(-0.00133014443477 0.247462184109 0)
(-0.00100156031609 0.226661375885 0)
(-0.0010837543231 0.22669423892 0)
(-0.00019200181522 0.226725967128 0)
(-0.0002596457387 0.226768779227 0)
(-0.000353200257462 0.226823708918 0)
(-0.00047579376635 0.226890189341 0)
(-0.000631022185913 0.226967277941 0)
(-0.000822255796677 0.227054108699 0)
(-0.00105192171957 0.227149472073 0)
(-0.00132159118155 0.227252232017 0)
(-0.00163178984341 0.227360844398 0)
(-0.00198221422155 0.227473864059 0)
(-0.0023715887009 0.227589385153 0)
(-0.00279791847931 0.227705644731 0)
(-0.00325843241138 0.227820398003 0)
(-0.00374985821653 0.227931605059 0)
(-0.00426843665217 0.228036765334 0)
(-0.00481017351256 0.228133674098 0)
(-0.00537087618602 0.228219733696 0)
(-0.0059463407277 0.228292763811 0)
(-0.00653236961685 0.228350303089 0)
(-0.00712488263813 0.228390451635 0)
(-0.00771990222345 0.228411169292 0)
(-0.00831359818665 0.22841112186 0)
(-0.00890224619324 0.228388974404 0)
(-0.0094822274003 0.22834420812 0)
(-0.0100499774248 0.228276401393 0)
(-0.0106019634037 0.228185986185 0)
(-0.0111346469265 0.228073512839 0)
(-0.0116444639093 0.22794032711 0)
(-0.0121278282489 0.227787826429 0)
(-0.0125811332171 0.227618058237 0)
(-0.0130008118672 0.227432990832 0)
(-0.0133833622895 0.227235050775 0)
(-0.0137254597145 0.227026437787 0)
(-0.014023984514 0.226809623831 0)
(-0.0142761616731 0.226586734979 0)
(-0.0144795635522 0.226360027291 0)
(-0.0146322531998 0.226131343377 0)
(-0.0147324953991 0.225902575114 0)
(-0.014778929438 0.225675202852 0)
(-0.0147710048801 0.225450789969 0)
(-0.0147091405231 0.225230498421 0)
(-0.0145940230908 0.225015400159 0)
(-0.0144266203273 0.224806216175 0)
(-0.0142082552849 0.224603707754 0)
(-0.0139407118713 0.224408335773 0)
(-0.013626038285 0.22422062532 0)
(-0.0132666587333 0.224040848354 0)
(-0.0128651704012 0.223869367771 0)
(-0.0124244555243 0.223706335818 0)
(-0.0119474757745 0.223552020757 0)
(-0.0114373789926 0.223406516577 0)
(-0.0108972951104 0.223270055444 0)
(-0.0103304318775 0.22314272625 0)
(-0.0097398761822 0.223024774801 0)
(-0.00912867467245 0.222916330678 0)
(-0.00849964410661 0.222817695945 0)
(-0.00785543234719 0.222729081201 0)
(-0.00719833603239 0.222650881328 0)
(-0.00653032749427 0.22258342033 0)
(-0.00585285612629 0.222527204471 0)
(-0.00516679570581 0.222482660161 0)
(-0.00447216578347 0.222450323122 0)
(-0.00376791904086 0.222430500945 0)
(-0.00305151313369 0.222423274772 0)
(-0.00231857744463 0.222427895631 0)
(-0.00156286635336 0.222442306491 0)
(-0.000777878461779 0.222461956062 0)
(3.7258986763e-05 0.222479299533 0)
(0.000865755138571 0.22248683393 0)
(0.00168410446979 0.22248054914 0)
(0.00248050544807 0.222463009456 0)
(0.003246836518 0.222443052877 0)
(0.00398129477773 0.22242830611 0)
(0.00469069436471 0.222422630195 0)
(0.00538139326756 0.22242777117 0)
(0.00605821145445 0.222444334349 0)
(0.00672436281384 0.222472251638 0)
(0.00738176113358 0.222511151976 0)
(0.00803135294591 0.222560495465 0)
(0.00867332269308 0.222619696716 0)
(0.00930727932264 0.222688163713 0)
(0.00993235006704 0.222765333778 0)
(0.0105472903019 0.222850697524 0)
(0.0111505324077 0.222943789934 0)
(0.0117402643613 0.223044218157 0)
(0.0123144615782 0.223151622292 0)
(0.0128709501451 0.223265713911 0)
(0.0134074317852 0.223386216049 0)
(0.0139215386946 0.223512915404 0)
(0.0144108560073 0.223645587622 0)
(0.0148729708184 0.223784062985 0)
(0.0153054926162 0.223928140581 0)
(0.0157060960974 0.2240776657 0)
(0.016072538001 0.224232435334 0)
(0.0164026926137 0.224392285029 0)
(0.016694563751 0.224556987707 0)
(0.0169463126717 0.224726347806 0)
(0.0171562649045 0.224900095337 0)
(0.017322931238 0.225077985699 0)
(0.0174450101511 0.22525969143 0)
(0.0175214051854 0.225444907592 0)
(0.0175512298949 0.225633245343 0)
(0.0175339039723 0.225824337748 0)
(0.017469220694 0.226017710572 0)
(0.0173569819762 0.226212945179 0)
(0.0171969843353 0.226409514709 0)
(0.0169894098813 0.226606870122 0)
(0.0167347819527 0.226804340773 0)
(0.0164339093535 0.227001229899 0)
(0.0160878963815 0.227196703322 0)
(0.0156981647399 0.227389881833 0)
(0.0152664659416 0.227579728463 0)
(0.0147949010835 0.227765130561 0)
(0.0142859253195 0.227944784365 0)
(0.0137423503568 0.228117266193 0)
(0.0131673215017 0.228280918755 0)
(0.0125642788482 0.228433919882 0)
(0.0119368804017 0.228574187956 0)
(0.0112888977436 0.228699472991 0)
(0.0106240706958 0.228807315543 0)
(0.00994594284639 0.228895197664 0)
(0.00925768528769 0.228960590274 0)
(0.00856195055043 0.229001181788 0)
(0.00786079064311 0.229015004159 0)
(0.00715569210638 0.229000689171 0)
(0.00644776832915 0.228957584679 0)
(0.00573813700831 0.228885922063 0)
(0.00502847905243 0.228786805827 0)
(0.0043217413997 0.228662207751 0)
(0.00362290015427 0.228514811316 0)
(0.00293967199934 0.228347901815 0)
(0.00228304459266 0.228165233884 0)
(0.00166757413269 0.227971068738 0)
(0.00111159355649 0.227770348491 0)
(0.000638632328623 0.227569121837 0)
(0.00028094523404 0.227375254758 0)
(-0.00149793787866 0.227194206974 0)
(-0.00156575518006 0.227045686157 0)
(-0.000973830765713 0.230243059572 0)
(-0.00106188803413 0.230268041498 0)
(-0.000214942520352 0.230308424777 0)
(-0.000302895717453 0.230363623694 0)
(-0.00041465108455 0.230434559342 0)
(-0.000555965564188 0.230520839198 0)
(-0.000730967852571 0.230621626589 0)
(-0.000943139564609 0.230736009853 0)
(-0.00119493994261 0.230862806481 0)
(-0.00148792278945 0.231000766871 0)
(-0.0018225207161 0.231148282635 0)
(-0.00219824418649 0.231303632939 0)
(-0.00261355523708 0.231464661744 0)
(-0.00306610852075 0.231629079257 0)
(-0.00355273043285 0.231794133911 0)
(-0.00406968623781 0.231956969784 0)
(-0.0046127427839 0.232114310918 0)
(-0.00517741743391 0.23226287338 0)
(-0.00575906535015 0.232399072525 0)
(-0.00635306914659 0.232519481411 0)
(-0.00695490278921 0.232620561617 0)
(-0.00756024445641 0.232699150072 0)
(-0.00816499645737 0.232752202393 0)
(-0.00876532543232 0.232777279658 0)
(-0.00935763933661 0.232772283046 0)
(-0.00993857082191 0.232735906049 0)
(-0.0105049273538 0.232667335904 0)
(-0.0110536416636 0.232566639422 0)
(-0.0115817225403 0.23243441417 0)
(-0.0120862017343 0.232272091537 0)
(-0.0125641184564 0.232081540081 0)
(-0.0130124889747 0.231865293202 0)
(-0.0134283478439 0.231626129477 0)
(-0.013808747523 0.231367253044 0)
(-0.0141508556763 0.231091888014 0)
(-0.0144519677311 0.230803444629 0)
(-0.0147096378752 0.230505159198 0)
(-0.0149216755996 0.230200268534 0)
(-0.0150862823968 0.229891710258 0)
(-0.0152018184055 0.229582309467 0)
(-0.0152667401856 0.229274470063 0)
(-0.0152801463024 0.22897058366 0)
(-0.0152424143803 0.228672722856 0)
(-0.0151541643113 0.228382681151 0)
(-0.0150160283315 0.22810194705 0)
(-0.0148289350527 0.227831891735 0)
(-0.0145942119384 0.227573628815 0)
(-0.0143134024937 0.227328185924 0)
(-0.0139883713845 0.2270963781 0)
(-0.0136211164356 0.226878961919 0)
(-0.013213872932 0.226676516076 0)
(-0.0127689238487 0.226489578484 0)
(-0.0122886987008 0.226318530877 0)
(-0.0117755866945 0.226163720252 0)
(-0.0112320261526 0.226025345632 0)
(-0.0106603252145 0.225903565303 0)
(-0.0100627393058 0.225798385222 0)
(-0.0094413041899 0.225709753663 0)
(-0.00879789967682 0.225637451387 0)
(-0.0081340969607 0.225581173787 0)
(-0.00745120205279 0.225540420922 0)
(-0.00675010806735 0.225514560895 0)
(-0.00603129876971 0.225502706683 0)
(-0.00529468409293 0.225503736134 0)
(-0.00453955142747 0.225516118962 0)
(-0.00376442241796 0.225537843809 0)
(-0.00296714516466 0.225566143782 0)
(-0.00214534676139 0.225597313141 0)
(-0.001297878154 0.225626492882 0)
(-0.000427131955082 0.225648062576 0)
(0.000453253492965 0.225657101307 0)
(0.00132425368295 0.225653562574 0)
(0.00217961884525 0.225636765719 0)
(0.00301732462685 0.225609336761 0)
(0.00383072050572 0.22557876841 0)
(0.00461795031115 0.225549206183 0)
(0.00538145671013 0.225524176644 0)
(0.00612349242302 0.225506281925 0)
(0.00684588826828 0.225497458239 0)
(0.00754996842831 0.225499140735 0)
(0.00823659410775 0.225512380801 0)
(0.00890619978591 0.22553793419 0)
(0.00955886302834 0.225576330788 0)
(0.0101943314993 0.225627913838 0)
(0.0108120783611 0.225692889547 0)
(0.0114113203197 0.225771335803 0)
(0.0119910655374 0.225863242357 0)
(0.0125501290157 0.225968499589 0)
(0.0130871761525 0.22608693701 0)
(0.0136007377503 0.226218300068 0)
(0.0140892511603 0.226362291576 0)
(0.0145510764301 0.226518541159 0)
(0.0149845357701 0.226686650795 0)
(0.0153879303697 0.226866158665 0)
(0.0157595771655 0.227056587916 0)
(0.0160978244775 0.227257405438 0)
(0.016401084492 0.227468072397 0)
(0.0166678459903 0.22768799828 0)
(0.0168967015932 0.227916591892 0)
(0.0170863567805 0.228153211336 0)
(0.0172356520109 0.22839721474 0)
(0.0173435685057 0.228647907337 0)
(0.0174092470117 0.228904591934 0)
(0.0174319914001 0.229166514203 0)
(0.0174113627793 0.229432912524 0)
(0.0173473021468 0.229702971655 0)
(0.017239719058 0.229975902083 0)
(0.0170884296935 0.230250810125 0)
(0.0168936267405 0.230526727416 0)
(0.0166558326777 0.230802567382 0)
(0.0163758165711 0.231077160859 0)
(0.0160546062115 0.231349190179 0)
(0.0156935075974 0.23161721878 0)
(0.0152941113689 0.231879623168 0)
(0.0148583033374 0.232134616797 0)
(0.014388256212 0.232380182185 0)
(0.0138864157508 0.232614094515 0)
(0.0133554582658 0.232833864959 0)
(0.0127982307045 0.23303678107 0)
(0.0122176534682 0.233219886415 0)
(0.0116166008853 0.233380069287 0)
(0.0109977505209 0.233514114451 0)
(0.0103634289608 0.233618872716 0)
(0.00971546496595 0.233691404964 0)
(0.00905509389815 0.233729227053 0)
(0.00838294298503 0.233730505194 0)
(0.00769914210075 0.233694294204 0)
(0.00700358689044 0.233620668022 0)
(0.00629636904889 0.233510819138 0)
(0.0055783594954 0.233367006567 0)
(0.00485190685162 0.23319244624 0)
(0.00412157710448 0.232991084973 0)
(0.00339484306285 0.23276738879 0)
(0.00268260355388 0.232526157608 0)
(0.00199944729704 0.232272523405 0)
(0.00136363614567 0.232012178682 0)
(0.000797649451025 0.231751913591 0)
(0.000329177301142 0.231500229784 0)
(-0.00152126658299 0.231263965428 0)
(-0.00158283071119 0.231118295404 0)
(-0.000975604724707 0.229887704252 0)
(-0.00106807507463 0.229911503054 0)
(-0.000231069381755 0.229961457891 0)
(-0.000333693343282 0.230034097438 0)
(-0.000460431001714 0.230128994348 0)
(-0.0006176294272 0.230245200697 0)
(-0.000809946749275 0.230381461499 0)
(-0.00104103659994 0.230536313056 0)
(-0.00131338554401 0.23070803234 0)
(-0.00162851881452 0.23089467978 0)
(-0.00198676710971 0.231093987561 0)
(-0.00238747156014 0.231303395131 0)
(-0.0028288573942 0.231519944242 0)
(-0.00330826650974 0.231740352872 0)
(-0.00382215907954 0.23196093811 0)
(-0.00436637897969 0.232177737268 0)
(-0.00493624947835 0.232386470348 0)
(-0.0055268278537 0.232582708764 0)
(-0.0061330314669 0.232761877658 0)
(-0.00674983730599 0.232919465588 0)
(-0.00737238376082 0.233051057982 0)
(-0.00799609245473 0.233152571506 0)
(-0.00861671737512 0.233220298811 0)
(-0.00923038594917 0.233251139894 0)
(-0.00983359056527 0.233242628793 0)
(-0.0104231606147 0.233193127251 0)
(-0.0109962110427 0.233101800869 0)
(-0.0115500696801 0.232968742832 0)
(-0.0120822141935 0.232794877184 0)
(-0.0125901895701 0.232581997827 0)
(-0.0130715732655 0.232332599865 0)
(-0.0135239154535 0.232049846141 0)
(-0.0139447619453 0.231737354898 0)
(-0.0143316301353 0.231399129266 0)
(-0.0146820931016 0.231039343812 0)
(-0.0149937766479 0.230662276963 0)
(-0.0152644832358 0.230272133129 0)
(-0.0154921808315 0.229873004706 0)
(-0.0156751410829 0.229468747551 0)
(-0.0158118816166 0.229062978836 0)
(-0.0159005942413 0.228658832539 0)
(-0.0159397825892 0.228259423861 0)
(-0.0159297587011 0.227867563536 0)
(-0.0158710915195 0.227485617825 0)
(-0.0157640422086 0.22711568419 0)
(-0.0156091188916 0.226759620273 0)
(-0.0154071746582 0.226419047673 0)
(-0.0151592354694 0.226095393077 0)
(-0.0148666079079 0.225789889588 0)
(-0.0145307023873 0.225503607342 0)
(-0.0141531383106 0.225237450708 0)
(-0.0137355667928 0.224992178675 0)
(-0.0132797711828 0.2247683949 0)
(-0.0127874950979 0.224566558617 0)
(-0.0122605355871 0.224386965906 0)
(-0.0117005818915 0.224229752751 0)
(-0.0111092999142 0.22409486732 0)
(-0.0104881872566 0.22398206767 0)
(-0.00983864866662 0.223890886131 0)
(-0.00916187107999 0.223820624312 0)
(-0.00845888757172 0.223770310723 0)
(-0.00773047000367 0.223738693117 0)
(-0.00697717458905 0.223724185039 0)
(-0.00619925016826 0.223724845605 0)
(-0.00539668190133 0.223738299039 0)
(-0.004569184975 0.223761683734 0)
(-0.00371643521786 0.22379154144 0)
(-0.00283852950929 0.223823790294 0)
(-0.00193695343241 0.223853793129 0)
(-0.00101592297183 0.223876823633 0)
(-8.33885692501e-05 0.22388888614 0)
(0.000843229359657 0.223889929723 0)
(0.0017524719378 0.223881079669 0)
(0.0026489008958 0.223861368778 0)
(0.0035286774637 0.223834450882 0)
(0.00438382781093 0.223806228118 0)
(0.0052136709055 0.223780265266 0)
(0.0060182041051 0.22375994854 0)
(0.00679771402307 0.223748124235 0)
(0.00755251489233 0.223747186204 0)
(0.00828286825432 0.223759098198 0)
(0.0089889252264 0.223785450032 0)
(0.00967072215038 0.22382748523 0)
(0.0103281570489 0.223886155423 0)
(0.0109610000551 0.223962143194 0)
(0.0115688802966 0.224055904079 0)
(0.0121513043374 0.224167683318 0)
(0.012707651244 0.224297546316 0)
(0.0132371954072 0.22444539288 0)
(0.0137391072773 0.22461098004 0)
(0.0142124789993 0.224793936829 0)
(0.0146563300812 0.224993781715 0)
(0.0150696351752 0.225209938661 0)
(0.0154513334545 0.225441749413 0)
(0.0158003570273 0.225688490025 0)
(0.0161156418797 0.225949377484 0)
(0.0163961549971 0.226223585509 0)
(0.016640904782 0.226510245092 0)
(0.0168489654518 0.226808458655 0)
(0.0170194855547 0.227117294626 0)
(0.0171517090852 0.22743579961 0)
(0.0172449818026 0.22776298772 0)
(0.0172987693213 0.228097851044 0)
(0.0173126609406 0.228439345163 0)
(0.017286472078 0.228786399593 0)
(0.0172204058612 0.229137910114 0)
(0.0171145753301 0.229492773186 0)
(0.0169689007476 0.22984979676 0)
(0.0167836643863 0.230207680924 0)
(0.0165594649236 0.230565006137 0)
(0.0162971031507 0.230920229294 0)
(0.0159975897822 0.231271647963 0)
(0.015662159377 0.231617391529 0)
(0.0152922690437 0.231955382248 0)
(0.0148895988087 0.232283325208 0)
(0.0144560312049 0.232598672052 0)
(0.0139936237658 0.232898619123 0)
(0.0135045526086 0.233180088732 0)
(0.0129910400347 0.233439756248 0)
(0.0124552488917 0.233674075921 0)
(0.0118991615287 0.23387936795 0)
(0.0113244375817 0.234051919969 0)
(0.0107322804346 0.234188157495 0)
(0.0101233235844 0.234284827724 0)
(0.00949757832233 0.234339232724 0)
(0.00885446666116 0.234349440728 0)
(0.00819297551557 0.234314492558 0)
(0.00751194945485 0.234234526604 0)
(0.0068105283935 0.234110839519 0)
(0.00608871338118 0.233945828499 0)
(0.00534802708361 0.233742860397 0)
(0.0045922107514 0.233506061415 0)
(0.00382788872687 0.233240118211 0)
(0.0030651069504 0.232950147972 0)
(0.00231766379997 0.23264178728 0)
(0.00160310055475 0.232321632657 0)
(0.00094258215073 0.231998209616 0)
(0.00036100340482 0.231683427545 0)
(-0.00152289592005 0.231390955032 0)
(-0.00156954561337 0.231239959255 0)
(-0.000977765249319 0.230269755606 0)
(-0.00107488646055 0.230297815573 0)
(-0.000246264660456 0.230358781547 0)
(-0.000361170806921 0.230449012093 0)
(-0.000501190141576 0.230567799763 0)
(-0.000672872992765 0.230713723443 0)
(-0.000881188647766 0.230885065177 0)
(-0.00113000216493 0.231079817756 0)
(-0.00142187937981 0.231295663551 0)
(-0.00175833869827 0.231529962112 0)
(-0.00213964330452 0.231779693225 0)
(-0.00256500163847 0.232041444145 0)
(-0.00303243793783 0.232311370538 0)
(-0.00353903063386 0.232585215402 0)
(-0.00408092526423 0.232858318707 0)
(-0.00465360275018 0.233125682832 0)
(-0.00525200171023 0.233382031875 0)
(-0.00587077907509 0.233621924433 0)
(-0.00650446862858 0.233839856583 0)
(-0.00714768978628 0.234030414176 0)
(-0.00779528094274 0.234188406183 0)
(-0.00844242859649 0.234309039064 0)
(-0.00908474029397 0.234388056701 0)
(-0.00971828541474 0.234421907815 0)
(-0.0103395980468 0.234407858934 0)
(-0.0109456380624 0.234344118358 0)
(-0.0115337381828 0.234229886276 0)
(-0.012101511521 0.234065402287 0)
(-0.0126467782115 0.233851908908 0)
(-0.0131674588992 0.233591609297 0)
(-0.0136615260978 0.23328754698 0)
(-0.0141269213232 0.232943490066 0)
(-0.0145615650658 0.232563759366 0)
(-0.0149633135684 0.232153079363 0)
(-0.0153300331187 0.231716401638 0)
(-0.0156595836182 0.231258766408 0)
(-0.0159499365381 0.230785160786 0)
(-0.0161991542728 0.23030041908 0)
(-0.0164055189545 0.229809134567 0)
(-0.0165678007578 0.229315611765 0)
(-0.0166839494101 0.228823667905 0)
(-0.0167517112364 0.22833691936 0)
(-0.0167712808451 0.227858686281 0)
(-0.016743222791 0.227391955883 0)
(-0.0166674938233 0.226939293435 0)
(-0.0165442273893 0.226502966286 0)
(-0.0163738451405 0.226084981591 0)
(-0.0161569067352 0.225687097179 0)
(-0.0158942216784 0.225310849989 0)
(-0.0155866836881 0.22495756046 0)
(-0.0152353782649 0.224628352891 0)
(-0.0148414184377 0.224324152004 0)
(-0.0144060485057 0.224045691734 0)
(-0.0139304872588 0.223793504953 0)
(-0.0134160259466 0.223567919348 0)
(-0.0128638846366 0.22336904264 0)
(-0.0122753036088 0.223196745949 0)
(-0.0116514183439 0.223050648087 0)
(-0.0109933444851 0.222930088587 0)
(-0.0103020755388 0.222834115679 0)
(-0.00957856077414 0.222761452418 0)
(-0.00882362668821 0.222710492295 0)
(-0.0080380477561 0.222679260152 0)
(-0.0072224990583 0.222665414976 0)
(-0.00637764646408 0.222666203994 0)
(-0.00550419770152 0.222678474673 0)
(-0.00460314977186 0.222698644331 0)
(-0.00367614996458 0.222722791442 0)
(-0.00272611599221 0.222746801387 0)
(-0.00175781324408 0.22276679649 0)
(-0.000777944380118 0.22277977122 0)
(0.000201995884832 0.222784003762 0)
(0.00116717401463 0.222782567602 0)
(0.00211471681933 0.222775840441 0)
(0.00304908157453 0.222762073035 0)
(0.0039644778943 0.222745982145 0)
(0.00485408950156 0.222732240992 0)
(0.00571648636622 0.222723998511 0)
(0.0065506903695 0.222724311687 0)
(0.00735606376822 0.222735919963 0)
(0.00813217725467 0.222761184953 0)
(0.00887871183477 0.22280213392 0)
(0.00959542653995 0.222860428425 0)
(0.0102821075827 0.222937419496 0)
(0.0109385517649 0.223034135629 0)
(0.0115645330971 0.223151336861 0)
(0.01215980013 0.223289505289 0)
(0.0127240560231 0.223448896097 0)
(0.0132569640669 0.223629530809 0)
(0.0137581362361 0.223831244866 0)
(0.0142271442639 0.224053684274 0)
(0.0146635152185 0.224296349481 0)
(0.0150667471121 0.224558594619 0)
(0.0154363102038 0.224839666449 0)
(0.0157716657042 0.225138704519 0)
(0.0160722708018 0.225454773724 0)
(0.0163375985691 0.225786863688 0)
(0.0165671445459 0.22613391391 0)
(0.0167604461894 0.226494811181 0)
(0.016917089297 0.226868406968 0)
(0.0170367259451 0.227253512392 0)
(0.0171190797234 0.227648908259 0)
(0.0171639615283 0.228053337804 0)
(0.0171712728938 0.228465510815 0)
(0.0171411212217 0.228884095947 0)
(0.0170740213695 0.229307731398 0)
(0.0169703372563 0.229735049839 0)
(0.0168301210466 0.230164603829 0)
(0.016653768264 0.23059480951 0)
(0.0164419871976 0.23102395674 0)