/*--------------------------------*- C++ -*----------------------------------*\
| =========                 |                                                 |
| \\      /  F ield         | OpenFOAM: The Open Source CFD Toolbox           |
|  \\    /   O peration     | Version:  2206                                  |
|   \\  /    A nd           | Website:  www.openfoam.com                      |
|    \\/     M anipulation  |                                                 |
\*---------------------------------------------------------------------------*/
FoamFile
{
    version     2.0;
    format      ascii;
    arch        "LSB;label=64;scalar=64";
    class       volScalarField;
    location    "1/water";
    object      alphat.gas;
}
// * * * * * * * * * * * * * * * * * * * * * * * * * * * * * * * * * * * * * //

dimensions      [1 -1 -1 0 0 0 0];

internalField   nonuniform List<scalar> 
23300
(
2.04025055737e-07
1.99956547039e-07
2.17119982558e-07
2.44862921593e-07
2.76172425184e-07
3.08751477673e-07
3.41754446729e-07
3.74781110448e-07
4.07596539494e-07
4.40055322305e-07
4.72056681924e-07
5.03536989682e-07
5.3444859155e-07
5.64762807674e-07
5.94455355274e-07
6.23512019112e-07
6.51917273824e-07
6.79660794974e-07
7.06727913079e-07
7.3310657946e-07
7.58778993089e-07
7.83728926794e-07
8.07934212613e-07
8.31374289605e-07
8.54023347327e-07
8.75857886816e-07
8.96850380846e-07
9.16976631459e-07
9.36209864081e-07
9.54527715829e-07
9.7190671156e-07
9.88328767044e-07
1.00377598776e-06
1.01823659372e-06
1.03169997199e-06
1.04416195774e-06
1.05562007837e-06
1.06607817672e-06
1.07554181764e-06
1.08402230627e-06
1.09153227277e-06
1.09808918264e-06
1.10371116026e-06
1.10842009679e-06
1.11223776845e-06
1.11518861255e-06
1.11729615989e-06
1.11858548026e-06
1.11907991755e-06
1.11880312788e-06
1.11777609268e-06
1.11601865725e-06
1.11354675939e-06
1.1103733934e-06
1.10650595545e-06
1.10194656383e-06
1.09668938266e-06
1.09072022773e-06
1.08401374701e-06
1.07653227083e-06
1.06822291847e-06
1.05901642105e-06
1.04882694035e-06
1.03755713724e-06
1.02510074989e-06
1.0117305753e-06
9.97955590997e-07
9.83998615798e-07
9.69970249662e-07
9.55933758879e-07
9.41930985743e-07
9.27992712772e-07
9.14142908253e-07
9.0040048111e-07
8.86780321016e-07
8.73293804718e-07
8.59949322021e-07
8.46752534207e-07
8.33706755313e-07
8.20813124997e-07
8.08070902798e-07
7.95477614955e-07
7.83029284811e-07
7.7072056451e-07
7.5854491759e-07
7.46494742521e-07
7.34561516474e-07
7.22735913686e-07
7.11007916915e-07
6.99366932354e-07
6.87801874621e-07
6.76301279044e-07
6.64853365571e-07
6.53446148087e-07
6.42067483385e-07
6.30705176826e-07
6.19347021142e-07
6.07980898742e-07
5.96594813781e-07
5.85176992116e-07
5.73715909128e-07
5.62200388059e-07
5.50619626074e-07
5.38963292038e-07
5.27221552333e-07
5.15385169569e-07
5.03445529165e-07
4.91394741225e-07
4.79225668853e-07
4.66932035776e-07
4.54508458627e-07
4.41950563794e-07
4.29255028005e-07
4.16419711395e-07
4.03443714401e-07
3.903275413e-07
3.77073190898e-07
3.6368437883e-07
3.50166701603e-07
3.36527976367e-07
3.22778565219e-07
3.08931958759e-07
2.9500545095e-07
2.81021244592e-07
2.67007898906e-07
2.53002585959e-07
2.39054279768e-07
2.25228655277e-07
2.11615383576e-07
1.98339463509e-07
1.85578723861e-07
1.73590505812e-07
1.62741981999e-07
1.53416855689e-07
1.45717969677e-07
1.40793254522e-07
1.42569923583e-07
1.61629433012e-07
2.12729079489e-07
2.56341644027e-07
9.87141844608e-08
1.04254775353e-07
1.17851091827e-07
1.35283618445e-07
1.54677946198e-07
1.75401814172e-07
1.97153904115e-07
2.19716930225e-07
2.42905006897e-07
2.66551468296e-07
2.90505945965e-07
3.14631587063e-07
3.38803814645e-07
3.6290791588e-07
3.86838188157e-07
4.10495875047e-07
4.33788789435e-07
4.56629718519e-07
4.78936527559e-07
5.00631066984e-07
5.21639689705e-07
5.41892592229e-07
5.61324610114e-07
5.79874839582e-07
5.97487544625e-07
6.1411189648e-07
6.29702864908e-07
6.44220970582e-07
6.57633094913e-07
6.69912188955e-07
6.81037958396e-07
6.90996477226e-07
6.9978069008e-07
7.07389867059e-07
7.13829861494e-07
7.19112361112e-07
7.23254875515e-07
7.26279794584e-07
7.28214144809e-07
7.29088532035e-07
7.28936759899e-07
7.27794767285e-07
7.25700212192e-07
7.226914974e-07
7.18807386729e-07
7.14086162414e-07
7.08565291325e-07
7.02280714712e-07
6.95266557921e-07
6.87554543135e-07
6.79173744995e-07
6.70150134777e-07
6.60506406151e-07
6.50261675637e-07
6.39431409417e-07
6.28027296749e-07
6.16057283223e-07
6.03525573423e-07
5.90432608482e-07
5.76774745073e-07
5.62543424929e-07
5.47724361823e-07
5.32298781242e-07
5.16247481669e-07
4.99541789582e-07
4.82808584419e-07
4.66477818984e-07
4.50660882797e-07
4.35407704512e-07
4.20741621432e-07
4.06669999147e-07
3.93189822282e-07
3.80290842673e-07
3.6795774644e-07
3.56171499217e-07
3.4491050454e-07
3.34151318353e-07
3.23869380637e-07
3.14039415764e-07
3.04635926724e-07
2.95633408804e-07
2.87006696312e-07
2.78731058333e-07
2.70782449952e-07
2.63137532352e-07
2.5577386157e-07
2.48669860552e-07
2.41804967168e-07
2.35159576614e-07
2.28715163168e-07
2.22454205213e-07
2.16360290185e-07
2.10418030264e-07
2.04613156425e-07
1.98932429985e-07
1.93363729164e-07
1.87895959529e-07
1.82519134904e-07
1.77224288261e-07
1.72003547678e-07
1.66850048248e-07
1.61758003098e-07
1.56722616348e-07
1.51740148754e-07
1.46807831497e-07
1.41923925888e-07
1.37087637751e-07
1.32299170718e-07
1.2755964124e-07
1.22871125295e-07
1.18236574617e-07
1.13659857153e-07
1.09145675857e-07
1.04699604121e-07
1.00328009373e-07
9.60380857525e-08
9.1837785679e-08
8.7735852753e-08
8.37417646298e-08
7.98657680266e-08
7.61188328878e-08
7.25126841107e-08
6.90597530384e-08
6.57731763349e-08
6.26666913305e-08
5.97545137987e-08
5.70510469475e-08
5.45704781023e-08
5.23261848986e-08
5.03302224643e-08
4.85935518771e-08
4.71291624629e-08
4.59634410027e-08
4.51689451724e-08
4.49554600008e-08
4.59835093169e-08
5.05825448217e-08
6.72357006421e-08
1.12185329385e-07
1.50063561133e-07
6.03441180022e-08
6.63873410115e-08
7.55087610954e-08
8.58920916425e-08
9.71441462867e-08
1.0922179077e-07
1.22103082936e-07
1.35736305862e-07
1.50044717702e-07
1.64934363364e-07
1.80301089094e-07
1.96033619794e-07
2.12017005055e-07
2.28133505024e-07
2.4426478064e-07
2.60292072596e-07
2.76098015307e-07
2.91566670014e-07
3.06585292644e-07
3.21044414573e-07
3.34839618383e-07
3.47871638307e-07
3.60048046785e-07
3.71283264612e-07
3.81500051448e-07
3.90629358184e-07
3.98611582241e-07
4.05396257966e-07
4.10943075797e-07
4.1522141513e-07
4.18211109598e-07
4.19901797562e-07
4.20293391545e-07
4.19395218455e-07
4.17226179745e-07
4.13813710932e-07
4.09193699004e-07
4.03409374671e-07
3.96511125074e-07
3.88555469093e-07
3.79604900022e-07
3.6972704627e-07
3.58994600857e-07
3.47484673721e-07
3.35278775866e-07
3.22462298836e-07
3.09124482435e-07
2.95357943323e-07
2.81258562717e-07
2.66924996984e-07
2.52458427525e-07
2.37961976124e-07
2.23540236407e-07
2.09298483657e-07
1.95341866421e-07
1.81774234033e-07
1.68696730761e-07
1.56205804859e-07
1.44390579862e-07
1.33329339027e-07
1.23085214205e-07
1.13700878806e-07
1.05191128337e-07
9.75331378612e-08
9.09235170731e-08
8.50599731593e-08
7.97210833717e-08
7.485819626e-08
7.04332223124e-08
6.64095603503e-08
6.2752306134e-08
5.94286793483e-08
5.64082157481e-08
5.36628262354e-08
5.11667509669e-08
4.88964774584e-08
4.6830610194e-08
4.49497421533e-08
4.32363009643e-08
4.16744137488e-08
4.02497565725e-08
3.8949429814e-08
3.77618218909e-08
3.66765014188e-08
3.5684098457e-08
3.47762144139e-08
3.39453203651e-08
3.31846832345e-08
3.24882791429e-08
3.18507334505e-08
3.12672465501e-08
3.07335451369e-08
3.02458178433e-08
2.98006752264e-08
2.93950928516e-08
2.90263777735e-08
2.86921170171e-08
2.83901487112e-08
2.81185143487e-08
2.78754332209e-08
2.76592574168e-08
2.74684488604e-08
2.73015367782e-08
2.71570975151e-08
2.7033715222e-08
2.69299657416e-08
2.68443824924e-08
2.67754469532e-08
2.67215629477e-08
2.66810572815e-08
2.66521663619e-08
2.66330507214e-08
2.66217974117e-08
2.66164506964e-08
2.66150311855e-08
2.66155813715e-08
2.66161979129e-08
2.6615085421e-08
2.66105929465e-08
2.66012647569e-08
2.65858692515e-08
2.65634359296e-08
2.6533270732e-08
2.64949826989e-08
2.64485080512e-08
2.63941832605e-08
2.63328997904e-08
2.62664712824e-08
2.61984167748e-08
2.61356333985e-08
2.60919127613e-08
2.60954682025e-08
2.62055782341e-08
2.65517336601e-08
2.74354628858e-08
2.96431602778e-08
3.5759538952e-08
5.58953410718e-08
1.12867817013e-07
1.65398232446e-07
4.54420709559e-08
4.99750815718e-08
5.59042396883e-08
6.22456388996e-08
6.88951254165e-08
7.59061579196e-08
8.33164930013e-08
9.11271391772e-08
9.9310300704e-08
1.07817412545e-07
1.16585760947e-07
1.25541880109e-07
1.34604730439e-07
1.43687026497e-07
1.52697302917e-07
1.61540738914e-07
1.70121066211e-07
1.78341460416e-07
1.86106569745e-07
1.93323552948e-07
1.99904157178e-07
2.05765748237e-07
2.10833246238e-07
2.15039974338e-07
2.18329308862e-07
2.20655251155e-07
2.21983720554e-07
2.22292798907e-07
2.21573606352e-07
2.19830155686e-07
2.17079732397e-07
2.13352290248e-07
2.08690281351e-07
2.03147583483e-07
1.96788818836e-07
1.89687911621e-07
1.81927039713e-07
1.73594997645e-07
1.6478596181e-07
1.55597820825e-07
1.46130885274e-07
1.36486274234e-07
1.26764631089e-07
1.17064604359e-07
1.07481614837e-07
9.81064839702e-08
8.9024338946e-08
8.03134941019e-08
7.20446345067e-08
6.42801056342e-08
5.70735672737e-08
5.04699125883e-08
4.45056802675e-08
3.92099624446e-08
3.46060326304e-08
3.07137344358e-08
2.75526046445e-08
2.51448317211e-08
2.35147763184e-08
2.26755184134e-08
2.25829484184e-08
2.30431750801e-08
2.36382003941e-08
2.38578410238e-08
2.39420672361e-08
2.40362957973e-08
2.41442554855e-08
2.42614166457e-08
2.43837429589e-08
2.45081089693e-08
2.46321195079e-08
2.47539480878e-08
2.48722043287e-08
2.49858366899e-08
2.50940520401e-08
2.51962618543e-08
2.52920348675e-08
2.5381070031e-08
2.5463168237e-08
2.55382203864e-08
2.5606188971e-08
2.56671039731e-08
2.57210488745e-08
2.5768160286e-08
2.58086155208e-08
2.58426339018e-08
2.58704646134e-08
2.58923888354e-08
2.59087074675e-08
2.59197438792e-08
2.59258315358e-08
2.59273174424e-08
2.59245498685e-08
2.59178826482e-08
2.59076632185e-08
2.58942379102e-08
2.58779404608e-08
2.58590983546e-08
2.58380218942e-08
2.58150115593e-08
2.57903476484e-08
2.57642985496e-08
2.57371109105e-08
2.57090186567e-08
2.56802336166e-08
2.56509550871e-08
2.56213608296e-08
2.55916169591e-08
2.55618692313e-08
2.55322530142e-08
2.55028847907e-08
2.54738719557e-08
2.54453044511e-08
2.54172641031e-08
2.53898162907e-08
2.53630185126e-08
2.53369120079e-08
2.53115293431e-08
2.528688623e-08
2.52629887266e-08
2.52398272956e-08
2.5217388044e-08
2.51956588916e-08
2.51746649794e-08
2.51545277893e-08
2.51356057114e-08
2.51187660524e-08
2.51059463556e-08
2.51012662131e-08
2.51132740613e-08
2.51595174949e-08
2.52761293222e-08
2.55388766005e-08
2.61131591367e-08
2.73885925414e-08
3.04182540622e-08
3.88326241737e-08
6.68431688831e-08
1.40934713796e-07
1.98829062738e-07
3.85177710517e-08
4.16613840522e-08
4.55418925401e-08
4.95548637285e-08
5.36347834828e-08
5.78145630652e-08
6.21223618014e-08
6.65641134751e-08
7.11256615583e-08
7.5777095354e-08
8.04773440153e-08
8.51769964717e-08
8.98210242277e-08
9.43502135058e-08
9.87029900955e-08
1.02816417876e-07
1.06627849849e-07
1.10075957141e-07
1.13102439791e-07
1.15653129862e-07
1.17679668769e-07
1.19140516835e-07
1.20002404553e-07
1.2024107132e-07
1.19842338329e-07
1.18802454403e-07
1.1712868299e-07
1.14839161153e-07
1.11962911562e-07
1.08539143853e-07
1.04616646791e-07
1.00252534959e-07
9.55110826315e-08
9.04620458326e-08
8.51791323414e-08
7.97381430005e-08
7.4215351333e-08
6.86857376105e-08
6.32215350903e-08
5.78907754424e-08
5.27561862165e-08
4.78741930898e-08
4.32942963754e-08
3.90586396421e-08
3.52019749958e-08
3.17518908067e-08
2.87294299521e-08
2.61499418089e-08
2.40241104519e-08
2.23587395133e-08
2.11566750807e-08
2.0414663117e-08
2.01176826789e-08
2.02288087023e-08
2.06767251077e-08
2.13489028504e-08
2.21029082221e-08
2.28008686389e-08
2.33512341083e-08
2.37294195368e-08
2.39652471866e-08
2.41116979635e-08
2.42186361727e-08
2.43243597123e-08
2.4432136539e-08
2.45414093245e-08
2.46512749956e-08
2.47608426321e-08
2.48692812583e-08
2.49758225979e-08
2.50797558684e-08
2.51804284544e-08
2.52772431881e-08
2.53696630173e-08
2.54572093255e-08
2.55394679938e-08
2.56160867739e-08
2.56867811468e-08
2.575132976e-08
2.58095793315e-08
2.5861437824e-08
2.59068781807e-08
2.5945929317e-08
2.59786788117e-08
2.60052620483e-08
2.6025864192e-08
2.60407079595e-08
2.60500553268e-08
2.6054194467e-08
2.60534416662e-08
2.60481279534e-08
2.60386016591e-08
2.60252151838e-08
2.60083285343e-08
2.59882965577e-08
2.5965473656e-08
2.59402016812e-08
2.59128158936e-08
2.58836335899e-08
2.58529612518e-08
2.58210838878e-08
2.57882732279e-08
2.57547777002e-08
2.57208314704e-08
2.56866449462e-08
2.56524144291e-08
2.56183130387e-08
2.55845007305e-08
2.55511155456e-08
2.5518283748e-08
2.54861113216e-08
2.54546939787e-08
2.54241088434e-08
2.53944240836e-08
2.53656907401e-08
2.53379517724e-08
2.53112341141e-08
2.52855571957e-08
2.52609259247e-08
2.52373400647e-08
2.52147915313e-08
2.51932814069e-08
2.51728355228e-08
2.51535564604e-08
2.51357109914e-08
2.51199206652e-08
2.51075215114e-08
2.51012822872e-08
2.51067999641e-08
2.5135274816e-08
2.52091086007e-08
2.53736585662e-08
2.57234836472e-08
2.6467227357e-08
2.81139369797e-08
3.21249801498e-08
4.38186755759e-08
8.27036584383e-08
1.75948722414e-07
2.34545687198e-07
3.48633650067e-08
3.69938567824e-08
3.95543795767e-08
4.21570412376e-08
4.47393090242e-08
4.73023596409e-08
4.98524923062e-08
5.23879484385e-08
5.4897462984e-08
5.73611903401e-08
5.97529225839e-08
6.20417228988e-08
6.41938552191e-08
6.61739687409e-08
6.79465995895e-08
6.94770958366e-08
7.07329374874e-08
7.16845846744e-08
7.23066911287e-08
7.2578842536e-08
7.24865583264e-08
7.20217817448e-08
7.11835367035e-08
6.99780609151e-08
6.8419039033e-08
6.65273257791e-08
6.43307214538e-08
6.18632692459e-08
5.91645793791e-08
5.62787384221e-08
5.32532627687e-08
5.01377502374e-08
4.69826463009e-08
4.38378641088e-08
4.0751620509e-08
3.77692855531e-08
3.49325349642e-08
3.22786316667e-08
2.98400400077e-08
2.76442002476e-08
2.57135654965e-08
2.40656858977e-08
2.27132943749e-08
2.16640586505e-08
2.09197648808e-08
2.04745369665e-08
2.0312039857e-08
2.04020839984e-08
2.06981545658e-08
2.11382278538e-08
2.16510756457e-08
2.21677715122e-08
2.2634520363e-08
2.30210245963e-08
2.33209239611e-08
2.35454192282e-08
2.37143047184e-08
2.38483008344e-08
2.39644711792e-08
2.40745556189e-08
2.41852680028e-08
2.42982726167e-08
2.44136794122e-08
2.45309131928e-08
2.46491571488e-08
2.47675861237e-08
2.48853749706e-08
2.50017190129e-08
2.51158470459e-08
2.52270312158e-08
2.53345903557e-08
2.54378969074e-08
2.55363780184e-08
2.56295225436e-08
2.57168805733e-08
2.57980701786e-08
2.58727749666e-08
2.59407500158e-08
2.60018171391e-08
2.60558696694e-08
2.61028653269e-08
2.61428297413e-08
2.61758470199e-08
2.62020621048e-08
2.62216693369e-08
2.62349139575e-08
2.62420791516e-08
2.62434871811e-08
2.62394855176e-08
2.62304481832e-08
2.62167616101e-08
2.61988267377e-08
2.61770451508e-08
2.61518223539e-08
2.61235545763e-08
2.60926334555e-08
2.60594337079e-08
2.6024319267e-08
2.59876318528e-08
2.59496984594e-08
2.59108207479e-08
2.58712836821e-08
2.58313456136e-08
2.57912478138e-08
2.57512051058e-08
2.57114160234e-08
2.5672053855e-08
2.56332771602e-08
2.55952211172e-08
2.55580081379e-08
2.55217394399e-08
2.54865055169e-08
2.54523778903e-08
2.54194192187e-08
2.53876752445e-08
2.53571844283e-08
2.53279703265e-08
2.53000510806e-08
2.52734333694e-08
2.52481239008e-08
2.52241296374e-08
2.52014803365e-08
2.51802529384e-08
2.51606393559e-08
2.51430605811e-08
2.51284044949e-08
2.51184679937e-08
2.51168233195e-08
2.51304839609e-08
2.51731980572e-08
2.52721139861e-08
2.54820095751e-08
2.59182500078e-08
2.68431634731e-08
2.89308305642e-08
3.42320484567e-08
5.03768321256e-08
1.02087792835e-07
2.13047423977e-07
2.69405650359e-07
3.27669440802e-08
3.41999244436e-08
3.58996021065e-08
3.76141409562e-08
3.92868828287e-08
4.08997810491e-08
4.24422965361e-08
4.39037885024e-08
4.52718505891e-08
4.65318451033e-08
4.76675712094e-08
4.86617453079e-08
4.94969873321e-08
5.01564095969e-08
5.0624554181e-08
5.08879440231e-08
5.09359215913e-08
5.07611137504e-08
5.03601027667e-08
4.97337015311e-08
4.88873459158e-08
4.78310811736e-08
4.65796127091e-08
4.51519787571e-08
4.35712717827e-08
4.18640341552e-08
4.00597067876e-08
3.81898181777e-08
3.62872489415e-08
3.4385320778e-08
3.25170062688e-08
3.07140616137e-08
2.90063328721e-08
2.74210660807e-08
2.59824044962e-08
2.47108951475e-08
2.36230971447e-08
2.2731080908e-08
2.20418342732e-08
2.15563875825e-08
2.12687538077e-08
2.11647751663e-08
2.12213909542e-08
2.14069222412e-08
2.16831107483e-08
2.20090718402e-08
2.23465826336e-08
2.26651675655e-08
2.29453715236e-08
2.31792340983e-08
2.33682752999e-08
2.35200924558e-08
2.36449073296e-08
2.37528888371e-08
2.38525773236e-08
2.39502496966e-08
2.40499552492e-08
2.41538888816e-08
2.42629002696e-08
2.43770108167e-08
2.44954924205e-08
2.46161160964e-08
2.4738672026e-08
2.48623353777e-08
2.49862583666e-08
2.51095889885e-08
2.52314818169e-08
2.53511129252e-08
2.54676913317e-08
2.55804706273e-08
2.56887547236e-08
2.57919065388e-08
2.58893496826e-08
2.5980575367e-08
2.60651412698e-08
2.61426777491e-08
2.62128850103e-08
2.62755392785e-08
2.63304885608e-08
2.63776583838e-08
2.6417045434e-08
2.64487218095e-08
2.64728256617e-08
2.64895633118e-08
2.64991968104e-08
2.65020442529e-08
2.64984650865e-08
2.64888596479e-08
2.64736534145e-08
2.64532968757e-08
2.64282497918e-08
2.6398982254e-08
2.63659597004e-08
2.63296456943e-08
2.62904881202e-08
2.62489238869e-08
2.62053664224e-08
2.61602122243e-08
2.61138295377e-08
2.60665664826e-08
2.60187406828e-08
2.59706486277e-08
2.59225560113e-08
2.58747079927e-08
2.58273200478e-08
2.57805888242e-08
2.57346833569e-08
2.56897562394e-08
2.56459350953e-08
2.56033338071e-08
2.5562044173e-08
2.55221469605e-08
2.54837037254e-08
2.54467675085e-08
2.54113748924e-08
2.53775563256e-08
2.53453288118e-08
2.531470646e-08
2.52856953922e-08
2.52583074216e-08
2.52325631459e-08
2.52085199824e-08
2.51863050867e-08
2.51661984465e-08
2.51487725171e-08
2.5135175233e-08
2.51276509698e-08
2.51305502121e-08
2.51522639509e-08
2.5209058366e-08
2.53329470801e-08
2.55890162467e-08
2.61176050536e-08
2.72517471384e-08
2.9894229344e-08
3.6905809201e-08
5.88101439096e-08
1.24576461552e-07
2.51265589894e-07
3.03334820749e-07
3.14891888741e-08
3.24514469126e-08
3.35854138059e-08
3.47271133824e-08
3.58299322805e-08
3.68690356047e-08
3.78255987133e-08
3.86834488303e-08
3.94285156818e-08
4.00483978238e-08
4.05325465305e-08
4.08721602469e-08
4.10604858368e-08
4.10928279429e-08
4.09668895283e-08
4.06828341834e-08
4.02436035687e-08
3.965494747e-08
3.89256180338e-08
3.80672554528e-08
3.70943662849e-08
3.60240026429e-08
3.48755106528e-08
3.36700280174e-08
3.243006092e-08
3.11788720811e-08
2.9939965156e-08
2.87364360584e-08
2.75904309581e-08
2.65225109399e-08
2.55511174307e-08
2.46919573384e-08
2.39574593535e-08
2.33561424663e-08
2.28920387171e-08
2.25640840346e-08
2.23656957386e-08
2.22846004136e-08
2.23032381779e-08
2.23998462146e-08
2.2550366973e-08
2.2730893912e-08
2.29202659243e-08
2.31021286814e-08
2.32660459915e-08
2.34074202321e-08
2.3526488802e-08
2.36267669996e-08
2.3713462546e-08
2.37921383856e-08
2.38678278349e-08
2.39445497295e-08
2.40251807827e-08
2.41115264244e-08
2.42045226153e-08
2.43044536888e-08
2.44111678746e-08
2.45242419668e-08
2.46431265829e-08
2.47672490087e-08
2.48944872719e-08
2.50236058164e-08
2.51540010001e-08
2.52847468211e-08
2.54149228684e-08
2.55436231794e-08
2.56699733125e-08
2.57931468052e-08
2.59123748291e-08
2.60269520248e-08
2.61362315111e-08
2.62396191613e-08
2.63365594959e-08
2.64265293285e-08
2.65090292768e-08
2.65835916182e-08
2.66497885504e-08
2.67072577416e-08
2.67557216576e-08
2.67950166078e-08
2.68251042117e-08
2.68460851185e-08
2.68581890305e-08
2.68617677404e-08
2.68572673501e-08
2.68452111548e-08
2.68261681015e-08
2.68007390971e-08
2.67695320202e-08
2.67331570038e-08
2.66922091382e-08
2.66472706655e-08
2.65988979176e-08
2.65476269065e-08
2.64939618615e-08
2.64383825615e-08
2.63813337166e-08
2.63232336896e-08
2.62644645967e-08
2.62053821862e-08
2.61463064362e-08
2.60875322357e-08
2.60293202456e-08
2.59719080962e-08
2.59155014237e-08
2.58602854216e-08
2.58064160671e-08
2.57540318935e-08
2.57032454245e-08
2.56541549921e-08
2.56068363641e-08
2.55613544031e-08
2.55177548858e-08
2.54760758424e-08
2.54363396878e-08
2.53985643098e-08
2.53627560549e-08
2.53289214248e-08
2.5297062937e-08
2.5267195068e-08
2.52393501884e-08
2.52136120846e-08
2.5190157182e-08
2.51693525208e-08
2.51519199344e-08
2.51392626362e-08
2.51340626566e-08
2.51414327976e-08
2.51711289655e-08
2.52419834988e-08
2.53912302555e-08
2.56958806372e-08
2.63276550061e-08
2.77137871927e-08
3.10655966014e-08
4.0307426085e-08
6.9326530763e-08
1.49736032316e-07
2.90358972712e-07
3.36407517044e-07
3.06696248638e-08
3.13170687168e-08
3.20781310811e-08
3.28458161214e-08
3.3584154381e-08
3.42686679982e-08
3.48787350726e-08
3.53966296718e-08
3.58079221197e-08
3.61014840522e-08
3.62697338431e-08
3.63084070421e-08
3.62165642014e-08
3.59962550656e-08
3.5652437823e-08
3.51926448795e-08
3.46268780383e-08
3.39672761886e-08
3.32279529338e-08
3.24246067807e-08
3.15742517857e-08
3.06947401118e-08
2.98043907949e-08
2.89214527099e-08
2.80636773396e-08
2.72477663438e-08
2.64889275556e-08
2.58003331078e-08
2.5192681682e-08
2.46736946255e-08
2.42477409843e-08
2.39154766119e-08
2.36737124504e-08
2.35154557063e-08
2.3430338175e-08
2.34053566e-08
2.34260211844e-08
2.34776805274e-08
2.35469210406e-08
2.36226906455e-08
2.36970367405e-08
2.37652677044e-08
2.38256670317e-08
2.3878823881e-08
2.39268554975e-08
2.39726209967e-08
2.40191163264e-08
2.40690324317e-08
2.41245359567e-08
2.41871764545e-08
2.42579264868e-08
2.43372570862e-08
2.44252583763e-08
2.45217376527e-08
2.46263198127e-08
2.47385076835e-08
2.48577278123e-08
2.4983330498e-08
2.51145862172e-08
2.52507082959e-08
2.53889810609e-08
2.55286294674e-08
2.56687206865e-08
2.58083786315e-08
2.59468835624e-08
2.60837333765e-08
2.6218683078e-08
2.63517431583e-08
2.64831145487e-08
2.66130543625e-08
2.67416716164e-08
2.68686922006e-08
2.69932359389e-08
2.71136833412e-08
2.72276730664e-08
2.73322704851e-08
2.74242722392e-08
2.75006094977e-08
2.75587506593e-08
2.75970451905e-08
2.76149236235e-08
2.76129465829e-08
2.75926801846e-08
2.75564575486e-08
2.75070524848e-08
2.74473556417e-08
2.73800795247e-08
2.73075626422e-08
2.72316579791e-08
2.71537318353e-08
2.70747158386e-08
2.69952141939e-08
2.69156008804e-08
2.68361207775e-08
2.67569477606e-08
2.66782360979e-08
2.66001322876e-08
2.65227928452e-08
2.64463750128e-08
2.63710443809e-08
2.62969613735e-08
2.62242883568e-08
2.61531763562e-08
2.6083773012e-08
2.60162098373e-08
2.59506109785e-08
2.58870812454e-08
2.58257158467e-08
2.57665895027e-08
2.57097671511e-08
2.56552941503e-08
2.56032076246e-08
2.5553527546e-08
2.55062683139e-08
2.54614306148e-08
2.54190131523e-08
2.53790057879e-08
2.53414023938e-08
2.53061976202e-08
2.52734051604e-08
2.52430664889e-08
2.52152898528e-08
2.51902995591e-08
2.51685484106e-08
2.51509054834e-08
2.51390249259e-08
2.51360185957e-08
2.51477529272e-08
2.51853603332e-08
2.52703652272e-08
2.54458224568e-08
2.58030540027e-08
2.65538932957e-08
2.82496584913e-08
3.25055012116e-08
4.4598017765e-08
8.20286230164e-08
1.77069494064e-07
3.2995574087e-07
3.68546010251e-07
3.01169201205e-08
3.05550737455e-08
3.10705606612e-08
3.15932991605e-08
3.20964127446e-08
3.25586071905e-08
3.29607921924e-08
3.32862616361e-08
3.35215942529e-08
3.36569565681e-08
3.36865046546e-08
3.36082172061e-08
3.34238333825e-08
3.31383848539e-08
3.27598986496e-08
3.22988264145e-08
3.17676720122e-08
3.11804169813e-08
3.05521271652e-08
2.9898387054e-08
2.92348892847e-08
2.85768797903e-08
2.7938748683e-08
2.73335136139e-08
2.67724522506e-08
2.62646676342e-08
2.58168177373e-08
2.54328307428e-08
2.51138249252e-08
2.48580902426e-08
2.46613333819e-08
2.4517048037e-08
2.44171548935e-08
2.43527231109e-08
2.43148249692e-08
2.42952811365e-08
2.42873076851e-08
2.42858619898e-08
2.42877695922e-08
2.42915495225e-08
2.42971120216e-08
2.43053203435e-08
2.43175949691e-08
2.43355336803e-08
2.43606643436e-08
2.43942585177e-08
2.44372685123e-08
2.44902975064e-08
2.45536438286e-08
2.46273381419e-08
2.47112128553e-08
2.48049419141e-08
2.49080929223e-08
2.5020147606e-08
2.51405300685e-08
2.52686058713e-08
2.5403679314e-08
2.55449671134e-08
2.5691619446e-08
2.58428691613e-08
2.59957984573e-08
2.61507287429e-08
2.63087691085e-08
2.64727686824e-08
2.66479473533e-08
2.68423215284e-08
2.70665918155e-08
2.73331190201e-08
2.76538065967e-08
2.80371538008e-08
2.84852031979e-08
2.89913187659e-08
2.95394866386e-08
3.01053603708e-08
3.0658756893e-08
3.11670552862e-08
3.15988474306e-08
3.19273123037e-08
3.21328850635e-08
3.2204996879e-08
3.21427528672e-08
3.19545948098e-08
3.16570376776e-08
3.12727065143e-08
3.08278895016e-08
3.03499176091e-08
2.98646233059e-08
2.93941868895e-08
2.89555734847e-08
2.85597652135e-08
2.82118133021e-08
2.79116653678e-08
2.76555043533e-08
2.74373119839e-08
2.72502883456e-08
2.70879298725e-08
2.69446394398e-08
2.68159597653e-08
2.66985174713e-08
2.65898555383e-08
2.6488213308e-08
2.63923510566e-08
2.63013943671e-08
2.62147395505e-08
2.61319672841e-08
2.6052799163e-08
2.5977046439e-08
2.5904590886e-08
2.58353512143e-08
2.57692774442e-08
2.57063283175e-08
2.56464742217e-08
2.55896817485e-08
2.55359216671e-08
2.54851578927e-08
2.54373582668e-08
2.53924867994e-08
2.53505171261e-08
2.53114298057e-08
2.52752327637e-08
2.52419726776e-08
2.5211779334e-08
2.51849226831e-08
2.51619392378e-08
2.5143842506e-08
2.51325328182e-08
2.51315448916e-08
2.51474958358e-08
2.51929286377e-08
2.52922628665e-08
2.54952276785e-08
2.59106418155e-08
2.68015810783e-08
2.88797943945e-08
3.42761698534e-08
4.99409841314e-08
9.69260328132e-08
2.06112108112e-07
3.69707608773e-07
3.99680163767e-07
2.97230194191e-08
3.00229220345e-08
3.03775605989e-08
3.07407338281e-08
3.10925118835e-08
3.14152209677e-08
3.16923604056e-08
3.19092501823e-08
3.20540891474e-08
3.21183839985e-08
3.20974350457e-08
3.1990229943e-08
3.17993970392e-08
3.15307095341e-08
3.11927068118e-08
3.07960179006e-08
3.03528570301e-08
2.98763258452e-08
2.93799076738e-08
2.88768280093e-08
2.83796081646e-08
2.7899529747e-08
2.74462982134e-08
2.70276629239e-08
2.66492509408e-08
2.63144032099e-08
2.60242413109e-08
2.57777719805e-08
2.55722209333e-08
2.54034002177e-08
2.52662495387e-08
2.51553376209e-08
2.50654190477e-08
2.49918355706e-08
2.49308560485e-08
2.48797939878e-08
2.48370364943e-08
2.4801889014e-08
2.47743982444e-08
2.47550881195e-08
2.47447568934e-08
2.47442620676e-08
2.47544032239e-08
2.47758137516e-08
2.48089399744e-08
2.48540160807e-08
2.49110975679e-08
2.49800718406e-08
2.50607026243e-08
2.51526415916e-08
2.52554599118e-08
2.53686467846e-08
2.5491623052e-08
2.56237297257e-08
2.5764238665e-08
2.5912370907e-08
2.60674111349e-08
2.62290448583e-08
2.63983751602e-08
2.65800245944e-08
2.6782426594e-08
2.70283171148e-08
2.73571092095e-08
2.78295420414e-08
2.8526522228e-08
2.9539162701e-08
3.09509997953e-08
3.28183801683e-08
3.51558312034e-08
3.79297011883e-08
4.10594918532e-08
4.44247842386e-08
4.78757890587e-08
5.1246066588e-08
5.43661307954e-08
5.70767646406e-08
5.92408902031e-08
6.07531099337e-08
6.15462357302e-08
6.15945418464e-08
6.09136886551e-08
5.95576434565e-08
5.76130244839e-08
5.51915613096e-08
5.24213340058e-08
4.94375966745e-08
4.63738364413e-08
4.33537392822e-08
4.04844784576e-08
3.78516816089e-08
3.55161714946e-08
3.35125814484e-08
3.18498462838e-08
3.05137161392e-08
2.94713119231e-08
2.86775126216e-08
2.8082259365e-08
2.76373765474e-08
2.73014234264e-08
2.70419149517e-08
2.68351809527e-08
2.66648661878e-08
2.65200078254e-08
2.63933526761e-08
2.62800878218e-08
2.61770060372e-08
2.60819498115e-08
2.59934733014e-08
2.59106009302e-08
2.583268315e-08
2.57592777177e-08
2.56900868622e-08
2.56248958716e-08
2.55635509226e-08
2.55059275616e-08
2.54519293227e-08
2.54014719951e-08
2.53544934713e-08
2.53109490229e-08
2.52708325173e-08
2.52341895651e-08
2.52011667175e-08
2.51720757259e-08
2.5147533221e-08
2.51286927301e-08
2.51176944491e-08
2.51184882111e-08
2.51384420166e-08
2.51915616824e-08
2.53054356194e-08
2.55375663798e-08
2.60182630951e-08
2.70754336854e-08
2.96244381672e-08
3.64433506524e-08
5.64929642475e-08
1.13951653395e-07
2.364496062e-07
4.09265982306e-07
4.2977068346e-07
2.94238000214e-08
2.96332363628e-08
2.98837676964e-08
3.0144625168e-08
3.04008225432e-08
3.06377697985e-08
3.08414391702e-08
3.09991737939e-08
3.11007550851e-08
3.11388225875e-08
3.11093754613e-08
3.10116999962e-08
3.08483439294e-08
3.0624636152e-08
3.03483009968e-08
3.00287612412e-08
2.96766040122e-08
2.930286028e-08
2.89184937568e-08
2.85337877307e-08
2.81579646204e-08
2.77987614382e-08
2.74622505936e-08
2.71526567719e-08
2.68724181512e-08
2.66222578097e-08
2.64014708277e-08
2.62081968226e-08
2.60398418899e-08
2.58934229246e-08
2.57659712901e-08
2.56547888667e-08
2.55576932564e-08
2.54730867209e-08
2.54000024614e-08
2.53380058313e-08
2.52871114435e-08
2.52476159397e-08
2.5219992341e-08
2.52047474021e-08
2.52023607407e-08
2.52132039969e-08
2.52375347671e-08
2.52754667687e-08
2.53269957886e-08
2.53919931569e-08
2.54702373078e-08
2.55614081947e-08
2.56651080457e-08
2.57808461577e-08
2.59080465175e-08
2.60460353657e-08
2.61940840271e-08
2.63515352387e-08
2.65182313897e-08
2.6695641501e-08
2.68897528635e-08
2.71181523626e-08
2.74269999431e-08
2.79236869219e-08
2.87848595779e-08
3.02853415355e-08
3.27705943943e-08
3.65995220718e-08
4.20813012771e-08
4.94275684819e-08
5.87212124217e-08
6.98971745025e-08
8.27355578005e-08
9.68697361435e-08
1.11809816893e-07
1.26978496516e-07
1.41754138691e-07
1.55515606373e-07
1.67684020846e-07
1.77758175234e-07
1.85341551715e-07
1.90160349624e-07
1.92072519772e-07
1.91068641258e-07
1.87265430472e-07
1.80893140995e-07
1.72277805786e-07
1.61819677317e-07