/*--------------------------------*- C++ -*----------------------------------*\
| =========                 |                                                 |
| \\      /  F ield         | OpenFOAM: The Open Source CFD Toolbox           |
|  \\    /   O peration     | Version:  2206                                  |
|   \\  /    A nd           | Website:  www.openfoam.com                      |
|    \\/     M anipulation  |                                                 |
\*---------------------------------------------------------------------------*/
FoamFile
{
    version     2.0;
    format      ascii;
    arch        "LSB;label=64;scalar=64";
    class       volScalarField;
    location    "1/water";
    object      alpha.gas;
}
// * * * * * * * * * * * * * * * * * * * * * * * * * * * * * * * * * * * * * //

dimensions      [0 0 0 0 0 0 0];

internalField   nonuniform List<scalar> 
23300
(
1e-15
1e-15
1e-15
1e-15
1e-15
1e-15
1e-15
1e-15
1e-15
1e-15
1e-15
1e-15
1e-15
1e-15
1e-15
1e-15
1e-15
1e-15
1e-15
1e-15
1e-15
1e-15
1e-15
1e-15
1e-15
1e-15
1e-15
1e-15
1e-15
1e-15
1e-15
1e-15
1e-15
1e-15
1e-15
1e-15
1e-15
1e-15
1e-15
1e-15
1e-15
1e-15
1e-15
1e-15
1e-15
1e-15
1e-15
1e-15
1e-15
1e-15
1e-15
1e-15
1e-15
1e-15
1e-15
1e-15
1e-15
1e-15
1e-15
1e-15
1e-15
1e-15
1e-15
1e-15
1e-15
1e-15
1e-15
1e-15
1e-15
1e-15
1e-15
1e-15
1e-15
1e-15
1e-15
1e-15
1e-15
1e-15
1e-15
1e-15
1e-15
1e-15
1e-15
1e-15
1e-15
1e-15
1e-15
1e-15
1e-15
1e-15
1e-15
1e-15
1e-15
1e-15
1e-15
1e-15
1e-15
1e-15
1e-15
1e-15
1e-15
1e-15
1e-15
1e-15
1e-15
1e-15
1e-15
1e-15
1e-15
1e-15
1e-15
1e-15
1e-15
1e-15
1e-15
1e-15
1e-15
1e-15
1e-15
1e-15
1e-15
1e-15
1e-15
1e-15
1e-15
1e-15
1e-15
1e-15
1e-15
1e-15
1e-15
1e-15
1e-15
1e-15
1e-15
1e-15
1e-15
1e-15
1e-15
1e-15
1e-15
1e-15
1e-15
1e-15
1e-15
1e-15
1e-15
1e-15
1e-15
1e-15
1e-15
1e-15
1e-15
1e-15
1e-15
1e-15
1e-15
1e-15
1e-15
1e-15
1e-15
1e-15
1e-15
1e-15
1e-15
1e-15
1e-15
1e-15
1e-15
1e-15
1e-15
1e-15
1e-15
1e-15
1e-15
1e-15
1e-15
1e-15
1e-15
1e-15
1e-15
1e-15
1e-15
1e-15
1e-15
1e-15
1e-15
1e-15
1e-15
1e-15
1e-15
1e-15
1e-15
1e-15
1e-15
1e-15
1e-15
1e-15
1e-15
1e-15
1e-15
1e-15
1e-15
1e-15
1e-15
1e-15
1e-15
1e-15
1e-15
1e-15
1e-15
1e-15
1e-15
1e-15
1e-15
1e-15
1e-15
1e-15
1e-15
1e-15
1e-15
1e-15
1e-15
1e-15
1e-15
1e-15
1e-15
1e-15
1e-15
1e-15
1e-15
1e-15
1e-15
1e-15
1e-15
1e-15
1e-15
1e-15
1e-15
1e-15
1e-15
1e-15
1e-15
1e-15
1e-15
1e-15
1e-15
1e-15
1e-15
1e-15
1e-15
1e-15
1e-15
1e-15
1e-15
1e-15
1e-15
1e-15
1e-15
1e-15
1e-15
1e-15
1e-15
1e-15
1e-15
1e-15
1e-15
1e-15
1e-15
1e-15
1e-15
1e-15
1e-15
1e-15
1e-15
1e-15
1e-15
1e-15
1e-15
1e-15
1e-15
1e-15
1e-15
1e-15
1e-15
1e-15
1e-15
1e-15
1e-15
1e-15
1e-15
1e-15
1e-15
1e-15
1e-15
1e-15
1e-15
1e-15
1e-15
1e-15
1e-15
1e-15
1e-15
1e-15
1e-15
1e-15
1e-15
1e-15
1e-15
1e-15
1e-15
1e-15
1e-15
1e-15
1e-15
1e-15
1e-15
1e-15
1e-15
1e-15
1e-15
1e-15
1e-15
1e-15
1e-15
1e-15
1e-15
1e-15
1e-15
1e-15
1e-15
1e-15
1e-15
1e-15
1e-15
1e-15
1e-15
1e-15
1e-15
1e-15
1e-15
1e-15
1e-15
1e-15
1e-15
1e-15
1e-15
1e-15
1e-15
1e-15
1e-15
1e-15
1e-15
1e-15
1e-15
1e-15
1e-15
1e-15
1e-15
1e-15
1e-15
1e-15
1e-15
1e-15
1e-15
1e-15
1e-15
1e-15
1e-15
1e-15
1e-15
1e-15
1e-15
1e-15
1e-15
1e-15
1e-15
1e-15
1e-15
1e-15
1e-15
1e-15
1e-15
1e-15
1e-15
1e-15
1e-15
1e-15
1e-15
1e-15
1e-15
1e-15
1e-15
1e-15
1e-15
1e-15
1e-15
1e-15
1e-15
1e-15
1e-15
1e-15
1e-15
1e-15
1e-15
1e-15
1e-15
1e-15
1e-15
1e-15
1e-15
1e-15
1e-15
1e-15
1e-15
1e-15
1e-15
1e-15
1e-15
1e-15
1e-15
1e-15
1e-15
1e-15
1e-15
1e-15
1e-15
1e-15
1e-15
1e-15
1e-15
1e-15
1e-15
1e-15
1e-15
1e-15
1e-15
1e-15
1e-15
1e-15
1e-15
1e-15
1e-15
1e-15
1e-15
1e-15
1e-15
1e-15
1e-15
1e-15
1e-15
1e-15
1e-15
1e-15
1e-15
1e-15
1e-15
1e-15
1e-15
1e-15
1e-15
1e-15
1e-15
1e-15
1e-15
1e-15
1e-15
1e-15
1e-15
1e-15
1e-15
1e-15
1e-15
1e-15
1e-15
1e-15
1e-15
1e-15
1e-15
1e-15
1e-15
1e-15
1e-15
1e-15
1e-15
1e-15
1e-15
1e-15
1e-15
1e-15
1e-15
1e-15
1e-15
1e-15
1e-15
1e-15
1e-15
1e-15
1e-15
1e-15
1e-15
1e-15
1e-15
1e-15
1e-15
1e-15
1e-15
1e-15
1e-15
1e-15
1e-15
1e-15
1e-15
1e-15
1e-15
1e-15
1e-15
1e-15
1e-15
1e-15
1e-15
1e-15
1e-15
1e-15
1e-15
1e-15
1e-15
1e-15
1e-15
1e-15
1e-15
1e-15
1e-15
1e-15
1e-15
1e-15
1e-15
1e-15
1e-15
1e-15
1e-15
1e-15
1e-15
1e-15
1e-15
1e-15
1e-15
1e-15
1e-15
1e-15
1e-15
1e-15
1e-15
1e-15
1e-15
1e-15
1e-15
1e-15
1e-15
1e-15
1e-15
1e-15
1e-15
1e-15
1e-15
1e-15
1e-15
1e-15
1e-15
1e-15
1e-15
1e-15
1e-15
1e-15
1e-15
1e-15
1e-15
1e-15
1e-15
1e-15
1e-15
1e-15
1e-15
1e-15
1e-15
1e-15
1e-15
1e-15
1e-15
1e-15
1e-15
1e-15
1e-15
1e-15
1e-15
1e-15
1e-15
1e-15
1e-15
1e-15
1e-15
1e-15
1e-15
1e-15
1e-15
1e-15
1e-15
1e-15
1e-15
1e-15
1e-15
1e-15
1e-15
1e-15
1e-15
1e-15
1e-15
1e-15
1e-15
1e-15
1e-15
1e-15
1e-15
1e-15
1e-15
1e-15
1e-15
1e-15
1e-15
1e-15
1e-15
1e-15
1e-15
1e-15
1e-15
1e-15
1e-15
1e-15
1e-15
1e-15
1e-15
1e-15
1e-15
1e-15
1e-15
1e-15
1e-15
1e-15
1e-15
1e-15
1e-15
1e-15
1e-15
1e-15
1e-15
1e-15
1e-15
1e-15
1e-15
1e-15
1e-15
1e-15
1e-15
1e-15
1e-15
1e-15
1e-15
1e-15
1e-15
1e-15
1e-15
1e-15
1e-15
1e-15
1e-15
1e-15
1e-15
1e-15
1e-15
1e-15
1e-15
1e-15
1e-15
1e-15
1e-15
1e-15
1e-15
1e-15
1e-15
1e-15
1e-15
1e-15
1e-15
1e-15
1.00724695007e-15
1.00603908622e-15
1.00730813681e-15
1e-15
1e-15
1e-15
1e-15
1e-15
1e-15
1e-15
1e-15
1e-15
1e-15
1e-15
1e-15
1e-15
1e-15
1e-15
1e-15
1e-15
1e-15
1e-15
1e-15
1e-15
1e-15
1e-15
1e-15
1e-15
1e-15
1e-15
1e-15
1e-15
1e-15
1e-15
1e-15
1e-15
1e-15
1e-15
1e-15
1e-15
1e-15
1e-15
1e-15
1e-15
1e-15
1e-15
1e-15
1e-15
1e-15
1e-15
1e-15
1e-15
1e-15
1e-15
1e-15
1e-15
1e-15
1e-15
1e-15
1e-15
1e-15
1e-15
1e-15
1e-15
1e-15
1e-15
1e-15
1e-15
1e-15
1e-15
1e-15
1e-15
1e-15
1e-15
1e-15
1e-15
1e-15
1e-15
1e-15
1e-15
1e-15
1e-15
1e-15
1e-15
1e-15
1e-15
1e-15
1e-15
1e-15
1e-15
1e-15
1e-15
1e-15
1e-15
1e-15
1e-15
1e-15
1e-15
1e-15
1e-15
1e-15
1e-15
1e-15
1e-15
1e-15
1e-15
1e-15
1e-15
1e-15
1e-15
1e-15
1e-15
1e-15
1e-15
1e-15
1e-15
1e-15
1e-15
1e-15
1e-15
1e-15
1e-15
1e-15
1e-15
1e-15
1e-15
1e-15
1e-15
1e-15
1e-15
1e-15
1e-15
1e-15
1e-15
1e-15
1e-15
1e-15
1e-15
1e-15
1e-15
1.00603908622e-15
1.00749502151e-15
1.00603908622e-15
1.00036437169e-15
1e-15
1e-15
1.00000856232e-15
1e-15
1.00002832697e-15
1.0000282986e-15
1.00003240302e-15
1.00002329878e-15
1.00004318439e-15
1.00002250243e-15
1.00004356484e-15
1.00002249291e-15
1.00003626412e-15
1.00002646128e-15
1.0000293994e-15
1.00004554289e-15
1.00003574291e-15
1.00004780397e-15
1.00004867181e-15
1.00005157682e-15
1.00005604181e-15
1.00005991215e-15
1.00006392126e-15
1.00006733107e-15
1.00007469841e-15
1.00008783019e-15
1.00009214991e-15
1.00009641557e-15
1.00009885951e-15
1.00009823906e-15
1.00010252861e-15
1.00010629162e-15
1.00011133929e-15
1.00011566478e-15
1.00012506289e-15
1.00013104969e-15
1.00014029121e-15
1.00014706337e-15
1.00015038708e-15
1.00016188113e-15
1.00016647092e-15
1.00017638823e-15
1.00018955571e-15
1.00019752436e-15
1.00020176251e-15
1.00020930413e-15
1.00020531826e-15
1.00020846418e-15
1.00024173059e-15
1.00028102493e-15
1.00066750251e-15
1.00112301324e-15
1.00129036e-15
1.00111690394e-15
1.00024552096e-15
1.00023363745e-15
1.00023009106e-15
1.00022017778e-15
1.00021078374e-15
1.00020408237e-15
1.00019696897e-15
1.00018163744e-15
1.00016906834e-15
1.00015848937e-15
1.00014353021e-15
1.0001269906e-15
1.00011224463e-15
1.00009315133e-15
1.00007138321e-15
1.00005000647e-15
1.00003118614e-15
1.00001183462e-15
1.00000207498e-15
1.00000011224e-15
1e-15
1e-15
1e-15
1e-15
1e-15
1e-15
1e-15
1e-15
1e-15
1e-15
1e-15
1e-15
1e-15
1e-15
1e-15
1e-15
1e-15
1e-15
1e-15
1e-15
1e-15
1e-15
1e-15
1e-15
1e-15
1e-15
1e-15
1e-15
1e-15
1e-15
1e-15
1e-15
1e-15
1.00000054634e-15
1.00000173757e-15
1.00000216483e-15
1.00000987144e-15
1.00001705341e-15
1.0000228512e-15
1.00002554522e-15
1.00002808716e-15
1.00003092231e-15
1.00003593752e-15
1.00004104501e-15
1.000047485e-15
1.00005240949e-15
1.00005719589e-15
1.00006196641e-15
1.00006598463e-15
1.00006986697e-15
1.00007317398e-15
1.00007638081e-15
1.00007911242e-15
1.00008219611e-15
1.00008521413e-15
1.00008840211e-15
1.00009153584e-15
1.00009550821e-15
1.00009962216e-15
1.00010514445e-15
1.00011347981e-15
1.00575640557e-15
1.00733277145e-15
1.00603908622e-15
1.0073918948e-15
1.00603908622e-15
1.00015151228e-15
1.000146407e-15
1.00002370656e-15
1e-15
1.00003017547e-15
1.00003158359e-15
1.00002829099e-15
1.00003335445e-15
1.0000232987e-15
1.00004297656e-15
1.00002250243e-15
1.00003871424e-15
1.00002646128e-15
1.00003000427e-15
1.0000452596e-15
1.00003574291e-15
1.00004975766e-15
1.0000445848e-15
1.00005887134e-15
1.00006074641e-15
1.00006598808e-15
1.0000701246e-15
1.00007544529e-15
1.00007998547e-15
1.00008616938e-15
1.00008984428e-15
1.00009299123e-15
1.00009942258e-15
1.00010773111e-15
1.00011074461e-15
1.00011679434e-15
1.000123098e-15
1.00013182572e-15
1.00013981275e-15
1.00014969475e-15
1.00015864259e-15
1.00016977539e-15
1.00017920645e-15
1.00019037861e-15
1.00020032286e-15
1.00021171484e-15
1.00022162797e-15
1.00023386249e-15
1.00024388133e-15
1.00025402916e-15
1.00026909955e-15
1.00038895046e-15
1.00059109305e-15
1.00133519151e-15
1.00197551183e-15
1.00232123398e-15
1.00219481897e-15
1.0023245183e-15
1.00219481897e-15
1.00143108016e-15
1.00042866471e-15
1.00042365905e-15
1.0004016353e-15
1.00037572893e-15
1.00033579453e-15
1.00027296842e-15
1.0002281e-15
1.00021512221e-15
1.0001995832e-15
1.00018347782e-15
1.00016405983e-15
1.00014411419e-15
1.00012485345e-15
1.00010543227e-15
1.00008532591e-15
1.00005964648e-15
1.00004262925e-15
1.00001998357e-15
1e-15
1e-15
1e-15
1e-15
1e-15
1e-15
1e-15
1e-15
1e-15
1e-15
1e-15
1e-15
1e-15
1e-15
1e-15
1e-15
1e-15
1e-15
1e-15
1e-15
1e-15
1e-15
1e-15
1e-15
1e-15
1e-15
1e-15
1e-15
1e-15
1e-15
1e-15
1e-15
1e-15
1e-15
1.00000172184e-15
1.00002391995e-15
1.00005385289e-15
1.00006597599e-15
1.000073351e-15
1.00008057385e-15
1.00008678012e-15
1.00009303794e-15
1.00009902347e-15
1.00010592803e-15
1.00011333577e-15
1.00011987823e-15
1.00012628982e-15
1.00013051931e-15
1.0001332153e-15
1.00013639341e-15
1.00013959257e-15
1.00014213627e-15
1.00014469557e-15
1.00014671479e-15
1.0001494191e-15
1.00015208367e-15
1.00015493459e-15
1.00015746525e-15
1.00016067165e-15
1.0001641224e-15
1.00016916136e-15
1.0001889662e-15
1.00701638207e-15
1.00603908622e-15
1.00749783511e-15
1.00603908622e-15
1.00652455583e-15
1.00022484972e-15
1.00020746932e-15
1.00000926173e-15
1e-15
1.00002832697e-15
1.00003098412e-15
1.00003287944e-15
1.00002413825e-15
1.00003335434e-15
1.00002254081e-15
1.00003597604e-15
1.00002575611e-15
1.00003041401e-15
1.00003789697e-15
1.0000318495e-15
1.00004987688e-15
1.00004439167e-15
1.0000531129e-15
1.0000480912e-15
1.00005876396e-15
1.0000625043e-15
1.00006676709e-15
1.00007043877e-15
1.00007522096e-15
1.00008157337e-15
1.0000913875e-15
1.00009379956e-15
1.00009958916e-15
1.00010537142e-15
1.00011100418e-15
1.00011741714e-15
1.00012360497e-15
1.00013135141e-15
1.00013918141e-15
1.00014880291e-15
1.00015750178e-15
1.00016859919e-15
1.00017772078e-15
1.00018962331e-15
1.00019941104e-15
1.00021204863e-15
1.00022453171e-15
1.00023738652e-15
1.00024924298e-15
1.00028546851e-15
1.00043048873e-15
1.00097843887e-15
1.00223166315e-15
1.00219481897e-15
1.00232255666e-15
1.00219481897e-15
1.00232399108e-15
1.00219481897e-15
1.00232357316e-15
1.00219481897e-15
1.0008352129e-15
1.00065476736e-15
1.00064311785e-15
1.00059976829e-15
1.0005269436e-15
1.00039527512e-15
1.00028929354e-15
1.00024479531e-15
1.00020268262e-15
1.00017391182e-15
1.00015447972e-15
1.00013348507e-15
1.00011344625e-15
1.00009372803e-15
1.00007344864e-15
1.00005084294e-15
1.00003381187e-15
1.00001817282e-15
1.0000034252e-15
1e-15
1e-15
1e-15
1e-15
1e-15
1e-15
1e-15
1e-15
1e-15
1e-15
1e-15
1e-15
1e-15
1e-15
1e-15
1e-15
1e-15
1e-15
1e-15
1e-15
1e-15
1e-15
1e-15
1e-15
1e-15
1e-15
1e-15
1e-15
1e-15
1.00000484356e-15
1.00001329215e-15
1.00002364431e-15
1.00003223393e-15
1.00004292807e-15
1.00005403771e-15
1.00006269178e-15
1.00007061919e-15
1.00007791061e-15
1.00008578802e-15
1.00009326081e-15
1.00010096772e-15
1.00010854772e-15
1.00011662835e-15
1.00012514872e-15
1.00013140454e-15
1.00013867077e-15
1.00014356421e-15
1.00014934217e-15
1.00015309436e-15
1.00015686981e-15
1.00015990698e-15
1.00016290589e-15
1.00016526925e-15
1.00016795517e-15
1.0001703332e-15
1.00017343871e-15
1.00017691603e-15
1.0001814492e-15
1.00018747308e-15
1.0001975272e-15
1.00024485369e-15
1.00603908622e-15
1.00732694879e-15
1.00603908622e-15
1.00738105264e-15
1.00603908622e-15
1.00032922491e-15
1.00029511061e-15
1.00001724346e-15
1e-15
1.0000267462e-15
1.00002841863e-15
1.0000243753e-15
1.00003253519e-15
1.00002254111e-15
1.00003335361e-15
1.00002555243e-15
1.00002973181e-15
1.00003529805e-15
1.00003185198e-15
1.00004431073e-15
1.0000318495e-15
1.00005024635e-15
1.0000480912e-15
1.00005309582e-15
1.0000481824e-15
1.00005548905e-15
1.00005993744e-15
1.00006550651e-15
1.00007044163e-15
1.00007940715e-15
1.00008495314e-15
1.00009156126e-15
1.00009379956e-15
1.00009958916e-15
1.00010528492e-15
1.00011147399e-15
1.00011773204e-15
1.00012605777e-15
1.00013385492e-15
1.00014308181e-15
1.00015149307e-15
1.00016214348e-15
1.00017093484e-15
1.00018252463e-15
1.00019195996e-15
1.00020424798e-15
1.00021598451e-15
1.00022989014e-15
1.00027748584e-15
1.00042699511e-15
1.00097951925e-15
1.00219409657e-15
1.00219481897e-15
1.00226908969e-15
1.00219481897e-15
1.00231856495e-15
1.00219481897e-15
1.00230919672e-15
1.00219481897e-15
1.00230324412e-15
1.00219481897e-15
1.00096303153e-15
1.00094737678e-15
1.00088903846e-15
1.00079057737e-15
1.00061318006e-15
1.00045601209e-15
1.00035537555e-15
1.00024916028e-15
1.00016962173e-15
1.0001386717e-15
1.0001168468e-15
1.00009519066e-15
1.00007390152e-15
1.00005258829e-15
1.00003308776e-15
1.00001620708e-15
1.00000145347e-15
1e-15
1e-15
1e-15
1e-15
1e-15
1e-15
1e-15
1e-15
1e-15
1e-15
1e-15
1e-15
1e-15
1e-15
1e-15
1e-15
1e-15
1e-15
1e-15
1e-15
1e-15
1e-15
1e-15
1e-15
1e-15
1e-15
1e-15
1e-15
1e-15
1e-15
1.00000487529e-15
1.00001369568e-15
1.00002661012e-15
1.0000374044e-15
1.00004906051e-15
1.00005782117e-15
1.00006543454e-15
1.00007370947e-15
1.00008149768e-15
1.0000896939e-15
1.00009764305e-15
1.00010575695e-15
1.00011448724e-15
1.00012326529e-15
1.00013232132e-15
1.00013873041e-15
1.00014596999e-15
1.00015119577e-15
1.00016139297e-15
1.00017160738e-15
1.00018068092e-15
1.00018818017e-15
1.00019596375e-15
1.00020223854e-15
1.0002077324e-15
1.0002127903e-15
1.00021840052e-15
1.00022435887e-15
1.00023272282e-15
1.00024465211e-15
1.00026688097e-15
1.00035556645e-15
1.00701758896e-15
1.00603908622e-15
1.00747419251e-15
1.00603908622e-15
1.006514696e-15
1.00051494726e-15
1.00047457241e-15
1.00001249583e-15
1e-15
1.00002291458e-15
1.00002453568e-15
1.0000275233e-15
1.00002254111e-15
1.00003235969e-15
1.00002254081e-15
1.0000316443e-15
1.00003213782e-15
1.00003185321e-15
1.00003878913e-15
1.00003185198e-15
1.00004453528e-15
1.0000318495e-15
1.00004656088e-15
1.0000480912e-15
1.00005046662e-15
1.00004821859e-15
1.00005500344e-15
1.0000596426e-15
1.00006714981e-15
1.00007044163e-15
1.00008031356e-15
1.00008659039e-15
1.00009109135e-15
1.00009379956e-15
1.00009941644e-15
1.00010489562e-15
1.00010962023e-15
1.00011766845e-15
1.0001246706e-15
1.00013407574e-15
1.00014168645e-15
1.00015185288e-15
1.00016023746e-15
1.0001712106e-15
1.00017995518e-15
1.00019139133e-15
1.00020458358e-15
1.00025653718e-15
1.00038350978e-15
1.00076851589e-15
1.00164439055e-15
1.00219481897e-15
1.00224960569e-15
1.00219481897e-15
1.00229197397e-15
1.00219481897e-15
1.0022960053e-15
1.00219481897e-15
1.00228826407e-15
1.00219481897e-15
1.00226974861e-15
1.00171956798e-15
1.00124356095e-15
1.00119527383e-15
1.00104774553e-15
1.00084202515e-15
1.0006784652e-15
1.00056517497e-15
1.00040242977e-15
1.00020612433e-15
1.00011775193e-15
1.00009439845e-15
1.00006957902e-15
1.00004501397e-15
1.00002411763e-15
1.0000045533e-15
1e-15
1e-15
1e-15
1e-15
1e-15
1e-15
1e-15
1e-15
1e-15
1e-15
1e-15
1e-15
1e-15
1e-15
1e-15
1e-15
1e-15
1e-15
1e-15
1e-15
1e-15
1e-15
1e-15
1e-15
1e-15
1e-15
1e-15
1e-15
1e-15
1e-15
1e-15
1e-15
1.000000435e-15
1.00001041594e-15
1.00002317755e-15
1.00003576345e-15
1.00004823491e-15
1.00005879483e-15
1.00006787589e-15
1.00007669185e-15
1.00008525395e-15
1.00009379074e-15
1.00010247761e-15
1.00011148011e-15
1.00012121515e-15
1.00013054396e-15
1.00013972445e-15
1.00014640535e-15
1.00016693965e-15
1.00018588031e-15
1.00020676539e-15
1.0002275517e-15
1.00024524868e-15
1.00026005463e-15
1.0002747824e-15
1.00028665606e-15
1.00029650702e-15
1.00030521287e-15
1.00031326976e-15
1.00032079685e-15
1.00033129793e-15
1.00034629954e-15
1.00037585129e-15
1.00049296377e-15
1.00603908622e-15
1.00731851983e-15
1.00603908622e-15
1.00736877444e-15
1.00603908622e-15
1.00065824936e-15
1.00061821928e-15
1.0000160518e-15
1e-15
1.00002249042e-15
1.00002270972e-15
1.00002250508e-15
1.00002720251e-15
1.00002254081e-15
1.00003041177e-15
1.00002582993e-15
1.00003024569e-15
1.00003297155e-15
1.00003185198e-15
1.000038312e-15
1.0000318495e-15
1.00004240916e-15
1.00003489736e-15
1.00003935581e-15
1.00004278695e-15
1.00004697052e-15
1.00004849753e-15
1.00005635296e-15
1.00006377791e-15
1.00007000517e-15
1.00007044163e-15
1.00008110878e-15
1.00008567882e-15
1.00009051558e-15
1.00009306343e-15
1.00009772204e-15
1.00010156635e-15
1.00010920047e-15
1.00011594595e-15
1.00012447105e-15
1.00013139884e-15
1.00014099353e-15
1.00014874051e-15
1.00015914722e-15
1.00016806011e-15
1.00018046292e-15
1.00023662826e-15
1.00038593758e-15
1.00061416902e-15
1.00122017442e-15
1.00203861725e-15
1.00223099083e-15
1.00219481897e-15
1.00223478182e-15
1.00219481897e-15
1.00228215272e-15
1.00219481897e-15
1.00227207792e-15
1.00219481897e-15
1.00226682386e-15
1.00219481897e-15
1.00224352354e-15
1.00153877224e-15
1.00145506025e-15
1.00125908041e-15
1.00103568165e-15
1.00086981833e-15
1.00068881458e-15
1.00043470958e-15
1.00019441234e-15
1.00008351492e-15
1.00005230476e-15
1.00002277995e-15
1e-15
1e-15
1e-15
1e-15
1e-15
1e-15
1e-15
1e-15
1e-15
1e-15
1e-15
1e-15
1e-15
1e-15
1e-15
1e-15
1e-15
1e-15
1e-15
1e-15
1e-15
1e-15
1e-15
1e-15
1e-15
1e-15
1e-15
1e-15
1e-15
1e-15
1e-15
1e-15
1e-15
1e-15
1e-15
1e-15
1.00000351153e-15
1.00001575016e-15
1.00003094986e-15
1.00004482192e-15
1.0000573885e-15
1.00006808553e-15
1.00007820295e-15
1.00008811968e-15
1.00009803046e-15
1.00010817555e-15
1.00011827998e-15
1.00012873252e-15
1.00013847847e-15
1.00015175722e-15
1.00018255158e-15
1.00022197002e-15
1.0002548395e-15
1.00028188919e-15
1.00030563977e-15
1.00032741609e-15
1.00034594791e-15
1.00036309706e-15
1.00037728482e-15
1.00038931318e-15
1.00039907812e-15
1.00040739734e-15
1.00041481366e-15
1.00042401663e-15
1.0004377708e-15
1.00046489466e-15
1.00059377261e-15
1.0070090494e-15
1.00603908622e-15
1.0074714637e-15
1.00603908622e-15
1.0065052879e-15
1.00075415121e-15
1.00071158128e-15
1.00001488063e-15
1e-15
1.00002047294e-15
1.00002119544e-15
1.00002174869e-15
1.00002249344e-15
1.00002595692e-15
1.00002248956e-15
1.00002645211e-15
1.00002582993e-15
1.00002876192e-15
1.0000314886e-15
1.00003184718e-15
1.00003562119e-15
1.00003300161e-15
1.00003653669e-15
1.00003997127e-15
1.00004368613e-15
1.00004686862e-15
1.00004829684e-15
1.00005019131e-15
1.00005303424e-15
1.00006167051e-15
1.00007069675e-15
1.00007044163e-15
1.00008058507e-15
1.00008363646e-15
1.00008584946e-15
1.00009124511e-15
1.00009451686e-15
1.00010055987e-15
1.00010622994e-15
1.00011394334e-15
1.00011999016e-15
1.00012886401e-15
1.00013548726e-15
1.00014313279e-15
1.00015169584e-15
1.00018114621e-15
1.00041335733e-15
1.00062781879e-15
1.00093980658e-15
1.001618379e-15
1.00217395849e-15
1.00219481897e-15
1.00221657068e-15
1.00219481897e-15
1.00226032106e-15
1.00219481897e-15
1.00226186869e-15
1.00219481897e-15
1.00225508287e-15
1.00219481897e-15
1.00223968218e-15
1.00219481897e-15
1.0018368043e-15
1.00159720939e-15
1.00137894009e-15
1.00110913054e-15
1.00086294834e-15
1.00064173769e-15
1.00033058852e-15
1.00006820272e-15
1e-15
1e-15
1e-15
1e-15
1e-15
1e-15
1e-15
1e-15
1e-15
1e-15
1e-15
1e-15
1e-15
1e-15
1e-15
1e-15
1e-15
1e-15
1e-15
1e-15
1e-15
1e-15
1e-15
1e-15
1e-15
1e-15
1e-15
1e-15
1e-15
1e-15
1e-15
1e-15
1e-15
1e-15
1e-15
1e-15
1e-15
1e-15
1e-15
1e-15
1.00000241401e-15
1.00001890435e-15
1.00003699393e-15
1.00005234271e-15
1.00006596466e-15
1.00007850012e-15
1.00009112364e-15
1.00010286873e-15
1.00011466383e-15
1.00012580455e-15
1.00013690396e-15
1.00014757012e-15
1.00019207257e-15
1.00024095748e-15
1.00027847378e-15
1.00030928993e-15
1.00033681106e-15
1.00036137134e-15
1.00038608466e-15
1.0004071157e-15
1.00042598135e-15
1.00044195267e-15
1.00045569239e-15
1.00046666908e-15
1.00047542997e-15
1.00048314625e-15
1.00049158521e-15
1.00050559329e-15
1.00053202051e-15
1.00067504129e-15
1.00603908622e-15
1.00730868783e-15
1.00603908622e-15
1.00735675813e-15
1.00603908622e-15
1.0008630134e-15
1.00081807287e-15
1.00001655759e-15
1e-15
1.00002237093e-15
1.0000230874e-15
1.00002119544e-15
1.00002233339e-15
1.00002248948e-15
1.00002354556e-15
1.00001984605e-15
1.00002107955e-15
1.00002447739e-15
1.00002684236e-15
1.00003040342e-15
1.00003300161e-15
1.00003646712e-15
1.00003991431e-15
1.00004370458e-15
1.00004739912e-15
1.00005086622e-15
1.00005238757e-15
1.00005452038e-15
1.0000555841e-15
1.00005620194e-15
1.00006012264e-15
1.00007069675e-15
1.00007043892e-15
1.00007644548e-15
1.00007994069e-15
1.00008217085e-15
1.00008592685e-15
1.00009145934e-15
1.00009616992e-15
1.00010282132e-15
1.00010767343e-15
1.00011294853e-15
1.00011840027e-15
1.00012504215e-15
1.00013327534e-15
1.00019107888e-15
1.00047455027e-15
1.00075381352e-15
1.00124161171e-15
1.00183207014e-15
1.00214447029e-15
1.00220197417e-15
1.00219481897e-15
1.00221536112e-15
1.00219481897e-15
1.00225185792e-15
1.00219481897e-15
1.00224099091e-15
1.00219481897e-15
1.00223531423e-15
1.00219481897e-15
1.002220416e-15
1.00217408613e-15
1.00176128959e-15
1.00146696551e-15
1.00102864862e-15
1.0006320864e-15
1.00022686613e-15
1e-15
1e-15
1e-15
1e-15
1e-15
1e-15
1e-15
1e-15
1e-15
1e-15
1e-15
1e-15
1e-15
1e-15
1e-15
1e-15
1e-15
1e-15
1e-15
1e-15
1e-15
1e-15
1e-15
1e-15
1e-15
1e-15
1e-15
1e-15
1e-15
1e-15
1e-15
1e-15
1e-15
1e-15
1e-15
1e-15
1e-15
1e-15
1e-15
1e-15
1e-15
1e-15
1e-15
1e-15
1.00001494029e-15
1.00003773846e-15
1.00005803412e-15
1.00007528266e-15
1.00009062608e-15
1.00010528884e-15
1.00011900122e-15
1.00013121717e-15
1.00014354327e-15
1.00018398812e-15
1.00024439738e-15
1.00028460574e-15
1.00031793401e-15
1.00034891288e-15
1.00038034977e-15
1.00040997757e-15
1.00043986489e-15
1.00046493797e-15
1.00048752937e-15
1.00050643e-15
1.00052267003e-15
1.00053607701e-15
1.00054615662e-15
1.00055480446e-15
1.00056369223e-15
1.0005799348e-15
1.00060984871e-15
1.00077301707e-15
1.00699885797e-15
1.00603908622e-15
1.00744904057e-15
1.00603908622e-15
1.00649577284e-15
1.00101816899e-15
1.00097368763e-15
1.00001823382e-15
1e-15
1.00002426908e-15
1.00002497936e-15
1.00002275566e-15
1.00002075652e-15
1.00002059302e-15
1.00001984267e-15
1.00001914693e-15
1.00002132853e-15
1.00002410499e-15
1.00002690056e-15
1.00003056488e-15
1.00003456507e-15
1.00003921512e-15
1.00004352135e-15
1.00004746997e-15
1.00005149405e-15
1.00005520096e-15
1.00005709331e-15
1.000059094e-15
1.00005990201e-15
1.0000606909e-15
1.00005756935e-15
1.00006027821e-15
1.00007003051e-15
1.00007043877e-15
1.00007368736e-15
1.00007460463e-15
1.0000772216e-15
1.00008262472e-15
1.00008464533e-15
1.00009046566e-15
1.00009231934e-15
1.00009348537e-15
1.0000963765e-15
1.00010065071e-15
1.00010632232e-15
1.00015180979e-15
1.00042131644e-15
1.00072769592e-15
1.00126684915e-15
1.00181010256e-15
1.00204859977e-15
1.00211863103e-15
1.00215980498e-15
1.00219481897e-15
1.00223585972e-15
1.00219481897e-15
1.0022326948e-15
1.00219481897e-15
1.00222254649e-15
1.00219481897e-15
1.00220532711e-15
1.00219481897e-15
1.00219958825e-15
1.0016423696e-15
1.00108117315e-15
1.00027159529e-15
1e-15
1e-15
1e-15
1e-15
1e-15
1e-15
1e-15
1e-15
1e-15
1e-15
1e-15
1e-15
1e-15
1e-15
1e-15
1e-15
1e-15
1e-15
1e-15
1e-15
1e-15
1e-15
1e-15
1e-15
1e-15
1e-15
1e-15
1e-15
1e-15
1e-15
1e-15
1e-15
1e-15
1e-15
1e-15
1e-15
1e-15
1e-15
1e-15
1e-15
1e-15
1e-15
1e-15
1e-15
1e-15
1e-15
1e-15
1e-15
1.00003056301e-15
1.00005861206e-15
1.00008223126e-15
1.00010212893e-15
1.00011990278e-15
1.00013556469e-15
1.00016760612e-15
1.00023636494e-15
1.00028383505e-15
1.00032125e-15
1.00035892481e-15
1.00039860621e-15
1.00044005829e-15
1.00047983335e-15
1.00051755612e-15
1.00054879206e-15
1.00057710683e-15
1.00059996616e-15
1.00061957678e-15
1.00063637066e-15
1.00064840037e-15
1.000658244e-15
1.00066820383e-15
1.00068714901e-15
1.00072305102e-15
1.00091075674e-15
1.00603908622e-15
1.00729687645e-15
1.00603908622e-15
1.0073456769e-15
1.00603908622e-15
1.00122199704e-15
1.00117982195e-15
1.00001990994e-15
1e-15
1.00017166005e-15
1.00003003376e-15
1.00002091377e-15
1.00001914923e-15
1.00001799451e-15
1.00001769698e-15
1.00002012385e-15
1.00002269487e-15
1.00002596367e-15
1.0000292363e-15
1.00003330332e-15
1.00003774038e-15
1.00004287612e-15
1.00004811731e-15
1.00005231533e-15
1.00005691815e-15
1.00006053338e-15
1.00006272316e-15
1.00006489395e-15
1.00006540357e-15
1.0000652988e-15
1.00006207549e-15
1.0000579362e-15
1.0000584876e-15
1.00006745845e-15
1.00006625166e-15
1.00006768845e-15
1.00007018317e-15
1.00007149311e-15
1.00007296648e-15
1.00007356892e-15
1.00007325311e-15
1.00007413767e-15
1.00007502678e-15
1.00007615027e-15
1.00007872344e-15
1.00008781092e-15
1.00021095461e-15
1.0006371857e-15
1.00122239295e-15
1.00171281568e-15
1.00188732047e-15
1.00193308068e-15
1.00204056959e-15
1.00221837111e-15
1.00219481897e-15
1.00222131807e-15
1.00219481897e-15
1.0022062727e-15
1.00219481897e-15
1.00220202145e-15
1.00214036992e-15
1.00188398974e-15
1.00142209432e-15
1.00046433471e-15
1e-15
1e-15
1e-15
1e-15
1e-15
1e-15
1e-15
1e-15
1e-15
1e-15
1e-15
1e-15
1e-15
1e-15
1e-15
1e-15
1e-15
1e-15
1e-15
1e-15
1e-15
1e-15
1e-15
1e-15
1e-15
1e-15
1e-15
1e-15
1e-15
1e-15
1e-15
1e-15
1e-15
1e-15
1e-15
1e-15
1e-15
1e-15
1e-15
1e-15
1e-15
1e-15
1e-15
1e-15
1e-15
1e-15
1e-15
1e-15
1e-15
1e-15
1e-15
1.00000649635e-15
1.00004820655e-15
1.00008181837e-15
1.00010886632e-15
1.00013169977e-15
1.00021141025e-15
1.00027155594e-15
1.00031959538e-15
1.00036905391e-15
1.00042298158e-15
1.00048224553e-15
1.00054027382e-15
1.00059372389e-15
1.00064037212e-15
1.00067866901e-15
1.00071282765e-15
1.00073949036e-15
1.00076254319e-15
1.00078252008e-15
1.0007961357e-15
1.00080660106e-15
1.00081714821e-15
1.00083697545e-15
1.00087786817e-15
1.00108922152e-15
1.00698619806e-15
1.00603908622e-15
1.00743832246e-15
1.00603908622e-15
1.00648487197e-15
1.00144949626e-15
1.00140963518e-15
1.00018172689e-15
1e-15
1.00022470396e-15
1.0002110607e-15
1.00010754041e-15
1.00001602762e-15
1.00001524918e-15
1.00001652133e-15
1.00001877722e-15
1.00002235667e-15
1.00002633333e-15
1.00003119851e-15
1.00003638072e-15
1.00004214808e-15
1.00004783789e-15
1.0000538167e-15
1.00005857806e-15
1.00006355436e-15
1.00006724928e-15
1.00006953537e-15
1.00007145569e-15
1.00007183046e-15
1.00007134187e-15
1.00006714338e-15
1.00006252572e-15
1.00005789702e-15
1.00005754628e-15
1.00006042992e-15
1.00006087121e-15
1.00005906906e-15
1.00006087364e-15
1.00005806136e-15
1.00005644986e-15
1.00005422082e-15
1.00005320049e-15
1.00005229247e-15
1.00005235254e-15
1.00005354978e-15
1.00005646352e-15
1.00008216942e-15
1.00049266283e-15
1.0011148583e-15
1.00154195678e-15
1.00174977232e-15
1.00192931762e-15
1.00210189042e-15
1.00219481897e-15
1.00220523215e-15
1.00219481897e-15
1.00220029178e-15
1.00204359381e-15
1.0017472432e-15
1.00133655314e-15
1.00063814887e-15
1.00000456346e-15
1e-15
1e-15
1e-15
1e-15
1e-15
1e-15
1e-15
1e-15
1e-15
1e-15
1e-15
1e-15
1e-15
1e-15
1e-15
1e-15
1e-15
1e-15
1e-15
1e-15
1e-15
1e-15
1e-15
1e-15
1e-15
1e-15
1e-15
1e-15
1e-15
1e-15
1e-15
1e-15
1e-15
1e-15
1e-15
1e-15
1e-15
1e-15
1e-15
1e-15
1e-15
1e-15
1e-15
1e-15
1e-15
1e-15
1e-15
1e-15
1e-15
1e-15
1e-15
1e-15
1e-15
1e-15
1e-15
1.00001472732e-15
1.00006718469e-15
1.00010671886e-15
1.00020209865e-15
1.00028802617e-15
1.00036460797e-15
1.00044679802e-15
1.0005325701e-15
1.00061867466e-15
1.00069441843e-15
1.00075941146e-15
1.00081285966e-15
1.00085648003e-15
1.00089408315e-15
1.00092298919e-15
1.00094819343e-15
1.00096945153e-15
1.00098291559e-15
1.00099235154e-15
1.00100144998e-15
1.00101855843e-15
1.00106036256e-15
1.00129119919e-15
1.00603908622e-15
1.00728294282e-15
1.00603908622e-15
1.00733081972e-15
1.00603908622e-15
1.00166876064e-15
1.0016316151e-15
1.00019726075e-15
1e-15
1.00022473975e-15
1.00022470769e-15
1.00022219235e-15
1.0001116706e-15
1.0000121493e-15
1.00001353426e-15
1.00001723487e-15
1.00002221218e-15
1.00002716295e-15
1.00003374359e-15
1.00003949148e-15
1.00004662558e-15
1.00005379611e-15
1.00006070412e-15
1.00006634965e-15
1.00007211757e-15
1.00007628174e-15
1.00007873023e-15
1.00007997178e-15
1.00007983308e-15
1.00007837594e-15
1.00007340407e-15
1.00006749612e-15
1.00006092248e-15
1.00005660011e-15
1.0000542642e-15
1.00005295367e-15
1.00005030024e-15
1.00004758549e-15
1.00004211784e-15
1.00003860273e-15
1.0000344818e-15
1.00003237099e-15
1.00003038161e-15
1.00003115018e-15
1.0000330745e-15
1.00003919718e-15
1.00006254956e-15
1.00044372547e-15
1.00111344394e-15
1.0015557251e-15
1.00182022067e-15
1.00201773837e-15
1.00211903274e-15
1.00213189989e-15
1.00195098198e-15
1.00161545733e-15
1.00108339765e-15
1.0003138682e-15
1e-15
1e-15
1e-15
1e-15
1e-15
1e-15
1e-15
1e-15
1e-15
1e-15
1e-15
1e-15
1e-15
1e-15
1e-15
1e-15
1e-15
1e-15
1e-15
1e-15
1e-15
1e-15
1e-15
1e-15
1e-15
1e-15
1e-15
1e-15
1e-15
1e-15
1e-15
1e-15
1e-15
1e-15
1e-15
1e-15
1e-15
1e-15
1e-15
1e-15
1e-15
1e-15
1e-15
1e-15
1e-15
1e-15
1e-15
1e-15
1e-15
1e-15
1e-15
1e-15
1e-15
1e-15
1e-15
1e-15
1e-15
1e-15
1e-15
1e-15
1e-15
1.00003020803e-15
1.00011771498e-15
1.00027864994e-15
1.00043337157e-15
1.00056526118e-15
1.00069375911e-15
1.00080215451e-15
1.00089066876e-15
1.00096208071e-15
1.00101977593e-15
1.00106647001e-15
1.00110532796e-15
1.00113492963e-15
1.00116020876e-15
1.00117986664e-15
1.00119084805e-15
1.00119670289e-15
1.00120105997e-15
1.00121193575e-15
1.00124937906e-15
1.00149365382e-15
1.00697198807e-15
1.00603908622e-15