/*--------------------------------*- C++ -*----------------------------------*\
| =========                 |                                                 |
| \\      /  F ield         | OpenFOAM: The Open Source CFD Toolbox           |
|  \\    /   O peration     | Version:  2206                                  |
|   \\  /    A nd           | Website:  www.openfoam.com                      |
|    \\/     M anipulation  |                                                 |
\*---------------------------------------------------------------------------*/
FoamFile
{
    version     2.0;
    format      ascii;
    arch        "LSB;label=64;scalar=64";
    class       volScalarField;
    location    "1/water";
    object      alpha.gas_0;
}
// * * * * * * * * * * * * * * * * * * * * * * * * * * * * * * * * * * * * * //

dimensions      [0 0 0 0 0 0 0];

internalField   nonuniform List<scalar> 
23300
(
1e-15
1e-15
1e-15
1e-15
1e-15
1e-15
1e-15
1e-15
1e-15
1e-15
1e-15
1e-15
1e-15
1e-15
1e-15
1e-15
1e-15
1e-15
1e-15
1e-15
1e-15
1e-15
1e-15
1e-15
1e-15
1e-15
1e-15
1e-15
1e-15
1e-15
1e-15
1e-15
1e-15
1e-15
1e-15
1e-15
1e-15
1e-15
1e-15
1e-15
1e-15
1e-15
1e-15
1e-15
1e-15
1e-15
1e-15
1e-15
1e-15
1e-15
1e-15
1e-15
1e-15
1e-15
1e-15
1e-15
1e-15
1e-15
1e-15
1e-15
1e-15
1e-15
1e-15
1e-15
1e-15
1e-15
1e-15
1e-15
1e-15
1e-15
1e-15
1e-15
1e-15
1e-15
1e-15
1e-15
1e-15
1e-15
1e-15
1e-15
1e-15
1e-15
1e-15
1e-15
1e-15
1e-15
1e-15
1e-15
1e-15
1e-15
1e-15
1e-15
1e-15
1e-15
1e-15
1e-15
1e-15
1e-15
1e-15
1e-15
1e-15
1e-15
1e-15
1e-15
1e-15
1e-15
1e-15
1e-15
1e-15
1e-15
1e-15
1e-15
1e-15
1e-15
1e-15
1e-15
1e-15
1e-15
1e-15
1e-15
1e-15
1e-15
1e-15
1e-15
1e-15
1e-15
1e-15
1e-15
1e-15
1e-15
1e-15
1e-15
1e-15
1e-15
1e-15
1e-15
1e-15
1e-15
1e-15
1e-15
1e-15
1e-15
1e-15
1e-15
1e-15
1e-15
1e-15
1e-15
1e-15
1e-15
1e-15
1e-15
1e-15
1e-15
1e-15
1e-15
1e-15
1e-15
1e-15
1e-15
1e-15
1e-15
1e-15
1e-15
1e-15
1e-15
1e-15
1e-15
1e-15
1e-15
1e-15
1e-15
1e-15
1e-15
1e-15
1e-15
1e-15
1e-15
1e-15
1e-15
1e-15
1e-15
1e-15
1e-15
1e-15
1e-15
1e-15
1e-15
1e-15
1e-15
1e-15
1e-15
1e-15
1e-15
1e-15
1e-15
1e-15
1e-15
1e-15
1e-15
1e-15
1e-15
1e-15
1e-15
1e-15
1e-15
1e-15
1e-15
1e-15
1e-15
1e-15
1e-15
1e-15
1e-15
1e-15
1e-15
1e-15
1e-15
1e-15
1e-15
1e-15
1e-15
1e-15
1e-15
1e-15
1e-15
1e-15
1e-15
1e-15
1e-15
1e-15
1e-15
1e-15
1e-15
1e-15
1e-15
1e-15
1e-15
1e-15
1e-15
1e-15
1e-15
1e-15
1e-15
1e-15
1e-15
1e-15
1e-15
1e-15
1e-15
1e-15
1e-15
1e-15
1e-15
1e-15
1e-15
1e-15
1e-15
1e-15
1e-15
1e-15
1e-15
1e-15
1e-15
1e-15
1e-15
1e-15
1e-15
1e-15
1e-15
1e-15
1e-15
1e-15
1e-15
1e-15
1e-15
1e-15
1e-15
1e-15
1e-15
1e-15
1e-15
1e-15
1e-15
1e-15
1e-15
1e-15
1e-15
1e-15
1e-15
1e-15
1e-15
1e-15
1e-15
1e-15
1e-15
1e-15
1e-15
1e-15
1e-15
1e-15
1e-15
1e-15
1e-15
1e-15
1e-15
1e-15
1e-15
1e-15
1e-15
1e-15
1e-15
1e-15
1e-15
1e-15
1e-15
1e-15
1e-15
1e-15
1e-15
1e-15
1e-15
1e-15
1e-15
1e-15
1e-15
1e-15
1e-15
1e-15
1e-15
1e-15
1e-15
1e-15
1e-15
1e-15
1e-15
1e-15
1e-15
1e-15
1e-15
1e-15
1e-15
1e-15
1e-15
1e-15
1e-15
1e-15
1e-15
1e-15
1e-15
1e-15
1e-15
1e-15
1e-15
1e-15
1e-15
1e-15
1e-15
1e-15
1e-15
1e-15
1e-15
1e-15
1e-15
1e-15
1e-15
1e-15
1e-15
1e-15
1e-15
1e-15
1e-15
1e-15
1e-15
1e-15
1e-15
1e-15
1e-15
1e-15
1e-15
1e-15
1e-15
1e-15
1e-15
1e-15
1e-15
1e-15
1e-15
1e-15
1e-15
1e-15
1e-15
1e-15
1e-15
1e-15
1e-15
1e-15
1e-15
1e-15
1e-15
1e-15
1e-15
1e-15
1e-15
1e-15
1e-15
1e-15
1e-15
1e-15
1e-15
1e-15
1e-15
1e-15
1e-15
1e-15
1e-15
1e-15
1e-15
1e-15
1e-15
1e-15
1e-15
1e-15
1e-15
1e-15
1e-15
1e-15
1e-15
1e-15
1e-15
1e-15
1e-15
1e-15
1e-15
1e-15
1e-15
1e-15
1e-15
1e-15
1e-15
1e-15
1e-15
1e-15
1e-15
1e-15
1e-15
1e-15
1e-15
1e-15
1e-15
1e-15
1e-15
1e-15
1e-15
1e-15
1e-15
1e-15
1e-15
1e-15
1e-15
1e-15
1e-15
1e-15
1e-15
1e-15
1e-15
1e-15
1e-15
1e-15
1e-15
1e-15
1e-15
1e-15
1e-15
1e-15
1e-15
1e-15
1e-15
1e-15
1e-15
1e-15
1e-15
1e-15
1e-15
1e-15
1e-15
1e-15
1e-15
1e-15
1e-15
1e-15
1e-15
1e-15
1e-15
1e-15
1e-15
1e-15
1e-15
1e-15
1e-15
1e-15
1e-15
1e-15
1e-15
1e-15
1e-15
1e-15
1e-15
1e-15
1e-15
1e-15
1e-15
1e-15
1e-15
1e-15
1e-15
1e-15
1e-15
1e-15
1e-15
1e-15
1e-15
1e-15
1e-15
1e-15
1e-15
1e-15
1e-15
1e-15
1e-15
1e-15
1e-15
1e-15
1e-15
1e-15
1e-15
1e-15
1e-15
1e-15
1e-15
1e-15
1e-15
1e-15
1e-15
1e-15
1e-15
1e-15
1e-15
1e-15
1e-15
1e-15
1e-15
1e-15
1e-15
1e-15
1e-15
1e-15
1e-15
1e-15
1e-15
1e-15
1e-15
1e-15
1e-15
1e-15
1e-15
1e-15
1e-15
1e-15
1e-15
1e-15
1e-15
1e-15
1e-15
1e-15
1e-15
1e-15
1e-15
1e-15
1e-15
1e-15
1e-15
1e-15
1e-15
1e-15
1e-15
1e-15
1e-15
1e-15
1e-15
1e-15
1e-15
1e-15
1e-15
1e-15
1e-15
1e-15
1e-15
1e-15
1e-15
1e-15
1e-15
1e-15
1e-15
1e-15
1e-15
1e-15
1e-15
1e-15
1e-15
1e-15
1e-15
1e-15
1e-15
1e-15
1e-15
1e-15
1e-15
1e-15
1e-15
1e-15
1e-15
1e-15
1e-15
1e-15
1e-15
1e-15
1e-15
1e-15
1e-15
1e-15
1e-15
1e-15
1e-15
1e-15
1e-15
1e-15
1e-15
1e-15
1e-15
1e-15
1e-15
1e-15
1e-15
1e-15
1e-15
1e-15
1e-15
1e-15
1e-15
1e-15
1e-15
1e-15
1e-15
1e-15
1e-15
1e-15
1e-15
1e-15
1e-15
1e-15
1e-15
1e-15
1e-15
1e-15
1e-15
1e-15
1e-15
1e-15
1e-15
1e-15
1e-15
1e-15
1e-15
1e-15
1e-15
1e-15
1e-15
1e-15
1e-15
1e-15
1e-15
1e-15
1e-15
1e-15
1e-15
1e-15
1e-15
1e-15
1e-15
1e-15
1e-15
1e-15
1e-15
1.00603908622e-15
1.00737030046e-15
1.00603908622e-15
1e-15
1e-15
1e-15
1e-15
1e-15
1e-15
1e-15
1e-15
1e-15
1e-15
1e-15
1e-15
1e-15
1e-15
1e-15
1e-15
1e-15
1e-15
1e-15
1e-15
1e-15
1e-15
1e-15
1e-15
1e-15
1e-15
1e-15
1e-15
1e-15
1e-15
1e-15
1e-15
1e-15
1e-15
1e-15
1e-15
1e-15
1e-15
1e-15
1e-15
1e-15
1e-15
1e-15
1e-15
1e-15
1e-15
1e-15
1e-15
1e-15
1e-15
1e-15
1e-15
1e-15
1e-15
1e-15
1e-15
1e-15
1e-15
1e-15
1e-15
1e-15
1e-15
1e-15
1e-15
1e-15
1e-15
1e-15
1e-15
1e-15
1e-15
1e-15
1e-15
1e-15
1e-15
1e-15
1e-15
1e-15
1e-15
1e-15
1e-15
1e-15
1e-15
1e-15
1e-15
1e-15
1e-15
1e-15
1e-15
1e-15
1e-15
1e-15
1e-15
1e-15
1e-15
1e-15
1e-15
1e-15
1e-15
1e-15
1e-15
1e-15
1e-15
1e-15
1e-15
1e-15
1e-15
1e-15
1e-15
1e-15
1e-15
1e-15
1e-15
1e-15
1e-15
1e-15
1e-15
1e-15
1e-15
1e-15
1e-15
1e-15
1e-15
1e-15
1e-15
1e-15
1e-15
1e-15
1e-15
1e-15
1e-15
1e-15
1e-15
1e-15
1e-15
1e-15
1e-15
1e-15
1.00730952783e-15
1.00603908622e-15
1.00736678978e-15
1.00009051921e-15
1e-15
1e-15
1.00002260426e-15
1e-15
1.00002606485e-15
1.00002030697e-15
1.00002227642e-15
1.00002789054e-15
1.00002249291e-15
1.00003231115e-15
1.00002248948e-15
1.00004103097e-15
1.00001965452e-15
1.00003981718e-15
1.000019225e-15
1.00002438437e-15
1.00002507911e-15
1.000028138e-15
1.00004410868e-15
1.00003574291e-15
1.00004804512e-15
1.00005267745e-15
1.00005570603e-15
1.00005982006e-15
1.00006660449e-15
1.00007271216e-15
1.00008751949e-15
1.00008726569e-15
1.00009055784e-15
1.00008682088e-15
1.00009076308e-15
1.00009492328e-15
1.00009859818e-15
1.00010257131e-15
1.00011086312e-15
1.00011662125e-15
1.00012504863e-15
1.00013168929e-15
1.00013403063e-15
1.00014548201e-15
1.00014922589e-15
1.00015895176e-15
1.00017158453e-15
1.00017959248e-15
1.00018312115e-15
1.00019103386e-15
1.00018816193e-15
1.00019245622e-15
1.00022871973e-15
1.00026946724e-15
1.00053850866e-15
1.00086660131e-15
1.00117347462e-15
1.0009033967e-15
1.00023364511e-15
1.00021787807e-15
1.00021451508e-15
1.00020486759e-15
1.00019534315e-15
1.00018894138e-15
1.00018189038e-15
1.00016748849e-15
1.00015555012e-15
1.00014559766e-15
1.00013139429e-15
1.00011584688e-15
1.00010198027e-15
1.00008484828e-15
1.00006509474e-15
1.00004613278e-15
1.00002937869e-15
1.00001255367e-15
1.00000153326e-15
1e-15
1e-15
1e-15
1e-15
1e-15
1e-15
1e-15
1e-15
1e-15
1e-15
1e-15
1e-15
1e-15
1e-15
1e-15
1e-15
1e-15
1e-15
1e-15
1e-15
1e-15
1e-15
1e-15
1e-15
1e-15
1e-15
1e-15
1e-15
1e-15
1e-15
1e-15
1e-15
1e-15
1.00000012503e-15
1.00000081463e-15
1.00000140745e-15
1.00000401341e-15
1.00001459907e-15
1.0000210855e-15
1.00002612328e-15
1.00002797315e-15
1.00002968826e-15
1.0000318012e-15
1.00003624851e-15
1.00004087752e-15
1.00004693638e-15
1.0000514818e-15
1.00005589671e-15
1.00006035463e-15
1.00006405657e-15
1.00006767965e-15
1.00007072325e-15
1.00007371629e-15
1.0000762276e-15
1.00007915046e-15
1.00008200633e-15
1.00008505458e-15
1.00008800881e-15
1.00009179766e-15
1.00009562585e-15
1.00010077248e-15
1.00010763976e-15
1.0050152705e-15
1.00603908622e-15
1.00746989811e-15
1.00603908622e-15
1.00643224753e-15
1.00014373463e-15
1.00013876521e-15
1.00000856232e-15
1e-15
1.0000203064e-15
1.0000232966e-15
1.00002702181e-15
1.00002250243e-15
1.00003208791e-15
1.00002249291e-15
1.00003335001e-15
1.00002248948e-15
1.00003914595e-15
1.0000196433e-15
1.00002778897e-15
1.00002646128e-15
1.00003060806e-15
1.0000460617e-15
1.00003574291e-15
1.00004947374e-15
1.0000445848e-15
1.00005702714e-15
1.00006189859e-15
1.00006619663e-15
1.00007022443e-15
1.00008165057e-15
1.00008941784e-15
1.00009055784e-15
1.00008794288e-15
1.00009299123e-15
1.00009883001e-15
1.00010469116e-15
1.00011230739e-15
1.00011988224e-15
1.00012863846e-15
1.00013714181e-15
1.0001471862e-15
1.00015617838e-15
1.00016638821e-15
1.0001758556e-15
1.00018637621e-15
1.00019596688e-15
1.00020728379e-15
1.00021708387e-15
1.00022705241e-15
1.00024206502e-15
1.00036715955e-15
1.00057829475e-15
1.00117779125e-15
1.00186294476e-15
1.00219481897e-15
1.00232255383e-15
1.00219481897e-15
1.00232215942e-15
1.00125324753e-15
1.00040826604e-15
1.00040287458e-15
1.00038145458e-15
1.0003555522e-15
1.00031564275e-15
1.00025220774e-15
1.00020714867e-15
1.00019468618e-15
1.00018010977e-15
1.00016525757e-15
1.00014761795e-15
1.00012919314e-15
1.00011189582e-15
1.00009429575e-15
1.00007647565e-15
1.00005240819e-15
1.00003771754e-15
1.00002039675e-15
1e-15
1e-15
1e-15
1e-15
1e-15
1e-15
1e-15
1e-15
1e-15
1e-15
1e-15
1e-15
1e-15
1e-15
1e-15
1e-15
1e-15
1e-15
1e-15
1e-15
1e-15
1e-15
1e-15
1e-15
1e-15
1e-15
1e-15
1e-15
1e-15
1e-15
1e-15
1e-15
1e-15
1e-15
1.00000637801e-15
1.00002737573e-15
1.0000539172e-15
1.00006152514e-15
1.00006807481e-15
1.00007460809e-15
1.00008033659e-15
1.00008615516e-15
1.00009173377e-15
1.00009815727e-15
1.00010515484e-15
1.0001111787e-15
1.00011722994e-15
1.00012105802e-15
1.00012341136e-15
1.00012625553e-15
1.00012916788e-15
1.00013144638e-15
1.00013377885e-15
1.00013558654e-15
1.00013810478e-15
1.00014058701e-15
1.00014328215e-15
1.00014565554e-15
1.00014868826e-15
1.00015193835e-15
1.00015673071e-15
1.0001755161e-15
1.00603908622e-15
1.00730500409e-15
1.00603908622e-15
1.00735955055e-15
1.00603908622e-15
1.00021040045e-15
1.00019288282e-15
1.00002223022e-15
1e-15
1.00002249042e-15
1.0000203064e-15
1.00002250303e-15
1.00002711739e-15
1.00002249344e-15
1.0000331773e-15
1.00002248588e-15
1.00003335361e-15
1.00001964331e-15
1.00002925419e-15
1.00002575611e-15
1.00002990765e-15
1.00003971057e-15
1.00003183031e-15
1.00004971e-15
1.00004439167e-15
1.00005304435e-15
1.0000480912e-15
1.00005874084e-15
1.00006269682e-15
1.00006760996e-15
1.00007043877e-15
1.00008165057e-15
1.00008984428e-15
1.0000913875e-15
1.00009379956e-15
1.00009958916e-15
1.00010535402e-15
1.00011201016e-15
1.00011944761e-15
1.00012800975e-15
1.00013630047e-15
1.0001463973e-15
1.00015511112e-15
1.00016610996e-15
1.00017553256e-15
1.00018725344e-15
1.00019943942e-15
1.00021148637e-15
1.00022320822e-15
1.0002593978e-15
1.00040946536e-15
1.00096500109e-15
1.0021022611e-15
1.0022789027e-15
1.00219481897e-15
1.00232107775e-15
1.00219481897e-15
1.00232180582e-15
1.00219481897e-15
1.00230979888e-15
1.00076466303e-15
1.00063786876e-15
1.00062781695e-15
1.00058482636e-15
1.00051296899e-15
1.00038084396e-15
1.00027261514e-15
1.00022688396e-15
1.00018483151e-15
1.00015668031e-15
1.00013893518e-15
1.00011952877e-15
1.00010144552e-15
1.00008352454e-15
1.00006542104e-15
1.00004487009e-15
1.00002997189e-15
1.00001653263e-15
1.00000423723e-15
1e-15
1e-15
1e-15
1e-15
1e-15
1e-15
1e-15
1e-15
1e-15
1e-15
1e-15
1e-15
1e-15
1e-15
1e-15
1e-15
1e-15
1e-15
1e-15
1e-15
1e-15
1e-15
1e-15
1e-15
1e-15
1e-15
1e-15
1e-15
1e-15
1.00000636019e-15
1.00001348187e-15
1.00002327772e-15
1.00003121724e-15
1.00004095814e-15
1.00005039273e-15
1.00005776843e-15
1.00006488841e-15
1.00007144695e-15
1.00007862771e-15
1.00008547859e-15
1.00009259488e-15
1.00009965782e-15
1.0001072395e-15
1.0001153254e-15
1.00012114208e-15
1.00012804525e-15
1.00013259674e-15
1.00013818486e-15
1.00014172883e-15
1.00014531392e-15
1.00014816958e-15
1.00015101998e-15
1.00015324345e-15
1.00015580138e-15
1.00015805082e-15
1.00016106305e-15
1.00016446642e-15
1.00016893427e-15
1.00017489724e-15
1.00018492248e-15
1.00023141603e-15
1.00699883519e-15
1.00603908622e-15
1.00747392499e-15
1.00603908622e-15
1.00649717781e-15
1.00031789892e-15
1.00028365408e-15
1.00000856232e-15
1e-15
1.0000203064e-15
1.00002087096e-15
1.00002034135e-15
1.00002249344e-15
1.00002732723e-15
1.00002248948e-15
1.00003170159e-15
1.00001984605e-15
1.0000310328e-15
1.00002555243e-15
1.00002869067e-15
1.00003730227e-15
1.00003184802e-15
1.00004431001e-15
1.00003183031e-15
1.00005024492e-15
1.0000480912e-15
1.00005226524e-15
1.0000481824e-15
1.00005755223e-15
1.00006273553e-15
1.00007069389e-15
1.00007044163e-15
1.00008075298e-15
1.00008645925e-15
1.00008991439e-15
1.00009379956e-15
1.00009929239e-15
1.00010668306e-15
1.00011418422e-15
1.00012244058e-15
1.00013053022e-15
1.00014022998e-15
1.00014869958e-15
1.00015934994e-15
1.00016846374e-15
1.00017984033e-15
1.00019131639e-15
1.00020444438e-15
1.00025339685e-15
1.00040580465e-15
1.00096285173e-15
1.00209723091e-15
1.00226351214e-15
1.00219481897e-15
1.00231086954e-15
1.00219481897e-15
1.00231653641e-15
1.00219481897e-15
1.0023087419e-15
1.00219481897e-15
1.00221368125e-15
1.00095067252e-15
1.00093474886e-15
1.00087731014e-15
1.00078022109e-15
1.00060418401e-15
1.00044704043e-15
1.00034488661e-15
1.0002370691e-15
1.00015459527e-15
1.00012465805e-15
1.00010452168e-15
1.00008492142e-15
1.00006553413e-15
1.00004648748e-15
1.00002918211e-15
1.00001482144e-15
1.00000229909e-15
1e-15
1e-15
1e-15
1e-15
1e-15
1e-15
1e-15
1e-15
1e-15
1e-15
1e-15
1e-15
1e-15
1e-15
1e-15
1e-15
1e-15
1e-15
1e-15
1e-15
1e-15
1e-15
1e-15
1e-15
1e-15
1e-15
1e-15
1e-15
1e-15
1e-15
1.0000060394e-15
1.00001365098e-15
1.00002546598e-15
1.00003516769e-15
1.00004583617e-15
1.00005364327e-15
1.00006040411e-15
1.00006784e-15
1.00007487169e-15
1.00008233127e-15
1.00008962309e-15
1.00009711051e-15
1.00010531043e-15
1.00011357285e-15
1.000122177e-15
1.00012815501e-15
1.00013506402e-15
1.00013995e-15
1.00015004329e-15
1.00016032766e-15
1.00016946059e-15
1.00017699774e-15
1.00018487865e-15
1.00019122429e-15
1.00019676449e-15
1.00020188054e-15
1.00020754519e-15
1.00021353533e-15
1.00022198969e-15
1.00023404639e-15
1.00025660185e-15
1.0003454665e-15
1.00603908622e-15
1.00730027878e-15
1.00603908622e-15
1.00735232566e-15
1.00603908622e-15
1.00050634297e-15
1.00046657076e-15
1.00001618658e-15
1e-15
1.00002008084e-15
1.00001972808e-15
1.00002033438e-15
1.0000225499e-15
1.00002248948e-15
1.00002718063e-15
1.00001984605e-15
1.00003160412e-15
1.00002227033e-15
1.00003037581e-15
1.00003335175e-15
1.00003184718e-15
1.00003944617e-15
1.00003184719e-15
1.00004563377e-15
1.00003182892e-15
1.00003890546e-15
1.00004388273e-15
1.00004807207e-15
1.00004821859e-15
1.0000605702e-15
1.00006876848e-15
1.0000706966e-15
1.00007043892e-15
1.00007644548e-15
1.00008347224e-15
1.00008727684e-15
1.00009172993e-15
1.00009886044e-15
1.00010559955e-15
1.00011415344e-15
1.00012149548e-15
1.00013080187e-15
1.00013892581e-15
1.00014905683e-15
1.00015754222e-15
1.00016815944e-15
1.00018115844e-15
1.00023414372e-15
1.00036314495e-15
1.00075009091e-15
1.00163011627e-15
1.00223182953e-15
1.00219481897e-15
1.00225053653e-15
1.00219481897e-15
1.00230167305e-15
1.00219481897e-15
1.0022918268e-15
1.00219481897e-15
1.00228617327e-15
1.00219481897e-15
1.00168805666e-15
1.00123134364e-15
1.00118449917e-15
1.00103809706e-15
1.00083328579e-15
1.00067089908e-15
1.00055852646e-15
1.00039635842e-15
1.00019615889e-15
1.00010563181e-15
1.00008412811e-15
1.00006169308e-15
1.0000393722e-15
1.00002150815e-15
1.00000477726e-15
1e-15
1e-15
1e-15
1e-15
1e-15
1e-15
1e-15
1e-15
1e-15
1e-15
1e-15
1e-15
1e-15
1e-15
1e-15
1e-15
1e-15
1e-15
1e-15
1e-15
1e-15
1e-15
1e-15
1e-15
1e-15
1e-15
1e-15
1e-15
1e-15
1e-15
1e-15
1e-15
1.00000214911e-15
1.00001071598e-15
1.00002217436e-15
1.00003363128e-15
1.00004503527e-15
1.00005458948e-15
1.00006273739e-15
1.00007066557e-15
1.00007843273e-15
1.00008620306e-15
1.00009421859e-15
1.00010259669e-15
1.00011177595e-15
1.00012057372e-15
1.00012931245e-15
1.00013557366e-15
1.00015650769e-15
1.00017590435e-15
1.00019696221e-15
1.00021786551e-15
1.00023565929e-15
1.00025053588e-15
1.00026533954e-15
1.00027726926e-15
1.00028717426e-15
1.00029591271e-15
1.00030397125e-15
1.0003114626e-15
1.00032191497e-15
1.00033683224e-15
1.00036626832e-15
1.00048227244e-15
1.00699432112e-15
1.00603908622e-15
1.00744904057e-15
1.00603908622e-15
1.00648821036e-15
1.00064640683e-15
1.00060719661e-15
1.00000926173e-15
1e-15
1.00001628749e-15
1.00001796258e-15
1.00001794791e-15
1.00002006384e-15
1.00002223244e-15
1.00001984267e-15
1.00002455024e-15
1.00001693252e-15
1.00002784853e-15
1.00002582993e-15
1.00003044665e-15
1.00003335175e-15
1.00003184718e-15
1.00003901243e-15
1.00003182895e-15
1.00003821078e-15
1.00003489736e-15
1.00003896156e-15
1.00004254144e-15
1.00004981935e-15
1.00004849753e-15
1.00006105804e-15
1.00006937285e-15
1.00007069675e-15
1.00007043877e-15
1.00007495171e-15
1.00008068296e-15
1.00008437486e-15
1.00009119254e-15
1.00009781107e-15
1.00010553509e-15
1.00011229566e-15
1.00012111775e-15
1.00012867036e-15
1.00013828392e-15
1.00014706708e-15
1.00015874371e-15
1.00021646526e-15
1.00036976955e-15
1.00059783661e-15
1.00120089267e-15
1.00202089255e-15
1.00219481897e-15
1.00223018025e-15
1.00219481897e-15
1.00227720276e-15
1.00219481897e-15
1.00227987074e-15
1.00219481897e-15
1.00227067994e-15
1.00219481897e-15
1.00225493229e-15
1.00219481897e-15
1.00152723392e-15
1.00144284261e-15
1.00124857508e-15
1.00102502918e-15
1.00085916844e-15
1.00067925593e-15
1.00042665662e-15
1.0001854181e-15
1.00007439392e-15
1.00004582298e-15
1.00002027947e-15
1e-15
1e-15
1e-15
1e-15
1e-15
1e-15
1e-15
1e-15
1e-15
1e-15
1e-15
1e-15
1e-15
1e-15
1e-15
1e-15
1e-15
1e-15
1e-15
1e-15
1e-15
1e-15
1e-15
1e-15
1e-15
1e-15
1e-15
1e-15
1e-15
1e-15
1e-15
1e-15
1e-15
1e-15
1e-15
1e-15
1.00000480984e-15
1.00001535384e-15
1.00002914612e-15
1.00004175592e-15
1.00005318533e-15
1.00006287838e-15
1.00007199507e-15
1.00008106216e-15
1.00009018729e-15
1.0000996426e-15
1.00010909161e-15
1.00011895662e-15
1.00012816122e-15
1.00014120503e-15
1.00017289542e-15
1.0002124843e-15
1.00024530681e-15
1.00027213509e-15
1.00029559313e-15
1.00031723134e-15
1.0003356551e-15
1.00035268821e-15
1.00036680145e-15
1.00037879989e-15
1.00038852056e-15
1.0003968005e-15
1.00040418261e-15
1.00041329773e-15
1.00042693785e-15
1.00045377828e-15
1.00058178123e-15
1.00603908622e-15
1.00729321404e-15
1.00603908622e-15
1.0073410534e-15
1.00603908622e-15
1.00074146399e-15
1.00069963994e-15
1.00001138124e-15
1e-15
1.00001548774e-15
1.00001570054e-15
1.00001394749e-15
1.00001808993e-15
1.00001979146e-15
1.00002194492e-15
1.00001664983e-15
1.0000238719e-15
1.00001815e-15
1.00002452244e-15
1.00002582993e-15
1.00002896097e-15
1.00003200265e-15
1.00003182895e-15
1.0000372472e-15
1.0000328195e-15
1.0000353736e-15
1.0000361285e-15
1.00004065016e-15
1.00004608262e-15
1.00005108003e-15
1.00004849753e-15
1.00006117691e-15
1.00006754741e-15
1.00007069675e-15
1.00007043877e-15
1.00007489415e-15
1.00007818345e-15
1.00008350412e-15
1.0000891174e-15
1.00009616961e-15
1.00010214013e-15
1.00011031778e-15
1.00011684791e-15
1.00012370019e-15
1.00013209364e-15
1.00015960214e-15
1.00039896423e-15
1.00061398655e-15
1.00092486048e-15
1.00159823797e-15
1.00215210986e-15
1.00221286506e-15
1.00219481897e-15
1.00221610892e-15
1.00219481897e-15
1.00226583698e-15
1.00219481897e-15
1.00225493872e-15
1.00219481897e-15
1.00224954334e-15
1.00219481897e-15
1.00223387734e-15
1.00182844595e-15
1.00158355598e-15
1.00136659091e-15
1.00109674731e-15
1.00085183121e-15
1.00063206963e-15
1.00032235266e-15
1.00006125841e-15
1e-15
1e-15
1e-15
1e-15
1e-15
1e-15
1e-15
1e-15
1e-15
1e-15
1e-15
1e-15
1e-15
1e-15
1e-15
1e-15
1e-15
1e-15
1e-15
1e-15
1e-15
1e-15
1e-15
1e-15
1e-15
1e-15
1e-15
1e-15
1e-15
1e-15
1e-15
1e-15
1e-15
1e-15
1e-15
1e-15
1e-15
1e-15
1e-15
1e-15
1.00000385799e-15
1.00001810868e-15
1.00003457494e-15
1.00004844437e-15
1.0000608374e-15
1.00007229159e-15
1.00008391749e-15
1.00009480043e-15
1.00010583353e-15
1.00011626517e-15
1.00012675654e-15
1.00013690639e-15
1.00018245729e-15
1.00023111976e-15
1.00026790512e-15
1.00029819753e-15
1.0003254557e-15
1.00034982952e-15
1.00037446561e-15
1.00039542642e-15
1.00041424268e-15
1.00043018828e-15
1.00044393412e-15
1.00045493469e-15
1.0004637204e-15
1.00047147243e-15
1.00047992635e-15
1.00049397458e-15
1.00052033778e-15
1.00066247476e-15
1.00698713488e-15
1.00603908622e-15
1.00744759852e-15
1.00603908622e-15
1.00647866236e-15
1.00085163474e-15
1.00080778605e-15
1.00001230003e-15
1e-15
1.00001704324e-15
1.00001755731e-15
1.00001541143e-15
1.00001491044e-15
1.00001637334e-15
1.00001510622e-15
1.00001915777e-15
1.00001664983e-15
1.00002053791e-15
1.0000181532e-15
1.00002110967e-15
1.00002411395e-15
1.00002765415e-15
1.00003144645e-15
1.0000328195e-15
1.00003639538e-15
1.00003896012e-15
1.00004037955e-15
1.00004153316e-15
1.0000427122e-15
1.00004615739e-15
1.0000518968e-15
1.00004849753e-15
1.000060886e-15
1.00006461901e-15
1.00006651897e-15
1.00006653954e-15
1.00007046847e-15
1.00007551702e-15
1.00008031682e-15
1.00008644226e-15
1.00009136293e-15
1.00009591399e-15
1.00010136535e-15
1.00010743594e-15
1.00011546366e-15
1.0001713961e-15
1.00045406717e-15
1.00073125741e-15
1.00121994053e-15
1.00180896492e-15
1.00212099602e-15
1.00219481897e-15
1.00220190547e-15
1.00219481897e-15
1.00224574019e-15
1.00219481897e-15
1.00224554071e-15
1.00219481897e-15
1.00223757295e-15
1.00219481897e-15
1.00222107955e-15
1.00219481897e-15
1.00215398121e-15
1.00174715151e-15
1.00145577103e-15
1.00101809725e-15
1.00062365795e-15
1.00022074904e-15
1e-15
1e-15
1e-15
1e-15
1e-15
1e-15
1e-15
1e-15
1e-15
1e-15
1e-15
1e-15
1e-15
1e-15
1e-15
1e-15
1e-15
1e-15
1e-15
1e-15
1e-15
1e-15
1e-15
1e-15
1e-15
1e-15
1e-15
1e-15
1e-15
1e-15
1e-15
1e-15
1e-15
1e-15
1e-15
1e-15
1e-15
1e-15
1e-15
1e-15
1e-15
1e-15
1e-15
1e-15
1.00001451286e-15
1.00003507285e-15
1.0000536339e-15
1.00006940888e-15
1.00008353464e-15
1.00009707305e-15
1.00010986234e-15
1.00012129758e-15
1.00013297039e-15
1.00017432675e-15
1.00023421944e-15
1.00027348233e-15
1.00030635656e-15
1.00033709258e-15
1.00036846467e-15
1.00039810937e-15
1.00042804199e-15
1.00045314281e-15
1.00047579679e-15
1.00049474759e-15
1.00051105564e-15
1.00052456556e-15
1.00053473617e-15
1.00054347984e-15
1.00055247107e-15
1.00056887345e-15
1.000598949e-15
1.0007619673e-15
1.00603908622e-15
1.00728352044e-15
1.00603908622e-15
1.00732906527e-15
1.00603908622e-15
1.00100925442e-15
1.00096602987e-15
1.000013594e-15
1e-15
1.00001857558e-15
1.00001930348e-15
1.00001675824e-15
1.0000150899e-15
1.00001342156e-15
1.00001603337e-15
1.00001299353e-15
1.0000158818e-15
1.00001664748e-15
1.00001858743e-15
1.00002132853e-15
1.00002513614e-15
1.00002889811e-15
1.00003300161e-15
1.00003617379e-15
1.00003997127e-15
1.00004288522e-15
1.00004472028e-15
1.00004608037e-15
1.00004694828e-15
1.00004692259e-15
1.00004614485e-15
1.00005185327e-15
1.00004850497e-15
1.00005811386e-15
1.00005927997e-15
1.00006001472e-15
1.00006289326e-15
1.00006799832e-15
1.00007020729e-15
1.00007568387e-15
1.0000777148e-15
1.00007837864e-15
1.00008133982e-15
1.00008506038e-15
1.00009058151e-15
1.00013181712e-15
1.0003983376e-15
1.00070290404e-15
1.00124097139e-15
1.00178633042e-15
1.00202477086e-15
1.00209404021e-15
1.00213663807e-15
1.00217518967e-15
1.00219481897e-15
1.00223555543e-15
1.00219481897e-15
1.00222268137e-15
1.00219481897e-15
1.00221630459e-15
1.00219481897e-15
1.00220386381e-15
1.00219481897e-15
1.0016351521e-15
1.00107672497e-15
1.00027042643e-15
1e-15
1e-15
1e-15
1e-15
1e-15
1e-15
1e-15
1e-15
1e-15
1e-15
1e-15
1e-15
1e-15
1e-15
1e-15
1e-15
1e-15
1e-15
1e-15
1e-15
1e-15
1e-15
1e-15
1e-15
1e-15
1e-15
1e-15
1e-15
1e-15
1e-15
1e-15
1e-15
1e-15
1e-15
1e-15
1e-15
1e-15
1e-15
1e-15
1e-15
1e-15
1e-15
1e-15
1e-15
1e-15
1e-15
1e-15
1.00000123357e-15
1.00002854445e-15
1.00005412727e-15
1.00007586968e-15
1.00009429218e-15
1.00011088819e-15
1.00012547024e-15
1.00015766993e-15
1.00022634584e-15
1.00027265823e-15
1.00030966303e-15
1.0003472441e-15
1.00038706434e-15
1.00042873018e-15
1.00046874614e-15
1.00050663502e-15
1.00053800098e-15
1.00056646724e-15
1.00058943096e-15
1.00060916141e-15
1.00062611211e-15
1.00063827889e-15
1.00064825562e-15
1.00065837416e-15
1.00067751792e-15
1.00071368144e-15
1.00090112119e-15
1.00697806964e-15
1.00603908622e-15
1.00742421422e-15
1.00603908622e-15
1.00647054474e-15
1.00121474829e-15
1.00117409343e-15
1.00001488298e-15
1e-15
1.00017072431e-15
1.00002572271e-15
1.00001562004e-15
1.00001419472e-15
1.00001263735e-15
1.00001299353e-15
1.00001416694e-15
1.00001561036e-15
1.0000180656e-15
1.00002102901e-15
1.00002415276e-15
1.00002820588e-15
1.00003235772e-15
1.00003732463e-15
1.00004055466e-15
1.00004498148e-15
1.00004778125e-15
1.00004992806e-15
1.00005146299e-15
1.0000520945e-15
1.00005158214e-15
1.00004855707e-15
1.00004604949e-15
1.00005119296e-15
1.00004850497e-15
1.00005031876e-15
1.00005408502e-15
1.00005717241e-15
1.00005823673e-15
1.00006027864e-15
1.00006055741e-15
1.00006066208e-15
1.00006141054e-15
1.00006260996e-15
1.00006333541e-15
1.00006599235e-15
1.00007296654e-15
1.00018426575e-15
1.00061012521e-15
1.00119597026e-15
1.00168839974e-15
1.00186442873e-15
1.00191050037e-15
1.00201635992e-15
1.00217832163e-15
1.00221956902e-15
1.00219481897e-15
1.00221346698e-15
1.00219481897e-15
1.00220462572e-15
1.00219481897e-15
1.00213420123e-15
1.00187940345e-15
1.00142180517e-15
1.00047180082e-15
1e-15
1e-15
1e-15
1e-15
1e-15
1e-15
1e-15
1e-15
1e-15
1e-15
1e-15
1e-15
1e-15
1e-15
1e-15
1e-15
1e-15
1e-15
1e-15
1e-15
1e-15
1e-15
1e-15
1e-15
1e-15
1e-15
1e-15
1e-15
1e-15
1e-15
1e-15
1e-15
1e-15
1e-15
1e-15
1e-15
1e-15
1e-15
1e-15
1e-15
1e-15
1e-15
1e-15
1e-15
1e-15
1e-15
1e-15
1e-15
1e-15
1e-15
1e-15
1.00000710322e-15
1.00004461299e-15
1.00007550101e-15
1.00010051885e-15
1.00012184148e-15
1.00020151135e-15
1.00026047172e-15
1.00030819813e-15
1.00035777789e-15
1.00041207417e-15
1.00047188805e-15
1.00053034759e-15
1.00058412197e-15
1.0006309452e-15
1.00066938753e-15
1.00070367821e-15
1.00073043541e-15
1.00075361213e-15
1.00077373624e-15
1.00078748087e-15
1.00079807443e-15
1.00080877851e-15
1.00082874319e-15
1.00086984509e-15
1.00108119388e-15
1.00603908622e-15
1.00727199974e-15
1.00603908622e-15
1.00731774585e-15
1.00603908622e-15
1.0014428551e-15
1.00140436933e-15
1.00018257004e-15
1e-15
1.00022475001e-15
1.00021426995e-15
1.00011013455e-15
1.00001177279e-15
1.00001019427e-15
1.00001130446e-15
1.00001258124e-15
1.00001572649e-15
1.00001866201e-15
1.00002301655e-15
1.00002707002e-15
1.00003233395e-15
1.00003689525e-15
1.00004243696e-15
1.00004619827e-15
1.0000509121e-15
1.00005380266e-15
1.0000560566e-15
1.00005740021e-15
1.00005800406e-15
1.00005721469e-15
1.0000535055e-15
1.00004875717e-15
1.00004524785e-15
1.00004972163e-15
1.00004849753e-15
1.00004838262e-15
1.00004723661e-15
1.00004938338e-15
1.00004719562e-15
1.00004575299e-15
1.00004417796e-15
1.00004312676e-15
1.00004268322e-15
1.0000425838e-15
1.00004398844e-15
1.00004646652e-15
1.00006759517e-15
1.00046707978e-15
1.00109127071e-15
1.00151956955e-15
1.00172804027e-15
1.00190671374e-15
1.00207884689e-15
1.00220250219e-15
1.00219481897e-15
1.00220384684e-15
1.00219481897e-15
1.00203821815e-15
1.00174253625e-15
1.00133608142e-15
1.00063832489e-15
1.00000407699e-15
1e-15
1e-15
1e-15
1e-15
1e-15
1e-15
1e-15
1e-15
1e-15
1e-15
1e-15
1e-15
1e-15
1e-15
1e-15
1e-15
1e-15
1e-15
1e-15
1e-15
1e-15
1e-15
1e-15
1e-15
1e-15
1e-15
1e-15
1e-15
1e-15
1e-15
1e-15
1e-15
1e-15
1e-15
1e-15
1e-15
1e-15
1e-15
1e-15
1e-15
1e-15
1e-15
1e-15
1e-15
1e-15
1e-15
1e-15
1e-15
1e-15
1e-15
1e-15
1e-15
1e-15
1e-15
1e-15
1.00001404239e-15
1.00006194691e-15
1.00009838849e-15
1.00019189853e-15
1.00027684982e-15
1.00035383375e-15
1.00043674516e-15
1.00052330556e-15
1.00061000675e-15
1.00068605988e-15
1.00075118763e-15
1.0008046919e-15
1.00084837259e-15
1.00088601072e-15
1.00091496115e-15
1.00094024346e-15
1.00096157809e-15
1.00097511513e-15
1.00098463265e-15
1.0009938264e-15
1.00101097413e-15
1.00105283778e-15
1.00128328678e-15
1.00696713259e-15
1.00603908622e-15
1.00741800828e-15
1.00603908622e-15
1.00646220369e-15
1.00166143643e-15
1.0016257505e-15
1.00019787675e-15
1e-15
1.00022471532e-15
1.00022475481e-15
1.00022272022e-15
1.00011576516e-15
1.00000807784e-15
1.0000093792e-15
1.00001200434e-15
1.0000163057e-15
1.00001991128e-15
1.00002565111e-15
1.00003002168e-15
1.00003635404e-15
1.00004222806e-15
1.00004850906e-15
1.00005302682e-15
1.00005845278e-15
1.000061805e-15
1.00006424833e-15
1.0000649952e-15
1.00006518755e-15
1.0000636084e-15
1.00005932278e-15
1.00005361959e-15
1.00004795538e-15
1.00004382678e-15
1.00004422855e-15
1.0000416126e-15
1.00004021727e-15
1.00003789539e-15
1.0000335123e-15
1.0000304474e-15
1.00002721191e-15
1.00002534267e-15
1.00002389762e-15
1.00002449898e-15
1.00002641886e-15
1.0000316859e-15
1.00005183644e-15
1.00042213266e-15
1.00109110073e-15
1.00153400059e-15
1.00179895303e-15
1.00199691624e-15
1.00209983094e-15
1.0021166041e-15
1.00194476477e-15
1.00160996499e-15
1.00108200676e-15
1.00031166619e-15
1e-15
1e-15
1e-15
1e-15
1e-15
1e-15
1e-15
1e-15
1e-15
1e-15
1e-15
1e-15
1e-15
1e-15
1e-15
1e-15
1e-15
1e-15
1e-15
1e-15
1e-15
1e-15
1e-15
1e-15
1e-15
1e-15
1e-15
1e-15
1e-15
1e-15
1e-15
1e-15
1e-15
1e-15
1e-15
1e-15
1e-15
1e-15
1e-15
1e-15
1e-15
1e-15
1e-15
1e-15
1e-15
1e-15
1e-15
1e-15
1e-15
1e-15
1e-15
1e-15
1e-15
1e-15
1e-15
1e-15
1e-15
1e-15
1e-15
1e-15
1e-15
1.00002795372e-15
1.00010829776e-15
1.00026928912e-15
1.00042435295e-15
1.00055707043e-15
1.00068612029e-15
1.00079456509e-15
1.00088303526e-15
1.00095435817e-15
1.00101203028e-15
1.00105872804e-15
1.0010975847e-15
1.00112720985e-15
1.00115251318e-15
1.0011721651e-15
1.00118316067e-15
1.00118902833e-15
1.00119339201e-15
1.00120423732e-15
1.00124160729e-15
1.00148557409e-15