/*--------------------------------*- C++ -*----------------------------------*\
| =========                 |                                                 |
| \\      /  F ield         | OpenFOAM: The Open Source CFD Toolbox           |
|  \\    /   O peration     | Version:  2206                                  |
|   \\  /    A nd           | Website:  www.openfoam.com                      |
|    \\/     M anipulation  |                                                 |
\*---------------------------------------------------------------------------*/
FoamFile
{
    version     2.0;
    format      ascii;
    arch        "LSB;label=64;scalar=64";
    class       volScalarField;
    location    "1/water";
    object      d.gas;
}
// * * * * * * * * * * * * * * * * * * * * * * * * * * * * * * * * * * * * * //

dimensions      [0 1 0 0 0 0 0];

internalField   nonuniform List<scalar> 
23300
(
0.00498804238372
0.00498804236172
0.00498804232911
0.0049880422804
0.00498804221439
0.00498804212967
0.0049880420263
0.00498804190301
0.00498804176017
0.00498804159647
0.00498804141239
0.00498804120656
0.00498804097955
0.00498804072991
0.00498804045833
0.00498804016332
0.00498803984564
0.00498803950386
0.00498803913881
0.00498803874911
0.00498803833568
0.0049880378972
0.00498803743467
0.00498803694684
0.00498803643476
0.00498803589727
0.00498803533544
0.00498803474815
0.00498803413651
0.00498803349945
0.00498803283803
0.00498803215123
0.00498803144008
0.00498803070356
0.00498802994266
0.00498802915636
0.00498802834558
0.00498802750931
0.00498802664841
0.00498802576189
0.00498802485054
0.0049880239134
0.00498802295122
0.00498802196313
0.00498802094984
0.00498801991057
0.00498801884609
0.00498801775574
0.00498801664034
0.00498801549944
0.00498801433398
0.00498801314371
0.00498801192974
0.00498801069209
0.00498800943207
0.00498800814997
0.00498800684732
0.00498800552473
0.00498800418396
0.00498800282589
0.00498800145248
0.00498800006482
0.00498799866496
0.00498799725397
0.0049879958355
0.00498799441337
0.00498799299071
0.00498799156947
0.00498799015248
0.0049879887419
0.00498798734061
0.00498798595084
0.00498798457543
0.00498798321658
0.00498798187702
0.00498798055882
0.00498797926448
0.00498797799587
0.0049879767552
0.00498797554404
0.00498797436426
0.0049879732171
0.00498797210402
0.00498797102592
0.00498796998383
0.00498796897828
0.00498796800991
0.00498796707887
0.00498796618543
0.00498796532941
0.00498796451073
0.0049879637289
0.00498796298356
0.00498796227398
0.00498796159952
0.00498796095929
0.00498796035247
0.00498795977798
0.0049879592349
0.00498795872207
0.00498795823844
0.00498795778284
0.00498795735417
0.00498795695125
0.00498795657298
0.00498795621819
0.00498795588582
0.00498795557476
0.00498795528399
0.00498795501246
0.00498795475924
0.00498795452335
0.00498795430394
0.00498795410013
0.00498795391115
0.00498795373622
0.00498795357466
0.00498795342578
0.004987953289
0.00498795316373
0.00498795304946
0.0049879529457
0.00498795285202
0.00498795276802
0.00498795269333
0.00498795262759
0.0049879525705
0.00498795252173
0.00498795248098
0.00498795244787
0.004987952422
0.00498795240288
0.00498795238987
0.00498795238192
0.00498795237801
0.00498795237715
0.0049879523779
0.00498795237893
0.00498795237861
0.00498795237417
0.00498817576556
0.00498817574479
0.0049881757159
0.00498817566976
0.0049881756057
0.00498817552267
0.00498817542054
0.0049881752984
0.00498817515627
0.00498817499319
0.00498817480927
0.00498817460352
0.0049881743761
0.004988174126
0.00498817385342
0.00498817355738
0.00498817323815
0.00498817289479
0.00498817252767
0.00498817213591
0.00498817171996
0.00498817127903
0.00498817081364
0.00498817032308
0.00498816980794
0.00498816926757
0.0049881687026
0.00498816811244
0.00498816749775
0.00498816685796
0.00498816619373
0.0049881655045
0.0049881647909
0.00498816405238
0.00498816328952
0.00498816250175
0.00498816168958
0.00498816085244
0.00498815999077
0.004988159104
0.0049881581925
0.00498815725571
0.00498815629398
0.00498815530675
0.00498815429439
0.00498815325641
0.00498815219321
0.00498815110441
0.00498814999049
0.00498814885123
0.00498814768725
0.00498814649853
0.00498814528588
0.00498814404952
0.00498814279047
0.00498814150927
0.00498814020717
0.00498813888501
0.00498813754432
0.00498813618625
0.00498813481258
0.00498813342472
0.0049881320247
0.00498813061427
0.00498812919755
0.00498812777773
0.00498812635689
0.00498812493719
0.00498812352126
0.00498812211142
0.00498812071041
0.00498811932063
0.00498811794481
0.00498811658533
0.00498811524482
0.00498811392551
0.00498811262982
0.00498811135978
0.00498811011751
0.00498810890475
0.00498810772327
0.00498810657444
0.00498810545967
0.00498810437996
0.00498810333628
0.00498810232926
0.00498810135947
0.00498810042716
0.00498809953253
0.00498809867547
0.00498809785583
0.00498809707322
0.00498809632719
0.00498809561706
0.00498809494217
0.00498809430164
0.00498809369461
0.00498809312005
0.00498809257697
0.00498809206425
0.0049880915808
0.00498809112547
0.00498809069713
0.0049880902946
0.00498808991677
0.00498808956247
0.00498808923062
0.00498808892011
0.00498808862991
0.00498808835898
0.00498808810636
0.00498808787108
0.00498808765227
0.00498808744906
0.00498808726066
0.0049880870863
0.00498808692528
0.00498808677694
0.00498808664065
0.00498808651585
0.00498808640202
0.00498808629866
0.00498808620535
0.00498808612166
0.00498808604724
0.00498808598173
0.00498808592482
0.00498808587618
0.0049880858355
0.00498808580243
0.00498808577655
0.00498808575738
0.00498808574424
0.00498808573627
0.00498808573246
0.0049880857314
0.00498808573154
0.00498808573132
0.00498808572939
0.00498808572615
0.00498830922237
0.00498830920177
0.00498830917582
0.0049883091319
0.00498830906972
0.00498830898851
0.00498830888819
0.00498830876793
0.00498830862774
0.00498830846673
0.00498830828494
0.00498830808143
0.00498830785627
0.00498830760853
0.0049883073383
0.00498830704468
0.00498830672784
0.00498830638693
0.00498830602222
0.00498830563291
0.00498830521938
0.00498830478092
0.00498830431798
0.00498830382994
0.0049883033173
0.00498830277953
0.00498830221717
0.00498830162973
0.00498830101778
0.00498830038086
0.00498829971952
0.00498829903333
0.00498829832281
0.00498829758748
0.00498829682784
0.00498829604339
0.00498829523453
0.00498829440077
0.00498829354243
0.00498829265898
0.0049882917507
0.00498829081706
0.00498828985829
0.00498828887388
0.00498828786408
0.00498828682843
0.00498828576721
0.00498828468008
0.00498828356741
0.00498828242901
0.00498828126539
0.00498828007658
0.00498827886328
0.00498827762576
0.00498827636497
0.00498827508148
0.00498827377649
0.0049882724509
0.00498827110621
0.00498826974363
0.00498826836496
0.00498826697176
0.00498826556607
0.00498826415223
0.00498826273211
0.00498826130514
0.00498825987458
0.0049882584435
0.0049882570151
0.0049882555922
0.00498825417781
0.00498825277463
0.00498825138555
0.00498825001313
0.00498824866008
0.00498824732878
0.0049882460217
0.00498824474094
0.00498824348865
0.00498824226663
0.00498824107665
0.00498823992013
0.00498823879843
0.00498823771259
0.00498823666355
0.00498823565193
0.00498823467828
0.0049882337428
0.00498823284568
0.00498823198676
0.00498823116587
0.00498823038255
0.00498822963633
0.00498822892648
0.00498822825229
0.00498822761285
0.00498822700723
0.00498822643438
0.00498822589326
0.00498822538271
0.0049882249016
0.00498822444875
0.00498822402299
0.00498822362312
0.00498822324797
0.00498822289638
0.00498822256723
0.00498822225939
0.00498822197181
0.00498822170342
0.00498822145325
0.00498822122034
0.00498822100378
0.00498822080271
0.00498822061632
0.00498822044385
0.00498822028458
0.00498822013784
0.00498822000301
0.00498821987954
0.00498821976688
0.00498821966455
0.00498821957213
0.00498821948919
0.00498821941538
0.00498821935034
0.00498821929377
0.00498821924535
0.00498821920477
0.00498821917169
0.00498821914572
0.00498821912638
0.00498821911305
0.00498821910493
0.00498821910095
0.00498821909971
0.0049882190995
0.00498821909867
0.0049882190964
0.00498821909431
0.00498844278213
0.00498844276203
0.00498844273836
0.00498844269619
0.0049884426355
0.00498844255567
0.00498844245677
0.00498844233809
0.00498844219968
0.00498844204073
0.0049884418613
0.00498844166049
0.00498844143838
0.00498844119404
0.00498844092756
0.00498844063804
0.00498844032565
0.00498843998951
0.00498843962989
0.004988439246
0.00498843883817
0.0049884384057
0.00498843794902
0.0049884374675
0.00498843696162
0.00498843643084
0.00498843587567
0.00498843529563
0.00498843469123
0.00498843406202
0.00498843340852
0.00498843273024
0.00498843202768
0.00498843130035
0.00498843054865
0.00498842977206
0.00498842897093
0.00498842814468
0.00498842729358
0.00498842641703
0.00498842551522
0.00498842458754
0.00498842363413
0.0049884226544
0.00498842164849
0.00498842061586
0.00498841955669
0.00498841847056
0.00498841735775
0.00498841621801
0.00498841505175
0.00498841385897
0.00498841264029
0.00498841139598
0.00498841012694
0.00498840883375
0.00498840751761
0.00498840617946
0.00498840482084
0.00498840344304
0.00498840204795
0.00498840063748
0.00498839921555
0.00498839778366
0.0049883963427
0.00498839489549
0.00498839344524
0.00498839199485
0.00498839054751
0.00498838910607
0.00498838767362
0.00498838625294
0.004988384847
0.00498838345842
0.00498838208998
0.00498838074411
0.00498837942332
0.00498837812976
0.0049883768656
0.00498837563265
0.00498837443271
0.00498837326718
0.00498837213745
0.00498837104451
0.00498836998932
0.00498836897245
0.00498836799443
0.00498836705544
0.0049883661556
0.00498836529475
0.00498836447263
0.00498836368876
0.0049883629426
0.00498836223338
0.00498836156033
0.00498836092249
0.00498836031887
0.00498835974837
0.0049883592099
0.00498835870225
0.00498835822425
0.00498835777466
0.00498835735227
0.00498835695584
0.00498835658419
0.00498835623609
0.00498835591041
0.00498835560599
0.00498835532174
0.0049883550566
0.00498835480956
0.00498835457965
0.00498835436595
0.00498835416758
0.00498835398373
0.00498835381362
0.00498835365654
0.00498835351182
0.00498835337883
0.00498835325701
0.00498835314583
0.0049883530448
0.00498835295349
0.00498835287149
0.00498835279845
0.00498835273402
0.00498835267789
0.00498835262976
0.00498835258933
0.00498835255627
0.00498835253022
0.00498835251072
0.0049883524972
0.00498835248888
0.00498835248473
0.00498835248336
0.00498835248283
0.0049883524814
0.00498835247868
0.0049883524769
0.00498857647771
0.0049885764584
0.00498857643681
0.00498857639648
0.00498857633749
0.00498857625938
0.0049885761623
0.00498857604562
0.00498857590949
0.00498857575318
0.00498857557678
0.00498857537947
0.00498857516134
0.0049885749215
0.00498857466006
0.00498857437613
0.00498857406988
0.00498857374044
0.00498857338804
0.00498857301189
0.0049885726123
0.00498857218854
0.00498857174098
0.00498857126897
0.00498857077294
0.00498857025229
0.00498856970747
0.00498856913792
0.00498856854412
0.0049885679255
0.0049885672825
0.00498856661458
0.0049885659221
0.00498856520448
0.00498856446203
0.00498856369412
0.00498856290097
0.00498856208191
0.00498856123708
0.00498856036577
0.00498855946807
0.00498855854325
0.00498855759137
0.00498855661175
0.00498855560443
0.00498855456883
0.00498855350507
0.00498855241269
0.00498855129194
0.00498855014256
0.004988548965
0.00498854775926
0.00498854652602
0.00498854526561
0.00498854397901
0.0049885426669
0.0049885413306
0.00498853997118
0.00498853859032
0.00498853718949
0.00498853577088
0.00498853433762
0.00498853289244
0.00498853143661
0.00498852997279
0.00498852850351
0.00498852703177
0.00498852556036
0.00498852409241
0.00498852263078
0.00498852117861
0.00498851973872
0.00498851831416
0.00498851690764
0.004988515522
0.00498851415975
0.00498851282346
0.00498851151533
0.0049885102376
0.00498850899212
0.0049885077807
0.0049885066048
0.00498850546579
0.00498850436469
0.00498850330243
0.00498850227958
0.00498850129663
0.00498850035375
0.00498849945101
0.00498849858818
0.00498849776499
0.00498849698087
0.00498849623523
0.00498849552723
0.00498849485605
0.00498849422063
0.00498849361994
0.00498849305281
0.00498849251807
0.00498849201447
0.00498849154075
0.00498849109563
0.00498849067785
0.00498849028611
0.00498848991918
0.0049884895758
0.00498848925479
0.00498848895496
0.00498848867519
0.00498848841439
0.00498848817154
0.00498848794563
0.00498848773574
0.00498848754097
0.0049884873605
0.00498848719355
0.00498848703939
0.00498848689735
0.00498848676682
0.00498848664721
0.004988486538
0.00498848643871
0.00498848634892
0.00498848626821
0.00498848619624
0.00498848613268
0.00498848607722
0.00498848602958
0.00498848598947
0.00498848595658
0.00498848593058
0.00498848591105
0.00498848589744
0.00498848588903
0.00498848588481
0.00498848588337
0.00498848588263
0.00498848588059
0.00498848587733
0.00498848587551
0.0049887103373
0.00498871031894
0.00498871029937
0.00498871026113
0.0049887102044
0.00498871012874
0.00498871003434
0.00498870992068
0.00498870978792
0.00498870963538
0.00498870946322
0.00498870927066
0.0049887090578
0.00498870882378
0.00498870856873
0.00498870829176
0.00498870799301
0.00498870767162
0.00498870732778
0.00498870696067
0.00498870657055
0.00498870615662
0.0049887057192
0.00498870525756
0.00498870477204
0.00498870426195
0.00498870372765
0.00498870316847
0.00498870258477
0.00498870197588
0.00498870134212
0.00498870068283
0.00498869999825
0.00498869928769
0.00498869855134
0.00498869778847
0.0049886969992
0.00498869618277
0.00498869533923
0.0049886944678
0.00498869356851
0.00498869264058
0.00498869168405
0.0049886906982
0.00498868968309
0.00498868863812
0.00498868756345
0.00498868645865
0.00498868532402
0.00498868415934
0.00498868296514
0.00498868174148
0.00498868048913
0.00498867920848
0.00498867790062
0.00498867656629
0.00498867520692
0.00498867382366
0.00498867241832
0.00498867099245
0.00498866954937
0.00498866809171
0.00498866662126
0.00498866514023
0.00498866365133
0.00498866215715
0.00498866066071
0.00498865916483
0.00498865767269
0.00498865618724
0.00498865471168
0.00498865324895
0.00498865180218
0.00498865037418
0.0049886489679
0.00498864758594
0.00498864623095
0.00498864490524
0.00498864361109
0.00498864235042
0.0049886411251
0.00498863993661
0.00498863878636
0.00498863767537
0.00498863660458
0.00498863557453
0.0049886345857
0.00498863363821
0.00498863273208
0.00498863186705
0.00498863104275
0.00498863025857
0.00498862951381
0.00498862880759
0.00498862813896
0.00498862750682
0.00498862691002
0.00498862634732
0.00498862581747
0.00498862531912
0.00498862485096
0.00498862441161
0.00498862399976
0.00498862361404
0.00498862325315
0.0049886229158
0.00498862260074
0.00498862230675
0.00498862203268
0.00498862177739
0.00498862153983
0.00498862131898
0.00498862111389
0.00498862092366
0.00498862074744
0.00498862058445
0.00498862043396
0.0049886202953
0.00498862016783
0.00498862005099
0.00498861994426
0.00498861984716
0.00498861975927
0.00498861968019
0.00498861960959
0.00498861954714
0.00498861949256
0.00498861944557
0.00498861940592
0.00498861937333
0.00498861934749
0.00498861932801
0.00498861931441
0.00498861930599
0.00498861930177
0.0049886193003
0.00498861929928
0.00498861929655
0.00498861929273
0.00498861929069
0.00498884438126
0.0049888443639
0.00498884434635
0.00498884431051
0.00498884425656
0.00498884418411
0.00498884409337
0.00498884398379
0.00498884385558
0.00498884370809
0.00498884354147
0.00498884335493
0.00498884314859
0.00498884292159
0.00498884267402
0.00498884240497
0.00498884211456
0.00498884180187
0.00498884146704
0.00498884110918
0.00498884072848
0.00498884032406
0.00498883989615
0.00498883944392
0.00498883896762
0.00498883846644
0.00498883794064
0.00498883738945
0.00498883681309
0.00498883621082
0.00498883558285
0.00498883492839
0.00498883424763
0.00498883353979
0.00498883280498
0.00498883204241
0.00498883125214
0.00498883043338
0.00498882958615
0.00498882870965
0.0049888278039
0.00498882686815
0.00498882590241
0.004988824906
0.00498882387901
0.00498882282087
0.00498882173176
0.0049888206113
0.00498881945982
0.00498881827714
0.00498881706381
0.00498881581994
0.00498881454634
0.00498881324343
0.00498881191233
0.00498881055384
0.00498880916942
0.00498880776028
0.00498880632825
0.00498880487545
0.00498880340522
0.00498880191969
0.00498880042092
0.00498879891126
0.00498879739357
0.00498879587052
0.00498879434524
0.00498879282064
0.00498879130001
0.00498878978639
0.00498878828313
0.00498878679326
0.00498878532006
0.00498878386646
0.00498878243552
0.00498878102998
0.0049887796526
0.00498877830577
0.0049887769919
0.00498877571295
0.00498877447089
0.00498877326722
0.0049887721034
0.00498877098047
0.00498876989936
0.00498876886062
0.00498876786469
0.00498876691164
0.00498876600145
0.00498876513378
0.00498876430818
0.00498876352397
0.00498876278035
0.00498876207634
0.00498876141088
0.00498876078277
0.00498876019076
0.0049887596335
0.00498875910963
0.00498875861771
0.00498875815633
0.00498875772403
0.00498875731939
0.00498875694099
0.00498875658745
0.0049887562574
0.00498875594955
0.00498875566261
0.0049887553954
0.00498875514674
0.00498875491554
0.00498875470076
0.00498875450143
0.00498875431662
0.00498875414548
0.00498875398721
0.00498875384109
0.00498875370642
0.0049887535826
0.00498875346904
0.00498875336525
0.00498875327073
0.00498875318509
0.00498875310795
0.00498875303897
0.00498875297784
0.00498875292431
0.00498875287812
0.00498875283904
0.00498875280683
0.00498875278122
0.00498875276186
0.00498875274832
0.00498875273994
0.00498875273576
0.00498875273422
0.00498875273277
0.00498875272926
0.00498875272486
0.00498875272255
0.00498897862249
0.00498897860616
0.00498897859062
0.00498897855742
0.00498897850677
0.00498897843822
0.00498897835197
0.00498897824748
0.00498897812492
0.00498897798358
0.00498897782361
0.00498897764419
0.00498897744539
0.00498897722629
0.00498897698694
0.00498897672636
0.0049889764446
0.00498897614066
0.00498897581461
0.00498897546546
0.00498897509331
0.00498897469719
0.00498897427723
0.00498897383249
0.00498897336313
0.00498897286825
0.00498897234802
0.00498897180156
0.00498897122905
0.00498897062964
0.00498897000349
0.00498896934977
0.00498896866861
0.0049889679592
0.00498896722162
0.00498896645507
0.00498896565962
0.00498896483446
0.00498896397962
0.00498896309432
0.0049889621786
0.00498896123171
0.0049889602537
0.0049889592439
0.00498895820241
0.00498895712867
0.00498895602288
0.00498895488465
0.00498895371432
0.00498895251172
0.00498895127738
0.00498895001141
0.0049889487146
0.00498894738739
0.00498894603088
0.00498894464589
0.00498894323389
0.00498894179611
0.00498894033438
0.00498893885159
0.00498893735072
0.00498893583351
0.00498893430255
0.00498893276025
0.0049889312096
0.00498892965337
0.0049889280948
0.00498892653693
0.00498892498319
0.00498892343676
0.00498892190113
0.00498892037949
0.00498891887526
0.00498891739155
0.00498891593156
0.00498891449817
0.00498891309429
0.00498891172244
0.00498891038513
0.00498890908444
0.0049889078224
0.0049889066006
0.00498890542054
0.00498890428328
0.00498890318977
0.00498890214054
0.00498890113601
0.00498890017621
0.00498889926105
0.00498889839011
0.00498889756286
0.0049888967785
0.00498889603614
0.00498889533467
0.00498889467291
0.00498889404952
0.00498889346314
0.00498889291228
0.00498889239546
0.00498889191112
0.00498889145773
0.00498889103373
0.00498889063759
0.00498889026779
0.00498888992287
0.00498888960139
0.00498888930198
0.0049888890233
0.00498888876411
0.00498888852318
0.00498888829939
0.00498888809166
0.004988887899
0.00498888772047
0.0049888875552
0.00498888740238
0.00498888726129
0.00498888713122
0.00498888701157
0.00498888690178
0.00498888680133
0.00498888670978
0.0049888866267
0.00498888655175
0.00498888648461
0.00498888642499
0.00498888637266
0.00498888632738
0.00498888628897
0.0049888862572
0.00498888623186
0.00498888621265
0.00498888619919
0.00498888619087
0.0049888861867
0.00498888618503
0.00498888618292
0.00498888617858
0.00498888617362
0.00498888617103
0.00498911306783
0.00498911305255
0.00498911303909
0.00498911300883
0.00498911296193
0.00498911289794
0.00498911281701
0.0049891127185
0.00498911260256
0.00498911246842
0.00498911231613
0.00498911214479
0.0049891119544
0.00498911174393
0.00498911151334
0.00498911126155
0.00498911098852
0.00498911069312
0.00498911037533
0.00498911003405
0.00498910966926
0.00498910927992
0.00498910886604
0.00498910842661
0.0049891079617
0.00498910747033
0.0049891069526
0.00498910640761
0.00498910583547
0.00498910523531
0.00498910460727
0.00498910395052
0.00498910326518
0.00498910255045
0.00498910180643
0.00498910103234
0.00498910022826
0.00498909939342
0.00498909852787
0.00498909763085
0.00498909670242
0.00498909574185
0.00498909474919
0.00498909372377
0.00498909266569
0.00498909157439
0.00498909045003
0.0049890892922
0.00498908810121
0.00498908687685
0.00498908561962
0.00498908432959
0.00498908300751
0.00498908165378
0.00498908026949
0.00498907885543
0.00498907741308
0.00498907594369
0.00498907444916
0.00498907293259
0.00498907139716
0.00498906984451
0.00498906827735
0.00498906669825
0.00498906511027
0.00498906351633
0.00498906191981
0.0049890603239
0.00498905873218
0.004989057148
0.00498905557503
0.00498905401666
0.00498905247648
0.00498905095778
0.00498904946397
0.00498904799809
0.00498904656321
0.00498904516202
0.00498904379715
0.00498904247083
0.00498904118517
0.00498903994187
0.00498903874247
0.00498903758809
0.00498903647969
0.00498903541781
0.00498903440283
0.00498903343474
0.00498903251339
0.00498903163828
0.00498903080876
0.00498903002393
0.00498902928276
0.00498902858399
0.00498902792632
0.00498902730824
0.00498902672824
0.00498902618469
0.00498902567594
0.00498902520029
0.00498902475608
0.0049890243416
0.00498902395523
0.00498902359531
0.00498902326029
0.00498902294864
0.00498902265889
0.00498902238965
0.00498902213961
0.00498902190748
0.00498902169212
0.0049890214924
0.00498902130731
0.00498902113587
0.00498902097722
0.00498902083054
0.00498902069508
0.00498902057017
0.0049890204552
0.0049890203496
0.00498902025288
0.00498902016461
0.00498902008438
0.00498902001185
0.00498901994674
0.00498901988878
0.00498901983775
0.00498901979347
0.00498901975577
0.00498901972447
0.00498901969941
0.00498901968036
0.00498901966696
0.00498901965866
0.00498901965448
0.00498901965254
0.00498901964961
0.00498901964439
0.00498901963888
0.00498901963598
0.00498924771953
0.00498924770538
0.00498924769413
0.00498924766716
0.0049892476246
0.00498924756591
0.00498924749117
0.00498924739969
0.00498924729148
0.00498924716565
0.00498924702217
0.00498924685998
0.00498924667897
0.00498924647797
0.0049892462568
0.00498924601424
0.00498924575009
0.00498924546313
0.00498924515318
0.00498924481903
0.00498924446055
0.00498924407659
0.00498924366708
0.00498924323093
0.00498924276815
0.00498924227772
0.00498924175971
0.0049892412132
0.0049892406383
0.00498924003416
0.00498923940093
0.00498923873782
0.00498923804497
0.00498923732165
0.004989236568
0.00498923578327
0.0049892349676
0.00498923412026
0.00498923324132
0.00498923233008
0.00498923138657
0.00498923041011
0.00498922940072
0.00498922835773
0.00498922728121
0.00498922617056
0.00498922502591
0.00498922384678
0.00498922263344
0.0049892213856
0.0049892201037
0.00498921878773
0.00498921743838
0.004989216056
0.00498921464159
0.00498921319593
0.00498921172044
0.0049892102164
0.00498920868576
0.00498920713183
0.0049892055581
0.00498920396609
0.00498920235864
0.00498920073841
0.0049891991086
0.00498919747228
0.00498919583297
0.00498919419406
0.0049891925593
0.00498919093228
0.00498918931685
0.00498918771663
0.00498918613542
0.00498918457673
0.00498918304416
0.00498918154095
0.00498918007036
0.00498917863524
0.00498917723838
0.00498917588215
0.00498917456879
0.0049891733001
0.00498917207772
0.00498917090282
0.00498916977641
0.00498916869905
0.00498916767112
0.00498916669258
0.00498916576321
0.00498916488243
0.00498916404951
0.0049891632634
0.00498916252293
0.00498916182669
0.00498916117319
0.00498916056076
0.0049891599877
0.00498915945219
0.0049891589524
0.00498915848647
0.00498915805255
0.00498915764879
0.0049891572734
0.00498915692461
0.00498915660074
0.00498915630014
0.00498915602126
0.00498915576262
0.00498915552283
0.00498915530057
0.00498915509461
0.00498915490382
0.00498915472713
0.00498915456357
0.00498915441224
0.00498915427233
0.00498915414308
0.00498915402383
0.00498915391397
0.00498915381294
0.00498915372029
0.00498915363556
0.00498915355841
0.00498915348849
0.00498915342555
0.00498915336935
0.00498915331971
0.00498915327646
0.00498915323948
0.00498915320866
0.00498915318386
0.0049891531649
0.00498915315152
0.00498915314318
0.00498915313888
0.00498915313651
0.00498915313267
0.0049891531265
0.00498915312046
0.00498915311723
0.00498938257628
0.0049893825634
0.00498938255468
0.00498938253156
0.0049893824941
0.00498938244172
0.00498938237438
0.00498938229123
0.00498938219217
0.00498938207618
0.00498938194301
0.00498938179147
0.00498938162123
0.00498938143096
0.00498938122028
0.00498938098781
0.00498938073316
0.00498938045494
0.00498938015284
0.00498937982549
0.00498937947265
0.00498937909308
0.0049893786866
0.0049893782521
0.00498937778951
0.00498937729783
0.00498937677712
0.00498937622647
0.00498937564604
0.00498937503503
0.00498937439364
0.00498937372116
0.00498937301782
0.00498937228294
0.00498937151674
0.00498937071857
0.00498936988861
0.00498936902619
0.00498936813145
0.00498936720368
0.00498936624297
0.0049893652486
0.00498936422062
0.00498936315831
0.0049893620617
0.00498936093015
0.0049893597637
0.00498935856182
0.00498935732466
0.00498935605186
0.00498935474376
0.00498935340026
0.00498935202193
0.00498935060901
0.00498934916243
0.00498934768284
0.0049893461716
0.00498934462988
0.00498934306016
0.0049893414656
0.00498933984963
0.00498933821422
0.00498933656225
0.00498933489652
0.00498933322039
0.00498933153711
0.00498932985041
0.0049893281639
0.00498932648159
0.00498932480727
0.00498932314504
0.00498932149871
0.00498931987231
0.00498931826951
0.00498931669409
0.00498931514945
0.00498931363898
0.0049893121657
0.00498931073252
0.00498930934196
0.0049893079964
0.00498930669775
0.00498930544778
0.00498930424781
0.00498930309892
0.00498930200176
0.00498930095678
0.00498929996397
0.00498929902311
0.00498929813359
0.00498929729461
0.00498929650501
0.0049892957635
0.00498929506849
0.0049892944183
0.00498929381106
0.00498929324484
0.00498929271758
0.00498929222724
0.00498929177172
0.00498929134896
0.00498929095691
0.0049892905936
0.00498929025709
0.00498928994553
0.00498928965715
0.00498928939029
0.00498928914336
0.00498928891489
0.00498928870349
0.00498928850788
0.00498928832687
0.00498928815939
0.00498928800442
0.00498928786106
0.00498928772848
0.00498928760595
0.00498928749279
0.00498928738842
0.00498928729229
0.00498928720395
0.004989287123
0.00498928704908
0.0049892869819
0.00498928692122
0.00498928686684
0.00498928681861
0.00498928677639
0.00498928674012
0.00498928670971
0.0049892866851
0.00498928666618
0.00498928665272
0.00498928664425
0.0049892866397
0.00498928663674
0.00498928663184
0.00498928662469
0.00498928661814
0.00498928661455
0.00498951763399
0.00498951762264
0.00498951761695
0.00498951759851
0.00498951756735
0.00498951752271
0.00498951746442
0.00498951739152
0.00498951730368
0.00498951719965
0.004989517079
0.00498951694029
0.00498951678295
0.00498951660541
0.00498951640705
0.00498951618624
0.00498951594241
0.00498951567395
0.00498951538035
0.0049895150601
0.00498951471284
0.00498951433721
0.00498951393296
0.00498951349893
0.00498951303505
0.00498951254032
0.00498951201483
0.00498951145775
0.0049895108693
0.00498951024878
0.00498950959651
0.00498950891186
0.0049895081952
0.00498950744597
0.00498950666449
0.00498950585022
0.00498950500342
0.00498950412351
0.00498950321067
0.00498950226426
0.00498950128438
0.00498950027032
0.0049894992221
0.00498949813898
0.00498949702091
0.00498949586719
0.00498949467778
0.00498949345204
0.00498949219
0.00498949089119
0.00498948955579
0.00498948818358
0.00498948677499
0.00498948533011
0.00498948384969
0.00498948233425
0.00498948078496
0.00498947920287
0.00498947759075
0.00498947595188
0.00498947428989
0.00498947260722
0.00498947090697
0.00498946919217
0.00498946746646
0.0049894657334
0.00498946399702
0.00498946226119
0.00498946053013
0.00498945880781
0.00498945709841
0.00498945540583
0.0049894537341
0.00498945208689
0.00498945046797
0.00498944888074
0.0049894473286
0.00498944581459
0.00498944434173
0.0049894429126
0.00498944152974
0.00498944019525
0.0049894389111
0.00498943767883
0.00498943649978
0.00498943537485
0.00498943430471
0.00498943328958
0.00498943232942
0.00498943142376
0.00498943057185
0.00498942977257
0.00498942902455
0.00498942832612
0.00498942767541
0.00498942707031
0.00498942650864
0.00498942598805
0.00498942550619
0.00498942506064
0.00498942464903
0.00498942426903
0.00498942391839
0.00498942359492
0.00498942329658
0.00498942302139
0.00498942276755
0.00498942253332
0.00498942231713
0.00498942211751
0.00498942193311
0.00498942176269
0.00498942160512
0.00498942145938
0.00498942132456
0.00498942119982
0.00498942108443
0.00498942097773
0.00498942087913
0.00498942078814
0.00498942070431
0.00498942062726
0.00498942055668
0.0049894204923
0.00498942043392
0.00498942038135
0.00498942033449
0.00498942029326
0.00498942025761
0.00498942022754
0.00498942020302
0.00498942018402
0.00498942017037
0.00498942016163
0.00498942015668
0.00498942015295
0.00498942014686
0.00498942013868
0.0049894201316
0.00498942012764
0.0049896528861
0.00498965287668
0.00498965287484
0.00498965286238
0.00498965283915
0.00498965280433
0.00498965275756
0.00498965269759
0.00498965262389
0.00498965253496
0.00498965243003
0.00498965230737
0.0049896521661
0.00498965200433
0.00498965182114
0.00498965161461
0.00498965138388
0.0049896511271
0.00498965084353
0.00498965053151
0.00498965019048
0.004989649819
0.00498964941675
0.00498964898254
0.00498964851631
0.00498964801709
0.00498964748506
0.00498964691949
0.00498964632073
0.00498964568821
0.00498964502242
0.0049896443229
0.00498964359017
0.00498964282383
0.00498964202438
0.00498964119139
0.00498964032527
0.00498963942554
0.00498963849246
0.00498963752545
0.00498963652463
0.00498963548932
0.00498963441949