/*--------------------------------*- C++ -*----------------------------------*\
| =========                 |                                                 |
| \\      /  F ield         | OpenFOAM: The Open Source CFD Toolbox           |
|  \\    /   O peration     | Version:  2206                                  |
|   \\  /    A nd           | Website:  www.openfoam.com                      |
|    \\/     M anipulation  |                                                 |
\*---------------------------------------------------------------------------*/
FoamFile
{
    version     2.0;
    format      ascii;
    arch        "LSB;label=64;scalar=64";
    class       volScalarField;
    location    "1/water";
    object      epsilon.gas;
}
// * * * * * * * * * * * * * * * * * * * * * * * * * * * * * * * * * * * * * //

dimensions      [0 2 -3 0 0 0 0];

internalField   nonuniform List<scalar> 
23300
(
4.17312735569e-05
6.70587923077e-05
0.000110194160846
0.00016685759303
0.00023612906568
0.000318080009068
0.00041307380653
0.000521626527548
0.000644409772141
0.000782190130311
0.000935856988845
0.00110635044613
0.00129470439645
0.00150196155991
0.00172922659024
0.0019775672144
0.00224807534437
0.00254175401629
0.00285958752107
0.00320241439269
0.00357100924808
0.00396594287085
0.00438767894499
0.0048364230323
0.005312237105
0.00581487954389
0.00634393951166
0.00689867019237
0.0074781438704
0.0080810804533
0.00870602292017
0.00935116283258
0.0100145345385
0.0106938389351
0.0113866535882
0.0120902556437
0.0128018440238
0.0135183621707
0.0142367279654
0.0149536570726
0.0156658961146
0.0163700478545
0.0170628032061
0.0177407699797
0.0184006994561
0.0190393206169
0.0196535569665
0.0202403681006
0.0207969520421
0.0213205960346
0.0218088593383
0.0222594344612
0.0226703058406
0.0230396212725
0.0233658218676
0.023647520523
0.0238835960585
0.0240730685914
0.0242151403919
0.0243090385912
0.0243539518372
0.0243487567116
0.0242917361842
0.0241800122873
0.0240084787232
0.0237819344197
0.0235120635397
0.0232030517298
0.0228577758479
0.0224788774228
0.0220690059765
0.0216308704834
0.0211672178129
0.0206808194439
0.0201744285348
0.019650771314
0.019112505328
0.0185622200663
0.0180023989703
0.0174354279882
0.0168635618227
0.0162889387381
0.0157135509938
0.0151392644128
0.0145677927007
0.0140007204452
0.0134394808848
0.0128853811544
0.0123395830405
0.0118031294515
0.011276927697
0.0107617763249
0.0102583505089
0.00976722857256
0.00928887911366
0.00882368667663
0.00837194032862
0.00793385806541
0.00750957662836
0.0070991743274
0.00670266195636
0.00632000382156
0.00595110965264
0.00559585370106
0.00525406758965
0.00492555741432
0.00461009750153
0.00430744549985
0.00401733703288
0.00373949882358
0.00347364423243
0.00321948450573
0.00297672519248
0.00274507564959
0.00252424633921
0.00231395676439
0.00211393366043
0.00192391759109
0.00174366206441
0.00157293908814
0.00141153927381
0.0012592767189
0.00111599018124
0.000981547655384
0.000855848581552
0.000738828206175
0.000630460200316
0.000530759844807
0.000439784809647
0.000357634053707
0.000284443192014
0.000220382017874
0.000165692336342
0.000120922970033
8.70318147314e-05
6.24593674948e-05
4.42759755328e-05
3.10319307876e-05
2.30563096484e-05
2.20883810942e-05
2.60795820078e-05
3.66966523443e-05
5.44396738825e-05
7.80860789204e-05
0.000107454503055
0.000142699702673
0.000184084991925
0.000231910915961
0.000286497639167
0.000348169904314
0.000417257136138
0.000494080296605
0.000578953453098
0.00067216695752
0.000773988307276
0.000884641245734
0.00100430613542
0.00113309591767
0.00127105730373
0.00141814517876
0.00157422645589
0.00173905477907
0.00191227891346
0.00209341948532
0.00228188338053
0.00247694383735
0.00267776169769
0.00288336965531
0.00309270049556
0.00330457568485
0.0035177399275
0.00373085358618
0.00394253203359
0.00415134069207
0.004355836965
0.00455456627538
0.00474610409608
0.0049290514051
0.00510207459793
0.00526389928631
0.00541334652105
0.0055493245179
0.00567086029206
0.00577708940143
0.00586728253841
0.0059408335672
0.00599728085813
0.00603629398292
0.00605768986085
0.00606141870068
0.00604757557088
0.00601638669941
0.00596821792297
0.00590356325965
0.00582305283631
0.00572744689188
0.00561764763575
0.00549470434761
0.0053598372985
0.00521446432938
0.00506025183221
0.00489918605957
0.00473369488351
0.00456685701263
0.00440290825089
0.0042437085481
0.00408526854091
0.00392829093763
0.0037736014313
0.00362182393413
0.00347341311236
0.00332869946431
0.00318791850744
0.00305123137445
0.00291873852638
0.00279049197054
0.00266650338626
0.00254675277598
0.00243119365508
0.00231975958289
0.00221236745821
0.002108922581
0.00200932062328
0.00191345160247
0.00182120089925
0.00173245240146
0.00164708883342
0.00156499425886
0.00148605391833
0.00141015623394
0.0013371923032
0.00126705751415
0.00119965080856
0.00113487599046
0.00107264084464
0.00101285820123
0.000955444974748
0.000900323032093
0.000847418201836
0.000796660980641
0.000747985550139
0.000701330348286
0.000656637121705
0.000613851381591
0.000572921511844
0.000533799124871
0.000496438239805
0.00046079555037
0.000426829682493
0.000394501384994
0.000363772871907
0.000334607946065
0.000306971428242
0.000280829224173
0.000256147840362
0.000232894406005
0.000211036273819
0.000190541009834
0.000171376076611
0.000153508804681
0.000136906153814
0.000121534677937
0.000107360354487
9.43485454155e-05
8.24638701263e-05
7.16701445593e-05
6.19302501002e-05
5.3206014435e-05
4.54580444909e-05
3.86456182222e-05
3.27267951798e-05
2.76593072157e-05
2.34036669057e-05
1.99325627954e-05
1.72561558123e-05
1.54859346035e-05
1.51238040183e-05
1.81016404572e-05
2.80385010319e-05
5.72778717629e-05
1.89903176024e-05
2.43895776333e-05
3.28397339027e-05
4.38647881948e-05
5.7459760708e-05
7.37572169865e-05
9.29393237182e-05
0.000115205036532
0.000140756079488
0.000169784813455
0.000202468134278
0.000238957521352
0.000279374571183
0.000323800889099
0.000372274309295
0.000424778496405
0.000481240202424
0.000541519286508
0.000605407969751
0.000672622388087
0.000742804991048
0.000815518728683
0.000890253532842
0.000966423921958
0.00104338005914
0.00112040911144
0.00119675085224
0.0012716025968
0.00134413869665
0.00141351826812
0.00147890725297
0.00153948754857
0.00159447973691
0.00164315184761
0.00168484067187
0.00171895847288
0.00174501112225
0.00176260160812
0.00177144390991
0.00177136283863
0.00176230321382
0.00174432605641
0.00171761302059
0.00168245916753
0.00163927281105
0.00158856524711
0.00153094644572
0.0014671123807
0.00139783739336
0.00132396009965
0.00124637361248
0.00116601123645
0.00108383596992
0.00100082735739
0.000917971877354
0.00083625241383
0.000756641133923
0.00068009308531
0.000607544107909
0.000539913211409
0.000478112022871
0.000423053088134
0.00037563290591
0.000336688373202
0.000308077052216
0.000284579212795
0.00026307692147
0.000243343749219
0.000225253484431
0.000208681927159
0.000193506891664
0.000179611020452
0.000166883390683
0.000155220394142
0.000144526004687
0.000134711834582
0.000125696873406
0.000117407217312
0.000109775605287
0.000102741035072
9.62482463901e-05
9.0247323013e-05
8.46931926706e-05
7.95452598398e-05
7.47669522113e-05
7.03254012022e-05
6.61910446432e-05
6.23373583e-05
5.87405145679e-05
5.53791618405e-05
5.2234134483e-05
4.92882742371e-05
4.65261851328e-05
4.39340904341e-05
4.1499625944e-05
3.92117262736e-05
3.70604505258e-05
3.50368923922e-05
3.31330329858e-05
3.13416701311e-05
2.96562940064e-05
2.80710318665e-05
2.65805429733e-05
2.51799757832e-05
2.38648793882e-05
2.26311708857e-05
2.14750611447e-05
2.03930306268e-05
1.93817677652e-05
1.84381519269e-05
1.75592030108e-05
1.67420705246e-05
1.59839932103e-05
1.52822933601e-05
1.463434533e-05
1.40375742119e-05
1.34894319859e-05
1.29873994465e-05
1.25289683867e-05
1.21116451865e-05
1.17329368609e-05
1.13903542252e-05
1.10813996803e-05
1.08035694514e-05
1.05543463277e-05
1.0331214335e-05
1.01316920252e-05
9.95344521413e-06
9.79455421857e-06
9.6541545336e-06
9.5338925464e-06
9.44125596364e-06
9.39730750559e-06
9.45548293277e-06
9.75103189804e-06
1.06497143259e-05
1.33323104404e-05
2.20727789373e-05
4.51321234767e-05
0.000103858797702
1.62352185321e-05
1.93574885365e-05
2.39828968293e-05
2.98665252997e-05
3.70106841084e-05
4.54739957128e-05
5.53339608631e-05
6.6672697663e-05
7.95698603873e-05
9.40953763364e-05
0.000110304777961
0.000128232575611
0.000147888233013
0.000169249775324
0.000192260656026
0.000216824182667
0.000242802044273
0.000270010462451
0.000298221288995
0.000327160731426
0.000356513699692
0.000385925592683
0.000415010106269
0.000443354071922
0.000470528404463
0.000496095466663
0.000519622288445
0.000540689406201
0.000558904948481
0.000573913427601
0.000585408890468
0.000593141909117
0.000596929957905
0.000596661057825
0.000592299993739
0.000583887726193
0.00057154287412
0.000555456856063
0.000535890892409
0.000513167528409
0.00048766397647
0.000459801054587
0.000430033978764
0.000398839922042
0.000366707524482
0.000334124370202
0.000301566567822
0.000269487441465
0.000238308476638
0.000208410352594
0.000180126317876
0.000153736399366
0.000129463967077
0.000107473643133
8.78714888799e-05
7.0706794963e-05
5.5975984614e-05
4.36282022526e-05
3.35726517491e-05
2.56865219711e-05
1.98212392122e-05
1.58041929653e-05
1.34470695704e-05
1.25918411331e-05
1.21670574584e-05
1.1829829157e-05
1.15523024778e-05
1.13243926139e-05
1.11382710554e-05
1.09872465222e-05
1.08655604025e-05
1.07682549237e-05
1.06910579627e-05
1.06302916026e-05
1.05827881216e-05
1.0545826568e-05
1.05170710232e-05
1.04945271294e-05
1.04764956891e-05
1.04615429543e-05
1.04484643767e-05
1.04362641427e-05
1.04241254224e-05
1.04113960632e-05
1.03975629569e-05
1.03822419443e-05
1.03651548973e-05
1.03461227236e-05
1.03250444355e-05
1.03018926901e-05
1.02766945325e-05
1.02495292112e-05
1.02205104879e-05
1.01897865979e-05
1.01575240858e-05
1.01239097964e-05
1.0089136179e-05
1.00534051537e-05
1.00169147796e-05
9.97986478189e-06
9.94244442963e-06
9.90483945559e-06
9.8672209618e-06
9.82975343065e-06
9.79258446706e-06
9.75585359019e-06
9.71968263536e-06
9.68418502016e-06
9.64945665371e-06
9.6155853815e-06
9.58264227361e-06
9.55069095289e-06
9.51977913529e-06
9.48994751554e-06
9.46122138756e-06
9.43361866945e-06
9.40714130471e-06
9.38178183371e-06
9.35751408126e-06
9.33429752738e-06
9.31206683573e-06
9.29073393195e-06
9.27017800655e-06
9.25025054221e-06
9.2307797047e-06
9.21161073821e-06
9.19269698795e-06
9.17433255796e-06
9.1576677596e-06
9.14586487553e-06
9.14664503024e-06
9.17800922764e-06
9.2814748856e-06
9.55448786205e-06
1.02373161097e-05
1.19826720368e-05
1.69293091846e-05
3.2669554391e-05
6.98022899495e-05
0.00015707384805
1.4965697014e-05
1.6881395089e-05
1.96079257166e-05
2.30047033214e-05
2.70683486838e-05
3.18172610065e-05
3.72736635608e-05
4.34570680578e-05
5.03810686296e-05
5.80496495778e-05
6.64549563603e-05
7.55739623166e-05
8.53667582959e-05
9.57737218079e-05
0.000106714692256
0.000118087170853
0.000129766977506
0.000141608068412
0.000153445169815
0.000165095566306
0.000176363847012
0.000187045594035
0.000196933918475
0.000205824537926
0.000213523356146
0.000219852042226
0.000224655568475
0.000227807137691
0.000229214411263
0.000228822578544
0.000226618107312
0.000222629026241
0.000216925485061
0.000209616922882
0.0002008494341
0.000190800223647
0.000179672468459
0.000167688027985
0.000155080916641
0.000142089475811
0.000128949667451
0.00011588786389
0.000103115044953
9.08211571477e-05
7.91710579172e-05
6.83011043134e-05
5.83173557065e-05
4.92946570085e-05
4.12771572877e-05
3.42796409387e-05
2.82898743113e-05
2.32714214234e-05
1.91669462259e-05
1.59016664642e-05
1.33870855607e-05
1.1524990558e-05
1.02118805348e-05
9.34368239174e-06
8.82048931584e-06
8.55086207827e-06
8.45544593768e-06
8.47022612262e-06
8.54438326464e-06
8.62908818495e-06
8.71738191543e-06
8.80787873107e-06
8.89972257768e-06
8.99210850289e-06
9.08427382821e-06
9.17549760232e-06
9.26509704292e-06
9.352429779e-06
9.43689314741e-06
9.51793060516e-06
9.595032319e-06
9.66774326918e-06
9.73566309584e-06
9.79845413366e-06
9.85583923011e-06
9.90760861398e-06
9.95361498228e-06
9.99377865371e-06
1.00280797406e-05
1.00565615523e-05
1.00793201472e-05
1.00965063875e-05
1.01083135173e-05
1.01149785308e-05
1.01167685726e-05
1.01139823318e-05
1.01069360142e-05
1.00959653665e-05
1.00814118123e-05
1.00636255312e-05
1.00429521632e-05
1.00197371808e-05
9.99431339544e-06
9.96700669846e-06
9.93812445901e-06
9.9079625717e-06
9.87679472393e-06
9.84488058291e-06
9.81245583192e-06
9.77974125804e-06
9.74693341947e-06
9.71421435987e-06
9.68174276371e-06
9.64966401583e-06
9.61810171937e-06
9.58716782573e-06
9.55695441091e-06
9.5275436038e-06
9.49899952355e-06
9.4713777137e-06
9.44471711381e-06
9.41904864675e-06
9.39438702716e-06
9.37073807778e-06
9.34809016443e-06
9.32642000034e-06
9.30568416566e-06
9.28582496784e-06
9.26676675198e-06
9.24843286697e-06
9.2307717949e-06
9.21383927097e-06
9.1979692606e-06
9.18416445169e-06
9.17492806173e-06
9.17607186981e-06
9.20064839197e-06
9.27774014861e-06
9.47288151898e-06
9.93870243056e-06
1.10538995021e-05
1.38705551929e-05
2.19551963273e-05
4.72161908015e-05
9.97216191966e-05
0.000216483039612
1.42993339668e-05
1.55096568691e-05
1.71817058741e-05
1.92303415305e-05
2.16489069609e-05
2.44377651951e-05
2.75954608017e-05
3.11156059484e-05
3.49856649903e-05
3.91852793715e-05
4.3685669395e-05
4.84483995248e-05
5.34252801064e-05
5.85576869931e-05
6.37772061069e-05
6.90057828252e-05
7.41573605868e-05
7.91390588989e-05
8.38538862789e-05
8.82028949119e-05
9.20887522551e-05
9.54185240844e-05
9.81076165983e-05
0.000100082619231
0.000101284958415
0.000101673122503
0.000101225319282
9.99404325873e-05
9.78390889191e-05
9.49629055679e-05
9.13736817447e-05
8.71508906644e-05
8.23891648289e-05
7.71944490937e-05
7.16803877211e-05
6.59639060567e-05
6.01613485375e-05
5.43843545872e-05
4.87365668661e-05
4.33105107818e-05
3.81854499358e-05
3.34256666206e-05
2.90796966334e-05
2.51800460882e-05
2.17436896226e-05
1.87729529084e-05
1.62569350817e-05
1.41731819524e-05
1.24897133746e-05
1.11672170802e-05
1.01614536402e-05
9.42568754645e-06
8.9130830394e-06
8.57885559351e-06
8.38208576002e-06
8.28704569215e-06
8.26400719333e-06
8.28948928112e-06
8.34601106279e-06
8.42142787724e-06
8.50801355863e-06
8.60033437614e-06
8.69576539522e-06
8.79356405912e-06
8.89303748954e-06
8.99348067601e-06
9.09417052504e-06
9.1943834129e-06
9.29340727108e-06
9.39055119831e-06
9.48514933768e-06
9.57656841698e-06
9.66421026799e-06
9.74752059552e-06
9.82599132315e-06
9.89917067018e-06
9.96666489808e-06
1.00281486026e-05
1.00833644472e-05
1.01321318671e-05
1.01743430841e-05
1.0209968673e-05
1.02390489448e-05
1.02616960563e-05
1.0278081283e-05
1.02884347564e-05
1.02930302696e-05
1.02921844142e-05
1.02862407455e-05
1.02755698291e-05
1.02605539929e-05
1.02415890277e-05
1.0219069977e-05
1.0193394575e-05
1.01649500491e-05
1.01341181035e-05
1.01012626063e-05
1.00667359351e-05
1.00308674911e-05
9.99397128733e-06
9.95633527628e-06
9.9182300524e-06
9.879898945e-06
9.84156763553e-06
9.80343490247e-06
9.76568288191e-06
9.72846831352e-06
9.69193314189e-06
9.65619611664e-06
9.62136343751e-06
9.58752059023e-06
9.55474275583e-06
9.52308678808e-06
9.4926011113e-06
9.46331774603e-06
9.43526140553e-06
9.40844147424e-06
9.38286006068e-06
9.35850402721e-06
9.33535232187e-06
9.31336952826e-06
9.29251592612e-06
9.27275079227e-06
9.25406298137e-06
9.23652202633e-06
9.22040886177e-06
9.206480811e-06
9.19654963244e-06
9.19469293657e-06
9.20985340139e-06
9.26147192418e-06
9.39210108914e-06
9.6969615063e-06
1.03984287264e-05
1.20559955484e-05
1.62695078432e-05
2.86387612771e-05
6.60306288118e-05
0.000134625287059
0.000283559382308
1.3910605975e-05
1.46882636681e-05
1.57381358059e-05
1.70070643454e-05
1.84873077097e-05
2.01719052717e-05
2.20506278368e-05
2.41085787245e-05
2.63259851799e-05
2.86776175639e-05
3.1133056361e-05
3.36565204035e-05
3.62075507143e-05
3.87412829804e-05
4.12095976293e-05
4.35618864378e-05
4.57466890713e-05
4.7712909937e-05
4.94118160801e-05
5.07984965989e-05
5.18339314105e-05
5.24863545332e-05
5.27330175622e-05
5.25610871439e-05
5.19687425778e-05
5.09652977036e-05
4.95713720489e-05
4.78180681873e-05
4.57461387085e-05
4.34042682254e-05
4.0847404506e-05
3.8134443645e-05
3.53261269472e-05
3.24826097454e-05
2.96614390858e-05
2.69155075333e-05
2.42915591522e-05
2.18288769292e-05
1.95585563442e-05
1.75030372336e-05
1.56761552963e-05
1.40834350259e-05
1.27227893778e-05
1.1585403543e-05
1.0656901912e-05
9.9186115828e-06
9.34896049267e-06
8.92483760615e-06
8.62291062593e-06
8.42075337961e-06
8.29777801579e-06
8.23587696616e-06
8.21980578779e-06
8.23727776055e-06
8.27884325007e-06
8.33757429951e-06
8.40864612851e-06
8.48885335284e-06
8.57614816976e-06
8.66926188232e-06
8.76711410687e-06
8.86772291101e-06
8.97090951941e-06
9.07600551988e-06
9.18231513216e-06
9.28912753562e-06
9.39572448373e-06
9.50138988764e-06
9.6054142592e-06
9.70709774231e-06
9.80574728176e-06
9.90067800768e-06
9.99121132139e-06
1.00766832215e-05
1.01564509081e-05
1.0229912692e-05
1.02965236897e-05
1.03558230152e-05
1.04074501673e-05
1.04511682721e-05
1.04868694809e-05
1.05145841747e-05
1.05344689734e-05
1.05468000544e-05
1.05519468054e-05
1.05503561504e-05
1.05425213312e-05
1.05289673556e-05
1.05102241555e-05
1.04868200868e-05
1.04592635571e-05
1.04280456077e-05
1.03936286011e-05
1.03564546803e-05
1.03169375938e-05
1.02754730689e-05
1.02324305538e-05
1.01881631952e-05
1.01429983379e-05
1.00972467672e-05
1.0051192376e-05
1.00051013284e-05
9.95921174944e-06
9.9137434416e-06
9.86888814839e-06
9.82482000241e-06
9.78168646833e-06
9.73961931726e-06
9.69872609838e-06
9.65910127786e-06
9.62081803807e-06
9.58393922183e-06
9.54850930628e-06
9.51456484644e-06
9.48212653272e-06
9.45120889089e-06
9.4218124289e-06
9.39393254867e-06
9.36755222829e-06
9.34265110554e-06
9.31920131783e-06
9.2971823671e-06
9.27659241187e-06
9.25749450741e-06
9.24009654843e-06
9.22493845626e-06
9.21326700028e-06
9.20783443694e-06
9.214559804e-06
9.24607444892e-06
9.32941311825e-06
9.52332536714e-06
9.95929758053e-06
1.09469212808e-05
1.32800163793e-05
1.93038414853e-05
3.73960462202e-05
8.9393399953e-05
0.000173913979176
0.0003573423026
1.36582803586e-05
1.4164205881e-05
1.48348783262e-05
1.56364614398e-05
1.65613299453e-05
1.76001176128e-05
1.87402876737e-05
1.99656633924e-05
2.12567566806e-05
2.25907079049e-05
2.39419305636e-05
2.52823918519e-05
2.65825239823e-05
2.78117726477e-05
2.8939722226e-05
2.99368370722e-05
3.07757018508e-05
3.14318266614e-05
3.18848360452e-05
3.21191409081e-05
3.2124861094e-05
3.18981555407e-05
3.14416903591e-05
3.07644821827e-05
2.9881811448e-05
2.88145377706e-05
2.75884717703e-05
2.62332401543e-05
2.47812515121e-05
2.3266305414e-05
2.17223927405e-05
2.01823214107e-05
1.86766358609e-05
1.72325295415e-05
1.58731212945e-05
1.46168355062e-05
1.34771573424e-05
1.24625324294e-05
1.15765978759e-05
1.08185410215e-05
1.01837077283e-05
9.66427944929e-06
9.25009160257e-06
8.92943191806e-06
8.6898605495e-06
8.51891612108e-06
8.40474314252e-06
8.33654259281e-06
8.30489491389e-06
8.30190005777e-06
8.32120264119e-06
8.35788121794e-06
8.40827825264e-06
8.46976588818e-06
8.54051548529e-06
8.61926449314e-06
8.70512929875e-06
8.79745287975e-06
8.89572561122e-06
8.99955152092e-06
9.1072521211e-06
9.21786965159e-06
9.33106483273e-06
9.44628335262e-06
9.5630295612e-06
9.68086214557e-06
9.79938143061e-06
9.91819675328e-06
1.0036871272e-05
1.0154855113e-05
1.02714126238e-05
1.03855678927e-05
1.04960739147e-05
1.06014296443e-05
1.06999360786e-05
1.07898036611e-05
1.08692818216e-05
1.09368115595e-05
1.09911595335e-05
1.10315356643e-05
1.10576553406e-05
1.1069762583e-05
1.10685877499e-05
1.1055274318e-05
1.10312593648e-05
1.09981535433e-05
1.09576066219e-05
1.09112044807e-05
1.08603754235e-05
1.08063443309e-05
1.07501007978e-05
1.06924122002e-05
1.06338393757e-05
1.05747832563e-05
1.05155177667e-05
1.04562401137e-05
1.03970958261e-05
1.03382148178e-05
1.02797187674e-05
1.02217402991e-05
1.01644156549e-05
1.01078932329e-05
1.00523192697e-05
9.99784309694e-06
9.94460206372e-06
9.89272787942e-06
9.8423335526e-06
9.79352197566e-06
9.74637512881e-06
9.70096432715e-06
9.65734096203e-06
9.61554742813e-06
9.57560866999e-06
9.53754301556e-06
9.50135410744e-06
9.46704121552e-06
9.43459151441e-06
9.40398995416e-06
9.37521266616e-06
9.34823804291e-06
9.32304518996e-06
9.29963427916e-06
9.27804697398e-06
9.25843057527e-06
9.24115101792e-06
9.2270449502e-06
9.21792133942e-06
9.21761614176e-06
9.23417962733e-06
9.28453853746e-06
9.40464535719e-06
9.67249496236e-06
1.02634048764e-05
1.15951379294e-05
1.47636570883e-05
2.31200817025e-05
4.86635386085e-05
0.000117364736947
0.000216846295901
0.000436575433122
1.34744347294e-05
1.38078604681e-05
1.42436424161e-05
1.47599359926e-05
1.5349755257e-05
1.60034508212e-05
1.67087597108e-05
1.74508382019e-05
1.82128437682e-05
1.89761181292e-05
1.97209416847e-05
2.04269268942e-05
2.10739043467e-05
2.16424345626e-05
2.21147105933e-05
2.24750638986e-05
2.27107647932e-05
2.28123928958e-05
2.27744093117e-05
2.25952689049e-05
2.22776595509e-05
2.18282807717e-05
2.1257712971e-05
2.05798683662e-05
1.98115362855e-05
1.89715894249e-05
1.8080317916e-05
1.71585275142e-05
1.62268162643e-05
1.53047269086e-05
1.4410130262e-05
1.35585846963e-05
1.27629620333e-05
1.20331183813e-05
1.13758340301e-05
1.07948231438e-05
1.02909767826e-05
9.86265650484e-06
9.50615314466e-06
9.2161444451e-06
8.98623322175e-06
8.80942108899e-06
8.67858435616e-06
8.58683547919e-06
8.52783646518e-06
8.49597978597e-06
8.48650979188e-06
8.49552902183e-06
8.51996624219e-06
8.55746951937e-06
8.60629630765e-06
8.66517130321e-06
8.73317125565e-06
8.80960784067e-06
8.89395199434e-06
8.98576806352e-06
9.08468367436e-06
9.19036600594e-06
9.30254963947e-06
9.42115935684e-06
9.54456235706e-06
9.67305649157e-06
9.80731513357e-06
9.94850009659e-06
1.00982904594e-05
1.02587693799e-05
1.04321699105e-05
1.06204820955e-05
1.08249559821e-05
1.10455779386e-05
1.12806083905e-05
1.15262888901e-05
1.17767865622e-05
1.20244314417e-05
1.2260224373e-05
1.24745782558e-05
1.26581787252e-05
1.28028704478e-05
1.29024275551e-05
1.29531340726e-05
1.29540790945e-05
1.29071690832e-05
1.28168413683e-05
1.26895622283e-05
1.25331531351e-05
1.23560691649e-05
1.21666824899e-05
1.19726823525e-05
1.17806079883e-05
1.1595579256e-05
1.1421188033e-05
1.12595677656e-05
1.11115653296e-05
1.09770098361e-05
1.08549935247e-05
1.07441658693e-05
1.06429712648e-05
1.05498539734e-05
1.04633829004e-05
1.03823409215e-05
1.03057459033e-05
1.0232857899e-05
1.01631425404e-05
1.00962443746e-05
1.00319357942e-05
9.97009011305e-06
9.9106390335e-06
9.85355840363e-06
9.79883947663e-06
9.74648704789e-06
9.69650128161e-06
9.64888351886e-06
9.60362404797e-06
9.56071136299e-06
9.52012271955e-06
9.48183443557e-06
9.44581390072e-06
9.41203031084e-06
9.38044876779e-06
9.35104356187e-06
9.32379955396e-06
9.2987387262e-06
9.27595092648e-06
9.25567824372e-06
9.23846539067e-06
9.22548534214e-06
9.21918531501e-06
9.22463470946e-06
9.2523198606e-06
9.32410886779e-06
9.4863074407e-06
9.83954674753e-06
1.06116936212e-05
1.23539834365e-05
1.65508790014e-05
2.79016256155e-05
6.28713302526e-05
0.0001498407009
0.000262934748963
0.000520748222569
1.33240883643e-05
1.35477493815e-05
1.38373106187e-05
1.41784762088e-05
1.45650033345e-05
1.4987766122e-05
1.54356027425e-05
1.58956172057e-05
1.63538879738e-05
1.67957184463e-05
1.72063807588e-05
1.75714870678e-05
1.78777453769e-05
1.81133340213e-05
1.82685576424e-05
1.83361020821e-05
1.83114861305e-05
1.81931077723e-05
1.79824271719e-05
1.76837595256e-05
1.73041759503e-05
1.68530592315e-05
1.6341773103e-05
1.57830582074e-05
1.51905694069e-05
1.45782230171e-05
1.39597193065e-05
1.33479550271e-05
1.275463994e-05
1.21898702653e-05
1.16619215087e-05
1.11770429851e-05
1.07394658498e-05
1.03514278409e-05
1.00133795415e-05
9.72419138729e-06
9.48148794506e-06
9.28194566573e-06
9.12165556767e-06
8.99640904164e-06
8.90199670578e-06
8.83440494108e-06
8.78999748261e-06
8.76559318976e-06
8.75852694146e-06
8.76662625104e-06
8.78818666277e-06
8.821892174e-06
8.86675437974e-06
8.92202322371e-06
8.98713021759e-06
9.06162093696e-06
9.14512647967e-06
9.23733760141e-06
9.33802567872e-06
9.44708626302e-06
9.56465594775e-06
9.69132904226e-06
9.82863622979e-06
9.98003429999e-06
1.01479714782e-05
1.03398872698e-05
1.05662294255e-05
1.0840616422e-05
1.11792674218e-05
1.15996399821e-05
1.21182807625e-05
1.27480876961e-05
1.34953638857e-05
1.43571721389e-05
1.53194960039e-05
1.63566352511e-05
1.74320452912e-05
1.85006295041e-05
1.95122187943e-05
2.04158400396e-05
2.11642096806e-05
2.1717937141e-05
2.20489097687e-05
2.21425402768e-05
2.19986304615e-05
2.1630877985e-05
2.10651122779e-05
2.03365844666e-05
1.9486611266e-05
1.85590222943e-05
1.75967321869e-05
1.66388165589e-05
1.57182688932e-05
1.48606206797e-05
1.40833887699e-05
1.33963234127e-05
1.28022518378e-05
1.2298369331e-05
1.18777180046e-05
1.15307066896e-05
1.12464684361e-05
1.10139965613e-05
1.08229612874e-05
1.06642487497e-05
1.05302095275e-05
1.04147171189e-05
1.03130547358e-05
1.02217367086e-05
1.01382702191e-05
1.00609397809e-05
9.98859282725e-06
9.92048273979e-06
9.8561273589e-06
9.79522431829e-06
9.73757355229e-06
9.68304378149e-06
9.63153405124e-06
9.58296736969e-06
9.53727127015e-06
9.4943831186e-06
9.45423896436e-06
9.41678364771e-06
9.38196481243e-06
9.34974818808e-06
9.32012201283e-06
9.29313036104e-06
9.26891531786e-06
9.24782380357e-06
9.23059957583e-06
9.21879098027e-06
9.21555905305e-06
9.22735716181e-06
9.26741940415e-06
9.36323071762e-06
9.57299346508e-06
1.00237459433e-05
1.10060060865e-05
1.32352956696e-05
1.86950867091e-05
3.38728069386e-05
8.04179143179e-05
0.000186606880034
0.000311892428923
0.000609769020727
1.31881475043e-05
1.33423417731e-05
1.35414187023e-05
1.37758645133e-05
1.40400872061e-05
1.43256439475e-05
1.46225436335e-05
1.49196766839e-05
1.5205557064e-05
1.54685854901e-05
1.56977334789e-05
1.58828322883e-05
1.60151954515e-05
1.6087843958e-05
1.6095957464e-05
1.6036930413e-05
1.5910585206e-05
1.57190129826e-05
1.54665405946e-05
1.51593711535e-05
1.48053510388e-05
1.44134770469e-05
1.3993552213e-05
1.35556575186e-05
1.31098000558e-05
1.26654462147e-05
1.22312507811e-05
1.18147236827e-05
1.14220975222e-05
1.10581649801e-05
1.07263049641e-05
1.04284886744e-05
1.01654447322e-05
9.93679316807e-06
9.74129483779e-06
9.57704498008e-06
9.44173493644e-06
9.33283281536e-06
9.2477946088e-06
9.18418105317e-06
9.13978545262e-06
9.1126711003e-06
9.10121821521e-06
9.10409765368e-06
9.12026344181e-06
9.14889409941e-06
9.1893638349e-06
9.24118188668e-06
9.30396912736e-06
9.37741771429e-06
9.46129444254e-06
9.55544693844e-06
9.65987772871e-06
9.77487873124e-06
9.90133029292e-06
1.00412474538e-05
1.01988200334e-05
1.03823300816e-05
1.06078531831e-05
1.09051190845e-05
1.13082409967e-05
1.18713300249e-05
1.26648375182e-05
1.37727234157e-05
1.52859233845e-05
1.7291992732e-05
1.98619713729e-05
2.30363975287e-05
2.68128536722e-05
3.11373815719e-05
3.5901492807e-05
4.0945626797e-05
4.60687979991e-05
5.10433245367e-05
5.56327547618e-05
5.96109291665e-05
6.27799722898e-05
6.49854961753e-05
6.61275451145e-05
6.61666169082e-05
6.51243847936e-05
6.30795552007e-05
6.01594129722e-05
5.65282512322e-05
5.23737535547e-05
4.78928043144e-05
4.32778314744e-05
3.87049459131e-05
3.43245854752e-05
3.0255338934e-05
2.65810037221e-05
2.33508337747e-05
2.05824086884e-05
1.82665476982e-05
1.63733918452e-05
1.48589453397e-05
1.36713034088e-05
1.27560983444e-05
1.20607637883e-05
1.15375424556e-05
1.11452248168e-05
1.0849846076e-05
1.06245388159e-05
1.04488624413e-05
1.03078102392e-05
1.01907450858e-05
1.00903587068e-05
1.00017870887e-05
9.92187160515e-06
9.84861467655e-06
9.78076501147e-06
9.7175496457e-06
9.65847795383e-06
9.603235009e-06
9.55159943673e-06
9.50341219286e-06
9.45854389125e-06
9.41689406282e-06
9.37837949971e-06
9.34294875938e-06
9.31058836148e-06
9.28136271815e-06
9.25546837066e-06
9.23336507705e-06
9.21601320141e-06
9.20537159507e-06
9.20538504673e-06
9.22403440485e-06
9.27760891156e-06
9.39990186224e-06
9.66265658434e-06
1.02235116286e-05
1.14474165108e-05
1.42520213133e-05
2.12615943044e-05
4.12936803181e-05
0.000101651353978
0.000227393007201
0.000363611298535
0.00070375640093
1.30554219622e-05
1.31663474377e-05
1.33106009676e-05
1.34817060487e-05
1.36745332651e-05
1.38812197393e-05
1.409270736e-05
1.42992345426e-05
1.44910927149e-05
1.46588530882e-05
1.4793986606e-05
1.48890749176e-05
1.49383127775e-05
1.49376117695e-05
1.48849036549e-05
1.47800568581e-05
1.46249422419e-05
1.44231561552e-05
1.41798824733e-05
1.39014770278e-05
1.35952060858e-05
1.32687811828e-05
1.29300725704e-05
1.2586687611e-05
1.2245745849e-05
1.19135700192e-05
1.15955759936e-05
1.12961077914e-05
1.10184569075e-05
1.07648356774e-05
1.05365063699e-05
1.03338573613e-05
1.01565974867e-05
1.00038813411e-05
9.87451401879e-06
9.76707086487e-06
9.68006581724e-06
9.61202769997e-06
9.56160810892e-06
9.52760253323e-06
9.5089995177e-06
9.5049577423e-06
9.51481548468e-06
9.53804590698e-06
9.57425076359e-06
9.62311667981e-06
9.68441571458e-06
9.75798652753e-06
9.84377403724e-06
9.94188760853e-06
1.00527755639e-05
1.01775404135e-05
1.03185860286e-05
1.04808100022e-05
1.06738350181e-05
1.09160211046e-05
1.12416359935e-05
1.17136264536e-05
1.24469911586e-05
1.36377498569e-05
1.5505745884e-05
1.83593206067e-05
2.25679496229e-05
2.85296864298e-05
3.66239109665e-05
4.71534947569e-05
6.02861982003e-05
7.60063529207e-05
9.40860721631e-05
0.000114081320152
0.000135353246254
0.000157111159074
0.000178470481239
0.000198518245311
0.00021637855166
0.000231272172456
0.000242565492974
0.000249806442037
0.000252745692248
0.000251343600579
0.000245763206707
0.000236351432012
0.000223609911108
0.000208158505259
0.000190693559493
0.000171944398535
0.000152630389668
0.000133421984246
0.000114907744839
9.75698983796e-05
8.176929109e-05
6.77406082788e-05
5.55970138649e-05
4.53431417454e-05
3.68940681292e-05
3.0097958247e-05
2.47595680156e-05
2.06624037474e-05
1.75875886809e-05
1.53284494171e-05
1.37003456235e-05