/*--------------------------------*- C++ -*----------------------------------*\
| =========                 |                                                 |
| \\      /  F ield         | OpenFOAM: The Open Source CFD Toolbox           |
|  \\    /   O peration     | Version:  2212                                  |
|   \\  /    A nd           | Website:  www.openfoam.com                      |
|    \\/     M anipulation  |                                                 |
\*---------------------------------------------------------------------------*/
FoamFile
{
    version     2.0;
    format      ascii;
    arch        "LSB;label=64;scalar=64";
    class       volScalarField::Internal;
    location    "670";
    object      dGco2;
}
// * * * * * * * * * * * * * * * * * * * * * * * * * * * * * * * * * * * * * //

dimensions      [1 -3 -1 0 0 0 0];

value           nonuniform List<scalar> 
1024
(
0.000157233
0.000157296
0.000157448
0.000157714
0.000158111
0.000158636
0.000159262
0.000159948
0.000160647
0.00016132
0.000161933
0.000162443
0.000162824
0.000163041
0.000163047
0.000162772
0.000162174
0.000161353
0.000160433
0.000159449
0.000158407
0.000157298
0.000156128
0.00015493
0.000153773
0.000152733
0.000151867
0.000151201
0.000150731
0.000150429
0.000150262
0.000150193
0.00015724
0.000157305
0.000157462
0.000157736
0.000158143
0.000158678
0.000159311
0.000160001
0.000160703
0.00016138
0.000161998
0.00016251
0.000162889
0.000163104
0.000163107
0.000162829
0.00016223
0.00016141
0.000160492
0.000159512
0.000158476
0.000157374
0.000156208
0.000155012
0.00015385
0.0001528
0.000151921
0.000151242
0.000150762
0.000150454
0.000150283
0.000150213
0.000157255
0.000157323
0.000157488
0.000157775
0.000158198
0.000158748
0.000159395
0.000160096
0.000160812
0.00016151
0.000162151
0.000162676
0.000163056
0.000163262
0.00016325
0.000162958
0.000162348
0.000161525
0.00016061
0.000159638
0.000158614
0.000157527
0.000156374
0.000155182
0.000154013
0.000152943
0.000152038
0.000151334
0.000150832
0.00015051
0.000150332
0.000150259
0.000157275
0.000157347
0.000157519
0.000157819
0.000158259
0.000158828
0.000159494
0.00016022
0.000160972
0.000161719
0.000162417
0.000162979
0.000163364
0.000163551
0.000163505
0.000163173
0.000162531
0.000161692
0.000160776
0.000159815
0.000158809
0.000157747
0.000156617
0.000155437
0.000154261
0.000153166
0.000152225
0.000151482
0.000150949
0.000150605
0.000150415
0.000150338
0.000157295
0.000157369
0.000157546
0.000157855
0.000158308
0.000158896
0.000159589
0.000160357
0.000161172
0.00016201
0.000162811
0.000163446
0.000163851
0.000164009
0.000163899
0.000163487
0.000162776
0.000161897
0.000160969
0.000160014
0.000159032
0.000158003
0.000156908
0.000155752
0.000154576
0.000153457
0.000152473
0.000151683
0.000151111
0.00015074
0.000150535
0.000150452
0.000157306
0.00015738
0.000157559
0.000157871
0.00015833
0.000158934
0.000159659
0.000160486
0.000161398
0.000162372
0.000163328
0.000164084
0.000164535
0.000164656
0.000164448
0.000163904
0.00016307
0.000162112
0.00016115
0.000160194
0.000159235
0.000158247
0.000157199
0.000156079
0.000154918
0.000153782
0.00015276
0.000151923
0.000151308
0.000150908
0.000150686
0.000150597
0.000157299
0.000157372
0.000157547
0.000157854
0.000158311
0.000158925
0.000159685
0.000160585
0.000161623
0.000162775
0.000163938
0.00016487
0.000165401
0.000165484
0.000165139
0.0001644
0.000163375
0.00016229
0.000161265
0.000160295
0.000159357
0.000158414
0.000157423
0.000156356
0.000155225
0.000154091
0.000153045
0.000152172
0.000151521
0.000151095
0.000150859
0.000150765
0.000157262
0.000157333
0.000157501
0.000157795
0.000158241
0.000158856
0.000159649
0.00016063
0.000161814
0.000163184
0.000164603
0.000165761
0.000166401
0.000166441
0.000165918
0.000164911
0.00016362
0.000162354
0.000161236
0.00016024
0.000159322
0.00015843
0.000157507
0.000156507
0.000155428
0.000154319
0.000153273
0.000152386
0.000151717
0.000151276
0.000151031
0.000150934
0.000157184
0.000157252
0.00015741
0.000157687
0.000158113
0.00015872
0.000159537
0.000160602
0.000161953
0.000163579
0.000165298
0.000166715
0.000167473
0.000167443
0.00016668
0.000165323
0.000163685
0.000162187
0.000160956
0.000159931
0.000159041
0.000158214
0.000157374
0.000156461
0.000155457
0.000154403
0.000153392
0.000152522
0.00015186
0.000151421
0.000151178
0.000151081
0.000157057
0.00015712
0.000157267
0.000157524
0.000157926
0.000158518
0.000159357
0.000160515
0.000162062
0.000163988
0.000166046
0.000167726
0.000168569
0.000168401
0.000167299
0.000165479
0.000163406
0.000161637
0.00016029
0.000159252
0.000158418
0.000157684
0.000156956
0.000156156
0.000155256
0.000154293
0.000153355
0.000152541
0.000151917
0.000151501
0.000151268
0.000151173
0.00015689
0.000156948
0.000157084
0.000157323
0.000157704
0.000158288
0.000159164
0.000160447
0.000162243
0.000164521
0.000166933
0.000168839
0.000169682
0.00016925
0.000167658
0.000165223
0.000162607
0.000160541
0.0001591
0.000158093
0.000157362
0.000156769
0.000156194
0.000155546
0.000154789
0.000153957
0.000153135
0.000152414
0.000151858
0.000151482
0.000151268
0.000151178
0.000156755
0.000156806
0.00015693
0.000157159
0.000157543
0.000158157
0.000159123
0.000160597
0.000162707
0.000165368
0.000168101
0.000170139
0.00017084
0.000169974
0.000167705
0.00016447
0.000161184
0.000158795
0.000157298
0.000156382
0.00015582
0.00015543
0.000155062
0.000154612
0.000154042
0.000153384
0.000152716
0.000152121
0.000151654
0.000151332
0.00015114
0.000151056
0.000156841
0.000156886
0.000157005
0.000157244
0.00015767
0.000158384
0.000159536
0.000161301
0.000163777
0.000166784
0.000169719
0.00017172
0.000172101
0.000170631
0.000167522
0.000163329
0.000159246
0.000156485
0.000154951
0.000154173
0.000153834
0.000153698
0.000153584
0.000153373
0.000153029
0.000152579
0.000152094
0.000151644
0.000151275
0.000151007
0.000150837
0.000150756
0.000157482
0.000157527
0.000157659
0.000157941
0.000158466
0.000159364
0.000160798
0.000162921
0.000165746
0.000168971
0.0001719
0.000173654
0.000173568
0.00017143
0.00016747
0.000162307
0.000157359
0.000154111
0.000152452
0.000151765
0.000151628
0.00015174
0.000151877
0.000151902
0.000151778
0.000151533
0.000151227
0.000150916
0.00015064
0.000150418
0.000150266
0.000150189
0.000158992
0.00015905
0.000159222
0.000159589
0.000160268
0.000161407
0.00016316
0.000165612
0.000168662
0.000171907
0.000174629
0.000176021
0.000175513
0.000172922
0.000168433
0.000162617
0.000156914
0.000152971
0.000150839
0.000149916
0.000149726
0.000149916
0.000150216
0.000150445
0.000150518
0.000150431
0.000150228
0.00014997
0.000149715
0.000149504
0.000149361
0.000149291
0.000161352
0.000161433
0.000161662
0.000162138
0.000162992
0.00016437
0.000166393
0.000169068
0.000172197
0.00017533
0.000177824
0.000179055
0.000178604
0.000176303
0.000172209
0.000166659
0.000160747
0.000156005
0.000152775
0.000150702
0.000149424
0.000148658
0.000148214
0.000147967
0.000147841
0.000147802
0.00014784
0.000147956
0.000148132
0.000148327
0.000148489
0.000148577
0.000163837
0.000163941
0.000164225
0.000164797
0.000165787
0.000167329
0.000169505
0.000172276
0.000175415
0.000178516
0.000181111
0.000182829
0.000183439
0.000182797
0.00018082
0.000177545
0.000173453
0.000169554
0.000166345
0.000163747
0.000161643
0.000159956
0.0001586
0.000157598
0.00015697
0.000156727
0.000156853
0.000157284
0.000157894
0.000158518
0.000159002
0.000159252
0.000165396
0.000165508
0.000165803
0.000166382
0.000167361
0.000168849
0.000170913
0.000173525
0.00017653
0.000179666
0.000182655
0.000185325
0.000187608
0.000189467
0.000190843
0.00019171
0.00019212
0.000192369
0.000192681
0.000193043
0.000193383
0.000193619
0.000193624
0.000193376
0.000192872
0.000192156
0.000191315
0.000190478
0.000189779
0.00018931
0.000189076
0.000189006
0.000166072
0.000166176
0.000166444
0.000166954
0.000167798
0.000169061
0.000170791
0.000172974
0.000175525
0.000178312
0.000181209
0.000184187
0.000187314
0.000190685
0.000194343
0.000198298
0.000202345
0.000206192
0.000209768
0.000213102
0.000216117
0.00021869
0.000220693
0.000222022
0.000222609
0.000222447
0.00022162
0.000220323
0.000218854
0.000217546
0.000216652
0.000216246
0.000166257
0.000166351
0.000166583
0.000167015
0.000167715
0.000168747
0.00017015
0.000171918
0.000174002
0.000176327
0.000178833
0.000181547
0.000184593
0.000188149
0.000192383
0.000197413
0.0002029
0.000208079
0.000212633
0.000216681
0.000220314
0.000223554
0.000226382
0.000228738
0.000230539
0.000231708
0.000232215
0.000232116
0.000231573
0.000230843
0.00023021
0.00022987
0.000166209
0.00016629
0.000166487
0.000166845
0.000167419
0.000168255
0.000169384
0.000170807
0.000172497
0.000174412
0.000176532
0.000178904
0.000181662
0.000184997
0.000189105
0.000194139
0.000199739
0.000205002
0.000209547
0.000213549
0.000217218
0.000220705
0.000224045
0.000227174
0.000229945
0.000232192
0.000233804
0.000234764
0.000235153
0.000235139
0.000234948
0.000234792
0.000166118
0.00016618
0.000166335
0.000166621
0.000167082
0.000167758
0.000168675
0.000169841
0.00017125
0.000172893
0.000174779
0.000176965
0.000179571
0.000182756
0.000186676
0.000191447
0.000196722
0.000201667
0.000205946
0.000209774
0.000213425
0.000217115
0.000220905
0.00022472
0.000228342
0.000231493
0.000233956
0.00023564
0.000236595
0.000236985
0.000237036
0.000236979
0.000166223
0.000166249
0.000166334
0.000166524
0.000166866
0.000167403
0.000168165
0.000169175
0.000170451
0.000172014
0.000173893
0.000176142
0.000178843
0.000182096
0.000185986
0.000190556
0.000195459
0.000200011
0.000203985
0.000207607
0.000211145
0.000214825
0.000218745
0.000222863
0.000226971
0.00023075
0.000233891
0.000236193
0.00023763
0.000238333
0.000238544
0.000238538
0.000166881
0.000166839
0.000166802
0.000166838
0.000167025
0.000167427
0.000168095
0.000169073
0.000170403
0.000172121
0.000174252
0.000176813
0.000179831
0.000183333
0.000187329
0.000191797
0.000196384
0.000200555
0.000204206
0.000207569
0.000210887
0.000214365
0.000218122
0.000222156
0.00022632
0.000230342
0.000233884
0.000236649
0.0002385
0.000239496
0.000239859
0.000239896
0.000168565
0.000168411
0.00016818
0.000167991
0.000167978
0.000168257
0.000168919
0.000170029
0.000171633
0.000173743
0.000176339
0.000179374
0.000182807
0.000186601
0.000190716
0.000195092
0.000199385
0.000203176
0.000206464
0.000209489
0.000212472
0.000215603
0.000219003
0.000222694
0.000226592
0.000230499
0.000234121
0.000237129
0.000239282
0.000240533
0.000241046
0.000241129
0.000171759
0.000171453
0.000170979
0.000170536
0.000170338
0.000170573
0.000171372
0.000172799
0.00017486
0.000177502
0.000180628
0.000184124
0.000187893
0.000191863
0.000195972
0.000200159
0.000204109
0.000207489
0.000210368
0.000212987
0.000215551
0.00021823
0.00022114
0.000224326
0.000227752
0.000231292
0.000234718
0.000237727
0.000240029
0.00024147
0.00024212
0.000242254
0.000176842
0.000176369
0.000175685
0.000175089
0.000174861
0.000175235
0.000176343
0.000178206
0.000180757
0.000183865
0.000187368
0.00019111
0.000194972
0.000198876
0.000202767
0.0002066
0.000210106
0.000213023
0.000215455
0.000217631
0.000219734
0.000221911
0.000224269
0.000226861
0.000229691
0.000232694
0.000235719
0.000238517
0.000240795
0.000242328
0.000243086
0.000243272
0.000184027
0.000183432
0.00018272
0.000182253
0.000182286
0.000183016
0.000184519
0.000186751
0.000189592
0.00019287
0.000196405
0.000200038
0.000203662
0.000207211
0.000210649
0.000213951
0.000216902
0.000219304
0.000221265
0.000222989
0.000224629
0.000226306
0.000228109
0.000230093
0.000232279
0.000234652
0.00023713
0.000239542
0.000241629
0.000243138
0.000243952
0.000244184
0.000193427
0.000192851
0.000192454
0.00019249
0.000193045
0.000194198
0.000195958
0.000198268
0.000201009
0.000204031
0.000207179
0.000210328
0.000213391
0.000216326
0.000219111
0.000221739
0.00022405
0.000225899
0.000227384
0.000228667
0.000229869
0.000231081
0.00023237
0.000233784
0.000235351
0.000237076
0.000238935
0.00024083
0.000242575
0.00024393
0.00024473
0.000244992
0.000205197
0.000204906
0.000205188
0.000205893
0.000206906
0.00020824
0.000209906
0.000211882
0.000214102
0.000216469
0.00021888
0.000221248
0.000223517
0.000225658
0.000227664
0.000229534
0.00023116
0.000232447
0.000233467
0.000234337
0.00023514
0.000235938
0.000236778
0.000237694
0.000238709
0.000239835
0.000241074
0.000242389
0.000243671
0.000244745
0.000245438
0.000245698
0.000219712
0.00021999
0.000220856
0.00022181
0.000222798
0.00022386
0.000225029
0.000226322
0.000227722
0.000229184
0.000230654
0.000232084
0.000233441
0.000234713
0.000235894
0.000236987
0.000237931
0.000238673
0.000239256
0.000239749
0.000240199
0.000240641
0.000241101
0.0002416
0.000242151
0.000242763
0.000243443
0.000244183
0.00024494
0.000245621
0.000246104
0.000246311
0.000237499
0.000237753
0.000238233
0.000238673
0.00023908
0.000239482
0.000239898
0.000240341
0.000240811
0.000241297
0.000241783
0.000242254
0.000242698
0.000243113
0.000243497
0.000243851
0.000244155
0.000244394
0.000244581
0.000244738
0.000244881
0.00024502
0.000245164
0.000245319
0.000245489
0.000245678
0.000245889
0.00024612
0.000246361
0.000246589
0.000246764
0.000246849
)
;


// ************************************************************************* //
