/*--------------------------------*- C++ -*----------------------------------*\
| =========                 |                                                 |
| \\      /  F ield         | OpenFOAM: The Open Source CFD Toolbox           |
|  \\    /   O peration     | Version:  2212                                  |
|   \\  /    A nd           | Website:  www.openfoam.com                      |
|    \\/     M anipulation  |                                                 |
\*---------------------------------------------------------------------------*/
FoamFile
{
    version     2.0;
    format      ascii;
    arch        "LSB;label=64;scalar=64";
    class       volScalarField;
    location    "670";
    object      p_rgh;
}
// * * * * * * * * * * * * * * * * * * * * * * * * * * * * * * * * * * * * * //

dimensions      [0 2 -2 0 0 0 0];

internalField   nonuniform List<scalar> 
1024
(
0.0431962
0.0431902
0.0431865
0.0431905
0.0432048
0.0432322
0.0432778
0.0433466
0.0434388
0.0435366
0.0436041
0.0435905
0.0435127
0.0433689
0.04319
0.042999
0.0428331
0.04272
0.0426524
0.0426152
0.0425971
0.0425908
0.0425911
0.0425944
0.0425983
0.0426012
0.0426028
0.0426036
0.0426047
0.0426068
0.0426094
0.0426112
0.0432118
0.0432059
0.0432035
0.0432088
0.0432236
0.0432512
0.0432966
0.0433655
0.043458
0.0435558
0.0436227
0.0436094
0.0435319
0.0433876
0.0432079
0.0430158
0.0428488
0.0427348
0.0426666
0.0426287
0.04261
0.0426031
0.0426027
0.0426054
0.0426086
0.0426109
0.0426119
0.0426122
0.0426126
0.042614
0.0426161
0.042618
0.0432345
0.0432282
0.0432278
0.0432369
0.0432554
0.0432864
0.043335
0.0434071
0.0435025
0.0436021
0.0436692
0.0436563
0.0435782
0.0434325
0.0432505
0.0430555
0.0428854
0.0427689
0.0426986
0.0426588
0.0426384
0.0426299
0.0426281
0.0426294
0.0426311
0.042632
0.0426313
0.0426298
0.0426285
0.0426285
0.0426303
0.0426327
0.0432523
0.0432465
0.0432501
0.0432664
0.0432936
0.0433331
0.0433892
0.0434675
0.043566
0.0436663
0.0437327
0.0437228
0.0436466
0.0435018
0.0433189
0.0431213
0.0429469
0.0428266
0.0427527
0.0427097
0.0426863
0.0426751
0.0426707
0.0426695
0.0426689
0.0426671
0.0426633
0.0426581
0.0426534
0.0426511
0.0426524
0.0426557
0.0432509
0.0432475
0.0432582
0.0432864
0.043328
0.0433811
0.0434478
0.0435312
0.0436285
0.043725
0.0437885
0.0437854
0.0437166
0.0435797
0.0434024
0.0432077
0.0430321
0.0429087
0.0428309
0.0427839
0.0427565
0.0427412
0.0427331
0.0427284
0.0427241
0.0427181
0.0427091
0.0426979
0.0426874
0.042681
0.0426811
0.0426851
0.0432192
0.0432195
0.0432399
0.0432841
0.0433451
0.0434158
0.0434931
0.043577
0.0436674
0.043756
0.0438157
0.0438213
0.0437637
0.0436416
0.0434788
0.0432966
0.0431297
0.0430077
0.0429287
0.0428787
0.0428473
0.0428276
0.0428148
0.0428052
0.0427957
0.0427834
0.0427666
0.0427463
0.0427267
0.0427136
0.0427108
0.0427151
0.0431547
0.0431593
0.0431897
0.0432514
0.0433341
0.0434234
0.0435096
0.0435899
0.0436709
0.0437523
0.04381
0.0438225
0.043775
0.0436691
0.0435253
0.0433637
0.043216
0.0431053
0.0430319
0.0429834
0.0429505
0.0429273
0.0429097
0.0428942
0.0428775
0.0428562
0.0428281
0.0427946
0.0427617
0.0427385
0.0427307
0.0427342
0.0430663
0.0430742
0.0431119
0.043188
0.0432907
0.0433974
0.0434909
0.0435675
0.0436419
0.0437216
0.0437807
0.0437965
0.0437538
0.0436592
0.0435319
0.0433916
0.0432674
0.0431783
0.0431196
0.04308
0.0430508
0.0430271
0.0430058
0.0429838
0.0429577
0.0429239
0.0428799
0.042828
0.0427772
0.04274
0.0427249
0.0427266
0.0429709
0.0429805
0.0430206
0.0431035
0.0432189
0.0433395
0.0434402
0.0435171
0.0435924
0.0436786
0.0437417
0.0437563
0.0437121
0.0436212
0.0435031
0.0433779
0.0432739
0.0432095
0.0431723
0.0431491
0.0431302
0.0431108
0.043088
0.0430595
0.0430218
0.0429713
0.0429058
0.0428295
0.0427555
0.0427014
0.0426773
0.0426763
0.0428922
0.042902
0.0429393
0.0430177
0.0431327
0.0432608
0.0433691
0.0434532
0.0435402
0.043641
0.0437074
0.0437156
0.043663
0.043568
0.0434508
0.0433317
0.0432398
0.0431949
0.0431807
0.0431786
0.0431755
0.0431649
0.0431436
0.0431089
0.0430574
0.0429854
0.0428922
0.0427855
0.0426843
0.0426117
0.0425787
0.0425746
0.0428505
0.0428592
0.0428911
0.0429601
0.0430649
0.0431851
0.0432965
0.0433997
0.0435139
0.0436269
0.0436939
0.0436875
0.043618
0.0435109
0.0433872
0.0432657
0.0431772
0.0431436
0.0431494
0.0431692
0.0431844
0.0431855
0.0431674
0.0431263
0.0430582
0.0429598
0.0428327
0.042691
0.0425616
0.0424724
0.0424325
0.042426
0.0428579
0.0428645
0.0428893
0.0429463
0.0430384
0.0431516
0.0432688
0.0433951
0.0435397
0.0436642
0.0437175
0.0436831
0.0435862
0.0434597
0.0433229
0.0431928
0.0431008
0.0430728
0.0430949
0.0431347
0.0431675
0.0431799
0.043164
0.0431142
0.043025
0.0428943
0.0427286
0.0425511
0.0423982
0.0422993
0.0422567
0.0422485
0.0429177
0.0429215
0.0429391
0.0429845
0.0430653
0.0431768
0.0433108
0.0434734
0.0436457
0.0437652
0.0437845
0.0437068
0.0435737
0.0434226
0.0432687
0.0431258
0.0430267
0.0430031
0.0430416
0.0430995
0.043145
0.0431625
0.0431416
0.0430753
0.0429574
0.0427888
0.0425849
0.0423797
0.0422188
0.0421239
0.0420849
0.0420771
0.0430297
0.0430311
0.0430434
0.0430813
0.0431582
0.0432796
0.0434453
0.0436511
0.0438322
0.0439196
0.0438828
0.0437526
0.043583
0.0434086
0.0432367
0.0430796
0.0429712
0.0429492
0.0430068
0.0430784
0.0431243
0.0431324
0.0430884
0.0429891
0.0428335
0.0426339
0.0424183
0.0422223
0.0420787
0.0419975
0.041965
0.0419581
0.0432019
0.0432023
0.043214
0.0432538
0.0433408
0.0434886
0.0436959
0.0439206
0.0440691
0.04409
0.0439799
0.04381
0.0436229
0.0434304
0.0432391
0.0430628
0.0429373
0.0429044
0.0429503
0.0430005
0.043021
0.0430026
0.0429389
0.0428267
0.0426713
0.0424873
0.0423016
0.0421429
0.0420324
0.0419726
0.0419496
0.0419443
0.0434434
0.0434452
0.0434629
0.0435166
0.0436283
0.0438108
0.0440395
0.044219
0.0442759
0.0442061
0.0440625
0.043889
0.0437013
0.0435019
0.0432931
0.0430843
0.0429032
0.0427911
0.0427519
0.0427602
0.0427684
0.0427595
0.0427237
0.0426542
0.0425515
0.042427
0.0423014
0.0421975
0.0421295
0.0420971
0.0420877
0.0420864
0.0437037
0.0437083
0.0437365
0.0438111
0.0439496
0.044141
0.0443222
0.044402
0.044376
0.0442827
0.0441569
0.0440146
0.0438577
0.0436823
0.0434846
0.0432663
0.0430429
0.0428534
0.0427297
0.0426743
0.0426786
0.0427159
0.0427486
0.0427573
0.0427322
0.0426781
0.0426132
0.042561
0.0425376
0.0425422
0.0425594
0.0425719
0.0438561
0.0438624
0.0438964
0.0439821
0.044132
0.0443263
0.044503
0.0445971
0.0445953
0.0445251
0.0444282
0.0443262
0.044226
0.044129
0.0440362
0.0439427
0.0438634
0.0438193
0.0438217
0.0438706
0.0439541
0.0440553
0.0441602
0.0442405
0.0442743
0.0442497
0.0441752
0.044071
0.0439672
0.0438947
0.0438666
0.043865
0.0439114
0.0439176
0.043951
0.0440352
0.0441822
0.044374
0.0445587
0.0446823
0.0447289
0.0447177
0.04468
0.044634
0.0445854
0.0445349
0.0444817
0.0444463
0.0444424
0.0444742
0.0445395
0.0446376
0.0447683
0.0449234
0.0450872
0.0452381
0.0453554
0.0454236
0.045438
0.0454035
0.045332
0.0452419
0.0451585
0.0451115
0.0439305
0.0439358
0.0439661
0.0440443
0.0441855
0.0443777
0.044577
0.0447339
0.0448264
0.0448644
0.0448697
0.0448553
0.0448243
0.0447771
0.04472
0.0446719
0.0446565
0.0446819
0.0447264
0.0447916
0.0448781
0.0449831
0.0451015
0.0452235
0.0453364
0.0454265
0.0454843
0.0455071
0.0454987
0.0454683
0.0454298
0.0454015
0.0439423
0.043947
0.0439734
0.0440435
0.0441755
0.0443657
0.0445786
0.0447669
0.0449023
0.0449871
0.0450369
0.0450627
0.0450654
0.0450385
0.0449759
0.0448847
0.0447993
0.0447687
0.0447887
0.0448325
0.0448919
0.0449582
0.045033
0.0451163
0.0452049
0.0452907
0.0453615
0.0454077
0.0454251
0.0454176
0.0453949
0.0453729
0.0439601
0.0439642
0.0439865
0.0440483
0.0441675
0.0443483
0.044569
0.0447811
0.0449528
0.0450786
0.0451683
0.0452335
0.0452758
0.0452859
0.0452469
0.0451449
0.0450056
0.0449101
0.0448845
0.0449042
0.0449453
0.0449874
0.0450296
0.0450755
0.0451319
0.045199
0.0452674
0.0453235
0.0453558
0.0453612
0.0453461
0.0453258
0.0439855
0.0439892
0.0440085
0.0440632
0.0441716
0.0443409
0.0445556
0.044778
0.0449739
0.0451306
0.0452508
0.0453442
0.0454157
0.045458
0.0454526
0.0453739
0.0452312
0.0451057
0.0450412
0.0450303
0.0450425
0.0450662
0.0450879
0.0451088
0.0451404
0.0451884
0.0452504
0.0453128
0.0453581
0.0453755
0.0453669
0.0453478
0.0440161
0.044019
0.0440363
0.044086
0.0441864
0.0443453
0.0445505
0.0447706
0.0449736
0.0451429
0.045278
0.0453853
0.0454698
0.0455283
0.0455469
0.045502
0.0453903
0.0452704
0.0451895
0.045153
0.0451427
0.0451474
0.0451608
0.0451827
0.0452149
0.0452545
0.0453163
0.0453894
0.0454526
0.0454863
0.0454861
0.0454698
0.044047
0.0440489
0.0440654
0.0441133
0.0442099
0.0443614
0.0445556
0.0447636
0.0449575
0.0451223
0.0452554
0.0453617
0.0454448
0.0455044
0.0455325
0.0455131
0.0454375
0.0453408
0.0452624
0.0452155
0.0451949
0.0451931
0.0452109
0.0452492
0.0453062
0.0453766
0.0454616
0.0455542
0.0456456
0.0457058
0.0457204
0.0457106
0.0440735
0.0440749
0.0440928
0.0441434
0.0442412
0.0443888
0.0445706
0.0447588
0.0449303
0.0450742
0.0451898
0.0452809
0.0453512
0.0454013
0.0454279
0.0454219
0.0453742
0.0453032
0.0452384
0.0451956
0.0451782
0.0451848
0.0452202
0.0452883
0.0453889
0.0455147
0.0456559
0.0458
0.0459355
0.0460392
0.046082
0.0460868
0.0440907
0.0440927
0.0441155
0.0441741
0.044277
0.0444242
0.044591
0.0447516
0.0448894
0.0449999
0.045086
0.0451519
0.0452015
0.0452364
0.0452558
0.0452554
0.0452268
0.0451782
0.0451313
0.0451018
0.0450975
0.0451236
0.0451874
0.0452956
0.0454502
0.0456452
0.0458671
0.0460945
0.0463033
0.0464812
0.0465774
0.0466121
0.0440869
0.0440936
0.0441283
0.044203
0.0443138
0.0444603
0.0446068
0.0447318
0.0448282
0.0448982
0.0449483
0.0449845
0.0450111
0.0450301
0.0450423
0.0450455
0.0450314
0.0450015
0.0449733
0.0449611
0.0449755
0.0450261
0.0451223
0.0452736
0.0454848
0.0457527
0.046065
0.0463983
0.0467228
0.0470046
0.0471981
0.0472927
0.0440359
0.0440593
0.0441216
0.0442229
0.0443463
0.0444848
0.0446033
0.044688
0.0447403
0.0447693
0.0447845
0.0447938
0.0448012
0.0448092
0.0448184
0.0448274
0.0448269
0.0448134
0.0448025
0.044808
0.0448421
0.0449164
0.0450423
0.0452317
0.0454925
0.0458256
0.046224
0.0466707
0.0471385
0.0475841
0.0479314
0.0481553
0.0438783
0.0439639
0.0440927
0.0442329
0.0443688
0.0444893
0.0445739
0.0446186
0.0446315
0.0446264
0.0446152
0.0446059
0.0446024
0.0446065
0.0446183
0.0446363
0.0446491
0.04465
0.0446536
0.0446743
0.0447249
0.0448178
0.0449659
0.0451828
0.0454789
0.0458593
0.0463248
0.0468716
0.0474913
0.048156
0.0487821
0.0493297
0.0434044
0.0438042
0.0440744
0.0442571
0.0443887
0.0444836
0.044535
0.0445461
0.04453
0.0445023
0.0444754
0.0444569
0.0444501
0.0444559
0.0444735
0.0445007
0.0445246
0.0445362
0.0445501
0.0445812
0.0446425
0.0447465
0.0449071
0.0451388
0.0454535
0.0458589
0.0463625
0.0469753
0.0477192
0.0486282
0.049733
0.0509885
0.0423864
0.0436319
0.0441217
0.0442996
0.0444134
0.0444868
0.0445147
0.044505
0.0444727
0.0444336
0.0443999
0.0443786
0.0443719
0.0443802
0.0444019
0.0444347
0.0444645
0.0444817
0.0445006
0.0445365
0.0446023
0.0447105
0.0448754
0.0451115
0.0454313
0.0458437
0.0463599
0.0470026
0.0478228
0.0489275
0.0505356
0.0527961
)
;

boundaryField
{
    movingWall
    {
        type            fixedFluxPressure;
        gradient        uniform 0;
        value           nonuniform List<scalar> 
32
(
0.0423864
0.0436319
0.0441217
0.0442996
0.0444134
0.0444868
0.0445147
0.044505
0.0444727
0.0444336
0.0443999
0.0443786
0.0443719
0.0443802
0.0444019
0.0444347
0.0444645
0.0444817
0.0445006
0.0445365
0.0446023
0.0447105
0.0448754
0.0451115
0.0454313
0.0458437
0.0463599
0.0470026
0.0478228
0.0489275
0.0505356
0.0527961
)
;
    }
    fixedWalls
    {
        type            fixedFluxPressure;
        gradient        uniform 0;
        value           nonuniform List<scalar> 
64
(
0.0431962
0.0432118
0.0432345
0.0432523
0.0432509
0.0432192
0.0431547
0.0430663
0.0429709
0.0428922
0.0428505
0.0428579
0.0429177
0.0430297
0.0432019
0.0434434
0.0437037
0.0438561
0.0439114
0.0439305
0.0439423
0.0439601
0.0439855
0.0440161
0.044047
0.0440735
0.0440907
0.0440869
0.0440359
0.0438783
0.0434044
0.0423864
0.0426112
0.042618
0.0426327
0.0426557
0.0426851
0.0427151
0.0427342
0.0427266
0.0426763
0.0425746
0.042426
0.0422485
0.0420771
0.0419581
0.0419443
0.0420864
0.0425719
0.043865
0.0451115
0.0454015
0.0453729
0.0453258
0.0453478
0.0454698
0.0457106
0.0460868
0.0466121
0.0472927
0.0481553
0.0493297
0.0509885
0.0527961
)
;
    }
    floor
    {
        type            fixedFluxPressure;
        gradient        uniform 0;
        value           nonuniform List<scalar> 
32
(
0.0431962
0.0431902
0.0431865
0.0431905
0.0432048
0.0432322
0.0432778
0.0433466
0.0434388
0.0435366
0.0436041
0.0435905
0.0435127
0.0433689
0.04319
0.042999
0.0428331
0.04272
0.0426524
0.0426152
0.0425971
0.0425908
0.0425911
0.0425944
0.0425983
0.0426012
0.0426028
0.0426036
0.0426047
0.0426068
0.0426094
0.0426112
)
;
    }
    frontAndBack
    {
        type            empty;
    }
}


// ************************************************************************* //
