/*--------------------------------*- C++ -*----------------------------------*\
| =========                 |                                                 |
| \\      /  F ield         | OpenFOAM: The Open Source CFD Toolbox           |
|  \\    /   O peration     | Version:  2212                                  |
|   \\  /    A nd           | Website:  www.openfoam.com                      |
|    \\/     M anipulation  |                                                 |
\*---------------------------------------------------------------------------*/
FoamFile
{
    version     2.0;
    format      ascii;
    arch        "LSB;label=64;scalar=64";
    class       volScalarField;
    location    "670";
    object      Saa;
}
// * * * * * * * * * * * * * * * * * * * * * * * * * * * * * * * * * * * * * //

dimensions      [1 -3 0 0 0 0 0];

internalField   nonuniform List<scalar> 
1024
(
0.00547273
0.00547276
0.00547283
0.00547295
0.00547313
0.00547336
0.00547364
0.00547394
0.00547424
0.00547453
0.00547479
0.00547501
0.00547516
0.00547524
0.00547522
0.00547507
0.00547476
0.00547435
0.0054739
0.00547341
0.0054729
0.00547235
0.00547176
0.00547115
0.00547056
0.00547003
0.00546959
0.00546924
0.005469
0.00546885
0.00546876
0.00546873
0.00547274
0.00547276
0.00547283
0.00547296
0.00547314
0.00547338
0.00547366
0.00547396
0.00547426
0.00547456
0.00547482
0.00547503
0.00547518
0.00547526
0.00547524
0.00547509
0.00547478
0.00547437
0.00547392
0.00547344
0.00547293
0.00547238
0.0054718
0.00547119
0.0054706
0.00547007
0.00546961
0.00546927
0.00546902
0.00546886
0.00546877
0.00546874
0.00547274
0.00547277
0.00547285
0.00547297
0.00547316
0.00547341
0.00547369
0.005474
0.00547431
0.00547461
0.00547488
0.00547509
0.00547525
0.00547532
0.00547529
0.00547513
0.00547482
0.00547442
0.00547397
0.00547349
0.00547299
0.00547245
0.00547188
0.00547128
0.00547068
0.00547014
0.00546967
0.00546931
0.00546905
0.00546889
0.0054688
0.00546876
0.00547275
0.00547278
0.00547286
0.00547299
0.00547319
0.00547344
0.00547373
0.00547405
0.00547437
0.00547469
0.00547498
0.00547521
0.00547536
0.00547542
0.00547538
0.0054752
0.00547488
0.00547447
0.00547403
0.00547356
0.00547307
0.00547255
0.00547199
0.0054714
0.0054708
0.00547025
0.00546977
0.00546939
0.00546911
0.00546894
0.00546884
0.0054688
0.00547276
0.00547279
0.00547287
0.00547301
0.00547321
0.00547347
0.00547377
0.0054741
0.00547444
0.0054748
0.00547513
0.00547538
0.00547554
0.00547559
0.00547551
0.0054753
0.00547495
0.00547453
0.00547409
0.00547363
0.00547316
0.00547266
0.00547212
0.00547155
0.00547096
0.00547039
0.00546989
0.00546949
0.00546919
0.005469
0.0054689
0.00546885
0.00547276
0.00547279
0.00547287
0.00547301
0.00547321
0.00547348
0.00547379
0.00547414
0.00547453
0.00547493
0.00547532
0.00547562
0.00547579
0.00547581
0.00547569
0.00547542
0.00547502
0.00547457
0.00547412
0.00547367
0.00547322
0.00547275
0.00547224
0.00547169
0.00547112
0.00547055
0.00547003
0.0054696
0.00546929
0.00546909
0.00546897
0.00546893
0.00547275
0.00547279
0.00547286
0.005473
0.0054732
0.00547346
0.00547379
0.00547417
0.0054746
0.00547508
0.00547555
0.00547592
0.0054761
0.00547609
0.0054759
0.00547554
0.00547506
0.00547456
0.0054741
0.00547366
0.00547323
0.00547279
0.00547232
0.00547181
0.00547125
0.00547069
0.00547016
0.00546972
0.00546939
0.00546918
0.00546906
0.00546901
0.00547273
0.00547276
0.00547284
0.00547297
0.00547316
0.00547342
0.00547376
0.00547417
0.00547467
0.00547523
0.0054758
0.00547624
0.00547646
0.00547641
0.00547611
0.00547563
0.00547503
0.00547447
0.00547398
0.00547354
0.00547314
0.00547274
0.00547232
0.00547185
0.00547133
0.00547079
0.00547027
0.00546982
0.00546949
0.00546926
0.00546914
0.00546909
0.00547269
0.00547272
0.00547279
0.00547291
0.00547309
0.00547335
0.0054737
0.00547415
0.00547471
0.00547537
0.00547606
0.00547659
0.00547682
0.00547671
0.00547628
0.00547562
0.00547488
0.00547423
0.00547371
0.00547328
0.00547291
0.00547257
0.0054722
0.00547179
0.00547132
0.00547081
0.00547031
0.00546988
0.00546955
0.00546933
0.00546921
0.00546916
0.00547262
0.00547265
0.00547272
0.00547283
0.005473
0.00547325
0.00547361
0.00547409
0.00547474
0.00547552
0.00547634
0.00547695
0.00547718
0.00547696
0.00547635
0.00547547
0.00547453
0.00547377
0.00547323
0.00547282
0.0054725
0.00547222
0.00547193
0.00547158
0.00547118
0.00547072
0.00547027
0.00546988
0.00546957
0.00546936
0.00546924
0.0054692
0.00547254
0.00547256
0.00547262
0.00547273
0.00547289
0.00547314
0.00547351
0.00547405
0.0054748
0.00547573
0.00547667
0.00547735
0.00547752
0.00547714
0.00547627
0.00547509
0.00547391
0.00547305
0.00547248
0.00547212
0.00547187
0.00547168
0.00547148
0.00547123
0.0054709
0.00547053
0.00547014
0.00546979
0.00546952
0.00546934
0.00546923
0.00546919
0.00547246
0.00547249
0.00547254
0.00547264
0.00547281
0.00547307
0.00547348
0.0054741
0.00547499
0.00547607
0.00547713
0.00547781
0.00547787
0.00547723
0.00547602
0.00547447
0.00547301
0.00547202
0.00547146
0.00547116
0.00547101
0.00547094
0.00547085
0.00547071
0.00547049
0.00547021
0.00546991
0.00546963
0.0054694
0.00546925
0.00546915
0.00546911
0.00547249
0.00547251
0.00547256
0.00547267
0.00547285
0.00547316
0.00547365
0.0054744
0.00547544
0.00547665
0.00547775
0.00547837
0.00547822
0.00547727
0.00547567
0.00547369
0.00547188
0.00547076
0.00547021
0.00546999
0.00546997
0.00547003
0.00547007
0.00547005
0.00546995
0.00546978
0.00546957
0.00546937
0.00546919
0.00546906
0.00546898
0.00546894
0.00547278
0.00547279
0.00547285
0.00547297
0.0054732
0.00547359
0.0054742
0.0054751
0.00547627
0.00547755
0.0054786
0.00547904
0.00547864
0.00547736
0.00547537
0.00547298
0.00547083
0.00546953
0.00546894
0.00546879
0.00546887
0.00546905
0.00546921
0.00546931
0.00546931
0.00546924
0.00546911
0.00546898
0.00546885
0.00546874
0.00546867
0.00546863
0.00547347
0.0054735
0.00547357
0.00547373
0.00547402
0.00547451
0.00547525
0.00547628
0.00547751
0.00547874
0.00547964
0.00547987
0.00547924
0.00547775
0.00547554
0.0054729
0.00547047
0.0054689
0.00546814
0.0054679
0.00546797
0.00546818
0.00546841
0.00546859
0.00546867
0.00546867
0.00546859
0.00546847
0.00546835
0.00546825
0.00546817
0.00546813
0.00547458
0.00547461
0.00547471
0.00547491
0.00547527
0.00547585
0.00547669
0.00547778
0.00547899
0.00548011
0.00548085
0.00548098
0.00548036
0.005479
0.00547697
0.00547446
0.00547196
0.00547006
0.00546885
0.00546813
0.00546774
0.00546754
0.00546745
0.00546742
0.0054674
0.0054674
0.00546741
0.00546743
0.00546747
0.00546752
0.00546757
0.00546759
0.00547576
0.0054758
0.00547592
0.00547615
0.00547656
0.0054772
0.00547808
0.00547918
0.00548036
0.00548143
0.00548219
0.00548252
0.00548236
0.0054817
0.00548054
0.00547892
0.0054771
0.00547546
0.00547417
0.00547316
0.00547236
0.00547174
0.00547124
0.00547087
0.00547064
0.00547055
0.00547059
0.00547075
0.00547097
0.0054712
0.00547138
0.00547147
0.00547655
0.00547659
0.00547671
0.00547695
0.00547735
0.00547796
0.0054788
0.00547983
0.00548096
0.00548208
0.00548304
0.00548381
0.00548437
0.00548473
0.00548489
0.00548486
0.0054847
0.00548456
0.0054845
0.00548451
0.00548454
0.00548455
0.00548449
0.00548436
0.00548414
0.00548387
0.00548356
0.00548326
0.00548301
0.00548285
0.00548277
0.00548275
0.00547695
0.00547699
0.0054771
0.0054773
0.00547765
0.00547818
0.00547889
0.00547977
0.00548077
0.00548181
0.00548282
0.0054838
0.00548477
0.00548578
0.00548685
0.00548799
0.00548915
0.00549028
0.00549134
0.00549232
0.00549321
0.00549394
0.0054945
0.00549484
0.00549495
0.00549484
0.00549452
0.00549406
0.00549355
0.0054931
0.0054928
0.00549266
0.00547713
0.00547717
0.00547726
0.00547744
0.00547773
0.00547816
0.00547875
0.00547949
0.00548033
0.00548124
0.00548217
0.00548312
0.00548413
0.00548529
0.00548664
0.00548823
0.00548994
0.00549154
0.00549289
0.00549405
0.00549503
0.00549586
0.00549654
0.00549709
0.0054975
0.00549775
0.00549784
0.00549778
0.00549761
0.0054974
0.00549721
0.00549711
0.0054772
0.00547723
0.00547731
0.00547746
0.0054777
0.00547806
0.00547854
0.00547915
0.00547986
0.00548063
0.00548145
0.00548231
0.00548327
0.00548439
0.00548574
0.00548738
0.00548918
0.00549084
0.00549221
0.00549333
0.00549429
0.00549513
0.00549589
0.00549658
0.00549718
0.00549767
0.00549803
0.00549826
0.00549836
0.00549838
0.00549835
0.00549833
0.00547723
0.00547726
0.00547732
0.00547744
0.00547763
0.00547793
0.00547833
0.00547884
0.00547944
0.00548011
0.00548085
0.00548166
0.00548257
0.00548365
0.00548495
0.00548652
0.00548825
0.00548983
0.00549114
0.00549224
0.00549321
0.00549412
0.00549501
0.00549587
0.00549668
0.00549737
0.0054979
0.00549828
0.00549851
0.00549862
0.00549866
0.00549866
0.0054773
0.00547731
0.00547735
0.00547744
0.00547759
0.00547783
0.00547816
0.0054786
0.00547914
0.00547977
0.00548049
0.0054813
0.00548224
0.00548333
0.00548461
0.00548611
0.00548772
0.00548919
0.00549043
0.00549149
0.00549246
0.00549341
0.00549436
0.00549532
0.00549626
0.0054971
0.00549778
0.00549828
0.0054986
0.00549877
0.00549884
0.00549886
0.00547752
0.00547751
0.00547751
0.00547755
0.00547765
0.00547783
0.00547812
0.00547852
0.00547905
0.0054797
0.00548048
0.00548137
0.00548238
0.00548353
0.00548483
0.00548629
0.00548778
0.00548913
0.00549028
0.00549129
0.00549222
0.00549314
0.00549408
0.00549505
0.00549601
0.00549692
0.0054977
0.00549829
0.00549869
0.00549892
0.00549901
0.00549904
0.00547803
0.00547799
0.00547793
0.0054779
0.00547793
0.00547807
0.00547834
0.00547876
0.00547934
0.00548008
0.00548096
0.00548197
0.00548309
0.00548431
0.00548563
0.00548703
0.00548842
0.00548964
0.00549068
0.00549159
0.00549245
0.0054933
0.00549417
0.00549507
0.00549599
0.00549688
0.00549768
0.00549833
0.00549879
0.00549905
0.00549918
0.00549921
0.00547897
0.00547888
0.00547875
0.00547864
0.00547862
0.00547873
0.00547902
0.00547951
0.0054802
0.00548107
0.00548208
0.0054832
0.00548439
0.00548565
0.00548694
0.00548827
0.00548953
0.00549061
0.00549152
0.00549232
0.00549307
0.0054938
0.00549456
0.00549535
0.00549617
0.00549699
0.00549775
0.0054984
0.00549888
0.00549918
0.00549933
0.00549937
0.00548043
0.0054803
0.00548011
0.00547995
0.00547991
0.00548005
0.00548042
0.00548102
0.00548182
0.00548279
0.00548389
0.00548505
0.00548625
0.00548747
0.00548868
0.00548988
0.00549099
0.00549191
0.00549268
0.00549335
0.00549397
0.00549457
0.0054952
0.00549585
0.00549653
0.00549723
0.00549791
0.00549851
0.00549899
0.0054993
0.00549946
0.00549951
0.00548248
0.00548231
0.00548211
0.00548199
0.00548202
0.00548225
0.00548272
0.0054834
0.00548426
0.00548526
0.00548634
0.00548745
0.00548856
0.00548965
0.00549071
0.00549173
0.00549266
0.00549342
0.00549403
0.00549456
0.00549505
0.00549552
0.005496
0.00549651
0.00549705
0.0054976
0.00549816
0.00549868
0.00549912
0.00549942
0.00549959
0.00549964
0.00548513
0.00548497
0.00548486
0.00548488
0.00548504
0.00548539
0.00548591
0.0054866
0.00548741
0.00548832
0.00548926
0.00549021
0.00549114
0.00549203
0.00549289
0.0054937
0.00549442
0.005495
0.00549546
0.00549586
0.00549622
0.00549656
0.00549691
0.00549728
0.00549766
0.00549807
0.00549849
0.00549891
0.00549927
0.00549954
0.00549969
0.00549975
0.00548842
0.00548834
0.00548842
0.00548862
0.00548891
0.0054893
0.00548978
0.00549036
0.00549101
0.00549171
0.00549243
0.00549314
0.00549382
0.00549447
0.00549508
0.00549565
0.00549616
0.00549656
0.00549688
0.00549715
0.00549739
0.00549762
0.00549785
0.00549809
0.00549834
0.00549861
0.00549889
0.00549918
0.00549945
0.00549966
0.00549979
0.00549984
0.00549245
0.00549253
0.00549277
0.00549304
0.00549331
0.00549362
0.00549395
0.00549433
0.00549474
0.00549517
0.0054956
0.00549603
0.00549643
0.00549682
0.00549718
0.00549751
0.0054978
0.00549804
0.00549822
0.00549837
0.00549851
0.00549864
0.00549876
0.00549889
0.00549903
0.00549918
0.00549934
0.0054995
0.00549966
0.00549979
0.00549988
0.00549992
0.00549736
0.00549743
0.00549756
0.00549768
0.0054978
0.00549791
0.00549803
0.00549816
0.0054983
0.00549844
0.00549858
0.00549872
0.00549885
0.00549898
0.0054991
0.0054992
0.0054993
0.00549937
0.00549943
0.00549948
0.00549952
0.00549956
0.0054996
0.00549964
0.00549969
0.00549973
0.00549978
0.00549983
0.00549988
0.00549993
0.00549996
0.00549997
)
;

boundaryField
{
    movingWall
    {
        type            fixedValue;
        value           uniform 0.0055;
    }
    fixedWalls
    {
        type            zeroGradient;
    }
    floor
    {
        type            zeroGradient;
    }
    frontAndBack
    {
        type            empty;
    }
}


// ************************************************************************* //
