/*--------------------------------*- C++ -*----------------------------------*\
| =========                 |                                                 |
| \\      /  F ield         | OpenFOAM: The Open Source CFD Toolbox           |
|  \\    /   O peration     | Version:  2212                                  |
|   \\  /    A nd           | Website:  www.openfoam.com                      |
|    \\/     M anipulation  |                                                 |
\*---------------------------------------------------------------------------*/
FoamFile
{
    version     2.0;
    format      ascii;
    arch        "LSB;label=64;scalar=64";
    class       volScalarField::Internal;
    location    "1160";
    object      dGch4;
}
// * * * * * * * * * * * * * * * * * * * * * * * * * * * * * * * * * * * * * //

dimensions      [1 -3 -1 0 0 0 0];

value           nonuniform List<scalar> 
1024
(
0.000894035
0.00089436
0.000895157
0.0008966
0.000898872
0.000902124
0.000906419
0.000911681
0.000917668
0.000924009
0.000930224
0.000935757
0.000939938
0.000942051
0.000941762
0.000938978
0.000933893
0.000927451
0.000920519
0.000913352
0.000906131
0.000899041
0.000892315
0.000886215
0.000880966
0.000876696
0.000873417
0.000871047
0.000869443
0.000868443
0.000867897
0.000867674
0.0008941
0.000894433
0.000895247
0.000896721
0.000899042
0.000902359
0.000906728
0.000912061
0.000918111
0.000924504
0.000930763
0.000936329
0.000940519
0.000942606
0.000942278
0.000939454
0.000934338
0.000927871
0.00092092
0.000913739
0.000906503
0.000899393
0.000892637
0.000886496
0.000881197
0.000876875
0.00087355
0.000871142
0.000869513
0.000868498
0.000867943
0.000867717
0.000894256
0.000894601
0.000895449
0.000896985
0.000899402
0.000902846
0.000907364
0.000912852
0.000919054
0.000925598
0.000932008
0.000937705
0.000941951
0.000943975
0.000943524
0.00094057
0.000935343
0.00092879
0.000921777
0.000914552
0.00090728
0.000900129
0.000893314
0.00088709
0.00088169
0.000877262
0.000873841
0.000871357
0.000869672
0.000868624
0.000868051
0.000867818
0.000894518
0.000894882
0.000895775
0.000897399
0.000899951
0.000903581
0.000908322
0.000914064
0.000920546
0.000927404
0.000934155
0.000940165
0.000944562
0.000946479
0.000945772
0.000942527
0.000937039
0.000930281
0.000923121
0.000915797
0.000908456
0.00090124
0.00089434
0.000887997
0.000882452
0.000877868
0.000874303
0.000871703
0.000869936
0.000868835
0.000868235
0.000867991
0.000894897
0.00089528
0.000896227
0.000897954
0.000900671
0.000904534
0.000909578
0.000915694
0.000922632
0.000930044
0.000937422
0.000944011
0.000948706
0.000950473
0.000949329
0.000945554
0.000939569
0.000932409
0.000924958
0.000917439
0.000909972
0.000902657
0.000895649
0.000889163
0.000883441
0.000878666
0.000874922
0.000872175
0.000870303
0.000869136
0.0008685
0.000868243
0.000895387
0.000895789
0.000896791
0.000898625
0.000901524
0.00090566
0.000911089
0.000917727
0.000925356
0.000933643
0.000942019
0.000949518
0.000954695
0.000956286
0.000954496
0.000949884
0.000943075
0.000935225
0.000927259
0.000919392
0.000911703
0.000904239
0.000897098
0.00089046
0.000884554
0.000879578
0.000875643
0.000872738
0.00087075
0.000869511
0.000868836
0.000868564
0.000895975
0.000896394
0.000897445
0.000899383
0.000902469
0.000906913
0.000912817
0.000920152
0.000928756
0.000938308
0.000948113
0.000956879
0.000962722
0.00096413
0.000961489
0.000955699
0.000947665
0.000938744
0.000929955
0.000921514
0.000913458
0.000905766
0.000898465
0.000891678
0.000885609
0.000880458
0.000876357
0.000873313
0.000871223
0.000869919
0.000869211
0.000868926
0.000896644
0.000897077
0.00089817
0.000900204
0.000903479
0.000908265
0.000914743
0.000922976
0.00093288
0.000944123
0.000955805
0.000966167
0.000972818
0.000974039
0.000970369
0.000963076
0.000953388
0.000942938
0.000932929
0.000923612
0.000914986
0.000906952
0.000899452
0.000892534
0.000886356
0.000881102
0.000876904
0.00087378
0.000871632
0.000870291
0.000869562
0.000869269
0.000897382
0.000897828
0.000898961
0.000901087
0.000904558
0.000909727
0.000916891
0.000926244
0.000937795
0.000951172
0.000965154
0.00097737
0.00098489
0.000985883
0.000981049
0.000971999
0.000960252
0.000947767
0.000936051
0.000925469
0.000916006
0.000907478
0.000899727
0.000892709
0.000886509
0.000881267
0.000877093
0.000873991
0.000871862
0.000870532
0.000869809
0.000869517
0.000898198
0.000898659
0.000899835
0.000902062
0.000905754
0.000911369
0.000919355
0.000930078
0.000943653
0.000959612
0.000976272
0.000990508
0.000998853
0.000999522
0.000993462
0.000982544
0.00096843
0.000953384
0.000939373
0.000927012
0.000916337
0.000907092
0.000899008
0.000891923
0.000885815
0.000880741
0.00087675
0.000873812
0.000871805
0.000870556
0.000869877
0.000869602
0.00089914
0.00089962
0.000900853
0.00090321
0.000907177
0.000913339
0.000922333
0.000934732
0.000950763
0.000969775
0.000989441
0.00100576
0.00101482
0.0010151
0.00100794
0.000995347
0.000978814
0.000960748
0.000943735
0.00092884
0.000916328
0.000905949
0.000897324
0.00089014
0.000884216
0.000879469
0.000875838
0.000873223
0.000871472
0.000870401
0.000869831
0.000869605
0.000900327
0.000900835
0.000902149
0.00090469
0.000909031
0.00091591
0.000926185
0.000940669
0.000959682
0.000982247
0.00100518
0.00102357
0.00103328
0.00103337
0.00102577
0.00101239
0.000994081
0.000972987
0.000952247
0.000933664
0.000918145
0.000905689
0.000895866
0.000888223
0.000882365
0.000877987
0.000874852
0.000872742
0.000871441
0.000870733
0.000870415
0.000870318
0.000902033
0.000902578
0.00090401
0.00090682
0.000911695
0.000919557
0.000931516
0.000948632
0.000971243
0.000997846
0.0010242
0.00104465
0.00105528
0.00105612
0.00104977
0.00103779
0.00101991
0.000997329
0.00097324
0.000950102
0.000929747
0.000913105
0.000900186
0.000890639
0.00088391
0.000879454
0.000876761
0.00087538
0.000874902
0.000874954
0.000875206
0.000875408
0.000904829
0.00090542
0.000907014
0.000910209
0.000915851
0.000925081
0.000939275
0.000959679
0.000986473
0.00101742
0.00104722
0.00106988
0.00108237
0.00108611
0.00108421
0.00107774
0.00106518
0.00104608
0.0010226
0.000997196
0.000972265
0.000949701
0.000930695
0.000915948
0.000905388
0.000898774
0.00089545
0.000894473
0.000894928
0.000896007
0.000897072
0.000897705
0.000909757
0.000910389
0.000912173
0.000915871
0.000922549
0.000933607
0.000950647
0.000974932
0.00100619
0.00104129
0.00107426
0.00109951
0.00111556
0.00112514
0.00113157
0.00113571
0.00113555
0.00112895
0.001116
0.00109808
0.0010769
0.00105431
0.00103213
0.00101187
0.000994656
0.000981459
0.000972639
0.000967663
0.000965656
0.000965495
0.000966093
0.000966631
0.00091862
0.000919282
0.000921251
0.000925469
0.000933226
0.000946117
0.000965783
0.0009932
0.0010275
0.00106509
0.00110035
0.00112873
0.00114974
0.00116638
0.00118177
0.00119724
0.00121172
0.00122292
0.00122932
0.00123073
0.00122715
0.0012189
0.00120665
0.00119141
0.00117456
0.00115762
0.00114211
0.00112933
0.00112007
0.00111438
0.00111156
0.00111063
0.000930327
0.000930909
0.000932742
0.000936818
0.000944466
0.000957263
0.000976695
0.00100348
0.00103675
0.0010735
0.00110925
0.00114008
0.00116474
0.00118483
0.00120271
0.0012201
0.00123754
0.00125522
0.00127267
0.00128905
0.00130316
0.00131385
0.00132026
0.00132193
0.00131889
0.00131181
0.00130199
0.00129124
0.00128141
0.00127389
0.00126925
0.00126727
0.000941777
0.00094219
0.000943614
0.000946955
0.000953444
0.000964541
0.000981627
0.00100543
0.00103536
0.00106916
0.00110328
0.0011341
0.00115941
0.00117911
0.00119428
0.00120628
0.00121661
0.00122852
0.00124386
0.00126225
0.00128224
0.00130202
0.00131992
0.00133463
0.00134528
0.00135158
0.00135383
0.00135286
0.00134998
0.00134662
0.00134396
0.00134261
0.000951754
0.000951985
0.000952934
0.000955367
0.000960356
0.000969205
0.000983204
0.00100317
0.00102888
0.00105875
0.00109003
0.00111946
0.00114441
0.00116358
0.00117699
0.00118545
0.00119083
0.00119783
0.00120987
0.00122751
0.00124961
0.00127411
0.00129857
0.00132073
0.00133895
0.00135247
0.00136131
0.00136611
0.00136788
0.00136785
0.00136715
0.0013666
0.000960475
0.000960547
0.000961063
0.000962643
0.000966192
0.000972847
0.000983786
0.000999867
0.00102116
0.00104667
0.00107433
0.00110143
0.00112537
0.00114435
0.00115765
0.00116566
0.0011702
0.00117583
0.00118617
0.00120253
0.00122467
0.00125121
0.00127981
0.00130763
0.00133205
0.00135138
0.00136505
0.00137349
0.00137777
0.00137929
0.00137939
0.00137914
0.000968346
0.000968273
0.000968405
0.000969242
0.000971541
0.000976284
0.000984527
0.00099711
0.00101428
0.00103544
0.00105911
0.00108325
0.00110564
0.00112446
0.00113872
0.0011485
0.00115525
0.00116256
0.00117336
0.00118921
0.00121054
0.00123681
0.00126646
0.00129695
0.00132538
0.00134929
0.00136729
0.00137921
0.00138589
0.00138878
0.00138947
0.00138937
0.000976185
0.000975938
0.000975655
0.000975757
0.000976912
0.000979992
0.000985941
0.000995541
0.00100911
0.00102633
0.00104621
0.00106733
0.00108805
0.00110688
0.00112282
0.0011358
0.0011466
0.00115731
0.00117001
0.00118626
0.00120686
0.00123193
0.00126067
0.00129129
0.00132127
0.00134792
0.00136914
0.00138406
0.00139301
0.00139728
0.00139859
0.00139863
0.00098548
0.000984965
0.000984099
0.000983282
0.000983176
0.000984631
0.000988541
0.000995632
0.00100625
0.0010203
0.00103718
0.00105603
0.00107574
0.00109518
0.00111347
0.0011304
0.00114588
0.00116042
0.00117534
0.00119216
0.00121199
0.00123539
0.00126217
0.00129122
0.00132063
0.00134806
0.00137116
0.00138835
0.00139932
0.00140495
0.00140693
0.00140713
0.000998268
0.000997343
0.000995627
0.000993559
0.000991889
0.00099157
0.000993555
0.000998593
0.00100709
0.00101912
0.00103441
0.00105241
0.00107234
0.00109324
0.00111427
0.00113508
0.00115473
0.0011724
0.00118893
0.0012059
0.00122455
0.00124579
0.00126988
0.0012963
0.00132372
0.00135028
0.00137382
0.00139237
0.00140495
0.00141186
0.00141453
0.00141492
0.00101666
0.00101518
0.00101238
0.00100882
0.00100541
0.00100331
0.00100365
0.00100732
0.00101481
0.00102631
0.00104164
0.0010603
0.0010815
0.00110426
0.00112769
0.00115136
0.00117371
0.00119309
0.00121013
0.00122647
0.00124343
0.00126205
0.00128291
0.00130594
0.00133038
0.00135487
0.00137755
0.00139644
0.00141006
0.00141806
0.00142142
0.00142203
0.00104235
0.00104021
0.00103633
0.0010315
0.00102682
0.00102359
0.00102313
0.00102651
0.00103428
0.00104655
0.00106302
0.00108301
0.00110555
0.00112957
0.00115417
0.00117891
0.00120196
0.00122137
0.00123771
0.00125264
0.00126744
0.00128316
0.0013005
0.0013197
0.00134047
0.00136195
0.0013827
0.00140092
0.00141486
0.00142363
0.00142762
0.00142849
0.00107634
0.0010736
0.00106912
0.00106407
0.00105954
0.0010567
0.00105688
0.00106117
0.00107004
0.00108346
0.00110095
0.0011216
0.00114432
0.00116806
0.00119197
0.0012157
0.00123748
0.00125539
0.00127001
0.00128291
0.00129526
0.00130798
0.00132178
0.00133705
0.0013538
0.00137162
0.00138957
0.00140614
0.00141961
0.00142868
0.00143317
0.0014343
0.0011192
0.00111613
0.00111221
0.00110877
0.00110647
0.00110587
0.00110799
0.00111375
0.00112354
0.00113728
0.0011544
0.001174
0.00119503
0.00121656
0.0012379
0.00125877
0.00127766
0.00129295
0.00130516
0.00131566
0.00132543
0.00133524
0.0013457
0.00135721
0.00136996
0.00138383
0.00139833
0.00141243
0.0014246
0.00143337
0.00143811
0.00143948
0.00117155
0.00116885
0.0011672
0.00116731
0.00116873
0.00117131
0.00117558
0.00118227
0.00119181
0.00120424
0.00121914
0.00123576
0.00125327
0.00127093
0.00128822
0.00130493
0.0013199
0.00133188
0.0013413
0.00134926
0.0013565
0.00136362
0.00137107
0.00137922
0.00138825
0.00139824
0.00140903
0.00142002
0.00143011
0.00143793
0.00144253
0.00144404
0.00123478
0.00123367
0.00123583
0.00123992
0.00124455
0.00124932
0.00125453
0.00126076
0.00126858
0.00127816
0.0012893
0.00130154
0.0013143
0.00132705
0.00133944
0.00135132
0.00136189
0.00137028
0.00137682
0.00138227
0.00138715
0.00139185
0.00139671
0.00140197
0.00140778
0.00141427
0.00142142
0.00142901
0.0014364
0.00144256
0.00144653
0.00144802
0.00131159
0.00131334
0.00131842
0.00132382
0.00132881
0.00133329
0.00133747
0.0013418
0.00134676
0.00135259
0.00135924
0.0013665
0.00137402
0.00138152
0.00138877
0.0013957
0.00140183
0.00140668
0.00141044
0.00141354
0.00141628
0.0014189
0.00142157
0.00142443
0.00142757
0.00143109
0.001435
0.00143926
0.00144362
0.00144751
0.00145027
0.00145146
0.0014053
0.00140673
0.00140943
0.00141189
0.00141402
0.00141583
0.00141742
0.00141896
0.00142063
0.00142254
0.00142471
0.00142707
0.00142952
0.00143195
0.0014343
0.00143654
0.00143851
0.00144007
0.00144128
0.00144227
0.00144314
0.00144397
0.0014448
0.00144569
0.00144666
0.00144775
0.00144896
0.00145028
0.00145167
0.00145297
0.00145397
0.00145446
)
;


// ************************************************************************* //
