/*--------------------------------*- C++ -*----------------------------------*\
| =========                 |                                                 |
| \\      /  F ield         | OpenFOAM: The Open Source CFD Toolbox           |
|  \\    /   O peration     | Version:  2212                                  |
|   \\  /    A nd           | Website:  www.openfoam.com                      |
|    \\/     M anipulation  |                                                 |
\*---------------------------------------------------------------------------*/
FoamFile
{
    version     2.0;
    format      ascii;
    arch        "LSB;label=64;scalar=64";
    class       volScalarField;
    location    "1160";
    object      Gh2;
}
// * * * * * * * * * * * * * * * * * * * * * * * * * * * * * * * * * * * * * //

dimensions      [1 -3 0 0 0 0 0];

internalField   nonuniform List<scalar> 
1024
(
1.28948e-05
1.28935e-05
1.28905e-05
1.28851e-05
1.28764e-05
1.28641e-05
1.28479e-05
1.2828e-05
1.28055e-05
1.27817e-05
1.27585e-05
1.2738e-05
1.27226e-05
1.27151e-05
1.27167e-05
1.27278e-05
1.27476e-05
1.27724e-05
1.27991e-05
1.28266e-05
1.28544e-05
1.28817e-05
1.29077e-05
1.29314e-05
1.29518e-05
1.29684e-05
1.29812e-05
1.29904e-05
1.29967e-05
1.30006e-05
1.30027e-05
1.30036e-05
1.28945e-05
1.28933e-05
1.28902e-05
1.28846e-05
1.28758e-05
1.28633e-05
1.28467e-05
1.28266e-05
1.28038e-05
1.27799e-05
1.27565e-05
1.27358e-05
1.27205e-05
1.27131e-05
1.27148e-05
1.2726e-05
1.2746e-05
1.27709e-05
1.27976e-05
1.28252e-05
1.2853e-05
1.28804e-05
1.29065e-05
1.29303e-05
1.29509e-05
1.29677e-05
1.29807e-05
1.29901e-05
1.29964e-05
1.30004e-05
1.30025e-05
1.30034e-05
1.28939e-05
1.28926e-05
1.28894e-05
1.28836e-05
1.28744e-05
1.28614e-05
1.28444e-05
1.28237e-05
1.28003e-05
1.27758e-05
1.27519e-05
1.27308e-05
1.27152e-05
1.27081e-05
1.27103e-05
1.2722e-05
1.27423e-05
1.27676e-05
1.27945e-05
1.28221e-05
1.28501e-05
1.28776e-05
1.29039e-05
1.2928e-05
1.2949e-05
1.29662e-05
1.29795e-05
1.29892e-05
1.29958e-05
1.29999e-05
1.30021e-05
1.3003e-05
1.28929e-05
1.28916e-05
1.28882e-05
1.2882e-05
1.28724e-05
1.28587e-05
1.28408e-05
1.28191e-05
1.27948e-05
1.27691e-05
1.27439e-05
1.27217e-05
1.27056e-05
1.26989e-05
1.27021e-05
1.27149e-05
1.27362e-05
1.27622e-05
1.27896e-05
1.28176e-05
1.28457e-05
1.28734e-05
1.29e-05
1.29246e-05
1.29461e-05
1.29639e-05
1.29778e-05
1.29879e-05
1.29948e-05
1.29991e-05
1.30014e-05
1.30024e-05
1.28915e-05
1.28901e-05
1.28865e-05
1.28799e-05
1.28697e-05
1.28551e-05
1.28361e-05
1.2813e-05
1.2787e-05
1.27593e-05
1.27318e-05
1.27075e-05
1.26904e-05
1.26844e-05
1.26892e-05
1.2704e-05
1.27271e-05
1.27546e-05
1.2783e-05
1.28116e-05
1.28401e-05
1.28682e-05
1.28951e-05
1.29202e-05
1.29423e-05
1.29609e-05
1.29754e-05
1.29861e-05
1.29934e-05
1.29979e-05
1.30004e-05
1.30014e-05
1.28897e-05
1.28881e-05
1.28844e-05
1.28774e-05
1.28665e-05
1.28509e-05
1.28304e-05
1.28054e-05
1.27768e-05
1.27459e-05
1.27148e-05
1.26872e-05
1.26685e-05
1.26632e-05
1.26706e-05
1.26885e-05
1.27147e-05
1.27446e-05
1.27748e-05
1.28047e-05
1.28339e-05
1.28624e-05
1.28897e-05
1.29153e-05
1.29381e-05
1.29574e-05
1.29727e-05
1.2984e-05
1.29917e-05
1.29965e-05
1.29992e-05
1.30002e-05
1.28874e-05
1.28859e-05
1.28819e-05
1.28746e-05
1.28629e-05
1.28462e-05
1.28239e-05
1.27964e-05
1.27642e-05
1.27286e-05
1.26923e-05
1.26602e-05
1.26392e-05
1.26348e-05
1.26454e-05
1.26679e-05
1.26986e-05
1.27324e-05
1.27655e-05
1.27973e-05
1.28277e-05
1.28569e-05
1.28848e-05
1.29108e-05
1.29342e-05
1.29541e-05
1.297e-05
1.29818e-05
1.29899e-05
1.2995e-05
1.29978e-05
1.29989e-05
1.28849e-05
1.28833e-05
1.28792e-05
1.28715e-05
1.28591e-05
1.28411e-05
1.28168e-05
1.27859e-05
1.27489e-05
1.27071e-05
1.2664e-05
1.26261e-05
1.26024e-05
1.2599e-05
1.26137e-05
1.26419e-05
1.26788e-05
1.27181e-05
1.27556e-05
1.27904e-05
1.28227e-05
1.2853e-05
1.28814e-05
1.29078e-05
1.29315e-05
1.29518e-05
1.2968e-05
1.29801e-05
1.29884e-05
1.29936e-05
1.29965e-05
1.29976e-05
1.28821e-05
1.28805e-05
1.28762e-05
1.28682e-05
1.28551e-05
1.28356e-05
1.28087e-05
1.27737e-05
1.27307e-05
1.2681e-05
1.26296e-05
1.25852e-05
1.25586e-05
1.25564e-05
1.25758e-05
1.26108e-05
1.26553e-05
1.27021e-05
1.27456e-05
1.27848e-05
1.28199e-05
1.28518e-05
1.2881e-05
1.29076e-05
1.29313e-05
1.29514e-05
1.29674e-05
1.29794e-05
1.29877e-05
1.29928e-05
1.29956e-05
1.29968e-05
1.2879e-05
1.28773e-05
1.28729e-05
1.28645e-05
1.28506e-05
1.28295e-05
1.27996e-05
1.27595e-05
1.2709e-05
1.26499e-05
1.25888e-05
1.25373e-05
1.25082e-05
1.25077e-05
1.25322e-05
1.25743e-05
1.26277e-05
1.26838e-05
1.27354e-05
1.27808e-05
1.28201e-05
1.28544e-05
1.28845e-05
1.29112e-05
1.29344e-05
1.29537e-05
1.2969e-05
1.29803e-05
1.29881e-05
1.29929e-05
1.29955e-05
1.29966e-05
1.28755e-05
1.28737e-05
1.2869e-05
1.28602e-05
1.28453e-05
1.28221e-05
1.27884e-05
1.27422e-05
1.26826e-05
1.26125e-05
1.25406e-05
1.24819e-05
1.24508e-05
1.24525e-05
1.24815e-05
1.25303e-05
1.25927e-05
1.26598e-05
1.27221e-05
1.27764e-05
1.28221e-05
1.28602e-05
1.2892e-05
1.29188e-05
1.29411e-05
1.29591e-05
1.29729e-05
1.29829e-05
1.29897e-05
1.29938e-05
1.2996e-05
1.29969e-05
1.2871e-05
1.28691e-05
1.28641e-05
1.28546e-05
1.28383e-05
1.28125e-05
1.27741e-05
1.27201e-05
1.26496e-05
1.25666e-05
1.24832e-05
1.24175e-05
1.23848e-05
1.23879e-05
1.24192e-05
1.24713e-05
1.25405e-05
1.26186e-05
1.26943e-05
1.27618e-05
1.2818e-05
1.28633e-05
1.28992e-05
1.29273e-05
1.29491e-05
1.29655e-05
1.29773e-05
1.29854e-05
1.29904e-05
1.29932e-05
1.29945e-05
1.29949e-05
1.28645e-05
1.28625e-05
1.28571e-05
1.28466e-05
1.28283e-05
1.27988e-05
1.27542e-05
1.26905e-05
1.26069e-05
1.25093e-05
1.24139e-05
1.23415e-05
1.23062e-05
1.23073e-05
1.23347e-05
1.23822e-05
1.24502e-05
1.25339e-05
1.26219e-05
1.27056e-05
1.27791e-05
1.28391e-05
1.28859e-05
1.29205e-05
1.29451e-05
1.29616e-05
1.29716e-05
1.29769e-05
1.29789e-05
1.29789e-05
1.29781e-05
1.29774e-05
1.2854e-05
1.28518e-05
1.28458e-05
1.28338e-05
1.28127e-05
1.27781e-05
1.27252e-05
1.26495e-05
1.25507e-05
1.24375e-05
1.23301e-05
1.22504e-05
1.22091e-05
1.22002e-05
1.22118e-05
1.22399e-05
1.22894e-05
1.23612e-05
1.24474e-05
1.25396e-05
1.26295e-05
1.27106e-05
1.27788e-05
1.28318e-05
1.28698e-05
1.28937e-05
1.29058e-05
1.29095e-05
1.2908e-05
1.29043e-05
1.29005e-05
1.28983e-05
1.28355e-05
1.28331e-05
1.28264e-05
1.28126e-05
1.27876e-05
1.27463e-05
1.26829e-05
1.25929e-05
1.24779e-05
1.23499e-05
1.22314e-05
1.21428e-05
1.20889e-05
1.2059e-05
1.20407e-05
1.20311e-05
1.2037e-05
1.20652e-05
1.2115e-05
1.21814e-05
1.22585e-05
1.23398e-05
1.24193e-05
1.24916e-05
1.25529e-05
1.25998e-05
1.26312e-05
1.26489e-05
1.2656e-05
1.26566e-05
1.26545e-05
1.26526e-05
1.28023e-05
1.27998e-05
1.27925e-05
1.27767e-05
1.27478e-05
1.26998e-05
1.26267e-05
1.25253e-05
1.23992e-05
1.22621e-05
1.21352e-05
1.20349e-05
1.19625e-05
1.19067e-05
1.18559e-05
1.18059e-05
1.17606e-05
1.17273e-05
1.17105e-05
1.17105e-05
1.17271e-05
1.1759e-05
1.18041e-05
1.18588e-05
1.19186e-05
1.19782e-05
1.20326e-05
1.20773e-05
1.21096e-05
1.21294e-05
1.21392e-05
1.21424e-05
1.27583e-05
1.27562e-05
1.27494e-05
1.27342e-05
1.27057e-05
1.2658e-05
1.25858e-05
1.24865e-05
1.23638e-05
1.22291e-05
1.20993e-05
1.19887e-05
1.19017e-05
1.1832e-05
1.17711e-05
1.17134e-05
1.16576e-05
1.1603e-05
1.155e-05
1.15008e-05
1.1459e-05
1.1428e-05
1.14104e-05
1.14079e-05
1.14203e-05
1.14456e-05
1.14796e-05
1.15164e-05
1.15498e-05
1.15754e-05
1.15911e-05
1.15978e-05
1.2715e-05
1.27135e-05
1.27082e-05
1.26959e-05
1.26717e-05
1.26304e-05
1.25667e-05
1.24782e-05
1.23673e-05
1.22425e-05
1.21174e-05
1.20052e-05
1.19138e-05
1.18435e-05
1.17901e-05
1.17493e-05
1.17166e-05
1.16813e-05
1.16364e-05
1.15826e-05
1.15239e-05
1.14657e-05
1.14128e-05
1.13692e-05
1.13375e-05
1.13187e-05
1.13122e-05
1.13154e-05
1.13246e-05
1.13352e-05
1.13436e-05
1.13479e-05
1.26767e-05
1.26759e-05
1.26725e-05
1.26636e-05
1.26451e-05
1.26121e-05
1.25599e-05
1.24855e-05
1.23897e-05
1.22788e-05
1.2163e-05
1.20545e-05
1.19629e-05
1.18927e-05
1.18438e-05
1.18134e-05
1.1796e-05
1.17759e-05
1.17411e-05
1.16896e-05
1.16246e-05
1.15524e-05
1.14803e-05
1.1415e-05
1.13612e-05
1.13211e-05
1.12946e-05
1.12798e-05
1.1274e-05
1.12735e-05
1.12752e-05
1.12767e-05
1.26428e-05
1.26427e-05
1.26409e-05
1.26352e-05
1.26222e-05
1.25975e-05
1.25567e-05
1.24966e-05
1.2417e-05
1.23218e-05
1.22187e-05
1.21178e-05
1.20288e-05
1.19582e-05
1.19084e-05
1.18785e-05
1.18627e-05
1.1846e-05
1.18158e-05
1.17675e-05
1.17019e-05
1.1623e-05
1.15382e-05
1.14559e-05
1.13838e-05
1.13267e-05
1.12862e-05
1.1261e-05
1.12479e-05
1.12429e-05
1.12422e-05
1.12427e-05
1.2612e-05
1.26124e-05
1.26121e-05
1.26092e-05
1.26009e-05
1.25835e-05
1.25528e-05
1.25057e-05
1.24414e-05
1.23621e-05
1.22733e-05
1.21829e-05
1.20991e-05
1.20285e-05
1.19749e-05
1.19382e-05
1.19144e-05
1.18913e-05
1.18587e-05
1.18111e-05
1.17471e-05
1.16685e-05
1.15801e-05
1.14895e-05
1.14054e-05
1.13348e-05
1.12816e-05
1.12464e-05
1.12264e-05
1.12174e-05
1.1215e-05
1.1215e-05
1.25818e-05
1.25827e-05
1.25839e-05
1.25837e-05
1.25797e-05
1.25684e-05
1.25463e-05
1.25104e-05
1.24595e-05
1.23948e-05
1.232e-05
1.22407e-05
1.2163e-05
1.20926e-05
1.20333e-05
1.19857e-05
1.1948e-05
1.19131e-05
1.18735e-05
1.18238e-05
1.17612e-05
1.16856e-05
1.15994e-05
1.1508e-05
1.14191e-05
1.13403e-05
1.12777e-05
1.12337e-05
1.12072e-05
1.11943e-05
1.11901e-05
1.11897e-05
1.25474e-05
1.25493e-05
1.25524e-05
1.25553e-05
1.25557e-05
1.25502e-05
1.25357e-05
1.25091e-05
1.24693e-05
1.24166e-05
1.23533e-05
1.22829e-05
1.22097e-05
1.2138e-05
1.20713e-05
1.20108e-05
1.19575e-05
1.19095e-05
1.18621e-05
1.18097e-05
1.17488e-05
1.16777e-05
1.15969e-05
1.15099e-05
1.14223e-05
1.13411e-05
1.1273e-05
1.12224e-05
1.11901e-05
1.11733e-05
1.11672e-05
1.11664e-05
1.25025e-05
1.25057e-05
1.25116e-05
1.25186e-05
1.25242e-05
1.25249e-05
1.25171e-05
1.24982e-05
1.24665e-05
1.24218e-05
1.23654e-05
1.22994e-05
1.22269e-05
1.21515e-05
1.20766e-05
1.20037e-05
1.19368e-05
1.18784e-05
1.18252e-05
1.17717e-05
1.17138e-05
1.16488e-05
1.15757e-05
1.14963e-05
1.14144e-05
1.13356e-05
1.12662e-05
1.12116e-05
1.11747e-05
1.11543e-05
1.11463e-05
1.11449e-05
1.24404e-05
1.24453e-05
1.24547e-05
1.24665e-05
1.24777e-05
1.24844e-05
1.24824e-05
1.24686e-05
1.24411e-05
1.23995e-05
1.23445e-05
1.22779e-05
1.22028e-05
1.21227e-05
1.20409e-05
1.19593e-05
1.18838e-05
1.18197e-05
1.17645e-05
1.17125e-05
1.16595e-05
1.16021e-05
1.15385e-05
1.1469e-05
1.13959e-05
1.13231e-05
1.12561e-05
1.12006e-05
1.11607e-05
1.11372e-05
1.11272e-05
1.11252e-05
1.23556e-05
1.23626e-05
1.23754e-05
1.23913e-05
1.24066e-05
1.2417e-05
1.24178e-05
1.24055e-05
1.2378e-05
1.2335e-05
1.22776e-05
1.22082e-05
1.21302e-05
1.20473e-05
1.19628e-05
1.18786e-05
1.18012e-05
1.1737e-05
1.16838e-05
1.1636e-05
1.15894e-05
1.15407e-05
1.14876e-05
1.14294e-05
1.13671e-05
1.13031e-05
1.12417e-05
1.11882e-05
1.11474e-05
1.11218e-05
1.111e-05
1.11074e-05
1.2245e-05
1.22539e-05
1.22685e-05
1.22851e-05
1.22998e-05
1.2309e-05
1.2308e-05
1.22931e-05
1.22628e-05
1.22171e-05
1.21576e-05
1.20873e-05
1.201e-05
1.19293e-05
1.18481e-05
1.17679e-05
1.16951e-05
1.16359e-05
1.15882e-05
1.15467e-05
1.15076e-05
1.14679e-05
1.14255e-05
1.13791e-05
1.13286e-05
1.12755e-05
1.12223e-05
1.11736e-05
1.11342e-05
1.11078e-05
1.10947e-05
1.10913e-05
1.21067e-05
1.21166e-05
1.21294e-05
1.21406e-05
1.21482e-05
1.21502e-05
1.21431e-05
1.21239e-05
1.20912e-05
1.20453e-05
1.19879e-05
1.19221e-05
1.18514e-05
1.17789e-05
1.1707e-05
1.16369e-05
1.15739e-05
1.15233e-05
1.14834e-05
1.14495e-05
1.14184e-05
1.13877e-05
1.13554e-05
1.13203e-05
1.12818e-05
1.12403e-05
1.11973e-05
1.11558e-05
1.11203e-05
1.10948e-05
1.1081e-05
1.1077e-05
1.19387e-05
1.19474e-05
1.19528e-05
1.19526e-05
1.19483e-05
1.19401e-05
1.19263e-05
1.19044e-05
1.18729e-05
1.18318e-05
1.17824e-05
1.17271e-05
1.16687e-05
1.16096e-05
1.15516e-05
1.14956e-05
1.14458e-05
1.14062e-05
1.13753e-05
1.13495e-05
1.13264e-05
1.1304e-05
1.12809e-05
1.1256e-05
1.12286e-05
1.11987e-05
1.11666e-05
1.11343e-05
1.11048e-05
1.10821e-05
1.10689e-05
1.10644e-05
1.17365e-05
1.17401e-05
1.17333e-05
1.17203e-05
1.17057e-05
1.16905e-05
1.16738e-05
1.16536e-05
1.16281e-05
1.15966e-05
1.15598e-05
1.15193e-05
1.14769e-05
1.14344e-05
1.1393e-05
1.13533e-05
1.13181e-05
1.12903e-05
1.12689e-05
1.12512e-05
1.12356e-05
1.12207e-05
1.12056e-05
1.11894e-05
1.11718e-05
1.11523e-05
1.1131e-05
1.11087e-05
1.10871e-05
1.10693e-05
1.10579e-05
1.10536e-05
1.14915e-05
1.1486e-05
1.14698e-05
1.14527e-05
1.14368e-05
1.14226e-05
1.14092e-05
1.13952e-05
1.13791e-05
1.13601e-05
1.13382e-05
1.13142e-05
1.12893e-05
1.12643e-05
1.12401e-05
1.1217e-05
1.11966e-05
1.11805e-05
1.11682e-05
1.11581e-05
1.11493e-05
1.1141e-05
1.11327e-05
1.11239e-05
1.11143e-05
1.11037e-05
1.10921e-05
1.10795e-05
1.10668e-05
1.10555e-05
1.10476e-05
1.10442e-05
1.11932e-05
1.11887e-05
1.11801e-05
1.11723e-05
1.11655e-05
1.11597e-05
1.11547e-05
1.11497e-05
1.11443e-05
1.11381e-05
1.11309e-05
1.11232e-05
1.11151e-05
1.1107e-05
1.10991e-05
1.10917e-05
1.10851e-05
1.10799e-05
1.10759e-05
1.10727e-05
1.10699e-05
1.10673e-05
1.10647e-05
1.1062e-05
1.1059e-05
1.10557e-05
1.10521e-05
1.10482e-05
1.10441e-05
1.10404e-05
1.10375e-05
1.10361e-05
)
;

boundaryField
{
    movingWall
    {
        type            fixedValue;
        value           uniform 1.1032e-05;
    }
    fixedWalls
    {
        type            zeroGradient;
    }
    floor
    {
        type            zeroGradient;
    }
    frontAndBack
    {
        type            empty;
    }
}


// ************************************************************************* //
