/*--------------------------------*- C++ -*----------------------------------*\
| =========                 |                                                 |
| \\      /  F ield         | OpenFOAM: The Open Source CFD Toolbox           |
|  \\    /   O peration     | Version:  2212                                  |
|   \\  /    A nd           | Website:  www.openfoam.com                      |
|    \\/     M anipulation  |                                                 |
\*---------------------------------------------------------------------------*/
FoamFile
{
    version     2.0;
    format      ascii;
    arch        "LSB;label=64;scalar=64";
    class       volScalarField;
    location    "1160";
    object      p;
}
// * * * * * * * * * * * * * * * * * * * * * * * * * * * * * * * * * * * * * //

dimensions      [0 2 -2 0 0 0 0];

internalField   nonuniform List<scalar> 
1024
(
0
-2.27939e-06
-4.82562e-06
-5.86683e-06
-4.10876e-06
1.36069e-06
1.16543e-05
2.83607e-05
5.31055e-05
8.56434e-05
0.000119386
0.000136655
0.000125641
7.67004e-05
-5.00551e-06
-0.000104169
-0.000206821
-0.000296177
-0.000360934
-0.000402203
-0.000426358
-0.000439493
-0.000446057
-0.00044904
-0.000450334
-0.000450937
-0.000451147
-0.000450815
-0.000449758
-0.000448113
-0.00044641
-0.000445382
-0.092811
-0.0928134
-0.0928158
-0.0928167
-0.0928153
-0.0928108
-0.0928019
-0.0927867
-0.0927637
-0.0927331
-0.0927013
-0.0926857
-0.0926971
-0.0927445
-0.0928246
-0.0929224
-0.093024
-0.0931124
-0.0931762
-0.0932167
-0.0932403
-0.0932529
-0.0932591
-0.0932617
-0.0932626
-0.0932628
-0.0932627
-0.0932622
-0.0932612
-0.0932597
-0.0932582
-0.0932571
-0.199426
-0.199429
-0.199431
-0.199433
-0.199432
-0.199429
-0.199423
-0.19941
-0.19939
-0.199362
-0.199333
-0.19932
-0.199332
-0.199378
-0.199455
-0.199551
-0.19965
-0.199737
-0.199799
-0.199838
-0.199861
-0.199872
-0.199877
-0.199879
-0.199879
-0.199879
-0.199878
-0.199877
-0.199876
-0.199874
-0.199873
-0.199871
-0.3219
-0.321904
-0.321907
-0.32191
-0.321911
-0.321911
-0.321907
-0.321898
-0.321881
-0.321857
-0.321831
-0.321822
-0.321836
-0.321879
-0.321953
-0.322045
-0.322141
-0.322225
-0.322285
-0.322322
-0.322342
-0.322352
-0.322356
-0.322356
-0.322354
-0.322352
-0.32235
-0.322349
-0.322347
-0.322345
-0.322343
-0.322341
-0.462596
-0.462601
-0.462605
-0.46261
-0.462614
-0.462617
-0.462617
-0.462612
-0.462599
-0.462579
-0.462557
-0.462552
-0.462568
-0.462609
-0.462678
-0.462765
-0.462857
-0.462938
-0.462996
-0.463029
-0.463047
-0.463054
-0.463054
-0.463052
-0.463048
-0.463044
-0.46304
-0.463038
-0.463035
-0.463033
-0.46303
-0.463027
-0.624229
-0.624234
-0.624239
-0.624245
-0.624252
-0.624259
-0.624263
-0.624262
-0.624254
-0.624238
-0.624222
-0.62422
-0.624239
-0.624279
-0.624343
-0.624424
-0.624511
-0.624588
-0.624642
-0.624672
-0.624685
-0.624688
-0.624685
-0.624679
-0.624672
-0.624665
-0.624659
-0.624655
-0.624651
-0.624648
-0.624644
-0.62464
-0.809914
-0.809919
-0.809925
-0.809933
-0.809942
-0.809952
-0.80996
-0.809963
-0.809958
-0.809947
-0.809936
-0.809938
-0.80996
-0.809999
-0.810059
-0.810134
-0.810215
-0.810288
-0.810339
-0.810364
-0.810373
-0.810371
-0.810364
-0.810353
-0.810342
-0.810332
-0.810323
-0.810316
-0.81031
-0.810306
-0.810302
-0.810298
-1.02323
-1.02323
-1.02324
-1.02325
-1.02326
-1.02327
-1.02328
-1.02329
-1.02328
-1.02328
-1.02327
-1.02328
-1.0233
-1.02334
-1.0234
-1.02347
-1.02354
-1.02361
-1.02366
-1.02368
-1.02369
-1.02368
-1.02367
-1.02365
-1.02364
-1.02362
-1.02361
-1.0236
-1.02359
-1.02359
-1.02358
-1.02358
-1.26828
-1.26828
-1.26829
-1.2683
-1.26831
-1.26832
-1.26833
-1.26834
-1.26834
-1.26833
-1.26833
-1.26834
-1.26837
-1.26841
-1.26846
-1.26853
-1.2686
-1.26867
-1.26871
-1.26873
-1.26873
-1.26872
-1.2687
-1.26868
-1.26866
-1.26864
-1.26863
-1.26862
-1.26861
-1.2686
-1.2686
-1.26859
-1.54978
-1.54978
-1.54978
-1.54979
-1.5498
-1.54981
-1.54982
-1.54983
-1.54983
-1.54983
-1.54983
-1.54985
-1.54988
-1.54992
-1.54997
-1.55003
-1.5501
-1.55016
-1.55021
-1.55022
-1.55022
-1.5502
-1.55018
-1.55016
-1.55014
-1.55011
-1.5501
-1.55008
-1.55007
-1.55006
-1.55006
-1.55006
-1.87314
-1.87314
-1.87314
-1.87314
-1.87315
-1.87316
-1.87317
-1.87317
-1.87317
-1.87318
-1.87319
-1.87321
-1.87324
-1.87328
-1.87333
-1.87339
-1.87345
-1.87351
-1.87356
-1.87357
-1.87356
-1.87354
-1.87352
-1.87349
-1.87347
-1.87344
-1.87342
-1.87341
-1.87339
-1.87339
-1.87339
-1.87339
-2.24458
-2.24458
-2.24458
-2.24458
-2.24458
-2.24459
-2.24459
-2.2446
-2.2446
-2.2446
-2.24462
-2.24464
-2.24468
-2.24472
-2.24477
-2.24482
-2.24488
-2.24494
-2.24498
-2.24499
-2.24498
-2.24495
-2.24492
-2.24489
-2.24486
-2.24484
-2.24481
-2.2448
-2.24479
-2.24478
-2.24478
-2.24478
-2.67125
-2.67125
-2.67125
-2.67125
-2.67125
-2.67125
-2.67125
-2.67125
-2.67126
-2.67126
-2.67128
-2.67131
-2.67135
-2.67139
-2.67144
-2.67149
-2.67154
-2.67158
-2.6716
-2.67161
-2.67159
-2.67156
-2.67152
-2.67149
-2.67145
-2.67142
-2.6714
-2.67139
-2.67138
-2.67138
-2.67138
-2.67138
-3.16137
-3.16137
-3.16137
-3.16137
-3.16137
-3.16137
-3.16137
-3.16137
-3.16137
-3.16138
-3.1614
-3.16143
-3.16147
-3.16151
-3.16156
-3.16161
-3.16164
-3.16166
-3.16166
-3.16164
-3.16161
-3.16156
-3.16151
-3.16147
-3.16143
-3.16141
-3.1614
-3.16139
-3.16139
-3.16139
-3.16139
-3.16139
-3.72439
-3.72439
-3.72439
-3.72439
-3.72439
-3.72439
-3.72439
-3.72439
-3.72439
-3.72441
-3.72443
-3.72447
-3.72451
-3.72456
-3.72461
-3.72465
-3.72468
-3.72467
-3.72464
-3.72458
-3.72451
-3.72443
-3.72435
-3.7243
-3.72426
-3.72424
-3.72423
-3.72423
-3.72424
-3.72424
-3.72424
-3.72424
-4.37118
-4.37118
-4.37118
-4.37118
-4.37119
-4.37119
-4.37119
-4.37119
-4.3712
-4.37122
-4.37125
-4.37129
-4.37133
-4.37139
-4.37144
-4.37149
-4.37151
-4.3715
-4.37145
-4.37137
-4.37128
-4.37117
-4.37107
-4.37099
-4.37093
-4.3709
-4.37089
-4.37089
-4.37089
-4.3709
-4.3709
-4.3709
-5.06279
-5.06279
-5.06279
-5.06279
-5.0628
-5.06281
-5.06282
-5.06283
-5.06284
-5.06286
-5.06289
-5.06293
-5.06298
-5.06303
-5.06309
-5.06314
-5.06317
-5.06316
-5.06312
-5.06305
-5.06296
-5.06286
-5.06276
-5.06267
-5.06259
-5.06254
-5.06251
-5.0625
-5.06249
-5.0625
-5.06251
-5.06251
-5.70964
-5.70964
-5.70964
-5.70964
-5.70965
-5.70967
-5.70968
-5.7097
-5.70973
-5.70975
-5.70978
-5.70982
-5.70987
-5.70993
-5.70999
-5.71004
-5.71007
-5.71007
-5.71004
-5.70999
-5.70992
-5.70983
-5.70974
-5.70965
-5.70957
-5.7095
-5.70946
-5.70944
-5.70943
-5.70944
-5.70944
-5.70945
-6.27273
-6.27273
-6.27273
-6.27273
-6.27274
-6.27276
-6.27278
-6.27281
-6.27284
-6.27288
-6.27291
-6.27296
-6.27301
-6.27307
-6.27313
-6.27319
-6.27322
-6.27321
-6.27319
-6.27315
-6.2731
-6.27303
-6.27296
-6.27288
-6.2728
-6.27273
-6.27268
-6.27265
-6.27263
-6.27263
-6.27264
-6.27265
-6.76289
-6.76289
-6.76289
-6.76289
-6.7629
-6.76292
-6.76295
-6.76298
-6.76302
-6.76307
-6.76311
-6.76316
-6.76321
-6.76328
-6.76334
-6.76341
-6.76344
-6.76344
-6.76341
-6.76338
-6.76333
-6.76328
-6.76322
-6.76316
-6.76309
-6.76302
-6.76296
-6.76292
-6.7629
-6.76289
-6.7629
-6.76291
-7.18958
-7.18958
-7.18957
-7.18958
-7.18958
-7.1896
-7.18963
-7.18967
-7.18971
-7.18976
-7.18982
-7.18987
-7.18994
-7.19001
-7.19008
-7.19015
-7.19018
-7.19018
-7.19016
-7.19012
-7.19007
-7.19002
-7.18997
-7.18991
-7.18985
-7.18978
-7.18972
-7.18967
-7.18964
-7.18964
-7.18964
-7.18965
-7.56102
-7.56101
-7.56101
-7.56101
-7.56102
-7.56103
-7.56105
-7.56109
-7.56114
-7.56119
-7.56126
-7.56133
-7.5614
-7.56148
-7.56156
-7.56164
-7.56168
-7.56168
-7.56165
-7.56161
-7.56156
-7.5615
-7.56144
-7.56138
-7.56132
-7.56125
-7.56118
-7.56112
-7.56108
-7.56107
-7.56107
-7.56108
-7.88437
-7.88436
-7.88436
-7.88436
-7.88436
-7.88437
-7.88439
-7.88441
-7.88446
-7.88452
-7.88459
-7.88468
-7.88476
-7.88486
-7.88495
-7.88503
-7.88507
-7.88508
-7.88505
-7.885
-7.88494
-7.88488
-7.8848
-7.88473
-7.88465
-7.88457
-7.88449
-7.88441
-7.88436
-7.88434
-7.88434
-7.88435
-8.16586
-8.16586
-8.16585
-8.16585
-8.16585
-8.16585
-8.16585
-8.16587
-8.16591
-8.16598
-8.16606
-8.16616
-8.16626
-8.16636
-8.16647
-8.16655
-8.1666
-8.16661
-8.16658
-8.16653
-8.16646
-8.16638
-8.16629
-8.1662
-8.16609
-8.16599
-8.16588
-8.16578
-8.1657
-8.16566
-8.16566
-8.16567
-8.41091
-8.41091
-8.41091
-8.4109
-8.41089
-8.41088
-8.41088
-8.41088
-8.41092
-8.41099
-8.41108
-8.41119
-8.41131
-8.41143
-8.41154
-8.41163
-8.41169
-8.41169
-8.41167
-8.41161
-8.41154
-8.41145
-8.41134
-8.41121
-8.41107
-8.41093
-8.41078
-8.41065
-8.41053
-8.41046
-8.41044
-8.41045
-8.62425
-8.62425
-8.62425
-8.62424
-8.62422
-8.62419
-8.62417
-8.62417
-8.6242
-8.62427
-8.62438
-8.6245
-8.62463
-8.62476
-8.62488
-8.62498
-8.62504
-8.62505
-8.62503
-8.62497
-8.62489
-8.62479
-8.62466
-8.6245
-8.62432
-8.62413
-8.62392
-8.62373
-8.62357
-8.62345
-8.6234
-8.62339
-8.80998
-8.80998
-8.80998
-8.80996
-8.80993
-8.80989
-8.80986
-8.80985
-8.80988
-8.80995
-8.81006
-8.8102
-8.81034
-8.81048
-8.81061
-8.81072
-8.81078
-8.81079
-8.81077
-8.81071
-8.81062
-8.81051
-8.81036
-8.81018
-8.80996
-8.8097
-8.80943
-8.80916
-8.80892
-8.80872
-8.80862
-8.80858
-8.97169
-8.97169
-8.97168
-8.97164
-8.97159
-8.97154
-8.9715
-8.97148
-8.97151
-8.9716
-8.97172
-8.97186
-8.97201
-8.97216
-8.9723
-8.97241
-8.97247
-8.97249
-8.97246
-8.9724
-8.97231
-8.97219
-8.97203
-8.97182
-8.97156
-8.97125
-8.9709
-8.97054
-8.97019
-8.96989
-8.96969
-8.96959
-9.11252
-9.11251
-9.11247
-9.11241
-9.11234
-9.11227
-9.11221
-9.1122
-9.11223
-9.11232
-9.11245
-9.1126
-9.11276
-9.11291
-9.11305
-9.11317
-9.11324
-9.11325
-9.11323
-9.11317
-9.11307
-9.11294
-9.11277
-9.11254
-9.11225
-9.11189
-9.11147
-9.11101
-9.11053
-9.11007
-9.10972
-9.10949
-9.23524
-9.23517
-9.23507
-9.23496
-9.23486
-9.23477
-9.23471
-9.2347
-9.23473
-9.23483
-9.23496
-9.23512
-9.23528
-9.23544
-9.23559
-9.2357
-9.23577
-9.23579
-9.23577
-9.23571
-9.23561
-9.23548
-9.23529
-9.23505
-9.23474
-9.23435
-9.23388
-9.23334
-9.23271
-9.23204
-9.23141
-9.23086
-9.34241
-9.34202
-9.34178
-9.34162
-9.3415
-9.34141
-9.34135
-9.34134
-9.34138
-9.34148
-9.34162
-9.34178
-9.34195
-9.34211
-9.34226
-9.34238
-9.34245
-9.34247
-9.34245
-9.34238
-9.34229
-9.34215
-9.34196
-9.34172
-9.34139
-9.34099
-9.34049
-9.33989
-9.33915
-9.33825
-9.33714
-9.33589
-9.4363
-9.43507
-9.4346
-9.43444
-9.43433
-9.43424
-9.43418
-9.43417
-9.43422
-9.43433
-9.43447
-9.43464
-9.43481
-9.43497
-9.43512
-9.43524
-9.43532
-9.43534
-9.43532
-9.43525
-9.43516
-9.43502
-9.43483
-9.43459
-9.43426
-9.43386
-9.43335
-9.43272
-9.43191
-9.43081
-9.42921
-9.42695
)
;

boundaryField
{
    movingWall
    {
        type            calculated;
        value           nonuniform List<scalar> 
32
(
-9.47952
-9.47829
-9.47782
-9.47766
-9.47755
-9.47745
-9.4774
-9.47739
-9.47744
-9.47755
-9.47769
-9.47786
-9.47803
-9.47819
-9.47834
-9.47847
-9.47854
-9.47856
-9.47854
-9.47848
-9.47838
-9.47824
-9.47806
-9.47781
-9.47749
-9.47708
-9.47657
-9.47594
-9.47513
-9.47404
-9.47243
-9.47017
)
;
    }
    fixedWalls
    {
        type            calculated;
        value           nonuniform List<scalar> 
64
(
6.93889e-18
-0.092811
-0.199426
-0.3219
-0.462596
-0.624229
-0.809914
-1.02323
-1.26828
-1.54978
-1.87314
-2.24458
-2.67125
-3.16137
-3.72439
-4.37118
-5.06279
-5.70964
-6.27273
-6.76289
-7.18958
-7.56102
-7.88437
-8.16586
-8.41091
-8.62425
-8.80998
-8.97169
-9.11252
-9.23524
-9.34241
-9.4363
-0.000445382
-0.0932571
-0.199871
-0.322341
-0.463027
-0.62464
-0.810298
-1.02358
-1.26859
-1.55006
-1.87339
-2.24478
-2.67138
-3.16139
-3.72424
-4.3709
-5.06251
-5.70945
-6.27265
-6.76291
-7.18965
-7.56108
-7.88435
-8.16567
-8.41045
-8.62339
-8.80858
-8.96959
-9.10949
-9.23086
-9.33589
-9.42695
)
;
    }
    floor
    {
        type            calculated;
        value           nonuniform List<scalar> 
32
(
0.0431946
0.0431924
0.0431898
0.0431889
0.0431907
0.0431963
0.0432067
0.0432236
0.0432485
0.0432812
0.0433151
0.0433325
0.0433216
0.0432725
0.0431907
0.0430913
0.0429886
0.0428991
0.0428342
0.0427929
0.0427686
0.0427554
0.0427488
0.0427457
0.0427444
0.0427437
0.0427435
0.0427437
0.0427448
0.0427464
0.0427481
0.0427491
)
;
    }
    frontAndBack
    {
        type            empty;
    }
}


// ************************************************************************* //
