/*--------------------------------*- C++ -*----------------------------------*\
| =========                 |                                                 |
| \\      /  F ield         | OpenFOAM: The Open Source CFD Toolbox           |
|  \\    /   O peration     | Version:  2212                                  |
|   \\  /    A nd           | Website:  www.openfoam.com                      |
|    \\/     M anipulation  |                                                 |
\*---------------------------------------------------------------------------*/
FoamFile
{
    version     2.0;
    format      ascii;
    arch        "LSB;label=64;scalar=64";
    class       volScalarField;
    location    "1160";
    object      p_rgh;
}
// * * * * * * * * * * * * * * * * * * * * * * * * * * * * * * * * * * * * * //

dimensions      [0 2 -2 0 0 0 0];

internalField   nonuniform List<scalar> 
1024
(
0.0431946
0.0431924
0.0431898
0.0431889
0.0431907
0.0431963
0.0432067
0.0432236
0.0432485
0.0432812
0.0433151
0.0433325
0.0433216
0.0432725
0.0431907
0.0430913
0.0429886
0.0428991
0.0428342
0.0427929
0.0427686
0.0427554
0.0427488
0.0427457
0.0427444
0.0427437
0.0427435
0.0427437
0.0427448
0.0427464
0.0427481
0.0427491
0.043199
0.0431967
0.0431946
0.0431943
0.0431965
0.0432021
0.0432124
0.043229
0.0432535
0.0432859
0.0433195
0.0433365
0.0433257
0.0432773
0.0431957
0.0430964
0.0429935
0.042904
0.0428391
0.0427977
0.0427733
0.04276
0.0427532
0.0427499
0.0427483
0.0427475
0.0427471
0.0427471
0.0427478
0.0427491
0.0427505
0.0427516
0.0432064
0.0432037
0.0432019
0.0432024
0.0432055
0.0432119
0.0432228
0.0432399
0.0432651
0.0432983
0.0433326
0.0433497
0.0433391
0.0432909
0.0432091
0.0431092
0.0430056
0.0429153
0.0428497
0.0428078
0.042783
0.0427692
0.0427619
0.0427582
0.0427561
0.0427547
0.0427537
0.0427532
0.0427533
0.0427541
0.0427555
0.0427568
0.0432148
0.0432115
0.0432099
0.0432116
0.0432165
0.0432248
0.0432376
0.0432568
0.0432842
0.0433196
0.0433553
0.0433728
0.0433623
0.0433141
0.043232
0.0431315
0.0430267
0.0429348
0.0428677
0.0428245
0.0427987
0.042784
0.0427758
0.0427713
0.0427683
0.0427659
0.0427637
0.042762
0.0427611
0.0427614
0.0427629
0.0427648
0.0432206
0.0432172
0.0432163
0.0432199
0.0432277
0.0432395
0.043256
0.0432789
0.0433099
0.043348
0.0433848
0.0434023
0.0433914
0.0433438
0.0432626
0.0431625
0.0430571
0.0429634
0.0428939
0.0428489
0.0428215
0.0428053
0.0427958
0.0427899
0.0427854
0.0427813
0.0427772
0.0427735
0.0427711
0.0427705
0.042772
0.0427744
0.0432191
0.0432162
0.0432169
0.0432236
0.0432358
0.043253
0.0432752
0.0433034
0.0433387
0.0433787
0.0434151
0.0434313
0.0434192
0.0433732
0.0432955
0.0431982
0.043094
0.0429996
0.0429276
0.0428804
0.0428512
0.0428332
0.0428218
0.0428138
0.042807
0.0428002
0.0427931
0.0427866
0.0427817
0.0427797
0.0427809
0.0427837
0.0432057
0.0432039
0.043207
0.0432181
0.0432366
0.0432613
0.043291
0.0433256
0.0433648
0.0434052
0.0434398
0.0434537
0.0434398
0.0433957
0.0433231
0.0432313
0.0431309
0.0430379
0.0429649
0.0429164
0.0428857
0.0428657
0.0428518
0.042841
0.0428309
0.0428201
0.0428087
0.0427979
0.0427897
0.0427855
0.0427859
0.0427886
0.0431776
0.0431773
0.0431836
0.0431999
0.0432262
0.0432602
0.0432989
0.0433404
0.0433829
0.0434236
0.0434561
0.0434675
0.0434512
0.043408
0.0433404
0.0432547
0.0431598
0.0430702
0.042999
0.0429511
0.0429201
0.0428987
0.0428822
0.0428676
0.0428528
0.0428365
0.0428191
0.0428026
0.0427899
0.0427829
0.0427818
0.042784
0.0431351
0.0431364
0.0431459
0.0431679
0.0432028
0.0432472
0.0432959
0.0433449
0.0433916
0.0434341
0.0434664
0.0434758
0.043456
0.0434119
0.0433471
0.0432657
0.0431751
0.0430891
0.0430221
0.0429768
0.0429479
0.0429262
0.0429071
0.0428879
0.0428669
0.0428433
0.0428182
0.0427949
0.042777
0.0427669
0.042764
0.0427652
0.0430804
0.0430834
0.0430958
0.0431231
0.0431665
0.0432216
0.0432811
0.0433391
0.043393
0.0434417
0.0434768
0.043484
0.0434595
0.0434121
0.043347
0.0432666
0.0431767
0.0430912
0.0430268
0.0429868
0.0429623
0.0429418
0.0429204
0.042896
0.0428674
0.042835
0.0428012
0.0427709
0.0427485
0.0427357
0.0427312
0.0427312
0.0430165
0.0430207
0.0430356
0.0430674
0.0431184
0.0431839
0.0432552
0.0433255
0.0433925
0.0434536
0.0434943
0.0434987
0.0434677
0.043414
0.0433455
0.0432639
0.0431708
0.0430804
0.0430125
0.0429789
0.0429592
0.0429407
0.042917
0.0428868
0.0428502
0.042809
0.0427679
0.0427329
0.0427082
0.0426946
0.042689
0.042688
0.0429441
0.0429494
0.0429662
0.0430016
0.043059
0.0431348
0.0432201
0.0433082
0.0433967
0.0434771
0.0435248
0.0435249
0.0434863
0.0434254
0.0433513
0.0432652
0.0431668
0.0430693
0.042993
0.0429496
0.0429332
0.0429179
0.042893
0.0428583
0.0428159
0.0427702
0.0427276
0.0426935
0.0426707
0.0426581
0.0426526
0.0426507
0.0428616
0.0428674
0.0428857
0.0429241
0.0429877
0.0430748
0.0431787
0.0432933
0.0434124
0.0435172
0.0435709
0.0435657
0.0435203
0.0434542
0.0433763
0.0432876
0.0431873
0.0430842
0.0429937
0.0429267
0.042891
0.0428731
0.0428515
0.0428217
0.0427837
0.0427427
0.0427051
0.0426759
0.0426569
0.0426466
0.042642
0.0426399
0.0427657
0.0427714
0.0427906
0.042832
0.042903
0.0430061
0.0431383
0.043293
0.0434517
0.0435739
0.0436297
0.0436209
0.0435748
0.0435116
0.0434389
0.0433585
0.0432714
0.043182
0.0430975
0.0430206
0.0429525
0.0428958
0.0428576
0.0428323
0.0427985
0.0427612
0.0427285
0.0427043
0.0426899
0.0426837
0.0426819
0.0426813
0.0426547
0.0426593
0.042678
0.0427225
0.0428049
0.0429337
0.0431107
0.0433229
0.0435269
0.0436609
0.0437079
0.0436988
0.0436627
0.0436161
0.0435654
0.0435121
0.0434636
0.0434244
0.043395
0.043373
0.0433508
0.0433159
0.0432534
0.0431597
0.0430582
0.0429676
0.0429152
0.0428826
0.0428659
0.042862
0.0428647
0.0428679
0.0425307
0.0425318
0.0425466
0.0425918
0.0426866
0.0428475
0.0430787
0.043354
0.0436077
0.0437741
0.0438448
0.0438543
0.0438336
0.0437976
0.0437545
0.0437177
0.0437023
0.0437098
0.0437389
0.0437878
0.0438499
0.0439139
0.043965
0.0439873
0.0439659
0.0438918
0.0437631
0.0436243
0.043508
0.0434344
0.0434047
0.043397
0.0423978
0.0423922
0.0423958
0.04243
0.0425206
0.0426913
0.0429479
0.043256
0.0435419
0.0437415
0.0438472
0.0438903
0.0439002
0.0438915
0.0438696
0.0438394
0.0438168
0.0438211
0.0438485
0.0438964
0.0439616
0.0440383
0.0441173
0.0441879
0.0442407
0.0442697
0.044273
0.0442532
0.0442162
0.0441715
0.0441302
0.0441099
0.0423228
0.0423086
0.0422955
0.0423073
0.0423735
0.0425242
0.0427765
0.0430956
0.0434072
0.0436418
0.0437819
0.0438533
0.0438858
0.0438958
0.0438899
0.0438742
0.0438576
0.0438532
0.0438619
0.0438822
0.0439153
0.0439615
0.0440186
0.0440805
0.0441389
0.044186
0.0442171
0.044232
0.0442341
0.044228
0.0442186
0.0442108
0.0423475
0.0423246
0.0422935
0.0422794
0.0423136
0.0424271
0.0426389
0.0429322
0.043255
0.0435292
0.0437053
0.0438041
0.0438558
0.043881
0.0438897
0.0438911
0.043897
0.0438951
0.0438941
0.0438945
0.0438977
0.0439079
0.0439296
0.0439634
0.044005
0.0440467
0.0440809
0.0441032
0.0441137
0.0441155
0.044112
0.0441068
0.0424591
0.0424285
0.0423808
0.0423409
0.042341
0.0424133
0.0425787
0.0428303
0.0431286
0.0434099
0.0436184
0.0437481
0.0438199
0.0438572
0.043875
0.0438859
0.0439064
0.0439221
0.0439264
0.0439272
0.0439222
0.0439129
0.0439066
0.0439115
0.0439304
0.0439586
0.0439882
0.0440114
0.0440246
0.0440286
0.0440259
0.0440206
0.0426266
0.0425906
0.0425298
0.042467
0.0424353
0.0424675
0.0425865
0.0427915
0.0430532
0.043319
0.0435369
0.0436863
0.0437752
0.0438224
0.0438451
0.0438581
0.0438769
0.0439019
0.0439239
0.0439422
0.0439515
0.043947
0.043931
0.0439195
0.0439204
0.0439362
0.0439604
0.0439835
0.0439986
0.0440043
0.0440019
0.0439958
0.0428186
0.0427802
0.0427106
0.0426305
0.0425723
0.0425699
0.0426473
0.0428082
0.0430291
0.0432658
0.0434728
0.0436254
0.043722
0.0437747
0.0437993
0.0438115
0.0438275
0.0438571
0.0438915
0.0439258
0.0439534
0.0439693
0.0439724
0.0439668
0.0439613
0.0439717
0.0439955
0.0440222
0.044042
0.0440506
0.0440489
0.044042
0.0430088
0.0429703
0.0428969
0.0428066
0.0427298
0.042701
0.0427459
0.0428695
0.0430508
0.0432522
0.0434342
0.0435739
0.0436659
0.0437173
0.0437406
0.0437509
0.0437653
0.0437969
0.0438398
0.0438873
0.0439327
0.043971
0.0439999
0.0440204
0.044037
0.0440548
0.0440863
0.0441245
0.0441555
0.0441711
0.0441715
0.044164
0.0431781
0.043141
0.0430681
0.0429748
0.0428888
0.0428447
0.0428682
0.0429637
0.0431106
0.0432745
0.043423
0.0435377
0.0436139
0.0436562
0.043674
0.043681
0.0436939
0.0437257
0.0437753
0.0438332
0.0438942
0.0439544
0.0440118
0.0440667
0.0441203
0.044173
0.044228
0.0442874
0.0443399
0.0443701
0.0443758
0.044369
0.0433145
0.0432792
0.0432102
0.0431211
0.0430367
0.0429895
0.0430037
0.0430805
0.0431982
0.0433253
0.0434362
0.0435188
0.043571
0.0435972
0.0436049
0.0436062
0.0436164
0.0436485
0.0437014
0.0437668
0.0438412
0.0439221
0.0440092
0.044103
0.0442034
0.0443078
0.0444113
0.0445089
0.0445957
0.0446536
0.0446717
0.0446692
0.0434124
0.043378
0.0433159
0.0432397
0.0431688
0.0431295
0.043145
0.0432116
0.0433044
0.0433959
0.043468
0.0435147
0.043538
0.0435429
0.0435362
0.0435285
0.0435344
0.0435655
0.0436197
0.0436912
0.0437772
0.0438775
0.0439939
0.0441284
0.0442814
0.0444484
0.0446195
0.0447811
0.0449207
0.0450263
0.0450718
0.0450817
0.0434734
0.0434398
0.0433863
0.0433299
0.0432848
0.043265
0.0432883
0.0433497
0.0434201
0.0434772
0.0435104
0.04352
0.0435118
0.0434922
0.0434678
0.0434488
0.0434492
0.0434786
0.0435337
0.0436106
0.043707
0.0438248
0.0439686
0.0441426
0.0443491
0.0445839
0.0448349
0.0450828
0.0453052
0.0454846
0.0455854
0.0456243
0.0434925
0.0434632
0.0434254
0.0433982
0.0433882
0.0433957
0.0434307
0.043488
0.0435361
0.0435593
0.0435545
0.0435276
0.0434873
0.0434422
0.0433993
0.0433685
0.0433636
0.0433918
0.0434487
0.0435305
0.0436361
0.0437693
0.0439367
0.0441457
0.044401
0.0447015
0.0450369
0.0453869
0.0457234
0.0460126
0.0462109
0.0463091
0.0434494
0.0434374
0.0434341
0.0434514
0.0434831
0.0435213
0.0435691
0.0436193
0.0436434
0.0436335
0.0435925
0.0435311
0.043461
0.0433923
0.0433326
0.0432919
0.0432833
0.0433114
0.0433708
0.0434574
0.043571
0.0437164
0.0439024
0.0441388
0.0444334
0.0447892
0.0452021
0.0456585
0.0461342
0.0465869
0.0469397
0.0471679
0.0432909
0.0433453
0.0434207
0.0435013
0.0435745
0.0436411
0.0436993
0.0437366
0.0437354
0.0436943
0.0436209
0.0435296
0.0434344
0.0433465
0.0432737
0.0432261
0.0432157
0.0432449
0.043307
0.0433979
0.0435174
0.0436714
0.0438698
0.0441244
0.0444453
0.0448398
0.0453116
0.0458611
0.0464832
0.047152
0.0477835
0.048336
0.0428179
0.043196
0.0434256
0.0435702
0.0436741
0.0437558
0.0438126
0.0438338
0.0438094
0.0437416
0.0436421
0.0435276
0.0434137
0.043312
0.0432307
0.0431792
0.0431683
0.0431987
0.0432631
0.0433568
0.0434796
0.043638
0.0438427
0.0441062
0.0444398
0.0448539
0.0453587
0.0459694
0.0467113
0.047621
0.0487298
0.0499903
0.0418079
0.0430375
0.0434997
0.0436538
0.04376
0.043842
0.043891
0.0438986
0.0438576
0.0437725
0.0436567
0.0435283
0.0434039
0.0432951
0.0432095
0.043156
0.043145
0.0431762
0.0432415
0.0433363
0.0434602
0.0436199
0.0438261
0.0440915
0.0444278
0.0448466
0.0453621
0.0460008
0.046817
0.0479203
0.0495307
0.0517959
)
;

boundaryField
{
    movingWall
    {
        type            fixedFluxPressure;
        gradient        uniform 0;
        value           nonuniform List<scalar> 
32
(
0.0418079
0.0430375
0.0434997
0.0436538
0.04376
0.043842
0.043891
0.0438986
0.0438576
0.0437725
0.0436567
0.0435283
0.0434039
0.0432951
0.0432095
0.043156
0.043145
0.0431762
0.0432415
0.0433363
0.0434602
0.0436199
0.0438261
0.0440915
0.0444278
0.0448466
0.0453621
0.0460008
0.046817
0.0479203
0.0495307
0.0517959
)
;
    }
    fixedWalls
    {
        type            fixedFluxPressure;
        gradient        uniform 0;
        value           nonuniform List<scalar> 
64
(
0.0431946
0.043199
0.0432064
0.0432148
0.0432206
0.0432191
0.0432057
0.0431776
0.0431351
0.0430804
0.0430165
0.0429441
0.0428616
0.0427657
0.0426547
0.0425307
0.0423978
0.0423228
0.0423475
0.0424591
0.0426266
0.0428186
0.0430088
0.0431781
0.0433145
0.0434124
0.0434734
0.0434925
0.0434494
0.0432909
0.0428179
0.0418079
0.0427491
0.0427516
0.0427568
0.0427648
0.0427744
0.0427837
0.0427886
0.042784
0.0427652
0.0427312
0.042688
0.0426507
0.0426399
0.0426813
0.0428679
0.043397
0.0441099
0.0442108
0.0441068
0.0440206
0.0439958
0.044042
0.044164
0.044369
0.0446692
0.0450817
0.0456243
0.0463091
0.0471679
0.048336
0.0499903
0.0517959
)
;
    }
    floor
    {
        type            fixedFluxPressure;
        gradient        uniform 0;
        value           nonuniform List<scalar> 
32
(
0.0431946
0.0431924
0.0431898
0.0431889
0.0431907
0.0431963
0.0432067
0.0432236
0.0432485
0.0432812
0.0433151
0.0433325
0.0433216
0.0432725
0.0431907
0.0430913
0.0429886
0.0428991
0.0428342
0.0427929
0.0427686
0.0427554
0.0427488
0.0427457
0.0427444
0.0427437
0.0427435
0.0427437
0.0427448
0.0427464
0.0427481
0.0427491
)
;
    }
    frontAndBack
    {
        type            empty;
    }
}


// ************************************************************************* //
