/*--------------------------------*- C++ -*----------------------------------*\
| =========                 |                                                 |
| \\      /  F ield         | OpenFOAM: The Open Source CFD Toolbox           |
|  \\    /   O peration     | Version:  2212                                  |
|   \\  /    A nd           | Website:  www.openfoam.com                      |
|    \\/     M anipulation  |                                                 |
\*---------------------------------------------------------------------------*/
FoamFile
{
    version     2.0;
    format      ascii;
    arch        "LSB;label=64;scalar=64";
    class       volScalarField;
    location    "1160";
    object      Saa;
}
// * * * * * * * * * * * * * * * * * * * * * * * * * * * * * * * * * * * * * //

dimensions      [1 -3 0 0 0 0 0];

internalField   nonuniform List<scalar> 
1024
(
0.00546099
0.00546103
0.00546111
0.00546127
0.00546151
0.00546185
0.0054623
0.00546285
0.00546347
0.00546413
0.00546476
0.00546531
0.00546572
0.00546591
0.00546584
0.0054655
0.00546492
0.0054642
0.00546343
0.00546265
0.00546185
0.00546106
0.00546031
0.00545962
0.00545902
0.00545854
0.00545816
0.00545789
0.00545771
0.00545759
0.00545753
0.0054575
0.005461
0.00546104
0.00546112
0.00546128
0.00546152
0.00546187
0.00546233
0.00546289
0.00546352
0.00546418
0.00546481
0.00546537
0.00546578
0.00546596
0.00546589
0.00546554
0.00546496
0.00546424
0.00546347
0.00546269
0.00546189
0.0054611
0.00546034
0.00545965
0.00545905
0.00545856
0.00545818
0.0054579
0.00545771
0.0054576
0.00545753
0.00545751
0.00546102
0.00546105
0.00546114
0.00546131
0.00546156
0.00546192
0.0054624
0.00546297
0.00546362
0.00546429
0.00546494
0.00546551
0.00546592
0.00546609
0.005466
0.00546565
0.00546505
0.00546433
0.00546356
0.00546277
0.00546197
0.00546118
0.00546042
0.00545971
0.0054591
0.0054586
0.00545821
0.00545792
0.00545773
0.00545761
0.00545754
0.00545752
0.00546104
0.00546108
0.00546118
0.00546135
0.00546162
0.005462
0.0054625
0.0054631
0.00546377
0.00546447
0.00546515
0.00546575
0.00546617
0.00546633
0.00546622
0.00546583
0.00546521
0.00546446
0.00546368
0.00546289
0.00546209
0.00546129
0.00546052
0.00545981
0.00545919
0.00545867
0.00545826
0.00545796
0.00545776
0.00545763
0.00545756
0.00545754
0.00546108
0.00546112
0.00546122
0.00546141
0.00546169
0.0054621
0.00546263
0.00546326
0.00546398
0.00546473
0.00546547
0.00546612
0.00546657
0.00546671
0.00546655
0.00546611
0.00546544
0.00546466
0.00546385
0.00546304
0.00546223
0.00546143
0.00546066
0.00545994
0.00545929
0.00545875
0.00545833
0.00545801
0.0054578
0.00545767
0.00545759
0.00545756
0.00546114
0.00546118
0.00546128
0.00546148
0.00546178
0.00546221
0.00546278
0.00546347
0.00546425
0.00546509
0.00546593
0.00546666
0.00546715
0.00546726
0.00546702
0.0054665
0.00546574
0.0054649
0.00546405
0.00546321
0.00546239
0.00546159
0.0054608
0.00546007
0.00545941
0.00545885
0.0054584
0.00545807
0.00545785
0.0054577
0.00545763
0.0054576
0.0054612
0.00546124
0.00546135
0.00546155
0.00546188
0.00546234
0.00546295
0.00546371
0.00546459
0.00546555
0.00546653
0.00546738
0.00546791
0.00546799
0.00546766
0.00546701
0.00546613
0.00546518
0.00546427
0.00546339
0.00546254
0.00546172
0.00546093
0.00546019
0.00545951
0.00545894
0.00545848
0.00545813
0.0054579
0.00545775
0.00545767
0.00545763
0.00546127
0.00546131
0.00546143
0.00546164
0.00546198
0.00546248
0.00546315
0.00546399
0.005465
0.00546613
0.00546728
0.00546827
0.00546887
0.00546891
0.00546845
0.00546764
0.00546659
0.00546551
0.00546448
0.00546353
0.00546264
0.0054618
0.00546101
0.00546026
0.00545958
0.005459
0.00545853
0.00545818
0.00545794
0.00545778
0.0054577
0.00545767
0.00546134
0.00546139
0.00546151
0.00546173
0.00546209
0.00546262
0.00546336
0.00546432
0.00546549
0.00546682
0.00546819
0.00546934
0.00547
0.00546999
0.00546939
0.00546838
0.00546713
0.00546585
0.00546467
0.00546362
0.00546267
0.0054618
0.00546099
0.00546024
0.00545957
0.005459
0.00545854
0.00545819
0.00545795
0.0054578
0.00545772
0.00545769
0.00546142
0.00546147
0.0054616
0.00546183
0.00546221
0.00546279
0.00546361
0.0054647
0.00546606
0.00546764
0.00546926
0.00547059
0.00547129
0.0054712
0.00547045
0.00546923
0.00546773
0.00546621
0.00546484
0.00546364
0.00546259
0.00546167
0.00546085
0.00546011
0.00545946
0.00545892
0.00545848
0.00545815
0.00545793
0.00545779
0.00545771
0.00545768
0.00546152
0.00546157
0.0054617
0.00546194
0.00546235
0.00546298
0.0054639
0.00546516
0.00546676
0.00546863
0.00547052
0.00547201
0.00547274
0.00547256
0.00547166
0.00547024
0.0054685
0.00546669
0.00546505
0.00546363
0.00546244
0.00546144
0.00546059
0.00545986
0.00545924
0.00545874
0.00545835
0.00545806
0.00545787
0.00545775
0.00545768
0.00545766
0.00546164
0.00546169
0.00546183
0.00546209
0.00546254
0.00546324
0.00546428
0.00546574
0.00546763
0.00546983
0.00547201
0.00547366
0.00547439
0.00547414
0.00547314
0.00547161
0.00546968
0.00546759
0.0054656
0.00546386
0.00546242
0.00546125
0.00546031
0.00545956
0.00545897
0.00545852
0.00545819
0.00545796
0.00545782
0.00545773
0.00545769
0.00545768
0.00546182
0.00546187
0.00546202
0.00546231
0.00546281
0.00546361
0.00546481
0.00546653
0.00546876
0.00547133
0.0054738
0.0054756
0.00547636
0.00547612
0.00547519
0.00547375
0.00547183
0.00546958
0.00546728
0.00546512
0.00546325
0.00546172
0.00546052
0.00545963
0.00545899
0.00545855
0.00545827
0.00545812
0.00545806
0.00545805
0.00545806
0.00545808
0.0054621
0.00546216
0.00546233
0.00546265
0.00546323
0.00546416
0.00546559
0.00546762
0.00547025
0.00547322
0.00547598
0.00547793
0.00547881
0.0054788
0.00547825
0.00547728
0.0054758
0.00547381
0.00547153
0.00546914
0.00546685
0.0054648
0.00546308
0.00546174
0.00546078
0.00546017
0.00545986
0.00545976
0.00545979
0.00545987
0.00545997
0.00546002
0.00546261
0.00546268
0.00546286
0.00546323
0.00546391
0.00546502
0.00546672
0.00546913
0.00547218
0.00547553
0.00547855
0.00548071
0.0054819
0.00548242
0.00548263
0.0054826
0.00548216
0.0054812
0.00547977
0.00547798
0.00547597
0.0054739
0.0054719
0.0054701
0.00546858
0.00546742
0.00546665
0.00546621
0.00546604
0.00546602
0.00546608
0.00546612
0.00546353
0.00546359
0.00546379
0.00546421
0.00546499
0.00546629
0.00546825
0.00547096
0.0054743
0.00547788
0.00548113
0.0054836
0.00548529
0.0054865
0.00548755
0.00548853
0.00548932
0.0054898
0.00548989
0.00548961
0.005489
0.00548806
0.00548687
0.00548548
0.00548401
0.00548256
0.00548126
0.00548019
0.00547943
0.00547896
0.00547873
0.00547865
0.00546476
0.00546482
0.005465
0.0054654
0.00546617
0.00546745
0.00546939
0.00547205
0.00547532
0.00547888
0.00548226
0.00548506
0.0054872
0.00548885
0.00549023
0.00549145
0.0054925
0.00549342
0.00549425
0.00549498
0.00549557
0.00549597
0.00549612
0.005496
0.0054956
0.00549496
0.00549416
0.00549332
0.00549257
0.005492
0.00549166
0.00549151
0.00546601
0.00546604
0.00546618
0.0054665
0.00546715
0.00546826
0.00546998
0.00547236
0.00547534
0.00547868
0.00548199
0.00548493
0.00548728
0.00548905
0.00549036
0.00549128
0.00549188
0.00549239
0.00549298
0.0054937
0.00549449
0.00549529
0.00549602
0.00549664
0.00549709
0.00549736
0.00549744
0.00549737
0.0054972
0.005497
0.00549685
0.00549677
0.00546713
0.00546714
0.00546723
0.00546746
0.00546794
0.00546883
0.00547024
0.00547225
0.00547485
0.00547785
0.00548096
0.00548387
0.0054863
0.00548816
0.00548945
0.00549023
0.00549058
0.00549083
0.00549126
0.00549193
0.00549282
0.00549381
0.0054948
0.0054957
0.00549644
0.00549701
0.00549741
0.00549765
0.00549777
0.00549781
0.00549781
0.0054978
0.00546814
0.00546814
0.00546817
0.00546831
0.00546865
0.00546931
0.00547041
0.00547204
0.00547421
0.00547681
0.00547962
0.00548236
0.00548478
0.00548671
0.00548808
0.00548891
0.00548928
0.00548952
0.00548992
0.00549058
0.00549151
0.00549263
0.00549383
0.00549499
0.00549599
0.00549679
0.00549736
0.00549772
0.00549794
0.00549804
0.00549808
0.00549809
0.00546907
0.00546905
0.00546905
0.00546911
0.00546932
0.00546977
0.0054706
0.00547188
0.00547364
0.00547582
0.00547826
0.00548075
0.00548305
0.00548501
0.00548649
0.0054875
0.00548809
0.0054885
0.005489
0.0054897
0.00549065
0.00549181
0.00549309
0.00549439
0.00549557
0.00549655
0.00549729
0.00549779
0.00549809
0.00549824
0.0054983
0.00549831
0.00546996
0.00546993
0.00546989
0.00546988
0.00546997
0.00547027
0.00547085
0.00547183
0.00547323
0.00547501
0.00547708
0.00547927
0.00548141
0.00548334
0.00548495
0.0054862
0.0054871
0.00548779
0.00548847
0.00548927
0.00549025
0.0054914
0.00549268
0.00549401
0.00549528
0.00549639
0.00549725
0.00549786
0.00549824
0.00549843
0.00549851
0.00549853
0.00547088
0.00547083
0.00547075
0.00547068
0.00547067
0.00547081
0.00547121
0.00547193
0.00547302
0.00547447
0.00547621
0.00547813
0.00548011
0.00548203
0.00548377
0.00548527
0.0054865
0.00548748
0.00548835
0.00548925
0.00549024
0.00549136
0.0054926
0.00549389
0.00549515
0.0054963
0.00549724
0.00549793
0.00549838
0.00549862
0.00549872
0.00549875
0.00547196
0.00547189
0.00547176
0.0054716
0.00547148
0.00547149
0.00547171
0.00547223
0.0054731
0.0054743
0.00547581
0.00547755
0.00547943
0.00548135
0.00548321
0.00548494
0.00548643
0.00548764
0.00548866
0.00548962
0.0054906
0.00549165
0.00549279
0.00549399
0.00549518
0.0054963
0.00549727
0.00549801
0.00549852
0.0054988
0.00549892
0.00549895
0.00547333
0.00547323
0.00547303
0.00547278
0.00547255
0.00547243
0.00547252
0.00547291
0.00547363
0.0054747
0.00547609
0.00547774
0.00547958
0.00548152
0.00548345
0.00548532
0.00548697
0.0054883
0.00548938
0.00549034
0.00549126
0.00549222
0.00549323
0.00549429
0.00549537
0.00549641
0.00549735
0.00549811
0.00549865
0.00549896
0.00549911
0.00549915
0.00547508
0.00547493
0.00547468
0.00547436
0.00547405
0.00547386
0.00547388
0.00547421
0.00547488
0.00547591
0.00547727
0.00547889
0.0054807
0.00548261
0.00548453
0.00548641
0.00548807
0.0054894
0.00549046
0.00549135
0.00549219
0.00549301
0.00549387
0.00549478
0.00549571
0.00549663
0.0054975
0.00549823
0.00549877
0.00549911
0.00549927
0.00549932
0.00547727
0.00547709
0.0054768
0.00547648
0.00547619
0.00547602
0.00547607
0.00547642
0.00547711
0.00547813
0.00547946
0.00548102
0.00548274
0.00548453
0.00548632
0.00548807
0.00548963
0.00549085
0.0054918
0.0054926
0.00549331
0.00549399
0.00549469
0.00549542
0.00549619
0.00549696
0.00549771
0.00549838
0.0054989
0.00549925
0.00549942
0.00549948
0.00547994
0.00547975
0.0054795
0.00547928
0.00547913
0.0054791
0.00547925
0.00547967
0.00548036
0.00548135
0.00548257
0.00548398
0.00548551
0.00548708
0.00548863
0.00549014
0.00549148
0.00549252
0.00549333
0.00549398
0.00549456
0.0054951
0.00549564
0.0054962
0.00549679
0.0054974
0.00549801
0.00549858
0.00549905
0.00549938
0.00549956
0.00549961
0.00548313
0.00548297
0.00548286
0.00548285
0.00548293
0.00548309
0.00548337
0.00548381
0.00548446
0.00548531
0.00548634
0.0054875
0.00548874
0.00548999
0.00549123
0.00549243
0.00549348
0.0054943
0.00549492
0.00549542
0.00549586
0.00549626
0.00549665
0.00549705
0.00549748
0.00549792
0.00549838
0.00549883
0.00549922
0.00549951
0.00549967
0.00549973
0.00548693
0.00548686
0.00548699
0.00548722
0.0054875
0.00548778
0.00548811
0.00548851
0.00548902
0.00548966
0.00549041
0.00549125
0.00549213
0.00549303
0.00549391
0.00549475
0.00549549
0.00549607
0.0054965
0.00549685
0.00549715
0.00549742
0.00549767
0.00549794
0.00549821
0.00549851
0.00549881
0.00549912
0.00549941
0.00549964
0.00549978
0.00549983
0.0054915
0.0054916
0.0054919
0.00549222
0.00549251
0.00549278
0.00549303
0.00549331
0.00549363
0.00549401
0.00549445
0.00549494
0.00549546
0.00549598
0.0054965
0.00549699
0.00549742
0.00549775
0.005498
0.0054982
0.00549837
0.00549852
0.00549866
0.00549881
0.00549896
0.00549912
0.00549929
0.00549946
0.00549963
0.00549977
0.00549987
0.00549991
0.00549703
0.00549711
0.00549727
0.00549741
0.00549754
0.00549765
0.00549774
0.00549784
0.00549795
0.00549807
0.00549821
0.00549837
0.00549854
0.00549871
0.00549888
0.00549903
0.00549917
0.00549928
0.00549936
0.00549942
0.00549948
0.00549953
0.00549957
0.00549962
0.00549966
0.00549971
0.00549977
0.00549982
0.00549987
0.00549992
0.00549996
0.00549997
)
;

boundaryField
{
    movingWall
    {
        type            fixedValue;
        value           uniform 0.0055;
    }
    fixedWalls
    {
        type            zeroGradient;
    }
    floor
    {
        type            zeroGradient;
    }
    frontAndBack
    {
        type            empty;
    }
}


// ************************************************************************* //
