/*--------------------------------*- C++ -*----------------------------------*\
| =========                 |                                                 |
| \\      /  F ield         | OpenFOAM: The Open Source CFD Toolbox           |
|  \\    /   O peration     | Version:  2212                                  |
|   \\  /    A nd           | Website:  www.openfoam.com                      |
|    \\/     M anipulation  |                                                 |
\*---------------------------------------------------------------------------*/
FoamFile
{
    version     2.0;
    format      ascii;
    arch        "LSB;label=64;scalar=64";
    class       volScalarField;
    location    "1160";
    object      Sch4;
}
// * * * * * * * * * * * * * * * * * * * * * * * * * * * * * * * * * * * * * //

dimensions      [1 -3 0 0 0 0 0];

internalField   nonuniform List<scalar> 
1024
(
0.0340812
0.0340937
0.0341241
0.0341792
0.034266
0.0343902
0.0345542
0.0347551
0.0349837
0.0352257
0.0354628
0.0356738
0.0358331
0.0359136
0.0359024
0.0357961
0.035602
0.035356
0.0350914
0.0348177
0.0345419
0.0342711
0.0340143
0.0337812
0.0335807
0.0334176
0.0332923
0.0332018
0.0331405
0.0331023
0.0330814
0.0330729
0.0340838
0.0340965
0.0341276
0.0341839
0.0342725
0.0343992
0.034566
0.0347697
0.0350006
0.0352446
0.0354834
0.0356957
0.0358553
0.0359347
0.0359221
0.0358142
0.0356189
0.035372
0.0351067
0.0348325
0.0345561
0.0342846
0.0340266
0.033792
0.0335895
0.0334244
0.0332974
0.0332054
0.0331431
0.0331044
0.0330832
0.0330745
0.0340897
0.0341029
0.0341353
0.0341939
0.0342863
0.0344178
0.0345903
0.0347998
0.0350366
0.0352864
0.0355309
0.0357481
0.0359099
0.0359869
0.0359696
0.0358568
0.0356572
0.0354071
0.0351393
0.0348635
0.0345858
0.0343127
0.0340524
0.0338146
0.0336084
0.0334392
0.0333085
0.0332136
0.0331492
0.0331092
0.0330873
0.0330784
0.0340998
0.0341136
0.0341478
0.0342098
0.0343073
0.0344459
0.0346269
0.0348462
0.0350936
0.0353553
0.0356129
0.035842
0.0360094
0.0360823
0.0360552
0.0359313
0.0357218
0.0354639
0.0351906
0.034911
0.0346307
0.0343551
0.0340915
0.0338493
0.0336374
0.0334623
0.0333262
0.0332268
0.0331593
0.0331173
0.0330943
0.033085
0.0341143
0.0341289
0.0341651
0.034231
0.0343348
0.0344823
0.0346749
0.0349085
0.0351734
0.0354562
0.0357377
0.0359887
0.0361674
0.0362344
0.0361907
0.0360466
0.0358182
0.035545
0.0352606
0.0349736
0.0346885
0.0344092
0.0341415
0.0338938
0.0336752
0.0334928
0.0333498
0.0332449
0.0331733
0.0331287
0.0331044
0.0330946
0.0341331
0.0341484
0.0341867
0.0342567
0.0343674
0.0345254
0.0347327
0.0349862
0.0352775
0.0355938
0.0359133
0.036199
0.0363957
0.0364559
0.0363875
0.0362115
0.0359517
0.0356522
0.0353482
0.0350479
0.0347544
0.0344694
0.0341968
0.0339433
0.0337177
0.0335276
0.0333773
0.0332663
0.0331904
0.033143
0.0331173
0.0331069
0.0341556
0.0341716
0.0342118
0.0342858
0.0344037
0.0345734
0.0347989
0.0350791
0.0354077
0.0357723
0.0361462
0.0364799
0.0367018
0.0367548
0.0366539
0.0364329
0.0361265
0.0357861
0.0354508
0.0351287
0.0348212
0.0345276
0.0342488
0.0339897
0.0337579
0.0335612
0.0334045
0.0332883
0.0332084
0.0331586
0.0331316
0.0331207
0.0341813
0.0341979
0.0342397
0.0343174
0.0344425
0.0346253
0.0348729
0.0351875
0.0355657
0.0359949
0.0364402
0.0368345
0.0370869
0.0371324
0.0369921
0.0367138
0.0363443
0.0359457
0.0355639
0.0352084
0.0348793
0.0345727
0.0342864
0.0340222
0.0337863
0.0335857
0.0334254
0.0333061
0.033224
0.0331728
0.033145
0.0331338
0.0342098
0.0342269
0.0342702
0.0343514
0.0344841
0.0346817
0.0349555
0.035313
0.0357543
0.0362648
0.0367977
0.0372622
0.0375472
0.0375837
0.0373988
0.0370535
0.0366055
0.0361294
0.0356825
0.0352788
0.0349178
0.0345925
0.0342966
0.0340287
0.033792
0.0335919
0.0334325
0.0333141
0.0332328
0.033182
0.0331544
0.0331432
0.0342415
0.0342591
0.034304
0.0343892
0.0345304
0.0347451
0.0350505
0.0354605
0.0359791
0.0365882
0.0372228
0.0377638
0.0380796
0.0381034
0.0378715
0.037455
0.0369168
0.036343
0.0358086
0.0353372
0.03493
0.0345773
0.0342689
0.0339985
0.0337654
0.0335717
0.0334193
0.0333071
0.0332305
0.0331828
0.0331569
0.0331464
0.0342781
0.0342964
0.0343436
0.0344338
0.0345856
0.0348214
0.0351656
0.0356398
0.0362523
0.0369776
0.0377263
0.038346
0.0386884
0.0386967
0.0384229
0.0379427
0.0373124
0.0366234
0.0359745
0.0354064
0.0349292
0.0345333
0.0342043
0.0339302
0.0337042
0.033523
0.0333844
0.0332846
0.0332177
0.0331769
0.0331551
0.0331465
0.0343243
0.0343438
0.0343941
0.0344914
0.0346577
0.0349211
0.0353145
0.0358686
0.036595
0.0374555
0.0383278
0.0390255
0.0393923
0.0393933
0.0391025
0.0385923
0.0378945
0.0370902
0.0362992
0.0355904
0.0349984
0.0345233
0.0341485
0.0338569
0.0336334
0.0334663
0.0333467
0.0332662
0.0332165
0.0331895
0.0331774
0.0331737
0.0343906
0.0344115
0.0344664
0.0345741
0.0347611
0.0350624
0.0355205
0.0361753
0.0370388
0.0380527
0.0390545
0.0398296
0.0402306
0.0402606
0.040018
0.0395615
0.0388801
0.0380195
0.0371009
0.0362183
0.0354418
0.0348068
0.0343138
0.0339494
0.0336926
0.0335226
0.0334198
0.0333671
0.0333489
0.0333509
0.0333605
0.0333682
0.0344985
0.0345212
0.0345824
0.034705
0.0349215
0.0352755
0.0358192
0.0365997
0.0376225
0.038801
0.0399332
0.0407916
0.0412635
0.0414042
0.041332
0.0410859
0.0406078
0.0398803
0.0389853
0.0380169
0.037066
0.0362051
0.0354798
0.0349169
0.0345138
0.0342612
0.0341341
0.0340967
0.034114
0.0341551
0.0341957
0.0342199
0.0346869
0.0347113
0.0347799
0.0349221
0.0351785
0.0356025
0.0362552
0.0371836
0.0383762
0.0397121
0.0409643
0.0419214
0.0425292
0.0428931
0.0431382
0.0432967
0.0432916
0.0430412
0.0425483
0.0418658
0.0410587
0.0401975
0.0393514
0.0385788
0.0379219
0.0374181
0.0370811
0.0368908
0.0368138
0.0368074
0.0368301
0.0368505
0.0350233
0.0350489
0.0351248
0.035287
0.0355847
0.0360788
0.0368314
0.0378787
0.0391865
0.0406171
0.0419568
0.043034
0.0438316
0.0444645
0.0450506
0.0456399
0.0461924
0.0466199
0.0468648
0.0469196
0.0467841
0.0464705
0.046004
0.0454233
0.0447811
0.0441349
0.0435436
0.0430557
0.0427024
0.0424851
0.0423776
0.0423421
0.0354652
0.0354878
0.0355587
0.0357156
0.0360092
0.0364996
0.0372431
0.0382664
0.039535
0.0409346
0.0422942
0.0434654
0.044402
0.0451651
0.045845
0.0465064
0.0471702
0.0478439
0.0485091
0.0491343
0.0496728
0.0500811
0.0503263
0.0503908
0.0502759
0.0500068
0.0496327
0.0492234
0.048849
0.0485625
0.0483853
0.0483099
0.0358961
0.0359123
0.0359675
0.0360964
0.0363458
0.0367714
0.0374253
0.0383349
0.0394768
0.0407647
0.0420633
0.043235
0.0441969
0.0449447
0.0455207
0.0459761
0.0463688
0.0468223
0.0474071
0.048109
0.0488714
0.0496261
0.0503094
0.0508705
0.0512772
0.0515182
0.0516043
0.0515679
0.0514583
0.0513304
0.0512293
0.0511779
0.0362713
0.0362805
0.0363175
0.0364116
0.0366037
0.0369433
0.0374794
0.0382426
0.0392241
0.0403631
0.0415542
0.0426741
0.0436223
0.0443507
0.0448595
0.0451807
0.0453848
0.0456517
0.0461112
0.0467841
0.0476273
0.0485621
0.0494953
0.0503405
0.0510358
0.0515516
0.051889
0.052072
0.0521398
0.0521385
0.0521119
0.0520911
0.0365996
0.0366027
0.036623
0.0366844
0.0368212
0.0370768
0.037496
0.038111
0.0389244
0.0398974
0.0409512
0.0419829
0.0428937
0.0436151
0.0441207
0.0444252
0.044598
0.0448132
0.045208
0.0458324
0.046677
0.0476894
0.0487801
0.0498411
0.0507726
0.05151
0.0520315
0.0523532
0.0525166
0.0525745
0.0525785
0.0525688
0.0368968
0.0368942
0.0368997
0.0369324
0.0370212
0.0372035
0.0375195
0.0380009
0.0386568
0.0394642
0.0403668
0.041286
0.0421381
0.0428545
0.0433973
0.04377
0.0440281
0.0443074
0.04472
0.0453251
0.0461388
0.0471409
0.0482714
0.0494343
0.0505184
0.0514304
0.0521168
0.0525714
0.0528262
0.0529362
0.0529628
0.0529589
0.037194
0.0371846
0.0371741
0.0371784
0.0372232
0.0373417
0.0375698
0.0379371
0.0384556
0.0391127
0.0398709
0.0406755
0.0414648
0.0421822
0.0427901
0.0432854
0.0436981
0.0441078
0.0445929
0.0452129
0.0459988
0.0469549
0.048051
0.0492188
0.050362
0.051378
0.0521874
0.0527561
0.0530976
0.0532605
0.0533106
0.0533121
0.0375474
0.0375278
0.0374949
0.0374639
0.0374602
0.0375164
0.0376663
0.0379375
0.0383433
0.0388792
0.0395232
0.0402414
0.0409928
0.0417344
0.0424325
0.0430794
0.0436709
0.0442266
0.0447962
0.0454385
0.0461947
0.0470872
0.0481086
0.0492161
0.0503377
0.0513836
0.0522643
0.0529198
0.053338
0.053553
0.0536283
0.0536361
0.0380347
0.0379993
0.0379338
0.0378549
0.0377912
0.0377793
0.0378553
0.0380479
0.0383724
0.0388313
0.0394143
0.0401009
0.0408612
0.0416592
0.0424624
0.0432578
0.0440086
0.0446836
0.0453148
0.0459625
0.0466741
0.0474839
0.0484027
0.04941
0.0504556
0.0514684
0.0523657
0.0530733
0.0535527
0.0538163
0.053918
0.053933
0.0387363
0.0386795
0.0385724
0.0384361
0.0383059
0.0382255
0.0382383
0.0383781
0.038664
0.0391025
0.0396873
0.0403996
0.0412091
0.0420786
0.0429741
0.0438789
0.0447327
0.0454728
0.0461233
0.046747
0.047394
0.0481041
0.0488994
0.0497776
0.0507097
0.0516432
0.0525079
0.0532285
0.0537477
0.0540526
0.0541806
0.0542041
0.0397161
0.0396345
0.039486
0.0393011
0.0391218
0.0389975
0.0389794
0.0391079
0.0394037
0.0398718
0.0405006
0.0412643
0.0421255
0.0430435
0.0439839
0.0449294
0.0458103
0.0465514
0.0471751
0.0477449
0.0483096
0.0489089
0.0495701
0.0503024
0.0510943
0.0519132
0.0527045
0.053399
0.0539307
0.0542648
0.0544172
0.0544501
0.0410132
0.0409084
0.040737
0.0405432
0.0403694
0.0402597
0.0402651
0.040428
0.0407659
0.0412782
0.0419459
0.0427351
0.0436039
0.0445114
0.0454258
0.0463328
0.0471647
0.0478487
0.0484068
0.0488991
0.0493701
0.0498553
0.0503816
0.0509638
0.0516025
0.052282
0.0529662
0.0535982
0.0541117
0.0544574
0.0546288
0.0546717
0.0426485
0.0425315
0.0423812
0.0422489
0.0421596
0.0421353
0.0422144
0.0424334
0.0428064
0.0433307
0.0439848
0.0447341
0.0455384
0.0463618
0.0471777
0.0479756
0.0486973
0.049281
0.049747
0.0501477
0.0505204
0.0508947
0.0512936
0.0517327
0.0522185
0.0527473
0.0533005
0.053838
0.0543019
0.0546365
0.0548172
0.0548692
0.0446463
0.044543
0.0444797
0.0444828
0.0445356
0.0446324
0.0447939
0.0450481
0.0454118
0.0458864
0.0464554
0.047091
0.0477608
0.0484363
0.0490973
0.0497363
0.0503081
0.0507655
0.0511253
0.0514289
0.0517052
0.0519766
0.0522611
0.0525716
0.052916
0.053297
0.0537081
0.0541273
0.054512
0.05481
0.0549855
0.0550432
0.047059
0.0470163
0.0470986
0.0472539
0.0474296
0.0476103
0.0478077
0.0480448
0.0483425
0.0487081
0.049134
0.049602
0.0500899
0.0505778
0.0510515
0.0515058
0.0519095
0.05223
0.0524797
0.0526876
0.0528737
0.0530533
0.0532386
0.053439
0.0536608
0.053908
0.0541807
0.05447
0.0547517
0.0549867
0.055138
0.0551947
0.0499895
0.0500563
0.0502497
0.0504555
0.0506454
0.0508154
0.0509742
0.051139
0.0513279
0.0515502
0.0518045
0.0520818
0.0523697
0.0526566
0.052934
0.0531987
0.0534329
0.0536182
0.0537616
0.05388
0.0539847
0.0540846
0.0541863
0.0542953
0.0544153
0.0545492
0.0546984
0.054861
0.055027
0.0551756
0.0552808
0.0553259
0.0535648
0.0536193
0.0537222
0.0538161
0.0538971
0.0539661
0.0540265
0.0540848
0.0541484
0.0542215
0.0543045
0.0543947
0.0544882
0.0545813
0.0546711
0.0547566
0.0548321
0.0548917
0.0549377
0.0549755
0.0550088
0.0550403
0.0550721
0.055106
0.0551431
0.0551845
0.0552305
0.0552812
0.0553342
0.0553838
0.0554219
0.0554403
)
;

boundaryField
{
    movingWall
    {
        type            fixedValue;
        value           uniform 0.0555;
    }
    fixedWalls
    {
        type            zeroGradient;
    }
    floor
    {
        type            zeroGradient;
    }
    frontAndBack
    {
        type            empty;
    }
}


// ************************************************************************* //
