/*--------------------------------*- C++ -*----------------------------------*\
| =========                 |                                                 |
| \\      /  F ield         | OpenFOAM: The Open Source CFD Toolbox           |
|  \\    /   O peration     | Version:  2212                                  |
|   \\  /    A nd           | Website:  www.openfoam.com                      |
|    \\/     M anipulation  |                                                 |
\*---------------------------------------------------------------------------*/
FoamFile
{
    version     2.0;
    format      ascii;
    arch        "LSB;label=64;scalar=64";
    class       volScalarField;
    location    "1160";
    object      Sco2;
}
// * * * * * * * * * * * * * * * * * * * * * * * * * * * * * * * * * * * * * //

dimensions      [1 -3 0 0 0 0 0];

internalField   nonuniform List<scalar> 
1024
(
0.00538629
0.00538864
0.00539436
0.00540472
0.00542102
0.00544437
0.0054752
0.00551296
0.00555593
0.00560144
0.00564605
0.00568576
0.00571577
0.00573093
0.00572886
0.00570888
0.00567238
0.00562614
0.00557639
0.00552495
0.00547311
0.00542222
0.00537395
0.00533017
0.00529249
0.00526184
0.00523831
0.00522129
0.00520978
0.00520261
0.00519868
0.00519708
0.00538677
0.00538916
0.005395
0.00540559
0.00542225
0.00544606
0.00547741
0.00551569
0.00555911
0.005605
0.00564992
0.00568987
0.00571994
0.00573492
0.00573256
0.00571229
0.00567557
0.00562916
0.00557927
0.00552772
0.00547578
0.00542474
0.00537626
0.00533218
0.00529415
0.00526313
0.00523926
0.00522198
0.00521028
0.00520299
0.00519901
0.00519738
0.00538789
0.00539037
0.00539645
0.00540748
0.00542483
0.00544955
0.00548197
0.00552137
0.00556588
0.00561285
0.00565885
0.00569975
0.00573022
0.00574475
0.00574151
0.00572031
0.00568278
0.00563575
0.00558541
0.00553355
0.00548136
0.00543003
0.00538112
0.00533644
0.00529769
0.00526591
0.00524135
0.00522352
0.00521143
0.0052039
0.00519978
0.00519811
0.00538978
0.00539238
0.0053988
0.00541045
0.00542877
0.00545482
0.00548886
0.00553007
0.00557659
0.00562581
0.00567427
0.0057174
0.00574896
0.00576271
0.00575764
0.00573435
0.00569496
0.00564645
0.00559506
0.00554249
0.0054898
0.00543801
0.00538848
0.00534296
0.00530315
0.00527026
0.00524467
0.005226
0.00521332
0.00520542
0.0052011
0.00519935
0.00539249
0.00539524
0.00540204
0.00541443
0.00543394
0.00546166
0.00549787
0.00554176
0.00559156
0.00564476
0.00569772
0.005745
0.0057787
0.00579138
0.00578317
0.00575607
0.00571312
0.00566173
0.00560824
0.00555428
0.00550068
0.00544818
0.00539787
0.00535133
0.00531026
0.00527599
0.00524911
0.00522939
0.00521595
0.00520757
0.00520301
0.00520116
0.00539601
0.0053989
0.00540609
0.00541925
0.00544006
0.00546975
0.00550871
0.00555635
0.00561111
0.00567059
0.00573071
0.00578453
0.00582169
0.00583311
0.00582026
0.00578715
0.00573828
0.00568193
0.00562476
0.00556829
0.0055131
0.00545953
0.00540828
0.00536064
0.00531824
0.00528253
0.00525428
0.00523343
0.00521916
0.00521026
0.00520542
0.00520347
0.00540023
0.00540324
0.00541078
0.00542469
0.00544684
0.00547874
0.00552111
0.00557376
0.00563552
0.00570407
0.00577445
0.00583737
0.0058793
0.00588941
0.00587045
0.00582889
0.00577123
0.00570719
0.00564411
0.00558353
0.0055257
0.00547049
0.00541808
0.00536937
0.00532581
0.00528885
0.00525941
0.00523756
0.00522256
0.0052132
0.00520811
0.00520607
0.00540503
0.00540814
0.00541599
0.00543058
0.00545409
0.00548844
0.00553493
0.00559403
0.00566511
0.00574581
0.00582965
0.00590403
0.00595177
0.00596053
0.00593419
0.00588184
0.0058123
0.0057373
0.00566546
0.00559858
0.00553667
0.00547901
0.00542517
0.00537552
0.00533117
0.00529346
0.00526333
0.00524091
0.0052255
0.00521587
0.00521064
0.00520853
0.00541033
0.00541353
0.00542166
0.00543692
0.00546184
0.00549894
0.00555035
0.00561749
0.00570039
0.0057964
0.00589676
0.00598444
0.00603842
0.00604554
0.00601085
0.00594589
0.00586157
0.00577196
0.00568786
0.00561191
0.00554399
0.00548278
0.00542714
0.00537677
0.00533227
0.00529465
0.00526469
0.00524243
0.00522714
0.0052176
0.00521241
0.00521031
0.00541619
0.00541949
0.00542793
0.00544392
0.00547042
0.00551072
0.00556804
0.005645
0.00574243
0.00585698
0.00597656
0.00607874
0.00613864
0.00614344
0.00609994
0.00602158
0.00592027
0.00581227
0.00571171
0.00562299
0.00554636
0.00548001
0.00542199
0.00537113
0.00532729
0.00529088
0.00526223
0.00524114
0.00522674
0.00521777
0.0052129
0.00521092
0.00542294
0.00542639
0.00543524
0.00545216
0.00548063
0.00552486
0.00558941
0.0056784
0.00579347
0.00592993
0.00607108
0.00618822
0.00625325
0.00625521
0.00620384
0.00611347
0.00599481
0.00586513
0.00574302
0.00563611
0.0055463
0.0054718
0.0054099
0.00535834
0.00531582
0.00528174
0.00525568
0.00523691
0.00522434
0.00521666
0.00521256
0.00521094
0.00543146
0.00543511
0.00544454
0.00546278
0.00549394
0.00554331
0.00561706
0.00572102
0.00585749
0.00601945
0.00618403
0.00631605
0.00638577
0.00638641
0.00633182
0.00623578
0.00610439
0.00595298
0.00580412
0.00567073
0.00555935
0.00546994
0.00539944
0.00534458
0.00530253
0.00527111
0.0052486
0.00523346
0.00522413
0.00521904
0.00521676
0.00521606
0.00544371
0.00544762
0.0054579
0.00547807
0.00551306
0.00556949
0.00565533
0.00577818
0.00594047
0.00613141
0.00632057
0.00646735
0.00654362
0.00654969
0.00650412
0.00641812
0.00628975
0.0061277
0.00595479
0.00578872
0.00564262
0.00552317
0.00543044
0.00536192
0.00531362
0.00528164
0.00526231
0.00525239
0.00524897
0.00524933
0.00525114
0.00525259
0.00546378
0.00546802
0.00547946
0.00550239
0.00554289
0.00560914
0.00571102
0.00585747
0.00604979
0.00627189
0.00648581
0.00664841
0.00673806
0.0067649
0.00675131
0.00670486
0.00661467
0.0064776
0.00630905
0.00612674
0.0059478
0.00578584
0.00564942
0.00554357
0.00546778
0.00542031
0.00539645
0.00538943
0.0053927
0.00540044
0.00540809
0.00541264
0.00549915
0.00550369
0.0055165
0.00554304
0.00559097
0.00567033
0.00579264
0.00596695
0.00619131
0.00644323
0.00667989
0.00686113
0.00697628
0.00704507
0.00709122
0.00712091
0.00711976
0.00707242
0.00697944
0.00685082
0.00669882
0.00653669
0.00637744
0.00623206
0.00610851
0.00601378
0.00595048
0.00591476
0.00590036
0.0058992
0.00590349
0.00590735
0.00556276
0.00556752
0.00558165
0.00561193
0.0056676
0.00576013
0.00590128
0.00609807
0.00634425
0.00661405
0.00686712
0.00707084
0.00722162
0.00734108
0.00745155
0.00756255
0.00766652
0.00774688
0.00779283
0.00780296
0.00777726
0.00771807
0.00763013
0.00752073
0.00739982
0.00727818
0.0071669
0.00707511
0.00700867
0.00696782
0.00694761
0.00694095
0.0056468
0.00565097
0.00566413
0.00569338
0.00574828
0.00584013
0.0059796
0.00617188
0.00641064
0.00667443
0.00693103
0.00715231
0.00732932
0.00747348
0.00760187
0.00772668
0.00785186
0.00797875
0.00810397
0.00822157
0.00832282
0.00839954
0.00844555
0.00845752
0.00843574
0.00838494
0.0083144
0.00823727
0.00816674
0.00811277
0.00807941
0.0080652
0.00572898
0.00573194
0.00574216
0.00576614
0.00581272
0.00589237
0.006015
0.00618586
0.00640067
0.00664325
0.00688815
0.00710936
0.00729109
0.00743244
0.00754135
0.00762746
0.00770162
0.00778708
0.00789716
0.00802922
0.00817264
0.00831461
0.00844313
0.00854867
0.00862512
0.00867038
0.0086865
0.00867957
0.00865885
0.00863473
0.00861566
0.00860598
0.00580059
0.00580225
0.00580906
0.00582652
0.00586233
0.00592584
0.00602632
0.00616961
0.00635413
0.00656856
0.00679304
0.00700432
0.00718337
0.00732099
0.00741721
0.00747799
0.00751658
0.00756682
0.00765326
0.00777984
0.00793846
0.00811432
0.00828989
0.00844891
0.00857971
0.00867676
0.00874023
0.00877464
0.00878737
0.00878711
0.00878208
0.00877816
0.00586319
0.0058637
0.0058674
0.00587875
0.00590422
0.00595198
0.0060305
0.00614592
0.00629878
0.00648186
0.00668035
0.00687488
0.00704673
0.00718293
0.00727841
0.00733593
0.0073685
0.00740893
0.00748314
0.00760058
0.00775949
0.00794998
0.00815522
0.00835487
0.00853017
0.00866893
0.00876705
0.00882759
0.00885834
0.00886923
0.00886997
0.00886814
0.00591968
0.00591916
0.00592011
0.00592611
0.00594262
0.00597666
0.00603582
0.00612614
0.00624936
0.00640122
0.00657117
0.0067444
0.00690508
0.00704018
0.00714253
0.00721271
0.00726122
0.00731365
0.00739117
0.00750497
0.00765805
0.00784662
0.00805938
0.00827825
0.00848229
0.00865393
0.00878312
0.00886867
0.00891662
0.00893733
0.00894233
0.00894159
0.00597595
0.00597418
0.00597214
0.00597287
0.00598116
0.00600327
0.00604597
0.00611488
0.00621226
0.00633585
0.00647859
0.00663015
0.00677888
0.00691402
0.00702845
0.0071216
0.00719908
0.007276
0.00736716
0.00748376
0.00763162
0.00781154
0.00801782
0.00823764
0.00845281
0.00864405
0.0087964
0.00890345
0.00896772
0.00899838
0.0090078
0.00900809
0.00604266
0.00603897
0.00603275
0.00602689
0.00602612
0.00603657
0.00606463
0.00611553
0.00619177
0.00629256
0.00641377
0.00654901
0.00669048
0.00683005
0.00696132
0.00708285
0.00719393
0.0072983
0.00740536
0.00752615
0.00766842
0.00783639
0.00802862
0.00823709
0.00844822
0.00864509
0.00881088
0.00893426
0.00901299
0.00905345
0.00906763
0.00906909
0.00613445
0.00612781
0.00611549
0.00610064
0.00608866
0.00608637
0.00610062
0.00613678
0.00619778
0.00628412
0.00639384
0.00652305
0.00666608
0.00681611
0.00696703
0.00711644
0.00725744
0.00738427
0.00750293
0.00762474
0.00775863
0.00791103
0.00808395
0.00827356
0.00847038
0.00866104
0.00882996
0.00896315
0.00905341
0.00910302
0.00912216
0.009125
0.00626649
0.00625583
0.00623573
0.00621015
0.00618571
0.00617063
0.00617307
0.00619938
0.00625318
0.00633571
0.00644573
0.00657968
0.00673184
0.0068952
0.00706338
0.0072333
0.0073937
0.00753279
0.00765508
0.0077724
0.00789413
0.00802776
0.00817745
0.00834276
0.00851821
0.00869394
0.00885673
0.00899237
0.00909011
0.00914751
0.00917161
0.00917603
0.00645083
0.00643551
0.00640765
0.00637298
0.00633941
0.00631617
0.00631291
0.00633718
0.0063929
0.00648096
0.0065992
0.00674272
0.00690448
0.00707687
0.00725342
0.00743099
0.00759649
0.00773578
0.00785305
0.00796022
0.00806646
0.00817926
0.0083037
0.00844154
0.00859062
0.00874478
0.00889374
0.00902447
0.00912456
0.00918747
0.00921615
0.00922235
0.00669481
0.00667513
0.006643
0.00660671
0.00657425
0.00655387
0.00655512
0.00658593
0.00664958
0.00674595
0.00687142
0.00701965
0.00718276
0.00735311
0.00752477
0.00769509
0.00785139
0.00797995
0.00808489
0.00817749
0.00826609
0.0083574
0.00845646
0.00856605
0.00868628
0.0088142
0.00894301
0.00906197
0.00915864
0.00922372
0.00925599
0.00926406
0.00700241
0.00698043
0.00695226
0.00692757
0.00691104
0.00690679
0.00692195
0.00696335
0.00703362
0.00713221
0.00725509
0.00739577
0.00754674
0.00770126
0.00785442
0.00800424
0.00813983
0.00824954
0.00833717
0.00841252
0.00848264
0.00855307
0.00862815
0.0087108
0.00880224
0.0089018
0.00900592
0.00910712
0.00919445
0.00925744
0.00929146
0.00930124
0.00737818
0.00735879
0.00734697
0.00734773
0.00735794
0.00737644
0.00740709
0.00745511
0.00752361
0.00761285
0.00771974
0.00783905
0.00796475
0.0080915
0.00821557
0.00833555
0.00844299
0.00852895
0.0085966
0.00865369
0.00870566
0.00875674
0.00881027
0.00886872
0.00893356
0.00900527
0.00908267
0.00916158
0.009234
0.00929011
0.00932314
0.009334
0.00783205
0.00782402
0.00783958
0.00786891
0.00790216
0.00793638
0.00797374
0.00801852
0.00807458
0.00814335
0.00822333
0.00831119
0.00840275
0.0084943
0.00858321
0.00866851
0.00874434
0.00880458
0.00885153
0.00889062
0.00892563
0.00895942
0.0089943
0.00903201
0.00907376
0.0091203
0.00917163
0.0092261
0.00927912
0.00932337
0.00935185
0.00936253
0.00838334
0.0083959
0.00843231
0.00847111
0.00850693
0.00853906
0.00856906
0.00860017
0.00863576
0.00867758
0.00872535
0.00877741
0.00883144
0.00888526
0.00893732
0.00898703
0.00903102
0.00906584
0.00909281
0.00911506
0.00913477
0.00915355
0.0091727
0.00919321
0.0092158
0.009241
0.0092691
0.00929971
0.00933095
0.00935893
0.00937874
0.00938722
0.00905594
0.00906619
0.00908555
0.00910325
0.0091185
0.00913153
0.00914294
0.00915395
0.00916593
0.00917969
0.00919527
0.00921221
0.00922976
0.00924722
0.00926408
0.00928013
0.00929432
0.00930552
0.00931417
0.00932128
0.00932754
0.00933346
0.00933945
0.00934583
0.00935282
0.0093606
0.00936927
0.00937881
0.00938878
0.00939812
0.00940529
0.00940877
)
;

boundaryField
{
    movingWall
    {
        type            fixedValue;
        value           uniform 0.00942;
    }
    fixedWalls
    {
        type            zeroGradient;
    }
    floor
    {
        type            zeroGradient;
    }
    frontAndBack
    {
        type            empty;
    }
}


// ************************************************************************* //
