/*--------------------------------*- C++ -*----------------------------------*\
| =========                 |                                                 |
| \\      /  F ield         | OpenFOAM: The Open Source CFD Toolbox           |
|  \\    /   O peration     | Version:  2212                                  |
|   \\  /    A nd           | Website:  www.openfoam.com                      |
|    \\/     M anipulation  |                                                 |
\*---------------------------------------------------------------------------*/
FoamFile
{
    version     2.0;
    format      ascii;
    arch        "LSB;label=64;scalar=64";
    class       volScalarField;
    location    "1160";
    object      Xli;
}
// * * * * * * * * * * * * * * * * * * * * * * * * * * * * * * * * * * * * * //

dimensions      [1 -3 0 0 0 0 0];

internalField   nonuniform List<scalar> 
1024
(
0.0422475
0.0422484
0.0422506
0.0422545
0.0422607
0.0422696
0.0422813
0.0422957
0.0423119
0.0423291
0.0423458
0.0423607
0.0423718
0.0423772
0.0423761
0.0423681
0.0423538
0.0423359
0.0423167
0.0422969
0.0422769
0.0422572
0.0422384
0.0422214
0.0422067
0.0421947
0.0421855
0.0421788
0.0421743
0.0421715
0.04217
0.0421693
0.0422477
0.0422486
0.0422508
0.0422548
0.0422612
0.0422702
0.0422822
0.0422967
0.0423131
0.0423304
0.0423473
0.0423622
0.0423733
0.0423787
0.0423774
0.0423693
0.042355
0.042337
0.0423178
0.0422979
0.0422779
0.0422581
0.0422393
0.0422221
0.0422073
0.0421952
0.0421859
0.0421791
0.0421745
0.0421717
0.0421701
0.0421695
0.0422481
0.0422491
0.0422514
0.0422556
0.0422622
0.0422716
0.0422839
0.0422988
0.0423157
0.0423334
0.0423506
0.0423659
0.0423771
0.0423823
0.0423807
0.0423723
0.0423576
0.0423394
0.04232
0.0423001
0.04228
0.0422601
0.0422412
0.0422238
0.0422087
0.0421963
0.0421867
0.0421797
0.042175
0.042172
0.0421704
0.0421697
0.0422488
0.0422498
0.0422523
0.0422567
0.0422637
0.0422736
0.0422865
0.0423021
0.0423197
0.0423382
0.0423564
0.0423724
0.042384
0.0423889
0.0423866
0.0423774
0.0423621
0.0423433
0.0423236
0.0423034
0.0422831
0.0422631
0.042244
0.0422263
0.0422108
0.0421979
0.0421879
0.0421806
0.0421757
0.0421726
0.0421709
0.0421702
0.0422499
0.0422509
0.0422535
0.0422582
0.0422656
0.0422761
0.0422899
0.0423065
0.0423253
0.0423453
0.0423651
0.0423826
0.042395
0.0423994
0.0423959
0.0423853
0.0423686
0.0423488
0.0423284
0.0423077
0.0422871
0.0422669
0.0422475
0.0422295
0.0422135
0.0422001
0.0421897
0.0421819
0.0421767
0.0421734
0.0421716
0.0421709
0.0422512
0.0422523
0.042255
0.04226
0.0422679
0.0422792
0.042294
0.042312
0.0423326
0.0423549
0.0423774
0.0423973
0.0424108
0.0424147
0.0424094
0.0423965
0.0423776
0.042356
0.0423342
0.0423127
0.0422917
0.0422711
0.0422514
0.042233
0.0422165
0.0422026
0.0421916
0.0421835
0.0421779
0.0421744
0.0421725
0.0421718
0.0422528
0.0422539
0.0422568
0.0422621
0.0422705
0.0422826
0.0422986
0.0423185
0.0423417
0.0423674
0.0423936
0.0424168
0.042432
0.0424353
0.0424276
0.0424114
0.0423892
0.0423649
0.042341
0.0423181
0.0422961
0.042275
0.042255
0.0422362
0.0422193
0.042205
0.0421936
0.0421851
0.0421792
0.0421755
0.0421736
0.0421728
0.0422546
0.0422558
0.0422588
0.0422643
0.0422732
0.0422862
0.0423038
0.0423261
0.0423528
0.042383
0.0424141
0.0424415
0.0424586
0.0424611
0.0424505
0.0424302
0.0424036
0.0423752
0.0423482
0.0423231
0.0422998
0.0422779
0.0422574
0.0422384
0.0422213
0.0422067
0.042195
0.0421863
0.0421803
0.0421765
0.0421745
0.0421737
0.0422566
0.0422578
0.0422609
0.0422667
0.0422761
0.0422902
0.0423096
0.0423349
0.042366
0.0424018
0.042439
0.0424711
0.0424903
0.0424919
0.0424779
0.0424528
0.0424206
0.0423869
0.0423555
0.0423272
0.0423018
0.0422788
0.0422577
0.0422385
0.0422215
0.042207
0.0421954
0.0421868
0.0421808
0.0421771
0.0421751
0.0421743
0.0422589
0.0422601
0.0422633
0.0422694
0.0422794
0.0422946
0.0423162
0.0423452
0.0423816
0.0424243
0.0424684
0.0425057
0.0425267
0.0425271
0.0425096
0.0424792
0.0424406
0.0424002
0.0423629
0.0423301
0.0423017
0.042277
0.0422552
0.042236
0.0422193
0.0422053
0.0421943
0.0421861
0.0421806
0.0421771
0.0421752
0.0421744
0.0422614
0.0422627
0.0422661
0.0422725
0.0422832
0.0422999
0.0423242
0.0423577
0.0424006
0.0424513
0.0425033
0.0425457
0.0425682
0.0425671
0.0425462
0.0425111
0.042466
0.0424177
0.0423726
0.0423334
0.0423004
0.0422729
0.0422498
0.0422305
0.0422144
0.0422015
0.0421915
0.0421843
0.0421794
0.0421764
0.0421748
0.0421742
0.0422647
0.042266
0.0422696
0.0422765
0.0422883
0.0423069
0.0423346
0.0423736
0.0424245
0.0424845
0.0425448
0.0425922
0.042616
0.0426138
0.0425913
0.0425538
0.0425039
0.0424475
0.0423928
0.0423441
0.0423034
0.0422707
0.0422448
0.0422244
0.0422087
0.0421969
0.0421883
0.0421825
0.0421789
0.0421769
0.0421759
0.0421756
0.0422693
0.0422708
0.0422747
0.0422823
0.0422955
0.0423168
0.042349
0.042395
0.0424553
0.0425258
0.0425948
0.0426472
0.0426728
0.0426722
0.0426526
0.0426184
0.0425693
0.0425089
0.0424453
0.0423848
0.0423316
0.0422882
0.0422545
0.0422294
0.0422116
0.0421998
0.0421925
0.0421887
0.0421873
0.0421873
0.0421878
0.0421883
0.0422769
0.0422785
0.0422829
0.0422915
0.0423068
0.0423317
0.0423699
0.0424246
0.042496
0.0425777
0.0426554
0.0427131
0.0427431
0.0427496
0.0427414
0.0427213
0.0426857
0.0426339
0.0425716
0.0425049
0.0424399
0.0423813
0.042332
0.0422936
0.0422662
0.0422489
0.0422401
0.0422375
0.0422386
0.0422413
0.042244
0.0422456
0.0422903
0.042292
0.0422968
0.0423068
0.0423249
0.0423547
0.0424005
0.0424654
0.0425485
0.042641
0.0427267
0.0427909
0.04283
0.0428517
0.0428651
0.0428723
0.0428682
0.042848
0.0428121
0.0427641
0.0427084
0.0426496
0.0425921
0.0425399
0.0424955
0.0424615
0.0424388
0.042426
0.0424209
0.0424205
0.042422
0.0424234
0.0423142
0.042316
0.0423213
0.0423327
0.0423536
0.0423883
0.042441
0.0425143
0.0426054
0.0427044
0.0427962
0.0428688
0.0429212
0.0429617
0.0429986
0.0430349
0.043068
0.0430923
0.0431046
0.0431048
0.043093
0.04307
0.0430374
0.0429979
0.0429546
0.0429114
0.0428721
0.0428397
0.0428163
0.042802
0.0427949
0.0427926
0.0423459
0.0423475
0.0423524
0.0423634
0.042384
0.0424184
0.0424705
0.0425422
0.0426308
0.0427281
0.042822
0.0429019
0.0429649
0.0430154
0.0430595
0.0431014
0.043142
0.0431818
0.0432205
0.0432564
0.043287
0.0433097
0.0433226
0.0433245
0.0433156
0.0432973
0.0432727
0.043246
0.0432218
0.0432033
0.0431918
0.043187
0.0423772
0.0423783
0.0423821
0.042391
0.0424085
0.0424383
0.0424843
0.0425482
0.0426283
0.0427183
0.0428088
0.0428898
0.0429559
0.0430067
0.0430454
0.0430749
0.0430987
0.0431245
0.0431573
0.0431967
0.0432396
0.0432822
0.0433209
0.0433527
0.0433759
0.0433896
0.0433944
0.043392
0.0433854
0.0433776
0.0433715
0.0433684
0.0424048
0.0424053
0.0424078
0.0424143
0.0424276
0.0424514
0.0424891
0.0425429
0.042612
0.0426921
0.0427757
0.042854
0.0429202
0.0429709
0.0430062
0.0430282
0.0430408
0.0430556
0.043081
0.0431187
0.0431662
0.043219
0.0432717
0.0433194
0.0433587
0.0433881
0.0434074
0.0434182
0.0434225
0.0434227
0.0434215
0.0434204
0.0424291
0.0424293
0.0424305
0.0424347
0.0424441
0.0424619
0.0424914
0.0425347
0.0425922
0.042661
0.0427354
0.0428082
0.0428724
0.0429234
0.0429593
0.0429809
0.0429923
0.0430045
0.0430266
0.0430619
0.0431099
0.0431675
0.0432294
0.0432896
0.0433423
0.0433841
0.0434136
0.043432
0.0434416
0.0434452
0.0434458
0.0434454
0.0424513
0.0424511
0.0424513
0.0424534
0.0424594
0.042472
0.0424942
0.0425281
0.0425745
0.0426318
0.0426959
0.0427611
0.0428216
0.0428725
0.0429112
0.0429376
0.0429549
0.0429717
0.0429955
0.0430302
0.0430769
0.0431344
0.0431989
0.0432651
0.0433266
0.0433782
0.0434171
0.0434429
0.0434575
0.043464
0.0434658
0.0434657
0.0424731
0.0424724
0.0424716
0.0424717
0.0424747
0.0424828
0.0424988
0.0425247
0.0425614
0.0426081
0.0426621
0.0427193
0.0427753
0.0428261
0.042869
0.0429033
0.0429306
0.042956
0.0429849
0.0430211
0.0430668
0.043122
0.0431849
0.0432517
0.0433167
0.0433743
0.04342
0.0434522
0.0434715
0.043481
0.043484
0.0434843
0.0424979
0.0424966
0.0424943
0.0424922
0.042492
0.0424959
0.0425064
0.0425256
0.0425543
0.0425924
0.042638
0.0426888
0.0427417
0.0427934
0.0428417
0.0428854
0.0429241
0.0429589
0.0429934
0.0430316
0.043076
0.0431279
0.0431869
0.0432504
0.0433144
0.0433737
0.0434235
0.0434605
0.0434841
0.0434964
0.0435008
0.0435014
0.0425304
0.0425281
0.0425239
0.0425188
0.0425147
0.0425142
0.0425198
0.0425335
0.0425563
0.0425886
0.0426293
0.042677
0.0427294
0.0427839
0.0428381
0.0428909
0.0429394
0.0429818
0.0430205
0.0430595
0.0431016
0.0431491
0.0432024
0.0432604
0.0433202
0.0433778
0.0434285
0.0434684
0.0434954
0.0435103
0.0435162
0.0435172
0.0425755
0.0425719
0.0425651
0.0425565
0.0425484
0.0425435
0.0425449
0.0425549
0.0425747
0.0426048
0.0426446
0.0426928
0.0427472
0.0428052
0.0428644
0.0429235
0.0429782
0.0430248
0.0430649
0.0431028
0.0431414
0.0431833
0.0432296
0.0432804
0.0433338
0.043387
0.0434359
0.0434765
0.0435057
0.0435229
0.0435302
0.0435316
0.0426371
0.042632
0.0426227
0.0426112
0.0426
0.0425925
0.0425918
0.0426008
0.0426206
0.0426518
0.0426933
0.0427436
0.0428001
0.0428602
0.0429214
0.0429825
0.0430387
0.0430853
0.043124
0.0431587
0.0431927
0.0432282
0.0432669
0.0433094
0.0433549
0.0434016
0.0434465
0.0434856
0.0435154
0.0435341
0.0435427
0.0435447
0.0427175
0.042711
0.0427004
0.0426883
0.0426776
0.042671
0.0426717
0.0426824
0.0427044
0.0427376
0.0427807
0.0428317
0.0428877
0.0429463
0.0430052
0.0430633
0.0431162
0.0431592
0.0431939
0.043224
0.0432525
0.0432814
0.0433123
0.0433462
0.043383
0.0434219
0.0434607
0.0434963
0.0435251
0.0435444
0.043554
0.0435565
0.042818
0.0428108
0.0428015
0.0427934
0.0427878
0.0427864
0.0427915
0.0428055
0.0428292
0.0428626
0.0429042
0.0429519
0.0430032
0.0430558
0.043108
0.0431589
0.0432047
0.0432414
0.0432704
0.043295
0.0433176
0.04334
0.0433636
0.0433892
0.0434173
0.0434476
0.043479
0.0435093
0.0435353
0.043554
0.043564
0.043567
0.0429403
0.0429339
0.04293
0.0429301
0.0429333
0.0429392
0.0429493
0.0429652
0.042988
0.0430179
0.0430538
0.0430939
0.0431363
0.0431792
0.0432213
0.0432619
0.0432981
0.0433269
0.0433493
0.0433681
0.0433849
0.0434012
0.043418
0.0434362
0.0434562
0.043478
0.0435014
0.0435251
0.0435466
0.0435632
0.0435729
0.0435762
0.0430874
0.0430847
0.0430897
0.0430991
0.0431098
0.0431208
0.043133
0.0431477
0.0431662
0.0431891
0.0432158
0.0432452
0.043276
0.0433068
0.0433369
0.0433657
0.0433913
0.0434114
0.043427
0.0434399
0.0434513
0.0434621
0.0434731
0.0434849
0.0434977
0.043512
0.0435275
0.0435438
0.0435596
0.0435727
0.043581
0.0435842
0.0432656
0.0432696
0.0432814
0.0432939
0.0433054
0.0433158
0.0433255
0.0433357
0.0433474
0.0433612
0.0433771
0.0433945
0.0434126
0.0434307
0.0434483
0.0434651
0.0434799
0.0434916
0.0435006
0.0435079
0.0435143
0.0435203
0.0435264
0.0435328
0.0435398
0.0435475
0.043556
0.0435652
0.0435745
0.0435828
0.0435886
0.043591
0.0434827
0.043486
0.0434922
0.0434979
0.0435028
0.043507
0.0435107
0.0435143
0.0435183
0.0435228
0.043528
0.0435336
0.0435395
0.0435454
0.0435511
0.0435565
0.0435613
0.043565
0.0435679
0.0435702
0.0435723
0.0435742
0.0435761
0.0435781
0.0435803
0.0435826
0.0435853
0.0435881
0.0435911
0.0435939
0.043596
0.043597
)
;

boundaryField
{
    movingWall
    {
        type            fixedValue;
        value           uniform 0.0436;
    }
    fixedWalls
    {
        type            zeroGradient;
    }
    floor
    {
        type            zeroGradient;
    }
    frontAndBack
    {
        type            empty;
    }
}


// ************************************************************************* //
