/*--------------------------------*- C++ -*----------------------------------*\
| =========                 |                                                 |
| \\      /  F ield         | OpenFOAM: The Open Source CFD Toolbox           |
|  \\    /   O peration     | Version:  2212                                  |
|   \\  /    A nd           | Website:  www.openfoam.com                      |
|    \\/     M anipulation  |                                                 |
\*---------------------------------------------------------------------------*/
FoamFile
{
    version     2.0;
    format      ascii;
    arch        "LSB;label=64;scalar=64";
    class       volScalarField;
    location    "880";
    object      p;
}
// * * * * * * * * * * * * * * * * * * * * * * * * * * * * * * * * * * * * * //

dimensions      [0 2 -2 0 0 0 0];

internalField   nonuniform List<scalar> 
1024
(
0
-4.33246e-06
-8.36576e-06
-8.75023e-06
-3.6361e-06
8.89097e-06
3.2355e-05
7.2393e-05
0.000135651
0.000223539
0.000315797
0.000377915
0.00037068
0.000296714
0.000173495
3.6126e-05
-7.6897e-05
-0.000147929
-0.000187024
-0.000206616
-0.000214571
-0.000215961
-0.000214131
-0.00021129
-0.000208806
-0.000207298
-0.000206664
-0.000206238
-0.000205308
-0.000203672
-0.000201813
-0.000200606
-0.0928118
-0.0928164
-0.0928204
-0.0928212
-0.0928176
-0.0928075
-0.092787
-0.0927503
-0.0926905
-0.0926066
-0.0925181
-0.0924578
-0.0924624
-0.0925328
-0.0926527
-0.0927873
-0.0928982
-0.0929678
-0.0930057
-0.0930244
-0.0930316
-0.0930323
-0.09303
-0.0930266
-0.0930236
-0.0930216
-0.0930204
-0.0930196
-0.0930185
-0.0930169
-0.0930152
-0.0930139
-0.199432
-0.199438
-0.199443
-0.199446
-0.199446
-0.19944
-0.199425
-0.199393
-0.199339
-0.199261
-0.199178
-0.19912
-0.19912
-0.199185
-0.1993
-0.199429
-0.199535
-0.199602
-0.199637
-0.199654
-0.19966
-0.199659
-0.199655
-0.19965
-0.199646
-0.199643
-0.19964
-0.199639
-0.199637
-0.199636
-0.199634
-0.199632
-0.321924
-0.321931
-0.321939
-0.321944
-0.321949
-0.32195
-0.321941
-0.321918
-0.321871
-0.321798
-0.321721
-0.321665
-0.32166
-0.321719
-0.321826
-0.321947
-0.322047
-0.322108
-0.32214
-0.322153
-0.322156
-0.322152
-0.322146
-0.322138
-0.322132
-0.322126
-0.322122
-0.322119
-0.322117
-0.322114
-0.322112
-0.322109
-0.462655
-0.462664
-0.462673
-0.462683
-0.462694
-0.462702
-0.462702
-0.462686
-0.462647
-0.462582
-0.462509
-0.462456
-0.462446
-0.462498
-0.462596
-0.462707
-0.462797
-0.462851
-0.462877
-0.462885
-0.462883
-0.462875
-0.462864
-0.462853
-0.462843
-0.462834
-0.462827
-0.462822
-0.462818
-0.462815
-0.462811
-0.462807
-0.624346
-0.624353
-0.624364
-0.624378
-0.624395
-0.62441
-0.624418
-0.62441
-0.624378
-0.624319
-0.624251
-0.6242
-0.624186
-0.624232
-0.624321
-0.62442
-0.624499
-0.624544
-0.624562
-0.624564
-0.624556
-0.624542
-0.624526
-0.62451
-0.624494
-0.62448
-0.624469
-0.624461
-0.624455
-0.62445
-0.624444
-0.62444
-0.81011
-0.810116
-0.810127
-0.810143
-0.810164
-0.810185
-0.810199
-0.810198
-0.810172
-0.810118
-0.810054
-0.810005
-0.809989
-0.810031
-0.810111
-0.810201
-0.810269
-0.810303
-0.810313
-0.810307
-0.810292
-0.810272
-0.810249
-0.810226
-0.810204
-0.810185
-0.810168
-0.810156
-0.810146
-0.810139
-0.810133
-0.810127
-1.02352
-1.02352
-1.02353
-1.02355
-1.02357
-1.02359
-1.02361
-1.02362
-1.0236
-1.02355
-1.02349
-1.02344
-1.02343
-1.02347
-1.02354
-1.02362
-1.02368
-1.0237
-1.02371
-1.02369
-1.02367
-1.02364
-1.02361
-1.02358
-1.02356
-1.02353
-1.02351
-1.02349
-1.02348
-1.02347
-1.02346
-1.02346
-1.26866
-1.26866
-1.26866
-1.26868
-1.2687
-1.26873
-1.26875
-1.26876
-1.26874
-1.2687
-1.26865
-1.26861
-1.2686
-1.26864
-1.26871
-1.26878
-1.26883
-1.26885
-1.26885
-1.26883
-1.2688
-1.26877
-1.26873
-1.2687
-1.26866
-1.26863
-1.2686
-1.26858
-1.26857
-1.26856
-1.26855
-1.26854
-1.55023
-1.55023
-1.55024
-1.55025
-1.55026
-1.55029
-1.55031
-1.55032
-1.55031
-1.55029
-1.55025
-1.55022
-1.55022
-1.55026
-1.55033
-1.5504
-1.55044
-1.55046
-1.55045
-1.55042
-1.55039
-1.55036
-1.55032
-1.55028
-1.55024
-1.55021
-1.55018
-1.55015
-1.55014
-1.55012
-1.55012
-1.55011
-1.87365
-1.87365
-1.87365
-1.87365
-1.87367
-1.87368
-1.8737
-1.87372
-1.87372
-1.87371
-1.87369
-1.87368
-1.8737
-1.87375
-1.87382
-1.87388
-1.87392
-1.87393
-1.87392
-1.8739
-1.87387
-1.87384
-1.8738
-1.87376
-1.87372
-1.87368
-1.87365
-1.87362
-1.8736
-1.87359
-1.87359
-1.87358
-2.24514
-2.24513
-2.24513
-2.24513
-2.24514
-2.24515
-2.24516
-2.24517
-2.24518
-2.24519
-2.2452
-2.24522
-2.24526
-2.24532
-2.24539
-2.24545
-2.24549
-2.2455
-2.2455
-2.24548
-2.24545
-2.24541
-2.24538
-2.24534
-2.2453
-2.24526
-2.24523
-2.2452
-2.24518
-2.24517
-2.24517
-2.24517
-2.67185
-2.67184
-2.67184
-2.67184
-2.67184
-2.67184
-2.67185
-2.67187
-2.67189
-2.67191
-2.67195
-2.67199
-2.67205
-2.67212
-2.67219
-2.67226
-2.6723
-2.67232
-2.67231
-2.67229
-2.67227
-2.67224
-2.6722
-2.67216
-2.67212
-2.67208
-2.67204
-2.67201
-2.672
-2.67199
-2.67198
-2.67198
-3.16202
-3.16202
-3.16202
-3.16202
-3.16202
-3.16202
-3.16202
-3.16204
-3.16207
-3.16211
-3.16215
-3.16222
-3.16229
-3.16237
-3.16244
-3.16251
-3.16256
-3.16258
-3.16258
-3.16256
-3.16253
-3.16249
-3.16245
-3.1624
-3.16235
-3.16231
-3.16227
-3.16224
-3.16222
-3.16222
-3.16222
-3.16222
-3.72512
-3.72512
-3.72512
-3.72512
-3.72512
-3.72512
-3.72513
-3.72515
-3.72518
-3.72522
-3.72527
-3.72533
-3.72541
-3.72549
-3.72557
-3.72564
-3.72569
-3.72572
-3.72571
-3.72569
-3.72564
-3.72559
-3.72552
-3.72546
-3.7254
-3.72535
-3.72531
-3.72529
-3.72528
-3.72527
-3.72528
-3.72528
-4.372
-4.372
-4.372
-4.372
-4.372
-4.37201
-4.37201
-4.37203
-4.37205
-4.37209
-4.37213
-4.37219
-4.37227
-4.37234
-4.37242
-4.3725
-4.37254
-4.37256
-4.37254
-4.37249
-4.37241
-4.37232
-4.37222
-4.37214
-4.37207
-4.37202
-4.372
-4.37199
-4.37199
-4.37199
-4.37199
-4.372
-5.06366
-5.06366
-5.06366
-5.06366
-5.06367
-5.06367
-5.06368
-5.0637
-5.06372
-5.06376
-5.0638
-5.06386
-5.06392
-5.064
-5.06407
-5.06414
-5.06418
-5.06418
-5.06413
-5.06405
-5.06394
-5.06381
-5.06368
-5.06357
-5.06349
-5.06345
-5.06343
-5.06343
-5.06343
-5.06344
-5.06344
-5.06345
-5.71063
-5.71063
-5.71063
-5.71063
-5.71064
-5.71064
-5.71066
-5.71067
-5.7107
-5.71073
-5.71077
-5.71083
-5.71089
-5.71096
-5.71104
-5.71111
-5.71116
-5.71118
-5.71115
-5.71108
-5.71098
-5.71084
-5.7107
-5.71058
-5.71048
-5.71042
-5.71039
-5.71038
-5.71039
-5.7104
-5.71041
-5.71041
-6.2739
-6.27391
-6.27391
-6.27391
-6.27392
-6.27392
-6.27394
-6.27395
-6.27398
-6.27401
-6.27406
-6.27411
-6.27417
-6.27425
-6.27433
-6.27441
-6.27449
-6.27454
-6.27455
-6.27451
-6.27444
-6.27434
-6.27422
-6.2741
-6.27399
-6.2739
-6.27384
-6.27381
-6.2738
-6.27381
-6.27382
-6.27382
-6.7643
-6.7643
-6.7643
-6.7643
-6.76431
-6.76432
-6.76433
-6.76435
-6.76437
-6.76441
-6.76445
-6.7645
-6.76456
-6.76464
-6.76472
-6.76481
-6.7649
-6.76497
-6.76501
-6.765
-6.76496
-6.76489
-6.7648
-6.76469
-6.76458
-6.76448
-6.7644
-6.76435
-6.76433
-6.76432
-6.76433
-6.76434
-7.19121
-7.19121
-7.19121
-7.19122
-7.19122
-7.19123
-7.19124
-7.19126
-7.19129
-7.19132
-7.19136
-7.19141
-7.19147
-7.19154
-7.19163
-7.19172
-7.19182
-7.19191
-7.19195
-7.19196
-7.19194
-7.1919
-7.19183
-7.19174
-7.19164
-7.19154
-7.19145
-7.19138
-7.19134
-7.19133
-7.19134
-7.19135
-7.56286
-7.56286
-7.56286
-7.56286
-7.56287
-7.56287
-7.56289
-7.5629
-7.56292
-7.56295
-7.56299
-7.56304
-7.5631
-7.56318
-7.56326
-7.56336
-7.56347
-7.56355
-7.5636
-7.56361
-7.5636
-7.56357
-7.56352
-7.56345
-7.56336
-7.56326
-7.56316
-7.56308
-7.56303
-7.563
-7.56301
-7.56302
-7.88639
-7.88639
-7.88639
-7.88639
-7.88639
-7.8864
-7.88641
-7.88642
-7.88644
-7.88647
-7.88651
-7.88656
-7.88663
-7.8867
-7.88679
-7.88689
-7.88699
-7.88708
-7.88712
-7.88714
-7.88713
-7.8871
-7.88704
-7.88697
-7.88689
-7.88679
-7.88668
-7.88658
-7.88652
-7.88648
-7.88648
-7.88649
-8.16804
-8.16804
-8.16804
-8.16804
-8.16804
-8.16804
-8.16804
-8.16805
-8.16807
-8.1681
-8.16814
-8.1682
-8.16826
-8.16834
-8.16844
-8.16854
-8.16864
-8.16873
-8.16877
-8.16878
-8.16877
-8.16873
-8.16866
-8.16858
-8.16848
-8.16837
-8.16824
-8.16813
-8.16803
-8.16798
-8.16797
-8.16798
-8.41322
-8.41322
-8.41322
-8.41322
-8.41322
-8.41321
-8.41321
-8.41322
-8.41324
-8.41327
-8.41331
-8.41337
-8.41344
-8.41353
-8.41362
-8.41373
-8.41383
-8.41391
-8.41396
-8.41397
-8.41395
-8.4139
-8.41382
-8.41371
-8.41358
-8.41343
-8.41328
-8.41313
-8.413
-8.41292
-8.41289
-8.4129
-8.62667
-8.62668
-8.62667
-8.62667
-8.62665
-8.62664
-8.62664
-8.62664
-8.62666
-8.6267
-8.62674
-8.62681
-8.62688
-8.62697
-8.62707
-8.62718
-8.62728
-8.62737
-8.62741
-8.62742
-8.62739
-8.62733
-8.62723
-8.62709
-8.62692
-8.62672
-8.62652
-8.62632
-8.62614
-8.62601
-8.62596
-8.62595
-8.8125
-8.8125
-8.8125
-8.81248
-8.81246
-8.81244
-8.81243
-8.81243
-8.81245
-8.81249
-8.81254
-8.81261
-8.81269
-8.81278
-8.81288
-8.813
-8.8131
-8.81319
-8.81323
-8.81323
-8.8132
-8.81313
-8.81301
-8.81285
-8.81263
-8.81238
-8.8121
-8.81182
-8.81157
-8.81137
-8.81126
-8.81122
-8.97429
-8.97429
-8.97428
-8.97425
-8.97421
-8.97418
-8.97416
-8.97416
-8.97419
-8.97423
-8.97429
-8.97436
-8.97444
-8.97454
-8.97464
-8.97476
-8.97487
-8.97495
-8.97499
-8.975
-8.97496
-8.97487
-8.97474
-8.97455
-8.9743
-8.97399
-8.97364
-8.97326
-8.97291
-8.9726
-8.9724
-8.9723
-9.11519
-9.11517
-9.11513
-9.11507
-9.11501
-9.11497
-9.11495
-9.11495
-9.11498
-9.11503
-9.11509
-9.11517
-9.11526
-9.11535
-9.11546
-9.11558
-9.11569
-9.11577
-9.11582
-9.11582
-9.11577
-9.11568
-9.11554
-9.11532
-9.11504
-9.11468
-9.11426
-9.11379
-9.1133
-9.11284
-9.11248
-9.11225
-9.23796
-9.23788
-9.23777
-9.23767
-9.23758
-9.23753
-9.23751
-9.23751
-9.23755
-9.2376
-9.23767
-9.23775
-9.23784
-9.23794
-9.23805
-9.23817
-9.23828
-9.23836
-9.23841
-9.23841
-9.23836
-9.23827
-9.23811
-9.23789
-9.23758
-9.23719
-9.23672
-9.23616
-9.23553
-9.23486
-9.23422
-9.23367
-9.34516
-9.34476
-9.34451
-9.34436
-9.34426
-9.34421
-9.34419
-9.3442
-9.34424
-9.3443
-9.34437
-9.34446
-9.34455
-9.34466
-9.34477
-9.34489
-9.345
-9.34509
-9.34513
-9.34513
-9.34508
-9.34499
-9.34483
-9.34459
-9.34428
-9.34387
-9.34337
-9.34276
-9.34201
-9.3411
-9.34
-9.33874
-9.43908
-9.43784
-9.43736
-9.43721
-9.43712
-9.43707
-9.43706
-9.43708
-9.43712
-9.43719
-9.43726
-9.43735
-9.43745
-9.43756
-9.43767
-9.43779
-9.43791
-9.43799
-9.43804
-9.43804
-9.43799
-9.43789
-9.43774
-9.4375
-9.43719
-9.43678
-9.43626
-9.43563
-9.43481
-9.43371
-9.4321
-9.42984
)
;

boundaryField
{
    movingWall
    {
        type            calculated;
        value           nonuniform List<scalar> 
32
(
-9.48232
-9.48107
-9.4806
-9.48044
-9.48036
-9.4803
-9.48029
-9.48031
-9.48036
-9.48042
-9.4805
-9.48059
-9.48069
-9.48079
-9.48091
-9.48103
-9.48114
-9.48123
-9.48128
-9.48128
-9.48123
-9.48113
-9.48098
-9.48074
-9.48043
-9.48002
-9.4795
-9.47887
-9.47805
-9.47695
-9.47534
-9.47308
)
;
    }
    fixedWalls
    {
        type            calculated;
        value           nonuniform List<scalar> 
64
(
6.93889e-18
-0.0928118
-0.199432
-0.321924
-0.462655
-0.624346
-0.81011
-1.02352
-1.26866
-1.55023
-1.87365
-2.24514
-2.67185
-3.16202
-3.72512
-4.372
-5.06366
-5.71063
-6.2739
-6.7643
-7.19121
-7.56286
-7.88639
-8.16804
-8.41322
-8.62667
-8.8125
-8.97429
-9.11519
-9.23796
-9.34516
-9.43908
-0.000200606
-0.0930139
-0.199632
-0.322109
-0.462807
-0.62444
-0.810127
-1.02346
-1.26854
-1.55011
-1.87358
-2.24517
-2.67198
-3.16222
-3.72528
-4.372
-5.06345
-5.71041
-6.27382
-6.76434
-7.19135
-7.56302
-7.88649
-8.16798
-8.4129
-8.62595
-8.81122
-8.9723
-9.11225
-9.23367
-9.33874
-9.42984
)
;
    }
    floor
    {
        type            calculated;
        value           nonuniform List<scalar> 
32
(
0.0431953
0.043191
0.0431871
0.0431869
0.0431922
0.043205
0.0432288
0.0432692
0.0433328
0.0434211
0.0435137
0.043576
0.0435685
0.0434942
0.0433706
0.0432329
0.0431195
0.0430483
0.043009
0.0429893
0.0429812
0.0429797
0.0429814
0.0429841
0.0429865
0.0429879
0.0429884
0.0429888
0.0429896
0.0429912
0.0429931
0.0429943
)
;
    }
    frontAndBack
    {
        type            empty;
    }
}


// ************************************************************************* //
