/*--------------------------------*- C++ -*----------------------------------*\
| =========                 |                                                 |
| \\      /  F ield         | OpenFOAM: The Open Source CFD Toolbox           |
|  \\    /   O peration     | Version:  2212                                  |
|   \\  /    A nd           | Website:  www.openfoam.com                      |
|    \\/     M anipulation  |                                                 |
\*---------------------------------------------------------------------------*/
FoamFile
{
    version     2.0;
    format      ascii;
    arch        "LSB;label=64;scalar=64";
    class       volScalarField;
    location    "880";
    object      p_rgh;
}
// * * * * * * * * * * * * * * * * * * * * * * * * * * * * * * * * * * * * * //

dimensions      [0 2 -2 0 0 0 0];

internalField   nonuniform List<scalar> 
1024
(
0.0431953
0.043191
0.0431871
0.0431869
0.0431922
0.043205
0.0432288
0.0432692
0.0433328
0.0434211
0.0435137
0.043576
0.0435685
0.0434942
0.0433706
0.0432329
0.0431195
0.0430483
0.043009
0.0429893
0.0429812
0.0429797
0.0429814
0.0429841
0.0429865
0.0429879
0.0429884
0.0429888
0.0429896
0.0429912
0.0429931
0.0429943
0.0432051
0.0432009
0.0431978
0.0431987
0.0432046
0.0432175
0.0432411
0.043281
0.0433442
0.043432
0.0435238
0.0435857
0.0435789
0.0435053
0.0433817
0.0432436
0.0431297
0.043058
0.0430182
0.042998
0.0429894
0.0429875
0.0429888
0.042991
0.042993
0.042994
0.0429942
0.0429942
0.0429946
0.0429957
0.0429973
0.0429985
0.0432207
0.0432159
0.0432137
0.0432165
0.0432244
0.0432389
0.0432636
0.0433045
0.0433691
0.0434582
0.0435505
0.0436124
0.0436066
0.0435329
0.0434085
0.0432688
0.043153
0.0430797
0.0430386
0.0430171
0.0430075
0.0430045
0.0430047
0.043006
0.043007
0.043007
0.0430062
0.0430051
0.0430045
0.0430049
0.0430063
0.0430078
0.0432357
0.0432304
0.0432295
0.0432355
0.0432474
0.0432657
0.0432938
0.0433378
0.0434052
0.0434962
0.0435889
0.0436508
0.0436479
0.0435754
0.0434512
0.0433103
0.043192
0.0431163
0.0430729
0.0430494
0.0430378
0.043033
0.0430316
0.0430313
0.0430306
0.0430288
0.0430258
0.0430225
0.0430199
0.0430192
0.0430205
0.0430227
0.0432407
0.0432361
0.0432379
0.0432488
0.0432671
0.043292
0.0433259
0.0433738
0.0434431
0.0435331
0.0436237
0.0436851
0.0436885
0.0436215
0.0435025
0.0433647
0.0432461
0.0431686
0.0431227
0.0430965
0.0430823
0.043075
0.0430713
0.0430687
0.0430655
0.0430608
0.0430543
0.0430472
0.0430414
0.0430386
0.0430395
0.0430424
0.043227
0.0432243
0.0432301
0.0432478
0.0432751
0.0433092
0.0433503
0.0434015
0.0434688
0.0435536
0.0436399
0.0437008
0.0437121
0.0436548
0.0435474
0.0434205
0.0433085
0.0432326
0.0431859
0.0431577
0.0431408
0.0431306
0.043124
0.0431184
0.0431117
0.0431027
0.043091
0.0430782
0.0430673
0.0430611
0.043061
0.0430643
0.0431914
0.043191
0.0432011
0.0432262
0.0432638
0.0433087
0.0433574
0.0434102
0.0434715
0.0435494
0.0436321
0.0436934
0.0437107
0.0436637
0.0435714
0.043462
0.0433658
0.0432981
0.0432549
0.0432272
0.0432089
0.0431964
0.0431866
0.0431773
0.043166
0.043151
0.043132
0.043111
0.0430926
0.0430813
0.043079
0.0430823
0.0431397
0.0431415
0.0431549
0.0431855
0.043232
0.0432869
0.0433423
0.0433953
0.0434503
0.043524
0.0436061
0.0436688
0.0436876
0.0436474
0.0435681
0.0434776
0.0434022
0.0433506
0.0433173
0.0432946
0.043278
0.0432646
0.0432522
0.0432385
0.0432211
0.043198
0.0431689
0.0431369
0.0431084
0.0430899
0.0430842
0.0430868
0.0430873
0.0430908
0.043105
0.0431371
0.0431878
0.043249
0.0433089
0.043362
0.0434144
0.04349
0.043574
0.043637
0.0436524
0.0436129
0.043541
0.0434654
0.0434098
0.0433784
0.0433605
0.043348
0.0433369
0.0433251
0.043311
0.0432925
0.0432673
0.0432333
0.0431907
0.0431442
0.0431029
0.0430757
0.0430655
0.0430667
0.0430545
0.0430587
0.0430724
0.0431023
0.0431503
0.0432095
0.0432691
0.0433236
0.0433838
0.0434653
0.0435523
0.0436106
0.0436158
0.0435696
0.0434985
0.0434315
0.0433905
0.043378
0.0433778
0.0433791
0.0433769
0.0433691
0.0433541
0.0433302
0.0432949
0.0432465
0.0431865
0.0431223
0.0430664
0.0430298
0.043015
0.0430144
0.0430562
0.0430601
0.0430716
0.0430972
0.0431394
0.0431934
0.0432499
0.0433078
0.043383
0.043475
0.0435591
0.0436017
0.0435866
0.0435256
0.043449
0.0433848
0.0433531
0.0433551
0.0433713
0.0433874
0.0433956
0.0433928
0.043377
0.043346
0.0432977
0.043231
0.0431499
0.043066
0.0429957
0.0429512
0.0429328
0.0429304
0.0431005
0.0431031
0.0431113
0.0431312
0.0431668
0.0432164
0.0432756
0.0433486
0.0434424
0.0435387
0.0436059
0.0436174
0.0435701
0.0434862
0.0433998
0.0433349
0.0433093
0.0433218
0.0433524
0.0433814
0.0433984
0.043399
0.04338
0.043339
0.0432735
0.0431845
0.0430805
0.0429788
0.0428987
0.0428507
0.0428308
0.042827
0.0431915
0.0431926
0.0431976
0.0432127
0.043244
0.0432947
0.0433668
0.0434675
0.0435746
0.0436581
0.0436888
0.0436533
0.0435648
0.0434545
0.0433578
0.043292
0.0432718
0.0432954
0.0433374
0.0433735
0.043393
0.0433908
0.0433631
0.0433067
0.0432202
0.0431082
0.0429847
0.0428765
0.0427987
0.0427544
0.042736
0.0427313
0.0433401
0.0433411
0.0433461
0.0433621
0.0433979
0.0434629
0.0435659
0.0436768
0.0437673
0.0438092
0.043783
0.0436907
0.0435631
0.0434332
0.0433321
0.0432664
0.0432486
0.0432766
0.0433187
0.0433491
0.0433602
0.0433467
0.0433043
0.0432318
0.0431321
0.0430159
0.0428997
0.0428031
0.0427363
0.0426992
0.0426833
0.0426783
0.0435741
0.0435777
0.0435889
0.0436153
0.0436677
0.0437516
0.0438461
0.0439261
0.0439631
0.0439384
0.0438475
0.0437057
0.0435617
0.0434334
0.0433264
0.0432491
0.0432134
0.0432166
0.0432324
0.0432444
0.0432458
0.0432309
0.0431946
0.0431346
0.0430534
0.0429606
0.0428702
0.0427967
0.0427472
0.0427202
0.0427082
0.0427037
0.0438936
0.0438997
0.043916
0.0439474
0.0439965
0.0440554
0.0441071
0.0441231
0.0440808
0.0439837
0.043856
0.0437203
0.0435861
0.0434558
0.0433318
0.0432206
0.0431355
0.0430867
0.0430745
0.0430841
0.0431037
0.0431223
0.0431288
0.0431142
0.0430754
0.0430186
0.0429571
0.0429056
0.0428727
0.0428577
0.0428534
0.0428525
0.0442245
0.0442278
0.0442381
0.0442557
0.0442737
0.0442788
0.044256
0.0441985
0.044115
0.0440191
0.0439207
0.0438222
0.0437228
0.0436222
0.0435234
0.0434355
0.043379
0.0433711
0.0434089
0.0434825
0.0435712
0.043657
0.0437211
0.0437476
0.0437273
0.0436634
0.043571
0.0434767
0.0434098
0.0433884
0.0433884
0.0433925
0.0443749
0.0443751
0.0443816
0.0443971
0.0444179
0.0444336
0.0444325
0.0444114
0.0443782
0.0443428
0.0443112
0.0442829
0.0442564
0.0442313
0.0442108
0.0442054
0.0442371
0.0443127
0.0444154
0.0445416
0.0446879
0.0448418
0.0449867
0.0451036
0.0451758
0.0451936
0.0451553
0.0450669
0.0449416
0.044803
0.0447058
0.0446655
0.0444216
0.0444204
0.0444244
0.0444377
0.0444591
0.0444809
0.044492
0.0444875
0.0444723
0.0444551
0.0444431
0.044438
0.0444389
0.0444449
0.0444566
0.0444779
0.0445213
0.0445848
0.0446519
0.0447312
0.0448311
0.0449461
0.0450674
0.045183
0.04528
0.0453478
0.0453819
0.0453828
0.0453569
0.0453141
0.0452696
0.0452405
0.0444277
0.044426
0.0444283
0.0444398
0.0444621
0.0444898
0.0445127
0.0445234
0.044522
0.0445161
0.0445127
0.0445138
0.0445188
0.044526
0.044535
0.044548
0.0445758
0.0446207
0.0446716
0.044728
0.044797
0.0448763
0.0449637
0.0450563
0.0451474
0.045227
0.0452863
0.0453197
0.0453281
0.0453171
0.0452963
0.0452783
0.0444306
0.044429
0.0444302
0.0444407
0.044464
0.0444977
0.0445328
0.0445597
0.0445748
0.0445817
0.0445869
0.0445928
0.0445983
0.0446004
0.0445965
0.0445881
0.0445884
0.0446111
0.0446575
0.0447178
0.0447815
0.0448427
0.0449014
0.0449642
0.045034
0.0451053
0.0451692
0.0452152
0.0452385
0.0452403
0.0452278
0.0452127
0.0444399
0.0444382
0.0444391
0.044449
0.0444735
0.0445127
0.0445595
0.0446034
0.0446365
0.0446597
0.0446769
0.0446911
0.0447014
0.0447037
0.0446934
0.0446694
0.0446449
0.0446441
0.0446765
0.0447334
0.0448027
0.0448618
0.0449081
0.0449507
0.0449983
0.0450551
0.0451157
0.045168
0.0452013
0.0452119
0.0452041
0.0451898
0.044456
0.0444544
0.0444551
0.0444649
0.0444907
0.0445347
0.0445918
0.0446516
0.0447035
0.0447442
0.0447758
0.0448005
0.0448182
0.0448247
0.0448142
0.0447839
0.0447455
0.0447271
0.0447443
0.0447872
0.044844
0.0449018
0.0449535
0.0449962
0.0450336
0.0450815
0.0451408
0.0452009
0.0452458
0.0452662
0.0452631
0.0452493
0.0444745
0.0444725
0.0444736
0.0444848
0.0445136
0.0445633
0.0446297
0.0447023
0.0447695
0.0448251
0.0448691
0.0449024
0.0449257
0.0449357
0.0449269
0.0448954
0.0448498
0.0448183
0.0448195
0.0448476
0.0448916
0.0449453
0.0450024
0.0450589
0.0451147
0.0451744
0.045241
0.045316
0.04538
0.0454159
0.0454199
0.0454081
0.0444927
0.0444902
0.0444921
0.0445062
0.04454
0.0445968
0.0446719
0.0447539
0.0448302
0.0448948
0.0449451
0.0449818
0.0450058
0.0450145
0.0450037
0.0449702
0.0449191
0.0448777
0.044865
0.0448812
0.0449165
0.0449689
0.0450358
0.0451159
0.0452066
0.0453053
0.0454086
0.0455102
0.0456044
0.0456673
0.0456853
0.0456793
0.0445055
0.0445025
0.0445067
0.0445269
0.0445686
0.0446332
0.0447164
0.0448033
0.0448817
0.0449462
0.0449945
0.0450273
0.045045
0.0450462
0.0450282
0.0449892
0.0449327
0.0448841
0.0448621
0.0448706
0.044904
0.0449618
0.0450454
0.0451563
0.0452925
0.0454489
0.0456142
0.0457729
0.0459149
0.0460235
0.0460697
0.0460776
0.0445081
0.0445055
0.0445148
0.0445452
0.0445983
0.044671
0.0447598
0.0448456
0.0449175
0.044973
0.0450107
0.045032
0.045037
0.0450257
0.0449968
0.0449499
0.0448889
0.0448365
0.044811
0.0448177
0.0448548
0.0449241
0.0450299
0.0451765
0.0453642
0.0455875
0.0458321
0.0460764
0.0462971
0.0464788
0.0465793
0.0466168
0.0444869
0.0444884
0.0445096
0.0445575
0.0446263
0.0447074
0.0447961
0.0448732
0.0449305
0.044969
0.0449897
0.0449942
0.0449833
0.0449579
0.0449178
0.0448641
0.0448012
0.0447488
0.0447248
0.0447352
0.0447805
0.0448647
0.0449945
0.0451769
0.0454152
0.0457063
0.0460374
0.0463857
0.0467214
0.0470103
0.0472078
0.0473044
0.0444196
0.0444369
0.044485
0.0445612
0.0446489
0.044737
0.0448174
0.0448782
0.0449155
0.0449333
0.0449345
0.0449216
0.0448959
0.0448588
0.0448109
0.0447542
0.0446929
0.0446442
0.0446253
0.0446426
0.0446981
0.0447973
0.0449485
0.0451615
0.0454425
0.0457926
0.0462046
0.0466623
0.0471391
0.0475915
0.0479428
0.0481688
0.0442486
0.0443287
0.0444436
0.0445621
0.0446681
0.0447569
0.0448222
0.0448623
0.0448783
0.0448762
0.0448604
0.0448336
0.0447977
0.0447538
0.0447028
0.0446471
0.0445903
0.0445475
0.0445348
0.0445596
0.0446245
0.0447355
0.0449024
0.0451369
0.0454475
0.0458397
0.0463138
0.0468674
0.0474928
0.0481623
0.0487919
0.0493416
0.0437682
0.0441648
0.0444219
0.0445858
0.0446969
0.0447755
0.0448218
0.0448413
0.0448389
0.0448211
0.0447932
0.0447578
0.0447166
0.0446703
0.0446196
0.044567
0.0445151
0.0444776
0.0444703
0.0445007
0.0445717
0.0446895
0.044865
0.0451105
0.0454361
0.0458497
0.0463588
0.0469752
0.0477218
0.0486333
0.0497406
0.0509982
0.0427516
0.0439942
0.0444729
0.0446344
0.0447335
0.0447991
0.0448295
0.0448338
0.0448189
0.0447917
0.0447571
0.0447176
0.0446743
0.0446276
0.0445778
0.0445273
0.0444781
0.0444435
0.0444391
0.044472
0.0445453
0.0446654
0.0448434
0.0450917
0.0454208
0.0458398
0.0463602
0.0470051
0.0478266
0.0489323
0.0505418
0.0528043
)
;

boundaryField
{
    movingWall
    {
        type            fixedFluxPressure;
        gradient        uniform 0;
        value           nonuniform List<scalar> 
32
(
0.0427516
0.0439942
0.0444729
0.0446344
0.0447335
0.0447991
0.0448295
0.0448338
0.0448189
0.0447917
0.0447571
0.0447176
0.0446743
0.0446276
0.0445778
0.0445273
0.0444781
0.0444435
0.0444391
0.044472
0.0445453
0.0446654
0.0448434
0.0450917
0.0454208
0.0458398
0.0463602
0.0470051
0.0478266
0.0489323
0.0505418
0.0528043
)
;
    }
    fixedWalls
    {
        type            fixedFluxPressure;
        gradient        uniform 0;
        value           nonuniform List<scalar> 
64
(
0.0431953
0.0432051
0.0432207
0.0432357
0.0432407
0.043227
0.0431914
0.0431397
0.0430873
0.0430545
0.0430562
0.0431005
0.0431915
0.0433401
0.0435741
0.0438936
0.0442245
0.0443749
0.0444216
0.0444277
0.0444306
0.0444399
0.044456
0.0444745
0.0444927
0.0445055
0.0445081
0.0444869
0.0444196
0.0442486
0.0437682
0.0427516
0.0429943
0.0429985
0.0430078
0.0430227
0.0430424
0.0430643
0.0430823
0.0430868
0.0430667
0.0430144
0.0429304
0.042827
0.0427313
0.0426783
0.0427037
0.0428525
0.0433925
0.0446655
0.0452405
0.0452783
0.0452127
0.0451898
0.0452493
0.0454081
0.0456793
0.0460776
0.0466168
0.0473044
0.0481688
0.0493416
0.0509982
0.0528043
)
;
    }
    floor
    {
        type            fixedFluxPressure;
        gradient        uniform 0;
        value           nonuniform List<scalar> 
32
(
0.0431953
0.043191
0.0431871
0.0431869
0.0431922
0.043205
0.0432288
0.0432692
0.0433328
0.0434211
0.0435137
0.043576
0.0435685
0.0434942
0.0433706
0.0432329
0.0431195
0.0430483
0.043009
0.0429893
0.0429812
0.0429797
0.0429814
0.0429841
0.0429865
0.0429879
0.0429884
0.0429888
0.0429896
0.0429912
0.0429931
0.0429943
)
;
    }
    frontAndBack
    {
        type            empty;
    }
}


// ************************************************************************* //
