/*--------------------------------*- C++ -*----------------------------------*\
| =========                 |                                                 |
| \\      /  F ield         | OpenFOAM: The Open Source CFD Toolbox           |
|  \\    /   O peration     | Version:  2212                                  |
|   \\  /    A nd           | Website:  www.openfoam.com                      |
|    \\/     M anipulation  |                                                 |
\*---------------------------------------------------------------------------*/
FoamFile
{
    version     2.0;
    format      ascii;
    arch        "LSB;label=64;scalar=64";
    class       volScalarField;
    location    "880";
    object      SIC;
}
// * * * * * * * * * * * * * * * * * * * * * * * * * * * * * * * * * * * * * //

dimensions      [1 -3 0 0 0 0 0];

internalField   nonuniform List<scalar> 
1024
(
0.0916724
0.0916743
0.0916789
0.091687
0.0916994
0.0917163
0.0917372
0.0917609
0.0917859
0.0918105
0.0918338
0.0918547
0.0918716
0.0918825
0.0918851
0.0918767
0.0918559
0.0918265
0.0917928
0.0917556
0.0917148
0.0916705
0.0916235
0.0915764
0.0915322
0.0914938
0.0914627
0.0914394
0.0914232
0.091413
0.0914073
0.091405
0.0916725
0.0916744
0.0916791
0.0916875
0.0917001
0.0917173
0.0917384
0.0917621
0.091787
0.0918116
0.091835
0.091856
0.0918728
0.0918837
0.0918862
0.0918777
0.091857
0.0918277
0.0917942
0.0917572
0.0917168
0.0916727
0.091626
0.0915789
0.0915345
0.0914957
0.0914643
0.0914406
0.0914241
0.0914137
0.091408
0.0914056
0.0916726
0.0916747
0.0916795
0.0916882
0.0917012
0.0917187
0.0917401
0.091764
0.0917889
0.0918136
0.0918374
0.0918589
0.0918759
0.0918866
0.0918887
0.0918799
0.091859
0.0918299
0.0917968
0.0917605
0.0917208
0.0916774
0.0916312
0.0915841
0.0915394
0.0915
0.0914677
0.0914433
0.0914262
0.0914154
0.0914095
0.091407
0.0916727
0.0916748
0.0916799
0.0916888
0.0917022
0.09172
0.0917416
0.0917656
0.0917908
0.0918161
0.091841
0.0918639
0.0918817
0.0918921
0.0918931
0.0918832
0.0918616
0.0918327
0.0918001
0.0917648
0.0917263
0.0916841
0.0916388
0.0915921
0.091547
0.0915066
0.0914732
0.0914476
0.0914297
0.0914183
0.0914121
0.0914095
0.0916725
0.0916747
0.0916798
0.0916889
0.0917024
0.0917204
0.091742
0.0917662
0.091792
0.0918187
0.091846
0.0918716
0.0918908
0.0919007
0.0918998
0.0918874
0.0918644
0.0918351
0.0918032
0.0917691
0.0917322
0.091692
0.0916481
0.0916022
0.0915569
0.0915155
0.0914807
0.0914537
0.0914346
0.0914225
0.0914159
0.0914132
0.0916716
0.0916738
0.0916789
0.0916879
0.0917012
0.0917189
0.0917404
0.0917649
0.0917917
0.0918209
0.0918521
0.0918819
0.0919035
0.0919127
0.0919085
0.0918921
0.091866
0.0918357
0.0918043
0.0917716
0.091737
0.0916991
0.0916575
0.091613
0.091568
0.0915259
0.0914896
0.0914612
0.0914409
0.0914279
0.0914208
0.0914179
0.0916696
0.0916717
0.0916766
0.0916852
0.0916979
0.091715
0.0917361
0.0917609
0.0917894
0.0918223
0.0918591
0.0918947
0.0919195
0.0919274
0.0919184
0.0918957
0.0918648
0.0918325
0.0918012
0.0917702
0.0917381
0.0917033
0.0916646
0.0916224
0.0915784
0.0915361
0.0914989
0.0914692
0.0914478
0.091434
0.0914265
0.0914235
0.0916658
0.0916678
0.0916724
0.0916803
0.0916921
0.0917081
0.0917286
0.0917539
0.091785
0.0918229
0.091867
0.0919097
0.0919379
0.0919434
0.0919271
0.0918955
0.0918578
0.0918224
0.091791
0.0917618
0.0917328
0.0917016
0.0916667
0.0916275
0.0915855
0.091544
0.0915067
0.0914764
0.0914543
0.0914401
0.0914323
0.0914292
0.09166
0.0916618
0.091666
0.0916731
0.0916837
0.0916986
0.0917185
0.0917447
0.0917792
0.0918239
0.0918771
0.0919274
0.0919578
0.0919581
0.0919313
0.0918876
0.0918409
0.0918016
0.0917702
0.0917433
0.091718
0.0916913
0.0916608
0.0916255
0.0915866
0.0915472
0.091511
0.0914812
0.0914593
0.0914451
0.0914373
0.0914341
0.0916525
0.0916541
0.0916578
0.091664
0.0916736
0.0916875
0.0917073
0.0917354
0.0917752
0.0918289
0.0918922
0.0919493
0.0919786
0.0919691
0.0919268
0.0918671
0.0918094
0.0917659
0.091735
0.0917114
0.0916908
0.0916694
0.0916444
0.0916142
0.0915796
0.0915435
0.0915099
0.091482
0.0914612
0.0914477
0.0914401
0.0914371
0.0916459
0.0916472
0.0916503
0.0916559
0.0916649
0.0916788
0.0917001
0.0917324
0.09178
0.0918445
0.0919177
0.0919781
0.0920003
0.0919738
0.0919097
0.0918298
0.0917594
0.0917119
0.0916825
0.0916635
0.091649
0.0916343
0.0916157
0.0915916
0.0915626
0.0915315
0.0915021
0.0914773
0.0914587
0.0914464
0.0914394
0.0914365
0.0916484
0.0916494
0.0916519
0.0916572
0.0916666
0.0916824
0.0917079
0.0917477
0.0918057
0.0918811
0.0919603
0.0920164
0.0920222
0.0919704
0.0918786
0.0917753
0.0916912
0.0916401
0.0916132
0.0915998
0.0915925
0.0915853
0.0915743
0.0915573
0.0915352
0.0915104
0.0914864
0.0914659
0.0914502
0.0914395
0.0914332
0.0914304
0.0916757
0.0916765
0.0916792
0.0916851
0.0916966
0.0917167
0.0917494
0.091799
0.0918674
0.0919489
0.0920245
0.0920641
0.0920427
0.0919593
0.0918381
0.091712
0.0916149
0.0915601
0.0915348
0.0915261
0.0915251
0.0915251
0.0915215
0.0915121
0.0914974
0.0914798
0.091462
0.0914463
0.0914338
0.0914248
0.0914192
0.0914165
0.0917467
0.091748
0.0917519
0.0917603
0.0917758
0.091802
0.0918427
0.0919004
0.0919729
0.0920493
0.092107
0.092117
0.0920617
0.0919487
0.0918062
0.0916656
0.0915585
0.0914972
0.0914684
0.0914582
0.0914577
0.0914604
0.0914614
0.0914583
0.0914507
0.09144
0.091428
0.0914164
0.0914066
0.091399
0.0913941
0.0913918
0.0918674
0.0918697
0.0918757
0.0918875
0.0919076
0.0919393
0.0919849
0.0920438
0.09211
0.0921686
0.0921973
0.0921743
0.0920938
0.0919702
0.0918284
0.0916908
0.0915808
0.0915087
0.0914646
0.0914373
0.0914203
0.0914096
0.091402
0.0913955
0.0913887
0.0913817
0.0913751
0.0913699
0.0913665
0.0913649
0.0913645
0.0913646
0.0920168
0.0920199
0.0920276
0.092042
0.0920654
0.0921
0.0921463
0.0922009
0.0922549
0.092293
0.092299
0.0922636
0.0921914
0.0920965
0.0919938
0.0918936
0.0918065
0.0917373
0.0916809
0.0916293
0.0915804
0.0915353
0.0914962
0.0914652
0.0914443
0.0914344
0.091435
0.0914441
0.091458
0.0914724
0.0914836
0.0914894
0.0921453
0.0921488
0.0921575
0.0921739
0.0922002
0.092238
0.0922866
0.0923413
0.092393
0.0924306
0.0924475
0.092445
0.0924317
0.0924176
0.0924099
0.0924143
0.092433
0.0924591
0.0924823
0.0924952
0.0924953
0.0924819
0.0924565
0.0924221
0.0923826
0.0923429
0.0923077
0.0922812
0.0922653
0.0922587
0.0922582
0.0922595
0.0922171
0.0922205
0.0922295
0.0922463
0.0922737
0.0923135
0.0923656
0.092427
0.0924913
0.0925518
0.0926055
0.0926562
0.0927126
0.0927838
0.0928774
0.0930012
0.0931532
0.0933117
0.0934561
0.0935805
0.0936814
0.093755
0.0937989
0.0938123
0.093796
0.0937539
0.0936927
0.0936228
0.0935566
0.0935048
0.0934729
0.0934597
0.0922483
0.0922516
0.09226
0.0922758
0.0923015
0.0923393
0.0923898
0.0924518
0.0925215
0.0925943
0.0926684
0.0927467
0.0928366
0.092947
0.0930854
0.0932588
0.0934584
0.0936537
0.0938254
0.0939751
0.0941055
0.0942168
0.0943075
0.0943747
0.0944154
0.0944282
0.0944144
0.0943797
0.094334
0.0942896
0.0942571
0.0942414
0.0922584
0.0922615
0.0922692
0.0922835
0.0923066
0.0923406
0.0923867
0.0924445
0.0925116
0.092585
0.0926628
0.0927465
0.0928418
0.0929564
0.0930975
0.09327
0.093461
0.0936379
0.0937871
0.0939177
0.094039
0.0941557
0.0942673
0.0943695
0.0944562
0.0945218
0.0945634
0.0945817
0.0945811
0.0945694
0.0945556
0.0945471
0.0922582
0.092261
0.0922679
0.0922805
0.0923008
0.0923305
0.092371
0.0924224
0.0924833
0.0925514
0.0926249
0.0927047
0.0927946
0.0929009
0.0930301
0.0931864
0.0933568
0.0935116
0.0936422
0.0937611
0.0938803
0.0940074
0.0941419
0.0942766
0.0944008
0.0945044
0.0945814
0.0946305
0.0946555
0.0946629
0.0946612
0.0946579
0.092257
0.0922592
0.0922647
0.0922751
0.0922921
0.0923175
0.0923524
0.0923974
0.0924515
0.0925134
0.0925817
0.0926569
0.0927416
0.0928408
0.0929596
0.093102
0.093257
0.0933991
0.093522
0.0936372
0.0937569
0.0938898
0.0940372
0.0941927
0.0943443
0.0944786
0.094585
0.0946588
0.0947019
0.094721
0.0947254
0.0947243
0.0922654
0.0922663
0.0922694
0.0922764
0.0922892
0.09231
0.09234
0.0923799
0.0924296
0.0924883
0.0925552
0.0926303
0.0927156
0.0928141
0.0929297
0.0930657
0.0932125
0.0933492
0.0934701
0.0935846
0.0937035
0.0938352
0.0939828
0.0941428
0.0943058
0.0944579
0.0945857
0.0946803
0.09474
0.0947699
0.0947795
0.0947798
0.0922973
0.0922959
0.0922948
0.0922964
0.0923038
0.0923197
0.0923461
0.0923842
0.0924342
0.0924956
0.0925675
0.0926494
0.0927418
0.0928463
0.0929648
0.0930998
0.0932429
0.093376
0.0934945
0.0936063
0.0937207
0.0938456
0.0939847
0.0941373
0.094297
0.0944527
0.0945911
0.0947001
0.0947735
0.0948135
0.0948283
0.0948301
0.0923678
0.0923629
0.0923558
0.0923505
0.0923517
0.0923636
0.0923895
0.0924309
0.0924877
0.0925586
0.0926417
0.0927355
0.0928388
0.0929518
0.093075
0.0932098
0.0933487
0.0934761
0.0935884
0.0936932
0.0937984
0.0939111
0.0940359
0.0941734
0.0943201
0.094468
0.0946059
0.0947211
0.0948042
0.0948527
0.0948728
0.0948761
0.0924908
0.0924814
0.0924673
0.0924554
0.0924524
0.0924642
0.092495
0.0925457
0.0926149
0.0926995
0.0927963
0.092902
0.0930148
0.0931334
0.0932578
0.0933889
0.0935197
0.093637
0.0937389
0.0938323
0.0939243
0.0940212
0.0941274
0.0942448
0.0943722
0.0945044
0.0946329
0.0947463
0.0948334
0.0948882
0.094913
0.0949181
0.0926762
0.0926618
0.0926426
0.0926284
0.0926276
0.0926463
0.092688
0.0927519
0.0928347
0.0929315
0.0930378
0.0931498
0.0932651
0.0933824
0.0935011
0.0936223
0.0937396
0.0938425
0.0939303
0.0940093
0.0940857
0.0941648
0.0942507
0.0943456
0.0944498
0.094561
0.0946734
0.0947778
0.0948631
0.0949206
0.0949491
0.0949561
0.0929296
0.0929117
0.0928933
0.0928861
0.0928969
0.0929294
0.0929847
0.0930599
0.0931504
0.0932512
0.0933575
0.0934658
0.093574
0.093681
0.0937863
0.093891
0.0939901
0.0940751
0.0941465
0.0942097
0.0942698
0.094331
0.0943966
0.094469
0.0945491
0.0946363
0.0947279
0.0948173
0.0948949
0.0949511
0.0949815
0.0949901
0.0932551
0.0932381
0.093231
0.0932418
0.093271
0.093318
0.0933819
0.0934593
0.0935463
0.0936388
0.0937334
0.0938272
0.0939188
0.0940073
0.0940929
0.0941762
0.0942534
0.0943188
0.0943728
0.0944201
0.0944644
0.0945087
0.0945557
0.0946072
0.0946644
0.0947276
0.094796
0.0948659
0.0949305
0.0949808
0.0950105
0.0950202
0.0936599
0.0936521
0.093667
0.093699
0.0937421
0.093794
0.0938542
0.0939207
0.0939915
0.0940642
0.0941368
0.0942075
0.0942754
0.0943401
0.0944016
0.0944608
0.0945149
0.0945601
0.0945972
0.0946293
0.0946589
0.0946882
0.0947188
0.0947521
0.0947891
0.0948302
0.0948757
0.0949241
0.0949715
0.0950112
0.0950369
0.0950465
0.0941582
0.0941689
0.0942017
0.0942391
0.0942781
0.0943185
0.0943608
0.0944047
0.0944497
0.094495
0.0945394
0.0945822
0.0946228
0.0946612
0.0946975
0.0947319
0.0947632
0.0947892
0.0948103
0.0948285
0.0948451
0.0948613
0.0948781
0.0948962
0.0949163
0.0949386
0.0949635
0.0949908
0.0950187
0.0950438
0.0950617
0.0950694
0.094769
0.0947781
0.0947954
0.094812
0.0948276
0.0948428
0.0948579
0.0948731
0.0948883
0.0949034
0.0949182
0.0949323
0.0949456
0.0949581
0.0949699
0.094981
0.0949911
0.0949994
0.0950062
0.095012
0.0950172
0.0950223
0.0950276
0.0950332
0.0950394
0.0950463
0.095054
0.0950625
0.0950714
0.0950798
0.0950863
0.0950895
)
;

boundaryField
{
    movingWall
    {
        type            fixedValue;
        value           uniform 0.0951;
    }
    fixedWalls
    {
        type            zeroGradient;
    }
    floor
    {
        type            zeroGradient;
    }
    frontAndBack
    {
        type            empty;
    }
}


// ************************************************************************* //
