/*--------------------------------*- C++ -*----------------------------------*\
| =========                 |                                                 |
| \\      /  F ield         | OpenFOAM: The Open Source CFD Toolbox           |
|  \\    /   O peration     | Version:  2212                                  |
|   \\  /    A nd           | Website:  www.openfoam.com                      |
|    \\/     M anipulation  |                                                 |
\*---------------------------------------------------------------------------*/
FoamFile
{
    version     2.0;
    format      ascii;
    arch        "LSB;label=64;scalar=64";
    class       volScalarField;
    location    "880";
    object      T;
}
// * * * * * * * * * * * * * * * * * * * * * * * * * * * * * * * * * * * * * //

dimensions      [0 0 0 1 0 0 0];

internalField   nonuniform List<scalar> 
1024
(
309.991
309.991
309.99
309.989
309.987
309.985
309.983
309.98
309.978
309.975
309.972
309.971
309.972
309.975
309.978
309.981
309.983
309.985
309.986
309.987
309.988
309.989
309.99
309.991
309.992
309.992
309.993
309.994
309.994
309.994
309.995
309.995
309.973
309.972
309.969
309.965
309.96
309.953
309.946
309.938
309.93
309.921
309.913
309.909
309.914
309.922
309.931
309.939
309.946
309.952
309.956
309.959
309.963
309.966
309.968
309.971
309.973
309.976
309.978
309.98
309.982
309.983
309.983
309.983
309.952
309.951
309.947
309.94
309.93
309.918
309.906
309.893
309.879
309.864
309.852
309.847
309.854
309.866
309.879
309.893
309.905
309.914
309.922
309.928
309.934
309.939
309.944
309.948
309.953
309.957
309.961
309.965
309.968
309.969
309.97
309.97
309.932
309.93
309.924
309.914
309.899
309.882
309.865
309.847
309.829
309.812
309.799
309.793
309.8
309.812
309.828
309.845
309.861
309.874
309.885
309.894
309.902
309.909
309.916
309.923
309.929
309.936
309.942
309.948
309.952
309.955
309.956
309.957
309.912
309.909
309.902
309.889
309.87
309.849
309.827
309.807
309.788
309.772
309.76
309.755
309.759
309.769
309.782
309.8
309.818
309.833
309.846
309.857
309.868
309.877
309.886
309.895
309.904
309.913
309.921
309.929
309.935
309.939
309.941
309.942
309.893
309.89
309.882
309.867
309.846
309.822
309.798
309.777
309.76
309.748
309.739
309.734
309.735
309.741
309.75
309.763
309.779
309.794
309.808
309.821
309.833
309.844
309.855
309.866
309.877
309.888
309.899
309.909
309.917
309.923
309.926
309.926
309.876
309.874
309.866
309.85
309.828
309.803
309.779
309.76
309.746
309.737
309.73
309.725
309.725
309.727
309.731
309.739
309.75
309.762
309.775
309.788
309.8
309.813
309.825
309.837
309.85
309.863
309.876
309.889
309.9
309.907
309.91
309.911
309.861
309.859
309.853
309.838
309.817
309.793
309.771
309.753
309.743
309.736
309.729
309.724
309.722
309.723
309.724
309.727
309.732
309.74
309.75
309.761
309.772
309.785
309.797
309.811
309.824
309.839
309.855
309.87
309.882
309.891
309.895
309.896
309.848
309.847
309.842
309.83
309.812
309.791
309.77
309.756
309.746
309.738
309.73
309.725
309.723
309.723
309.724
309.724
309.726
309.729
309.734
309.742
309.751
309.762
309.774
309.788
309.802
309.818
309.836
309.852
309.867
309.876
309.881
309.882
309.836
309.835
309.832
309.824
309.81
309.793
309.776
309.763
309.752
309.742
309.732
309.726
309.725
309.725
309.726
309.726
309.725
309.725
309.727
309.731
309.738
309.746
309.757
309.77
309.785
309.802
309.82
309.838
309.853
309.863
309.868
309.869
309.824
309.824
309.822
309.817
309.808
309.796
309.783
309.771
309.758
309.744
309.733
309.727
309.726
309.728
309.73
309.731
309.729
309.726
309.725
309.726
309.73
309.736
309.745
309.757
309.772
309.79
309.809
309.827
309.843
309.852
309.856
309.857
309.813
309.813
309.812
309.809
309.803
309.795
309.785
309.772
309.758
309.743
309.732
309.727
309.728
309.732
309.735
309.735
309.733
309.729
309.726
309.725
309.727
309.731
309.739
309.75
309.765
309.783
309.802
309.821
309.835
309.843
309.846
309.847
309.8
309.8
309.8
309.798
309.795
309.788
309.778
309.765
309.75
309.736
309.729
309.727
309.731
309.736
309.739
309.739
309.736
309.732
309.727
309.725
309.726
309.73
309.738
309.749
309.764
309.782
309.801
309.818
309.829
309.835
309.838
309.838
309.784
309.784
309.784
309.782
309.779
309.772
309.761
309.748
309.736
309.728
309.726
309.729
309.734
309.74
309.742
309.742
309.739
309.734
309.73
309.729
309.73
309.736
309.744
309.756
309.771
309.788
309.803
309.816
309.824
309.829
309.83
309.831
309.762
309.762
309.761
309.759
309.754
309.747
309.738
309.729
309.724
309.723
309.726
309.733
309.738
309.743
309.745
309.745
309.744
309.741
309.74
309.742
309.745
309.751
309.76
309.771
309.783
309.795
309.806
309.814
309.82
309.822
309.823
309.823
309.736
309.736
309.735
309.732
309.729
309.724
309.72
309.718
309.719
309.724
309.729
309.735
309.74
309.743
309.747
309.749
309.752
309.755
309.757
309.76
309.764
309.77
309.776
309.784
309.791
309.799
309.805
309.81
309.812
309.813
309.813
309.813
309.716
309.716
309.715
309.714
309.713
309.712
309.713
309.715
309.719
309.723
309.726
309.729
309.731
309.733
309.734
309.736
309.737
309.737
309.738
309.738
309.74
309.743
309.747
309.752
309.758
309.765
309.772
309.778
309.782
309.783
309.783
309.782
309.706
309.706
309.706
309.705
309.703
309.702
309.701
309.702
309.702
309.702
309.702
309.7
309.698
309.696
309.692
309.689
309.684
309.679
309.674
309.671
309.669
309.668
309.668
309.668
309.67
309.672
309.676
309.681
309.688
309.695
309.7
309.702
309.701
309.701
309.7
309.699
309.698
309.697
309.695
309.695
309.694
309.693
309.692
309.689
309.686
309.682
309.677
309.672
309.665
309.66
309.656
309.653
309.652
309.651
309.651
309.652
309.652
309.653
309.655
309.656
309.658
309.66
309.662
309.663
309.697
309.697
309.696
309.696
309.694
309.693
309.691
309.69
309.688
309.687
309.685
309.683
309.68
309.676
309.671
309.666
309.661
309.655
309.651
309.649
309.647
309.647
309.647
309.648
309.649
309.65
309.651
309.652
309.652
309.653
309.654
309.654
309.693
309.693
309.693
309.693
309.691
309.69
309.687
309.685
309.684
309.682
309.68
309.677
309.674
309.671
309.668
309.664
309.659
309.654
309.65
309.647
309.645
309.644
309.645
309.646
309.647
309.649
309.65
309.651
309.652
309.652
309.652
309.652
309.691
309.691
309.691
309.69
309.689
309.687
309.685
309.682
309.68
309.678
309.675
309.672
309.669
309.666
309.663
309.66
309.656
309.653
309.649
309.646
309.644
309.643
309.643
309.644
309.646
309.648
309.649
309.651
309.651
309.652
309.652
309.652
309.689
309.689
309.689
309.688
309.687
309.685
309.683
309.68
309.677
309.674
309.671
309.668
309.664
309.661
309.658
309.655
309.652
309.65
309.647
309.645
309.643
309.642
309.642
309.643
309.645
309.647
309.649
309.651
309.651
309.652
309.652
309.652
309.687
309.687
309.687
309.687
309.686
309.684
309.681
309.677
309.674
309.671
309.667
309.664
309.66
309.657
309.654
309.651
309.648
309.646
309.645
309.643
309.642
309.641
309.642
309.643
309.644
309.647
309.649
309.65
309.652
309.652
309.652
309.652
309.686
309.686
309.686
309.685
309.684
309.682
309.679
309.676
309.672
309.668
309.665
309.661
309.658
309.654
309.651
309.648
309.646
309.644
309.643
309.642
309.642
309.642
309.642
309.643
309.645
309.647
309.649
309.65
309.652
309.652
309.653
309.653
309.684
309.685
309.684
309.684
309.683
309.681
309.678
309.675
309.671
309.667
309.664
309.66
309.657
309.653
309.65
309.648
309.646
309.645
309.644
309.643
309.643
309.643
309.644
309.645
309.646
309.647
309.649
309.651
309.652
309.653
309.653
309.653
309.683
309.684
309.683
309.683
309.682
309.68
309.677
309.674
309.67
309.667
309.664
309.66
309.657
309.654
309.652
309.649
309.648
309.647
309.646
309.645
309.645
309.645
309.646
309.647
309.647
309.649
309.65
309.651
309.652
309.653
309.653
309.653
309.683
309.683
309.683
309.682
309.681
309.679
309.677
309.674
309.671
309.668
309.665
309.662
309.66
309.657
309.655
309.653
309.651
309.65
309.649
309.649
309.648
309.648
309.649
309.649
309.649
309.65
309.651
309.652
309.652
309.653
309.653
309.653
309.682
309.682
309.682
309.681
309.68
309.679
309.677
309.674
309.672
309.67
309.668
309.665
309.663
309.661
309.659
309.657
309.655
309.654
309.653
309.652
309.652
309.651
309.651
309.651
309.651
309.652
309.652
309.652
309.653
309.653
309.653
309.654
309.682
309.682
309.682
309.681
309.68
309.679
309.678
309.676
309.674
309.672
309.671
309.669
309.667
309.665
309.663
309.661
309.659
309.657
309.656
309.655
309.655
309.654
309.654
309.653
309.653
309.653
309.653
309.653
309.653
309.654
309.654
309.654
309.682
309.682
309.682
309.681
309.681
309.68
309.679
309.678
309.676
309.675
309.674
309.672
309.67
309.668
309.666
309.664
309.661
309.66
309.659
309.657
309.657
309.656
309.655
309.655
309.655
309.654
309.654
309.654
309.654
309.654
309.654
309.654
309.682
309.682
309.682
309.681
309.681
309.68
309.68
309.679
309.678
309.677
309.675
309.674
309.672
309.67
309.667
309.665
309.663
309.661
309.66
309.658
309.658
309.657
309.656
309.656
309.655
309.655
309.655
309.654
309.654
309.654
309.654
309.654
)
;

boundaryField
{
    movingWall
    {
        type            zeroGradient;
    }
    fixedWalls
    {
        type            zeroGradient;
    }
    floor
    {
        type            fixedValue;
        value           uniform 310;
    }
    frontAndBack
    {
        type            empty;
    }
}


// ************************************************************************* //
