/*--------------------------------*- C++ -*----------------------------------*\
| =========                 |                                                 |
| \\      /  F ield         | OpenFOAM: The Open Source CFD Toolbox           |
|  \\    /   O peration     | Version:  2212                                  |
|   \\  /    A nd           | Website:  www.openfoam.com                      |
|    \\/     M anipulation  |                                                 |
\*---------------------------------------------------------------------------*/
FoamFile
{
    version     2.0;
    format      ascii;
    arch        "LSB;label=64;scalar=64";
    class       volScalarField;
    location    "880";
    object      Xpr;
}
// * * * * * * * * * * * * * * * * * * * * * * * * * * * * * * * * * * * * * //

dimensions      [1 -3 0 0 0 0 0];

internalField   nonuniform List<scalar> 
1024
(
0.0820067
0.082008
0.0820113
0.0820172
0.082026
0.0820381
0.0820531
0.0820699
0.0820876
0.0821049
0.0821212
0.0821356
0.0821472
0.0821545
0.0821558
0.0821493
0.082134
0.0821124
0.0820877
0.0820604
0.0820303
0.0819973
0.0819622
0.0819268
0.0818934
0.0818644
0.0818408
0.0818231
0.0818108
0.081803
0.0817987
0.081797
0.0820067
0.0820081
0.0820115
0.0820175
0.0820265
0.0820388
0.0820539
0.0820708
0.0820884
0.0821056
0.0821219
0.0821364
0.082148
0.0821552
0.0821564
0.0821499
0.0821346
0.0821132
0.0820886
0.0820615
0.0820317
0.081999
0.081964
0.0819286
0.0818951
0.0818658
0.081842
0.081824
0.0818115
0.0818036
0.0817992
0.0817974
0.0820068
0.0820083
0.0820118
0.0820179
0.0820273
0.0820398
0.082055
0.082072
0.0820896
0.0821069
0.0821234
0.0821383
0.0821499
0.082157
0.0821579
0.0821512
0.0821358
0.0821146
0.0820904
0.0820638
0.0820345
0.0820024
0.0819678
0.0819325
0.0818988
0.081869
0.0818445
0.081826
0.0818131
0.0818049
0.0818003
0.0817985
0.0820068
0.0820084
0.082012
0.0820184
0.082028
0.0820407
0.0820561
0.0820731
0.0820908
0.0821085
0.0821258
0.0821415
0.0821536
0.0821603
0.0821605
0.082153
0.0821372
0.0821161
0.0820925
0.0820666
0.0820384
0.0820072
0.0819734
0.0819384
0.0819045
0.0818739
0.0818486
0.0818293
0.0818157
0.081807
0.0818023
0.0818004
0.0820067
0.0820082
0.0820119
0.0820184
0.0820281
0.0820409
0.0820563
0.0820734
0.0820914
0.08211
0.0821289
0.0821463
0.0821593
0.0821656
0.0821643
0.0821551
0.0821383
0.0821171
0.0820941
0.0820693
0.0820424
0.0820127
0.0819802
0.0819458
0.0819118
0.0818806
0.0818542
0.0818338
0.0818194
0.0818102
0.0818051
0.0818031
0.082006
0.0820075
0.0820112
0.0820176
0.0820271
0.0820397
0.082055
0.0820722
0.082091
0.0821112
0.0821326
0.0821528
0.0821672
0.0821728
0.0821691
0.082157
0.0821382
0.0821165
0.0820939
0.0820704
0.0820453
0.0820176
0.0819868
0.0819537
0.08192
0.0818883
0.0818609
0.0818394
0.081824
0.0818142
0.0818088
0.0818067
0.0820044
0.0820059
0.0820095
0.0820156
0.0820246
0.0820368
0.0820517
0.0820691
0.082089
0.0821117
0.0821369
0.0821609
0.0821771
0.0821814
0.082174
0.0821574
0.0821354
0.0821124
0.0820903
0.0820682
0.0820452
0.08202
0.0819916
0.0819603
0.0819275
0.0818958
0.0818678
0.0818454
0.0818292
0.0818188
0.0818131
0.0818108
0.0820016
0.0820031
0.0820063
0.082012
0.0820203
0.0820317
0.0820462
0.0820639
0.0820854
0.0821116
0.0821417
0.0821704
0.0821884
0.0821904
0.0821775
0.0821544
0.0821276
0.0821028
0.082081
0.0820606
0.0820401
0.0820179
0.0819925
0.0819636
0.0819325
0.0819015
0.0818735
0.0818507
0.0818341
0.0818233
0.0818174
0.0818151
0.0819973
0.0819986
0.0820016
0.0820067
0.0820142
0.0820247
0.0820387
0.082057
0.082081
0.0821118
0.0821481
0.0821816
0.0822004
0.082198
0.082177
0.082145
0.082112
0.0820848
0.0820633
0.082045
0.0820277
0.082009
0.0819872
0.0819616
0.0819329
0.0819035
0.0818765
0.0818541
0.0818377
0.081827
0.0818211
0.0818187
0.0819917
0.0819929
0.0819955
0.082
0.0820067
0.0820165
0.0820304
0.0820501
0.0820778
0.0821148
0.082158
0.0821956
0.0822127
0.0822023
0.0821694
0.0821258
0.0820851
0.0820553
0.0820347
0.0820192
0.0820058
0.0819914
0.081974
0.0819523
0.081927
0.0819004
0.0818754
0.0818545
0.081839
0.0818288
0.0818231
0.0818208
0.0819868
0.0819877
0.0819899
0.0819939
0.0820003
0.0820101
0.0820251
0.0820477
0.0820809
0.0821254
0.082175
0.0822141
0.082225
0.0822014
0.0821523
0.0820939
0.0820443
0.0820121
0.0819931
0.0819815
0.0819729
0.0819638
0.0819515
0.0819346
0.0819137
0.0818909
0.0818691
0.0818507
0.0818368
0.0818276
0.0818223
0.0818201
0.0819884
0.081989
0.0819909
0.0819946
0.0820012
0.0820124
0.0820304
0.0820583
0.0820988
0.0821506
0.0822038
0.0822387
0.0822367
0.0821942
0.0821247
0.0820494
0.0819903
0.0819561
0.0819394
0.0819324
0.0819294
0.0819262
0.0819196
0.0819082
0.0818925
0.0818746
0.081857
0.0818418
0.0818301
0.0818222
0.0818174
0.0818153
0.082008
0.0820086
0.0820105
0.0820146
0.0820227
0.0820369
0.0820599
0.0820947
0.0821421
0.0821975
0.082247
0.0822689
0.0822464
0.0821807
0.0820902
0.0819989
0.0819309
0.0818945
0.0818796
0.0818763
0.0818783
0.0818805
0.0818795
0.0818738
0.0818638
0.0818512
0.0818383
0.0818267
0.0818174
0.0818107
0.0818064
0.0818044
0.0820595
0.0820604
0.0820631
0.082069
0.0820798
0.0820982
0.0821266
0.0821664
0.0822158
0.0822664
0.0823016
0.0823012
0.082254
0.0821673
0.0820622
0.0819612
0.0818867
0.0818462
0.0818291
0.0818251
0.0818277
0.0818319
0.0818344
0.0818333
0.0818284
0.0818209
0.0818123
0.0818038
0.0817964
0.0817907
0.081787
0.0817852
0.0821471
0.0821487
0.0821528
0.0821609
0.0821748
0.0821965
0.0822276
0.0822672
0.0823106
0.0823468
0.0823598
0.0823352
0.0822704
0.0821771
0.0820736
0.0819756
0.0818995
0.0818516
0.0818237
0.0818076
0.0817984
0.0817931
0.0817895
0.0817859
0.0817817
0.0817769
0.081772
0.0817678
0.0817649
0.0817633
0.0817626
0.0817625
0.0822551
0.0822572
0.0822623
0.0822719
0.0822876
0.0823105
0.0823408
0.0823757
0.0824086
0.0824286
0.0824247
0.0823918
0.0823342
0.0822626
0.0821875
0.0821161
0.0820556
0.0820086
0.0819709
0.0819366
0.0819041
0.0818742
0.0818481
0.0818273
0.0818132
0.0818064
0.0818065
0.0818123
0.0818214
0.0818309
0.0818383
0.0818422
0.0823475
0.0823498
0.0823554
0.0823659
0.0823829
0.082407
0.0824377
0.0824712
0.0825012
0.0825204
0.0825249
0.0825165
0.0825018
0.0824876
0.082479
0.0824794
0.0824903
0.0825068
0.0825214
0.0825291
0.0825282
0.0825183
0.0825004
0.0824766
0.0824494
0.0824223
0.0823983
0.0823802
0.0823694
0.0823649
0.0823646
0.0823655
0.0824004
0.0824026
0.0824082
0.082419
0.0824364
0.0824618
0.0824948
0.0825331
0.0825724
0.0826084
0.0826397
0.0826693
0.0827036
0.0827489
0.0828099
0.0828915
0.0829922
0.083097
0.0831919
0.083273
0.0833381
0.0833849
0.083412
0.0834191
0.0834067
0.0833776
0.0833361
0.0832891
0.0832448
0.0832101
0.0831888
0.08318
0.0824253
0.0824273
0.0824327
0.0824427
0.0824592
0.0824835
0.082516
0.0825557
0.0825999
0.0826457
0.0826922
0.0827419
0.0828
0.0828725
0.0829644
0.0830797
0.0832122
0.0833409
0.0834526
0.0835482
0.0836301
0.0836989
0.083754
0.0837943
0.0838179
0.0838242
0.083814
0.0837907
0.0837607
0.0837317
0.0837105
0.0837003
0.0824354
0.0824374
0.0824423
0.0824514
0.0824664
0.0824885
0.0825185
0.0825561
0.0825998
0.0826472
0.0826975
0.0827519
0.0828145
0.0828904
0.0829842
0.0830991
0.083226
0.0833422
0.0834382
0.0835201
0.0835941
0.0836639
0.0837299
0.08379
0.0838409
0.0838796
0.0839042
0.0839151
0.0839147
0.0839076
0.0838993
0.0838942
0.0824382
0.08244
0.0824443
0.0824524
0.0824656
0.0824852
0.0825119
0.0825458
0.082586
0.0826309
0.0826793
0.0827318
0.0827912
0.0828618
0.0829477
0.0830516
0.0831645
0.083266
0.08335
0.0834242
0.0834967
0.0835727
0.0836524
0.0837318
0.0838048
0.0838657
0.083911
0.0839403
0.0839554
0.0839604
0.0839598
0.0839581
0.0824395
0.0824409
0.0824444
0.0824512
0.0824623
0.0824791
0.0825024
0.0825324
0.0825686
0.0826099
0.0826553
0.0827052
0.0827613
0.082827
0.0829056
0.0829998
0.0831019
0.0831948
0.0832738
0.083346
0.0834194
0.0834995
0.0835875
0.0836797
0.0837693
0.0838483
0.0839109
0.0839543
0.0839799
0.0839916
0.0839947
0.0839943
0.0824463
0.0824469
0.0824489
0.0824535
0.0824621
0.0824759
0.082496
0.0825229
0.0825563
0.0825956
0.0826401
0.08269
0.0827462
0.082811
0.0828869
0.082976
0.0830721
0.0831609
0.0832384
0.0833105
0.0833838
0.0834639
0.0835526
0.0836481
0.0837447
0.0838344
0.0839096
0.0839651
0.0840002
0.0840181
0.0840241
0.0840246
0.0824673
0.0824664
0.0824659
0.0824671
0.0824722
0.082483
0.0825008
0.0825263
0.0825597
0.0826005
0.082648
0.0827019
0.0827623
0.0828304
0.0829075
0.0829951
0.0830879
0.0831739
0.0832496
0.0833201
0.0833911
0.0834674
0.0835515
0.0836429
0.0837379
0.0838299
0.0839114
0.0839752
0.0840183
0.0840419
0.0840509
0.0840522
0.082512
0.082509
0.0825047
0.0825016
0.0825028
0.0825111
0.0825284
0.0825557
0.0825931
0.0826395
0.0826937
0.0827546
0.0828215
0.0828944
0.0829738
0.0830607
0.0831501
0.0832318
0.0833035
0.0833695
0.083435
0.0835042
0.0835799
0.0836626
0.0837501
0.0838377
0.0839189
0.0839864
0.0840349
0.0840634
0.0840753
0.0840775
0.0825891
0.0825833
0.0825746
0.0825674
0.082566
0.0825741
0.0825942
0.0826271
0.0826718
0.0827264
0.0827887
0.0828566
0.0829289
0.0830049
0.0830845
0.0831685
0.0832522
0.0833272
0.083392
0.0834509
0.0835082
0.0835679
0.0836326
0.0837034
0.0837795
0.0838579
0.0839337
0.0840002
0.084051
0.0840829
0.0840975
0.0841007
0.0827045
0.0826957
0.0826839
0.0826752
0.0826751
0.0826873
0.082714
0.0827549
0.0828076
0.0828693
0.082937
0.0830084
0.0830819
0.0831566
0.0832322
0.0833094
0.0833842
0.0834497
0.0835054
0.0835553
0.083603
0.0836519
0.0837043
0.0837616
0.0838241
0.0838902
0.0839565
0.0840177
0.0840674
0.0841008
0.0841174
0.0841216
0.0828618
0.0828508
0.0828394
0.0828351
0.0828422
0.0828627
0.0828977
0.0829452
0.0830024
0.0830661
0.0831334
0.083202
0.0832706
0.0833384
0.0834053
0.0834718
0.0835347
0.0835888
0.083634
0.0836739
0.0837115
0.0837494
0.0837895
0.0838333
0.0838814
0.0839334
0.0839875
0.0840399
0.0840851
0.0841177
0.0841353
0.0841404
0.0830633
0.0830528
0.0830484
0.0830552
0.0830735
0.083103
0.083143
0.0831915
0.0832462
0.0833044
0.083364
0.0834232
0.083481
0.0835371
0.0835912
0.083644
0.083693
0.0837345
0.0837688
0.0837986
0.0838263
0.0838538
0.0838826
0.0839139
0.0839482
0.0839859
0.0840264
0.0840675
0.0841051
0.0841341
0.0841512
0.0841569
0.0833133
0.0833085
0.0833177
0.0833376
0.0833643
0.0833966
0.0834342
0.0834757
0.08352
0.0835656
0.0836112
0.0836557
0.0836985
0.0837394
0.0837783
0.0838157
0.08385
0.0838787
0.0839022
0.0839224
0.083941
0.0839592
0.083978
0.0839983
0.0840205
0.0840451
0.0840721
0.0841005
0.0841281
0.084151
0.0841657
0.0841713
0.0836205
0.0836271
0.0836473
0.0836704
0.0836946
0.0837196
0.083746
0.0837733
0.0838014
0.0838297
0.0838576
0.0838845
0.0839101
0.0839344
0.0839572
0.0839791
0.0839989
0.0840153
0.0840287
0.0840402
0.0840506
0.0840607
0.084071
0.0840821
0.0840942
0.0841075
0.0841223
0.0841383
0.0841546
0.0841691
0.0841793
0.0841837
0.0839965
0.0840021
0.0840128
0.084023
0.0840327
0.0840421
0.0840515
0.0840609
0.0840704
0.0840799
0.0840891
0.084098
0.0841064
0.0841143
0.0841217
0.0841287
0.0841351
0.0841404
0.0841447
0.0841483
0.0841516
0.0841548
0.084158
0.0841615
0.0841652
0.0841694
0.0841739
0.0841789
0.0841841
0.084189
0.0841927
0.0841944
)
;

boundaryField
{
    movingWall
    {
        type            fixedValue;
        value           uniform 0.0842;
    }
    fixedWalls
    {
        type            zeroGradient;
    }
    floor
    {
        type            zeroGradient;
    }
    frontAndBack
    {
        type            empty;
    }
}


// ************************************************************************* //
