/*--------------------------------*- C++ -*----------------------------------*\
| =========                 |                                                 |
| \\      /  F ield         | OpenFOAM: The Open Source CFD Toolbox           |
|  \\    /   O peration     | Version:  2212                                  |
|   \\  /    A nd           | Website:  www.openfoam.com                      |
|    \\/     M anipulation  |                                                 |
\*---------------------------------------------------------------------------*/
FoamFile
{
    version     2.0;
    format      ascii;
    arch        "LSB;label=64;scalar=64";
    class       volScalarField;
    location    "20";
    object      Gh2;
}
// * * * * * * * * * * * * * * * * * * * * * * * * * * * * * * * * * * * * * //

dimensions      [1 -3 0 0 0 0 0];

internalField   nonuniform List<scalar> 
1024
(
1.1163e-05
1.1163e-05
1.1163e-05
1.1163e-05
1.11631e-05
1.11631e-05
1.11631e-05
1.11632e-05
1.11632e-05
1.11633e-05
1.11633e-05
1.11634e-05
1.11634e-05
1.11634e-05
1.11634e-05
1.11634e-05
1.11634e-05
1.11634e-05
1.11634e-05
1.11634e-05
1.11633e-05
1.11633e-05
1.11633e-05
1.11632e-05
1.11632e-05
1.11631e-05
1.11631e-05
1.11631e-05
1.1163e-05
1.1163e-05
1.1163e-05
1.1163e-05
1.1163e-05
1.1163e-05
1.1163e-05
1.11631e-05
1.11631e-05
1.11631e-05
1.11632e-05
1.11632e-05
1.11632e-05
1.11633e-05
1.11633e-05
1.11634e-05
1.11634e-05
1.11634e-05
1.11634e-05
1.11634e-05
1.11634e-05
1.11634e-05
1.11634e-05
1.11634e-05
1.11633e-05
1.11633e-05
1.11633e-05
1.11632e-05
1.11632e-05
1.11631e-05
1.11631e-05
1.11631e-05
1.1163e-05
1.1163e-05
1.1163e-05
1.1163e-05
1.1163e-05
1.1163e-05
1.11631e-05
1.11631e-05
1.11631e-05
1.11631e-05
1.11632e-05
1.11632e-05
1.11632e-05
1.11633e-05
1.11633e-05
1.11634e-05
1.11634e-05
1.11634e-05
1.11634e-05
1.11634e-05
1.11634e-05
1.11634e-05
1.11634e-05
1.11634e-05
1.11633e-05
1.11633e-05
1.11633e-05
1.11632e-05
1.11632e-05
1.11631e-05
1.11631e-05
1.11631e-05
1.11631e-05
1.1163e-05
1.1163e-05
1.1163e-05
1.11631e-05
1.11631e-05
1.11631e-05
1.11631e-05
1.11631e-05
1.11632e-05
1.11632e-05
1.11632e-05
1.11632e-05
1.11633e-05
1.11633e-05
1.11634e-05
1.11634e-05
1.11634e-05
1.11634e-05
1.11634e-05
1.11634e-05
1.11634e-05
1.11634e-05
1.11634e-05
1.11633e-05
1.11633e-05
1.11633e-05
1.11632e-05
1.11632e-05
1.11632e-05
1.11631e-05
1.11631e-05
1.11631e-05
1.11631e-05
1.11631e-05
1.11631e-05
1.11631e-05
1.11631e-05
1.11631e-05
1.11631e-05
1.11632e-05
1.11632e-05
1.11632e-05
1.11632e-05
1.11632e-05
1.11633e-05
1.11633e-05
1.11634e-05
1.11634e-05
1.11634e-05
1.11634e-05
1.11634e-05
1.11634e-05
1.11634e-05
1.11634e-05
1.11634e-05
1.11633e-05
1.11633e-05
1.11633e-05
1.11632e-05
1.11632e-05
1.11632e-05
1.11632e-05
1.11631e-05
1.11631e-05
1.11631e-05
1.11631e-05
1.11631e-05
1.11632e-05
1.11632e-05
1.11632e-05
1.11632e-05
1.11632e-05
1.11632e-05
1.11632e-05
1.11632e-05
1.11632e-05
1.11633e-05
1.11633e-05
1.11634e-05
1.11634e-05
1.11634e-05
1.11634e-05
1.11634e-05
1.11634e-05
1.11634e-05
1.11634e-05
1.11634e-05
1.11633e-05
1.11633e-05
1.11633e-05
1.11632e-05
1.11632e-05
1.11632e-05
1.11632e-05
1.11632e-05
1.11632e-05
1.11632e-05
1.11631e-05
1.11631e-05
1.11632e-05
1.11632e-05
1.11632e-05
1.11632e-05
1.11632e-05
1.11632e-05
1.11632e-05
1.11632e-05
1.11633e-05
1.11633e-05
1.11633e-05
1.11633e-05
1.11634e-05
1.11634e-05
1.11634e-05
1.11634e-05
1.11634e-05
1.11634e-05
1.11634e-05
1.11634e-05
1.11633e-05
1.11633e-05
1.11633e-05
1.11632e-05
1.11632e-05
1.11632e-05
1.11632e-05
1.11632e-05
1.11632e-05
1.11632e-05
1.11632e-05
1.11632e-05
1.11633e-05
1.11633e-05
1.11633e-05
1.11633e-05
1.11633e-05
1.11633e-05
1.11633e-05
1.11633e-05
1.11633e-05
1.11633e-05
1.11633e-05
1.11633e-05
1.11634e-05
1.11634e-05
1.11634e-05
1.11634e-05
1.11634e-05
1.11634e-05
1.11634e-05
1.11633e-05
1.11633e-05
1.11633e-05
1.11633e-05
1.11633e-05
1.11633e-05
1.11633e-05
1.11633e-05
1.11633e-05
1.11632e-05
1.11632e-05
1.11632e-05
1.11632e-05
1.11633e-05
1.11633e-05
1.11633e-05
1.11633e-05
1.11633e-05
1.11633e-05
1.11633e-05
1.11633e-05
1.11633e-05
1.11633e-05
1.11633e-05
1.11633e-05
1.11634e-05
1.11634e-05
1.11634e-05
1.11634e-05
1.11634e-05
1.11634e-05
1.11634e-05
1.11633e-05
1.11633e-05
1.11633e-05
1.11633e-05
1.11633e-05
1.11633e-05
1.11633e-05
1.11633e-05
1.11633e-05
1.11633e-05
1.11633e-05
1.11633e-05
1.11633e-05
1.11633e-05
1.11633e-05
1.11633e-05
1.11633e-05
1.11633e-05
1.11633e-05
1.11633e-05
1.11633e-05
1.11633e-05
1.11633e-05
1.11633e-05
1.11633e-05
1.11634e-05
1.11634e-05
1.11634e-05
1.11634e-05
1.11634e-05
1.11634e-05
1.11633e-05
1.11633e-05
1.11633e-05
1.11633e-05
1.11633e-05
1.11633e-05
1.11633e-05
1.11633e-05
1.11633e-05
1.11633e-05
1.11633e-05
1.11633e-05
1.11633e-05
1.11633e-05
1.11634e-05
1.11634e-05
1.11634e-05
1.11634e-05
1.11633e-05
1.11633e-05
1.11633e-05
1.11633e-05
1.11633e-05
1.11633e-05
1.11633e-05
1.11633e-05
1.11633e-05
1.11634e-05
1.11634e-05
1.11634e-05
1.11634e-05
1.11634e-05
1.11633e-05
1.11633e-05
1.11633e-05
1.11633e-05
1.11633e-05
1.11633e-05
1.11633e-05
1.11633e-05
1.11633e-05
1.11633e-05
1.11634e-05
1.11634e-05
1.11634e-05
1.11634e-05
1.11634e-05
1.11634e-05
1.11634e-05
1.11634e-05
1.11634e-05
1.11634e-05
1.11633e-05
1.11633e-05
1.11633e-05
1.11633e-05
1.11633e-05
1.11633e-05
1.11633e-05
1.11634e-05
1.11634e-05
1.11634e-05
1.11634e-05
1.11634e-05
1.11633e-05
1.11633e-05
1.11633e-05
1.11633e-05
1.11633e-05
1.11633e-05
1.11633e-05
1.11633e-05
1.11634e-05
1.11634e-05
1.11634e-05
1.11634e-05
1.11634e-05
1.11634e-05
1.11634e-05
1.11634e-05
1.11634e-05
1.11634e-05
1.11634e-05
1.11634e-05
1.11634e-05
1.11633e-05
1.11633e-05
1.11633e-05
1.11633e-05
1.11633e-05
1.11633e-05
1.11634e-05
1.11634e-05
1.11634e-05
1.11634e-05
1.11634e-05
1.11633e-05
1.11633e-05
1.11633e-05
1.11633e-05
1.11633e-05
1.11633e-05
1.11633e-05
1.11634e-05
1.11634e-05
1.11634e-05
1.11634e-05
1.11634e-05
1.11634e-05
1.11634e-05
1.11634e-05
1.11634e-05
1.11634e-05
1.11634e-05
1.11634e-05
1.11634e-05
1.11634e-05
1.11634e-05
1.11633e-05
1.11633e-05
1.11633e-05
1.11633e-05
1.11633e-05
1.11634e-05
1.11634e-05
1.11634e-05
1.11634e-05
1.11634e-05
1.11633e-05
1.11633e-05
1.11633e-05
1.11633e-05
1.11633e-05
1.11633e-05
1.11633e-05
1.11633e-05
1.11634e-05
1.11634e-05
1.11634e-05
1.11634e-05
1.11634e-05
1.11634e-05
1.11634e-05
1.11634e-05
1.11634e-05
1.11634e-05
1.11634e-05
1.11634e-05
1.11634e-05
1.11634e-05
1.11633e-05
1.11633e-05
1.11633e-05
1.11634e-05
1.11634e-05
1.11634e-05
1.11634e-05
1.11634e-05
1.11634e-05
1.11634e-05
1.11634e-05
1.11633e-05
1.11633e-05
1.11633e-05
1.11633e-05
1.11633e-05
1.11633e-05
1.11633e-05
1.11633e-05
1.11633e-05
1.11633e-05
1.11633e-05
1.11633e-05
1.11633e-05
1.11634e-05
1.11634e-05
1.11634e-05
1.11634e-05
1.11634e-05
1.11634e-05
1.11634e-05
1.11634e-05
1.11634e-05
1.11634e-05
1.11634e-05
1.11634e-05
1.11634e-05
1.11634e-05
1.11634e-05
1.11635e-05
1.11634e-05
1.11634e-05
1.11634e-05
1.11633e-05
1.11633e-05
1.11632e-05
1.11631e-05
1.1163e-05
1.1163e-05
1.1163e-05
1.1163e-05
1.1163e-05
1.11631e-05
1.11631e-05
1.11631e-05
1.11631e-05
1.11634e-05
1.11634e-05
1.11634e-05
1.11634e-05
1.11634e-05
1.11634e-05
1.11634e-05
1.11634e-05
1.11634e-05
1.11634e-05
1.11634e-05
1.11634e-05
1.11634e-05
1.11634e-05
1.11634e-05
1.11634e-05
1.11634e-05
1.11634e-05
1.11633e-05
1.11631e-05
1.11629e-05
1.11625e-05
1.11621e-05
1.11617e-05
1.11615e-05
1.11614e-05
1.11614e-05
1.11615e-05
1.11616e-05
1.11617e-05
1.11618e-05
1.11618e-05
1.11634e-05
1.11634e-05
1.11634e-05
1.11634e-05
1.11634e-05
1.11634e-05
1.11634e-05
1.11633e-05
1.11633e-05
1.11633e-05
1.11633e-05
1.11633e-05
1.11633e-05
1.11633e-05
1.11633e-05
1.11634e-05
1.11633e-05
1.11631e-05
1.11629e-05
1.11624e-05
1.11615e-05
1.11601e-05
1.11585e-05
1.1157e-05
1.11558e-05
1.11552e-05
1.11552e-05
1.11555e-05
1.1156e-05
1.11564e-05
1.11568e-05
1.11569e-05
1.11633e-05
1.11633e-05
1.11633e-05
1.11633e-05
1.11633e-05
1.11633e-05
1.11633e-05
1.11633e-05
1.11633e-05
1.11633e-05
1.11632e-05
1.11632e-05
1.11632e-05
1.11632e-05
1.11631e-05
1.11631e-05
1.1163e-05
1.11627e-05
1.11621e-05
1.11608e-05
1.11584e-05
1.11548e-05
1.11506e-05
1.11464e-05
1.11432e-05
1.11412e-05
1.11407e-05
1.11413e-05
1.11424e-05
1.11436e-05
1.11445e-05
1.1145e-05
1.11632e-05
1.11632e-05
1.11632e-05
1.11632e-05
1.11632e-05
1.11632e-05
1.11632e-05
1.11632e-05
1.11631e-05
1.11631e-05
1.1163e-05
1.11629e-05
1.11628e-05
1.11627e-05
1.11626e-05
1.11625e-05
1.11623e-05
1.11618e-05
1.11607e-05
1.11583e-05
1.11538e-05
1.11473e-05
1.11396e-05
1.11321e-05
1.1126e-05
1.11219e-05
1.11202e-05
1.11203e-05
1.11218e-05
1.11236e-05
1.11252e-05
1.11261e-05
1.11628e-05
1.11628e-05
1.11629e-05
1.11629e-05
1.11629e-05
1.11629e-05
1.11628e-05
1.11628e-05
1.11627e-05
1.11626e-05
1.11624e-05
1.11622e-05
1.1162e-05
1.11617e-05
1.11615e-05
1.11612e-05
1.11608e-05
1.11602e-05
1.11588e-05
1.11555e-05
1.11495e-05
1.11408e-05
1.11306e-05
1.11206e-05
1.11122e-05
1.11061e-05
1.11024e-05
1.11011e-05
1.11016e-05
1.11033e-05
1.1105e-05
1.11061e-05
1.11621e-05
1.11621e-05
1.11621e-05
1.11621e-05
1.11622e-05
1.11622e-05
1.11621e-05
1.11619e-05
1.11617e-05
1.11614e-05
1.11611e-05
1.11607e-05
1.11602e-05
1.11597e-05
1.11592e-05
1.11587e-05
1.11582e-05
1.11575e-05
1.11561e-05
1.11529e-05
1.11466e-05
1.11374e-05
1.11266e-05
1.11158e-05
1.11061e-05
1.10981e-05
1.10923e-05
1.10889e-05
1.10877e-05
1.10882e-05
1.10894e-05
1.10904e-05
1.11606e-05
1.11607e-05
1.11607e-05
1.11608e-05
1.11608e-05
1.11608e-05
1.11606e-05
1.11603e-05
1.11598e-05
1.11593e-05
1.11586e-05
1.11578e-05
1.1157e-05
1.11562e-05
1.11554e-05
1.11546e-05
1.11538e-05
1.11532e-05
1.11521e-05
1.11495e-05
1.11442e-05
1.11361e-05
1.11261e-05
1.11154e-05
1.11051e-05
1.10956e-05
1.10878e-05
1.10823e-05
1.10792e-05
1.10783e-05
1.10788e-05
1.10795e-05
1.11581e-05
1.11582e-05
1.11584e-05
1.11585e-05
1.11585e-05
1.11584e-05
1.1158e-05
1.11574e-05
1.11565e-05
1.11555e-05
1.11544e-05
1.11531e-05
1.11519e-05
1.11507e-05
1.11495e-05
1.11484e-05
1.11474e-05
1.11468e-05
1.1146e-05
1.11442e-05
1.11403e-05
1.11339e-05
1.11254e-05
1.11157e-05
1.11053e-05
1.1095e-05
1.10857e-05
1.10783e-05
1.10735e-05
1.10712e-05
1.10709e-05
1.10713e-05
1.11543e-05
1.11544e-05
1.11546e-05
1.11548e-05
1.11548e-05
1.11544e-05
1.11537e-05
1.11526e-05
1.11512e-05
1.11496e-05
1.11479e-05
1.11462e-05
1.11445e-05
1.11428e-05
1.11413e-05
1.11399e-05
1.11387e-05
1.1138e-05
1.11374e-05
1.11363e-05
1.11338e-05
1.11291e-05
1.11223e-05
1.11138e-05
1.11042e-05
1.10939e-05
1.10839e-05
1.10753e-05
1.1069e-05
1.10655e-05
1.10644e-05
1.10646e-05
1.11486e-05
1.11488e-05
1.11492e-05
1.11493e-05
1.1149e-05
1.11483e-05
1.1147e-05
1.11453e-05
1.11432e-05
1.1141e-05
1.11388e-05
1.11366e-05
1.11345e-05
1.11325e-05
1.11307e-05
1.1129e-05
1.11277e-05
1.11269e-05
1.11264e-05
1.11258e-05
1.11242e-05
1.11209e-05
1.11157e-05
1.11088e-05
1.11004e-05
1.1091e-05
1.10813e-05
1.10723e-05
1.10651e-05
1.10606e-05
1.10588e-05
1.10588e-05
1.11407e-05
1.11411e-05
1.11414e-05
1.11414e-05
1.11407e-05
1.11393e-05
1.11373e-05
1.11349e-05
1.11322e-05
1.11295e-05
1.11268e-05
1.11243e-05
1.11219e-05
1.11198e-05
1.11179e-05
1.11161e-05
1.11147e-05
1.11138e-05
1.11134e-05
1.1113e-05
1.11121e-05
1.111e-05
1.11062e-05
1.11008e-05
1.1094e-05
1.1086e-05
1.10774e-05
1.10688e-05
1.10614e-05
1.10563e-05
1.10539e-05
1.10535e-05
1.11301e-05
1.11306e-05
1.11309e-05
1.11304e-05
1.1129e-05
1.11268e-05
1.11241e-05
1.11211e-05
1.1118e-05
1.1115e-05
1.11122e-05
1.11096e-05
1.11072e-05
1.11051e-05
1.11033e-05
1.11016e-05
1.11003e-05
1.10994e-05
1.1099e-05
1.10987e-05
1.10982e-05
1.10969e-05
1.10943e-05
1.10904e-05
1.10853e-05
1.10791e-05
1.10719e-05
1.10645e-05
1.10575e-05
1.10523e-05
1.10494e-05
1.10488e-05
1.11163e-05
1.11168e-05
1.11166e-05
1.11153e-05
1.11132e-05
1.11104e-05
1.11073e-05
1.11041e-05
1.1101e-05
1.10981e-05
1.10955e-05
1.10931e-05
1.1091e-05
1.10891e-05
1.10875e-05
1.10861e-05
1.1085e-05
1.10842e-05
1.10838e-05
1.10836e-05
1.10834e-05
1.10826e-05
1.10809e-05
1.10783e-05
1.10748e-05
1.10703e-05
1.1065e-05
1.10591e-05
1.10532e-05
1.10484e-05
1.10454e-05
1.10445e-05
1.10987e-05
1.10989e-05
1.10978e-05
1.10958e-05
1.10932e-05
1.10903e-05
1.10874e-05
1.10846e-05
1.10819e-05
1.10795e-05
1.10774e-05
1.10755e-05
1.10739e-05
1.10725e-05
1.10713e-05
1.10702e-05
1.10694e-05
1.10688e-05
1.10685e-05
1.10684e-05
1.10682e-05
1.10678e-05
1.10668e-05
1.10653e-05
1.10631e-05
1.10602e-05
1.10567e-05
1.10526e-05
1.10483e-05
1.10443e-05
1.10416e-05
1.10407e-05
1.10762e-05
1.10756e-05
1.10739e-05
1.10719e-05
1.10697e-05
1.10676e-05
1.10655e-05
1.10636e-05
1.10619e-05
1.10603e-05
1.1059e-05
1.10578e-05
1.10568e-05
1.10559e-05
1.10552e-05
1.10546e-05
1.10541e-05
1.10537e-05
1.10535e-05
1.10535e-05
1.10534e-05
1.10532e-05
1.10527e-05
1.10519e-05
1.10507e-05
1.10492e-05
1.10473e-05
1.1045e-05
1.10425e-05
1.10399e-05
1.1038e-05
1.10371e-05
1.10478e-05
1.10474e-05
1.10465e-05
1.10457e-05
1.10448e-05
1.1044e-05
1.10433e-05
1.10426e-05
1.1042e-05
1.10415e-05
1.1041e-05
1.10406e-05
1.10403e-05
1.104e-05
1.10397e-05
1.10395e-05
1.10394e-05
1.10393e-05
1.10392e-05
1.10392e-05
1.10392e-05
1.10391e-05
1.10389e-05
1.10387e-05
1.10384e-05
1.10379e-05
1.10373e-05
1.10366e-05
1.10358e-05
1.1035e-05
1.10342e-05
1.10339e-05
)
;

boundaryField
{
    movingWall
    {
        type            fixedValue;
        value           uniform 1.1032e-05;
    }
    fixedWalls
    {
        type            zeroGradient;
    }
    floor
    {
        type            zeroGradient;
    }
    frontAndBack
    {
        type            empty;
    }
}


// ************************************************************************* //
