/*--------------------------------*- C++ -*----------------------------------*\
| =========                 |                                                 |
| \\      /  F ield         | OpenFOAM: The Open Source CFD Toolbox           |
|  \\    /   O peration     | Version:  2212                                  |
|   \\  /    A nd           | Website:  www.openfoam.com                      |
|    \\/     M anipulation  |                                                 |
\*---------------------------------------------------------------------------*/
FoamFile
{
    version     2.0;
    format      ascii;
    arch        "LSB;label=64;scalar=64";
    class       volScalarField;
    location    "20";
    object      p_rgh;
}
// * * * * * * * * * * * * * * * * * * * * * * * * * * * * * * * * * * * * * //

dimensions      [0 2 -2 0 0 0 0];

internalField   nonuniform List<scalar> 
1024
(
0.0432075
0.0432083
0.0432073
0.0432019
0.0431908
0.0431749
0.0431583
0.0431453
0.0431389
0.0431395
0.0431459
0.0431577
0.043173
0.0431907
0.0432107
0.0432337
0.0432611
0.0432878
0.0433107
0.0433304
0.0433488
0.0433675
0.0433854
0.0433958
0.043392
0.0433733
0.0433481
0.0433262
0.0433116
0.0433043
0.0433024
0.0433031
0.0432636
0.0432649
0.043264
0.0432584
0.0432464
0.0432294
0.0432121
0.0431989
0.0431925
0.0431931
0.0431997
0.0432117
0.0432272
0.043245
0.0432652
0.0432884
0.0433161
0.0433431
0.0433663
0.0433862
0.0434048
0.0434241
0.0434428
0.0434543
0.0434508
0.0434314
0.0434044
0.0433812
0.0433658
0.0433582
0.0433563
0.0433572
0.0434003
0.0434026
0.0434023
0.0433956
0.0433806
0.0433598
0.0433398
0.0433253
0.0433192
0.0433206
0.043328
0.0433408
0.0433571
0.0433755
0.0433961
0.0434197
0.0434481
0.043476
0.0434999
0.0435203
0.0435396
0.0435603
0.0435817
0.0435962
0.043594
0.043572
0.0435395
0.0435111
0.0434923
0.0434833
0.0434815
0.0434831
0.0436401
0.0436437
0.043644
0.0436354
0.0436156
0.0435879
0.0435623
0.0435452
0.0435396
0.0435427
0.043552
0.0435668
0.0435846
0.0436041
0.0436256
0.0436501
0.0436798
0.0437093
0.0437344
0.0437558
0.0437762
0.0437993
0.0438247
0.0438437
0.0438429
0.0438167
0.0437751
0.0437368
0.0437113
0.0436995
0.043698
0.0437009
0.0439961
0.0440006
0.044001
0.0439902
0.0439651
0.0439297
0.0438965
0.0438755
0.0438703
0.0438759
0.043888
0.0439058
0.0439259
0.0439471
0.04397
0.0439958
0.0440277
0.044059
0.0440857
0.0441084
0.0441304
0.0441559
0.0441849
0.0442071
0.0442067
0.0441763
0.0441253
0.0440748
0.0440403
0.0440249
0.0440238
0.0440284
0.0444623
0.0444666
0.0444662
0.0444537
0.0444254
0.0443852
0.0443451
0.0443199
0.0443148
0.0443226
0.0443377
0.0443586
0.0443813
0.0444045
0.0444291
0.0444568
0.0444911
0.0445237
0.0445515
0.0445753
0.0445984
0.0446246
0.0446537
0.0446751
0.0446736
0.0446416
0.0445866
0.0445274
0.0444857
0.0444671
0.0444662
0.0444722
0.0450056
0.0450084
0.0450064
0.0449935
0.0449663
0.0449275
0.0448852
0.0448577
0.044852
0.0448606
0.0448772
0.0448999
0.0449242
0.0449487
0.0449747
0.0450037
0.0450393
0.0450713
0.0450987
0.0451222
0.0451443
0.0451679
0.0451921
0.0452081
0.0452047
0.0451764
0.0451278
0.0450708
0.0450282
0.0450085
0.0450072
0.0450131
0.0455641
0.0455647
0.0455613
0.0455499
0.045528
0.0454968
0.0454596
0.0454339
0.0454274
0.0454347
0.0454502
0.0454714
0.0454945
0.0455183
0.0455438
0.0455725
0.0456061
0.0456344
0.0456586
0.0456791
0.0456975
0.045715
0.045731
0.0457402
0.0457368
0.0457176
0.0456846
0.0456422
0.0456076
0.0455902
0.0455878
0.0455916
0.0460594
0.0460584
0.0460546
0.0460461
0.0460314
0.0460102
0.0459836
0.0459642
0.0459583
0.0459631
0.0459746
0.045991
0.0460094
0.0460292
0.0460512
0.0460763
0.0461038
0.0461254
0.0461436
0.0461587
0.0461711
0.0461817
0.0461901
0.0461947
0.0461935
0.046185
0.0461699
0.0461487
0.046127
0.0461147
0.0461113
0.0461123
0.0464248
0.0464234
0.0464204
0.0464152
0.0464071
0.0463938
0.0463789
0.046368
0.0463643
0.0463668
0.0463736
0.0463836
0.0463953
0.0464087
0.0464242
0.0464423
0.0464611
0.0464749
0.0464862
0.0464953
0.0465022
0.0465075
0.0465116
0.0465144
0.0465154
0.0465142
0.0465105
0.0465046
0.0464968
0.0464903
0.0464872
0.0464863
0.0466391
0.046638
0.0466361
0.046633
0.0466282
0.0466221
0.0466161
0.0466119
0.0466108
0.0466123
0.0466156
0.0466203
0.0466259
0.0466327
0.0466411
0.0466514
0.046662
0.0466695
0.0466757
0.0466806
0.0466842
0.0466869
0.0466893
0.0466916
0.0466935
0.0466949
0.0466954
0.0466948
0.0466935
0.046692
0.0466904
0.0466895
0.0467343
0.0467336
0.0467325
0.0467309
0.046729
0.0467271
0.0467254
0.0467244
0.0467247
0.0467259
0.0467274
0.0467291
0.046731
0.0467334
0.0467367
0.0467413
0.0467466
0.046751
0.0467548
0.0467581
0.0467607
0.0467629
0.0467649
0.046767
0.0467688
0.0467703
0.0467713
0.0467717
0.0467717
0.0467713
0.0467708
0.0467705
0.0467651
0.0467647
0.0467642
0.0467636
0.046763
0.0467625
0.0467622
0.0467621
0.0467626
0.0467635
0.0467643
0.0467648
0.0467652
0.0467658
0.0467668
0.0467688
0.046772
0.0467757
0.0467795
0.046783
0.046786
0.0467886
0.0467908
0.0467929
0.0467945
0.0467954
0.0467961
0.0467965
0.0467966
0.0467965
0.0467962
0.046796
0.0467704
0.0467702
0.04677
0.0467697
0.0467695
0.0467694
0.0467694
0.0467695
0.0467698
0.0467701
0.0467704
0.0467706
0.0467707
0.0467709
0.0467715
0.046773
0.0467761
0.0467806
0.0467854
0.0467901
0.0467944
0.0467979
0.0468007
0.0468028
0.0468042
0.046805
0.0468055
0.0468057
0.0468056
0.0468053
0.0468051
0.046805
0.0467676
0.0467674
0.0467673
0.0467671
0.046767
0.0467669
0.046767
0.0467671
0.0467671
0.046767
0.0467669
0.046767
0.0467671
0.0467674
0.0467682
0.0467701
0.0467739
0.0467796
0.0467861
0.0467927
0.0467988
0.0468039
0.0468079
0.0468108
0.0468126
0.046813
0.0468133
0.0468132
0.0468129
0.0468125
0.0468122
0.046812
0.0467616
0.0467615
0.0467613
0.0467611
0.046761
0.0467609
0.0467608
0.0467607
0.0467606
0.0467604
0.0467602
0.0467602
0.0467603
0.0467607
0.0467615
0.0467637
0.0467681
0.046775
0.0467835
0.0467927
0.0468017
0.0468096
0.0468157
0.0468197
0.0468222
0.0468232
0.0468234
0.0468231
0.0468226
0.0468221
0.0468216
0.0468211
0.0467539
0.0467537
0.0467535
0.0467533
0.0467531
0.0467529
0.0467526
0.0467524
0.0467522
0.0467519
0.0467517
0.0467515
0.0467515
0.0467516
0.0467521
0.046754
0.0467583
0.0467656
0.0467753
0.0467874
0.0468006
0.0468133
0.0468239
0.0468314
0.0468356
0.0468372
0.0468368
0.0468356
0.0468341
0.0468329
0.046832
0.0468312
0.0467451
0.0467448
0.0467446
0.0467443
0.0467441
0.0467438
0.0467436
0.0467435
0.0467433
0.0467427
0.0467423
0.0467419
0.0467415
0.0467412
0.0467411
0.0467418
0.0467444
0.0467498
0.0467585
0.0467712
0.0467878
0.0468062
0.0468238
0.046838
0.0468464
0.0468495
0.0468485
0.0468456
0.0468419
0.046839
0.0468368
0.0468353
0.0467361
0.0467358
0.0467354
0.046735
0.0467347
0.0467345
0.0467343
0.0467343
0.0467339
0.0467333
0.0467327
0.0467322
0.0467315
0.0467307
0.0467297
0.0467288
0.0467285
0.0467297
0.0467332
0.0467403
0.0467529
0.0467717
0.0467939
0.0468159
0.0468334
0.0468431
0.0468451
0.0468417
0.0468358
0.0468298
0.0468245
0.0468213
0.0467267
0.0467262
0.0467257
0.0467253
0.0467249
0.0467247
0.0467246
0.0467246
0.0467244
0.0467238
0.0467233
0.0467227
0.0467219
0.0467207
0.0467188
0.0467161
0.0467122
0.0467076
0.0467026
0.0466971
0.0466931
0.0466959
0.0467093
0.0467335
0.046763
0.0467886
0.0468043
0.046809
0.0468054
0.0467972
0.0467879
0.0467813
0.0467166
0.046716
0.0467153
0.0467147
0.0467143
0.0467142
0.0467143
0.0467147
0.0467146
0.0467144
0.0467142
0.046714
0.0467132
0.0467118
0.0467091
0.0467046
0.0466974
0.0466865
0.0466712
0.0466486
0.0466192
0.0465907
0.0465784
0.0465915
0.0466282
0.0466746
0.0467157
0.0467416
0.0467505
0.0467457
0.0467341
0.0467228
0.0467055
0.0467046
0.0467036
0.0467029
0.0467027
0.0467028
0.0467033
0.0467041
0.0467049
0.0467053
0.0467058
0.046706
0.0467055
0.046704
0.0467009
0.0466951
0.0466853
0.0466694
0.0466448
0.046606
0.0465508
0.0464896
0.0464444
0.0464358
0.046471
0.0465345
0.0466041
0.0466602
0.0466922
0.0466992
0.0466892
0.0466735
0.0466926
0.0466912
0.04669
0.0466893
0.0466893
0.04669
0.0466913
0.0466931
0.046695
0.0466966
0.0466981
0.0466992
0.046699
0.0466977
0.0466944
0.046688
0.0466765
0.0466577
0.0466272
0.046578
0.0465063
0.0464233
0.0463528
0.0463255
0.0463523
0.0464235
0.0465174
0.0466052
0.0466668
0.0466929
0.0466889
0.0466713
0.0466772
0.0466752
0.0466735
0.046673
0.0466737
0.0466757
0.0466785
0.046682
0.0466855
0.0466889
0.0466915
0.0466933
0.0466937
0.0466927
0.0466894
0.0466827
0.0466707
0.0466504
0.0466174
0.0465644
0.0464888
0.0464001
0.0463282
0.0462876
0.0463092
0.0463833
0.0464957
0.0466142
0.0467101
0.0467622
0.0467693
0.0467536
0.0466576
0.0466547
0.0466526
0.0466529
0.0466554
0.0466596
0.0466651
0.0466712
0.0466771
0.0466824
0.0466865
0.0466889
0.0466899
0.0466892
0.0466858
0.0466793
0.046667
0.0466459
0.0466127
0.04656
0.046487
0.046404
0.0463384
0.0463094
0.0463409
0.0464293
0.0465578
0.0467074
0.0468455
0.0469352
0.0469618
0.0469534
0.0466316
0.0466274
0.0466256
0.046628
0.0466339
0.0466423
0.0466519
0.0466615
0.0466702
0.0466775
0.0466829
0.0466862
0.0466877
0.046687
0.0466837
0.0466772
0.0466647
0.0466436
0.0466104
0.0465594
0.0464898
0.0464135
0.0463592
0.0463525
0.0464121
0.0465339
0.0467014
0.0468957
0.0470841
0.0472279
0.0472894
0.0472981
0.0465938
0.0465892
0.0465895
0.0465972
0.04661
0.0466252
0.0466406
0.0466545
0.0466659
0.0466753
0.0466815
0.0466854
0.0466871
0.0466864
0.046683
0.0466762
0.046664
0.0466429
0.0466094
0.0465593
0.0464925
0.0464225
0.0463815
0.0463996
0.046495
0.0466675
0.0469005
0.0471643
0.0474246
0.0476442
0.0477664
0.047809
0.0465339
0.0465327
0.0465409
0.0465607
0.0465859
0.0466111
0.0466334
0.0466516
0.0466655
0.0466757
0.0466825
0.0466868
0.0466885
0.0466877
0.0466841
0.0466768
0.0466646
0.046643
0.0466092
0.0465595
0.0464949
0.0464314
0.0464045
0.0464479
0.0465816
0.0468093
0.0471179
0.0474767
0.0478424
0.0481676
0.0483894
0.0484939
0.0464313
0.0464455
0.0464779
0.0465229
0.0465673
0.0466044
0.0466326
0.0466537
0.0466693
0.0466796
0.0466863
0.0466903
0.0466917
0.0466907
0.0466866
0.0466788
0.0466662
0.0466439
0.0466093
0.0465596
0.0464971
0.0464403
0.0464274
0.0464939
0.0466618
0.04694
0.0473214
0.0477827
0.0482835
0.0487661
0.0491408
0.0493749
0.0462362
0.0463134
0.0464118
0.0464992
0.0465636
0.0466106
0.0466426
0.0466641
0.0466788
0.0466878
0.0466935
0.0466964
0.0466968
0.0466948
0.0466898
0.0466815
0.0466685
0.0466455
0.04661
0.0465601
0.0464993
0.0464484
0.0464468
0.0465305
0.0467232
0.0470386
0.0474771
0.0480285
0.0486724
0.0493669
0.0500154
0.0505707
0.0457463
0.0461413
0.0463839
0.0465162
0.0465908
0.0466387
0.0466678
0.046685
0.0466956
0.0467009
0.0467039
0.0467047
0.0467033
0.0466997
0.0466935
0.0466846
0.0466707
0.0466472
0.0466113
0.0465613
0.0465017
0.0464547
0.0464593
0.0465517
0.0467572
0.0470917
0.0475614
0.0481709
0.0489303
0.0498611
0.0509827
0.0522446
0.0447322
0.0459743
0.0464383
0.0465697
0.0466362
0.0466778
0.0466994
0.0467096
0.0467141
0.046715
0.0467146
0.0467126
0.046709
0.0467042
0.0466969
0.0466872
0.0466726
0.0466487
0.0466127
0.0465629
0.0465038
0.046458
0.0464643
0.0465587
0.0467669
0.0471054
0.047584
0.0482184
0.0490484
0.0501688
0.0517889
0.0540554
)
;

boundaryField
{
    movingWall
    {
        type            fixedFluxPressure;
        gradient        uniform 0;
        value           nonuniform List<scalar> 
32
(
0.0447322
0.0459743
0.0464383
0.0465697
0.0466362
0.0466778
0.0466994
0.0467096
0.0467141
0.046715
0.0467146
0.0467126
0.046709
0.0467042
0.0466969
0.0466872
0.0466726
0.0466487
0.0466127
0.0465629
0.0465038
0.046458
0.0464643
0.0465587
0.0467669
0.0471054
0.047584
0.0482184
0.0490484
0.0501688
0.0517889
0.0540554
)
;
    }
    fixedWalls
    {
        type            fixedFluxPressure;
        gradient        uniform 0;
        value           nonuniform List<scalar> 
64
(
0.0432075
0.0432636
0.0434003
0.0436401
0.0439961
0.0444623
0.0450056
0.0455641
0.0460594
0.0464248
0.0466391
0.0467343
0.0467651
0.0467704
0.0467676
0.0467616
0.0467539
0.0467451
0.0467361
0.0467267
0.0467166
0.0467055
0.0466926
0.0466772
0.0466576
0.0466316
0.0465938
0.0465339
0.0464313
0.0462362
0.0457463
0.0447322
0.0433031
0.0433572
0.0434831
0.0437009
0.0440284
0.0444722
0.0450131
0.0455916
0.0461123
0.0464863
0.0466895
0.0467705
0.046796
0.046805
0.046812
0.0468211
0.0468312
0.0468353
0.0468213
0.0467813
0.0467228
0.0466735
0.0466713
0.0467536
0.0469534
0.0472981
0.047809
0.0484939
0.0493749
0.0505707
0.0522446
0.0540554
)
;
    }
    floor
    {
        type            fixedFluxPressure;
        gradient        uniform 0;
        value           nonuniform List<scalar> 
32
(
0.0432075
0.0432083
0.0432073
0.0432019
0.0431908
0.0431749
0.0431583
0.0431453
0.0431389
0.0431395
0.0431459
0.0431577
0.043173
0.0431907
0.0432107
0.0432337
0.0432611
0.0432878
0.0433107
0.0433304
0.0433488
0.0433675
0.0433854
0.0433958
0.043392
0.0433733
0.0433481
0.0433262
0.0433116
0.0433043
0.0433024
0.0433031
)
;
    }
    frontAndBack
    {
        type            empty;
    }
}


// ************************************************************************* //
