/*--------------------------------*- C++ -*----------------------------------*\
| =========                 |                                                 |
| \\      /  F ield         | OpenFOAM: The Open Source CFD Toolbox           |
|  \\    /   O peration     | Version:  2212                                  |
|   \\  /    A nd           | Website:  www.openfoam.com                      |
|    \\/     M anipulation  |                                                 |
\*---------------------------------------------------------------------------*/
FoamFile
{
    version     2.0;
    format      ascii;
    arch        "LSB;label=64;scalar=64";
    class       volScalarField;
    location    "20";
    object      Xch;
}
// * * * * * * * * * * * * * * * * * * * * * * * * * * * * * * * * * * * * * //

dimensions      [1 -3 0 0 0 0 0];

internalField   nonuniform List<scalar> 
1024
(
0.0204553
0.0204553
0.0204552
0.0204552
0.0204552
0.0204552
0.0204552
0.0204552
0.0204552
0.0204552
0.0204551
0.0204551
0.0204551
0.0204551
0.0204551
0.0204551
0.0204551
0.0204551
0.0204551
0.0204551
0.0204551
0.0204551
0.0204552
0.0204552
0.0204552
0.0204552
0.0204552
0.0204552
0.0204552
0.0204553
0.0204553
0.0204553
0.0204552
0.0204552
0.0204552
0.0204552
0.0204552
0.0204552
0.0204552
0.0204552
0.0204552
0.0204552
0.0204551
0.0204551
0.0204551
0.0204551
0.0204551
0.0204551
0.0204551
0.0204551
0.0204551
0.0204551
0.0204551
0.0204551
0.0204552
0.0204552
0.0204552
0.0204552
0.0204552
0.0204552
0.0204552
0.0204553
0.0204553
0.0204553
0.0204552
0.0204552
0.0204552
0.0204552
0.0204552
0.0204552
0.0204552
0.0204552
0.0204552
0.0204552
0.0204551
0.0204551
0.0204551
0.0204551
0.0204551
0.0204551
0.0204551
0.0204551
0.0204551
0.0204551
0.0204551
0.0204551
0.0204552
0.0204552
0.0204552
0.0204552
0.0204552
0.0204552
0.0204552
0.0204552
0.0204552
0.0204552
0.0204552
0.0204552
0.0204552
0.0204552
0.0204552
0.0204552
0.0204552
0.0204552
0.0204552
0.0204552
0.0204551
0.0204551
0.0204551
0.0204551
0.0204551
0.0204551
0.0204551
0.0204551
0.0204551
0.0204551
0.0204551
0.0204551
0.0204552
0.0204552
0.0204552
0.0204552
0.0204552
0.0204552
0.0204552
0.0204552
0.0204552
0.0204552
0.0204552
0.0204552
0.0204552
0.0204552
0.0204552
0.0204552
0.0204552
0.0204552
0.0204552
0.0204552
0.0204551
0.0204551
0.0204551
0.0204551
0.0204551
0.0204551
0.0204551
0.0204551
0.0204551
0.0204551
0.0204551
0.0204551
0.0204552
0.0204552
0.0204552
0.0204552
0.0204552
0.0204552
0.0204552
0.0204552
0.0204552
0.0204552
0.0204552
0.0204552
0.0204552
0.0204552
0.0204552
0.0204552
0.0204552
0.0204552
0.0204552
0.0204552
0.0204551
0.0204551
0.0204551
0.0204551
0.0204551
0.0204551
0.0204551
0.0204551
0.0204551
0.0204551
0.0204551
0.0204551
0.0204552
0.0204552
0.0204552
0.0204552
0.0204552
0.0204552
0.0204552
0.0204552
0.0204552
0.0204552
0.0204552
0.0204552
0.0204552
0.0204552
0.0204552
0.0204552
0.0204552
0.0204552
0.0204552
0.0204552
0.0204551
0.0204551
0.0204551
0.0204551
0.0204551
0.0204551
0.0204551
0.0204551
0.0204551
0.0204551
0.0204551
0.0204551
0.0204552
0.0204552
0.0204552
0.0204552
0.0204552
0.0204552
0.0204552
0.0204552
0.0204552
0.0204552
0.0204552
0.0204552
0.0204552
0.0204552
0.0204552
0.0204552
0.0204552
0.0204552
0.0204552
0.0204552
0.0204551
0.0204551
0.0204551
0.0204551
0.0204551
0.0204551
0.0204551
0.0204551
0.0204551
0.0204551
0.0204551
0.0204551
0.0204552
0.0204552
0.0204552
0.0204552
0.0204552
0.0204552
0.0204552
0.0204552
0.0204552
0.0204552
0.0204551
0.0204551
0.0204551
0.0204551
0.0204552
0.0204552
0.0204552
0.0204552
0.0204552
0.0204552
0.0204551
0.0204551
0.0204551
0.0204551
0.0204551
0.0204551
0.0204551
0.0204551
0.0204551
0.0204551
0.0204551
0.0204551
0.0204552
0.0204552
0.0204552
0.0204552
0.0204552
0.0204552
0.0204552
0.0204552
0.0204552
0.0204552
0.0204551
0.0204551
0.0204551
0.0204551
0.0204551
0.0204551
0.0204551
0.0204551
0.0204552
0.0204551
0.0204551
0.0204551
0.0204551
0.0204551
0.0204551
0.0204551
0.0204551
0.0204551
0.0204551
0.0204551
0.0204551
0.0204551
0.0204551
0.0204552
0.0204552
0.0204551
0.0204551
0.0204551
0.0204551
0.0204551
0.0204551
0.0204551
0.0204551
0.0204551
0.0204551
0.0204551
0.0204551
0.0204551
0.0204551
0.0204551
0.0204551
0.0204551
0.0204551
0.0204551
0.0204551
0.0204551
0.0204551
0.0204551
0.0204551
0.0204551
0.0204551
0.0204551
0.0204551
0.0204551
0.0204551
0.0204551
0.0204551
0.0204551
0.0204551
0.0204551
0.0204551
0.0204551
0.0204551
0.0204551
0.0204551
0.0204551
0.0204551
0.0204551
0.0204551
0.0204551
0.0204551
0.0204551
0.0204551
0.0204551
0.0204551
0.0204551
0.0204551
0.0204551
0.0204551
0.0204551
0.0204551
0.0204551
0.0204551
0.0204551
0.0204551
0.0204551
0.0204551
0.0204551
0.0204551
0.0204551
0.0204551
0.0204551
0.0204551
0.0204551
0.0204551
0.0204551
0.0204551
0.0204551
0.0204551
0.0204551
0.0204551
0.0204551
0.0204551
0.0204551
0.0204551
0.0204551
0.0204551
0.0204551
0.0204551
0.0204551
0.0204551
0.0204551
0.0204551
0.0204551
0.0204551
0.0204551
0.0204551
0.0204551
0.0204551
0.0204551
0.0204551
0.0204551
0.0204551
0.0204551
0.0204551
0.0204551
0.0204551
0.0204551
0.0204551
0.0204551
0.0204551
0.0204551
0.0204551
0.0204551
0.0204551
0.0204551
0.0204551
0.0204551
0.0204551
0.0204551
0.0204551
0.0204551
0.0204551
0.0204551
0.0204551
0.0204551
0.0204551
0.0204551
0.0204551
0.0204551
0.0204551
0.0204551
0.0204551
0.0204551
0.0204551
0.0204551
0.0204551
0.0204551
0.0204551
0.0204551
0.0204551
0.0204551
0.0204551
0.0204551
0.0204551
0.0204551
0.0204551
0.0204551
0.0204551
0.0204551
0.0204551
0.0204551
0.0204551
0.0204551
0.0204551
0.0204551
0.0204551
0.0204551
0.0204551
0.0204551
0.0204551
0.0204551
0.0204551
0.0204552
0.0204552
0.0204552
0.0204551
0.0204551
0.0204551
0.0204551
0.0204551
0.0204551
0.0204551
0.0204551
0.0204551
0.0204551
0.0204551
0.0204551
0.0204551
0.0204551
0.0204551
0.0204551
0.0204551
0.0204551
0.0204551
0.0204551
0.0204551
0.0204551
0.0204551
0.0204551
0.0204551
0.0204551
0.0204552
0.0204552
0.0204552
0.0204552
0.0204553
0.0204553
0.0204552
0.0204552
0.0204552
0.0204552
0.0204552
0.0204552
0.0204551
0.0204551
0.0204551
0.0204551
0.0204551
0.0204551
0.0204551
0.0204551
0.0204551
0.0204551
0.0204551
0.0204551
0.0204551
0.0204551
0.0204551
0.0204551
0.0204551
0.0204551
0.0204552
0.0204552
0.0204553
0.0204554
0.0204556
0.0204557
0.0204558
0.0204558
0.0204558
0.0204558
0.0204557
0.0204557
0.0204557
0.0204557
0.0204551
0.0204551
0.0204551
0.0204551
0.0204551
0.0204551
0.0204551
0.0204551
0.0204551
0.0204551
0.0204551
0.0204551
0.0204551
0.0204551
0.0204551
0.0204551
0.0204552
0.0204552
0.0204553
0.0204555
0.0204558
0.0204562
0.0204568
0.0204573
0.0204577
0.0204579
0.0204579
0.0204578
0.0204577
0.0204575
0.0204574
0.0204573
0.0204551
0.0204551
0.0204551
0.0204551
0.0204551
0.0204551
0.0204551
0.0204551
0.0204552
0.0204552
0.0204552
0.0204552
0.0204552
0.0204552
0.0204552
0.0204552
0.0204553
0.0204554
0.0204556
0.020456
0.0204568
0.020458
0.0204595
0.0204609
0.020462
0.0204627
0.0204629
0.0204627
0.0204623
0.0204619
0.0204616
0.0204614
0.0204552
0.0204552
0.0204552
0.0204552
0.0204552
0.0204552
0.0204552
0.0204552
0.0204552
0.0204552
0.0204553
0.0204553
0.0204553
0.0204553
0.0204554
0.0204554
0.0204555
0.0204557
0.020456
0.0204569
0.0204584
0.0204606
0.0204632
0.0204658
0.0204679
0.0204693
0.0204699
0.0204698
0.0204693
0.0204687
0.0204681
0.0204678
0.0204553
0.0204553
0.0204553
0.0204553
0.0204553
0.0204553
0.0204553
0.0204553
0.0204554
0.0204554
0.0204555
0.0204555
0.0204556
0.0204557
0.0204558
0.0204559
0.020456
0.0204562
0.0204567
0.0204578
0.0204599
0.0204628
0.0204663
0.0204697
0.0204726
0.0204747
0.020476
0.0204764
0.0204762
0.0204756
0.0204751
0.0204747
0.0204556
0.0204556
0.0204556
0.0204555
0.0204555
0.0204555
0.0204556
0.0204556
0.0204557
0.0204558
0.0204559
0.0204561
0.0204562
0.0204564
0.0204566
0.0204567
0.0204569
0.0204571
0.0204576
0.0204587
0.0204608
0.020464
0.0204677
0.0204714
0.0204747
0.0204774
0.0204794
0.0204806
0.020481
0.0204808
0.0204804
0.02048
0.0204561
0.0204561
0.020456
0.020456
0.020456
0.020456
0.0204561
0.0204562
0.0204563
0.0204565
0.0204568
0.020457
0.0204573
0.0204576
0.0204579
0.0204581
0.0204584
0.0204586
0.020459
0.0204599
0.0204617
0.0204644
0.0204679
0.0204715
0.020475
0.0204783
0.0204809
0.0204828
0.0204839
0.0204842
0.020484
0.0204838
0.0204569
0.0204569
0.0204568
0.0204568
0.0204568
0.0204568
0.020457
0.0204572
0.0204575
0.0204578
0.0204582
0.0204586
0.020459
0.0204595
0.0204599
0.0204602
0.0204606
0.0204608
0.0204611
0.0204617
0.020463
0.0204652
0.0204681
0.0204714
0.0204749
0.0204785
0.0204817
0.0204842
0.0204858
0.0204866
0.0204867
0.0204866
0.0204582
0.0204582
0.0204581
0.0204581
0.0204581
0.0204582
0.0204584
0.0204588
0.0204593
0.0204598
0.0204604
0.020461
0.0204616
0.0204621
0.0204627
0.0204632
0.0204636
0.0204638
0.020464
0.0204644
0.0204652
0.0204668
0.0204692
0.020472
0.0204753
0.0204788
0.0204823
0.0204852
0.0204874
0.0204885
0.0204889
0.0204889
0.0204602
0.0204601
0.02046
0.0204599
0.02046
0.0204603
0.0204607
0.0204613
0.020462
0.0204628
0.0204635
0.0204643
0.020465
0.0204657
0.0204663
0.0204669
0.0204673
0.0204676
0.0204677
0.020468
0.0204685
0.0204696
0.0204714
0.0204738
0.0204766
0.0204798
0.0204832
0.0204862
0.0204887
0.0204902
0.0204908
0.0204909
0.0204629
0.0204627
0.0204626
0.0204626
0.0204629
0.0204633
0.020464
0.0204649
0.0204658
0.0204667
0.0204676
0.0204685
0.0204693
0.02047
0.0204707
0.0204713
0.0204717
0.020472
0.0204722
0.0204723
0.0204726
0.0204734
0.0204746
0.0204765
0.0204788
0.0204815
0.0204845
0.0204874
0.0204899
0.0204917
0.0204925
0.0204926
0.0204665
0.0204663
0.0204662
0.0204664
0.0204669
0.0204676
0.0204685
0.0204696
0.0204706
0.0204716
0.0204726
0.0204735
0.0204743
0.020475
0.0204757
0.0204762
0.0204767
0.020477
0.0204771
0.0204772
0.0204774
0.0204778
0.0204787
0.02048
0.0204818
0.0204839
0.0204864
0.0204889
0.0204913
0.0204931
0.020494
0.0204943
0.0204712
0.020471
0.0204711
0.0204715
0.0204723
0.0204732
0.0204743
0.0204754
0.0204764
0.0204774
0.0204783
0.0204791
0.0204799
0.0204805
0.020481
0.0204815
0.0204819
0.0204822
0.0204823
0.0204824
0.0204825
0.0204827
0.0204833
0.0204842
0.0204854
0.0204869
0.0204887
0.0204907
0.0204927
0.0204944
0.0204954
0.0204957
0.0204772
0.0204772
0.0204775
0.0204782
0.0204791
0.0204801
0.0204811
0.020482
0.0204829
0.0204838
0.0204845
0.0204851
0.0204857
0.0204862
0.0204866
0.0204869
0.0204872
0.0204874
0.0204875
0.0204876
0.0204876
0.0204878
0.0204881
0.0204886
0.0204894
0.0204904
0.0204916
0.020493
0.0204944
0.0204958
0.0204967
0.020497
0.0204849
0.0204851
0.0204857
0.0204864
0.0204871
0.0204878
0.0204885
0.0204892
0.0204898
0.0204903
0.0204908
0.0204912
0.0204915
0.0204918
0.0204921
0.0204923
0.0204925
0.0204926
0.0204926
0.0204927
0.0204927
0.0204928
0.0204929
0.0204932
0.0204936
0.0204941
0.0204948
0.0204956
0.0204964
0.0204973
0.0204979
0.0204982
0.0204946
0.0204948
0.020495
0.0204953
0.0204956
0.0204959
0.0204962
0.0204964
0.0204966
0.0204968
0.0204969
0.0204971
0.0204972
0.0204973
0.0204974
0.0204974
0.0204975
0.0204975
0.0204975
0.0204975
0.0204976
0.0204976
0.0204976
0.0204977
0.0204978
0.020498
0.0204982
0.0204984
0.0204987
0.020499
0.0204992
0.0204994
)
;

boundaryField
{
    movingWall
    {
        type            fixedValue;
        value           uniform 0.0205;
    }
    fixedWalls
    {
        type            zeroGradient;
    }
    floor
    {
        type            zeroGradient;
    }
    frontAndBack
    {
        type            empty;
    }
}


// ************************************************************************* //
