/*--------------------------------*- C++ -*----------------------------------*\
| =========                 |                                                 |
| \\      /  F ield         | OpenFOAM: The Open Source CFD Toolbox           |
|  \\    /   O peration     | Version:  2212                                  |
|   \\  /    A nd           | Website:  www.openfoam.com                      |
|    \\/     M anipulation  |                                                 |
\*---------------------------------------------------------------------------*/
FoamFile
{
    version     2.0;
    format      ascii;
    arch        "LSB;label=64;scalar=64";
    class       surfaceScalarField;
    location    "0.19";
    object      phi;
}
// * * * * * * * * * * * * * * * * * * * * * * * * * * * * * * * * * * * * * //

dimensions      [0 3 -1 0 0 0 0];

oriented        oriented;

internalField   nonuniform List<scalar> 
65152
(
-3.85466e-12
3.85466e-12
-8.13879e-12
4.28412e-12
-1.08872e-11
2.74842e-12
-1.24095e-11
1.52229e-12
-1.33205e-11
9.10951e-13
-1.39862e-11
6.65692e-13
-1.45658e-11
5.79618e-13
-1.51168e-11
5.50986e-13
-1.56567e-11
5.3994e-13
-1.61917e-11
5.3499e-13
-1.67243e-11
5.32579e-13
-1.72571e-11
5.3279e-13
-1.77919e-11
5.34825e-13
-1.83288e-11
5.36922e-13
-1.88704e-11
5.41516e-13
-1.94153e-11
5.44941e-13
-1.99652e-11
5.4992e-13
-2.052e-11
5.54816e-13
-2.10786e-11
5.58541e-13
-2.16404e-11
5.61854e-13
-2.22045e-11
5.64079e-13
-2.27691e-11
5.64613e-13
-2.33325e-11
5.63345e-13
-2.38923e-11
5.59775e-13
-2.44462e-11
5.53928e-13
-2.49901e-11
5.43934e-13
-2.55209e-11
5.30742e-13
-2.60348e-11
5.13932e-13
-2.65265e-11
4.91693e-13
-2.69911e-11
4.6458e-13
-2.74228e-11
4.31651e-13
-2.78151e-11
3.92342e-13
-2.81617e-11
3.46534e-13
-2.84581e-11
2.96446e-13
-2.87011e-11
2.42945e-13
-2.88874e-11
1.86336e-13
-2.90143e-11
1.2686e-13
-2.90797e-11
6.53865e-14
-2.90852e-11
5.5645e-15
-2.90243e-11
-6.08895e-14
-2.88889e-11
-1.35497e-13
-2.8677e-11
-2.11856e-13
-2.83887e-11
-2.88291e-13
-2.80199e-11
-3.68785e-13
-2.75686e-11
-4.51372e-13
-2.70342e-11
-5.34346e-13
-2.64143e-11
-6.19947e-13
-2.57079e-11
-7.0639e-13
-2.49171e-11
-7.90747e-13
-2.40415e-11
-8.75604e-13
-2.30809e-11
-9.60621e-13
-2.20398e-11
-1.04107e-12
-2.09187e-11
-1.12114e-12
-1.97222e-11
-1.19648e-12
-1.84541e-11
-1.2681e-12
-1.71174e-11
-1.33668e-12
-1.57191e-11
-1.39835e-12
-1.42632e-11
-1.45585e-12
-1.27564e-11
-1.50687e-12
-1.12057e-11
-1.55068e-12
-9.61784e-12
-1.58785e-12
-7.99799e-12
-1.61985e-12
-6.35457e-12
-1.64343e-12
-4.70165e-12
-1.65292e-12
-3.05499e-12
-1.64666e-12
-1.42552e-12
-1.62948e-12
1.80595e-13
-1.60612e-12
1.75904e-12
-1.57845e-12
3.30438e-12
-1.54535e-12
4.81229e-12
-1.50791e-12
6.27637e-12
-1.46408e-12
7.69064e-12
-1.41427e-12
9.05118e-12
-1.36055e-12
1.03529e-11
-1.30177e-12
1.15907e-11
-1.23776e-12
1.27619e-11
-1.17122e-12
1.38661e-11
-1.10419e-12
1.48971e-11
-1.031e-12
1.58544e-11
-9.57325e-13
1.67368e-11
-8.82387e-13
1.75419e-11
-8.05141e-13
1.82708e-11
-7.28949e-13
1.89233e-11
-6.52529e-13
1.95001e-11
-5.76763e-13
2.00031e-11
-5.03001e-13
2.0434e-11
-4.30971e-13
2.07969e-11
-3.62873e-13
2.10909e-11
-2.94049e-13
2.13195e-11
-2.28568e-13
2.14847e-11
-1.65251e-13
2.15878e-11
-1.03154e-13
2.16312e-11
-4.33442e-14
2.16218e-11
9.35412e-15
2.15583e-11
6.34567e-14
2.14423e-11
1.15947e-13
2.1276e-11
1.66291e-13
2.10672e-11
2.08824e-13
2.08228e-11
2.44373e-13
2.05494e-11
2.73374e-13
2.02524e-11
2.96988e-13
1.99372e-11
3.15159e-13
1.96091e-11
3.28061e-13
1.92729e-11
3.36142e-13
1.89319e-11
3.41052e-13
1.85873e-11
3.44527e-13
1.82413e-11
3.45999e-13
1.78946e-11
3.46672e-13
1.75507e-11
3.43836e-13
1.72095e-11
3.4114e-13
1.68733e-11
3.36174e-13
1.65411e-11
3.32233e-13
1.62154e-11
3.2559e-13
1.58937e-11
3.21678e-13
1.5576e-11
3.17682e-13
1.52637e-11
3.12312e-13
1.49527e-11
3.10912e-13
1.46423e-11
3.10362e-13
1.43311e-11
3.1118e-13
1.40171e-11
3.13946e-13
1.36973e-11
3.1978e-13
1.33651e-11
3.32183e-13
1.30025e-11
3.62505e-13
1.25518e-11
4.50693e-13
1.18551e-11
6.96686e-13
1.05345e-11
1.32058e-12
7.96719e-12
2.56722e-12
3.80902e-12
4.15813e-12
3.80901e-12
-2.77129e-12
6.62594e-12
-4.5928e-12
6.10563e-12
-3.85632e-12
2.01194e-12
-1.30297e-12
-1.03106e-12
2.09509e-12
-2.48712e-12
5.79238e-12
-3.0316e-12
9.56116e-12
-3.18917e-12
1.33175e-11
-3.20538e-12
1.70281e-11
-3.17059e-12
2.06762e-11
-3.11311e-12
2.42497e-11
-3.04095e-12
2.77388e-11
-2.95635e-12
3.11338e-11
-2.86021e-12
3.4424e-11
-2.75322e-12
3.76013e-11
-2.63584e-12
4.06552e-11
-2.50894e-12
4.35782e-11
-2.37306e-12
4.6362e-11
-2.22898e-12
4.89981e-11
-2.0776e-12
5.14796e-11
-1.91966e-12
5.37997e-11
-1.75602e-12
5.59519e-11
-1.58756e-12
5.79304e-11
-1.41518e-12
5.973e-11
-1.23977e-12
6.13462e-11
-1.06231e-12
6.27739e-11
-8.83777e-13
6.40097e-11
-7.05095e-13
6.50509e-11
-5.27224e-13
6.58937e-11
-3.5111e-13
6.65359e-11
-1.77622e-13
6.69742e-11
-6.69674e-15
6.72068e-11
1.59692e-13
6.72398e-11
3.13554e-13
6.70697e-11
4.6653e-13
6.6697e-11
6.15606e-13
6.61239e-11
7.59488e-13
6.53538e-11
8.96933e-13
6.43916e-11
1.0276e-12
6.3246e-11
1.15111e-12
6.19191e-11
1.26601e-12
6.04119e-11
1.37168e-12
5.87314e-11
1.46866e-12
5.6886e-11
1.55711e-12
5.48807e-11
1.63658e-12
5.2722e-11
1.70728e-12
5.0418e-11
1.76963e-12
4.79747e-11
1.82341e-12
4.53991e-11
1.8692e-12
4.27005e-11
1.90782e-12
3.98859e-11
1.93898e-12
3.69619e-11
1.96339e-12
3.39389e-11
1.98198e-12
3.08227e-11
1.99499e-12
2.7623e-11
2.00322e-12
2.43477e-11
2.00721e-12
2.10034e-11
2.00761e-12
1.75999e-11
2.00519e-12
1.41437e-11
2.00033e-12
1.06432e-11
1.99361e-12
7.10693e-12
1.98563e-12
3.54263e-12
1.97644e-12
-4.3271e-14
1.96605e-12
-3.64259e-12
1.95589e-12
-7.24564e-12
1.95012e-12
-1.08439e-11
1.9516e-12
-1.44285e-11
1.95507e-12
-1.7991e-11
1.95639e-12
-2.15237e-11
1.95425e-12
-2.50177e-11
1.94871e-12
-2.84655e-11
1.93987e-12
-3.18577e-11
1.92812e-12
-3.51853e-11
1.91324e-12
-3.84408e-11
1.89503e-12
-4.16158e-11
1.87314e-12
-4.47007e-11
1.84719e-12
-4.76884e-11
1.81651e-12
-5.05731e-11
1.78044e-12
-5.33435e-11
1.7394e-12
-5.59935e-11
1.69263e-12
-5.85155e-11
1.63964e-12
-6.09008e-11
1.5801e-12
-6.31434e-11
1.51362e-12
-6.52359e-11
1.43999e-12
-6.71716e-11
1.35897e-12
-6.8945e-11
1.27037e-12
-7.055e-11
1.17397e-12
-7.19826e-11
1.06972e-12
-7.32353e-11
9.58579e-13
-7.43043e-11
8.40477e-13
-7.51853e-11
7.15662e-13
-7.58731e-11
5.84601e-13
-7.63641e-11
4.47625e-13
-7.66596e-11
3.0492e-13
-7.67537e-11
1.57507e-13
-7.66436e-11
5.82804e-15
-7.63269e-11
-1.50469e-13
-7.58033e-11
-3.14838e-13
-7.5074e-11
-4.84928e-13
-7.41407e-11
-6.59963e-13
-7.3005e-11
-8.38788e-13
-7.16694e-11
-1.02039e-12
-7.01375e-11
-1.20386e-12
-6.84134e-11
-1.38805e-12
-6.65007e-11
-1.57163e-12
-6.44029e-11
-1.75331e-12
-6.21248e-11
-1.93218e-12
-5.96708e-11
-2.1074e-12
-5.70487e-11
-2.27825e-12
-5.42639e-11
-2.44372e-12
-5.13247e-11
-2.60303e-12
-4.82373e-11
-2.75526e-12
-4.5012e-11
-2.89975e-12
-4.16549e-11
-3.03542e-12
-3.81755e-11
-3.16177e-12
-3.4585e-11
-3.27823e-12
-3.08903e-11
-3.38381e-12
-2.71019e-11
-3.47814e-12
-2.323e-11
-3.56073e-12
-1.92853e-11
-3.63075e-12
-1.52797e-11
-3.68594e-12
-1.12293e-11
-3.71826e-12
-7.16757e-12
-3.69925e-12
-3.179e-12
-3.53792e-12
5.04327e-13
-2.98669e-12
3.34014e-12
-1.51528e-12
4.33236e-12
1.57495e-12
2.69664e-12
5.7938e-12
6.50564e-12
-2.41171e-12
9.03764e-12
-3.21606e-12
6.90998e-12
-1.20632e-12
2.18991e-15
2.6216e-12
-4.85898e-12
7.28899e-12
-7.15451e-12
1.22543e-11
-7.99691e-12
1.72867e-11
-8.22155e-12
2.2298e-11
-8.21667e-12
2.72521e-11
-8.12471e-12
3.21295e-11
-7.99053e-12
3.69155e-11
-7.82702e-12
4.15971e-11
-7.63796e-12
4.61618e-11
-7.42484e-12
5.05972e-11
-7.1887e-12
5.48919e-11
-6.9305e-12
5.90342e-11
-6.65129e-12
6.30133e-11
-6.35215e-12
6.68186e-11
-6.03424e-12
7.04398e-11
-5.69881e-12
7.38672e-11
-5.34712e-12
7.70917e-11
-4.9805e-12
8.01045e-11
-4.60031e-12
8.28972e-11
-4.20798e-12
8.54624e-11
-3.80492e-12
8.77927e-11
-3.39263e-12
8.98815e-11
-2.97258e-12
9.17226e-11
-2.54625e-12
9.33105e-11
-2.11509e-12
9.46399e-11
-1.68052e-12
9.57061e-11
-1.24386e-12
9.65058e-11
-8.06358e-13
9.7035e-11
-3.69523e-13
9.72828e-11
6.56939e-14
9.72551e-11
4.94277e-13
9.69517e-11
9.18995e-13
9.63737e-11
1.33747e-12
9.55226e-11
1.74806e-12
9.44008e-11
2.14933e-12
9.30118e-11
2.54008e-12
9.13588e-11
2.91903e-12
8.94454e-11
3.28513e-12
8.72764e-11
3.63759e-12
8.48578e-11
3.9757e-12
8.21957e-11
4.29872e-12
7.92969e-11
4.6061e-12
7.61691e-11
4.89743e-12
7.28202e-11
5.17223e-12
6.92592e-11
5.43028e-12
6.54955e-11
5.67144e-12
6.1539e-11
5.89548e-12
5.74e-11
6.10243e-12
5.30896e-11
6.2924e-12
4.86191e-11
6.46546e-12
4.40005e-11
6.62184e-12
3.92459e-11
6.76175e-12
3.4368e-11
6.88551e-12
2.93798e-11
6.99341e-12
2.42943e-11
7.08579e-12
1.9125e-11
7.16297e-12
1.38853e-11
7.22532e-12
8.58869e-12
7.27303e-12
3.24855e-12
7.30619e-12
-2.12064e-12
7.32508e-12
-7.50151e-12
7.33098e-12
-1.28737e-11
7.32383e-12
-1.82203e-11
7.30158e-12
-2.35263e-11
7.26238e-12
-2.87778e-11
7.20576e-12
-3.3961e-11
7.13189e-12
-3.90621e-11
7.04099e-12
-4.40672e-11
6.93319e-12
-4.89625e-11
6.80854e-12
-5.37345e-11
6.66708e-12
-5.83702e-11
6.50881e-12
-6.28568e-11
6.33373e-12
-6.71821e-11
6.14183e-12
-7.13348e-11
5.93315e-12
-7.53033e-11
5.70791e-12
-7.90769e-11
5.46624e-12
-8.26456e-11
5.20829e-12
-8.59998e-11
4.93432e-12
-8.91309e-11
4.64463e-12
-9.20305e-11
4.33961e-12
-9.46913e-11
4.01973e-12
-9.71065e-11
3.68552e-12
-9.92701e-11
3.3376e-12
-1.01177e-10
2.97669e-12
-1.02822e-10
2.60376e-12
-1.04202e-10
2.21969e-12
-1.05311e-10
1.82543e-12
-1.06149e-10
1.42201e-12
-1.06712e-10
1.01045e-12
-1.06998e-10
5.91659e-13
-1.07008e-10
1.66745e-13
-1.0674e-10
-2.62358e-13
-1.0619e-10
-6.99894e-13
-1.05365e-10
-1.14026e-12
-1.04267e-10
-1.58283e-12
-1.02901e-10
-2.02628e-12
-1.0127e-10
-2.46923e-12
-9.93804e-11
-2.91018e-12
-9.72367e-11
-3.34761e-12
-9.48449e-11
-3.77989e-12
-9.22112e-11
-4.20535e-12
-8.93421e-11
-4.62236e-12
-8.6245e-11
-5.02937e-12
-8.29275e-11
-5.4249e-12
-7.93983e-11
-5.80752e-12
-7.56662e-11
-6.17584e-12
-7.17408e-11
-6.52848e-12
-6.7632e-11
-6.86414e-12
-6.33502e-11
-7.18159e-12
-5.8906e-11
-7.47961e-12
-5.43107e-11
-7.7571e-12
-4.9576e-11
-8.01304e-12
-4.47134e-11
-8.24643e-12
-3.97352e-11
-8.45639e-12
-3.4654e-11
-8.642e-12
-2.94829e-11
-8.80185e-12
-2.42367e-11
-8.93224e-12
-1.89347e-11
-9.02027e-12
-1.36132e-11
-9.0208e-12
-8.36079e-12
-8.7904e-12
-3.40982e-12
-7.93771e-12
6.92342e-13
-5.61748e-12
2.95001e-12
-6.82759e-13
2.33292e-12
6.41084e-12
8.83855e-12
-2.41533e-12
1.1453e-11
-3.08339e-12
7.57804e-12
-8.44393e-13
-2.23681e-12
3.27199e-12
-8.97537e-12
8.24301e-12
-1.21255e-11
1.3514e-11
-1.32679e-11
1.88504e-11
-1.35579e-11
2.41625e-11
-1.35288e-11
2.94135e-11
-1.33757e-11
3.45834e-11
-1.31605e-11
3.96571e-11
-1.29007e-11
4.46207e-11
-1.26016e-11
4.94613e-11
-1.22654e-11
5.4166e-11
-1.18934e-11
5.87226e-11
-1.14871e-11
6.3119e-11
-1.10477e-11
6.73437e-11
-1.05768e-11
7.13854e-11
-1.0076e-11
7.52336e-11
-9.54693e-12
7.88777e-11
-8.99131e-12
8.23082e-11
-8.41098e-12
8.55157e-11
-7.8078e-12
8.84914e-11
-7.1837e-12
9.12271e-11
-6.54066e-12
9.37152e-11
-5.88071e-12
9.59485e-11
-5.2059e-12
9.79205e-11
-4.51829e-12
9.96254e-11
-3.81997e-12
1.01058e-10
-3.11298e-12
1.02213e-10
-2.39935e-12
1.03088e-10
-1.68105e-12
1.03678e-10
-9.59943e-13
1.03981e-10
-2.37166e-13
1.03995e-10
4.8064e-13
1.0372e-10
1.19383e-12
1.03156e-10
1.90139e-12
1.02304e-10
2.60065e-12
1.01164e-10
3.28934e-12
9.97381e-11
3.96548e-12
9.803e-11
4.62709e-12
9.60428e-11
5.27232e-12
9.3781e-11
5.89946e-12
9.12497e-11
6.50697e-12
8.8455e-11
7.09338e-12
8.54037e-11
7.65738e-12
8.21034e-11
8.19772e-12
7.85624e-11
8.71331e-12
7.47895e-11
9.20314e-12
7.07946e-11
9.66633e-12
6.6588e-11
1.01021e-11
6.21806e-11
1.05098e-11
5.75842e-11
1.08888e-11
5.28108e-11
1.12388e-11
4.78733e-11
1.15593e-11
4.27849e-11
1.18501e-11
3.75594e-11
1.21111e-11
3.22108e-11
1.2342e-11
2.67537e-11
1.25429e-11
2.12029e-11
1.27137e-11
1.55736e-11
1.28546e-11
9.88108e-12
1.29655e-11
4.14106e-12
1.30462e-11
-1.62997e-12
1.30961e-11
-7.41395e-12
1.3115e-11
-1.3191e-11
1.31009e-11
-1.89426e-11
1.30531e-11
-2.46514e-11
1.29711e-11
-3.0301e-11
1.28554e-11
-3.58755e-11
1.27064e-11
-4.13593e-11
1.25248e-11
-4.6737e-11
1.23108e-11
-5.19933e-11
1.20649e-11
-5.71137e-11
1.17874e-11
-6.20837e-11
1.14788e-11
-6.68897e-11
1.11397e-11
-7.15185e-11
1.07706e-11
-7.59575e-11
1.03722e-11
-8.01947e-11
9.94515e-12
-8.42189e-11
9.49038e-12
-8.80193e-11
9.00875e-12
-9.15863e-11
8.50121e-12
-9.49105e-11
7.96884e-12
-9.79837e-11
7.41277e-12
-1.00798e-10
6.83425e-12
-1.03347e-10
6.23461e-12
-1.05625e-10
5.61526e-12
-1.07626e-10
4.97774e-12
-1.09346e-10
4.32366e-12
-1.10781e-10
3.65474e-12
-1.11928e-10
2.97273e-12
-1.12786e-10
2.27948e-12
-1.13352e-10
1.57677e-12
-1.13627e-10
8.66239e-13
-1.1361e-10
1.49856e-13
-1.13302e-10
-5.70733e-13
-1.12702e-10
-1.2994e-12
-1.11814e-10
-2.02831e-12
-1.1064e-10
-2.75668e-12
-1.09184e-10
-3.48253e-12
-1.0745e-10
-4.20372e-12
-1.05442e-10
-4.91804e-12
-1.03166e-10
-5.6233e-12
-1.00629e-10
-6.31724e-12
-9.78366e-11
-6.99765e-12
-9.47967e-11
-7.66234e-12
-9.15169e-11
-8.30918e-12
-8.80057e-11
-8.93612e-12
-8.42721e-11
-9.54116e-12
-8.03256e-11
-1.01224e-11
-7.61762e-11
-1.06779e-11
-7.18343e-11
-1.1206e-11
-6.7311e-11
-1.17049e-11
-6.26175e-11
-1.21731e-11
-5.77656e-11
-1.26091e-11
-5.27673e-11
-1.30113e-11
-4.76352e-11
-1.33786e-11
-4.23819e-11
-1.37097e-11
-3.70206e-11
-1.40033e-11
-3.1565e-11
-1.42574e-11
-2.60304e-11
-1.44669e-11
-2.04369e-11
-1.46139e-11
-1.48213e-11
-1.46364e-11
-9.27388e-12
-1.43378e-11
-4.03121e-12
-1.31804e-11
3.46601e-13
-9.99533e-12
2.82604e-12
-3.16224e-12
2.34091e-12
6.89593e-12
1.11795e-11
-2.50713e-12
1.39601e-11
-3.18793e-12
8.25884e-12
-8.72844e-13
-4.5519e-12
3.38696e-12
-1.32352e-11
8.53192e-12
-1.72705e-11
1.39875e-11
-1.87236e-11
1.95106e-11
-1.9081e-11
2.50081e-11
-1.90262e-11
3.04418e-11
-1.88094e-11
3.57908e-11
-1.85095e-11
4.10395e-11
-1.81494e-11
4.61737e-11
-1.77359e-11
5.11799e-11
-1.72716e-11
5.6045e-11
-1.67585e-11
6.07561e-11
-1.61982e-11
6.53008e-11
-1.55925e-11
6.96673e-11
-1.49433e-11
7.38438e-11
-1.42526e-11
7.78194e-11
-1.35226e-11
8.15835e-11
-1.27554e-11
8.51259e-11
-1.19534e-11
8.84371e-11
-1.1119e-11
9.15079e-11
-1.02546e-11
9.43301e-11
-9.36283e-12
9.68957e-11
-8.4463e-12
9.91974e-11
-7.50766e-12
1.01229e-10
-6.54962e-12
1.02984e-10
-5.57491e-12
1.04457e-10
-4.5863e-12
1.05644e-10
-3.58653e-12
1.06541e-10
-2.57832e-12
1.07146e-10
-1.56428e-12
1.07455e-10
-5.46289e-13
1.07467e-10
4.68821e-13
1.07182e-10
1.47847e-12
1.066e-10
2.48339e-12
1.05721e-10
3.47971e-12
1.04546e-10
4.46438e-12
1.03077e-10
5.43455e-12
1.01317e-10
6.38738e-12
9.92687e-11
7.32014e-12
9.69379e-11
8.23025e-12
9.43296e-11
9.11531e-12
9.14499e-11
9.97306e-12
8.83059e-11
1.08014e-11
8.49054e-11
1.15983e-11
8.12568e-11
1.23618e-11
7.73696e-11
1.30904e-11
7.32537e-11
1.37822e-11
6.89197e-11
1.4436e-11
6.43791e-11
1.50504e-11
5.96438e-11
1.56242e-11
5.47263e-11
1.61563e-11
4.96398e-11
1.66458e-11
4.43979e-11
1.7092e-11
3.90149e-11
1.74941e-11
3.35052e-11
1.78517e-11
2.78838e-11
1.81642e-11
2.21661e-11
1.84314e-11
1.63677e-11
1.8653e-11
1.05046e-11
1.88287e-11
4.59316e-12
1.89576e-11
-1.3495e-12
1.90388e-11
-7.30545e-12
1.90709e-11
-1.32557e-11
1.90512e-11
-1.91817e-11
1.89791e-11
-2.50653e-11
1.88547e-11
-3.08892e-11
1.86792e-11
-3.66365e-11
1.84538e-11
-4.2291e-11
1.81792e-11
-4.78365e-11
1.78564e-11
-5.32575e-11
1.74859e-11
-5.85388e-11
1.70687e-11
-6.36656e-11
1.66056e-11
-6.86238e-11
1.60979e-11
-7.33998e-11
1.55466e-11
-7.79807e-11
1.4953e-11
-8.23541e-11
1.43185e-11
-8.65083e-11
1.36446e-11
-9.04325e-11
1.29329e-11
-9.41165e-11
1.21852e-11
-9.75508e-11
1.14031e-11
-1.00727e-10
1.05887e-11
-1.03636e-10
9.74399e-12
-1.06273e-10
8.87108e-12
-1.0863e-10
7.97222e-12
-1.10702e-10
7.04973e-12
-1.12484e-10
6.10605e-12
-1.13973e-10
5.14369e-12
-1.15166e-10
4.16529e-12
-1.1606e-10
3.17352e-12
-1.16654e-10
2.17095e-12
-1.16948e-10
1.16002e-12
-1.16942e-10
1.43588e-13
-1.16635e-10
-8.7711e-13
-1.1603e-10
-1.90492e-12
-1.15127e-10
-2.93117e-12
-1.13929e-10
-3.95435e-12
-1.1244e-10
-4.97168e-12
-1.10664e-10
-5.98022e-12
-1.08605e-10
-6.97703e-12
-1.06269e-10
-7.95917e-12
-1.03663e-10
-8.92372e-12
-1.00792e-10
-9.86784e-12
-9.76661e-11
-1.07887e-11
-9.42917e-11
-1.16836e-11
-9.06779e-11
-1.25499e-11
-8.68341e-11
-1.3385e-11
-8.277e-11
-1.41865e-11
-7.84959e-11
-1.4952e-11
-7.40228e-11
-1.56792e-11
-6.93619e-11
-1.63659e-11
-6.45248e-11
-1.70102e-11
-5.95237e-11
-1.76102e-11
-5.43712e-11
-1.8164e-11
-4.908e-11
-1.86699e-11
-4.36633e-11
-1.91264e-11
-3.81348e-11
-1.95319e-11
-3.25086e-11
-1.98837e-11
-2.68002e-11
-2.01752e-11
-2.10306e-11
-2.03835e-11
-1.5238e-11
-2.04291e-11
-9.51578e-12
-2.00601e-11
-4.10844e-12
-1.85878e-11
4.05377e-13
-1.45092e-11
2.95047e-12
-5.70738e-12
2.4344e-12
7.41196e-12
1.36138e-11
-2.61977e-12
1.65799e-11
-3.34596e-12
8.98503e-12
-9.48476e-13
-6.94939e-12
3.47668e-12
-1.76603e-11
8.82682e-12
-2.26206e-11
1.45029e-11
-2.43996e-11
2.02502e-11
-2.48283e-11
2.59708e-11
-2.47468e-11
3.16243e-11
-2.44629e-11
3.7189e-11
-2.40742e-11
4.26484e-11
-2.36088e-11
4.79879e-11
-2.30754e-11
5.31934e-11
-2.24771e-11
5.82512e-11
-2.18163e-11
6.31481e-11
-2.1095e-11
6.78711e-11
-2.03155e-11
7.24079e-11
-1.94801e-11
7.67465e-11
-1.85912e-11
8.08753e-11
-1.76514e-11
8.47834e-11
-1.66634e-11
8.84602e-11
-1.56302e-11
9.18959e-11
-1.45547e-11
9.50811e-11
-1.34398e-11
9.80071e-11
-1.22889e-11
1.00666e-10
-1.1105e-11
1.0305e-10
-9.89163e-12
1.05152e-10
-8.65206e-12
1.06967e-10
-7.38977e-12
1.08489e-10
-6.10822e-12
1.09713e-10
-4.81093e-12
1.10636e-10
-3.50138e-12
1.11255e-10
-2.18295e-12
1.11567e-10
-8.58286e-13
1.1157e-10
4.6563e-13
1.11266e-10
1.78287e-12
1.10653e-10
3.09614e-12
1.09732e-10
4.40031e-12
1.08505e-10
5.6915e-12
1.06974e-10
6.96601e-12
1.05141e-10
8.2201e-12
1.03011e-10
9.45013e-12
1.00589e-10
1.06526e-11
9.78798e-11
1.18243e-11
9.48908e-11
1.2962e-11
9.16292e-11
1.40629e-11
8.81032e-11
1.51242e-11
8.43219e-11
1.61432e-11
8.02949e-11
1.71174e-11
7.60327e-11
1.80445e-11
7.15464e-11
1.89224e-11
6.68477e-11
1.9749e-11
6.19493e-11
2.05226e-11
5.6864e-11
2.12416e-11
5.16054e-11
2.19044e-11
4.61876e-11
2.25098e-11
4.06252e-11
2.30565e-11
3.49331e-11
2.35438e-11
2.91267e-11
2.39706e-11
2.32218e-11
2.43363e-11
1.72344e-11
2.46404e-11
1.11809e-11
2.48822e-11
5.07803e-12
2.50605e-11
-1.05683e-12
2.51736e-11
-7.20527e-12
2.52193e-11
-1.33488e-11
2.51947e-11
-1.94685e-11
2.50988e-11
-2.55458e-11
2.4932e-11
-3.15627e-11
2.46961e-11
-3.75018e-11
2.43929e-11
-4.33462e-11
2.40237e-11
-4.90795e-11
2.35896e-11
-5.46855e-11
2.30919e-11
-6.01486e-11
2.25317e-11
-6.54536e-11
2.19107e-11
-7.0586e-11
2.12303e-11
-7.55318e-11
2.04923e-11
-8.02775e-11
1.96987e-11
-8.48103e-11
1.88514e-11
-8.91183e-11
1.79526e-11
-9.319e-11
1.70046e-11
-9.70148e-11
1.60099e-11
-1.00583e-10
1.49711e-11
-1.03885e-10
1.38909e-11
-1.06913e-10
1.2772e-11
-1.09659e-10
1.16175e-11
-1.12118e-10
1.04303e-11
-1.14282e-10
9.21374e-12
-1.16147e-10
7.97096e-12
-1.17708e-10
6.70539e-12
-1.18963e-10
5.42052e-12
-1.1991e-10
4.11987e-12
-1.20546e-10
2.80678e-12
-1.2087e-10
1.48442e-12
-1.20883e-10
1.56578e-13
-1.20585e-10
-1.17579e-12
-1.19975e-10
-2.51449e-12
-1.19057e-10
-3.84965e-12
-1.17832e-10
-5.17907e-12
-1.16304e-10
-6.4992e-12
-1.14478e-10
-7.8063e-12
-1.12359e-10
-9.09666e-12
-1.09951e-10
-1.03666e-11
-1.07263e-10
-1.16125e-11
-1.043e-10
-1.28309e-11
-1.0107e-10
-1.40182e-11
-9.75826e-11
-1.51711e-11
-9.38462e-11
-1.62864e-11
-8.98704e-11
-1.73609e-11
-8.56654e-11
-1.83915e-11
-8.12419e-11
-1.93755e-11
-7.66112e-11
-2.03099e-11
-7.17849e-11
-2.11923e-11
-6.67752e-11
-2.202e-11
-6.15947e-11
-2.27907e-11
-5.62564e-11
-2.35023e-11
-5.07736e-11
-2.41528e-11
-4.51599e-11
-2.47401e-11
-3.94296e-11
-2.52623e-11
-3.35973e-11
-2.57161e-11
-2.76793e-11
-2.60933e-11
-2.16973e-11
-2.63656e-11
-1.56917e-11
-2.64347e-11
-9.76087e-12
-2.5991e-11
-4.16057e-12
-2.41882e-11
5.06112e-13
-1.91759e-11
3.12048e-12
-8.32179e-12
2.55324e-12
7.97915e-12
1.61671e-11
-2.75312e-12
1.9333e-11
-3.52458e-12
9.75648e-12
-1.02039e-12
-9.45359e-12
3.61277e-12
-2.22935e-11
9.2204e-12
-2.82283e-11
1.51735e-11
-3.03527e-11
2.1203e-11
-3.08579e-11
2.72047e-11
-3.07486e-11
3.31357e-11
-3.03939e-11
3.89728e-11
-2.99112e-11
4.46987e-11
-2.93347e-11
5.0298e-11
-2.86747e-11
5.57559e-11
-2.79351e-11
6.10583e-11
-2.71187e-11
6.61911e-11
-2.62279e-11
7.1141e-11
-2.52654e-11
7.5895e-11
-2.4234e-11
8.04404e-11
-2.31366e-11
8.47653e-11
-2.19763e-11
8.88582e-11
-2.07563e-11
9.27082e-11
-1.94802e-11
9.63048e-11
-1.81513e-11
9.96384e-11
-1.67734e-11
1.027e-10
-1.53503e-11
1.05481e-10
-1.38859e-11
1.07973e-10
-1.23842e-11
1.10171e-10
-1.08493e-11
1.12066e-10
-9.28538e-12
1.13655e-10
-7.69667e-12
1.14931e-10
-6.08745e-12
1.15892e-10
-4.46201e-12
1.16533e-10
-2.82452e-12
1.16853e-10
-1.17832e-12
1.1685e-10
4.6941e-13
1.16524e-10
2.10843e-12
1.15876e-10
3.74435e-12
1.14906e-10
5.37032e-12
1.13615e-10
6.98178e-12
1.12007e-10
8.57408e-12
1.10085e-10
1.01426e-11
1.07852e-10
1.16828e-11
1.05315e-10
1.31902e-11
1.02478e-10
1.46605e-11
9.93504e-11
1.60899e-11
9.59389e-11
1.74745e-11
9.22523e-11
1.88107e-11
8.83004e-11
2.00951e-11
8.40933e-11
2.13245e-11
7.9642e-11
2.24957e-11
7.49584e-11
2.3606e-11
7.00547e-11
2.46527e-11
6.4944e-11
2.56333e-11
5.96399e-11
2.65457e-11
5.41566e-11
2.73878e-11
4.85086e-11
2.81577e-11
4.27111e-11
2.8854e-11
3.67797e-11
2.94752e-11
3.07302e-11
3.00201e-11
2.45789e-11
3.04877e-11
1.83423e-11
3.0877e-11
1.20373e-11
3.11871e-11
5.6812e-12
3.14166e-11
-7.08226e-13
3.1563e-11
-7.11224e-12
3.16233e-11
-1.35117e-11
3.15941e-11
-1.9887e-11
3.14741e-11
-2.62189e-11
3.12639e-11
-3.24888e-11
3.0966e-11
-3.86786e-11
3.05828e-11
-4.4771e-11
3.0116e-11
-5.07487e-11
2.95673e-11
-5.65952e-11
2.89383e-11
-6.22942e-11
2.82307e-11
-6.783e-11
2.74465e-11
-7.31875e-11
2.65878e-11
-7.8352e-11
2.56569e-11
-8.33097e-11
2.46563e-11
-8.80471e-11
2.35888e-11
-9.25517e-11
2.24571e-11
-9.68114e-11
2.12644e-11
-1.00815e-10
2.00137e-11
-1.04553e-10
1.87085e-11
-1.08014e-10
1.73523e-11
-1.11191e-10
1.59487e-11
-1.14075e-10
1.45014e-11
-1.16659e-10
1.30144e-11
-1.18937e-10
1.14917e-11
-1.20903e-10
9.93738e-12
-1.22554e-10
8.35581e-12
-1.23885e-10
6.75137e-12
-1.24893e-10
5.12843e-12
-1.25578e-10
3.49106e-12
-1.25936e-10
1.84317e-12
-1.25969e-10
1.89523e-13
-1.25676e-10
-1.46917e-12
-1.25057e-10
-3.13363e-12
-1.24114e-10
-4.79237e-12
-1.22851e-10
-6.44253e-12
-1.2127e-10
-8.07976e-12
-1.19377e-10
-9.69952e-12
-1.17177e-10
-1.12973e-11
-1.14674e-10
-1.28687e-11
-1.11878e-10
-1.44094e-11
-1.08794e-10
-1.5915e-11
-1.0543e-10
-1.73815e-11
-1.01797e-10
-1.88048e-11
-9.7902e-11
-2.0181e-11
-9.37566e-11
-2.15064e-11
-8.93709e-11
-2.27773e-11
-8.47561e-11
-2.39903e-11
-7.9924e-11
-2.51421e-11
-7.48868e-11
-2.62295e-11
-6.96572e-11
-2.72496e-11
-6.42483e-11
-2.81996e-11
-5.86738e-11
-2.90769e-11
-5.29475e-11
-2.98791e-11
-4.70838e-11
-3.06039e-11
-4.10974e-11
-3.12487e-11
-3.50037e-11
-3.18099e-11
-2.88198e-11
-3.22772e-11
-2.2569e-11
-3.26164e-11
-1.62943e-11
-3.27095e-11
-1.01002e-11
-3.21852e-11
-4.25689e-12
-3.00315e-11
6.02534e-13
-2.40354e-11
3.31187e-12
-1.10312e-11
2.68995e-12
8.60104e-12
1.8857e-11
-2.90688e-12
2.22398e-11
-3.7244e-12
1.0574e-11
-1.08435e-12
-1.20936e-11
3.80495e-12
-2.71828e-11
9.72759e-12
-3.41509e-11
1.60191e-11
-3.66442e-11
2.23936e-11
-3.72323e-11
2.87392e-11
-3.70943e-11
3.50098e-11
-3.66645e-11
4.11804e-11
-3.60818e-11
4.72328e-11
-3.53871e-11
5.31506e-11
-3.45925e-11
5.89184e-11
-3.37029e-11
6.45212e-11
-3.27214e-11
6.99442e-11
-3.1651e-11
7.51734e-11
-3.04946e-11
8.01951e-11
-2.92557e-11
8.4996e-11
-2.79375e-11
8.95635e-11
-2.65438e-11
9.38855e-11
-2.50783e-11
9.79504e-11
-2.35451e-11
1.01748e-10
-2.19484e-11
1.05266e-10
-2.02923e-11
1.08498e-10
-1.85815e-11
1.11432e-10
-1.68205e-11
1.14062e-10
-1.50141e-11
1.1638e-10
-1.31671e-11
1.18379e-10
-1.12844e-11
1.20053e-10
-9.37119e-12
1.21398e-10
-7.43246e-12
1.2241e-10
-5.47335e-12
1.23084e-10
-3.49886e-12
1.23419e-10
-1.5131e-12
1.23412e-10
4.7666e-13
1.23065e-10
2.45529e-12
1.22378e-10
4.4316e-12
1.21351e-10
6.39689e-12
1.19987e-10
8.34586e-12
1.18288e-10
1.02729e-11
1.16258e-10
1.21724e-11
1.13902e-10
1.4039e-11
1.11225e-10
1.58672e-11
1.08234e-10
1.76516e-11
1.04936e-10
1.93875e-11
1.01341e-10
2.10701e-11
9.74563e-11
2.2695e-11
9.32935e-11
2.42579e-11
8.88631e-11
2.57549e-11
8.41768e-11
2.7182e-11
7.92471e-11
2.85357e-11
7.40871e-11
2.98127e-11
6.87105e-11
3.10099e-11
6.31316e-11
3.21245e-11
5.73654e-11
3.3154e-11
5.14271e-11
3.4096e-11
4.53327e-11
3.49484e-11
3.90984e-11
3.57095e-11
3.27408e-11
3.63777e-11
2.62768e-11
3.69517e-11
1.97235e-11
3.74303e-11
1.30986e-11
3.78121e-11
6.42003e-12
3.80951e-11
-2.9339e-13
3.82765e-11
-7.02353e-12
3.83535e-11
-1.37489e-11
3.83194e-11
-2.04491e-11
3.81743e-11
-2.71042e-11
3.7919e-11
-3.36946e-11
3.75565e-11
-4.02017e-11
3.70898e-11
-4.6607e-11
3.65213e-11
-5.28928e-11
3.58531e-11
-5.90417e-11
3.50872e-11
-6.50368e-11
3.42258e-11
-7.08618e-11
3.32714e-11
-7.65006e-11
3.22266e-11
-8.1938e-11
3.10943e-11
-8.71594e-11
2.98777e-11
-9.21506e-11
2.858e-11
-9.68985e-11
2.72049e-11
-1.0139e-10
2.57562e-11
-1.05614e-10
2.42377e-11
-1.0956e-10
2.26537e-11
-1.13216e-10
2.10084e-11
-1.16573e-10
1.93063e-11
-1.19624e-10
1.7552e-11
-1.2236e-10
1.57504e-11
-1.24774e-10
1.39062e-11
-1.26862e-10
1.20247e-11
-1.28617e-10
1.01111e-11
-1.30036e-10
8.17073e-12
-1.31117e-10
6.20877e-12
-1.31856e-10
4.23e-12
-1.32252e-10
2.23917e-12
-1.32304e-10
2.42012e-13
-1.32013e-10
-1.76092e-12
-1.31377e-10
-3.76914e-12
-1.304e-10
-5.76929e-12
-1.29085e-10
-7.75783e-12
-1.27435e-10
-9.72958e-12
-1.25456e-10
-1.16792e-11
-1.23152e-10
-1.36013e-11
-1.2053e-10
-1.54907e-11
-1.17597e-10
-1.73423e-11
-1.14361e-10
-1.91511e-11
-1.1083e-10
-2.09121e-11
-1.07014e-10
-2.26206e-11
-1.02923e-10
-2.42722e-11
-9.85672e-11
-2.58623e-11
-9.39577e-11
-2.73868e-11
-8.91064e-11
-2.88416e-11
-8.40256e-11
-3.02229e-11
-7.87282e-11
-3.15269e-11
-7.32276e-11
-3.27503e-11
-6.75375e-11
-3.38897e-11
-6.16723e-11
-3.49422e-11
-5.56466e-11
-3.59049e-11
-4.94755e-11
-3.6775e-11
-4.31745e-11
-3.75498e-11
-3.67599e-11
-3.82246e-11
-3.02498e-11
-3.87873e-11
-2.36691e-11
-3.91971e-11
-1.70642e-11
-3.93145e-11
-1.05471e-11
-3.87024e-11
-4.40484e-12
-3.61738e-11
6.94162e-13
-2.91344e-11
3.52459e-12
-1.38616e-11
2.84571e-12
9.27988e-12
2.17027e-11
-3.07951e-12
2.53194e-11
-3.94159e-12
1.14361e-11
-1.1358e-12
-1.48994e-11
4.05988e-12
-3.23785e-11
1.03579e-11
-4.0449e-11
1.70527e-11
-4.3339e-11
2.38382e-11
-4.40178e-11
3.05939e-11
-4.38499e-11
3.72694e-11
-4.33401e-11
4.38381e-11
-4.26505e-11
5.02803e-11
-4.18293e-11
5.65788e-11
-4.0891e-11
6.2717e-11
-3.98411e-11
6.8679e-11
-3.86835e-11
7.44495e-11
-3.74214e-11
8.00133e-11
-3.60585e-11
8.5356e-11
-3.45984e-11
9.04636e-11
-3.30451e-11
9.53227e-11
-3.14029e-11
9.99205e-11
-2.96761e-11
1.04245e-10
-2.78694e-11
1.08284e-10
-2.59876e-11
1.12027e-10
-2.40356e-11
1.15464e-10
-2.20187e-11
1.18586e-10
-1.99422e-11
1.21383e-10
-1.78116e-11
1.23849e-10
-1.56326e-11
1.25976e-10
-1.3411e-11
1.27757e-10
-1.11526e-11
1.29188e-10
-8.86336e-12
1.30264e-10
-6.54933e-12
1.30981e-10
-4.21635e-12
1.31337e-10
-1.86928e-12
1.31329e-10
4.84825e-13
1.3096e-10
2.82409e-12
1.3023e-10
5.16209e-12
1.29139e-10
7.4878e-12
1.2769e-10
9.79501e-12
1.25885e-10
1.20772e-11
1.2373e-10
1.43281e-11
1.21228e-10
1.6541e-11
1.18386e-10
1.87093e-11
1.1521e-10
2.08269e-11
1.1171e-10
2.28876e-11
1.07894e-10
2.4886e-11
1.03773e-10
2.68166e-11
9.93564e-11
2.86743e-11
9.46569e-11
3.04543e-11
8.96869e-11
3.2152e-11
8.44596e-11
3.3763e-11
7.8989e-11
3.52833e-11
7.32898e-11
3.67092e-11
6.73771e-11
3.80372e-11
6.12668e-11
3.92643e-11
5.49751e-11
4.03877e-11
4.85187e-11
4.14048e-11
4.19147e-11
4.23134e-11
3.51807e-11
4.31118e-11
2.83342e-11
4.37981e-11
2.13935e-11
4.4371e-11
1.43767e-11
4.48288e-11
7.30269e-12
4.51691e-11
1.90939e-13
4.53882e-11
-6.93722e-12
4.54816e-11
-1.4061e-11
4.54433e-11
-2.11588e-11
4.5272e-11
-2.82089e-11
4.49691e-11
-3.51908e-11
4.45383e-11
-4.20847e-11
4.39836e-11
-4.88714e-11
4.3308e-11
-5.55322e-11
4.25139e-11
-6.20489e-11
4.16039e-11
-6.84037e-11
4.05806e-11
-7.45793e-11
3.9447e-11
-8.05589e-11
3.82062e-11
-8.63264e-11
3.68618e-11
-9.18662e-11
3.54175e-11
-9.71635e-11
3.38773e-11
-1.02204e-10
3.22456e-11
-1.06975e-10
3.05268e-11
-1.11463e-10
2.87257e-11
-1.15656e-10
2.68473e-11
-1.19545e-10
2.48966e-11
-1.23118e-10
2.28792e-11
-1.26366e-10
2.08004e-11
-1.29282e-10
1.86659e-11
-1.31857e-10
1.64818e-11
-1.34087e-10
1.4254e-11
-1.35964e-10
1.19889e-11
-1.37486e-10
9.69268e-12
-1.38649e-10
7.37147e-12
-1.3945e-10
5.03071e-12
-1.39887e-10
2.67584e-12
-1.39958e-10
3.13957e-13
-1.39665e-10
-2.05471e-12
-1.39006e-10
-4.42813e-12
-1.37984e-10
-6.79091e-12
-1.36603e-10
-9.13884e-12
-1.34867e-10
-1.14659e-11
-1.3278e-10
-1.37657e-11
-1.3035e-10
-1.60322e-11
-1.27581e-10
-1.82593e-11
-1.24483e-10
-2.0441e-11
-1.21062e-10
-2.25715e-11
-1.17329e-10
-2.46452e-11
-1.13293e-10
-2.66566e-11
-1.08965e-10
-2.86006e-11
-1.04355e-10
-3.04718e-11
-9.94766e-11
-3.22656e-11
-9.4341e-11
-3.39772e-11
-8.89617e-11
-3.56023e-11
-8.33522e-11
-3.71365e-11
-7.75267e-11
-3.85758e-11
-7.14998e-11
-3.99167e-11
-6.52865e-11
-4.11555e-11
-5.89025e-11
-4.2289e-11
-5.23636e-11
-4.3314e-11
-4.56862e-11
-4.42272e-11
-3.88877e-11
-4.50231e-11
-3.19875e-11
-4.56876e-11
-2.50123e-11
-4.61724e-11
-1.80124e-11
-4.63144e-11
-1.11085e-11
-4.56063e-11
-4.60728e-12
-4.26751e-11
7.82603e-13
-3.45243e-11
3.7614e-12
-1.68405e-11
3.02757e-12
1.00137e-11
2.47303e-11
-3.2707e-12
2.859e-11
-4.18863e-12
1.2354e-11
-1.17785e-12
-1.79102e-11
4.3811e-12
-3.79374e-11
1.11201e-11
-4.7188e-11
1.82873e-11
-5.05061e-11
2.55542e-11
-5.12847e-11
3.27901e-11
-5.10858e-11
3.99401e-11
-5.04901e-11
4.69752e-11
-4.96856e-11
5.38743e-11
-4.87284e-11
6.0619e-11
-4.76356e-11
6.71916e-11
-4.64138e-11
7.35754e-11
-4.50672e-11
7.97538e-11
-4.35998e-11
8.57108e-11
-4.20155e-11
9.1431e-11
-4.03186e-11
9.68996e-11
-3.85137e-11
1.02102e-10
-3.66055e-11
1.07025e-10
-3.45991e-11
1.11656e-10
-3.24998e-11
1.15981e-10
-3.0313e-11
1.1999e-10
-2.80445e-11
1.23671e-10
-2.57001e-11
1.27015e-10
-2.32862e-11
1.30013e-10
-2.08089e-11
1.32655e-10