/*--------------------------------*- C++ -*----------------------------------*\
| =========                 |                                                 |
| \\      /  F ield         | OpenFOAM: The Open Source CFD Toolbox           |
|  \\    /   O peration     | Version:  2206                                  |
|   \\  /    A nd           | Website:  www.openfoam.com                      |
|    \\/     M anipulation  |                                                 |
\*---------------------------------------------------------------------------*/
FoamFile
{
    version     2.0;
    format      ascii;
    arch        "LSB;label=64;scalar=64";
    class       volVectorField;
    location    "460800";
    object      U;
}
// * * * * * * * * * * * * * * * * * * * * * * * * * * * * * * * * * * * * * //

dimensions      [0 1 -1 0 0 0 0];

internalField   nonuniform List<vector> 
16
(
(-1.16863e-07 7.49551e-08 0)
(1.74015e-09 -6.2725e-08 0)
(1.56595e-07 -3.47185e-08 0)
(2.56829e-08 2.84425e-08 0)
(2.11166e-09 4.03155e-08 0)
(1.35599e-07 -2.13715e-07 0)
(1.46332e-07 1.52659e-08 0)
(5.42618e-09 1.53444e-07 0)
(5.81657e-08 -6.0732e-08 0)
(1.60443e-09 -2.12256e-07 0)
(-8.96063e-08 9.71107e-08 0)
(-2.0053e-08 1.76039e-07 0)
(5.43692e-08 -2.01749e-08 0)
(-1.37794e-07 -6.06605e-08 0)
(-2.13541e-07 3.64196e-08 0)
(-1.11276e-08 4.62291e-08 0)
)
;

boundaryField
{
    movingWall
    {
        type            noSlip;
    }
    fixedWalls
    {
        type            noSlip;
    }
    frontAndBack
    {
        type            empty;
    }
}


// ************************************************************************* //
