/*--------------------------------*- C++ -*----------------------------------*\
| =========                 |                                                 |
| \\      /  F ield         | OpenFOAM: The Open Source CFD Toolbox           |
|  \\    /   O peration     | Version:  2212                                  |
|   \\  /    A nd           | Website:  www.openfoam.com                      |
|    \\/     M anipulation  |                                                 |
\*---------------------------------------------------------------------------*/
FoamFile
{
    version     2.0;
    format      ascii;
    arch        "LSB;label=64;scalar=64";
    class       volScalarField::Internal;
    location    "990";
    object      dGco2;
}
// * * * * * * * * * * * * * * * * * * * * * * * * * * * * * * * * * * * * * //

dimensions      [1 -3 -1 0 0 0 0];

value           nonuniform List<scalar> 
1024
(
0.00014488
0.000144947
0.00014511
0.000145403
0.00014586
0.000146501
0.000147328
0.000148309
0.000149387
0.000150484
0.000151516
0.000152388
0.000152987
0.000153203
0.000152976
0.00015227
0.000151143
0.000149828
0.000148495
0.000147172
0.000145865
0.000144582
0.000143346
0.000142195
0.000141176
0.000140324
0.000139654
0.000139161
0.000138824
0.000138611
0.000138495
0.000138447
0.000144892
0.000144961
0.000145128
0.000145428
0.000145895
0.000146549
0.000147388
0.000148381
0.000149467
0.000150571
0.000151608
0.000152483
0.00015308
0.000153288
0.000153054
0.000152341
0.00015121
0.000149892
0.000148559
0.000147236
0.00014593
0.000144647
0.000143408
0.000142253
0.000141226
0.000140364
0.000139684
0.000139183
0.000138839
0.000138623
0.000138505
0.000138456
0.000144922
0.000144993
0.000145167
0.00014548
0.000145965
0.000146643
0.000147509
0.000148526
0.000149636
0.000150762
0.00015182
0.000152711
0.000153308
0.000153498
0.000153238
0.0001525
0.00015135
0.000150023
0.000148686
0.000147363
0.000146059
0.000144778
0.000143536
0.000142372
0.000141329
0.000140448
0.000139749
0.000139231
0.000138875
0.000138651
0.000138528
0.000138478
0.000144971
0.000145045
0.000145228
0.000145558
0.000146069
0.00014678
0.000147684
0.000148744
0.000149899
0.000151076
0.000152187
0.000153121
0.000153724
0.000153876
0.000153559
0.000152764
0.00015157
0.000150217
0.000148869
0.000147544
0.000146243
0.000144965
0.000143723
0.000142547
0.000141485
0.000140577
0.00013985
0.000139308
0.000138933
0.000138697
0.000138567
0.000138515
0.000145039
0.000145118
0.00014531
0.000145658
0.000146199
0.000146951
0.000147907
0.00014903
0.000150263
0.000151534
0.000152747
0.000153761
0.00015438
0.000154472
0.000154052
0.000153148
0.000151868
0.000150462
0.000149087
0.000147754
0.000146457
0.000145186
0.000143946
0.000142763
0.000141679
0.000140742
0.000139982
0.000139409
0.000139011
0.00013876
0.000138623
0.000138567
0.000145127
0.000145208
0.000145409
0.000145775
0.000146346
0.000147144
0.000148166
0.000149381
0.000150737
0.000152159
0.000153533
0.000154672
0.000155318
0.000155321
0.000154744
0.000153664
0.000152237
0.000150736
0.000149311
0.000147958
0.00014666
0.000145398
0.000144167
0.000142983
0.000141885
0.00014092
0.000140128
0.000139526
0.000139104
0.000138837
0.000138691
0.000138632
0.00014523
0.000145313
0.000145521
0.000145902
0.000146503
0.000147353
0.000148458
0.000149798
0.000151328
0.000152969
0.00015457
0.000155874
0.000156552
0.000156437
0.00015564
0.000154308
0.000152663
0.000151012
0.0001495
0.000148107
0.000146801
0.000145549
0.000144334
0.000143159
0.000142058
0.000141078
0.000140264
0.000139637
0.000139197
0.000138917
0.000138763
0.000138702
0.000145347
0.000145432
0.000145645
0.000146039
0.000146669
0.000147576
0.000148784
0.000150288
0.000152052
0.000153982
0.00015587
0.000157367
0.000158069
0.000157798
0.00015672
0.000155062
0.00015312
0.000151253
0.000149608
0.000148147
0.000146818
0.000145574
0.00014438
0.000143229
0.000142144
0.000141169
0.000140351
0.000139717
0.000139268
0.000138982
0.000138825
0.000138761
0.000145481
0.000145566
0.000145784
0.000146191
0.000146852
0.000147827
0.000149161
0.000150872
0.000152932
0.000155218
0.000157442
0.000159139
0.000159834
0.00015936
0.000157945
0.0001559
0.000153591
0.000151435
0.000149597
0.000148026
0.000146651
0.000145407
0.000144241
0.000143129
0.000142084
0.000141142
0.000140347
0.000139729
0.00013929
0.000139008
0.000138853
0.000138789
0.00014564
0.000145727
0.00014595
0.000146374
0.000147075
0.000148134
0.000149626
0.000151595
0.000154017
0.000156723
0.000159313
0.000161189
0.000161824
0.000161094
0.000159308
0.000156844
0.000154111
0.000151581
0.000149464
0.000147718
0.000146257
0.000144995
0.000143859
0.000142804
0.000141827
0.000140951
0.000140215
0.000139642
0.000139233
0.000138969
0.00013882
0.000138759
0.000145846
0.000145937
0.00014617
0.000146619
0.000147377
0.000148551
0.000150246
0.000152537
0.000155396
0.00015858
0.000161544
0.000163555
0.000164068
0.000163052
0.000160911
0.000158056
0.000154873
0.000151864
0.000149336
0.000147294
0.000145662
0.000144334
0.000143212
0.000142225
0.000141342
0.000140568
0.000139924
0.000139424
0.000139066
0.000138832
0.000138697
0.00013864
0.000146138
0.000146234
0.000146487
0.00014698
0.000147825
0.00014916
0.000151128
0.000153829
0.000157211
0.000160923
0.000164247
0.000166338
0.000166698
0.000165449
0.00016309
0.000159987
0.000156397
0.000152802
0.000149651
0.000147079
0.000145082
0.000143555
0.000142373
0.000141426
0.000140642
0.000139991
0.000139464
0.00013906
0.000138771
0.00013858
0.00013847
0.000138423
0.000146579
0.000146686
0.000146971
0.000147536
0.000148517
0.000150088
0.000152427
0.000155651
0.000159651
0.000163924
0.000167579
0.000169726
0.000170014
0.000168767
0.000166533
0.000163529
0.000159764
0.000155596
0.000151601
0.000148118
0.000145336
0.000143249
0.000141742
0.000140666
0.000139891
0.000139325
0.000138913
0.000138625
0.00013844
0.000138336
0.000138288
0.000138273
0.000147258
0.000147383
0.000147721
0.000148399
0.000149586
0.000151493
0.000154333
0.000158209
0.000162917
0.00016777
0.000171744
0.000174031
0.000174541
0.000173806
0.000172328
0.000170097
0.000166809
0.000162547
0.000157871
0.000153282
0.00014919
0.000145834
0.000143298
0.000141484
0.000140287
0.00013956
0.00013918
0.000139048
0.000139077
0.000139187
0.000139306
0.00013938
0.00014828
0.00014843
0.000148845
0.000149686
0.000151168
0.000153544
0.00015704
0.000161705
0.000167182
0.000172616
0.000176964
0.000179655
0.00018093
0.000181448
0.000181582
0.000181164
0.000179682
0.000176831
0.000172884
0.000168293
0.000163515
0.000158952
0.000154909
0.000151545
0.000149008
0.000147271
0.000146273
0.000145889
0.000145929
0.000146178
0.000146446
0.00014661
0.000149863
0.000150054
0.000150583
0.000151658
0.000153539
0.000156504
0.00016075
0.000166209
0.00017236
0.000178282
0.000183087
0.000186516
0.000189029
0.000191255
0.000193476
0.000195608
0.000197265
0.00019791
0.000197371
0.000195788
0.000193342
0.000190257
0.000186777
0.000183166
0.000179672
0.000176493
0.00017384
0.000171862
0.000170593
0.000169926
0.000169674
0.000169631
0.000151587
0.000151806
0.000152406
0.000153609
0.000155684
0.000158897
0.000163396
0.000169059
0.000175384
0.000181577
0.000186903
0.000191121
0.000194552
0.000197691
0.000200834
0.000204099
0.000207483
0.000210755
0.000213662
0.000216057
0.000217776
0.00021869
0.000218729
0.000217891
0.000216259
0.000214036
0.000211498
0.000208975
0.000206798
0.000205198
0.000204252
0.000203868
0.000152775
0.000153
0.000153599
0.000154775
0.000156778
0.000159848
0.000164115
0.000169474
0.000175503
0.00018154
0.000186924
0.000191308
0.000194774
0.000197622
0.000200101
0.0002024
0.000204752
0.000207465
0.000210622
0.000214093
0.000217633
0.000220972
0.000223857
0.000226083
0.000227518
0.00022812
0.000227962
0.00022723
0.000226208
0.000225212
0.000224488
0.00022414
0.000153343
0.00015356
0.000154116
0.000155182
0.00015697
0.000159695
0.00016349
0.000168292
0.000173776
0.00017939
0.000184542
0.000188826
0.000192145
0.000194632
0.000196484
0.000197916
0.000199259
0.000201109
0.000203759
0.00020718
0.000211172
0.000215422
0.000219577
0.000223304
0.000226359
0.000228615
0.000230063
0.000230796
0.000230988
0.000230863
0.000230646
0.000230502
0.000153449
0.000153648
0.000154143
0.000155067
0.000156591
0.000158899
0.000162121
0.000166243
0.000171035
0.000176056
0.000180797
0.000184847
0.000188022
0.00019036
0.000192025
0.000193266
0.000194426
0.000196074
0.000198519
0.000201852
0.000206015
0.000210793
0.000215829
0.000220667
0.000224897
0.000228245
0.000230616
0.00023208
0.000232818
0.000233068
0.00023307
0.000233016
0.000153301
0.000153471
0.000153889
0.000154659
0.000155919
0.000157815
0.000160464
0.000163881
0.000167914
0.000172229
0.000176415
0.000180113
0.000183135
0.000185493
0.000187348
0.000188971
0.00019065
0.000192711
0.000195342
0.000198692
0.00020282
0.000207661
0.000212989
0.000218405
0.000223444
0.000227695
0.000230909
0.000233046
0.000234248
0.000234768
0.000234893
0.000234873
0.000153174
0.000153295
0.000153605
0.000154197
0.000155188
0.000156697
0.00015882
0.000161578
0.000164868
0.000168445
0.000172006
0.000175287
0.000178166
0.000180687
0.000183026
0.000185444
0.000188077
0.000190919
0.000194011
0.000197529
0.000201613
0.000206319
0.00021156
0.000217073
0.000222459
0.000227263
0.000231116
0.000233843
0.000235491
0.000236282
0.000236529
0.000236538
0.000153459
0.000153497
0.00015364
0.000153986
0.000154659
0.000155773
0.000157406
0.00015957
0.000162189
0.000165091
0.000168081
0.000171016
0.000173875
0.000176754
0.000179824
0.000183286
0.000187042
0.000190759
0.000194369
0.000198086
0.000202112
0.000206591
0.000211539
0.000216822
0.000222155
0.000227148
0.000231383
0.000234559
0.000236601
0.000237659
0.000238033
0.000238075
0.000154664
0.000154575
0.000154461
0.000154445
0.000154687
0.000155331
0.000156461
0.000158084
0.000160144
0.000162536
0.000165168
0.000168011
0.00017112
0.000174601
0.000178571
0.000183123
0.00018791
0.000192355
0.000196354
0.000200172
0.000204058
0.000208211
0.000212733
0.000217589
0.000222599
0.000227465
0.000231805
0.000235253
0.000237606
0.000238909
0.000239417
0.000239495
0.000157319
0.000157059
0.000156598
0.000156092
0.000155766
0.000155835
0.000156429
0.00015758
0.000159261
0.000161426
0.000164057
0.000167178
0.00017084
0.000175091
0.000179944
0.000185384
0.000190878
0.000195735
0.000199881
0.000203628
0.000207252
0.000210984
0.000214972
0.000219257
0.000223758
0.000228267
0.000232464
0.000235984
0.000238536
0.000240044
0.000240682
0.000240801
0.000161836
0.000161379
0.000160539
0.000159511
0.000158587
0.000158073
0.000158189
0.000159027
0.000160596
0.000162877
0.000165858
0.000169525
0.000173853
0.000178788
0.000184247
0.000190145
0.000195876
0.000200752
0.000204764
0.000208251
0.000211495
0.000214727
0.000218111
0.000221737
0.000225594
0.000229567
0.000233418
0.000236813
0.000239425
0.000241074
0.00024183
0.000241995
0.000168427
0.000167789
0.000166669
0.000165312
0.000164025
0.000163167
0.000163053
0.000163835
0.000165542
0.000168144
0.000171571
0.000175728
0.000180491
0.000185725
0.000191297
0.000197104
0.000202569
0.000207092
0.000210716
0.000213782
0.000216551
0.000219233
0.000221988
0.000224916
0.000228057
0.000231371
0.000234706
0.000237796
0.000240315
0.000242016
0.000242862
0.000243075
0.000177136
0.000176399
0.00017529
0.000174066
0.000172937
0.000172198
0.000172201
0.000173132
0.00017503
0.000177842
0.000181448
0.000185685
0.000190375
0.000195353
0.000200483
0.000205679
0.000210455
0.000214331
0.000217383
0.000219914
0.00022215
0.000224267
0.0002264
0.000228646
0.00023106
0.000233653
0.000236355
0.000238982
0.000241254
0.000242896
0.000243784
0.00024404
0.000187979
0.00018732
0.000186676
0.00018615
0.000185713
0.000185502
0.000185829
0.000186897
0.000188775
0.000191423
0.000194713
0.000198476
0.000202533
0.000206733
0.000210963
0.000215165
0.000218967
0.000222014
0.000224384
0.000226323
0.000228008
0.000229574
0.000231124
0.000232738
0.000234468
0.000236347
0.00023836
0.000240409
0.000242291
0.00024375
0.000244609
0.000244892
0.000201137
0.000200842
0.00020107
0.00020149
0.000201855
0.000202201
0.000202767
0.000203764
0.0002053
0.000207374
0.000209897
0.000212736
0.000215751
0.000218827
0.000221885
0.000224885
0.000227576
0.000229715
0.000231367
0.000232704
0.000233853
0.000234904
0.000235931
0.000236986
0.000238112
0.000239339
0.000240676
0.000242091
0.000243468
0.000244617
0.000245357
0.000245634
0.000217114
0.000217453
0.000218392
0.000219276
0.000219961
0.000220487
0.000221008
0.000221693
0.000222653
0.000223913
0.000225431
0.000227129
0.000228922
0.000230741
0.000232536
0.000234287
0.000235849
0.000237087
0.000238037
0.000238803
0.000239454
0.000240045
0.000240614
0.000241194
0.000241808
0.000242476
0.00024321
0.000244005
0.000244816
0.000245543
0.000246057
0.000246277
0.000236592
0.000236886
0.000237415
0.000237858
0.00023819
0.000238434
0.000238643
0.000238882
0.000239199
0.000239611
0.000240106
0.00024066
0.000241243
0.000241834
0.000242415
0.00024298
0.000243484
0.000243882
0.000244187
0.000244432
0.00024464
0.000244827
0.000245006
0.000245188
0.000245378
0.000245585
0.000245812
0.00024606
0.000246319
0.000246561
0.000246748
0.000246838
)
;


// ************************************************************************* //
