/*--------------------------------*- C++ -*----------------------------------*\
| =========                 |                                                 |
| \\      /  F ield         | OpenFOAM: The Open Source CFD Toolbox           |
|  \\    /   O peration     | Version:  2212                                  |
|   \\  /    A nd           | Website:  www.openfoam.com                      |
|    \\/     M anipulation  |                                                 |
\*---------------------------------------------------------------------------*/
FoamFile
{
    version     2.0;
    format      ascii;
    arch        "LSB;label=64;scalar=64";
    class       volScalarField;
    location    "990";
    object      p;
}
// * * * * * * * * * * * * * * * * * * * * * * * * * * * * * * * * * * * * * //

dimensions      [0 2 -2 0 0 0 0];

internalField   nonuniform List<scalar> 
1024
(
0
-2.91579e-06
-5.64193e-06
-5.64558e-06
-1.29904e-06
8.62954e-06
2.56991e-05
5.18725e-05
8.83988e-05
0.000132457
0.000172343
0.000189569
0.000165746
9.54743e-05
-1.31686e-05
-0.000141204
-0.000270753
-0.000378819
-0.000455587
-0.000504873
-0.000534171
-0.000550282
-0.000558256
-0.000561649
-0.000562839
-0.00056322
-0.000563309
-0.000562952
-0.000561812
-0.000559895
-0.000557781
-0.000556422
-0.0928114
-0.0928145
-0.0928171
-0.0928172
-0.0928137
-0.0928053
-0.0927902
-0.0927661
-0.092732
-0.0926903
-0.0926528
-0.0926374
-0.092661
-0.0927293
-0.0928359
-0.0929622
-0.0930902
-0.0931971
-0.0932728
-0.0933211
-0.0933497
-0.0933651
-0.0933726
-0.0933754
-0.0933761
-0.093376
-0.0933756
-0.0933749
-0.0933737
-0.093372
-0.09337
-0.0933686
-0.199428
-0.199432
-0.199436
-0.199436
-0.199435
-0.199429
-0.199417
-0.199396
-0.199366
-0.199328
-0.199294
-0.199282
-0.199305
-0.199371
-0.199474
-0.199597
-0.199722
-0.199827
-0.1999
-0.199947
-0.199974
-0.199988
-0.199994
-0.199996
-0.199995
-0.199994
-0.199993
-0.199991
-0.19999
-0.199988
-0.199986
-0.199984
-0.321909
-0.321914
-0.321918
-0.321921
-0.321922
-0.32192
-0.321912
-0.321896
-0.32187
-0.321837
-0.321808
-0.3218
-0.321824
-0.321886
-0.321985
-0.322103
-0.322223
-0.322324
-0.322395
-0.322439
-0.322464
-0.322475
-0.322479
-0.322479
-0.322476
-0.322473
-0.32247
-0.322467
-0.322465
-0.322463
-0.32246
-0.322457
-0.462618
-0.462624
-0.46263
-0.462635
-0.462639
-0.462642
-0.462639
-0.462629
-0.462608
-0.46258
-0.462556
-0.462553
-0.462579
-0.462638
-0.46273
-0.462842
-0.462957
-0.463053
-0.46312
-0.46316
-0.46318
-0.463188
-0.463189
-0.463185
-0.463179
-0.463173
-0.463168
-0.463163
-0.463159
-0.463156
-0.463152
-0.463148
-0.624271
-0.624277
-0.624284
-0.624292
-0.6243
-0.624307
-0.62431
-0.624305
-0.624289
-0.624267
-0.62425
-0.624253
-0.62428
-0.624336
-0.624423
-0.624526
-0.624634
-0.624725
-0.624787
-0.624822
-0.624838
-0.624841
-0.624837
-0.624829
-0.624819
-0.624809
-0.624799
-0.624792
-0.624787
-0.624782
-0.624777
-0.624772
-0.809986
-0.809991
-0.809998
-0.810008
-0.810019
-0.810031
-0.810037
-0.810037
-0.810026
-0.81001
-0.81
-0.810008
-0.810038
-0.810093
-0.810173
-0.810269
-0.81037
-0.810456
-0.810513
-0.810542
-0.810552
-0.81055
-0.81054
-0.810527
-0.810512
-0.810497
-0.810483
-0.810473
-0.810464
-0.810458
-0.810452
-0.810447
-1.02334
-1.02334
-1.02335
-1.02336
-1.02337
-1.02339
-1.02339
-1.0234
-1.02339
-1.02338
-1.02338
-1.02339
-1.02342
-1.02348
-1.02355
-1.02364
-1.02374
-1.02382
-1.02387
-1.0239
-1.0239
-1.02389
-1.02388
-1.02386
-1.02384
-1.02382
-1.0238
-1.02379
-1.02378
-1.02377
-1.02376
-1.02376
-1.26843
-1.26843
-1.26844
-1.26845
-1.26846
-1.26847
-1.26848
-1.26849
-1.26849
-1.26848
-1.26849
-1.26851
-1.26854
-1.2686
-1.26867
-1.26875
-1.26884
-1.26892
-1.26897
-1.26899
-1.26899
-1.26898
-1.26896
-1.26893
-1.26891
-1.26888
-1.26886
-1.26884
-1.26883
-1.26882
-1.26882
-1.26881
-1.54997
-1.54998
-1.54998
-1.54999
-1.55
-1.55001
-1.55002
-1.55002
-1.55002
-1.55003
-1.55004
-1.55006
-1.55011
-1.55016
-1.55023
-1.55031
-1.5504
-1.55047
-1.55052
-1.55054
-1.55054
-1.55052
-1.55049
-1.55047
-1.55044
-1.55041
-1.55039
-1.55037
-1.55035
-1.55034
-1.55034
-1.55033
-1.87338
-1.87338
-1.87338
-1.87339
-1.8734
-1.87341
-1.87341
-1.87342
-1.87342
-1.87343
-1.87345
-1.87348
-1.87353
-1.87358
-1.87365
-1.87373
-1.87381
-1.87389
-1.87394
-1.87396
-1.87395
-1.87393
-1.8739
-1.87387
-1.87384
-1.87381
-1.87378
-1.87376
-1.87374
-1.87373
-1.87373
-1.87373
-2.24488
-2.24488
-2.24488
-2.24488
-2.24488
-2.24489
-2.24489
-2.2449
-2.24491
-2.24492
-2.24495
-2.24499
-2.24503
-2.24509
-2.24516
-2.24523
-2.24531
-2.24538
-2.24544
-2.24546
-2.24544
-2.24542
-2.24539
-2.24535
-2.24532
-2.24529
-2.24525
-2.24523
-2.24522
-2.24521
-2.24521
-2.24521
-2.67161
-2.67161
-2.67161
-2.67161
-2.67161
-2.67161
-2.67162
-2.67162
-2.67163
-2.67165
-2.67168
-2.67172
-2.67178
-2.67184
-2.6719
-2.67197
-2.67205
-2.67211
-2.67215
-2.67217
-2.67216
-2.67212
-2.67208
-2.67204
-2.672
-2.67196
-2.67193
-2.67191
-2.6719
-2.67189
-2.67189
-2.67189
-3.1618
-3.16181
-3.16181
-3.16181
-3.1618
-3.1618
-3.16181
-3.16181
-3.16182
-3.16184
-3.16188
-3.16193
-3.16198
-3.16205
-3.16211
-3.16218
-3.16223
-3.16227
-3.16229
-3.16229
-3.16227
-3.16222
-3.16216
-3.16211
-3.16206
-3.16203
-3.162
-3.16198
-3.16198
-3.16197
-3.16198
-3.16198
-3.72492
-3.72492
-3.72492
-3.72492
-3.72492
-3.72492
-3.72492
-3.72493
-3.72494
-3.72497
-3.72501
-3.72506
-3.72512
-3.72518
-3.72525
-3.72531
-3.72535
-3.72535
-3.72533
-3.72528
-3.72521
-3.72513
-3.72505
-3.72498
-3.72493
-3.7249
-3.72489
-3.72489
-3.72489
-3.7249
-3.7249
-3.7249
-4.37182
-4.37182
-4.37183
-4.37183
-4.37183
-4.37183
-4.37183
-4.37184
-4.37187
-4.3719
-4.37195
-4.37201
-4.37208
-4.37214
-4.37221
-4.37226
-4.37229
-4.37227
-4.37221
-4.37212
-4.37201
-4.37188
-4.37176
-4.37167
-4.37161
-4.37157
-4.37156
-4.37155
-4.37156
-4.37156
-4.37157
-4.37157
-5.0636
-5.0636
-5.0636
-5.0636
-5.06361
-5.06362
-5.06363
-5.06365
-5.06367
-5.06371
-5.06376
-5.06381
-5.06388
-5.06395
-5.06402
-5.06408
-5.0641
-5.06407
-5.06401
-5.06392
-5.0638
-5.06367
-5.06354
-5.06343
-5.06333
-5.06327
-5.06324
-5.06323
-5.06323
-5.06324
-5.06324
-5.06325
-5.71064
-5.71064
-5.71064
-5.71065
-5.71066
-5.71068
-5.7107
-5.71072
-5.71075
-5.71079
-5.71084
-5.7109
-5.71096
-5.71103
-5.7111
-5.71115
-5.71116
-5.71114
-5.71108
-5.71101
-5.71091
-5.7108
-5.71068
-5.71057
-5.71047
-5.71039
-5.71034
-5.71032
-5.71031
-5.71031
-5.71032
-5.71033
-6.2739
-6.2739
-6.2739
-6.27391
-6.27393
-6.27395
-6.27398
-6.27401
-6.27405
-6.27409
-6.27414
-6.2742
-6.27426
-6.27433
-6.2744
-6.27444
-6.27445
-6.27443
-6.27438
-6.27431
-6.27424
-6.27415
-6.27405
-6.27395
-6.27386
-6.27377
-6.27371
-6.27367
-6.27365
-6.27365
-6.27366
-6.27367
-6.76418
-6.76418
-6.76418
-6.76419
-6.76421
-6.76424
-6.76428
-6.76433
-6.76438
-6.76443
-6.76449
-6.76455
-6.76461
-6.76468
-6.76475
-6.76479
-6.7648
-6.76477
-6.76472
-6.76466
-6.7646
-6.76453
-6.76445
-6.76436
-6.76427
-6.76419
-6.76412
-6.76407
-6.76404
-6.76404
-6.76404
-6.76405
-7.19094
-7.19094
-7.19094
-7.19095
-7.19097
-7.191
-7.19105
-7.19111
-7.19118
-7.19124
-7.19131
-7.19138
-7.19145
-7.19153
-7.1916
-7.19164
-7.19165
-7.19162
-7.19157
-7.19151
-7.19144
-7.19137
-7.1913
-7.19122
-7.19114
-7.19105
-7.19098
-7.19092
-7.19089
-7.19088
-7.19088
-7.19089
-7.56242
-7.56241
-7.56241
-7.56242
-7.56243
-7.56247
-7.56252
-7.56259
-7.56267
-7.56275
-7.56284
-7.56292
-7.56301
-7.56309
-7.56317
-7.56322
-7.56323
-7.5632
-7.56315
-7.56308
-7.56301
-7.56293
-7.56285
-7.56277
-7.56269
-7.5626
-7.56252
-7.56245
-7.5624
-7.56238
-7.56239
-7.5624
-7.88577
-7.88577
-7.88577
-7.88577
-7.88578
-7.88581
-7.88586
-7.88593
-7.88601
-7.88611
-7.88622
-7.88633
-7.88644
-7.88654
-7.88663
-7.88668
-7.8867
-7.88667
-7.88661
-7.88654
-7.88645
-7.88636
-7.88627
-7.88617
-7.88607
-7.88598
-7.88588
-7.8858
-7.88574
-7.88571
-7.88571
-7.88572
-8.16726
-8.16726
-8.16725
-8.16725
-8.16726
-8.16727
-8.16731
-8.16737
-8.16746
-8.16758
-8.16771
-8.16785
-8.16798
-8.16809
-8.16819
-8.16826
-8.16828
-8.16825
-8.1682
-8.16812
-8.16802
-8.16792
-8.1678
-8.16768
-8.16755
-8.16743
-8.16731
-8.1672
-8.16712
-8.16707
-8.16706
-8.16707
-8.41231
-8.41231
-8.4123
-8.41229
-8.41229
-8.41229
-8.4123
-8.41236
-8.41245
-8.41258
-8.41273
-8.41289
-8.41305
-8.41319
-8.4133
-8.41338
-8.41341
-8.41338
-8.41333
-8.41324
-8.41314
-8.41302
-8.41288
-8.41273
-8.41256
-8.41239
-8.41223
-8.41209
-8.41197
-8.41189
-8.41187
-8.41188
-8.62564
-8.62564
-8.62563
-8.62562
-8.62559
-8.62557
-8.62557
-8.62561
-8.6257
-8.62584
-8.62602
-8.62621
-8.62639
-8.62655
-8.62667
-8.62676
-8.6268
-8.62678
-8.62672
-8.62663
-8.62652
-8.62639
-8.62622
-8.62604
-8.62583
-8.62561
-8.62538
-8.62518
-8.62501
-8.62489
-8.62484
-8.62484
-8.81136
-8.81136
-8.81135
-8.81132
-8.81128
-8.81124
-8.81122
-8.81124
-8.81134
-8.81149
-8.81169
-8.8119
-8.8121
-8.81228
-8.81242
-8.81252
-8.81256
-8.81254
-8.81248
-8.8124
-8.81228
-8.81213
-8.81195
-8.81173
-8.81148
-8.8112
-8.8109
-8.81062
-8.81038
-8.81019
-8.81008
-8.81005
-8.97306
-8.97306
-8.97304
-8.97299
-8.97293
-8.97286
-8.97282
-8.97285
-8.97294
-8.97311
-8.97333
-8.97356
-8.97377
-8.97397
-8.97412
-8.97422
-8.97427
-8.97425
-8.9742
-8.97411
-8.97399
-8.97383
-8.97363
-8.97338
-8.97309
-8.97276
-8.97239
-8.97202
-8.97167
-8.97137
-8.97117
-8.97107
-9.11387
-9.11386
-9.11382
-9.11374
-9.11365
-9.11356
-9.11351
-9.11353
-9.11364
-9.11382
-9.11405
-9.11429
-9.11452
-9.11472
-9.11488
-9.115
-9.11504
-9.11503
-9.11498
-9.11489
-9.11476
-9.1146
-9.11438
-9.11412
-9.11379
-9.11341
-9.11298
-9.11251
-9.11203
-9.11157
-9.11122
-9.11099
-9.23659
-9.23652
-9.23641
-9.23628
-9.23616
-9.23605
-9.23599
-9.23601
-9.23613
-9.23632
-9.23656
-9.23681
-9.23705
-9.23726
-9.23742
-9.23754
-9.23759
-9.23759
-9.23753
-9.23744
-9.23731
-9.23714
-9.23692
-9.23665
-9.2363
-9.23589
-9.23541
-9.23485
-9.23423
-9.23356
-9.23294
-9.23239
-9.34376
-9.34338
-9.34312
-9.34294
-9.34279
-9.34268
-9.34262
-9.34265
-9.34277
-9.34296
-9.34321
-9.34347
-9.34372
-9.34393
-9.3441
-9.34423
-9.34428
-9.34427
-9.34422
-9.34413
-9.344
-9.34383
-9.34361
-9.34333
-9.34298
-9.34255
-9.34204
-9.34143
-9.34069
-9.33979
-9.33869
-9.33743
-9.43766
-9.43643
-9.43595
-9.43577
-9.43562
-9.43551
-9.43545
-9.43548
-9.43561
-9.43581
-9.43606
-9.43633
-9.43658
-9.4368
-9.43697
-9.4371
-9.43716
-9.43715
-9.4371
-9.43701
-9.43689
-9.43672
-9.43649
-9.43621
-9.43586
-9.43543
-9.43491
-9.43427
-9.43346
-9.43237
-9.43077
-9.42851
)
;

boundaryField
{
    movingWall
    {
        type            calculated;
        value           nonuniform List<scalar> 
32
(
-9.48089
-9.47965
-9.47918
-9.47899
-9.47884
-9.47873
-9.47867
-9.4787
-9.47883
-9.47903
-9.47928
-9.47955
-9.4798
-9.48002
-9.4802
-9.48032
-9.48038
-9.48038
-9.48033
-9.48024
-9.48011
-9.47994
-9.47972
-9.47944
-9.47909
-9.47866
-9.47814
-9.4775
-9.47669
-9.4756
-9.47399
-9.47174
)
;
    }
    fixedWalls
    {
        type            calculated;
        value           nonuniform List<scalar> 
64
(
6.93889e-18
-0.0928114
-0.199428
-0.321909
-0.462618
-0.624271
-0.809986
-1.02334
-1.26843
-1.54997
-1.87338
-2.24488
-2.67161
-3.1618
-3.72492
-4.37182
-5.0636
-5.71064
-6.2739
-6.76418
-7.19094
-7.56242
-7.88577
-8.16726
-8.41231
-8.62564
-8.81136
-8.97306
-9.11387
-9.23659
-9.34376
-9.43766
-0.000556422
-0.0933686
-0.199984
-0.322457
-0.463148
-0.624772
-0.810447
-1.02376
-1.26881
-1.55033
-1.87373
-2.24521
-2.67189
-3.16198
-3.7249
-4.37157
-5.06325
-5.71033
-6.27367
-6.76405
-7.19089
-7.5624
-7.88572
-8.16707
-8.41188
-8.62484
-8.81005
-8.97107
-9.11099
-9.23239
-9.33743
-9.42851
)
;
    }
    floor
    {
        type            calculated;
        value           nonuniform List<scalar> 
32
(
0.0431949
0.043192
0.0431893
0.0431894
0.0431939
0.043204
0.0432212
0.0432476
0.0432844
0.0433287
0.0433688
0.0433863
0.0433625
0.043292
0.0431832
0.0430549
0.0429251
0.0428169
0.04274
0.0426906
0.0426612
0.042645
0.0426369
0.0426334
0.0426322
0.0426317
0.0426315
0.0426318
0.0426329
0.0426348
0.0426369
0.0426382
)
;
    }
    frontAndBack
    {
        type            empty;
    }
}


// ************************************************************************* //
