/*--------------------------------*- C++ -*----------------------------------*\
| =========                 |                                                 |
| \\      /  F ield         | OpenFOAM: The Open Source CFD Toolbox           |
|  \\    /   O peration     | Version:  2206                                  |
|   \\  /    A nd           | Website:  www.openfoam.com                      |
|    \\/     M anipulation  |                                                 |
\*---------------------------------------------------------------------------*/
FoamFile
{
    version     2.0;
    format      ascii;
    arch        "LSB;label=64;scalar=64";
    class       volVectorField;
    location    "111600";
    object      U;
}
// * * * * * * * * * * * * * * * * * * * * * * * * * * * * * * * * * * * * * //

dimensions      [0 1 -1 0 0 0 0];

internalField   nonuniform List<vector> 
16
(
(7.59131e-08 -8.48286e-08 0)
(1.5882e-07 -2.2257e-08 0)
(1.48404e-07 5.32801e-08 0)
(6.17792e-08 5.54545e-08 0)
(3.38874e-08 -1.50075e-07 0)
(-4.15461e-08 -4.48506e-08 0)
(4.55347e-09 3.78971e-08 0)
(7.26191e-08 1.57467e-07 0)
(-2.67879e-08 -8.01225e-08 0)
(-9.95804e-08 7.72969e-09 0)
(-9.864e-08 -6.21771e-08 0)
(-2.4231e-08 1.31507e-07 0)
(-8.05796e-08 -2.3076e-08 0)
(-1.91584e-08 2.45764e-08 0)
(-5.32642e-08 -3.48767e-08 0)
(-1.1033e-07 3.70021e-08 0)
)
;

boundaryField
{
    movingWall
    {
        type            noSlip;
    }
    fixedWalls
    {
        type            noSlip;
    }
    frontAndBack
    {
        type            empty;
    }
}


// ************************************************************************* //
