/*--------------------------------*- C++ -*----------------------------------*\
| =========                 |                                                 |
| \\      /  F ield         | OpenFOAM: The Open Source CFD Toolbox           |
|  \\    /   O peration     | Version:  2212                                  |
|   \\  /    A nd           | Website:  www.openfoam.com                      |
|    \\/     M anipulation  |                                                 |
\*---------------------------------------------------------------------------*/
FoamFile
{
    version     2.0;
    format      ascii;
    arch        "LSB;label=64;scalar=64";
    class       volScalarField;
    location    "820";
    object      p;
}
// * * * * * * * * * * * * * * * * * * * * * * * * * * * * * * * * * * * * * //

dimensions      [0 2 -2 0 0 0 0];

internalField   nonuniform List<scalar> 
1024
(
0
-3.45357e-06
-6.31623e-06
-5.50881e-06
7.20547e-07
1.36203e-05
3.47532e-05
6.5888e-05
0.000107666
0.00015648
0.000201228
0.000223704
0.000214079
0.000161332
5.14156e-05
-0.000111564
-0.000307727
-0.000497121
-0.000644894
-0.000744137
-0.000803894
-0.000836434
-0.00085192
-0.000857582
-0.000858285
-0.000857095
-0.000855567
-0.000853994
-0.000851931
-0.000849079
-0.000845974
-0.000843909
-0.0928119
-0.0928156
-0.0928184
-0.0928179
-0.092813
-0.0928021
-0.0927833
-0.0927547
-0.0927155
-0.0926692
-0.0926268
-0.0926061
-0.0926168
-0.0926693
-0.0927779
-0.0929391
-0.0931334
-0.0933208
-0.0934667
-0.0935643
-0.0936226
-0.0936539
-0.0936683
-0.0936731
-0.093673
-0.0936711
-0.0936688
-0.0936667
-0.0936644
-0.0936617
-0.0936588
-0.0936566
-0.199431
-0.199436
-0.19944
-0.199441
-0.199438
-0.199431
-0.199416
-0.199391
-0.199356
-0.199314
-0.199275
-0.199258
-0.199271
-0.199323
-0.19943
-0.199588
-0.199779
-0.199963
-0.200106
-0.2002
-0.200256
-0.200284
-0.200297
-0.200299
-0.200297
-0.200293
-0.200289
-0.200286
-0.200283
-0.20028
-0.200277
-0.200274
-0.321918
-0.321924
-0.32193
-0.321933
-0.321934
-0.321932
-0.321922
-0.321903
-0.321873
-0.321836
-0.321802
-0.32179
-0.321807
-0.32186
-0.321964
-0.322117
-0.322303
-0.322483
-0.322621
-0.322711
-0.322762
-0.322787
-0.322795
-0.322794
-0.322788
-0.322781
-0.322774
-0.322769
-0.322764
-0.32276
-0.322755
-0.322751
-0.46264
-0.462647
-0.462655
-0.462661
-0.462667
-0.46267
-0.462667
-0.462654
-0.46263
-0.4626
-0.462573
-0.462566
-0.462588
-0.462642
-0.462743
-0.462892
-0.463072
-0.463246
-0.463378
-0.463463
-0.463507
-0.463526
-0.463528
-0.463521
-0.46351
-0.463498
-0.463487
-0.463477
-0.46347
-0.463464
-0.463458
-0.463452
-0.624315
-0.624323
-0.624332
-0.624342
-0.624353
-0.624362
-0.624365
-0.624358
-0.624342
-0.624318
-0.624298
-0.624299
-0.624326
-0.624382
-0.624481
-0.624623
-0.624797
-0.624965
-0.625092
-0.62517
-0.625207
-0.625218
-0.625213
-0.625198
-0.62518
-0.625161
-0.625144
-0.62513
-0.625119
-0.62511
-0.625102
-0.625095
-0.810065
-0.810072
-0.810081
-0.810094
-0.810109
-0.810123
-0.810131
-0.81013
-0.810119
-0.810103
-0.810092
-0.810099
-0.810132
-0.810191
-0.810288
-0.810425
-0.810593
-0.810756
-0.810879
-0.81095
-0.810979
-0.810981
-0.810967
-0.810945
-0.810919
-0.810892
-0.810868
-0.810848
-0.810832
-0.810821
-0.810812
-0.810804
-1.02347
-1.02347
-1.02348
-1.02349
-1.02351
-1.02353
-1.02354
-1.02354
-1.02354
-1.02353
-1.02352
-1.02354
-1.02358
-1.02364
-1.02374
-1.02387
-1.02403
-1.02419
-1.02431
-1.02438
-1.0244
-1.02439
-1.02437
-1.02434
-1.02431
-1.02428
-1.02424
-1.02422
-1.0242
-1.02418
-1.02417
-1.02417
-1.26862
-1.26863
-1.26863
-1.26865
-1.26866
-1.26868
-1.26869
-1.2687
-1.2687
-1.2687
-1.2687
-1.26872
-1.26877
-1.26883
-1.26893
-1.26906
-1.26922
-1.26938
-1.2695
-1.26956
-1.26958
-1.26956
-1.26954
-1.2695
-1.26946
-1.26942
-1.26939
-1.26935
-1.26933
-1.26932
-1.26931
-1.2693
-1.55025
-1.55025
-1.55025
-1.55026
-1.55028
-1.55029
-1.55031
-1.55031
-1.55032
-1.55032
-1.55034
-1.55037
-1.55041
-1.55048
-1.55058
-1.55071
-1.55086
-1.55102
-1.55114
-1.55121
-1.55122
-1.5512
-1.55117
-1.55113
-1.55109
-1.55105
-1.55101
-1.55097
-1.55095
-1.55093
-1.55092
-1.55092
-1.87375
-1.87375
-1.87375
-1.87376
-1.87377
-1.87378
-1.8738
-1.8738
-1.87381
-1.87382
-1.87384
-1.87388
-1.87394
-1.87401
-1.8741
-1.87423
-1.87438
-1.87454
-1.87466
-1.87473
-1.87475
-1.87472
-1.87469
-1.87465
-1.8746
-1.87456
-1.87451
-1.87448
-1.87445
-1.87444
-1.87443
-1.87443
-2.24536
-2.24536
-2.24536
-2.24536
-2.24537
-2.24538
-2.24539
-2.2454
-2.24541
-2.24542
-2.24546
-2.2455
-2.24556
-2.24564
-2.24573
-2.24585
-2.246
-2.24615
-2.24627
-2.24635
-2.24636
-2.24633
-2.24629
-2.24625
-2.2462
-2.24615
-2.2461
-2.24607
-2.24604
-2.24603
-2.24602
-2.24602
-2.67222
-2.67223
-2.67223
-2.67223
-2.67223
-2.67224
-2.67224
-2.67225
-2.67227
-2.67229
-2.67233
-2.67238
-2.67245
-2.67253
-2.67262
-2.67273
-2.67287
-2.673
-2.67311
-2.67317
-2.67318
-2.67315
-2.6731
-2.67305
-2.67299
-2.67294
-2.67289
-2.67285
-2.67283
-2.67282
-2.67282
-2.67282
-3.16258
-3.16258
-3.16258
-3.16259
-3.16259
-3.16259
-3.16259
-3.1626
-3.16263
-3.16266
-3.1627
-3.16276
-3.16283
-3.16291
-3.163
-3.16311
-3.16322
-3.16331
-3.16338
-3.16341
-3.16341
-3.16336
-3.16329
-3.16322
-3.16316
-3.1631
-3.16306
-3.16303
-3.16301
-3.16301
-3.16301
-3.16302
-3.72589
-3.72589
-3.7259
-3.7259
-3.7259
-3.7259
-3.7259
-3.72592
-3.72594
-3.72598
-3.72604
-3.7261
-3.72618
-3.72627
-3.72636
-3.72645
-3.72652
-3.72656
-3.72656
-3.72653
-3.72645
-3.72636
-3.72627
-3.72617
-3.7261
-3.72605
-3.72603
-3.72602
-3.72602
-3.72603
-3.72603
-3.72603
-4.37304
-4.37305
-4.37305
-4.37305
-4.37305
-4.37306
-4.37307
-4.37309
-4.37312
-4.37316
-4.37322
-4.3733
-4.37339
-4.37348
-4.37357
-4.37365
-4.37369
-4.37368
-4.37363
-4.37352
-4.37339
-4.37323
-4.37307
-4.37294
-4.37285
-4.3728
-4.37278
-4.37277
-4.37278
-4.37278
-4.37279
-4.37279
-5.06508
-5.06508
-5.06509
-5.06509
-5.0651
-5.06512
-5.06514
-5.06516
-5.0652
-5.06524
-5.06531
-5.06538
-5.06547
-5.06557
-5.06566
-5.06573
-5.06576
-5.06573
-5.06564
-5.06553
-5.06538
-5.06521
-5.06504
-5.06488
-5.06475
-5.06467
-5.06462
-5.06461
-5.06461
-5.06462
-5.06463
-5.06463
-5.71237
-5.71237
-5.71237
-5.71238
-5.7124
-5.71242
-5.71245
-5.71248
-5.71253
-5.71258
-5.71265
-5.71272
-5.71281
-5.7129
-5.71299
-5.71305
-5.71306
-5.71302
-5.71294
-5.71283
-5.7127
-5.71255
-5.71239
-5.71225
-5.71212
-5.71202
-5.71195
-5.71192
-5.7119
-5.71191
-5.71191
-5.71192
-6.27581
-6.27581
-6.27582
-6.27583
-6.27585
-6.27588
-6.27593
-6.27598
-6.27603
-6.27609
-6.27616
-6.27624
-6.27633
-6.27642
-6.27651
-6.27655
-6.27655
-6.2765
-6.27642
-6.27632
-6.27621
-6.27608
-6.27594
-6.27581
-6.27568
-6.27557
-6.27549
-6.27544
-6.27542
-6.27542
-6.27542
-6.27543
-6.76623
-6.76623
-6.76623
-6.76625
-6.76627
-6.76632
-6.76638
-6.76644
-6.76651
-6.76659
-6.76667
-6.76676
-6.76686
-6.76695
-6.76703
-6.76708
-6.76707
-6.76701
-6.76693
-6.76683
-6.76671
-6.7666
-6.76647
-6.76635
-6.76623
-6.76612
-6.76603
-6.76597
-6.76593
-6.76592
-6.76593
-6.76594
-7.19309
-7.19308
-7.19308
-7.19309
-7.19312
-7.19317
-7.19324
-7.19333
-7.19342
-7.19351
-7.19361
-7.19372
-7.19383
-7.19393
-7.19402
-7.19407
-7.19405
-7.19399
-7.19389
-7.19378
-7.19366
-7.19354
-7.19342
-7.1933
-7.19318
-7.19307
-7.19298
-7.1929
-7.19286
-7.19284
-7.19284
-7.19285
-7.56462
-7.56461
-7.56461
-7.56462
-7.56464
-7.56469
-7.56477
-7.56486
-7.56497
-7.56509
-7.56522
-7.56535
-7.56548
-7.5656
-7.5657
-7.56574
-7.56572
-7.56565
-7.56555
-7.56542
-7.56529
-7.56516
-7.56502
-7.56489
-7.56477
-7.56465
-7.56455
-7.56447
-7.56441
-7.56439
-7.56438
-7.56439
-7.88802
-7.88801
-7.88801
-7.88801
-7.88803
-7.88807
-7.88814
-7.88824
-7.88836
-7.8885
-7.88866
-7.88881
-7.88897
-7.88911
-7.88922
-7.88927
-7.88925
-7.88917
-7.88906
-7.88892
-7.88878
-7.88862
-7.88846
-7.88831
-7.88816
-7.88803
-7.88792
-7.88782
-7.88775
-7.88772
-7.88771
-7.88772
-8.16954
-8.16954
-8.16953
-8.16953
-8.16954
-8.16956
-8.16961
-8.1697
-8.16983
-8.16999
-8.17017
-8.17036
-8.17054
-8.17071
-8.17083
-8.1709
-8.17088
-8.1708
-8.17068
-8.17053
-8.17036
-8.17018
-8.16999
-8.16981
-8.16963
-8.16947
-8.16933
-8.16921
-8.16912
-8.16907
-8.16906
-8.16907
-8.41462
-8.41461
-8.41461
-8.4146
-8.41459
-8.4146
-8.41462
-8.41469
-8.41482
-8.41499
-8.4152
-8.41542
-8.41564
-8.41583
-8.41597
-8.41604
-8.41603
-8.41595
-8.41582
-8.41566
-8.41548
-8.41528
-8.41506
-8.41484
-8.41462
-8.41441
-8.41423
-8.41407
-8.41396
-8.41389
-8.41386
-8.41387
-8.62797
-8.62797
-8.62796
-8.62795
-8.62792
-8.6279
-8.6279
-8.62795
-8.62807
-8.62826
-8.62849
-8.62875
-8.62899
-8.6292
-8.62936
-8.62945
-8.62944
-8.62936
-8.62923
-8.62906
-8.62887
-8.62865
-8.6284
-8.62814
-8.62788
-8.62761
-8.62737
-8.62716
-8.627
-8.62688
-8.62684
-8.62683
-8.81372
-8.81372
-8.81371
-8.81368
-8.81363
-8.81358
-8.81356
-8.81359
-8.81371
-8.81391
-8.81417
-8.81445
-8.81472
-8.81495
-8.81512
-8.81522
-8.81522
-8.81513
-8.815
-8.81483
-8.81463
-8.81439
-8.81413
-8.81383
-8.81352
-8.8132
-8.81289
-8.81261
-8.81236
-8.81218
-8.81209
-8.81205
-8.97543
-8.97544
-8.97542
-8.97537
-8.9753
-8.97522
-8.97517
-8.9752
-8.97532
-8.97553
-8.97581
-8.97611
-8.9764
-8.97665
-8.97684
-8.97694
-8.97694
-8.97686
-8.97673
-8.97655
-8.97634
-8.97609
-8.97581
-8.97549
-8.97515
-8.97477
-8.97439
-8.97402
-8.97367
-8.97338
-8.97319
-8.9731
-9.11627
-9.11626
-9.11622
-9.11614
-9.11603
-9.11593
-9.11587
-9.11589
-9.11602
-9.11624
-9.11654
-9.11686
-9.11716
-9.11742
-9.11762
-9.11772
-9.11773
-9.11765
-9.11752
-9.11734
-9.11712
-9.11687
-9.11658
-9.11624
-9.11586
-9.11545
-9.115
-9.11454
-9.11406
-9.11362
-9.11327
-9.11305
-9.239
-9.23893
-9.23882
-9.23869
-9.23856
-9.23843
-9.23836
-9.23838
-9.23852
-9.23875
-9.23906
-9.23939
-9.2397
-9.23997
-9.24017
-9.24028
-9.24029
-9.24021
-9.24008
-9.2399
-9.23969
-9.23943
-9.23913
-9.23878
-9.23839
-9.23795
-9.23745
-9.2369
-9.23629
-9.23564
-9.23502
-9.23447
-9.3462
-9.34582
-9.34556
-9.34537
-9.34521
-9.34508
-9.345
-9.34503
-9.34517
-9.34541
-9.34572
-9.34606
-9.34639
-9.34666
-9.34686
-9.34698
-9.34699
-9.34691
-9.34678
-9.34661
-9.34639
-9.34613
-9.34583
-9.34548
-9.34508
-9.34462
-9.3441
-9.34349
-9.34277
-9.34188
-9.34078
-9.33953
-9.44012
-9.43889
-9.43841
-9.43822
-9.43806
-9.43792
-9.43785
-9.43788
-9.43802
-9.43827
-9.43859
-9.43893
-9.43926
-9.43954
-9.43975
-9.43987
-9.43988
-9.4398
-9.43967
-9.4395
-9.43928
-9.43902
-9.43872
-9.43837
-9.43797
-9.43751
-9.43698
-9.43635
-9.43555
-9.43447
-9.43287
-9.43062
)
;

boundaryField
{
    movingWall
    {
        type            calculated;
        value           nonuniform List<scalar> 
32
(
-9.48335
-9.48212
-9.48164
-9.48145
-9.48129
-9.48115
-9.48107
-9.4811
-9.48125
-9.4815
-9.48182
-9.48216
-9.48249
-9.48277
-9.48298
-9.4831
-9.48311
-9.48303
-9.4829
-9.48273
-9.48251
-9.48225
-9.48195
-9.4816
-9.4812
-9.48074
-9.48021
-9.47958
-9.47878
-9.4777
-9.47611
-9.47385
)
;
    }
    fixedWalls
    {
        type            calculated;
        value           nonuniform List<scalar> 
64
(
6.93889e-18
-0.0928119
-0.199431
-0.321918
-0.46264
-0.624315
-0.810065
-1.02347
-1.26862
-1.55025
-1.87375
-2.24536
-2.67222
-3.16258
-3.72589
-4.37304
-5.06508
-5.71237
-6.27581
-6.76623
-7.19309
-7.56462
-7.88802
-8.16954
-8.41462
-8.62797
-8.81372
-8.97543
-9.11627
-9.239
-9.3462
-9.44012
-0.000843909
-0.0936566
-0.200274
-0.322751
-0.463452
-0.625095
-0.810804
-1.02417
-1.2693
-1.55092
-1.87443
-2.24602
-2.67282
-3.16302
-3.72603
-4.37279
-5.06463
-5.71192
-6.27543
-6.76594
-7.19285
-7.56439
-7.88772
-8.16907
-8.41387
-8.62683
-8.81205
-8.9731
-9.11305
-9.23447
-9.33953
-9.43062
)
;
    }
    floor
    {
        type            calculated;
        value           nonuniform List<scalar> 
32
(
0.0431951
0.0431917
0.0431889
0.0431898
0.0431962
0.0432094
0.0432308
0.0432622
0.0433043
0.0433534
0.0433985
0.0434212
0.0434117
0.043359
0.0432489
0.0430857
0.0428893
0.0426997
0.0425517
0.0424522
0.0423922
0.0423595
0.0423439
0.0423381
0.0423372
0.0423383
0.0423397
0.0423411
0.0423431
0.0423459
0.042349
0.042351
)
;
    }
    frontAndBack
    {
        type            empty;
    }
}


// ************************************************************************* //
