/*--------------------------------*- C++ -*----------------------------------*\
| =========                 |                                                 |
| \\      /  F ield         | OpenFOAM: The Open Source CFD Toolbox           |
|  \\    /   O peration     | Version:  2212                                  |
|   \\  /    A nd           | Website:  www.openfoam.com                      |
|    \\/     M anipulation  |                                                 |
\*---------------------------------------------------------------------------*/
FoamFile
{
    version     2.0;
    format      ascii;
    arch        "LSB;label=64;scalar=64";
    class       volScalarField;
    location    "820";
    object      p_rgh;
}
// * * * * * * * * * * * * * * * * * * * * * * * * * * * * * * * * * * * * * //

dimensions      [0 2 -2 0 0 0 0];

internalField   nonuniform List<scalar> 
1024
(
0.0431951
0.0431917
0.0431889
0.0431898
0.0431962
0.0432094
0.0432308
0.0432622
0.0433043
0.0433534
0.0433985
0.0434212
0.0434117
0.043359
0.0432489
0.0430857
0.0428893
0.0426997
0.0425517
0.0424522
0.0423922
0.0423595
0.0423439
0.0423381
0.0423372
0.0423383
0.0423397
0.0423411
0.0423431
0.0423459
0.042349
0.042351
0.0432028
0.0431994
0.0431973
0.0431991
0.043206
0.0432193
0.0432407
0.0432721
0.0433143
0.0433637
0.0434091
0.043432
0.0434229
0.0433706
0.0432607
0.0430974
0.0429007
0.0427106
0.0425623
0.0424627
0.0424025
0.0423694
0.0423534
0.0423471
0.0423458
0.0423464
0.0423473
0.0423483
0.0423496
0.0423517
0.0423543
0.0423564
0.0432152
0.0432113
0.0432099
0.0432135
0.0432224
0.0432375
0.0432607
0.043294
0.0433385
0.0433902
0.0434373
0.0434611
0.0434528
0.0434009
0.0432907
0.0431265
0.0429285
0.0427367
0.0425865
0.0424854
0.0424239
0.0423898
0.0423727
0.0423653
0.042363
0.0423625
0.0423622
0.0423618
0.0423617
0.0423626
0.0423649
0.0423676
0.043228
0.0432236
0.0432235
0.0432302
0.0432434
0.0432633
0.0432915
0.04333
0.0433797
0.0434358
0.0434857
0.0435105
0.0435027
0.0434508
0.0433402
0.0431753
0.0429755
0.042781
0.0426271
0.0425228
0.0424588
0.0424224
0.0424033
0.0423941
0.04239
0.0423875
0.0423849
0.0423818
0.0423792
0.0423784
0.0423805
0.0423841
0.0432345
0.0432306
0.0432331
0.0432452
0.0432661
0.0432948
0.0433321
0.0433793
0.0434367
0.0434977
0.0435493
0.0435739
0.043565
0.0435126
0.0434027
0.0432388
0.0430389
0.0428423
0.0426841
0.0425756
0.042508
0.0424683
0.0424461
0.0424341
0.0424271
0.0424215
0.042415
0.0424076
0.0424008
0.0423971
0.0423984
0.0424027
0.043227
0.0432246
0.0432317
0.0432523
0.043285
0.0433273
0.0433781
0.043437
0.0435026
0.0435666
0.0436171
0.0436387
0.0436263
0.0435723
0.0434643
0.0433043
0.0431075
0.0429117
0.0427518
0.04264
0.0425689
0.0425254
0.0424993
0.0424832
0.0424719
0.0424612
0.0424489
0.0424348
0.0424215
0.0424131
0.0424124
0.0424169
0.0431992
0.0431993
0.0432126
0.0432447
0.0432934
0.0433539
0.0434221
0.0434944
0.0435667
0.0436309
0.0436772
0.0436933
0.0436748
0.0436176
0.0435117
0.0433568
0.0431658
0.0429743
0.042818
0.0427058
0.0426333
0.0425872
0.042557
0.0425357
0.042518
0.0424998
0.0424785
0.0424544
0.0424318
0.0424164
0.0424123
0.042416
0.0431493
0.0431522
0.0431727
0.043218
0.0432861
0.0433686
0.0434567
0.0435432
0.0436207
0.0436835
0.0437239
0.0437331
0.043707
0.0436444
0.0435387
0.0433875
0.0432015
0.0430152
0.0428653
0.042758
0.0426889
0.042643
0.0426096
0.0425823
0.0425561
0.042527
0.0424926
0.0424546
0.0424192
0.0423946
0.0423855
0.0423875
0.0430812
0.0430867
0.0431139
0.0431729
0.0432618
0.0433686
0.0434785
0.0435798
0.0436634
0.0437254
0.0437604
0.0437619
0.043727
0.043657
0.0435484
0.0433969
0.0432117
0.0430271
0.0428822
0.0427841
0.0427231
0.0426815
0.0426469
0.0426131
0.042576
0.0425321
0.04248
0.0424236
0.0423724
0.0423373
0.0423227
0.0423224
0.0430023
0.0430099
0.0430429
0.0431143
0.0432237
0.0433556
0.043489
0.0436074
0.0437004
0.0437647
0.0437952
0.0437879
0.0437428
0.0436634
0.0435488
0.0433928
0.0432027
0.0430123
0.0428675
0.0427792
0.042729
0.0426954
0.0426614
0.0426207
0.04257
0.0425071
0.0424329
0.0423551
0.0422876
0.0422429
0.0422237
0.0422212
0.0429207
0.0429299
0.0429673
0.0430494
0.043178
0.0433353
0.0434946
0.0436342
0.0437416
0.0438113
0.0438375
0.0438196
0.0437621
0.043671
0.0435474
0.0433854
0.0431858
0.0429812
0.0428283
0.0427449
0.0427065
0.0426836
0.0426504
0.0426013
0.0425343
0.042449
0.0423505
0.0422527
0.0421732
0.0421235
0.0421024
0.0420982
0.0428415
0.0428518
0.042893
0.0429848
0.0431317
0.0433155
0.0435043
0.0436705
0.0437967
0.0438729
0.0438934
0.0438629
0.0437916
0.0436881
0.0435541
0.0433829
0.0431715
0.0429537
0.0427811
0.0426798
0.0426602
0.0426475
0.0426119
0.0425522
0.0424674
0.0423601
0.0422411
0.0421345
0.0420556
0.0420095
0.0419899
0.0419852
0.0427633
0.0427749
0.0428207
0.0429233
0.0430904
0.0433038
0.0435275
0.0437253
0.0438698
0.0439503
0.0439626
0.0439193
0.0438359
0.0437224
0.0435803
0.0434023
0.0431832
0.0429501
0.0427492
0.0426126
0.0425671
0.0425564
0.0425231
0.0424592
0.0423682
0.0422587
0.0421458
0.042049
0.0419804
0.041942
0.041926
0.0419215
0.042676
0.04269
0.0427434
0.0428617
0.0430552
0.043306
0.043572
0.0438043
0.0439627
0.0440341
0.044037
0.0439852
0.0438974
0.0437829
0.0436419
0.0434682
0.0432571
0.0430252
0.0428059
0.0426214
0.0424932
0.0424329
0.0424046
0.0423576
0.0422891
0.042203
0.0421133
0.0420371
0.0419854
0.0419586
0.0419488
0.0419463
0.0425567
0.0425754
0.0426421
0.0427858
0.0430186
0.0433203
0.0436385
0.0439079
0.0440793
0.0441439
0.0441283
0.0440688
0.0439844
0.0438845
0.0437633
0.0436173
0.043449
0.0432695
0.0430968
0.0429374
0.0427924
0.0426578
0.0425318
0.0424346
0.0423802
0.0423117
0.0422358
0.0421717
0.0421328
0.0421189
0.0421195
0.0421227
0.0423533
0.0423798
0.0424656
0.0426429
0.0429247
0.0432852
0.0436583
0.0439677
0.0441669
0.0442574
0.0442681
0.0442287
0.0441572
0.0440623
0.0439585
0.0438563
0.0437584
0.0436795
0.0436298
0.0436104
0.0436131
0.0436203
0.0436059
0.043537
0.0433825
0.0431936
0.0429967
0.0428256
0.0427207
0.0426873
0.0426865
0.0426933
0.0420087
0.0420436
0.0421461
0.0423503
0.0426715
0.0430809
0.0435054
0.0438632
0.0441095
0.0442481
0.0443062
0.0443115
0.0442813
0.0442234
0.0441418
0.044046
0.0439729
0.0439334
0.0439318
0.043967
0.0440346
0.0441252
0.0442252
0.0443186
0.04439
0.0444261
0.0444203
0.0443712
0.0442794
0.0441723
0.0441015
0.0440756
0.041615
0.0416563
0.0417669
0.041981
0.0423187
0.0427579
0.0432261
0.0436364
0.0439375
0.0441273
0.0442298
0.0442719
0.0442719
0.0442396
0.04418
0.0440968
0.0440135
0.0439553
0.0439269
0.0439228
0.0439397
0.0439754
0.0440262
0.0440865
0.0441501
0.0442122
0.0442716
0.0443295
0.0443859
0.0444351
0.0444681
0.044481
0.0412931
0.0413392
0.041451
0.0416555
0.0419743
0.0424031
0.0429015
0.0433583
0.0437154
0.0439591
0.0441067
0.0441824
0.0442067
0.0441927
0.0441478
0.0440773
0.0439753
0.0438975
0.0438512
0.0438201
0.043795
0.043775
0.0437629
0.0437625
0.0437763
0.0438048
0.0438483
0.0439068
0.0439803
0.0440627
0.0441353
0.0441752
0.0410779
0.0411273
0.0412377
0.0414287
0.041719
0.0421104
0.0425744
0.0430376
0.043436
0.0437378
0.0439336
0.0440393
0.0440788
0.0440682
0.0440192
0.0439418
0.0438189
0.0437343
0.0436954
0.0436744
0.0436504
0.0436162
0.043574
0.0435315
0.0435003
0.043489
0.0435014
0.0435387
0.0436008
0.0436832
0.0437669
0.0438195
0.0409591
0.0410092
0.0411153
0.0412912
0.0415507
0.0418977
0.0423127
0.0427456
0.0431406
0.0434579
0.0436796
0.0438055
0.043849
0.0438238
0.0437435
0.043626
0.0435109
0.0434447
0.0434308
0.0434451
0.0434568
0.0434524
0.0434285
0.0433861
0.0433386
0.0433033
0.0432907
0.0433065
0.0433516
0.0434234
0.0435063
0.0435645
0.0409191
0.0409643
0.0410603
0.0412183
0.041448
0.0417523
0.0421158
0.0425017
0.0428629
0.0431605
0.0433716
0.0434888
0.0435164
0.0434648
0.0433485
0.0431955
0.0430848
0.043048
0.0430698
0.0431267
0.0431928
0.0432494
0.0432835
0.0432857
0.0432577
0.0432269
0.0432072
0.0432112
0.0432429
0.0433019
0.0433777
0.0434368
0.0409491
0.040982
0.0410577
0.0411903
0.0413899
0.0416569
0.0419752
0.0423117
0.042625
0.0428773
0.0430471
0.0431265
0.0431179
0.0430314
0.0428852
0.0427153
0.0426124
0.0426044
0.0426642
0.0427664
0.0428871
0.0430065
0.0431083
0.0431813
0.0432207
0.043232
0.0432275
0.0432355
0.0432634
0.0433129
0.0433791
0.0434358
0.0410453
0.0410595
0.0411035
0.0412
0.041366
0.0416
0.0418815
0.0421737
0.0424337
0.0426265
0.0427349
0.0427561
0.0426972
0.0425721
0.0424037
0.042233
0.0421461
0.0421663
0.0422605
0.0424036
0.0425736
0.0427518
0.0429218
0.0430708
0.0431888
0.0432724
0.0433245
0.0433569
0.0433956
0.043444
0.0435015
0.0435538
0.0411893
0.0411833
0.0411902
0.0412444
0.0413732
0.0415769
0.0418284
0.0420807
0.0422861
0.0424126
0.0424496
0.0424029
0.0422884
0.0421261
0.0419435
0.0417831
0.0417188
0.0417667
0.0418909
0.0420676
0.0422778
0.0425058
0.0427369
0.0429586
0.0431582
0.0433266
0.0434568
0.0435494
0.0436202
0.0436829
0.0437378
0.0437864
0.0413427
0.0413208
0.0412978
0.0413151
0.0414103
0.0415875
0.0418121
0.0420254
0.0421747
0.0422318
0.0421951
0.0420809
0.0419138
0.0417206
0.0415321
0.0413893
0.0413505
0.0414249
0.0415739
0.0417761
0.0420161
0.0422823
0.0425632
0.0428485
0.0431254
0.0433817
0.0436032
0.0437809
0.0439131
0.0440162
0.0440856
0.0441365
0.0414669
0.0414347
0.0413981
0.041397
0.0414722
0.0416291
0.0418273
0.0419991
0.0420904
0.0420791
0.0419732
0.0417992
0.041589
0.0413743
0.0411877
0.0410664
0.0410547
0.0411508
0.041318
0.0415375
0.0417973
0.0420898
0.0424073
0.0427432
0.0430866
0.0434257
0.0437435
0.044023
0.0442514
0.0444274
0.0445443
0.0446145
0.0415437
0.0415079
0.0414743
0.0414815
0.041552
0.0416951
0.0418674
0.0419948
0.0420277
0.0419534
0.0417885
0.0415666
0.0413252
0.041099
0.0409195
0.0408191
0.040831
0.0409433
0.0411223
0.041352
0.0416232
0.0419316
0.0422732
0.0426448
0.0430397
0.0434491
0.0438587
0.0442502
0.0446028
0.0448971
0.045108
0.0452307
0.0415487
0.0415257
0.0415199
0.0415604
0.0416478
0.0417813
0.0419263
0.0420084
0.0419871
0.0418589
0.0416477
0.041391
0.0411297
0.0408986
0.0407271
0.0406431
0.0406716
0.0407947
0.0409804
0.0412147
0.0414911
0.0418075
0.0421626
0.0425559
0.0429851
0.0434468
0.0439339
0.0444358
0.0449348
0.0454002
0.0457688
0.04602
0.0414219
0.0414634
0.041536
0.0416366
0.0417545
0.0418877
0.0420039
0.0420426
0.0419741
0.0418031
0.041557
0.0412761
0.0410017
0.0407678
0.0406018
0.0405279
0.0405662
0.0406952
0.0408836
0.0411192
0.0413966
0.0417154
0.0420758
0.0424792
0.0429267
0.0434202
0.0439618
0.0445558
0.0452046
0.0458927
0.0465465
0.047125
0.0409597
0.041325
0.0415598
0.0417262
0.0418742
0.042008
0.0420965
0.0420977
0.0419913
0.0417869
0.0415147
0.0412158
0.0409314
0.0406945
0.0405305
0.0404613
0.0405041
0.0406355
0.0408243
0.041059
0.0413352
0.0416528
0.042013
0.0424182
0.0428711
0.0433772
0.0439465
0.0445987
0.0453678
0.0463008
0.0474384
0.048731
0.0399501
0.0411711
0.0416405
0.0418219
0.0419743
0.0421046
0.0421747
0.0421512
0.0420203
0.0417947
0.0415063
0.0411963
0.0409051
0.0406651
0.0405007
0.0404327
0.0404767
0.0406084
0.0407966
0.04103
0.0413044
0.0416198
0.0419777
0.0423807
0.0428318
0.0433383
0.0439146
0.0445919
0.0454338
0.0465609
0.0482032
0.0505065
)
;

boundaryField
{
    movingWall
    {
        type            fixedFluxPressure;
        gradient        uniform 0;
        value           nonuniform List<scalar> 
32
(
0.0399501
0.0411711
0.0416405
0.0418219
0.0419743
0.0421046
0.0421747
0.0421512
0.0420203
0.0417947
0.0415063
0.0411963
0.0409051
0.0406651
0.0405007
0.0404327
0.0404767
0.0406084
0.0407966
0.04103
0.0413044
0.0416198
0.0419777
0.0423807
0.0428318
0.0433383
0.0439146
0.0445919
0.0454338
0.0465609
0.0482032
0.0505065
)
;
    }
    fixedWalls
    {
        type            fixedFluxPressure;
        gradient        uniform 0;
        value           nonuniform List<scalar> 
64
(
0.0431951
0.0432028
0.0432152
0.043228
0.0432345
0.043227
0.0431992
0.0431493
0.0430812
0.0430023
0.0429207
0.0428415
0.0427633
0.042676
0.0425567
0.0423533
0.0420087
0.041615
0.0412931
0.0410779
0.0409591
0.0409191
0.0409491
0.0410453
0.0411893
0.0413427
0.0414669
0.0415437
0.0415487
0.0414219
0.0409597
0.0399501
0.042351
0.0423564
0.0423676
0.0423841
0.0424027
0.0424169
0.042416
0.0423875
0.0423224
0.0422212
0.0420982
0.0419852
0.0419215
0.0419463
0.0421227
0.0426933
0.0440756
0.044481
0.0441752
0.0438195
0.0435645
0.0434368
0.0434358
0.0435538
0.0437864
0.0441365
0.0446145
0.0452307
0.04602
0.047125
0.048731
0.0505065
)
;
    }
    floor
    {
        type            fixedFluxPressure;
        gradient        uniform 0;
        value           nonuniform List<scalar> 
32
(
0.0431951
0.0431917
0.0431889
0.0431898
0.0431962
0.0432094
0.0432308
0.0432622
0.0433043
0.0433534
0.0433985
0.0434212
0.0434117
0.043359
0.0432489
0.0430857
0.0428893
0.0426997
0.0425517
0.0424522
0.0423922
0.0423595
0.0423439
0.0423381
0.0423372
0.0423383
0.0423397
0.0423411
0.0423431
0.0423459
0.042349
0.042351
)
;
    }
    frontAndBack
    {
        type            empty;
    }
}


// ************************************************************************* //
