/*--------------------------------*- C++ -*----------------------------------*\
| =========                 |                                                 |
| \\      /  F ield         | OpenFOAM: The Open Source CFD Toolbox           |
|  \\    /   O peration     | Version:  2212                                  |
|   \\  /    A nd           | Website:  www.openfoam.com                      |
|    \\/     M anipulation  |                                                 |
\*---------------------------------------------------------------------------*/
FoamFile
{
    version     2.0;
    format      ascii;
    arch        "LSB;label=64;scalar=64";
    class       volScalarField;
    location    "820";
    object      Saa;
}
// * * * * * * * * * * * * * * * * * * * * * * * * * * * * * * * * * * * * * //

dimensions      [1 -3 0 0 0 0 0];

internalField   nonuniform List<scalar> 
1024
(
0.00546303
0.00546307
0.00546317
0.00546336
0.00546365
0.00546405
0.00546457
0.00546517
0.00546583
0.0054665
0.00546713
0.00546768
0.00546808
0.00546829
0.00546824
0.00546788
0.00546725
0.00546648
0.0054657
0.00546493
0.00546417
0.00546344
0.00546273
0.00546206
0.00546146
0.00546095
0.00546053
0.00546022
0.00546001
0.00545987
0.0054598
0.00545976
0.00546304
0.00546308
0.00546319
0.00546338
0.00546368
0.00546409
0.00546461
0.00546523
0.00546589
0.00546656
0.0054672
0.00546774
0.00546815
0.00546835
0.00546829
0.00546793
0.00546729
0.00546653
0.00546574
0.00546497
0.00546422
0.00546349
0.00546278
0.00546211
0.0054615
0.00546098
0.00546055
0.00546024
0.00546002
0.00545988
0.0054598
0.00545977
0.00546306
0.0054631
0.00546322
0.00546342
0.00546373
0.00546416
0.0054647
0.00546534
0.00546602
0.0054667
0.00546735
0.0054679
0.00546831
0.0054685
0.00546843
0.00546805
0.0054674
0.00546662
0.00546583
0.00546506
0.00546431
0.00546358
0.00546287
0.00546219
0.00546158
0.00546104
0.0054606
0.00546027
0.00546004
0.0054599
0.00545982
0.00545979
0.0054631
0.00546314
0.00546326
0.00546348
0.00546381
0.00546427
0.00546484
0.0054655
0.00546621
0.00546693
0.00546761
0.00546818
0.0054686
0.00546878
0.00546867
0.00546825
0.00546755
0.00546675
0.00546595
0.00546518
0.00546443
0.0054637
0.00546299
0.00546231
0.00546169
0.00546113
0.00546068
0.00546033
0.00546009
0.00545993
0.00545985
0.00545981
0.00546315
0.0054632
0.00546333
0.00546356
0.00546391
0.0054644
0.00546501
0.00546572
0.00546648
0.00546726
0.005468
0.00546862
0.00546905
0.00546921
0.00546903
0.00546853
0.00546777
0.00546692
0.00546609
0.0054653
0.00546456
0.00546383
0.00546313
0.00546245
0.00546182
0.00546125
0.00546077
0.0054604
0.00546014
0.00545997
0.00545988
0.00545985
0.00546322
0.00546327
0.00546341
0.00546365
0.00546403
0.00546456
0.00546522
0.00546599
0.00546684
0.00546772
0.00546855
0.00546924
0.0054697
0.00546981
0.00546954
0.00546892
0.00546803
0.00546709
0.00546622
0.00546541
0.00546466
0.00546395
0.00546325
0.00546258
0.00546195
0.00546137
0.00546087
0.00546048
0.0054602
0.00546003
0.00545993
0.00545989
0.0054633
0.00546336
0.0054635
0.00546376
0.00546416
0.00546473
0.00546546
0.00546632
0.00546729
0.0054683
0.00546927
0.00547007
0.00547055
0.00547059
0.00547019
0.00546939
0.00546833
0.00546726
0.00546631
0.00546547
0.00546471
0.005464
0.00546333
0.00546267
0.00546204
0.00546146
0.00546095
0.00546055
0.00546026
0.00546007
0.00545997
0.00545993
0.0054634
0.00546346
0.0054636
0.00546387
0.0054643
0.00546492
0.00546573
0.00546671
0.00546784
0.00546903
0.00547017
0.00547108
0.00547158
0.00547153
0.00547094
0.00546991
0.00546863
0.00546738
0.00546632
0.00546543
0.00546465
0.00546396
0.0054633
0.00546267
0.00546206
0.00546149
0.00546099
0.00546059
0.0054603
0.00546011
0.00546001
0.00545996
0.00546352
0.00546357
0.00546372
0.005464
0.00546446
0.00546513
0.00546604
0.00546717
0.0054685
0.00546992
0.00547126
0.00547228
0.00547275
0.00547256
0.00547175
0.00547046
0.0054689
0.00546743
0.00546622
0.00546525
0.00546446
0.00546378
0.00546315
0.00546255
0.00546198
0.00546144
0.00546097
0.00546058
0.0054603
0.00546012
0.00546002
0.00545997
0.00546366
0.00546372
0.00546387
0.00546416
0.00546466
0.00546539
0.00546642
0.00546773
0.00546929
0.00547097
0.00547252
0.00547363
0.00547404
0.00547367
0.00547261
0.00547103
0.00546917
0.00546741
0.005466
0.00546493
0.0054641
0.00546343
0.00546284
0.00546229
0.00546177
0.00546128
0.00546086
0.00546051
0.00546025
0.00546009
0.00545999
0.00545995
0.00546384
0.0054639
0.00546406
0.00546437
0.00546491
0.00546573
0.0054669
0.00546843
0.00547027
0.00547223
0.00547398
0.00547513
0.00547543
0.00547485
0.00547356
0.00547172
0.00546955
0.00546744
0.00546574
0.00546449
0.00546359
0.00546291
0.00546235
0.00546187
0.00546142
0.00546101
0.00546065
0.00546036
0.00546014
0.00545999
0.0054599
0.00545987
0.00546409
0.00546415
0.00546432
0.00546467
0.00546526
0.0054662
0.00546755
0.00546935
0.0054715
0.00547374
0.00547566
0.00547681
0.00547697
0.00547622
0.00547479
0.00547281
0.00547036
0.00546785
0.00546572
0.00546414
0.00546304
0.00546228
0.00546173
0.0054613
0.00546094
0.00546062
0.00546034
0.00546011
0.00545994
0.00545982
0.00545974
0.00545971
0.00546444
0.00546451
0.0054647
0.0054651
0.00546578
0.00546687
0.00546846
0.00547057
0.00547306
0.00547559
0.00547762
0.00547873
0.00547881
0.00547804
0.00547668
0.00547473
0.00547216
0.00546926
0.00546658
0.00546442
0.00546285
0.00546181
0.00546113
0.00546069
0.00546037
0.00546013
0.00545993
0.00545977
0.00545964
0.00545956
0.0054595
0.00545948
0.00546496
0.00546504
0.00546526
0.00546572
0.00546654
0.00546784
0.00546972
0.0054722
0.00547505
0.00547782
0.00547994
0.00548105
0.00548119
0.00548066
0.00547968
0.00547812
0.00547576
0.00547275
0.0054696
0.0054667
0.00546432
0.00546252
0.00546129
0.00546049
0.00546
0.00545971
0.00545954
0.00545946
0.00545943
0.00545944
0.00545947
0.00545948
0.00546569
0.00546579
0.00546606
0.00546662
0.00546762
0.0054692
0.00547146
0.00547433
0.00547753
0.00548049
0.00548269
0.0054839
0.00548435
0.00548438
0.00548411
0.00548337
0.00548186
0.00547952
0.00547665
0.00547356
0.00547058
0.00546791
0.00546569
0.00546395
0.00546271
0.0054619
0.00546146
0.00546132
0.00546137
0.00546152
0.00546167
0.00546176
0.0054667
0.00546681
0.00546715
0.00546783
0.00546904
0.00547091
0.00547352
0.00547673
0.00548017
0.00548328
0.00548561
0.00548709
0.00548799
0.00548863
0.00548913
0.00548942
0.00548937
0.00548878
0.00548763
0.00548603
0.00548409
0.00548199
0.00547985
0.00547782
0.005476
0.00547443
0.0054732
0.00547234
0.00547183
0.0054716
0.00547155
0.00547156
0.00546774
0.00546788
0.00546825
0.005469
0.0054703
0.00547229
0.00547501
0.00547831
0.0054818
0.00548499
0.00548746
0.00548911
0.00549016
0.0054909
0.00549147
0.005492
0.00549262
0.00549334
0.005494
0.00549448
0.0054947
0.00549462
0.00549425
0.00549359
0.00549268
0.00549161
0.00549047
0.00548938
0.00548846
0.00548779
0.0054874
0.00548725
0.00546844
0.00546858
0.00546896
0.0054697
0.00547096
0.00547287
0.00547547
0.00547862
0.00548199
0.00548512
0.00548759
0.00548922
0.00549012
0.00549049
0.00549051
0.00549038
0.00549045
0.00549092
0.00549172
0.00549266
0.00549365
0.00549461
0.00549545
0.00549613
0.00549659
0.00549681
0.00549679
0.00549658
0.00549625
0.00549592
0.00549568
0.00549556
0.00546871
0.00546886
0.00546922
0.00546991
0.00547105
0.00547276
0.00547509
0.00547796
0.00548108
0.00548405
0.00548646
0.00548807
0.00548885
0.00548895
0.00548855
0.00548793
0.00548757
0.00548781
0.00548853
0.00548955
0.00549071
0.00549192
0.00549311
0.00549421
0.00549516
0.00549591
0.00549647
0.00549684
0.00549704
0.00549712
0.00549713
0.00549712
0.00546859
0.00546874
0.00546909
0.00546972
0.00547072
0.00547218
0.00547418
0.00547666
0.00547943
0.00548214
0.00548441
0.00548597
0.0054867
0.00548667
0.00548607
0.00548521
0.00548468
0.00548488
0.00548567
0.00548683
0.00548822
0.00548974
0.0054913
0.0054928
0.00549414
0.00549524
0.00549606
0.00549663
0.00549698
0.00549718
0.00549727
0.0054973
0.00546814
0.00546829
0.00546863
0.00546921
0.00547009
0.00547133
0.00547299
0.00547505
0.0054774
0.00547975
0.00548178
0.00548322
0.0054839
0.00548385
0.00548322
0.00548235
0.00548188
0.00548221
0.00548316
0.0054845
0.00548609
0.00548782
0.00548963
0.00549144
0.00549312
0.00549457
0.0054957
0.0054965
0.005497
0.00549728
0.0054974
0.00549745
0.00546748
0.00546762
0.00546795
0.00546848
0.00546925
0.00547031
0.00547168
0.00547337
0.00547528
0.00547722
0.00547893
0.00548017
0.00548079
0.00548078
0.00548027
0.00547961
0.00547941
0.00548001
0.00548119
0.00548275
0.00548452
0.00548643
0.00548841
0.0054904
0.00549232
0.00549403
0.00549542
0.00549644
0.00549709
0.00549745
0.00549761
0.00549766
0.00546685
0.00546697
0.00546724
0.00546769
0.00546835
0.00546924
0.00547038
0.00547174
0.00547326
0.0054748
0.00547617
0.00547719
0.00547775
0.00547785
0.00547763
0.00547738
0.00547762
0.00547856
0.00548
0.00548174
0.00548366
0.00548567
0.00548773
0.0054898
0.00549182
0.00549368
0.00549525
0.00549644
0.00549723
0.00549767
0.00549787
0.00549793
0.00546661
0.00546667
0.00546682
0.00546711
0.00546759
0.00546828
0.00546918
0.00547026
0.00547145
0.00547265
0.00547373
0.0054746
0.00547519
0.00547553
0.00547574
0.00547605
0.00547682
0.00547811
0.00547976
0.00548161
0.00548357
0.00548559
0.00548763
0.00548967
0.00549168
0.00549356
0.00549521
0.00549651
0.0054974
0.00549792
0.00549816
0.00549822
0.00546708
0.00546705
0.00546702
0.00546707
0.00546727
0.00546769
0.00546831
0.00546911
0.00547004
0.005471
0.00547194
0.0054728
0.00547358
0.0054743
0.00547503
0.00547594
0.0054772
0.00547877
0.00548052
0.00548237
0.00548426
0.00548617
0.00548808
0.00548999
0.00549188
0.00549369
0.00549532
0.00549665
0.0054976
0.00549818
0.00549844
0.00549852
0.00546845
0.00546832
0.0054681
0.00546787
0.00546774
0.00546781
0.00546814
0.0054687
0.00546944
0.00547032
0.00547129
0.00547232
0.00547341
0.00547456
0.00547579
0.00547718
0.00547877
0.00548047
0.00548219
0.00548391
0.00548563
0.00548734
0.00548904
0.00549073
0.00549241
0.00549405
0.00549557
0.00549686
0.00549782
0.00549843
0.00549872
0.0054988
0.00547076
0.00547055
0.00547017
0.00546973
0.00546934
0.00546915
0.00546924
0.00546964
0.00547032
0.00547123
0.00547234
0.00547361
0.00547499
0.00547646
0.00547801
0.00547965
0.00548135
0.00548299
0.00548455
0.00548606
0.00548754
0.00548898
0.0054904
0.00549182
0.00549323
0.00549463
0.00549596
0.00549714
0.00549806
0.00549867
0.00549898
0.00549907
0.00547397
0.00547371
0.00547331
0.00547286
0.00547243
0.00547215
0.00547215
0.0054725
0.00547317
0.00547414
0.00547535
0.00547674
0.00547824
0.0054798
0.0054814
0.00548303
0.00548461
0.00548605
0.00548736
0.0054886
0.00548978
0.00549093
0.00549205
0.00549317
0.00549428
0.00549539
0.00549649
0.00549749
0.00549832
0.0054989
0.00549921
0.0054993
0.00547801
0.00547778
0.00547754
0.00547733
0.00547711
0.00547696
0.00547701
0.00547734
0.00547798
0.0054789
0.00548004
0.00548133
0.0054827
0.00548411
0.00548552
0.00548691
0.00548821
0.00548936
0.00549037
0.00549131
0.00549219
0.00549304
0.00549387
0.00549468
0.00549549
0.00549632
0.00549714
0.00549793
0.00549862
0.00549912
0.00549941
0.00549951
0.00548293
0.00548283
0.00548292
0.00548306
0.00548314
0.00548318
0.00548331
0.00548361
0.00548412
0.00548484
0.00548573
0.00548673
0.00548779
0.00548885
0.0054899
0.00549092
0.00549186
0.00549267
0.00549337
0.00549401
0.00549461
0.00549517
0.00549572
0.00549626
0.0054968
0.00549735
0.00549791
0.00549846
0.00549896
0.00549935
0.00549959
0.00549969
0.00548888
0.00548901
0.00548937
0.00548969
0.00548991
0.00549005
0.00549019
0.00549039
0.0054907
0.00549114
0.00549168
0.00549229
0.00549292
0.00549356
0.00549419
0.00549479
0.00549534
0.00549581
0.00549621
0.00549657
0.00549691
0.00549722
0.00549753
0.00549783
0.00549813
0.00549843
0.00549874
0.00549905
0.00549935
0.0054996
0.00549976
0.00549983
0.00549611
0.00549622
0.00549642
0.00549658
0.00549669
0.00549677
0.00549682
0.00549689
0.005497
0.00549714
0.00549732
0.00549751
0.00549772
0.00549793
0.00549814
0.00549833
0.00549851
0.00549866
0.00549879
0.0054989
0.00549901
0.00549911
0.00549921
0.0054993
0.00549939
0.00549949
0.00549958
0.00549968
0.00549978
0.00549986
0.00549992
0.00549995
)
;

boundaryField
{
    movingWall
    {
        type            fixedValue;
        value           uniform 0.0055;
    }
    fixedWalls
    {
        type            zeroGradient;
    }
    floor
    {
        type            zeroGradient;
    }
    frontAndBack
    {
        type            empty;
    }
}


// ************************************************************************* //
