/*--------------------------------*- C++ -*----------------------------------*\
| =========                 |                                                 |
| \\      /  F ield         | OpenFOAM: The Open Source CFD Toolbox           |
|  \\    /   O peration     | Version:  2212                                  |
|   \\  /    A nd           | Website:  www.openfoam.com                      |
|    \\/     M anipulation  |                                                 |
\*---------------------------------------------------------------------------*/
FoamFile
{
    version     2.0;
    format      ascii;
    arch        "LSB;label=64;scalar=64";
    class       volScalarField;
    location    "820";
    object      Sco2;
}
// * * * * * * * * * * * * * * * * * * * * * * * * * * * * * * * * * * * * * //

dimensions      [1 -3 0 0 0 0 0];

internalField   nonuniform List<scalar> 
1024
(
0.00545429
0.00545749
0.0054653
0.00547933
0.00550106
0.00553142
0.00557026
0.00561611
0.00566635
0.00571783
0.00576703
0.00581049
0.00584434
0.00586378
0.00586385
0.00584133
0.00579715
0.00574176
0.00568429
0.00562712
0.00557122
0.00551705
0.0054652
0.00541678
0.0053734
0.00533655
0.00530713
0.00528517
0.00526996
0.00526034
0.00525504
0.00525288
0.00545501
0.00545829
0.00546633
0.00548075
0.00550306
0.00553412
0.00557367
0.00562015
0.00567088
0.0057227
0.00577215
0.00581573
0.00584957
0.00586879
0.0058685
0.00584561
0.00580115
0.00574559
0.00568801
0.00563078
0.00557485
0.00552061
0.00546862
0.00541993
0.00537614
0.00533877
0.00530882
0.00528639
0.00527082
0.00526098
0.00525556
0.00525335
0.0054567
0.00546014
0.00546858
0.00548374
0.00550713
0.00553955
0.00558057
0.00562844
0.00568045
0.00573344
0.00578393
0.00582829
0.0058624
0.00588112
0.00587968
0.00585544
0.0058098
0.00575342
0.00569538
0.00563794
0.00558193
0.00552763
0.00547545
0.00542631
0.00538177
0.00534342
0.00531241
0.00528904
0.00527275
0.00526243
0.00525676
0.00525444
0.00545954
0.00546318
0.00547215
0.00548829
0.00551319
0.00554754
0.00559078
0.00564104
0.00569554
0.00575114
0.0058042
0.00585062
0.00588563
0.00590349
0.00589961
0.00587225
0.0058237
0.0057652
0.00570592
0.00564789
0.0055917
0.00553738
0.00548507
0.00543546
0.00539001
0.00535035
0.00531789
0.00529316
0.00527581
0.00526479
0.00525874
0.00525628
0.00546358
0.00546744
0.00547699
0.00549425
0.00552092
0.00555771
0.00560399
0.00565789
0.00571663
0.00577702
0.00583495
0.00588533
0.00592218
0.00593867
0.0059305
0.00589742
0.00584325
0.00578053
0.00571865
0.00565934
0.00560271
0.00554839
0.00549611
0.00544621
0.00539992
0.0053589
0.00532479
0.00529849
0.00527987
0.005268
0.00526148
0.00525884
0.0054688
0.00547283
0.00548294
0.00550134
0.00552992
0.00556958
0.00561983
0.00567895
0.00574425
0.00581231
0.00587805
0.00593472
0.00597432
0.00598864
0.00597388
0.00593173
0.0058684
0.00579852
0.00573212
0.00567043
0.0056129
0.00555852
0.00550648
0.00545662
0.00540984
0.00536773
0.00533216
0.00530435
0.00528448
0.00527176
0.00526476
0.00526194
0.00547512
0.00547929
0.00548986
0.00550931
0.00553987
0.00558281
0.00563807
0.0057043
0.00577895
0.00585807
0.00593492
0.00600014
0.00604298
0.00605381
0.00602975
0.00597482
0.00589824
0.00581767
0.00574427
0.00567878
0.00561969
0.00556512
0.00551353
0.00546417
0.00541751
0.00537496
0.0053385
0.00530965
0.00528887
0.00527549
0.00526812
0.00526515
0.00548254
0.00548681
0.00549774
0.00551815
0.00555073
0.00559739
0.00565883
0.00573432
0.00582142
0.00591516
0.00600626
0.00608164
0.00612723
0.00613248
0.00609616
0.00602484
0.00593092
0.00583577
0.00575254
0.00568157
0.00562013
0.00556519
0.00551434
0.00546608
0.00542037
0.00537836
0.00534202
0.00531302
0.00529198
0.00527837
0.00527085
0.00526781
0.00549128
0.00549562
0.00550687
0.00552822
0.00556296
0.00561394
0.0056829
0.00576999
0.00587273
0.00598446
0.00609222
0.00617813
0.00622467
0.00622148
0.00617004
0.00607941
0.00596455
0.00585072
0.00575437
0.00567595
0.00561128
0.00555581
0.00550605
0.00545967
0.00541602
0.00537585
0.00534097
0.00531301
0.00529266
0.00527943
0.00527205
0.00526904
0.00550192
0.00550634
0.00551797
0.00554041
0.00557772
0.00563391
0.00571206
0.00581332
0.0059349
0.00606748
0.00619311
0.00628831
0.00633275
0.00631807
0.00624971
0.00613853
0.00600005
0.005863
0.00574906
0.00566022
0.00559092
0.00553458
0.00548635
0.00544283
0.00540256
0.00536579
0.00533395
0.00530842
0.00528978
0.00527757
0.00527065
0.00526774
0.00551562
0.00552019
0.00553239
0.00555636
0.00559707
0.00565987
0.00574943
0.00586788
0.0060115
0.00616706
0.00631025
0.00641196
0.0064509
0.00642319
0.00633916
0.00620944
0.00604648
0.00588092
0.00574215
0.00563687
0.00555955
0.00550096
0.00545429
0.00541454
0.00537908
0.00534733
0.00532008
0.00529828
0.00528227
0.00527159
0.00526536
0.00526264
0.00553436
0.0055392
0.00555236
0.00557867
0.00562419
0.00569583
0.00579988
0.00593913
0.00610796
0.00628759
0.00644642
0.0065511
0.00658283
0.00654501
0.00645242
0.00631201
0.00612808
0.00592947
0.00575501
0.00562096
0.00552614
0.00545994
0.00541236
0.00537598
0.00534606
0.00532053
0.00529905
0.00528186
0.00526903
0.00526022
0.00525488
0.00525247
0.00556115
0.00556646
0.00558121
0.00561114
0.00566369
0.00574741
0.00587004
0.00603426
0.00623103
0.00643445
0.00660582
0.00671109
0.00673892
0.00670193
0.0066166
0.00648189
0.0062893
0.00606048
0.00584088
0.00565839
0.00552353
0.00543227
0.0053728
0.00533383
0.00530693
0.00528684
0.00527106
0.00525871
0.00524957
0.00524342
0.00523987
0.00523836
0.00559999
0.00560608
0.00562332
0.00565874
0.00572143
0.00582163
0.0059679
0.0061613
0.00638735
0.00661246
0.00679343
0.0069011
0.00693647
0.00692066
0.00686778
0.00676705
0.00659639
0.0063623
0.00610636
0.0058645
0.00566106
0.00550627
0.00539898
0.00532898
0.00528619
0.00526104
0.00524724
0.00524097
0.00523985
0.0052418
0.00524474
0.00524679
0.00565548
0.00566278
0.00568373
0.00572715
0.00580408
0.00592618
0.00610158
0.00632729
0.00658133
0.00682352
0.00701206
0.0071291
0.00718912
0.00721761
0.00722453
0.00719612
0.00710495
0.00693679
0.00671192
0.00646012
0.00620944
0.0059817
0.00579015
0.00563901
0.0055316
0.00546119
0.00542323
0.00541108
0.0054162
0.00542931
0.00544242
0.0054502
0.00573141
0.00574039
0.0057661
0.00581913
0.00591208
0.00605695
0.00625949
0.00651128
0.00678441
0.00703748
0.00723524
0.00736997
0.00746223
0.00753757
0.00760713
0.00766913
0.00771045
0.00770673
0.0076466
0.0075361
0.00738753
0.00721593
0.00703566
0.00686004
0.00670053
0.00656236
0.00645276
0.00637547
0.00632941
0.0063082
0.00630259
0.00630331
0.00580932
0.0058196
0.00584828
0.00590632
0.00600641
0.00615969
0.00636975
0.00662586
0.00690007
0.00715366
0.00735447
0.00749454
0.00759006
0.00766386
0.00773229
0.00781077
0.00791512
0.00803896
0.00815738
0.00825339
0.0083172
0.00834447
0.00833458
0.00828981
0.00821538
0.0081204
0.00801547
0.00791283
0.00782475
0.00776039
0.00772264
0.0077076
0.00586009
0.00587101
0.00590001
0.00595689
0.00605323
0.00619919
0.0063979
0.0066395
0.00689888
0.00714081
0.00733334
0.00746234
0.00753445
0.00756661
0.00757647
0.0075868
0.00763324
0.00773414
0.00787298
0.00802988
0.00818877
0.00833733
0.00846577
0.00856645
0.00863431
0.0086676
0.00866892
0.0086454
0.00860824
0.00857035
0.00854223
0.0085286
0.0058779
0.00588911
0.00591711
0.0059696
0.00605618
0.00618594
0.0063627
0.00657955
0.00681589
0.00704051
0.00722205
0.00734153
0.00739738
0.00740069
0.00736895
0.00732855
0.00732688
0.00739429
0.00751697
0.00767644
0.00785665
0.00804404
0.00822582
0.00839018
0.0085278
0.00863296
0.00870449
0.00874541
0.00876218
0.00876358
0.00875872
0.00875459
0.0058663
0.00587779
0.00590466
0.00595224
0.00602759
0.00613811
0.00628817
0.00647419
0.00668106
0.00688279
0.00705026
0.00716203
0.00721049
0.00720153
0.00715132
0.00708869
0.00706735
0.00712175
0.00723804
0.00739933
0.00759215
0.00780545
0.0080266
0.00824013
0.00843033
0.00858495
0.00869828
0.0087718
0.00881249
0.00883012
0.00883473
0.00883452
0.00583059
0.00584222
0.00586817
0.00591177
0.00597743
0.00607039
0.00619447
0.00634832
0.00652187
0.00669502
0.00684294
0.00694453
0.00698897
0.00697823
0.00692671
0.00686462
0.00684795
0.00690886
0.0070315
0.00719862
0.00739792
0.00762138
0.00786058
0.00810311
0.00833227
0.00853069
0.00868531
0.00879188
0.00885508
0.00888551
0.00889581
0.00889719
0.00578133
0.00579215
0.00581613
0.00585563
0.00591327
0.00599197
0.00609408
0.00621884
0.00635962
0.00650159
0.00662534
0.00671285
0.00675352
0.00674789
0.00670928
0.00666766
0.0066758
0.00675871
0.00689806
0.00707675
0.00728343
0.00751192
0.00775725
0.00801151
0.00826124
0.00848849
0.00867532
0.00881125
0.00889636
0.00893988
0.00895589
0.00895858
0.00574037
0.00574817
0.00576648
0.00579823
0.00584599
0.00591142
0.00599502
0.00609521
0.00620688
0.00631915
0.00641817
0.00649093
0.0065302
0.00653787
0.0065269
0.00652456
0.00657368
0.00668792
0.00684774
0.00703836
0.00725032
0.00747905
0.00772191
0.00797479
0.00822857
0.00846825
0.00867495
0.00883325
0.00893752
0.00899366
0.00901556
0.00901962
0.00573927
0.00574115
0.00574795
0.00576437
0.00579514
0.00584288
0.00590728
0.00598539
0.00607233
0.00616
0.00623979
0.00630461
0.00635192
0.00638574
0.00641772
0.00646926
0.00656802
0.00671499
0.006892
0.00708887
0.00729928
0.00752067
0.00775249
0.00799349
0.00823825
0.00847562
0.00868861
0.00885987
0.00897862
0.00904591
0.00907364
0.00907919
0.00580888
0.00580233
0.00579205
0.00578464
0.00578856
0.00581007
0.00585044
0.00590663
0.00597394
0.00604654
0.0061201
0.00619218
0.00626329
0.00633743
0.00642249
0.0065318
0.00667688
0.0068489
0.00703382
0.00722735
0.00742694
0.00763218
0.00784411
0.00806356
0.00828836
0.00851137
0.00871849
0.00889255
0.00901964
0.00909568
0.00912888
0.00913606
0.00596897
0.00595288
0.00592338
0.0058885
0.00586018
0.00584988
0.00586335
0.00589988
0.00595597
0.00602735
0.00611159
0.00620744
0.00631476
0.00643458
0.00656958
0.00672545
0.00690131
0.00708352
0.00726379
0.00744335
0.00762302
0.00780421
0.00798899
0.00817937
0.00837558
0.00857422
0.00876496
0.00893234
0.00906088
0.00914232
0.00918023
0.0091892
0.00622556
0.00620091
0.00615667
0.00610192
0.00604923
0.00601368
0.00600689
0.00603211
0.00608756
0.00616938
0.00627424
0.00639881
0.00653977
0.00669426
0.00686062
0.00703962
0.00722367
0.00739878
0.00756209
0.00771866
0.00787155
0.00802327
0.00817631
0.00833316
0.0084954
0.00866249
0.00882816
0.0089801
0.00910302
0.0091857
0.00922702
0.00923785
0.00657553
0.00654627
0.00650047
0.00644677
0.00639301
0.0063524
0.00634084
0.00636517
0.00642541
0.00651777
0.0066372
0.00677768
0.00693303
0.00709788
0.00726848
0.00744351
0.0076135
0.00776663
0.00790371
0.00803146
0.00815385
0.0082737
0.00839346
0.00851548
0.00864182
0.00877365
0.0089082
0.00903721
0.00914745
0.00922641
0.00926902
0.00928154
0.0070153
0.00698919
0.00696203
0.0069356
0.00690722
0.00688363
0.00688094
0.00690848
0.00696875
0.00705911
0.00717419
0.00730702
0.00745061
0.00759908
0.00774852
0.00789721
0.00803669
0.0081581
0.00826381
0.00836035
0.00845151
0.00853983
0.00862734
0.00871593
0.00880749
0.00890379
0.00900441
0.00910502
0.00919604
0.00926577
0.00930655
0.00932008
0.0075499
0.00753874
0.00754775
0.0075611
0.00756719
0.00756796
0.0075764
0.00760301
0.00765273
0.00772503
0.00781592
0.00791958
0.00803009
0.00814262
0.00825401
0.00836289
0.00846298
0.00854833
0.00862136
0.00868713
0.00874858
0.0088076
0.00886565
0.00892403
0.00898411
0.00904745
0.00911466
0.00918425
0.0092508
0.00930555
0.00934044
0.00935352
0.00819928
0.00821382
0.00825222
0.00828639
0.00830934
0.00832265
0.00833442
0.00835321
0.00838421
0.00842837
0.00848369
0.00854661
0.00861335
0.00868084
0.00874712
0.00881132
0.00886974
0.00891901
0.00896073
0.00899799
0.00903256
0.00906554
0.00909779
0.00913002
0.009163
0.0091977
0.00923475
0.00927399
0.00931324
0.00934782
0.00937199
0.00938229
0.00899138
0.00900358
0.00902526
0.00904288
0.00905499
0.00906239
0.00906775
0.00907438
0.00908456
0.00909895
0.00911703
0.00913762
0.00915944
0.00918145
0.00920299
0.00922379
0.00924264
0.00925846
0.0092718
0.00928366
0.00929462
0.00930504
0.0093152
0.0093253
0.00933558
0.00934636
0.00935786
0.00937013
0.00938267
0.00939423
0.00940298
0.00940719
)
;

boundaryField
{
    movingWall
    {
        type            fixedValue;
        value           uniform 0.00942;
    }
    fixedWalls
    {
        type            zeroGradient;
    }
    floor
    {
        type            zeroGradient;
    }
    frontAndBack
    {
        type            empty;
    }
}


// ************************************************************************* //
