/*--------------------------------*- C++ -*----------------------------------*\
| =========                 |                                                 |
| \\      /  F ield         | OpenFOAM: The Open Source CFD Toolbox           |
|  \\    /   O peration     | Version:  2212                                  |
|   \\  /    A nd           | Website:  www.openfoam.com                      |
|    \\/     M anipulation  |                                                 |
\*---------------------------------------------------------------------------*/
FoamFile
{
    version     2.0;
    format      ascii;
    arch        "LSB;label=64;scalar=64";
    class       volScalarField;
    location    "820";
    object      Xpr;
}
// * * * * * * * * * * * * * * * * * * * * * * * * * * * * * * * * * * * * * //

dimensions      [1 -3 0 0 0 0 0];

internalField   nonuniform List<scalar> 
1024
(
0.081605
0.0816073
0.081613
0.0816232
0.081639
0.0816611
0.0816892
0.0817224
0.0817587
0.0817957
0.0818309
0.0818618
0.0818855
0.0818987
0.0818977
0.0818804
0.0818476
0.081807
0.0817651
0.0817235
0.0816828
0.0816433
0.0816053
0.0815698
0.0815378
0.0815106
0.0814889
0.0814726
0.0814613
0.0814542
0.0814503
0.0814487
0.0816055
0.0816079
0.0816138
0.0816243
0.0816405
0.081663
0.0816917
0.0817253
0.0817619
0.0817992
0.0818346
0.0818655
0.0818892
0.0819022
0.081901
0.0818834
0.0818505
0.0818097
0.0817677
0.0817261
0.0816854
0.0816459
0.0816078
0.0815721
0.0815398
0.0815122
0.0814901
0.0814735
0.081462
0.0814547
0.0814506
0.081449
0.0816068
0.0816093
0.0816154
0.0816264
0.0816434
0.0816669
0.0816967
0.0817313
0.0817688
0.0818069
0.081843
0.0818745
0.0818983
0.0819109
0.0819088
0.0818903
0.0818565
0.0818152
0.0817729
0.0817312
0.0816905
0.0816509
0.0816128
0.0815767
0.0815439
0.0815157
0.0814927
0.0814754
0.0814634
0.0814557
0.0814515
0.0814498
0.0816088
0.0816115
0.081618
0.0816297
0.0816478
0.0816727
0.081704
0.0817404
0.0817797
0.0818196
0.0818575
0.0818904
0.0819148
0.0819267
0.0819228
0.081902
0.0818661
0.0818233
0.0817802
0.0817381
0.0816974
0.0816579
0.0816197
0.0815834
0.08155
0.0815207
0.0814967
0.0814785
0.0814656
0.0814575
0.081453
0.0814511
0.0816118
0.0816146
0.0816215
0.081634
0.0816534
0.0816801
0.0817136
0.0817525
0.0817948
0.0818382
0.0818795
0.0819151
0.0819407
0.0819515
0.0819444
0.0819194
0.0818795
0.0818337
0.0817889
0.081746
0.081705
0.0816656
0.0816276
0.0815911
0.0815571
0.081527
0.0815018
0.0814824
0.0814686
0.0814598
0.081455
0.081453
0.0816155
0.0816185
0.0816258
0.0816392
0.0816599
0.0816886
0.081725
0.0817677
0.0818147
0.0818635
0.0819103
0.0819503
0.0819777
0.0819866
0.0819746
0.081943
0.0818964
0.0818457
0.0817977
0.0817533
0.0817119
0.0816726
0.0816349
0.0815985
0.0815643
0.0815334
0.0815072
0.0814866
0.081472
0.0814625
0.0814574
0.0814553
0.0816201
0.0816231
0.0816308
0.0816449
0.0816671
0.0816982
0.0817381
0.0817859
0.0818396
0.0818963
0.081951
0.0819969
0.0820262
0.0820323
0.0820133
0.0819723
0.0819163
0.081858
0.0818052
0.0817583
0.081716
0.0816768
0.0816396
0.0816038
0.0815697
0.0815385
0.0815117
0.0814905
0.0814751
0.0814653
0.0814598
0.0814576
0.0816255
0.0816286
0.0816365
0.0816513
0.0816749
0.0817087
0.0817531
0.0818075
0.0818701
0.0819372
0.0820019
0.0820548
0.0820856
0.0820872
0.082059
0.0820061
0.0819375
0.081869
0.0818095
0.081759
0.0817153
0.0816761
0.0816396
0.0816047
0.0815715
0.0815408
0.0815142
0.0814929
0.0814774
0.0814673
0.0814618
0.0814595
0.0816318
0.081635
0.0816431
0.0816586
0.0816837
0.0817206
0.0817704
0.0818332
0.0819069
0.0819868
0.0820632
0.0821231
0.0821541
0.0821491
0.0821096
0.0820424
0.0819588
0.0818771
0.0818086
0.0817531
0.0817075
0.0816682
0.0816328
0.0815995
0.0815679
0.0815387
0.0815132
0.0814927
0.0814777
0.081468
0.0814625
0.0814603
0.0816396
0.0816427
0.0816512
0.0816674
0.0816944
0.081735
0.0817914
0.0818643
0.0819515
0.0820461
0.0821349
0.0822009
0.0822297
0.0822158
0.0821636
0.0820814
0.0819809
0.0818828
0.0818021
0.0817397
0.0816911
0.0816516
0.0816175
0.0815865
0.0815576
0.081531
0.0815078
0.0814891
0.0814755
0.0814665
0.0814614
0.0814592
0.0816495
0.0816528
0.0816616
0.081679
0.0817084
0.0817537
0.0818183
0.0819035
0.0820063
0.0821171
0.0822179
0.0822879
0.082312
0.0822881
0.0822242
0.0821284
0.0820103
0.0818921
0.0817941
0.0817204
0.0816666
0.0816259
0.0815932
0.0815652
0.0815399
0.0815171
0.0814973
0.0814814
0.0814697
0.0814619
0.0814573
0.0814553
0.0816631
0.0816666
0.0816761
0.0816951
0.081728
0.0817797
0.0818546
0.0819546
0.0820753
0.0822029
0.0823142
0.0823855
0.0824036
0.0823719
0.0823015
0.0821977
0.0820646
0.0819229
0.0817999
0.0817062
0.0816404
0.0815946
0.0815617
0.0815363
0.0815152
0.081497
0.0814815
0.081469
0.0814597
0.0814532
0.0814493
0.0814475
0.0816827
0.0816865
0.0816971
0.0817187
0.0817566
0.0818169
0.0819051
0.0820228
0.0821633
0.0823073
0.0824268
0.0824977
0.0825124
0.0824807
0.0824151
0.0823149
0.0821752
0.0820119
0.081857
0.0817294
0.0816357
0.0815726
0.0815316
0.0815047
0.0814859
0.0814718
0.0814605
0.0814516
0.0814449
0.0814403
0.0814377
0.0814365
0.081711
0.0817153
0.0817277
0.0817533
0.0817984
0.0818705
0.0819756
0.082114
0.082275
0.0824339
0.0825595
0.0826314
0.0826511
0.0826342
0.0825911
0.0825143
0.082389
0.0822211
0.0820401
0.0818705
0.0817287
0.0816213
0.0815471
0.0814987
0.0814691
0.0814516
0.0814419
0.0814373
0.0814363
0.0814375
0.0814393
0.0814407
0.0817514
0.0817566
0.0817717
0.081803
0.0818583
0.0819461
0.0820719
0.0822332
0.0824138
0.0825843
0.0827149
0.0827933
0.0828305
0.082845
0.0828438
0.0828169
0.0827457
0.082622
0.082461
0.0822832
0.0821077
0.0819491
0.0818161
0.0817113
0.081637
0.0815883
0.081562
0.0815535
0.081557
0.0815661
0.0815751
0.0815805
0.0818068
0.0818132
0.0818317
0.0818698
0.0819366
0.0820407
0.0821858
0.0823657
0.0825598
0.0827381
0.0828756
0.0829673
0.0830282
0.0830764
0.0831194
0.0831549
0.0831743
0.0831622
0.0831126
0.0830301
0.0829233
0.0828021
0.0826762
0.0825543
0.0824441
0.082349
0.0822737
0.0822207
0.0821892
0.0821748
0.0821711
0.0821717
0.0818637
0.0818711
0.0818917
0.0819334
0.0820054
0.0821156
0.0822663
0.0824497
0.0826453
0.0828251
0.0829664
0.0830636
0.0831287
0.0831776
0.0832212
0.0832689
0.0833311
0.0834047
0.0834745
0.08353
0.0835653
0.0835775
0.0835661
0.0835326
0.0834803
0.083415
0.0833436
0.0832742
0.0832149
0.0831717
0.0831464
0.0831363
0.0819013
0.0819091
0.08193
0.0819709
0.0820403
0.0821455
0.0822885
0.0824622
0.0826483
0.0828213
0.0829585
0.08305
0.0831007
0.0831226
0.0831275
0.0831301
0.0831539
0.0832119
0.0832941
0.0833878
0.0834833
0.083573
0.083651
0.0837124
0.0837539
0.0837743
0.0837747
0.0837595
0.0837356
0.0837114
0.0836933
0.0836846
0.0819151
0.0819232
0.0819433
0.0819812
0.0820437
0.0821374
0.0822651
0.0824217
0.0825921
0.082754
0.0828848
0.082971
0.0830116
0.0830144
0.0829914
0.0829601
0.0829527
0.0829899
0.0830628
0.0831589
0.0832678
0.0833813
0.0834915
0.0835916
0.083676
0.0837411
0.0837862
0.0838128
0.0838246
0.0838268
0.0838247
0.0838226
0.0819076
0.0819159
0.0819353
0.0819696
0.0820241
0.0821041
0.0822129
0.0823477
0.0824976
0.0826439
0.0827654
0.0828469
0.0828829
0.0828775
0.0828416
0.0827951
0.0827747
0.0828044
0.082875
0.0829745
0.0830936
0.0832252
0.0833614
0.0834928
0.0836099
0.0837053
0.0837757
0.0838219
0.0838482
0.0838604
0.0838643
0.0838648
0.0818824
0.0818908
0.0819096
0.0819411
0.0819887
0.0820562
0.0821463
0.0822581
0.0823844
0.0825104
0.0826183
0.0826929
0.0827261
0.0827193
0.0826823
0.0826357
0.0826183
0.0826531
0.0827293
0.0828347
0.0829603
0.0831006
0.0832501
0.0834011
0.0835435
0.0836667
0.0837628
0.0838294
0.0838694
0.0838892
0.0838966
0.083898
0.0818468
0.0818547
0.0818722
0.0819009
0.0819429
0.0820001
0.0820744
0.0821653
0.0822679
0.0823716
0.0824621
0.0825265
0.0825569
0.0825533
0.0825248
0.0824919
0.0824912
0.0825411
0.0826295
0.0827441
0.0828765
0.0830221
0.0831776
0.0833378
0.0834944
0.0836364
0.0837529
0.0838378
0.0838912
0.083919
0.0839297
0.0839319
0.0818156
0.0818215
0.0818353
0.0818589
0.081894
0.0819419
0.082003
0.0820761
0.0821576
0.0822397
0.0823123
0.0823657
0.0823945
0.0823996
0.0823897
0.0823832
0.0824103
0.0824816
0.0825843
0.0827079
0.0828452
0.0829927
0.0831483
0.0833092
0.0834696
0.0836203
0.0837497
0.0838487
0.0839139
0.0839494
0.0839637
0.0839667
0.0818103
0.0818123
0.0818184
0.0818318
0.0818555
0.0818913
0.0819389
0.0819962
0.0820599
0.0821239
0.0821821
0.082229
0.0822624
0.0822846
0.0823034
0.0823333
0.082394
0.0824877
0.0826024
0.0827308
0.0828681
0.083012
0.0831617
0.0833162
0.083472
0.083622
0.0837558
0.083863
0.0839372
0.0839795
0.0839972
0.0840011
0.0818519
0.0818482
0.0818429
0.0818404
0.0818462
0.0818643
0.0818954
0.0819373
0.0819866
0.0820392
0.0820918
0.0821424
0.0821907
0.0822394
0.0822937
0.0823625
0.0824546
0.0825655
0.0826859
0.0828126
0.0829434
0.0830774
0.0832151
0.0833566
0.0835003
0.0836419
0.0837725
0.0838816
0.083961
0.0840085
0.0840295
0.0840343
0.0819537
0.0819436
0.0819255
0.0819046
0.0818888
0.0818855
0.0818982
0.0819263
0.0819671
0.0820177
0.0820762
0.0821414
0.082213
0.0822917
0.0823791
0.0824794
0.0825926
0.0827108
0.0828285
0.0829463
0.0830642
0.083183
0.0833034
0.0834267
0.0835527
0.0836793
0.0837998
0.0839049
0.0839851
0.0840359
0.0840596
0.0840655
0.0821196
0.0821038
0.0820757
0.0820414
0.0820091
0.0819886
0.0819873
0.0820071
0.0820466
0.0821031
0.0821742
0.0822575
0.0823509
0.0824523
0.0825607
0.0826767
0.082796
0.08291
0.0830168
0.0831196
0.0832201
0.0833197
0.0834197
0.0835216
0.0836261
0.0837329
0.0838378
0.0839333
0.08401
0.0840614
0.0840871
0.0840941
0.0823472
0.0823283
0.0822989
0.0822648
0.0822312
0.0822068
0.0822017
0.0822201
0.082262
0.0823246
0.0824046
0.0824979
0.0826004
0.0827085
0.08282
0.0829339
0.0830445
0.0831443
0.0832341
0.083318
0.0833985
0.0834772
0.0835556
0.083635
0.0837167
0.0838011
0.0838865
0.0839677
0.0840365
0.0840855
0.0841119
0.0841197
0.0826339
0.0826169
0.0825995
0.0825829
0.0825653
0.0825513
0.0825513
0.0825712
0.0826124
0.0826731
0.0827497
0.0828376
0.0829322
0.0830296
0.0831273
0.0832243
0.0833152
0.0833945
0.0834637
0.0835271
0.0835871
0.0836452
0.0837025
0.0837603
0.0838196
0.0838814
0.0839454
0.0840088
0.0840656
0.0841088
0.0841339
0.0841423
0.0829824
0.0829752
0.0829812
0.0829902
0.0829948
0.0829961
0.0830028
0.0830214
0.0830552
0.0831035
0.0831639
0.0832324
0.0833051
0.0833789
0.0834519
0.0835229
0.0835882
0.083644
0.0836918
0.0837351
0.0837755
0.0838143
0.0838524
0.0838905
0.0839295
0.0839702
0.0840131
0.084057
0.0840985
0.0841324
0.0841538
0.0841618
0.0834056
0.0834151
0.0834402
0.0834626
0.0834778
0.0834869
0.0834952
0.0835082
0.0835291
0.0835586
0.0835953
0.0836369
0.0836808
0.0837251
0.0837685
0.0838105
0.0838486
0.0838808
0.0839082
0.0839326
0.0839554
0.0839771
0.0839983
0.0840193
0.0840407
0.0840631
0.0840868
0.0841115
0.0841361
0.0841574
0.0841722
0.0841785
0.0839213
0.0839292
0.0839433
0.0839549
0.0839628
0.0839678
0.0839715
0.083976
0.0839829
0.0839925
0.0840045
0.0840181
0.0840325
0.0840469
0.084061
0.0840746
0.0840869
0.0840973
0.084106
0.0841138
0.084121
0.0841279
0.0841345
0.0841412
0.0841478
0.0841548
0.0841621
0.0841699
0.0841777
0.0841849
0.0841902
0.0841928
)
;

boundaryField
{
    movingWall
    {
        type            fixedValue;
        value           uniform 0.0842;
    }
    fixedWalls
    {
        type            zeroGradient;
    }
    floor
    {
        type            zeroGradient;
    }
    frontAndBack
    {
        type            empty;
    }
}


// ************************************************************************* //
