/*--------------------------------*- C++ -*----------------------------------*\
| =========                 |                                                 |
| \\      /  F ield         | OpenFOAM: The Open Source CFD Toolbox           |
|  \\    /   O peration     | Version:  2212                                  |
|   \\  /    A nd           | Website:  www.openfoam.com                      |
|    \\/     M anipulation  |                                                 |
\*---------------------------------------------------------------------------*/
FoamFile
{
    version     2.0;
    format      ascii;
    arch        "LSB;label=64;scalar=64";
    class       volScalarField;
    location    "720";
    object      Gch4;
}
// * * * * * * * * * * * * * * * * * * * * * * * * * * * * * * * * * * * * * //

dimensions      [1 -3 0 0 0 0 0];

internalField   nonuniform List<scalar> 
1024
(
1.91219
1.91212
1.91194
1.91162
1.91113
1.91046
1.90961
1.90862
1.90756
1.90646
1.90538
1.90436
1.9035
1.90302
1.90317
1.90405
1.90558
1.90732
1.90899
1.91054
1.91198
1.91336
1.91469
1.91598
1.91718
1.91825
1.91913
1.9198
1.92028
1.92058
1.92075
1.92082
1.91218
1.91211
1.91192
1.9116
1.91109
1.9104
1.90954
1.90855
1.90748
1.90638
1.9053
1.90426
1.90339
1.9029
1.90306
1.90395
1.90549
1.90724
1.90891
1.91047
1.91191
1.91329
1.91461
1.9159
1.91711
1.91819
1.91908
1.91977
1.92025
1.92056
1.92073
1.9208
1.91217
1.91209
1.91189
1.91155
1.91103
1.91031
1.90943
1.90842
1.90735
1.90624
1.90513
1.90406
1.90313
1.90261
1.90279
1.90372
1.9053
1.90708
1.90877
1.91034
1.91178
1.91314
1.91447
1.91575
1.91697
1.91806
1.91898
1.91969
1.92019
1.92052
1.92069
1.92077
1.91214
1.91206
1.91185
1.91149
1.91094
1.9102
1.9093
1.90828
1.90719
1.90606
1.9049
1.90373
1.90269
1.9021
1.90231
1.90334
1.90501
1.90686
1.90858
1.91016
1.9116
1.91295
1.91426
1.91554
1.91676
1.91787
1.91882
1.91957
1.9201
1.92044
1.92063
1.92071
1.91212
1.91203
1.91182
1.91144
1.91087
1.91011
1.9092
1.90817
1.90706
1.90588
1.90462
1.90328
1.90203
1.90131
1.90157
1.90277
1.90463
1.90659
1.90838
1.90998
1.91142
1.91276
1.91404
1.91529
1.91651
1.91764
1.91863
1.91941
1.91997
1.92034
1.92054
1.92062
1.91212
1.91203
1.91181
1.91142
1.91085
1.91009
1.90917
1.90813
1.90699
1.90574
1.90432
1.90272
1.90114
1.90022
1.90053
1.90201
1.90417
1.90633
1.90823
1.90987
1.91131
1.91262
1.91385
1.91507
1.91627
1.91741
1.91841
1.91923
1.91983
1.92022
1.92043
1.92052
1.91215
1.91206
1.91184
1.91147
1.91091
1.91017
1.90927
1.90824
1.90706
1.9057
1.90405
1.90208
1.90005
1.89882
1.89921
1.90107
1.90367
1.90614
1.90821
1.90992
1.91135
1.91262
1.91379
1.91494
1.9161
1.91721
1.91822
1.91906
1.91968
1.92009
1.92031
1.92041
1.91225
1.91216
1.91195
1.9116
1.91108
1.91039
1.90953
1.90852
1.90732
1.90582
1.90387
1.9014
1.89877
1.89716
1.89762
1.90001
1.90322
1.90611
1.90841
1.91021
1.91165
1.91285
1.91393
1.91499
1.91607
1.91713
1.91812
1.91894
1.91957
1.91998
1.92021
1.9203
1.91244
1.91235
1.91216
1.91185
1.91139
1.91077
1.90999
1.90903
1.9078
1.90613
1.9038
1.90068
1.89731
1.89524
1.89586
1.89894
1.90293
1.90638
1.90896
1.91087
1.91229
1.91341
1.91437
1.9153
1.91625
1.91722
1.91814
1.91892
1.91952
1.91992
1.92014
1.92024
1.91277
1.91269
1.91252
1.91224
1.91186
1.91133
1.91066
1.90975
1.90849
1.90661
1.90375
1.89979
1.89553
1.89305
1.894
1.89801
1.90298
1.90708
1.91
1.91201
1.91339
1.91437
1.91517
1.91591
1.9167
1.91752
1.91832
1.91903
1.91957
1.91994
1.92015
1.92024
1.91326
1.91319
1.91304
1.91281
1.91249
1.91206
1.91148
1.91062
1.90926
1.90702
1.90341
1.89838
1.89319
1.89048
1.89211
1.89739
1.90356
1.90838
1.91163
1.9137
1.91499
1.91579
1.91635
1.91686
1.91743
1.91806
1.9187
1.91928
1.91974
1.92006
1.92026
1.92034
1.91381
1.91376
1.91366
1.91348
1.91322
1.91285
1.91227
1.91133
1.90967
1.90676
1.90207
1.89579
1.88983
1.88739
1.89029
1.89723
1.90476
1.91034
1.91387
1.91595
1.91707
1.91762
1.9179
1.91813
1.91844
1.91883
1.91928
1.91971
1.92007
1.92034
1.92051
1.92058
1.91374
1.91374
1.91371
1.91363
1.91342
1.91302
1.91228
1.91092
1.90852
1.90447
1.8984
1.89102
1.88497
1.88372
1.88861
1.89754
1.90647
1.91274
1.9165
1.91854
1.91946
1.91973
1.9197
1.91963
1.91965
1.9198
1.92004
1.92032
1.92058
1.9208
1.92094
1.92102
1.91095
1.91099
1.91103
1.911
1.91078
1.91019
1.90899
1.90682
1.90322
1.89779
1.89059
1.88307
1.87838
1.8796
1.88704
1.89781
1.90784
1.91472
1.91878
1.92088
1.9217
1.92176
1.92149
1.92118
1.92099
1.92095
1.92104
1.92119
1.92137
1.92154
1.92166
1.92173
1.90214
1.90212
1.90204
1.90181
1.90128
1.90021
1.89831
1.89523
1.89068
1.88462
1.87773
1.87205
1.87056
1.87504
1.88447
1.89594
1.90641
1.91401
1.91887
1.92164
1.92289
1.92313
1.92282
1.92237
1.92203
1.9219
1.92196
1.92213
1.92233
1.92249
1.92258
1.92262
1.88623
1.88606
1.88568
1.885
1.88389
1.88218
1.87966
1.87614
1.87162
1.86649
1.86188
1.85969
1.86158
1.86753
1.87615
1.88604
1.89595
1.90445
1.91108
1.91605
1.91975
1.92238
1.9241
1.92508
1.92549
1.92545
1.92502
1.9243
1.9234
1.92251
1.92182
1.92146
1.86928
1.86901
1.86839
1.86731
1.86566
1.86332
1.86023
1.85648
1.85239
1.84861
1.84598
1.84515
1.84619
1.8487
1.85232
1.85694
1.8624
1.86799
1.87324
1.8781
1.8826
1.88667
1.89014
1.89283
1.89461
1.89538
1.89514
1.89405
1.89243
1.89075
1.88942
1.88872
1.85814
1.85781
1.85699
1.85552
1.85321
1.84997
1.84588
1.84123
1.83646
1.83202
1.82808
1.82458
1.82125
1.81785
1.81418
1.81008
1.80565
1.80138
1.79769
1.79456
1.79218
1.79071
1.79022
1.79072
1.79217
1.79437
1.79704
1.79977
1.80211
1.80374
1.80461
1.8049
1.85318
1.85287
1.85207
1.85057
1.84815
1.84466
1.84011
1.83472
1.82885
1.82284
1.81681
1.81062
1.80399
1.79661
1.78817
1.7783
1.76721
1.75611
1.74591
1.73661
1.72844
1.72163
1.71645
1.71312
1.71179
1.71246
1.71492
1.71864
1.72282
1.72655
1.72911
1.73029
1.85091
1.85062
1.84988
1.84847
1.84618
1.84281
1.83831
1.83279
1.82654
1.81987
1.81294
1.8057
1.79791
1.78926
1.77948
1.76821
1.75596
1.74422
1.73377
1.72443
1.71605
1.7086
1.70206
1.69658
1.69235
1.68959
1.68842
1.68873
1.69016
1.69208
1.69376
1.69467
1.84998
1.84972
1.84905
1.84779
1.84573
1.84269
1.83855
1.83337
1.82735
1.82077
1.81384
1.80658
1.79881
1.79029
1.78074
1.76992
1.75848
1.7479
1.7387
1.73041
1.72264
1.71511
1.70772
1.70064
1.69424
1.68896
1.68512
1.6828
1.68184
1.68186
1.68233
1.68272
1.84959
1.84937
1.84881
1.84775
1.84598
1.84335
1.83971
1.83509
1.82961
1.8235
1.81695
1.81003
1.80262
1.7945
1.78543
1.77523
1.76457
1.75485
1.74638
1.73859
1.73097
1.7231
1.71481
1.70626
1.69797
1.69064
1.68484
1.68084
1.67856
1.67761
1.67749
1.67762
1.8489
1.84877
1.8484
1.84761
1.84622
1.84404
1.84094
1.8369
1.83199
1.82636
1.82017
1.81348
1.80622
1.79822
1.78932
1.77936
1.76901
1.75956
1.75129
1.74364
1.73607
1.72813
1.71954
1.71036
1.70103
1.69232
1.68498
1.67955
1.67614
1.67446
1.67396
1.67397
1.84683
1.84688
1.84683
1.84647
1.84556
1.84388
1.84127
1.83768
1.83312
1.8277
1.82152
1.81467
1.80713
1.79885
1.78974
1.77968
1.76935
1.75996
1.75176
1.74423
1.73685
1.72915
1.72082
1.7118
1.70238
1.69315
1.68492
1.67844
1.67407
1.67171
1.67085
1.67077
1.84221
1.84252
1.84293
1.84314
1.8428
1.84159
1.8393
1.83585
1.83123
1.82555
1.81894
1.81153
1.80341
1.79463
1.78519
1.77501
1.76475
1.75556
1.74764
1.74046
1.73352
1.72639
1.71874
1.71042
1.70158
1.69264
1.68426
1.67724
1.67219
1.66924
1.66803
1.66784
1.83393
1.83459
1.83554
1.83633
1.83645
1.83548
1.83315
1.82938
1.82426
1.81794
1.81064
1.80257
1.79392
1.78479
1.77526
1.76527
1.75544
1.74681
1.73949
1.73296
1.72676
1.72047
1.7138
1.70655
1.69876
1.69065
1.68275
1.67576
1.67038
1.667
1.66548
1.66517
1.82126
1.82227
1.82366
1.82472
1.82485
1.82362
1.82077
1.81634
1.81051
1.80355
1.79574
1.78735
1.7786
1.76963
1.76053
1.75124
1.74232
1.73464
1.72823
1.72261
1.71734
1.71209
1.70658
1.70062
1.69416
1.68728
1.68031
1.67383
1.66852
1.66494
1.66317
1.66274
1.80378
1.80505
1.80643
1.80708
1.80652
1.80447
1.80082
1.79575
1.7895
1.78237
1.77467
1.76664
1.75848
1.75034
1.74226
1.73421
1.72663
1.72022
1.71494
1.71037
1.70616
1.70202
1.69772
1.69311
1.68809
1.68265
1.67694
1.67137
1.66652
1.663
1.6611
1.66056
1.78124
1.78246
1.78306
1.78248
1.78068
1.77765
1.77345
1.76827
1.76231
1.75582
1.74902
1.74212
1.73526
1.72853
1.72198
1.71558
1.70964
1.70468
1.70064
1.69719
1.69405
1.691
1.68788
1.68455
1.68093
1.67696
1.67269
1.66831
1.66426
1.66111
1.65924
1.65864
1.75321
1.75378
1.75282
1.75074
1.74794
1.74453
1.74055
1.7361
1.73127
1.7262
1.72101
1.71584
1.71078
1.70589
1.70118
1.69664
1.69247
1.68902
1.68624
1.68388
1.68175
1.67972
1.67766
1.67548
1.67312
1.67053
1.66768
1.66464
1.66167
1.65917
1.65755
1.65695
1.7187
1.71797
1.71574
1.71323
1.71064
1.70795
1.70514
1.7022
1.69914
1.696
1.69284
1.68973
1.68671
1.68381
1.68105
1.6784
1.67599
1.67401
1.67241
1.67107
1.66987
1.66874
1.6676
1.6664
1.66512
1.6637
1.66214
1.66043
1.65867
1.65709
1.65596
1.65548
1.67641
1.67579
1.6746
1.67347
1.67242
1.67141
1.6704
1.66939
1.66835
1.66731
1.66626
1.66524
1.66425
1.66331
1.66241
1.66156
1.66078
1.66014
1.65963
1.65921
1.65882
1.65847
1.65811
1.65774
1.65734
1.6569
1.65641
1.65588
1.65532
1.65479
1.65438
1.65418
)
;

boundaryField
{
    movingWall
    {
        type            fixedValue;
        value           uniform 1.6535;
    }
    fixedWalls
    {
        type            zeroGradient;
    }
    floor
    {
        type            zeroGradient;
    }
    frontAndBack
    {
        type            empty;
    }
}


// ************************************************************************* //
