/*--------------------------------*- C++ -*----------------------------------*\
| =========                 |                                                 |
| \\      /  F ield         | OpenFOAM: The Open Source CFD Toolbox           |
|  \\    /   O peration     | Version:  2212                                  |
|   \\  /    A nd           | Website:  www.openfoam.com                      |
|    \\/     M anipulation  |                                                 |
\*---------------------------------------------------------------------------*/
FoamFile
{
    version     2.0;
    format      ascii;
    arch        "LSB;label=64;scalar=64";
    class       volScalarField;
    location    "720";
    object      Sco2;
}
// * * * * * * * * * * * * * * * * * * * * * * * * * * * * * * * * * * * * * //

dimensions      [1 -3 0 0 0 0 0];

internalField   nonuniform List<scalar> 
1024
(
0.005795
0.00579602
0.00579851
0.00580294
0.00580974
0.00581912
0.00583091
0.00584458
0.00585939
0.00587458
0.00588963
0.0059039
0.00591593
0.00592269
0.00592081
0.00590885
0.00588807
0.00586425
0.00584131
0.00581996
0.00580006
0.0057811
0.00576268
0.00574486
0.00572816
0.00571336
0.00570115
0.00569181
0.00568524
0.00568105
0.00567872
0.00567777
0.00579511
0.00579616
0.00579872
0.00580328
0.00581025
0.00581982
0.00583179
0.00584558
0.00586044
0.00587567
0.00589079
0.00590521
0.00591745
0.00592433
0.00592238
0.00591025
0.0058893
0.00586536
0.00584233
0.00582094
0.00580104
0.00578211
0.00576372
0.0057459
0.00572913
0.0057142
0.00570182
0.00569232
0.00568561
0.00568133
0.00567895
0.00567797
0.00579534
0.00579645
0.00579913
0.00580391
0.00581119
0.00582109
0.00583334
0.00584731
0.00586227
0.00587764
0.00589306
0.00590802
0.00592099
0.0059283
0.00592613
0.00591343
0.00589189
0.00586756
0.00584431
0.00582282
0.00580292
0.00578408
0.00576579
0.005748
0.00573113
0.00571596
0.00570325
0.00569342
0.00568644
0.00568196
0.00567948
0.00567846
0.00579566
0.00579682
0.00579967
0.00580472
0.00581234
0.0058226
0.00583514
0.00584929
0.00586442
0.00588013
0.00589628
0.0059125
0.0059271
0.00593539
0.00593279
0.00591877
0.0058959
0.00587068
0.00584697
0.00582529
0.00580541
0.00578674
0.00576866
0.00575099
0.00573404
0.00571858
0.00570543
0.00569513
0.00568775
0.005683
0.00568036
0.00567929
0.00579594
0.00579717
0.00580015
0.00580542
0.00581331
0.00582383
0.00583656
0.00585086
0.00586627
0.00588264
0.00590017
0.00591872
0.00593623
0.00594631
0.00594304
0.00592664
0.00590126
0.00587439
0.00584979
0.00582777
0.00580792
0.00578951
0.00577181
0.00575443
0.00573752
0.00572181
0.0057082
0.00569736
0.00568951
0.00568443
0.00568162
0.00568047
0.005796
0.00579727
0.00580032
0.00580566
0.00581363
0.00582418
0.00583692
0.0058513
0.0058671
0.00588455
0.0059043
0.0059265
0.0059485
0.00596148
0.00595738
0.00593724
0.00590775
0.00587809
0.005852
0.0058294
0.00580955
0.00579154
0.00577442
0.00575757
0.00574093
0.00572516
0.00571119
0.00569987
0.00569157
0.00568616
0.00568316
0.00568195
0.00579555
0.00579682
0.00579982
0.00580505
0.0058128
0.00582307
0.00583554
0.00584985
0.00586611
0.00588507
0.00590798
0.00593535
0.00596364
0.00598081
0.00597585
0.00595039
0.0059148
0.0058809
0.00585253
0.00582899
0.00580914
0.00579168
0.00577541
0.00575941
0.00574338
0.00572787
0.00571382
0.00570223
0.00569361
0.00568796
0.00568482
0.00568355
0.00579423
0.00579546
0.00579832
0.0058032
0.00581041
0.00582001
0.00583183
0.00584583
0.00586254
0.00588338
0.00591042
0.00594471
0.00598127
0.00600389
0.00599786
0.00596527
0.00592132
0.00588153
0.00584997
0.00582516
0.0058053
0.00578865
0.00577357
0.00575884
0.00574387
0.00572908
0.00571539
0.00570388
0.00569522
0.0056895
0.0056863
0.00568501
0.00579155
0.00579273
0.00579535
0.00579973
0.00580611
0.00581465
0.00582542
0.00583877
0.00585585
0.00587895
0.00591132
0.00595464
0.00600155
0.00603044
0.0060224
0.00598035
0.00592557
0.00587824
0.00584265
0.00581633
0.00579663
0.00578114
0.00576773
0.00575479
0.00574145
0.00572795
0.00571519
0.00570426
0.00569594
0.00569039
0.00568725
0.00568597
0.00578698
0.00578809
0.00579045
0.00579423
0.00579961
0.00580682
0.00581623
0.00582871
0.00584621
0.00587231
0.00591188
0.00596694
0.00602608
0.00606087
0.00604831
0.0059935
0.0059252
0.00586886
0.00582872
0.00580095
0.00578181
0.00576806
0.00575697
0.00574647
0.00573542
0.00572388
0.00571267
0.00570288
0.00569532
0.00569019
0.00568725
0.00568601
0.00578015
0.00578114
0.00578318
0.00578635
0.00579076
0.00579669
0.00580483
0.00581672
0.00583552
0.00586659
0.00591659
0.00598652
0.00605865
0.0060966
0.00607458
0.00600237
0.00591768
0.00585129
0.0058066
0.00577788
0.00576002
0.00574882
0.00574082
0.00573351
0.00572545
0.00571655
0.00570752
0.00569939
0.00569295
0.00568847
0.00568581
0.00568465
0.00577249
0.00577315
0.00577461
0.00577702
0.00578061
0.00578582
0.00579377
0.00580689
0.00582987
0.00587018
0.00593525
0.00602242
0.00610519
0.00613951
0.00610013
0.00600494
0.00590143
0.00582467
0.00577599
0.00574719
0.00573155
0.00572376
0.00571963
0.00571617
0.00571172
0.005706
0.00569962
0.00569353
0.00568846
0.00568475
0.00568242
0.00568134
0.00577334
0.00577336
0.00577371
0.00577492
0.00577774
0.00578332
0.00579366
0.00581241
0.00584568
0.00590177
0.00598601
0.00608848
0.00617264
0.00619053
0.00612368
0.00600109
0.00587834
0.00579189
0.00573994
0.0057117
0.00569881
0.00569487
0.00569494
0.00569563
0.00569503
0.00569271
0.00568916
0.00568517
0.00568148
0.0056785
0.00567645
0.00567543
0.00581155
0.00581106
0.00581055
0.00581101
0.00581409
0.00582223
0.00583892
0.00586905
0.00591886
0.00599423
0.00609415
0.00619868
0.00626415
0.00624792
0.00614598
0.00599787
0.00585975
0.00576479
0.00570867
0.00567941
0.00566789
0.00566678
0.00567021
0.00567415
0.0056765
0.0056768
0.00567551
0.00567328
0.00567074
0.00566838
0.0056666
0.00566565
0.00593292
0.00593317
0.00593429
0.00593751
0.00594493
0.00595974
0.00598613
0.00602888
0.00609209
0.00617637
0.0062722
0.0063514
0.0063728
0.00631179
0.00618225
0.00602428
0.00587982
0.00577465
0.00570729
0.00566871
0.00565118
0.00564763
0.00565155
0.00565756
0.00566211
0.00566377
0.00566279
0.00566029
0.0056575
0.00565529
0.00565397
0.00565342
0.00615216
0.00615442
0.00615971
0.00616917
0.00618458
0.00620841
0.00624358
0.00629265
0.00635572
0.00642734
0.0064919
0.00652313
0.00649802
0.00641665
0.00629813
0.00616174
0.00602475
0.00590698
0.00581496
0.00574577
0.00569424
0.00565763
0.00563359
0.00561972
0.0056139
0.0056145
0.00562038
0.0056304
0.00564281
0.00565514
0.00566476
0.00566985
0.00638615
0.00638992
0.00639858
0.00641356
0.00643657
0.00646926
0.00651245
0.00656503
0.0066224
0.00667559
0.00671299
0.00672549
0.00671201
0.00667813
0.00662876
0.00656524
0.00649008
0.00641268
0.00633981
0.00627237
0.00620981
0.00615322
0.00610505
0.0060676
0.0060429
0.00603224
0.00603556
0.00605073
0.00607319
0.00609665
0.0061151
0.00612476
0.00654022
0.00654485
0.00655621
0.00657683
0.00660911
0.00665437
0.00671156
0.00677662
0.00684331
0.00690569
0.006961
0.00701034
0.00705723
0.00710531
0.00715709
0.00721493
0.00727731
0.00733736
0.0073893
0.00743328
0.0074669
0.00748768
0.00749482
0.00748798
0.00746806
0.00743746
0.00740028
0.00736226
0.00732962
0.00730686
0.00729483
0.00729072
0.00660858
0.00661291
0.00662404
0.006645
0.00667881
0.00672747
0.00679084
0.00686597
0.00694786
0.00703178
0.00711595
0.00720228
0.00729489
0.0073981
0.00751606
0.00765423
0.00780951
0.00796513
0.00810819
0.00823879
0.00835375
0.00844957
0.00852271
0.00856991
0.00858899
0.0085799
0.00854576
0.00849386
0.00843544
0.00838334
0.0083475
0.008331
0.0066396
0.00664364
0.00665401
0.00667362
0.0067056
0.00675249
0.00681513
0.00689187
0.00697882
0.00707166
0.007168
0.00726874
0.00737724
0.00749769
0.00763428
0.00779171
0.0079632
0.00812787
0.00827468
0.00840649
0.00852486
0.00863059
0.00872337
0.00880139
0.00886162
0.00890098
0.00891787
0.00891365
0.00889355
0.00886654
0.0088429
0.00883008
0.00665206
0.00665574
0.00666507
0.00668261
0.00671125
0.00675361
0.00681112
0.00688309
0.00696668
0.00705801
0.00715421
0.00725506
0.00736294
0.00748154
0.00761464
0.00776571
0.00792572
0.00807408
0.00820361
0.00832076
0.008431
0.00853813
0.00864335
0.00874433
0.00883557
0.00891078
0.00896551
0.00899851
0.00901208
0.00901172
0.00900506
0.00899952
0.0066571
0.00666014
0.00666795
0.00668279
0.00670729
0.00674397
0.00679442
0.00685864
0.00693467
0.0070194
0.00711015
0.00720617
0.0073091
0.00742202
0.0075483
0.00769067
0.00783963
0.00797604
0.00809523
0.0082052
0.00831328
0.00842507
0.00854309
0.00866494
0.00878306
0.00888753
0.00897016
0.00902714
0.00905966
0.00907297
0.00907468
0.00907266
0.00666653
0.00666826
0.00667344
0.00668436
0.00670371
0.006734
0.00677697
0.00683306
0.00690117
0.00697917
0.007065
0.00715791
0.00725885
0.00737007
0.00749413
0.00763318
0.0077779
0.00791033
0.00802662
0.00813456
0.0082417
0.00835441
0.00847649
0.00860715
0.00873993
0.00886412
0.00896871
0.00904613
0.00909469
0.0091185
0.00912557
0.00912525
0.00669529
0.00669463
0.00669531
0.00670028
0.00671287
0.00673616
0.0067723
0.00682218
0.00688544
0.00696075
0.00704656
0.00714188
0.00724675
0.00736211
0.00748931
0.00762983
0.00777445
0.00790609
0.00802123
0.00812732
0.00823169
0.00834073
0.00845893
0.00858712
0.00872125
0.00885266
0.00896985
0.00906228
0.00912454
0.00915813
0.00917029
0.00917141
0.00676023
0.00675586
0.00674996
0.0067469
0.00675154
0.00676824
0.00679996
0.00684805
0.00691232
0.00699144
0.00708356
0.00718687
0.00730009
0.0074227
0.00755474
0.00769712
0.00784075
0.00796961
0.00808084
0.00818187
0.00827975
0.00838064
0.00848921
0.00860729
0.00873294
0.00886028
0.00897958
0.0090796
0.00915169
0.0091937
0.00921085
0.00921351
0.00687657
0.00686737
0.00685382
0.00684265
0.00684082
0.00685424
0.00688666
0.00693917
0.00701075
0.00709904
0.00720106
0.00731383
0.00743487
0.00756252
0.00769599
0.00783585
0.00797351
0.0080946
0.00819737
0.00828915
0.00837665
0.00846546
0.00856002
0.00866279
0.00877354
0.00888882
0.00900137
0.00910105
0.00917778
0.00922595
0.00924763
0.00925198
0.00705496
0.00704068
0.00702114
0.00700613
0.00700406
0.00702123
0.00706099
0.00712301
0.00720465
0.00730217
0.00741155
0.00752905
0.00765164
0.00777726
0.00790485
0.00803494
0.00815994
0.00826774
0.00835768
0.00843673
0.00851093
0.00858507
0.00866309
0.00874756
0.00883938
0.00893717
0.00903635
0.00912877
0.00920443
0.00925555
0.00928079
0.00928687
0.00730114
0.00728323
0.00726381
0.00725454
0.00726227
0.00729104
0.00734213
0.00741334
0.00750103
0.00760099
0.00770909
0.00782173
0.00793609
0.00805035
0.0081636
0.00827645
0.00838266
0.00847269
0.00854675
0.00861092
0.00867028
0.00872872
0.00878944
0.00885478
0.00892609
0.00900342
0.00908459
0.00916408
0.00923323
0.00928342
0.00931054
0.00931818
0.00761869
0.00760153
0.00759307
0.00760111
0.00762641
0.00766897
0.00772797
0.00780083
0.00788453
0.00797572
0.00807116
0.00816809
0.00826439
0.00835874
0.00845057
0.00854044
0.00862368
0.00869331
0.00874995
0.00879846
0.00884273
0.00888572
0.00892982
0.00897691
0.00902829
0.00908463
0.00914547
0.00920785
0.00926557
0.00931062
0.00933726
0.00934594
0.00801383
0.00800586
0.00801935
0.0080486
0.00808804
0.00813602
0.00819194
0.00825453
0.00832242
0.00839374
0.00846659
0.0085392
0.00861026
0.00867896
0.00874498
0.00880877
0.00886717
0.00891558
0.00895465
0.0089878
0.00901771
0.0090464
0.00907549
0.00910627
0.00913973
0.0091766
0.00921716
0.00926038
0.00930278
0.00933847
0.0093616
0.00937025
0.00850036
0.00851069
0.00854212
0.0085775
0.00861404
0.00865184
0.00869137
0.00873274
0.00877581
0.00881996
0.00886435
0.00890809
0.0089505
0.00899117
0.00902995
0.00906713
0.00910091
0.00912875
0.00915111
0.00916996
0.00918682
0.00920283
0.00921892
0.00923579
0.00925403
0.0092741
0.00929638
0.00932071
0.00934573
0.00936835
0.00938451
0.00939145
0.00909679
0.00910561
0.00912241
0.00913822
0.00915301
0.0091673
0.00918146
0.00919576
0.00921031
0.00922503
0.0092397
0.00925408
0.00926795
0.0092812
0.00929378
0.00930579
0.00931667
0.00932561
0.00933277
0.00933878
0.00934414
0.0093492
0.00935425
0.00935952
0.00936518
0.00937139
0.00937828
0.00938586
0.00939384
0.0094014
0.00940726
0.00941012
)
;

boundaryField
{
    movingWall
    {
        type            fixedValue;
        value           uniform 0.00942;
    }
    fixedWalls
    {
        type            zeroGradient;
    }
    floor
    {
        type            zeroGradient;
    }
    frontAndBack
    {
        type            empty;
    }
}


// ************************************************************************* //
