/*--------------------------------*- C++ -*----------------------------------*\
| =========                 |                                                 |
| \\      /  F ield         | OpenFOAM: The Open Source CFD Toolbox           |
|  \\    /   O peration     | Version:  2206                                  |
|   \\  /    A nd           | Website:  www.openfoam.com                      |
|    \\/     M anipulation  |                                                 |
\*---------------------------------------------------------------------------*/
FoamFile
{
    version     2.0;
    format      ascii;
    arch        "LSB;label=64;scalar=64";
    class       surfaceScalarField;
    location    "306000";
    object      phi;
}
// * * * * * * * * * * * * * * * * * * * * * * * * * * * * * * * * * * * * * //

dimensions      [0 3 -1 0 0 0 0];

oriented        oriented;

internalField   nonuniform List<scalar> 
24
(
6.36178e-10
-6.36178e-10
5.83565e-10
5.2613e-11
1.68126e-10
4.15439e-10
1.68126e-10
-5.61993e-11
-5.79979e-10
-3.82854e-11
3.46991e-11
-7.29335e-11
4.50087e-10
9.51927e-11
-3.53219e-10
-2.2676e-10
-3.13002e-10
-5.51813e-12
-9.68619e-11
2.33947e-10
-1.66925e-12
-2.2676e-10
-2.32278e-10
1.66924e-12
)
;

boundaryField
{
    movingWall
    {
        type            calculated;
        value           uniform 0;
    }
    fixedWalls
    {
        type            calculated;
        value           uniform 0;
    }
    frontAndBack
    {
        type            empty;
        value           nonuniform List<scalar> 0();
    }
}


// ************************************************************************* //
