/*--------------------------------*- C++ -*----------------------------------*\
| =========                 |                                                 |
| \\      /  F ield         | OpenFOAM: The Open Source CFD Toolbox           |
|  \\    /   O peration     | Version:  2212                                  |
|   \\  /    A nd           | Website:  www.openfoam.com                      |
|    \\/     M anipulation  |                                                 |
\*---------------------------------------------------------------------------*/
FoamFile
{
    version     2.0;
    format      ascii;
    arch        "LSB;label=64;scalar=64";
    class       volScalarField;
    location    "700";
    object      Sco2;
}
// * * * * * * * * * * * * * * * * * * * * * * * * * * * * * * * * * * * * * //

dimensions      [1 -3 0 0 0 0 0];

internalField   nonuniform List<scalar> 
1024
(
0.00592032
0.00592162
0.00592475
0.00593028
0.00593865
0.00594998
0.00596388
0.00597953
0.00599594
0.00601222
0.00602782
0.00604196
0.00605304
0.00605878
0.00605759
0.00604815
0.00603095
0.00601006
0.00598847
0.00596662
0.00594425
0.0059208
0.00589609
0.00587073
0.00584608
0.0058238
0.00580519
0.00579086
0.00578074
0.00577426
0.00577066
0.00576918
0.00592044
0.00592177
0.00592499
0.00593068
0.00593926
0.0059508
0.00596486
0.00598058
0.00599698
0.00601326
0.0060289
0.00604315
0.00605434
0.00606004
0.00605874
0.00604914
0.00603186
0.00601095
0.0059894
0.00596766
0.00594543
0.00592215
0.00589759
0.00587229
0.00584758
0.00582511
0.00580625
0.00579168
0.00578135
0.00577473
0.00577105
0.00576954
0.00592067
0.00592207
0.00592544
0.00593139
0.0059403
0.00595217
0.00596646
0.00598228
0.00599871
0.00601509
0.00603104
0.00604583
0.00605747
0.00606315
0.00606143
0.00605129
0.00603362
0.00601259
0.0059911
0.00596956
0.00594766
0.00592478
0.00590058
0.00587548
0.00585069
0.00582789
0.00580854
0.00579346
0.00578271
0.00577581
0.00577197
0.00577041
0.00592094
0.00592241
0.00592596
0.00593219
0.00594144
0.00595362
0.00596811
0.00598402
0.00600059
0.00601736
0.00603417
0.00605027
0.00606301
0.00606873
0.00606611
0.00605469
0.00603605
0.00601462
0.00599315
0.00597191
0.00595053
0.00592832
0.00590477
0.00588008
0.00585531
0.00583211
0.0058121
0.00579628
0.00578492
0.00577759
0.00577353
0.00577187
0.0059211
0.00592263
0.00592631
0.00593272
0.00594218
0.00595452
0.0059691
0.00598509
0.00600198
0.00601961
0.00603812
0.00605664
0.00607143
0.00607737
0.00607314
0.00605932
0.00603877
0.00601642
0.0059948
0.00597391
0.00595326
0.00593201
0.00590945
0.0058855
0.00586096
0.00583745
0.00581671
0.00580005
0.00578795
0.0057801
0.00577575
0.00577398
0.0059209
0.00592245
0.00592614
0.00593255
0.00594196
0.00595419
0.00596867
0.00598472
0.00600217
0.00602129
0.00604253
0.00606487
0.0060829
0.00608932
0.0060826
0.00606487
0.00604106
0.00601702
0.00599495
0.00597442
0.00595468
0.00593469
0.00591351
0.0058907
0.00586675
0.00584319
0.00582188
0.00580443
0.00579157
0.00578318
0.00577853
0.00577666
0.00591997
0.0059215
0.00592509
0.00593126
0.00594028
0.00595205
0.00596614
0.0059822
0.00600046
0.00602174
0.00604693
0.00607464
0.00609718
0.00610436
0.00609404
0.0060705
0.00604175
0.00601504
0.00599211
0.00597192
0.00595328
0.00593488
0.00591547
0.00589427
0.00587141
0.00584825
0.00582675
0.00580877
0.00579535
0.00578653
0.00578163
0.00577967
0.00591788
0.00591936
0.00592273
0.00592842
0.00593672
0.00594764
0.00596103
0.00597696
0.00599622
0.00602038
0.0060509
0.00608572
0.00611394
0.00612176
0.00610626
0.00607465
0.00603904
0.00600857
0.0059844
0.00596456
0.00594731
0.00593091
0.00591375
0.00589467
0.00587347
0.00585133
0.00583024
0.00581226
0.00579864
0.00578963
0.00578462
0.00578261
0.00591406
0.00591548
0.00591858
0.00592364
0.00593095
0.00594068
0.00595304
0.00596868
0.0059892
0.00601716
0.00605477
0.00609858
0.00613325
0.00614068
0.00611753
0.00607499
0.00603044
0.00599522
0.00596956
0.00595032
0.00593492
0.00592109
0.00590677
0.00589043
0.00587157
0.00585119
0.00583128
0.00581398
0.00580073
0.0057919
0.00578695
0.00578495
0.0059079
0.00590924
0.00591204
0.00591646
0.00592269
0.00593107
0.00594226
0.00595768
0.00598007
0.0060134
0.00606055
0.00611525
0.00615613
0.00616053
0.00612584
0.00606874
0.00601305
0.00597234
0.00594529
0.00592718
0.0059144
0.00590395
0.00589325
0.00588039
0.00586463
0.00584686
0.00582898
0.00581318
0.00580092
0.00579266
0.00578797
0.00578604
0.00589899
0.00590021
0.0059027
0.00590653
0.00591187
0.0059192
0.00592968
0.00594575
0.00597173
0.0060133
0.00607304
0.00613976
0.00618469
0.00618119
0.00612945
0.0060535
0.00598449
0.00593791
0.00590993
0.00589379
0.00588463
0.00587858
0.00587242
0.0058639
0.00585209
0.00583778
0.00582282
0.00580928
0.0057986
0.00579126
0.00578699
0.00578517
0.00588895
0.00588987
0.00589188
0.00589516
0.00590005
0.00590735
0.00591889
0.00593834
0.00597175
0.00602592
0.00610093
0.00617829
0.00622152
0.00620248
0.00612731
0.00602856
0.00594463
0.0058921
0.00586378
0.00585048
0.0058459
0.00584517
0.00584442
0.00584103
0.00583395
0.00582388
0.00581254
0.00580186
0.00579316
0.00578696
0.00578318
0.00578147
0.00588649
0.00588694
0.00588824
0.00589099
0.00589615
0.00590534
0.0059215
0.00594961
0.00599657
0.00606775
0.00615733
0.006238
0.00626826
0.00622386
0.00612029
0.00599769
0.00589879
0.00584021
0.00581141
0.00580095
0.0058011
0.00580592
0.00581086
0.00581294
0.00581098
0.00580556
0.0057982
0.0057906
0.00578396
0.00577887
0.00577552
0.0057739
0.00591442
0.00591462
0.00591571
0.00591891
0.00592616
0.00594042
0.00596598
0.00600842
0.00607308
0.00615998
0.00625453
0.00632222
0.00632384
0.00624652
0.00611626
0.00597515
0.00586363
0.00579743
0.00576531
0.0057549
0.00575756
0.00576632
0.00577568
0.00578211
0.00578427
0.00578273
0.00577885
0.00577398
0.00576913
0.00576498
0.005762
0.00576046
0.00600396
0.0060048
0.00600752
0.00601391
0.00602671
0.00604977
0.00608775
0.00614484
0.00622191
0.00631134
0.00639065
0.00642514
0.00638846
0.00628429
0.00614341
0.00599806
0.00587764
0.00579784
0.00575277
0.00573249
0.00572913
0.00573576
0.00574612
0.0057553
0.00576052
0.00576127
0.00575852
0.00575392
0.00574904
0.00574501
0.00574235
0.00574111
0.00616437
0.00616666
0.00617268
0.00618456
0.00620519
0.00623808
0.00628639
0.0063509
0.00642691
0.00650056
0.0065482
0.00654654
0.00648987
0.00639245
0.00627394
0.00614657
0.00602472
0.00592436
0.00584884
0.00579391
0.0057543
0.00572713
0.0057099
0.00570021
0.00569616
0.00569661
0.00570098
0.00570866
0.00571846
0.00572839
0.00573626
0.00574044
0.00634565
0.0063493
0.00635856
0.00637602
0.00640466
0.00644712
0.00650415
0.00657229
0.00664217
0.00669964
0.00673162
0.00673375
0.00671177
0.00667365
0.00662337
0.00656071
0.00648809
0.00641457
0.00634625
0.00628323
0.00622543
0.00617343
0.00612962
0.006096
0.00607428
0.00606555
0.00606967
0.00608462
0.00610618
0.00612848
0.00614593
0.00615503
0.00647856
0.00648333
0.00649564
0.00651884
0.00655628
0.00660979
0.00667802
0.00675505
0.00683157
0.00689929
0.00695553
0.00700375
0.00704971
0.00709744
0.00714871
0.00720509
0.00726463
0.00732112
0.00737072
0.0074123
0.00744466
0.00746508
0.00747291
0.00746766
0.00744989
0.00742168
0.00738681
0.00735075
0.00731956
0.00729772
0.00728613
0.00728218
0.00653952
0.00654413
0.00655612
0.0065789
0.00661591
0.00666943
0.00673913
0.00682113
0.00690885
0.00699624
0.00708149
0.00716792
0.00726119
0.00736613
0.00748657
0.00762722
0.0077839
0.00793944
0.00808291
0.00821351
0.00832878
0.00842515
0.00849909
0.00854724
0.00856734
0.00855922
0.00852594
0.00847477
0.00841694
0.00836529
0.00832972
0.00831337
0.00656419
0.00656854
0.00657963
0.00660044
0.00663421
0.00668348
0.00674891
0.0068283
0.00691692
0.00700974
0.00710445
0.00720312
0.00731075
0.00743276
0.00757381
0.00773833
0.00791789
0.00808957
0.00824213
0.0083786
0.00850105
0.00861028
0.00870595
0.00878621
0.00884802
0.00888834
0.00890567
0.00890148
0.00888119
0.00885391
0.00883007
0.00881715
0.0065696
0.00657364
0.00658365
0.00660208
0.00663171
0.006675
0.00673308
0.0068049
0.00688712
0.00697554
0.00706756
0.00716406
0.0072692
0.00738843
0.00752672
0.00768778
0.0078607
0.00802115
0.00816031
0.00828504
0.00840154
0.00851389
0.00862344
0.00872795
0.00882197
0.00889926
0.00895539
0.0089892
0.00900311
0.00900278
0.00899603
0.0089904
0.00656703
0.00657047
0.00657898
0.00659465
0.00661983
0.00665673
0.00670661
0.00676911
0.00684202
0.00692221
0.00700744
0.00709815
0.0071977
0.00731111
0.00744317
0.00759705
0.00776122
0.00791201
0.00804261
0.00816155
0.00827698
0.00839503
0.00851849
0.00864506
0.00876715
0.00887477
0.00895973
0.00901827
0.00905171
0.00906543
0.00906725
0.00906524
0.00656891
0.00657103
0.00657687
0.00658857
0.00660849
0.00663874
0.00668068
0.00673443
0.00679882
0.00687196
0.00695245
0.00704071
0.00713931
0.00725215
0.00738303
0.00753437
0.00769469
0.00784167
0.00796947
0.00808647
0.00820105
0.00832024
0.0084482
0.00858425
0.00872183
0.00885005
0.00895778
0.0090374
0.00908734
0.00911186
0.0091192
0.00911892
0.00659128
0.00659086
0.00659198
0.00659746
0.00661039
0.00663346
0.00666845
0.00671606
0.00677599
0.00684735
0.00692937
0.00702215
0.00712701
0.00724605
0.00738136
0.00753437
0.00769373
0.00783871
0.00796437
0.00807875
0.00818999
0.00830509
0.00842895
0.00856252
0.00870168
0.00883755
0.00895843
0.00905361
0.00911768
0.00915226
0.00916484
0.00916604
0.00665232
0.0066479
0.00664194
0.00663877
0.00664318
0.00665931
0.00668992
0.00673627
0.00679843
0.00687556
0.00696649
0.00707021
0.00718625
0.00731471
0.0074559
0.0076104
0.00776717
0.00790749
0.00802769
0.0081358
0.00823961
0.00834581
0.00845943
0.00858246
0.0087129
0.00884469
0.00896789
0.009071
0.00914525
0.00918852
0.00920623
0.00920903
0.00676853
0.0067589
0.00674456
0.00673236
0.00672943
0.00674181
0.00677326
0.00682501
0.00689631
0.00698514
0.00708892
0.00720503
0.00733136
0.00746643
0.00760941
0.00776045
0.00790935
0.0080399
0.00814997
0.00824754
0.00833991
0.00843312
0.00853195
0.00863901
0.00875405
0.00887346
0.0089898
0.00909266
0.00917176
0.00922142
0.0092438
0.00924833
0.00695131
0.00693619
0.00691515
0.00689827
0.00689436
0.00691021
0.00694945
0.00701196
0.00709528
0.00719574
0.00730931
0.00743227
0.00756161
0.00769522
0.00783191
0.00797182
0.00810611
0.00822148
0.00831721
0.00840084
0.00847888
0.00855653
0.00863798
0.00872596
0.00882138
0.00892277
0.00902539
0.00912084
0.0091989
0.00925163
0.00927768
0.00928399
0.00720653
0.00718749
0.00716625
0.00715488
0.0071607
0.00718843
0.00723973
0.00731262
0.00740345
0.00750784
0.00762142
0.00774035
0.0078617
0.00798352
0.00810477
0.00822577
0.0083394
0.00843534
0.00851385
0.00858154
0.00864383
0.00870494
0.00876828
0.00883634
0.00891049
0.00899073
0.00907478
0.00915694
0.00922834
0.00928011
0.00930809
0.009316
0.00753752
0.00751924
0.00750939
0.00751604
0.00754024
0.00758255
0.00764246
0.00771763
0.00780496
0.00790083
0.00800169
0.00810449
0.00820695
0.00830764
0.00840588
0.00850208
0.00859092
0.00866494
0.00872488
0.00877597
0.00882238
0.0088673
0.0089133
0.00896234
0.00901578
0.00907429
0.00913733
0.00920185
0.00926146
0.00930795
0.00933541
0.00934438
0.00795026
0.00794167
0.00795499
0.00798419
0.00802368
0.00807215
0.00812927
0.00819404
0.00826504
0.00834021
0.00841736
0.00849452
0.0085702
0.00864353
0.00871411
0.00878234
0.00884461
0.00889602
0.00893733
0.00897222
0.00900358
0.00903355
0.00906389
0.00909596
0.00913077
0.00916907
0.00921113
0.00925585
0.00929966
0.00933647
0.00936032
0.00936924
0.00845879
0.00846945
0.00850189
0.00853808
0.00857526
0.00861376
0.00865425
0.00869707
0.00874212
0.00878865
0.00883568
0.00888217
0.00892736
0.00897076
0.00901221
0.00905195
0.00908797
0.00911753
0.00914117
0.00916101
0.00917868
0.00919542
0.0092122
0.00922978
0.00924876
0.00926962
0.00929273
0.00931791
0.00934377
0.0093671
0.00938374
0.00939089
0.00908221
0.0090914
0.00910885
0.00912514
0.00914028
0.00915488
0.0091694
0.00918418
0.00919939
0.0092149
0.00923044
0.00924572
0.0092605
0.00927463
0.00928808
0.00930092
0.00931251
0.009322
0.00932958
0.00933591
0.00934152
0.00934681
0.00935208
0.00935757
0.00936346
0.00936992
0.00937707
0.00938492
0.00939317
0.00940097
0.009407
0.00940994
)
;

boundaryField
{
    movingWall
    {
        type            fixedValue;
        value           uniform 0.00942;
    }
    fixedWalls
    {
        type            zeroGradient;
    }
    floor
    {
        type            zeroGradient;
    }
    frontAndBack
    {
        type            empty;
    }
}


// ************************************************************************* //
