/*--------------------------------*- C++ -*----------------------------------*\
| =========                 |                                                 |
| \\      /  F ield         | OpenFOAM: The Open Source CFD Toolbox           |
|  \\    /   O peration     | Version:  2212                                  |
|   \\  /    A nd           | Website:  www.openfoam.com                      |
|    \\/     M anipulation  |                                                 |
\*---------------------------------------------------------------------------*/
FoamFile
{
    version     2.0;
    format      ascii;
    arch        "LSB;label=64;scalar=64";
    class       volScalarField;
    location    "700";
    object      Xli;
}
// * * * * * * * * * * * * * * * * * * * * * * * * * * * * * * * * * * * * * //

dimensions      [1 -3 0 0 0 0 0];

internalField   nonuniform List<scalar> 
1024
(
0.0424728
0.0424732
0.0424743
0.0424762
0.0424791
0.0424829
0.0424876
0.0424929
0.0424985
0.0425039
0.0425091
0.0425137
0.0425172
0.0425189
0.0425182
0.0425146
0.0425085
0.0425011
0.0424935
0.0424859
0.042478
0.0424697
0.0424609
0.0424519
0.042443
0.0424349
0.0424281
0.0424229
0.0424192
0.0424169
0.0424156
0.042415
0.0424728
0.0424733
0.0424744
0.0424763
0.0424793
0.0424832
0.042488
0.0424933
0.0424988
0.0425042
0.0425094
0.0425141
0.0425177
0.0425193
0.0425186
0.0425149
0.0425087
0.0425013
0.0424938
0.0424862
0.0424784
0.0424702
0.0424615
0.0424524
0.0424435
0.0424354
0.0424285
0.0424232
0.0424195
0.042417
0.0424157
0.0424151
0.0424729
0.0424734
0.0424745
0.0424766
0.0424796
0.0424836
0.0424885
0.0424938
0.0424994
0.0425048
0.0425101
0.0425149
0.0425187
0.0425203
0.0425194
0.0425156
0.0425092
0.0425018
0.0424943
0.0424868
0.0424791
0.0424711
0.0424625
0.0424535
0.0424446
0.0424364
0.0424293
0.0424239
0.0424199
0.0424174
0.042416
0.0424155
0.042473
0.0424735
0.0424747
0.0424768
0.04248
0.0424841
0.042489
0.0424944
0.0425
0.0425056
0.0425111
0.0425164
0.0425204
0.042522
0.0425208
0.0425165
0.0425099
0.0425023
0.0424948
0.0424875
0.04248
0.0424722
0.0424639
0.0424551
0.0424462
0.0424379
0.0424306
0.0424249
0.0424207
0.0424181
0.0424166
0.042416
0.042473
0.0424736
0.0424748
0.042477
0.0424802
0.0424844
0.0424894
0.0424947
0.0425004
0.0425063
0.0425124
0.0425184
0.0425231
0.0425247
0.0425229
0.0425178
0.0425105
0.0425026
0.0424951
0.0424879
0.0424808
0.0424734
0.0424655
0.042457
0.0424482
0.0424397
0.0424322
0.0424262
0.0424218
0.042419
0.0424174
0.0424167
0.042473
0.0424735
0.0424748
0.0424769
0.0424801
0.0424843
0.0424892
0.0424946
0.0425004
0.0425068
0.0425138
0.042521
0.0425268
0.0425284
0.0425256
0.0425191
0.0425107
0.0425024
0.0424948
0.0424877
0.042481
0.0424741
0.0424667
0.0424587
0.0424502
0.0424417
0.0424341
0.0424278
0.0424231
0.0424201
0.0424184
0.0424177
0.0424726
0.0424732
0.0424744
0.0424765
0.0424795
0.0424835
0.0424883
0.0424937
0.0424998
0.0425068
0.0425152
0.0425242
0.0425313
0.0425331
0.0425289
0.0425203
0.0425102
0.0425009
0.0424931
0.0424863
0.04248
0.0424738
0.0424671
0.0424598
0.0424517
0.0424434
0.0424357
0.0424293
0.0424244
0.0424212
0.0424195
0.0424188
0.0424719
0.0424724
0.0424735
0.0424755
0.0424783
0.042482
0.0424865
0.0424918
0.0424983
0.0425063
0.0425164
0.0425278
0.0425367
0.0425384
0.0425322
0.0425207
0.0425082
0.0424977
0.0424896
0.042483
0.0424773
0.0424719
0.0424661
0.0424596
0.0424522
0.0424444
0.0424369
0.0424305
0.0424256
0.0424223
0.0424205
0.0424198
0.0424705
0.042471
0.0424721
0.0424738
0.0424763
0.0424796
0.0424837
0.042489
0.0424958
0.0425052
0.0425177
0.042532
0.0425429
0.0425442
0.042535
0.0425195
0.0425038
0.0424918
0.0424833
0.042477
0.0424722
0.0424678
0.0424632
0.0424577
0.0424513
0.0424442
0.0424371
0.042431
0.0424262
0.0424231
0.0424213
0.0424206
0.0424684
0.0424688
0.0424698
0.0424713
0.0424734
0.0424762
0.04248
0.0424852
0.0424927
0.0425039
0.0425196
0.0425376
0.0425504
0.0425502
0.0425366
0.0425158
0.0424962
0.0424823
0.0424735
0.0424678
0.042464
0.042461
0.0424578
0.0424537
0.0424485
0.0424424
0.0424361
0.0424306
0.0424262
0.0424233
0.0424216
0.0424209
0.0424652
0.0424657
0.0424665
0.0424678
0.0424696
0.0424721
0.0424757
0.0424811
0.0424898
0.0425038
0.0425239
0.0425458
0.0425597
0.0425564
0.0425365
0.0425089
0.0424845
0.0424687
0.0424596
0.0424548
0.0424525
0.0424512
0.0424497
0.0424473
0.0424436
0.0424388
0.0424337
0.042429
0.0424253
0.0424226
0.0424211
0.0424205
0.0424617
0.042462
0.0424627
0.0424638
0.0424655
0.042468
0.0424719
0.0424785
0.0424898
0.0425082
0.0425333
0.0425588
0.0425717
0.0425626
0.0425343
0.0424985
0.0424689
0.0424511
0.042442
0.0424383
0.0424378
0.0424385
0.0424391
0.0424387
0.0424368
0.0424336
0.0424298
0.0424262
0.0424231
0.042421
0.0424196
0.042419
0.0424608
0.0424609
0.0424614
0.0424623
0.0424641
0.0424672
0.0424727
0.0424823
0.0424984
0.0425225
0.0425525
0.0425788
0.0425868
0.0425686
0.0425303
0.0424862
0.0424514
0.0424316
0.0424225
0.0424199
0.0424211
0.0424239
0.0424267
0.0424283
0.0424282
0.0424267
0.0424244
0.0424219
0.0424196
0.0424179
0.0424167
0.0424161
0.0424706
0.0424706
0.042471
0.0424721
0.0424745
0.0424794
0.0424882
0.0425027
0.0425247
0.0425541
0.0425855
0.0426068
0.0426046
0.0425749
0.0425274
0.0424771
0.0424382
0.0424158
0.0424057
0.0424032
0.0424054
0.0424096
0.0424139
0.042417
0.0424185
0.0424184
0.0424173
0.0424157
0.0424141
0.0424126
0.0424115
0.042411
0.0425021
0.0425024
0.0425033
0.0425055
0.0425098
0.0425177
0.0425306
0.04255
0.042576
0.0426058
0.0426314
0.0426408
0.0426252
0.0425865
0.0425358
0.0424845
0.0424428
0.0424159
0.0424014
0.0423956
0.0423956
0.042399
0.0424036
0.0424075
0.0424099
0.0424105
0.0424098
0.0424082
0.0424065
0.0424051
0.0424041
0.0424036
0.0425586
0.0425594
0.0425614
0.0425654
0.0425723
0.0425834
0.0425996
0.0426212
0.0426462
0.0426699
0.0426841
0.0426809
0.0426588
0.0426231
0.0425809
0.0425362
0.0424943
0.0424603
0.0424352
0.0424173
0.0424046
0.0423961
0.0423909
0.0423881
0.0423871
0.0423874
0.0423889
0.0423915
0.0423947
0.042398
0.0424006
0.0424019
0.0426221
0.0426233
0.0426264
0.0426322
0.0426417
0.0426557
0.0426745
0.0426968
0.0427192
0.042737
0.042746
0.0427447
0.0427354
0.0427208
0.0427023
0.0426799
0.0426544
0.0426289
0.0426056
0.0425842
0.0425646
0.0425471
0.0425324
0.0425212
0.0425139
0.042511
0.0425124
0.0425174
0.0425247
0.0425322
0.0425381
0.0425411
0.0426684
0.04267
0.0426741
0.0426817
0.0426941
0.0427117
0.0427342
0.0427594
0.0427843
0.0428062
0.0428241
0.0428393
0.0428538
0.0428689
0.042885
0.0429027
0.0429214
0.0429392
0.0429547
0.0429677
0.0429777
0.0429839
0.0429859
0.0429838
0.0429775
0.042968
0.0429563
0.0429442
0.0429339
0.0429267
0.0429228
0.0429215
0.0426903
0.0426918
0.0426957
0.0427032
0.0427155
0.0427333
0.0427565
0.0427838
0.0428129
0.042842
0.0428704
0.0428991
0.0429302
0.042965
0.0430047
0.0430509
0.0431019
0.0431522
0.0431984
0.0432401
0.0432766
0.043307
0.04333
0.0433447
0.0433504
0.0433471
0.0433358
0.0433188
0.0432997
0.0432828
0.0432711
0.0432657
0.0426997
0.0427011
0.0427048
0.0427117
0.0427229
0.0427394
0.0427614
0.0427881
0.0428179
0.0428493
0.0428813
0.0429147
0.042951
0.042992
0.0430391
0.0430935
0.0431523
0.0432079
0.0432565
0.0432993
0.0433371
0.0433703
0.0433991
0.0434229
0.0434411
0.0434529
0.0434578
0.0434561
0.0434496
0.0434409
0.0434334
0.0434293
0.0427025
0.0427038
0.0427071
0.0427133
0.0427232
0.0427377
0.0427573
0.0427817
0.0428096
0.0428397
0.0428711
0.042904
0.0429398
0.0429801
0.0430265
0.0430801
0.043137
0.0431891
0.0432334
0.0432722
0.0433077
0.0433413
0.0433736
0.0434043
0.0434318
0.0434545
0.043471
0.0434811
0.0434854
0.0434854
0.0434836
0.043482
0.0427024
0.0427036
0.0427064
0.0427116
0.0427201
0.0427325
0.0427494
0.0427707
0.0427956
0.042823
0.0428522
0.0428832
0.0429172
0.0429555
0.0429999
0.0430512
0.0431054
0.0431545
0.0431963
0.0432335
0.0432689
0.0433043
0.043341
0.0433784
0.0434143
0.043446
0.043471
0.0434882
0.0434982
0.0435025
0.0435033
0.0435028
0.0427035
0.0427042
0.0427062
0.0427101
0.0427168
0.0427271
0.0427414
0.0427597
0.0427817
0.0428067
0.0428342
0.0428642
0.0428976
0.0429356
0.0429793
0.0430296
0.0430825
0.0431305
0.0431717
0.0432086
0.0432441
0.0432803
0.0433187
0.0433592
0.0433999
0.0434377
0.0434694
0.0434929
0.0435076
0.043515
0.0435174
0.0435174
0.0427109
0.0427108
0.0427113
0.0427132
0.0427177
0.0427256
0.0427375
0.0427537
0.042774
0.0427982
0.0428259
0.0428571
0.0428922
0.0429318
0.0429767
0.0430272
0.0430797
0.043127
0.0431676
0.043204
0.0432387
0.0432741
0.0433116
0.0433516
0.043393
0.0434333
0.0434689
0.0434969
0.0435157
0.043526
0.0435298
0.0435303
0.0427305
0.0427291
0.0427273
0.0427265
0.0427282
0.0427338
0.0427442
0.0427598
0.0427806
0.0428063
0.0428366
0.0428709
0.0429092
0.0429515
0.0429979
0.0430486
0.0431
0.0431458
0.0431846
0.0432192
0.0432519
0.0432847
0.0433194
0.0433565
0.0433955
0.0434347
0.0434711
0.0435014
0.0435232
0.0435359
0.0435412
0.0435421
0.0427674
0.0427644
0.0427599
0.0427562
0.0427555
0.0427599
0.0427704
0.0427875
0.042811
0.0428401
0.0428741
0.0429121
0.0429533
0.0429974
0.0430441
0.0430934
0.0431419
0.0431844
0.0432201
0.0432513
0.0432806
0.0433096
0.0433399
0.0433724
0.0434069
0.0434425
0.043477
0.0435072
0.0435304
0.043545
0.0435516
0.043553
0.0428252
0.0428204
0.0428138
0.0428087
0.0428076
0.042813
0.0428258
0.0428462
0.0428732
0.0429057
0.0429425
0.0429824
0.0430243
0.0430676
0.043112
0.0431574
0.0432011
0.0432386
0.0432695
0.0432964
0.0433212
0.0433455
0.0433706
0.0433974
0.0434262
0.0434565
0.043487
0.0435151
0.0435379
0.0435533
0.0435609
0.0435628
0.0429057
0.0428997
0.0428931
0.0428896
0.0428916
0.0429006
0.0429171
0.0429405
0.0429697
0.0430033
0.0430398
0.0430781
0.0431172
0.0431565
0.0431957
0.0432349
0.0432718
0.0433029
0.0433283
0.0433501
0.0433699
0.0433891
0.0434087
0.0434295
0.043452
0.043476
0.043501
0.0435252
0.0435461
0.0435612
0.0435693
0.0435717
0.0430099
0.0430041
0.0430011
0.0430032
0.0430109
0.0430244
0.0430436
0.0430675
0.0430954
0.0431261
0.0431584
0.0431914
0.0432243
0.0432567
0.0432883
0.0433194
0.0433482
0.0433722
0.0433916
0.043408
0.0434228
0.043437
0.0434513
0.0434664
0.0434826
0.0435002
0.043519
0.043538
0.0435554
0.0435689
0.0435769
0.0435795
0.0431395
0.0431368
0.043141
0.0431503
0.0431627
0.0431781
0.0431962
0.0432168
0.0432394
0.0432634
0.043288
0.0433127
0.0433369
0.0433605
0.0433832
0.0434052
0.0434254
0.043442
0.0434554
0.0434666
0.0434767
0.0434861
0.0434956
0.0435055
0.0435161
0.0435276
0.0435402
0.0435534
0.0435662
0.0435769
0.0435837
0.0435863
0.0432991
0.0433024
0.0433126
0.043324
0.0433357
0.0433478
0.0433606
0.0433742
0.0433885
0.0434033
0.0434183
0.0434332
0.0434476
0.0434616
0.0434749
0.0434877
0.0434994
0.0435089
0.0435166
0.043523
0.0435286
0.0435339
0.0435392
0.0435446
0.0435504
0.0435567
0.0435636
0.0435711
0.0435786
0.0435854
0.0435902
0.0435922
0.0434943
0.0434972
0.0435027
0.0435078
0.0435126
0.0435172
0.0435217
0.0435264
0.0435313
0.0435362
0.0435411
0.043546
0.0435507
0.0435553
0.0435596
0.0435637
0.0435675
0.0435706
0.043573
0.0435751
0.0435769
0.0435785
0.0435802
0.0435819
0.0435837
0.0435856
0.0435878
0.0435901
0.0435925
0.0435948
0.0435965
0.0435973
)
;

boundaryField
{
    movingWall
    {
        type            fixedValue;
        value           uniform 0.0436;
    }
    fixedWalls
    {
        type            zeroGradient;
    }
    floor
    {
        type            zeroGradient;
    }
    frontAndBack
    {
        type            empty;
    }
}


// ************************************************************************* //
