/*--------------------------------*- C++ -*----------------------------------*\
| =========                 |                                                 |
| \\      /  F ield         | OpenFOAM: The Open Source CFD Toolbox           |
|  \\    /   O peration     | Version:  2212                                  |
|   \\  /    A nd           | Website:  www.openfoam.com                      |
|    \\/     M anipulation  |                                                 |
\*---------------------------------------------------------------------------*/
FoamFile
{
    version     2.0;
    format      ascii;
    arch        "LSB;label=64;scalar=64";
    class       volScalarField;
    location    "700";
    object      Xpr;
}
// * * * * * * * * * * * * * * * * * * * * * * * * * * * * * * * * * * * * * //

dimensions      [1 -3 0 0 0 0 0];

internalField   nonuniform List<scalar> 
1024
(
0.0819824
0.0819833
0.0819854
0.0819891
0.0819948
0.0820023
0.0820116
0.0820221
0.0820329
0.0820436
0.0820538
0.0820629
0.0820699
0.0820732
0.0820718
0.0820648
0.0820526
0.0820381
0.0820232
0.0820081
0.0819927
0.0819764
0.0819591
0.0819413
0.0819238
0.0819079
0.0818946
0.0818843
0.0818771
0.0818724
0.0818698
0.0818688
0.0819825
0.0819834
0.0819856
0.0819894
0.0819952
0.0820029
0.0820123
0.0820227
0.0820336
0.0820443
0.0820545
0.0820637
0.0820707
0.082074
0.0820725
0.0820654
0.0820531
0.0820386
0.0820237
0.0820088
0.0819935
0.0819773
0.0819602
0.0819423
0.0819248
0.0819088
0.0818953
0.0818849
0.0818775
0.0818727
0.0818701
0.081869
0.0819827
0.0819836
0.0819859
0.0819899
0.0819958
0.0820038
0.0820133
0.0820239
0.0820347
0.0820455
0.0820559
0.0820654
0.0820727
0.0820759
0.0820741
0.0820666
0.0820541
0.0820395
0.0820247
0.0820099
0.0819949
0.081979
0.0819622
0.0819445
0.081927
0.0819108
0.081897
0.0818862
0.0818785
0.0818735
0.0818708
0.0818696
0.0819828
0.0819838
0.0819862
0.0819904
0.0819966
0.0820047
0.0820144
0.082025
0.0820359
0.0820469
0.0820578
0.0820682
0.0820761
0.0820793
0.0820768
0.0820685
0.0820554
0.0820405
0.0820258
0.0820113
0.0819966
0.0819813
0.081965
0.0819477
0.0819302
0.0819137
0.0818994
0.0818881
0.08188
0.0818748
0.0818719
0.0818707
0.0819829
0.081984
0.0819864
0.0819907
0.0819971
0.0820053
0.082015
0.0820256
0.0820368
0.0820483
0.0820603
0.0820722
0.0820814
0.0820846
0.0820809
0.0820709
0.0820565
0.0820411
0.0820264
0.0820122
0.0819981
0.0819836
0.081968
0.0819513
0.081934
0.0819174
0.0819027
0.0818908
0.0818821
0.0818765
0.0818734
0.0818722
0.0819828
0.0819838
0.0819863
0.0819906
0.0819969
0.082005
0.0820147
0.0820253
0.0820368
0.0820493
0.0820631
0.0820774
0.0820886
0.0820919
0.0820864
0.0820736
0.082057
0.0820406
0.0820256
0.0820118
0.0819985
0.081985
0.0819705
0.0819547
0.0819379
0.0819213
0.0819062
0.0818938
0.0818847
0.0818787
0.0818754
0.081874
0.0819821
0.0819831
0.0819856
0.0819897
0.0819957
0.0820036
0.0820129
0.0820235
0.0820355
0.0820494
0.0820658
0.0820836
0.0820976
0.082101
0.0820927
0.0820759
0.082056
0.0820378
0.0820225
0.082009
0.0819967
0.0819844
0.0819713
0.0819568
0.0819409
0.0819247
0.0819096
0.0818968
0.0818873
0.081881
0.0818775
0.0818761
0.0819807
0.0819817
0.0819839
0.0819877
0.0819933
0.0820005
0.0820094
0.0820199
0.0820326
0.0820484
0.0820683
0.0820907
0.0821082
0.0821116
0.0820993
0.0820766
0.082052
0.0820315
0.0820155
0.0820025
0.0819913
0.0819807
0.0819693
0.0819565
0.081942
0.0819266
0.0819118
0.0818992
0.0818895
0.0818831
0.0818796
0.0818781
0.081978
0.081979
0.0819811
0.0819844
0.0819893
0.0819958
0.082004
0.0820143
0.0820278
0.0820461
0.0820707
0.082099
0.0821204
0.0821229
0.0821048
0.0820743
0.0820435
0.0820199
0.0820031
0.0819908
0.0819812
0.0819726
0.0819635
0.0819528
0.0819401
0.0819261
0.0819123
0.0819002
0.0818909
0.0818846
0.0818811
0.0818797
0.0819738
0.0819747
0.0819766
0.0819795
0.0819837
0.0819892
0.0819966
0.0820068
0.0820216
0.0820436
0.0820745
0.0821099
0.082135
0.0821348
0.0821081
0.0820671
0.0820285
0.0820012
0.0819838
0.0819726
0.0819651
0.0819592
0.0819529
0.0819449
0.0819346
0.0819226
0.0819103
0.0818994
0.0818908
0.081885
0.0818817
0.0818803
0.0819676
0.0819684
0.0819701
0.0819727
0.0819762
0.0819811
0.0819881
0.0819987
0.082016
0.0820435
0.0820829
0.0821261
0.0821534
0.0821469
0.0821078
0.0820534
0.0820056
0.0819744
0.0819565
0.0819471
0.0819424
0.0819399
0.0819371
0.0819324
0.081925
0.0819157
0.0819056
0.0818963
0.0818889
0.0818838
0.0818808
0.0818795
0.0819606
0.0819612
0.0819626
0.0819648
0.0819681
0.081973
0.0819807
0.0819936
0.082016
0.082052
0.0821016
0.0821515
0.082177
0.0821591
0.0821034
0.082033
0.0819748
0.0819397
0.0819219
0.0819147
0.0819135
0.081915
0.0819162
0.0819153
0.0819115
0.0819053
0.0818979
0.0818907
0.0818847
0.0818805
0.0818778
0.0818766
0.0819588
0.0819591
0.08196
0.0819618
0.0819653
0.0819715
0.0819823
0.0820012
0.0820327
0.0820802
0.0821393
0.0821909
0.0822067
0.082171
0.0820955
0.0820087
0.0819404
0.0819013
0.0818834
0.0818784
0.0818808
0.0818863
0.0818917
0.0818948
0.0818947
0.0818918
0.0818873
0.0818823
0.0818779
0.0818744
0.081872
0.0818709
0.0819781
0.0819782
0.0819789
0.081981
0.0819859
0.0819955
0.0820127
0.0820413
0.0820846
0.0821424
0.0822042
0.0822461
0.0822417
0.0821833
0.0820899
0.0819909
0.0819143
0.0818703
0.0818504
0.0818456
0.0818498
0.0818581
0.0818666
0.0818728
0.0818755
0.0818754
0.0818732
0.0818702
0.0818669
0.0818641
0.0818619
0.0818608
0.0820401
0.0820407
0.0820425
0.0820467
0.0820553
0.0820708
0.0820962
0.0821344
0.0821856
0.0822441
0.0822945
0.0823129
0.0822823
0.0822061
0.0821064
0.0820055
0.0819235
0.0818706
0.081842
0.0818305
0.0818306
0.0818373
0.0818463
0.081854
0.0818587
0.0818599
0.0818584
0.0818554
0.0818521
0.0818492
0.0818473
0.0818464
0.0821512
0.0821528
0.0821567
0.0821646
0.0821783
0.0822001
0.082232
0.0822743
0.0823236
0.0823702
0.0823981
0.0823918
0.0823483
0.0822782
0.082195
0.0821073
0.0820247
0.0819579
0.0819084
0.0818732
0.0818483
0.0818316
0.0818214
0.0818159
0.0818138
0.0818145
0.0818175
0.0818225
0.0818288
0.0818352
0.0818403
0.081843
0.0822761
0.0822785
0.0822845
0.0822959
0.0823146
0.0823423
0.0823793
0.082423
0.0824672
0.0825023
0.0825198
0.0825173
0.082499
0.0824704
0.082434
0.0823898
0.0823397
0.0822896
0.0822436
0.0822015
0.0821631
0.0821287
0.0820998
0.0820776
0.0820633
0.0820576
0.0820604
0.0820703
0.0820845
0.0820993
0.0821109
0.0821169
0.0823673
0.0823704
0.0823784
0.0823934
0.0824178
0.0824525
0.0824967
0.0825464
0.0825953
0.0826383
0.0826735
0.0827035
0.082732
0.0827617
0.0827934
0.0828283
0.082865
0.0828999
0.0829305
0.082956
0.0829758
0.0829879
0.0829919
0.0829876
0.0829754
0.0829566
0.0829336
0.0829099
0.0828896
0.0828753
0.0828678
0.0828653
0.0824103
0.0824132
0.082421
0.0824358
0.08246
0.082495
0.0825406
0.0825943
0.0826516
0.0827088
0.0827646
0.0828212
0.0828823
0.0829508
0.0830289
0.0831197
0.0832201
0.0833191
0.0834099
0.0834919
0.0835639
0.0836235
0.0836688
0.0836978
0.083709
0.0837025
0.0836802
0.0836468
0.0836093
0.0835759
0.083553
0.0835424
0.0824288
0.0824316
0.0824388
0.0824524
0.0824745
0.082507
0.0825502
0.0826027
0.0826614
0.0827231
0.0827861
0.0828518
0.0829233
0.0830039
0.0830965
0.0832036
0.0833193
0.0834286
0.0835243
0.0836085
0.0836829
0.0837482
0.0838047
0.0838516
0.0838875
0.0839106
0.0839202
0.0839169
0.083904
0.083887
0.0838722
0.0838642
0.0824344
0.082437
0.0824435
0.0824555
0.082475
0.0825036
0.0825422
0.0825901
0.082645
0.0827043
0.082766
0.0828308
0.0829012
0.0829805
0.0830718
0.0831772
0.0832892
0.0833916
0.0834788
0.0835552
0.0836249
0.083691
0.0837546
0.0838149
0.0838691
0.0839137
0.0839463
0.0839661
0.0839745
0.0839746
0.0839709
0.0839678
0.0824342
0.0824365
0.082442
0.0824523
0.0824689
0.0824934
0.0825266
0.0825685
0.0826175
0.0826715
0.0827289
0.0827899
0.0828566
0.0829321
0.0830194
0.0831203
0.0832269
0.0833236
0.0834058
0.083479
0.0835485
0.0836183
0.0836905
0.0837641
0.0838348
0.083897
0.0839461
0.0839801
0.0839998
0.0840082
0.0840097
0.0840088
0.0824364
0.0824378
0.0824416
0.0824493
0.0824626
0.0824827
0.0825108
0.0825469
0.0825902
0.0826394
0.0826934
0.0827525
0.0828182
0.0828929
0.0829789
0.0830779
0.083182
0.0832764
0.0833573
0.08343
0.0834998
0.083571
0.0836466
0.0837263
0.0838064
0.0838808
0.0839432
0.0839892
0.0840183
0.0840328
0.0840374
0.0840375
0.0824509
0.0824507
0.0824516
0.0824554
0.0824642
0.0824797
0.0825032
0.082535
0.0825751
0.0826227
0.0826772
0.0827385
0.0828075
0.0828855
0.0829737
0.0830732
0.0831763
0.0832695
0.0833493
0.0834209
0.0834893
0.0835588
0.0836326
0.0837114
0.0837929
0.083872
0.0839421
0.0839971
0.0840342
0.0840544
0.0840619
0.0840629
0.0824894
0.0824867
0.0824832
0.0824815
0.0824849
0.0824959
0.0825163
0.082547
0.082588
0.0826386
0.0826981
0.0827657
0.082841
0.0829242
0.0830155
0.0831153
0.0832163
0.0833064
0.0833829
0.0834508
0.0835151
0.0835798
0.083648
0.083721
0.0837977
0.0838748
0.0839463
0.084006
0.0840489
0.0840739
0.0840843
0.0840862
0.082562
0.082556
0.0825473
0.08254
0.0825387
0.0825472
0.0825679
0.0826016
0.0826477
0.0827051
0.082772
0.0828466
0.0829278
0.0830145
0.0831063
0.0832033
0.0832989
0.0833825
0.0834525
0.0835141
0.0835716
0.0836287
0.0836883
0.0837522
0.0838202
0.0838902
0.083958
0.0840175
0.0840631
0.0840917
0.0841047
0.0841075
0.0826757
0.0826663
0.0826534
0.0826432
0.0826412
0.0826517
0.082677
0.082717
0.0827701
0.0828342
0.0829066
0.0829849
0.0830674
0.0831526
0.0832399
0.0833293
0.0834152
0.0834889
0.0835499
0.0836028
0.0836515
0.0836993
0.0837488
0.0838015
0.0838581
0.0839177
0.0839776
0.0840329
0.0840779
0.0841081
0.0841231
0.0841269
0.0828341
0.0828223
0.0828092
0.0828024
0.0828063
0.082824
0.0828565
0.0829026
0.08296
0.083026
0.0830979
0.0831732
0.0832502
0.0833275
0.0834046
0.0834817
0.0835542
0.0836155
0.0836654
0.0837083
0.0837473
0.0837851
0.0838237
0.0838647
0.0839088
0.0839561
0.0840053
0.0840529
0.084094
0.0841237
0.0841397
0.0841443
0.083039
0.0830277
0.0830217
0.0830259
0.0830412
0.0830677
0.0831053
0.0831525
0.0832074
0.0832677
0.0833312
0.0833961
0.0834608
0.0835246
0.0835869
0.083648
0.0837046
0.0837518
0.08379
0.0838223
0.0838515
0.0838793
0.0839075
0.0839371
0.083969
0.0840036
0.0840406
0.084078
0.0841123
0.0841389
0.0841545
0.0841597
0.0832941
0.0832888
0.0832971
0.0833152
0.0833398
0.08337
0.0834056
0.0834461
0.0834906
0.0835377
0.0835862
0.0836348
0.0836825
0.0837288
0.0837735
0.0838168
0.0838565
0.0838892
0.0839155
0.0839376
0.0839573
0.083976
0.0839946
0.0840141
0.0840349
0.0840576
0.0840823
0.0841083
0.0841335
0.0841545
0.084168
0.0841731
0.083608
0.0836145
0.0836346
0.0836569
0.08368
0.0837039
0.0837291
0.0837558
0.0837839
0.0838131
0.0838426
0.0838718
0.0839003
0.0839277
0.0839539
0.0839791
0.084002
0.0840208
0.0840359
0.0840485
0.0840596
0.08407
0.0840804
0.084091
0.0841024
0.0841148
0.0841284
0.0841431
0.0841579
0.0841712
0.0841806
0.0841847
0.0839921
0.0839978
0.0840085
0.0840186
0.084028
0.084037
0.084046
0.0840553
0.0840648
0.0840745
0.0840842
0.0840938
0.0841031
0.084112
0.0841205
0.0841287
0.084136
0.0841421
0.0841469
0.0841509
0.0841545
0.0841578
0.084161
0.0841644
0.0841679
0.0841717
0.0841759
0.0841805
0.0841853
0.0841897
0.0841931
0.0841948
)
;

boundaryField
{
    movingWall
    {
        type            fixedValue;
        value           uniform 0.0842;
    }
    fixedWalls
    {
        type            zeroGradient;
    }
    floor
    {
        type            zeroGradient;
    }
    frontAndBack
    {
        type            empty;
    }
}


// ************************************************************************* //
