/*--------------------------------*- C++ -*----------------------------------*\
| =========                 |                                                 |
| \\      /  F ield         | OpenFOAM: The Open Source CFD Toolbox           |
|  \\    /   O peration     | Version:  2212                                  |
|   \\  /    A nd           | Website:  www.openfoam.com                      |
|    \\/     M anipulation  |                                                 |
\*---------------------------------------------------------------------------*/
FoamFile
{
    version     2.0;
    format      ascii;
    arch        "LSB;label=64;scalar=64";
    class       volScalarField;
    location    "370";
    object      Sco2;
}
// * * * * * * * * * * * * * * * * * * * * * * * * * * * * * * * * * * * * * //

dimensions      [1 -3 0 0 0 0 0];

internalField   nonuniform List<scalar> 
1024
(
0.00619492
0.00619584
0.0061975
0.0062001
0.00620381
0.00620861
0.00621428
0.00622042
0.00622655
0.00623226
0.0062374
0.00624167
0.00624451
0.00624482
0.0062407
0.00622938
0.00620989
0.00618868
0.00616929
0.00615239
0.00613806
0.00612617
0.00611644
0.00610849
0.00610188
0.0060964
0.00609194
0.0060885
0.00608604
0.00608444
0.00608354
0.00608317
0.00619541
0.00619616
0.00619778
0.00620043
0.00620423
0.00620914
0.0062149
0.00622107
0.0062272
0.0062329
0.00623804
0.00624234
0.00624523
0.00624561
0.00624156
0.00623023
0.00621059
0.00618926
0.00616978
0.0061528
0.00613841
0.00612649
0.00611673
0.00610876
0.00610214
0.00609664
0.00609215
0.00608866
0.00608614
0.00608449
0.00608356
0.00608317
0.00619602
0.00619672
0.00619834
0.0062011
0.00620508
0.00621018
0.0062161
0.00622233
0.00622847
0.00623417
0.00623936
0.00624379
0.00624691
0.0062476
0.00624383
0.00623246
0.00621232
0.00619055
0.00617075
0.00615354
0.00613898
0.00612693
0.0061171
0.00610911
0.00610249
0.00609699
0.00609246
0.0060889
0.00608629
0.00608457
0.00608358
0.00608316
0.00619674
0.00619744
0.00619913
0.00620205
0.00620627
0.00621162
0.00621771
0.00622402
0.00623019
0.00623596
0.00624133
0.00624613
0.00624984
0.0062513
0.00624816
0.00623673
0.00621551
0.00619271
0.00617218
0.00615444
0.0061395
0.0061272
0.00611724
0.00610923
0.00610264
0.0060972
0.00609268
0.00608908
0.00608641
0.00608461
0.00608357
0.00608314
0.00619753
0.00619826
0.00620005
0.00620316
0.00620763
0.00621323
0.00621949
0.00622588
0.00623212
0.00623809
0.00624387
0.00624941
0.00625425
0.00625714
0.00625521
0.00624373
0.00622065
0.00619594
0.00617402
0.00615526
0.00613961
0.00612685
0.00611667
0.00610865
0.0061022
0.00609693
0.00609257
0.00608904
0.00608637
0.00608455
0.00608349
0.00608304
0.00619832
0.00619909
0.00620096
0.00620422
0.00620889
0.00621467
0.00622106
0.00622754
0.00623394
0.00624026
0.00624675
0.00625348
0.00626012
0.00626532
0.00626542
0.00625404
0.00622828
0.00620049
0.00617622
0.00615575
0.0061389
0.00612539
0.00611488
0.00610688
0.00610071
0.00609582
0.00609181
0.00608854
0.00608602
0.00608428
0.00608324
0.00608279
0.00619901
0.00619979
0.00620171
0.00620503
0.00620977
0.00621561
0.00622205
0.00622861
0.00623522
0.00624202
0.00624946
0.0062578
0.00626695
0.00627545
0.00627868
0.00626788
0.00623881
0.00620667
0.00617884
0.00615571
0.00613701
0.00612237
0.00611136
0.00610344
0.00609773
0.00609349
0.00609012
0.00608737
0.0060852
0.00608365
0.0060827
0.00608227
0.00619947
0.00620024
0.00620213
0.00620538
0.00621002
0.00621575
0.00622208
0.00622862
0.00623537
0.00624265
0.00625109
0.00626129
0.0062735
0.00628642
0.00629423
0.00628495
0.00625239
0.0062147
0.00618195
0.00615506
0.00613374
0.0061175
0.00610583
0.00609803
0.006093
0.00608971
0.0060873
0.00608535
0.00608375
0.00608253
0.00608172
0.00608133
0.00619955
0.0062003
0.00620208
0.00620513
0.00620947
0.00621483
0.00622081
0.00622707
0.00623371
0.00624118
0.00625037
0.00626233
0.00627796
0.00629644
0.00631065
0.00630437
0.00626871
0.00622457
0.00618559
0.0061538
0.00612903
0.00611071
0.0060982
0.00609059
0.00608647
0.00608443
0.0060833
0.00608241
0.00608155
0.00608077
0.00608017
0.00607983
0.00619908
0.00619979
0.00620141
0.00620412
0.00620795
0.00621267
0.00621794
0.00622351
0.00622952
0.00623659
0.00624593
0.00625923
0.00627846
0.0063038
0.00632653
0.00632496
0.00628686
0.00623573
0.00618949
0.00615179
0.00612285
0.00610206
0.0060886
0.00608126
0.00607827
0.00607775
0.00607813
0.0060785
0.00607852
0.00607825
0.00607787
0.00607758
0.00619783
0.0061985
0.00619994
0.00620222
0.00620534
0.00620912
0.00621327
0.00621761
0.00622234
0.00622824
0.00623696
0.00625108
0.0062743
0.00630825
0.0063416
0.00634585
0.00630544
0.0062469
0.00619269
0.00614844
0.00611491
0.00609148
0.00607711
0.00607024
0.00606859
0.0060698
0.00607187
0.0060736
0.00607456
0.00607482
0.00607465
0.00607442
0.0061955
0.00619614
0.0061974
0.00619924
0.00620156
0.00620417
0.00620685
0.00620947
0.00621234
0.00621646
0.00622404
0.00623905
0.00626759
0.0063126
0.00635797
0.00636708
0.00632265
0.00625569
0.0061931
0.00614223
0.00610425
0.00607847
0.00606355
0.00605749
0.00605748
0.00606063
0.00606451
0.00606765
0.00606954
0.00607029
0.00607033
0.00607014
0.00619147
0.00619209
0.0061932
0.00619464
0.0061962
0.00619769
0.0061989
0.00619977
0.00620066
0.00620297
0.00620989
0.00622761
0.00626495
0.00632403
0.00638053
0.0063895
0.0063359
0.00625817
0.00618696
0.00613019
0.0060888
0.00606173
0.00604718
0.00604264
0.00604476
0.00605014
0.00605597
0.00606057
0.00606338
0.00606459
0.00606478
0.00606462
0.00618542
0.00618609
0.00618729
0.00618878
0.00619017
0.00619105
0.00619114
0.00619042
0.00618965
0.0061912
0.00620028
0.00622608
0.00627855
0.00635395
0.00641565
0.00641275
0.00634027
0.00624791
0.00616829
0.00610762
0.0060653
0.0060392
0.0060268
0.00602501
0.00602999
0.00603789
0.00604567
0.00605161
0.00605522
0.00605685
0.00605722
0.00605711
0.00617635
0.00617605
0.00617564
0.00617537
0.00617538
0.00617557
0.00617576
0.00617626
0.00617865
0.00618705
0.00620919
0.00625535
0.00633089
0.00641841
0.00646709
0.00643026
0.00632525
0.00621488
0.00612912
0.00606896
0.0060303
0.00600904
0.00600165
0.00600457
0.00601376
0.00602519
0.00603551
0.00604292
0.00604717
0.00604894
0.00604926
0.00604907
0.00622167
0.00621902
0.00621379
0.00620689
0.00619996
0.00619503
0.00619421
0.0061999
0.00621531
0.00624519
0.00629569
0.00637022
0.00645968
0.00652784
0.0065213
0.00641992
0.0062731
0.00614886
0.00606508
0.00601384
0.00598584
0.00597453
0.00597511
0.00598345
0.00599571
0.00600859
0.00601966
0.00602764
0.00603236
0.00603449
0.00603505
0.006035
0.00644574
0.00644368
0.00643905
0.0064322
0.00642471
0.0064194
0.00641986
0.00642987
0.00645276
0.00649157
0.00654569
0.00660541
0.00664495
0.00662451
0.00652027
0.00635392
0.00618806
0.00607207
0.00600447
0.00597009
0.00595816
0.0059612
0.00597342
0.00598958
0.00600512
0.00601702
0.00602425
0.00602737
0.00602794
0.00602764
0.00602743
0.00602743
0.00671599
0.00671679
0.00671783
0.00671854
0.0067188
0.0067193
0.00672174
0.00672809
0.00673936
0.00675455
0.00676648
0.00675982
0.00671418
0.00661706
0.00647773
0.00632027
0.00617788
0.00607949
0.00602312
0.0059933
0.005978
0.00597044
0.00596717
0.00596659
0.00596828
0.0059726
0.0059807
0.00599338
0.00601003
0.00602782
0.00604244
0.00605032
0.00687717
0.00687865
0.00688118
0.00688407
0.00688658
0.00688814
0.00688856
0.00688776
0.00688496
0.0068776
0.00685995
0.00682411
0.00676372
0.00667783
0.00657091
0.00645118
0.00633914
0.00626219
0.00622104
0.00620058
0.00619145
0.00618942
0.00619352
0.00620504
0.00622602
0.00625766
0.00629939
0.00634863
0.00639973
0.00644485
0.0064768
0.00649217
0.00696334
0.0069645
0.00696659
0.00696928
0.0069722
0.00697504
0.00697749
0.00697905
0.00697867
0.00697438
0.0069633
0.00694212
0.00690841
0.00686169
0.00680449
0.00674448
0.0067017
0.00670217
0.00674723
0.00682404
0.00692087
0.00702586
0.00712966
0.00722595
0.00731096
0.00738174
0.00743587
0.00747212
0.00749131
0.00749752
0.00749726
0.00749602
0.00701921
0.00702023
0.00702255
0.00702651
0.00703254
0.00704098
0.00705188
0.00706481
0.00707871
0.00709205
0.00710301
0.0071097
0.00711062
0.00710577
0.00709943
0.00710463
0.00714686
0.00724921
0.00740734
0.00760379
0.00781692
0.00802425
0.00820897
0.00836012
0.00847519
0.00855102
0.00858781
0.00858831
0.00856036
0.00851816
0.00847961
0.0084586
0.00706461
0.00706546
0.00706801
0.00707341
0.00708295
0.0070978
0.00711859
0.00714513
0.00717642
0.00721074
0.00724625
0.00728085
0.00731262
0.00734088
0.00736997
0.00741578
0.00750822
0.00766823
0.00788215
0.00812275
0.00836022
0.00857002
0.00874021
0.00886847
0.00896118
0.00902217
0.00905502
0.00906235
0.00904802
0.00901956
0.00898915
0.00897025
0.00711053
0.00711082
0.00711284
0.00711852
0.00713007
0.00714955
0.00717829
0.00721651
0.00726324
0.00731653
0.00737403
0.00743298
0.00749029
0.00754338
0.00759373
0.0076546
0.00775517
0.0079184
0.00812879
0.0083535
0.0085605
0.00872982
0.00885853
0.0089551
0.00902959
0.0090878
0.0091315
0.00916008
0.00917305
0.00917221
0.00916307
0.00915451
0.00716683
0.00716587
0.00716614
0.00717057
0.00718244
0.00720471
0.0072394
0.00728704
0.00734658
0.0074157
0.00749149
0.0075705
0.00764859
0.0077213
0.00778634
0.0078509
0.00793764
0.00807203
0.00824676
0.00843279
0.00860122
0.0087374
0.00884337
0.0089295
0.0090045
0.00907189
0.00913009
0.00917529
0.00920479
0.00921894
0.0092215
0.00921913
0.00724432
0.00724118
0.00723832
0.0072402
0.00725147
0.00727599
0.00731613
0.00737228
0.00744287
0.00752494
0.00761501
0.00770912
0.00780267
0.0078902
0.00796674
0.00803337
0.00810346
0.0082015
0.00833151
0.00847492
0.00860924
0.00872283
0.00881749
0.00890073
0.00897883
0.00905396
0.00912332
0.00918126
0.00922277
0.00924643
0.00925517
0.00925554
0.00735416
0.00734788
0.00734096
0.00734013
0.00735159
0.00737976
0.00742664
0.0074916
0.00757195
0.00766387
0.00776339
0.00786647
0.00796866
0.00806454
0.00814822
0.00821677
0.00827509
0.00834324
0.00843321
0.00853775
0.00864239
0.00873734
0.00882185
0.00889998
0.00897597
0.00905149
0.00912431
0.00918883
0.00923851
0.00926953
0.0092831
0.00928532
0.00750606
0.00749612
0.00748577
0.00748453
0.00749951
0.00753453
0.00758999
0.00766343
0.00775083
0.00784778
0.00795034
0.00805484
0.00815751
0.00825378
0.00833817
0.00840618
0.00845693
0.00850484
0.00856478
0.00863771
0.00871616
0.00879243
0.00886414
0.00893284
0.00900102
0.00907005
0.00913871
0.00920265
0.00925525
0.00929085
0.00930828
0.00931219
0.00770739
0.00769445
0.00768434
0.00768826
0.00771193
0.0077566
0.00782022
0.00789863
0.00798729
0.00808204
0.00817957
0.00827706
0.00837172
0.00846016
0.00853807
0.00860099
0.00864522
0.00868003
0.00871942
0.00876845
0.00882453
0.00888234
0.0089391
0.00899493
0.00905112
0.00910879
0.00916764
0.00922489
0.00927493
0.0093115
0.00933127
0.00933669
0.00796401
0.00795115
0.00794871
0.00796484
0.00800033
0.00805305
0.00811934
0.00819495
0.00827617
0.00835994
0.00844397
0.00852645
0.00860559
0.00867921
0.0087443
0.00879724
0.0088337
0.00885914
0.00888476
0.0089165
0.00895442
0.0089953
0.00903674
0.00907831
0.00912055
0.00916429
0.00920985
0.00925596
0.0092987
0.00933234
0.00935234
0.00935879
0.00828292
0.00827682
0.00829033
0.00832044
0.00836293
0.00841487
0.0084735
0.00853611
0.00860057
0.00866515
0.0087286
0.00878995
0.00884826
0.00890227
0.00895011
0.0089893
0.00901619
0.00903372
0.00904971
0.00906907
0.00909278
0.00911911
0.00914639
0.00917411
0.00920242
0.00923187
0.00926295
0.00929543
0.00932725
0.00935424
0.00937189
0.00937848
0.00867606
0.00868436
0.00871082
0.0087427
0.00877803
0.00881605
0.00885589
0.0088965
0.00893708
0.00897693
0.00901553
0.00905246
0.00908732
0.0091195
0.00914803
0.0091715
0.00918763
0.00919782
0.0092065
0.00921675
0.00922944
0.00924376
0.00925878
0.00927414
0.00928985
0.00930619
0.00932351
0.00934199
0.00936089
0.00937811
0.00939055
0.00939592
0.00915841
0.00916547
0.00917924
0.00919292
0.00920661
0.00922051
0.00923453
0.00924847
0.00926217
0.00927548
0.00928826
0.00930041
0.00931183
0.00932235
0.00933168
0.00933937
0.00934466
0.00934796
0.00935068
0.00935385
0.00935778
0.00936225
0.00936695
0.00937177
0.00937669
0.00938179
0.00938719
0.00939298
0.00939903
0.00940479
0.00940932
0.00941154
)
;

boundaryField
{
    movingWall
    {
        type            fixedValue;
        value           uniform 0.00942;
    }
    fixedWalls
    {
        type            zeroGradient;
    }
    floor
    {
        type            zeroGradient;
    }
    frontAndBack
    {
        type            empty;
    }
}


// ************************************************************************* //
