/*--------------------------------*- C++ -*----------------------------------*\
| =========                 |                                                 |
| \\      /  F ield         | OpenFOAM: The Open Source CFD Toolbox           |
|  \\    /   O peration     | Version:  2212                                  |
|   \\  /    A nd           | Website:  www.openfoam.com                      |
|    \\/     M anipulation  |                                                 |
\*---------------------------------------------------------------------------*/
FoamFile
{
    version     2.0;
    format      ascii;
    arch        "LSB;label=64;scalar=64";
    class       volVectorField;
    location    "370";
    object      U;
}
// * * * * * * * * * * * * * * * * * * * * * * * * * * * * * * * * * * * * * //

dimensions      [0 1 -1 0 0 0 0];

internalField   nonuniform List<vector> 
1024
(
(2.3633e-05 -2.60023e-05 0)
(-8.97425e-05 2.01146e-05 0)
(-0.000441907 5.58746e-05 0)
(-0.000938567 5.6714e-05 0)
(-0.0014673 4.68411e-05 0)
(-0.00200095 4.31441e-05 0)
(-0.0025727 4.6143e-05 0)
(-0.00321292 5.0549e-05 0)
(-0.00392092 5.27521e-05 0)
(-0.00466675 5.17193e-05 0)
(-0.00539131 4.67443e-05 0)
(-0.00598056 3.52805e-05 0)
(-0.00622826 1.24284e-05 0)
(-0.00584639 -1.78324e-05 0)
(-0.00449279 -5.29462e-05 0)
(-0.00223123 -6.6721e-05 0)
(6.39311e-05 -3.68831e-05 0)
(0.0010569 -1.90763e-05 0)
(0.00168172 -1.53338e-05 0)
(0.0021126 -1.25799e-05 0)
(0.00245635 -1.3667e-05 0)
(0.0027658 -1.51964e-05 0)
(0.00301384 -1.22061e-05 0)
(0.00312934 -1.69338e-06 0)
(0.00308676 1.1564e-05 0)
(0.00287671 2.76886e-05 0)
(0.00250928 4.59922e-05 0)
(0.00199962 6.71621e-05 0)
(0.00137685 8.83068e-05 0)
(0.00072612 9.38137e-05 0)
(0.000217955 5.66157e-05 0)
(-3.43204e-06 -6.28306e-06 0)
(-3.44308e-05 9.33068e-05 0)
(-0.000571884 0.000469468 0)
(-0.0016568 0.000725141 0)
(-0.00309184 0.000753932 0)
(-0.00463639 0.000680679 0)
(-0.00621607 0.000618695 0)
(-0.00786223 0.000589425 0)
(-0.00960217 0.000567157 0)
(-0.0114052 0.00052801 0)
(-0.0131764 0.000461255 0)
(-0.0147497 0.000358877 0)
(-0.0158439 0.000206748 0)
(-0.0160251 -1.35601e-05 0)
(-0.0146594 -0.000288327 0)
(-0.0111626 -0.000551341 0)
(-0.00572027 -0.000655737 0)
(0.000137932 -0.000437248 0)
(0.00283441 -0.000242855 0)
(0.00456782 -0.000187164 0)
(0.0057669 -0.000155931 0)
(0.00670472 -0.000152582 0)
(0.00750409 -0.000149881 0)
(0.00811424 -0.00011073 0)
(0.00839473 -1.76122e-05 0)
(0.00828651 0.000115532 0)
(0.00775328 0.000286894 0)
(0.00680704 0.000491156 0)
(0.00549027 0.000718863 0)
(0.00389272 0.000922227 0)
(0.00221883 0.000974739 0)
(0.000841562 0.000724308 0)
(7.64133e-05 0.000228569 0)
(-0.000122985 0.000613928 0)
(-0.00123053 0.00171789 0)
(-0.00313435 0.00231591 0)
(-0.00551267 0.00235632 0)
(-0.00803711 0.00214445 0)
(-0.0105947 0.00192803 0)
(-0.0131741 0.00176402 0)
(-0.0157581 0.00160888 0)
(-0.0182723 0.00141554 0)
(-0.0205699 0.00115943 0)
(-0.0224153 0.000822507 0)
(-0.0234388 0.000378247 0)
(-0.0231058 -0.000207928 0)
(-0.020659 -0.000897433 0)
(-0.0156041 -0.00151441 0)
(-0.00826819 -0.00178085 0)
(-1.59094e-05 -0.00125309 0)
(0.00413482 -0.000729024 0)
(0.00683196 -0.000560541 0)
(0.00871909 -0.00046779 0)
(0.0101719 -0.000442747 0)
(0.011363 -0.000417748 0)
(0.0122506 -0.000304017 0)
(0.0126797 -5.49551e-05 0)
(0.012545 0.000313418 0)
(0.0117875 0.000797108 0)
(0.0104127 0.00138047 0)
(0.00848421 0.00202408 0)
(0.00613795 0.00259768 0)
(0.00364455 0.00280458 0)
(0.0014986 0.00227174 0)
(0.000168631 0.000932129 0)
(-0.000213463 0.00171089 0)
(-0.00189444 0.00407323 0)
(-0.00458595 0.00511167 0)
(-0.00781339 0.0050776 0)
(-0.011161 0.00458655 0)
(-0.0144759 0.00405445 0)
(-0.0176956 0.00358593 0)
(-0.020754 0.00313082 0)
(-0.0235441 0.00262422 0)
(-0.025898 0.00202674 0)
(-0.0275615 0.0013072 0)
(-0.0281467 0.000423592 0)
(-0.0270944 -0.000671388 0)
(-0.0237647 -0.00188304 0)
(-0.0178207 -0.00291568 0)
(-0.00973147 -0.00338112 0)
(-0.000478849 -0.00249215 0)
(0.00475637 -0.00152455 0)
(0.00818598 -0.00117389 0)
(0.0106181 -0.000981682 0)
(0.0124689 -0.000908929 0)
(0.0139467 -0.000837217 0)
(0.0150427 -0.000612168 0)
(0.0156203 -0.000136323 0)
(0.0155164 0.000586464 0)
(0.0146493 0.00154927 0)
(0.0130134 0.00271839 0)
(0.0106831 0.00400527 0)
(0.00782172 0.00516704 0)
(0.00473594 0.00568255 0)
(0.00200592 0.00482901 0)
(0.000237728 0.00218192 0)
(-0.000277165 0.00346374 0)
(-0.00236982 0.00765233 0)
(-0.00563151 0.00920522 0)
(-0.00945771 0.00895851 0)
(-0.0133471 0.00798701 0)
(-0.0171014 0.00692144 0)
(-0.0206156 0.00593324 0)
(-0.0237927 0.00498104 0)
(-0.026516 0.00399059 0)
(-0.0286281 0.00290797 0)
(-0.029898 0.00168471 0)
(-0.0299669 0.000259379 0)
(-0.0283015 -0.00141958 0)
(-0.0244739 -0.00318686 0)
(-0.0182129 -0.00463661 0)
(-0.0101348 -0.00527815 0)
(-0.00107572 -0.00405029 0)
(0.00472932 -0.00261558 0)
(0.00858177 -0.0020217 0)
(0.0113413 -0.00169503 0)
(0.0134234 -0.00154663 0)
(0.015059 -0.00140489 0)
(0.0162804 -0.00104345 0)
(0.0169864 -0.000289318 0)
(0.0169659 0.000892533 0)
(0.0160997 0.00249114 0)
(0.014365 0.00444531 0)
(0.0118365 0.00659861 0)
(0.00869626 0.00856502 0)
(0.00528327 0.00953874 0)
(0.00224176 0.00831853 0)
(0.000263774 0.00392709 0)
(-0.000284061 0.005766 0)
(-0.00249482 0.0122971 0)
(-0.00597498 0.0144727 0)
(-0.0100511 0.0138943 0)
(-0.0141507 0.012229 0)
(-0.0180268 0.0103943 0)
(-0.0215433 0.00866417 0)
(-0.0245928 0.00702435 0)
(-0.027071 0.00539879 0)
(-0.0288534 0.00371799 0)
(-0.0297541 0.00190855 0)
(-0.0294562 -0.000118773 0)
(-0.0275028 -0.00240105 0)
(-0.0235214 -0.00473886 0)
(-0.0172895 -0.00658922 0)
(-0.00960173 -0.0073269 0)
(-0.00140192 -0.00579302 0)
(0.00437768 -0.00394108 0)
(0.00830191 -0.00306091 0)
(0.0111154 -0.00257108 0)
(0.0132149 -0.00232286 0)
(0.0148415 -0.00209439 0)
(0.016065 -0.00158694 0)
(0.0168257 -0.00052942 0)
(0.0168998 0.00119026 0)
(0.016114 0.00356373 0)
(0.0144158 0.00648983 0)
(0.0118705 0.00971873 0)
(0.00867765 0.0126753 0)
(0.00521304 0.0141928 0)
(0.00216399 0.0124945 0)
(0.000239108 0.00599136 0)
(-0.00022977 0.00831556 0)
(-0.00224048 0.0175792 0)
(-0.00556478 0.0205794 0)
(-0.00954017 0.0196474 0)
(-0.0135486 0.0171271 0)
(-0.0172947 0.0143192 0)
(-0.0206202 0.0116574 0)
(-0.0234236 0.0091781 0)
(-0.0256288 0.00680968 0)
(-0.0271542 0.00446247 0)
(-0.0278573 0.0020259 0)
(-0.0274332 -0.000629971 0)
(-0.0254632 -0.00355045 0)
(-0.0214994 -0.00650516 0)
(-0.01543 -0.00874221 0)
(-0.00826194 -0.00945951 0)
(-0.00108822 -0.00760404 0)
(0.00417009 -0.00540309 0)
(0.00784514 -0.00421189 0)
(0.0104397 -0.0035336 0)
(0.0123308 -0.00316429 0)
(0.0137613 -0.00283799 0)
(0.0148301 -0.00218837 0)
(0.015518 -0.000832563 0)
(0.01563 0.00146343 0)
(0.0149442 0.0047167 0)
(0.0133653 0.00877199 0)
(0.0109403 0.0132479 0)
(0.00788458 0.0173122 0)
(0.00461239 0.0193491 0)
(0.00182597 0.0169695 0)
(0.000176347 0.00810519 0)
(-0.000139864 0.010712 0)
(-0.00171223 0.0229003 0)
(-0.00457384 0.027039 0)
(-0.0081632 0.0258851 0)
(-0.0118533 0.022457 0)
(-0.0153026 0.0185459 0)
(-0.0183345 0.0148254 0)
(-0.0208622 0.0114154 0)
(-0.0228436 0.0082523 0)
(-0.0242361 0.0052143 0)
(-0.0249156 0.00213241 0)
(-0.0245378 -0.0011891 0)
(-0.022625 -0.00484198 0)
(-0.0186968 -0.00849785 0)
(-0.0128253 -0.0111013 0)
(-0.00622068 -0.0116591 0)
(-1.7322e-05 -0.00940706 0)
(0.00447219 -0.0068955 0)
(0.00767135 -0.0053763 0)
(0.00983952 -0.00447903 0)
(0.0113378 -0.0039628 0)
(0.0124081 -0.00352588 0)
(0.0131719 -0.00274302 0)
(0.0136443 -0.00111655 0)
(0.0136817 0.00174877 0)
(0.0130502 0.00593563 0)
(0.0116069 0.0112249 0)
(0.00937671 0.0170519 0)
(0.00658777 0.0222389 0)
(0.00368571 0.0246366 0)
(0.00134947 0.0212967 0)
(0.000101541 0.00998918 0)
(-4.7535e-05 0.0125876 0)
(-0.00106674 0.0276189 0)
(-0.00326243 0.0332839 0)
(-0.00626606 0.0322222 0)
(-0.00949124 0.0279815 0)
(-0.0125517 0.022937 0)
(-0.0152462 0.0181052 0)
(-0.0174978 0.0137357 0)
(-0.0192931 0.0097748 0)
(-0.0206154 0.00604733 0)
(-0.0213311 0.00229408 0)
(-0.0210072 -0.00178051 0)
(-0.0190846 -0.00630654 0)
(-0.0151481 -0.010757 0)
(-0.00953184 -0.0136719 0)
(-0.00355441 -0.0138997 0)
(0.00170373 -0.0111623 0)
(0.00541362 -0.00833354 0)
(0.00801841 -0.00646061 0)
(0.00964847 -0.0053004 0)
(0.0106461 -0.00459837 0)
(0.0112529 -0.00402749 0)
(0.0116079 -0.00311432 0)
(0.0117522 -0.00125088 0)
(0.0115938 0.00214479 0)
(0.0109301 0.00726281 0)
(0.00958497 0.0138211 0)
(0.00756501 0.0210114 0)
(0.00510725 0.0272103 0)
(0.00267205 0.0296814 0)
(0.000868931 0.0250814 0)
(3.88042e-05 0.0114468 0)
(2.56856e-05 0.0136912 0)
(-0.000432062 0.031144 0)
(-0.00184763 0.0387097 0)
(-0.00412784 0.038241 0)
(-0.00679796 0.0334634 0)
(-0.00943055 0.0273649 0)
(-0.0117747 0.0214309 0)
(-0.0137394 0.0161117 0)
(-0.0153223 0.0113723 0)
(-0.0165247 0.0069615 0)
(-0.0171982 0.00249517 0)
(-0.0167881 -0.00246101 0)
(-0.0147215 -0.00802149 0)
(-0.0107551 -0.0133184 0)
(-0.00554399 -0.0164123 0)
(-0.000297207 -0.01608 0)
(0.00389135 -0.0128748 0)
(0.00693376 -0.00965952 0)
(0.00889984 -0.00738603 0)
(0.0099579 -0.00590377 0)
(0.0104236 -0.0049612 0)
(0.0105338 -0.00421698 0)
(0.0104385 -0.00316167 0)
(0.0101931 -0.00108528 0)
(0.00975071 0.00279318 0)
(0.00896575 0.00879314 0)
(0.00765907 0.0165805 0)
(0.00582833 0.0250414 0)
(0.00371411 0.032014 0)
(0.00176673 0.0341824 0)
(0.000481059 0.0280799 0)
(-3.85126e-07 0.0124154 0)
(6.91432e-05 0.0138904 0)
(0.000107548 0.032909 0)
(-0.000458162 0.0426361 0)
(-0.001862 0.0434458 0)
(-0.0038765 0.0386438 0)
(-0.00606174 0.0317045 0)
(-0.0080692 0.0247183 0)
(-0.00974133 0.0184486 0)
(-0.0110471 0.0129206 0)
(-0.0120009 0.00780976 0)
(-0.0124591 0.00258669 0)
(-0.0116771 -0.00336898 0)
(-0.00932747 -0.0100996 0)
(-0.00540141 -0.0161675 0)
(-0.000844479 -0.0191639 0)
(0.00336181 -0.0181453 0)
(0.00659558 -0.014453 0)
(0.00890922 -0.0108014 0)
(0.0102077 -0.0080742 0)
(0.0106942 -0.0062067 0)
(0.0106466 -0.00496006 0)
(0.0102826 -0.00398802 0)
(0.00974802 -0.00275647 0)
(0.00909339 -0.000458564 0)
(0.00833106 0.00385889 0)
(0.00736381 0.0106548 0)
(0.00604226 0.0195587 0)
(0.00436715 0.0290946 0)
(0.00257521 0.0364995 0)
(0.00107741 0.0379695 0)
(0.00022278 0.030244 0)
(-1.75782e-05 0.0129548 0)
(0.000105879 0.0131765 0)
(0.000554566 0.0325765 0)
(0.000818447 0.0440645 0)
(0.000520654 0.0470047 0)
(-0.000548777 0.043154 0)
(-0.00215361 0.035824 0)
(-0.00384416 0.0278493 0)
(-0.00531451 0.0205463 0)
(-0.00637622 0.014166 0)
(-0.0069964 0.0083705 0)
(-0.00703132 0.00245243 0)
(-0.00536988 -0.00475557 0)
(-0.00272282 -0.0126521 0)
(0.000938101 -0.0191526 0)
(0.00443056 -0.0216182 0)
(0.00743618 -0.0200114 0)
(0.00973562 -0.0157885 0)
(0.0111907 -0.0116449 0)
(0.0117787 -0.0084272 0)
(0.0117004 -0.00612811 0)
(0.011183 -0.00452169 0)
(0.0104023 -0.00326208 0)
(0.00947176 -0.00179882 0)
(0.00843858 0.000792027 0)
(0.00736118 0.00549977 0)
(0.00618315 0.0129839 0)
(0.00480939 0.0228318 0)
(0.00325366 0.0331619 0)
(0.00174122 0.0405994 0)
(0.000617715 0.0410255 0)
(7.95087e-05 0.0316925 0)
(-2.02334e-05 0.0131915 0)
(0.000132565 0.0114028 0)
(0.000927439 0.0296829 0)
(0.00194849 0.0421119 0)
(0.00276643 0.0471705 0)
(0.00299503 0.0455071 0)
(0.00253784 0.0393915 0)
(0.00159459 0.0312982 0)
(0.000511674 0.0229654 0)
(-0.000319754 0.0152141 0)
(-0.000632954 0.00820335 0)
(-7.90672e-05 0.000856184 0)
(0.00240774 -0.00763142 0)
(0.00504702 -0.0157086 0)
(0.00779974 -0.0215563 0)
(0.0101661 -0.0236201 0)
(0.0119583 -0.0214478 0)
(0.0130864 -0.0166806 0)
(0.0135386 -0.012023 0)
(0.013366 -0.00832237 0)
(0.0127412 -0.00558885 0)
(0.0118185 -0.0035968 0)
(0.0106993 -0.00199291 0)
(0.00944378 -0.000158338 0)
(0.00810857 0.00276392 0)
(0.00675408 0.00785334 0)
(0.00536935 0.0159212 0)
(0.00391366 0.0265001 0)
(0.00243337 0.0372845 0)
(0.00114545 0.0443342 0)
(0.00031724 0.0434446 0)
(4.31723e-06 0.0326071 0)
(-1.5812e-05 0.0132439 0)
(0.000136762 0.00858991 0)
(0.00114949 0.023914 0)
(0.00277283 0.0360037 0)
(0.00461182 0.0426863 0)
(0.00620984 0.0435115 0)
(0.00728757 0.0396298 0)
(0.00780061 0.0328257 0)
(0.00791755 0.0246924 0)
(0.00794895 0.0162766 0)
(0.00817539 0.00792773 0)
(0.0094247 -0.000844894 0)
(0.0112651 -0.00991094 0)
(0.0133262 -0.0179479 0)
(0.0150833 -0.0234081 0)
(0.0161519 -0.024892 0)
(0.0164274 -0.022097 0)
(0.0161249 -0.016816 0)
(0.0154505 -0.0117156 0)
(0.0145054 -0.00762549 0)
(0.0134059 -0.00452923 0)
(0.0121896 -0.00217791 0)
(0.0108396 -0.00012233 0)
(0.00937778 0.00215644 0)
(0.00786156 0.00546977 0)
(0.00630823 0.0110088 0)
(0.00471768 0.0196243 0)
(0.00312431 0.0307189 0)
(0.00165819 0.0415625 0)
(0.000566528 0.0477421 0)
(2.3775e-05 0.0452452 0)
(-8.26741e-05 0.0330186 0)
(-2.10281e-05 0.013139 0)
(0.00011091 0.00507821 0)
(0.00112353 0.015633 0)
(0.00301147 0.0256393 0)
(0.00551061 0.0327901 0)
(0.00819043 0.0357081 0)
(0.0107001 0.0344349 0)
(0.0128362 0.0298932 0)
(0.0145588 0.0232164 0)
(0.0159705 0.0153354 0)
(0.0172466 0.00673943 0)
(0.0189127 -0.00261715 0)
(0.0203641 -0.011781 0)
(0.021477 -0.0193776 0)
(0.0218343 -0.0240593 0)
(0.021181 -0.0247842 0)
(0.0196094 -0.0214313 0)
(0.0177025 -0.0158191 0)
(0.0158878 -0.0104869 0)
(0.0142775 -0.00623102 0)
(0.0128918 -0.00290624 0)
(0.0115344 -0.000159642 0)
(0.0101239 0.00231803 0)
(0.00868953 0.00498806 0)
(0.00715462 0.00877624 0)
(0.00542755 0.0149045 0)
(0.00346639 0.0242181 0)
(0.00157702 0.0357593 0)
(0.000198948 0.0461078 0)
(-0.000456536 0.0504459 0)
(-0.000506632 0.0458885 0)
(-0.000277307 0.0325729 0)
(-4.15259e-05 0.0126713 0)
(6.31247e-05 0.00161357 0)
(0.000808429 0.00639995 0)
(0.0024374 0.0125174 0)
(0.00491605 0.0183455 0)
(0.00795478 0.0221213 0)
(0.0112251 0.022957 0)
(0.0144586 0.0208891 0)
(0.0174867 0.0164434 0)
(0.0202672 0.0102557 0)
(0.022896 0.00272015 0)
(0.025097 -0.00559793 0)
(0.0263524 -0.0133531 0)
(0.0264158 -0.0194631 0)
(0.0251242 -0.0228639 0)
(0.022509 -0.0227219 0)
(0.0190099 -0.0190261 0)
(0.0156174 -0.0134452 0)
(0.0129165 -0.00825629 0)
(0.0109992 -0.00426833 0)
(0.00969155 -0.00105185 0)
(0.00825953 0.00180673 0)
(0.00687264 0.00445605 0)
(0.00525157 0.00764917 0)
(0.0032712 0.0125101 0)
(0.00112912 0.0202845 0)
(-0.000946935 0.0315109 0)
(-0.0022526 0.041856 0)
(-0.00266893 0.0490507 0)
(-0.00230154 0.0501243 0)
(-0.00149382 0.0434656 0)
(-0.000657743 0.029727 0)
(-8.62536e-05 0.0111463 0)
(6.75183e-06 -0.000346742 0)
(0.00033372 7.8218e-05 0)
(0.00126616 0.00185129 0)
(0.00303926 0.00466614 0)
(0.00565569 0.00741304 0)
(0.00890427 0.00887811 0)
(0.0125107 0.00842977 0)
(0.0162072 0.00590145 0)
(0.0195854 0.0013946 0)
(0.0222823 -0.00422686 0)
(0.0239344 -0.00971911 0)
(0.0241729 -0.014576 0)
(0.022802 -0.0181346 0)
(0.0198554 -0.0196791 0)
(0.0154802 -0.0185351 0)
(0.0106093 -0.0148218 0)
(0.00644659 -0.00984556 0)
(0.0035033 -0.00549423 0)
(0.0018985 -0.00230795 0)
(-0.000871306 0.00125279 0)
(-0.00234559 0.00424272 0)
(-0.00399856 0.0078222 0)
(-0.00564226 0.0126603 0)
(-0.00718352 0.0190721 0)
(-0.0082632 0.026958 0)
(-0.00854122 0.0354678 0)
(-0.0079323 0.0423658 0)
(-0.00655083 0.0456619 0)
(-0.00467724 0.0435519 0)
(-0.00271617 0.0355064 0)
(-0.00110225 0.0228042 0)
(-0.00013346 0.00791228 0)
(4.09001e-06 -0.000890273 0)
(0.000176402 -0.00247159 0)
(0.000670183 -0.00376249 0)
(0.00162917 -0.00457256 0)
(0.00313834 -0.00481079 0)
(0.00516462 -0.00470471 0)
(0.00748767 -0.00480139 0)
(0.00975113 -0.0054118 0)
(0.0116788 -0.00653906 0)
(0.0128472 -0.00834052 0)
(0.012905 -0.0105739 0)
(0.0116042 -0.0127347 0)
(0.00880226 -0.0142091 0)
(0.00469885 -0.0144189 0)
(-0.000920426 -0.0127028 0)
(-0.00583913 -0.00976225 0)
(-0.00953049 -0.0061678 0)
(-0.0124939 -0.00228832 0)
(-0.0159166 0.00142615 0)
(-0.0176081 0.00442702 0)
(-0.0190075 0.00747444 0)
(-0.0198752 0.0110629 0)
(-0.0201053 0.0154559 0)
(-0.0195938 0.0206791 0)
(-0.0182301 0.0263603 0)
(-0.0159955 0.0315885 0)
(-0.0130633 0.034896 0)
(-0.00973229 0.0348928 0)
(-0.00638 0.0306977 0)
(-0.00342051 0.0226972 0)
(-0.0012624 0.0128236 0)
(-0.000127453 0.00367507 0)
(3.01485e-05 -0.00145943 0)
(0.000191167 -0.00397701 0)
(0.000447236 -0.0059642 0)
(0.000747624 -0.00717362 0)
(0.00104059 -0.00754071 0)
(0.00129124 -0.00724386 0)
(0.00144492 -0.00665712 0)
(0.00139359 -0.00619542 0)
(0.000988153 -0.0061651 0)
(-2.14752e-05 -0.00672321 0)
(-0.00189105 -0.00764202 0)
(-0.00478536 -0.00852262 0)
(-0.00860055 -0.0090301 0)
(-0.0129983 -0.00890884 0)
(-0.0175787 -0.0080305 0)
(-0.0220106 -0.00617188 0)
(-0.0261758 -0.00304918 0)
(-0.0299651 0.000610598 0)
(-0.0323975 0.00364922 0)
(-0.0341037 0.00618105 0)
(-0.0349724 0.00850818 0)
(-0.0347215 0.0108755 0)
(-0.0331962 0.0134759 0)
(-0.0303548 0.0163036 0)
(-0.0262921 0.0190453 0)
(-0.0212914 0.0210563 0)
(-0.0158465 0.0214646 0)
(-0.0105566 0.0195092 0)
(-0.00599697 0.0150033 0)
(-0.00263941 0.00893067 0)
(-0.000719559 0.00341055 0)
(-2.25272e-05 0.000270591 0)
(-3.50539e-06 -0.00171888 0)
(-0.000151821 -0.00427509 0)
(-0.000538249 -0.0059067 0)
(-0.00124891 -0.00651122 0)
(-0.0023104 -0.0062145 0)
(-0.00369759 -0.00535663 0)
(-0.00535567 -0.00435438 0)
(-0.00724436 -0.00354251 0)
(-0.00937776 -0.00310483 0)
(-0.0118291 -0.00309489 0)
(-0.0146812 -0.00347156 0)
(-0.0179728 -0.00407861 0)
(-0.0216864 -0.00467052 0)
(-0.0257405 -0.0049034 0)
(-0.0299921 -0.00441753 0)
(-0.0342449 -0.00289871 0)
(-0.0382882 -0.000156029 0)
(-0.0414591 0.00304368 0)
(-0.0437677 0.00566477 0)
(-0.0453456 0.00751666 0)
(-0.0457184 0.00856554 0)
(-0.0444944 0.00892214 0)
(-0.041445 0.00872273 0)
(-0.0366091 0.0079973 0)
(-0.030357 0.006563 0)
(-0.0233127 0.00451542 0)
(-0.0162096 0.00234285 0)
(-0.00979097 0.000435305 0)
(-0.00471683 -0.000743445 0)
(-0.00148081 -0.000988534 0)
(-0.000111681 -0.000671966 0)
(7.17041e-05 -0.000228535 0)
(-6.70966e-05 -0.000724558 0)
(-0.000676288 -0.00160558 0)
(-0.00189177 -0.00182272 0)
(-0.003698 -0.0013682 0)
(-0.00592897 -0.000499796 0)
(-0.00840257 0.000402742 0)
(-0.010982 0.00106371 0)
(-0.0135952 0.00137444 0)
(-0.0162306 0.00132345 0)
(-0.0189245 0.000938583 0)
(-0.0217448 0.000276366 0)
(-0.0247586 -0.0005459 0)
(-0.0279908 -0.00133377 0)
(-0.031411 -0.00181371 0)
(-0.0349449 -0.00167199 0)
(-0.0383938 -0.000542611 0)
(-0.0414668 0.00181217 0)
(-0.0440041 0.00465262 0)
(-0.0460181 0.00680969 0)
(-0.0472609 0.00765955 0)
(-0.0473016 0.00689419 0)
(-0.0457622 0.00450038 0)
(-0.0424379 0.000640435 0)
(-0.0375435 -0.00431793 0)
(-0.0317767 -0.00933759 0)
(-0.0254603 -0.0136628 0)
(-0.0190277 -0.016707 0)
(-0.0129083 -0.0174742 0)
(-0.00752631 -0.0151485 0)
(-0.00334369 -0.00992711 0)
(-0.000840378 -0.00398125 0)
(-1.19042e-06 -0.000316555 0)
(-6.75194e-05 0.000955419 0)
(-0.00072992 0.00262687 0)
(-0.00201062 0.00403138 0)
(-0.00384333 0.00505342 0)
(-0.00602331 0.00567724 0)
(-0.00838681 0.00594924 0)
(-0.0108464 0.00591822 0)
(-0.0133647 0.00562008 0)
(-0.0159296 0.00508006 0)
(-0.0185437 0.0043195 0)
(-0.0212185 0.00336556 0)
(-0.0239613 0.00228708 0)
(-0.0267641 0.00122355 0)
(-0.0295783 0.000407761 0)
(-0.0322749 0.000228538 0)
(-0.034727 0.00105088 0)
(-0.036935 0.00311936 0)
(-0.0386257 0.00580088 0)
(-0.0397205 0.00771192 0)
(-0.0401514 0.00801888 0)
(-0.0397037 0.0062711 0)
(-0.0382124 0.00245251 0)
(-0.0356033 -0.00305623 0)
(-0.0326958 -0.00944349 0)
(-0.029265 -0.0162732 0)
(-0.0253301 -0.0228645 0)
(-0.0208865 -0.0281983 0)
(-0.0160051 -0.030918 0)
(-0.010888 -0.0295522 0)
(-0.00598358 -0.0232002 0)
(-0.00211773 -0.0129585 0)
(-0.000156548 -0.00315474 0)
(-5.28587e-05 0.00206905 0)
(-0.000561043 0.00535251 0)
(-0.00155458 0.00778585 0)
(-0.00300964 0.00929222 0)
(-0.00478846 0.00997589 0)
(-0.00675741 0.0100304 0)
(-0.00881703 0.0096382 0)
(-0.0109024 0.00892981 0)
(-0.0129796 0.00798665 0)
(-0.0150428 0.00686 0)
(-0.0171079 0.00558953 0)
(-0.0192014 0.00423882 0)
(-0.0213428 0.00293191 0)
(-0.0235114 0.00189287 0)
(-0.0255991 0.00143923 0)
(-0.0273822 0.00196329 0)
(-0.0286164 0.00373501 0)
(-0.0291071 0.00614263 0)
(-0.0289535 0.00778584 0)
(-0.0283527 0.00771495 0)
(-0.0273814 0.00539382 0)
(-0.0260766 0.000819322 0)
(-0.0245149 -0.00523036 0)
(-0.0234544 -0.0121369 0)
(-0.0222834 -0.0198814 0)
(-0.0208199 -0.0279255 0)
(-0.0187439 -0.035343 0)
(-0.0157808 -0.0406695 0)
(-0.0118693 -0.0418336 0)
(-0.00732773 -0.0366467 0)
(-0.00302902 -0.0240593 0)
(-0.000295927 -0.00748316 0)
(-2.96361e-05 0.00279678 0)
(-0.000388453 0.00720641 0)
(-0.00112583 0.010423 0)
(-0.00222911 0.0123245 0)
(-0.00357939 0.0130577 0)
(-0.00505003 0.0129198 0)
(-0.00653888 0.0122085 0)
(-0.0079776 0.0111471 0)
(-0.00933729 0.00987783 0)
(-0.0106304 0.008484 0)
(-0.0119039 0.00701258 0)
(-0.0132231 0.00551182 0)
(-0.0146451 0.00407486 0)
(-0.0161677 0.00288 0)
(-0.0176469 0.00221219 0)
(-0.0187321 0.00242883 0)
(-0.018989 0.00379626 0)
(-0.0182376 0.00582282 0)
(-0.0167613 0.00720472 0)
(-0.0149808 0.00700821 0)
(-0.0132616 0.00475361 0)
(-0.0117814 0.000288472 0)
(-0.0111145 -0.00537312 0)
(-0.0114926 -0.0119685 0)
(-0.0122097 -0.0197954 0)
(-0.0130408 -0.0284894 0)
(-0.0134751 -0.0374307 0)
(-0.0129388 -0.0453358 0)
(-0.0110102 -0.0497477 0)
(-0.00770604 -0.0474095 0)
(-0.00372825 -0.0348292 0)
(-0.000466482 -0.0125557 0)
(-2.57802e-05 0.00323505 0)
(-0.000328975 0.00838814 0)
(-0.000926989 0.0121389 0)
(-0.00176963 0.0142825 0)
(-0.00272264 0.014988 0)
(-0.00366104 0.0146392 0)
(-0.00449251 0.0136333 0)
(-0.00516466 0.0122762 0)
(-0.00567221 0.0107649 0)
(-0.00605955 0.00920918 0)
(-0.00640716 0.00765603 0)
(-0.00681349 0.00613293 0)
(-0.00737577 0.00469609 0)
(-0.00813651 0.00346168 0)
(-0.00897869 0.00265199 0)
(-0.00948324 0.00256955 0)
(-0.00900521 0.00347582 0)
(-0.00728355 0.00503414 0)
(-0.00471243 0.00613696 0)
(-0.00184979 0.00591528 0)
(0.000583231 0.00378364 0)
(0.00246929 -0.000158305 0)
(0.00229621 -0.00475953 0)
(0.00112585 -0.0103765 0)
(-0.000842133 -0.0177131 0)
(-0.00337747 -0.0261381 0)
(-0.00597919 -0.0355969 0)
(-0.00799332 -0.0453998 0)
(-0.00855424 -0.0529817 0)
(-0.00718984 -0.0544673 0)
(-0.00420993 -0.044022 0)
(-0.000670825 -0.0180282 0)
(-5.292e-05 0.00364405 0)
(-0.000472422 0.00937294 0)
(-0.0011059 0.0133924 0)
(-0.00179625 0.0155101 0)
(-0.00236872 0.016003 0)
(-0.00272266 0.015361 0)
(-0.00280665 0.0140595 0)
(-0.00260913 0.012462 0)
(-0.00216631 0.0107934 0)
(-0.00156329 0.00916838 0)
(-0.000900142 0.00762463 0)
(-0.000285994 0.00616848 0)
(0.000164469 0.00482012 0)
(0.000370867 0.00365139 0)
(0.00037651 0.00279782 0)
(0.00053896 0.00249093 0)
(0.00162045 0.00298876 0)
(0.00403381 0.00405069 0)
(0.00733172 0.00476626 0)
(0.010715 0.00439936 0)
(0.0133318 0.002498 0)
(0.0148735 -0.000519902 0)
(0.0144987 -0.00426779 0)
(0.0129712 -0.00896801 0)
(0.0104541 -0.014899 0)
(0.00701404 -0.0221499 0)
(0.00301108 -0.030888 0)
(-0.00129664 -0.0416097 0)
(-0.00457441 -0.0517191 0)
(-0.00573984 -0.0573918 0)
(-0.00443712 -0.0508174 0)
(-0.00092965 -0.0236012 0)
(-0.000143209 0.00431601 0)
(-0.000949648 0.0106099 0)
(-0.00179835 0.0145423 0)
(-0.00238297 0.0162382 0)
(-0.00250649 0.0162595 0)
(-0.00214505 0.0152202 0)
(-0.00132147 0.0136257 0)
(-9.27478e-05 0.0118247 0)
(0.00143265 0.0100612 0)
(0.00310377 0.00845936 0)
(0.00484118 0.00700303 0)
(0.00654222 0.00567864 0)
(0.00810383 0.00448564 0)
(0.00944892 0.00345786 0)
(0.0105832 0.00267394 0)
(0.0117553 0.00227951 0)
(0.0135087 0.00245214 0)
(0.0162539 0.00303323 0)
(0.0197438 0.00342581 0)
(0.0231997 0.00305548 0)
(0.0257505 0.00159516 0)
(0.0270063 -0.000668696 0)
(0.0265189 -0.00361428 0)
(0.0246908 -0.00739914 0)
(0.0216453 -0.0122437 0)
(0.0174801 -0.0182892 0)
(0.0124498 -0.0257769 0)
(0.00679662 -0.0351101 0)
(0.00104192 -0.0463291 0)
(-0.00310949 -0.0560517 0)
(-0.00424341 -0.0546789 0)
(-0.00123688 -0.0290043 0)
(-0.000363503 0.0056445 0)
(-0.00194724 0.0124595 0)
(-0.00307124 0.0157102 0)
(-0.00339483 0.0164721 0)
(-0.00280781 0.015758 0)
(-0.00143081 0.0142411 0)
(0.000635977 0.0123321 0)
(0.00310454 0.0104481 0)
(0.00582208 0.00874301 0)
(0.00867594 0.00725051 0)
(0.0115938 0.00593901 0)
(0.0144842 0.00478176 0)
(0.0172507 0.00376488 0)
(0.0198113 0.00290065 0)
(0.0221382 0.00223262 0)
(0.0243943 0.00184388 0)
(0.0268689 0.00184649 0)
(0.0298517 0.00213428 0)
(0.033279 0.00231553 0)
(0.0365421 0.00198623 0)
(0.0388838 0.00091336 0)
(0.0399024 -0.000743826 0)
(0.0392496 -0.00292083 0)
(0.0371285 -0.00574573 0)
(0.0335969 -0.00940021 0)
(0.0287128 -0.014085 0)
(0.0226423 -0.0201346 0)
(0.01564 -0.0280883 0)
(0.00814758 -0.0384714 0)
(0.00120156 -0.0504028 0)
(-0.00326011 -0.0551719 0)
(-0.0015149 -0.0339981 0)
(-0.000798326 0.00823501 0)
(-0.00354509 0.0150194 0)
(-0.00459512 0.0165851 0)
(-0.00405364 0.0158954 0)
(-0.00212017 0.014293 0)
(0.000906674 0.0122461 0)
(0.00454493 0.0102286 0)
(0.00847951 0.00844128 0)
(0.0125905 0.00690399 0)
(0.0167767 0.0056043 0)
(0.0209653 0.00450008 0)
(0.0250655 0.00355699 0)
(0.0289752 0.00275313 0)
(0.032599 0.00208639 0)
(0.0358847 0.00157665 0)
(0.0389441 0.00126633 0)
(0.0419045 0.00121739 0)
(0.0449765 0.00135359 0)
(0.048202 0.00141989 0)
(0.0511243 0.00115555 0)
(0.0531319 0.000407297 0)
(0.0538083 -0.000722476 0)
(0.0528757 -0.00219223 0)
(0.0504381 -0.00410033 0)
(0.0465051 -0.00658779 0)
(0.0410734 -0.00985324 0)
(0.0341945 -0.0142581 0)
(0.0260067 -0.0204451 0)
(0.0168493 -0.0293647 0)
(0.0075372 -0.0414632 0)
(-0.000754657 -0.0517321 0)
(-0.00150445 -0.038159 0)
(-0.00157484 0.0130586 0)
(-0.00515164 0.0176904 0)
(-0.0045961 0.0162237 0)
(-0.00167962 0.0138315 0)
(0.00292103 0.0113821 0)
(0.00807379 0.00921932 0)
(0.0135726 0.00737444 0)
(0.0191578 0.0058595 0)
(0.0247064 0.00462325 0)
(0.0301245 0.00362217 0)
(0.0353364 0.00280933 0)
(0.0402559 0.00214697 0)
(0.0447908 0.00160832 0)
(0.0488597 0.00118088 0)
(0.0524281 0.000866519 0)
(0.0556123 0.000680241 0)
(0.0585078 0.000646649 0)
(0.0613146 0.000711533 0)
(0.0641044 0.000726269 0)
(0.0665035 0.000544783 0)
(0.0680114 8.13965e-05 0)
(0.0682012 -0.000585035 0)
(0.0669248 -0.00143413 0)
(0.0642439 -0.00253185 0)
(0.0601466 -0.00397043 0)
(0.0545804 -0.00590022 0)
(0.0474713 -0.00863146 0)
(0.0387319 -0.0127941 0)
(0.0283705 -0.0195351 0)
(0.0167404 -0.0303039 0)
(0.00446822 -0.0435374 0)
(-0.00015727 -0.039618 0)
(-0.0012497 0.0182052 0)
(-0.00291945 0.0182572 0)
(0.00378924 0.0129498 0)
(0.0114569 0.00970796 0)
(0.0191195 0.007328 0)
(0.0264805 0.00548185 0)
(0.0335269 0.00407151 0)
(0.0401374 0.00301466 0)
(0.0462515 0.00222154 0)
(0.0518376 0.00162876 0)
(0.0568791 0.00118586 0)
(0.061359 0.00085408 0)
(0.0652604 0.000605442 0)
(0.0685787 0.00042293 0)
(0.0713502 0.00029894 0)
(0.0737276 0.000233898 0)
(0.0758511 0.000231584 0)
(0.0779027 0.00026204 0)
(0.0799037 0.000259838 0)
(0.0815235 0.000163528 0)
(0.0823664 -5.62545e-05 0)
(0.0820488 -0.000352384 0)
(0.0805777 -0.000717443 0)
(0.0779974 -0.00118534 0)
(0.074291 -0.00180082 0)
(0.0693841 -0.00264592 0)
(0.0631142 -0.00391655 0)
(0.0551545 -0.00607078 0)
(0.0449438 -0.0100881 0)
(0.0317399 -0.017687 0)
(0.0155255 -0.0297655 0)
(0.00631423 -0.0334248 0)
(0.0207549 0.0112912 0)
(0.0271 0.00924527 0)
(0.0402402 0.00543205 0)
(0.051108 0.00332496 0)
(0.0594211 0.00209175 0)
(0.0660607 0.00130111 0)
(0.0714917 0.000796617 0)
(0.0759325 0.000484672 0)
(0.0795598 0.000294034 0)
(0.0825231 0.000178632 0)
(0.0849437 0.000108925 0)
(0.0869139 6.64877e-05 0)
(0.0885018 4.0303e-05 0)
(0.089764 2.44646e-05 0)
(0.090764 1.61036e-05 0)
(0.0916103 1.45943e-05 0)
(0.0924143 2.00459e-05 0)
(0.093256 2.6804e-05 0)
(0.0940823 2.47587e-05 0)
(0.0946777 5.16322e-06 0)
(0.0948083 -3.27289e-05 0)
(0.0943371 -7.78981e-05 0)
(0.0932982 -0.000129299 0)
(0.0917223 -0.000194929 0)
(0.0895942 -0.000282337 0)
(0.0868512 -0.000406485 0)
(0.0833301 -0.000610207 0)
(0.0786235 -0.00100723 0)
(0.0717842 -0.00188015 0)
(0.060789 -0.0039788 0)
(0.0432168 -0.00917499 0)
(0.0285692 -0.0145101 0)
)
;

boundaryField
{
    movingWall
    {
        type            fixedValue;
        value           uniform (0.1 0 0);
    }
    fixedWalls
    {
        type            noSlip;
    }
    floor
    {
        type            noSlip;
    }
    frontAndBack
    {
        type            empty;
    }
}


// ************************************************************************* //
