/*--------------------------------*- C++ -*----------------------------------*\
| =========                 |                                                 |
| \\      /  F ield         | OpenFOAM: The Open Source CFD Toolbox           |
|  \\    /   O peration     | Version:  2212                                  |
|   \\  /    A nd           | Website:  www.openfoam.com                      |
|    \\/     M anipulation  |                                                 |
\*---------------------------------------------------------------------------*/
FoamFile
{
    version     2.0;
    format      ascii;
    arch        "LSB;label=64;scalar=64";
    class       volScalarField;
    location    "370";
    object      Xpr;
}
// * * * * * * * * * * * * * * * * * * * * * * * * * * * * * * * * * * * * * //

dimensions      [1 -3 0 0 0 0 0];

internalField   nonuniform List<scalar> 
1024
(
0.0823224
0.0823229
0.0823239
0.0823256
0.0823279
0.0823308
0.0823342
0.0823379
0.0823415
0.0823449
0.0823478
0.0823502
0.0823516
0.0823513
0.0823481
0.0823403
0.0823273
0.0823134
0.0823006
0.0822895
0.0822802
0.0822725
0.0822663
0.0822613
0.0822571
0.0822538
0.0822511
0.0822491
0.0822476
0.0822467
0.0822462
0.0822459
0.0823227
0.0823231
0.0823241
0.0823258
0.0823281
0.0823311
0.0823346
0.0823383
0.0823419
0.0823453
0.0823482
0.0823506
0.082352
0.0823518
0.0823486
0.0823408
0.0823278
0.0823137
0.0823009
0.0822898
0.0822804
0.0822727
0.0822664
0.0822614
0.0822573
0.0822539
0.0822512
0.0822492
0.0822477
0.0822467
0.0822462
0.0822459
0.082323
0.0823235
0.0823245
0.0823262
0.0823286
0.0823318
0.0823353
0.0823391
0.0823427
0.0823461
0.082349
0.0823515
0.0823531
0.082353
0.0823501
0.0823422
0.0823288
0.0823145
0.0823015
0.0822902
0.0822807
0.0822729
0.0822666
0.0822616
0.0822575
0.0822541
0.0822514
0.0822493
0.0822477
0.0822467
0.0822462
0.0822459
0.0823235
0.082324
0.082325
0.0823268
0.0823294
0.0823327
0.0823363
0.0823401
0.0823438
0.0823472
0.0823503
0.082353
0.0823549
0.0823554
0.0823528
0.0823449
0.0823308
0.0823158
0.0823023
0.0822907
0.082281
0.082273
0.0822666
0.0822615
0.0822575
0.0822542
0.0822515
0.0822493
0.0822478
0.0822467
0.0822461
0.0822459
0.0823241
0.0823245
0.0823256
0.0823275
0.0823302
0.0823337
0.0823374
0.0823413
0.082345
0.0823486
0.082352
0.0823551
0.0823578
0.0823591
0.0823573
0.0823493
0.082334
0.0823177
0.0823033
0.0822911
0.0822809
0.0822726
0.0822661
0.082261
0.0822571
0.0822539
0.0822513
0.0822492
0.0822477
0.0822466
0.082246
0.0822458
0.0823246
0.0823251
0.0823262
0.0823282
0.0823311
0.0823346
0.0823385
0.0823424
0.0823463
0.0823501
0.0823539
0.0823579
0.0823617
0.0823644
0.0823638
0.0823558
0.0823387
0.0823204
0.0823045
0.0822912
0.0822802
0.0822715
0.0822647
0.0822597
0.0822559
0.082253
0.0822507
0.0822488
0.0822474
0.0822464
0.0822458
0.0822456
0.0823251
0.0823256
0.0823267
0.0823288
0.0823317
0.0823352
0.0823392
0.0823432
0.0823472
0.0823514
0.0823559
0.0823609
0.0823663
0.0823711
0.0823723
0.0823645
0.0823452
0.0823241
0.0823059
0.0822908
0.0822787
0.0822692
0.0822622
0.0822572
0.0822538
0.0822513
0.0822495
0.082248
0.0822468
0.0822459
0.0822454
0.0822452
0.0823254
0.0823259
0.082327
0.082329
0.0823319
0.0823354
0.0823393
0.0823433
0.0823475
0.082352
0.0823572
0.0823634
0.0823708
0.0823783
0.0823824
0.0823754
0.0823537
0.0823289
0.0823075
0.08229
0.0822762
0.0822657
0.0822583
0.0822534
0.0822505
0.0822487
0.0822475
0.0822466
0.0822458
0.0822451
0.0822447
0.0822445
0.0823255
0.082326
0.0823271
0.0823289
0.0823316
0.082335
0.0823387
0.0823426
0.0823468
0.0823515
0.0823572
0.0823646
0.0823741
0.0823851
0.082393
0.0823877
0.0823639
0.0823349
0.0823094
0.0822887
0.0822726
0.0822609
0.0822529
0.0822483
0.082246
0.0822451
0.0822448
0.0822445
0.0822443
0.0822439
0.0822436
0.0822434
0.0823253
0.0823257
0.0823267
0.0823284
0.0823308
0.0823338
0.0823371
0.0823407
0.0823445
0.082349
0.0823549
0.0823631
0.0823749
0.0823901
0.0824032
0.0824007
0.0823752
0.0823416
0.0823115
0.0822869
0.0822681
0.0822548
0.0822463
0.0822419
0.0822404
0.0822406
0.0822413
0.0822419
0.0822422
0.0822422
0.082242
0.0822419
0.0823246
0.082325
0.0823259
0.0823273
0.0823293
0.0823317
0.0823344
0.0823372
0.0823403
0.0823442
0.0823497
0.0823585
0.0823727
0.0823932
0.0824128
0.0824138
0.0823867
0.0823483
0.082313
0.0822842
0.0822625
0.0822474
0.0822384
0.0822344
0.0822339
0.0822352
0.0822371
0.0822386
0.0822395
0.0822399
0.0822398
0.0822397
0.0823233
0.0823237
0.0823245
0.0823256
0.0823271
0.0823288
0.0823306
0.0823324
0.0823344
0.0823371
0.0823419
0.0823513
0.0823688
0.0823961
0.082423
0.0824268
0.0823971
0.0823534
0.0823127
0.0822797
0.0822551
0.0822385
0.0822292
0.0822258
0.0822264
0.0822291
0.0822321
0.0822346
0.0822361
0.0822368
0.0822369
0.0822368
0.0823209
0.0823213
0.082322
0.0823229
0.0823239
0.0823249
0.0823258
0.0823265
0.0823272
0.0823288
0.0823333
0.0823442
0.0823671
0.0824031
0.0824367
0.0824402
0.0824047
0.0823543
0.0823082
0.0822714
0.0822446
0.0822273
0.0822182
0.0822158
0.0822179
0.082222
0.0822264
0.0822299
0.082232
0.082233
0.0822332
0.0822331
0.0823173
0.0823177
0.0823185
0.0823194
0.0823203
0.0823209
0.0823211
0.0823207
0.0823204
0.0823215
0.0823272
0.0823431
0.0823753
0.0824211
0.0824577
0.0824536
0.0824062
0.0823468
0.0822955
0.0822563
0.082229
0.0822123
0.0822047
0.0822041
0.082208
0.0822139
0.0822196
0.0822239
0.0822266
0.0822278
0.0822281
0.0822281
0.0823119
0.0823117
0.0823114
0.0823113
0.0823113
0.0823114
0.0823116
0.082312
0.0823135
0.0823188
0.0823325
0.0823609
0.0824071
0.08246
0.082488
0.0824626
0.0823951
0.0823245
0.0822696
0.0822309
0.0822061
0.0821926
0.0821882
0.0821907
0.0821973
0.0822054
0.0822127
0.082218
0.0822211
0.0822224
0.0822227
0.0822226
0.0823402
0.0823385
0.0823353
0.0823309
0.0823266
0.0823235
0.082323
0.0823265
0.082336
0.0823543
0.0823854
0.082431
0.0824852
0.0825254
0.0825188
0.0824533
0.0823601
0.0822813
0.082228
0.0821953
0.0821774
0.0821704
0.0821712
0.0821772
0.0821859
0.0821949
0.0822026
0.0822082
0.0822115
0.082213
0.0822135
0.0822135
0.0824791
0.0824778
0.0824748
0.0824705
0.0824657
0.0824622
0.0824623
0.0824683
0.0824821
0.0825056
0.0825382
0.0825738
0.0825963
0.082581
0.0825139
0.0824088
0.0823046
0.0822318
0.0821892
0.0821675
0.0821602
0.0821625
0.0821708
0.0821816
0.0821921
0.0822002
0.0822053
0.0822077
0.0822083
0.0822083
0.0822082
0.0822083
0.0826454
0.0826459
0.0826464
0.0826466
0.0826465
0.0826464
0.0826474
0.0826508
0.0826568
0.082665
0.0826707
0.0826645
0.0826339
0.0825716
0.0824837
0.0823853
0.0822968
0.0822358
0.0822011
0.082183
0.0821741
0.0821701
0.0821688
0.0821692
0.0821708
0.082174
0.0821793
0.0821872
0.0821975
0.0822083
0.0822172
0.0822219
0.0827435
0.0827443
0.0827457
0.0827471
0.0827482
0.0827485
0.0827478
0.0827462
0.082743
0.0827366
0.0827237
0.0826995
0.0826604
0.0826058
0.0825388
0.0824643
0.0823951
0.082348
0.0823231
0.0823111
0.082306
0.0823052
0.0823081
0.0823154
0.0823283
0.0823475
0.0823726
0.0824022
0.0824329
0.08246
0.0824792
0.0824884
0.0827952
0.0827958
0.0827969
0.082798
0.0827991
0.0827999
0.0828001
0.0827994
0.0827974
0.0827928
0.082784
0.0827692
0.0827469
0.0827168
0.0826805
0.0826427
0.0826158
0.0826155
0.0826426
0.0826888
0.082747
0.08281
0.082872
0.0829295
0.0829801
0.0830221
0.0830543
0.0830758
0.0830872
0.0830909
0.0830907
0.08309
0.0828287
0.0828292
0.0828303
0.0828322
0.082835
0.0828389
0.082844
0.0828502
0.0828568
0.082863
0.0828679
0.0828703
0.0828694
0.082865
0.0828598
0.0828615
0.0828857
0.0829464
0.0830407
0.0831578
0.0832846
0.0834074
0.0835165
0.0836054
0.0836728
0.083717
0.0837383
0.0837383
0.0837216
0.0836967
0.083674
0.0836616
0.0828561
0.0828564
0.0828577
0.0828604
0.0828653
0.0828732
0.0828843
0.0828986
0.0829158
0.0829348
0.0829547
0.0829741
0.0829919
0.0830077
0.083024
0.0830504
0.0831048
0.0831997
0.0833268
0.0834695
0.0836098
0.0837329
0.083832
0.0839058
0.0839586
0.0839928
0.0840109
0.0840145
0.0840058
0.0839892
0.0839716
0.0839607
0.0828837
0.0828837
0.0828847
0.0828877
0.0828939
0.0829046
0.0829205
0.082942
0.0829685
0.0829989
0.083032
0.083066
0.0830991
0.0831298
0.083159
0.0831947
0.0832542
0.0833512
0.083476
0.0836089
0.0837306
0.0838292
0.0839029
0.0839572
0.0839982
0.0840297
0.0840531
0.0840683
0.0840752
0.0840747
0.0840696
0.0840649
0.0829171
0.0829165
0.0829165
0.0829188
0.0829253
0.0829377
0.0829574
0.0829845
0.0830187
0.0830585
0.0831024
0.0831482
0.0831936
0.0832358
0.0832738
0.0833117
0.0833634
0.0834435
0.0835473
0.0836572
0.083756
0.0838348
0.083895
0.0839429
0.0839837
0.08402
0.0840511
0.0840752
0.084091
0.0840987
0.0841002
0.0840991
0.0829626
0.0829607
0.0829589
0.0829598
0.082966
0.0829799
0.0830028
0.083035
0.0830757
0.0831231
0.0831752
0.0832298
0.0832842
0.083335
0.0833796
0.0834187
0.0834605
0.0835192
0.0835967
0.0836816
0.0837603
0.0838259
0.0838796
0.0839259
0.0839686
0.0840092
0.0840464
0.0840774
0.0840996
0.0841123
0.0841171
0.0841175
0.0830262
0.0830226
0.0830185
0.0830179
0.0830243
0.0830404
0.0830672
0.0831045
0.0831508
0.0832038
0.0832614
0.0833211
0.0833803
0.0834359
0.0834845
0.0835245
0.0835592
0.0836003
0.0836541
0.0837161
0.0837775
0.0838323
0.0838804
0.083924
0.0839658
0.0840068
0.0840461
0.0840806
0.0841072
0.0841237
0.0841311
0.0841324
0.0831136
0.0831079
0.0831019
0.0831011
0.0831096
0.0831295
0.0831613
0.0832034
0.0832537
0.0833095
0.0833687
0.0834291
0.0834884
0.0835441
0.083593
0.0836326
0.0836626
0.0836915
0.0837276
0.0837709
0.083817
0.0838611
0.0839019
0.0839405
0.0839781
0.0840159
0.084053
0.0840874
0.0841155
0.0841344
0.0841437
0.0841459
0.0832287
0.0832213
0.0832155
0.0832177
0.0832312
0.0832566
0.083293
0.0833379
0.0833888
0.0834433
0.0834994
0.0835556
0.0836102
0.0836612
0.0837063
0.0837428
0.0837687
0.0837897
0.0838135
0.0838427
0.0838757
0.0839092
0.0839416
0.083973
0.0840042
0.0840359
0.0840679
0.0840987
0.0841254
0.0841448
0.0841554
0.0841583
0.083375
0.0833676
0.0833662
0.0833753
0.0833955
0.0834256
0.0834634
0.0835066
0.0835531
0.0836012
0.0836494
0.0836969
0.0837425
0.0837849
0.0838225
0.0838531
0.0838744
0.0838896
0.0839051
0.0839241
0.0839465
0.0839702
0.0839939
0.0840174
0.0840409
0.084065
0.0840899
0.0841147
0.0841376
0.0841554
0.084166
0.0841694
0.0835562
0.0835527
0.0835603
0.0835774
0.0836015
0.0836311
0.0836645
0.0837002
0.0837371
0.0837741
0.0838105
0.0838457
0.0838792
0.0839103
0.0839379
0.0839606
0.0839762
0.0839867
0.0839964
0.084008
0.084022
0.0840373
0.0840529
0.0840686
0.0840844
0.0841007
0.0841177
0.0841353
0.0841523
0.0841666
0.0841759
0.0841794
0.0837791
0.0837838
0.0837987
0.0838168
0.0838369
0.0838585
0.0838812
0.0839043
0.0839275
0.0839503
0.0839724
0.0839936
0.0840136
0.0840321
0.0840486
0.0840621
0.0840715
0.0840776
0.0840828
0.084089
0.0840965
0.0841048
0.0841134
0.0841222
0.084131
0.08414
0.0841495
0.0841595
0.0841696
0.0841788
0.0841853
0.0841881
0.0840521
0.0840561
0.0840639
0.0840717
0.0840794
0.0840873
0.0840953
0.0841032
0.0841111
0.0841187
0.084126
0.0841329
0.0841395
0.0841456
0.0841509
0.0841554
0.0841585
0.0841604
0.0841621
0.084164
0.0841663
0.0841689
0.0841716
0.0841743
0.0841771
0.0841799
0.0841829
0.084186
0.0841893
0.0841923
0.0841947
0.0841959
)
;

boundaryField
{
    movingWall
    {
        type            fixedValue;
        value           uniform 0.0842;
    }
    fixedWalls
    {
        type            zeroGradient;
    }
    floor
    {
        type            zeroGradient;
    }
    frontAndBack
    {
        type            empty;
    }
}


// ************************************************************************* //
