/*--------------------------------*- C++ -*----------------------------------*\
| =========                 |                                                 |
| \\      /  F ield         | OpenFOAM: The Open Source CFD Toolbox           |
|  \\    /   O peration     | Version:  2206                                  |
|   \\  /    A nd           | Website:  www.openfoam.com                      |
|    \\/     M anipulation  |                                                 |
\*---------------------------------------------------------------------------*/
FoamFile
{
    version     2.0;
    format      ascii;
    arch        "LSB;label=64;scalar=64";
    class       volScalarField;
    location    "6";
    object      Gch4;
}
// * * * * * * * * * * * * * * * * * * * * * * * * * * * * * * * * * * * * * //

dimensions      [0 0 0 0 0 0 0];

internalField   nonuniform List<scalar> 
1024
(
1.45699e-15
1.60687e-15
2.07812e-15
2.99066e-15
4.53472e-15
6.98034e-15
1.0674e-14
1.60073e-14
2.33416e-14
3.28813e-14
4.45175e-14
5.77101e-14
7.14984e-14
8.46717e-14
9.59239e-14
1.03514e-13
1.04304e-13
9.81362e-14
8.79674e-14
7.54602e-14
6.19384e-14
4.86793e-14
3.67355e-14
2.67417e-14
1.88886e-14
1.3036e-14
8.8687e-15
6.02685e-15
4.18423e-15
3.0814e-15
2.53172e-15
2.41588e-15
1.95043e-15
2.14667e-15
2.76471e-15
3.95857e-15
5.9712e-15
9.14508e-15
1.39161e-14
2.07718e-14
3.01544e-14
4.23012e-14
5.70516e-14
7.37054e-14
9.1046e-14
1.07561e-13
1.21637e-13
1.31129e-13
1.32144e-13
1.24473e-13
1.11769e-13
9.6086e-14
7.90635e-14
6.23048e-14
4.71494e-14
3.4421e-14
2.4384e-14
1.68791e-14
1.15195e-14
7.85503e-15
5.47388e-15
4.04601e-15
3.33264e-15
3.17993e-15
3.496e-15
3.83515e-15
4.90668e-15
6.9685e-15
1.04236e-14
1.58337e-14
2.39045e-14
3.54113e-14
5.10376e-14
7.11155e-14
9.53221e-14
1.22469e-13
1.50566e-13
1.7719e-13
1.998e-13
2.15039e-13
2.16743e-13
2.04542e-13
1.84183e-13
1.58891e-13
1.31263e-13
1.03886e-13
7.89721e-14
5.79212e-14
4.12269e-14
2.86782e-14
1.96733e-14
1.34907e-14
9.45875e-15
7.03309e-15
5.81613e-15
5.54917e-15
7.3231e-15
8.00585e-15
1.01714e-14
1.43213e-14
2.12315e-14
3.1971e-14
4.78631e-14
7.03346e-14
1.00601e-13
1.3918e-13
1.85339e-13
2.36735e-13
2.89586e-13
3.39396e-13
3.81534e-13
4.09922e-13
4.13253e-13
3.90764e-13
3.52924e-13
3.05599e-13
2.5354e-13
2.01591e-13
1.5399e-13
1.13507e-13
8.12061e-14
5.67876e-14
3.91745e-14
2.70269e-14
1.90738e-14
1.42718e-14
1.18513e-14
1.13068e-14
1.67702e-14
1.82703e-14
2.30489e-14
3.21695e-14
4.72609e-14
7.05407e-14
1.04714e-13
1.5264e-13
2.16665e-13
2.97628e-13
3.93757e-13
5.00024e-13
6.08584e-13
7.10339e-13
7.96094e-13
8.53852e-13
8.60966e-13
8.15737e-13
7.38997e-13
6.42352e-13
5.3527e-13
4.27631e-13
3.28294e-13
2.43238e-13
1.74937e-13
1.23001e-13
8.534e-14
5.9244e-14
4.20888e-14
3.16915e-14
2.64263e-14
2.52154e-14
4.14104e-14
4.49542e-14
5.62985e-14
7.7863e-14
1.13317e-13
1.67597e-13
2.46634e-13
3.56559e-13
5.02198e-13
6.84874e-13
9.00068e-13
1.13618e-12
1.37575e-12
1.59902e-12
1.78647e-12
1.91273e-12
1.92908e-12
1.83152e-12
1.66455e-12
1.45274e-12
1.21624e-12
9.76618e-13
7.53766e-13
5.61545e-13
4.06129e-13
2.87203e-13
2.00476e-13
1.4008e-13
1.00203e-13
7.59382e-14
6.35955e-14
6.07053e-14
1.10931e-13
1.19979e-13
1.49107e-13
2.04249e-13
2.94318e-13
4.31155e-13
6.28753e-13
9.01244e-13
1.25919e-12
1.70438e-12
2.22449e-12
2.79064e-12
3.36087e-12
3.8891e-12
4.33088e-12
4.62858e-12
4.66923e-12
4.44278e-12
4.05168e-12
3.55167e-12
2.98865e-12
2.4132e-12
1.87341e-12
1.40401e-12
1.0216e-12
7.26951e-13
5.10742e-13
3.59352e-13
2.58916e-13
1.97546e-13
1.66192e-13
1.58748e-13
3.26297e-13
3.51549e-13
4.33369e-13
5.8763e-13
8.37927e-13
1.21519e-12
1.75536e-12
2.49371e-12
3.455e-12
4.63997e-12
6.01217e-12
7.49306e-12
8.97286e-12
1.03347e-11
1.14692e-11
1.22343e-11
1.23447e-11
1.17734e-11
1.0777e-11
9.49238e-12
8.03237e-12
6.52556e-12
5.09846e-12
3.84609e-12
2.81718e-12
2.01829e-12
1.42805e-12
1.01226e-12
7.34967e-13
5.64764e-13
4.77438e-13
4.56492e-13
1.06837e-12
1.14641e-12
1.40118e-12
1.87954e-12
2.65043e-12
3.80295e-12
5.43859e-12
7.65388e-12
1.05111e-11
1.39998e-11
1.80015e-11
2.22799e-11
2.65183e-11
3.03914e-11
3.36042e-11
3.57734e-11
3.61053e-11
3.45198e-11
3.17258e-11
2.80907e-11
2.39166e-11
1.95615e-11
1.53922e-11
1.16957e-11
8.62987e-12
6.22894e-12
4.44147e-12
3.17382e-12
2.32352e-12
1.79905e-12
1.52881e-12
1.46355e-12
3.94843e-12
4.21897e-12
5.11004e-12
6.77621e-12
9.44243e-12
1.33951e-11
1.8953e-11
2.64081e-11
3.59279e-11
4.74333e-11
6.04938e-11
7.4315e-11
8.78769e-11
1.00174e-10
1.10328e-10
1.17194e-10
1.18309e-10
1.13414e-10
1.04689e-10
9.3225e-11
7.99106e-11
6.58492e-11
5.22233e-11
4.00024e-11
2.97581e-11
2.16577e-11
1.5575e-11
1.12288e-11
8.29457e-12
6.47499e-12
5.53343e-12
5.30517e-12
1.66964e-11
1.77616e-11
2.13065e-11
2.79078e-11
3.83943e-11
5.38036e-11
7.52617e-11
1.03749e-10
1.39737e-10
1.82749e-10
2.31018e-10
2.81519e-10
3.30547e-10
3.74623e-10
4.10841e-10
4.35365e-10
4.39603e-10
4.22604e-10
3.91933e-10
3.51197e-10
3.03286e-10
2.51996e-10
2.01611e-10
1.55828e-10
1.16984e-10
8.59328e-11
6.23887e-11
4.54223e-11
3.3885e-11
2.66878e-11
2.29469e-11
2.20391e-11
8.18218e-11
8.66373e-11
1.02866e-10
1.32962e-10
1.80409e-10
2.49484e-10
3.44686e-10
4.69685e-10
6.25754e-10
8.09996e-10
1.01413e-09
1.22498e-09
1.42727e-09
1.60739e-09
1.75462e-09
1.85447e-09
1.87283e-09
1.80581e-09
1.68326e-09
1.51857e-09
1.32218e-09
1.10871e-09
8.95754e-10
6.99374e-10
5.30463e-10
3.93752e-10
2.88943e-10
2.12684e-10
1.604e-10
1.27567e-10
1.10421e-10
1.06266e-10
4.7007e-10
4.95308e-10
5.81668e-10
7.41166e-10
9.90631e-10
1.35026e-09
1.84045e-09
2.47634e-09
3.26006e-09
4.17255e-09
5.16908e-09
6.18371e-09
7.14431e-09
7.99067e-09
8.67835e-09
9.14547e-09
9.2369e-09
8.93446e-09
8.37337e-09
7.60985e-09
6.68535e-09
5.66332e-09
4.62594e-09
3.65314e-09
2.80326e-09
2.10559e-09
1.56393e-09
1.16545e-09
8.89682e-10
7.15196e-10
6.23613e-10
6.01514e-10
3.19706e-09
3.35151e-09
3.89001e-09
4.88065e-09
6.41728e-09
8.6093e-09
1.15613e-08
1.53399e-08
1.99295e-08
2.51904e-08
3.0843e-08
3.65057e-08
4.17879e-08
4.63878e-08
5.01006e-08
5.26261e-08
5.31506e-08
5.15789e-08
4.86184e-08
4.4536e-08
3.95104e-08
3.38492e-08
2.79899e-08
2.23899e-08
1.74096e-08
1.32544e-08
9.98123e-09
7.54257e-09
5.83662e-09
4.74792e-09
4.17328e-09
4.03557e-09
2.5937e-08
2.70456e-08
3.10023e-08
3.8254e-08
4.94043e-08
6.51292e-08
8.60245e-08
1.12371e-07
1.43847e-07
1.79293e-07
2.16678e-07
2.53451e-07
2.87188e-07
3.16186e-07
3.39416e-07
3.55225e-07
3.58689e-07
3.49245e-07
3.31191e-07
3.05955e-07
2.74331e-07
2.37963e-07
1.9949e-07
1.61917e-07
1.27814e-07
9.88228e-08
7.56007e-08
5.80432e-08
4.56071e-08
3.75915e-08
3.33342e-08
3.23242e-08
2.52218e-07
2.61564e-07
2.959e-07
3.58607e-07
4.54113e-07
5.87099e-07
7.61156e-07
9.76881e-07
1.22977e-06
1.5088e-06
1.79695e-06
2.07453e-06
2.32446e-06
2.53611e-06
2.70414e-06
2.81837e-06
2.84443e-06
2.77873e-06
2.65158e-06
2.47151e-06
2.24163e-06
1.97123e-06
1.6781e-06
1.38471e-06
1.11209e-06
8.75275e-07
6.81851e-07
5.33085e-07
4.26171e-07
3.56463e-07
3.19176e-07
3.10452e-07
2.75888e-06
2.8455e-06
3.17499e-06
3.77444e-06
4.67779e-06
5.91761e-06
7.51246e-06
9.45043e-06
1.16732e-05
1.40687e-05
1.6483e-05
1.8754e-05
2.07552e-05
2.24209e-05
2.37283e-05
2.46128e-05
2.48177e-05
2.43208e-05
2.33542e-05
2.19705e-05
2.01716e-05
1.80042e-05
1.55903e-05
1.31065e-05
1.07357e-05
8.62415e-06
6.85998e-06
5.4758e-06
4.46408e-06
3.79563e-06
3.43526e-06
3.35262e-06
2.68715e-05
2.75698e-05
3.03367e-05
3.53504e-05
4.28184e-05
5.29065e-05
6.56369e-05
8.07702e-05
9.77105e-05
0.000115498
0.000132948
0.000148938
0.000162699
0.000173937
0.00018264
0.000188482
0.000189822
0.000186561
0.000180237
0.000171118
0.000159062
0.000144183
0.000127137
0.000109064
9.12964e-05
7.50232e-05
6.10763e-05
4.98846e-05
4.15469e-05
3.59558e-05
3.29163e-05
3.22379e-05
0.000197118
0.000201256
0.00021846
0.00024952
0.000295238
0.000355983
0.000431112
0.000518381
0.000613598
0.000710869
0.000803651
0.000886388
0.000955896
0.00101158
0.00105412
0.00108244
0.00108881
0.00107299
0.00104253
0.000998389
0.000939169
0.000864405
0.000776312
0.000680002
0.000582336
0.000490179
0.000408994
0.000342231
0.000291447
0.000256834
0.000237845
0.000233738
0.0011049
0.00112315
0.00120339
0.00134781
0.00155788
0.00183236
0.00216491
0.0025421
0.00294288
0.00334084
0.00370961
0.00402951
0.00429186
0.00449807
0.00465356
0.00475615
0.00477861
0.00472094
0.00461083
0.00445097
0.0042339
0.0039542
0.00361567
0.00323416
0.00283485
0.00244619
0.00209367
0.00179606
0.00156454
0.00140393
0.00131494
0.00129637
0.00479658
0.00485709
0.00514106
0.0056511
0.00638472
0.00732767
0.008447
0.00968652
0.0109686
0.0122056
0.0133188
0.0142584
0.015011
0.0155919
0.0160245
0.0163076
0.0163678
0.0162069
0.015903
0.0154616
0.014857
0.0140643
0.0130815
0.0119416
0.010711
0.0094752
0.00832002
0.00731743
0.0065185
0.00595365
0.00563721
0.00557367
0.0164165
0.0165697
0.0173447
0.018736
0.0207176
0.0232264
0.0261469
0.029306
0.0324878
0.0354708
0.0380791
0.0402225
0.0419017
0.0431764
0.0441151
0.0447247
0.0448501
0.0444991
0.0438428
0.0428913
0.0415799
0.0398373
0.0376325
0.0350102
0.0320976
0.0290835
0.0261803
0.0235879
0.021469
0.0199398
0.0190724
0.0189047
0.0452899
0.0455915
0.0472571
0.0502536
0.0544905
0.0597858
0.0658407
0.0722453
0.07853
0.0842589
0.0891308
0.0930352
0.0960323
0.0982741
0.0999091
0.100964
0.101175
0.100558
0.099417
0.0977666
0.0954847
0.092424
0.0884923
0.0837213
0.0782952
0.0725295
0.0668178
0.0615714
0.0571683
0.0539186
0.0520479
0.0516979
0.103337
0.103808
0.106698
0.111932
0.119307
0.128433
0.138702
0.149333
0.159503
0.168526
0.176
0.181854
0.186268
0.189529
0.191888
0.193403
0.193696
0.192797
0.191148
0.18877
0.185479
0.18104
0.175281
0.168197
0.160004
0.151121
0.142113
0.133618
0.126292
0.120749
0.117497
0.116899
0.200465
0.201057
0.205222
0.212866
0.223651
0.236899
0.25158
0.266456
0.280334
0.292331
0.302032
0.309479
0.31501
0.319055
0.321964
0.323824
0.324173
0.323051
0.32101
0.318075
0.314013
0.30852
0.301356
0.292481
0.282129
0.270783
0.259101
0.247848
0.237882
0.230122
0.22545
0.224584
0.339867
0.340463
0.3456
0.355239
0.368911
0.385586
0.40376
0.421764
0.438145
0.451964
0.462902
0.471159
0.477217
0.481613
0.48476
0.486767
0.487133
0.485903
0.48368
0.480493
0.476086
0.47012
0.462322
0.452642
0.441345
0.428967
0.416188
0.403746
0.392477
0.383411
0.377748
0.376643
0.5166
0.517069
0.522665
0.533488
0.548911
0.567513
0.587375
0.606574
0.62362
0.63769
0.648629
0.656776
0.662698
0.666971
0.670021
0.671963
0.672309
0.671101
0.66893
0.665825
0.661536
0.655729
0.648132
0.638708
0.627762
0.615892
0.6038
0.592116
0.581429
0.572543
0.566696
0.565428
0.719863
0.720133
0.725707
0.736789
0.752496
0.771063
0.790387
0.808599
0.824413
0.837232
0.84706
0.854305
0.859538
0.863299
0.865978
0.867683
0.867981
0.866908
0.864986
0.862244
0.85846
0.853336
0.846628
0.838315
0.828716
0.818471
0.808321
0.798837
0.790323
0.783104
0.778036
0.77675
0.936726
0.936864
0.942105
0.952502
0.966862
0.983325
0.999984
1.01532
1.02841
1.03887
1.04681
1.05263
1.05681
1.05981
1.06194
1.0633
1.06353
1.06267
1.06113
1.05894
1.05591
1.05182
1.04645
1.0398
1.03215
1.0241
1.01639
1.00959
1.00389
0.999205
0.99573
0.994671
1.15513
1.15535
1.15999
1.16863
1.18001
1.1926
1.20502
1.21625
1.22572
1.23322
1.23889
1.24301
1.24597
1.24809
1.2496
1.25056
1.25072
1.25011
1.24902
1.24746
1.24532
1.24242
1.23861
1.23389
1.22846
1.22279
1.2175
1.21313
1.20989
1.20762
1.20603
1.20549
1.36538
1.36587
1.36931
1.37501
1.38212
1.38977
1.39719
1.40383
1.40939
1.41378
1.41707
1.41947
1.42119
1.42242
1.42329
1.42385
1.42394
1.42359
1.42295
1.42205
1.4208
1.41912
1.4169
1.41415
1.41098
1.40768
1.40463
1.40222
1.40065
1.39989
1.39968
1.39977
1.56041
1.56071
1.562
1.56396
1.56633
1.56885
1.57127
1.57342
1.57522
1.57664
1.57771
1.57848
1.57903
1.57943
1.57971
1.57989
1.57992
1.5798
1.5796
1.57931
1.5789
1.57836
1.57765
1.57676
1.57573
1.57465
1.57366
1.57289
1.57242
1.57227
1.57236
1.57253
)
;

boundaryField
{
    movingWall
    {
        type            fixedValue;
        value           uniform 1.6535;
    }
    fixedWalls
    {
        type            zeroGradient;
    }
    frontAndBack
    {
        type            empty;
    }
}


// ************************************************************************* //
