/*--------------------------------*- C++ -*----------------------------------*\
| =========                 |                                                 |
| \\      /  F ield         | OpenFOAM: The Open Source CFD Toolbox           |
|  \\    /   O peration     | Version:  2206                                  |
|   \\  /    A nd           | Website:  www.openfoam.com                      |
|    \\/     M anipulation  |                                                 |
\*---------------------------------------------------------------------------*/
FoamFile
{
    version     2.0;
    format      ascii;
    arch        "LSB;label=64;scalar=64";
    class       volScalarField;
    location    "10";
    object      Gch4_0;
}
// * * * * * * * * * * * * * * * * * * * * * * * * * * * * * * * * * * * * * //

dimensions      [0 0 0 0 0 0 0];

internalField   nonuniform List<scalar> 
1024
(
7.12138e-13
7.64542e-13
9.29174e-13
1.2382e-12
1.7401e-12
2.50018e-12
3.59779e-12
5.11764e-12
7.13246e-12
9.67635e-12
1.2713e-11
1.61106e-11
1.96415e-11
2.30127e-11
2.58983e-11
2.78704e-11
2.81746e-11
2.6735e-11
2.42236e-11
2.10514e-11
1.75626e-11
1.40896e-11
1.09067e-11
8.18604e-12
5.99268e-12
4.30964e-12
3.07314e-12
2.20296e-12
1.62214e-12
1.26608e-12
1.08544e-12
1.04606e-12
8.89944e-13
9.53994e-13
1.15573e-12
1.53384e-12
2.14636e-12
3.07109e-12
4.40198e-12
6.23857e-12
8.66521e-12
1.17195e-11
1.53547e-11
1.94114e-11
2.36173e-11
2.76252e-11
3.10509e-11
3.33923e-11
3.37601e-11
3.20618e-11
2.90867e-11
2.53176e-11
2.11606e-11
1.70107e-11
1.31968e-11
9.92804e-12
7.28596e-12
5.25355e-12
3.75693e-12
2.70158e-12
1.99595e-12
1.56268e-12
1.34232e-12
1.29353e-12
1.42381e-12
1.52242e-12
1.83438e-12
2.41759e-12
3.35818e-12
4.77054e-12
6.79143e-12
9.56377e-12
1.32058e-11
1.77651e-11
2.31645e-11
2.91625e-11
3.53562e-11
4.12387e-11
4.62549e-11
4.96836e-11
5.02397e-11
4.77816e-11
4.34424e-11
3.79166e-11
3.17916e-11
2.56472e-11
1.99732e-11
1.50874e-11
1.11204e-11
8.05559e-12
5.78971e-12
4.18629e-12
3.1109e-12
2.44858e-12
2.11026e-12
2.03358e-12
2.65088e-12
2.82667e-12
3.38581e-12
4.42824e-12
6.10129e-12
8.59865e-12
1.21492e-11
1.69885e-11
2.33058e-11
3.11669e-11
4.04248e-11
5.06569e-11
6.11751e-11
7.11269e-11
7.95906e-11
8.53768e-11
8.63498e-11
8.22588e-11
7.49728e-11
6.56385e-11
5.5233e-11
4.47357e-11
3.49888e-11
2.65513e-11
1.96655e-11
1.43199e-11
1.03501e-11
7.52984e-12
5.63165e-12
4.45841e-12
3.85613e-12
3.71626e-12
5.40031e-12
5.74263e-12
6.83779e-12
8.87413e-12
1.21266e-11
1.69533e-11
2.37723e-11
3.30071e-11
4.49875e-11
5.98071e-11
7.71631e-11
9.62467e-11
1.15773e-10
1.34175e-10
1.49784e-10
1.60459e-10
1.62321e-10
1.54888e-10
1.41527e-10
1.24302e-10
1.04986e-10
8.53835e-11
6.70773e-11
5.11423e-11
3.80688e-11
2.78689e-11
2.02595e-11
1.48316e-11
1.11648e-11
8.89008e-12
7.71662e-12
7.43818e-12
1.18037e-11
1.25171e-11
1.48141e-11
1.90737e-11
2.58448e-11
3.58349e-11
4.9861e-11
6.87363e-11
9.30725e-11
1.22997e-10
1.57847e-10
1.95962e-10
2.34772e-10
2.712e-10
3.02013e-10
3.23098e-10
3.26917e-10
3.12482e-10
2.86288e-10
2.52295e-10
2.13927e-10
1.74743e-10
1.37921e-10
1.05679e-10
7.90768e-11
5.82125e-11
4.25728e-11
3.13687e-11
2.37702e-11
1.90384e-11
1.6586e-11
1.59939e-11
2.77167e-11
2.93082e-11
3.4468e-11
4.40115e-11
5.91088e-11
8.12539e-11
1.12151e-10
1.53465e-10
2.06398e-10
2.71088e-10
3.4598e-10
4.27426e-10
5.09923e-10
5.87013e-10
6.52035e-10
6.96565e-10
7.04955e-10
6.75062e-10
6.20255e-10
5.48619e-10
4.67185e-10
3.83424e-10
3.04171e-10
2.34316e-10
1.76324e-10
1.30579e-10
9.61102e-11
7.13014e-11
5.44048e-11
4.38411e-11
3.83421e-11
3.69965e-11
7.05501e-11
7.43818e-11
8.68989e-11
1.09989e-10
1.46338e-10
1.9934e-10
2.72815e-10
3.70422e-10
4.9466e-10
6.45514e-10
8.1904e-10
1.00658e-09
1.19544e-09
1.37104e-09
1.5187e-09
1.61991e-09
1.63981e-09
1.57339e-09
1.45022e-09
1.28795e-09
1.102e-09
9.09189e-10
7.25327e-10
5.62062e-10
4.25582e-10
3.17235e-10
2.35121e-10
1.75713e-10
1.35064e-10
1.09543e-10
9.6202e-11
9.29058e-11
1.96901e-10
2.06961e-10
2.40105e-10
3.01084e-10
3.96596e-10
5.35021e-10
7.25649e-10
9.77148e-10
1.29504e-09
1.67834e-09
2.11613e-09
2.586e-09
3.05603e-09
3.49062e-09
3.85475e-09
4.10465e-09
4.15601e-09
3.99632e-09
3.69641e-09
3.2977e-09
2.83661e-09
2.35411e-09
1.88989e-09
1.47418e-09
1.12393e-09
8.4387e-10
6.30233e-10
4.74767e-10
3.67842e-10
3.00405e-10
2.65008e-10
2.56206e-10
6.09765e-10
6.38887e-10
7.35743e-10
9.13466e-10
1.1904e-09
1.58922e-09
2.13463e-09
2.84894e-09
3.74503e-09
4.8171e-09
6.03195e-09
7.32546e-09
8.60963e-09
9.78935e-09
1.07738e-08
1.14503e-08
1.15961e-08
1.1177e-08
1.03784e-08
9.3059e-09
8.05262e-09
6.7273e-09
5.43908e-09
4.27427e-09
3.28403e-09
2.48572e-09
1.87223e-09
1.42284e-09
1.11197e-09
9.14936e-10
8.11091e-10
7.85168e-10
2.11973e-09
2.21362e-09
2.52927e-09
3.10692e-09
4.0022e-09
5.28291e-09
7.02135e-09
9.28014e-09
1.20902e-08
1.54229e-08
1.91655e-08
2.31143e-08
2.70006e-08
3.05444e-08
3.3488e-08
3.55131e-08
3.59721e-08
3.47621e-08
3.24175e-08
2.92321e-08
2.54654e-08
2.14338e-08
1.74688e-08
1.38436e-08
1.07299e-08
8.19593e-09
6.23209e-09
4.78271e-09
3.77353e-09
3.13042e-09
2.79003e-09
2.70493e-09
8.36148e-09
8.70167e-09
9.85963e-09
1.19731e-08
1.523e-08
1.98559e-08
2.60847e-08
3.41072e-08
4.39947e-08
5.5606e-08
6.85116e-08
8.1986e-08
9.51145e-08
1.06984e-07
1.16791e-07
1.23546e-07
1.25161e-07
1.21292e-07
1.13649e-07
1.03128e-07
9.05182e-08
7.68341e-08
6.31929e-08
5.05604e-08
3.95806e-08
3.05482e-08
2.34795e-08
1.82174e-08
1.45263e-08
1.21596e-08
1.09014e-08
1.05871e-08
3.77816e-08
3.91768e-08
4.39949e-08
5.27652e-08
6.61995e-08
8.51336e-08
1.10403e-07
1.42633e-07
1.81937e-07
2.27574e-07
2.77699e-07
3.29406e-07
3.79207e-07
4.23795e-07
4.60408e-07
4.85654e-07
4.92024e-07
4.78259e-07
4.50457e-07
4.1162e-07
3.64349e-07
3.12235e-07
2.59473e-07
2.09886e-07
1.66192e-07
1.29794e-07
1.00988e-07
7.933e-08
6.40078e-08
5.41153e-08
4.8831e-08
4.75144e-08
1.9705e-07
2.03555e-07
2.26413e-07
2.67911e-07
3.31068e-07
4.19331e-07
5.35971e-07
6.83105e-07
8.60373e-07
1.06354e-06
1.28366e-06
1.50758e-06
1.72041e-06
1.90883e-06
2.06244e-06
2.16844e-06
2.19668e-06
2.14207e-06
2.02896e-06
1.86835e-06
1.66944e-06
1.44617e-06
1.21605e-06
9.96064e-07
7.99115e-07
6.32656e-07
4.9918e-07
3.97663e-07
3.25133e-07
2.77932e-07
2.52585e-07
2.46299e-07
1.1923e-06
1.22683e-06
1.35072e-06
1.57505e-06
1.9141e-06
2.38352e-06
2.99699e-06
3.76112e-06
4.669e-06
5.69399e-06
6.78702e-06
7.88127e-06
8.9055e-06
9.80047e-06
1.05239e-05
1.10229e-05
1.1163e-05
1.09216e-05
1.04078e-05
9.66496e-06
8.72706e-06
7.6525e-06
6.52203e-06
5.41977e-06
4.41452e-06
3.55035e-06
2.84673e-06
2.30433e-06
1.91232e-06
1.65486e-06
1.51577e-06
1.48151e-06
8.38466e-06
8.59255e-06
9.35782e-06
1.07401e-05
1.28131e-05
1.56531e-05
1.93174e-05
2.38155e-05
2.90737e-05
3.49072e-05
4.10143e-05
4.70148e-05
5.25316e-05
5.72782e-05
6.10738e-05
6.36864e-05
6.44529e-05
6.32704e-05
6.06814e-05
5.68681e-05
5.19499e-05
4.61833e-05
3.99716e-05
3.37741e-05
2.79982e-05
2.29327e-05
1.87332e-05
1.54439e-05
1.30343e-05
1.14347e-05
1.05646e-05
1.03523e-05
6.42196e-05
6.55452e-05
7.05729e-05
7.96277e-05
9.30894e-05
0.000111308
0.000134469
0.000162421
0.000194488
0.000229342
0.000265052
0.000299374
0.000330264
0.000356346
0.00037691
0.000390977
0.00039522
0.000389205
0.000375744
0.000355567
0.00032896
0.000296955
0.000261545
0.000225265
0.000190584
0.000159445
0.000133075
0.00011203
9.63661e-05
8.58373e-05
8.00667e-05
7.86786e-05
0.000429287
0.000436464
0.000464611
0.000515142
0.000589551
0.000688923
0.000813237
0.000960506
0.00112599
0.00130186
0.0014778
0.0016428
0.0017878
0.00190764
0.00200056
0.00206351
0.00208272
0.00205695
0.0019985
0.00190959
0.0017898
0.00164187
0.00147344
0.00129579
0.00112112
0.000960097
0.000820418
0.000706566
0.000620305
0.000561512
0.000529027
0.00052136
0.00215794
0.00218639
0.00230231
0.0025099
0.00281278
0.00321206
0.00370366
0.00427538
0.00490462
0.00555833
0.00619658
0.00678036
0.007281
0.00768586
0.00799447
0.00820139
0.00826509
0.00818379
0.00799753
0.00771083
0.00731699
0.00681832
0.0062343
0.00559982
0.00495745
0.00434851
0.00380659
0.00335473
0.00300575
0.00276431
0.00262973
0.00259861
0.00835264
0.00843715
0.00879654
0.00943918
0.0103693
0.011581
0.013051
0.0147311
0.0165438
0.0183856
0.0201411
0.0217072
0.0230179
0.0240552
0.0248327
0.0253485
0.0255081
0.0253129
0.0248626
0.0241638
0.0231885
0.0219262
0.0204086
0.0187124
0.0169443
0.0152196
0.0136431
0.0122967
0.0112354
0.0104893
0.0100694
0.00997422
0.0254853
0.0256777
0.0265363
0.0280722
0.0302819
0.0331335
0.0365503
0.0403957
0.0444695
0.0485221
0.0522957
0.055581
0.0582662
0.0603475
0.0618826
0.0628911
0.0632036
0.0628336
0.0619786
0.0606458
0.058765
0.0562887
0.0532462
0.0497587
0.0460226
0.0422748
0.0387544
0.0356715
0.033188
0.0314118
0.030401
0.0301755
0.0630468
0.0633917
0.0650189
0.0679404
0.0721327
0.0775109
0.0838962
0.090992
0.0983864
0.105597
0.112163
0.117745
0.122206
0.125596
0.128061
0.129665
0.130161
0.129586
0.128259
0.126189
0.123251
0.119342
0.114464
0.108764
0.102517
0.0960859
0.0898808
0.0843032
0.0797036
0.0763502
0.0744162
0.0739881
0.130429
0.130929
0.133457
0.138034
0.144618
0.153053
0.163011
0.173963
0.185203
0.195954
0.205528
0.213488
0.219716
0.224367
0.227704
0.229857
0.23052
0.229756
0.228003
0.225278
0.221408
0.216236
0.209737
0.20206
0.193513
0.184531
0.175646
0.16744
0.160493
0.155312
0.152271
0.151593
0.232749
0.233348
0.236674
0.242792
0.251672
0.263085
0.276518
0.291149
0.305932
0.319794
0.331874
0.341703
0.349248
0.354795
0.358732
0.361254
0.362023
0.361126
0.35909
0.355939
0.351476
0.345521
0.338044
0.329206
0.319323
0.308815
0.298208
0.288143
0.27936
0.272615
0.268554
0.267621
0.36867
0.369264
0.37308
0.3803
0.390945
0.404713
0.420865
0.438251
0.455511
0.471362
0.484884
0.49567
0.50381
0.509719
0.513874
0.516521
0.517316
0.516365
0.514228
0.51094
0.506301
0.50014
0.492458
0.483462
0.473492
0.462923
0.452152
0.441681
0.432219
0.424662
0.419933
0.418776
0.531333
0.531806
0.535736
0.543497
0.555176
0.570354
0.588021
0.606735
0.624935
0.641297
0.654978
0.665703
0.673684
0.679417
0.683419
0.685957
0.68671
0.685781
0.683719
0.680563
0.67613
0.670271
0.663034
0.654693
0.64565
0.636279
0.626828
0.617523
0.608797
0.601452
0.596574
0.595246
0.711083
0.711351
0.715099
0.722913
0.734876
0.750362
0.768106
0.786503
0.804002
0.819417
0.832082
0.84187
0.849074
0.854206
0.857771
0.860024
0.860684
0.859843
0.857996
0.855182
0.85124
0.846053
0.839697
0.832494
0.824916
0.817388
0.810106
0.803047
0.79624
0.790118
0.78568
0.784271
0.898102
0.898164
0.901607
0.909121
0.920614
0.935216
0.951536
0.968048
0.983422
0.996729
1.00751
1.01576
1.02178
1.02604
1.02899
1.03085
1.03139
1.03068
1.02914
1.02681
1.02354
1.01925
1.01402
1.00816
1.00218
0.996544
0.991497
0.986939
0.982591
0.9784
0.974963
0.973625
1.08402
1.08399
1.08716
1.09403
1.10422
1.11672
1.13028
1.14368
1.15593
1.16641
1.17481
1.18119
1.18582
1.18909
1.19134
1.19276
1.19317
1.19262
1.19144
1.18964
1.18714
1.18385
1.17984
1.17539
1.17093
1.16693
1.16367
1.16115
1.15902
1.15691
1.15486
1.15381
1.26251
1.26259
1.26547
1.27118
1.27912
1.28848
1.29835
1.30793
1.31658
1.32392
1.32978
1.3342
1.3374
1.33965
1.3412
1.34217
1.34245
1.34207
1.34125
1.34001
1.33828
1.33601
1.33324
1.33017
1.32712
1.32445
1.32246
1.32121
1.32051
1.31999
1.31933
1.31879
1.42921
1.42955
1.43177
1.43556
1.4405
1.44611
1.45192
1.4575
1.46251
1.46674
1.4701
1.47264
1.47447
1.47576
1.47664
1.4772
1.47736
1.47714
1.47667
1.47596
1.47497
1.47366
1.47207
1.47031
1.46856
1.46704
1.46595
1.46537
1.46527
1.46544
1.46563
1.46564
1.58134
1.58155
1.58241
1.58372
1.58536
1.58719
1.58907
1.59087
1.59248
1.59384
1.59492
1.59574
1.59632
1.59673
1.59702
1.59719
1.59725
1.59717
1.59702
1.5968
1.59648
1.59606
1.59555
1.59498
1.59441
1.59392
1.59357
1.5934
1.5934
1.59353
1.59372
1.59384
)
;

boundaryField
{
    movingWall
    {
        type            fixedValue;
        value           uniform 1.6535;
    }
    fixedWalls
    {
        type            zeroGradient;
    }
    frontAndBack
    {
        type            empty;
    }
}


// ************************************************************************* //
