/*--------------------------------*- C++ -*----------------------------------*\
| =========                 |                                                 |
| \\      /  F ield         | OpenFOAM: The Open Source CFD Toolbox           |
|  \\    /   O peration     | Version:  2206                                  |
|   \\  /    A nd           | Website:  www.openfoam.com                      |
|    \\/     M anipulation  |                                                 |
\*---------------------------------------------------------------------------*/
FoamFile
{
    version     2.0;
    format      ascii;
    arch        "LSB;label=64;scalar=64";
    class       surfaceScalarField;
    location    "10";
    object      phi;
}
// * * * * * * * * * * * * * * * * * * * * * * * * * * * * * * * * * * * * * //

dimensions      [0 3 -1 0 0 0 0];

oriented        oriented;

internalField   nonuniform List<scalar> 
1984
(
2.31726e-12
-2.32754e-12
-5.88585e-12
8.20268e-12
-3.28164e-11
2.693e-11
-8.07849e-11
4.79678e-11
-1.48503e-10
6.77173e-11
-2.33183e-10
8.46796e-11
-3.3247e-10
9.9286e-11
-4.45329e-10
1.12858e-10
-5.71511e-10
1.26181e-10
-7.10413e-10
1.38901e-10
-8.60046e-10
1.49633e-10
-1.01608e-09
1.56033e-10
-1.1707e-09
1.54619e-10
-1.31112e-09
1.40417e-10
-1.418e-09
1.06887e-10
-1.46336e-09
4.53512e-11
-1.4229e-09
-4.04572e-11
-1.31938e-09
-1.03522e-10
-1.18073e-09
-1.38651e-10
-1.02657e-09
-1.54164e-10
-8.70061e-10
-1.56506e-10
-7.19385e-10
-1.50677e-10
-5.79149e-10
-1.40238e-10
-4.51536e-10
-1.27614e-10
-3.37277e-10
-1.1426e-10
-2.36702e-10
-1.00577e-10
-1.50894e-10
-8.5809e-11
-8.22428e-11
-6.8652e-11
-3.35609e-11
-4.8683e-11
-6.15495e-12
-2.74069e-11
2.28177e-12
-8.43759e-12
2.28147e-12
-8.1964e-12
5.86851e-12
-4.95197e-11
4.95254e-11
-1.41143e-10
1.18553e-10
-2.91431e-10
1.98255e-10
-5.00176e-10
2.76461e-10
-7.61894e-10
3.46397e-10
-1.07066e-09
4.08055e-10
-1.42318e-09
4.65367e-10
-1.81805e-09
5.21051e-10
-2.2529e-09
5.73757e-10
-2.72124e-09
6.17969e-10
-3.20933e-09
6.44121e-10
-3.69255e-09
6.37839e-10
-4.13089e-09
5.78753e-10
-4.46357e-09
4.39565e-10
-4.60357e-09
1.85348e-10
-4.47676e-09
-1.67273e-10
-4.15317e-09
-4.2711e-10
-3.71963e-09
-5.72191e-10
-3.23767e-09
-6.36126e-10
-2.74834e-09
-6.4584e-10
-2.27722e-09
-6.21804e-10
-1.83878e-09
-5.78677e-10
-1.44007e-09
-5.26331e-10
-1.0838e-09
-4.70533e-10
-7.71567e-10
-4.12808e-10
-5.06828e-10
-3.50549e-10
-2.95591e-10
-2.79891e-10
-1.43392e-10
-2.00883e-10
-5.04626e-11
-1.20337e-10
-8.41583e-12
-5.04855e-11
-6.13466e-12
-2.69138e-11
3.27821e-11
-1.18589e-10
1.412e-10
-2.93611e-10
2.93574e-10
-5.64506e-10
4.69149e-10
-9.33612e-10
6.45567e-10
-1.39503e-09
8.07814e-10
-1.94072e-09
9.53746e-10
-2.56538e-09
1.09003e-09
-3.26612e-09
1.22179e-09
-4.03815e-09
1.34578e-09
-4.86953e-09
1.44935e-09
-5.73564e-09
1.51023e-09
-6.59259e-09
1.49479e-09
-7.36931e-09
1.35547e-09
-7.95776e-09
1.02802e-09
-8.20411e-09
4.31694e-10
-7.97833e-09
-3.93053e-10
-7.40408e-09
-1.00136e-09
-6.63487e-09
-1.3414e-09
-5.77991e-09
-1.49109e-09
-4.91189e-09
-1.51386e-09
-4.07618e-09
-1.45751e-09
-3.29859e-09
-1.35627e-09
-2.59187e-09
-1.23305e-09
-1.96136e-09
-1.10105e-09
-1.41029e-09
-9.63875e-10
-9.44192e-10
-8.16653e-10
-5.71222e-10
-6.52862e-10
-2.9735e-10
-4.74757e-10
-1.20245e-10
-2.97444e-10
-2.73422e-11
-1.43389e-10
-3.34771e-11
-4.80545e-11
8.08361e-11
-1.9885e-10
2.91996e-10
-4.70567e-10
5.65289e-10
-8.76507e-10
8.75089e-10
-1.42016e-09
1.18922e-09
-2.09582e-09
1.48348e-09
-2.89465e-09
1.75257e-09
-3.81021e-09
2.00559e-09
-4.83827e-09
2.24984e-09
-5.97132e-09
2.47884e-09
-7.19142e-09
2.66944e-09
-8.46212e-09
2.78092e-09
-9.71879e-09
2.75147e-09
-1.08571e-08
2.49372e-09
-1.17184e-08
1.88936e-09
-1.20777e-08
7.90994e-10
-1.17453e-08
-7.25473e-10
-1.09025e-08
-1.84416e-09
-9.77405e-09
-2.46985e-09
-8.51998e-09
-2.74516e-09
-7.24679e-09
-2.78705e-09
-6.02105e-09
-2.68325e-09
-4.88072e-09
-2.4966e-09
-3.84486e-09
-2.26891e-09
-2.92166e-09
-2.02425e-09
-2.11583e-09
-1.76971e-09
-1.43407e-09
-1.49841e-09
-8.85396e-10
-1.20154e-09
-4.75568e-10
-8.84586e-10
-2.01097e-10
-5.71916e-10
-4.86441e-11
-2.95844e-10
-8.21214e-11
-6.82503e-11
1.49086e-10
-2.79079e-10
5.02824e-10
-6.51882e-10
9.38091e-10
-1.19943e-09
1.42264e-09
-1.92435e-09
1.91414e-09
-2.82016e-09
2.37928e-09
-3.87742e-09
2.80983e-09
-5.08928e-09
3.21745e-09
-6.4506e-09
3.61115e-09
-7.95126e-09
3.9795e-09
-9.5671e-09
4.28528e-09
-1.12495e-08
4.46333e-09
-1.29127e-08
4.41468e-09
-1.44184e-08
3.99936e-09
-1.55568e-08
3.0278e-09
-1.60306e-08
1.26477e-09
-1.55893e-08
-1.16678e-09
-1.44732e-08
-2.96021e-09
-1.29794e-08
-3.96366e-09
-1.13193e-08
-4.40523e-09
-9.6339e-09
-4.47248e-09
-8.01124e-09
-4.30592e-09
-6.50179e-09
-4.00604e-09
-5.13104e-09
-3.63966e-09
-3.90995e-09
-3.24534e-09
-2.84423e-09
-2.83544e-09
-1.94107e-09
-2.40157e-09
-1.21011e-09
-1.9325e-09
-6.5788e-10
-1.43682e-09
-2.81764e-10
-9.48033e-10
-6.8948e-11
-5.08661e-10
-1.5107e-10
-8.63961e-11
2.35481e-10
-3.54136e-10
7.70563e-10
-8.264e-10
1.41035e-09
-1.51625e-09
2.11249e-09
-2.42451e-09
2.8224e-09
-3.54256e-09
3.49733e-09
-4.85959e-09
4.12686e-09
-6.3683e-09
4.72617e-09
-8.06298e-09
5.30583e-09
-9.93111e-09
5.84762e-09
-1.19424e-08
6.29653e-09
-1.40359e-08
6.55689e-09
-1.61048e-08
6.4836e-09
-1.79769e-08
5.87137e-09
-1.93916e-08
4.44253e-09
-1.99797e-08
1.85287e-09
-1.94299e-08
-1.71661e-09
-1.80415e-08
-4.34859e-09
-1.61834e-08
-5.82174e-09
-1.41182e-08
-6.47047e-09
-1.2021e-08
-6.56962e-09
-1.00017e-08
-6.32524e-09
-8.12321e-09
-5.88454e-09
-6.41738e-09
-5.3455e-09
-4.89776e-09
-4.76496e-09
-3.57073e-09
-4.16247e-09
-2.44401e-09
-3.52829e-09
-1.52863e-09
-2.84788e-09
-8.3331e-10
-2.13214e-09
-3.57199e-10
-1.42415e-09
-8.71803e-11
-7.78681e-10
-2.3825e-10
-1.03558e-10
3.39038e-10
-4.26668e-10
1.09367e-09
-9.98244e-10
1.98193e-09
-1.83324e-09
2.94748e-09
-2.93104e-09
3.9202e-09
-4.28e-09
4.84628e-09
-5.86688e-09
5.71374e-09
-7.68331e-09
6.5426e-09
-9.72287e-09
7.34539e-09
-1.19707e-08
8.0954e-09
-1.439e-08
8.7159e-09
-1.69075e-08
9.0744e-09
-1.93944e-08
8.97046e-09
-2.16435e-08
8.12046e-09
-2.33426e-08
6.14166e-09
-2.40489e-08
2.55915e-09
-2.33882e-08
-2.3773e-09
-2.17205e-08
-6.0163e-09
-1.94881e-08
-8.0542e-09
-1.70056e-08
-8.95291e-09
-1.44839e-08
-9.09138e-09
-1.20549e-08
-8.75423e-09
-9.79467e-09
-8.14473e-09
-7.74176e-09
-7.39841e-09
-5.91226e-09
-6.59446e-09
-4.3134e-09
-5.76133e-09
-2.95407e-09
-4.88762e-09
-1.84779e-09
-3.95416e-09
-1.00631e-09
-2.97362e-09
-4.30211e-10
-2.00024e-09
-1.04455e-10
-1.10444e-09
-3.42705e-10
-1.22085e-10
4.61122e-10
-5.04893e-10
1.47648e-09
-1.18419e-09
2.66123e-09
-2.17818e-09
3.94147e-09
-3.48551e-09
5.22752e-09
-5.0913e-09
6.45207e-09
-6.979e-09
7.60145e-09
-9.13835e-09
8.70195e-09
-1.15617e-08
9.76873e-09
-1.42313e-08
1.0765e-08
-1.71033e-08
1.1588e-08
-2.00903e-08
1.20614e-08
-2.30392e-08
1.19193e-08
-2.57044e-08
1.07857e-08
-2.77172e-08
8.15451e-09
-2.85545e-08
3.39645e-09
-2.77732e-08
-3.15867e-09
-2.57989e-08
-7.99053e-09
-2.31542e-08
-1.06989e-08
-2.02109e-08
-1.18962e-08
-1.72188e-08
-1.20835e-08
-1.43349e-08
-1.16381e-08
-1.16501e-08
-1.08296e-08
-9.2103e-09
-9.83822e-09
-7.03481e-09
-8.76995e-09
-5.1323e-09
-7.66384e-09
-3.51371e-09
-6.50622e-09
-2.19594e-09
-5.27193e-09
-1.19399e-09
-3.97557e-09
-5.09178e-10
-2.68506e-09
-1.23164e-10
-1.49045e-09
-4.65869e-10
-1.44431e-10
6.05551e-10
-5.98473e-10
1.93052e-09
-1.40572e-09
3.46848e-09
-2.58851e-09
5.12426e-09
-4.14524e-09
6.78425e-09
-6.0576e-09
8.36443e-09
-8.30504e-09
9.84889e-09
-1.08746e-08
1.12715e-08
-1.37567e-08
1.26508e-08
-1.69295e-08
1.39378e-08
-2.03406e-08
1.4999e-08
-2.38852e-08
1.5606e-08
-2.73813e-08
1.54154e-08
-3.05381e-08
1.39426e-08
-3.29209e-08
1.05373e-08
-3.39134e-08
4.38888e-09
-3.29919e-08
-4.08012e-09
-3.06583e-08
-1.03241e-08
-2.75278e-08
-1.38294e-08
-2.4039e-08
-1.5385e-08
-2.04881e-08
-1.56345e-08
-1.70621e-08
-1.50641e-08
-1.38697e-08
-1.40219e-08
-1.09667e-08
-1.27413e-08
-8.37641e-09
-1.13602e-08
-6.11e-09
-9.93025e-09
-4.18124e-09
-8.43498e-09
-2.61115e-09
-6.84203e-09
-1.4182e-09
-5.16853e-09
-6.03916e-10
-3.49934e-09
-1.45799e-10
-1.94857e-09
-6.11668e-10
-1.72938e-10
7.78488e-10
-7.17254e-10
2.47483e-09
-1.68592e-09
4.43715e-09
-3.10628e-09
6.54461e-09
-4.97652e-09
8.65449e-09
-7.27431e-09
1.06622e-08
-9.97419e-09
1.25488e-08
-1.30596e-08
1.43569e-08
-1.65179e-08
1.6109e-08
-2.03217e-08
1.77417e-08
-2.44067e-08
1.9084e-08
-2.86462e-08
1.98455e-08
-3.28216e-08
1.95907e-08
-3.65863e-08
1.77073e-08
-3.9425e-08
1.33761e-08
-4.06093e-08
5.57312e-09
-3.95184e-08
-5.17104e-09
-3.67446e-08
-1.30979e-08
-3.30151e-08
-1.75589e-08
-2.88499e-08
-1.95502e-08
-2.46024e-08
-1.9882e-08
-2.04978e-08
-1.91687e-08
-1.66683e-08
-1.78514e-08
-1.31821e-08
-1.62275e-08
-1.00692e-08
-1.44731e-08
-7.3441e-09
-1.26554e-08
-5.02446e-09
-1.07546e-08
-3.13641e-09
-8.73009e-09
-1.70252e-09
-6.60242e-09
-7.24492e-10
-4.47737e-09
-1.74757e-10
-2.49831e-09
-7.86425e-10
-2.10541e-10
9.89027e-10
-8.73633e-10
3.13792e-09
-2.05422e-09
5.61773e-09
-3.78588e-09
8.27626e-09
-6.0664e-09
1.0935e-08
-8.86808e-09
1.34639e-08
-1.2159e-08
1.58397e-08
-1.59176e-08
1.81155e-08
-2.01264e-08
2.03179e-08
-2.47501e-08
2.23654e-08
-2.97076e-08
2.40416e-08
-3.48425e-08
2.49803e-08
-3.98884e-08
2.46366e-08
-4.44277e-08
2.22466e-08
-4.7845e-08
1.67933e-08
-4.92733e-08
7.00148e-09
-4.79723e-08
-6.47206e-09
-4.46445e-08
-1.64257e-08
-4.01542e-08
-2.20492e-08
-3.51232e-08
-2.45812e-08
-2.9978e-08
-2.50272e-08
-2.49941e-08
-2.41527e-08
-2.03351e-08
-2.25104e-08
-1.60877e-08
-2.04749e-08
-1.22911e-08
-1.82697e-08
-8.96515e-09
-1.59813e-08
-6.13309e-09
-1.35867e-08
-3.82779e-09
-1.10354e-08
-2.0773e-09
-8.35291e-09
-8.837e-10
-5.67097e-09
-2.1307e-10
-3.16894e-09
-9.99495e-10
-2.61805e-10
1.25083e-09
-1.08666e-09
3.96278e-09
-2.55558e-09
7.08665e-09
-4.7103e-09
1.0431e-08
-7.54776e-09
1.37725e-08
-1.10326e-08
1.69488e-08
-1.51237e-08
1.99307e-08
-1.97918e-08
2.27836e-08
-2.5012e-08
2.55382e-08
-3.07362e-08
2.80895e-08
-3.68588e-08
3.01641e-08
-4.31815e-08
3.13031e-08
-4.93736e-08
3.08286e-08
-5.49248e-08
2.77978e-08
-5.90927e-08
2.09613e-08
-6.08391e-08
8.74788e-09
-5.92735e-08
-8.03768e-09
-5.52337e-08
-2.04656e-08
-4.97543e-08
-2.75286e-08
-4.35854e-08
-3.07501e-08
-3.72493e-08
-3.13632e-08
-3.10897e-08
-3.03123e-08
-2.53152e-08
-2.82849e-08
-2.00394e-08
-2.57507e-08
-1.53162e-08
-2.29929e-08
-1.11741e-08
-2.01234e-08
-7.64501e-09
-1.71158e-08
-4.77143e-09
-1.3909e-08
-2.58922e-09
-1.05351e-08
-1.10134e-09
-7.15886e-09
-2.65491e-10
-4.00479e-09
-1.26499e-09
-3.34342e-10
1.58517e-09
-1.38803e-09
5.01646e-09
-3.26453e-09
8.96315e-09
-6.0168e-09
1.31833e-08
-9.63993e-09
1.73956e-08
-1.40871e-08
2.13959e-08
-1.93027e-08
2.51464e-08
-2.52452e-08
2.87262e-08
-3.18769e-08
3.21698e-08
-3.91278e-08
3.53405e-08
-4.68547e-08
3.7891e-08
-5.4798e-08
3.92463e-08
-6.25364e-08
3.85671e-08
-6.94372e-08
3.46986e-08
-7.45971e-08
2.61212e-08
-7.67657e-08
1.09165e-08
-7.48646e-08
-9.93879e-09
-6.98968e-08
-2.54333e-08
-6.31066e-08
-3.43189e-08
-5.54066e-08
-3.845e-08
-4.74468e-08
-3.9323e-08
-3.96661e-08
-3.8093e-08
-3.23401e-08
-3.56108e-08
-2.56246e-08
-3.24662e-08
-1.9598e-08
-2.90195e-08
-1.43044e-08
-2.5417e-08
-9.7893e-09
-2.16309e-08
-6.11066e-09
-1.75876e-08
-3.31618e-09
-1.33296e-08
-1.41053e-09
-9.0645e-09
-3.39991e-10
-5.07533e-09
-1.60498e-09
-4.41479e-10
2.02665e-09
-1.8329e-09
6.40788e-09
-4.31052e-09
1.14408e-08
-7.94313e-09
1.68159e-08
-1.27221e-08
2.21746e-08
-1.8582e-08
2.72558e-08
-2.54437e-08
3.2008e-08
-3.32435e-08
3.65259e-08
-4.19188e-08
4.08451e-08
-5.13617e-08
4.47833e-08
-6.13657e-08
4.7895e-08
-7.15763e-08
4.9457e-08
-8.14429e-08
4.84337e-08
-9.01686e-08
4.34243e-08
-9.66508e-08
3.26034e-08
-9.93853e-08
1.3651e-08
-9.70635e-08
-1.22607e-08
-9.08832e-08
-3.16136e-08
-8.23376e-08
-4.28645e-08
-7.25403e-08
-4.82473e-08
-6.2311e-08
-4.95523e-08
-5.2227e-08
-4.8177e-08
-4.26675e-08
-4.51704e-08
-3.38588e-08
-4.12749e-08
-2.59238e-08
-3.69545e-08
-1.89356e-08
-3.24051e-08
-1.29652e-08
-2.76013e-08
-8.09578e-09
-2.2457e-08
-4.39443e-09
-1.7031e-08
-1.86942e-09
-1.15895e-08
-4.50636e-10
-6.49412e-09
-2.05561e-09
-6.07604e-10
2.63425e-09
-2.5227e-09
8.32297e-09
-5.9318e-09
1.48499e-08
-1.09269e-08
2.1811e-08
-1.74911e-08
2.87388e-08
-2.55261e-08
3.52907e-08
-3.49098e-08
4.13918e-08
-4.55351e-08
4.71512e-08
-5.72884e-08
5.25983e-08
-6.99871e-08
5.74821e-08
-8.33132e-08
6.1221e-08
-9.67579e-08
6.29018e-08
-1.0958e-07
6.12559e-08
-1.20769e-07
5.46136e-08
-1.28995e-07
4.08286e-08
-1.32481e-07
1.71369e-08
-1.29657e-07
-1.50837e-08
-1.2193e-07
-3.93412e-08
-1.11053e-07
-5.37415e-08
-9.83667e-08
-6.09334e-08
-8.49107e-08
-6.30083e-08
-7.14648e-08
-6.16229e-08
-5.8577e-08
-5.80581e-08
-4.66002e-08
-5.32518e-08
-3.57438e-08
-4.78109e-08
-2.61414e-08
-4.20075e-08
-1.79141e-08
-3.58286e-08
-1.11922e-08
-2.91789e-08
-6.07738e-09
-2.21458e-08
-2.58591e-09
-1.5081e-08
-6.23398e-10
-8.45663e-09
-2.67901e-09
-8.81607e-10
3.51587e-09
-3.66007e-09
1.11014e-08
-8.60296e-09
1.97928e-08
-1.58365e-08
2.90445e-08
-2.53234e-08
3.82258e-08
-3.69005e-08
4.68678e-08
-5.0359e-08
5.48503e-08
-6.54962e-08
6.22885e-08
-8.20838e-08
6.91859e-08
-9.97811e-08
7.51794e-08
-1.18056e-07
7.94955e-08
-1.36137e-07
8.09828e-08
-1.53005e-07
7.8124e-08
-1.67399e-07
6.90082e-08
-1.77794e-07
5.12232e-08
-1.82225e-07
2.15676e-08
-1.78898e-07
-1.84108e-08
-1.69364e-07
-4.88751e-08
-1.55549e-07
-6.75558e-08
-1.38976e-07
-7.75069e-08
-1.20931e-07
-8.10536e-08
-1.02485e-07
-8.00688e-08
-8.44725e-08
-7.60703e-08
-6.74893e-08
-7.0235e-08
-5.19292e-08
-6.3371e-08
-3.80628e-08
-5.58739e-08
-2.61232e-08
-4.77682e-08
-1.63376e-08
-3.89645e-08
-8.87726e-09
-2.96062e-08
-3.77879e-09
-2.01795e-08
-9.11146e-10
-1.13243e-08
-3.59016e-09
-1.17461e-09
4.69048e-09
-4.87091e-09
1.47977e-08
-1.14362e-08
2.63581e-08
-2.10226e-08
3.86309e-08
-3.35531e-08
5.07563e-08
-4.87654e-08
6.20801e-08
-6.63125e-08
7.23974e-08
-8.58242e-08
8.18002e-08
-1.06865e-07
9.02263e-08
-1.28835e-07
9.71494e-08
-1.50906e-07
1.01567e-07
-1.72031e-07
1.02108e-07
-1.91013e-07
9.71059e-08
-2.06602e-07
8.45973e-08
-2.17515e-07
6.21355e-08
-2.222e-07
2.62525e-08
-2.19117e-07
-2.14939e-08
-2.09525e-07
-5.84669e-08
-1.94918e-07
-8.21629e-08
-1.76531e-07
-9.5894e-08
-1.55602e-07
-1.01982e-07
-1.33368e-07
-1.02303e-07
-1.10955e-07
-9.84831e-08
-8.92904e-08
-9.18993e-08
-6.90718e-08
-8.35896e-08
-5.08199e-08
-7.41259e-08
-3.49698e-08
-6.36183e-08
-2.191e-08
-5.20242e-08
-1.19209e-08
-3.95953e-08
-5.0801e-09
-2.70203e-08
-1.22653e-09
-1.51779e-08
-4.81668e-09
-1.40065e-09
6.09113e-09
-5.80036e-09
1.91975e-08
-1.35981e-08
3.41558e-08
-2.49455e-08
4.99783e-08
-3.96984e-08
6.55091e-08
-5.74591e-08
7.98408e-08
-7.76863e-08
9.26246e-08
-9.97632e-08
1.03877e-07
-1.2296e-07
1.13423e-07
-1.46362e-07
1.20551e-07
-1.68867e-07
1.24072e-07
-1.89297e-07
1.22538e-07
-2.06578e-07
1.14387e-07
-2.199e-07
9.79199e-08
-2.28746e-07
7.09811e-08
-2.32586e-07
3.00922e-08
-2.30641e-07
-2.34385e-08
-2.23473e-07
-6.56345e-08
-2.11559e-07
-9.40775e-08
-1.95302e-07
-1.12151e-07
-1.75411e-07
-1.21874e-07
-1.52925e-07
-1.24789e-07
-1.29073e-07
-1.22336e-07
-1.0507e-07
-1.15902e-07
-8.19821e-08
-1.06677e-07
-6.06894e-08
-9.54186e-08
-4.19352e-08
-8.23725e-08
-2.63464e-08
-6.76131e-08
-1.43609e-08
-5.15809e-08
-6.1282e-09
-3.52531e-08
-1.48162e-09
-1.98246e-08
-6.29831e-09
-1.68614e-09
7.77727e-09
-6.97659e-09
2.44879e-08
-1.63284e-08
4.35076e-08
-2.98712e-08
6.35211e-08
-4.73348e-08
8.29728e-08
-6.80888e-08
1.00595e-07
-9.12677e-08
1.15803e-07
-1.15864e-07
1.28474e-07
-1.4073e-07
1.38289e-07
-1.64575e-07
1.44396e-07
-1.86077e-07
1.45574e-07
-2.04109e-07
1.4057e-07
-2.17983e-07
1.28261e-07
-2.27603e-07
1.07541e-07
-2.33408e-07
7.67852e-08
-2.35992e-07
3.26768e-08
-2.35438e-07
-2.39926e-08
-2.31588e-07
-6.94841e-08
-2.23835e-07
-1.01831e-07
-2.11574e-07
-1.24411e-07
-1.94677e-07
-1.38771e-07
-1.7365e-07
-1.45816e-07
-1.49557e-07
-1.46428e-07
-1.23799e-07
-1.4166e-07
-9.78551e-08
-1.32621e-07
-7.3122e-08
-1.20152e-07
-5.08466e-08
-1.04648e-07
-3.20722e-08
-8.63874e-08
-1.75222e-08
-6.6131e-08
-7.48594e-09
-4.52894e-08
-1.81069e-09
-2.54998e-08
-8.10899e-09
-2.06408e-09
9.84135e-09
-8.52675e-09
3.09506e-08
-1.99037e-08
5.48845e-08
-3.62554e-08
7.98728e-08
-5.70792e-08
1.03797e-07
-8.13474e-08
1.24863e-07
-1.07674e-07
1.4213e-07
-1.34483e-07
1.55282e-07
-1.60109e-07
1.63916e-07
-1.82934e-07
1.6722e-07
-2.01624e-07
1.64264e-07
-2.15422e-07
1.54369e-07
-2.2435e-07
1.37189e-07
-2.29212e-07
1.12402e-07
-2.31396e-07
7.89695e-08
-2.32491e-07
3.37721e-08
-2.33363e-07
-2.31209e-08
-2.33258e-07
-6.95887e-08
-2.30672e-07
-1.04418e-07
-2.24051e-07
-1.31032e-07
-2.12261e-07
-1.50561e-07
-1.94899e-07
-1.63179e-07
-1.72429e-07
-1.68897e-07
-1.46098e-07
-1.67992e-07
-1.1768e-07
-1.61039e-07
-8.91887e-08
-1.48643e-07
-6.26277e-08
-1.31209e-07
-3.97477e-08
-1.09268e-07
-2.17911e-08
-8.40874e-08
-9.32511e-09
-5.77555e-08
-2.25682e-09
-3.25681e-08
-1.03658e-08
-2.58574e-09
1.24271e-08
-1.06562e-08
3.90211e-08
-2.47713e-08
6.89996e-08
-4.48187e-08
9.99202e-08
-6.98583e-08
1.28836e-07
-9.81885e-08
1.53193e-07
-1.27629e-07
1.71571e-07
-1.55866e-07
1.83519e-07
-1.80748e-07
1.88798e-07
-2.00582e-07
1.87054e-07
-2.14435e-07
1.78117e-07
-2.22337e-07
1.62271e-07
-2.25266e-07
1.40118e-07
-2.24925e-07
1.12061e-07
-2.23431e-07
7.74756e-08
-2.23025e-07
3.33661e-08
-2.25142e-07
-2.1004e-08
-2.28646e-07
-6.60853e-08
-2.31513e-07
-1.0155e-07
-2.31564e-07
-1.30981e-07
-2.26756e-07
-1.5537e-07
-2.15551e-07
-1.74383e-07
-1.97303e-07
-1.87146e-07
-1.72488e-07
-1.92807e-07
-1.42712e-07
-1.90815e-07
-1.10481e-07
-1.80874e-07
-7.87809e-08
-1.6291e-07
-5.05029e-08
-1.37546e-07
-2.78452e-08
-1.06745e-07
-1.19456e-08
-7.36549e-08
-2.89215e-09
-4.16215e-08
-1.3258e-08
-3.34073e-09
1.57678e-08
-1.37104e-08
4.93907e-08
-3.16494e-08
8.69386e-08
-5.66422e-08
1.24913e-07
-8.6929e-08
1.59123e-07
-1.19704e-07
1.85968e-07
-1.51686e-07
2.03553e-07
-1.79799e-07
2.11632e-07
-2.01712e-07
2.10711e-07
-2.162e-07
2.01541e-07
-2.23289e-07
1.85207e-07
-2.2415e-07
1.63132e-07
-2.20753e-07
1.36721e-07
-2.15458e-07
1.06765e-07
-2.10714e-07
7.27324e-08
-2.08992e-07
3.16437e-08
-2.12024e-07
-1.79721e-08
-2.18509e-07
-5.96004e-08
-2.26338e-07
-9.37207e-08
-2.33191e-07
-1.24128e-07
-2.36526e-07
-1.52035e-07
-2.33798e-07
-1.7711e-07
-2.22923e-07
-1.9802e-07
-2.02859e-07
-2.12871e-07
-1.74132e-07
-2.19542e-07
-1.39087e-07
-2.15918e-07
-1.01619e-07
-2.00377e-07
-6.6259e-08
-1.72906e-07
-3.69105e-08
-1.36094e-07
-1.59127e-08
-9.46527e-08
-3.85692e-09
-5.36773e-08
-1.71149e-08
-4.49584e-09
2.02637e-08
-1.82978e-08
6.31927e-08
-4.17144e-08
1.10355e-07
-7.33188e-08
1.56517e-07
-1.09858e-07
1.95663e-07
-1.46862e-07
2.22971e-07
-1.79786e-07
2.36477e-07
-2.05148e-07
2.36994e-07
-2.21174e-07
2.26737e-07
-2.27887e-07
2.08254e-07
-2.26782e-07
1.84103e-07
-2.2025e-07
1.56599e-07
-2.10982e-07
1.27453e-07
-2.01554e-07
9.73374e-08
-1.94313e-07
6.54911e-08
-1.91577e-07
2.89082e-08
-1.95132e-07
-1.4417e-08
-2.03676e-07
-5.10568e-08
-2.15348e-07
-8.20482e-08
-2.28166e-07
-1.11309e-07
-2.39695e-07
-1.40507e-07
-2.46941e-07
-1.69864e-07
-2.46574e-07
-1.98388e-07
-2.35552e-07
-2.23893e-07
-2.1215e-07
-2.42943e-07
-1.77125e-07
-2.50944e-07
-1.34365e-07
-2.43137e-07
-9.01834e-08
-2.17087e-07
-5.12416e-08
-1.75035e-07
-2.23459e-08
-1.23548e-07
-5.44476e-09
-7.05784e-08
-2.25596e-08
-6.36425e-09
2.66279e-08
-2.54438e-08
8.22722e-08
-5.66947e-08
1.41606e-07
-9.67379e-08
1.96561e-07
-1.39814e-07
2.38739e-07
-1.79332e-07
2.6249e-07
-2.09868e-07
2.67013e-07
-2.28559e-07
2.55685e-07
-2.35328e-07
2.33506e-07
-2.32202e-07
2.05128e-07
-2.22291e-07
1.74192e-07
-2.08862e-07
1.4317e-07
-1.94786e-07
1.13377e-07
-1.82356e-07
8.49079e-08
-1.73464e-07
5.65984e-08
-1.70031e-07
2.54753e-08
-1.73717e-07
-1.07312e-08
-1.83306e-07
-4.14674e-08
-1.97349e-07
-6.8005e-08
-2.14497e-07
-9.41616e-08
-2.32983e-07
-1.22021e-07
-2.5019e-07
-1.52657e-07
-2.62394e-07
-1.86184e-07
-2.64908e-07
-2.2138e-07
-2.53022e-07
-2.54829e-07
-2.23975e-07
-2.79991e-07
-1.79364e-07
-2.87748e-07
-1.26082e-07
-2.7037e-07
-7.42579e-08
-2.26859e-07
-3.32097e-08
-1.64597e-07
-8.23273e-09
-9.55553e-08
-3.07924e-08
-9.45529e-09
3.60832e-08
-3.64904e-08
1.09307e-07
-7.81648e-08
1.8328e-07
-1.27346e-07
2.45741e-07
-1.7473e-07
2.86123e-07
-2.11949e-07
2.99708e-07
-2.34182e-07
2.89246e-07
-2.40948e-07
2.62451e-07
-2.3505e-07
2.27609e-07
-2.20762e-07
1.9084e-07
-2.02325e-07
1.55755e-07
-1.83134e-07
1.23979e-07
-1.65586e-07
9.58282e-08
-1.51286e-07
7.06084e-08
-1.41476e-07
4.67879e-08
-1.37574e-07
2.15736e-08
-1.41016e-07
-7.28983e-09
-1.5069e-07
-3.1793e-08
-1.65543e-07
-5.31515e-08
-1.84902e-07
-7.48027e-08
-2.0794e-07
-9.89833e-08
-2.33128e-07
-1.27469e-07
-2.57564e-07
-1.61748e-07
-2.76339e-07
-2.02604e-07
-2.8251e-07
-2.48658e-07
-2.68722e-07
-2.93779e-07
-2.31134e-07
-3.25337e-07
-1.73612e-07
-3.27892e-07
-1.08268e-07
-2.92203e-07
-5.06966e-08
-2.22168e-07
-1.30556e-08
-1.33196e-07
-4.38479e-08
-1.43733e-08
5.04565e-08
-5.21898e-08
1.47124e-07
-1.04987e-07
2.36077e-07
-1.59662e-07
3.00416e-07
-2.03513e-07
3.29974e-07
-2.2866e-07
3.24855e-07
-2.33768e-07
2.94354e-07
-2.22674e-07
2.51358e-07
-2.01445e-07
2.06379e-07
-1.75823e-07
1.65218e-07
-1.50017e-07
1.29949e-07
-1.26599e-07
1.00562e-07
-1.0694e-07
7.61688e-08
-9.17456e-08
5.54141e-08
-8.15698e-08
3.66121e-08
-7.73265e-08
1.73303e-08
-8.01874e-08
-4.4289e-09
-8.91254e-08
-2.2855e-08
-1.0336e-07
-3.89167e-08
-1.22721e-07
-5.54417e-08
-1.47222e-07
-7.44828e-08
-1.76632e-07
-9.80591e-08
-2.09771e-07
-1.28609e-07
-2.43392e-07
-1.68983e-07
-2.70873e-07
-2.21177e-07
-2.81953e-07
-2.82698e-07
-2.65936e-07
-3.41354e-07
-2.1856e-07
-3.75267e-07
-1.48131e-07
-3.62633e-07
-7.46107e-08
-2.95688e-07
-2.05171e-08
-1.8729e-07
-6.43651e-08
-2.1627e-08
7.20835e-08
-7.11682e-08
1.96665e-07
-1.29749e-07
2.94658e-07
-1.77596e-07
3.48263e-07
-2.02179e-07
3.54558e-07
-2.01036e-07
3.23712e-07
-1.79618e-07
2.72935e-07
-1.46625e-07
2.18364e-07
-1.0995e-07
1.69705e-07
-7.48497e-08
1.30117e-07
-4.4005e-08
9.91046e-08
-1.83858e-08
7.49424e-08
1.90632e-09
5.58767e-08
1.70432e-08
4.02772e-08
2.70685e-08
2.65868e-08
3.14768e-08
1.29219e-08
2.94321e-08
-2.38415e-09
2.18141e-08
-1.5237e-08
9.30002e-09
-2.64026e-08
-8.1848e-09
-3.79569e-08
-3.11745e-08
-5.14931e-08
-6.03986e-08
-6.88349e-08
-9.64362e-08
-9.2571e-08
-1.38798e-07
-1.26621e-07
-1.84173e-07
-1.75803e-07
-2.23916e-07
-2.42955e-07
-2.43789e-07
-3.21482e-07
-2.29225e-07
-3.89831e-07
-1.76094e-07
-4.15764e-07
-9.94294e-08
-3.72352e-07
-3.04212e-08
-2.56298e-07
-9.47863e-08
-3.15251e-08
1.03609e-07
-8.87494e-08
2.53889e-07
-1.37378e-07
3.43287e-07
-1.56071e-07
3.66956e-07
-1.41253e-07
3.3974e-07
-1.01596e-07
2.84055e-07
-5.00036e-08
2.21343e-07
2.69569e-09
1.65665e-07
5.01861e-08
1.22214e-07
9.00426e-08
9.02608e-08
1.22139e-07
6.70085e-08
1.47267e-07
4.98138e-08
1.66414e-07
3.67302e-08
1.80378e-07
2.63131e-08
1.8959e-07
1.73746e-08
1.93893e-07
8.61865e-09
1.9262e-07
-1.11124e-09
1.8663e-07
-9.24686e-09
1.76492e-07
-1.62644e-08
1.62063e-07
-2.35279e-08
1.4269e-07
-3.21201e-08
1.17221e-07
-4.33659e-08
8.39981e-08
-5.93481e-08
4.10546e-08
-8.36777e-08
-1.25888e-08
-1.22159e-07
-7.44157e-08
-1.81128e-07
-1.33858e-07
-2.62039e-07
-1.71288e-07
-3.52401e-07
-1.66091e-07
-4.20961e-07
-1.13947e-07
-4.24496e-07
-4.15537e-08
-3.28692e-07
-1.3634e-07
-4.2748e-08
1.46357e-07
-9.41557e-08
3.05297e-07
-1.0507e-07
3.54202e-07
-6.90532e-08
3.30939e-07
-2.20451e-09
2.72891e-07
7.53745e-08
2.06476e-07
1.48682e-07
1.48036e-07
2.10537e-07
1.0381e-07
2.59628e-07
7.31232e-08
2.97455e-07
5.24336e-08
3.26223e-07
3.82401e-08
3.47913e-07
2.8124e-08
3.64041e-07
2.06019e-08
3.75646e-07
1.4709e-08
3.833e-07
9.7206e-09
3.87027e-07
4.89127e-09
3.86365e-07
-4.49043e-10
3.82019e-07
-4.9011e-09
3.74474e-07
-8.71979e-09
3.63616e-07
-1.26694e-08
3.48863e-07
-1.73675e-08
3.291e-07
-2.36024e-08
3.02442e-07
-3.26905e-08
2.65877e-07
-4.71128e-08
2.15124e-07
-7.14054e-08
1.46214e-07
-1.12218e-07
6.02433e-08
-1.76069e-07
-2.92508e-08
-2.62907e-07
-9.35526e-08
-3.56659e-07
-1.01202e-07
-4.16847e-07
-5.00209e-08
-3.79872e-07
-1.86361e-07
-5.06307e-08
1.96987e-07
-6.20571e-08
3.16723e-07
4.26521e-10
2.91718e-07
1.02724e-07
2.28642e-07
2.11313e-07
1.64302e-07
3.06643e-07
1.11146e-07
3.81625e-07
7.30551e-08
4.37247e-07
4.81869e-08
4.77678e-07
3.26931e-08
5.0712e-07
2.29909e-08
5.28744e-07
1.66163e-08
5.447e-07
1.21682e-08
5.56408e-07
8.894e-09
5.64773e-07
6.34428e-09
5.70296e-07
4.19742e-09
5.73058e-07
2.12889e-09
5.72763e-07
-1.54014e-10
5.69917e-07
-2.05466e-09
5.64878e-07
-3.68105e-09
5.57574e-07
-5.36499e-09
5.47583e-07
-7.37732e-09
5.34057e-07
-1.0076e-08
5.15444e-07
-1.4078e-08
4.88932e-07
-2.06008e-08
4.49594e-07
-3.20667e-08
3.9005e-07
-5.26739e-08
3.02571e-07
-8.85898e-08
1.86211e-07
-1.46547e-07
5.83416e-08
-2.2879e-07
-3.73039e-08
-3.21202e-07
-4.90434e-08
-3.68133e-07
-2.35404e-07
-2.72614e-08
2.24249e-07
7.11561e-08
2.18306e-07
2.21813e-07
1.41061e-07
3.61299e-07
8.91555e-08
4.71104e-07
5.44972e-08
5.50044e-07
3.22052e-08
6.03915e-07
1.91849e-08
6.40178e-07
1.19234e-08
6.65001e-07
7.87007e-09
6.82499e-07
5.49298e-09
6.95143e-07
3.97273e-09
7.04394e-07
2.91634e-09
7.11152e-07
2.13622e-09
7.1597e-07
1.52615e-09
7.19157e-07
1.0111e-09
7.20772e-07
5.13456e-10
7.20655e-07
-3.64568e-11
7.19094e-07
-4.94425e-10
7.16301e-07
-8.87231e-10
7.12232e-07
-1.2962e-09
7.06643e-07
-1.78832e-09
6.99023e-07
-2.45607e-09
6.88407e-07
-3.4618e-09
6.7294e-07
-5.13425e-09
6.49042e-07
-8.16822e-09
6.10275e-07
-1.39076e-08
5.46544e-07
-2.48585e-08
4.4549e-07
-4.54933e-08
2.99477e-07
-8.27767e-08
1.23992e-07
-1.45717e-07
-7.59616e-09
-2.36544e-07
-2.43e-07
2.24249e-07
4.42555e-07
5.83616e-07
6.72771e-07
7.27268e-07
7.59473e-07
7.78658e-07
7.90582e-07
7.98452e-07
8.03945e-07
8.07918e-07
8.10834e-07
8.1297e-07
8.14496e-07
8.15507e-07
8.16021e-07
8.15984e-07
8.1549e-07
8.14603e-07
8.13306e-07
8.11518e-07
8.09062e-07
8.056e-07
8.00466e-07
7.92298e-07
7.7839e-07
7.53532e-07
7.08038e-07
6.25262e-07
4.79545e-07
2.43e-07
)
;

boundaryField
{
    movingWall
    {
        type            calculated;
        value           uniform 0;
    }
    fixedWalls
    {
        type            calculated;
        value           uniform 0;
    }
    frontAndBack
    {
        type            empty;
        value           nonuniform List<scalar> 0();
    }
}


// ************************************************************************* //
