/*--------------------------------*- C++ -*----------------------------------*\
| =========                 |                                                 |
| \\      /  F ield         | OpenFOAM: The Open Source CFD Toolbox           |
|  \\    /   O peration     | Version:  2206                                  |
|   \\  /    A nd           | Website:  www.openfoam.com                      |
|    \\/     M anipulation  |                                                 |
\*---------------------------------------------------------------------------*/
FoamFile
{
    version     2.0;
    format      ascii;
    arch        "LSB;label=64;scalar=64";
    class       volVectorField;
    location    "10";
    object      U;
}
// * * * * * * * * * * * * * * * * * * * * * * * * * * * * * * * * * * * * * //

dimensions      [0 1 -1 0 0 0 0];

internalField   nonuniform List<vector> 
1024
(
(2.63686e-08 -2.64432e-08 0)
(1.22879e-08 -4.34798e-09 0)
(-1.75339e-07 3.15719e-08 0)
(-5.9275e-07 6.0331e-08 0)
(-1.24096e-06 7.79753e-08 0)
(-2.0923e-06 8.60866e-08 0)
(-3.11469e-06 8.8249e-08 0)
(-4.28917e-06 8.76488e-08 0)
(-5.61105e-06 8.57345e-08 0)
(-7.07823e-06 8.26124e-08 0)
(-8.67833e-06 7.78926e-08 0)
(-1.03782e-05 7.10649e-08 0)
(-1.21133e-05 6.16355e-08 0)
(-1.37712e-05 4.89783e-08 0)
(-1.51802e-05 3.28124e-08 0)
(-1.60744e-05 1.24364e-08 0)
(-1.61025e-05 -1.06804e-08 0)
(-1.52551e-05 -3.14388e-08 0)
(-1.38745e-05 -4.81534e-08 0)
(-1.22285e-05 -6.13926e-08 0)
(-1.04928e-05 -7.1354e-08 0)
(-8.78408e-06 -7.86217e-08 0)
(-7.17048e-06 -8.3679e-08 0)
(-5.68777e-06 -8.70411e-08 0)
(-4.35008e-06 -8.91088e-08 0)
(-3.16065e-06 -8.97844e-08 0)
(-2.12482e-06 -8.76201e-08 0)
(-1.26201e-06 -7.94206e-08 0)
(-6.0461e-07 -6.15808e-08 0)
(-1.80548e-07 -3.24866e-08 0)
(1.10115e-08 3.9146e-09 0)
(2.6466e-08 2.64537e-08 0)
(4.33676e-09 -1.24373e-08 0)
(-1.97868e-07 1.97937e-07 0)
(-8.18015e-07 4.93969e-07 0)
(-1.98826e-06 7.53303e-07 0)
(-3.73596e-06 9.26129e-07 0)
(-6.0222e-06 1.012e-06 0)
(-8.78253e-06 1.03677e-06 0)
(-1.19708e-05 1.02861e-06 0)
(-1.55703e-05 1.00279e-06 0)
(-1.95695e-05 9.61949e-07 0)
(-2.39316e-05 9.02722e-07 0)
(-2.85641e-05 8.19832e-07 0)
(-3.329e-05 7.07381e-07 0)
(-3.78026e-05 5.59295e-07 0)
(-4.16326e-05 3.70404e-07 0)
(-4.40568e-05 1.3655e-07 0)
(-4.4123e-05 -1.22105e-07 0)
(-4.18089e-05 -3.58967e-07 0)
(-3.80457e-05 -5.52358e-07 0)
(-3.35613e-05 -7.05265e-07 0)
(-2.88342e-05 -8.22159e-07 0)
(-2.41811e-05 -9.08761e-07 0)
(-1.97875e-05 -9.70867e-07 0)
(-1.57519e-05 -1.01378e-06 0)
(-1.21154e-05 -1.04097e-06 0)
(-8.89211e-06 -1.04983e-06 0)
(-6.10038e-06 -1.0251e-06 0)
(-3.78742e-06 -9.38566e-07 0)
(-2.01833e-06 -7.64217e-07 0)
(-8.32426e-07 -5.02362e-07 0)
(-2.02559e-07 -2.02885e-07 0)
(4.01645e-09 1.10594e-08 0)
(-3.14642e-08 1.74921e-07 0)
(-4.93905e-07 8.17892e-07 0)
(-1.58333e-06 1.58246e-06 0)
(-3.45921e-06 2.258e-06 0)
(-6.16549e-06 2.7284e-06 0)
(-9.67423e-06 2.97712e-06 0)
(-1.39148e-05 3.05775e-06 0)
(-1.88279e-05 3.03957e-06 0)
(-2.43862e-05 2.96468e-06 0)
(-3.05673e-05 2.84277e-06 0)
(-3.73098e-05 2.66571e-06 0)
(-4.44688e-05 2.41881e-06 0)
(-5.17687e-05 2.08494e-06 0)
(-5.87352e-05 1.64663e-06 0)
(-6.46421e-05 1.08814e-06 0)
(-6.83729e-05 3.98808e-07 0)
(-6.84628e-05 -3.60953e-07 0)
(-6.48817e-05 -1.05813e-06 0)
(-5.90658e-05 -1.6284e-06 0)
(-5.21377e-05 -2.07935e-06 0)
(-4.48363e-05 -2.42488e-06 0)
(-3.76495e-05 -2.68154e-06 0)
(-3.08643e-05 -2.86619e-06 0)
(-2.46339e-05 -2.99359e-06 0)
(-1.90255e-05 -3.07207e-06 0)
(-1.4065e-05 -3.0921e-06 0)
(-9.78195e-06 -3.01159e-06 0)
(-6.23716e-06 -2.76111e-06 0)
(-3.50199e-06 -2.28684e-06 0)
(-1.6047e-06 -1.60515e-06 0)
(-5.01483e-07 -8.3232e-07 0)
(-3.22069e-08 -1.79946e-07 0)
(-6.02073e-08 5.92225e-07 0)
(-7.55074e-07 1.98939e-06 0)
(-2.26546e-06 3.45944e-06 0)
(-4.74895e-06 4.73536e-06 0)
(-8.24079e-06 5.64003e-06 0)
(-1.27198e-05 6.13696e-06 0)
(-1.81217e-05 6.31094e-06 0)
(-2.43866e-05 6.28347e-06 0)
(-3.14832e-05 6.13376e-06 0)
(-3.93801e-05 5.88247e-06 0)
(-4.79951e-05 5.51497e-06 0)
(-5.71405e-05 5.00227e-06 0)
(-6.64621e-05 4.30954e-06 0)
(-7.53534e-05 3.40127e-06 0)
(-8.28856e-05 2.24465e-06 0)
(-8.76343e-05 8.19488e-07 0)
(-8.77366e-05 -7.48375e-07 0)
(-8.3158e-05 -2.18826e-06 0)
(-7.57293e-05 -3.367e-06 0)
(-6.68818e-05 -4.29904e-06 0)
(-5.75586e-05 -5.01369e-06 0)
(-4.83816e-05 -5.54476e-06 0)
(-3.97181e-05 -5.92653e-06 0)
(-3.17653e-05 -6.18816e-06 0)
(-2.46117e-05 -6.34462e-06 0)
(-1.82928e-05 -6.37553e-06 0)
(-1.28429e-05 -6.20168e-06 0)
(-8.32305e-06 -5.70139e-06 0)
(-4.79848e-06 -4.78966e-06 0)
(-2.29055e-06 -3.50278e-06 0)
(-7.64155e-07 -2.01801e-06 0)
(-6.11681e-08 -6.0301e-07 0)
(-7.81781e-08 1.24273e-06 0)
(-9.34017e-07 3.7463e-06 0)
(-2.75536e-06 6.17941e-06 0)
(-5.69488e-06 8.2345e-06 0)
(-9.76791e-06 9.69236e-06 0)
(-1.49474e-05 1.05085e-05 0)
(-2.11732e-05 1.08074e-05 0)
(-2.83907e-05 1.0771e-05 0)
(-3.65699e-05 1.05218e-05 0)
(-4.56744e-05 1.00933e-05 0)
(-5.56073e-05 9.46235e-06 0)
(-6.61497e-05 8.58075e-06 0)
(-7.68912e-05 7.38986e-06 0)
(-8.71319e-05 5.82947e-06 0)
(-9.58004e-05 3.84354e-06 0)
(-0.000101258 1.3993e-06 0)
(-0.000101365 -1.28691e-06 0)
(-9.60864e-05 -3.75445e-06 0)
(-8.75265e-05 -5.77535e-06 0)
(-7.73318e-05 -7.37333e-06 0)
(-6.65886e-05 -8.59888e-06 0)
(-5.60131e-05 -9.50951e-06 0)
(-4.60292e-05 -1.01631e-05 0)
(-3.68659e-05 -1.06079e-05 0)
(-2.86267e-05 -1.08678e-05 0)
(-2.13525e-05 -1.09095e-05 0)
(-1.50762e-05 -1.06106e-05 0)
(-9.85394e-06 -9.78912e-06 0)
(-5.74663e-06 -8.32028e-06 0)
(-2.78153e-06 -6.24843e-06 0)
(-9.43457e-07 -3.79268e-06 0)
(-7.91994e-08 -1.26073e-06 0)
(-8.72316e-08 2.10436e-06 0)
(-1.03328e-06 6.06539e-06 0)
(-3.04523e-06 9.73927e-06 0)
(-6.27857e-06 1.27667e-05 0)
(-1.07332e-05 1.48963e-05 0)
(-1.63697e-05 1.60938e-05 0)
(-2.31252e-05 1.65405e-05 0)
(-3.09485e-05 1.64908e-05 0)
(-3.98124e-05 1.61158e-05 0)
(-4.96791e-05 1.5462e-05 0)
(-6.04426e-05 1.44947e-05 0)
(-7.1864e-05 1.31417e-05 0)
(-8.34966e-05 1.13145e-05 0)
(-9.45816e-05 8.92168e-06 0)
(-0.000103959 5.87833e-06 0)
(-0.000109855 2.13588e-06 0)
(-0.000109965 -1.97476e-06 0)
(-0.000104251 -5.75068e-06 0)
(-9.49858e-05 -8.84418e-06 0)
(-8.3948e-05 -1.12909e-05 0)
(-7.23137e-05 -1.31678e-05 0)
(-6.08584e-05 -1.45625e-05 0)
(-5.00425e-05 -1.55622e-05 0)
(-4.01153e-05 -1.62393e-05 0)
(-3.11898e-05 -1.66296e-05 0)
(-2.33083e-05 -1.66869e-05 0)
(-1.65007e-05 -1.624e-05 0)
(-1.08204e-05 -1.50347e-05 0)
(-6.33067e-06 -1.28894e-05 0)
(-3.07138e-06 -9.83825e-06 0)
(-1.04261e-06 -6.13229e-06 0)
(-8.82457e-08 -2.13056e-06 0)
(-9.12568e-08 3.15613e-06 0)
(-1.0823e-06 8.91303e-06 0)
(-3.19927e-06 1.41168e-05 0)
(-6.60664e-06 1.83303e-05 0)
(-1.12984e-05 2.12649e-05 0)
(-1.7224e-05 2.291e-05 0)
(-2.4314e-05 2.35248e-05 0)
(-3.25159e-05 2.34533e-05 0)
(-4.18037e-05 2.29233e-05 0)
(-5.21395e-05 2.19946e-05 0)
(-6.34119e-05 2.06169e-05 0)
(-7.53692e-05 1.86888e-05 0)
(-8.75419e-05 1.60859e-05 0)
(-9.91355e-05 1.26793e-05 0)
(-0.000108936 8.35003e-06 0)
(-0.000115093 3.03017e-06 0)
(-0.000115206 -2.81157e-06 0)
(-0.000109239 -8.1769e-06 0)
(-9.95543e-05 -1.25742e-05 0)
(-8.80099e-05 -1.60539e-05 0)
(-7.58358e-05 -1.87242e-05 0)
(-6.38434e-05 -2.07088e-05 0)
(-5.25167e-05 -2.21305e-05 0)
(-4.2118e-05 -2.30911e-05 0)
(-3.27658e-05 -2.36419e-05 0)
(-2.45032e-05 -2.37235e-05 0)
(-1.73591e-05 -2.31083e-05 0)
(-1.13878e-05 -2.14523e-05 0)
(-6.65977e-06 -1.84962e-05 0)
(-3.22574e-06 -1.42505e-05 0)
(-1.09166e-06 -9.00339e-06 0)
(-9.22721e-08 -3.19153e-06 0)
(-9.38244e-08 4.39898e-06 0)
(-1.11378e-06 1.22983e-05 0)
(-3.30021e-06 1.93391e-05 0)
(-6.82839e-06 2.49769e-05 0)
(-1.16925e-05 2.88725e-05 0)
(-1.78354e-05 3.10451e-05 0)
(-2.51803e-05 3.18523e-05 0)
(-3.36708e-05 3.17487e-05 0)
(-4.32799e-05 3.10303e-05 0)
(-5.39678e-05 2.97714e-05 0)
(-6.56188e-05 2.79027e-05 0)
(-7.79713e-05 2.52876e-05 0)
(-9.05378e-05 2.17593e-05 0)
(-0.000102498 1.71449e-05 0)
(-0.0001126 1.12866e-05 0)
(-0.000118941 4.09315e-06 0)
(-0.000119062 -3.80513e-06 0)
(-0.000112923 -1.10585e-05 0)
(-0.000102945 -1.70063e-05 0)
(-9.10384e-05 -2.17169e-05 0)
(-7.84708e-05 -2.53341e-05 0)
(-6.60811e-05 -2.80238e-05 0)
(-5.43721e-05 -2.99506e-05 0)
(-4.36166e-05 -3.12517e-05 0)
(-3.39386e-05 -3.19976e-05 0)
(-2.53827e-05 -3.21145e-05 0)
(-1.79795e-05 -3.13066e-05 0)
(-1.17877e-05 -2.91192e-05 0)
(-6.88471e-06 -2.51947e-05 0)
(-3.32815e-06 -1.95141e-05 0)
(-1.12362e-06 -1.24164e-05 0)
(-9.48874e-08 -4.44514e-06 0)
(-9.69076e-08 5.86246e-06 0)
(-1.14909e-06 1.62989e-05 0)
(-3.4082e-06 2.55262e-05 0)
(-7.06022e-06 3.28645e-05 0)
(-1.21015e-05 3.79072e-05 0)
(-1.84705e-05 4.07064e-05 0)
(-2.60848e-05 4.1738e-05 0)
(-3.48828e-05 4.1591e-05 0)
(-4.48341e-05 4.06437e-05 0)
(-5.58957e-05 3.89886e-05 0)
(-6.79455e-05 3.65332e-05 0)
(-8.07102e-05 3.30992e-05 0)
(-9.3683e-05 2.84705e-05 0)
(-0.000106017 2.24237e-05 0)
(-0.000116423 1.47566e-05 0)
(-0.000122947 5.35057e-06 0)
(-0.00012308 -4.97586e-06 0)
(-0.000116779 -1.44596e-05 0)
(-0.000106512 -2.22427e-05 0)
(-9.42379e-05 -2.84148e-05 0)
(-8.12648e-05 -3.31592e-05 0)
(-6.84595e-05 -3.66907e-05 0)
(-5.63456e-05 -3.9222e-05 0)
(-4.52091e-05 -4.09323e-05 0)
(-3.5181e-05 -4.19156e-05 0)
(-2.63101e-05 -4.20801e-05 0)
(-1.86308e-05 -4.10472e-05 0)
(-1.22071e-05 -3.82281e-05 0)
(-7.12268e-06 -3.31472e-05 0)
(-3.43912e-06 -2.57528e-05 0)
(-1.15997e-06 -1.64513e-05 0)
(-9.80778e-08 -5.92192e-06 0)
(-1.01336e-07 7.60193e-06 0)
(-1.19922e-06 2.10619e-05 0)
(-3.55741e-06 3.29022e-05 0)
(-7.37337e-06 4.22773e-05 0)
(-1.26451e-05 4.86955e-05 0)
(-1.93074e-05 5.22452e-05 0)
(-2.72718e-05 5.35429e-05 0)
(-3.6471e-05 5.33389e-05 0)
(-4.68698e-05 5.21117e-05 0)
(-5.84196e-05 4.9976e-05 0)
(-7.09882e-05 4.68125e-05 0)
(-8.42858e-05 4.23937e-05 0)
(-9.77801e-05 3.64468e-05 0)
(-0.000110589 2.86903e-05 0)
(-0.000121377 1.8873e-05 0)
(-0.000128133 6.84444e-06 0)
(-0.000128285 -6.35767e-06 0)
(-0.000121786 -1.84865e-05 0)
(-0.000111157 -2.8454e-05 0)
(-9.84185e-05 -3.63729e-05 0)
(-8.49256e-05 -4.24707e-05 0)
(-7.15822e-05 -4.70166e-05 0)
(-5.89402e-05 -5.02796e-05 0)
(-4.73042e-05 -5.24877e-05 0)
(-3.68166e-05 -5.37621e-05 0)
(-2.7533e-05 -5.3989e-05 0)
(-1.94933e-05 -5.26895e-05 0)
(-1.27675e-05 -4.91132e-05 0)
(-7.44572e-06 -4.26445e-05 0)
(-3.59321e-06 -3.3196e-05 0)
(-1.2118e-06 -2.12591e-05 0)
(-1.02684e-07 -7.67864e-06 0)
(-1.07693e-07 9.6998e-06 0)
(-1.27209e-06 2.68108e-05 0)
(-3.77309e-06 4.18105e-05 0)
(-7.82212e-06 5.3651e-05 0)
(-1.3418e-05 6.17354e-05 0)
(-2.04906e-05 6.61931e-05 0)
(-2.89437e-05 6.78096e-05 0)
(-3.87028e-05 6.753e-05 0)
(-4.97259e-05 6.59545e-05 0)
(-6.19555e-05 6.32256e-05 0)
(-7.52443e-05 5.91924e-05 0)
(-8.92778e-05 5.35706e-05 0)
(-0.000103487 4.60216e-05 0)
(-0.000116941 3.61994e-05 0)
(-0.000128246 2.37995e-05 0)
(-0.000135313 8.63559e-06 0)
(-0.000135494 -7.99861e-06 0)
(-0.000128731 -2.32923e-05 0)
(-0.000117619 -3.58874e-05 0)
(-0.000104251 -4.59217e-05 0)
(-9.00461e-05 -5.36688e-05 0)
(-7.59597e-05 -5.94585e-05 0)
(-6.25838e-05 -6.36235e-05 0)
(-5.02509e-05 -6.64486e-05 0)
(-3.91209e-05 -6.80868e-05 0)
(-2.92599e-05 -6.83969e-05 0)
(-2.07157e-05 -6.67778e-05 0)
(-1.35663e-05 -6.22845e-05 0)
(-7.90971e-06 -5.4133e-05 0)
(-3.81642e-06 -4.21954e-05 0)
(-1.28733e-06 -2.70687e-05 0)
(-1.09317e-07 -9.79995e-06 0)
(-1.16838e-07 1.22777e-05 0)
(-1.37799e-06 3.38778e-05 0)
(-4.08632e-06 5.27643e-05 0)
(-8.47196e-06 6.7639e-05 0)
(-1.45338e-05 7.77731e-05 0)
(-2.21939e-05 8.33452e-05 0)
(-3.13453e-05 8.53468e-05 0)
(-4.19027e-05 8.49624e-05 0)
(-5.38138e-05 8.29415e-05 0)
(-6.7007e-05 7.94612e-05 0)
(-8.13117e-05 7.43338e-05 0)
(-9.63759e-05 6.72086e-05 0)
(-0.000111578 5.76734e-05 0)
(-0.000125919 4.53128e-05 0)
(-0.000137925 2.97663e-05 0)
(-0.000145414 1.081e-05 0)
(-0.000145637 -9.96369e-06 0)
(-0.000138525 -2.90895e-05 0)
(-0.000126761 -4.48925e-05 0)
(-0.000112532 -5.75342e-05 0)
(-9.73402e-05 -6.73339e-05 0)
(-8.22128e-05 -7.46848e-05 0)
(-6.78007e-05 -7.99906e-05 0)
(-5.44784e-05 -8.36016e-05 0)
(-4.24327e-05 -8.57081e-05 0)
(-3.17465e-05 -8.61342e-05 0)
(-2.24796e-05 -8.41293e-05 0)
(-1.4722e-05 -7.8509e-05 0)
(-8.58312e-06 -6.82841e-05 0)
(-4.14128e-06 -5.32787e-05 0)
(-1.39731e-06 -3.4222e-05 0)
(-1.18886e-07 -1.24112e-05 0)
(-1.30086e-07 1.55204e-05 0)
(-1.53283e-06 4.2769e-05 0)
(-4.54448e-06 6.65468e-05 0)
(-9.42136e-06 8.52389e-05 0)
(-1.61613e-05 9.79487e-05 0)
(-2.46746e-05 0.000104914 0)
(-3.48372e-05 0.000107386 0)
(-4.65472e-05 0.000106846 0)
(-5.97351e-05 0.000104233 0)
(-7.43062e-05 9.97667e-05 0)
(-9.00522e-05 9.32168e-05 0)
(-0.000106564 8.41567e-05 0)
(-0.000123142 7.20945e-05 0)
(-0.000138694 5.65453e-05 0)
(-0.000151643 3.70973e-05 0)
(-0.000159697 1.34891e-05 0)
(-0.000159984 -1.23391e-05 0)
(-0.000152419 -3.61715e-05 0)
(-0.000139788 -5.59623e-05 0)
(-0.000124391 -7.18919e-05 0)
(-0.000107833 -8.43163e-05 0)
(-9.12441e-05 -9.36887e-05 0)
(-7.53604e-05 -0.000100488 0)
(-6.06205e-05 -0.000105137 0)
(-4.72547e-05 -0.000107872 0)
(-3.53735e-05 -0.000108471 0)
(-2.50566e-05 -0.000105996 0)
(-1.6413e-05 -9.8963e-05 0)
(-9.5699e-06 -8.61273e-05 0)
(-4.61785e-06 -6.72541e-05 0)
(-1.5586e-06 -4.32416e-05 0)
(-1.32799e-07 -1.57034e-05 0)
(-1.49741e-07 1.97227e-05 0)
(-1.76274e-06 5.42911e-05 0)
(-5.22454e-06 8.44058e-05 0)
(-1.08292e-05 0.000108039 0)
(-1.85717e-05 0.000124075 0)
(-2.83437e-05 0.000132825 0)
(-3.9994e-05 0.000135872 0)
(-5.33921e-05 0.000135083 0)
(-6.84388e-05 0.000131637 0)
(-8.49982e-05 0.000125814 0)
(-0.000102799 0.000117331 0)
(-0.000121342 0.000105682 0)
(-0.000139812 9.02947e-05 0)
(-0.000156991 7.06302e-05 0)
(-0.000171175 4.62441e-05 0)
(-0.000179957 1.68437e-05 0)
(-0.000180341 -1.52342e-05 0)
(-0.00017222 -4.49356e-05 0)
(-0.000158477 -6.97893e-05 0)
(-0.000141526 -8.99821e-05 0)
(-0.000123099 -0.000105881 0)
(-0.000104462 -0.00011798 0)
(-8.64777e-05 -0.000126825 0)
(-6.96869e-05 -0.000132919 0)
(-5.43925e-05 -0.000136545 0)
(-4.07534e-05 -0.000137423 0)
(-2.8885e-05 -0.000134373 0)
(-1.89282e-05 -0.000125527 0)
(-1.10393e-05 -0.000109311 0)
(-5.32818e-06 -8.54168e-05 0)
(-1.7991e-06 -5.49656e-05 0)
(-1.53541e-07 -1.99836e-05 0)
(-1.79518e-07 2.53682e-05 0)
(-2.11282e-06 6.97678e-05 0)
(-6.26024e-06 0.000108387 0)
(-1.29721e-05 0.000138641 0)
(-2.22367e-05 0.000159113 0)
(-3.39138e-05 0.000170212 0)
(-4.78057e-05 0.000173958 0)
(-6.37301e-05 0.000172732 0)
(-8.15306e-05 0.000168031 0)
(-0.000100994 0.000160217 0)
(-0.000121739 0.000148958 0)
(-0.000143117 0.000133669 0)
(-0.000164142 0.000113726 0)
(-0.000183426 8.85813e-05 0)
(-0.000199142 5.78098e-05 0)
(-0.000208803 2.11043e-05 0)
(-0.000209338 -1.87707e-05 0)
(-0.000200609 -5.58852e-05 0)
(-0.000185541 -8.73071e-05 0)
(-0.000166614 -0.000113207 0)
(-0.000145685 -0.000133903 0)
(-0.000124198 -0.00014987 0)
(-0.000103203 -0.000161686 0)
(-8.34069e-05 -0.000169924 0)
(-6.5241e-05 -0.000174911 0)
(-4.89556e-05 -0.000176284 0)
(-3.47342e-05 -0.000172539 0)
(-2.27766e-05 -0.000161298 0)
(-1.32897e-05 -0.000140552 0)
(-6.41649e-06 -0.000109904 0)
(-2.16744e-06 -7.07781e-05 0)
(-1.85156e-07 -2.57585e-05 0)
(-2.26812e-07 3.33102e-05 0)
(-2.66971e-06 9.15329e-05 0)
(-7.90701e-06 0.000142097 0)
(-1.63751e-05 0.000181623 0)
(-2.80462e-05 0.000208265 0)
(-4.27204e-05 0.000222554 0)
(-6.01124e-05 0.000227116 0)
(-7.9938e-05 0.00022504 0)
(-0.000101922 0.000218268 0)
(-0.000125696 0.000207288 0)
(-0.000150669 0.000191737 0)
(-0.000175941 0.000170994 0)
(-0.000200269 0.000144477 0)
(-0.000222073 0.000111756 0)
(-0.000239456 7.25476e-05 0)
(-0.000250015 2.65636e-05 0)
(-0.000250786 -2.30399e-05 0)
(-0.000241598 -6.9578e-05 0)
(-0.000225219 -0.000109702 0)
(-0.000204026 -0.000143534 0)
(-0.000179926 -0.000171209 0)
(-0.000154555 -0.000193034 0)
(-0.000129239 -0.000209509 0)
(-0.000104966 -0.000221211 0)
(-8.24086e-05 -0.000228481 0)
(-6.20016e-05 -0.000230821 0)
(-4.40707e-05 -0.000226279 0)
(-2.89345e-05 -0.000211768 0)
(-1.68967e-05 -0.000184683 0)
(-8.16272e-06 -0.000144521 0)
(-2.75871e-06 -9.31429e-05 0)
(-2.3586e-07 -3.39304e-05 0)
(-3.0354e-07 4.43264e-05 0)
(-3.55592e-06 0.000121704 0)
(-1.05195e-05 0.000188781 0)
(-2.17583e-05 0.000241056 0)
(-3.72061e-05 0.000276063 0)
(-5.65484e-05 0.000294483 0)
(-7.93283e-05 0.000299757 0)
(-0.00010505 0.000295931 0)
(-0.000133184 0.000285559 0)
(-0.000163039 0.000269346 0)
(-0.000193631 0.000246997 0)
(-0.000223648 0.000218026 0)
(-0.00025151 0.000182145 0)
(-0.000275513 0.000139334 0)
(-0.000293943 8.96767e-05 0)
(-0.000304901 3.29425e-05 0)
(-0.000306012 -2.75794e-05 0)
(-0.000297083 -8.50165e-05 0)
(-0.00028026 -0.000135908 0)
(-0.000257364 -0.000180329 0)
(-0.000230058 -0.000218009 0)
(-0.000200066 -0.00024877 0)
(-0.000169047 -0.000272732 0)
(-0.000138442 -0.00029026 0)
(-0.000109374 -0.000301579 0)
(-8.2661e-05 -0.000305935 0)
(-5.89398e-05 -0.000300746 0)
(-3.87801e-05 -0.000281971 0)
(-2.26808e-05 -0.000246215 0)
(-1.09704e-05 -0.000192858 0)
(-3.71224e-06 -0.000124403 0)
(-3.19355e-07 -4.53623e-05 0)
(-4.17278e-07 5.82916e-05 0)
(-4.8685e-06 0.000159908 0)
(-1.43837e-05 0.000247796 0)
(-2.96997e-05 0.000315986 0)
(-5.06628e-05 0.000361179 0)
(-7.6736e-05 0.0003842 0)
(-0.000107126 0.000389473 0)
(-0.000140912 0.000382231 0)
(-0.00017705 0.000365836 0)
(-0.00021425 0.000341404 0)
(-0.000250888 0.000308985 0)
(-0.000285109 0.000268625 0)
(-0.000315077 0.000220787 0)
(-0.000339282 0.000166269 0)
(-0.000356734 0.000105741 0)
(-0.00036674 3.89641e-05 0)
(-0.000368231 -3.11963e-05 0)
(-0.000361055 -9.87302e-05 0)
(-0.000346076 -0.000160722 0)
(-0.000323839 -0.000217364 0)
(-0.000295147 -0.000267828 0)
(-0.00026139 -0.000311048 0)
(-0.000224411 -0.00034625 0)
(-0.000186198 -0.000373103 0)
(-0.000148591 -0.00039134 0)
(-0.000113125 -0.000399691 0)
(-8.10694e-05 -0.000394701 0)
(-5.35195e-05 -0.000371143 0)
(-3.13703e-05 -0.000324692 0)
(-1.51964e-05 -0.000254658 0)
(-5.14853e-06 -0.000164433 0)
(-4.45367e-07 -6.00204e-05 0)
(-5.76909e-07 7.50307e-05 0)
(-6.73193e-06 0.000205639 0)
(-1.98671e-05 0.000318279 0)
(-4.09344e-05 0.000405132 0)
(-6.95875e-05 0.000461806 0)
(-0.00010486 0.000489209 0)
(-0.00014532 0.000492889 0)
(-0.000189242 0.000479513 0)
(-0.000234674 0.000453561 0)
(-0.000279375 0.000416966 0)
(-0.000320906 0.000370662 0)
(-0.000356958 0.000315841 0)
(-0.000385834 0.000254253 0)
(-0.00040684 0.000187801 0)
(-0.0004204 0.000117727 0)
(-0.000427667 4.35201e-05 0)
(-0.000429475 -3.3032e-05 0)
(-0.000425798 -0.000107841 0)
(-0.000415741 -0.000179315 0)
(-0.00039797 -0.000248169 0)
(-0.00037168 -0.000313187 0)
(-0.000337165 -0.000372225 0)
(-0.00029588 -0.000423074 0)
(-0.000250137 -0.000463976 0)
(-0.000202624 -0.000493459 0)
(-0.000155993 -0.000509146 0)
(-0.000112661 -0.000506281 0)
(-7.47487e-05 -0.000478165 0)
(-4.39451e-05 -0.000419455 0)
(-2.13219e-05 -0.000329535 0)
(-7.22774e-06 -0.000213021 0)
(-6.25463e-07 -7.78334e-05 0)
(-8.12788e-07 9.52847e-05 0)
(-9.46421e-06 0.000260885 0)
(-2.78775e-05 0.000403167 0)
(-5.72463e-05 0.000511891 0)
(-9.68029e-05 0.000581173 0)
(-0.000144738 0.000611903 0)
(-0.000198411 0.000610981 0)
(-0.000254658 0.000586988 0)
(-0.000310052 0.00054617 0)
(-0.000361091 0.000492081 0)
(-0.000404591 0.000427411 0)
(-0.000438305 0.000355234 0)
(-0.000461479 0.000278956 0)
(-0.000475079 0.000201512 0)
(-0.000481563 0.000124316 0)
(-0.00048429 4.61384e-05 0)
(-0.000486264 -3.28677e-05 0)
(-0.000487667 -0.000111219 0)
(-0.00048573 -0.000189272 0)
(-0.000476997 -0.000268857 0)
(-0.000458477 -0.000348989 0)
(-0.000428418 -0.000426768 0)
(-0.000386815 -0.000498333 0)
(-0.000335475 -0.000559723 0)
(-0.000277629 -0.000607129 0)
(-0.000217322 -0.00063589 0)
(-0.000158835 -0.000638959 0)
(-0.000106211 -0.000607531 0)
(-6.27309e-05 -0.000535074 0)
(-3.05073e-05 -0.00042133 0)
(-1.0348e-05 -0.000272712 0)
(-8.96841e-07 -9.97328e-05 0)
(-1.17275e-06 0.000120296 0)
(-1.36167e-05 0.000328938 0)
(-3.99879e-05 0.000507227 0)
(-8.16783e-05 0.000641605 0)
(-0.000136977 0.00072408 0)
(-0.000202382 0.000755446 0)
(-0.000273007 0.000744495 0)
(-0.00034328 0.000702751 0)
(-0.000407716 0.000639539 0)
(-0.000461596 0.000561393 0)
(-0.000501705 0.000473868 0)
(-0.000527006 0.000382446 0)
(-0.000538866 0.000292036 0)
(-0.000540709 0.000205942 0)
(-0.000537289 0.000124968 0)
(-0.00053404 4.66403e-05 0)
(-0.000535964 -3.07999e-05 0)
(-0.000543495 -0.000108596 0)
(-0.000552284 -0.000189312 0)
(-0.000557089 -0.000276447 0)
(-0.000552692 -0.00037024 0)
(-0.000534569 -0.000468092 0)
(-0.000499871 -0.000565094 0)
(-0.000448232 -0.000654806 0)
(-0.00038211 -0.000729802 0)
(-0.000306504 -0.000781158 0)
(-0.000228188 -0.000797429 0)
(-0.000154523 -0.000766138 0)
(-9.19615e-05 -0.000678978 0)
(-4.48901e-05 -0.000536457 0)
(-1.52377e-05 -0.000347804 0)
(-1.32131e-06 -0.000127299 0)
(-1.74973e-06 0.000151987 0)
(-2.02032e-05 0.000414836 0)
(-5.90114e-05 0.000637558 0)
(-0.000119469 0.000801791 0)
(-0.000197721 0.000896554 0)
(-0.000286884 0.000922755 0)
(-0.000378092 0.000892464 0)
(-0.000462214 0.000822316 0)
(-0.000531609 0.000727032 0)
(-0.000581356 0.000617955 0)
(-0.000609946 0.00050436 0)
(-0.000619308 0.000393894 0)
(-0.000614094 0.000291931 0)
(-0.000600522 0.000200884 0)
(-0.000585298 0.000119987 0)
(-0.000575277 4.51531e-05 0)
(-0.000576909 -2.71951e-05 0)
(-0.00059086 -0.000100593 0)
(-0.000611786 -0.000179587 0)
(-0.000633529 -0.000269575 0)
(-0.000649394 -0.000373012 0)
(-0.000652179 -0.000489245 0)
(-0.00063516 -0.000614118 0)
(-0.000593591 -0.000739818 0)
(-0.00052636 -0.000854839 0)
(-0.000437199 -0.000943568 0)
(-0.000334852 -0.000986352 0)
(-0.000231527 -0.000963344 0)
(-0.00013966 -0.000862453 0)
(-6.86656e-05 -0.000685167 0)
(-2.33567e-05 -0.000445297 0)
(-2.02805e-06 -0.000163109 0)
(-2.7347e-06 0.000193568 0)
(-3.12071e-05 0.000526737 0)
(-9.01849e-05 0.000805089 0)
(-0.000179778 0.00100299 0)
(-0.00029126 0.00110555 0)
(-0.000411237 0.00111515 0)
(-0.00052451 0.00105048 0)
(-0.00061782 0.000937388 0)
(-0.00068282 0.000799294 0)
(-0.000717112 0.000653931 0)
(-0.00072366 0.000513975 0)
(-0.000709162 0.000387617 0)
(-0.000682044 0.000278741 0)
(-0.000650796 0.000187347 0)
(-0.000623085 0.000110354 0)
(-0.000606195 4.20329e-05 0)
(-0.000607296 -2.25714e-05 0)
(-0.000627196 -8.84909e-05 0)
(-0.000660186 -0.000161603 0)
(-0.000700305 -0.000248928 0)
(-0.000740815 -0.000355603 0)
(-0.000773157 -0.000484503 0)
(-0.000787095 -0.000634965 0)
(-0.000771967 -0.000800993 0)
(-0.000719301 -0.000969032 0)
(-0.000626534 -0.00111566 0)
(-0.000500523 -0.00120783 0)
(-0.000358075 -0.00121084 0)
(-0.000221383 -0.00110287 0)
(-0.000110538 -0.000884804 0)
(-3.78896e-05 -0.000577602 0)
(-3.31365e-06 -0.000211838 0)
(-4.55267e-06 0.000250725 0)
(-5.06006e-05 0.00067822 0)
(-0.000143077 0.00102642 0)
(-0.000277622 0.00125879 0)
(-0.000434897 0.00135684 0)
(-0.000590135 0.00132909 0)
(-0.000720012 0.0012079 0)
(-0.000809108 0.00103463 0)
(-0.000852823 0.00084466 0)
(-0.000855878 0.000661834 0)
(-0.000828634 0.000499659 0)
(-0.000783295 0.000363742 0)
(-0.000731207 0.000254117 0)
(-0.000681652 0.000167197 0)
(-0.000641861 9.73977e-05 0)
(-0.000618507 3.77305e-05 0)
(-0.000618784 -1.74845e-05 0)
(-0.000643498 -7.38771e-05 0)
(-0.000687036 -0.000137803 0)
(-0.000744548 -0.000217138 0)
(-0.000810856 -0.000319303 0)
(-0.000878374 -0.000451321 0)
(-0.00093581 -0.000618506 0)
(-0.00096765 -0.000821456 0)
(-0.0009557 -0.00105052 0)
(-0.000884218 -0.00127813 0)
(-0.000748777 -0.00145452 0)
(-0.000564258 -0.0015186 0)
(-0.000363917 -0.00142461 0)
(-0.000187451 -0.00116449 0)
(-6.56793e-05 -0.000767661 0)
(-5.89172e-06 -0.000282722 0)
(-8.13138e-06 0.000333789 0)
(-8.56765e-05 0.000891251 0)
(-0.000232558 0.00132424 0)
(-0.000431658 0.00158209 0)
(-0.000642848 0.00164839 0)
(-0.00082518 0.00154959 0)
(-0.000949723 0.00134377 0)
(-0.00100647 0.00109478 0)
(-0.00100262 0.000850223 0)
(-0.00095501 0.000635861 0)
(-0.000882498 0.000460818 0)
(-0.000801232 0.000324283 0)
(-0.000723017 0.000220674 0)
(-0.000655786 0.000142578 0)
(-0.000604902 8.24172e-05 0)
(-0.000575582 3.26378e-05 0)
(-0.000574512 -1.247e-05 0)
(-0.00060231 -5.83555e-05 0)
(-0.000653609 -0.00011103 0)
(-0.000725055 -0.000178243 0)
(-0.000814093 -0.000268522 0)
(-0.000916429 -0.000392122 0)
(-0.00102365 -0.000560936 0)
(-0.00112019 -0.000786173 0)
(-0.00118109 -0.00107087 0)
(-0.00117396 -0.00139465 0)
(-0.00107055 -0.0016968 0)
(-0.000866598 -0.00188023 0)
(-0.00059599 -0.0018505 0)
(-0.000323898 -0.00156559 0)
(-0.000118773 -0.00105452 0)
(-1.12702e-05 -0.000393464 0)
(-1.52961e-05 0.000459998 0)
(-0.000147154 0.00119554 0)
(-0.000373192 0.00171904 0)
(-0.00064694 0.00197018 0)
(-0.000895135 0.0019543 0)
(-0.0010633 0.0017388 0)
(-0.00113049 0.00142221 0)
(-0.00110705 0.00109288 0)
(-0.00102089 0.000803655 0)
(-0.000902348 0.000573044 0)
(-0.000775505 0.000399304 0)
(-0.000655943 0.000272485 0)
(-0.000552277 0.000181286 0)
(-0.000468868 0.000115432 0)
(-0.00040809 6.64368e-05 0)
(-0.000373148 2.69995e-05 0)
(-0.000369883 -8.02455e-06 0)
(-0.000398517 -4.33566e-05 0)
(-0.000453771 -8.40657e-05 0)
(-0.000533572 -0.000136902 0)
(-0.000638024 -0.000210051 0)
(-0.000767179 -0.000314883 0)
(-0.000918763 -0.000467744 0)
(-0.00108389 -0.000690564 0)
(-0.00124067 -0.00100555 0)
(-0.00134794 -0.0014159 0)
(-0.00134973 -0.00187052 0)
(-0.00120066 -0.00224353 0)
(-0.000903853 -0.002368 0)
(-0.000533308 -0.00211949 0)
(-0.000211156 -0.00148714 0)
(-2.20025e-05 -0.000571918 0)
(-2.95328e-05 0.000653607 0)
(-0.000246675 0.00161617 0)
(-0.000562024 0.00220215 0)
(-0.000876804 0.00237323 0)
(-0.00108426 0.00220179 0)
(-0.00114155 0.00182722 0)
(-0.00106481 0.00139463 0)
(-0.000901154 0.0010045 0)
(-0.00070018 0.000698135 0)
(-0.000498143 0.000475453 0)
(-0.000315391 0.000319793 0)
(-0.000160439 0.000212603 0)
(-3.51275e-05 0.000138894 0)
(6.12792e-05 8.74739e-05 0)
(0.000129897 5.0264e-05 0)
(0.000169727 2.10001e-05 0)
(0.00017596 -4.55944e-06 0)
(0.000148911 -3.00074e-05 0)
(9.40115e-05 -5.9258e-05 0)
(1.26312e-05 -9.75244e-05 0)
(-9.71546e-05 -0.000151494 0)
(-0.000239026 -0.000231412 0)
(-0.000417376 -0.000354162 0)
(-0.000634209 -0.000547419 0)
(-0.000882489 -0.000850525 0)
(-0.00113244 -0.00130036 0)
(-0.00131932 -0.0018848 0)
(-0.00135307 -0.00248614 0)
(-0.00116525 -0.00287345 0)
(-0.000780004 -0.00278849 0)
(-0.000349152 -0.00209056 0)
(-4.21721e-05 -0.000849846 0)
(-5.66303e-05 0.000942548 0)
(-0.000391864 0.0021459 0)
(-0.00075195 0.00269312 0)
(-0.000980736 0.0026635 0)
(-0.000983494 0.00226689 0)
(-0.00078753 0.00173031 0)
(-0.000476805 0.00122198 0)
(-0.000133788 0.000822326 0)
(0.000187795 0.000540863 0)
(0.000463695 0.000353374 0)
(0.000688784 0.000230732 0)
(0.00086683 0.000150281 0)
(0.00100429 9.68511e-05 0)
(0.00110698 6.05294e-05 0)
(0.00117909 3.47843e-05 0)
(0.00122155 1.49055e-05 0)
(0.00123063 -2.23042e-06 0)
(0.00120715 -1.90477e-05 0)
(0.00115666 -3.8268e-05 0)
(0.00108039 -6.34603e-05 0)
(0.000975662 -9.93312e-05 0)
(0.000836899 -0.000153583 0)
(0.000655202 -0.000240066 0)
(0.000418751 -0.0003847 0)
(0.000114839 -0.000632749 0)
(-0.000257553 -0.00104639 0)
(-0.000662677 -0.00166874 0)
(-0.00100322 -0.00244576 0)
(-0.00113229 -0.00315168 0)
(-0.000945094 -0.0034016 0)
(-0.000518391 -0.00281055 0)
(-7.66963e-05 -0.00124812 0)
(-9.98008e-05 0.00136629 0)
(-0.000562795 0.00271421 0)
(-0.000800662 0.00300639 0)
(-0.00069128 0.00264488 0)
(-0.000279037 0.00202185 0)
(0.000280683 0.00140122 0)
(0.000847455 0.000910213 0)
(0.00134217 0.000572088 0)
(0.00174106 0.000357495 0)
(0.00205052 0.000225547 0)
(0.00228662 0.00014398 0)
(0.00246525 9.24418e-05 0)
(0.00259921 5.90405e-05 0)
(0.0026975 3.67234e-05 0)
(0.00276602 2.11234e-05 0)
(0.00280689 9.22684e-06 0)
(0.0028174 -9.17433e-07 0)
(0.00279863 -1.0769e-05 0)
(0.00275586 -2.19538e-05 0)
(0.00269032 -3.65995e-05 0)
(0.00259943 -5.75597e-05 0)
(0.00247737 -8.96658e-05 0)
(0.0023138 -0.000142107 0)
(0.00209177 -0.000233605 0)
(0.00178437 -0.000401682 0)
(0.00135749 -0.000710208 0)
(0.000789993 -0.00123931 0)
(0.000121852 -0.00202802 0)
(-0.000490501 -0.00296373 0)
(-0.000800178 -0.00366503 0)
(-0.000650285 -0.00348552 0)
(-0.000124308 -0.00178487 0)
(-0.00017131 0.00202555 0)
(-0.000623382 0.00315282 0)
(-0.000349187 0.00286472 0)
(0.000415805 0.00214775 0)
(0.00134787 0.00143909 0)
(0.00222178 0.000893119 0)
(0.00293305 0.000530587 0)
(0.00346707 0.000311846 0)
(0.00385514 0.000186335 0)
(0.00413652 0.000114527 0)
(0.00434244 7.20888e-05 0)
(0.00449431 4.59321e-05 0)
(0.00460641 2.92095e-05 0)
(0.00468788 1.81322e-05 0)
(0.0047445 1.04432e-05 0)
(0.00477858 4.61744e-06 0)
(0.00478829 -3.17284e-07 0)
(0.00477465 -5.08009e-06 0)
(0.00474204 -1.04637e-05 0)
(0.00469157 -1.75106e-05 0)
(0.00462117 -2.763e-05 0)
(0.0045259 -4.32663e-05 0)
(0.00439655 -6.92234e-05 0)
(0.00421647 -0.000115789 0)
(0.00395523 -0.000205402 0)
(0.00356173 -0.000382369 0)
(0.00296632 -0.000721647 0)
(0.00211519 -0.0013184 0)
(0.00105426 -0.0022237 0)
(1.93951e-05 -0.00327769 0)
(-0.000548193 -0.00383495 0)
(-0.000191346 -0.00251304 0)
(-0.000116629 0.00261365 0)
(1.56085e-05 0.00296809 0)
(0.0013803 0.00204097 0)
(0.00287317 0.00124062 0)
(0.00408646 0.000702797 0)
(0.00497893 0.000379745 0)
(0.00559533 0.000203021 0)
(0.00600764 0.000111294 0)
(0.00628582 6.40776e-05 0)
(0.00647938 3.88224e-05 0)
(0.00661817 2.43576e-05 0)
(0.00671951 1.55258e-05 0)
(0.0067939 9.88428e-06 0)
(0.00684782 6.14277e-06 0)
(0.00688526 3.54393e-06 0)
(0.00690792 1.57347e-06 0)
(0.00691469 -9.3728e-08 0)
(0.00690629 -1.70294e-06 0)
(0.0068856 -3.52096e-06 0)
(0.00685337 -5.90749e-06 0)
(0.00680822 -9.35033e-06 0)
(0.00674684 -1.47184e-05 0)
(0.00666276 -2.37542e-05 0)
(0.00654387 -4.03002e-05 0)
(0.00636646 -7.32044e-05 0)
(0.00608552 -0.000141868 0)
(0.00562297 -0.000286482 0)
(0.00486643 -0.000583688 0)
(0.00369661 -0.0011575 0)
(0.00206661 -0.00212551 0)
(0.000366389 -0.00327714 0)
(-4.26774e-05 -0.00293044 0)
(0.00261925 0.00119849 0)
(0.00377199 0.000985792 0)
(0.00568659 0.000443858 0)
(0.0070214 0.00019705 0)
(0.00778848 9.08112e-05 0)
(0.00823636 4.03027e-05 0)
(0.00850085 1.82604e-05 0)
(0.00866028 9.1027e-06 0)
(0.00876226 5.07771e-06 0)
(0.008832 3.09378e-06 0)
(0.00888197 1.9769e-06 0)
(0.0089186 1.28165e-06 0)
(0.00894559 8.26744e-07 0)