/*--------------------------------*- C++ -*----------------------------------*\
| =========                 |                                                 |
| \\      /  F ield         | OpenFOAM: The Open Source CFD Toolbox           |
|  \\    /   O peration     | Version:  2212                                  |
|   \\  /    A nd           | Website:  www.openfoam.com                      |
|    \\/     M anipulation  |                                                 |
\*---------------------------------------------------------------------------*/
FoamFile
{
    version     2.0;
    format      ascii;
    arch        "LSB;label=64;scalar=64";
    class       volScalarField;
    location    "400";
    object      Gco2;
}
// * * * * * * * * * * * * * * * * * * * * * * * * * * * * * * * * * * * * * //

dimensions      [1 -3 0 0 0 0 0];

internalField   nonuniform List<scalar> 
1024
(
0.0541904
0.054183
0.0541656
0.0541346
0.0540875
0.0540231
0.0539435
0.0538537
0.0537605
0.0536702
0.0535863
0.0535125
0.0534548
0.0534246
0.0534435
0.0535479
0.0537658
0.054044
0.0543312
0.0545904
0.0548088
0.0549881
0.0551358
0.0552603
0.0553682
0.0554622
0.0555418
0.0556057
0.0556529
0.0556842
0.055702
0.0557094
0.0541881
0.0541806
0.0541625
0.0541304
0.0540816
0.0540153
0.0539339
0.0538429
0.053749
0.0536582
0.0535737
0.0534992
0.0534403
0.0534085
0.0534259
0.0535296
0.0537489
0.0540291
0.0543186
0.0545792
0.0547986
0.0549784
0.0551266
0.0552516
0.0553601
0.055455
0.0555358
0.055601
0.0556496
0.0556821
0.0557006
0.0557083
0.0541831
0.0541751
0.0541557
0.0541212
0.054069
0.0539989
0.0539141
0.0538206
0.0537251
0.0536329
0.0535467
0.0534693
0.0534064
0.0533693
0.0533812
0.0534826
0.0537062
0.0539932
0.0542896
0.054554
0.0547755
0.0549569
0.0551068
0.0552335
0.0553441
0.0554413
0.0555247
0.0555926
0.0556437
0.0556781
0.0556978
0.055706
0.0541748
0.0541661
0.0541447
0.0541067
0.0540497
0.0539742
0.0538845
0.0537873
0.053689
0.0535939
0.0535034
0.0534195
0.0533471
0.0532978
0.0532973
0.0533931
0.0536257
0.0539278
0.0542385
0.0545106
0.0547364
0.0549214
0.055075
0.0552059
0.0553208
0.0554222
0.0555097
0.0555815
0.0556358
0.0556726
0.0556936
0.0557024
0.0541632
0.0541536
0.0541299
0.0540876
0.0540247
0.0539428
0.0538472
0.053745
0.0536421
0.0535413
0.0534424
0.0533461
0.0532561
0.0531845
0.0531611
0.0532461
0.0534939
0.0538224
0.0541577
0.0544436
0.0546778
0.0548698
0.0550308
0.0551693
0.0552916
0.0553996
0.0554927
0.0555691
0.055627
0.0556662
0.0556885
0.0556978
0.0541488
0.0541383
0.0541121
0.0540655
0.0539966
0.0539078
0.0538054
0.0536968
0.0535868
0.0534765
0.0533637
0.0532472
0.0531292
0.0530222
0.0529623
0.0530287
0.0532982
0.0536659
0.0540375
0.054346
0.0545954
0.0548003
0.0549739
0.0551249
0.0552583
0.0553755
0.0554757
0.0555572
0.0556185
0.0556597
0.0556831
0.0556927
0.0541325
0.0541214
0.0540931
0.0540428
0.0539684
0.0538731
0.0537634
0.0536468
0.0535268
0.0534027
0.0532699
0.0531249
0.0529678
0.0528109
0.0526981
0.0527353
0.053031
0.0534495
0.0538682
0.0542104
0.0544849
0.0547115
0.0549053
0.0550744
0.0552232
0.0553521
0.0554605
0.0555472
0.0556114
0.0556541
0.0556781
0.0556879
0.0541159
0.0541043
0.0540749
0.054022
0.0539437
0.0538428
0.0537261
0.0536004
0.0534681
0.0533267
0.0531693
0.0529893
0.0527835
0.0525625
0.0523782
0.0523719
0.0526941
0.0531708
0.0536444
0.0540322
0.0543445
0.054604
0.0548267
0.0550205
0.0551887
0.0553315
0.0554487
0.0555402
0.0556066
0.0556501
0.0556744
0.0556842
0.0541006
0.0540889
0.0540591
0.0540054
0.0539251
0.0538208
0.0536983
0.0535639
0.0534192
0.05326
0.053077
0.0528597
0.0525995
0.0523019
0.0520252
0.0519575
0.0523017
0.0528386
0.0533712
0.0538152
0.0541781
0.0544819
0.0547424
0.0549665
0.0551573
0.0553152
0.0554412
0.0555369
0.0556047
0.0556483
0.0556725
0.0556824
0.0540882
0.0540766
0.0540475
0.0539947
0.0539152
0.0538103
0.0536852
0.0535453
0.0533915
0.0532186
0.0530145
0.0527634
0.0524474
0.0520608
0.051666
0.0515165
0.0518774
0.0524752
0.0530692
0.0535766
0.0539994
0.0543561
0.0546602
0.0549179
0.0551321
0.0553048
0.0554386
0.0555375
0.0556059
0.0556494
0.0556734
0.0556832
0.0540806
0.0540694
0.0540416
0.0539916
0.0539157
0.0538144
0.0536918
0.0535525
0.0533973
0.05322
0.0530051
0.0527283
0.0523562
0.051862
0.0513126
0.0510626
0.0514456
0.0521137
0.0527751
0.0533496
0.0538353
0.0542465
0.0545941
0.0548833
0.0551182
0.0553027
0.0554421
0.0555426
0.0556109
0.0556538
0.0556776
0.0556875
0.0540798
0.0540691
0.0540432
0.0539973
0.0539281
0.0538354
0.0537222
0.0535926
0.0534473
0.0532784
0.0530656
0.0527715
0.0523365
0.0516995
0.0509424
0.0505826
0.051019
0.0517903
0.0525372
0.0531823
0.0537266
0.0541845
0.0545661
0.0548772
0.0551242
0.0553139
0.0554542
0.0555538
0.0556208
0.0556629
0.0556864
0.0556963
0.0540904
0.0540803
0.0540569
0.0540167
0.0539569
0.0538772
0.0537804
0.0536701
0.0535463
0.0533988
0.0531987
0.0528883
0.0523675
0.0515241
0.0504915
0.0500346
0.050596
0.0515376
0.0524073
0.0531316
0.0537257
0.0542128
0.0546082
0.0549218
0.0551645
0.0553473
0.0554809
0.0555753
0.0556389
0.0556793
0.0557022
0.0557121
0.054111
0.0541009
0.0540794
0.0540448
0.0539963
0.0539343
0.0538616
0.0537808
0.0536897
0.0535725
0.0533879
0.0530483
0.0523924
0.05124
0.0498633
0.0493637
0.050169
0.0513806
0.0524272
0.0532474
0.0538836
0.054378
0.0547588
0.0550464
0.0552602
0.0554174
0.0555316
0.0556131
0.0556694
0.0557064
0.0557284
0.0557384
0.0541655
0.0541562
0.0541376
0.0541099
0.0540738
0.0540308
0.0539833
0.0539326
0.0538735
0.0537834
0.0536028
0.0531982
0.0523141
0.0507028
0.048938
0.0485115
0.0497117
0.0512924
0.052564
0.0535031
0.0541893
0.0546861
0.0550363
0.0552757
0.0554392
0.0555528
0.0556341
0.0556934
0.0557367
0.0557674
0.055787
0.0557964
0.0542261
0.0542166
0.054199
0.054176
0.0541504
0.0541247
0.0541011
0.0540794
0.0540521
0.0539876
0.0537964
0.0532621
0.0519808
0.0497109
0.0475724
0.0473724
0.0490432
0.0509675
0.0524298
0.0535069
0.0543171
0.0549148
0.055318
0.0555526
0.0556741
0.0557377
0.0557805
0.0558171
0.0558472
0.0558666
0.0558752
0.0558771
0.0543665
0.0543549
0.0543323
0.0543013
0.0542673
0.0542374
0.0542181
0.0542117
0.0542086
0.0541617
0.0539232
0.0531337
0.0512057
0.0481245
0.0457048
0.0456739
0.0474094
0.0491672
0.0504836
0.0515916
0.0526168
0.0535689
0.054398
0.0550341
0.0554896
0.0557647
0.0558759
0.0558547
0.0557467
0.0556065
0.0554866
0.0554219
0.0544638
0.0544713
0.0544813
0.0544863
0.0544808
0.0544663
0.0544502
0.0544383
0.0544181
0.0543169
0.0539078
0.052671
0.0499281
0.0461249
0.0434242
0.0428541
0.0433469
0.0436445
0.043725
0.0438753
0.0442155
0.0447593
0.0454485
0.0461881
0.0469278
0.0475799
0.0480918
0.0484327
0.0486093
0.0486622
0.0486512
0.048631
0.0539374
0.0539884
0.0540854
0.0542105
0.0543365
0.0544392
0.0545055
0.0545296
0.0544885
0.0542794
0.0536009
0.0518362
0.0484218
0.0442248
0.0410695
0.0391622
0.0374877
0.035555
0.0336596
0.0320396
0.0307955
0.0299617
0.0295229
0.0294498
0.0297103
0.0302491
0.0310133
0.0319146
0.0328313
0.033619
0.0341581
0.0344078
0.0526152
0.052702
0.0528831
0.0531464
0.0534554
0.0537582
0.0540042
0.0541513
0.0541453
0.053846
0.0529101
0.0507573
0.0471012
0.0429519
0.0395734
0.0367471
0.0337085
0.0305292
0.0277004
0.0253804
0.0235397
0.0221088
0.0210239
0.0202562
0.0198108
0.0197027
0.0199394
0.0204843
0.0212364
0.0220249
0.0226524
0.0229789
0.0508823
0.0509818
0.0512045
0.0515559
0.052009
0.0525011
0.0529483
0.053261
0.0533391
0.0530076
0.0519386
0.0497167
0.0463319
0.0425963
0.03928
0.0361577
0.0327229
0.0292897
0.026444
0.0243107
0.0227453
0.0215432
0.0205461
0.0196717
0.018911
0.0182999
0.0178867
0.0177049
0.0177485
0.017955
0.0182069
0.0183725
0.0491117
0.0492119
0.0494476
0.0498394
0.0503746
0.0509927
0.0515903
0.0520389
0.0521949
0.0518593
0.0507446
0.0485924
0.0455483
0.0422494
0.0391944
0.0362088
0.0329582
0.029767
0.0271569
0.0252267
0.0238191
0.0226966
0.0216744
0.0206615
0.0196646
0.018751
0.0180002
0.0174674
0.0171626
0.0170518
0.0170639
0.0171074
0.0473966
0.0474992
0.0477452
0.0481618
0.0487432
0.0494327
0.0501169
0.050642
0.0508349
0.0504888
0.049364
0.0473231
0.0445803
0.041645
0.0388736
0.0361593
0.0332857
0.0304868
0.0281485
0.0263417
0.0249453
0.0237666
0.0226426
0.0214817
0.0202855
0.0191299
0.0181235
0.0173573
0.0168653
0.016619
0.0165447
0.0165487
0.0456494
0.0457617
0.0460274
0.0464709
0.0470838
0.0478094
0.048531
0.0490798
0.0492628
0.0488774
0.047732
0.045777
0.0432571
0.0405951
0.0380639
0.0356122
0.033116
0.0307137
0.0286445
0.0269483
0.0255506
0.0243214
0.0231371
0.0219156
0.0206424
0.0193695
0.0182028
0.0172583
0.0166076
0.016249
0.0161149
0.0161002
0.0437377
0.0438671
0.0441586
0.0446237
0.0452443
0.0459636
0.0466713
0.0471949
0.047322
0.0468584
0.0456622
0.0437529
0.0413914
0.038939
0.0366109
0.0343886
0.0322167
0.0301689
0.0283656
0.0268142
0.0254712
0.024256
0.0230826
0.0218847
0.0206378
0.0193674
0.0181557
0.0171183
0.0163557
0.015903
0.0157141
0.0156825
0.041546
0.0416971
0.0420058
0.0424585
0.0430267
0.0436626
0.0442776
0.0447131
0.0447399
0.0441735
0.0429222
0.0410584
0.0388449
0.0365906
0.0344651
0.032465
0.0305801
0.0288499
0.0273142
0.0259526
0.0247348
0.0236116
0.0225255
0.0214257
0.0202843
0.0191069
0.0179488
0.0169081
0.0160946
0.0155763
0.0153395
0.0152903
0.0389863
0.0391574
0.03945
0.0398177
0.0402333
0.0406768
0.0410995
0.0413741
0.0412713
0.0406211
0.039369
0.0376137
0.0355989
0.0335814
0.0316946
0.0299407
0.028336
0.0269045
0.025639
0.0245001
0.0234616
0.0224923
0.0215537
0.0206091
0.0196314
0.018613
0.0175828
0.016615
0.0158139
0.0152667
0.0149938
0.0149272
0.0359822
0.0361597
0.0363722
0.0365535
0.0367082
0.0368644
0.0370209
0.037089
0.0368662
0.0362011
0.0350502
0.033507
0.031775
0.030059
0.028464
0.0269957
0.0256826
0.0245419
0.023544
0.0226419
0.0218113
0.0210308
0.0202749
0.0195177
0.0187366
0.0179171
0.0170674
0.016234
0.0155036
0.0149694
0.0146788
0.0145965
0.0324409
0.0325894
0.0326317
0.0325399
0.0323864
0.0322431
0.0321399
0.0320237
0.0317365
0.0311455
0.0302004
0.0289666
0.0275955
0.0262415
0.0249863
0.0238391
0.0228305
0.0219733
0.0212328
0.0205643
0.0199469
0.0193652
0.0188024
0.0182415
0.0176651
0.0170583
0.0164169
0.0157618
0.0151536
0.0146763
0.0143928
0.0143003
0.0282225
0.0282715
0.0280688
0.0277177
0.027341
0.0270098
0.026755
0.0265454
0.026272
0.0258257
0.0251521
0.0242832
0.023317
0.0223601
0.0214728
0.0206657
0.0199647
0.0193785
0.0188779
0.018428
0.0180127
0.0176216
0.0172441
0.0168698
0.0164872
0.0160846
0.0156538
0.0151992
0.014753
0.0143761
0.0141309
0.0140391
0.0231145
0.0229841
0.0226124
0.0222038
0.021824
0.0215037
0.0212599
0.0210744
0.0208841
0.0206172
0.0202298
0.0197306
0.019172
0.0186156
0.0180987
0.0176298
0.0172257
0.0168915
0.0166085
0.0163553
0.0161222
0.015903
0.0156921
0.0154841
0.0152727
0.0150511
0.0148131
0.0145567
0.0142935
0.0140549
0.0138839
0.0138104
0.0168789
0.0167803
0.0165908
0.0164112
0.0162533
0.0161224
0.0160235
0.0159508
0.0158837
0.0157968
0.0156732
0.0155136
0.0153338
0.0151541
0.0149869
0.0148354
0.0147054
0.0145985
0.0145084
0.0144279
0.0143541
0.0142847
0.0142182
0.0141529
0.0140867
0.0140178
0.0139439
0.0138639
0.0137799
0.0137002
0.0136382
0.0136079
)
;

boundaryField
{
    movingWall
    {
        type            fixedValue;
        value           uniform 0.0135;
    }
    fixedWalls
    {
        type            zeroGradient;
    }
    floor
    {
        type            zeroGradient;
    }
    frontAndBack
    {
        type            empty;
    }
}


// ************************************************************************* //
