/*--------------------------------*- C++ -*----------------------------------*\
| =========                 |                                                 |
| \\      /  F ield         | OpenFOAM: The Open Source CFD Toolbox           |
|  \\    /   O peration     | Version:  2212                                  |
|   \\  /    A nd           | Website:  www.openfoam.com                      |
|    \\/     M anipulation  |                                                 |
\*---------------------------------------------------------------------------*/
FoamFile
{
    version     2.0;
    format      ascii;
    arch        "LSB;label=64;scalar=64";
    class       volScalarField;
    location    "400";
    object      p_rgh;
}
// * * * * * * * * * * * * * * * * * * * * * * * * * * * * * * * * * * * * * //

dimensions      [0 2 -2 0 0 0 0];

internalField   nonuniform List<scalar> 
1024
(
0.0431965
0.0431919
0.0431869
0.043184
0.0431833
0.0431834
0.0431839
0.0431867
0.0431957
0.043217
0.0432586
0.0433309
0.0434457
0.0436072
0.0437933
0.0439383
0.0439629
0.0438974
0.0437723
0.0436998
0.0436654
0.043655
0.0436489
0.0436322
0.0436005
0.0435595
0.0435195
0.0434873
0.043466
0.0434566
0.0434578
0.0434637
0.0432107
0.0432062
0.0432024
0.0432013
0.0432022
0.0432036
0.0432055
0.0432095
0.0432197
0.0432421
0.0432848
0.0433583
0.0434742
0.0436373
0.0438247
0.0439703
0.0439945
0.0439274
0.0437989
0.0437247
0.04369
0.04368
0.0436745
0.0436582
0.0436262
0.0435842
0.0435435
0.0435106
0.0434883
0.0434774
0.0434773
0.0434831
0.0432393
0.0432342
0.0432322
0.0432353
0.0432407
0.0432462
0.0432515
0.0432586
0.0432719
0.0432975
0.0433437
0.043421
0.0435412
0.0437091
0.0439003
0.0440478
0.0440715
0.0440007
0.0438628
0.0437839
0.043749
0.0437411
0.0437381
0.0437228
0.0436894
0.0436432
0.0435969
0.0435573
0.043528
0.0435108
0.0435069
0.0435125
0.043279
0.0432733
0.043275
0.0432857
0.0433001
0.0433136
0.0433254
0.0433384
0.0433574
0.0433891
0.0434417
0.0435258
0.0436532
0.0438267
0.0440222
0.0441712
0.0441946
0.0441215
0.0439725
0.0438876
0.0438526
0.0438477
0.0438479
0.0438338
0.0437973
0.0437426
0.0436832
0.0436272
0.0435806
0.0435487
0.0435364
0.0435401
0.0433193
0.0433144
0.0433233
0.0433472
0.0433767
0.0434037
0.0434267
0.0434493
0.0434772
0.0435175
0.0435782
0.0436694
0.0438024
0.0439768
0.0441722
0.0443203
0.0443447
0.0442766
0.0441272
0.0440406
0.0440056
0.0440022
0.0440036
0.0439889
0.0439473
0.0438802
0.0437996
0.043715
0.043638
0.0435804
0.0435525
0.0435513
0.0433399
0.0433381
0.0433596
0.0434045
0.0434573
0.0435054
0.0435458
0.0435824
0.0436218
0.0436711
0.0437378
0.0438307
0.04396
0.044126
0.0443147
0.0444595
0.044489
0.0444367
0.0443101
0.0442313
0.0441978
0.0441925
0.044191
0.0441726
0.0441241
0.0440421
0.0439328
0.0438078
0.0436868
0.0435919
0.0435413
0.0435323
0.0433142
0.0433181
0.0433582
0.043433
0.0435195
0.0435983
0.0436634
0.0437182
0.0437697
0.0438248
0.0438901
0.0439736
0.0440859
0.0442353
0.0444136
0.0445557
0.0445959
0.0445694
0.0444879
0.0444283
0.0443989
0.0443897
0.0443824
0.0443584
0.0443026
0.0442057
0.0440619
0.0438876
0.0437118
0.0435709
0.0434931
0.0434749
0.0432179
0.0432294
0.0432928
0.0434065
0.043538
0.0436582
0.0437553
0.0438313
0.0438929
0.0439469
0.0440005
0.0440633
0.0441496
0.0442809
0.0444519
0.0445957
0.044651
0.044654
0.0446234
0.0445896
0.0445683
0.0445577
0.044546
0.0445176
0.0444552
0.0443424
0.0441635
0.0439361
0.0437007
0.0435109
0.0434059
0.0433789
0.0430388
0.0430582
0.0431471
0.043306
0.0434928
0.0436646
0.0438004
0.0438989
0.0439669
0.0440123
0.0440457
0.044082
0.0441437
0.0442632
0.0444356
0.044587
0.0446588
0.0446881
0.0446958
0.0446873
0.0446785
0.0446721
0.0446612
0.0446321
0.0445649
0.0444354
0.0442221
0.0439422
0.0436483
0.0434131
0.0432852
0.0432513
0.042781
0.0428074
0.0429201
0.0431262
0.0433752
0.0436067
0.0437866
0.0439081
0.043979
0.0440112
0.0440213
0.0440332
0.0440785
0.0441968
0.0443821
0.0445466
0.0446337
0.0446824
0.0447102
0.0447219
0.0447277
0.0447311
0.0447267
0.0447005
0.0446288
0.0444812
0.0442334
0.0439032
0.0435567
0.0432846
0.0431407
0.0431023
0.0424619
0.0424931
0.0426244
0.0428742
0.0431871
0.0434836
0.0437116
0.0438572
0.0439299
0.0439479
0.043937
0.0439302
0.0439684
0.0440971
0.0443077
0.0444905
0.0445912
0.0446484
0.0446864
0.0447126
0.0447332
0.0447492
0.0447544
0.044732
0.0446544
0.0444856
0.0442012
0.0438229
0.0434321
0.0431342
0.042982
0.0429418
0.0421045
0.0421381
0.0422801
0.042564
0.0429368
0.0433001
0.0435802
0.0437526
0.0438288
0.043835
0.0438068
0.0437866
0.0438242
0.0439761
0.0442262
0.0444304
0.0445379
0.0445979
0.044643
0.0446812
0.0447155
0.0447444
0.0447592
0.0447397
0.0446528
0.0444571
0.0441315
0.0437068
0.0432812
0.0429696
0.0428161
0.042776
0.0417305
0.0417638
0.0419074
0.0422104
0.0426324
0.0430614
0.0433985
0.043604
0.0436888
0.0436876
0.0436452
0.0436128
0.0436536
0.0438482
0.0441552
0.0443756
0.0444781
0.0445382
0.0445914
0.044642
0.0446896
0.0447298
0.044752
0.0447314
0.044629
0.0443994
0.0440263
0.0435569
0.0431078
0.042795
0.0426477
0.0426095
0.0413615
0.0413923
0.0415252
0.0418216
0.0422735
0.0427622
0.0431642
0.0434151
0.0435209
0.04352
0.0434662
0.0434201
0.0434668
0.0437411
0.0441207
0.0443379
0.0444204
0.0444761
0.0445379
0.0446019
0.0446627
0.0447133
0.0447394
0.0447094
0.0445766
0.0442968
0.0438672
0.0433572
0.0429082
0.0426185
0.0424853
0.0424504
0.041024
0.041051
0.0411665
0.0414317
0.0418565
0.0423639
0.042842
0.0431625
0.0433113
0.0433283
0.0432681
0.0432034
0.0432873
0.0437062
0.0441589
0.0443453
0.0443839
0.0444229
0.0444848
0.0445541
0.0446215
0.0446734
0.0446943
0.0446272
0.0444266
0.0440448
0.0435723
0.0430991
0.0427134
0.0424711
0.0423602
0.0423297
0.0407595
0.0407804
0.0408709
0.0410867
0.0414494
0.0419139
0.0423873
0.0427653
0.0429918
0.0430643
0.0430188
0.0429592
0.0431767
0.0438245
0.0443291
0.0444407
0.0444014
0.0443915
0.0444133
0.0444453
0.0444864
0.0445072
0.0444119
0.0442138
0.0439487
0.0436198
0.0432498
0.0428952
0.0426155
0.0424419
0.0423612
0.0423365
0.0406691
0.0406759
0.0407293
0.0408798
0.0411564
0.0415382
0.0419575
0.0423287
0.0425865
0.0427051
0.0427115
0.042761
0.0432585
0.0441652
0.0446894
0.0446485
0.0444814
0.0443589
0.0442564
0.0441429
0.0440181
0.0438979
0.0438031
0.0437143
0.0435802
0.0433926
0.0431683
0.0429469
0.0427716
0.042664
0.042614
0.0425974
0.0409398
0.0409031
0.0408765
0.0409209
0.0410768
0.0413411
0.0416679
0.0419889
0.0422416
0.0423942
0.0424832
0.0427262
0.0435851
0.0447733
0.0451631
0.0449508
0.0446819
0.0444788
0.0443558
0.0442942
0.0442709
0.0442648
0.0442557
0.0442191
0.0441366
0.0440001
0.0438192
0.0436298
0.0434797
0.0433987
0.0433761
0.0433748
0.0418392
0.0417116
0.0415206
0.0413623
0.041312
0.0413918
0.0415736
0.0418025
0.0420188
0.0422015
0.0424182
0.0429565
0.0441258
0.0454518
0.0456704
0.0455543
0.0455008
0.0455848
0.0457445
0.0459346
0.0461379
0.0463501
0.0465618
0.0467525
0.0468928
0.0469512
0.0469047
0.0467469
0.0464907
0.0461817
0.0459113
0.04577
0.0433543
0.0431443
0.0427696
0.0423426
0.0419918
0.0417948
0.0417571
0.0418391
0.041986
0.0421893
0.0425565
0.0434113
0.0447996
0.0460642
0.0463414
0.0464563
0.0465645
0.0466712
0.0467653
0.0468587
0.0469609
0.0470845
0.0472308
0.0473886
0.047539
0.0476591
0.0477332
0.0477537
0.0477233
0.0476503
0.0475585
0.0474911
0.0448938
0.0446839
0.0442502
0.0436531
0.0430314
0.0425315
0.0422281
0.0421199
0.0421695
0.0423785
0.042865
0.0438656
0.0452325
0.0462887
0.046695
0.0468565
0.0469929
0.0470999
0.0471357
0.0471331
0.0471396
0.0471732
0.0472402
0.0473362
0.0474501
0.0475666
0.047669
0.0477435
0.047786
0.0477993
0.0477925
0.0477777
0.0459705
0.0458093
0.0454376
0.0448426
0.0441081
0.0434015
0.0428745
0.0425909
0.0425475
0.0427586
0.0433253
0.0443505
0.0455458
0.046383
0.046744
0.0469187
0.0470578
0.0471747
0.0472391
0.0472312
0.0472028
0.0471932
0.0472123
0.0472605
0.0473346
0.0474296
0.0475294
0.0476165
0.0476796
0.0477147
0.0477274
0.0477259
0.0465938
0.0464775
0.0461894
0.0456842
0.044982
0.0442125
0.0435663
0.0431719
0.0430726
0.0432936
0.0438956
0.0448542
0.0458386
0.0464898
0.0467836
0.0469134
0.0470034
0.0470937
0.0471689
0.0472102
0.0472131
0.0472165
0.0472307
0.047268
0.0473234
0.0474028
0.0474962
0.0475884
0.0476631
0.0477094
0.0477281
0.0477298
0.0469622
0.0468662
0.0466303
0.0462188
0.0456253
0.0449028
0.0442396
0.0438098
0.0436983
0.043935
0.0445261
0.0453557
0.0461252
0.0466139
0.0468347
0.0469166
0.0469501
0.0469815
0.0470245
0.0470726
0.0471213
0.0471766
0.0472393
0.0473145
0.0473981
0.0474861
0.047584
0.047686
0.0477755
0.047835
0.0478598
0.047864
0.0472017
0.0471122
0.0469038
0.0465569
0.0460729
0.0454862
0.0448909
0.0444749
0.0443854
0.0446301
0.0451652
0.0458317
0.0464
0.0467466
0.0468959
0.0469305
0.0469106
0.0468842
0.0468868
0.0469234
0.0469941
0.0470919
0.0472098
0.0473439
0.047487
0.0476301
0.0477707
0.0478978
0.0480111
0.0480925
0.0481282
0.0481375
0.0473626
0.0472748
0.0470869
0.0467959
0.0464123
0.0459639
0.0455052
0.0451485
0.045091
0.0453284
0.0457709
0.0462644
0.0466527
0.046875
0.0469555
0.0469442
0.0468787
0.0468056
0.0467726
0.0467936
0.0468708
0.0469953
0.0471582
0.0473516
0.0475655
0.0477866
0.0480007
0.0481913
0.0483511
0.0484714
0.0485305
0.0485514
0.0474627
0.0473778
0.047213
0.0469787
0.0466931
0.0463777
0.0460609
0.045803
0.0457785
0.0459856
0.0463129
0.0466389
0.0468707
0.0469847
0.0470009
0.0469463
0.0468422
0.0467342
0.0466741
0.0466816
0.0467604
0.0469022
0.0470995
0.0473447
0.0476262
0.0479294
0.0482348
0.0485191
0.0487611
0.0489491
0.0490587
0.0491061
0.0475042
0.0474278
0.0472951
0.0471266
0.0469407
0.0467497
0.0465626
0.0464074
0.0464131
0.0465662
0.04677
0.0469438
0.0470432
0.0470654
0.0470238
0.0469298
0.0467945
0.0466613
0.0465826
0.0465813
0.0466617
0.0468164
0.04704
0.0473261
0.0476654
0.0480443
0.0484435
0.0488373
0.0491966
0.0494949
0.0496972
0.0498003
0.0474713
0.0474192
0.0473409
0.0472554
0.0471694
0.0470879
0.0470086
0.0469411
0.0469643
0.0470475
0.047132
0.0471757
0.0471673
0.0471142
0.0470234
0.0468962
0.0467374
0.0465877
0.0464982
0.046493
0.0465759
0.0467407
0.0469831
0.0472988
0.0476807
0.04812
0.0486014
0.0491064
0.0496087
0.0500715
0.0504264
0.0506585
0.0473209
0.0473453
0.0473674
0.0473814
0.0473849
0.0473841
0.0473884
0.0473898
0.0474064
0.0474194
0.047401
0.0473413
0.0472493
0.0471368
0.0470069
0.0468549
0.0466806
0.0465216
0.0464272
0.0464215
0.046507
0.0466784
0.0469322
0.0472659
0.047674
0.0481522
0.0486931
0.049292
0.0499426
0.0506234
0.0512587
0.0518134
0.0468602
0.0472209
0.0474147
0.0475182
0.0475832
0.0476373
0.0476864
0.0477172
0.04772
0.0476773
0.0475839
0.0474502
0.047298
0.0471433
0.0469867
0.046819
0.0466362
0.0464731
0.0463771
0.0463718
0.0464586
0.0466328
0.0468912
0.0472322
0.0476513
0.0481471
0.0487191
0.0493779
0.0501483
0.0510715
0.0521865
0.0534504
0.0458656
0.0470852
0.0475256
0.047651
0.047732
0.0478029
0.0478623
0.0478967
0.0478858
0.0478127
0.0476787
0.0475051
0.0473204
0.0471437
0.046974
0.0467992
0.0466132
0.0464486
0.0463524
0.046347
0.0464337
0.0466079
0.0468666
0.0472079
0.0476279
0.0481263
0.0487074
0.0493929
0.0502374
0.0513549
0.0529729
0.0552432
)
;

boundaryField
{
    movingWall
    {
        type            fixedFluxPressure;
        gradient        uniform 0;
        value           nonuniform List<scalar> 
32
(
0.0458656
0.0470852
0.0475256
0.047651
0.047732
0.0478029
0.0478623
0.0478967
0.0478858
0.0478127
0.0476787
0.0475051
0.0473204
0.0471437
0.046974
0.0467992
0.0466132
0.0464486
0.0463524
0.046347
0.0464337
0.0466079
0.0468666
0.0472079
0.0476279
0.0481263
0.0487074
0.0493929
0.0502374
0.0513549
0.0529729
0.0552432
)
;
    }
    fixedWalls
    {
        type            fixedFluxPressure;
        gradient        uniform 0;
        value           nonuniform List<scalar> 
64
(
0.0431965
0.0432107
0.0432393
0.043279
0.0433193
0.0433399
0.0433142
0.0432179
0.0430388
0.042781
0.0424619
0.0421045
0.0417305
0.0413615
0.041024
0.0407595
0.0406691
0.0409398
0.0418392
0.0433543
0.0448938
0.0459705
0.0465938
0.0469622
0.0472017
0.0473626
0.0474627
0.0475042
0.0474713
0.0473209
0.0468602
0.0458656
0.0434637
0.0434831
0.0435125
0.0435401
0.0435513
0.0435323
0.0434749
0.0433789
0.0432513
0.0431023
0.0429418
0.042776
0.0426095
0.0424504
0.0423297
0.0423365
0.0425974
0.0433748
0.04577
0.0474911
0.0477777
0.0477259
0.0477298
0.047864
0.0481375
0.0485514
0.0491061
0.0498003
0.0506585
0.0518134
0.0534504
0.0552432
)
;
    }
    floor
    {
        type            fixedFluxPressure;
        gradient        uniform 0;
        value           nonuniform List<scalar> 
32
(
0.0431965
0.0431919
0.0431869
0.043184
0.0431833
0.0431834
0.0431839
0.0431867
0.0431957
0.043217
0.0432586
0.0433309
0.0434457
0.0436072
0.0437933
0.0439383
0.0439629
0.0438974
0.0437723
0.0436998
0.0436654
0.043655
0.0436489
0.0436322
0.0436005
0.0435595
0.0435195
0.0434873
0.043466
0.0434566
0.0434578
0.0434637
)
;
    }
    frontAndBack
    {
        type            empty;
    }
}


// ************************************************************************* //
