/*--------------------------------*- C++ -*----------------------------------*\
| =========                 |                                                 |
| \\      /  F ield         | OpenFOAM: The Open Source CFD Toolbox           |
|  \\    /   O peration     | Version:  2212                                  |
|   \\  /    A nd           | Website:  www.openfoam.com                      |
|    \\/     M anipulation  |                                                 |
\*---------------------------------------------------------------------------*/
FoamFile
{
    version     2.0;
    format      ascii;
    arch        "LSB;label=64;scalar=64";
    class       surfaceScalarField;
    location    "400";
    object      phi;
}
// * * * * * * * * * * * * * * * * * * * * * * * * * * * * * * * * * * * * * //

dimensions      [0 3 -1 0 0 0 0];

oriented        oriented;

internalField   nonuniform List<scalar> 
1984
(
-1.04551e-09
1.04703e-09
-1.6882e-08
1.58364e-08
-4.82782e-08
3.13962e-08
-8.63297e-08
3.80513e-08
-1.25171e-07
3.88412e-08
-1.65132e-07
3.99611e-08
-2.0931e-07
4.41775e-08
-2.59649e-07
5.03393e-08
-3.15645e-07
5.59955e-08
-3.74429e-07
5.87836e-08
-4.3099e-07
5.65615e-08
-4.76469e-07
4.54784e-08
-4.9533e-07
1.88608e-08
-4.61481e-07
-3.38489e-08
-3.4998e-07
-1.11501e-07
-1.69432e-07
-1.80547e-07
9.2823e-09
-1.78715e-07
1.27353e-07
-1.1807e-07
1.32278e-07
-4.92565e-09
1.1043e-07
2.18479e-08
9.94187e-08
1.10118e-08
1.15182e-07
-1.57635e-08
1.55888e-07
-4.07061e-08
2.05036e-07
-4.91475e-08
2.41009e-07
-3.59733e-08
2.49862e-07
-8.85351e-09
2.29638e-07
2.02243e-08
1.83574e-07
4.60643e-08
1.20193e-07
6.33809e-08
5.54465e-08
6.47461e-08
1.1307e-08
4.41391e-08
1.13067e-08
-1.97933e-08
2.08403e-08
-8.58673e-08
8.19106e-08
-1.91725e-07
1.37254e-07
-3.18618e-07
1.64944e-07
-4.52696e-07
1.72918e-07
-5.91999e-07
1.79264e-07
-7.4065e-07
1.92828e-07
-9.00737e-07
2.10427e-07
-1.06863e-06
2.23887e-07
-1.23455e-06
2.24703e-07
-1.38233e-06
2.04345e-07
-1.48624e-06
1.49386e-07
-1.50644e-06
3.90643e-08
-1.38174e-06
-1.58549e-07
-1.05699e-06
-4.36258e-07
-5.50659e-07
-6.86876e-07
-3.45478e-08
-6.94825e-07
3.08979e-07
-4.61597e-07
3.63467e-07
-5.94136e-08
3.34194e-07
5.11203e-08
3.2834e-07
1.68661e-08
3.85454e-07
-7.28774e-08
4.97172e-07
-1.52424e-07
6.21431e-07
-1.73406e-07
7.08757e-07
-1.23299e-07
7.27384e-07
-2.74806e-08
6.69856e-07
7.77518e-08
5.42886e-07
1.73035e-07
3.6927e-07
2.36996e-07
1.89088e-07
2.44927e-07
5.28938e-08
1.80333e-07
6.42003e-08
-5.36286e-08
7.44689e-08
-1.98011e-07
2.26292e-07
-4.07699e-07
3.46942e-07
-6.51601e-07
4.08846e-07
-9.09481e-07
4.30797e-07
-1.1752e-06
4.44988e-07
-1.44913e-06
4.66754e-07
-1.72924e-06
4.90534e-07
-2.00647e-06
5.01115e-07
-2.26339e-06
4.81622e-07
-2.47302e-06
4.13976e-07
-2.59525e-06
2.71623e-07
-2.5709e-06
1.47107e-08
-2.31917e-06
-4.1028e-07
-1.77525e-06
-9.80182e-07
-9.68209e-07
-1.49391e-06
-1.4865e-07
-1.51439e-06
4.13968e-07
-1.02421e-06
5.63154e-07
-2.086e-07
5.72582e-07
4.1693e-08
6.03363e-07
-1.39146e-08
7.10853e-07
-1.80368e-07
8.80726e-07
-3.22296e-07
1.05728e-06
-3.49963e-07
1.17795e-06
-2.43967e-07
1.19913e-06
-4.86581e-08
1.10465e-06
1.72227e-07
9.02862e-07
3.74823e-07
6.27232e-07
5.12626e-07
3.35175e-07
5.36984e-07
1.01303e-07
4.14204e-07
1.65504e-07
-1.00419e-07
1.74888e-07
-3.49829e-07
4.75702e-07
-6.93021e-07
6.90133e-07
-1.08065e-06
7.9647e-07
-1.48411e-06
8.34259e-07
-1.89104e-06
8.51921e-07
-2.29486e-06
8.70574e-07
-2.68687e-06
8.82538e-07
-3.05193e-06
8.66175e-07
-3.36633e-06
7.96025e-07
-3.59551e-06
6.43158e-07
-3.69024e-06
3.66355e-07
-3.57681e-06
-9.87256e-08
-3.17112e-06
-8.15969e-07
-2.41612e-06
-1.73518e-06
-1.35554e-06
-2.55449e-06
-3.17153e-07
-2.55277e-06
4.19853e-07
-1.76122e-06
7.01984e-07
-4.90732e-07
8.02033e-07
-5.83556e-08
9.02287e-07
-1.14168e-07
1.06409e-06
-3.42173e-07
1.27262e-06
-5.30825e-07
1.47418e-06
-5.51527e-07
1.60686e-06
-3.76647e-07
1.62032e-06
-6.21123e-08
1.48828e-06
3.04265e-07
1.2184e-06
6.44704e-07
8.51693e-07
8.79332e-07
4.60208e-07
9.2847e-07
1.41371e-07
7.33041e-07
3.06874e-07
-1.53957e-07
3.28845e-07
-5.21453e-07
8.43197e-07
-1.01284e-06
1.18152e-06
-1.55628e-06
1.33991e-06
-2.11086e-06
1.38884e-06
-2.65546e-06
1.39652e-06
-3.17551e-06
1.39063e-06
-3.6557e-06
1.36273e-06
-4.07616e-06
1.28664e-06
-4.40971e-06
1.12957e-06
-4.61833e-06
8.51782e-07
-4.64827e-06
3.96291e-07
-4.42238e-06
-3.24613e-07
-3.86143e-06
-1.37692e-06
-2.91491e-06
-2.6817e-06
-1.6521e-06
-3.8173e-06
-4.9176e-07
-3.71312e-06
3.39933e-07
-2.59291e-06
7.68178e-07
-9.18977e-07
9.99672e-07
-2.89849e-07
1.19516e-06
-3.09654e-07
1.41068e-06
-5.57699e-07
1.63828e-06
-7.58416e-07
1.83892e-06
-7.52169e-07
1.96088e-06
-4.98611e-07
1.95274e-06
-5.3971e-08
1.77924e-06
4.77764e-07
1.44682e-06
9.77132e-07
1.00364e-06
1.32251e-06
5.36815e-07
1.39529e-06
1.62683e-07
1.10717e-06
4.69557e-07
-2.00261e-07
5.29106e-07
-6.73535e-07
1.31647e-06
-1.30236e-06
1.81034e-06
-1.99158e-06
2.02913e-06
-2.68384e-06
2.08111e-06
-3.34686e-06
2.05954e-06
-3.95845e-06
2.00221e-06
-4.49849e-06
1.90277e-06
-4.94497e-06
1.73312e-06
-5.27069e-06
1.45529e-06
-5.43836e-06
1.01945e-06
-5.39428e-06
3.52209e-07
-5.06597e-06
-6.52922e-07
-4.37e-06
-2.0729e-06
-3.24916e-06
-3.80254e-06
-1.81743e-06
-5.24902e-06
-6.00751e-07
-4.9298e-06
2.40476e-07
-3.43414e-06
7.91247e-07
-1.46975e-06
1.16437e-06
-6.62972e-07
1.45994e-06
-6.05223e-07
1.72059e-06
-8.18349e-07
1.9499e-06
-9.87729e-07
2.12855e-06
-9.30814e-07
2.21892e-06
-5.88986e-07
2.17341e-06
-8.46293e-09
1.95173e-06
6.99453e-07
1.56195e-06
1.3669e-06
1.06105e-06
1.82342e-06
5.51499e-07
1.90484e-06
1.6079e-07
1.49788e-06
6.30348e-07
-2.23407e-07
7.52514e-07
-7.63541e-07
1.8566e-06
-1.49361e-06
2.54042e-06
-2.29824e-06
2.83375e-06
-3.10033e-06
2.8832e-06
-3.85449e-06
2.8137e-06
-4.53186e-06
2.67958e-06
-5.11023e-06
2.48114e-06
-5.56884e-06
2.19173e-06
-5.88389e-06
1.77034e-06
-6.02166e-06
1.15723e-06
-5.92969e-06
2.60231e-07
-5.53222e-06
-1.05039e-06
-4.72099e-06
-2.88412e-06
-3.42471e-06
-5.09882e-06
-1.82814e-06
-6.8456e-06
-5.73595e-07
-6.18435e-06
2.23348e-07
-4.23108e-06
8.47922e-07
-2.09432e-06
1.33026e-06
-1.14531e-06
1.69959e-06
-9.74557e-07
1.98331e-06
-1.10206e-06
2.19577e-06
-1.20019e-06
2.3348e-06
-1.06985e-06
2.37587e-06
-6.30047e-07
2.27551e-06
9.1897e-08
1.99968e-06
9.75278e-07
1.55921e-06
1.80738e-06
1.02281e-06
2.35982e-06
5.06825e-07
2.42082e-06
1.38404e-07
1.8663e-06
7.68752e-07
-2.15299e-07
9.67812e-07
-7.67355e-07
2.40866e-06
-1.54555e-06
3.31861e-06
-2.42213e-06
3.71033e-06
-3.29905e-06
3.76012e-06
-4.11632e-06
3.63097e-06
-4.83967e-06
3.40293e-06
-5.44792e-06
3.0894e-06
-5.92486e-06
2.66867e-06
-6.25193e-06
2.09741e-06
-6.39745e-06
1.30274e-06
-6.30258e-06
1.6536e-07
-5.86808e-06
-1.48489e-06
-4.94333e-06
-3.80888e-06
-3.44824e-06
-6.5939e-06
-1.67104e-06
-8.62279e-06
-3.67475e-07
-7.48791e-06
3.87831e-07
-4.98639e-06
1.03125e-06
-2.73774e-06
1.55636e-06
-1.67042e-06
1.94591e-06
-1.36412e-06
2.21575e-06
-1.3719e-06
2.38702e-06
-1.37146e-06
2.46855e-06
-1.15137e-06
2.44432e-06
-6.05822e-07
2.27592e-06
2.60296e-07
1.93937e-06
1.31183e-06
1.45563e-06
2.29112e-06
9.07069e-07
2.90839e-06
4.18995e-07
2.90889e-06
1.03712e-07
2.18159e-06
8.72464e-07
-1.79477e-07
1.14729e-06
-6.87588e-07
2.91677e-06
-1.45529e-06
4.08631e-06
-2.35596e-06
4.61101e-06
-3.27231e-06
4.67647e-06
-4.12869e-06
4.48735e-06
-4.88624e-06
4.16047e-06
-5.52752e-06
3.73068e-06
-6.0429e-06
3.18405e-06
-6.41757e-06
2.47208e-06
-6.61472e-06
1.4999e-06
-6.55438e-06
1.05016e-07
-6.0949e-06
-1.94437e-06
-5.03698e-06
-4.8668e-06
-3.30892e-06
-8.32196e-06
-1.34122e-06
-1.05905e-05
6.7864e-09
-8.83592e-06
7.73093e-07
-5.75269e-06
1.4004e-06
-3.36504e-06
1.89784e-06
-2.16786e-06
2.24513e-06
-1.71141e-06
2.4558e-06
-1.58257e-06
2.55526e-06
-1.47092e-06
2.55802e-06
-1.15414e-06
2.45257e-06
-5.00373e-07
2.20377e-06
5.091e-07
1.80177e-06
1.71383e-06
1.28305e-06
2.80984e-06
7.44362e-07
3.44708e-06
3.11343e-07
3.34191e-06
6.65031e-08
2.42643e-06
9.38967e-07
-1.27374e-07
1.27466e-06
-5.47144e-07
3.33654e-06
-1.25018e-06
4.78934e-06
-2.12943e-06
5.49026e-06
-3.05397e-06
5.60101e-06
-3.93112e-06
5.36449e-06
-4.71644e-06
4.9458e-06
-5.39693e-06
4.41117e-06
-5.96941e-06
3.75652e-06
-6.41882e-06
2.92148e-06
-6.69436e-06
1.77545e-06
-6.68118e-06
9.18287e-08
-6.18675e-06
-2.43879e-06
-4.96231e-06
-6.09124e-06
-2.97743e-06
-1.03068e-05
-8.42678e-07
-1.27253e-05
5.76316e-07
-1.02549e-05
1.35614e-06
-6.53252e-06
1.9541e-06
-3.963e-06
2.37785e-06
-2.59161e-06
2.63327e-06
-1.96684e-06
2.74375e-06
-1.69304e-06
2.74017e-06
-1.46734e-06
2.64034e-06
-1.0543e-06
2.43484e-06
-2.94871e-07
2.09373e-06
8.50207e-07
1.62335e-06
2.1842e-06
1.0785e-06
3.35469e-06
5.67948e-07
3.95762e-06
2.06133e-07
3.70373e-06
3.43644e-08
2.59819e-06
9.73331e-07
-7.13891e-08
1.34605e-06
-3.75333e-07
3.64049e-06
-9.69372e-07
5.38338e-06
-1.78696e-06
6.30785e-06
-2.69369e-06
6.50774e-06
-3.57792e-06
6.24873e-06
-4.38487e-06
5.75275e-06
-5.1028e-06
5.1291e-06
-5.73285e-06
4.38657e-06
-6.25694e-06
3.44558e-06
-6.60658e-06
2.12509e-06
-6.62837e-06
1.13622e-07
-6.07514e-06
-2.99202e-06
-4.64802e-06
-7.51836e-06
-2.42066e-06
-1.25342e-05
-2.24624e-07
-1.49213e-05
1.24429e-06
-1.17238e-05
2.07414e-06
-7.36237e-06
2.63477e-06
-4.52364e-06
2.97024e-06
-2.92708e-06
3.1121e-06
-2.10869e-06
3.09934e-06
-1.68028e-06
2.97116e-06
-1.33916e-06
2.74989e-06
-8.33042e-07
2.41959e-06
3.54365e-08
1.9741e-06
1.2957e-06
1.43372e-06
2.72458e-06
8.7129e-07
3.91712e-06
4.0183e-07
4.42708e-06
1.16469e-07
3.98909e-06
1.04474e-08
2.70422e-06
9.83779e-07
-1.98882e-08
1.36594e-06
-1.93509e-07
3.81411e-06
-6.42474e-07
5.83235e-06
-1.36123e-06
7.02661e-06
-2.22784e-06
7.37435e-06
-3.10937e-06
7.13025e-06
-3.93019e-06
6.57357e-06
-4.67094e-06
5.86984e-06
-5.33316e-06
5.0488e-06
-5.89733e-06
4.00974e-06
-6.28414e-06
2.5119e-06
-6.3098e-06
1.39282e-07
-5.66627e-06
-3.63555e-06
-4.01297e-06
-9.17166e-06
-1.62792e-06
-1.49192e-05
4.93315e-07
-1.70425e-05
1.93932e-06
-1.31698e-05
2.79865e-06
-8.2217e-06
3.3246e-06
-5.04958e-06
3.5849e-06
-3.18738e-06
3.62622e-06
-2.15002e-06
3.49697e-06
-1.55103e-06
3.24036e-06
-1.08255e-06
2.88252e-06
-4.75199e-07
2.41406e-06
5.03898e-07
1.85383e-06
1.85592e-06
1.24065e-06
3.33776e-06
6.66299e-07
4.49147e-06
2.47058e-07
4.84632e-06
4.06559e-08
4.19549e-06
-7.77335e-09
2.75265e-06
9.76006e-07
2.64916e-08
1.33945e-06
-1.22863e-08
3.85289e-06
-2.7358e-07
6.09364e-06
-8.43425e-07
7.59645e-06
-1.64508e-06
8.17601e-06
-2.52212e-06
8.00729e-06
-3.3577e-06
7.40916e-06
-4.10612e-06
6.61826e-06
-4.7606e-06
5.70328e-06
-5.30471e-06
4.55385e-06
-5.66294e-06
2.87013e-06
-5.6458e-06
1.22143e-07
-4.86434e-06
-4.41701e-06
-3.01129e-06
-1.10247e-05
-6.89368e-07
-1.72412e-05
1.17337e-06
-1.89053e-05
2.48423e-06
-1.44807e-05
3.29858e-06
-9.03605e-06
3.79231e-06
-5.54331e-06
4.02053e-06
-3.4156e-06
4.01934e-06
-2.14883e-06
3.83007e-06
-1.36175e-06
3.48657e-06
-7.39058e-07
2.99702e-06
1.43544e-08
2.38377e-06
1.11715e-06
1.68703e-06
2.55266e-06
9.849e-07
4.0399e-06
4.00202e-07
5.07617e-06
5.73852e-08
5.18914e-06
-4.79298e-08
4.3008e-06
-2.99053e-08
2.73462e-06
9.46101e-07
7.67971e-08
1.26265e-06
1.88872e-07
3.74081e-06
1.72011e-07
6.1105e-06
-1.46547e-07
7.91501e-06
-8.06003e-07
8.83546e-06
-1.68756e-06
8.88885e-06
-2.58021e-06
8.3018e-06
-3.36858e-06
7.40663e-06
-4.01413e-06
6.34884e-06
-4.49615e-06
5.03587e-06
-4.75648e-06
3.13046e-06
-4.57286e-06
-6.14732e-08
-3.60635e-06
-5.38353e-06
-1.70162e-06
-1.29294e-05
1.97242e-07
-1.914e-05
1.52527e-06
-2.02333e-05
2.46472e-06
-1.54202e-05
3.10018e-06
-9.6715e-06
3.55744e-06
-6.00057e-06
3.83311e-06
-3.69127e-06
3.90658e-06
-2.22231e-06
3.77039e-06
-1.22556e-06
3.44037e-06
-4.09034e-07
2.86949e-06
5.85235e-07
2.09075e-06
1.89589e-06
1.15261e-06
3.4908e-06
3.27595e-07
4.86491e-06
-1.71344e-07
5.57511e-06
-3.12488e-07
5.33028e-06
-2.23292e-07
4.21161e-06
-7.72302e-08
2.58856e-06
8.68871e-07
1.4132e-07
1.12133e-06
4.52026e-07
3.4301e-06
7.61341e-07
5.80119e-06
8.52908e-07
7.82344e-06
5.54517e-07
9.13385e-06
-1.44557e-07
9.58793e-06
-1.07093e-06
9.22818e-06
-2.00756e-06
8.34325e-06
-2.78105e-06
7.12233e-06
-3.27484e-06
5.52966e-06
-3.41189e-06
3.26751e-06
-3.05241e-06
-4.20951e-07
-1.93252e-06
-6.50341e-06
-3.36151e-07
-1.45258e-05
6.48191e-07
-2.01244e-05
8.94773e-07
-2.04799e-05
1.00286e-06
-1.55282e-05
1.23231e-06
-9.90095e-06
1.59981e-06
-6.36807e-06
2.00125e-06
-4.0927e-06
2.34642e-06
-2.56748e-06
2.46142e-06
-1.34056e-06
2.07058e-06
-1.81937e-08
1.14198e-06
1.51383e-06
2.90471e-08
3.00882e-06
-9.36062e-07
4.45591e-06
-1.46276e-06
5.39161e-06
-1.46187e-06
5.57421e-06
-1.08875e-06
4.95717e-06
-5.87979e-07
3.71083e-06
-1.75625e-07
2.17621e-06
6.93245e-07
2.17738e-07
9.03594e-07
7.709e-07
2.87694e-06
1.49617e-06
5.07592e-06
2.14937e-06
7.17024e-06
2.48962e-06
8.7936e-06
2.3765e-06
9.70105e-06
1.79061e-06
9.81406e-06
9.16609e-07
9.21726e-06
1.04602e-08
8.02848e-06
-6.98393e-07
6.23851e-06
-1.02526e-06
3.59437e-06
-8.36028e-07
-6.10183e-07
-8.95413e-08
-7.2499e-06
3.97528e-07
-1.50129e-05
-3.50571e-07
-1.93763e-05
-2.0837e-06
-1.87467e-05
-3.51458e-06
-1.40974e-05
-4.16882e-06
-9.24672e-06
-4.21902e-06
-6.31787e-06
-3.99605e-06
-4.31567e-06
-3.88053e-06
-2.683e-06
-4.12599e-06
-1.0951e-06
-4.72304e-06
5.7886e-07
-5.31049e-06
2.10128e-06
-5.64229e-06
3.34062e-06
-5.43545e-06
4.24906e-06
-4.70067e-06
4.65684e-06
-3.57561e-06
4.44915e-06
-2.29313e-06
3.67469e-06
-1.12647e-06
2.54417e-06
-3.11424e-07
1.36116e-06
3.81821e-07
2.50785e-07
6.5281e-07
9.42523e-07
2.1852e-06
1.95818e-06
4.06026e-06
3.07552e-06
6.0529e-06
4.03627e-06
7.83285e-06
4.63033e-06
9.107e-06
4.74554e-06
9.69884e-06
4.41e-06
9.5528e-06
3.76539e-06
8.67308e-06
2.98955e-06
7.01436e-06
2.24882e-06
4.33511e-06
1.56506e-06
7.35794e-08
1.0478e-06
-6.73265e-06
-3.22876e-07
-1.36422e-05
-3.80812e-06
-1.5891e-05
-8.22382e-06
-1.4331e-05
-1.17641e-05
-1.05571e-05
-1.40272e-05
-6.98357e-06
-1.53827e-05
-4.96243e-06
-1.60366e-05
-3.66179e-06
-1.61157e-05
-2.60389e-06
-1.56669e-05
-1.54387e-06
-1.47056e-05
-3.82465e-07
-1.32041e-05
5.99787e-07
-1.13226e-05
1.45916e-06
-9.17122e-06
2.09766e-06
-6.89123e-06
2.37685e-06
-4.67401e-06
2.23193e-06
-2.72211e-06
1.72279e-06
-1.22235e-06
1.04442e-06
-3.05348e-07
4.44156e-07
7.64724e-08
2.23026e-07
4.29783e-07
8.81534e-07
1.5267e-06
1.92436e-06
3.01744e-06
3.18552e-06
4.79174e-06
4.43196e-06
6.58641e-06
5.43829e-06
8.10067e-06
6.04175e-06
9.09538e-06
6.17317e-06
9.42137e-06
5.85294e-06
8.99331e-06
5.15141e-06
7.71589e-06
4.1386e-06
5.34792e-06
2.87807e-06
1.3341e-06
9.78605e-07
-4.83318e-06
-2.68176e-06
-9.98184e-06
-8.42012e-06
-1.01527e-05
-1.42905e-05
-8.4606e-06
-1.89685e-05
-5.87912e-06
-2.20557e-05
-3.89639e-06
-2.38252e-05
-3.19293e-06
-2.44057e-05
-3.08129e-06
-2.38915e-05
-3.11808e-06
-2.236e-05
-3.07533e-06
-1.98657e-05
-2.8768e-06
-1.67491e-05
-2.51682e-06
-1.32549e-05
-2.03501e-06
-9.65635e-06
-1.50092e-06
-6.29524e-06
-9.8426e-07
-3.51825e-06
-5.4505e-07
-1.57118e-06
-2.24284e-07
-4.85913e-07
-4.08541e-08
-6.15334e-08
1.97753e-08
1.49387e-08
1.83042e-07
2.46742e-07
7.52107e-07
9.57632e-07
1.70847e-06
2.06107e-06
2.94307e-06
3.55714e-06
4.25572e-06
5.27376e-06
5.42361e-06
6.93279e-06
6.26166e-06
8.25733e-06
6.65456e-06
9.02847e-06
6.55876e-06
9.0891e-06
5.97776e-06
8.2969e-06
4.91602e-06
6.40966e-06
3.25403e-06
2.99609e-06
2.88414e-07
-1.86756e-06
-4.7251e-06
-4.96832e-06
-1.05249e-05
-4.35283e-06
-1.56887e-05
-3.29685e-06
-1.94795e-05
-2.08833e-06
-2.17328e-05
-1.64311e-06
-2.28765e-05
-2.04921e-06
-2.31272e-05
-2.83054e-06
-2.25748e-05
-3.67052e-06
-2.12605e-05
-4.38959e-06
-1.92274e-05
-4.90998e-06
-1.65542e-05
-5.18994e-06
-1.33916e-05
-5.19767e-06
-9.98794e-06
-4.90455e-06
-6.67618e-06
-4.29602e-06
-3.82297e-06
-3.39826e-06
-1.73591e-06
-2.31134e-06
-5.34971e-07
-1.24179e-06
-6.79495e-08
-4.47247e-07
-5.30109e-08
1.38325e-07
1.08417e-07
5.82564e-07
5.13392e-07
1.36715e-06
1.27649e-06
2.43953e-06
2.48476e-06
3.64569e-06
4.0676e-06
4.78583e-06
5.79265e-06
5.67988e-06
7.36328e-06
6.20297e-06
8.50539e-06
6.29073e-06
9.00133e-06
5.92004e-06
8.66759e-06
5.05041e-06
7.2793e-06
3.41438e-06
4.63211e-06
1.72972e-07
1.37386e-06
-4.20657e-06
-5.8878e-07
-8.02495e-06
-5.34452e-07
-1.12968e-05
-2.4953e-08
-1.37712e-05
3.86037e-07
-1.53369e-05
-7.73988e-08
-1.62095e-05
-1.17661e-06
-1.65677e-05
-2.47234e-06
-1.64722e-05
-3.76601e-06
-1.59358e-05
-4.92607e-06
-1.4954e-05
-5.89172e-06
-1.35291e-05
-6.6149e-06
-1.16956e-05
-7.03114e-06
-9.53863e-06
-7.0615e-06
-7.19733e-06
-6.63732e-06
-4.85784e-06
-5.73776e-06
-2.75759e-06
-4.41159e-06
-1.16248e-06
-2.83691e-06
-2.58058e-07
-1.35167e-06
-3.11069e-07
9.17128e-08
1.6704e-08
3.92836e-07
2.12269e-07
9.52791e-07
7.16531e-07
1.77187e-06
1.66568e-06
2.75711e-06
3.08236e-06
3.75122e-06
4.79854e-06
4.60039e-06
6.51411e-06
5.19512e-06
7.91066e-06
5.47938e-06
8.71707e-06
5.44106e-06
8.70591e-06
5.0696e-06
7.65075e-06
4.20243e-06
5.49928e-06
2.42377e-06
3.15252e-06
-6.71973e-08
1.90218e-06
-2.43369e-06
1.83204e-06
-4.6401e-06
2.18145e-06
-6.46562e-06
2.21157e-06
-7.8613e-06
1.31828e-06
-8.79072e-06
-2.47184e-07
-9.34394e-06
-1.91912e-06
-9.67182e-06
-3.43813e-06
-9.81206e-06
-4.78582e-06
-9.73824e-06
-5.96554e-06
-9.40173e-06
-6.95141e-06
-8.74152e-06
-7.69135e-06
-7.71522e-06
-8.0878e-06
-6.33661e-06
-8.01593e-06
-4.68292e-06
-7.39145e-06
-2.9319e-06
-6.1626e-06
-1.3704e-06
-4.39842e-06
-3.36023e-07
-2.38604e-06
-6.47093e-07
4.97119e-08
-3.3008e-08
2.12813e-07
4.91679e-08
5.36474e-07
3.92871e-07
1.06295e-06
1.13921e-06
1.77302e-06
2.37229e-06
2.56909e-06
4.00247e-06
3.33362e-06
5.74958e-06
3.9785e-06
7.26578e-06
4.45779e-06
8.23778e-06
4.75559e-06
8.40811e-06
4.83119e-06
7.57515e-06
4.50373e-06
5.82673e-06
3.62236e-06
4.03389e-06
2.38463e-06
3.13992e-06
1.10093e-06
3.11574e-06
-1.27654e-07
3.41004e-06
-1.07948e-06
3.16339e-06
-1.77485e-06
2.01365e-06
-2.47114e-06
4.49099e-07
-3.09798e-06
-1.29228e-06
-3.65805e-06
-2.87806e-06
-4.20851e-06
-4.23536e-06
-4.7139e-06
-5.46015e-06
-5.12602e-06
-6.5393e-06
-5.34693e-06
-7.47044e-06
-5.25242e-06
-8.18231e-06
-4.77232e-06
-8.49604e-06
-3.88269e-06
-8.28108e-06
-2.67383e-06
-7.37146e-06
-1.37935e-06
-5.6929e-06
-3.74319e-07
-3.39107e-06
-1.02141e-06
1.44968e-08
-4.75051e-08
5.87859e-08
4.87901e-09
1.69069e-07
2.82589e-07
4.15306e-07
8.9297e-07
8.55606e-07
1.93199e-06
1.45674e-06
3.40133e-06
2.13657e-06
5.06975e-06
2.82238e-06
6.57997e-06
3.4738e-06
7.58636e-06
4.05685e-06
7.82505e-06
4.48584e-06
7.14616e-06
4.57743e-06
5.73515e-06
4.26417e-06
4.34715e-06
3.73686e-06
3.66724e-06
3.20767e-06
3.64493e-06
2.75315e-06
3.86456e-06
2.45982e-06
3.45672e-06
2.25184e-06
2.22163e-06
1.94423e-06
7.56718e-07
1.44941e-06
-7.97468e-07
8.18452e-07
-2.2471e-06
9.57585e-08
-3.51267e-06
-6.77428e-07
-4.68697e-06
-1.46482e-06
-5.7519e-06
-2.20623e-06
-6.72903e-06
-2.75944e-06
-7.6291e-06
-3.00646e-06
-8.24902e-06
-2.82254e-06
-8.465e-06
-2.19534e-06
-7.99866e-06
-1.26755e-06
-6.6207e-06
-3.84944e-07
-4.27367e-06
-1.40636e-06
-1.6807e-08
-3.0698e-08
-6.88489e-08
5.69218e-08
-1.26087e-07
3.39827e-07
-1.07439e-07
8.74322e-07
9.45441e-08
1.73e-06
5.34009e-07
2.96187e-06
1.15384e-06
4.44992e-06
1.87326e-06
5.86056e-06
2.65988e-06
6.79973e-06
3.4541e-06
7.03083e-06
4.12833e-06
6.47193e-06
4.50924e-06
5.35423e-06
4.57157e-06
4.28482e-06
4.49148e-06
3.74733e-06
4.43629e-06
3.70012e-06
4.47126e-06
3.82958e-06
4.59548e-06
3.3325e-06
4.67032e-06
2.14679e-06
4.57313e-06
8.53911e-07
4.23055e-06
-4.54889e-07
3.67347e-06
-1.69002e-06
2.97453e-06
-2.81373e-06
2.15863e-06
-3.87107e-06
1.27311e-06
-4.86637e-06
3.48194e-07
-5.80412e-06
-5.60306e-07
-6.7206e-06
-1.31409e-06
-7.49523e-06
-1.70946e-06
-8.06963e-06
-1.62765e-06
-8.08047e-06
-1.09489e-06
-7.15346e-06
-3.83797e-07
-4.98476e-06
-1.79015e-06
-5.15886e-08
2.0891e-08
-1.91761e-07
1.97095e-07
-3.7316e-07
5.21227e-07
-5.04732e-07
1.00589e-06
-4.72491e-07
1.69776e-06
-1.6737e-07
2.65675e-06
4.12179e-07
3.87037e-06
1.16694e-06
5.10579e-06
2.04926e-06
5.91741e-06
2.97824e-06
6.10185e-06
3.7991e-06
5.65107e-06
4.3636e-06
4.78974e-06
4.67545e-06
3.97297e-06
4.88723e-06
3.53555e-06
5.1334e-06
3.45395e-06
5.46744e-06
3.49555e-06
5.82784e-06
2.9721e-06
6.05863e-06
1.916e-06
6.07627e-06
8.36271e-07
5.84561e-06
-2.24231e-07
5.3903e-06
-1.23471e-06
4.76071e-06
-2.18414e-06
3.99166e-06
-3.10202e-06
3.12297e-06
-3.99768e-06
2.18957e-06
-4.87071e-06
1.18601e-06
-5.71704e-06
1.96841e-07
-6.50606e-06
-6.31259e-07
-7.24153e-06
-1.03552e-06
-7.67622e-06
-8.96321e-07
-7.29265e-06
-3.82401e-07
-5.49868e-06
-2.17255e-06
-9.72431e-08
1.18135e-07
-3.29086e-07
4.28939e-07
-6.05961e-07
7.98101e-07
-8.20005e-07
1.21994e-06
-8.65237e-07
1.743e-06
-6.44463e-07
2.43597e-06
-1.05748e-07
3.33165e-06
6.81458e-07
4.31859e-06
1.6292e-06
4.96967e-06
2.63008e-06
5.10097e-06
3.52618e-06
4.75497e-06
4.20404e-06
4.11187e-06
4.68478e-06
3.49223e-06
5.09367e-06
3.12666e-06
5.53685e-06
3.01077e-06
6.05438e-06
2.97802e-06
6.54903e-06
2.47744e-06
6.87166e-06
1.59337e-06
6.97333e-06
7.34605e-07
6.84437e-06
-9.52695e-08
6.50252e-06
-8.92865e-07
5.97663e-06
-1.65825e-06
5.2881e-06
-2.41348e-06
4.4599e-06
-3.16949e-06
3.51734e-06
-3.92815e-06
2.48723e-06
-4.68693e-06
1.42238e-06
-5.44121e-06
3.75696e-07
-6.19484e-06
-4.24614e-07
-6.87591e-06
-6.77011e-07
-7.04026e-06
-3.82811e-07
-5.79288e-06
-2.55536e-06
-1.61805e-07
2.7994e-07
-4.87077e-07
7.5421e-07
-8.27045e-07
1.13807e-06
-1.06583e-06
1.45872e-06
-1.11854e-06
1.79571e-06
-9.12914e-07
2.23035e-06
-4.0046e-07
2.8192e-06
4.0547e-07
3.51266e-06
1.39639e-06
3.97875e-06
2.42536e-06
4.072e-06
3.35725e-06
3.82308e-06
4.11225e-06
3.35687e-06
4.71654e-06
2.88795e-06
5.26695e-06
2.57625e-06
5.84438e-06
2.43334e-06
6.47514e-06
2.34726e-06
7.04405e-06
1.90853e-06
7.42187e-06
1.21555e-06
7.58875e-06
5.67717e-07
7.54691e-06
-5.34293e-08
7.30747e-06
-6.53416e-07
6.88353e-06
-1.23431e-06
6.28351e-06
-1.81346e-06
5.51669e-06
-2.40267e-06
4.59802e-06
-3.00948e-06
3.55303e-06
-3.64194e-06
2.42465e-06
-4.31283e-06
1.27367e-06
-5.04386e-06
2.21805e-07
-5.82404e-06
-4.14005e-07
-6.40445e-06
-3.73026e-07
-5.83386e-06
-2.92839e-06
-2.50719e-07
5.30659e-07
-6.54611e-07
1.1581e-06
-1.00145e-06
1.4849e-06
-1.19492e-06
1.6522e-06
-1.19006e-06
1.79085e-06
-9.44014e-07
1.9843e-06
-4.19814e-07
2.295e-06
3.99897e-07
2.69295e-06
1.40466e-06
2.97398e-06
2.43649e-06
3.04017e-06
3.3905e-06
2.86906e-06
4.20862e-06
2.53875e-06
4.90995e-06
2.18662e-06
5.56228e-06
1.92392e-06
6.22409e-06
1.77153e-06
6.91037e-06
1.66098e-06
7.50294e-06
1.31596e-06
7.89909e-06
8.19402e-07
8.10145e-06
3.65352e-07
8.11514e-06
-6.71216e-08
7.94516e-06
-4.83434e-07
7.59775e-06
-8.86895e-07
7.07503e-06
-1.29074e-06
6.37809e-06
-1.70574e-06
5.51144e-06
-2.14283e-06
4.48853e-06
-2.61903e-06
3.33838e-06
-3.16268e-06
2.11154e-06
-3.81703e-06
9.05149e-07
-4.61765e-06
-4.92457e-08
-5.45005e-06
-3.24923e-07
-5.55818e-06
-3.25331e-06
-3.55294e-07
8.85952e-07
-7.81685e-07
1.58449e-06
-1.02666e-06
1.72988e-06
-1.06945e-06
1.69499e-06
-9.26867e-07
1.64826e-06
-5.83098e-07
1.64053e-06
2.38824e-09
1.70951e-06
8.31644e-07
1.86369e-06
1.80732e-06
1.99831e-06
2.82245e-06
2.02503e-06
3.78548e-06
1.90604e-06
4.64433e-06
1.6799e-06
5.40231e-06
1.42864e-06
6.10006e-06
1.22617e-06
6.77805e-06
1.09354e-06
7.44553e-06
9.93507e-07
7.99745e-06
7.6403e-07
8.36097e-06
4.55889e-07
8.55196e-06
1.74358e-07
8.57549e-06
-9.06506e-08
8.43432e-06
-3.42267e-07
8.13398e-06
-5.86552e-07
7.67528e-06
-8.32039e-07
7.05588e-06
-1.08633e-06
6.27266e-06
-1.35961e-06
5.32475e-06
-1.67112e-06
4.21873e-06
-2.05666e-06
2.97801e-06
-2.57631e-06
1.66699e-06
-3.30662e-06
4.6163e-07
-4.2447e-06
-1.93672e-07
-4.90288e-06
-3.44698e-06
-4.54737e-07
1.34069e-06
-7.2654e-07
1.8563e-06
-6.62672e-07
1.66601e-06
-4.03348e-07
1.43567e-06
-1.35736e-08
1.25849e-06
4.99315e-07
1.12765e-06
1.14357e-06
1.06526e-06
1.9403e-06
1.06696e-06
2.8489e-06
1.0897e-06
3.79715e-06
1.07679e-06
4.70793e-06
9.95259e-07
5.52927e-06
8.58557e-07
6.24932e-06
7.08585e-07
6.88943e-06
5.86068e-07
7.47929e-06
5.0367e-07
8.0294e-06
4.43399e-07
8.46351e-06
3.29918e-07
8.73739e-06
1.82015e-07
8.86811e-06
4.36369e-08
8.86185e-06
-8.43901e-08
8.72336e-06
-2.03781e-07
8.45766e-06
-3.20853e-07
8.06526e-06
-4.39637e-07
7.5429e-06
-5.63979e-07
6.88373e-06
-7.00442e-07
6.07635e-06
-8.63741e-07
5.10441e-06
-1.08471e-06
3.95007e-06
-1.42197e-06
2.61439e-06
-1.97095e-06
1.2012e-06
-2.83151e-06
1.21117e-07
-3.82279e-06
-3.32587e-06
-3.73844e-07
1.71453e-06
1.03779e-08
1.47208e-06
6.90382e-07
9.86005e-07
1.35393e-06
7.72117e-07
1.99492e-06
6.17498e-07
2.62938e-06
4.93193e-07
3.2814e-06
4.13231e-07
3.97671e-06
3.71653e-07
4.71547e-06
3.50952e-07
5.46386e-06
3.28395e-07
6.16974e-06
2.89383e-07
6.79147e-06
2.36824e-07
7.31583e-06
1.84221e-07
7.75767e-06
1.44234e-07
8.14206e-06
1.19274e-07
8.48288e-06
1.0258e-07
8.73929e-06
7.3509e-08
8.88777e-06
3.35366e-08
8.93738e-06
-5.97676e-09
8.89465e-06
-4.16545e-08
8.76545e-06
-7.45877e-08
8.55232e-06
-1.07724e-07
8.25478e-06
-1.42094e-07
7.86957e-06
-1.78772e-07
7.3894e-06
-2.20267e-07
6.79897e-06
-2.73308e-07
6.06824e-06
-3.53989e-07
5.14371e-06
-4.97436e-07
3.9445e-06
-7.71744e-07
2.4026e-06
-1.28961e-06
7.39858e-07
-2.16004e-06
-2.58601e-06
1.71453e-06
3.18661e-06
4.17262e-06
4.94473e-06
5.56223e-06
6.05542e-06
6.46865e-06
6.84031e-06
7.19126e-06
7.51965e-06
7.80903e-06
8.04586e-06
8.23008e-06
8.37431e-06
8.49359e-06
8.59617e-06
8.66968e-06
8.70321e-06
8.69724e-06
8.65558e-06
8.581e-06
8.47327e-06
8.33118e-06
8.1524e-06
7.93214e-06
7.65883e-06
7.30484e-06
6.8074e-06
6.03566e-06
4.74605e-06
2.58601e-06
)
;

boundaryField
{
    movingWall
    {
        type            calculated;
        value           uniform 0;
    }
    fixedWalls
    {
        type            calculated;
        value           uniform 0;
    }
    floor
    {
        type            calculated;
        value           uniform 0;
    }
    frontAndBack
    {
        type            empty;
        value           nonuniform List<scalar> 0();
    }
}


// ************************************************************************* //
