/*--------------------------------*- C++ -*----------------------------------*\
| =========                 |                                                 |
| \\      /  F ield         | OpenFOAM: The Open Source CFD Toolbox           |
|  \\    /   O peration     | Version:  2212                                  |
|   \\  /    A nd           | Website:  www.openfoam.com                      |
|    \\/     M anipulation  |                                                 |
\*---------------------------------------------------------------------------*/
FoamFile
{
    version     2.0;
    format      ascii;
    arch        "LSB;label=64;scalar=64";
    class       volScalarField;
    location    "400";
    object      Sch4;
}
// * * * * * * * * * * * * * * * * * * * * * * * * * * * * * * * * * * * * * //

dimensions      [1 -3 0 0 0 0 0];

internalField   nonuniform List<scalar> 
1024
(
0.0368441
0.0368475
0.0368555
0.0368697
0.0368913
0.0369208
0.0369572
0.0369984
0.037041
0.0370824
0.0371209
0.0371547
0.0371812
0.0371951
0.0371865
0.0371389
0.0370393
0.0369121
0.0367807
0.0366622
0.0365624
0.0364804
0.0364129
0.036356
0.0363066
0.0362637
0.0362272
0.036198
0.0361765
0.0361621
0.036154
0.0361506
0.0368452
0.0368486
0.0368569
0.0368716
0.036894
0.0369243
0.0369616
0.0370033
0.0370463
0.0370879
0.0371266
0.0371608
0.0371878
0.0372025
0.0371946
0.0371472
0.037047
0.0369189
0.0367865
0.0366673
0.0365671
0.0364848
0.0364171
0.03636
0.0363103
0.036267
0.03623
0.0362002
0.0361779
0.0361631
0.0361546
0.0361511
0.0368475
0.0368511
0.03686
0.0368758
0.0368997
0.0369318
0.0369707
0.0370135
0.0370573
0.0370995
0.037139
0.0371745
0.0372034
0.0372204
0.0372151
0.0371688
0.0370666
0.0369354
0.0367998
0.0366789
0.0365776
0.0364947
0.0364262
0.0363682
0.0363177
0.0362732
0.0362351
0.036204
0.0361806
0.0361649
0.0361559
0.0361522
0.0368512
0.0368552
0.036865
0.0368824
0.0369086
0.0369431
0.0369842
0.0370287
0.0370738
0.0371173
0.0371588
0.0371973
0.0372305
0.0372531
0.0372535
0.0372098
0.0371034
0.0369653
0.0368232
0.0366988
0.0365955
0.0365109
0.0364407
0.0363809
0.0363283
0.036282
0.0362419
0.0362091
0.0361843
0.0361674
0.0361578
0.0361538
0.0368565
0.0368609
0.0368718
0.0368912
0.03692
0.0369575
0.0370013
0.0370481
0.0370952
0.0371414
0.0371867
0.0372309
0.0372721
0.037305
0.0373158
0.037277
0.0371638
0.0370135
0.0368602
0.0367295
0.0366223
0.0365346
0.036461
0.0363976
0.0363417
0.0362923
0.0362497
0.0362148
0.0361883
0.0361704
0.0361601
0.0361559
0.0368632
0.036868
0.03688
0.0369013
0.0369329
0.0369735
0.0370204
0.0370702
0.0371205
0.0371711
0.0372227
0.0372761
0.0373302
0.0373793
0.0374068
0.0373765
0.0372534
0.0370852
0.0369152
0.0367741
0.0366601
0.0365664
0.036487
0.036418
0.036357
0.0363034
0.0362575
0.0362202
0.0361922
0.0361733
0.0361626
0.0361582
0.0368706
0.0368757
0.0368886
0.0369117
0.0369457
0.0369894
0.0370396
0.037093
0.037148
0.0372048
0.0372656
0.037332
0.037404
0.037476
0.0375277
0.0375109
0.0373757
0.0371842
0.0369927
0.0368362
0.0367107
0.0366071
0.0365185
0.0364411
0.0363731
0.0363141
0.0362645
0.0362248
0.0361954
0.0361759
0.0361649
0.0361604
0.0368782
0.0368835
0.036897
0.0369212
0.0369571
0.0370033
0.0370567
0.0371143
0.0371748
0.0372396
0.0373116
0.0373941
0.0374884
0.0375896
0.0376742
0.0376772
0.0375299
0.0373119
0.0370952
0.0369178
0.036775
0.0366563
0.0365545
0.0364658
0.0363889
0.0363235
0.0362699
0.036228
0.0361976
0.0361778
0.0361666
0.0361621
0.0368852
0.0368906
0.0369042
0.0369288
0.0369655
0.0370133
0.0370694
0.0371309
0.0371972
0.03727
0.0373538
0.0374534
0.0375726
0.0377089
0.0378357
0.0378669
0.0377096
0.037464
0.0372203
0.0370172
0.0368512
0.0367122
0.0365931
0.0364906
0.0364033
0.036331
0.0362734
0.0362296
0.0361986
0.0361786
0.0361675
0.036163
0.0368909
0.0368962
0.0369095
0.0369337
0.0369701
0.0370181
0.0370753
0.0371394
0.0372098
0.0372889
0.0373824
0.0374974
0.0376421
0.0378192
0.0380002
0.0380689
0.037904
0.0376305
0.0373587
0.0371265
0.0369331
0.0367699
0.0366308
0.0365129
0.0364149
0.0363358
0.0362746
0.0362294
0.036198
0.0361781
0.0361671
0.0361626
0.0368944
0.0368995
0.0369122
0.0369351
0.0369698
0.0370162
0.0370723
0.0371361
0.0372071
0.0372882
0.0373866
0.0375134
0.0376838
0.0379102
0.0381621
0.0382769
0.0381018
0.0377961
0.0374934
0.0372306
0.0370084
0.0368202
0.0366612
0.0365289
0.0364213
0.0363369
0.0362731
0.0362271
0.0361958
0.0361761
0.0361652
0.0361607
0.0368947
0.0368996
0.0369115
0.0369324
0.0369641
0.0370066
0.0370584
0.0371176
0.0371841
0.0372614
0.0373589
0.0374936
0.0376928
0.0379847
0.0383317
0.0384968
0.0382974
0.0379445
0.0376026
0.0373074
0.0370583
0.0368487
0.0366741
0.0365317
0.0364187
0.0363318
0.0362676
0.036222
0.0361913
0.036172
0.0361613
0.0361567
0.0368898
0.0368945
0.0369052
0.0369236
0.0369509
0.0369874
0.0370317
0.0370821
0.0371387
0.0372063
0.0372979
0.0374401
0.0376786
0.038065
0.0385383
0.038748
0.0384914
0.0380605
0.0376624
0.0373309
0.037059
0.036836
0.036655
0.0365115
0.0364004
0.0363166
0.0362554
0.0362122
0.036183
0.0361646
0.0361541
0.0361495
0.0368804
0.036885
0.0368948
0.0369106
0.0369329
0.0369612
0.0369945
0.0370314
0.0370731
0.0371267
0.0372113
0.0373668
0.0376673
0.0381952
0.0388262
0.0390556
0.0386874
0.0381329
0.0376538
0.0372782
0.036987
0.0367606
0.0365863
0.0364546
0.0363567
0.0362846
0.0362323
0.036195
0.0361692
0.0361522
0.0361421
0.0361376
0.0368554
0.0368596
0.0368682
0.0368808
0.0368973
0.036917
0.0369387
0.0369619
0.036989
0.0370302
0.0371129
0.0372982
0.0377032
0.0384414
0.0392502
0.0394463
0.0388974
0.0381738
0.0375916
0.0371616
0.0368474
0.0366199
0.0364595
0.0363498
0.0362748
0.0362228
0.0361855
0.0361583
0.0361384
0.0361244
0.0361154
0.0361111
0.0368276
0.036832
0.03684
0.0368506
0.0368623
0.036874
0.0368848
0.0368947
0.0369072
0.0369367
0.0370242
0.037269
0.0378558
0.0388958
0.039876
0.0399686
0.0392042
0.0383232
0.0376536
0.0371604
0.0367893
0.0365154
0.0363307
0.0362231
0.0361674
0.0361382
0.0361186
0.0361018
0.036088
0.0360791
0.0360752
0.0360743
0.0367634
0.0367686
0.036779
0.0367932
0.0368088
0.0368224
0.0368312
0.0368342
0.0368355
0.036857
0.0369662
0.0373278
0.0382109
0.0396226
0.0407318
0.0407472
0.039953
0.0391482
0.0385454
0.0380379
0.0375683
0.0371321
0.0367523
0.0364608
0.0362521
0.036126
0.0360751
0.0360848
0.0361342
0.0361985
0.0362534
0.0362831
0.0367188
0.0367153
0.0367107
0.0367085
0.036711
0.0367177
0.036725
0.0367304
0.0367397
0.036786
0.0369733
0.0375397
0.0387961
0.0405387
0.0417768
0.0420391
0.041814
0.0416781
0.0416414
0.0415727
0.041417
0.041168
0.0408523
0.0405135
0.0401746
0.0398759
0.0396414
0.0394852
0.0394042
0.03938
0.039385
0.0393943
0.0369596
0.0369363
0.0368919
0.0368346
0.0367769
0.03673
0.0366997
0.0366886
0.0367074
0.0368031
0.0371138
0.037922
0.039486
0.0414091
0.0428554
0.04373
0.0444977
0.0453835
0.0462522
0.0469948
0.0475651
0.0479474
0.0481488
0.0481825
0.0480633
0.0478165
0.0474664
0.0470534
0.0466333
0.0462724
0.0460253
0.0459109
0.0375647
0.037525
0.0374421
0.0373216
0.0371802
0.0370416
0.036929
0.0368617
0.0368644
0.0370015
0.03743
0.038416
0.0400908
0.041992
0.0435405
0.0448359
0.0462283
0.0476852
0.0489816
0.0500451
0.050889
0.0515452
0.0520429
0.0523952
0.0525997
0.0526495
0.0525413
0.0522916
0.051947
0.0515855
0.0512979
0.0511483
0.0383579
0.0383124
0.0382104
0.0380496
0.0378422
0.0376169
0.0374122
0.0372691
0.0372334
0.0373852
0.0378748
0.0388925
0.040443
0.0421547
0.0436744
0.0451053
0.0466791
0.0482523
0.0495564
0.0505343
0.0512521
0.0518037
0.0522614
0.052663
0.0530123
0.053293
0.0534828
0.0535664
0.0535465
0.0534517
0.0533362
0.0532603
0.0391686
0.0391227
0.0390148
0.0388354
0.0385904
0.0383074
0.0380338
0.0378285
0.0377572
0.0379109
0.0384215
0.0394072
0.0408018
0.0423134
0.0437133
0.0450814
0.0465709
0.048033
0.0492291
0.0501138
0.0507594
0.0512744
0.0517437
0.0522089
0.0526668
0.0530864
0.0534313
0.053676
0.0538159
0.0538667
0.0538611
0.0538411
0.0399541
0.0399071
0.0397945
0.0396037
0.0393374
0.0390217
0.0387084
0.038468
0.0383798
0.0385384
0.0390536
0.0399886
0.0412452
0.0425902
0.0438602
0.045104
0.0464207
0.0477031
0.0487746
0.0496027
0.050243
0.0507838
0.0512997
0.0518327
0.052382
0.0529127
0.053375
0.0537268
0.0539528
0.0540659
0.0540999
0.054098
0.0407546
0.0407032
0.0405815
0.0403783
0.0400976
0.0397652
0.0394347
0.0391835
0.0390998
0.0392764
0.0398012
0.0406969
0.0418515
0.0430714
0.0442314
0.0453549
0.0464988
0.0475995
0.0485476
0.0493251
0.0499659
0.0505298
0.0510732
0.0516339
0.0522185
0.052803
0.0533388
0.0537725
0.0540714
0.0542361
0.0542976
0.0543043
0.0416309
0.0415716
0.041438
0.0412249
0.0409406
0.040611
0.0402868
0.040047
0.0399889
0.0402014
0.0407496
0.0416245
0.0427067
0.0438307
0.0448977
0.0459162
0.0469115
0.0478499
0.0486762
0.0493873
0.050003
0.0505604
0.0510987
0.0516485
0.0522209
0.0528042
0.0533606
0.0538371
0.0541873
0.0543952
0.0544819
0.0544964
0.0426357
0.0425665
0.042425
0.0422175
0.0419571
0.0416658
0.041384
0.0411845
0.0411723
0.041432
0.0420055
0.0428598
0.0438743
0.0449076
0.0458819
0.0467986
0.0476624
0.0484554
0.0491591
0.0497833
0.0503416
0.0508567
0.0513549
0.0518596
0.0523835
0.0529241
0.0534558
0.0539338
0.0543074
0.0545454
0.0546542
0.0546767
0.0438095
0.043731
0.0435969
0.0434284
0.043238
0.0430347
0.0428411
0.0427153
0.0427625
0.0430607
0.0436346
0.0444393
0.0453629
0.0462878
0.0471527
0.0479566
0.0486921
0.0493482
0.0499282
0.0504503
0.0509263
0.0513709
0.0518014
0.0522349
0.0526836
0.0531511
0.0536241
0.0540685
0.0544365
0.0546878
0.0548131
0.0548437
0.0451872
0.0451058
0.0450084
0.0449253
0.0448545
0.044783
0.0447114
0.0446803
0.0447825
0.0450875
0.0456152
0.0463227
0.0471167
0.0479034
0.0486346
0.0493077
0.0499096
0.0504325
0.0508898
0.0513033
0.0516841
0.0520421
0.0523888
0.0527362
0.0530946
0.0534708
0.0538609
0.0542436
0.0545791
0.0548244
0.0549579
0.0549957
0.0468114
0.0467433
0.046724
0.0467661
0.0468367
0.0469025
0.0469499
0.0470033
0.0471351
0.0474061
0.0478395
0.0484052
0.0490338
0.0496546
0.05023
0.0507559
0.0512183
0.0516112
0.0519506
0.0522571
0.0525401
0.0528069
0.053065
0.0533223
0.0535868
0.0538653
0.0541598
0.0544606
0.05474
0.0549592
0.0550894
0.0551319
0.0487463
0.0487239
0.0488169
0.048978
0.0491509
0.0493028
0.0494198
0.049516
0.0496414
0.0498461
0.050155
0.0505534
0.0509964
0.0514351
0.0518419
0.052212
0.0525333
0.052802
0.0530315
0.0532377
0.0534281
0.0536075
0.0537806
0.0539523
0.0541279
0.0543127
0.0545104
0.0547191
0.0549241
0.0550972
0.0552099
0.055252
0.0510895
0.0511493
0.0513198
0.0515073
0.0516816
0.0518285
0.0519404
0.0520255
0.0521127
0.0522352
0.0524129
0.0526417
0.0528979
0.053153
0.05339
0.0536049
0.0537902
0.0539434
0.0540731
0.0541892
0.0542961
0.0543966
0.0544933
0.0545887
0.0546857
0.0547874
0.0548967
0.0550144
0.0551353
0.0552449
0.0553234
0.0553572
0.0539499
0.0539952
0.0540821
0.0541645
0.054237
0.054297
0.0543424
0.0543757
0.0544065
0.0544464
0.054503
0.0545762
0.0546587
0.0547411
0.0548178
0.0548872
0.0549468
0.0549958
0.0550371
0.055074
0.0551078
0.0551396
0.0551701
0.0552001
0.0552305
0.0552621
0.055296
0.0553328
0.0553713
0.0554079
0.0554364
0.0554504
)
;

boundaryField
{
    movingWall
    {
        type            fixedValue;
        value           uniform 0.0555;
    }
    fixedWalls
    {
        type            zeroGradient;
    }
    floor
    {
        type            zeroGradient;
    }
    frontAndBack
    {
        type            empty;
    }
}


// ************************************************************************* //
