/*--------------------------------*- C++ -*----------------------------------*\
| =========                 |                                                 |
| \\      /  F ield         | OpenFOAM: The Open Source CFD Toolbox           |
|  \\    /   O peration     | Version:  2212                                  |
|   \\  /    A nd           | Website:  www.openfoam.com                      |
|    \\/     M anipulation  |                                                 |
\*---------------------------------------------------------------------------*/
FoamFile
{
    version     2.0;
    format      ascii;
    arch        "LSB;label=64;scalar=64";
    class       volScalarField;
    location    "400";
    object      Sco2;
}
// * * * * * * * * * * * * * * * * * * * * * * * * * * * * * * * * * * * * * //

dimensions      [1 -3 0 0 0 0 0];

internalField   nonuniform List<scalar> 
1024
(
0.00590832
0.00590897
0.00591048
0.00591315
0.00591722
0.00592276
0.0059296
0.00593732
0.00594532
0.00595307
0.00596028
0.0059666
0.00597155
0.00597412
0.00597247
0.00596348
0.00594474
0.00592082
0.00589614
0.00587388
0.00585512
0.00583972
0.00582704
0.00581635
0.00580707
0.005799
0.00579215
0.00578666
0.00578261
0.00577992
0.0057784
0.00577776
0.00590853
0.00590918
0.00591075
0.00591352
0.00591772
0.00592343
0.00593042
0.00593824
0.00594631
0.0059541
0.00596136
0.00596774
0.00597279
0.00597549
0.00597398
0.00596504
0.00594619
0.0059221
0.00589722
0.00587483
0.005856
0.00584055
0.00582783
0.0058171
0.00580777
0.00579961
0.00579266
0.00578706
0.00578289
0.0057801
0.00577852
0.00577785
0.00590897
0.00590966
0.00591134
0.00591431
0.00591881
0.00592483
0.00593212
0.00594016
0.00594837
0.00595627
0.00596368
0.0059703
0.00597569
0.00597886
0.00597781
0.00596908
0.00594986
0.00592518
0.00589972
0.00587701
0.00585799
0.0058424
0.00582954
0.00581865
0.00580914
0.00580079
0.00579362
0.00578778
0.00578339
0.00578044
0.00577875
0.00577804
0.00590969
0.00591044
0.00591228
0.00591555
0.00592046
0.00592695
0.00593466
0.00594301
0.00595146
0.00595962
0.00596739
0.00597457
0.00598077
0.00598498
0.00598501
0.00597676
0.00595678
0.0059308
0.00590411
0.00588074
0.00586134
0.00584545
0.00583226
0.00582101
0.00581114
0.00580243
0.0057949
0.00578873
0.00578406
0.00578091
0.0057791
0.00577834
0.00591068
0.00591151
0.00591355
0.00591719
0.0059226
0.00592964
0.00593786
0.00594664
0.00595548
0.00596412
0.00597261
0.00598086
0.00598857
0.0059947
0.00599668
0.00598938
0.0059681
0.00593986
0.00591106
0.00588651
0.00586639
0.00584989
0.00583606
0.00582415
0.00581364
0.00580436
0.00579636
0.00578979
0.00578481
0.00578145
0.00577952
0.00577873
0.00591192
0.00591282
0.00591508
0.00591909
0.00592501
0.00593265
0.00594145
0.00595077
0.00596021
0.00596968
0.00597935
0.00598933
0.00599944
0.00600861
0.00601373
0.00600804
0.00598492
0.00595332
0.00592141
0.00589491
0.00587349
0.00585587
0.00584094
0.00582796
0.00581649
0.00580642
0.00579781
0.00579081
0.00578554
0.00578199
0.00577998
0.00577915
0.00591331
0.00591427
0.0059167
0.00592103
0.00592743
0.00593563
0.00594504
0.00595505
0.00596535
0.00597599
0.00598737
0.0059998
0.00601326
0.00602671
0.00603639
0.00603323
0.0060079
0.00597195
0.00593599
0.00590659
0.00588299
0.0058635
0.00584683
0.00583228
0.00581949
0.00580841
0.0057991
0.00579166
0.00578614
0.00578247
0.0057804
0.00577956
0.00591473
0.00591573
0.00591827
0.00592282
0.00592956
0.00593823
0.00594825
0.00595903
0.00597037
0.00598249
0.00599598
0.0060114
0.00602904
0.00604798
0.00606381
0.00606442
0.00603686
0.00599595
0.00595527
0.00592193
0.00589507
0.00587274
0.00585357
0.0058369
0.00582245
0.00581018
0.00580011
0.00579225
0.00578654
0.00578281
0.00578072
0.00577987
0.00591605
0.00591706
0.00591962
0.00592424
0.00593114
0.00594011
0.00595062
0.00596215
0.00597454
0.00598818
0.00600385
0.00602247
0.00604476
0.00607027
0.00609403
0.00609998
0.00607061
0.00602455
0.0059788
0.00594062
0.00590939
0.00588323
0.00586081
0.00584153
0.00582514
0.00581156
0.00580074
0.00579253
0.00578671
0.00578296
0.00578087
0.00578003
0.00591712
0.00591811
0.00592062
0.00592515
0.00593198
0.00594099
0.00595172
0.00596372
0.00597689
0.00599168
0.00600914
0.00603064
0.0060577
0.00609083
0.00612474
0.0061378
0.0061071
0.00605585
0.00600482
0.00596118
0.00592478
0.00589406
0.00586788
0.00584571
0.00582729
0.00581245
0.00580096
0.00579247
0.00578659
0.00578286
0.0057808
0.00577995
0.00591777
0.00591873
0.00592112
0.00592541
0.00593193
0.00594061
0.00595113
0.00596306
0.00597633
0.00599148
0.00600986
0.00603352
0.00606534
0.00610766
0.00615486
0.00617668
0.00614422
0.00608699
0.00603017
0.00598075
0.00593893
0.00590351
0.00587358
0.00584869
0.00582849
0.00581262
0.00580065
0.00579203
0.00578616
0.00578247
0.00578043
0.00577958
0.00591782
0.00591874
0.00592097
0.0059249
0.00593083
0.00593878
0.00594847
0.00595955
0.00597196
0.00598637
0.00600452
0.00602962
0.00606676
0.00612127
0.00618632
0.00621778
0.00618091
0.0061149
0.00605073
0.00599523
0.00594835
0.0059089
0.00587602
0.00584923
0.00582798
0.00581167
0.00579961
0.00579106
0.0057853
0.00578169
0.00577968
0.00577882
0.00591689
0.00591776
0.00591976
0.00592321
0.00592833
0.00593515
0.00594342
0.00595282
0.00596336
0.00597591
0.00599292
0.00601933
0.00606372
0.00613584
0.00622461
0.0062647
0.00621732
0.00613676
0.00606206
0.00599973
0.00594854
0.00590656
0.00587248
0.00584545
0.00582454
0.00580882
0.00579733
0.00578922
0.00578375
0.00578028
0.00577831
0.00577746
0.00591509
0.00591595
0.0059178
0.00592076
0.00592492
0.00593021
0.0059364
0.00594325
0.00595095
0.00596086
0.00597648
0.00600528
0.0060611
0.0061596
0.00627807
0.00632222
0.00625413
0.00615041
0.00606047
0.00598986
0.00593505
0.00589243
0.0058596
0.00583481
0.00581637
0.00580282
0.00579299
0.00578599
0.00578114
0.00577796
0.00577606
0.00577521
0.00591034
0.00591113
0.00591273
0.00591509
0.00591816
0.00592182
0.00592584
0.00593012
0.00593508
0.00594262
0.00595781
0.00599204
0.00606725
0.00620505
0.0063571
0.00639535
0.00629344
0.00615789
0.00604851
0.00596765
0.00590858
0.00586584
0.00583572
0.00581512
0.00580102
0.00579121
0.00578419
0.00577907
0.00577534
0.0057727
0.00577102
0.00577022
0.00590514
0.00590597
0.00590749
0.00590948
0.00591168
0.00591386
0.00591584
0.00591761
0.0059198
0.00592507
0.00594103
0.00598622
0.00609538
0.0062897
0.0064741
0.00649291
0.00635016
0.00618457
0.00605852
0.00596585
0.00589637
0.0058453
0.00581099
0.00579111
0.00578087
0.00577551
0.00577187
0.00576871
0.00576608
0.00576435
0.00576356
0.00576337
0.00589277
0.00589375
0.00589569
0.00589836
0.00590131
0.0059039
0.00590556
0.00590606
0.0059062
0.00590997
0.00593004
0.00599722
0.00616201
0.00642601
0.00663433
0.00663753
0.00648774
0.00633524
0.00622116
0.00612567
0.00603781
0.0059566
0.00588608
0.00583223
0.00579371
0.00577057
0.00576136
0.00576335
0.00577268
0.00578472
0.00579499
0.00580054
0.00588509
0.00588435
0.00588331
0.00588266
0.0058829
0.00588398
0.00588526
0.00588622
0.00588794
0.00589665
0.00593186
0.00603819
0.00627357
0.00659918
0.00683006
0.00687739
0.00683242
0.00680402
0.00679506
0.00678083
0.00675084
0.00670376
0.00664445
0.00658122
0.00651814
0.0064629
0.00641993
0.00639177
0.00637771
0.00637409
0.00637567
0.00637771
0.00593311
0.00592859
0.00591995
0.00590873
0.00589732
0.00588792
0.00588174
0.00587938
0.0058829
0.00590119
0.00596034
0.00611317
0.00640677
0.00676531
0.00703361
0.00719492
0.00733639
0.00750056
0.00766247
0.00780127
0.00790807
0.00797966
0.0080173
0.00802358
0.00800126
0.00795518
0.00788988
0.00781297
0.00773484
0.0076678
0.007622
0.00760081
0.00604985
0.00604232
0.00602654
0.00600351
0.00597634
0.00594957
0.00592769
0.00591452
0.00591498
0.00594138
0.00602348
0.00621065
0.00652531
0.00687917
0.00716608
0.0074069
0.00766712
0.00794052
0.00818488
0.00838593
0.00854578
0.00867011
0.00876426
0.00883069
0.00886898
0.00887794
0.00885699
0.00880939
0.00874397
0.00867556
0.00862123
0.008593
0.00620048
0.00619194
0.00617278
0.00614243
0.00610317
0.00606037
0.00602137
0.0059941
0.00598752
0.00601706
0.00611105
0.00630429
0.0065954
0.0069138
0.00719554
0.00746219
0.00775727
0.00805336
0.0082998
0.00848516
0.00862142
0.008726
0.0088125
0.00888803
0.00895346
0.00900579
0.00904091
0.00905599
0.00905159
0.00903319
0.00901101
0.0089965
0.00635298
0.00634442
0.00632427
0.00629072
0.0062448
0.00619164
0.0061402
0.00610172
0.00608889
0.00611914
0.00621715
0.00640392
0.00666515
0.00694607
0.00720575
0.00746085
0.00774027
0.00801562
0.00824149
0.00840884
0.00853088
0.00862801
0.00871619
0.00880334
0.00888897
0.00896739
0.00903179
0.00907745
0.00910348
0.00911281
0.00911158
0.00910771
0.00650007
0.00649131
0.00647036
0.00643488
0.00638534
0.00632658
0.00626828
0.0062238
0.00620829
0.00623971
0.00633842
0.00651498
0.00674975
0.00699942
0.00723503
0.00746691
0.0077138
0.00795513
0.00815715
0.00831337
0.00843402
0.00853572
0.00863253
0.00873241
0.0088353
0.00893466
0.00902118
0.00908703
0.00912929
0.00915041
0.00915674
0.00915634
0.00664974
0.00664018
0.00661759
0.00657998
0.00652806
0.00646666
0.00640571
0.00635974
0.00634549
0.00638041
0.00648058
0.00664911
0.00686426
0.00709045
0.00730566
0.00751503
0.00772926
0.00793612
0.00811459
0.00826098
0.00838153
0.00848748
0.00858948
0.00869463
0.00880425
0.00891383
0.00901427
0.00909558
0.00915158
0.00918242
0.00919392
0.00919517
0.00681365
0.00680262
0.00677787
0.00673854
0.00668623
0.00662578
0.00656654
0.00652321
0.00651404
0.00655569
0.00665984
0.00682387
0.00702502
0.00723321
0.00743118
0.00762092
0.00780711
0.00798321
0.00813854
0.00827225
0.008388
0.0084927
0.00859378
0.00869695
0.00880435
0.00891381
0.00901823
0.00910762
0.00917333
0.00921232
0.00922858
0.00923129
0.00700184
0.00698893
0.00696272
0.00692454
0.0068769
0.00682392
0.00677305
0.00673768
0.00673734
0.00678772
0.00689619
0.00705584
0.00724404
0.0074353
0.00761606
0.00778684
0.00794829
0.0080969
0.00822903
0.00834629
0.0084512
0.00854796
0.00864154
0.00873629
0.00883465
0.00893614
0.00903598
0.00912572
0.00919585
0.00924055
0.00926096
0.00926519
0.00722195
0.0072073
0.00718244
0.00715155
0.00711709
0.00708075
0.00704661
0.00702533
0.0070362
0.00709361
0.0072018
0.00735185
0.00752298
0.0076941
0.00785458
0.00800433
0.00814173
0.00826456
0.00837335
0.00847138
0.0085608
0.00864431
0.00872518
0.00880659
0.00889086
0.00897867
0.00906751
0.00915098
0.00922009
0.0092673
0.00929083
0.00929657
0.00748062
0.00746538
0.00744733
0.00743238
0.00742023
0.00740849
0.00739717
0.00739362
0.00741475
0.00747325
0.00757254
0.00770435
0.00785141
0.00799695
0.00813262
0.00825798
0.00837037
0.00846819
0.00855393
0.00863153
0.00870304
0.00877027
0.00883541
0.00890066
0.00896801
0.00903867
0.00911196
0.00918386
0.00924688
0.00929298
0.00931806
0.00932516
0.00778587
0.00777307
0.00776958
0.00777797
0.00779212
0.00780584
0.00781651
0.0078285
0.00785491
0.00790686
0.00798841
0.00809381
0.00821026
0.00832511
0.00843187
0.00852981
0.00861612
0.00868959
0.00875319
0.00881067
0.00886381
0.00891391
0.00896241
0.00901075
0.00906045
0.00911277
0.0091681
0.00922462
0.00927711
0.00931831
0.00934278
0.00935076
0.00814969
0.00814546
0.008163
0.00819356
0.00822663
0.0082561
0.00827929
0.00829879
0.00832362
0.00836289
0.0084211
0.0084954
0.0085775
0.00865869
0.00873416
0.00880305
0.00886303
0.00891326
0.00895623
0.00899491
0.00903065
0.00906433
0.00909686
0.00912912
0.00916211
0.00919683
0.00923398
0.0092732
0.00931172
0.00934426
0.00936543
0.00937336
0.0085904
0.00860162
0.0086337
0.00866908
0.00870213
0.00873023
0.00875193
0.00876875
0.00878592
0.00880946
0.008843
0.00888573
0.00893323
0.00898046
0.00902442
0.00906443
0.009099
0.00912763
0.00915193
0.00917369
0.00919375
0.00921262
0.00923079
0.00924872
0.00926695
0.00928605
0.00930658
0.00932871
0.00935142
0.00937202
0.00938679
0.00939314
0.00912844
0.00913694
0.00915329
0.00916881
0.00918252
0.00919395
0.00920269
0.00920922
0.00921526
0.00922293
0.00923364
0.00924732
0.00926262
0.00927787
0.0092921
0.00930502
0.00931614
0.0093253
0.00933304
0.00933995
0.0093463
0.00935227
0.009358
0.00936364
0.00936934
0.00937528
0.00938165
0.00938856
0.00939581
0.00940268
0.00940804
0.00941066
)
;

boundaryField
{
    movingWall
    {
        type            fixedValue;
        value           uniform 0.00942;
    }
    fixedWalls
    {
        type            zeroGradient;
    }
    floor
    {
        type            zeroGradient;
    }
    frontAndBack
    {
        type            empty;
    }
}


// ************************************************************************* //
