/*--------------------------------*- C++ -*----------------------------------*\
| =========                 |                                                 |
| \\      /  F ield         | OpenFOAM: The Open Source CFD Toolbox           |
|  \\    /   O peration     | Version:  2212                                  |
|   \\  /    A nd           | Website:  www.openfoam.com                      |
|    \\/     M anipulation  |                                                 |
\*---------------------------------------------------------------------------*/
FoamFile
{
    version     2.0;
    format      ascii;
    arch        "LSB;label=64;scalar=64";
    class       volScalarField;
    location    "400";
    object      Xli;
}
// * * * * * * * * * * * * * * * * * * * * * * * * * * * * * * * * * * * * * //

dimensions      [1 -3 0 0 0 0 0];

internalField   nonuniform List<scalar> 
1024
(
0.0425411
0.0425413
0.0425418
0.0425427
0.042544
0.0425457
0.0425479
0.0425503
0.0425528
0.0425552
0.0425574
0.0425594
0.0425608
0.0425614
0.0425607
0.0425574
0.042551
0.0425429
0.0425346
0.042527
0.0425206
0.0425154
0.0425111
0.0425074
0.0425043
0.0425016
0.0424993
0.0424974
0.0424961
0.0424952
0.0424947
0.0424944
0.0425412
0.0425414
0.0425419
0.0425428
0.0425441
0.0425459
0.0425481
0.0425506
0.0425531
0.0425556
0.0425578
0.0425597
0.0425612
0.0425619
0.0425611
0.0425579
0.0425515
0.0425433
0.0425349
0.0425273
0.0425209
0.0425157
0.0425113
0.0425077
0.0425045
0.0425018
0.0424994
0.0424975
0.0424962
0.0424952
0.0424947
0.0424945
0.0425413
0.0425416
0.0425421
0.042543
0.0425445
0.0425464
0.0425487
0.0425512
0.0425538
0.0425563
0.0425585
0.0425605
0.0425621
0.042563
0.0425624
0.0425592
0.0425527
0.0425443
0.0425357
0.042528
0.0425216
0.0425163
0.0425119
0.0425082
0.042505
0.0425022
0.0424997
0.0424978
0.0424963
0.0424953
0.0424948
0.0424945
0.0425416
0.0425418
0.0425424
0.0425434
0.042545
0.0425471
0.0425495
0.0425521
0.0425548
0.0425573
0.0425597
0.0425619
0.0425638
0.0425649
0.0425647
0.0425617
0.0425549
0.0425461
0.0425372
0.0425292
0.0425227
0.0425172
0.0425128
0.042509
0.0425056
0.0425027
0.0425002
0.0424981
0.0424965
0.0424955
0.0424949
0.0424946
0.0425419
0.0425422
0.0425428
0.042544
0.0425457
0.0425479
0.0425505
0.0425533
0.0425561
0.0425588
0.0425614
0.042564
0.0425663
0.0425681
0.0425685
0.0425658
0.0425586
0.0425491
0.0425394
0.0425311
0.0425243
0.0425187
0.042514
0.04251
0.0425064
0.0425033
0.0425006
0.0424984
0.0424968
0.0424956
0.042495
0.0424947
0.0425423
0.0425426
0.0425433
0.0425446
0.0425465
0.0425489
0.0425517
0.0425547
0.0425576
0.0425606
0.0425637
0.0425668
0.0425699
0.0425727
0.0425741
0.0425718
0.042564
0.0425534
0.0425427
0.0425338
0.0425266
0.0425206
0.0425155
0.0425112
0.0425073
0.042504
0.0425011
0.0424987
0.042497
0.0424958
0.0424951
0.0424949
0.0425427
0.042543
0.0425438
0.0425452
0.0425472
0.0425499
0.0425529
0.0425561
0.0425594
0.0425627
0.0425663
0.0425703
0.0425745
0.0425786
0.0425814
0.04258
0.0425714
0.0425593
0.0425474
0.0425375
0.0425296
0.042523
0.0425174
0.0425125
0.0425082
0.0425046
0.0425015
0.042499
0.0424972
0.0424959
0.0424953
0.042495
0.0425432
0.0425435
0.0425443
0.0425458
0.042548
0.0425507
0.042554
0.0425574
0.0425611
0.0425649
0.0425692
0.0425741
0.0425797
0.0425856
0.0425903
0.0425901
0.0425807
0.042567
0.0425535
0.0425424
0.0425334
0.0425259
0.0425195
0.0425139
0.0425091
0.0425051
0.0425017
0.0424992
0.0424973
0.042496
0.0424953
0.0424951
0.0425436
0.042544
0.0425448
0.0425463
0.0425485
0.0425514
0.0425548
0.0425585
0.0425625
0.0425669
0.0425719
0.0425779
0.0425849
0.0425929
0.0426001
0.0426015
0.0425914
0.0425761
0.042561
0.0425483
0.0425379
0.0425292
0.0425217
0.0425153
0.0425099
0.0425054
0.0425019
0.0424992
0.0424973
0.042496
0.0424954
0.0424951
0.042544
0.0425443
0.0425451
0.0425466
0.0425488
0.0425517
0.0425552
0.0425591
0.0425634
0.0425682
0.0425738
0.0425807
0.0425893
0.0425996
0.04261
0.0426135
0.0426029
0.0425859
0.0425691
0.0425547
0.0425427
0.0425325
0.0425238
0.0425165
0.0425105
0.0425056
0.0425019
0.0424991
0.0424972
0.042496
0.0424953
0.042495
0.0425443
0.0425446
0.0425453
0.0425467
0.0425488
0.0425517
0.0425551
0.042559
0.0425634
0.0425683
0.0425742
0.0425818
0.0425919
0.0426051
0.0426196
0.0426257
0.0426144
0.0425955
0.0425769
0.0425607
0.042547
0.0425353
0.0425254
0.0425173
0.0425107
0.0425055
0.0425017
0.0424989
0.042497
0.0424958
0.0424951
0.0424948
0.0425443
0.0425446
0.0425453
0.0425466
0.0425486
0.0425512
0.0425544
0.042558
0.0425621
0.0425668
0.0425727
0.0425807
0.0425925
0.0426095
0.0426296
0.0426384
0.0426256
0.0426038
0.0425829
0.0425648
0.0425495
0.0425366
0.0425259
0.0425172
0.0425103
0.042505
0.0425012
0.0424984
0.0424966
0.0424954
0.0424948
0.0424945
0.0425441
0.0425443
0.042545
0.0425461
0.0425478
0.0425501
0.0425528
0.042556
0.0425595
0.0425636
0.0425691
0.0425775
0.0425916
0.0426142
0.0426416
0.0426528
0.0426364
0.0426099
0.0425857
0.0425655
0.0425489
0.0425353
0.0425243
0.0425156
0.0425089
0.0425039
0.0425003
0.0424977
0.042496
0.0424949
0.0424942
0.0424939
0.0425435
0.0425438
0.0425444
0.0425454
0.0425468
0.0425486
0.0425506
0.042553
0.0425555
0.0425588
0.0425639
0.0425731
0.0425908
0.0426218
0.0426583
0.0426703
0.042647
0.0426131
0.0425841
0.0425614
0.0425438
0.0425301
0.0425196
0.0425117
0.0425059
0.0425017
0.0424987
0.0424965
0.042495
0.042494
0.0424933
0.0424931
0.0425421
0.0425423
0.0425429
0.0425436
0.0425447
0.0425459
0.0425473
0.0425488
0.0425505
0.042553
0.0425579
0.0425689
0.0425928
0.0426362
0.0426829
0.0426925
0.0426581
0.0426141
0.042579
0.0425532
0.0425344
0.0425208
0.0425114
0.042505
0.0425006
0.0424977
0.0424956
0.042494
0.0424929
0.0424921
0.0424915
0.0424913
0.0425405
0.0425407
0.0425412
0.0425419
0.0425426
0.0425434
0.0425441
0.0425447
0.0425455
0.0425473
0.0425525
0.042567
0.0426018
0.0426628
0.0427191
0.0427221
0.0426748
0.0426215
0.0425813
0.0425519
0.04253
0.0425139
0.0425032
0.042497
0.0424939
0.0424924
0.0424913
0.0424904
0.0424896
0.042489
0.0424888
0.0424887
0.0425366
0.0425369
0.0425376
0.0425384
0.0425394
0.0425402
0.0425408
0.042541
0.0425411
0.0425424
0.0425489
0.0425704
0.0426228
0.0427055
0.0427688
0.0427668
0.0427178
0.0426693
0.0426333
0.0426032
0.0425755
0.0425499
0.0425277
0.0425107
0.0424985
0.0424912
0.0424883
0.0424889
0.0424918
0.0424955
0.0424987
0.0425005
0.0425339
0.0425337
0.0425334
0.0425333
0.0425334
0.0425338
0.0425343
0.0425347
0.0425352
0.042538
0.0425493
0.0425831
0.0426574
0.0427592
0.0428297
0.0428425
0.0428275
0.0428185
0.0428157
0.0428112
0.0428017
0.0427869
0.0427682
0.0427482
0.0427283
0.0427108
0.0426971
0.042688
0.0426833
0.0426819
0.0426822
0.0426828
0.0425489
0.0425474
0.0425447
0.0425412
0.0425376
0.0425347
0.0425328
0.0425321
0.0425333
0.0425391
0.0425577
0.0426059
0.0426984
0.0428105
0.0428934
0.0429427
0.0429864
0.0430374
0.0430875
0.0431302
0.0431627
0.0431843
0.0431953
0.0431968
0.0431894
0.0431748
0.0431543
0.0431302
0.0431058
0.0430848
0.0430705
0.0430639
0.042586
0.0425835
0.0425785
0.0425711
0.0425624
0.0425539
0.042547
0.0425428
0.042543
0.0425512
0.0425769
0.0426356
0.0427344
0.0428452
0.0429345
0.0430091
0.0430899
0.0431744
0.0432494
0.0433104
0.0433584
0.0433952
0.0434227
0.0434419
0.0434526
0.0434548
0.043448
0.0434334
0.0434135
0.0433927
0.0433762
0.0433676
0.0426343
0.0426315
0.0426253
0.0426155
0.0426029
0.0425891
0.0425766
0.0425678
0.0425656
0.0425746
0.0426038
0.0426643
0.0427556
0.0428555
0.0429435
0.0430264
0.0431181
0.0432097
0.0432852
0.0433413
0.0433816
0.0434119
0.0434364
0.0434576
0.0434758
0.0434905
0.0435004
0.0435046
0.0435034
0.043498
0.0434916
0.0434874
0.0426831
0.0426803
0.0426738
0.042663
0.0426482
0.0426311
0.0426145
0.0426019
0.0425975
0.0426065
0.0426369
0.0426952
0.0427772
0.0428654
0.0429466
0.043026
0.0431129
0.0431982
0.0432677
0.0433185
0.0433548
0.0433829
0.0434079
0.0434324
0.0434563
0.0434782
0.0434963
0.0435091
0.0435166
0.0435194
0.0435193
0.0435183
0.0427297
0.0427269
0.0427202
0.0427088
0.0426929
0.042674
0.0426551
0.0426406
0.0426351
0.0426443
0.0426748
0.0427298
0.0428035
0.0428817
0.0429554
0.0430276
0.0431044
0.0431793
0.0432416
0.0432892
0.0433254
0.0433552
0.0433831
0.0434114
0.0434404
0.0434683
0.0434925
0.043511
0.0435229
0.043529
0.0435309
0.0435309
0.0427765
0.0427735
0.0427663
0.0427543
0.0427377
0.042718
0.0426983
0.0426833
0.0426781
0.0426883
0.042719
0.0427714
0.0428387
0.0429095
0.0429766
0.0430417
0.0431083
0.0431725
0.0432275
0.0432723
0.0433086
0.04334
0.0433696
0.0433998
0.0434309
0.0434618
0.04349
0.0435128
0.0435285
0.0435372
0.0435405
0.043541
0.0428269
0.0428235
0.0428157
0.0428033
0.0427866
0.0427673
0.0427482
0.0427339
0.0427303
0.0427424
0.0427742
0.042825
0.0428877
0.0429526
0.0430141
0.0430729
0.0431307
0.0431852
0.0432331
0.043274
0.043309
0.0433401
0.0433697
0.0433995
0.0434302
0.0434612
0.0434906
0.0435157
0.043534
0.043545
0.0435496
0.0435505
0.042884
0.0428801
0.0428719
0.0428599
0.0428448
0.0428278
0.0428113
0.0427995
0.0427985
0.0428133
0.0428463
0.0428954
0.0429538
0.0430131
0.0430691
0.0431218
0.0431718
0.0432177
0.0432583
0.0432942
0.0433259
0.0433548
0.0433823
0.0434098
0.0434381
0.0434669
0.0434951
0.0435203
0.0435399
0.0435524
0.0435581
0.0435594
0.0429502
0.0429457
0.0429381
0.0429283
0.0429173
0.0429054
0.0428941
0.0428866
0.042889
0.0429059
0.0429386
0.0429846
0.0430374
0.0430903
0.0431398
0.0431859
0.0432282
0.0432661
0.0432995
0.0433294
0.0433564
0.0433814
0.0434053
0.043429
0.0434533
0.0434784
0.0435036
0.043527
0.0435463
0.0435595
0.043566
0.0435677
0.0430274
0.0430228
0.0430172
0.0430124
0.0430081
0.0430037
0.0429994
0.0429973
0.0430029
0.0430201
0.04305
0.0430902
0.0431354
0.0431802
0.0432219
0.0432604
0.0432949
0.043325
0.0433513
0.043375
0.0433966
0.0434167
0.043436
0.0434551
0.0434746
0.0434949
0.0435157
0.0435359
0.0435535
0.0435663
0.0435732
0.0435752
0.0431181
0.0431142
0.043113
0.0431152
0.0431189
0.0431223
0.0431247
0.0431275
0.0431348
0.04315
0.0431744
0.0432065
0.0432421
0.0432774
0.0433101
0.0433401
0.0433666
0.0433891
0.0434086
0.0434261
0.0434422
0.0434572
0.0434716
0.0434858
0.0435003
0.0435153
0.043531
0.0435469
0.0435616
0.043573
0.0435798
0.043582
0.0432257
0.0432244
0.0432295
0.0432383
0.0432478
0.0432561
0.0432625
0.0432677
0.0432746
0.0432861
0.0433035
0.043326
0.043351
0.0433759
0.043399
0.0434201
0.0434385
0.0434539
0.043467
0.0434788
0.0434896
0.0434997
0.0435094
0.0435189
0.0435285
0.0435385
0.0435491
0.0435602
0.0435709
0.0435799
0.0435857
0.0435879
0.0433558
0.043359
0.0433685
0.0433788
0.0433884
0.0433965
0.0434026
0.0434073
0.0434121
0.043419
0.0434289
0.0434418
0.0434563
0.0434708
0.0434842
0.0434965
0.043507
0.0435158
0.0435232
0.0435299
0.043536
0.0435416
0.043547
0.0435523
0.0435576
0.0435632
0.043569
0.0435753
0.0435816
0.0435873
0.0435913
0.0435931
0.0435142
0.0435167
0.0435215
0.0435261
0.0435301
0.0435334
0.0435359
0.0435377
0.0435394
0.0435416
0.0435448
0.043549
0.0435536
0.0435583
0.0435626
0.0435666
0.04357
0.0435728
0.0435752
0.0435773
0.0435792
0.043581
0.0435827
0.0435844
0.043586
0.0435877
0.0435896
0.0435915
0.0435935
0.0435954
0.0435969
0.0435976
)
;

boundaryField
{
    movingWall
    {
        type            fixedValue;
        value           uniform 0.0436;
    }
    fixedWalls
    {
        type            zeroGradient;
    }
    floor
    {
        type            zeroGradient;
    }
    frontAndBack
    {
        type            empty;
    }
}


// ************************************************************************* //
