/*--------------------------------*- C++ -*----------------------------------*\
| =========                 |                                                 |
| \\      /  F ield         | OpenFOAM: The Open Source CFD Toolbox           |
|  \\    /   O peration     | Version:  2206                                  |
|   \\  /    A nd           | Website:  www.openfoam.com                      |
|    \\/     M anipulation  |                                                 |
\*---------------------------------------------------------------------------*/
FoamFile
{
    version     2.0;
    format      ascii;
    arch        "LSB;label=64;scalar=64";
    class       volVectorField;
    location    "183600";
    object      U;
}
// * * * * * * * * * * * * * * * * * * * * * * * * * * * * * * * * * * * * * //

dimensions      [0 1 -1 0 0 0 0];

internalField   nonuniform List<vector> 
16
(
(-9.97566e-08 4.70305e-08 0)
(-5.88125e-08 -5.20532e-08 0)
(7.61175e-08 -2.46466e-08 0)
(2.35988e-08 3.64128e-08 0)
(-3.19345e-08 1.14097e-07 0)
(-2.9889e-08 -1.25623e-07 0)
(-8.39228e-11 -5.93028e-08 0)
(5.86244e-10 6.44788e-08 0)
(5.11537e-08 1.07221e-07 0)
(2.84167e-08 -8.47349e-08 0)
(-4.59542e-08 -5.56707e-08 0)
(-2.71449e-09 3.74506e-08 0)
(7.5395e-08 3.58386e-08 0)
(6.60634e-08 -2.70348e-08 0)
(-3.60427e-08 -2.65659e-08 0)
(-1.51793e-08 1.43687e-08 0)
)
;

boundaryField
{
    movingWall
    {
        type            noSlip;
    }
    fixedWalls
    {
        type            noSlip;
    }
    frontAndBack
    {
        type            empty;
    }
}


// ************************************************************************* //
