/*--------------------------------*- C++ -*----------------------------------*\
| =========                 |                                                 |
| \\      /  F ield         | OpenFOAM: The Open Source CFD Toolbox           |
|  \\    /   O peration     | Version:  2212                                  |
|   \\  /    A nd           | Website:  www.openfoam.com                      |
|    \\/     M anipulation  |                                                 |
\*---------------------------------------------------------------------------*/
FoamFile
{
    version     2.0;
    format      ascii;
    arch        "LSB;label=64;scalar=64";
    class       volScalarField::Internal;
    location    "1190";
    object      dGch4;
}
// * * * * * * * * * * * * * * * * * * * * * * * * * * * * * * * * * * * * * //

dimensions      [1 -3 -1 0 0 0 0];

value           nonuniform List<scalar> 
1024
(
0.000914294
0.000914623
0.000915426
0.000916877
0.000919147
0.000922369
0.000926568
0.000931622
0.000937243
0.000943019
0.000948464
0.000953085
0.000956499
0.00095842
0.000958595
0.000956732
0.000952609
0.000946725
0.000939814
0.000932124
0.000923841
0.000915219
0.000906645
0.000898593
0.0008915
0.000885641
0.0008811
0.000877797
0.000875553
0.000874152
0.000873384
0.00087307
0.000914374
0.000914709
0.000915528
0.000917007
0.000919323
0.000922603
0.000926866
0.000931982
0.000937655
0.000943471
0.000948941
0.000953563
0.000956959
0.000958857
0.000959011
0.000957136
0.000953009
0.000947125
0.000940221
0.000932542
0.00092427
0.000915648
0.000907054
0.000898959
0.000891806
0.000885881
0.000881278
0.000877925
0.000875646
0.000874223
0.000873444
0.000873127
0.000914566
0.000914911
0.000915758
0.000917291
0.000919691
0.000923085
0.000927483
0.000932743
0.000938564
0.00094452
0.0009501
0.000954759
0.00095812
0.000959947
0.000960024
0.000958082
0.000953906
0.000947988
0.00094107
0.000933401
0.000925148
0.000916531
0.000907905
0.00089973
0.000892459
0.000886399
0.000881668
0.000878212
0.000875859
0.00087439
0.000873586
0.000873259
0.000914899
0.000915258
0.000916141
0.000917745
0.000920262
0.000923822
0.000928435
0.000933954
0.000940074
0.000946347
0.000952195
0.000956973
0.000960287
0.000961967
0.00096186
0.000959741
0.000955407
0.00094936
0.000942364
0.000934672
0.000926435
0.000917831
0.000909171
0.000900894
0.000893459
0.000887204
0.000882286
0.000878673
0.000876208
0.000874668
0.000873826
0.000873485
0.000915406
0.000915777
0.000916699
0.000918384
0.000921042
0.000924821
0.000929745
0.000935677
0.000942311
0.000949155
0.000955505
0.000960536
0.000963809
0.000965239
0.000964791
0.000962312
0.000957629
0.000951275
0.000944064
0.00093627
0.000928015
0.000919421
0.000910736
0.000902355
0.000894737
0.000888253
0.000883105
0.000879297
0.000876689
0.000875058
0.000874168
0.000873807
0.000916127
0.000916507
0.000917464
0.000919233
0.000922053
0.000926106
0.000931454
0.000937993
0.000945416
0.000953152
0.000960294
0.000965759
0.000969018
0.000970088
0.0009691
0.000966009
0.000960689
0.000953746
0.000946091
0.00093804
0.000929685
0.000921075
0.000912373
0.00090391
0.000896126
0.000889419
0.000884036
0.000880024
0.000877262
0.000875532
0.000874588
0.000874207
0.000917124
0.000917509
0.000918496
0.000920348
0.000923348
0.000927736
0.000933641
0.000941012
0.000949541
0.000958521
0.00096676
0.000972862
0.000976159
0.000976766
0.000975022
0.00097102
0.000964689
0.000956757
0.000948317
0.000939763
0.000931159
0.000922468
0.000913746
0.000905239
0.000897348
0.000890477
0.000884908
0.000880728
0.000877837
0.000876022
0.000875032
0.000874632
0.000918507
0.000918894
0.000919905
0.000921842
0.000925045
0.000929838
0.000936445
0.000944891
0.000954847
0.00096541
0.000975019
0.000981935
0.000985324
0.000985389
0.000982698
0.000977482
0.000969702
0.000960265
0.000950571
0.000941163
0.000932084
0.000923194
0.00091443
0.000905931
0.000898031
0.000891114
0.000885477
0.000881223
0.000878271
0.000876414
0.000875398
0.000874988
0.000920469
0.000920856
0.000921893
0.000923925
0.000927366
0.000932645
0.000940111
0.000949875
0.000961552
0.000973968
0.000985131
0.00099296
0.000996463
0.00099594
0.000992187
0.000985514
0.000975827
0.000964261
0.000952698
0.000941958
0.000932084
0.000922822
0.000913967
0.000905535
0.000897764
0.000890981
0.000885455
0.000881283
0.000878385
0.000876557
0.000875554
0.000875145
0.000923327
0.000923718
0.00092479
0.000926945
0.000930683
0.000936556
0.000945054
0.000956365
0.000970001
0.000984429
0.000997196
0.00100591
0.00100951
0.00100842
0.00100365
0.000995422
0.000983429
0.000969023
0.000954793
0.000942053
0.000930921
0.000921019
0.000911986
0.000903679
0.000896203
0.000889777
0.000884593
0.000880704
0.000878009
0.000876308
0.000875371
0.000874986
0.000927566
0.000927969
0.000929106
0.000931441
0.000935574
0.000942193
0.000951922
0.000964996
0.000980744
0.000997201
0.00101146
0.00102093
0.00102461
0.00102317
0.00101771
0.00100817
0.000993729
0.000975826
0.000957963
0.000942213
0.000929029
0.000917976
0.000908524
0.000900325
0.000893281
0.000887433
0.000882832
0.000879443
0.000877127
0.000875683
0.000874896
0.000874577
0.000933843
0.000934278
0.000935529
0.000938141
0.000942825
0.000950403
0.000961602
0.000976628
0.000994526
0.00101287
0.00102838
0.00103846
0.00104242
0.00104127
0.00103602
0.00102609
0.00100983
0.000988375
0.000965967
0.000945708
0.000928989
0.00091565
0.000905022
0.00089654
0.00088982
0.000884626
0.000880788
0.000878128
0.000876435
0.000875476
0.000875019
0.000874864
0.000942902
0.000943396
0.000944834
0.000947863
0.000953317
0.000962129
0.000975062
0.000992177
0.00101214
0.00103209
0.00104859
0.00105938
0.00106435
0.00106485
0.00106164
0.00105344
0.00103763
0.00101442
0.000988027
0.00096232
0.000939905
0.000921859
0.000907908
0.000897527
0.000890102
0.000885084
0.000881974
0.00088032
0.000879695
0.00087969
0.000879936
0.000880147
0.00095535
0.000955935
0.000957656
0.000961284
0.000967785
0.000978166
0.000993119
0.0010124
0.00103423
0.00105545
0.00107285
0.00108491
0.00109232
0.00109661
0.00109821
0.00109547
0.00108512
0.00106574
0.00104017
0.00101203
0.000984544
0.000960008
0.000939576
0.000923731
0.000912419
0.000905363
0.000901845
0.000900865
0.000901442
0.000902695
0.00090392
0.000904646
0.000971183
0.000971902
0.00097401
0.000978421
0.000986218
0.000998412
0.00101548
0.00103674
0.00106004
0.00108225
0.00110081
0.00111515
0.00112654
0.00113647
0.00114532
0.00115199
0.0011537
0.00114757
0.00113383
0.0011144
0.00109153
0.00106742
0.00104409
0.00102295
0.0010052
0.000991783
0.000982979
0.000978212
0.000976526
0.000976706
0.000977578
0.000978268
0.000988137
0.000988941
0.000991275
0.000996111
0.00100455
0.00101754
0.0010354
0.00105732
0.0010813
0.00110465
0.00112528
0.00114276
0.00115817
0.00117286
0.00118759
0.00120267
0.00121734
0.00122912
0.00123607
0.00123778
0.00123429
0.00122607
0.00121392
0.00119895
0.0011826
0.00116637
0.00115174
0.0011399
0.00113156
0.00112661
0.0011243
0.00112362
0.00100201
0.00100281
0.00100509
0.00100976
0.00101784
0.00103023
0.00104726
0.00106833
0.00109172
0.00111507
0.00113626
0.00115435
0.00116972
0.00118332
0.00119611
0.00120951
0.00122512
0.00124333
0.00126235
0.00128037
0.00129588
0.00130774
0.00131519
0.00131788
0.00131592
0.00131002
0.00130148
0.00129205
0.00128345
0.00127693
0.00127297
0.00127131
0.00101076
0.00101152
0.00101362
0.00101783
0.00102507
0.00103615
0.00105148
0.00107066
0.00109231
0.00111433
0.00113448
0.00115127
0.00116425
0.00117375
0.00118053
0.00118622
0.001194
0.00120738
0.00122597
0.00124767
0.00127032
0.00129204
0.00131129
0.00132693
0.00133828
0.00134518
0.00134799
0.00134762
0.00134535
0.00134254
0.0013403
0.00133917
0.0010153
0.00101603
0.00101795
0.00102168
0.00102799
0.00103762
0.001051
0.00106792
0.00108733
0.0011074
0.00112597
0.00114124
0.00115221
0.00115871
0.00116126
0.00116152
0.00116335
0.00117183
0.00118787
0.00120989
0.00123576
0.00126311
0.00128959
0.00131311
0.00133225
0.00134637
0.00135559
0.00136063
0.00136259
0.00136271
0.00136214
0.00136166
0.00101688
0.00101759
0.00101937
0.00102269
0.00102817
0.00103642
0.00104788
0.00106249
0.00107945
0.00109727
0.00111401
0.00112784
0.0011375
0.00114252
0.00114331
0.00114151
0.00114115
0.00114731
0.0011612
0.00118198
0.00120829
0.0012382
0.00126934
0.00129898
0.00132473
0.00134501
0.00135933
0.00136818
0.00137271
0.00137435
0.00137452
0.0013743
0.0010164
0.00101709
0.00101874
0.00102173
0.00102652
0.00103358
0.0010433
0.00105568
0.00107017
0.00108556
0.00110027
0.00111265
0.00112148
0.00112621
0.00112724
0.00112619
0.00112692
0.0011335
0.00114676
0.0011664
0.00119173
0.00122157
0.00125415
0.00128693
0.00131715
0.00134245
0.00136146
0.00137405
0.00138113
0.00138422
0.00138499
0.00138492
0.00101488
0.0010155
0.00101697
0.00101961
0.00102376
0.00102979
0.00103798
0.00104833
0.00106045
0.00107344
0.00108609
0.00109714
0.00110561
0.00111112
0.00111407
0.00111604
0.00112018
0.00112908
0.00114308
0.0011622
0.00118624
0.00121471
0.0012465
0.00127974
0.00131194
0.00134041
0.00136307
0.00137899
0.00138856
0.00139315
0.00139459
0.00139466
0.00101401
0.00101442
0.00101549
0.00101753
0.00102088
0.00102585
0.00103262
0.00104118
0.00105124
0.00106217
0.00107321
0.00108354
0.00109255
0.00110003
0.00110639
0.00111297
0.00112177
0.00113381
0.00114909
0.00116791
0.00119054
0.00121698
0.00124669
0.00127844
0.00131033
0.00133993
0.00136483
0.00138335
0.00139517
0.00140127
0.00140343
0.00140368
0.00101636
0.00101635
0.00101661
0.00101755
0.00101964
0.00102326
0.0010286
0.00103566
0.00104424
0.00105401
0.00106454
0.00107541
0.00108626
0.00109694
0.00110769
0.00111944
0.00113295
0.0011479
0.00116419
0.00118246
0.00120332
0.00122716
0.00125393
0.00128297
0.00131289
0.00134178
0.00136734
0.00138747
0.00140112
0.00140862
0.00141154
0.00141199
0.00102502
0.00102433
0.00102331
0.00102258
0.00102288
0.00102483
0.00102881
0.00103489
0.00104301
0.00105299
0.00106458
0.00107747
0.00109128
0.00110576
0.00112089
0.00113716
0.0011543
0.00117111
0.00118761
0.00120477
0.00122341
0.00124419
0.00126739
0.00129281
0.00131961
0.00134638
0.00137113
0.00139173
0.00140655
0.00141526
0.00141893
0.00141962
0.00104271
0.00104114
0.0010386
0.00103602
0.00103448
0.00103497
0.00103812
0.00104417
0.00105309
0.00106465
0.00107849
0.00109414
0.00111105
0.00112878
0.00114709
0.00116616
0.00118509
0.0012023
0.00121802
0.00123344
0.00124949
0.00126693
0.00128621
0.00130747
0.00133032
0.00135387
0.00137659
0.00139648
0.00141169
0.00142124
0.0014256
0.00142655
0.00107119
0.00106873
0.00106497
0.00106128
0.00105893
0.00105907
0.00106256
0.00106964
0.00108019
0.00109377
0.00110979
0.00112755
0.00114635
0.00116564
0.00118508
0.0012047
0.00122338
0.00123953
0.00125356
0.00126674
0.00127998
0.001294
0.00130934
0.00132626
0.00134474
0.00136432
0.00138398
0.00140211
0.0014168
0.00142667
0.00143157
0.0014328
0.00111117
0.00110811
0.0011043
0.00110133
0.00110018
0.00110169
0.00110662
0.00111513
0.00112698
0.00114161
0.00115832
0.00117631
0.00119488
0.00121348
0.0012318
0.00124982
0.00126649
0.00128044
0.00129214
0.00130276
0.00131314
0.00132388
0.00133548
0.00134825
0.00136232
0.00137758
0.00139349
0.00140891
0.00142218
0.00143173
0.00143688
0.00143837
0.00116294
0.00116006
0.00115816
0.00115817
0.00116004
0.00116396
0.00117041
0.00117954
0.00119119
0.00120492
0.0012201
0.00123606
0.00125218
0.00126804
0.00128339
0.0012982
0.00131164
0.00132264
0.00133165
0.00133964
0.00134727
0.00135501
0.00136326
0.00137228
0.00138227
0.00139327
0.0014051
0.00141712
0.00142813
0.00143662
0.00144162
0.00144326
0.00122731
0.00122601
0.00122791
0.00123178
0.00123655
0.00124209
0.00124877
0.00125685
0.00126643
0.00127727
0.00128898
0.00130108
0.00131314
0.00132487
0.00133608
0.00134677
0.00135634
0.00136408
0.00137032
0.00137576
0.00138085
0.00138594
0.0013913
0.00139712
0.00140355
0.0014107
0.00141854
0.00142685
0.0014349
0.0014416
0.0014459
0.00144751
0.00130648
0.00130819
0.0013132
0.00131851
0.00132355
0.0013284
0.00133338
0.00133881
0.00134489
0.00135158
0.00135871
0.00136602
0.00137325
0.00138023
0.00138686
0.00139314
0.00139871
0.00140319
0.00140677
0.00140985
0.0014127
0.00141552
0.00141845
0.00142162
0.0014251
0.00142897
0.00143327
0.00143793
0.00144268
0.00144692
0.0014499
0.00145118
0.00140348
0.00140493
0.00140765
0.0014101
0.00141225
0.00141416
0.00141599
0.00141788
0.00141993
0.00142215
0.0014245
0.00142689
0.00142926
0.00143154
0.00143369
0.00143572
0.00143752
0.00143896
0.00144011
0.00144109
0.001442
0.00144288
0.0014438
0.00144478
0.00144586
0.00144705
0.00144838
0.00144984
0.00145135
0.00145277
0.00145385
0.00145437
)
;


// ************************************************************************* //
