/*--------------------------------*- C++ -*----------------------------------*\
| =========                 |                                                 |
| \\      /  F ield         | OpenFOAM: The Open Source CFD Toolbox           |
|  \\    /   O peration     | Version:  2212                                  |
|   \\  /    A nd           | Website:  www.openfoam.com                      |
|    \\/     M anipulation  |                                                 |
\*---------------------------------------------------------------------------*/
FoamFile
{
    version     2.0;
    format      ascii;
    arch        "LSB;label=64;scalar=64";
    class       volScalarField::Internal;
    location    "1190";
    object      dGco2;
}
// * * * * * * * * * * * * * * * * * * * * * * * * * * * * * * * * * * * * * //

dimensions      [1 -3 -1 0 0 0 0];

value           nonuniform List<scalar> 
1024
(
0.000145122
0.000145184
0.000145336
0.000145609
0.000146037
0.000146643
0.000147434
0.000148386
0.000149444
0.000150531
0.000151557
0.000152427
0.00015307
0.000153432
0.000153464
0.000153114
0.000152337
0.000151229
0.000149928
0.00014848
0.00014692
0.000145296
0.000143682
0.000142166
0.00014083
0.000139727
0.000138872
0.00013825
0.000137828
0.000137564
0.000137419
0.00013736
0.000145137
0.000145201
0.000145355
0.000145633
0.00014607
0.000146687
0.00014749
0.000148453
0.000149521
0.000150617
0.000151647
0.000152517
0.000153156
0.000153514
0.000153543
0.00015319
0.000152413
0.000151305
0.000150005
0.000148558
0.000147001
0.000145377
0.000143759
0.000142235
0.000140888
0.000139772
0.000138906
0.000138274
0.000137845
0.000137577
0.00013743
0.000137371
0.000145174
0.000145239
0.000145398
0.000145687
0.000146139
0.000146778
0.000147606
0.000148597
0.000149693
0.000150814
0.000151865
0.000152742
0.000153375
0.000153719
0.000153733
0.000153368
0.000152581
0.000151467
0.000150164
0.00014872
0.000147166
0.000145544
0.000143919
0.00014238
0.000141011
0.00013987
0.000138979
0.000138328
0.000137885
0.000137608
0.000137457
0.000137396
0.000145236
0.000145304
0.00014547
0.000145772
0.000146246
0.000146917
0.000147785
0.000148825
0.000149977
0.000151158
0.000152259
0.000153159
0.000153783
0.000154099
0.000154079
0.00015368
0.000152864
0.000151725
0.000150408
0.00014896
0.000147408
0.000145788
0.000144158
0.000142599
0.000141199
0.000140021
0.000139095
0.000138415
0.000137951
0.000137661
0.000137502
0.000137438
0.000145332
0.000145402
0.000145575
0.000145893
0.000146393
0.000147105
0.000148032
0.000149149
0.000150398
0.000151687
0.000152883
0.00015383
0.000154446
0.000154716
0.000154631
0.000154164
0.000153282
0.000152086
0.000150728
0.00014926
0.000147706
0.000146088
0.000144452
0.000142874
0.00014144
0.000140219
0.000139249
0.000138533
0.000138041
0.000137734
0.000137567
0.000137499
0.000145468
0.000145539
0.00014572
0.000146053
0.000146584
0.000147347
0.000148354
0.000149585
0.000150983
0.00015244
0.000153784
0.000154814
0.000155427
0.000155629
0.000155442
0.00015486
0.000153859
0.000152551
0.00015111
0.000149594
0.00014802
0.000146399
0.000144761
0.000143167
0.000141701
0.000140438
0.000139425
0.000138669
0.000138149
0.000137823
0.000137646
0.000137574
0.000145656
0.000145728
0.000145914
0.000146263
0.000146828
0.000147654
0.000148766
0.000150154
0.00015176
0.000153451
0.000155002
0.000156151
0.000156772
0.000156886
0.000156558
0.000155804
0.000154612
0.000153118
0.000151529
0.000149918
0.000148298
0.000146661
0.000145019
0.000143417
0.000141931
0.000140638
0.000139589
0.000138802
0.000138257
0.000137916
0.000137729
0.000137654
0.000145916
0.000145989
0.000146179
0.000146544
0.000147147
0.000148049
0.000149294
0.000150884
0.000152759
0.000154748
0.000156557
0.000157859
0.000158498
0.00015851
0.000158003
0.000157021
0.000155556
0.000153779
0.000151953
0.000150182
0.000148472
0.000146798
0.000145148
0.000143547
0.00014206
0.000140758
0.000139696
0.000138895
0.000138339
0.000137989
0.000137798
0.000137721
0.000146285
0.000146358
0.000146553
0.000146936
0.000147584
0.000148578
0.000149984
0.000151822
0.000154021
0.000156359
0.000158461
0.000159935
0.000160595
0.000160497
0.00015979
0.000158533
0.000156709
0.000154531
0.000152354
0.000150332
0.000148472
0.000146728
0.000145061
0.000143473
0.00014201
0.000140732
0.000139692
0.000138906
0.000138361
0.000138016
0.000137827
0.000137751
0.000146823
0.000146897
0.000147099
0.000147505
0.000148209
0.000149315
0.000150915
0.000153044
0.000155612
0.000158329
0.000160733
0.000162375
0.000163051
0.000162847
0.000161947
0.000160399
0.000158141
0.000155428
0.000152748
0.000150349
0.000148253
0.000146389
0.000144688
0.000143124
0.000141716
0.000140506
0.00013953
0.000138797
0.00013829
0.000137969
0.000137793
0.000137721
0.000147622
0.000147698
0.000147912
0.000148351
0.00014913
0.000150376
0.000152208
0.00015467
0.000157635
0.000160734
0.000163419
0.000165202
0.000165894
0.000165624
0.000164595
0.000162799
0.00016008
0.000156709
0.000153345
0.000150379
0.000147897
0.000145816
0.000144036
0.000142492
0.000141166
0.000140064
0.000139198
0.00013856
0.000138124
0.000137852
0.000137704
0.000137644
0.000148804
0.000148885
0.000149121
0.000149613
0.000150495
0.000151922
0.000154031
0.00015686
0.00016023
0.000163684
0.000166605
0.000168502
0.000169248
0.000169031
0.000168044
0.000166173
0.000163111
0.000159072
0.000154852
0.000151038
0.000147889
0.000145378
0.000143376
0.000141779
0.000140514
0.000139536
0.000138813
0.000138312
0.000137993
0.000137813
0.000137727
0.000137698
0.000150509
0.000150602
0.000150873
0.000151444
0.000152471
0.00015413
0.000156565
0.000159788
0.000163548
0.000167304
0.000170412
0.000172441
0.000173378
0.000173472
0.000172867
0.000171323
0.000168347
0.000163977
0.000159006
0.000154166
0.000149945
0.000146547
0.00014392
0.000141965
0.000140567
0.000139622
0.000139036
0.000138725
0.000138607
0.000138606
0.000138653
0.000138692
0.000152853
0.000152964
0.000153288
0.000153971
0.000155195
0.00015715
0.000159965
0.000163596
0.000167707
0.000171702
0.000174978
0.000177249
0.000178645
0.000179452
0.000179753
0.000179237
0.000177289
0.00017364
0.000168824
0.000163526
0.00015835
0.00015373
0.000149883
0.000146899
0.000144769
0.000143441
0.000142778
0.000142594
0.000142702
0.000142938
0.000143169
0.000143306
0.000155835
0.00015597
0.000156367
0.000157198
0.000158666
0.000160962
0.000164175
0.000168179
0.000172567
0.000176749
0.000180244
0.000182944
0.000185088
0.000186958
0.000188624
0.00018988
0.000190203
0.000189049
0.00018646
0.000182802
0.000178496
0.000173956
0.000169562
0.000165583
0.00016224
0.000159714
0.000158056
0.000157158
0.000156841
0.000156875
0.000157039
0.000157169
0.000159027
0.000159179
0.000159618
0.000160529
0.000162118
0.000164564
0.000167926
0.000172055
0.00017657
0.000180967
0.000184851
0.000188143
0.000191045
0.000193812
0.000196584
0.000199425
0.000202186
0.000204405
0.000205714
0.000206035
0.000205377
0.00020383
0.000201542
0.000198724
0.000195646
0.000192588
0.000189833
0.000187605
0.000186033
0.000185102
0.000184667
0.000184538
0.00016164
0.000161791
0.00016222
0.000163098
0.00016462
0.000166953
0.000170161
0.000174127
0.000178532
0.000182929
0.000186918
0.000190325
0.000193219
0.00019578
0.000198189
0.000200712
0.000203651
0.000207081
0.000210661
0.000214055
0.000216975
0.000219208
0.000220611
0.000221117
0.00022075
0.000219638
0.000218029
0.000216254
0.000214636
0.000213408
0.000212661
0.000212349
0.000163287
0.000163431
0.000163826
0.000164619
0.000165981
0.000168068
0.000170954
0.000174566
0.000178644
0.000182789
0.000186584
0.000189745
0.00019219
0.000193979
0.000195255
0.000196326
0.000197791
0.00020031
0.000203811
0.000207897
0.000212163
0.000216252
0.000219878
0.000222822
0.00022496
0.000226258
0.000226788
0.000226719
0.00022629
0.000225762
0.000225341
0.000225127
0.000164142
0.00016428
0.000164641
0.000165344
0.000166532
0.000168344
0.000170863
0.000174051
0.000177706
0.000181484
0.000184981
0.000187857
0.000189923
0.000191146
0.000191626
0.000191676
0.00019202
0.000193617
0.000196637
0.000200783
0.000205654
0.000210804
0.000215791
0.000220221
0.000223824
0.000226483
0.000228219
0.000229169
0.000229537
0.00022956
0.000229451
0.000229362
0.00016444
0.000164574
0.000164908
0.000165534
0.000166565
0.000168119
0.000170277
0.000173027
0.000176222
0.000179577
0.000182729
0.000185333
0.000187153
0.000188099
0.000188247
0.000187907
0.00018784
0.000189
0.000191615
0.000195529
0.000200482
0.000206114
0.000211978
0.000217559
0.000222407
0.000226227
0.000228924
0.00023059
0.000231442
0.000231752
0.000231784
0.000231742
0.00016435
0.000164479
0.000164791
0.000165354
0.000166255
0.000167585
0.000169415
0.000171746
0.000174474
0.000177373
0.000180142
0.000182474
0.000184136
0.000185027
0.000185221
0.000185023
0.000185161
0.000186399
0.000188896
0.000192595
0.000197364
0.000202984
0.000209118
0.000215291
0.000220981
0.000225744
0.000229324
0.000231696
0.000233028
0.000233609
0.000233756
0.000233741
0.000164063
0.000164179
0.000164457
0.000164953
0.000165735
0.00016687
0.000168412
0.000170362
0.000172644
0.00017509
0.000177472
0.000179553
0.000181148
0.000182185
0.00018274
0.000183112
0.000183891
0.000185566
0.000188202
0.000191803
0.000196331
0.000201691
0.000207678
0.000213937
0.00022
0.000225361
0.000229627
0.000232624
0.000234427
0.000235291
0.000235562
0.000235576
0.000163899
0.000163977
0.000164178
0.000164561
0.000165192
0.000166128
0.000167404
0.000169016
0.000170909
0.000172969
0.000175047
0.000176992
0.000178688
0.000180097
0.000181295
0.000182533
0.00018419
0.000186458
0.000189334
0.000192879
0.00019714
0.000202118
0.000207712
0.000213691
0.000219695
0.000225271
0.000229958
0.000233446
0.000235672
0.000236821
0.000237227
0.000237274
0.000164342
0.00016434
0.000164389
0.000164565
0.000164959
0.000165641
0.000166647
0.000167976
0.000169592
0.00017143
0.000173414
0.000175462
0.000177505
0.000179514
0.000181538
0.000183752
0.000186296
0.000189111
0.000192178
0.000195619
0.000199546
0.000204035
0.000209077
0.000214544
0.000220178
0.000225618
0.000230431
0.000234223
0.000236791
0.000238205
0.000238755
0.00023884
0.000165972
0.000165842
0.000165649
0.000165512
0.000165569
0.000165937
0.000166685
0.00016783
0.00016936
0.000171239
0.000173422
0.000175849
0.00017845
0.000181176
0.000184024
0.000187088
0.000190316
0.000193481
0.000196588
0.000199819
0.00020333
0.000207242
0.000211611
0.000216397
0.000221445
0.000226484
0.000231145
0.000235023
0.000237815
0.000239454
0.000240146
0.000240275
0.000169304
0.000169008
0.000168529
0.000168043
0.000167754
0.000167846
0.000168439
0.000169579
0.000171258
0.000173434
0.000176041
0.000178987
0.000182172
0.000185511
0.000188958
0.000192549
0.000196114
0.000199355
0.000202314
0.000205218
0.000208241
0.000211523
0.000215155
0.000219157
0.000223461
0.000227896
0.000232172
0.000235919
0.000238783
0.00024058
0.000241401
0.000241581
0.000174666
0.000174202
0.000173495
0.0001728
0.000172357
0.000172385
0.00017304
0.000174375
0.00017636
0.000178917
0.000181934
0.000185278
0.000188819
0.000192451
0.000196111
0.000199805
0.000203323
0.000206365
0.000209007
0.000211489
0.000213981
0.000216622
0.00021951
0.000222697
0.000226175
0.000229862
0.000233565
0.000236978
0.000239745
0.000241604
0.000242525
0.000242758
0.000182194
0.000181618
0.000180901
0.000180342
0.000180125
0.00018041
0.000181338
0.000182941
0.000185171
0.000187927
0.000191073
0.000194461
0.000197957
0.00020146
0.000204909
0.000208303
0.000211442
0.000214068
0.000216271
0.000218272
0.000220225
0.000222249
0.000224433
0.000226838
0.000229487
0.000232359
0.000235355
0.000238259
0.000240758
0.000242556
0.000243526
0.000243806
0.000191942
0.0001914
0.000191043
0.000191045
0.000191396
0.000192135
0.00019335
0.000195068
0.000197262
0.000199847
0.000202707
0.000205711
0.000208747
0.000211734
0.000214623
0.000217413
0.000219942
0.000222014
0.000223712
0.000225216
0.000226652
0.000228109
0.000229662
0.000231362
0.000233242
0.000235313
0.000237541
0.000239805
0.000241877
0.000243478
0.000244418
0.000244728
0.000204063
0.000203818
0.000204177
0.000204906
0.000205804
0.000206848
0.000208104
0.000209627
0.000211429
0.000213471
0.000215676
0.000217954
0.000220226
0.000222434
0.000224545
0.000226558
0.00022836
0.000229817
0.000230992
0.000232016
0.000232976
0.000233935
0.000234943
0.000236039
0.000237251
0.000238595
0.000240073
0.000241637
0.000243153
0.000244415
0.000245224
0.000245528
0.000218971
0.000219294
0.000220237
0.000221237
0.000222187
0.0002231
0.000224036
0.000225059
0.000226203
0.000227464
0.000228807
0.000230183
0.000231544
0.000232859
0.000234107
0.000235289
0.000236339
0.000237182
0.000237856
0.000238436
0.000238973
0.000239504
0.000240056
0.000240652
0.000241307
0.000242036
0.000242845
0.000243724
0.000244618
0.000245416
0.000245978
0.000246219
0.000237236
0.00023751
0.000238022
0.000238484
0.000238887
0.000239248
0.000239593
0.000239948
0.000240333
0.000240751
0.000241194
0.000241645
0.000242091
0.000242519
0.000242925
0.000243308
0.000243647
0.000243918
0.000244134
0.000244319
0.000244489
0.000244656
0.000244829
0.000245014
0.000245217
0.000245442
0.000245692
0.000245966
0.000246251
0.000246517
0.000246721
0.000246819
)
;


// ************************************************************************* //
