/*--------------------------------*- C++ -*----------------------------------*\
| =========                 |                                                 |
| \\      /  F ield         | OpenFOAM: The Open Source CFD Toolbox           |
|  \\    /   O peration     | Version:  2212                                  |
|   \\  /    A nd           | Website:  www.openfoam.com                      |
|    \\/     M anipulation  |                                                 |
\*---------------------------------------------------------------------------*/
FoamFile
{
    version     2.0;
    format      ascii;
    arch        "LSB;label=64;scalar=64";
    class       volScalarField;
    location    "1190";
    object      Xli;
}
// * * * * * * * * * * * * * * * * * * * * * * * * * * * * * * * * * * * * * //

dimensions      [1 -3 0 0 0 0 0];

internalField   nonuniform List<scalar> 
1024
(
0.0423013
0.0423022
0.0423044
0.0423084
0.0423146
0.0423234
0.0423349
0.0423487
0.042364
0.0423797
0.0423944
0.0424069
0.0424159
0.0424209
0.0424209
0.0424152
0.0424033
0.0423867
0.0423675
0.0423461
0.0423232
0.0422992
0.0422752
0.0422526
0.0422327
0.0422161
0.0422033
0.042194
0.0421876
0.0421837
0.0421815
0.0421806
0.0423015
0.0423024
0.0423047
0.0423087
0.0423151
0.0423241
0.0423357
0.0423497
0.0423651
0.0423809
0.0423957
0.0424081
0.0424172
0.042422
0.042422
0.0424163
0.0424044
0.0423878
0.0423686
0.0423473
0.0423243
0.0423003
0.0422763
0.0422536
0.0422335
0.0422168
0.0422038
0.0421943
0.0421879
0.0421839
0.0421817
0.0421808
0.042302
0.042303
0.0423053
0.0423095
0.0423161
0.0423254
0.0423374
0.0423517
0.0423676
0.0423837
0.0423988
0.0424113
0.0424202
0.0424249
0.0424246
0.0424187
0.0424067
0.04239
0.0423708
0.0423496
0.0423267
0.0423027
0.0422787
0.0422558
0.0422353
0.0422183
0.0422049
0.0421951
0.0421885
0.0421843
0.042182
0.0421811
0.0423029
0.0423039
0.0423063
0.0423107
0.0423176
0.0423273
0.0423399
0.042355
0.0423716
0.0423886
0.0424044
0.0424172
0.0424259
0.0424302
0.0424294
0.042423
0.0424105
0.0423936
0.0423741
0.0423529
0.0423301
0.0423063
0.0422821
0.042259
0.0422381
0.0422205
0.0422066
0.0421964
0.0421894
0.0421851
0.0421827
0.0421817
0.0423043
0.0423053
0.0423079
0.0423125
0.0423197
0.04233
0.0423435
0.0423596
0.0423776
0.0423961
0.0424132
0.0424266
0.0424352
0.0424387
0.042437
0.0424296
0.0424162
0.0423984
0.0423785
0.042357
0.0423343
0.0423105
0.0422864
0.042263
0.0422416
0.0422234
0.0422089
0.0421981
0.0421908
0.0421862
0.0421837
0.0421826
0.0423063
0.0423073
0.0423099
0.0423148
0.0423225
0.0423335
0.042348
0.0423658
0.0423859
0.0424068
0.0424259
0.0424404
0.0424489
0.0424513
0.042448
0.0424389
0.0424238
0.0424045
0.0423835
0.0423614
0.0423386
0.0423149
0.0422908
0.0422672
0.0422454
0.0422266
0.0422115
0.0422002
0.0421924
0.0421875
0.0421848
0.0421837
0.042309
0.04231
0.0423127
0.0423178
0.0423259
0.0423379
0.0423539
0.0423739
0.0423969
0.0424211
0.0424431
0.0424592
0.0424676
0.0424686
0.0424632
0.0424515
0.0424336
0.0424117
0.0423887
0.0423655
0.0423421
0.0423183
0.0422943
0.0422707
0.0422487
0.0422295
0.0422138
0.0422021
0.0421939
0.0421888
0.042186
0.0421849
0.0423127
0.0423138
0.0423165
0.0423218
0.0423305
0.0423435
0.0423614
0.0423842
0.0424111
0.0424394
0.042465
0.0424831
0.0424915
0.0424909
0.0424827
0.0424676
0.0424457
0.0424198
0.0423937
0.0423684
0.0423439
0.0423198
0.0422958
0.0422724
0.0422504
0.0422311
0.0422153
0.0422034
0.0421951
0.0421898
0.042187
0.0421858
0.042318
0.0423191
0.0423219
0.0423274
0.0423367
0.042351
0.0423712
0.0423976
0.0424289
0.0424621
0.0424917
0.042512
0.0425205
0.0425179
0.0425066
0.0424873
0.0424603
0.0424288
0.0423979
0.0423693
0.042343
0.0423181
0.042294
0.0422709
0.0422494
0.0422305
0.0422151
0.0422034
0.0421953
0.0421901
0.0421873
0.0421861
0.0423258
0.0423268
0.0423297
0.0423356
0.0423457
0.0423616
0.0423845
0.0424149
0.0424514
0.0424898
0.0425235
0.0425459
0.0425542
0.0425497
0.0425353
0.0425116
0.0424782
0.0424393
0.0424015
0.0423679
0.0423385
0.0423122
0.0422878
0.0422652
0.0422447
0.0422269
0.0422125
0.0422016
0.042194
0.0421893
0.0421866
0.0421855
0.0423373
0.0423384
0.0423414
0.0423477
0.0423589
0.0423767
0.0424029
0.042438
0.04248
0.0425236
0.0425609
0.0425849
0.042593
0.0425871
0.0425704
0.0425429
0.0425028
0.0424547
0.0424075
0.0423662
0.0423317
0.0423026
0.0422774
0.0422552
0.042236
0.04222
0.0422072
0.0421978
0.0421913
0.0421872
0.042185
0.042184
0.0423543
0.0423555
0.0423589
0.0423659
0.0423785
0.0423989
0.0424289
0.0424691
0.0425167
0.042565
0.0426053
0.0426304
0.0426387
0.042633
0.0426164
0.0425875
0.0425425
0.0424848
0.0424257
0.0423728
0.0423292
0.0422943
0.0422663
0.0422437
0.0422256
0.0422115
0.0422009
0.0421935
0.0421887
0.0421859
0.0421846
0.0421841
0.0423789
0.0423803
0.0423841
0.0423922
0.0424069
0.0424305
0.042465
0.0425106
0.0425635
0.0426157
0.0426581
0.0426846
0.0426951
0.0426934
0.0426818
0.0426571
0.0426128
0.0425503
0.0424805
0.0424132
0.0423549
0.0423079
0.0422714
0.0422442
0.0422245
0.0422111
0.0422026
0.0421979
0.042196
0.0421958
0.0421963
0.0421968
0.0424128
0.0424143
0.0424189
0.0424286
0.042446
0.0424737
0.0425135
0.0425646
0.0426221
0.0426773
0.0427216
0.0427511
0.0427678
0.0427758
0.0427766
0.0427658
0.0427352
0.042682
0.0426137
0.0425396
0.0424679
0.042404
0.042351
0.0423098
0.0422803
0.0422619
0.0422526
0.0422499
0.0422512
0.0422544
0.0422575
0.0422593
0.0424557
0.0424576
0.0424632
0.042475
0.0424957
0.0425282
0.0425734
0.0426296
0.0426907
0.0427483
0.0427955
0.0428309
0.0428581
0.0428811
0.0429007
0.042914
0.042914
0.042894
0.0428552
0.0428028
0.0427423
0.0426793
0.0426187
0.0425641
0.0425183
0.0424838
0.0424611
0.0424489
0.0424446
0.0424451
0.0424474
0.0424492
0.0425019
0.042504
0.0425101
0.042523
0.0425454
0.0425799
0.0426272
0.0426852
0.0427482
0.0428089
0.0428619
0.0429061
0.0429443
0.0429802
0.0430154
0.0430504
0.043083
0.0431077
0.0431205
0.0431208
0.0431087
0.0430854
0.0430529
0.043014
0.0429719
0.0429305
0.0428934
0.0428635
0.0428425
0.0428301
0.0428243
0.0428226
0.04254
0.0425421
0.0425481
0.0425604
0.0425819
0.0426149
0.0426602
0.0427161
0.042778
0.0428395
0.0428948
0.0429415
0.0429808
0.0430149
0.0430461
0.0430773
0.0431122
0.0431522
0.0431938
0.0432331
0.0432668
0.0432922
0.0433077
0.0433122
0.0433061
0.0432908
0.0432694
0.043246
0.0432249
0.0432089
0.0431992
0.0431952
0.0425645
0.0425665
0.042572
0.0425832
0.0426024
0.042632
0.042673
0.0427243
0.0427821
0.0428407
0.0428943
0.0429387
0.0429729
0.0429977
0.0430147
0.0430275
0.0430435
0.0430716
0.0431113
0.0431581
0.0432072
0.0432545
0.0432967
0.0433311
0.0433562
0.0433716
0.0433779
0.0433772
0.0433721
0.0433657
0.0433607
0.0433581
0.0425777
0.0425796
0.0425847
0.0425946
0.0426114
0.0426372
0.0426732
0.0427187
0.042771
0.042825
0.0428751
0.0429164
0.0429463
0.0429642
0.0429712
0.0429712
0.0429732
0.0429898
0.0430238
0.0430714
0.0431278
0.0431876
0.0432455
0.0432971
0.0433392
0.0433704
0.0433911
0.0434027
0.0434075
0.0434083
0.0434073
0.0434065
0.0425829
0.0425848
0.0425894
0.0425983
0.0426129
0.0426351
0.0426661
0.0427056
0.0427516
0.0428001
0.0428458
0.0428838
0.0429108
0.0429253
0.0429283
0.0429234
0.0429203
0.0429317
0.0429611
0.0430063
0.0430641
0.04313
0.0431986
0.043264
0.0433207
0.0433654
0.0433971
0.0434169
0.0434272
0.0434313
0.0434321
0.0434318
0.0425824
0.0425842
0.0425886
0.0425966
0.0426094
0.0426285
0.0426548
0.0426885
0.042728
0.0427702
0.0428108
0.0428452
0.0428701
0.042884
0.0428875
0.0428844
0.0428841
0.0428969
0.0429252
0.0429684
0.0430245
0.0430907
0.043163
0.0432356
0.0433024
0.0433582
0.0434002
0.0434281
0.043444
0.0434511
0.0434531
0.0434532
0.0425789
0.0425805
0.0425845
0.0425915
0.0426027
0.042619
0.0426413
0.0426696
0.0427028
0.0427386
0.0427737
0.0428045
0.0428283
0.0428438
0.0428519
0.0428561
0.0428641
0.0428827
0.0429133
0.0429558
0.0430096
0.0430732
0.0431442
0.0432181
0.0432895
0.0433525
0.0434025
0.0434377
0.0434589
0.0434693
0.0434727
0.0434731
0.0425764
0.0425775
0.0425805
0.0425862
0.0425953
0.0426089
0.0426274
0.0426509
0.0426785
0.0427086
0.0427391
0.0427675
0.0427921
0.0428121
0.0428282
0.0428434
0.0428628
0.0428893
0.0429235
0.0429658
0.0430168
0.0430763
0.0431429
0.0432139
0.0432848
0.0433504
0.0434054
0.0434463
0.0434724
0.043486
0.043491
0.0434917
0.0425812
0.0425814
0.0425825
0.0425854
0.0425915
0.0426017
0.0426165
0.0426359
0.0426593
0.0426859
0.0427143
0.0427432
0.0427716
0.0427988
0.0428251
0.0428528
0.0428836
0.0429175
0.0429545
0.042996
0.0430433
0.0430973
0.0431576
0.0432227
0.0432895
0.0433536
0.0434102
0.0434546
0.0434846
0.0435012
0.0435078
0.043509
0.0426007
0.0425993
0.0425974
0.0425964
0.0425982
0.0426042
0.0426154
0.042632
0.0426537
0.0426799
0.04271
0.042743
0.0427778
0.0428135
0.0428501
0.0428885
0.0429283
0.042967
0.0430048
0.0430441
0.0430867
0.0431339
0.0431864
0.0432435
0.0433035
0.043363
0.0434178
0.0434632
0.0434958
0.043515
0.0435232
0.0435248
0.0426415
0.042638
0.0426324
0.042627
0.0426244
0.0426268
0.0426357
0.0426517
0.0426747
0.042704
0.0427386
0.0427773
0.0428189
0.0428619
0.0429058
0.042951
0.0429952
0.0430351
0.0430714
0.0431069
0.0431437
0.0431835
0.0432273
0.0432752
0.0433265
0.0433789
0.0434293
0.0434731
0.0435065
0.0435275
0.0435371
0.0435393
0.0427075
0.0427019
0.0426934
0.0426854
0.0426807
0.042682
0.0426914
0.0427094
0.0427356
0.042769
0.0428081
0.0428513
0.0428967
0.0429431
0.0429895
0.043036
0.0430798
0.0431175
0.04315
0.0431805
0.0432109
0.043243
0.0432779
0.0433162
0.0433577
0.0434014
0.043445
0.043485
0.0435172
0.0435388
0.0435495
0.0435523
0.0428003
0.0427933
0.0427847
0.0427782
0.0427761
0.0427804
0.0427929
0.0428138
0.0428426
0.0428779
0.0429182
0.0429614
0.0430059
0.0430504
0.043094
0.0431367
0.0431759
0.0432085
0.0432357
0.0432604
0.0432843
0.043309
0.0433354
0.0433643
0.043396
0.0434301
0.0434654
0.0434994
0.0435285
0.0435493
0.0435606
0.0435639
0.0429206
0.042914
0.0429097
0.0429101
0.0429148
0.0429245
0.0429402
0.0429622
0.0429902
0.043023
0.0430593
0.0430974
0.0431359
0.0431737
0.0432102
0.0432453
0.0432769
0.0433027
0.0433237
0.0433423
0.0433599
0.0433777
0.0433965
0.043417
0.0434395
0.0434641
0.0434904
0.043517
0.0435411
0.0435596
0.0435704
0.043574
0.04307
0.0430671
0.0430716
0.0430808
0.0430921
0.0431054
0.0431213
0.0431406
0.0431635
0.0431893
0.0432171
0.0432459
0.0432746
0.0433025
0.0433292
0.0433545
0.043377
0.0433952
0.0434098
0.0434224
0.0434342
0.043446
0.0434582
0.0434714
0.043486
0.043502
0.0435194
0.0435378
0.0435554
0.04357
0.0435793
0.0435827
0.0432537
0.0432577
0.0432693
0.0432818
0.0432936
0.0433051
0.0433169
0.0433298
0.0433442
0.0433601
0.043377
0.0433944
0.0434116
0.0434282
0.0434439
0.0434588
0.043472
0.0434825
0.0434908
0.043498
0.0435046
0.0435111
0.0435178
0.043525
0.0435329
0.0435416
0.0435512
0.0435615
0.0435719
0.0435811
0.0435875
0.0435903
0.0434784
0.0434818
0.0434881
0.0434938
0.0434988
0.0435033
0.0435077
0.0435121
0.043517
0.0435223
0.0435278
0.0435335
0.0435391
0.0435446
0.0435497
0.0435545
0.0435587
0.0435621
0.0435648
0.0435671
0.0435692
0.0435712
0.0435733
0.0435756
0.043578
0.0435807
0.0435837
0.0435869
0.0435902
0.0435933
0.0435956
0.0435967
)
;

boundaryField
{
    movingWall
    {
        type            fixedValue;
        value           uniform 0.0436;
    }
    fixedWalls
    {
        type            zeroGradient;
    }
    floor
    {
        type            zeroGradient;
    }
    frontAndBack
    {
        type            empty;
    }
}


// ************************************************************************* //
