/*--------------------------------*- C++ -*----------------------------------*\
| =========                 |                                                 |
| \\      /  F ield         | OpenFOAM: The Open Source CFD Toolbox           |
|  \\    /   O peration     | Version:  2212                                  |
|   \\  /    A nd           | Website:  www.openfoam.com                      |
|    \\/     M anipulation  |                                                 |
\*---------------------------------------------------------------------------*/
FoamFile
{
    version     2.0;
    format      ascii;
    arch        "LSB;label=64;scalar=64";
    class       volScalarField;
    location    "1190";
    object      Xpr;
}
// * * * * * * * * * * * * * * * * * * * * * * * * * * * * * * * * * * * * * //

dimensions      [1 -3 0 0 0 0 0];

internalField   nonuniform List<scalar> 
1024
(
0.081645
0.0816468
0.0816512
0.081659
0.0816712
0.0816886
0.0817112
0.0817383
0.0817684
0.0817993
0.0818283
0.0818528
0.0818706
0.0818803
0.0818803
0.0818692
0.0818458
0.0818131
0.0817753
0.0817333
0.0816881
0.0816409
0.0815937
0.0815493
0.08151
0.0814775
0.0814523
0.0814339
0.0814214
0.0814136
0.0814093
0.0814076
0.0816455
0.0816473
0.0816517
0.0816597
0.0816722
0.0816898
0.0817128
0.0817402
0.0817706
0.0818017
0.0818308
0.0818552
0.081873
0.0818825
0.0818825
0.0818713
0.0818478
0.0818152
0.0817774
0.0817355
0.0816904
0.0816432
0.0815959
0.0815513
0.0815117
0.0814788
0.0814533
0.0814346
0.0814219
0.081414
0.0814097
0.0814079
0.0816465
0.0816484
0.0816529
0.0816612
0.0816741
0.0816924
0.081716
0.0817443
0.0817754
0.0818072
0.0818369
0.0818615
0.081879
0.0818882
0.0818877
0.0818761
0.0818524
0.0818196
0.0817818
0.08174
0.081695
0.0816479
0.0816005
0.0815555
0.0815153
0.0814817
0.0814554
0.0814362
0.0814231
0.0814149
0.0814104
0.0814086
0.0816483
0.0816502
0.081655
0.0816636
0.0816772
0.0816963
0.0817211
0.0817507
0.0817834
0.0818168
0.0818478
0.081873
0.0818903
0.0818986
0.081897
0.0818845
0.08186
0.0818265
0.0817883
0.0817466
0.0817018
0.0816548
0.0816074
0.0815618
0.0815207
0.0814861
0.0814588
0.0814387
0.081425
0.0814164
0.0814118
0.0814099
0.081651
0.081653
0.0816579
0.081667
0.0816813
0.0817016
0.081728
0.0817598
0.0817952
0.0818316
0.0818652
0.0818916
0.0819085
0.0819154
0.081912
0.0818974
0.081871
0.081836
0.0817968
0.0817547
0.0817099
0.0816632
0.0816157
0.0815697
0.0815277
0.0814918
0.0814633
0.0814421
0.0814276
0.0814186
0.0814136
0.0814116
0.0816548
0.0816569
0.081662
0.0816715
0.0816867
0.0817084
0.081737
0.081772
0.0818115
0.0818525
0.0818902
0.0819188
0.0819354
0.0819402
0.0819338
0.0819158
0.081886
0.081848
0.0818067
0.0817634
0.0817183
0.0816717
0.0816243
0.081578
0.0815351
0.0814981
0.0814683
0.0814461
0.0814307
0.0814211
0.0814159
0.0814138
0.0816601
0.0816622
0.0816675
0.0816774
0.0816935
0.081717
0.0817486
0.0817878
0.0818331
0.0818807
0.081924
0.0819557
0.0819723
0.0819743
0.0819635
0.0819406
0.0819054
0.0818623
0.081817
0.0817714
0.0817253
0.0816786
0.0816313
0.0815849
0.0815416
0.0815038
0.081473
0.0814499
0.0814338
0.0814238
0.0814182
0.081416
0.0816675
0.0816696
0.081675
0.0816854
0.0817025
0.0817281
0.0817633
0.0818082
0.081861
0.0819167
0.081967
0.0820027
0.0820193
0.082018
0.0820019
0.0819722
0.0819292
0.0818783
0.0818268
0.0817771
0.081729
0.0816815
0.0816343
0.0815881
0.081545
0.081507
0.0814759
0.0814524
0.0814361
0.0814258
0.0814201
0.0814179
0.0816779
0.08168
0.0816856
0.0816964
0.0817148
0.0817429
0.0817826
0.0818344
0.0818961
0.0819614
0.0820196
0.0820596
0.0820763
0.0820713
0.0820489
0.082011
0.0819578
0.0818959
0.0818351
0.0817789
0.0817271
0.0816781
0.0816307
0.0815852
0.081543
0.0815059
0.0814755
0.0814525
0.0814365
0.0814264
0.0814208
0.0814185
0.0816932
0.0816953
0.081701
0.0817125
0.0817324
0.0817636
0.0818087
0.0818685
0.0819404
0.082016
0.0820821
0.0821262
0.0821426
0.0821338
0.0821053
0.0820587
0.0819931
0.0819165
0.0818422
0.0817761
0.0817183
0.0816664
0.0816186
0.0815741
0.0815337
0.0814987
0.0814703
0.0814489
0.0814341
0.0814246
0.0814194
0.0814173
0.0817158
0.081718
0.081724
0.0817364
0.0817583
0.0817935
0.0818449
0.0819139
0.0819967
0.0820825
0.0821559
0.082203
0.0822189
0.0822074
0.0821744
0.0821203
0.0820415
0.0819468
0.0818539
0.0817728
0.0817049
0.0816475
0.081598
0.0815545
0.0815167
0.081485
0.08146
0.0814414
0.0814286
0.0814206
0.0814162
0.0814144
0.0817494
0.0817517
0.0817583
0.0817721
0.0817969
0.081837
0.0818961
0.0819751
0.0820688
0.0821639
0.082243
0.0822924
0.0823087
0.0822977
0.0822651
0.0822081
0.0821195
0.0820061
0.0818899
0.0817857
0.0817
0.0816313
0.0815762
0.0815318
0.0814961
0.0814683
0.0814475
0.0814329
0.0814235
0.0814181
0.0814154
0.0814145
0.0817978
0.0818004
0.081808
0.0818239
0.0818527
0.0818992
0.0819672
0.0820569
0.0821608
0.0822636
0.082347
0.0823991
0.0824197
0.0824165
0.0823936
0.082345
0.082258
0.0821349
0.0819976
0.0818653
0.0817504
0.081658
0.0815863
0.0815327
0.081494
0.0814675
0.0814509
0.0814417
0.081438
0.0814375
0.0814385
0.0814395
0.0818643
0.0818674
0.0818764
0.0818955
0.0819296
0.0819841
0.0820625
0.0821631
0.0822762
0.0823848
0.082472
0.08253
0.0825627
0.0825786
0.0825802
0.0825589
0.0824987
0.0823939
0.0822596
0.0821139
0.0819727
0.0818472
0.0817428
0.0816618
0.0816038
0.0815675
0.0815492
0.0815439
0.0815466
0.0815527
0.0815588
0.0815625
0.0819489
0.0819526
0.0819636
0.0819867
0.0820275
0.0820913
0.0821804
0.0822909
0.0824112
0.0825244
0.0826173
0.082687
0.0827404
0.0827857
0.0828243
0.0828505
0.0828504
0.082811
0.0827348
0.0826316
0.0825127
0.0823887
0.0822695
0.082162
0.0820719
0.082004
0.0819595
0.0819355
0.081927
0.081928
0.0819325
0.081936
0.0820396
0.0820438
0.0820559
0.0820812
0.0821253
0.0821931
0.0822863
0.0824002
0.0825242
0.0826437
0.082748
0.0828349
0.0829101
0.0829807
0.0830499
0.0831187
0.0831828
0.0832315
0.0832567
0.0832572
0.0832334
0.0831877
0.0831238
0.0830471
0.0829644
0.0828829
0.0828099
0.0827511
0.0827097
0.0826853
0.082674
0.0826707
0.0821146
0.0821187
0.0821305
0.0821549
0.0821971
0.082262
0.0823511
0.0824611
0.0825829
0.0827038
0.0828126
0.0829046
0.0829818
0.0830489
0.0831102
0.0831717
0.0832403
0.083319
0.0834009
0.0834782
0.0835445
0.0835946
0.083625
0.0836339
0.0836218
0.0835916
0.0835495
0.0835037
0.0834621
0.0834306
0.0834116
0.0834036
0.0821628
0.0821667
0.0821776
0.0821996
0.0822375
0.0822957
0.0823763
0.0824772
0.0825909
0.0827063
0.0828116
0.082899
0.0829663
0.0830151
0.0830485
0.0830738
0.0831053
0.0831604
0.0832386
0.0833307
0.0834273
0.0835204
0.0836032
0.0836709
0.0837204
0.0837506
0.0837631
0.0837616
0.0837516
0.0837391
0.0837292
0.0837241
0.0821888
0.0821925
0.0822025
0.082222
0.0822552
0.0823059
0.0823766
0.0824662
0.0825691
0.0826754
0.082774
0.0828552
0.0829139
0.0829491
0.082963
0.082963
0.0829669
0.0829996
0.0830664
0.08316
0.083271
0.0833886
0.0835027
0.0836041
0.0836869
0.0837484
0.083789
0.0838118
0.0838213
0.0838228
0.083821
0.0838192
0.082199
0.0822027
0.0822119
0.0822293
0.0822581
0.0823018
0.0823626
0.0824404
0.082531
0.0826264
0.0827163
0.0827911
0.0828441
0.0828727
0.0828785
0.0828688
0.0828628
0.0828853
0.082943
0.083032
0.0831457
0.0832754
0.0834104
0.0835389
0.0836505
0.0837385
0.0838008
0.0838397
0.0838601
0.0838681
0.0838696
0.083869
0.0821981
0.0822017
0.0822103
0.082226
0.0822512
0.0822887
0.0823405
0.0824067
0.0824846
0.0825676
0.0826474
0.0827151
0.0827641
0.0827914
0.0827983
0.0827922
0.0827916
0.0828167
0.0828725
0.0829574
0.0830678
0.0831981
0.0833403
0.083483
0.0836144
0.0837243
0.0838069
0.0838618
0.083893
0.0839071
0.0839111
0.0839111
0.0821911
0.0821944
0.0822021
0.082216
0.082238
0.0822701
0.0823139
0.0823696
0.082435
0.0825054
0.0825744
0.082635
0.0826818
0.0827124
0.0827282
0.0827365
0.0827522
0.0827889
0.0828491
0.0829327
0.0830385
0.0831637
0.0833032
0.0834487
0.0835892
0.0837131
0.0838115
0.0838807
0.0839225
0.0839429
0.0839497
0.0839503
0.0821862
0.0821885
0.0821944
0.0822055
0.0822235
0.0822502
0.0822866
0.0823328
0.0823871
0.0824464
0.0825063
0.0825623
0.0826107
0.08265
0.0826816
0.0827115
0.0827497
0.0828019
0.082869
0.0829523
0.0830527
0.0831697
0.0833008
0.0834403
0.0835799
0.083709
0.0838172
0.0838976
0.083949
0.0839758
0.0839856
0.083987
0.0821957
0.0821961
0.0821982
0.0822041
0.0822161
0.0822361
0.0822651
0.0823032
0.0823494
0.0824016
0.0824575
0.0825145
0.0825703
0.0826237
0.0826756
0.08273
0.0827907
0.0828574
0.0829301
0.0830118
0.0831049
0.083211
0.0833297
0.0834578
0.0835891
0.0837153
0.0838265
0.0839139
0.083973
0.0840057
0.0840187
0.0840209
0.0822342
0.0822313
0.0822275
0.0822256
0.0822291
0.082241
0.0822631
0.0822956
0.0823383
0.08239
0.0824492
0.082514
0.0825824
0.0826528
0.0827247
0.0828003
0.0828786
0.0829546
0.0830291
0.0831064
0.0831901
0.083283
0.0833863
0.0834987
0.0836167
0.0837338
0.0838416
0.083931
0.0839951
0.0840328
0.0840489
0.0840521
0.0823143
0.0823074
0.0822965
0.0822859
0.0822807
0.0822854
0.082303
0.0823345
0.0823796
0.0824372
0.0825053
0.0825816
0.0826632
0.0827479
0.0828344
0.0829231
0.0830102
0.0830887
0.0831601
0.08323
0.0833024
0.0833807
0.0834668
0.083561
0.0836618
0.0837651
0.0838641
0.0839504
0.0840161
0.0840573
0.0840762
0.0840806
0.0824441
0.0824331
0.0824165
0.0824006
0.0823914
0.0823941
0.0824125
0.0824479
0.0824995
0.0825652
0.0826421
0.082727
0.0828164
0.0829077
0.082999
0.0830904
0.0831766
0.0832507
0.0833148
0.0833747
0.0834346
0.0834978
0.0835664
0.0836417
0.0837233
0.0838093
0.0838951
0.0839737
0.0840371
0.0840796
0.0841007
0.0841061
0.0826268
0.082613
0.082596
0.0825833
0.0825792
0.0825877
0.0826121
0.0826533
0.0827099
0.0827795
0.0828586
0.0829437
0.0830312
0.0831187
0.0832046
0.0832885
0.0833656
0.0834298
0.0834833
0.0835318
0.0835789
0.0836274
0.0836795
0.0837364
0.0837986
0.0838657
0.0839352
0.0840021
0.0840594
0.0841003
0.0841224
0.0841289
0.0828634
0.0828504
0.082842
0.0828427
0.0828521
0.0828712
0.082902
0.0829453
0.0830003
0.083065
0.0831363
0.0832113
0.0832869
0.0833613
0.0834331
0.0835021
0.0835643
0.083615
0.0836564
0.0836929
0.0837276
0.0837626
0.0837997
0.08384
0.0838843
0.0839327
0.0839844
0.0840366
0.0840841
0.0841205
0.0841417
0.0841488
0.0831574
0.0831515
0.0831605
0.0831785
0.0832009
0.0832269
0.0832583
0.0832963
0.0833412
0.083392
0.0834468
0.0835034
0.0835599
0.0836148
0.0836672
0.083717
0.0837614
0.0837971
0.0838258
0.0838507
0.0838739
0.083897
0.0839211
0.0839471
0.0839757
0.0840071
0.0840415
0.0840776
0.0841123
0.0841409
0.0841592
0.0841661
0.0835186
0.0835265
0.0835495
0.0835739
0.0835973
0.0836198
0.083643
0.0836684
0.0836968
0.083728
0.0837614
0.0837955
0.0838293
0.083862
0.083893
0.0839222
0.0839481
0.0839688
0.0839852
0.0839994
0.0840124
0.0840252
0.0840384
0.0840525
0.084068
0.0840851
0.0841039
0.0841242
0.0841447
0.0841628
0.0841754
0.0841808
0.0839608
0.0839674
0.0839798
0.0839911
0.084001
0.0840098
0.0840183
0.0840271
0.0840367
0.0840471
0.084058
0.0840692
0.0840803
0.0840909
0.084101
0.0841105
0.0841188
0.0841255
0.0841308
0.0841353
0.0841394
0.0841434
0.0841476
0.084152
0.0841568
0.084162
0.0841679
0.0841742
0.0841807
0.0841868
0.0841913
0.0841935
)
;

boundaryField
{
    movingWall
    {
        type            fixedValue;
        value           uniform 0.0842;
    }
    fixedWalls
    {
        type            zeroGradient;
    }
    floor
    {
        type            zeroGradient;
    }
    frontAndBack
    {
        type            empty;
    }
}


// ************************************************************************* //
