/*--------------------------------*- C++ -*----------------------------------*\
| =========                 |                                                 |
| \\      /  F ield         | OpenFOAM: The Open Source CFD Toolbox           |
|  \\    /   O peration     | Version:  2212                                  |
|   \\  /    A nd           | Website:  www.openfoam.com                      |
|    \\/     M anipulation  |                                                 |
\*---------------------------------------------------------------------------*/
FoamFile
{
    version     2.0;
    format      ascii;
    arch        "LSB;label=64;scalar=64";
    class       volScalarField::Internal;
    location    "940";
    object      dGch4;
}
// * * * * * * * * * * * * * * * * * * * * * * * * * * * * * * * * * * * * * //

dimensions      [1 -3 -1 0 0 0 0];

value           nonuniform List<scalar> 
1024
(
0.000915451
0.000915577
0.00091588
0.000916428
0.00091729
0.000918524
0.000920158
0.000922167
0.00092448
0.00092699
0.000929582
0.000932116
0.000934357
0.000935885
0.000936094
0.000934619
0.000931584
0.000927833
0.000924055
0.000920449
0.000917086
0.000913981
0.000911149
0.00090862
0.000906437
0.000904639
0.000903239
0.000902214
0.000901515
0.000901078
0.000900839
0.000900741
0.000915468
0.000915595
0.000915905
0.000916466
0.000917348
0.00091861
0.000920272
0.000922309
0.000924646
0.000927176
0.000929793
0.000932356
0.000934634
0.000936193
0.000936404
0.00093491
0.000931848
0.000928073
0.000924274
0.000920651
0.000917272
0.000914153
0.000911304
0.000908757
0.000906552
0.00090473
0.000903307
0.000902264
0.000901551
0.000901105
0.00090086
0.00090076
0.000915502
0.000915634
0.000915958
0.000916544
0.000917464
0.000918774
0.000920491
0.000922579
0.000924964
0.000927545
0.000930229
0.000932888
0.000935285
0.000936941
0.000937159
0.000935599
0.000932451
0.000928602
0.000924746
0.000921077
0.000917662
0.000914511
0.00091163
0.000909045
0.000906795
0.000904925
0.000903455
0.000902372
0.00090163
0.000901165
0.000900909
0.000900805
0.000915553
0.000915692
0.000916034
0.000916653
0.000917623
0.000918995
0.00092078
0.000922938
0.000925398
0.000928075
0.0009309
0.000933767
0.000936424
0.00093829
0.000938528
0.000936823
0.000933483
0.000929472
0.000925496
0.00092174
0.000918259
0.000915055
0.000912124
0.000909483
0.000907167
0.000905226
0.000903687
0.000902544
0.000901758
0.000901264
0.000900994
0.000900884
0.000915612
0.000915759
0.00091612
0.000916772
0.000917791
0.000919226
0.000921084
0.000923325
0.00092589
0.000928725
0.000931801
0.000935044
0.000938166
0.000940409
0.000940697
0.000938738
0.000935044
0.000930734
0.00092654
0.00092263
0.000919041
0.000915757
0.000912759
0.000910046
0.000907649
0.00090562
0.000903995
0.000902778
0.000901936
0.000901406
0.000901116
0.000900998
0.000915665
0.000915817
0.000916192
0.000916868
0.000917922
0.000919406
0.000921327
0.000923657
0.000926362
0.000929436
0.000932908
0.000936746
0.000940601
0.000943441
0.000943844
0.000941509
0.000937244
0.000932436
0.000927881
0.000923719
0.00091996
0.00091656
0.000913473
0.000910679
0.000908195
0.000906071
0.000904353
0.000903056
0.000902153
0.000901583
0.000901272
0.000901146
0.000915684
0.000915839
0.000916216
0.000916897
0.00091796
0.000919461
0.000921422
0.000923838
0.000926719
0.000930124
0.000934164
0.000938858
0.000943766
0.00094747
0.000948094
0.000945268
0.000940171
0.000934612
0.000929502
0.000924955
0.000920939
0.000917373
0.000914175
0.000911295
0.000908727
0.000906517
0.000904715
0.000903344
0.000902385
0.000901778
0.000901447
0.000901314
0.000915641
0.000915792
0.000916158
0.000916817
0.000917851
0.000919328
0.000921291
0.000923779
0.000926862
0.000930693
0.00093549
0.000941337
0.000947654
0.000952518
0.000953501
0.000950079
0.000943869
0.00093726
0.000931358
0.000926254
0.000921871
0.000918078
0.000914744
0.000911776
0.000909142
0.000906871
0.000905012
0.000903591
0.000902593
0.000901961
0.000901616
0.000901477
0.000915519
0.000915658
0.000915995
0.000916604
0.000917568
0.00091897
0.000920888
0.000923421
0.000926728
0.000931083
0.000936848
0.000944189
0.000952298
0.000958613
0.000960057
0.000955914
0.000948297
0.000940316
0.000933353
0.000927496
0.000922619
0.00091853
0.000915036
0.000911992
0.000909323
0.000907035
0.000905164
0.000903733
0.000902727
0.000902089
0.000901739
0.000901598
0.000915363
0.000915479
0.000915765
0.000916291
0.000917144
0.000918424
0.000920257
0.000922817
0.000926385
0.000931402
0.000938414
0.000947657
0.000957947
0.000965904
0.000967761
0.000962682
0.000953343
0.000943657
0.000935349
0.000928525
0.000923015
0.000918562
0.000914896
0.000911801
0.000909149
0.000906908
0.000905089
0.000903704
0.00090273
0.00090211
0.000901767
0.000901626
0.000915449
0.000915519
0.000915714
0.000916113
0.000916815
0.000917949
0.000919694
0.000922324
0.00092628
0.000932222
0.000940907
0.00095251
0.000965247
0.000974785
0.000976723
0.00097033
0.000958919
0.000947188
0.000937228
0.000929196
0.000922899
0.000918012
0.000914173
0.000911074
0.000908512
0.000906399
0.00090471
0.000903433
0.000902536
0.000901959
0.000901634
0.000901497
0.000916719
0.000916707
0.000916751
0.000916956
0.000917463
0.000918459
0.000920204
0.000923097
0.000927761
0.000935086
0.000945944
0.000960247
0.000975365
0.000985958
0.00098728
0.000979072
0.000965278
0.000951165
0.000939177
0.000929595
0.000922262
0.000916808
0.000912769
0.000909713
0.000907324
0.00090543
0.000903953
0.000902849
0.00090207
0.000901561
0.000901268
0.000901141
0.000921554
0.000921449
0.000921316
0.000921296
0.000921602
0.000922528
0.000924473
0.000927994
0.000933873
0.000943107
0.000956452
0.000973286
0.00098997
0.00100042
0.0010002
0.000989934
0.00097381
0.000957103
0.000942567
0.000930778
0.0009218
0.00091534
0.000910855
0.000907764
0.000905575
0.000903969
0.000902772
0.000901897
0.000901289
0.000900902
0.000900689
0.000900604
0.000933938
0.000933816
0.000933649
0.000933598
0.000933936
0.00093507
0.00093755
0.000942086
0.000949535
0.000960781
0.000976209
0.00099442
0.00101084
0.00101953
0.00101746
0.00100616
0.000988985
0.000970148
0.00095254
0.000937311
0.000925187
0.000916292
0.000910172
0.000906221
0.000903769
0.000902264
0.000901372
0.000900917
0.000900794
0.000900889
0.000901067
0.0009012
0.000956734
0.000956751
0.000956873
0.000957264
0.000958208
0.000960143
0.000963679
0.000969583
0.00097867
0.000991523
0.00100787
0.00102546
0.00103964
0.00104625
0.00104454
0.00103606
0.0010219
0.00100406
0.00098502
0.000966283
0.000949198
0.000935039
0.000923799
0.00091573
0.000910671
0.00090817
0.00090762
0.000908416
0.000909964
0.000911687
0.000913096
0.000913864
0.000986482
0.000986719
0.000987346
0.000988595
0.000990813
0.000994488
0.00100025
0.00100878
0.00102056
0.00103544
0.00105207
0.00106788
0.00108035
0.00108871
0.00109362
0.00109556
0.0010934
0.00108647
0.00107557
0.00106184
0.00104652
0.00103108
0.0010161
0.00100277
0.000991997
0.000984355
0.00097982
0.000978062
0.000978381
0.000979798
0.000981332
0.000982273
0.00101249
0.0010129
0.001014
0.00101617
0.00101989
0.00102574
0.00103425
0.00104574
0.00106013
0.0010768
0.00109463
0.00111242
0.00112946
0.00114592
0.00116249
0.00117967
0.00119608
0.00120914
0.00121789
0.00122255
0.0012233
0.00122043
0.00121432
0.0012056
0.00119499
0.00118349
0.00117213
0.00116212
0.00115444
0.00114949
0.00114698
0.00114614
0.00102757
0.00102802
0.00102924
0.00103169
0.00103591
0.00104252
0.00105205
0.00106477
0.00108052
0.00109867
0.00111827
0.00113844
0.00115873
0.00117927
0.00120048
0.00122278
0.00124516
0.00126563
0.00128394
0.00130038
0.0013146
0.00132601
0.00133399
0.00133803
0.0013379
0.00133384
0.0013267
0.00131786
0.00130902
0.00130178
0.00129708
0.001295
0.00103579
0.00103624
0.00103745
0.00103987
0.00104403
0.00105056
0.00105998
0.0010726
0.00108832
0.00110656
0.00112639
0.00114687
0.00116732
0.00118744
0.00120711
0.00122625
0.00124389
0.00125971
0.00127522
0.00129129
0.00130776
0.00132397
0.00133903
0.00135197
0.00136193
0.00136838
0.00137123
0.00137097
0.00136856
0.00136537
0.00136266
0.00136123
0.00104022
0.00104065
0.00104178
0.00104402
0.00104785
0.00105384
0.00106253
0.00107425
0.00108897
0.0011062
0.00112505
0.0011445
0.00116369
0.001182
0.00119895
0.00121418
0.00122695
0.00123814
0.00125038
0.00126503
0.00128219
0.00130121
0.00132084
0.00133951
0.00135572
0.00136841
0.00137717
0.00138223
0.00138431
0.00138442
0.00138372
0.00138313
0.00104263
0.00104301
0.00104402
0.00104598
0.00104934
0.00105461
0.00106229
0.00107271
0.00108591
0.00110147
0.00111864
0.00113645
0.00115398
0.00117052
0.00118553
0.00119866
0.0012094
0.00121904
0.00123006
0.00124395
0.00126121
0.00128161
0.00130411
0.001327
0.0013482
0.00136592
0.00137914
0.00138775
0.00139239
0.00139418
0.00139439
0.00139414
0.0010446
0.00104488
0.00104564
0.0010472
0.00104997
0.0010544
0.00106096
0.00106994
0.00108142
0.00109511
0.00111037
0.00112642
0.00114246
0.00115785
0.00117214
0.00118515
0.00119651
0.00120713
0.00121873
0.00123266
0.00124968
0.00126998
0.00129308
0.00131766
0.00134171
0.00136304
0.00137999
0.00139182
0.00139883
0.00140206
0.00140293
0.00140286
0.00104797
0.00104803
0.00104836
0.00104929
0.00105125
0.00105469
0.00106006
0.00106765
0.00107754
0.00108953
0.00110319
0.00111791
0.00113309
0.00114823
0.00116301
0.00117741
0.00119101
0.00120383
0.0012168
0.00123118
0.00124783
0.00126728
0.00128949
0.0013137
0.00133835
0.00136141
0.00138083
0.00139526
0.0014044
0.00140904
0.00141059
0.00141069
0.00105483
0.00105454
0.0010542
0.00105421
0.00105509
0.00105741
0.00106163
0.00106808
0.00107684
0.00108781
0.00110064
0.0011149
0.00113012
0.0011459
0.00116202
0.00117852
0.00119473
0.00120973
0.00122392
0.00123851
0.00125447
0.00127252
0.00129298
0.00131549
0.00133903
0.00136197
0.00138238
0.00139849
0.00140937
0.00141532
0.00141757
0.00141786
0.00106729
0.0010665
0.00106526
0.00106415
0.00106388
0.00106517
0.00106859
0.0010745
0.00108298
0.00109387
0.00110687
0.00112156
0.00113752
0.00115439
0.00117195
0.00119027
0.00120839
0.0012247
0.00123933
0.0012535
0.00126824
0.00128438
0.00130243
0.0013224
0.0013437
0.00136516
0.00138516
0.00140187
0.00141392
0.00142097
0.0014239
0.00142441
0.001087
0.0010856
0.00108342
0.00108136
0.00108035
0.00108123
0.00108466
0.00109096
0.00110007
0.00111173
0.00112552
0.00114101
0.00115774
0.00117536
0.00119365
0.00121269
0.00123133
0.00124767
0.00126174
0.00127477
0.00128779
0.00130162
0.00131685
0.00133372
0.00135202
0.00137102
0.00138948
0.00140575
0.00141823
0.00142607
0.00142963
0.00143038
0.00111499
0.00111298
0.00111021
0.00110796
0.00110729
0.00110894
0.00111345
0.00112095
0.00113119
0.00114377
0.00115819
0.00117397
0.0011907
0.00120804
0.0012258
0.00124406
0.00126167
0.00127675
0.00128938
0.00130069
0.00131163
0.00132294
0.0013352
0.00134875
0.00136362
0.00137948
0.00139553
0.00141041
0.00142254
0.00143072
0.00143476
0.00143576
0.00115185
0.00114944
0.00114696
0.00114593
0.00114706
0.00115067
0.00115694
0.00116576
0.00117676
0.0011895
0.00120355
0.00121848
0.00123394
0.00124968
0.00126554
0.00128161
0.00129687
0.00130973
0.00132028
0.0013295
0.0013382
0.00134698
0.00135634
0.00136663
0.001378
0.0013904
0.00140341
0.0014161
0.0014271
0.00143505
0.00143935
0.00144057
0.00119814
0.0011959
0.00119515
0.00119684
0.00120076
0.00120659
0.00121424
0.00122348
0.00123403
0.00124562
0.00125792
0.00127066
0.00128359
0.00129653
0.0013094
0.00132226
0.00133433
0.00134439
0.00135252
0.00135951
0.00136596
0.00137235
0.00137906
0.00138637
0.00139447
0.00140342
0.00141311
0.00142302
0.00143216
0.00143926
0.00144344
0.00144481
0.00125498
0.00125404
0.00125641
0.00126113
0.00126712
0.00127391
0.00128141
0.00128951
0.00129814
0.0013072
0.00131656
0.00132605
0.00133554
0.00134492
0.00135415
0.00136329
0.00137178
0.00137881
0.00138444
0.00138922
0.00139357
0.0013978
0.00140218
0.00140691
0.00141214
0.00141796
0.00142439
0.00143124
0.00143794
0.00144354
0.00144716
0.00144852
0.00132461
0.00132621
0.00133098
0.00133638
0.00134186
0.00134729
0.00135271
0.00135814
0.00136366
0.00136929
0.00137498
0.00138068
0.00138632
0.00139186
0.00139727
0.00140258
0.0014075
0.00141155
0.00141478
0.00141749
0.00141994
0.00142229
0.0014247
0.00142728
0.00143011
0.00143326
0.00143679
0.00144064
0.00144458
0.00144813
0.00145065
0.00145173
0.00140984
0.00141114
0.00141362
0.001416
0.00141821
0.00142027
0.00142224
0.00142413
0.00142601
0.00142789
0.00142977
0.00143164
0.00143348
0.00143528
0.00143703
0.00143875
0.00144033
0.00144163
0.00144267
0.00144353
0.00144431
0.00144505
0.00144581
0.00144661
0.00144748
0.00144846
0.00144955
0.00145075
0.001452
0.00145319
0.0014541
0.00145455
)
;


// ************************************************************************* //
