/*--------------------------------*- C++ -*----------------------------------*\
| =========                 |                                                 |
| \\      /  F ield         | OpenFOAM: The Open Source CFD Toolbox           |
|  \\    /   O peration     | Version:  2212                                  |
|   \\  /    A nd           | Website:  www.openfoam.com                      |
|    \\/     M anipulation  |                                                 |
\*---------------------------------------------------------------------------*/
FoamFile
{
    version     2.0;
    format      ascii;
    arch        "LSB;label=64;scalar=64";
    class       volScalarField;
    location    "940";
    object      p_rgh;
}
// * * * * * * * * * * * * * * * * * * * * * * * * * * * * * * * * * * * * * //

dimensions      [0 2 -2 0 0 0 0];

internalField   nonuniform List<scalar> 
1024
(
0.0431949
0.0431919
0.0431883
0.043186
0.0431861
0.0431893
0.0431968
0.0432113
0.0432377
0.0432826
0.0433527
0.0434474
0.0435436
0.0436028
0.0435884
0.0435163
0.0434139
0.0433254
0.0432611
0.0432177
0.0431893
0.0431714
0.0431606
0.0431544
0.0431507
0.0431483
0.0431467
0.043146
0.0431465
0.0431482
0.0431503
0.0431519
0.0432009
0.0431979
0.0431949
0.0431935
0.0431943
0.0431979
0.0432055
0.04322
0.0432463
0.0432909
0.0433608
0.043455
0.0435509
0.0436098
0.0435958
0.0435241
0.0434216
0.0433328
0.0432682
0.0432246
0.043196
0.0431778
0.0431668
0.0431604
0.0431565
0.0431539
0.0431521
0.0431512
0.0431513
0.0431524
0.0431542
0.0431558
0.0432117
0.0432081
0.0432055
0.0432054
0.0432076
0.0432124
0.0432209
0.0432361
0.043263
0.0433083
0.0433792
0.0434746
0.0435711
0.0436304
0.0436166
0.0435442
0.0434405
0.0433505
0.0432848
0.0432402
0.0432108
0.0431919
0.0431802
0.0431731
0.0431685
0.0431652
0.0431626
0.0431607
0.0431598
0.0431602
0.0431619
0.0431639
0.0432244
0.04322
0.0432178
0.0432195
0.0432242
0.0432313
0.0432419
0.0432589
0.0432875
0.0433347
0.0434081
0.0435058
0.0436039
0.0436641
0.0436516
0.0435783
0.0434732
0.0433813
0.0433135
0.0432672
0.0432362
0.0432158
0.0432026
0.0431941
0.0431881
0.0431832
0.0431787
0.0431748
0.0431722
0.0431715
0.0431731
0.0431757
0.0432334
0.0432288
0.0432277
0.0432321
0.0432405
0.0432516
0.0432657
0.0432859
0.0433173
0.043367
0.0434428
0.0435422
0.0436412
0.0437027
0.0436948
0.0436234
0.0435188
0.043426
0.0433561
0.0433075
0.0432741
0.0432514
0.0432359
0.043225
0.0432165
0.0432087
0.043201
0.0431936
0.043188
0.0431854
0.0431866
0.0431898
0.0432308
0.0432269
0.0432279
0.0432363
0.0432501
0.0432672
0.0432869
0.0433116
0.0433462
0.0433977
0.0434732
0.0435719
0.0436707
0.0437346
0.0437352
0.0436706
0.0435715
0.0434811
0.0434111
0.0433609
0.0433251
0.0432994
0.0432806
0.0432661
0.0432536
0.0432412
0.0432281
0.0432153
0.0432048
0.043199
0.0431991
0.0432025
0.0432091
0.0432068
0.0432108
0.0432242
0.0432451
0.0432702
0.0432973
0.0433274
0.0433647
0.0434159
0.0434877
0.0435843
0.0436836
0.0437516
0.0437623
0.0437088
0.0436207
0.0435379
0.0434724
0.0434231
0.043386
0.0433574
0.0433347
0.0433153
0.0432969
0.0432775
0.0432565
0.0432354
0.0432177
0.043207
0.0432047
0.0432078
0.0431655
0.0431651
0.0431722
0.0431906
0.0432193
0.0432537
0.0432894
0.0433251
0.0433636
0.0434119
0.0434793
0.043576
0.0436797
0.0437533
0.0437721
0.0437302
0.0436561
0.0435854
0.0435296
0.0434854
0.0434498
0.0434196
0.0433929
0.0433675
0.0433411
0.0433118
0.0432794
0.0432467
0.0432191
0.0432015
0.0431958
0.0431979
0.0431053
0.0431068
0.0431159
0.0431377
0.0431724
0.0432154
0.0432595
0.0433005
0.0433391
0.0433836
0.0434501
0.0435539
0.0436667
0.0437456
0.0437683
0.0437343
0.0436726
0.0436151
0.0435718
0.0435371
0.0435066
0.0434772
0.0434472
0.043415
0.0433784
0.043336
0.0432884
0.0432407
0.0432005
0.0431746
0.0431647
0.0431651
0.0430433
0.043046
0.0430556
0.0430772
0.0431135
0.0431612
0.0432111
0.043256
0.0432951
0.0433386
0.0434128
0.0435335
0.0436557
0.0437383
0.0437588
0.043726
0.0436715
0.0436248
0.0435936
0.0435705
0.0435478
0.0435213
0.043489
0.0434494
0.0434005
0.0433415
0.0432753
0.0432097
0.0431556
0.0431213
0.0431071
0.0431056
0.0430003
0.0430034
0.043012
0.0430311
0.0430639
0.0431081
0.0431567
0.0432022
0.0432433
0.0432964
0.0433937
0.043531
0.0436634
0.0437433
0.0437531
0.0437127
0.0436577
0.0436162
0.0435946
0.0435825
0.0435682
0.0435453
0.0435108
0.0434626
0.043399
0.0433208
0.0432337
0.0431499
0.0430837
0.043043
0.0430257
0.0430225
0.042998
0.0429998
0.0430051
0.0430187
0.0430444
0.0430812
0.0431242
0.0431675
0.0432143
0.0432908
0.0434206
0.0435782
0.0437103
0.0437732
0.0437595
0.043701
0.0436356
0.0435916
0.0435751
0.0435726
0.0435648
0.0435438
0.0435051
0.0434459
0.0433651
0.0432669
0.0431614
0.043065
0.042993
0.042951
0.0429332
0.0429287
0.0430706
0.0430684
0.0430661
0.0430692
0.0430832
0.04311
0.0431478
0.0431954
0.0432625
0.0433819
0.0435437
0.0437048
0.0438118
0.0438349
0.0437812
0.0436936
0.0436079
0.04355
0.0435286
0.0435323
0.0435261
0.0435026
0.0434571
0.0433851
0.0432866
0.0431765
0.0430677
0.0429756
0.0429104
0.042873
0.0428565
0.0428513
0.0432975
0.0432888
0.043274
0.0432604
0.0432573
0.0432722
0.04331
0.0433775
0.0434905
0.0436436
0.0437975
0.0439167
0.0439596
0.0439165
0.0438101
0.0436892
0.043578
0.0434928
0.0434435
0.0434257
0.043412
0.0433862
0.043341
0.0432736
0.0431868
0.0430912
0.0429994
0.042924
0.0428721
0.0428429
0.0428296
0.0428247
0.0437965
0.0437851
0.0437642
0.0437406
0.0437259
0.0437337
0.0437762
0.04386
0.0439718
0.0440627
0.044125
0.0441469
0.0440927
0.0439754
0.0438414
0.0437041
0.0435726
0.0434562
0.0433624
0.0432946
0.0432602
0.0432463
0.0432238
0.0431847
0.0431287
0.0430635
0.0429992
0.0429469
0.0429128
0.0428956
0.0428893
0.0428873
0.0443866
0.0443824
0.0443748
0.0443659
0.0443604
0.0443644
0.0443805
0.0443992
0.0443992
0.044379
0.0443352
0.0442664
0.0441778
0.0440757
0.0439667
0.0438606
0.0437754
0.0437036
0.0436457
0.0435998
0.0435598
0.0435134
0.0434641
0.0434063
0.0433418
0.0432882
0.0432418
0.0432063
0.0431892
0.0431891
0.0431973
0.043204
0.0446704
0.0446658
0.0446588
0.0446509
0.0446439
0.0446393
0.0446382
0.0446394
0.0446408
0.04464
0.0446345
0.0446209
0.0445961
0.0445594
0.0445119
0.0444595
0.0444179
0.0444192
0.0444523
0.0445126
0.0445931
0.0446806
0.0447559
0.044796
0.0447801
0.0446936
0.0445606
0.0444134
0.0442826
0.0441944
0.0441567
0.0441491
0.0447125
0.0447079
0.044702
0.0446973
0.0446962
0.0447
0.0447094
0.0447235
0.04474
0.0447578
0.0447736
0.0447844
0.044787
0.0447787
0.0447583
0.0447297
0.0447072
0.0446955
0.0447118
0.0447572
0.0448284
0.0449187
0.0450171
0.0451097
0.0451837
0.0452296
0.0452438
0.0452287
0.0451913
0.0451423
0.0450951
0.0450689
0.0446836
0.0446801
0.044676
0.0446738
0.0446765
0.0446864
0.0447042
0.0447293
0.0447594
0.0447922
0.044824
0.0448508
0.0448687
0.0448735
0.044862
0.0448352
0.044806
0.0447814
0.0447706
0.0447784
0.0448058
0.0448531
0.0449177
0.0449923
0.0450666
0.0451298
0.0451738
0.0451964
0.0452008
0.0451932
0.0451802
0.0451693
0.0446453
0.0446429
0.0446401
0.0446393
0.0446439
0.044657
0.0446802
0.0447128
0.0447527
0.0447965
0.0448395
0.0448773
0.0449054
0.0449192
0.0449161
0.0448972
0.0448764
0.0448615
0.0448374
0.0448181
0.0448076
0.04481
0.0448303
0.0448691
0.0449213
0.0449773
0.0450259
0.045059
0.0450746
0.0450759
0.0450688
0.04506
0.0446185
0.0446169
0.0446149
0.0446148
0.0446201
0.0446346
0.0446605
0.0446977
0.0447437
0.0447942
0.044844
0.044888
0.0449212
0.0449398
0.0449419
0.0449305
0.0449186
0.0449206
0.0449025
0.0448781
0.0448536
0.0448311
0.0448175
0.0448218
0.0448461
0.044886
0.0449306
0.0449675
0.0449891
0.0449949
0.044989
0.0449793
0.0446066
0.0446055
0.0446038
0.0446041
0.04461
0.0446253
0.0446528
0.0446923
0.0447419
0.0447959
0.0448485
0.0448937
0.0449265
0.0449436
0.0449439
0.0449308
0.0449148
0.0449138
0.0449136
0.0449067
0.0448948
0.0448784
0.0448534
0.0448404
0.0448453
0.0448711
0.0449113
0.0449515
0.0449794
0.04499
0.0449855
0.0449749
0.0446049
0.0446039
0.0446025
0.0446034
0.0446106
0.0446278
0.0446574
0.0446992
0.0447503
0.0448042
0.0448544
0.0448951
0.0449214
0.0449307
0.0449227
0.0449013
0.0448759
0.0448688
0.0448769
0.0448859
0.0448932
0.0448972
0.0448962
0.0448976
0.0449029
0.0449247
0.0449665
0.0450149
0.0450534
0.0450718
0.0450702
0.0450591
0.0446089
0.0446073
0.0446062
0.0446083
0.0446179
0.0446385
0.0446719
0.0447162
0.0447673
0.0448178
0.0448612
0.0448921
0.0449068
0.0449033
0.0448822
0.0448483
0.0448125
0.0447994
0.0448099
0.0448307
0.0448566
0.0448853
0.0449156
0.0449496
0.0449877
0.0450351
0.045089
0.045154
0.045212
0.0452449
0.0452492
0.0452392
0.0446134
0.0446111
0.0446103
0.0446149
0.0446291
0.0446554
0.044694
0.0447411
0.0447905
0.0448344
0.044867
0.044884
0.044883
0.0448632
0.044826
0.0447775
0.0447315
0.0447127
0.0447227
0.044753
0.0447955
0.0448489
0.0449127
0.0449881
0.0450746
0.0451702
0.0452678
0.0453647
0.0454539
0.0455135
0.0455305
0.0455253
0.0446146
0.0446111
0.0446113
0.0446208
0.0446425
0.0446764
0.0447215
0.0447709
0.0448164
0.0448507
0.0448692
0.0448693
0.04485
0.0448117
0.044757
0.0446935
0.0446378
0.0446145
0.0446248
0.044662
0.0447188
0.0447953
0.0448925
0.0450125
0.0451543
0.045313
0.0454779
0.0456353
0.0457739
0.0458794
0.0459237
0.0459314
0.0446064
0.0446021
0.0446057
0.044624
0.044657
0.0447004
0.0447516
0.0448017
0.0448406
0.0448624
0.0448645
0.0448459
0.0448071
0.0447498
0.0446779
0.0446004
0.0445368
0.0445104
0.0445221
0.0445653
0.0446348
0.0447322
0.0448605
0.0450237
0.0452221
0.0454506
0.0456963
0.0459397
0.0461586
0.0463367
0.0464355
0.0464722
0.0445755
0.0445745
0.0445876
0.0446216
0.0446706
0.0447251
0.044781
0.0448285
0.0448578
0.0448651
0.0448497
0.0448123
0.0447548
0.0446801
0.0445932
0.0445044
0.0444354
0.044408
0.044422
0.0444712
0.0445522
0.0446674
0.0448225
0.0450234
0.0452734
0.0455697
0.0459011
0.0462472
0.0465799
0.0468661
0.0470618
0.0471577
0.0444976
0.0445118
0.0445503
0.0446122
0.0446822
0.0447483
0.0448061
0.0448475
0.0448648
0.0448569
0.0448248
0.0447707
0.0446974
0.0446087
0.0445105
0.0444143
0.044343
0.0443163
0.0443335
0.0443887
0.0444792
0.0446084
0.044784
0.0450143
0.0453053
0.0456586
0.0460687
0.046522
0.046994
0.047443
0.0477925
0.048018
0.0443172
0.0443932
0.0444982
0.0446042
0.0446961
0.0447719
0.0448272
0.0448591
0.0448637
0.0448418
0.0447957
0.0447285
0.0446437
0.0445454
0.0444403
0.0443403
0.0442687
0.0442437
0.0442642
0.0443244
0.0444218
0.0445606
0.0447497
0.0449992
0.0453174
0.0457103
0.0461803
0.0467271
0.0473459
0.0480109
0.0486385
0.0491878
0.0438304
0.0442232
0.0444705
0.0446246
0.0447284
0.0448037
0.044851
0.0448711
0.0448636
0.0448299
0.0447733
0.044697
0.0446048
0.0445008
0.0443919
0.0442904
0.0442193
0.044196
0.0442188
0.0442821
0.0443833
0.0445269
0.0447227
0.0449814
0.0453128
0.0457256
0.0462291
0.0468377
0.0475765
0.0484824
0.049587
0.0508438
0.0428121
0.0440506
0.0445211
0.0446753
0.044772
0.0448404
0.0448775
0.0448871
0.0448702
0.0448286
0.0447653
0.0446837
0.0445873
0.0444804
0.0443697
0.0442674
0.0441965
0.0441739
0.0441977
0.0442621
0.0443644
0.0445093
0.0447067
0.0449675
0.0453018
0.0457196
0.046234
0.0468709
0.0476844
0.0487841
0.0503902
0.0526513
)
;

boundaryField
{
    movingWall
    {
        type            fixedFluxPressure;
        gradient        uniform 0;
        value           nonuniform List<scalar> 
32
(
0.0428121
0.0440506
0.0445211
0.0446753
0.044772
0.0448404
0.0448775
0.0448871
0.0448702
0.0448286
0.0447653
0.0446837
0.0445873
0.0444804
0.0443697
0.0442674
0.0441965
0.0441739
0.0441977
0.0442621
0.0443644
0.0445093
0.0447067
0.0449675
0.0453018
0.0457196
0.046234
0.0468709
0.0476844
0.0487841
0.0503902
0.0526513
)
;
    }
    fixedWalls
    {
        type            fixedFluxPressure;
        gradient        uniform 0;
        value           nonuniform List<scalar> 
64
(
0.0431949
0.0432009
0.0432117
0.0432244
0.0432334
0.0432308
0.0432091
0.0431655
0.0431053
0.0430433
0.0430003
0.042998
0.0430706
0.0432975
0.0437965
0.0443866
0.0446704
0.0447125
0.0446836
0.0446453
0.0446185
0.0446066
0.0446049
0.0446089
0.0446134
0.0446146
0.0446064
0.0445755
0.0444976
0.0443172
0.0438304
0.0428121
0.0431519
0.0431558
0.0431639
0.0431757
0.0431898
0.0432025
0.0432078
0.0431979
0.0431651
0.0431056
0.0430225
0.0429287
0.0428513
0.0428247
0.0428873
0.043204
0.0441491
0.0450689
0.0451693
0.04506
0.0449793
0.0449749
0.0450591
0.0452392
0.0455253
0.0459314
0.0464722
0.0471577
0.048018
0.0491878
0.0508438
0.0526513
)
;
    }
    floor
    {
        type            fixedFluxPressure;
        gradient        uniform 0;
        value           nonuniform List<scalar> 
32
(
0.0431949
0.0431919
0.0431883
0.043186
0.0431861
0.0431893
0.0431968
0.0432113
0.0432377
0.0432826
0.0433527
0.0434474
0.0435436
0.0436028
0.0435884
0.0435163
0.0434139
0.0433254
0.0432611
0.0432177
0.0431893
0.0431714
0.0431606
0.0431544
0.0431507
0.0431483
0.0431467
0.043146
0.0431465
0.0431482
0.0431503
0.0431519
)
;
    }
    frontAndBack
    {
        type            empty;
    }
}


// ************************************************************************* //
