/*--------------------------------*- C++ -*----------------------------------*\
| =========                 |                                                 |
| \\      /  F ield         | OpenFOAM: The Open Source CFD Toolbox           |
|  \\    /   O peration     | Version:  2212                                  |
|   \\  /    A nd           | Website:  www.openfoam.com                      |
|    \\/     M anipulation  |                                                 |
\*---------------------------------------------------------------------------*/
FoamFile
{
    version     2.0;
    format      ascii;
    arch        "LSB;label=64;scalar=64";
    class       volScalarField;
    location    "940";
    object      Saa;
}
// * * * * * * * * * * * * * * * * * * * * * * * * * * * * * * * * * * * * * //

dimensions      [1 -3 0 0 0 0 0];

internalField   nonuniform List<scalar> 
1024
(
0.0054644
0.00546442
0.00546446
0.00546451
0.00546459
0.0054647
0.00546485
0.00546502
0.00546523
0.00546544
0.00546567
0.00546588
0.00546605
0.00546615
0.00546612
0.00546591
0.00546555
0.00546513
0.00546472
0.00546434
0.00546399
0.00546367
0.00546339
0.00546314
0.00546293
0.00546276
0.00546262
0.00546252
0.00546246
0.00546242
0.00546239
0.00546238
0.00546441
0.00546443
0.00546446
0.00546451
0.00546459
0.00546471
0.00546486
0.00546504
0.00546524
0.00546546
0.00546569
0.0054659
0.00546608
0.00546618
0.00546615
0.00546594
0.00546558
0.00546516
0.00546474
0.00546436
0.00546401
0.00546369
0.0054634
0.00546315
0.00546294
0.00546276
0.00546263
0.00546253
0.00546246
0.00546242
0.0054624
0.00546239
0.00546442
0.00546444
0.00546447
0.00546452
0.00546461
0.00546472
0.00546488
0.00546506
0.00546527
0.0054655
0.00546573
0.00546595
0.00546614
0.00546625
0.00546622
0.005466
0.00546563
0.0054652
0.00546479
0.0054644
0.00546404
0.00546372
0.00546344
0.00546318
0.00546296
0.00546278
0.00546264
0.00546254
0.00546247
0.00546242
0.0054624
0.00546239
0.00546443
0.00546445
0.00546448
0.00546453
0.00546462
0.00546474
0.0054649
0.0054651
0.00546531
0.00546555
0.00546579
0.00546604
0.00546625
0.00546638
0.00546634
0.00546611
0.00546573
0.00546528
0.00546486
0.00546446
0.0054641
0.00546377
0.00546348
0.00546322
0.005463
0.00546281
0.00546266
0.00546255
0.00546248
0.00546243
0.00546241
0.0054624
0.00546444
0.00546445
0.00546449
0.00546455
0.00546464
0.00546477
0.00546493
0.00546513
0.00546536
0.00546561
0.00546588
0.00546616
0.00546642
0.00546658
0.00546654
0.00546628
0.00546586
0.00546539
0.00546495
0.00546454
0.00546417
0.00546384
0.00546354
0.00546327
0.00546304
0.00546284
0.00546269
0.00546257
0.00546249
0.00546244
0.00546242
0.00546241
0.00546445
0.00546446
0.0054645
0.00546456
0.00546465
0.00546479
0.00546496
0.00546517
0.00546541
0.00546569
0.005466
0.00546633
0.00546665
0.00546686
0.00546682
0.00546653
0.00546605
0.00546554
0.00546506
0.00546463
0.00546425
0.0054639
0.0054636
0.00546333
0.00546309
0.00546288
0.00546272
0.0054626
0.00546251
0.00546246
0.00546243
0.00546242
0.00546446
0.00546447
0.0054645
0.00546457
0.00546466
0.0054648
0.00546498
0.0054652
0.00546546
0.00546577
0.00546613
0.00546654
0.00546695
0.00546723
0.00546721
0.00546685
0.0054663
0.00546571
0.00546519
0.00546472
0.00546432
0.00546397
0.00546365
0.00546338
0.00546313
0.00546292
0.00546275
0.00546262
0.00546253
0.00546248
0.00546244
0.00546243
0.00546446
0.00546447
0.0054645
0.00546456
0.00546466
0.00546479
0.00546497
0.0054652
0.00546549
0.00546584
0.00546627
0.00546678
0.00546732
0.00546769
0.00546769
0.00546727
0.0054666
0.00546592
0.00546532
0.00546482
0.00546438
0.00546401
0.00546369
0.00546341
0.00546316
0.00546295
0.00546277
0.00546264
0.00546255
0.00546249
0.00546246
0.00546244
0.00546445
0.00546447
0.0054645
0.00546455
0.00546464
0.00546477
0.00546495
0.00546518
0.00546549
0.00546589
0.00546641
0.00546706
0.00546776
0.00546824
0.00546826
0.00546776
0.00546695
0.00546615
0.00546546
0.00546489
0.00546442
0.00546403
0.0054637
0.00546341
0.00546316
0.00546295
0.00546278
0.00546265
0.00546256
0.0054625
0.00546246
0.00546245
0.00546445
0.00546446
0.00546448
0.00546453
0.00546461
0.00546473
0.0054649
0.00546514
0.00546548
0.00546594
0.00546658
0.0054674
0.00546827
0.00546889
0.00546892
0.00546831
0.00546734
0.00546638
0.00546558
0.00546492
0.0054644
0.00546399
0.00546365
0.00546337
0.00546313
0.00546293
0.00546276
0.00546264
0.00546255
0.00546249
0.00546246
0.00546245
0.00546447
0.00546448
0.00546449
0.00546453
0.0054646
0.0054647
0.00546487
0.00546512
0.00546549
0.00546604
0.00546683
0.00546785
0.00546893
0.00546966
0.00546966
0.00546892
0.00546775
0.00546661
0.00546566
0.00546492
0.00546434
0.00546389
0.00546355
0.00546328
0.00546305
0.00546286
0.00546272
0.0054626
0.00546252
0.00546247
0.00546244
0.00546243
0.00546462
0.00546461
0.00546462
0.00546463
0.00546468
0.00546477
0.00546494
0.00546521
0.00546564
0.00546632
0.0054673
0.00546855
0.00546981
0.0054706
0.00547052
0.00546959
0.0054682
0.00546686
0.00546574
0.00546487
0.00546422
0.00546373
0.00546338
0.00546312
0.00546292
0.00546276
0.00546263
0.00546254
0.00546247
0.00546242
0.00546239
0.00546238
0.0054651
0.00546509
0.00546508
0.00546507
0.0054651
0.00546518
0.00546536
0.00546569
0.00546623
0.00546707
0.00546826
0.00546971
0.00547107
0.0054718
0.00547155
0.00547041
0.00546882
0.00546726
0.00546594
0.00546489
0.00546411
0.00546355
0.00546318
0.00546292
0.00546274
0.00546261
0.00546251
0.00546243
0.00546238
0.00546235
0.00546233
0.00546232
0.0054663
0.00546629
0.00546627
0.00546626
0.00546629
0.00546639
0.00546661
0.00546702
0.00546769
0.00546868
0.00547002
0.00547154
0.00547282
0.00547335
0.00547291
0.00547167
0.00547
0.00546826
0.00546669
0.00546537
0.00546434
0.00546359
0.00546308
0.00546276
0.00546256
0.00546244
0.00546236
0.00546232
0.00546231
0.00546232
0.00546233
0.00546234
0.00546846
0.00546846
0.00546846
0.00546849
0.00546857
0.00546873
0.00546904
0.00546955
0.00547033
0.00547142
0.00547278
0.00547417
0.0054752
0.00547551
0.00547509
0.0054741
0.00547268
0.00547103
0.00546934
0.00546773
0.00546628
0.0054651
0.00546417
0.00546351
0.0054631
0.0054629
0.00546285
0.00546292
0.00546304
0.00546319
0.0054633
0.00546336
0.00547121
0.00547123
0.00547128
0.00547138
0.00547156
0.00547186
0.00547234
0.00547304
0.00547401
0.00547521
0.00547651
0.0054777
0.00547856
0.00547903
0.00547919
0.00547908
0.00547864
0.00547785
0.00547679
0.00547555
0.00547422
0.00547292
0.00547168
0.00547059
0.00546972
0.00546911
0.00546875
0.00546862
0.00546865
0.00546877
0.0054689
0.00546897
0.00547359
0.00547362
0.00547371
0.00547388
0.00547418
0.00547466
0.00547535
0.00547629
0.00547746
0.0054788
0.0054802
0.00548157
0.00548284
0.00548402
0.00548517
0.0054863
0.00548732
0.00548804
0.00548844
0.00548855
0.00548839
0.005488
0.0054874
0.00548664
0.00548578
0.00548488
0.005484
0.00548325
0.00548267
0.00548231
0.00548213
0.00548207
0.00547501
0.00547504
0.00547514
0.00547533
0.00547568
0.00547622
0.00547701
0.00547807
0.00547937
0.00548087
0.00548247
0.00548409
0.0054857
0.00548728
0.00548886
0.00549044
0.00549192
0.00549314
0.00549413
0.00549496
0.00549563
0.00549612
0.00549642
0.0054965
0.00549635
0.00549597
0.00549542
0.00549479
0.00549417
0.00549367
0.00549335
0.00549321
0.00547582
0.00547586
0.00547595
0.00547615
0.00547649
0.00547704
0.00547783
0.0054789
0.00548023
0.00548177
0.00548344
0.00548516
0.00548685
0.00548849
0.00549004
0.00549146
0.00549263
0.00549352
0.00549425
0.00549493
0.00549559
0.00549621
0.00549679
0.00549729
0.00549767
0.00549792
0.00549802
0.00549798
0.00549785
0.00549767
0.00549753
0.00549745
0.0054763
0.00547634
0.00547643
0.00547661
0.00547693
0.00547743
0.00547817
0.00547918
0.00548045
0.00548194
0.00548358
0.00548526
0.00548692
0.00548847
0.00548988
0.00549108
0.00549196
0.00549256
0.0054931
0.00549369
0.00549435
0.00549507
0.00549581
0.00549652
0.00549714
0.00549763
0.00549799
0.00549822
0.00549833
0.00549837
0.00549836
0.00549835
0.00547659
0.00547662
0.00547671
0.00547687
0.00547715
0.0054776
0.00547826
0.00547917
0.00548032
0.0054817
0.00548322
0.0054848
0.00548635
0.0054878
0.0054891
0.00549017
0.00549094
0.00549148
0.00549198
0.00549256
0.00549326
0.00549408
0.00549498
0.00549587
0.0054967
0.00549738
0.0054979
0.00549824
0.00549845
0.00549855
0.00549859
0.0054986
0.00547681
0.00547684
0.0054769
0.00547703
0.00547727
0.00547766
0.00547823
0.00547902
0.00548004
0.00548126
0.00548262
0.00548406
0.0054855
0.00548686
0.0054881
0.00548916
0.00548998
0.0054906
0.00549118
0.00549181
0.00549255
0.00549342
0.00549437
0.00549537
0.00549632
0.00549715
0.00549781
0.00549827
0.00549855
0.0054987
0.00549876
0.00549878
0.00547708
0.00547709
0.00547713
0.00547722
0.0054774
0.00547771
0.00547819
0.00547886
0.00547974
0.00548081
0.00548203
0.00548333
0.00548467
0.00548598
0.00548722
0.00548835
0.0054893
0.00549007
0.00549077
0.00549148
0.00549225
0.00549312
0.00549407
0.00549508
0.00549608
0.00549699
0.00549775
0.0054983
0.00549866
0.00549885
0.00549893
0.00549895
0.00547754
0.00547753
0.00547752
0.00547756
0.00547766
0.00547789
0.00547828
0.00547885
0.00547962
0.00548057
0.00548168
0.00548289
0.00548416
0.00548546
0.00548673
0.00548796
0.00548907
0.00548999
0.00549079
0.00549155
0.00549233
0.00549317
0.00549408
0.00549504
0.00549602
0.00549693
0.00549773
0.00549834
0.00549876
0.00549899
0.00549909
0.00549912
0.0054783
0.00547826
0.0054782
0.00547817
0.0054782
0.00547836
0.00547868
0.00547918
0.00547989
0.00548078
0.00548182
0.00548299
0.00548424
0.00548554
0.00548685
0.00548816
0.00548936
0.00549038
0.00549122
0.00549199
0.00549274
0.00549352
0.00549435
0.00549522
0.00549612
0.00549699
0.00549777
0.00549841
0.00549886
0.00549913
0.00549925
0.00549928
0.00547947
0.00547939
0.00547928
0.00547918
0.00547917
0.00547929
0.00547959
0.00548008
0.00548078
0.00548166
0.00548268
0.00548383
0.00548506
0.00548634
0.00548765
0.00548896
0.00549018
0.00549119
0.00549202
0.00549275
0.00549344
0.00549412
0.00549483
0.00549559
0.00549637
0.00549715
0.00549788
0.0054985
0.00549896
0.00549925
0.00549939
0.00549943
0.00548109
0.00548097
0.00548083
0.00548072
0.00548072
0.00548087
0.00548121
0.00548174
0.00548246
0.00548334
0.00548434
0.00548545
0.00548661
0.00548782
0.00548904
0.00549027
0.00549141
0.00549235
0.0054931
0.00549375
0.00549434
0.00549491
0.0054955
0.00549611
0.00549676
0.00549742
0.00549805
0.00549862
0.00549907
0.00549937
0.00549952
0.00549956
0.00548319
0.00548305
0.00548292
0.00548288
0.00548297
0.00548322
0.00548364
0.00548422
0.00548494
0.00548578
0.00548671
0.00548771
0.00548875
0.00548982
0.00549088
0.00549194
0.00549293
0.00549373
0.00549436
0.0054949
0.00549537
0.00549583
0.00549628
0.00549676
0.00549726
0.00549778
0.0054983
0.00549879
0.00549919
0.00549948
0.00549963
0.00549968
0.00548579
0.00548567
0.00548563
0.00548574
0.00548598
0.00548634
0.00548681
0.00548739
0.00548805
0.00548879
0.00548958
0.00549041
0.00549126
0.00549211
0.00549297
0.00549381
0.00549458
0.00549521
0.0054957
0.00549611
0.00549647
0.00549681
0.00549714
0.00549748
0.00549785
0.00549823
0.00549862
0.005499
0.00549933
0.00549958
0.00549973
0.00549977
0.00548896
0.00548891
0.00548904
0.00548931
0.00548966
0.00549006
0.00549051
0.005491
0.00549153
0.00549209
0.00549268
0.00549329
0.0054939
0.00549451
0.00549512
0.00549571
0.00549626
0.0054967
0.00549704
0.00549732
0.00549757
0.00549779
0.00549801
0.00549824
0.00549848
0.00549873
0.00549899
0.00549925
0.0054995
0.00549969
0.00549981
0.00549986
0.00549281
0.0054929
0.00549316
0.00549346
0.00549377
0.00549409
0.0054944
0.00549473
0.00549506
0.00549541
0.00549576
0.00549612
0.00549648
0.00549684
0.00549719
0.00549754
0.00549786
0.00549811
0.00549831
0.00549847
0.00549861
0.00549874
0.00549886
0.00549898
0.00549911
0.00549925
0.00549939
0.00549954
0.00549969
0.00549981
0.00549989
0.00549992
0.00549748
0.00549755
0.00549769
0.00549782
0.00549795
0.00549807
0.00549818
0.00549829
0.0054984
0.00549852
0.00549863
0.00549875
0.00549887
0.00549899
0.0054991
0.00549921
0.00549931
0.0054994
0.00549946
0.00549951
0.00549956
0.0054996
0.00549963
0.00549967
0.00549971
0.00549976
0.0054998
0.00549985
0.00549989
0.00549993
0.00549996
0.00549998
)
;

boundaryField
{
    movingWall
    {
        type            fixedValue;
        value           uniform 0.0055;
    }
    fixedWalls
    {
        type            zeroGradient;
    }
    floor
    {
        type            zeroGradient;
    }
    frontAndBack
    {
        type            empty;
    }
}


// ************************************************************************* //
