/*--------------------------------*- C++ -*----------------------------------*\
| =========                 |                                                 |
| \\      /  F ield         | OpenFOAM: The Open Source CFD Toolbox           |
|  \\    /   O peration     | Version:  2212                                  |
|   \\  /    A nd           | Website:  www.openfoam.com                      |
|    \\/     M anipulation  |                                                 |
\*---------------------------------------------------------------------------*/
FoamFile
{
    version     2.0;
    format      ascii;
    arch        "LSB;label=64;scalar=64";
    class       volScalarField;
    location    "940";
    object      Xch;
}
// * * * * * * * * * * * * * * * * * * * * * * * * * * * * * * * * * * * * * //

dimensions      [1 -3 0 0 0 0 0];

internalField   nonuniform List<scalar> 
1024
(
0.0199093
0.0199095
0.0199099
0.0199105
0.0199116
0.019913
0.019915
0.0199174
0.0199201
0.0199231
0.0199262
0.0199291
0.0199317
0.0199334
0.0199334
0.0199314
0.0199274
0.0199226
0.0199178
0.0199133
0.0199091
0.0199052
0.0199017
0.0198986
0.0198959
0.0198937
0.019892
0.0198908
0.0198899
0.0198894
0.0198891
0.019889
0.0199094
0.0199095
0.0199099
0.0199106
0.0199116
0.0199132
0.0199151
0.0199176
0.0199203
0.0199233
0.0199264
0.0199294
0.019932
0.0199338
0.0199338
0.0199317
0.0199277
0.0199229
0.0199181
0.0199135
0.0199093
0.0199054
0.0199019
0.0198988
0.0198961
0.0198938
0.0198921
0.0198908
0.01989
0.0198894
0.0198891
0.019889
0.0199094
0.0199096
0.01991
0.0199107
0.0199118
0.0199134
0.0199154
0.0199179
0.0199207
0.0199238
0.0199269
0.0199301
0.0199328
0.0199347
0.0199347
0.0199326
0.0199285
0.0199235
0.0199186
0.019914
0.0199098
0.0199058
0.0199023
0.0198991
0.0198964
0.0198941
0.0198923
0.019891
0.0198901
0.0198895
0.0198892
0.0198891
0.0199095
0.0199097
0.0199101
0.0199108
0.019912
0.0199136
0.0199158
0.0199183
0.0199212
0.0199244
0.0199278
0.0199311
0.0199342
0.0199363
0.0199364
0.019934
0.0199297
0.0199246
0.0199195
0.0199148
0.0199105
0.0199065
0.0199029
0.0198996
0.0198968
0.0198944
0.0198926
0.0198912
0.0198902
0.0198896
0.0198893
0.0198892
0.0199096
0.0199098
0.0199102
0.019911
0.0199122
0.0199139
0.0199161
0.0199188
0.0199219
0.0199252
0.0199289
0.0199327
0.0199363
0.0199389
0.019939
0.0199363
0.0199315
0.0199261
0.0199208
0.0199159
0.0199114
0.0199073
0.0199036
0.0199003
0.0198974
0.0198949
0.0198929
0.0198915
0.0198904
0.0198898
0.0198894
0.0198893
0.0199097
0.0199098
0.0199103
0.0199111
0.0199124
0.0199141
0.0199164
0.0199192
0.0199225
0.0199261
0.0199303
0.0199348
0.0199393
0.0199425
0.0199427
0.0199396
0.0199341
0.0199281
0.0199224
0.0199172
0.0199125
0.0199083
0.0199045
0.0199011
0.019898
0.0198954
0.0198934
0.0198918
0.0198907
0.01989
0.0198896
0.0198895
0.0199097
0.0199099
0.0199103
0.0199111
0.0199124
0.0199142
0.0199166
0.0199195
0.0199229
0.019927
0.0199318
0.0199374
0.0199432
0.0199474
0.0199478
0.019944
0.0199376
0.0199306
0.0199242
0.0199186
0.0199136
0.0199092
0.0199053
0.0199018
0.0198986
0.019896
0.0198938
0.0198921
0.019891
0.0198902
0.0198898
0.0198897
0.0199097
0.0199098
0.0199103
0.0199111
0.0199123
0.0199141
0.0199165
0.0199194
0.0199232
0.0199278
0.0199335
0.0199404
0.0199479
0.0199534
0.0199542
0.0199497
0.0199419
0.0199336
0.0199263
0.01992
0.0199146
0.01991
0.0199059
0.0199023
0.0198991
0.0198964
0.0198941
0.0198924
0.0198912
0.0198904
0.01989
0.0198898
0.0199095
0.0199097
0.0199101
0.0199108
0.019912
0.0199137
0.019916
0.0199191
0.0199231
0.0199283
0.0199352
0.0199439
0.0199535
0.0199607
0.019962
0.0199565
0.019947
0.0199371
0.0199285
0.0199214
0.0199154
0.0199104
0.0199062
0.0199025
0.0198993
0.0198965
0.0198943
0.0198925
0.0198913
0.0198906
0.0198901
0.01989
0.0199094
0.0199095
0.0199099
0.0199105
0.0199115
0.0199131
0.0199153
0.0199184
0.0199227
0.0199288
0.0199372
0.0199482
0.0199603
0.0199694
0.019971
0.0199644
0.0199527
0.0199408
0.0199307
0.0199224
0.0199157
0.0199103
0.0199059
0.0199022
0.019899
0.0198963
0.0198941
0.0198925
0.0198913
0.0198906
0.0198901
0.01989
0.0199096
0.0199096
0.0199099
0.0199103
0.0199112
0.0199126
0.0199147
0.0199179
0.0199227
0.0199298
0.0199402
0.019954
0.019969
0.0199799
0.0199815
0.0199732
0.019959
0.0199447
0.0199326
0.0199229
0.0199153
0.0199095
0.0199049
0.0199012
0.0198982
0.0198956
0.0198936
0.0198921
0.019891
0.0198903
0.01989
0.0198898
0.0199112
0.0199112
0.0199112
0.0199114
0.0199121
0.0199133
0.0199154
0.0199189
0.0199245
0.0199333
0.0199463
0.0199632
0.0199809
0.0199929
0.0199937
0.0199831
0.0199661
0.0199489
0.0199345
0.019923
0.0199143
0.0199078
0.019903
0.0198995
0.0198966
0.0198944
0.0198927
0.0198914
0.0198904
0.0198898
0.0198895
0.0198893
0.0199171
0.019917
0.0199168
0.0199168
0.0199172
0.0199183
0.0199206
0.0199248
0.0199319
0.019943
0.0199589
0.0199787
0.0199981
0.0200098
0.0200086
0.0199955
0.0199756
0.0199555
0.0199381
0.0199241
0.0199135
0.0199059
0.0199006
0.019897
0.0198945
0.0198926
0.0198912
0.0198902
0.0198894
0.019889
0.0198887
0.0198886
0.0199322
0.0199321
0.0199318
0.0199318
0.0199321
0.0199335
0.0199364
0.0199419
0.0199507
0.0199641
0.0199823
0.0200036
0.0200225
0.0200319
0.0200284
0.020014
0.0199929
0.0199703
0.0199494
0.0199314
0.0199172
0.0199068
0.0198996
0.0198951
0.0198922
0.0198905
0.0198894
0.0198889
0.0198887
0.0198888
0.019889
0.0198892
0.0199598
0.0199598
0.0199599
0.0199604
0.0199615
0.0199637
0.0199679
0.0199748
0.0199856
0.0200007
0.0200197
0.02004
0.020056
0.0200627
0.0200596
0.0200485
0.020031
0.0200096
0.019987
0.0199649
0.0199449
0.0199284
0.0199154
0.019906
0.0199001
0.0198972
0.0198966
0.0198975
0.0198993
0.0199013
0.0199029
0.0199038
0.0199956
0.0199959
0.0199966
0.019998
0.0200006
0.0200049
0.0200116
0.0200215
0.0200352
0.0200524
0.0200715
0.0200894
0.0201032
0.020112
0.0201167
0.0201179
0.0201143
0.0201053
0.020092
0.0200756
0.0200576
0.0200395
0.0200221
0.0200067
0.0199943
0.0199854
0.0199802
0.0199782
0.0199786
0.0199803
0.0199821
0.0199831
0.0200268
0.0200273
0.0200285
0.020031
0.0200353
0.0200421
0.0200519
0.0200653
0.0200819
0.0201012
0.0201216
0.0201419
0.0201611
0.0201795
0.0201978
0.0202166
0.0202343
0.020248
0.0202568
0.0202611
0.0202611
0.0202571
0.0202497
0.0202394
0.0202271
0.0202139
0.020201
0.0201897
0.020181
0.0201754
0.0201726
0.0201717
0.020045
0.0200456
0.020047
0.0200498
0.0200547
0.0200623
0.0200734
0.0200882
0.0201065
0.0201276
0.0201503
0.0201736
0.0201968
0.0202202
0.0202441
0.020269
0.0202934
0.0203153
0.0203344
0.0203513
0.0203658
0.0203772
0.020385
0.0203887
0.0203879
0.0203831
0.0203749
0.0203651
0.0203553
0.0203473
0.0203421
0.0203398
0.0200552
0.0200557
0.0200571
0.0200599
0.0200647
0.0200723
0.0200833
0.0200981
0.0201165
0.0201378
0.020161
0.0201848
0.0202086
0.0202319
0.0202544
0.0202759
0.0202952
0.0203119
0.0203277
0.0203437
0.0203599
0.0203758
0.0203906
0.0204033
0.0204131
0.0204194
0.0204222
0.0204218
0.0204193
0.0204159
0.0204131
0.0204116
0.0200608
0.0200613
0.0200626
0.0200652
0.0200696
0.0200766
0.0200868
0.0201006
0.0201179
0.0201382
0.0201604
0.0201833
0.0202059
0.0202273
0.020247
0.0202644
0.0202785
0.0202902
0.0203025
0.0203169
0.0203338
0.0203524
0.0203716
0.0203899
0.0204058
0.0204183
0.0204269
0.020432
0.0204342
0.0204345
0.0204339
0.0204333
0.020064
0.0200644
0.0200656
0.0200678
0.0200718
0.0200779
0.020087
0.0200993
0.0201149
0.0201333
0.0201536
0.0201748
0.0201955
0.0202151
0.0202327
0.0202479
0.0202599
0.02027
0.0202811
0.020295
0.0203121
0.0203322
0.0203544
0.0203769
0.0203978
0.0204152
0.0204282
0.0204367
0.0204413
0.0204432
0.0204436
0.0204434
0.0200665
0.0200668
0.0200677
0.0200695
0.0200728
0.020078
0.0200857
0.0200964
0.02011
0.0201263
0.0201444
0.0201635
0.0201826
0.0202008
0.0202176
0.0202326
0.0202453
0.0202566
0.0202685
0.0202826
0.0202997
0.0203199
0.0203429
0.0203672
0.0203909
0.0204119
0.0204285
0.0204401
0.0204471
0.0204503
0.0204513
0.0204513
0.0200704
0.0200705
0.0200709
0.020072
0.0200744
0.0200785
0.0200849
0.0200939
0.0201056
0.0201198
0.0201361
0.0201535
0.0201715
0.0201893
0.0202065
0.0202229
0.020238
0.0202517
0.0202653
0.02028
0.0202969
0.0203165
0.0203387
0.0203628
0.0203871
0.0204099
0.0204289
0.0204431
0.0204521
0.0204567
0.0204583
0.0204584
0.0200779
0.0200776
0.0200773
0.0200774
0.0200786
0.0200815
0.0200865
0.0200942
0.0201045
0.0201174
0.0201325
0.0201492
0.020167
0.0201852
0.0202037
0.0202223
0.0202401
0.0202563
0.0202712
0.0202864
0.0203027
0.020321
0.0203416
0.0203641
0.0203874
0.0204101
0.0204301
0.0204459
0.0204566
0.0204624
0.0204647
0.020465
0.0200913
0.0200904
0.0200892
0.0200881
0.0200881
0.0200897
0.0200939
0.0201008
0.0201107
0.0201233
0.0201382
0.0201551
0.0201734
0.0201926
0.0202124
0.0202328
0.0202526
0.0202702
0.0202857
0.0203005
0.0203157
0.0203322
0.0203505
0.0203705
0.0203917
0.0204129
0.0204326
0.0204489
0.0204607
0.0204676
0.0204705
0.0204711
0.0201123
0.0201108
0.0201085
0.0201065
0.0201056
0.0201068
0.0201108
0.020118
0.0201284
0.0201416
0.0201571
0.0201746
0.0201934
0.0202131
0.0202335
0.0202545
0.0202749
0.0202925
0.0203074
0.0203211
0.0203347
0.0203489
0.0203643
0.0203813
0.0203996
0.0204184
0.0204366
0.0204525
0.0204647
0.0204723
0.0204758
0.0204766
0.0201419
0.0201398
0.0201369
0.0201346
0.0201341
0.0201361
0.0201411
0.0201495
0.0201609
0.0201748
0.0201908
0.0202083
0.0202269
0.0202461
0.0202657
0.0202857
0.0203049
0.0203211
0.0203346
0.0203466
0.020358
0.0203696
0.0203821
0.0203958
0.0204107
0.0204265
0.0204423
0.0204568
0.0204687
0.0204766
0.0204805
0.0204815
0.0201809
0.0201783
0.0201757
0.0201747
0.020176
0.02018
0.0201869
0.0201965
0.0202085
0.0202225
0.0202378
0.0202542
0.0202712
0.0202885
0.0203059
0.0203235
0.0203401
0.0203539
0.0203652
0.020375
0.0203841
0.0203932
0.0204028
0.0204132
0.0204246
0.0204369
0.0204498
0.0204622
0.0204729
0.0204806
0.0204848
0.020486
0.0202296
0.0202273
0.0202265
0.0202283
0.0202325
0.0202388
0.020247
0.020257
0.0202684
0.020281
0.0202943
0.0203082
0.0203223
0.0203365
0.0203505
0.0203646
0.0203777
0.0203885
0.0203972
0.0204047
0.0204114
0.0204181
0.020425
0.0204324
0.0204405
0.0204495
0.020459
0.0204688
0.0204776
0.0204845
0.0204885
0.0204899
0.0202894
0.0202884
0.0202909
0.0202959
0.0203022
0.0203095
0.0203175
0.0203261
0.0203354
0.0203452
0.0203553
0.0203656
0.0203759
0.0203861
0.0203962
0.0204061
0.0204154
0.0204229
0.020429
0.0204341
0.0204387
0.0204431
0.0204476
0.0204524
0.0204577
0.0204635
0.0204698
0.0204766
0.0204831
0.0204885
0.0204919
0.0204933
0.0203624
0.0203641
0.0203691
0.0203748
0.0203806
0.0203863
0.0203921
0.0203979
0.0204038
0.0204098
0.020416
0.0204221
0.0204282
0.0204343
0.0204402
0.020446
0.0204513
0.0204557
0.0204591
0.020462
0.0204646
0.0204671
0.0204696
0.0204722
0.020475
0.0204782
0.0204817
0.0204855
0.0204893
0.0204927
0.0204951
0.0204962
0.0204517
0.020453
0.0204557
0.0204582
0.0204605
0.0204627
0.0204647
0.0204668
0.0204688
0.0204708
0.0204728
0.0204748
0.0204768
0.0204788
0.0204807
0.0204826
0.0204843
0.0204857
0.0204868
0.0204877
0.0204885
0.0204893
0.0204901
0.0204909
0.0204918
0.0204928
0.0204939
0.020495
0.0204963
0.0204974
0.0204983
0.0204987
)
;

boundaryField
{
    movingWall
    {
        type            fixedValue;
        value           uniform 0.0205;
    }
    fixedWalls
    {
        type            zeroGradient;
    }
    floor
    {
        type            zeroGradient;
    }
    frontAndBack
    {
        type            empty;
    }
}


// ************************************************************************* //
