/*--------------------------------*- C++ -*----------------------------------*\
| =========                 |                                                 |
| \\      /  F ield         | OpenFOAM: The Open Source CFD Toolbox           |
|  \\    /   O peration     | Version:  2212                                  |
|   \\  /    A nd           | Website:  www.openfoam.com                      |
|    \\/     M anipulation  |                                                 |
\*---------------------------------------------------------------------------*/
FoamFile
{
    version     2.0;
    format      ascii;
    arch        "LSB;label=64;scalar=64";
    class       volScalarField;
    location    "940";
    object      Xli;
}
// * * * * * * * * * * * * * * * * * * * * * * * * * * * * * * * * * * * * * //

dimensions      [1 -3 0 0 0 0 0];

internalField   nonuniform List<scalar> 
1024
(
0.0423149
0.0423153
0.0423161
0.0423176
0.0423198
0.0423231
0.0423273
0.0423325
0.0423385
0.0423449
0.0423516
0.042358
0.0423636
0.0423673
0.0423674
0.0423629
0.0423543
0.0423439
0.0423334
0.0423235
0.0423144
0.042306
0.0422984
0.0422916
0.0422858
0.042281
0.0422773
0.0422746
0.0422728
0.0422716
0.042271
0.0422707
0.042315
0.0423154
0.0423162
0.0423177
0.04232
0.0423233
0.0423276
0.0423329
0.0423389
0.0423454
0.0423521
0.0423587
0.0423644
0.0423681
0.0423682
0.0423637
0.042355
0.0423445
0.042334
0.0423241
0.0423149
0.0423064
0.0422988
0.042292
0.0422861
0.0422813
0.0422775
0.0422747
0.0422729
0.0422717
0.042271
0.0422708
0.0423152
0.0423155
0.0423164
0.0423179
0.0423203
0.0423237
0.0423282
0.0423336
0.0423397
0.0423464
0.0423533
0.0423601
0.0423661
0.0423701
0.0423702
0.0423655
0.0423566
0.0423459
0.0423352
0.0423252
0.0423159
0.0423074
0.0422997
0.0422927
0.0422867
0.0422818
0.0422779
0.042275
0.0422731
0.0422718
0.0422712
0.0422709
0.0423153
0.0423157
0.0423166
0.0423182
0.0423207
0.0423243
0.0423289
0.0423345
0.0423409
0.0423478
0.0423551
0.0423624
0.0423691
0.0423736
0.0423738
0.0423687
0.0423593
0.0423481
0.0423372
0.0423269
0.0423175
0.0423088
0.0423009
0.0422939
0.0422877
0.0422826
0.0422785
0.0422755
0.0422734
0.0422721
0.0422714
0.0422711
0.0423155
0.0423159
0.0423168
0.0423185
0.0423212
0.0423249
0.0423298
0.0423356
0.0423422
0.0423496
0.0423575
0.0423658
0.0423737
0.0423792
0.0423794
0.0423737
0.0423633
0.0423514
0.0423399
0.0423292
0.0423195
0.0423106
0.0423026
0.0422954
0.042289
0.0422836
0.0422793
0.0422761
0.0422739
0.0422725
0.0422717
0.0422714
0.0423157
0.0423161
0.0423171
0.0423188
0.0423216
0.0423254
0.0423304
0.0423365
0.0423435
0.0423515
0.0423605
0.0423704
0.0423802
0.0423872
0.0423876
0.0423808
0.0423689
0.0423557
0.0423433
0.042332
0.0423218
0.0423127
0.0423044
0.042297
0.0422904
0.0422848
0.0422802
0.0422768
0.0422744
0.0422729
0.0422721
0.0422717
0.0423158
0.0423162
0.0423172
0.0423189
0.0423217
0.0423256
0.0423307
0.042337
0.0423445
0.0423534
0.0423639
0.042376
0.0423885
0.0423977
0.0423987
0.0423905
0.0423764
0.0423612
0.0423474
0.0423351
0.0423243
0.0423147
0.0423062
0.0422985
0.0422917
0.0422859
0.0422811
0.0422775
0.042275
0.0422734
0.0422725
0.0422722
0.0423157
0.0423161
0.042317
0.0423188
0.0423215
0.0423253
0.0423305
0.042337
0.042345
0.0423551
0.0423675
0.0423827
0.0423988
0.0424109
0.0424126
0.0424028
0.0423858
0.0423678
0.0423519
0.0423382
0.0423265
0.0423164
0.0423076
0.0422997
0.0422927
0.0422868
0.0422819
0.0422781
0.0422755
0.0422738
0.0422729
0.0422726
0.0423154
0.0423158
0.0423167
0.0423183
0.0423208
0.0423245
0.0423295
0.0423362
0.0423448
0.0423562
0.0423713
0.0423903
0.042411
0.0424267
0.0424295
0.0424177
0.0423969
0.0423754
0.0423567
0.0423411
0.0423282
0.0423173
0.0423081
0.0423001
0.0422931
0.0422871
0.0422822
0.0422785
0.0422758
0.0422741
0.0422732
0.0422728
0.0423151
0.0423154
0.0423162
0.0423175
0.0423198
0.0423231
0.042328
0.0423347
0.0423441
0.0423572
0.0423755
0.0423994
0.0424258
0.0424456
0.0424492
0.0424347
0.0424094
0.0423834
0.0423614
0.0423433
0.0423288
0.0423171
0.0423075
0.0422994
0.0422925
0.0422867
0.0422819
0.0422783
0.0422758
0.0422741
0.0422732
0.0422729
0.0423155
0.0423156
0.0423161
0.0423172
0.042319
0.042322
0.0423266
0.0423336
0.042344
0.0423595
0.0423822
0.0424122
0.0424447
0.0424684
0.042472
0.0424539
0.042423
0.0423918
0.0423655
0.0423444
0.042328
0.0423153
0.0423053
0.0422973
0.0422907
0.0422852
0.0422808
0.0422775
0.0422752
0.0422737
0.0422728
0.0422725
0.042319
0.0423189
0.042319
0.0423196
0.0423209
0.0423235
0.0423281
0.0423357
0.042348
0.0423671
0.0423954
0.0424323
0.0424707
0.0424969
0.0424986
0.0424755
0.0424385
0.0424012
0.0423697
0.0423448
0.0423258
0.0423117
0.0423013
0.0422935
0.0422874
0.0422825
0.0422787
0.0422759
0.0422739
0.0422725
0.0422718
0.0422714
0.0423319
0.0423316
0.0423313
0.0423312
0.042332
0.0423344
0.0423395
0.0423487
0.0423641
0.0423882
0.0424227
0.0424659
0.0425081
0.0425335
0.0425309
0.0425024
0.0424592
0.0424153
0.0423775
0.0423471
0.042324
0.0423074
0.042296
0.0422882
0.0422826
0.0422785
0.0422755
0.0422733
0.0422717
0.0422707
0.0422701
0.0422699
0.0423647
0.0423644
0.0423639
0.0423638
0.0423646
0.0423675
0.042374
0.0423857
0.0424051
0.0424342
0.0424738
0.0425202
0.0425612
0.0425816
0.0425739
0.0425426
0.0424969
0.0424476
0.0424021
0.042363
0.042332
0.0423094
0.0422939
0.0422839
0.0422777
0.0422739
0.0422717
0.0422705
0.0422702
0.0422704
0.0422708
0.0422712
0.0424247
0.0424248
0.042425
0.042426
0.0424284
0.0424333
0.0424424
0.0424575
0.0424808
0.0425136
0.0425552
0.0425993
0.042634
0.0426487
0.0426418
0.0426178
0.0425797
0.042533
0.0424838
0.0424359
0.0423924
0.0423565
0.0423281
0.0423077
0.042295
0.0422887
0.0422873
0.0422893
0.0422932
0.0422975
0.0423011
0.042303
0.0425026
0.0425032
0.0425048
0.0425079
0.0425135
0.0425228
0.0425374
0.0425589
0.0425887
0.0426262
0.0426678
0.0427068
0.0427368
0.042756
0.0427662
0.0427687
0.0427608
0.0427413
0.0427124
0.0426767
0.0426375
0.0425982
0.0425603
0.0425268
0.0424997
0.0424806
0.0424692
0.0424649
0.0424657
0.0424693
0.0424732
0.0424756
0.0425705
0.0425715
0.0425743
0.0425797
0.0425891
0.0426038
0.0426252
0.0426542
0.0426904
0.0427323
0.0427768
0.0428209
0.0428628
0.0429028
0.0429426
0.0429835
0.0430219
0.0430517
0.043071
0.0430803
0.0430802
0.0430716
0.0430554
0.043033
0.0430063
0.0429776
0.0429495
0.0429249
0.042906
0.0428939
0.0428877
0.0428857
0.0426102
0.0426113
0.0426144
0.0426205
0.0426311
0.0426478
0.0426719
0.0427041
0.042744
0.0427899
0.0428393
0.0428898
0.0429405
0.0429913
0.0430434
0.0430974
0.0431506
0.0431981
0.0432398
0.0432766
0.043308
0.0433329
0.0433498
0.0433578
0.0433562
0.0433456
0.0433279
0.0433065
0.0432851
0.0432677
0.0432564
0.0432514
0.0426322
0.0426334
0.0426364
0.0426425
0.042653
0.0426695
0.0426934
0.0427256
0.0427656
0.042812
0.0428624
0.0429144
0.0429661
0.0430166
0.0430656
0.0431125
0.0431545
0.0431907
0.0432251
0.0432599
0.0432953
0.0433299
0.043362
0.0433896
0.0434109
0.0434247
0.0434307
0.0434299
0.0434244
0.0434171
0.043411
0.0434077
0.0426445
0.0426455
0.0426484
0.042654
0.0426637
0.0426789
0.0427011
0.0427311
0.0427687
0.0428129
0.0428612
0.042911
0.0429601
0.0430067
0.0430495
0.0430874
0.0431181
0.0431435
0.0431703
0.0432017
0.0432384
0.0432789
0.0433207
0.0433605
0.043395
0.0434222
0.043441
0.0434521
0.0434569
0.0434574
0.0434561
0.043455
0.0426514
0.0426524
0.0426549
0.0426598
0.0426684
0.0426818
0.0427014
0.0427282
0.0427621
0.0428022
0.0428465
0.0428924
0.0429376
0.0429801
0.0430185
0.0430515
0.0430776
0.0430996
0.0431238
0.043154
0.0431911
0.043235
0.0432833
0.0433323
0.0433776
0.0434155
0.0434437
0.0434622
0.0434724
0.0434765
0.0434772
0.0434769
0.0426569
0.0426576
0.0426595
0.0426635
0.0426706
0.0426819
0.0426988
0.0427219
0.0427515
0.0427869
0.0428264
0.0428679
0.0429094
0.0429491
0.0429856
0.0430183
0.0430459
0.0430705
0.0430964
0.043127
0.0431642
0.0432082
0.0432581
0.043311
0.0433626
0.0434082
0.0434444
0.0434697
0.0434848
0.0434919
0.043494
0.043494
0.0426653
0.0426655
0.0426664
0.0426689
0.042674
0.042683
0.0426968
0.0427164
0.042742
0.042773
0.0428082
0.0428462
0.0428852
0.042924
0.0429614
0.0429973
0.04303
0.0430599
0.0430893
0.0431214
0.0431582
0.0432007
0.0432491
0.0433014
0.0433545
0.0434039
0.0434454
0.0434761
0.0434957
0.0435057
0.0435092
0.0435096
0.0426817
0.042681
0.0426804
0.0426807
0.0426833
0.0426894
0.0427005
0.0427171
0.0427396
0.0427677
0.0428005
0.0428368
0.0428754
0.0429152
0.0429554
0.0429958
0.0430347
0.0430698
0.0431023
0.0431352
0.0431708
0.0432106
0.0432553
0.0433043
0.0433551
0.0434044
0.043448
0.0434823
0.0435055
0.0435182
0.0435232
0.0435239
0.0427108
0.042709
0.0427063
0.042704
0.0427038
0.0427075
0.0427164
0.0427315
0.042753
0.0427804
0.042813
0.0428497
0.0428894
0.0429312
0.0429743
0.0430187
0.0430618
0.0431001
0.0431338
0.043166
0.0431991
0.043235
0.0432747
0.0433182
0.0433643
0.0434105
0.0434533
0.0434889
0.0435145
0.0435295
0.0435359
0.0435371
0.0427564
0.0427533
0.0427484
0.0427438
0.0427419
0.0427445
0.0427533
0.042769
0.0427915
0.0428202
0.0428541
0.042892
0.0429329
0.0429758
0.0430202
0.043066
0.0431102
0.0431485
0.0431811
0.0432109
0.0432403
0.0432712
0.0433048
0.0433417
0.0433815
0.0434225
0.043462
0.0434967
0.0435231
0.0435398
0.0435474
0.043549
0.042821
0.0428164
0.0428101
0.0428052
0.0428039
0.0428082
0.0428193
0.0428375
0.0428622
0.0428925
0.0429273
0.0429654
0.0430058
0.0430475
0.0430902
0.0431338
0.0431755
0.0432109
0.0432402
0.0432662
0.043291
0.0433164
0.0433436
0.0433733
0.0434057
0.04344
0.0434744
0.0435061
0.0435318
0.0435491
0.0435577
0.0435598
0.0429057
0.0429002
0.0428946
0.0428924
0.0428952
0.0429039
0.0429188
0.0429398
0.0429659
0.0429962
0.0430297
0.0430653
0.0431022
0.0431399
0.0431777
0.043216
0.043252
0.0432822
0.0433068
0.043328
0.0433478
0.0433676
0.0433885
0.0434111
0.0434359
0.0434628
0.0434907
0.0435178
0.0435411
0.0435578
0.0435669
0.0435695
0.0430118
0.0430067
0.043005
0.043009
0.0430181
0.0430318
0.0430497
0.0430714
0.0430962
0.0431235
0.0431526
0.0431827
0.0432134
0.0432442
0.0432748
0.0433054
0.0433339
0.0433575
0.0433764
0.0433926
0.0434073
0.0434218
0.0434368
0.0434529
0.0434706
0.04349
0.0435109
0.043532
0.0435514
0.0435663
0.0435751
0.043578
0.0431417
0.0431396
0.0431451
0.0431559
0.0431697
0.0431855
0.0432029
0.0432217
0.0432419
0.0432631
0.0432851
0.0433075
0.04333
0.0433522
0.0433741
0.0433958
0.0434159
0.0434324
0.0434455
0.0434566
0.0434665
0.0434761
0.0434859
0.0434964
0.0435079
0.0435205
0.0435344
0.043549
0.0435632
0.0435749
0.0435825
0.0435853
0.0433007
0.0433043
0.0433152
0.0433276
0.0433402
0.0433527
0.0433652
0.0433778
0.0433907
0.0434038
0.0434172
0.0434306
0.0434439
0.043457
0.0434698
0.0434824
0.043494
0.0435036
0.0435111
0.0435174
0.043523
0.0435284
0.0435338
0.0435395
0.0435457
0.0435526
0.0435602
0.0435684
0.0435767
0.0435842
0.0435894
0.0435917
0.0434949
0.0434979
0.0435035
0.043509
0.043514
0.0435188
0.0435233
0.0435277
0.0435321
0.0435364
0.0435408
0.0435452
0.0435496
0.0435538
0.043558
0.0435621
0.0435658
0.0435689
0.0435713
0.0435733
0.0435751
0.0435768
0.0435785
0.0435802
0.0435822
0.0435843
0.0435866
0.0435892
0.0435919
0.0435944
0.0435962
0.0435972
)
;

boundaryField
{
    movingWall
    {
        type            fixedValue;
        value           uniform 0.0436;
    }
    fixedWalls
    {
        type            zeroGradient;
    }
    floor
    {
        type            zeroGradient;
    }
    frontAndBack
    {
        type            empty;
    }
}


// ************************************************************************* //
