/*--------------------------------*- C++ -*----------------------------------*\
| =========                 |                                                 |
| \\      /  F ield         | OpenFOAM: The Open Source CFD Toolbox           |
|  \\    /   O peration     | Version:  2206                                  |
|   \\  /    A nd           | Website:  www.openfoam.com                      |
|    \\/     M anipulation  |                                                 |
\*---------------------------------------------------------------------------*/
FoamFile
{
    version     2.0;
    format      ascii;
    arch        "LSB;label=64;scalar=64";
    class       volScalarField;
    location    "2.5/water";
    object      alpha.gas_0;
}
// * * * * * * * * * * * * * * * * * * * * * * * * * * * * * * * * * * * * * //

dimensions      [0 0 0 0 0 0 0];

internalField   nonuniform List<scalar> 
23300
(
1e-15
1e-15
1e-15
1e-15
1e-15
1e-15
1e-15
1e-15
1e-15
1e-15
1e-15
1e-15
1e-15
1e-15
1e-15
1e-15
1e-15
1e-15
1e-15
1e-15
1e-15
1e-15
1e-15
1e-15
1e-15
1e-15
1e-15
1e-15
1e-15
1e-15
1e-15
1e-15
1e-15
1e-15
1e-15
1e-15
1e-15
1e-15
1e-15
1e-15
1e-15
1e-15
1e-15
1e-15
1e-15
1e-15
1e-15
1e-15
1e-15
1e-15
1e-15
1e-15
1e-15
1e-15
1e-15
1e-15
1e-15
1e-15
1e-15
1e-15
1e-15
1e-15
1e-15
1e-15
1e-15
1e-15
1e-15
1e-15
1e-15
1e-15
1e-15
1e-15
1e-15
1e-15
1e-15
1e-15
1e-15
1e-15
1e-15
1e-15
1e-15
1e-15
1e-15
1e-15
1e-15
1e-15
1e-15
1e-15
1e-15
1e-15
1e-15
1e-15
1e-15
1e-15
1e-15
1e-15
1e-15
1e-15
1e-15
1e-15
1e-15
1e-15
1e-15
1e-15
1e-15
1e-15
1e-15
1e-15
1e-15
1e-15
1e-15
1e-15
1e-15
1e-15
1e-15
1e-15
1e-15
1e-15
1e-15
1e-15
1e-15
1e-15
1e-15
1e-15
1e-15
1e-15
1e-15
1e-15
1e-15
1e-15
1e-15
1e-15
1e-15
1e-15
1e-15
1e-15
1e-15
1e-15
1e-15
1e-15
1e-15
1e-15
1e-15
1e-15
1e-15
1e-15
1e-15
1e-15
1e-15
1e-15
1e-15
1e-15
1e-15
1e-15
1e-15
1e-15
1e-15
1e-15
1e-15
1e-15
1e-15
1e-15
1e-15
1e-15
1e-15
1e-15
1e-15
1e-15
1e-15
1e-15
1e-15
1e-15
1e-15
1e-15
1e-15
1e-15
1e-15
1e-15
1e-15
1e-15
1e-15
1e-15
1e-15
1e-15
1e-15
1e-15
1e-15
1e-15
1e-15
1e-15
1e-15
1e-15
1e-15
1e-15
1e-15
1e-15
1e-15
1e-15
1e-15
1e-15
1e-15
1e-15
1e-15
1e-15
1e-15
1e-15
1e-15
1e-15
1e-15
1e-15
1e-15
1e-15
1e-15
1e-15
1e-15
1e-15
1e-15
1e-15
1e-15
1e-15
1e-15
1e-15
1e-15
1e-15
1e-15
1e-15
1e-15
1e-15
1e-15
1e-15
1e-15
1e-15
1e-15
1e-15
1e-15
1e-15
1e-15
1e-15
1e-15
1e-15
1e-15
1e-15
1e-15
1e-15
1e-15
1e-15
1e-15
1e-15
1e-15
1e-15
1e-15
1e-15
1e-15
1e-15
1e-15
1e-15
1e-15
1e-15
1e-15
1e-15
1e-15
1e-15
1e-15
1e-15
1e-15
1e-15
1e-15
1e-15
1e-15
1e-15
1e-15
1e-15
1e-15
1e-15
1e-15
1e-15
1e-15
1e-15
1e-15
1e-15
1e-15
1e-15
1e-15
1e-15
1e-15
1e-15
1e-15
1e-15
1e-15
1e-15
1e-15
1e-15
1e-15
1e-15
1e-15
1e-15
1e-15
1e-15
1e-15
1e-15
1e-15
1e-15
1e-15
1e-15
1e-15
1e-15
1e-15
1e-15
1e-15
1e-15
1e-15
1e-15
1e-15
1e-15
1e-15
1e-15
1e-15
1e-15
1e-15
1e-15
1e-15
1e-15
1e-15
1e-15
1e-15
1e-15
1e-15
1e-15
1e-15
1e-15
1e-15
1e-15
1e-15
1e-15
1e-15
1e-15
1e-15
1e-15
1e-15
1e-15
1e-15
1e-15
1e-15
1e-15
1e-15
1e-15
1e-15
1e-15
1e-15
1e-15
1e-15
1e-15
1e-15
1e-15
1e-15
1e-15
1e-15
1e-15
1e-15
1e-15
1e-15
1e-15
1e-15
1e-15
1e-15
1e-15
1e-15
1e-15
1e-15
1e-15
1e-15
1e-15
1e-15
1e-15
1e-15
1e-15
1e-15
1e-15
1e-15
1e-15
1e-15
1e-15
1e-15
1e-15
1e-15
1e-15
1e-15
1e-15
1e-15
1e-15
1e-15
1e-15
1e-15
1e-15
1e-15
1e-15
1e-15
1e-15
1e-15
1e-15
1e-15
1e-15
1e-15
1e-15
1e-15
1e-15
1e-15
1e-15
1e-15
1e-15
1e-15
1e-15
1e-15
1e-15
1e-15
1e-15
1e-15
1e-15
1e-15
1e-15
1e-15
1e-15
1e-15
1e-15
1e-15
1e-15
1e-15
1e-15
1e-15
1e-15
1e-15
1e-15
1e-15
1e-15
1e-15
1e-15
1e-15
1e-15
1e-15
1e-15
1e-15
1e-15
1e-15
1e-15
1e-15
1e-15
1e-15
1e-15
1e-15
1e-15
1e-15
1e-15
1e-15
1e-15
1e-15
1e-15
1e-15
1e-15
1e-15
1e-15
1e-15
1e-15
1e-15
1e-15
1e-15
1e-15
1e-15
1e-15
1e-15
1e-15
1e-15
1e-15
1e-15
1e-15
1e-15
1e-15
1e-15
1e-15
1e-15
1e-15
1e-15
1e-15
1e-15
1e-15
1e-15
1e-15
1e-15
1e-15
1e-15
1e-15
1e-15
1e-15
1e-15
1e-15
1e-15
1e-15
1e-15
1e-15
1e-15
1e-15
1e-15
1e-15
1e-15
1e-15
1e-15
1e-15
1e-15
1e-15
1e-15
1e-15
1e-15
1e-15
1e-15
1e-15
1e-15
1e-15
1e-15
1e-15
1e-15
1e-15
1e-15
1e-15
1e-15
1e-15
1e-15
1e-15
1e-15
1e-15
1e-15
1e-15
1e-15
1e-15
1e-15
1e-15
1e-15
1e-15
1e-15
1e-15
1e-15
1e-15
1e-15
1e-15
1e-15
1e-15
1e-15
1e-15
1e-15
1e-15
1e-15
1e-15
1e-15
1e-15
1e-15
1e-15
1e-15
1e-15
1e-15
1e-15
1e-15
1e-15
1.01280036991e-15
1e-15
1e-15
1e-15
1e-15
1e-15
1e-15
1e-15
1e-15
1e-15
1e-15
1e-15
1e-15
1e-15
1e-15
1e-15
1e-15
1e-15
1e-15
1e-15
1e-15
1e-15
1e-15
1e-15
1e-15
1e-15
1e-15
1e-15
1e-15
1e-15
1e-15
1e-15
1e-15
1e-15
1e-15
1e-15
1e-15
1e-15
1e-15
1e-15
1e-15
1e-15
1e-15
1e-15
1e-15
1e-15
1e-15
1e-15
1e-15
1e-15
1e-15
1e-15
1e-15
1e-15
1e-15
1e-15
1e-15
1e-15
1e-15
1e-15
1e-15
1e-15
1e-15
1e-15
1e-15
1e-15
1e-15
1e-15
1e-15
1e-15
1e-15
1e-15
1e-15
1e-15
1e-15
1e-15
1e-15
1e-15
1e-15
1e-15
1e-15
1e-15
1e-15
1e-15
1e-15
1e-15
1e-15
1e-15
1e-15
1e-15
1e-15
1e-15
1e-15
1e-15
1e-15
1e-15
1e-15
1e-15
1e-15
1e-15
1e-15
1e-15
1e-15
1e-15
1e-15
1e-15
1e-15
1e-15
1e-15
1e-15
1e-15
1e-15
1e-15
1e-15
1e-15
1e-15
1e-15
1e-15
1e-15
1e-15
1e-15
1e-15
1e-15
1e-15
1e-15
1e-15
1e-15
1e-15
1e-15
1e-15
1e-15
1e-15
1e-15
1e-15
1.02320645207e-15
1.0239106443e-15
1e-15
1e-15
1e-15
1e-15
1.00884614388e-15
1e-15
1e-15
1e-15
1e-15
1e-15
1e-15
1e-15
1e-15
1e-15
1e-15
1e-15
1e-15
1e-15
1e-15
1e-15
1e-15
1e-15
1e-15
1e-15
1e-15
1e-15
1e-15
1e-15
1e-15
1e-15
1e-15
1e-15
1e-15
1e-15
1e-15
1e-15
1e-15
1e-15
1e-15
1e-15
1e-15
1e-15
1e-15
1e-15
1e-15
1e-15
1e-15
1e-15
1e-15
1e-15
1e-15
1e-15
1e-15
1e-15
1e-15
1e-15
1e-15
1e-15
1e-15
1e-15
1e-15
1e-15
1e-15
1e-15
1e-15
1e-15
1e-15
1e-15
1e-15
1e-15
1e-15
1e-15
1e-15
1e-15
1e-15
1e-15
1e-15
1e-15
1e-15
1e-15
1e-15
1e-15
1e-15
1e-15
1e-15
1e-15
1e-15
1e-15
1e-15
1e-15
1e-15
1e-15
1e-15
1e-15
1e-15
1e-15
1e-15
1e-15
1e-15
1e-15
1e-15
1e-15
1e-15
1e-15
1e-15
1e-15
1e-15
1e-15
1e-15
1e-15
1e-15
1e-15
1e-15
1e-15
1e-15
1.00002139233e-15
1e-15
1.00006553788e-15
1e-15
1.00008216936e-15
1e-15
1.00007350125e-15
1e-15
1.00003734932e-15
1e-15
1e-15
1e-15
1e-15
1e-15
1e-15
1e-15
1e-15
1e-15
1e-15
1e-15
1e-15
1e-15
1e-15
1.02435293321e-15
1.02320645207e-15
1e-15
1e-15
1e-15
1e-15
1.01278912927e-15
1e-15
1e-15
1e-15
1e-15
1e-15
1e-15
1e-15
1e-15
1e-15
1e-15
1e-15
1e-15
1e-15
1e-15
1e-15
1e-15
1e-15
1e-15
1e-15
1e-15
1e-15
1e-15
1e-15
1e-15
1e-15
1e-15
1e-15
1e-15
1e-15
1e-15
1e-15
1e-15
1e-15
1e-15
1e-15
1e-15
1.00000123624e-15
1.00041551047e-15
1.00066245483e-15
1.00093966501e-15
1.00118595006e-15
1.00132017863e-15
1.00137496845e-15
1.00140351226e-15
1.00139232973e-15
1.00141191389e-15
1.00139232973e-15
1.0014087617e-15
1.00139232973e-15
1.00140282021e-15
1.00139216693e-15
1.00139526216e-15
1.00123739318e-15
1.00033378585e-15
1.00033948001e-15
1.00032338157e-15
1.00030718574e-15
1.0002814406e-15
1.0002565006e-15
1.00023075665e-15
1.00020885698e-15
1.00018556552e-15
1.0001666683e-15
1.00011790293e-15
1.00003204455e-15
1e-15
1e-15
1e-15
1e-15
1e-15
1e-15
1e-15
1e-15
1e-15
1e-15
1e-15
1e-15
1e-15
1e-15
1e-15
1e-15
1e-15
1e-15
1e-15
1e-15
1e-15
1e-15
1e-15
1e-15
1e-15
1e-15
1e-15
1e-15
1e-15
1e-15
1e-15
1e-15
1e-15
1e-15
1.00000114295e-15
1.00007251969e-15
1.00019134403e-15
1.00026517115e-15
1.00032302178e-15
1.00036551177e-15
1.00447434733e-15
1.0083790314e-15
1.00859240763e-15
1.0083790314e-15
1.00863757949e-15
1.0083790314e-15
1.00865569051e-15
1.0083790314e-15
1.00866092982e-15
1.0083790314e-15
1.00867006582e-15
1.0083790314e-15
1.00866414408e-15
1.0083790314e-15
1.00864952898e-15
1.0083790314e-15
1.00863690559e-15
1.0083790314e-15
1.00860014072e-15
1.0083790314e-15
1.00855698088e-15
1.0083790314e-15
1.00710770918e-15
1.00015642374e-15
1.00000331812e-15
1.00000341889e-15
1.00002430095e-15
1.02372181921e-15
1.02320645207e-15
1.02427444979e-15
1.00146222852e-15
1.00010141056e-15
1e-15
1e-15
1.00884614388e-15
1e-15
1e-15
1e-15
1e-15
1e-15
1e-15
1e-15
1e-15
1e-15
1e-15
1e-15
1e-15
1e-15
1e-15
1e-15
1e-15
1e-15
1e-15
1e-15
1e-15
1e-15
1e-15
1e-15
1e-15
1e-15
1e-15
1e-15
1e-15
1e-15
1e-15
1e-15
1e-15
1e-15
1e-15
1e-15
1e-15
1.00044696065e-15
1.00130733661e-15
1.00139238763e-15
1.00139232973e-15
1.00140670255e-15
1.00139232973e-15
1.00141272276e-15
1.00139232973e-15
1.00141721895e-15
1.00139232973e-15
1.0014199293e-15
1.00139232973e-15
1.00141323637e-15
1.00139232973e-15
1.00141076055e-15
1.00139232973e-15
1.0014084128e-15
1.00131044023e-15
1.00080974719e-15
1.00076080965e-15
1.00071737462e-15
1.00068256958e-15
1.00066023213e-15
1.00058628242e-15
1.00047914413e-15
1.00036064332e-15
1.00022684265e-15
1.00009256583e-15
1e-15
1e-15
1e-15
1e-15
1e-15
1e-15
1e-15
1e-15
1e-15
1e-15
1e-15
1e-15
1e-15
1e-15
1e-15
1e-15
1e-15
1e-15
1e-15
1e-15
1e-15
1e-15
1e-15
1e-15
1e-15
1e-15
1e-15
1e-15
1e-15
1e-15
1e-15
1e-15
1e-15
1e-15
1e-15
1e-15
1.00021333667e-15
1.00045087097e-15
1.00063020497e-15
1.0007729186e-15
1.0009692211e-15
1.0083790314e-15
1.00865552663e-15
1.0083790314e-15
1.00870423211e-15
1.0083790314e-15
1.00874118926e-15
1.0083790314e-15
1.00874602483e-15
1.0083790314e-15
1.00874622063e-15
1.0083790314e-15
1.00874612195e-15
1.0083790314e-15
1.00874570722e-15
1.0083790314e-15
1.00874526046e-15
1.0083790314e-15
1.00871455156e-15
1.0083790314e-15
1.00867821597e-15
1.0083790314e-15
1.00863525791e-15
1.0083790314e-15
1.00398092597e-15
1.00010418752e-15
1.00005115177e-15
1.00024674179e-15
1.02320645207e-15
1.02435406322e-15
1.02320645207e-15
1.00354160208e-15
1.0004554884e-15
1e-15
1e-15
1.01232174299e-15
1e-15
1e-15
1e-15
1e-15
1e-15
1e-15
1e-15
1e-15
1e-15
1e-15
1e-15
1e-15
1e-15
1e-15
1e-15
1e-15
1e-15
1e-15
1e-15
1e-15
1e-15
1e-15
1e-15
1e-15
1e-15
1e-15
1e-15
1e-15
1e-15
1e-15
1e-15
1e-15
1e-15
1e-15
1e-15
1.00026645738e-15
1.00117516623e-15
1.00139244036e-15
1.00139232973e-15
1.00139560929e-15
1.00139232973e-15
1.00140026299e-15
1.00139232973e-15
1.00140412409e-15
1.00139232973e-15
1.00140842697e-15
1.00139232973e-15
1.00140724875e-15
1.00139232973e-15
1.00140119156e-15
1.00139232973e-15
1.00139956226e-15
1.00139232973e-15
1.00139629577e-15
1.00122775542e-15
1.00117384524e-15
1.001069402e-15
1.00093182616e-15
1.00077438863e-15
1.00059751275e-15
1.00044409732e-15
1.00027510483e-15
1.00009463829e-15
1e-15
1e-15
1e-15
1e-15
1e-15
1e-15
1e-15
1e-15
1e-15
1e-15
1e-15
1e-15
1e-15
1e-15
1e-15
1e-15
1e-15
1e-15
1e-15
1e-15
1e-15
1e-15
1e-15
1e-15
1e-15
1e-15
1e-15
1e-15
1e-15
1e-15
1e-15
1e-15
1e-15
1e-15
1e-15
1e-15
1.00001739651e-15
1.00034713661e-15
1.00068765833e-15
1.00097926084e-15
1.00122434479e-15
1.00149643474e-15
1.00859476613e-15
1.0083790314e-15
1.00866248601e-15
1.0083790314e-15
1.00870496869e-15
1.0083790314e-15
1.00873421538e-15
1.0083790314e-15
1.00874593961e-15
1.0083790314e-15
1.0087459727e-15
1.0083790314e-15
1.0087457072e-15
1.0083790314e-15
1.00874186953e-15
1.0083790314e-15
1.00871813672e-15
1.0083790314e-15
1.00868649305e-15
1.0083790314e-15
1.00864866019e-15
1.0083790314e-15
1.00860673417e-15
1.0083790314e-15
1.00061403776e-15
1.00023342572e-15
1.00059959051e-15
1.02407072369e-15
1.02320645207e-15
1.0242186938e-15
1.00566183335e-15
1.00044108934e-15
1e-15
1e-15
1.00884614388e-15
1e-15
1e-15
1e-15
1e-15
1e-15
1e-15
1e-15
1e-15
1e-15
1e-15
1e-15
1e-15
1e-15
1e-15
1e-15
1e-15
1e-15
1e-15
1e-15
1e-15
1e-15
1e-15
1e-15
1e-15
1e-15
1e-15
1e-15
1e-15
1e-15
1e-15
1e-15
1e-15
1e-15
1e-15
1.00011372902e-15
1.00071627801e-15
1.00138228379e-15
1.00139176738e-15
1.00139427665e-15
1.00139232973e-15
1.00139697741e-15
1.00139232973e-15
1.0014004575e-15
1.00139232973e-15
1.00140224643e-15
1.00139232973e-15
1.00140760988e-15
1.00139232973e-15
1.00139787481e-15
1.00139232973e-15
1.00139713512e-15
1.00139232973e-15
1.00139554509e-15
1.00139232973e-15
1.00139216331e-15
1.00122330954e-15
1.00106233726e-15
1.00088641851e-15
1.00069001843e-15
1.00047372784e-15
1.00021979906e-15
1e-15
1e-15
1e-15
1e-15
1e-15
1e-15
1e-15
1e-15
1e-15
1e-15
1e-15
1e-15
1e-15
1e-15
1e-15
1e-15
1e-15
1e-15
1e-15
1e-15
1e-15
1e-15
1e-15
1e-15
1e-15
1e-15
1e-15
1e-15
1e-15
1e-15
1e-15
1e-15
1e-15
1e-15
1e-15
1e-15
1e-15
1e-15
1.00003874201e-15
1.00044277939e-15
1.00088403788e-15
1.00129381402e-15
1.0016290945e-15
1.00461683364e-15
1.0083790314e-15
1.00861934231e-15
1.0083790314e-15
1.00866465295e-15
1.0083790314e-15
1.00869943858e-15
1.0083790314e-15
1.00872314413e-15
1.0083790314e-15
1.00873509618e-15
1.0083790314e-15
1.00874203231e-15
1.0083790314e-15
1.00873333839e-15
1.0083790314e-15
1.00871535447e-15
1.0083790314e-15
1.0086880376e-15
1.0083790314e-15
1.00865682022e-15
1.0083790314e-15
1.00861817539e-15
1.0083790314e-15
1.00857787685e-15
1.00135407028e-15
1.00053984065e-15
1.00104748908e-15
1.02320645207e-15
1.02431893441e-15
1.02320645207e-15
1.00762989246e-15
1.0002587808e-15
1e-15
1e-15
1.01177400476e-15
1e-15
1e-15
1e-15
1e-15
1e-15
1e-15
1e-15
1e-15
1e-15
1e-15
1e-15
1e-15
1e-15
1e-15
1e-15
1e-15
1e-15
1e-15
1e-15
1e-15
1e-15
1e-15
1e-15
1e-15
1e-15
1e-15
1e-15
1e-15
1e-15
1e-15
1e-15
1e-15
1e-15
1.00001617593e-15
1.0004123996e-15
1.00102411537e-15
1.00138095206e-15
1.00138773271e-15
1.00139232973e-15
1.00139246756e-15
1.00139232973e-15
1.00139324047e-15
1.00139232973e-15
1.00139430359e-15
1.00139232973e-15
1.00139524115e-15
1.00139232973e-15
1.0013964456e-15
1.00139232973e-15
1.00139312612e-15
1.00139232973e-15
1.00139273679e-15
1.00139232973e-15
1.00139101434e-15
1.00135599903e-15
1.00115073211e-15
1.00094894414e-15
1.00070884233e-15
1.00042098279e-15
1.00012136259e-15
1e-15
1e-15
1e-15
1e-15
1e-15
1e-15
1e-15
1e-15
1e-15
1e-15
1e-15
1e-15
1e-15
1e-15
1e-15
1e-15
1e-15
1e-15
1e-15
1e-15
1e-15
1e-15
1e-15
1e-15
1e-15
1e-15
1e-15
1e-15
1e-15
1e-15
1e-15
1e-15
1e-15
1e-15
1e-15
1e-15
1e-15
1e-15
1e-15
1.00009723221e-15
1.00050946579e-15
1.00105166436e-15
1.00158929597e-15
1.00206785316e-15
1.0083790314e-15
1.00857359354e-15
1.0083790314e-15
1.00862312192e-15
1.0083790314e-15
1.00866233297e-15
1.0083790314e-15
1.00868976161e-15
1.0083790314e-15
1.00870587604e-15
1.0083790314e-15
1.00871702403e-15
1.0083790314e-15
1.00871753809e-15
1.0083790314e-15
1.00870592871e-15
1.0083790314e-15
1.00868567263e-15
1.0083790314e-15
1.0086583526e-15
1.0083790314e-15
1.00862497346e-15
1.0083790314e-15
1.00858639327e-15
1.0083790314e-15
1.00193374397e-15
1.00091327089e-15
1.00153738487e-15
1.02409616683e-15
1.02320645207e-15
1.02415458216e-15
1.00932316969e-15
1e-15
1e-15
1e-15
1.00884614388e-15
1e-15
1e-15
1e-15
1e-15
1e-15
1e-15
1e-15
1e-15
1e-15
1e-15
1e-15
1e-15
1e-15
1e-15
1e-15
1e-15
1e-15
1e-15
1e-15
1e-15
1e-15
1e-15
1e-15
1e-15
1e-15
1e-15
1e-15
1e-15
1e-15
1e-15
1e-15
1e-15
1e-15
1.00024321186e-15
1.00068753918e-15
1.00123213634e-15
1.00136440268e-15
1.00137512471e-15
1.00138632441e-15
1.00138843366e-15
1.00139271711e-15
1.00139202909e-15
1.00139320827e-15
1.00139232973e-15
1.0013935156e-15
1.00139232973e-15
1.0013966852e-15
1.00139232973e-15
1.00139227151e-15
1.00139003482e-15
1.00138986133e-15
1.00138546683e-15
1.00138027092e-15
1.0013531134e-15
1.00122587665e-15
1.00097367356e-15
1.00069191475e-15
1.00033100639e-15
1e-15
1e-15
1e-15
1e-15
1e-15
1e-15
1e-15
1e-15
1e-15
1e-15
1e-15
1e-15
1e-15
1e-15
1e-15
1e-15
1e-15
1e-15
1e-15
1e-15
1e-15
1e-15
1e-15
1e-15
1e-15
1e-15
1e-15
1e-15
1e-15
1e-15
1e-15
1e-15
1e-15
1e-15
1e-15
1e-15
1e-15
1e-15
1e-15
1e-15
1e-15
1.00008292128e-15
1.00059031514e-15
1.00127317941e-15
1.00190597449e-15
1.00254848179e-15
1.00851731818e-15
1.0083790314e-15
1.00858156284e-15
1.0083790314e-15
1.00862199648e-15
1.0083790314e-15
1.00865394486e-15
1.0083790314e-15
1.00867685842e-15
1.0083790314e-15
1.0086883155e-15
1.0083790314e-15
1.00869899172e-15
1.0083790314e-15
1.00869256243e-15
1.0083790314e-15
1.00867838192e-15
1.0083790314e-15
1.00865541148e-15
1.0083790314e-15
1.00862843148e-15
1.0083790314e-15
1.00859281036e-15
1.0083790314e-15
1.00855637798e-15
1.00561704227e-15
1.00136546844e-15
1.00203205165e-15
1.02320645207e-15
1.02426959157e-15
1.02320645207e-15
1.01074273611e-15
1e-15
1e-15
1e-15
1.01116049947e-15
1e-15
1e-15
1e-15
1e-15
1e-15
1e-15
1e-15
1e-15
1e-15
1e-15
1e-15
1e-15
1e-15
1e-15
1e-15
1e-15
1e-15
1e-15
1e-15
1e-15
1e-15
1e-15
1e-15
1e-15
1e-15
1e-15
1e-15
1e-15
1e-15
1e-15
1e-15
1e-15
1e-15
1.0003888831e-15
1.00086980286e-15
1.00127907001e-15
1.00133222926e-15
1.00134856699e-15
1.00136667057e-15
1.00137297978e-15
1.00138293066e-15
1.00138456218e-15
1.00138873093e-15
1.00138871106e-15
1.00139126402e-15
1.00139042826e-15
1.00139232973e-15
1.00139259872e-15
1.00138349138e-15
1.0013668057e-15
1.00136279098e-15
1.00135082037e-15
1.0013353644e-15
1.00125462352e-15
1.00100000954e-15
1.00067157663e-15
1.000271939e-15
1e-15
1e-15
1e-15
1e-15
1e-15
1e-15
1e-15
1e-15
1e-15
1e-15
1e-15
1e-15
1e-15
1e-15
1e-15
1e-15
1e-15
1e-15
1e-15
1e-15
1e-15
1e-15
1e-15
1e-15
1e-15
1e-15
1e-15
1e-15
1e-15
1e-15
1e-15
1e-15
1e-15
1e-15
1e-15
1e-15
1e-15
1e-15
1e-15
1e-15
1e-15
1e-15
1.00010941009e-15
1.00070152012e-15
1.00147612607e-15
1.00228028298e-15
1.00312195327e-15
1.0083790314e-15
1.0085378044e-15
1.0083790314e-15
1.00858182533e-15
1.0083790314e-15
1.00861702524e-15
1.0083790314e-15
1.00864232125e-15
1.0083790314e-15
1.00865803266e-15
1.0083790314e-15
1.00866908798e-15
1.0083790314e-15
1.00867345141e-15
1.0083790314e-15
1.00866487668e-15
1.0083790314e-15
1.00864849208e-15
1.0083790314e-15
1.00862503604e-15
1.0083790314e-15
1.00859510001e-15
1.0083790314e-15
1.00855995567e-15
1.0083790314e-15
1.00850896204e-15
1.00195381362e-15
1.00255443777e-15
1.02410452863e-15
1.02320645207e-15
1.02409220223e-15
1.01190475127e-15
1e-15
1e-15
1.01364382299e-15
1.00884614388e-15
1e-15
1e-15
1e-15
1e-15
1e-15
1e-15
1e-15
1e-15
1e-15
1e-15
1e-15
1e-15
1e-15
1e-15
1e-15
1e-15
1e-15
1e-15
1e-15
1e-15
1e-15
1e-15
1e-15
1e-15
1e-15
1e-15
1e-15
1e-15
1e-15
1e-15
1e-15
1e-15
1.00011759089e-15
1.00047522859e-15
1.00097018459e-15
1.00125340311e-15
1.00128540142e-15
1.00130565049e-15
1.00132805789e-15
1.00133938778e-15
1.00135483143e-15
1.00135927257e-15
1.00136819615e-15
1.00136902307e-15
1.0013743551e-15
1.00137266535e-15
1.00137855311e-15
1.00139130447e-15
1.00138359911e-15
1.00132227019e-15
1.0013130811e-15
1.0012849174e-15
1.00123440209e-15
1.00105178367e-15
1.00064768616e-15
1.00022564938e-15
1e-15
1e-15
1e-15
1e-15
1e-15
1e-15
1e-15
1e-15
1e-15
1e-15
1e-15
1e-15
1e-15
1e-15
1e-15
1e-15
1e-15
1e-15
1e-15
1e-15
1e-15
1e-15
1e-15
1e-15
1e-15
1e-15
1e-15
1e-15
1e-15
1e-15
1e-15
1e-15
1e-15
1e-15
1e-15
1e-15
1e-15
1e-15
1e-15
1e-15
1e-15
1e-15
1e-15
1.00019315284e-15
1.00084231583e-15
1.00174678624e-15
1.00267175615e-15
1.003574395e-15
1.0084962372e-15
1.0083790314e-15
1.00854204446e-15
1.0083790314e-15
1.00857735613e-15
1.0083790314e-15
1.00860619389e-15
1.0083790314e-15
1.00862744805e-15
1.0083790314e-15
1.00863861586e-15
1.0083790314e-15
1.00865080818e-15
1.0083790314e-15
1.00864789094e-15
1.0083790314e-15
1.00863649289e-15
1.0083790314e-15
1.0086173691e-15
1.0083790314e-15
1.00859437444e-15
1.0083790314e-15
1.00856263188e-15
1.0083790314e-15
1.00852846497e-15
1.0083790314e-15
1.00257064994e-15
1.00313913139e-15
1.02320645207e-15
1.02421990545e-15
1.02320645207e-15
1.01286297208e-15
1e-15
1e-15
1.01298708452e-15
1.01051585067e-15
1e-15
1e-15
1e-15
1e-15
1e-15
1e-15
1e-15
1e-15
1e-15
1e-15
1e-15
1e-15
1e-15
1e-15
1e-15
1e-15
1e-15
1e-15
1e-15
1e-15
1e-15
1e-15
1e-15
1e-15
1e-15
1e-15
1e-15
1e-15
1e-15
1e-15
1e-15
1e-15
1.00012707507e-15
1.00057149274e-15
1.00103448484e-15
1.00120231852e-15
1.00122792027e-15
1.00124824822e-15
1.00127201791e-15
1.00128712549e-15
1.00130567618e-15
1.00131408581e-15
1.00132687058e-15
1.00133045069e-15
1.00133848216e-15
1.00133793072e-15
1.00134649923e-15
1.00138493038e-15
1.00136058724e-15
1.00123869371e-15
1.0012136079e-15
1.00114475916e-15
1.0010020366e-15
1.00064823527e-15
1.00016397731e-15
1e-15
1e-15
1e-15
1e-15
1e-15
1e-15
1e-15
1e-15
1e-15
1e-15
1e-15
1e-15
1e-15
1e-15
1e-15
1e-15
1e-15
1e-15
1e-15
1e-15
1e-15
1e-15
1e-15
1e-15
1e-15
1e-15
1e-15
1e-15
1e-15
1e-15
1e-15
1e-15
1e-15
1e-15
1e-15
1e-15
1e-15
1e-15
1e-15
1e-15
1e-15
1e-15
1e-15
1e-15
1.00026848289e-15
1.00108171132e-15
1.00211135873e-15
1.00305716521e-15
1.00417966169e-15
1.0083790314e-15
1.00850202731e-15
1.0083790314e-15
1.00853880846e-15
1.0083790314e-15
1.0085700632e-15
1.0083790314e-15
1.00859294642e-15
1.0083790314e-15
1.00860761622e-15
1.0083790314e-15
1.00861726667e-15
1.0083790314e-15
1.00862629958e-15
1.0083790314e-15
1.0086202538e-15
1.0083790314e-15
1.0086069479e-15
1.0083790314e-15
1.00858711169e-15
1.0083790314e-15
1.0085617003e-15
1.0083790314e-15
1.0085291975e-15
1.0083790314e-15
1.0084959219e-15
1.00322867145e-15
1.00378312146e-15
1.02409999789e-15
1.02320645207e-15
1.02403830121e-15
1.01362916886e-15
1e-15
1e-15
1.01418839963e-15
1.00884614388e-15
1e-15
1e-15
1e-15
1e-15
1e-15
1e-15
1e-15
1e-15
1e-15
1e-15
1e-15
1e-15
1e-15
1e-15
1e-15
1e-15
1e-15
1e-15
1e-15
1e-15
1e-15
1e-15
1e-15
1e-15
1e-15
1e-15
1e-15
1e-15
1e-15
1e-15
1e-15
1e-15
1.00010351068e-15
1.00061597364e-15
1.00101381734e-15
1.00113905799e-15
1.00116480509e-15
1.0011842436e-15
1.00120731046e-15
1.00122337741e-15
1.00124275031e-15
1.00125407458e-15
1.00126871666e-15
1.00127495477e-15
1.00128377745e-15
1.00128420171e-15
1.00129344111e-15
1.00133021432e-15
1.00131116936e-15
1.00112176172e-15
1.00099309191e-15
1.00083056682e-15
1.00050123178e-15
1.00008640161e-15
1e-15
1e-15
1e-15
1e-15
1e-15
1e-15
1e-15
1e-15
1e-15
1e-15
1e-15
1e-15
1e-15
1e-15
1e-15
1e-15
1e-15
1e-15
1e-15
1e-15
1e-15
1e-15
1e-15
1e-15
1e-15
1e-15
1e-15
1e-15
1e-15
1e-15
1e-15
1e-15
1e-15
1e-15
1e-15
1e-15
1e-15
1e-15
1e-15
1e-15
1e-15
1e-15
1e-15
1e-15
1e-15
1.00034178531e-15
1.00133664047e-15
1.00245299344e-15
1.00357063354e-15
1.0076085686e-15
1.00846966463e-15
1.0083790314e-15
1.0085048962e-15
1.0083790314e-15
1.0085335694e-15
1.0083790314e-15
1.008557574e-15
1.0083790314e-15
1.00857709014e-15
1.0083790314e-15
1.00858787127e-15
1.0083790314e-15
1.00859891234e-15
1.0083790314e-15
1.00860078641e-15
1.0083790314e-15
1.00859211957e-15
1.0083790314e-15
1.00857650112e-15
1.0083790314e-15
1.00855727427e-15
1.0083790314e-15
1.00853014302e-15
1.0083790314e-15
1.00849794201e-15
1.0083790314e-15
1.00392847086e-15
1.00444589297e-15
1.02320645207e-15
1.02417441328e-15
1.02320645207e-15
1.01423296861e-15
1e-15
1e-15
1.01298708452e-15
1.00989406541e-15
1e-15
1e-15
1e-15
1e-15
1e-15
1e-15
1e-15
1e-15
1e-15
1e-15
1e-15
1e-15
1e-15
1e-15
1e-15
1e-15
1e-15
1e-15
1e-15
1e-15
1e-15
1e-15
1e-15
1e-15
1e-15
1e-15
1e-15
1e-15
1e-15
1e-15
1e-15
1e-15
1.00004332035e-15
1.00058296478e-15
1.00095137214e-15
1.00105802574e-15
1.00108757949e-15
1.00110914566e-15
1.00113254014e-15
1.00114937772e-15
1.0011692501e-15
1.00118145917e-15
1.00119544523e-15
1.00120161501e-15
1.00120966621e-15
1.00121050268e-15
1.00121375752e-15
1.00121585919e-15
1.0011566847e-15
1.00084949424e-15
1.00052669458e-15
1.00022176367e-15
1e-15
1e-15
1e-15
1e-15
1e-15
1e-15
1e-15
1e-15
1e-15
1e-15
1e-15
1e-15
1e-15
1e-15
1e-15
1e-15
1e-15
1e-15
1e-15
1e-15
1e-15
1e-15
1e-15
1e-15
1e-15
1e-15
1e-15
1e-15
1e-15
1e-15
1e-15
1e-15
1e-15
1e-15
1e-15
1e-15
1e-15
1e-15
1e-15
1e-15
1e-15
1e-15
1e-15
1e-15
1e-15
1e-15
1e-15
1.00041342601e-15
1.00158743246e-15
1.00279841715e-15
1.00421833359e-15
1.00843243621e-15
1.0083790314e-15
1.00847081087e-15
1.0083790314e-15
1.00850004611e-15
1.0083790314e-15
1.00852509656e-15
1.0083790314e-15
1.00854455376e-15
1.0083790314e-15
1.00855719377e-15
1.0083790314e-15
1.00856511649e-15
1.0083790314e-15
1.00857771279e-15
1.0083790314e-15
1.00857426132e-15
1.0083790314e-15
1.00856394293e-15
1.0083790314e-15
1.00854751904e-15
1.0083790314e-15
1.00852658915e-15
1.0083790314e-15
1.00849698127e-15
1.0083790314e-15
1.00846638805e-15
1.0046202264e-15
1.00507660641e-15
1.02408795372e-15
1.02320645207e-15
1.02399611097e-15
1.01468320761e-15
1e-15
1e-15
1.01432937717e-15
1.00884614388e-15
1e-15
1e-15
1e-15
1e-15
1e-15
1e-15
1e-15
1e-15
1e-15
1e-15
1e-15
1e-15
1e-15
1e-15
1e-15
1e-15
1e-15
1e-15
1e-15
1e-15
1e-15
1e-15
1e-15
1e-15
1e-15
1e-15
1e-15
1e-15
1e-15
1e-15
1e-15
1e-15
1e-15
1.00048406773e-15
1.00082559632e-15
1.0009284505e-15
1.00096317541e-15
1.0009881983e-15
1.00101290421e-15
1.00103075235e-15
1.00104913204e-15
1.00105868883e-15
1.00106474048e-15
1.00106482841e-15
1.00106951697e-15
1.00107060453e-15
1.00106474918e-15
1.00100295571e-15
1.00083174316e-15
1.00036303715e-15
1e-15
1e-15
1e-15
1e-15
1e-15
1e-15
1e-15
1e-15
1e-15
1e-15
1e-15
1e-15
1e-15
1e-15
1e-15
1e-15
1e-15
1e-15
1e-15
1e-15
1e-15
1e-15
1e-15
1e-15
1e-15
1e-15
1e-15
1e-15
1e-15
1e-15
1e-15
1e-15
1e-15
1e-15
1e-15
1e-15
1e-15
1e-15
1e-15
1e-15
1e-15
1e-15
1e-15
1e-15
1e-15
1e-15
1e-15
1e-15
1e-15
1.00050418716e-15
1.00184434512e-15
1.0031733693e-15
1.00491788051e-15
1.0083790314e-15
1.00844044459e-15
1.0083790314e-15
1.00846872835e-15
1.0083790314e-15
1.00849425707e-15
1.0083790314e-15
1.00851422228e-15
1.0083790314e-15
1.00852929282e-15
1.0083790314e-15
1.00853918361e-15
1.0083790314e-15
1.00854670009e-15
1.0083790314e-15
1.00855404336e-15
1.0083790314e-15
1.00854773952e-15
1.0083790314e-15
1.00853510599e-15
1.0083790314e-15
1.0085194988e-15
1.0083790314e-15
1.00849626941e-15
1.0083790314e-15
1.00846751851e-15
1.0083790314e-15
1.0052385829e-15
1.00563912873e-15
1.02320645207e-15
1.02413774001e-15
1.02320645207e-15
1.01501187747e-15
1e-15
1e-15
1.01298708452e-15
1.0093503754e-15
1e-15
1e-15
1e-15
1e-15
1e-15
1e-15
1e-15
1e-15
1e-15
1e-15
1e-15
1e-15
1e-15
1e-15
1e-15
1e-15
1e-15
1e-15
1e-15
1e-15
1e-15
1e-15
1e-15
1e-15
1e-15
1e-15
1e-15
1e-15
1e-15
1e-15
1e-15
1e-15
1e-15
1.00029470955e-15
1.00060567942e-15
1.0007036972e-15
1.00074045201e-15
1.000764412e-15
1.0007869814e-15
1.00080257891e-15
1.00081298355e-15
1.00081409243e-15
1.00080255063e-15
1.0007899532e-15
1.00078910718e-15
1.00078935263e-15
1.00076770889e-15
1.00060713707e-15
1.00027585346e-15
1.00000450416e-15
1e-15
1e-15
1e-15
1e-15
1e-15
1e-15
1e-15
1e-15
1e-15
1e-15
1e-15
1e-15
1e-15
1e-15
1e-15
1e-15
1e-15
1e-15
1e-15
1e-15
1e-15
1e-15
1e-15
1e-15
1e-15
1e-15
1e-15
1e-15
1e-15
1e-15
1e-15
1e-15
1e-15
1e-15
1e-15
1e-15
1e-15
1e-15
1e-15
1e-15
1e-15
1e-15
1e-15
1e-15
1e-15
1e-15
1e-15
1e-15
1e-15
1.00063165284e-15
1.00211982498e-15
1.00359016889e-15
1.00561547139e-15
1.00841314289e-15
1.0083790314e-15
1.00843933154e-15
1.0083790314e-15
1.00846355989e-15
1.0083790314e-15
1.00848462561e-15
1.0083790314e-15
1.00850157722e-15
1.0083790314e-15
1.00851257795e-15
1.0083790314e-15
1.00851843452e-15
1.0083790314e-15
1.00852833171e-15
1.0083790314e-15
1.0085294604e-15
1.0083790314e-15
1.00852193883e-15
1.0083790314e-15
1.00850871624e-15
1.0083790314e-15
1.0084914693e-15
1.0083790314e-15
1.00846582673e-15
1.0083790314e-15
1.00843864863e-15
1.0057487536e-15
1.00612234051e-15
1.02407356664e-15
1.02320645207e-15
1.02396711105e-15
1.01525343337e-15
1e-15
1e-15
1.01440658281e-15
1.00884542466e-15
1e-15
1e-15
1e-15
1e-15
1e-15
1e-15
1e-15
1e-15
1e-15
1e-15
1e-15
1e-15
1e-15
1e-15
1e-15
1e-15
1e-15
1e-15
1e-15
1e-15
1e-15
1e-15
1e-15
1e-15
1e-15
1e-15
1e-15
1e-15
1e-15
1e-15
1e-15
1e-15
1e-15
1e-15
1.00014427754e-15
1.00023687379e-15
1.00026518705e-15
1.00028208173e-15
1.0002926446e-15
1.00030155812e-15
1.00029173017e-15
1.00027496324e-15
1.00024253684e-15
1.00022230398e-15
1.00022168523e-15
1.00022593237e-15
1.00017729164e-15
1.00001765007e-15
1e-15
1e-15
1e-15
1e-15
1e-15
1e-15
1e-15
1e-15
1e-15
1e-15
1e-15
1e-15
1e-15
1e-15
1e-15
1e-15
1e-15
1e-15
1e-15
1e-15
1e-15
1e-15
1e-15
1e-15
1e-15
1e-15
1e-15
1e-15
1e-15
1e-15
1e-15
1e-15
1e-15
1e-15
1e-15
1e-15
1e-15
1e-15
1e-15
1e-15
1e-15
1e-15
1e-15
1e-15
1e-15
1e-15
1e-15
1e-15
1e-15
1e-15
1e-15
1.00078417559e-15
1.0024059927e-15
1.00403409591e-15
1.00626471321e-15
1.0083790314e-15
1.00841537606e-15
1.0083790314e-15
1.00843647841e-15
1.0083790314e-15
1.00845646316e-15
1.0083790314e-15
1.00847380903e-15
1.0083790314e-15
1.00848728257e-15
1.0083790314e-15
1.00849637408e-15
1.0083790314e-15
1.0085004941e-15
1.0083790314e-15
1.00851121608e-15
1.0083790314e-15
1.00850614327e-15
1.0083790314e-15
1.00849610193e-15
1.0083790314e-15
1.00848348458e-15
1.0083790314e-15
1.00846410427e-15
1.0083790314e-15
1.00843977717e-15
1.0083790314e-15
1.00616718304e-15
1.00654051239e-15
1.02320645207e-15
1.02411167016e-15
1.02320645207e-15
1.01542604018e-15
1e-15
1e-15
1.01298708452e-15
1.00897694541e-15
1e-15
1e-15
1e-15
1e-15
1e-15
1e-15
1e-15
1e-15
1e-15
1e-15
1e-15
1e-15
1e-15
1e-15
1e-15
1e-15
1e-15
1e-15
1e-15
1e-15
1e-15
1e-15
1e-15
1e-15
1e-15
1e-15
1e-15
1e-15
1e-15
1e-15
1e-15
1e-15
1e-15
1e-15
1e-15
1e-15
1e-15
1e-15
1e-15
1e-15
1e-15
1e-15
1e-15
1e-15
1e-15
1e-15
1e-15
1e-15
1e-15
1e-15
1e-15
1e-15
1e-15
1e-15
1e-15
1e-15
1e-15
1e-15
1e-15
1e-15
1e-15
1e-15
1e-15
1e-15
1e-15
1e-15
1e-15
1e-15
1e-15
1e-15
1e-15
1e-15
1e-15
1e-15
1e-15
1e-15
1e-15
1e-15
1e-15
1e-15
1e-15
1e-15
1e-15
1e-15
1e-15
1e-15
1e-15
1e-15
1e-15
1e-15
1e-15
1e-15
1e-15
1e-15
1e-15
1e-15
1e-15
1e-15
1e-15
1.00092726849e-15
1.00267524838e-15
1.00447717951e-15
1.00682214525e-15
1.00839575896e-15
1.0083790314e-15
1.00841335727e-15
1.0083790314e-15
1.00843147845e-15
1.0083790314e-15
1.00844810759e-15
1.0083790314e-15
1.008462078e-15
1.0083790314e-15
1.00847230921e-15
1.0083790314e-15
1.00847830925e-15
1.0083790314e-15
1.00848462093e-15
1.0083790314e-15
1.00849000904e-15
1.0083790314e-15
1.008484206e-15
1.0083790314e-15
1.00847327729e-15
1.0083790314e-15
1.00845909522e-15
1.0083790314e-15
1.00843825822e-15
1.0083790314e-15
1.00841494372e-15
1.00653027444e-15
1.00691076066e-15
1.02406000198e-15
1.02320645207e-15
1.02395123366e-15
1.01557672748e-15
1e-15
1e-15
1.01442391712e-15
1.00884467035e-15
1.00700535277e-15
1e-15
1e-15
1e-15
1e-15
1e-15
1e-15
1e-15
1e-15
1e-15
1e-15
1e-15
1e-15
1e-15
1e-15
1e-15
1e-15
1e-15
1e-15
1e-15
1e-15
1e-15
1e-15
1e-15
1e-15
1e-15
1e-15
1e-15
1e-15
1e-15
1e-15
1e-15
1e-15
1e-15
1e-15
1e-15
1e-15
1e-15
1e-15
1e-15
1e-15
1e-15
1e-15
1e-15
1e-15
1e-15
1e-15
1e-15
1e-15
1e-15
1e-15
1e-15
1e-15
1e-15
1e-15
1e-15
1e-15
1e-15
1e-15
1e-15
1e-15
1e-15
1e-15
1e-15
1e-15
1e-15
1e-15
1e-15
1e-15
1e-15
1e-15
1e-15
1e-15
1e-15
1e-15
1e-15
1e-15
1e-15
1e-15
1e-15
1e-15
1e-15
1e-15
1e-15
1e-15
1e-15
1e-15
1e-15
1e-15
1e-15
1e-15
1e-15
1e-15
1e-15
1e-15
1e-15
1e-15
1e-15
1e-15
1.00104469753e-15
1.00290413743e-15
1.00489702183e-15
1.00726000384e-15