/*--------------------------------*- C++ -*----------------------------------*\
| =========                 |                                                 |
| \\      /  F ield         | OpenFOAM: The Open Source CFD Toolbox           |
|  \\    /   O peration     | Version:  2206                                  |
|   \\  /    A nd           | Website:  www.openfoam.com                      |
|    \\/     M anipulation  |                                                 |
\*---------------------------------------------------------------------------*/
FoamFile
{
    version     2.0;
    format      ascii;
    arch        "LSB;label=64;scalar=64";
    class       volScalarField;
    location    "2.5/water";
    object      alpha.gas;
}
// * * * * * * * * * * * * * * * * * * * * * * * * * * * * * * * * * * * * * //

dimensions      [0 0 0 0 0 0 0];

internalField   nonuniform List<scalar> 
23300
(
1e-15
1e-15
1e-15
1e-15
1e-15
1e-15
1e-15
1e-15
1e-15
1e-15
1e-15
1e-15
1e-15
1e-15
1e-15
1e-15
1e-15
1e-15
1e-15
1e-15
1e-15
1e-15
1e-15
1e-15
1e-15
1e-15
1e-15
1e-15
1e-15
1e-15
1e-15
1e-15
1e-15
1e-15
1e-15
1e-15
1e-15
1e-15
1e-15
1e-15
1e-15
1e-15
1e-15
1e-15
1e-15
1e-15
1e-15
1e-15
1e-15
1e-15
1e-15
1e-15
1e-15
1e-15
1e-15
1e-15
1e-15
1e-15
1e-15
1e-15
1e-15
1e-15
1e-15
1e-15
1e-15
1e-15
1e-15
1e-15
1e-15
1e-15
1e-15
1e-15
1e-15
1e-15
1e-15
1e-15
1e-15
1e-15
1e-15
1e-15
1e-15
1e-15
1e-15
1e-15
1e-15
1e-15
1e-15
1e-15
1e-15
1e-15
1e-15
1e-15
1e-15
1e-15
1e-15
1e-15
1e-15
1e-15
1e-15
1e-15
1e-15
1e-15
1e-15
1e-15
1e-15
1e-15
1e-15
1e-15
1e-15
1e-15
1e-15
1e-15
1e-15
1e-15
1e-15
1e-15
1e-15
1e-15
1e-15
1e-15
1e-15
1e-15
1e-15
1e-15
1e-15
1e-15
1e-15
1e-15
1e-15
1e-15
1e-15
1e-15
1e-15
1e-15
1e-15
1e-15
1e-15
1e-15
1e-15
1e-15
1e-15
1e-15
1e-15
1e-15
1e-15
1e-15
1e-15
1e-15
1e-15
1e-15
1e-15
1e-15
1e-15
1e-15
1e-15
1e-15
1e-15
1e-15
1e-15
1e-15
1e-15
1e-15
1e-15
1e-15
1e-15
1e-15
1e-15
1e-15
1e-15
1e-15
1e-15
1e-15
1e-15
1e-15
1e-15
1e-15
1e-15
1e-15
1e-15
1e-15
1e-15
1e-15
1e-15
1e-15
1e-15
1e-15
1e-15
1e-15
1e-15
1e-15
1e-15
1e-15
1e-15
1e-15
1e-15
1e-15
1e-15
1e-15
1e-15
1e-15
1e-15
1e-15
1e-15
1e-15
1e-15
1e-15
1e-15
1e-15
1e-15
1e-15
1e-15
1e-15
1e-15
1e-15
1e-15
1e-15
1e-15
1e-15
1e-15
1e-15
1e-15
1e-15
1e-15
1e-15
1e-15
1e-15
1e-15
1e-15
1e-15
1e-15
1e-15
1e-15
1e-15
1e-15
1e-15
1e-15
1e-15
1e-15
1e-15
1e-15
1e-15
1e-15
1e-15
1e-15
1e-15
1e-15
1e-15
1e-15
1e-15
1e-15
1e-15
1e-15
1e-15
1e-15
1e-15
1e-15
1e-15
1e-15
1e-15
1e-15
1e-15
1e-15
1e-15
1e-15
1e-15
1e-15
1e-15
1e-15
1e-15
1e-15
1e-15
1e-15
1e-15
1e-15
1e-15
1e-15
1e-15
1e-15
1e-15
1e-15
1e-15
1e-15
1e-15
1e-15
1e-15
1e-15
1e-15
1e-15
1e-15
1e-15
1e-15
1e-15
1e-15
1e-15
1e-15
1e-15
1e-15
1e-15
1e-15
1e-15
1e-15
1e-15
1e-15
1e-15
1e-15
1e-15
1e-15
1e-15
1e-15
1e-15
1e-15
1e-15
1e-15
1e-15
1e-15
1e-15
1e-15
1e-15
1e-15
1e-15
1e-15
1e-15
1e-15
1e-15
1e-15
1e-15
1e-15
1e-15
1e-15
1e-15
1e-15
1e-15
1e-15
1e-15
1e-15
1e-15
1e-15
1e-15
1e-15
1e-15
1e-15
1e-15
1e-15
1e-15
1e-15
1e-15
1e-15
1e-15
1e-15
1e-15
1e-15
1e-15
1e-15
1e-15
1e-15
1e-15
1e-15
1e-15
1e-15
1e-15
1e-15
1e-15
1e-15
1e-15
1e-15
1e-15
1e-15
1e-15
1e-15
1e-15
1e-15
1e-15
1e-15
1e-15
1e-15
1e-15
1e-15
1e-15
1e-15
1e-15
1e-15
1e-15
1e-15
1e-15
1e-15
1e-15
1e-15
1e-15
1e-15
1e-15
1e-15
1e-15
1e-15
1e-15
1e-15
1e-15
1e-15
1e-15
1e-15
1e-15
1e-15
1e-15
1e-15
1e-15
1e-15
1e-15
1e-15
1e-15
1e-15
1e-15
1e-15
1e-15
1e-15
1e-15
1e-15
1e-15
1e-15
1e-15
1e-15
1e-15
1e-15
1e-15
1e-15
1e-15
1e-15
1e-15
1e-15
1e-15
1e-15
1e-15
1e-15
1e-15
1e-15
1e-15
1e-15
1e-15
1e-15
1e-15
1e-15
1e-15
1e-15
1e-15
1e-15
1e-15
1e-15
1e-15
1e-15
1e-15
1e-15
1e-15
1e-15
1e-15
1e-15
1e-15
1e-15
1e-15
1e-15
1e-15
1e-15
1e-15
1e-15
1e-15
1e-15
1e-15
1e-15
1e-15
1e-15
1e-15
1e-15
1e-15
1e-15
1e-15
1e-15
1e-15
1e-15
1e-15
1e-15
1e-15
1e-15
1e-15
1e-15
1e-15
1e-15
1e-15
1e-15
1e-15
1e-15
1e-15
1e-15
1e-15
1e-15
1e-15
1e-15
1e-15
1e-15
1e-15
1e-15
1e-15
1e-15
1e-15
1e-15
1e-15
1e-15
1e-15
1e-15
1e-15
1e-15
1e-15
1e-15
1e-15
1e-15
1e-15
1e-15
1e-15
1e-15
1e-15
1e-15
1e-15
1e-15
1e-15
1e-15
1e-15
1e-15
1e-15
1e-15
1e-15
1e-15
1e-15
1e-15
1e-15
1e-15
1e-15
1e-15
1e-15
1e-15
1e-15
1e-15
1e-15
1e-15
1e-15
1e-15
1e-15
1e-15
1e-15
1e-15
1e-15
1e-15
1e-15
1e-15
1e-15
1e-15
1e-15
1e-15
1e-15
1e-15
1e-15
1e-15
1e-15
1e-15
1e-15
1.00884614388e-15
1e-15
1e-15
1e-15
1e-15
1e-15
1e-15
1e-15
1e-15
1e-15
1e-15
1e-15
1e-15
1e-15
1e-15
1e-15
1e-15
1e-15
1e-15
1e-15
1e-15
1e-15
1e-15
1e-15
1e-15
1e-15
1e-15
1e-15
1e-15
1e-15
1e-15
1e-15
1e-15
1e-15
1e-15
1e-15
1e-15
1e-15
1e-15
1e-15
1e-15
1e-15
1e-15
1e-15
1e-15
1e-15
1e-15
1e-15
1e-15
1e-15
1e-15
1e-15
1e-15
1e-15
1e-15
1e-15
1e-15
1e-15
1e-15
1e-15
1e-15
1e-15
1e-15
1e-15
1e-15
1e-15
1e-15
1e-15
1e-15
1e-15
1e-15
1e-15
1e-15
1e-15
1e-15
1e-15
1e-15
1e-15
1e-15
1e-15
1e-15
1e-15
1e-15
1e-15
1e-15
1e-15
1e-15
1e-15
1e-15
1e-15
1e-15
1e-15
1e-15
1e-15
1e-15
1e-15
1e-15
1e-15
1e-15
1e-15
1e-15
1e-15
1e-15
1e-15
1e-15
1e-15
1e-15
1e-15
1e-15
1e-15
1e-15
1e-15
1e-15
1e-15
1e-15
1e-15
1e-15
1e-15
1e-15
1e-15
1e-15
1e-15
1e-15
1e-15
1e-15
1e-15
1e-15
1e-15
1e-15
1e-15
1e-15
1e-15
1e-15
1e-15
1.02393471957e-15
1.02320645207e-15
1e-15
1e-15
1e-15
1e-15
1.01280830536e-15
1e-15
1e-15
1e-15
1e-15
1e-15
1e-15
1e-15
1e-15
1e-15
1e-15
1e-15
1e-15
1e-15
1e-15
1e-15
1e-15
1e-15
1e-15
1e-15
1e-15
1e-15
1e-15
1e-15
1e-15
1e-15
1e-15
1e-15
1e-15
1e-15
1e-15
1e-15
1e-15
1e-15
1e-15
1e-15
1e-15
1e-15
1e-15
1e-15
1e-15
1e-15
1e-15
1e-15
1e-15
1e-15
1e-15
1e-15
1e-15
1e-15
1e-15
1e-15
1e-15
1e-15
1e-15
1e-15
1e-15
1e-15
1e-15
1e-15
1e-15
1e-15
1e-15
1e-15
1e-15
1e-15
1e-15
1e-15
1e-15
1e-15
1e-15
1e-15
1e-15
1e-15
1e-15
1e-15
1e-15
1e-15
1e-15
1e-15
1e-15
1e-15
1e-15
1e-15
1e-15
1e-15
1e-15
1e-15
1e-15
1e-15
1e-15
1e-15
1e-15
1e-15
1e-15
1e-15
1e-15
1e-15
1e-15
1e-15
1e-15
1e-15
1e-15
1e-15
1e-15
1e-15
1e-15
1e-15
1e-15
1e-15
1e-15
1e-15
1.0000475975e-15
1e-15
1.00007781797e-15
1e-15
1.00008583208e-15
1e-15
1.00006256709e-15
1e-15
1.00001504077e-15
1e-15
1e-15
1e-15
1e-15
1e-15
1e-15
1e-15
1e-15
1e-15
1e-15
1e-15
1e-15
1.00002223298e-15
1.02320645207e-15
1.02429794346e-15
1e-15
1e-15
1e-15
1e-15
1.00884614388e-15
1e-15
1e-15
1e-15
1e-15
1e-15
1e-15
1e-15
1e-15
1e-15
1e-15
1e-15
1e-15
1e-15
1e-15
1e-15
1e-15
1e-15
1e-15
1e-15
1e-15
1e-15
1e-15
1e-15
1e-15
1e-15
1e-15
1e-15
1e-15
1e-15
1e-15
1e-15
1e-15
1e-15
1e-15
1e-15
1e-15
1.0000015946e-15
1.00038678482e-15
1.00062507453e-15
1.00090701649e-15
1.00117694054e-15
1.00129886321e-15
1.00138625051e-15
1.00139232973e-15
1.00141213387e-15
1.00139232973e-15
1.00141251679e-15
1.00139232973e-15
1.00140748125e-15
1.00139232973e-15
1.00140474518e-15
1.00138506136e-15
1.00123546921e-15
1.00033246514e-15
1.00033761363e-15
1.00032231349e-15
1.00030535263e-15
1.0002804217e-15
1.00025479476e-15
1.00022980002e-15
1.00020704806e-15
1.00018428332e-15
1.0001647544e-15
1.00011716871e-15
1.0000303571e-15
1e-15
1e-15
1e-15
1e-15
1e-15
1e-15
1e-15
1e-15
1e-15
1e-15
1e-15
1e-15
1e-15
1e-15
1e-15
1e-15
1e-15
1e-15
1e-15
1e-15
1e-15
1e-15
1e-15
1e-15
1e-15
1e-15
1e-15
1e-15
1e-15
1e-15
1e-15
1e-15
1e-15
1e-15
1.00000141045e-15
1.0000731612e-15
1.00019233686e-15
1.00026562871e-15
1.00032383453e-15
1.00036592704e-15
1.00439780866e-15
1.00856274126e-15
1.0083790314e-15
1.00861661458e-15
1.0083790314e-15
1.00865516935e-15
1.0083790314e-15
1.00865766677e-15
1.0083790314e-15
1.00866794902e-15
1.0083790314e-15
1.00867135361e-15
1.0083790314e-15
1.00865889214e-15
1.0083790314e-15
1.00864862128e-15
1.0083790314e-15
1.00862256324e-15
1.0083790314e-15
1.00858357771e-15
1.0083790314e-15
1.0085368448e-15
1.00702402085e-15
1.00015871886e-15
1.00000317132e-15
1.00000319228e-15
1.00002550882e-15
1.02320517877e-15
1.02436200382e-15
1.02320645207e-15
1.00146755705e-15
1.00010534662e-15
1e-15
1e-15
1.01259136386e-15
1e-15
1e-15
1e-15
1e-15
1e-15
1e-15
1e-15
1e-15
1e-15
1e-15
1e-15
1e-15
1e-15
1e-15
1e-15
1e-15
1e-15
1e-15
1e-15
1e-15
1e-15
1e-15
1e-15
1e-15
1e-15
1e-15
1e-15
1e-15
1e-15
1e-15
1e-15
1e-15
1e-15
1e-15
1e-15
1e-15
1.00042395879e-15
1.00129267508e-15
1.00139055341e-15
1.00140405845e-15
1.00139232973e-15
1.00141189248e-15
1.00139232973e-15
1.00141682358e-15
1.00139232973e-15
1.0014193379e-15
1.00139232973e-15
1.00141858658e-15
1.00139232973e-15
1.00141400488e-15
1.00139232973e-15
1.00141097662e-15
1.00139232973e-15
1.00130480486e-15
1.00080456857e-15
1.00075660407e-15
1.00071281357e-15
1.00067855798e-15
1.0006553946e-15
1.00058364977e-15
1.00047652623e-15
1.00035891144e-15
1.00022464257e-15
1.00009089643e-15
1e-15
1e-15
1e-15
1e-15
1e-15
1e-15
1e-15
1e-15
1e-15
1e-15
1e-15
1e-15
1e-15
1e-15
1e-15
1e-15
1e-15
1e-15
1e-15
1e-15
1e-15
1e-15
1e-15
1e-15
1e-15
1e-15
1e-15
1e-15
1e-15
1e-15
1e-15
1e-15
1e-15
1e-15
1e-15
1e-15
1.00021352088e-15
1.00045194133e-15
1.00063079438e-15
1.00077374899e-15
1.00096875286e-15
1.0085725456e-15
1.0083790314e-15
1.00868083096e-15
1.0083790314e-15
1.00872512316e-15
1.0083790314e-15
1.00874653386e-15
1.0083790314e-15
1.0087469128e-15
1.0083790314e-15
1.00874695974e-15
1.0083790314e-15
1.00874670217e-15
1.0083790314e-15
1.00874619988e-15
1.0083790314e-15
1.00873440885e-15
1.0083790314e-15
1.00870034295e-15
1.0083790314e-15
1.00865961306e-15
1.0083790314e-15
1.00861244229e-15
1.00392524347e-15
1.00010666092e-15
1.00005345637e-15
1.00024737614e-15
1.02405140341e-15
1.02320645207e-15
1.02425176924e-15
1.00353680322e-15
1.00045584583e-15
1e-15
1e-15
1.00884614388e-15
1e-15
1e-15
1e-15
1e-15
1e-15
1e-15
1e-15
1e-15
1e-15
1e-15
1e-15
1e-15
1e-15
1e-15
1e-15
1e-15
1e-15
1e-15
1e-15
1e-15
1e-15
1e-15
1e-15
1e-15
1e-15
1e-15
1e-15
1e-15
1e-15
1e-15
1e-15
1e-15
1e-15
1e-15
1e-15
1.0002592661e-15
1.0011564314e-15
1.00139232973e-15
1.00139787191e-15
1.00139232973e-15
1.0014030312e-15
1.00139232973e-15
1.00140719515e-15
1.00139232973e-15
1.0014098769e-15
1.00139232973e-15
1.00141613059e-15
1.00139232973e-15
1.00140468369e-15
1.00139232973e-15
1.00140333979e-15
1.00139232973e-15
1.00140079045e-15
1.00139232973e-15
1.00122386378e-15
1.00117109925e-15
1.00106704295e-15
1.00093071867e-15
1.00077316325e-15
1.00059614813e-15
1.00044223667e-15
1.00027403775e-15
1.00009295879e-15
1e-15
1e-15
1e-15
1e-15
1e-15
1e-15
1e-15
1e-15
1e-15
1e-15
1e-15
1e-15
1e-15
1e-15
1e-15
1e-15
1e-15
1e-15
1e-15
1e-15
1e-15
1e-15
1e-15
1e-15
1e-15
1e-15
1e-15
1e-15
1e-15
1e-15
1e-15
1e-15
1e-15
1e-15
1e-15
1e-15
1.00001771101e-15
1.00034729977e-15
1.00068924116e-15
1.00098035841e-15
1.0012255089e-15
1.00150041215e-15
1.0083790314e-15
1.00863728668e-15
1.0083790314e-15
1.00868425784e-15
1.0083790314e-15
1.00872040236e-15
1.0083790314e-15
1.00874487695e-15
1.0083790314e-15
1.0087467178e-15
1.0083790314e-15
1.00874662804e-15
1.0083790314e-15
1.00874619988e-15
1.0083790314e-15
1.00873408125e-15
1.0083790314e-15
1.0087053676e-15
1.0083790314e-15
1.00867166468e-15
1.0083790314e-15
1.00862921263e-15
1.0083790314e-15
1.00855553883e-15
1.00061440344e-15
1.0002346911e-15
1.00059986559e-15
1.02320645207e-15
1.02434377362e-15
1.02320645207e-15
1.00566574704e-15
1.00044112262e-15
1e-15
1e-15
1.01207665053e-15
1e-15
1e-15
1e-15
1e-15
1e-15
1e-15
1e-15
1e-15
1e-15
1e-15
1e-15
1e-15
1e-15
1e-15
1e-15
1e-15
1e-15
1e-15
1e-15
1e-15
1e-15
1e-15
1e-15
1e-15
1e-15
1e-15
1e-15
1e-15
1e-15
1e-15
1e-15
1e-15
1e-15
1e-15
1.00010407799e-15
1.00070765579e-15
1.00138107238e-15
1.00139341398e-15
1.00139232973e-15
1.00139690074e-15
1.00139232973e-15
1.001400605e-15
1.00139232973e-15
1.00140298573e-15
1.00139232973e-15
1.00140507264e-15
1.00139232973e-15
1.00140547643e-15
1.00139232973e-15
1.00139824545e-15
1.00139232973e-15
1.00139700685e-15
1.00139232973e-15
1.00139412655e-15
1.00139232973e-15
1.00122377592e-15
1.00106115788e-15
1.0008863896e-15
1.00068967833e-15
1.00047355715e-15
1.00021933929e-15
1e-15
1e-15
1e-15
1e-15
1e-15
1e-15
1e-15
1e-15
1e-15
1e-15
1e-15
1e-15
1e-15
1e-15
1e-15
1e-15
1e-15
1e-15
1e-15
1e-15
1e-15
1e-15
1e-15
1e-15
1e-15
1e-15
1e-15
1e-15
1e-15
1e-15
1e-15
1e-15
1e-15
1e-15
1e-15
1e-15
1e-15
1e-15
1.00003899807e-15
1.00044442941e-15
1.00088692558e-15
1.00129598481e-15
1.00163124541e-15
1.00456213984e-15
1.00858802565e-15
1.0083790314e-15
1.00864290371e-15
1.0083790314e-15
1.00868382155e-15
1.0083790314e-15
1.00871241438e-15
1.0083790314e-15
1.00872920396e-15
1.0083790314e-15
1.00873963886e-15
1.0083790314e-15
1.00873847177e-15
1.0083790314e-15
1.00872624966e-15
1.0083790314e-15
1.00870488844e-15
1.0083790314e-15
1.0086754367e-15
1.0083790314e-15
1.00863886186e-15
1.0083790314e-15
1.00859751853e-15
1.0083790314e-15
1.00135481356e-15
1.00054004337e-15
1.00104744805e-15
1.02408988425e-15
1.02320645207e-15
1.02419019763e-15
1.0076244572e-15
1.00025856776e-15
1e-15
1e-15
1.00884614388e-15
1e-15
1e-15
1e-15
1e-15
1e-15
1e-15
1e-15
1e-15
1e-15
1e-15
1e-15
1e-15
1e-15
1e-15
1e-15
1e-15
1e-15
1e-15
1e-15
1e-15
1e-15
1e-15
1e-15
1e-15
1e-15
1e-15
1e-15
1e-15
1e-15
1e-15
1e-15
1e-15
1e-15
1.00000756536e-15
1.00040082321e-15
1.00101883575e-15
1.00138030161e-15
1.00138942376e-15
1.00139301242e-15
1.00139232973e-15
1.00139469074e-15
1.00139232973e-15
1.00139613626e-15
1.00139232973e-15
1.00139696929e-15
1.00139232973e-15
1.00140181977e-15
1.00139232973e-15
1.00139430213e-15
1.00139232973e-15
1.00139354657e-15
1.00139232973e-15
1.00139296888e-15
1.00139224453e-15
1.00135597034e-15
1.00115134854e-15
1.00094917054e-15
1.00070987744e-15
1.00042185706e-15
1.00012273447e-15
1e-15
1e-15
1e-15
1e-15
1e-15
1e-15
1e-15
1e-15
1e-15
1e-15
1e-15
1e-15
1e-15
1e-15
1e-15
1e-15
1e-15
1e-15
1e-15
1e-15
1e-15
1e-15
1e-15
1e-15
1e-15
1e-15
1e-15
1e-15
1e-15
1e-15
1e-15
1e-15
1e-15
1e-15
1e-15
1e-15
1e-15
1e-15
1e-15
1.00009782442e-15
1.00051230796e-15
1.00105518751e-15
1.00159202329e-15
1.00206999265e-15
1.00849817653e-15
1.0083790314e-15
1.00859991446e-15
1.0083790314e-15
1.00864267199e-15
1.0083790314e-15
1.00867618185e-15
1.0083790314e-15
1.00869968348e-15
1.0083790314e-15
1.00871146974e-15
1.0083790314e-15
1.00872101708e-15
1.0083790314e-15
1.00871342893e-15
1.0083790314e-15
1.00869786067e-15
1.0083790314e-15
1.00867349267e-15
1.0083790314e-15
1.00864436518e-15
1.0083790314e-15
1.00860635271e-15
1.0083790314e-15
1.00856742422e-15
1.00193367884e-15
1.00091422973e-15
1.00153939685e-15
1.02320645207e-15
1.0242988415e-15
1.02320645207e-15
1.00932798711e-15
1e-15
1e-15
1e-15
1.01148950895e-15
1e-15
1e-15
1e-15
1e-15
1e-15
1e-15
1e-15
1e-15
1e-15
1e-15
1e-15
1e-15
1e-15
1e-15
1e-15
1e-15
1e-15
1e-15
1e-15
1e-15
1e-15
1e-15
1e-15
1e-15
1e-15
1e-15
1e-15
1e-15
1e-15
1e-15
1e-15
1e-15
1e-15
1.00022891675e-15
1.00068011432e-15
1.00122659025e-15
1.00136299946e-15
1.00137531201e-15
1.00138629416e-15
1.00139009775e-15
1.00139232973e-15
1.00139333416e-15
1.00139232973e-15
1.00139369372e-15
1.00139232973e-15
1.00139391821e-15
1.00139232973e-15
1.0013963818e-15
1.00139232973e-15
1.00139133036e-15
1.00138981493e-15
1.00138573626e-15
1.00137910793e-15
1.00135240715e-15
1.00122579172e-15
1.00097395388e-15
1.00069217983e-15
1.00033143966e-15
1e-15
1e-15
1e-15
1e-15
1e-15
1e-15
1e-15
1e-15
1e-15
1e-15
1e-15
1e-15
1e-15
1e-15
1e-15
1e-15
1e-15
1e-15
1e-15
1e-15
1e-15
1e-15
1e-15
1e-15
1e-15
1e-15
1e-15
1e-15
1e-15
1e-15
1e-15
1e-15
1e-15
1e-15
1e-15
1e-15
1e-15
1e-15
1e-15
1e-15
1e-15
1.00008368489e-15
1.00059364066e-15
1.00127577447e-15
1.00190795099e-15
1.0025531129e-15
1.0083790314e-15
1.0085562588e-15
1.0083790314e-15
1.00860262002e-15
1.0083790314e-15
1.00863971755e-15
1.0083790314e-15
1.00866624576e-15
1.0083790314e-15
1.00868230464e-15
1.0083790314e-15
1.00869351038e-15
1.0083790314e-15
1.00869588309e-15
1.0083790314e-15
1.00868633934e-15
1.0083790314e-15
1.00866839202e-15
1.0083790314e-15
1.00864299853e-15
1.0083790314e-15
1.00861138473e-15
1.0083790314e-15
1.00857331062e-15
1.0083790314e-15
1.00568909818e-15
1.00136883709e-15
1.00203594547e-15
1.02410574626e-15
1.02320645207e-15
1.02412592399e-15
1.01073975965e-15
1e-15
1e-15
1e-15
1.00884614388e-15
1e-15
1e-15
1e-15
1e-15
1e-15
1e-15
1e-15
1e-15
1e-15
1e-15
1e-15
1e-15
1e-15
1e-15
1e-15
1e-15
1e-15
1e-15
1e-15
1e-15
1e-15
1e-15
1e-15
1e-15
1e-15
1e-15
1e-15
1e-15
1e-15
1e-15
1e-15
1e-15
1e-15
1.00038175788e-15
1.0008637762e-15
1.0012745173e-15
1.00132926491e-15
1.00134711116e-15
1.00136493355e-15
1.00137266479e-15
1.00138225127e-15
1.00138509385e-15
1.00138883827e-15
1.00138985797e-15
1.00139188404e-15
1.00139179001e-15
1.0013935934e-15
1.00139232973e-15
1.0013821592e-15
1.0013658902e-15
1.0013609454e-15
1.00134930685e-15
1.00133256052e-15
1.0012520264e-15
1.00099907007e-15
1.00067107514e-15
1.00027107144e-15
1e-15
1e-15
1e-15
1e-15
1e-15
1e-15
1e-15
1e-15
1e-15
1e-15
1e-15
1e-15
1e-15
1e-15
1e-15
1e-15
1e-15
1e-15
1e-15
1e-15
1e-15
1e-15
1e-15
1e-15
1e-15
1e-15
1e-15
1e-15
1e-15
1e-15
1e-15
1e-15
1e-15
1e-15
1e-15
1e-15
1e-15
1e-15
1e-15
1e-15
1e-15
1e-15
1.00011070032e-15
1.00070335924e-15
1.00147661844e-15
1.00228130937e-15
1.00312273265e-15
1.008508553e-15
1.0083790314e-15
1.0085619682e-15
1.0083790314e-15
1.00859954869e-15
1.0083790314e-15
1.00862968449e-15
1.0083790314e-15
1.00865156567e-15
1.0083790314e-15
1.00866292781e-15
1.0083790314e-15
1.00867461752e-15
1.0083790314e-15
1.00866988472e-15
1.0083790314e-15
1.00865726502e-15
1.0083790314e-15
1.00863671119e-15
1.0083790314e-15
1.00861174642e-15
1.0083790314e-15
1.00857869624e-15
1.0083790314e-15
1.00854222783e-15
1.0083790314e-15
1.00195971981e-15
1.00255862001e-15
1.02320645207e-15
1.02424889826e-15
1.02320645207e-15
1.01190890712e-15
1e-15
1e-15
1.01298708452e-15
1.01085928335e-15
1e-15
1e-15
1e-15
1e-15
1e-15
1e-15
1e-15
1e-15
1e-15
1e-15
1e-15
1e-15
1e-15
1e-15
1e-15
1e-15
1e-15
1e-15
1e-15
1e-15
1e-15
1e-15
1e-15
1e-15
1e-15
1e-15
1e-15
1e-15
1e-15
1e-15
1e-15
1e-15
1.00008727081e-15
1.00046842549e-15
1.00096281663e-15
1.00124810629e-15
1.00128045681e-15
1.00130222802e-15
1.0013244288e-15
1.00133710155e-15
1.00135211751e-15
1.00135780887e-15
1.00136615317e-15
1.00136806526e-15
1.00137268133e-15
1.00137188953e-15
1.00137715831e-15
1.0013928546e-15
1.00138200491e-15
1.00131931381e-15
1.00130924532e-15
1.0012817416e-15
1.00123065931e-15
1.00104907146e-15
1.0006459479e-15
1.00022483634e-15
1e-15
1e-15
1e-15
1e-15
1e-15
1e-15
1e-15
1e-15
1e-15
1e-15
1e-15
1e-15
1e-15
1e-15
1e-15
1e-15
1e-15
1e-15
1e-15
1e-15
1e-15
1e-15
1e-15
1e-15
1e-15
1e-15
1e-15
1e-15
1e-15
1e-15
1e-15
1e-15
1e-15
1e-15
1e-15
1e-15
1e-15
1e-15
1e-15
1e-15
1e-15
1e-15
1e-15
1.00019482537e-15
1.00084200849e-15
1.00174653237e-15
1.00267183935e-15
1.00357790278e-15
1.0083790314e-15
1.00852111858e-15
1.0083790314e-15
1.00856148472e-15
1.0083790314e-15
1.00859404647e-15
1.0083790314e-15
1.00861774473e-15
1.0083790314e-15
1.00863283474e-15
1.0083790314e-15
1.00864321781e-15
1.0083790314e-15
1.00864994325e-15
1.0083790314e-15
1.00864266566e-15
1.0083790314e-15
1.00862795181e-15
1.0083790314e-15
1.00860628327e-15
1.0083790314e-15
1.00857948305e-15
1.0083790314e-15
1.00854448301e-15
1.0083790314e-15
1.00851090605e-15
1.00257510929e-15
1.00314101589e-15
1.02410703816e-15
1.02320645207e-15
1.02406702336e-15
1.01285921082e-15
1e-15
1e-15
1.01408932972e-15
1.00884614388e-15
1e-15
1e-15
1e-15
1e-15
1e-15
1e-15
1e-15
1e-15
1e-15
1e-15
1e-15
1e-15
1e-15
1e-15
1e-15
1e-15
1e-15
1e-15
1e-15
1e-15
1e-15
1e-15
1e-15
1e-15
1e-15
1e-15
1e-15
1e-15
1e-15
1e-15
1e-15
1e-15
1.00011657019e-15
1.00056259948e-15
1.00102465964e-15
1.00119496402e-15
1.00122046238e-15
1.00124239321e-15
1.00126607125e-15
1.00128255064e-15
1.00130081293e-15
1.00131041988e-15
1.00132273635e-15
1.00132737334e-15
1.0013347942e-15
1.00133509375e-15
1.00134358264e-15
1.00138501486e-15
1.00135760769e-15
1.00123447532e-15
1.00120916764e-15
1.00114186213e-15
1.00099991381e-15
1.00064741348e-15
1.00016244163e-15
1e-15
1e-15
1e-15
1e-15
1e-15
1e-15
1e-15
1e-15
1e-15
1e-15
1e-15
1e-15
1e-15
1e-15
1e-15
1e-15
1e-15
1e-15
1e-15
1e-15
1e-15
1e-15
1e-15
1e-15
1e-15
1e-15
1e-15
1e-15
1e-15
1e-15
1e-15
1e-15
1e-15
1e-15
1e-15
1e-15
1e-15
1e-15
1e-15
1e-15
1e-15
1e-15
1e-15
1e-15
1.00027041751e-15
1.0010808718e-15
1.00211156919e-15
1.00305671903e-15
1.00417512231e-15
1.00848474891e-15
1.0083790314e-15
1.00852402743e-15
1.0083790314e-15
1.00855547259e-15
1.0083790314e-15
1.00858203661e-15
1.0083790314e-15
1.0086020928e-15
1.0083790314e-15
1.00861275763e-15
1.0083790314e-15
1.00862447388e-15
1.0083790314e-15
1.00862376112e-15
1.0083790314e-15
1.00861378765e-15
1.0083790314e-15
1.00859648079e-15
1.0083790314e-15
1.00857547731e-15
1.0083790314e-15
1.00854650913e-15
1.0083790314e-15
1.00851332364e-15
1.0083790314e-15
1.00323049786e-15
1.0037831901e-15
1.02320645207e-15
1.02420072034e-15
1.02320645207e-15
1.01363081539e-15
1e-15
1e-15
1.01298708452e-15
1.01021321672e-15
1e-15
1e-15
1e-15
1e-15
1e-15
1e-15
1e-15
1e-15
1e-15
1e-15
1e-15
1e-15
1e-15
1e-15
1e-15
1e-15
1e-15
1e-15
1e-15
1e-15
1e-15
1e-15
1e-15
1e-15
1e-15
1e-15
1e-15
1e-15
1e-15
1e-15
1e-15
1e-15
1.00009255872e-15
1.00060650158e-15
1.00100277012e-15
1.00112898549e-15
1.00115448492e-15
1.00117544388e-15
1.00119848914e-15
1.0012160133e-15
1.00123523725e-15
1.00124783896e-15
1.00126217647e-15
1.00126953837e-15
1.00127787751e-15
1.00127917645e-15
1.00128854113e-15
1.0013278203e-15
1.00130786312e-15
1.00111927549e-15
1.00099116941e-15
1.00083124702e-15
1.00050239572e-15
1.00008668249e-15
1e-15
1e-15
1e-15
1e-15
1e-15
1e-15
1e-15
1e-15
1e-15
1e-15
1e-15
1e-15
1e-15
1e-15
1e-15
1e-15
1e-15
1e-15
1e-15
1e-15
1e-15
1e-15
1e-15
1e-15
1e-15
1e-15
1e-15
1e-15
1e-15
1e-15
1e-15
1e-15
1e-15
1e-15
1e-15
1e-15
1e-15
1e-15
1e-15
1e-15
1e-15
1e-15
1e-15
1e-15
1e-15
1.00034421165e-15
1.00133640591e-15
1.00245383388e-15
1.00356933633e-15
1.00761388175e-15
1.0083790314e-15
1.008489061e-15
1.0083790314e-15
1.00852065163e-15
1.0083790314e-15
1.00854870546e-15
1.0083790314e-15
1.00856920337e-15
1.0083790314e-15
1.00858274471e-15
1.0083790314e-15
1.00859122554e-15
1.0083790314e-15
1.00860227876e-15
1.0083790314e-15
1.00859711608e-15
1.0083790314e-15
1.00858536483e-15
1.0083790314e-15
1.00856721414e-15
1.0083790314e-15
1.00854440888e-15
1.0083790314e-15
1.00851326868e-15
1.0083790314e-15
1.00848248157e-15
1.00392688174e-15
1.00444520662e-15
1.02409854108e-15
1.02320645207e-15
1.0240187963e-15
1.01422939071e-15
1e-15
1e-15
1.01427162088e-15
1.00884614388e-15
1e-15
1e-15
1e-15
1e-15
1e-15
1e-15
1e-15
1e-15
1e-15
1e-15
1e-15
1e-15
1e-15
1e-15
1e-15
1e-15
1e-15
1e-15
1e-15
1e-15
1e-15
1e-15
1e-15
1e-15
1e-15
1e-15
1e-15
1e-15
1e-15
1e-15
1e-15
1e-15
1.00003013628e-15
1.00057296793e-15
1.0009388286e-15
1.00104568611e-15
1.00107487566e-15
1.00109777924e-15
1.00112112841e-15
1.0011394283e-15
1.00115923824e-15
1.00117286067e-15
1.00118677251e-15
1.00119428187e-15
1.00120204678e-15
1.00120389475e-15
1.00120710874e-15
1.00121182316e-15
1.00115631453e-15
1.00085149456e-15
1.00052907323e-15
1.00022419344e-15
1e-15
1e-15
1e-15
1e-15
1e-15
1e-15
1e-15
1e-15
1e-15
1e-15
1e-15
1e-15
1e-15
1e-15
1e-15
1e-15
1e-15
1e-15
1e-15
1e-15
1e-15
1e-15
1e-15
1e-15
1e-15
1e-15
1e-15
1e-15
1e-15
1e-15
1e-15
1e-15
1e-15
1e-15
1e-15
1e-15
1e-15
1e-15
1e-15
1e-15
1e-15
1e-15
1e-15
1e-15
1e-15
1e-15
1e-15
1.00041585819e-15
1.00158750525e-15
1.00279896741e-15
1.00421759775e-15
1.0083790314e-15
1.00845669851e-15
1.0083790314e-15
1.0084883045e-15
1.0083790314e-15
1.00851548796e-15
1.0083790314e-15
1.00853598252e-15
1.0083790314e-15
1.00855326442e-15
1.0083790314e-15
1.00856321381e-15
1.0083790314e-15
1.00857267958e-15
1.0083790314e-15
1.00857716785e-15
1.0083790314e-15
1.00856941259e-15
1.0083790314e-15
1.00855517196e-15
1.0083790314e-15
1.00853781876e-15
1.0083790314e-15
1.00851282523e-15
1.0083790314e-15
1.00848339328e-15
1.0083790314e-15
1.00461839171e-15
1.00507686941e-15
1.02320645207e-15
1.02415839685e-15
1.02320645207e-15
1.01468426704e-15
1e-15
1e-15
1.01298708452e-15
1.0096226695e-15
1e-15
1e-15
1e-15
1e-15
1e-15
1e-15
1e-15
1e-15
1e-15
1e-15
1e-15
1e-15
1e-15
1e-15
1e-15
1e-15
1e-15
1e-15
1e-15
1e-15
1e-15
1e-15
1e-15
1e-15
1e-15
1e-15
1e-15
1e-15
1e-15
1e-15
1e-15
1e-15
1e-15
1.00047317184e-15
1.00081248771e-15
1.00091534473e-15
1.00094972583e-15
1.00097608489e-15
1.00100080723e-15
1.00102016351e-15
1.00103871117e-15
1.00104987879e-15
1.00105637417e-15
1.00105822378e-15
1.00106302913e-15
1.00106521721e-15
1.00105921112e-15
1.00100009891e-15
1.00083403398e-15
1.00036565924e-15
1e-15
1e-15
1e-15
1e-15
1e-15
1e-15
1e-15
1e-15
1e-15
1e-15
1e-15
1e-15
1e-15
1e-15
1e-15
1e-15
1e-15
1e-15
1e-15
1e-15
1e-15
1e-15
1e-15
1e-15
1e-15
1e-15
1e-15
1e-15
1e-15
1e-15
1e-15
1e-15
1e-15
1e-15
1e-15
1e-15
1e-15
1e-15
1e-15
1e-15
1e-15
1e-15
1e-15
1e-15
1e-15
1e-15
1e-15
1e-15
1e-15
1.00050558916e-15
1.00184385007e-15
1.00317276231e-15
1.00491564642e-15
1.0084260936e-15
1.0083790314e-15
1.00845702372e-15
1.0083790314e-15
1.00848421768e-15
1.0083790314e-15
1.00850696666e-15
1.0083790314e-15
1.00852514957e-15
1.0083790314e-15
1.00853553441e-15
1.0083790314e-15
1.00854254052e-15
1.0083790314e-15
1.00855362473e-15
1.0083790314e-15
1.0085520112e-15
1.0083790314e-15
1.00854264959e-15
1.0083790314e-15
1.00852781608e-15
1.0083790314e-15
1.00850875643e-15
1.0083790314e-15
1.00848230744e-15
1.0083790314e-15
1.00845403389e-15
1.00523825606e-15
1.00564044999e-15
1.02408429034e-15
1.02320645207e-15
1.02398329709e-15
1.01500959398e-15
1e-15
1e-15
1.01437712698e-15
1.00884614388e-15
1e-15
1e-15
1e-15
1e-15
1e-15
1e-15
1e-15
1e-15
1e-15
1e-15
1e-15
1e-15
1e-15
1e-15
1e-15
1e-15
1e-15
1e-15
1e-15
1e-15
1e-15
1e-15
1e-15
1e-15
1e-15
1e-15
1e-15
1e-15
1e-15
1e-15
1e-15
1e-15
1e-15
1.00028299477e-15
1.00059380264e-15
1.000692346e-15
1.00072902893e-15
1.00075466439e-15
1.00077762335e-15
1.00079494124e-15
1.00080593949e-15
1.00080895855e-15
1.00079835781e-15
1.00078803207e-15
1.00078750051e-15
1.00078889622e-15
1.00076661578e-15
1.00060698805e-15
1.000274865e-15
1.00000205061e-15
1e-15
1e-15
1e-15
1e-15
1e-15
1e-15
1e-15
1e-15
1e-15
1e-15
1e-15
1e-15
1e-15
1e-15
1e-15
1e-15
1e-15
1e-15
1e-15
1e-15
1e-15
1e-15
1e-15
1e-15
1e-15
1e-15
1e-15
1e-15
1e-15
1e-15
1e-15
1e-15
1e-15
1e-15
1e-15
1e-15
1e-15
1e-15
1e-15
1e-15
1e-15
1e-15
1e-15
1e-15
1e-15
1e-15
1e-15
1e-15
1e-15
1.00063139947e-15
1.00211833605e-15
1.00358840101e-15
1.00561411896e-15
1.0083790314e-15
1.0084298175e-15
1.0083790314e-15
1.00845413301e-15
1.0083790314e-15
1.00847651845e-15
1.0083790314e-15
1.00849555704e-15
1.0083790314e-15
1.00850938029e-15
1.0083790314e-15
1.00851878432e-15
1.0083790314e-15
1.00852323348e-15
1.0083790314e-15
1.00853297692e-15
1.0083790314e-15
1.00852670078e-15
1.0083790314e-15
1.0085150997e-15
1.0083790314e-15
1.0085011413e-15
1.0083790314e-15
1.00848033621e-15
1.0083790314e-15
1.00845474548e-15
1.0083790314e-15
1.00575059368e-15
1.00612434279e-15
1.02320645207e-15
1.02412614658e-15
1.02320645207e-15
1.0152534609e-15
1e-15
1e-15
1.01298708452e-15
1.00915990169e-15
1e-15
1e-15
1e-15
1e-15
1e-15
1e-15
1e-15
1e-15
1e-15
1e-15
1e-15
1e-15
1e-15
1e-15
1e-15
1e-15
1e-15
1e-15
1e-15
1e-15
1e-15
1e-15
1e-15
1e-15
1e-15
1e-15
1e-15
1e-15
1e-15
1e-15
1e-15
1e-15
1e-15
1e-15
1.0001332183e-15
1.00022884139e-15
1.0002581858e-15
1.00027718057e-15
1.00028886522e-15
1.00029959745e-15
1.00029065493e-15
1.00027552521e-15
1.00024337693e-15
1.00022485909e-15
1.00022445501e-15
1.00022968458e-15
1.00017771284e-15
1.00001570975e-15
1e-15
1e-15
1e-15
1e-15
1e-15
1e-15
1e-15
1e-15
1e-15
1e-15
1e-15
1e-15
1e-15
1e-15
1e-15
1e-15
1e-15
1e-15
1e-15
1e-15
1e-15
1e-15
1e-15
1e-15
1e-15
1e-15
1e-15
1e-15
1e-15
1e-15
1e-15
1e-15
1e-15
1e-15
1e-15
1e-15
1e-15
1e-15
1e-15
1e-15
1e-15
1e-15
1e-15
1e-15
1e-15
1e-15
1e-15
1e-15
1e-15
1e-15
1e-15
1.00078294305e-15
1.00240400045e-15
1.00403211641e-15
1.00626289923e-15
1.00840595614e-15
1.0083790314e-15
1.00842838991e-15
1.0083790314e-15
1.00844941778e-15
1.0083790314e-15
1.00846826629e-15
1.0083790314e-15
1.00848349173e-15
1.0083790314e-15
1.00849445058e-15
1.0083790314e-15
1.00850014027e-15
1.0083790314e-15
1.00850815362e-15
1.0083790314e-15
1.00851043483e-15
1.0083790314e-15
1.00850330381e-15
1.0083790314e-15
1.00849126631e-15
1.0083790314e-15
1.00847559748e-15
1.0083790314e-15
1.00845339301e-15
1.0083790314e-15
1.00842841125e-15
1.00616949567e-15
1.00654176595e-15
1.02406996046e-15
1.02320645207e-15
1.02396085803e-15
1.01542367355e-15
1e-15
1e-15
1.01442542898e-15
1.00884489652e-15
1e-15
1e-15
1e-15
1e-15
1e-15
1e-15
1e-15
1e-15
1e-15
1e-15
1e-15
1e-15
1e-15
1e-15
1e-15
1e-15
1e-15
1e-15
1e-15
1e-15
1e-15
1e-15
1e-15
1e-15
1e-15
1e-15
1e-15
1e-15
1e-15
1e-15
1e-15
1e-15
1e-15
1e-15
1e-15
1e-15
1e-15
1e-15
1e-15
1e-15
1e-15
1e-15
1e-15
1e-15
1e-15
1e-15
1e-15
1e-15
1e-15
1e-15
1e-15
1e-15
1e-15
1e-15
1e-15
1e-15
1e-15
1e-15
1e-15
1e-15
1e-15
1e-15
1e-15
1e-15
1e-15
1e-15
1e-15
1e-15
1e-15
1e-15
1e-15
1e-15
1e-15
1e-15
1e-15
1e-15
1e-15
1e-15
1e-15
1e-15
1e-15
1e-15
1e-15
1e-15
1e-15
1e-15
1e-15
1e-15
1e-15
1e-15
1e-15
1e-15
1e-15
1e-15
1e-15
1e-15
1e-15
1e-15
1e-15
1.00092622104e-15
1.00267372426e-15
1.00447585817e-15
1.0068216268e-15
1.0083790314e-15
1.0084064408e-15
1.0083790314e-15
1.00842506928e-15
1.0083790314e-15
1.00844269664e-15
1.0083790314e-15
1.00845780832e-15
1.0083790314e-15
1.00846993085e-15
1.0083790314e-15
1.00847821065e-15
1.0083790314e-15
1.00848237262e-15
1.0083790314e-15
1.00849219718e-15
1.0083790314e-15
1.00848939759e-15
1.0083790314e-15
1.00847974755e-15
1.0083790314e-15
1.00846826176e-15
1.0083790314e-15
1.00845118543e-15
1.0083790314e-15
1.00842960006e-15
1.0083790314e-15
1.0065315188e-15
1.00691063647e-15
1.02320645207e-15
1.02410724109e-15
1.02320645207e-15
1.01557445066e-15
1e-15
1e-15
1.01298708452e-15
1.00888470243e-15
1.00675491028e-15
1e-15
1e-15
1e-15
1e-15
1e-15
1e-15
1e-15
1e-15
1e-15
1e-15
1e-15
1e-15
1e-15
1e-15
1e-15
1e-15
1e-15
1e-15
1e-15
1e-15
1e-15
1e-15
1e-15
1e-15
1e-15
1e-15
1e-15
1e-15
1e-15
1e-15
1e-15
1e-15
1e-15
1e-15
1e-15
1e-15
1e-15
1e-15
1e-15
1e-15
1e-15
1e-15
1e-15
1e-15
1e-15
1e-15
1e-15
1e-15
1e-15
1e-15
1e-15
1e-15
1e-15
1e-15
1e-15
1e-15
1e-15
1e-15
1e-15
1e-15
1e-15
1e-15
1e-15
1e-15
1e-15
1e-15
1e-15
1e-15
1e-15
1e-15
1e-15
1e-15
1e-15
1e-15
1e-15
1e-15
1e-15
1e-15
1e-15
1e-15
1e-15
1e-15
1e-15
1e-15
1e-15
1e-15
1e-15
1e-15
1e-15
1e-15
1e-15
1e-15
1e-15
1e-15
1e-15
1e-15
1e-15
1e-15
1.00104423833e-15
1.00290355908e-15
1.00489661194e-15