/*--------------------------------*- C++ -*----------------------------------*\
| =========                 |                                                 |
| \\      /  F ield         | OpenFOAM: The Open Source CFD Toolbox           |
|  \\    /   O peration     | Version:  2206                                  |
|   \\  /    A nd           | Website:  www.openfoam.com                      |
|    \\/     M anipulation  |                                                 |
\*---------------------------------------------------------------------------*/
FoamFile
{
    version     2.0;
    format      ascii;
    arch        "LSB;label=64;scalar=64";
    class       volScalarField;
    location    "2.5/water";
    object      d.gas;
}
// * * * * * * * * * * * * * * * * * * * * * * * * * * * * * * * * * * * * * //

dimensions      [0 1 0 0 0 0 0];

internalField   nonuniform List<scalar> 
23300
(
0.00498774155858
0.0049877412167
0.00498774129322
0.00498774141034
0.0049877415744
0.00498774178515
0.00498774204511
0.00498774235162
0.00498774270542
0.00498774310084
0.00498774353666
0.00498774400533
0.00498774450509
0.00498774502803
0.00498774557294
0.00498774613241
0.00498774670628
0.00498774728797
0.00498774787848
0.00498774847199
0.00498774907046
0.00498774966858
0.00498775026894
0.0049877508664
0.00498775146375
0.00498775205571
0.00498775264498
0.00498775322585
0.00498775380077
0.00498775436356
0.00498775491634
0.00498775545261
0.00498775597427
0.00498775647468
0.00498775695576
0.00498775741097
0.00498775784244
0.00498775824404
0.00498775861829
0.00498775895963
0.00498775927113
0.00498775954793
0.0049877597937
0.0049877600044
0.00498776018428
0.00498776033015
0.00498776044721
0.0049877605337
0.00498776059539
0.00498776063074
0.00498776064578
0.00498776063982
0.00498776061946
0.00498776058474
0.00498776054268
0.00498776049394
0.00498776044582
0.00498776039945
0.00498776036226
0.0049877603357
0.00498776032718
0.00498776033828
0.00498776037622
0.00498776044255
0.00498776054412
0.00498776068226
0.00498776086334
0.0049877610883
0.00498776136287
0.00498776168748
0.0049877620671
0.00498776250155
0.00498776299495
0.00498776354638
0.00498776415897
0.00498776483091
0.00498776556416
0.00498776635569
0.00498776720587
0.00498776810994
0.00498776906594
0.00498777006645
0.00498777110613
0.00498777217377
0.00498777325976
0.00498777434947
0.00498777543323
0.00498777650682
0.0049877775727
0.00498777862426
0.00498777965141
0.00498778064622
0.00498778161727
0.00498778257441
0.00498778352969
0.00498778448973
0.00498778546126
0.00498778644557
0.00498778744455
0.00498778845554
0.00498778947725
0.00498779050462
0.00498779153456
0.00498779256088
0.00498779357971
0.0049877945845
0.00498779557124
0.00498779653357
0.00498779746772
0.00498779836782
0.0049877992306
0.00498780005091
0.00498780082616
0.00498780155214
0.0049878022271
0.00498780284793
0.00498780341394
0.00498780392326
0.00498780437622
0.00498780477202
0.00498780511187
0.00498780539598
0.0049878056264
0.00498780580432
0.00498780593249
0.00498780601283
0.0049878060485
0.00498780604177
0.00498780599578
0.00498780591276
0.00498780579541
0.00498780564559
0.00498780546552
0.00498780525706
0.00498780502303
0.00498780476737
0.00498780449648
0.0049878042211
0.00498780396766
0.00498780349156
0.00498787436307
0.00498787399006
0.00498787401552
0.00498787407915
0.00498787418535
0.0049878743356
0.0049878745313
0.00498787476958
0.00498787504883
0.00498787536388
0.00498787571236
0.0049878760889
0.00498787649178
0.00498787691645
0.00498787736233
0.00498787782582
0.00498787830745
0.00498787880439
0.00498787931797
0.00498787984581
0.00498788038963
0.0049878809471
0.0049878815199
0.00498788210532
0.00498788270464
0.00498788331449
0.00498788393549
0.00498788456346
0.00498788519833
0.00498788583522
0.00498788647352
0.00498788710789
0.00498788773746
0.00498788835678
0.00498788896504
0.00498788955702
0.00498789013224
0.004987890686
0.00498789121835
0.00498789172529
0.00498789220755
0.00498789266191
0.00498789308983
0.00498789348892
0.00498789386136
0.00498789420557
0.00498789452461
0.00498789481799
0.00498789508933
0.00498789533862
0.00498789556988
0.00498789578368
0.00498789598446
0.00498789617329
0.00498789635491
0.0049878965308
0.00498789670589
0.00498789688189
0.00498789706377
0.00498789725334
0.00498789745545
0.00498789767181
0.00498789790699
0.00498789816245
0.0049878984423
0.00498789874758
0.00498789908179
0.0049878994454
0.00498789984117
0.00498790026889
0.00498790073049
0.00498790122498
0.00498790175343
0.00498790231406
0.00498790290709
0.00498790353001
0.00498790418225
0.00498790486069
0.00498790556419
0.00498790628924
0.00498790703444
0.00498790779644
0.00498790857442
0.00498790936663
0.00498791017534
0.00498791100474
0.00498791186731
0.00498791278153
0.00498791376319
0.00498791480907
0.00498791590218
0.0049879170172
0.00498791813501
0.00498791924296
0.0049879203353
0.00498792140767
0.0049879224589
0.00498792348711
0.00498792449233
0.00498792547322
0.00498792642992
0.00498792736107
0.00498792826659
0.00498792914486
0.00498792999547
0.0049879308165
0.00498793160719
0.00498793236534
0.00498793308989
0.00498793377849
0.00498793442993
0.00498793504186
0.00498793561311
0.00498793614155
0.00498793662629
0.00498793706564
0.00498793745932
0.00498793780667
0.00498793810822
0.00498793836385
0.00498793857469
0.00498793874154
0.0049879388664
0.004987938951
0.00498793899814
0.00498793901031
0.0049879389908
0.00498793894248
0.00498793886864
0.00498793877197
0.00498793865511
0.00498793851989
0.00498793836779
0.00498793819944
0.00498793801506
0.00498793781419
0.00498793759535
0.00498793735635
0.00498793710613
0.00498793662617
0.00498800764967
0.00498800727004
0.00498800729326
0.00498800735093
0.00498800744702
0.00498800758292
0.00498800776044
0.00498800797763
0.00498800823332
0.00498800852302
0.00498800884436
0.00498800919237
0.00498800956519
0.00498800995865
0.0049880103721
0.00498801080252
0.00498801125051
0.00498801171402
0.00498801219457
0.00498801269069
0.00498801320435
0.00498801373413
0.00498801428194
0.00498801484594
0.00498801542752
0.00498801602412
0.00498801663632
0.00498801726066
0.0049880178969
0.00498801854073
0.00498801919126
0.00498801984361
0.00498802049649
0.0049880211448
0.00498802178722
0.00498802241878
0.00498802303839
0.00498802364151
0.00498802422754
0.00498802479255
0.00498802533652
0.00498802585628
0.00498802635246
0.00498802682265
0.00498802726815
0.00498802768725
0.00498802808218
0.00498802845247
0.00498802880093
0.00498802912728
0.00498802943454
0.00498802972299
0.00498802999602
0.00498803025434
0.00498803050165
0.00498803073899
0.00498803097022
0.00498803119659
0.00498803142202
0.00498803164784
0.00498803187786
0.00498803211336
0.00498803235794
0.00498803261267
0.00498803288081
0.00498803316313
0.00498803346242
0.00498803377903
0.00498803411526
0.00498803447099
0.00498803484799
0.00498803524569
0.00498803566537
0.00498803610611
0.00498803656884
0.00498803705246
0.00498803755779
0.00498803808384
0.00498803863168
0.00498803920084
0.00498803979318
0.00498804040947
0.00498804105325
0.00498804172778
0.00498804244003
0.00498804319809
0.00498804401486
0.00498804490367
0.00498804587479
0.00498804692105
0.0049880480298
0.0049880491855
0.00498805036982
0.00498805156655
0.00498805276426
0.00498805395294
0.00498805512599
0.00498805627704
0.00498805740221
0.00498805849727
0.00498805955994
0.00498806058732
0.00498806157813
0.00498806253028
0.00498806344307
0.00498806431489
0.00498806514533
0.00498806593302
0.00498806667768
0.00498806737805
0.00498806803391
0.00498806864414
0.00498806920858
0.00498806972632
0.00498807019741
0.00498807062125
0.00498807099832
0.00498807132897
0.00498807161444
0.00498807185531
0.00498807205317
0.00498807220934
0.0049880723261
0.00498807240553
0.00498807245052
0.00498807246372
0.00498807244838
0.00498807240733
0.00498807234366
0.00498807225981
0.004988072158
0.00498807203954
0.00498807190505
0.00498807175389
0.00498807158401
0.0049880713907
0.0049880711648
0.00498807089261
0.00498807057238
0.0049880700604
0.00498814071841
0.00498814031931
0.00498814034815
0.00498814040834
0.00498814050373
0.00498814063557
0.00498814080581
0.00498814101291
0.00498814125617
0.00498814153166
0.00498814183741
0.0049881421689
0.00498814252451
0.00498814290038
0.00498814329603
0.00498814370873
0.00498814413926
0.0049881445859
0.0049881450504
0.00498814553163
0.00498814603182
0.00498814654993
0.0049881470881
0.00498814764488
0.00498814822187
0.00498814881683
0.00498814943053
0.00498815005978
0.00498815070446
0.0049881513605
0.00498815202703
0.00498815269935
0.00498815337612
0.00498815405235
0.00498815472658
0.00498815539384
0.00498815605285
0.00498815669899
0.00498815733133
0.0049881579458
0.004988158542
0.00498815911649
0.00498815966948
0.00498816019822
0.00498816070349
0.00498816118323
0.00498816163902
0.00498816207014
0.00498816247906
0.00498816286501
0.0049881632304
0.00498816357502
0.00498816390165
0.00498816421051
0.00498816450467
0.00498816478469
0.00498816505385
0.00498816531294
0.00498816556534
0.00498816581196
0.00498816605617
0.00498816629892
0.00498816654342
0.00498816679055
0.00498816704331
0.00498816730241
0.00498816757056
0.00498816784822
0.00498816813781
0.00498816843955
0.00498816875557
0.00498816908587
0.00498816943242
0.00498816979514
0.00498817017597
0.004988170575
0.00498817099437
0.00498817143462
0.00498817189847
0.00498817238727
0.00498817290474
0.00498817345354
0.00498817403899
0.00498817466576
0.00498817534153
0.0049881760737
0.00498817687236
0.00498817774557
0.00498817870009
0.00498817972934
0.00498818082117
0.00498818196523
0.00498818315041
0.00498818436157
0.00498818558675
0.00498818681423
0.00498818803518
0.00498818924086
0.00498819042502
0.00498819158128
0.00498819270544
0.00498819379295
0.00498819484116
0.00498819584691
0.00498819680871
0.00498819772441
0.00498819859329
0.0049881994139
0.00498820018602
0.00498820090865
0.00498820158192
0.00498820220517
0.00498820277876
0.00498820330233
0.00498820377653
0.00498820420132
0.00498820457772
0.0049882049067
0.00498820519007
0.00498820542878
0.00498820562475
0.00498820577957
0.00498820589569
0.00498820597529
0.00498820602126
0.00498820603621
0.00498820602322
0.00498820598497
0.00498820592428
0.00498820584334
0.00498820574409
0.00498820562754
0.00498820549393
0.00498820534193
0.00498820516803
0.0049882049644
0.00498820471606
0.00498820440185
0.00498820402089
0.00498820350688
0.0049882736384
0.00498827320996
0.00498827324657
0.00498827331234
0.00498827341112
0.00498827354418
0.00498827371361
0.0049882739181
0.00498827415735
0.00498827442787
0.00498827472809
0.00498827505386
0.00498827540382
0.00498827577436
0.00498827616516
0.00498827657365
0.00498827700071
0.00498827744476
0.00498827790763
0.00498827838836
0.00498827888924
0.00498827940939
0.00498827995105
0.0049882805129
0.00498828109664
0.00498828170018
0.00498828232437
0.00498828296616
0.00498828362552
0.0049882842985
0.00498828498428
0.00498828567828
0.00498828637918
0.00498828708205
0.00498828778538
0.00498828848423
0.00498828917717
0.00498828985954
0.00498829053023
0.004988291185
0.0049882918232
0.00498829244119
0.00498829303881
0.00498829361306
0.00498829416435
0.00498829469027
0.00498829519178
0.00498829566798
0.00498829612122
0.00498829655037
0.00498829695736
0.0049882973416
0.00498829770543
0.00498829804868
0.00498829837401
0.00498829868165
0.00498829897448
0.00498829925303
0.00498829952034
0.00498829977714
0.00498830002654
0.00498830026937
0.00498830050873
0.00498830074546
0.00498830098259
0.00498830122091
0.00498830146329
0.00498830171044
0.00498830196509
0.00498830222786
0.00498830250137
0.00498830278622
0.004988303085
0.00498830339841
0.00498830372918
0.00498830407828
0.0049883044488
0.00498830484222
0.00498830526224
0.00498830571112
0.00498830619344
0.00498830671253
0.00498830727413
0.00498830788292
0.00498830854598
0.0049883092692
0.00498831006014
0.00498831092365
0.00498831186333
0.00498831287734
0.00498831395372
0.0049883150795
0.00498831624947
0.00498831745224
0.00498831867669
0.00498831991128
0.00498832114671
0.00498832237343
0.00498832358417
0.00498832477139
0.00498832592972
0.00498832705348
0.00498832813897
0.00498832918208
0.0049883301805
0.00498833113139
0.0049883320335
0.00498833288497
0.00498833368532
0.00498833443341
0.00498833512933
0.00498833577249
0.00498833636338
0.00498833690185
0.00498833738876
0.00498833782434
0.00498833820989
0.00498833854674
0.004988338837
0.00498833908184
0.00498833928332
0.00498833944314
0.00498833956379
0.00498833964745
0.00498833969695
0.00498833971479
0.00498833970391
0.00498833966682
0.00498833960621
0.00498833952411
0.00498833942237
0.00498833930191
0.00498833916274
0.00498833900299
0.00498833881769
0.00498833859596
0.00498833831793
0.00498833795906
0.00498833752938
0.00498833702389
0.00498840645182
0.00498840598692
0.00498840603205
0.00498840610482
0.00498840620926
0.00498840634678
0.00498840651965
0.00498840672687
0.00498840696847
0.00498840724133
0.00498840754421
0.00498840787327
0.00498840822734
0.00498840860298
0.00498840899992
0.00498840941566
0.00498840985107
0.00498841030458
0.00498841077798
0.00498841127026
0.0049884117837
0.00498841231737
0.00498841287346
0.00498841345066
0.00498841405062
0.00498841467128
0.00498841531348
0.00498841597421
0.00498841665345
0.00498841734734
0.00498841805509
0.00498841877218
0.00498841949733
0.00498842022567
0.00498842095568
0.00498842168247
0.00498842240456
0.00498842311725
0.00498842381931
0.00498842450645
0.00498842517783
0.00498842582966
0.00498842646157
0.00498842707035
0.00498842765616
0.00498842821639
0.00498842875127
0.00498842925981
0.00498842974448
0.00498843020388
0.00498843063964
0.00498843105088
0.00498843143961
0.00498843180543
0.0049884321507
0.00498843247543
0.00498843278229
0.00498843307161
0.00498843334631
0.00498843360698
0.00498843385668
0.00498843409621
0.00498843432868
0.00498843455503
0.00498843477837
0.00498843499969
0.0049884352221
0.00498843544658
0.00498843567621
0.004988435912
0.00498843615702
0.00498843641236
0.00498843668116
0.00498843696466
0.0049884372662
0.00498843758733
0.00498843793173
0.00498843830144
0.00498843870064
0.00498843913201
0.00498843960042
0.0049884401093
0.00498844066429
0.00498844126961
0.00498844193147
0.00498844265438
0.00498844344408
0.00498844430335
0.00498844523442
0.00498844623471
0.00498844730002
0.00498844841467
0.00498844956911
0.00498845075865
0.00498845197391
0.00498845320402
0.00498845443999
0.0049884556722
0.00498845689315
0.00498845809484
0.00498845927134
0.00498846041634
0.00498846152546
0.00498846259394
0.00498846361881
0.00498846459666
0.0049884655257
0.00498846640364
0.00498846722962
0.00498846800223
0.00498846872133
0.00498846938621
0.00498846999728
0.00498847055439
0.00498847105839
0.00498847150957
0.00498847190931
0.00498847225913
0.00498847256129
0.00498847281703
0.00498847302842
0.00498847319718
0.00498847332575
0.00498847341627
0.00498847347148
0.00498847349375
0.00498847348594
0.00498847345044
0.00498847338986
0.00498847330619
0.00498847320128
0.00498847307599
0.00498847293015
0.00498847276124
0.00498847256277
0.00498847232105
0.00498847201283
0.00498847161463
0.00498847115237
0.00498847066286
0.00498853919417
0.00498853868829
0.00498853874183
0.00498853882218
0.00498853893353
0.00498853907756
0.00498853925681
0.00498853947056
0.00498853971919
0.00498853999995
0.00498854031188
0.00498854065135
0.00498854101733
0.00498854140646
0.00498854181846
0.00498854225076
0.00498854270414
0.0049885431769
0.00498854367065
0.00498854418426
0.0049885447198
0.00498854527622
0.00498854585553
0.0049885464563
0.00498854708006
0.00498854772465
0.00498854839084
0.00498854907562
0.00498854977891
0.00498855049689
0.00498855122878
0.00498855197015
0.00498855271973
0.00498855347274
0.00498855422768
0.00498855497972
0.00498855572739
0.004988556466
0.00498855719429
0.00498855790793
0.004988558606
0.00498855928462
0.0049885599433
0.00498856057871
0.00498856119082
0.00498856177691
0.00498856233681
0.00498856286908
0.00498856337615
0.00498856385692
0.00498856431278
0.00498856474264
0.00498856514829
0.00498856552914
0.00498856588738
0.00498856622287
0.00498856653813
0.00498856683345
0.00498856711162
0.00498856737325
0.00498856762137
0.00498856785684
0.00498856808285
0.00498856830045
0.00498856851292
0.00498856872145
0.00498856892939
0.004988569138
0.00498856935068
0.00498856956878
0.00498856979576
0.00498857003308
0.00498857028431
0.00498857055111
0.00498857083721
0.00498857114456
0.00498857147718
0.00498857183741
0.00498857222967
0.00498857265675
0.00498857312353
0.0049885736333
0.00498857419136
0.00498857480132
0.00498857546856
0.00498857619643
0.00498857698931
0.00498857784864
0.00498857877564
0.00498857976757
0.00498858082068
0.00498858192767
0.00498858307426
0.00498858425098
0.00498858545546
0.00498858667717
0.00498858790796
0.00498858913842
0.0049885903612
0.00498859156824
0.00498859275342
0.0049885939101
0.00498859503357
0.00498859611862
0.00498859716188
0.00498859815949
0.00498859910924
0.00498860000844
0.0049886008559
0.00498860164989
0.00498860239002
0.00498860307537
0.0049886037062
0.00498860428222
0.00498860480419
0.00498860527235
0.004988605688
0.00498860605274
0.00498860636892
0.00498860663773
0.00498860686122
0.00498860704103
0.00498860717955
0.00498860727882
0.00498860734148
0.00498860736982
0.0049886073666
0.00498860733415
0.00498860727502
0.00498860719123
0.0049886070846
0.00498860695592
0.00498860680477
0.0049886066279
0.00498860641733
0.00498860615717
0.00498860582274
0.00498860539514
0.00498860491698
0.00498860445111
0.00498867189561
0.00498867134697
0.00498867140831
0.00498867149627
0.00498867161519
0.00498867176701
0.00498867195455
0.00498867217749
0.00498867243654
0.00498867272927
0.004988673055
0.00498867341029
0.00498867379418
0.0049886742033
0.00498867463728
0.00498867509343
0.00498867557229
0.00498867607193
0.00498867659372
0.00498867713626
0.00498867770134
0.00498867828766
0.00498867889698
0.00498867952768
0.00498868018107
0.00498868085487
0.00498868154971
0.00498868226251
0.00498868299315
0.00498868373783
0.00498868449577
0.00498868526261
0.00498868603711
0.00498868681461
0.00498868759365
0.0049886883695
0.00498868914072
0.00498868990269
0.00498869065416
0.00498869139082
0.0049886921117
0.00498869281292
0.00498869349389
0.00498869415124
0.0049886947848
0.00498869539171
0.00498869597219
0.00498869652354
0.0049886970477
0.00498869754477
0.00498869801588
0.00498869845977
0.00498869887807
0.00498869927005
0.00498869963778
0.00498869998104
0.00498870030226
0.00498870060168
0.00498870088208
0.00498870114407
0.00498870139074
0.004988701623
0.00498870184417
0.00498870205541
0.0049887022602
0.00498870245991
0.00498870265811
0.00498870285634
0.00498870305825
0.0049887032655
0.00498870348186
0.0049887037091
0.0049887039511
0.00498870420982
0.00498870448928
0.00498870479166
0.00498870512122
0.00498870548041
0.00498870587375
0.004988706304
0.00498870677592
0.00498870729253
0.00498870785872
0.00498870847752
0.00498870915353
0.00498870988916
0.00498871068777
0.00498871154983
0.00498871247593
0.00498871346312
0.0049887145081
0.00498871560416
0.00498871674461
0.00498871791554
0.0049887191097
0.00498872032256
0.00498872154581
0.00498872277112
0.0049887239913
0.00498872519845
0.00498872638645
0.00498872754856
0.00498872867989
0.00498872977501
0.00498873083028
0.00498873184154
0.00498873280629
0.00498873372154
0.0049887345858
0.00498873539709
0.00498873615478
0.00498873685773
0.00498873750603
0.00498873809921
0.00498873863794
0.0049887391223
0.00498873955346
0.00498873993301
0.00498874026336
0.00498874054565
0.00498874078183
0.00498874097347
0.00498874112288
0.00498874123197
0.00498874130331
0.0049887413391
0.00498874134201
0.0049887413143
0.00498874125853
0.00498874117666
0.00498874107051
0.00498874094073
0.00498874078656
0.004988740604
0.00498874038384
0.00498874010883
0.00498873975476
0.00498873930963
0.00498873883094
0.00498873839566
0.00498880458036
0.00498880398992
0.00498880405829
0.00498880415365
0.0049888042804
0.00498880444076
0.0049888046379
0.00498880487185
0.00498880514369
0.00498880545136
0.00498880579439
0.0049888061695
0.00498880657578
0.0049888070098
0.00498880747102
0.00498880795653
0.00498880846657
0.00498880899893
0.00498880955458
0.00498881013181
0.00498881073205
0.00498881135369
0.00498881199817
0.00498881266361
0.00498881335108
0.00498881405814
0.00498881478525
0.00498881552928
0.00498881629003
0.00498881706373
0.00498881784959
0.00498881864334
0.00498881944381
0.00498882024644
0.00498882104985
0.00498882184944
0.0049888226438
0.00498882342846
0.00498882420215
0.00498882496066
0.00498882570299
0.00498882642531
0.00498882712696
0.00498882780456
0.00498882845787
0.00498882908399
0.00498882968313
0.00498883025145
0.00498883079103
0.00498883130267
0.00498883178736
0.00498883224377
0.00498883267339
0.00498883307542
0.00498883345182
0.0049888338023
0.00498883412927
0.00498883443293
0.00498883471606
0.00498883497932
0.00498883522583
0.00498883545661
0.00498883567507
0.00498883588253
0.00498883608261
0.00498883627688
0.00498883646912
0.00498883666108
0.00498883685668
0.00498883705781
0.0049888372685
0.00498883749077
0.00498883772874
0.0049888379846
0.00498883826259
0.00498883856503
0.00498883889631
0.00498883925895
0.00498883965745
0.00498884009448
0.00498884057463
0.00498884110061
0.00498884167692
0.00498884230602
0.00498884299185
0.00498884373606
0.00498884454121
0.0049888454071
0.00498884633382
0.00498884731826
0.00498884835734
0.0049888494449
0.00498885057512
0.00498885173929
0.00498885292828
0.00498885413286
0.00498885534814
0.00498885656609
0.0049888577809
0.0049888589848
0.00498886017162
0.00498886133467
0.00498886246903
0.00498886356916
0.00498886463126
0.00498886565099
0.00498886662566
0.00498886755205
0.00498886842847
0.00498886925273
0.004988870024
0.00498887074096
0.00498887140354
0.00498887201112
0.00498887256424
0.00498887306287
0.00498887350794
0.00498887390093
0.00498887424442
0.00498887453943
0.00498887478785
0.00498887499114
0.00498887515153
0.00498887527083
0.00498887535151
0.00498887539568
0.00498887540594
0.00498887538451
0.00498887533387
0.00498887525597
0.00498887515252
0.00498887502404
0.00498887486935
0.00498887468383
0.0049888744574
0.00498887417242
0.00498887380674
0.00498887335628
0.00498887289015
0.00498887249077
0.00498893726717
0.00498893663843
0.00498893671309
0.00498893681552
0.0049889369502
0.00498893711958
0.00498893732717
0.00498893757342
0.00498893785978
0.00498893818451
0.00498893854741
0.00498893894534
0.00498893937735
0.00498893983995
0.00498894033236
0.0049889408514
0.00498894139693
0.00498894196636
0.00498894256025
0.0049889431765
0.00498894381611
0.00498894447713
0.00498894516065
0.00498894586451
0.00498894658951
0.00498894733305
0.00498894809543
0.00498894887345
0.00498894966684
0.00498895047187
0.00498895128777
0.00498895211036
0.00498895293854
0.00498895376788
0.0049889545971
0.00498895542171
0.0049889562404
0.00498895704879
0.00498895784568
0.00498895862692
0.00498895939154
0.00498896013572
0.00498896085879
0.00498896155736
0.00498896223115
0.00498896287724
0.0049889634959
0.00498896408225
0.0049889646381
0.00498896516485
0.00498896566371
0.00498896613332
0.00498896657504
0.00498896698799
0.00498896737405
0.00498896773289
0.00498896806686
0.00498896837616
0.00498896866359
0.00498896892983
0.00498896917806
0.0049889694094
0.00498896962735
0.00498896983338
0.00498897003125
0.00498897022271
0.00498897041173
0.00498897060027
0.00498897079244
0.00498897099038
0.00498897119831
0.00498897141848
0.00498897165521
0.00498897191087
0.00498897218984
0.00498897249458
0.00498897282954
0.00498897319725
0.00498897360219
0.0049889740469
0.00498897453577
0.00498897507124
0.00498897565738
0.0049889762962
0.00498897699107
0.004988977743
0.00498897855397
0.00498897942322
0.00498898035049
0.00498898133254
0.00498898236643
0.00498898344637
0.00498898456702
0.00498898572081
0.00498898690035
0.00498898809899
0.00498898930618
0.00498899051515
0.00498899172343
0.0049889929212
0.00498899410362
0.004988995264
0.00498899639739
0.00498899749827
0.00498899856276
0.00498899958643
0.00498900056645
0.00498900149947
0.00498900238365
0.00498900321662
0.00498900399745
0.00498900472465
0.00498900539801
0.00498900601682
0.00498900658149
0.00498900709189
0.00498900754867
0.00498900795312
0.00498900830803
0.00498900861435
0.00498900887389
0.00498900908804
0.00498900925891
0.00498900938824
0.00498900947842
0.00498900953147
0.0049890095499
0.00498900953588
0.00498900949183
0.00498900941962
0.00498900932088
0.0049890091959
0.00498900904318
0.00498900885761
0.00498900862873
0.00498900833941
0.00498900797069
0.00498900752638
0.00498900708327
0.00498900672314
0.0049890699703
0.00498906930907
0.00498906938941
0.0049890694986
0.00498906964117
0.00498906981985
0.00498907003851
0.00498907029797
0.00498907060011
0.00498907094354
0.00498907132825
0.00498907175127
0.0049890722116
0.00498907270561
0.00498907323225
0.00498907378799
0.00498907437229
0.00498907498213
0.00498907561759
0.00498907627615
0.00498907695835
0.00498907766189
0.00498907838748
0.00498907913269
0.00498907989807
0.00498908068085
0.00498908148118
0.00498908229582
0.00498908312446
0.00498908396338
0.00498908481187
0.00498908566586
0.00498908652432
0.00498908738295
0.00498908824056
0.00498908909281
0.00498908993845
0.00498909077321
0.00498909159595
0.00498909240257
0.00498909319212
0.00498909396081
0.00498909470792
0.00498909543005
0.00498909612682
0.00498909679528
0.0049890974354
0.00498909804422
0.00498909862052
0.00498909916407
0.00498909967918
0.00498910016411
0.00498910062009
0.00498910104613
0.00498910144402
0.00498910181336
0.00498910215646
0.00498910247352
0.00498910276732
0.0049891030386
0.00498910329058
0.00498910352447
0.00498910374386
0.00498910395036
0.00498910414787
0.0049891043383
0.00498910452581
0.00498910471252
0.00498910490277
0.00498910509888
0.00498910530526
0.00498910552437
0.0049891057607
0.00498910601677
0.00498910629709
0.00498910660422
0.00498910694266
0.00498910731494
0.00498910772549
0.00498910817673
0.00498910867286
0.00498910921602
0.00498910980998
0.0049891104563
0.00498911115789
0.00498911191526
0.00498911272989
0.00498911360063
0.00498911452694
0.00498911550547
0.0049891165334
0.00498911760519
0.00498911871597
0.00498911985859
0.00498912102711
0.00498912221353
0.00498912341089
0.00498912461154
0.00498912580911
0.00498912699849
0.00498912817356
0.00498912932763
0.00498913045634
0.00498913155404
0.00498913261684
0.00498913364027
0.00498913462144
0.00498913555689
0.00498913644469
0.00498913728236
0.00498913806885
0.00498913880257
0.00498913948323
0.00498914011
0.00498914068322
0.00498914120269
0.00498914166886
0.00498914208263
0.00498914244694
0.00498914276281
0.004989143032
0.00498914325581
0.00498914343629
0.00498914357511
0.00498914367455
0.00498914373656
0.0049891437636
0.00498914375774
0.00498914372135
0.00498914365621
0.00498914356383
0.00498914344431
0.00498914329592
0.00498914311328
0.00498914288604
0.0049891425983
0.00498914223492
0.00498914180683
0.00498914139455
0.00498914107524
0.00498920270073
0.00498920201493
0.00498920210044
0.00498920221605
0.00498920236644
0.00498920255457
0.00498920278468
0.00498920305807
0.00498920337697
0.00498920374035
0.00498920414847
0.00498920459841
0.00498920508915
0.00498920561686
0.00498920618018
0.0049892067752
0.00498920740091
0.0049892080538
0.00498920873349
0.00498920943697
0.00498921016437
0.00498921091299
0.0049892116832
0.00498921247231
0.00498921328064
0.00498921410527
0.00498921494624
0.00498921580027
0.00498921666704
0.00498921754288
0.00498921842713
0.00498921931582
0.004989220208
0.00498922109951
0.00498922198924
0.00498922287297
0.00498922374952
0.0049892246147
0.00498922546742
0.00498922630362
0.00498922712233
0.00498922791979
0.00498922869522
0.0049892294452
0.00498923016927
0.00498923086441
0.00498923153052
0.00498923216506
0.00498923276503
0.00498923332992
0.00498923386505
0.0049892343688
0.00498923484234
0.0049892352846
0.00498923569725
0.00498923607987
0.0049892364347
0.00498923676192
0.00498923706434
0.00498923734271
0.00498923760031
0.00498923783842
0.00498923806076
0.00498923826901
0.00498923846726
0.00498923865754
0.0049892388442
0.00498923902954
0.00498923921808
0.00498923941233
0.00498923961691
0.00498923983444
0.00498924006958
0.00498924032499
0.00498924060532
0.0049892409132
0.0049892412532
0.00498924162784
0.00498924204148
0.00498924249645
0.00498924299677
0.00498924354436
0.00498924414265
0.00498924479288
0.00498924549754
0.00498924625676
0.00498924707162
0.00498924794066
0.00498924886311
0.00498924983558
0.00498925085529
0.00498925191693
0.00498925301595
0.00498925414565
0.00498925530034
0.00498925647258
0.00498925765631
0.00498925884311
0.00498926002915
0.00498926120613
0.00498926236897
0.00498926351437
0.00498926463474
0.00498926572527
0.00498926678247
0.00498926780167
0.00498926877996
0.00498926971384
0.00498927060133
0.00498927143986
0.0049892722283
0.00498927296499
0.00498927364956
0.00498927428109
0.00498927485987
0.00498927538562
0.00498927585905
0.00498927628019
0.00498927665165
0.00498927697515
0.00498927725234
0.00498927748445
0.00498927767347
0.00498927782097
0.00498927792919
0.00498927799998
0.00498927803574
0.00498927803847
0.00498927801046
0.00498927795342
0.00498927786874
0.0049892777564
0.00498927761452
0.00498927743775
0.00498927721626
0.00498927693592
0.00498927658561
0.00498927618204
0.00498927580592
0.00498927552757
0.0049893354671
0.00498933476657
0.00498933485683
0.00498933497858
0.00498933513659
0.00498933533421
0.00498933557606
0.00498933586385
0.00498933620029
0.00498933658472
0.00498933701758
0.00498933749606
0.00498933801905
0.00498933858248
0.00498933918463
0.00498933982115
0.00498934049054
0.00498934118878
0.00498934191498
0.00498934266567
0.00498934344054
0.00498934423655
0.00498934505374
0.0049893458892
0.00498934674304
0.00498934761224
0.00498934849676
0.00498934939332
0.00498935030158
0.00498935121796
0.00498935214184
0.00498935306935
0.00498935399963
0.00498935492863
0.00498935585531
0.00498935677553
0.00498935768816
0.00498935858908
0.00498935947718
0.00498936034844
0.00498936120184
0.0049893620336