/*--------------------------------*- C++ -*----------------------------------*\
| =========                 |                                                 |
| \\      /  F ield         | OpenFOAM: The Open Source CFD Toolbox           |
|  \\    /   O peration     | Version:  2206                                  |
|   \\  /    A nd           | Website:  www.openfoam.com                      |
|    \\/     M anipulation  |                                                 |
\*---------------------------------------------------------------------------*/
FoamFile
{
    version     2.0;
    format      ascii;
    arch        "LSB;label=64;scalar=64";
    class       volScalarField;
    location    "2.5/water";
    object      epsilonm;
}
// * * * * * * * * * * * * * * * * * * * * * * * * * * * * * * * * * * * * * //

dimensions      [0 2 -3 0 0 0 0];

internalField   nonuniform List<scalar> 
23300
(
0.000237174032667
0.000249686043776
0.000273552137633
0.000308448108152
0.000354576091003
0.000412317214071
0.000482041895766
0.000564055670153
0.000658605346953
0.000765905936359
0.000886139739503
0.00101944419473
0.00116586742677
0.00132533961754
0.00149762229073
0.00168229854276
0.00187873758604
0.00208611534026
0.00230339751909
0.00252938817856
0.00276272596064
0.00300195202585
0.00324551005273
0.0034918226902
0.00373928527866
0.00398634112117
0.00423146155997
0.00447321441972
0.00471022793511
0.00494125176132
0.00516510683848
0.00538074189701
0.00558717365646
0.00578354262208
0.0059690477025
0.00614300387212
0.00630477372444
0.00645382782039
0.00658967413607
0.00671192053312
0.00682020199412
0.00691424354369
0.00699378386659
0.00705863496527
0.00710859723049
0.00714350458123
0.00716310818332
0.00716756802496
0.00715729412412
0.00713257525274
0.00709363783091
0.00704076063168
0.00697422569375
0.00689439083485
0.00680162796069
0.00669638768217
0.00657913820153
0.00645042626227
0.00631081863127
0.00616095956463
0.00600151522284
0.00583322727063
0.00565686018508
0.00547325053724
0.00528325700473
0.00508780488764
0.0048878385372
0.0046843606275
0.0044783866461
0.00427097849698
0.00406320062881
0.00385614772945
0.00365090222147
0.00344855620059
0.00325017051751
0.00305679196747
0.00286941533827
0.00268899867368
0.00251643210951
0.00235255757497
0.00219815309252
0.00205397054614
0.00192075549964
0.00179933650974
0.00169073700153
0.0015964188502
0.00151866786472
0.00146124360717
0.00142953861776
0.00142436118732
0.00143913590673
0.00146855833194
0.00150921597449
0.00155886770352
0.00161591287471
0.00167910505086
0.00174736170752
0.00181968152438
0.00189507043598
0.00197253054452
0.00205102903835
0.00212951632867
0.00220691289442
0.00228213996011
0.00235411353636
0.00242177887373
0.00248410587135
0.00254012185624
0.00258890518
0.00262961327681
0.00266147325975
0.00268380395198
0.00269600307383
0.0026975615959
0.00268804361676
0.00266708125923
0.00263431450706
0.00258957359307
0.00253293550757
0.00246455564666
0.00238467554726
0.0022936435906
0.00219191955978
0.0020800924662
0.00195888785351
0.0018291874346
0.00169204254561
0.00154869857629
0.00140061609564
0.00124950038658
0.00109732788896
0.00094637603874
0.000799247573379
0.000658893649766
0.000528632756563
0.000412161674976
0.000313493444517
0.000236598368315
0.000184458023673
0.00015805094572
0.000301384154697
0.000313282083808
0.000336912268511
0.00037226541707
0.000419451249179
0.000478565583546
0.000549600546633
0.000632430912331
0.000726847165498
0.000832591637125
0.000949371404741
0.00107684428096
0.00121458789063
0.00136206509153
0.00151859469071
0.00168333481721
0.00185527909897
0.00203326874037
0.002216015422
0.00240213698348
0.00259019774542
0.0027787555736
0.00296640571845
0.0031518247075
0.00333380385271
0.0035112779986
0.0036833398124
0.00384924832291
0.00400842310135
0.00416043557072
0.00430498918568
0.00444190158004
0.00457107954475
0.00469250034772
0.0048061885482
0.00491220169485
0.00501061228293
0.00510149934341
0.00518493568823
0.00526098449148
0.00532969037011
0.00539107917305
0.00544515118921
0.00549188269282
0.00553122066891
0.00556308697621
0.00558737878064
0.00560409377199
0.00561319565417
0.00561462343759
0.00560829692565
0.00559413179563
0.00557204403398
0.00554195994343
0.00550381742503
0.00545757430403
0.00540320921398
0.00534072975257
0.00527017371088
0.00519161729966
0.00510517672056
0.00501101627289
0.00490934997643
0.00480044916417
0.00468464368363
0.00456232841989
0.0044339634456
0.00430007877019
0.00416127268494
0.00401821395036
0.00387163755201
0.00372234361249
0.00357118996506
0.00341908743599
0.00326698921417
0.00311588300473
0.00296677841031
0.00282069821489
0.00267866741291
0.00254170909264
0.00241084281798
0.00228709552985
0.00217152267797
0.00206525033052
0.00196953542229
0.00188584551702
0.00181592132019
0.00176171658034
0.00172490134965
0.00170551677326
0.00170141918283
0.00170988666467
0.00172842722165
0.00175495017441
0.00178772213088
0.00182527952775
0.00186634652258
0.00190977674581
0.00195451251022
0.00199956314057
0.00204399237383
0.00208691685458
0.00212750720965
0.00216499488817
0.00219867768297
0.00222792765777
0.00225219557964
0.00227101576378
0.00228400655821
0.0022908703274
0.00229138914679
0.00228541974376
0.00227288460617
0.00225376217833
0.00222807349369
0.00219586773377
0.00215720642246
0.00211213096432
0.00206080679581
0.00200339665472
0.00194005402507
0.00187092154616
0.0017961328256
0.00171581883932
0.00163011918691
0.00153919986079
0.00144327815413
0.00134265583119
0.00123776051354
0.00112919507709
0.0010177940138
0.000904686429385
0.00079136761691
0.000679787108397
0.00057246993486
0.000472692385716
0.000384708992086
0.000313936397792
0.000266834836172
0.000249619710583
0.000365276791366
0.000377319211484
0.000401405913633
0.000437564097341
0.000485778570838
0.000545912943658
0.000617672482892
0.000700622487326
0.00079423515552
0.000897931259798
0.0010110963803
0.00113307291187
0.00126313672075
0.00140047241437
0.00154415398526
0.0016931385041
0.00184627163267
0.00200230796076
0.00215994030876
0.00231783944109
0.00247469581138
0.0026292648646
0.00278040632542
0.00292712046215
0.00306857191129
0.00320410676882
0.00333325466555
0.00345572471676
0.00357138816456
0.00368025908199
0.00378246604376
0.00387822720559
0.00396782058343
0.00405156186564
0.00412977985845
0.00420280137135
0.00427093415998
0.00433445938807
0.0043936213524
0.00444862592366
0.0044996351704
0.00454676981716
0.00459010717296
0.00462968648388
0.00466550995452
0.00469755194397
0.00472576576565
0.00474999903138
0.00477004174541
0.00478569176195
0.00479674256186
0.00480298392126
0.00480420074926
0.00480017820108
0.00479070267799
0.00477556783162
0.00475457651397
0.00472754730536
0.00469431731406
0.0046547491685
0.00460873457288
0.00455620162
0.00449711888351
0.00443150277179
0.00435942178391
0.00428100346143
0.00419643825671
0.00410598545604
0.0040099759269
0.0039088162211
0.00380298933855
0.00369305615367
0.00357965335859
0.00346349150522
0.00334534959841
0.00322606955906
0.00310654771349
0.00298772659438
0.00287058507529
0.0027561303101
0.00264539035227
0.00253941088052
0.00243925484316
0.00234600652167
0.00226077482519
0.00218468813005
0.00211885877817
0.00206428083096
0.00202159451914
0.00199075345654
0.00197090822558
0.00196063824393
0.00195835972178
0.00196251797823
0.00197167049408
0.00198450984701
0.00199985893992
0.00201665836609
0.00203395306664
0.00205088283357
0.00206667578088
0.0020806456165
0.00209219031117
0.00210079258524
0.00210601985298
0.00210752432211
0.00210504126082
0.002098386526
0.00208745177672
0.00207219877849
0.00205265152882
0.00202888775611
0.00200102872631
0.00196922898278
0.0019336652788
0.00189452679975
0.0018520072584
0.00180624803787
0.00175739940666
0.00170558485328
0.00165089130701
0.00159336322824
0.00153299981598
0.00146975651624
0.00140355107279
0.0013342758884
0.00126181756396
0.00118608550281
0.00110705059995
0.00102479583823
0.00093958062619
0.000851923231926
0.000762709883649
0.000673348092647
0.000585995408966
0.000503917852673
0.000432094881781
0.000378467936412
0.000357406886886
0.000399824564393
0.000430883162574
0.000443320735052
0.000468156204218
0.000505312011498
0.000554599510205
0.000615667615437
0.000687993478802
0.000770915171327
0.000863680687227
0.000965488267966
0.00107550381706
0.00119285886032
0.001316636227
0.00144585577832
0.00157946480264
0.00171634012241
0.00185529961951
0.0019951261986
0.00213459773835
0.00227252473207
0.00240778704039
0.00253937184531
0.00266640353324
0.00278816936798
0.00290413222577
0.00301393700515
0.00311740316083
0.00321451278011
0.00330538746582
0.00339026530337
0.00346947092803
0.0035433905091
0.00361244344973
0.0036770622519
0.00373767082774
0.00379467213645
0.00384843424843
0.00389928539214
0.0039475064919
0.00399333172936
0.00403694554377
0.00407848671792
0.00411804817236
0.00415568320296
0.00419140719266
0.00422520563244
0.00425703822154
0.00428669876999
0.00431392198732
0.00433845492332
0.00436004546963
0.00437844032038
0.00439338151933
0.00440460930921
0.0044118618312
0.00441487970869
0.00441340720236
0.00440719767466
0.00439601577739
0.00437964356695
0.00435788356425
0.00433056538017
0.00429754948014
0.00425873412376
0.00421405957341
0.0041635150352
0.00410714291133
0.00404504527352
0.0039773875913
0.00390440410061
0.00382640028327
0.00374375636534
0.00365692774402
0.00356644584058
0.00347291575132
0.00337701387191
0.00327948237299
0.00318112349082
0.00308279106047
0.00298538210352
0.00288982631388
0.00279707578877
0.00270809246948
0.0026238338911
0.00254523230788
0.00247316364038
0.00240839690825
0.00235151779921
0.00230282364551
0.00226222084938
0.00222927065198
0.00220317430221
0.00218290743041
0.00216737998259
0.00215551404146
0.00214628987653
0.00213876873998
0.00213210271036
0.00212553669157
0.00211840779523
0.00211014280917
0.00210025602328
0.00208834628728
0.00207409458163
0.00205726049081
0.00203767871691
0.00201525408144
0.00198995629362
0.001961813141
0.00193090352143
0.00189734915592
0.00186130645927
0.00182295756122
0.00178250198144
0.00174014817405
0.00169610659578
0.00165058400325
0.00160374303798
0.00155569707839
0.00150652593292
0.00145626805582
0.00140491480867
0.00135240646873
0.00129863123585
0.00124342748624
0.00118659098858
0.00112788812499
0.0010670774941
0.0010039420411
0.000938335543729
0.000870248582838
0.00079990332309
0.000727892854171
0.000655393340268
0.000584500186596
0.000518798964242
0.000464499443684
0.00043341165752
0.000453338149275
0.000608308647171
0.000499571347473
0.000512431575844
0.000538026992508
0.000576141645331
0.000626413092637
0.000688303918493
0.000761108637657
0.000843991339353
0.000936032504693
0.00103626711213
0.00114370386
0.00125732944161
0.00137610296849
0.00149895089061
0.00162476521578
0.00175241127602
0.00188074212241
0.00200862253307
0.0021349561197
0.0022587175577
0.0023789817206
0.00249495242811
0.00260598227762
0.00271158817376
0.00281145471801
0.00290543260645
0.00299352517577
0.00307587251241
0.00315272669583
0.0032244288643
0.00329138116311
0.00335402445138
0.00341281363889
0.00346820110244
0.00352061878462
0.00357046894734
0.00361811329321
0.00366387018983
0.00370800932167
0.00375075349564
0.00379227692026
0.00383270974215
0.00387213835291
0.00391061123965
0.00394814022295
0.00398470688534
0.00402026476176
0.00405462248126
0.00408749693868
0.00411861799722
0.00414771872374
0.00417453303415
0.00419879162521
0.00422022370618
0.00423855592532
0.004253515937
0.00426483286468
0.00427224184351
0.00427548552588
0.00427431930506
0.004268513663
0.00425785992221
0.00424217328341
0.00422129894887
0.00419511565492
0.00416354194149
0.00412653989223
0.00408412121394
0.00403635077023
0.00398335199619
0.00392530966927
0.00386247404597
0.00379516219022
0.00372376011949
0.00364872194462
0.00357056928557
0.00348988749013
0.00340732163269
0.0033235691596
0.00323937186153
0.00315550428796
0.00307276085644
0.00299193871141
0.00291381780394
0.00283913480634
0.00276855163222
0.00270261578925
0.00264171573803
0.00258603505963
0.00253551968493
0.0024898748187
0.00244874187392
0.00241151617034
0.00237750130497
0.00234597955439
0.00231625137292
0.00228766074157
0.00225961139663
0.00223157515555
0.00220309631085
0.00217379224162
0.00214335284761
0.00211153796039
0.00207817454334
0.00204315238101
0.00200641977273
0.00196797787777
0.00192787516891
0.00188620073783
0.00184307789214
0.00179865690614
0.00175310832276
0.0017066157857
0.00165936973883
0.00161156111122
0.0015633762978
0.00151499281162
0.00146655312733
0.00141813056895
0.00136976523658
0.00132145848233
0.00127316837684
0.00122480595333
0.00117623338005
0.00112726428263
0.00107766781388
0.00102717761609
0.000975508358146
0.000922382874191
0.000867575336704
0.000810978340038
0.000752707378705
0.000693264724071
0.000633801444301
0.000576553146872
0.000525638471098
0.000488845962013
0.000482950222168
0.000554399034249
0.000871744674899
0.000571596099882
0.000584835495912
0.000611106957488
0.000650069403585
0.000701212989524
0.000763847931765
0.000837121495133
0.000920057969947
0.00101160420055
0.0011106677296
0.00121613938622
0.00132690396354
0.00144184222913
0.00155983299829
0.0016797566891
0.0018005060782
0.00192100092325
0.00204020959737
0.00215717133996
0.00227102166336
0.00238101319012
0.00248653536244
0.00258712521695
0.00268247455119
0.00277242631653
0.00285696775682
0.00293621378966
0.00301038988954
0.00307980804028
0.00314484584986
0.00320592172297
0.00326347619889
0.00331795126536
0.0033697773884
0.00341935904893
0.00346706818654
0.00351323568541
0.00355815015973
0.00360205392335
0.0036451454097
0.00368757796454
0.00372946430375
0.00377087673671
0.00381185239774
0.0038523938844
0.00389247457128
0.00393203974024
0.00397095078078
0.00400891897426
0.00404566806431
0.00408092638149
0.00411442489555
0.00414589308968
0.00417506014647
0.00420165339723
0.00422540121756
0.0042460329495
0.00426328275649
0.00427689053049
0.00428660638763
0.00429219233243
0.00429342722207
0.00429010902919
0.00428206012678
0.00426912998127
0.00425120057713
0.00422818931849
0.0042000543418
0.00416679731835
0.00412846830309
0.00408516801997
0.00403705177591
0.0039843306887
0.00392727407139
0.00386620894113
0.00380152016053
0.00373364744848
0.00366308244755
0.003590362339
0.00351606288853
0.00344078765609
0.00336515598525
0.00328978677161
0.00321528049913
0.00314219705909
0.00307103229007
0.00300219214904
0.00293596911603
0.00287252210587
0.0028118662196
0.00275387266001
0.00269828906401
0.00264498680388
0.00259359488433
0.00254371559413
0.00249495010983
0.00244691773999
0.00239927021559
0.00235170064566
0.00230394967602
0.00225580782339
0.00220711643037
0.00215776618965
0.00210769523767
0.00205688555154
0.0020053593661
0.00195317431075
0.00190041882939
0.0018472066426
0.00179367170267
0.001739962493
0.00168623701241
0.00163265739586
0.00157938539542
0.00152657778416
0.00147438282044
0.00142293706002
0.00137234638304
0.00132264557362
0.00127383921588
0.00122589788262
0.00117875481955
0.0011323028908
0.00108639281817
0.00104083290267
0.000995391737023
0.000949805133238
0.000903790164842
0.000857069984968
0.000809415992088
0.000760717175493
0.000711093134833
0.000661077730475
0.000611922270228
0.000566122416285
0.000528455654009
0.000508524478759
0.000528933586909
0.000659266954173
0.00118134027424
0.000646572416544
0.00066014982052
0.00068703024274
0.000726771416661
0.0007787454216
0.000842139429889
0.000915979492723
0.000999172945639
0.0010905549469
0.00118892904928
0.00129309438398
0.00140186253109
0.00151406571912
0.00162856404435
0.00174425211491
0.00186007061037
0.00197501921294
0.00208817437701
0.00219870577418
0.00230589457351
0.00240914633713
0.0025080027144
0.00260214471441
0.00269139349415
0.00277570191119
0.00285514459697
0.00292990012559
0.00300023433368
0.003066478152
0.00312900954885
0.00318823220321
0.00324456047144
0.00329840231554
0.00335014950064
0.00340016592341
0.00344878317818
0.00349629373981
0.00354295080981
0.00358896504117
0.00363450721514
0.00367970713973
0.00372465785322
0.00376941556197
0.00381400431938
0.00385841610914
0.00390261523544
0.0039465380686
0.00399010150271
0.00403303704745
0.00407506321158
0.00411590428212
0.0041552894019
0.00419294838851
0.00422861247399
0.00426201230388
0.00429288032283
0.00432095022006
0.00434596026122
0.00436765366385
0.00438578251845
0.00440010883208
0.00441040884068
0.00441647454543
0.00441811826163
0.00441517448471
0.00440750451287
0.00439499845438
0.00437757972092
0.00435520693548
0.00432787802823
0.00429563172908
0.00425855091132
0.00421676325877
0.00417044339917
0.00411981222649
0.00406513725074
0.0040067299379
0.00394494358704
0.0038801679483
0.00381282387371
0.00374335448512
0.00367221600041
0.00359986511567
0.00352674617237
0.00345327570126
0.00337982802303
0.00330672043718
0.00323420211799
0.00316244556434
0.00309154388739
0.00302151170891
0.00295228998145
0.00288375709482
0.00281605375214
0.00274904203134
0.00268258765313
0.00261655746341
0.00255082900462
0.00248529727817
0.00241988089072
0.00235452488114
0.00228920256624
0.0022239151096
0.00215869082538
0.00209358281097
0.00202866671219
0.00196403725386
0.00189980515542
0.00183609314358
0.00177303252397
0.00171075912491
0.00164940992624
0.00158911929226
0.00153001597524
0.00147221992504
0.00141583997017
0.00136097164552
0.00130768100947
0.00125596704035
0.00120580211634
0.00115712947747
0.00110986096398
0.00106387478879
0.00101901430278
0.000975087938571
0.000931871805011
0.000889116240831
0.000846559391905
0.000803951899076
0.000761099981018
0.000717937954531
0.000674648654873
0.000631862632042
0.000590995268119
0.000554858661138
0.000528948016428
0.000524819373006
0.000571528602513
0.00076537892964
0.00152561688443
0.000723882201467
0.000737784177705
0.000765261807156
0.000805792411896
0.000858652802689
0.000922928336284
0.000997541986976
0.00108129989145
0.00117294068652
0.00127118015712
0.0013747436338
0.00148238855423
0.00159291761449
0.00170518945633
0.00181812664491
0.00193072645089
0.00204207083103
0.00215133954338
0.00225782051316
0.00236092128611
0.00246017479449
0.00255524431654
0.00264592082159
0.00273211913744
0.00281386636996
0.00289129047761
0.00296460245282
0.00303408097718
0.00310005258705
0.00316287659482
0.00322292704944
0.00328058096977
0.00333620431931
0.00339014482544
0.0034427224743
0.00349422670676
0.00354491078391
0.00359499235569
0.00364465058809
0.00369402892624
0.00374323390575
0.0037923390959
0.00384138473428
0.0038903820662
0.00393931318739
0.00398813536864
0.00403678125108
0.00408516418194
0.00413311736504
0.00418034259487
0.00422655492454
0.0042714788022
0.00431484240854
0.00435637753505
0.00439581695744
0.00443289633473
0.00446735316666
0.00449892968785
0.00452737273726
0.00455243720951
0.00457388652586
0.00459149641372
0.00460505578322
0.00461437066917
0.00461926534796
0.00461958628631
0.00461520332853
0.00460601347934
0.00459194196546
0.00457294564374
0.00454901369863
0.00452017041615
0.00448647522348
0.0044480245073
0.00440495063792
0.00435742244545
0.00430564281177
0.00424984737376
0.00419030025295
0.00412729059876
0.00406112616375
0.00399212758619
0.00392062001428
0.00384692579556
0.00377135541372
0.00369420053224
0.00361572675083
0.00353616967884
0.00345573161142
0.00337458137526
0.00329285381633
0.00321065113806
0.00312804146883
0.00304506095287
0.00296205768359
0.00287913786203
0.00279638381523
0.00271387193924
0.00263167418242
0.00254986639224
0.00246853026032
0.00238775540116
0.0023076395469
0.00222828885912
0.00214981676123
0.00207234311048
0.00199599219885
0.00192089123266
0.00184716790868
0.00177494856357
0.00170435564866
0.00163550583884
0.00156850765564
0.00150345975257
0.00144044888153
0.00137954858803
0.00132081792478
0.00126428666539
0.00120992110688
0.00115766417547
0.00110743389829
0.00105912206552
0.00101259286293
0.000967682406899
0.000924199395572
0.000881928353101
0.000840636860969
0.000800089955697
0.000760076029093
0.000720451879832
0.000681218595375
0.000642647972556
0.000605493732967
0.000571357441528
0.000543381837824
0.000527793512139
0.000538165139404
0.000610393262126
0.000870134274193
0.0018926081796
0.000802930028091
0.000817173658677
0.000845294202756
0.00088670336155
0.000940597913824
0.00100597521643
0.00108166693763
0.00116638841001
0.00125879198478
0.00135751656833
0.00146122537744
0.00156863366286
0.00167852571954
0.00178976776897
0.00190131600153
0.00201222550944
0.00212165657514
0.00222888280832
0.00233329555365
0.00243440909214
0.0025318602203
0.00262540771999
0.00271492514945
0.00280039379826
0.00288188922392
0.0029595693766
0.00303365749774
0.00310442852936
0.00317219167334
0.00323727813976
0.0033000259961
0.00336077120905
0.0034198360958
0.00347752426746
0.00353411277101
0.00358985053696
0.00364495355639
0.00369960595655
0.00375395731128
0.00380812541309
0.00386219489141
0.00391622090545
0.00397022842068
0.00402421621283
0.00407815630534
0.00413199791615
0.00418566710256
0.00423907141269
0.00429215811194
0.00434461449645
0.0043961457159
0.00444646945099
0.00449530963797
0.00454239593914
0.00458746060653
0.00463023995737
0.00467047281759
0.00470790301613
0.00474227874165
0.0047733555881
0.00480089647976
0.00482467501313
0.00484447573674
0.00486009761439
0.00487135449258
0.00487807853546
0.00488012072447
0.00487735411588
0.00486967421179
0.00485700187873
0.00483928341435
0.00481649294681
0.00478863200396
0.00475573119463
0.00471784907342
0.00467507289733
0.00462751658564
0.00457532037259
0.00451864772395
0.00445768382073
0.00439263148027
0.00432370868817
0.0042511439646
0.00417517366244
0.00409603777418
0.00401397819416
0.00392923613312
0.00384205210782
0.00375266486256
0.00366131184247
0.00356822743279
0.0034736414327
0.00337777504808
0.00328083576294
0.00318301235332
0.0030847235708
0.00298636549659
0.00288818923758
0.00279041329674
0.00269324990513
0.00259690061176
0.00250155815388
0.00240740666474
0.00231462264434
0.00222337472561
0.00213382403043
0.00204612343373
0.00196041741202
0.00187684097038
0.00179551915241
0.00171656580645
0.00164008293291
0.00156615944521
0.00149487049911
0.00142627639119
0.00136042208825
0.00129733670768
0.00123702113777
0.00117941234651
0.00112442639929
0.00107195776854
0.00102187884935
0.00097403947629
0.000928267370909
0.000884369776347
0.000842137783001
0.000801354810036
0.000761812482348
0.000723338341821
0.000685843152024
0.000649399741378
0.000614373963068
0.000581645301852
0.00055299843214
0.000531896141862
0.000525281379704
0.000548746748874
0.000645216033599
0.000971423029676
0.00227085149021
0.000883251546395
0.000897880451931
0.000926738797542
0.000969182141489
0.00102433641061
0.00109111887476
0.00116827649649
0.0012544396581
0.00134818019642
0.00144806631326
0.00155270562068
0.00166077744551
0.00177105289062
0.00188240894841
0.00199383570992
0.00210444275904
0.00221346135824
0.00232024756203
0.00242428096976
0.00252516432905
0.00262261782973
0.00271647417106
0.00280666791204
0.0028932262859
0.0029762547311
0.00305592523966
0.00313246034295
0.0032061214166
0.00327719350092
0.00334597560715
0.00341276802095
0.00347786570981
0.0035415487507
0.00360407898518
0.00366569339887
0.00372660354099
0.00378699124778
0.0038470100898
0.00390678272928
0.00396640367623
0.0040259376644
0.00408542313446
0.00414487114313
0.00420426907115
0.00426357954614
0.00432274367112
0.00438167898474
0.00444028068498
0.0044985993116
0.00455633364839
0.00461318140274
0.00466885046499
0.00472305666177
0.00477552388042
0.00482598042987
0.00487415999851
0.00491979946783
0.00496264097984
0.00500243074191
0.00503892169855
0.0050718729222
0.00510105259379
0.00512623774365
0.00514721735699
0.00516379229787
0.00517577839752
0.00518300642076
0.00518532501013
0.00518260056464
0.00517471991771
0.00516159000438
0.00514314015661
0.00511932144604
0.00509010849487
0.005055498406
0.00501551202179
0.00497019240401
0.00491960554238
0.00486383844297
0.00480299941634
0.00473721599594
0.00466663513199
0.00459142137478
0.0045117574956
0.0044278434744
0.00433989797403
0.00424815823677
0.00415288195244
0.00405434685188
0.00395285104913
0.003848710092
0.00374225396469
0.00363382082385
0.00352375152947
0.00341238136814
0.00330003483793
0.00318702280894
0.0030741521537
0.00296170701039
0.00285002912478
0.0027394256491
0.0026301813461
0.00252255886101
0.00241680008762
0.00231312663821
0.00221174112982
0.00211282737797
0.00201655130575
0.00192306089295
0.00183248673391
0.00174494178052
0.00166052163763
0.00157930418543
0.00150134970468
0.00142670047761
0.00135538094638
0.00128739776574
0.00122273287672
0.00116129772798
0.00110298429197
0.00104766511759
0.000995193738209
0.000945405130566
0.000898117169946
0.000853133394767
0.00081024861994
0.000769258909301
0.000729979152105
0.000692272672338
0.000656100578098
0.000621602872787
0.000589232663925
0.00055998439463
0.000535809246646
0.000520466149948
0.000521581109421
0.00055672329437
0.000675860048339
0.00106769055258
0.00264974798505
0.000964543129511
0.000979622913731
0.00100935463042
0.00105304306597
0.00110974785411
0.00117830954734
0.00125739263941
0.0013455441528
0.00144125696231
0.00154303030269
0.00164941802223
0.00175906510339
0.00187073010819
0.00198329983929
0.0020957950808
0.00220737398563
0.00231732993577
0.00242508969881
0.00253020687341
0.00263235650726
0.00273132488767
0.00282700110154
0.00291936381472
0.00300847074603
0.00309444379885
0.00317745806023
0.00325772704589
0.00333549290092
0.00341101327239
0.00348455388113
0.00355637787315
0.00362674120506
0.00369588462901
0.00376403172783
0.00383138321018
0.00389811709204
0.00396438477054
0.0040303127536
0.00409599997398
0.00416152053055
0.00422692181036
0.00429222784207
0.00435743793743
0.00442253039785
0.00448746150565
0.00455216944533
0.00461657365323
0.00468057936665
0.00474409672381
0.00480710894327
0.00486926591823
0.00493024939127
0.00498975927561
0.00504750884476
0.00510321861982
0.00515661614094
0.00520743286869
0.00525540573799
0.00530027535167
0.00534178829422
0.00537969599271
0.00541375740206
0.00544373826015
0.00546941394879
0.00549056897665
0.00550699988265
0.00551851482104
0.00552493640018
0.00552610126609
0.00552186278639
0.00551209054804
0.00549667281621
0.0054755158898
0.00544854629815
0.0054157100026
0.00537697434764
0.00533232716456
0.00528177857297
0.00522536013512
0.00516312670477
0.00509515588252
0.00502155019546
0.00494243714626
0.00485797196374
0.00476833834926
0.00467375163765
0.00457445967714
0.00447074531533
0.00436292579538
0.00425135259579
0.00413640743278
0.00401849815188
0.00389805113997
0.0037755042222
0.00365129738157
0.00352586474265
0.00339962617265
0.00327298245753
0.00314656958248
0.00302103076589
0.00289673998997
0.00277406510317
0.00265334119822
0.00253487186255
0.00241893090113
0.00230576419826
0.00219559034616
0.0020886024005
0.00198496845406
0.00188483291939
0.00178831690213
0.00169551914464
0.00160651623411
0.00152136327685
0.00144009397314
0.00136272116645
0.00128923700815
0.00121961448874
0.00115374607577
0.00109150277319
0.00103273689894
0.000977283709217
0.000924962889875
0.000875581070746
0.000828935773379
0.000784822369051
0.000743045571452
0.000703438664936
0.000665894807956
0.000630417982556
0.000597205627834
0.000566785090379
0.000540248380426
0.000519690298755
0.000509135439462
0.000516847708948
0.000562293768249
0.000702362795295
0.00115785456534
0.00301968900503
0.00104666373258
0.0010622784899
0.0010930535161
0.00113824504274
0.00119684744597
0.0012676241159
0.00134915542662
0.00143990266595
0.00153827708209
0.00164270639662
0.00175168832617
0.00186383104781
0.00197787766059
0.00209272088402
0.00220740684763
0.00232113511991
0.00243325206359
0.00254324410377
0.00265072615149
0.00275543174329
0.00285719895868
0.00295595918664
0.00305172200596
0.00314456392092
0.00323461352261
0.00332204141928
0.00340704681192
0.00348984953191
0.00357067874599
0.0036497675203
0.00372734386451
0.00380362776716
0.00387882439071
0.00395312321694
0.00402669299802
0.00409968253302
0.00417221693593
0.00424439957633
0.00431630927508
0.00438800302093
0.00445951379978
0.00453085380778
0.00460201272291
0.00467296121318
0.00474364945928
0.00481401062763
0.00488395915742
0.00495339343907
0.00502219273266
0.0050905009118
0.00515795789767
0.00522422939166
0.00528900004098
0.00535197020223
0.00541284950152
0.00547135604206
0.00552721249713
0.00558014716637
0.00562989152563
0.00567618219648
0.00571875927929
0.00575736879941
0.00579176152302
0.0058216956743
0.00584693606828
0.00586725697275
0.00588244144498
0.00589228424711
0.00589659130292
0.00589518259827
0.00588789169951
0.00587456859606
0.00585507925541
0.00582930840235
0.00579715913353
0.0057585556815
0.00571344317457
0.00566179049936
0.00560359035743
0.00553886239579
0.00546765374465
0.0053900425745
0.00530613921612
0.00521609011389
0.00512007929579
0.00501833218942
0.00491111653927
0.00479874478083
0.00468157278324
0.00455999905529
0.00443445984242
0.0043054243534
0.00417338637137
0.00403885672699
0.0039023535567
0.00376439490289
0.00362549122736
0.00348613994935
0.00334682412226
0.00320793267392
0.00307033172239
0.00293450798402
0.0028008653935
0.00266976649414
0.00254153779479
0.00241647143775
0.00229482510123
0.00217682532053
0.00206266783991
0.00195251955072
0.00184651908631
0.00174477816523
0.00164738216735
0.00155439113497
0.00146584014368
0.00138174020308
0.00130207890457
0.00122682214853
0.0011558612499
0.0010890480678
0.00102621615247
0.000967183164159
0.000911753258824
0.000859720614803
0.000810874537914
0.000765007725895
0.000721929190148
0.000681484949997
0.000643590701115
0.000608283863612
0.000575807081582
0.000546746198368
0.000522270854743
0.000504594397637
0.000497973784817
0.000511258076933
0.000565706167493
0.000724898709191
0.00124119965185
0.00337211992415
0.00112963325991
0.00114588321347
0.00117790174484
0.0012248962618
0.00128579391871
0.00135927722599
0.00144383713329
0.00153784281114
0.00163961711493
0.00174750952646
0.00185995522811
0.0019755196078
0.00209292449327
0.00221106256153
0.00232899877763
0.00244596670954
0.00256135715086
0.00267470646324
0.00278568013665
0.00289405880761
0.00299972077864
0.00310262854959
0.00320281232566
0.00330035848968
0.00339539512112
0.00348808306722