/*--------------------------------*- C++ -*----------------------------------*\
| =========                 |                                                 |
| \\      /  F ield         | OpenFOAM: The Open Source CFD Toolbox           |
|  \\    /   O peration     | Version:  2206                                  |
|   \\  /    A nd           | Website:  www.openfoam.com                      |
|    \\/     M anipulation  |                                                 |
\*---------------------------------------------------------------------------*/
FoamFile
{
    version     2.0;
    format      ascii;
    arch        "LSB;label=64;scalar=64";
    class       volScalarField;
    location    "2.5/water";
    object      k.gas;
}
// * * * * * * * * * * * * * * * * * * * * * * * * * * * * * * * * * * * * * //

dimensions      [0 2 -2 0 0 0 0];

internalField   nonuniform List<scalar> 
23300
(
0.00435610270183
0.00440183008383
0.00449487586876
0.00463749718702
0.00483103841622
0.00507479503791
0.00536560093107
0.00569815968838
0.00606582536312
0.00646146176277
0.00687809041037
0.00730927161679
0.00774924500543
0.00819294900123
0.0086359670777
0.00907448143525
0.00950522174675
0.00992545121741
0.0103329470783
0.0107260093035
0.0111034456379
0.0114645718295
0.0118091737856
0.0121374798729
0.0124500907101
0.0127479242159
0.0130321230686
0.0133039895117
0.0135648918031
0.0138162107161
0.0140592647296
0.0142952828947
0.014525357393
0.0147504446951
0.0149713420356
0.015188709087
0.0154030585704
0.0156147878166
0.0158241738854
0.0160314066172
0.0162365820096
0.0164397319626
0.0166408128523
0.0168397294641
0.017036316767
0.017230354735
0.0174215370054
0.017609623859
0.0177944066817
0.0179755977865
0.0181528519522
0.0183258005052
0.0184940409577
0.0186571562679
0.0188146996176
0.0189662109403
0.0191112024042
0.0192491747022
0.0193796045399
0.0195019613478
0.0196156972364
0.0197202644496
0.0198151080591
0.0198996843814
0.0199734565581
0.0200359140178
0.0200865708611
0.020124986154
0.0201507646483
0.0201635772167
0.0201631628752
0.020149348037
0.0201220481344
0.0200812837215
0.0200271794362
0.0199599746458
0.0198800174726
0.0197877681165
0.0196837865681
0.0195687281048
0.0194433249203
0.0193083749006
0.0191647185141
0.0190132219531
0.0188547481259
0.0186901275202
0.0185201021038
0.0183452243766
0.0181655864116
0.0179802881182
0.0177873329917
0.0175852027045
0.0173729276042
0.0171499207927
0.0169158652662
0.0166706557055
0.0164143602821
0.0161472023076
0.0158695410166
0.0155818613134
0.0152847565097
0.0149789174062
0.0146651128526
0.0143441765672
0.0140169854689
0.0136844449093
0.0133474660742
0.0130069510529
0.012663770965
0.0123187522235
0.0119726565753
0.0116261690656
0.0112798799145
0.0109342728798
0.0105897060224
0.0102463942724
0.00990437698118
0.00956362927221
0.00922409515869
0.00888556585427
0.00854767442371
0.00820989096545
0.00787151208024
0.00753165326879
0.0071892414464
0.00684301826611
0.00649155720869
0.00613330982782
0.00576669256453
0.00539023796713
0.00500283624064
0.00460411196296
0.00419500103619
0.00377863589133
0.00336168572937
0.00295624890045
0.00258190816398
0.00226604787464
0.00203885925706
0.00192305748171
0.00438525842161
0.00443313134157
0.00453003608641
0.00467739468274
0.00487566143192
0.00512337825569
0.00541684633612
0.00575045951296
0.00611743077925
0.00651057299766
0.00692288660941
0.0073479019461
0.00777981110241
0.00821348737575
0.00864444608907
0.00906880717491
0.00948326045196
0.00988505722211
0.0102720031551
0.0106424666154
0.010995371341
0.0113301906861
0.0116469136116
0.0119460066298
0.0122283450522
0.0124951448552
0.0127478706833
0.0129881560291
0.013217710432
0.013438250911
0.0136514288602
0.0138587881581
0.0140617209892
0.0142614552493
0.0144590363684
0.0146553367873
0.0148510542725
0.0150467330607
0.0152427689422
0.0154394335957
0.0156368799023
0.0158351646281
0.016034250949
0.0162340277633
0.0164343092548
0.016634852301
0.0168353578799
0.0170354051804
0.0172344636158
0.0174320054968
0.0176274836451
0.0178203346484
0.0180099688789
0.0181957778404
0.0183771267052
0.0185533627113
0.0187238094485
0.0188877762037
0.0190445541332
0.0191934267363
0.0193336681118
0.0194645547595
0.0195853660898
0.0196953977034
0.0197939642212
0.0198804140478
0.0199541343682
0.0200145671047
0.020061215545
0.0200936607332
0.020111568644
0.0201147056239
0.0201029443617
0.0200762763417
0.0200348142807
0.0199787991506
0.019908596634
0.0198246965425
0.0197277015274
0.019618317759
0.0194973352608
0.0193656094962
0.0192240323417
0.0190735015491
0.0189148745033
0.0187489090113
0.0185761698998
0.0183968983304
0.0182108390864
0.0180173434961
0.0178153488531
0.0176037375743
0.0173816228576
0.0171483712545
0.0169035801803
0.0166470545691
0.0163787836459
0.0160989264172
0.0158077961796
0.0155058503493
0.0151936762588
0.0148719801288
0.0145415707687
0.014203345853
0.0138582729019
0.0135073730833
0.0131517003805
0.0127923242144
0.0124303083616
0.0120666938953
0.0117024792094
0.0113386042565
0.0109759323292
0.0106152358742
0.0102571802873
0.00990231227204
0.00955104966957
0.00920366143563
0.00886032827779
0.00852106518771
0.00818570468521
0.00785388066289
0.00752500929798
0.00719827166732
0.0068725980521
0.00654666143548
0.00621888511534
0.00588747666689
0.00555050000959
0.00520600490536
0.00485223622331
0.00448795741622
0.00411293759424
0.00372868081885
0.0033395084494
0.0029541087511
0.00258753437107
0.00226326951056
0.0020148479313
0.0018867148661
0.00448084603127
0.00453234818847
0.0046358125314
0.00479149985777
0.00499858373605
0.00525449767476
0.00555477586004
0.00589341208498
0.00626350545788
0.00665792119716
0.00706977858667
0.00749273413257
0.00792109231593
0.00834982498624
0.00877454268186
0.00919146722022
0.00959740544428
0.00998974343453
0.0103664394838
0.0107260275164
0.0110676043854
0.0113908158419
0.0116958161859
0.0119832228929
0.0122540443009
0.0125096079112
0.0127514692047
0.012981332284
0.0132009612792
0.0134121143291
0.0136164756024
0.0138156155431
0.0140109506442
0.0142037311795
0.014395025195
0.0145857266096
0.014776554544
0.0149680723034
0.0151606932979
0.015354703337
0.0155502673324
0.0157474506139
0.0159462237632
0.016146481494
0.0163480455637
0.0165506825441
0.0167541083216
0.0169578389925
0.0171612441944
0.0173637111729
0.0175646214652
0.0177633480199
0.0179592437108
0.0181516452114
0.018339866205
0.0185232037821
0.0187009341565
0.0188723205071
0.019036610723
0.0191930465154
0.0193408631611
0.0194792999413
0.0196076019442
0.019725031908
0.0198308740909
0.0199244474866
0.0200051115921
0.0200722807116
0.0201254311225
0.0201641157731
0.0201879718541
0.0201967346281
0.0201902437995
0.0201684545791
0.0201314406425
0.0200794000325
0.0200126521831
0.0199316362053
0.019836899671
0.0197290872647
0.0196089194664
0.0194771696582
0.0193346301133
0.0191820735891
0.0190202004903
0.0188495771394
0.0186705583868
0.018483210575
0.0182872540814
0.0180821834812
0.017867596644
0.0176427944008
0.0174071700033
0.0171602648684
0.0169017879788
0.0166316214291
0.0163498149823
0.0160565802188
0.0157522797628
0.0154374183425
0.015112629463
0.0147786638437
0.0144363733306
0.014086696558
0.0137306403268
0.0133692631262
0.0130036550607
0.0126349205794
0.0122641584858
0.0118924453465
0.0115208169391
0.0111502534295
0.010781663148
0.010415870219
0.0100536013727
0.00969547699787
0.00934200266988
0.00899353810858
0.00865031579961
0.0083124133669
0.00797973612599
0.00765200002118
0.00732871196635
0.00700915122134
0.00669235163898
0.00637709093073
0.00606189109329
0.00574504045607
0.00542464768039
0.00509874466935
0.00476545777827
0.00442327557017
0.0040714490563
0.00371057215213
0.00334339154384
0.0029758740698
0.00261855005812
0.00228861960157
0.00201651777153
0.00187175240969
0.00466253694068
0.00471768137722
0.00482771115752
0.00499174216716
0.00520768812538
0.00547190720896
0.00577921754282
0.00612327487983
0.00649712641749
0.00689374671278
0.00730642567236
0.00772899579901
0.00815592419731
0.00858233384216
0.00900398431038
0.0094172526366
0.00981911118899
0.010207120599
0.0105794174955
0.0109347094527
0.0112722529471
0.0115918298426
0.0118936996029
0.0121785485839
0.0124474160558
0.0127016235801
0.0129426884245
0.0131722504696
0.0133919918449
0.0136035788314
0.0138086019403
0.0140085422655
0.0142047364714
0.0143983672057
0.014590448938
0.0147818357106
0.0149732199778
0.0151651495775
0.0153580322551
0.0155521555797
0.0157476923733
0.015944720013
0.0161432245202
0.0163431178858
0.0165442404695
0.0167463768273
0.0169492581497
0.0171524473773
0.0173552989537
0.0175571827028
0.0177574649866
0.0179555063636
0.0181506506293
0.018342228076
0.0185295490712
0.018711910004
0.0188885894714
0.0190588557577
0.019221964989
0.0193771698167
0.0195237193683
0.0196608690746
0.019787882375
0.0199040416786
0.0200086517619
0.0201010517837
0.0201806201806
0.0202467874608
0.020299042146
0.0203369437395
0.0203601288655
0.020368323342
0.0203613471516
0.0203391239953
0.0203016831732
0.0202491644775
0.0201818146382
0.0200999851339
0.0200041207479
0.019894747933
0.019772453179
0.0196378597411
0.019491593681
0.0193342471768
0.0191663316437
0.0189882306634
0.0188001514412
0.0186020935467
0.0183938432004
0.018175011724
0.0179454859129
0.0177051229024
0.0174536449266
0.0171908687779
0.0169167277007
0.0166312852597
0.0163347385722
0.0160274190555
0.0157097862263
0.015382421674
0.0150460176201
0.0147013665806
0.014349346354
0.0139909066582
0.0136270517595
0.013258825324
0.0128872920616
0.0125135222089
0.0121385736256
0.0117634772119
0.0113892206133
0.0110167354845
0.010646883509
0.0102804459544
0.00991811223724
0.00956047170659
0.00920800425402
0.00886105828965
0.00851984626554
0.0081844407323
0.0078547598476
0.00753055300718
0.00721138396918
0.00689661468738
0.00658538929252
0.00627662333749
0.00596900138176
0.0056609918356
0.00535088792315
0.00503689001163
0.00471724673119
0.00439047925319
0.00405571524158
0.00371315721481
0.00336468706772
0.00301456378299
0.0026702147687
0.00234405495074
0.00206341768715
0.00192653248479
0.00493327370933
0.0049912228105
0.00510625966841
0.00527659076655
0.00549916399615
0.00576954187229
0.00608203940408
0.00643010100681
0.00680677383796
0.00720514591881
0.00761866053319
0.00804130560606
0.00846769520277
0.00889309477231
0.00931340941781
0.00972516991178
0.0101255108995
0.0105121594207
0.0108834146044
0.0112381326647
0.0115756946556
0.0118959740551
0.0121992825855
0.012486316364
0.0127580824042
0.0130158318047
0.0132609798592
0.0134950414545
0.01371956019
0.0139360594567
0.0141459908607
0.0143507071188
0.0145514319138
0.0147492529922
0.0149451092214
0.015139797837
0.0153339720651
0.0155281558645
0.0157227462629
0.0159180306141
0.0161141898886
0.0163113156063
0.0165094122442
0.016708412611
0.016908178865
0.0171085164097
0.0173091747235
0.0175098265834
0.0177098389599
0.0179085902987
0.018105454657
0.0182998009849
0.0184909834282
0.0186783449528
0.0188612115081
0.0190388980342
0.0192107050286
0.0193759259567
0.0195338455952
0.0196837484665
0.0198249187081
0.0199566493862
0.0200782437594
0.0201890253818
0.0202883406259
0.0203755694378
0.0204501288913
0.0205114843151
0.0205591534602
0.0205927174765
0.0206118249799
0.0206162020068
0.0206056548772
0.0205800778262
0.0205394531191
0.020483854626
0.0204134432627
0.0203284644814
0.0202292369519
0.0201161419699
0.0199896035645
0.0198500684637
0.0196979770629
0.019533734966
0.0193576786505
0.019170047325
0.0189709592048
0.0187604076622
0.0185382755014
0.0183043711801
0.0180584714885
0.0178010272842
0.0175321666104
0.0172520111301
0.0169607646908
0.0166587249957
0.0163462854234
0.0160239374169
0.0156922665541
0.0153519492581
0.0150037438847
0.014648482872
0.0142870600794
0.0139204198521
0.0135495421358
0.0131754299341
0.0127990936675
0.0124215383997
0.0120437487188
0.0116666768194
0.0112912288103
0.010918254313
0.0105485346231
0.0101827739567
0.009821589277
0.00946550255378
0.00911493099667
0.00877017154428
0.00843139047453
0.00809862905976
0.00777179221667
0.00745063732831
0.00713476078892
0.0068235852605
0.00651634679315
0.00621208621044
0.00590964698769
0.0056076873526
0.0053047142014
0.00499915255266
0.00468946593778
0.00437434816666
0.0040530041951
0.00372552614659
0.00339333444625
0.00305961105249
0.00272978280994
0.00241351941894
0.0021389234866
0.00204384050978
0.00527962469094
0.00533939238427
0.00545763388667
0.00563194288214
0.00585864811541
0.00613282590707
0.00644850384408
0.00679902491381
0.00717746235567
0.00757699486871
0.00799117717354
0.00841410964919
0.00884051702096
0.0092657785665
0.00968592162454
0.0100976096884
0.0104981179884
0.0108853155919
0.0112576358666
0.0116140514013
0.0119540321109
0.0122775052193
0.0125847962162
0.0128765736368
0.0131537775131
0.0134175576404
0.0136692010143
0.0139100760074
0.0141415706407
0.0143650523539
0.0145818239323
0.0147931022529
0.0149999922036
0.0152034820057
0.0154044309998
0.0156035762636
0.0158015288062
0.0159987861667
0.0161957324664
0.0163926531429
0.0165897359915
0.0167870858297
0.0169847250612
0.0171826071559
0.0173806160535
0.017578578025
0.0177762602334
0.0179734725874
0.0181696140915
0.0183640842692
0.0185562748187
0.0187455722779
0.0189313500666
0.0191129727867
0.0192897909135
0.0194611469678
0.0196263723278
0.0197847946155
0.0199357360617
0.0200785217039
0.0202124789934
0.0203369465933
0.0204512750246
0.0205548359083
0.0206470234542
0.0207272639598
0.020795017883
0.0208497893133
0.0208911282374
0.0209186395308
0.0209319848272
0.020930890344
0.020915147508
0.0208846186446
0.0208392352276
0.0207790001879
0.0207039824277
0.0206143143598
0.0205101813232
0.0203918131821
0.0202594678266
0.0201134167203
0.0199539235189
0.0197812264984
0.0195955180154
0.0193969333369
0.0191855444316
0.0189613707603
0.0187243989751
0.0184746139135
0.0182120183517
0.0179366734906
0.0176495903922
0.0173511789293
0.0170419162376
0.0167223459607
0.0163930751152
0.0160547730438
0.0157081671007
0.0153540409111
0.0149932274584
0.0146266038203
0.0142550812588
0.0138795973371
0.0135011041582
0.0131205590796
0.0127389123144
0.0123570973701
0.0119760190193
0.0115965442816
0.0112194914031
0.010845621796
0.0104756302152
0.0101101375677
0.00974968189126
0.00939471124138
0.0090455741484
0.00870250665515
0.00836562188777
0.00803492140993
0.00771028642012
0.00739146932314
0.00707808335308
0.00676959312104
0.00646530509656
0.00616436198495
0.00586574266646
0.00556827454385
0.00527066477304
0.00497156242793
0.00466966429899
0.00436387967453
0.00405356219355
0.00373879862001
0.0034207054926
0.00310166522523
0.00278568499311
0.00248101184583
0.00221995254958
0.00219201114234
0.00568222061243
0.0057430826763
0.00586323458373
0.00603989795389
0.00626904700317
0.00654549598828
0.00686313126335
0.00721525966815
0.00759498552173
0.00799554971958
0.0084105781082
0.00883424404556
0.00926134888897
0.00968735722975
0.0101083936115
0.0105212303447
0.0109232586228
0.0113124632167
0.0116873835642
0.0120470792431
0.01239107954
0.0127193372685
0.0130321662678
0.01333018606
0.013614253046
0.0138854042119
0.0141447916746
0.0143936350479
0.0146331678878
0.0148646051051
0.015089105268
0.0153077542987
0.0155215426793
0.0157313625775
0.0159379960774
0.0161421212027
0.0163443067525
0.0165450230445
0.016744639891
0.016943439161
0.0171416137795
0.0173392804616
0.0175364786389
0.0177331824437
0.0179292988123
0.0181246776411
0.0183191071051
0.0185124634823
0.0187042855581
0.0188939909822
0.019080989377
0.0192646876945
0.0194444827828
0.0196197656725
0.0197899162889
0.0199543095901
0.0201123123657
0.0202632905087
0.0204066072006
0.0205416308064
0.0206677340487
0.0207843022494
0.0208907332322
0.0209864457061
0.0210708796598
0.0211435046721
0.021203820524
0.021251365161
0.0212857151679
0.0213064930051
0.0213133668789
0.0213060567404
0.0212843329496
0.021248020387
0.0211969951865
0.0211311862167
0.0210505691246
0.0209551645048
0.0208450287104
0.0207202484642
0.0205809286542
0.0204271843663
0.020259127739
0.0200768610611
0.0198804682607
0.0196700166865
0.019445562002
0.019207166117
0.018954917169
0.0186889544246
0.0184094824149
0.0181167730716
0.017811169042
0.0174941611904
0.0171664365057
0.0168287757932
0.0164819971927
0.0161269502671
0.015764509406
0.0153955728472
0.0150210569647
0.0146418928362
0.0142590186869
0.0138733748901
0.0134858952712
0.01309750111
0.0127090920041
0.012321539547
0.0119356783567
0.0115522999089
0.0111721440766
0.0107958932969
0.0104241646195
0.0100575039941
0.00969637837969
0.00934116942952
0.00899216458047
0.00864954367309
0.0083133681684
0.00798359927256
0.00766009113046
0.0073425846176
0.00703069953915
0.00672392807456
0.00642162844084
0.0061230224804
0.00582719846931
0.00553312527731
0.00523968323926
0.00494572182198
0.00465015336375
0.004352092202
0.00405103753581
0.0037470772017
0.00344105654447
0.0031346740994
0.00283085269621
0.00253729006628
0.00229313078557
0.00234987622315
0.00612285370223
0.00618444027327
0.00630587207196
0.0064841511984
0.00671505336905
0.00699325386514
0.00731256992706
0.00766629551264
0.00804755481193
0.00844962238358
0.00886616208737
0.00929138919426
0.00972015482208
0.010147985478
0.0105710812784
0.0109863018904
0.011391132136
0.0117836490233
0.0121624738583
0.0125267292222
0.0128759812244
0.0132101884728
0.01352963724
0.0138348868249
0.0141267038315
0.0144060112152
0.0146738293479
0.0149312357002
0.0151793183389
0.0154191498793
0.0156517550878
0.015878098715
0.0160990653445
0.0163154580128
0.0165279867258
0.0167372740062
0.0169438485317
0.0171481543645
0.0173505471283
0.017551304786
0.0177506248634
0.0179486356152
0.0181453935819
0.018340894587
0.018535071402
0.0187278046857
0.0189189220947
0.0191082132259
0.0192955407011
0.0194803193591
0.0196619725576
0.019839928675
0.0200136105514
0.0201824386128
0.0203458250696
0.0205031797946
0.0206539068555
0.0207974115413
0.020933098166
0.0210603775689
0.0211786656995
0.021287391259
0.021385994769
0.0214739361261
0.0215506939031
0.0216157726014
0.0216687019219
0.0217090434699
0.0217363896962
0.021750369762
0.0217506478071
0.0217369276347
0.0217089499343
0.0216664954307
0.0216093807065
0.0215374595233
0.0214506170253
0.021348769173
0.0212318554879
0.0210998371037
0.0209526890217
0.0207903984053
0.0206129587855
0.0204203720176
0.0202126487872
0.0199898191289
0.0197519435287
0.0194991336833
0.0192315705321
0.0189495242957
0.0186533617664
0.0183435472408
0.0180206234407
0.0176851974086
0.0173389860677
0.0169830390381
0.0166183734786
0.01624601365
0.0158669749958
0.0154822717028
0.0150929096991
0.0146998841343
0.01430417333
0.0139067359191
0.0135085046459
0.0131103831978
0.0127132399252
0.0123179044136
0.0119251612354
0.0115357463407
0.0111503408688
0.0107695673031
0.0103939831819
0.0100240767356
0.00966026008226
0.00930286381382
0.00895212899853
0.00860819172739
0.00827106765676
0.00794068099537
0.0076168593244
0.00729932922515
0.00698771066298
0.00668151298015
0.00638013148331
0.00608284816888
0.00578883758794
0.00549718330729
0.00520690912392
0.00491703288584
0.00462664837873
0.00433503843315
0.0040418091405
0.00374701457042
0.00345122011525
0.0031555122075
0.0028619864651
0.00257846566928
0.00235306367087
0.00250733645195
0.00658727745085
0.00664950885087
0.00677212651722
0.00695199325503
0.00718475849175
0.00746500647279
0.00778650271613
0.00814251962287
0.00852617681472
0.00893075201297
0.00934991722752
0.00977790354178
0.010209589548
0.0106405440372
0.0110670242028
0.0114859584969
0.0118949061288
0.0122920164798
0.012675972825
0.0130459417928
0.0134015094223
0.0137426263956
0.0140695417307
0.0143827493928
0.0146829257436
0.0149708836457
0.0152475193628
0.0155137786828
0.0157706164173
0.0160189759141
0.016259761031
0.0164938274277
0.0167219645297
0.0169448954085
0.0171632654692
0.0173776476411
0.0175885349682
0.0177963486197
0.0180014325039
0.0182040625723
0.0184044424482
0.0186027132166
0.0187989495706
0.0189931696021
0.0191853311246
0.0193753411608
0.0195630525737
0.0197482738435
0.0199310890658
0.0201109418308
0.0202872834088
0.0204595704156
0.0206272552675
0.0207897899217
0.0209466201237
0.0210971911628
0.0212409440147
0.0213773220275
0.0215057681728
0.0216257320693
0.021736667856
0.0218380412115
0.0219293275442
0.0220100187856
0.0220796216608
0.0221376640662
0.0221836931944
0.0222172813043
0.0222380234738
0.0222455425636
0.0222394863802
0.0222195316551
0.0221853804474
0.0221367630313
0.0220734334877
0.0219951715623
0.0219017776387
0.0217930739561
0.0216688995963
0.0215291120188
0.0213735834004
0.0212022042845
0.0210148835338
0.0208115567643
0.0205921927188
0.0203568088808
0.0201054852467
0.0198383853276
0.0195557713924
0.0192580203566
0.0189456269813
0.0186192015541
0.0182794537058
0.0179271686596
0.0175631822826
0.0171890775293
0.0168064416841
0.0164164658051
0.0160202817081
0.0156190144424
0.0152137614146
0.014805590015
0.0143955316152
0.0139845799955
0.0135736869078
0.0131637610328
0.0127556638944
0.0123502087251
0.0119481563678
0.0115502137222
0.0111570293666
0.0107691913254
0.0103872221221
0.0100115755494
0.00964263081301
0.00928068801687
0.0089259612345
0.0085785618197
0.00823846856683
0.0079055749694
0.00757968538182
0.00726051225583
0.00694767247917
0.0066406856778
0.00633897348256
0.00604186316884
0.00574859637397
0.00545834764558
0.00517025568211
0.00488347277692
0.00459723414195
0.00431094478629
0.00402426765193
0.00373717960481
0.00344995517227
0.00316313903524
0.00287822869193
0.00260373502991
0.00239852740263
0.0026598302481
0.00706530292003
0.00712829848741
0.00725237325625
0.00743428346536
0.00766957209198
0.0079527331918
0.00827746305534
0.00863698218736
0.00902436958806
0.00943287089608
0.00985613540288
0.0102883842585
0.0107245022912
0.0111600822982
0.0115914217115
0.0120155013051
0.0124299380613
0.012832937058
0.0132232273167
0.0136000045926
0.0139628621693
0.0143117332559
0.0146468238625
0.0149685610424
0.0152775335003
0.0155744504396
0.015860093664
0.0161352893656
0.0164008727257
0.0166576721599
0.0169064848812
0.0171480710852
0.0173831375768
0.0176123387021
0.0178362650864
0.0180554485445
0.0182703537159
0.0184813850795
0.0186888801801
0.0188931177126
0.0190943117249
0.0192926202585
0.0194881402171
0.0196809161176
0.0198709350511
0.0200581343896
0.0202423947521
0.020423542452
0.0206018363827
0.0207768093779
0.0209479549836
0.0211147604973
0.0212767075681
0.021433278863
0.0215839524761
0.0217282073495
0.0218655187525
0.02199536447
0.0221172213352
0.0222305717126
0.022334900576
0.0224297019227
0.0225144760916
0.0225887359076
0.0226520040372
0.0227038187206
0.0227437309954
0.0227713098921
0.0227861393803
0.0227878229254
0.0227759800565
0.0227502502421
0.0227102890731
0.0226557715375
0.0225863879838
0.0225018470942
0.0224018720732
0.0222862039587
0.0221545988938
0.0220068328861
0.0218427015306
0.0216620278275
0.0214646661205
0.0212505147147
0.0210195254125
0.0207717214304
0.0205072114172
0.0202262091608
0.0199290456659
0.0196161816133
0.0192882073382
0.0189458394816
0.0185899043776
0.0182213207926
0.0178410720355
0.0174501869754
0.0170497201817
0.0166421291674
0.0162284955915
0.0158100774826
0.0153880647972
0.0149636024429
0.0145377853404
0.014111657508
0.013686208887
0.013262375856
0.0128410385788
0.0124230214677
0.0120090905267
0.0115999532175
0.011196255299
0.0107985797074
0.0104074425274
0.0100232905578
0.00964649613282
0.00927735330866
0.00891607186526
0.00856276458722
0.00821738574541
0.00787980748632
0.00754981711717
0.00722711596922
0.00691131762894
0.00660194840429
0.00629844904248
0.00600018097352
0.00570643745026
0.00541646359325
0.00512948686472
0.00484476121234
0.00456162317738
0.00427955333673
0.00399822311913
0.00371749496197
0.00343735187904
0.00315787221562
0.00288016235573
0.00261390169859
0.00243023610948
0.00280520552928
0.00754997744671
0.00761398528661
0.00774002414447
0.00792474782233
0.00816358207287
0.00845090457641
0.00878030364119
0.00914490237605
0.00953769347867
0.00995184894897
0.01038096022
0.010819210219
0.0112614673006
0.011703329555
0.0121411183772
0.01257185184
0.0129931902966
0.0134033806262
0.0138011845255
0.0141858152511
0.0145568638749
0.0149142395668
0.0152581021757
0.0155888124111
0.0159068755846
0.0162129049445
0.0165075784427
0.0167916155545
0.0170657462263
0.0173306991661
0.0175871803309
0.0178358695099
0.0180774052027
0.0183123863822
0.018541361131
0.0187648312758
0.0189832430925
0.0191969934587
0.0194064218007
0.019611817143
0.0198134110356
0.020011385295
0.0202058659115
0.0203969314402
0.0205846079809
0.0207688783559
0.0209496787724
0.021126910843
0.0213004888765
0.021470596382
0.0216366934087
0.0217982709597
0.0219548298536
0.0221058786322
0.0222509240668
0.0223894748694
0.0225210359559
0.0226451139342
0.0227612127853
0.0228688397833
0.0229675017501
0.0230567109274
0.0231359814805
0.0232048351464
0.0232627978303
0.0233094049461
0.0233441980035
0.0233667295877
0.0233765598698
0.0233732612106
0.0233564145892
0.0233256138912
0.0232804623611
0.0232205767741
0.0231455842028
0.0230551264869
0.0229488578657
0.0228264504576
0.0226875936347
0.0225320015472
0.0223594154073
0.0221696142817
0.0219624214345
0.0217377192506
0.0214954598992
0.0212356836324
0.0209585315383
0.020664263126
0.0203532651686
0.0200260611934
0.0196833089267
0.0193257958484
0.0189544227539
0.0185701867353
0.0181741557914
0.0177674458901
0.0173511950284
0.0169265480103
0.0164953146753
0.0160593738547
0.0156199356715
0.0151782241508
0.0147354048227
0.0142925823255
0.0138508005086
0.0134110435399
0.0129742336043
0.0125412325728
0.0121128399672
0.0116897936208
0.0112727670621
0.0108623689691
0.0104591395806
0.0100635486417
0.00967599051671
0.00929678065845
0.00892614968277
0.00856424232946
0.00821100887155
0.00786631295945
0.00752993396863
0.00720156807634
0.00688082843227
0.00656724765665
0.00626028176067
0.00595931862485
0.00566369102882
0.00537269747123
0.00508563099721
0.00480181722559
0.00452065710168
0.00424166476833
0.003964479199
0.00368882173968
0.00341439365465
0.00314088296509
0.00286918763451
0.00261057063944
0.00244976291839
0.00294233546351
0.00803669188947
0.00810204510226
0.00823071087457
0.00841922765869
0.00866287576395
0.00895587393502
0.00929165021501
0.00966317414353
0.0100632973702
0.0104850694476
0.0109219831802
0.011368150518
0.0118183977658
0.0122683082512
0.0127142111112
0.0131531479697
0.0135828103203
0.0140014757162
0.0144079284932
0.0148013908177
0.0151814449087
0.0155479717796
0.0159010839695
0.01624107796
0.0165683810798
0.016883519157
0.0171870775514
0.0174796825017
0.0177619738062
0.0180345965769
0.0182981820714
0.0185533462179
0.0188006753444
0.0190407285188
0.0192740258838
0.0195010529416
0.0197222502777
0.0199380188877
0.0201487108696
0.0203546355101
0.0205560509522
0.0207531710357
0.020946158063
0.0211351303749
0.0213201561407
0.0215012612412
0.0216784233412
0.0218515786566
0.0220206130988
0.0221860031945
0.0223472654773
0.0225039246934
0.0226555087922
0.0228015518647
0.0229415857706
0.0230751438276
0.0232017543297
0.0233209454894
0.0234322402862
0.0235351618732
0.0236292290414
0.0237139616503
0.0237888764141
0.0238534922276
0.0239073261758
0.0239498987325
0.0239807299584
0.0239993445846
0.0240052683989
0.0239980332664
0.0239771737659
0.0239422322706
0.0238927560037
0.0238283024304
0.023748437064
0.0236527396026
0.023540803027
0.0234122411325
0.0232666896745
0.023103816118
0.0229233236784
0.0227249640579
0.0225085449403
0.0222739458547
0.0220211286065
0.0217501547934
0.0214611964973
0.0211545514462
0.0208306487954
0.0204900561534
0.020133475047
0.0197617359766
0.0193757823273
0.0189766553008
0.0185654710175
0.0181434026446
0.0177116606135
0.0172714776669
0.016824103404
0.0163705939206
0.0159132772134
0.0154535677512
0.0149927049887
0.0145318593458
0.0140721408382
0.0136145981505
0.0131602146264
0.0127099128348
0.0122645512771
0.0118249258236
0.0113917668049
0.0109657385991
0.0105474361067
0.0101373826624
0.0097360250834
0.00934373029252
0.00896078000482
0.00858736816457
0.00822348922623
0.0078690113636
0.00752371754878
0.0071873078965
0.00685940134115
0.00653953986257
0.0062271942848
0.00592177457921
0.00562264423353
0.00532914115603
0.00504060411658
0.00475640417729
0.00447597455576
0.00419882756428
0.00392453759822
0.00365266816631
0.00338265521032
0.00311386780088
0.00284715369227
0.00259572493765
0.00245902694299
0.00307050674222
0.00852247035897
0.00858956281531
0.00872163083363
0.00891507402698
0.00916498775183
0.00946537887897
0.00980945297593
0.0101899603129
0.0105995483397
0.0110310874533
0.0114779239884
0.0119340608582
0.0123942531314
0.0128540476115
0.0133097650492
0.01375845841
0.0141978406888
0.0146262121607
0.0150423731356
0.0154455493376
0.0158353103816
0.0162115074242
0.0165742064594
0.0169236433035
0.0172601737776
0.0175842456341
0.0178963635827
0.0181970747945
0.0184869448122
0.0187665522717
0.019036471553
0.0192972728069
0.0195495081253
0.0197937141619
0.0200303999127
0.0202600505005
0.0204831157962
0.0207000148781
0.0209111254296
0.021116788877
0.0213173007897
0.0215129168395
0.0217038444124
0.0218902493902
0.0220722488337
0.0222499179648
0.0224232826057
0.0225923234007
0.0227569614859
0.0229176778677
0.0230742926585
0.0232263550166
0.0233734108278
0.0235150117532
0.0236507072757
0.0237800477406
0.0239025768212
0.0240178358282
0.0241253576842
0.0242246718696
0.0243152991447
0.024396756658
0.0244685531229
0.0245301939917
0.0245811770352
0.0246209976154
0.0246491446887
0.0246651062418
0.0246683657709
0.0246584079744
0.0246347158094
0.0245967765923
0.0245440798204
0.0244761239304
0.0243924151968
0.0242924755306
0.0241758429092
0.0240420807246
0.0238907803039
0.0237215723576
0.023534132088
0.0233281930717
0.0231035550172
0.022860099691
0.0225978003234
0.0223167377715
0.0220171088696
0.0216992392356
0.0213635863386
0.021010744569
0.0206414392372
0.0202565215031
0.0198569529444
0.019443792287
0.0190181746486
0.018581295738
0.0181343913824
0.0176787232865
0.0172155606763
0.01674616653
0.0162718418395
0.0157935677696
0.0153138513623
0.014833873666
0.014354822232
0.0138778308652
0.0134039544114
0.0129341979324
0.0124694991222
0.0120107364361
0.0115587225675
0.0111142044465
0.0106778599963
0.0102502954513
0.00983203987875
0.0094235414242
0.00902516190899
0.00863717471261
0.00825966913739
0.00789253600804