/*--------------------------------*- C++ -*----------------------------------*\
| =========                 |                                                 |
| \\      /  F ield         | OpenFOAM: The Open Source CFD Toolbox           |
|  \\    /   O peration     | Version:  2206                                  |
|   \\  /    A nd           | Website:  www.openfoam.com                      |
|    \\/     M anipulation  |                                                 |
\*---------------------------------------------------------------------------*/
FoamFile
{
    version     2.0;
    format      ascii;
    arch        "LSB;label=64;scalar=64";
    class       surfaceScalarField;
    location    "2.5/water";
    object      phi;
}
// * * * * * * * * * * * * * * * * * * * * * * * * * * * * * * * * * * * * * //

dimensions      [0 3 -1 0 0 0 0];

oriented        oriented;

internalField   nonuniform List<scalar> 
46280
(
-5.13019147943e-10
5.13047565255e-10
-1.046415436e-09
5.33363409913e-10
-1.61104232787e-09
5.64692613867e-10
-2.22019248232e-09
6.09106754296e-10
-2.88442172558e-09
6.64304362581e-10
-3.61256604127e-09
7.28088413766e-10
-4.41128747821e-09
7.98819966722e-10
-5.2865552565e-09
8.7520222259e-10
-6.24261356565e-09
9.5616373039e-10
-7.283278287e-09
1.04058566527e-09
-8.41049754574e-09
1.12732033027e-09
-9.62564495242e-09
1.21505526206e-09
-1.09280033041e-08
1.3024521797e-09
-1.23161724718e-08
1.38806685629e-09
-1.37865974219e-08
1.47051398742e-09
-1.53350914915e-08
1.54838538541e-09
-1.69554126635e-08
1.62040905459e-09
-1.86408788085e-08
1.68535386426e-09
-2.03829687006e-08
1.74217931125e-09
-2.21730102301e-08
1.78992697736e-09
-2.40007808313e-08
1.82786295455e-09
-2.58562544424e-08
1.85535739832e-09
-2.77281800063e-08
1.87202134057e-09
-2.96058722816e-08
1.87757458643e-09
-3.1477750227e-08
1.871977071e-09
-3.33331537173e-08
1.85528460154e-09
-3.51608261415e-08
1.82777453837e-09
-3.69507359481e-08
1.7897899951e-09
-3.86924925156e-08
1.74186111594e-09
-4.03771538686e-08
1.68454113094e-09
-4.19955744752e-08
1.61852694133e-09
-4.35401872279e-08
1.54449265207e-09
-4.50032936591e-08
1.46321381902e-09
-4.63788167663e-08
1.3754038377e-09
-4.76605536197e-08
1.28184452059e-09
-4.8843899802e-08
1.18322840606e-09
-4.99240881011e-08
1.08029542641e-09
-5.08978853858e-08
9.7368175031e-10
-5.17618399345e-08
8.64060321891e-10
-5.25139480791e-08
7.51995494877e-10
-5.31519288172e-08
6.38084368147e-10
-5.36748540732e-08
5.22816155649e-10
-5.40814646592e-08
4.0671135719e-10
-5.43717547016e-08
2.90185008392e-10
-5.4545338982e-08
1.73681570023e-10
-5.46029843524e-08
5.75448852892e-11
-5.45450851909e-08
-5.78058460448e-11
-5.43731427963e-08
-1.72038017973e-10
-5.40882621076e-08
-2.84791697215e-10
-5.36925582106e-08
-3.95794406869e-10
-5.31877762309e-08
-5.04697500274e-10
-5.25766582548e-08
-6.11203291795e-10
-5.18616190566e-08
-7.14959267832e-10
-5.10460304057e-08
-8.15668752431e-10
-5.01329689516e-08
-9.12985967782e-10
-4.91264254538e-08
-1.00661850981e-09
-4.80301253793e-08
-1.09622881412e-09
-4.68486644661e-08
-1.1815309964e-09
-4.55863977593e-08
-1.26219937243e-09
-4.42485030156e-08
-1.33796016518e-09
-4.28399325237e-08
-1.40850674657e-09
-4.13664071153e-08
-1.47358644007e-09
-3.98334247e-08
-1.53292191372e-09
-3.82471883266e-08
-1.58629335072e-09
-3.66136653174e-08
-1.63346543469e-09
-3.49394533573e-08
-1.67426519023e-09
-3.32308844473e-08
-1.70851399608e-09
-3.14948328424e-08
-1.73610142698e-09
-2.97378586039e-08
-1.75692179463e-09
-2.79669610074e-08
-1.77094430889e-09
-2.61887572904e-08
-1.77815363115e-09
-2.44101846316e-08
-1.77861658487e-09
-2.26377106488e-08
-1.77242622658e-09
-2.08779869362e-08
-1.75976514852e-09
-1.9137089114e-08
-1.74085244068e-09
-1.74211250037e-08
-1.71600339889e-09
-1.57355034158e-08
-1.68557868696e-09
-1.408550062e-08
-1.65004028113e-09
-1.24755575646e-08
-1.6099027641e-09
-1.09098065999e-08
-1.56578704843e-09
-9.39139153678e-09
-1.5183775018e-09
-7.92294449388e-09
-1.46848213393e-09
-6.5058976849e-09
-1.41701207832e-09
-5.1408528965e-09
-1.36507937803e-09
-3.82676816406e-09
-1.31405293476e-09
-2.56102167393e-09
-1.26578108963e-09
-1.3381681996e-09
-1.22282461858e-09
-1.49504028593e-10
-1.18869930934e-09
1.01740201401e-09
-1.16687988833e-09
2.17564785586e-09
-1.15828184615e-09
3.33585438678e-09
-1.16018263666e-09
4.50445329719e-09
-1.16863577645e-09
5.68494524277e-09
-1.18046982723e-09
6.87827451739e-09
-1.19336665067e-09
8.08384491702e-09
-1.20554963664e-09
9.29942494355e-09
-1.21561743311e-09
1.05218280632e-08
-1.22238340033e-09
1.17466356962e-08
-1.22484455687e-09
1.29687673036e-08
-1.22211273782e-09
1.41821665221e-08
-1.21343521817e-09
1.5380339564e-08
-1.19815493595e-09
1.65560482813e-08
-1.17574342071e-09
1.77018326202e-08
-1.14576699227e-09
1.88097183232e-08
-1.10791884486e-09
1.98717195427e-08
-1.06198468386e-09
2.08795591229e-08
-1.00787096808e-09
2.18251443091e-08
-9.4556954568e-10
2.27002975216e-08
-8.75182739323e-10
2.34972008679e-08
-7.9688869958e-10
2.42081383645e-08
-7.10965104708e-10
2.48259090529e-08
-6.17757136313e-10
2.5343584389e-08
-5.17701020131e-10
2.57548918742e-08
-4.11295121552e-10
2.605399008e-08
-2.99121984466e-10
2.62358195244e-08
-1.81818354167e-10
2.62958842574e-08
-6.00866511654e-11
2.62305609909e-08
6.53330067139e-11
2.60368327395e-08
1.93708140885e-10
2.57125794813e-08
3.24261574537e-10
2.52564445396e-08
4.56116574404e-10
2.4668138567e-08
5.88312794507e-10
2.39483278475e-08
7.19794032408e-10
2.30989059116e-08
8.49427199239e-10
2.21229043327e-08
9.75986513407e-10
2.10247429063e-08
1.09816507807e-09
1.98101758737e-08
1.21455354045e-09
1.84865412406e-08
1.323636621e-09
1.70627787289e-08
1.42375054554e-09
1.55497424571e-08
1.5130365356e-09
1.39604019786e-08
1.5893299781e-09
1.23104064145e-08
1.64999407816e-09
1.0618778283e-08
1.69161909236e-09
8.90922073758e-09
1.70955438303e-09
7.2120222106e-09
1.69719086619e-09
5.56692486832e-09
1.64509242862e-09
4.02627628256e-09
1.54064214502e-09
2.65554490522e-09
1.37072613432e-09
1.52236040799e-09
1.13317936604e-09
6.59824373259e-10
8.62530604925e-10
6.59822854855e-10
-6.08477736615e-10
1.12155112335e-09
-1.22142773682e-09
1.14631038051e-09
-1.86010366981e-09
1.20341221932e-09
-2.53952520112e-09
1.2885165692e-09
-3.27233488417e-09
1.39716207798e-09
-4.06912776009e-09
1.524860962e-09
-4.9379654172e-09
1.6677118194e-09
-5.88519685629e-09
1.82240505946e-09
-6.91505378888e-09
1.9860728141e-09
-8.03056488181e-09
2.15605838048e-09
-9.23297345298e-09
2.32977521832e-09
-1.05225592612e-08
2.50459234839e-09
-1.18979029144e-08
2.67783551578e-09
-1.33566781842e-08
2.84678647019e-09
-1.48948872478e-08
3.00875898331e-09
-1.65076951367e-08
3.16113400184e-09
-1.8188695817e-08
3.3014449011e-09
-1.9930809471e-08
3.42740683647e-09
-2.17255812778e-08
3.53698751308e-09
-2.35641345234e-08
3.62841915112e-09
-2.54364841599e-08
3.70025102656e-09
-2.73325312347e-08
3.75134334741e-09
-2.9241371827e-08
3.7809026536e-09
-3.11523168448e-08
3.78845845615e-09
-3.30541792389e-08
3.77388226459e-09
-3.49363030645e-08
3.73734727404e-09
-3.67878155104e-08
3.67933162089e-09
-3.85986493751e-08
3.60056276384e-09
-4.03587503842e-08
3.50200817991e-09
-4.20590797381e-08
3.38480961403e-09
-4.36907735798e-08
3.2502679267e-09
-4.52461167169e-08
3.09977537409e-09
-4.6717657998e-08
2.93480287787e-09
-4.80991520213e-08
2.75683819929e-09
-4.93846411979e-08
2.56738175255e-09
-5.05693666436e-08
2.36789525141e-09
-5.16488316615e-08
2.1598083024e-09
-5.26196852581e-08
1.94447812643e-09
-5.34787832764e-08
1.7232056348e-09
-5.42240475571e-08
1.49720423111e-09
-5.48535393542e-08
1.26762245314e-09
-5.53662957679e-08
1.03551898149e-09
-5.57614282332e-08
8.01888798492e-10
-5.60389369287e-08
5.67642310182e-10
-5.61988462445e-08
3.33634209481e-10
-5.62420011999e-08
1.00650844451e-10
-5.61692016859e-08
-1.30563871565e-10
-5.59819418727e-08
-3.59344280618e-10
-5.56816677277e-08
-5.85026372512e-10
-5.52705238262e-08
-8.06982105815e-10
-5.47505993473e-08
-1.02458454949e-09
-5.41246227018e-08
-1.23722103189e-09
-5.3395272944e-08
-1.44427364649e-09
-5.2565842019e-08
-1.64513805675e-09
-5.16395893775e-08
-1.83920515432e-09
-5.06203645761e-08
-2.02587900877e-09
-4.95120010183e-08
-2.20456072169e-09
-4.83188982726e-08
-2.37466682229e-09
-4.70454517033e-08
-2.53561588868e-09
-4.56965948413e-08
-2.6868475947e-09
-4.42772610472e-08
-2.82781192526e-09
-4.27928868988e-08
-2.95798877215e-09
-4.1248901966e-08
-3.07687947052e-09
-3.96511944655e-08
-3.18402680829e-09
-3.8005625058e-08
-3.2790085852e-09
-3.63184561924e-08
-3.36145795692e-09
-3.45958861219e-08
-3.43105880644e-09
-3.28444432199e-08
-3.48756636578e-09
-3.10705365549e-08
-3.53080417116e-09
-2.92808163512e-08
-3.56068488865e-09
-2.74817380545e-08
-3.57720860055e-09
-2.567988996e-08
-3.58048362009e-09
-2.38815682551e-08
-3.57072564855e-09
-2.20930730359e-08
-3.54827811962e-09
-2.03202928008e-08
-3.51361153535e-09
-1.85689704068e-08
-3.46734263905e-09
-1.6844296053e-08
-3.41023321608e-09
-1.51511446143e-08
-3.34320797412e-09
-1.34936751812e-08
-3.2673538453e-09
-1.18755381183e-08
-3.18394011529e-09
-1.02994730681e-08
-3.09442585171e-09
-8.76747477309e-09
-3.00049653933e-09
-7.28036902436e-09
-2.90410291061e-09
-5.83791670778e-09
-2.8075482873e-09
-4.4383573267e-09
-2.71359934141e-09
-3.07851143578e-09
-2.62564440855e-09
-1.75355199985e-09
-2.54777309671e-09
-4.57791578351e-10
-2.48447824959e-09
8.14709195746e-10
-2.43937167393e-09
2.06999409875e-09
-2.41358643172e-09
3.31437422393e-09
-2.40455548883e-09
4.55326177612e-09
-2.40754403877e-09
5.79061660765e-09
-2.4178187595e-09
7.02847854394e-09
-2.43125001644e-09
8.26733356172e-09
-2.44439974058e-09
9.50610455974e-09
-2.4544101913e-09
1.07425950503e-08
-2.45886964731e-09
1.19734555619e-08
-2.45572677137e-09
1.31945681712e-08
-2.44322151578e-09
1.44009678367e-08
-2.4198561945e-09
1.55871833928e-08
-2.38436692637e-09
1.67471375478e-08
-2.33571823052e-09
1.78744611767e-08
-2.27308722973e-09
1.89623852896e-08
-2.1958627666e-09
2.00040345705e-08
-2.10363073734e-09
2.0992316226e-08
-1.99617146201e-09
2.19201933242e-08
-1.87344359316e-09
2.27805724246e-08
-1.735579638e-09
2.35665564074e-08
-1.58286986658e-09
2.42713328179e-08
-1.4157582468e-09
2.48884069103e-08
-1.23482870396e-09
2.54114936042e-08
-1.04080338207e-09
2.58347326834e-08
-8.34532043548e-10
2.61525878628e-08
-6.16991793688e-10
2.63600476398e-08
-3.89276405154e-10
2.64525401396e-08
-1.52592780002e-10
2.64261147211e-08
9.17596447575e-11
2.62773665695e-08
3.42443615143e-10
2.60036104818e-08
5.98018308636e-10
2.56028655226e-08
8.56849753394e-10
2.50740517811e-08
1.11712653426e-09
2.44169800967e-08
1.37685477589e-09
2.36325478972e-08
1.63385868746e-09
2.27227502256e-08
1.88577403291e-09
2.16908673144e-08
2.13004651133e-09
2.05414908841e-08
2.36392056401e-09
1.92807013722e-08
2.58442383742e-09
1.79161172536e-08
2.78832595637e-09
1.64570884646e-08
2.97206214207e-09
1.49148288573e-08
3.13158151255e-09
1.33027406295e-08
3.2620782048e-09
1.1636828681e-08
3.35752359788e-09
9.93646993241e-09
3.40990815229e-09
8.22554538445e-09
3.40810860021e-09
6.53412543438e-09
3.33650642399e-09
4.90053814884e-09
3.17422309073e-09
3.37346184625e-09
2.89779681515e-09
2.01291294577e-09
2.49372299082e-09
8.83233033832e-10
1.99220495663e-09
1.54305432653e-09
-7.23493490137e-10
1.84508176992e-09
-1.44822106935e-09
1.87104352979e-09
-2.19309593173e-09
1.94833657359e-09
-2.9742645915e-09
2.06967973648e-09
-3.80500882128e-09
2.22795480509e-09
-4.69659352988e-09
2.41642900789e-09
-5.65777570168e-09
2.62893821352e-09
-6.69537341971e-09
2.85997393682e-09
-7.81385979752e-09
3.10459980928e-09
-9.01612664477e-09
3.35828469065e-09
-1.03030570528e-08
3.61673906815e-09
-1.16743025134e-08
3.8757893528e-09
-1.31277670362e-08
4.13132873335e-09
-1.46603484566e-08
4.37931461057e-09
-1.6267376196e-08
4.61581365937e-09
-1.79433573148e-08
4.83705987296e-09
-1.9681411217e-08
5.03952639249e-09
-2.14740481036e-08
5.21998825784e-09
-2.33126143495e-08
5.37558330214e-09
-2.51881074595e-08
5.50385714395e-09
-2.70906259846e-08
5.60280147082e-09
-2.90102133591e-08
5.67087605851e-09
-3.09362992954e-08
5.70702279795e-09
-3.28585596098e-08
5.71066436572e-09
-3.47663353565e-08
5.68169421271e-09
-3.66494946791e-08
5.62045239463e-09
-3.84978183139e-08
5.52769307369e-09
-4.03018500738e-08
5.4045404513e-09
-4.20522416915e-08
5.25243885107e-09
-4.37405819146e-08
5.07309603781e-09
-4.53586994257e-08
4.86842534187e-09
-4.68994644873e-08
4.64048703161e-09
-4.83560546774e-08
4.39143345405e-09
-4.97227277556e-08
4.123458552e-09
-5.09940600138e-08
3.83875450033e-09
-5.21656919914e-08
3.53947539201e-09
-5.32335523216e-08
3.22770885779e-09
-5.41945797408e-08
2.90545490822e-09
-5.50459461387e-08
2.57461162768e-09
-5.57857577908e-08
2.23696665925e-09
-5.64122902579e-08
1.89419355669e-09
-5.692467081e-08
1.54785200641e-09
-5.73221357173e-08
1.19939109029e-09
-5.76046938981e-08
8.50154837021e-10
-5.77724136024e-08
5.01389818786e-10
-5.78260592585e-08
1.54252941641e-10
-5.77664056297e-08
-1.90183242516e-10
-5.75948550704e-08
-5.30936192135e-10
-5.73127865172e-08
-8.67062405611e-10
-5.69221575884e-08
-1.19765004627e-09
-5.64249043807e-08
-1.52180699508e-09
-5.58235081159e-08
-1.83865393727e-09
-5.51204330464e-08
-2.14731965502e-09
-5.43186663659e-08
-2.4469389574e-09
-5.34211931307e-08
-2.73665091922e-09
-5.24315046376e-08
-3.0155993431e-09
-5.13531058295e-08
-3.282933492e-09
-5.01899908787e-08
-3.53781126193e-09
-4.89461795692e-08
-3.7794024206e-09
-4.76261600818e-08
-4.00689432894e-09
-4.62344508579e-08
-4.21949745633e-09
-4.47760113689e-08
-4.41645336261e-09
-4.32558258886e-08
-4.59704219014e-09
-4.167928318e-08
-4.7605926391e-09
-4.00517785775e-08
-4.90649123514e-09
-3.83790636931e-08
-5.03419413162e-09
-3.66668632829e-08
-5.14323799638e-09
-3.49211957992e-08
-5.23325351445e-09
-3.31480016814e-08
-5.3039777728e-09
-3.1353435487e-08
-5.35526931033e-09
-2.95435025615e-08
-5.38712174009e-09
-2.77243232197e-08
-5.39967999362e-09
-2.59017752129e-08
-5.39325467311e-09
-2.40817305879e-08
-5.36833881223e-09
-2.22697020136e-08
-5.32562205464e-09
-2.04710531119e-08
-5.26600693647e-09
-1.86906473931e-08
-5.19062196411e-09
-1.69330333677e-08
-5.10083700908e-09
-1.52020954772e-08
-4.99827602602e-09
-1.35012159924e-08
-4.8848345551e-09
-1.18329291539e-08
-4.7626984115e-09
-1.01990670523e-08
-4.63437384813e-09
-8.60043111304e-09
-4.50272616243e-09
-7.03696029285e-09
-4.37103489639e-09
-5.50750187952e-09
-4.24304679556e-09
-4.01017290302e-09
-4.12299000866e-09
-2.54251540832e-09
-4.01542143295e-09
-1.10231555496e-09
-3.92469572576e-09
3.12151307304e-10
-3.85383113342e-09
1.70209341275e-09
-3.80354713929e-09
3.06974946036e-09
-3.77220570955e-09
4.41802731121e-09
-3.75584132057e-09
5.74952408285e-09
-3.74931100069e-09
7.06590413085e-09
-3.74765003752e-09
8.36786997754e-09
-3.74636203951e-09
9.65493902733e-09
-3.74149943592e-09
1.09257149903e-08
-3.72964275197e-09
1.21778134547e-08
-3.70784531595e-09
1.34081750158e-08
-3.67358067794e-09
1.46130028693e-08
-3.62470374253e-09
1.57880570704e-08
-3.559419027e-09
1.69285789937e-08
-3.47625923429e-09
1.80295588935e-08
-3.37406523648e-09
1.90856486095e-08
-3.2519708002e-09
2.00914052932e-08
-3.10938569643e-09
2.10411972764e-08
-2.94598089056e-09
2.19294269596e-08
-2.76167172397e-09
2.27504336204e-08
-2.5566028228e-09
2.34986973204e-08
-2.33113221504e-09
2.41687414059e-08
-2.08581790841e-09
2.47553189635e-08
-1.82140515803e-09
2.52533176671e-08
-1.53881672378e-09
2.56579307656e-08
-1.23914433889e-09
2.59645675592e-08
-9.23642305261e-10
2.61690122972e-08
-5.93720697933e-10
2.62673433001e-08
-2.50936617882e-10
2.62560798796e-08
1.03023094052e-10
2.61321368361e-08
4.66374665929e-10
2.58929830961e-08
8.37171595946e-10
2.55365984572e-08
1.21322318944e-09
2.50616331517e-08
1.59209084151e-09
2.44673976809e-08
1.97107978151e-09
2.3754025265e-08
2.3472294982e-09
2.29224851468e-08
2.71730437594e-09
2.19747442377e-08
3.07778515973e-09
2.09137978956e-08
3.42485778223e-09
1.97438252301e-08
3.75439353604e-09
1.84702363548e-08
4.06190631386e-09
1.70998309846e-08
4.34246377038e-09
1.56408924121e-08
4.59051211044e-09
1.41034120365e-08
4.79955401862e-09
1.24993360004e-08
4.96159221501e-09
1.08430019191e-08
5.06623689172e-09
9.15168734794e-09
5.09941625869e-09
7.44633188883e-09
5.04185569255e-09
5.75240557109e-09
4.86814291493e-09
4.10165184189e-09
4.54854472575e-09
2.53758618078e-09
4.05778320625e-09
1.13049333997e-09
3.39929206332e-09
2.67354605821e-09
-8.42305268273e-10
2.68743350586e-09
-1.68610770755e-09
2.71485717808e-09
-2.54789298721e-09
2.81017801471e-09
-3.44258270371e-09
2.96436989217e-09
-4.38300409971e-09
3.16842661016e-09
-5.38023899752e-09
3.41364607225e-09
-6.44306815917e-09
3.69181182169e-09
-7.57842211532e-09
3.99529565295e-09
-8.79084779081e-09
4.31705927959e-09
-1.00831714369e-08
4.65056535778e-09
-1.14560634574e-08
4.98965908402e-09
-1.29087940738e-08
5.32846867005e-09
-1.44387895959e-08
5.6613485454e-09
-1.60424017549e-08
5.98287165958e-09
-1.77144266125e-08
6.28786224644e-09
-1.94488740603e-08
6.57145129605e-09
-2.12384661199e-08
6.82914379594e-09
-2.30754191725e-08
7.05688575086e-09
-2.49509323989e-08
7.25112447544e-09
-2.68559891269e-08
7.4088591231e-09
-2.8780833885e-08
7.52767689523e-09
-3.07157892946e-08
7.60577737806e-09
-3.26507131677e-08
7.64197978835e-09
-3.45758212416e-08
7.6357187499e-09
-3.64811139319e-08
7.58702202322e-09
-3.83571934415e-08
7.49647841997e-09
-4.0194652272e-08
7.36518858898e-09
-4.19848748767e-08
7.1947097159e-09
-4.37193849501e-08
6.98698672248e-09
-4.53906255306e-08
6.74428347651e-09
-4.69912679695e-08
6.46910629999e-09
-4.85149682881e-08
6.16413456556e-09
-4.99556454937e-08
5.83214949627e-09
-5.1308214897e-08
5.47597574126e-09
-5.2567846635e-08
5.09842503069e-09
-5.37306780155e-08
4.70225538281e-09
-5.47930642694e-08
4.29013347858e-09
-5.57522721018e-08
3.86461243181e-09
-5.66057345115e-08
3.4281116478e-09
-5.73517268865e-08
2.98291006797e-09
-5.79886362611e-08
2.5311394603e-09
-5.8515620029e-08
2.07478839279e-09
-5.89318979643e-08
1.61570422742e-09
-5.92373918784e-08
1.15560318016e-09
-5.94320447903e-08
6.9607639666e-10
-5.95164360802e-08
2.3860066707e-10
-5.94911327704e-08
-2.15454535553e-10
-5.93572989835e-08
-6.64811376051e-10
-5.91160466256e-08
-1.10828446623e-09
-5.87690168339e-08
-1.54471895677e-09
-5.83178117513e-08
-1.97298347329e-09
-5.77645405032e-08
-2.39196195405e-09
-5.71112836803e-08
-2.80054949435e-09
-5.63606104225e-08
-3.19764660702e-09
-5.55150776221e-08
-3.58215821245e-09
-5.4577716817e-08
-3.95299217161e-09
-5.35515641773e-08
-4.30906193934e-09
-5.24401162098e-08
-4.64928893712e-09
-5.12468871026e-08
-4.97260846007e-09
-4.99758334847e-08
-5.27797542631e-09
-4.86309357182e-08
-5.56437311281e-09
-4.7216592622e-08
-5.8308218354e-09
-4.57372233447e-08
-6.07639015721e-09
-4.41976332498e-08
-6.30020615827e-09
-4.26026329928e-08
-6.50147087373e-09
-4.09573768228e-08
-6.67947195073e-09
-3.92669956329e-08
-6.83359918498e-09
-3.75369087819e-08
-6.96336043367e-09
-3.57724680392e-08
-7.06839911899e-09
-3.39792438328e-08
-7.14851221706e-09
-3.21626773528e-08
-7.20366945478e-09
-3.03283419536e-08
-7.23403295145e-09
-2.84816011018e-08
-7.23997747542e-09
-2.66278457028e-08
-7.2221108749e-09
-2.47721562987e-08
-7.18129424372e-09
-2.29195175185e-08
-7.1186617498e-09
-2.10744841116e-08
-7.03563915238e-09
-1.92413752017e-08
-6.93396160523e-09
-1.74239465828e-08
-6.81568959193e-09
-1.5625571982e-08
-6.68322478513e-09
-1.38489319988e-08
-6.53932468371e-09
-1.20962033406e-08
-6.38711837289e-09
-1.03687981466e-08
-6.23011914013e-09
-8.66762060547e-09
-6.07222882098e-09
-6.99294801799e-09
-5.91770879052e-09
-5.34488287371e-09
-5.77107228185e-09
-3.72348773067e-09
-5.63680765087e-09
-2.12936662206e-09
-5.51883482392e-09
-5.634895294e-10
-5.41970091888e-09
9.72483592101e-10
-5.33953907863e-09
2.47746176037e-09
-5.2771780197e-09
3.95152879041e-09
-5.22992782911e-09
5.39527114701e-09
-5.19304871983e-09
6.80910790752e-09
-5.16150668366e-09
8.19313211605e-09
-5.13038256239e-09
9.54679748037e-09
-5.09518479847e-09
1.08690443124e-08
-5.05188660493e-09
1.21581309476e-08
-4.99695177787e-09
1.34118672033e-08
-4.92731445608e-09
1.46275014045e-08
-4.84035735354e-09
1.58019704712e-08
-4.733885978e-09
1.6931797472e-08
-4.60610503888e-09
1.8013329042e-08
-4.45559496345e-09
1.90426308864e-08
-4.28129070545e-09
2.00157070137e-08
-4.08246021671e-09
2.09283929328e-08
-3.85868404036e-09
2.17765570608e-08
-3.60983447422e-09
2.25559936364e-08
-3.33605574965e-09
2.32626073931e-08
-3.03774484552e-09
2.38923081334e-08
-2.71553410283e-09
2.4441179658e-08
-2.37027584045e-09
2.49053778033e-08
-2.00302942823e-09
2.52812849079e-08
-1.61505092955e-09
2.55654135025e-08
-1.20778458301e-09
2.57545481286e-08
-7.82855182539e-10
2.58456567546e-08
-3.42058078641e-10
2.58360216938e-08
1.12657871714e-10
2.5723174442e-08
5.79209892559e-10
2.55050350374e-08
1.05531023752e-09
2.51798465036e-08
1.53840046211e-09
2.47463012071e-08
2.02563483367e-09
2.42035065787e-08
2.51386386267e-09
2.35511168475e-08
2.99961732966e-09
2.27893231867e-08
3.47908816163e-09
2.19189893679e-08
3.94811643923e-09
2.09416668922e-08
4.40217102033e-09
1.9859736282e-08
4.83632092307e-09
1.8676452229e-08
5.24518172832e-09
1.73961017696e-08
5.62281025673e-09
1.60241011121e-08
5.96250466619e-09
1.45672043473e-08
6.2564460232e-09
1.30336912339e-08
6.49509775181e-09
1.14336433465e-08
6.66627925566e-09
9.77915567406e-09
6.75389689762e-09
8.0844647366e-09
6.73654025346e-09
6.36597724195e-09
6.58662378477e-09
4.64321213132e-09
6.27130388979e-09
2.94500655909e-09
5.75598316752e-09
1.33607356346e-09
5.00821916194e-09
4.00961797012e-09
-9.53244709966e-10
3.64073234012e-09
-1.91019205428e-09
3.67182090286e-09
-2.88481082004e-09
3.78485958073e-09
-3.89043396693e-09
3.96999258239e-09
-4.93885395643e-09
4.21690168604e-09
-6.04052711359e-09
4.51530312274e-09
-7.20386000875e-09
4.85518585714e-09
-8.43556475971e-09
5.22696757851e-09
-9.74004347901e-09
5.62157158406e-09
-1.11199660795e-08
6.03044164267e-09
-1.25757854258e-08
6.44550338933e-09
-1.41064830929e-08
6.85911307831e-09
-1.5709140861e-08
7.26402780982e-09
-1.73797311531e-08
7.65340548351e-09
-1.91126812344e-08
8.02083400071e-09
-2.09016697766e-08
8.36038291224e-09
-2.27391657023e-08
8.66666366362e-09
-2.46172289904e-08
8.93489291153e-09
-2.65270247298e-08
9.16094718848e-09
-2.8459630354e-08
9.34140961651e-09
-3.04055228258e-08
9.47359931715e-09
-3.23553889659e-08
9.5555891443e-09
-3.4299579298e-08
9.58620262215e-09
-3.6228913577e-08
9.56499907157e-09
-3.81340942706e-08
9.49223724013e-09
-4.00064989517e-08
9.36882933654e-09
-4.18375499163e-08
9.1962755768e-09
-4.36194878582e-08
8.9765939856e-09
-4.53446997514e-08
8.7122356607e-09
-4.70064722446e-08
8.40600244356e-09
-4.85982852e-08
8.06095688501e-09
-5.01145460946e-08
7.68034221724e-09
-5.15498598062e-08
7.26750101798e-09
-5.28997463673e-08
6.82580956645e-09
-5.41598985993e-08
6.35861486841e-09
-5.53268849946e-08
5.86918979084e-09
-5.6397406316e-08
5.36069183986e-09
-5.73689842575e-08
4.83613940919e-09
-5.82392269034e-08
4.29839043325e-09
-5.90065024831e-08
3.75013596406e-09
-5.96692219933e-08
3.19389391982e-09
-6.02264962655e-08
2.63201452664e-09
-6.06774422046e-08
2.06668369234e-09
-6.10218202591e-08
1.49993487016e-09
-6.12593687546e-08
9.33656835048e-10
-6.13904178522e-08
3.69605397264e-10
-6.14152471148e-08
-1.90595001714e-10
-6.13347189243e-08
-7.45381771291e-10
-6.11496043242e-08
-1.29337049051e-09
-6.08611718883e-08
-1.83319130299e-09
-6.04706325372e-08
-2.36349589657e-09
-5.99796781022e-08
-2.8829539338e-09
-5.93899559361e-08
-3.39024627096e-09
-5.87035798304e-08
-3.884057854e-09
-5.79226378797e-08
-4.36307615672e-09
-5.7049673046e-08
-4.82598975864e-09
-5.60872207448e-08
-5.27149143314e-09
-5.50382587219e-08
-5.69828137561e-09
-5.39057711081e-08
-6.10507427753e-09
-5.26931681842e-08
-6.49060652841e-09
-5.14038736472e-08
-6.85364668967e-09
-5.00417154809e-08
-7.19300607127e-09
-4.86105332396e-08
-7.50755212915e-09
-4.71145415441e-08
-7.79622198053e-09
-4.55579543141e-08
-8.05803841906e-09
-4.39453225257e-08
-8.29212610528e-09
-4.22811725384e-08
-8.49773001398e-09
-4.05703196617e-08
-8.67423412263e-09
-3.8817518024e-08
-8.82118211591e-09
-3.70277513835e-08
-8.93829832941e-09
-3.52058924066e-08
-9.02551034793e-09
-3.33569720553e-08
-9.08297166527e-09
-3.14858467068e-08
-9.11108538133e-09
-2.95974475976e-08
-9.11052747459e-09
-2.76964550768e-08
-9.08227008717e-09
-2.57875302207e-08
-9.02760348017e-09
-2.38749971086e-08
-8.94815650593e-09
-2.19630607803e-08
-8.84591445242e-09
-2.00555021665e-08
-8.72323353421e-09
-1.81558922758e-08
-8.5828511103e-09
-1.62673136839e-08
-8.42788985743e-09
-1.43925948902e-08
-8.26185378062e-09
-1.25340924067e-08
-8.08860960943e-09
-1.06939952075e-08
-7.91234306761e-09
-8.87422705427e-09
-7.73746644747e-09
-7.07687470321e-09
-7.56844230873e-09
-5.3041996905e-09
-7.40947372757e-09
-3.55902044675e-09
-7.2640324721e-09
-1.84445764161e-09
-7.13425629141e-09
-1.63495516175e-10
-7.02052029219e-09
1.4801233426e-09
-6.92079080514e-09
3.08336889914e-09
-6.83319300385e-09
4.64522182626e-09
-6.75489672836e-09
6.16454542404e-09
-6.68085019149e-09
7.64053682166e-09
-6.60636997201e-09
9.07217537775e-09
-6.52684329846e-09
1.04583572368e-08
-6.43806519367e-09
1.179763489e-08
-6.33624915414e-09
1.30883858001e-08
-6.21806263916e-09
1.43286412375e-08
-6.08063207867e-09
1.55162892609e-08
-5.92153169163e-09
1.66489329406e-08
-5.73876740095e-09
1.77240956718e-08
-5.53075572434e-09
1.87390897633e-08
-5.29630275537e-09
1.96912128867e-08
-5.03458167067e-09
2.05776222004e-08
-4.74511050906e-09
2.13955184979e-08
-4.42772939558e-09
2.21420249525e-08
-4.08257851366e-09
2.28143579686e-08
-3.71007679144e-09
2.34097107493e-08
-3.31090232907e-09
2.39254106056e-08
-2.8859749591e-09
2.43588079599e-08
-2.43644136657e-09
2.47074204399e-08
-1.96366303699e-09
2.49688284707e-08
-1.46920635062e-09
2.51408072687e-08
-9.54834010383e-10
2.52212308929e-08
-4.22494617223e-10
2.52081941539e-08
1.25694135821e-10
2.50999290269e-08
6.87462893925e-10
2.48949136468e-08
1.26032464716e-09
2.45917904673e-08
1.84151226099e-09
2.41894691849e-08
2.42795459462e-09
2.36870688388e-08
3.01625352769e-09
2.30840236298e-08
3.60266041704e-09
2.23800492913e-08
4.18305247977e-09
2.15752553849e-08
4.75290758629e-09
2.06701426871e-08
5.30727433096e-09
1.96657314703e-08
5.84072870608e-09
1.85636024996e-08
6.34730191037e-09
1.73660565306e-08
6.82035205779e-09
1.60762148089e-08
7.25233813866e-09
1.46982180467e-08
7.63443783416e-09
1.32373669055e-08
7.95594119783e-09
1.17002714505e-08
8.20336901605e-09
1.00948145345e-08
8.35934661408e-09
8.42989915605e-09
8.4014491309e-09
6.71507232597e-09
8.30144384127e-09
4.96141306334e-09
8.02495704939e-09
3.18919063786e-09
7.52819983904e-09
1.46174043384e-09
6.73566331131e-09
5.47135671017e-09
-1.04954193622e-09
4.69033153021e-09
-2.10588177106e-09
4.72817699122e-09
-3.18082697467e-09
4.85986960161e-09
-4.28618900827e-09
5.0753584511e-09
-5.43268454468e-09
5.36345179697e-09
-6.6299939785e-09
5.71259410125e-09
-7.88596445764e-09
6.11120109927e-09
-9.2069182065e-09
6.54788623496e-09
-1.05969531249e-08
7.01163618329e-09
-1.20584796946e-08
7.49192178879e-09
-1.35917063784e-08
7.97875319586e-09
-1.51953522826e-08
8.46270443905e-09
-1.68662269499e-08
8.93492239589e-09
-1.86000278448e-08
9.38714882102e-09
-2.03909289166e-08
9.81175542648e-09
-2.22323973031e-08
1.02017935709e-08
-2.4116758971e-08
1.0551048238e-08
-2.60360162978e-08
1.08540934761e-08
-2.79813803988e-08
1.11063374535e-08
-2.99440854251e-08
1.13040589562e-08
-3.19148813906e-08
1.14444245583e-08
-3.38848403565e-08
1.15254931827e-08
-3.5844803556e-08
1.15461977052e-08
-3.77861730407e-08
1.15063140196e-08
-3.97003091345e-08
1.14064072267e-08
-4.15793026567e-08
1.12477684557e-08
-4.34153239215e-08
1.10323321757e-08
-4.52013744683e-08
1.07625901628e-08
-4.69305947311e-08
1.04414921819e-08
-4.85969977989e-08
1.0072351214e-08
-5.01947470819e-08
9.65874289273e-09
-5.17188760698e-08
9.20441712876e-09
-5.31645486675e-08
8.71321038369e-09
-5.45277680739e-08
8.18897533431e-09
-5.58046316367e-08
7.6355148559e-09
-5.6992029942e-08
7.05653515563e-09
-5.80869062442e-08
6.45560386202e-09
-5.90869448198e-08
5.8361260175e-09
-5.99898432162e-08
5.20132352764e-09
-6.07939874532e-08
4.55422948763e-09
-6.14977436985e-08
3.89768356821e-09
-6.21001170288e-08
3.2343386682e-09
-6.260006769e-08
2.56666626063e-09
-6.29971498116e-08
1.89696958136e-09
-6.32908563615e-08
1.22739367004e-09
-6.34812376773e-08
5.599413162e-10
-6.35682776795e-08
-1.03526384271e-10
-6.35525016251e-08
-7.61201022022e-10
-6.34343103085e-08
-1.41153485306e-09
-6.32145952813e-08
-2.05294718905e-09
-6.28941700852e-08
-2.68389571802e-09
-6.24743055268e-08
-3.30285693173e-09
-6.19562129228e-08
-3.90831494773e-09
-6.13415521654e-08
-4.49875459943e-09
-6.06319460098e-08
-5.07265965611e-09
-5.98294572223e-08
-5.62851209722e-09
-5.89361315076e-08
-6.16479557038e-09
-5.79544441745e-08
-6.67999988613e-09
-5.68868686801e-08
-7.17262907985e-09
-5.57362937881e-08
-7.6412103308e-09
-5.45056146174e-08
-8.08430588392e-09
-5.31981218317e-08
-8.50052564561e-09
-5.18171122028e-08
-8.88854235832e-09
-5.03662517095e-08
-9.24710731527e-09
-4.88492028473e-08
-9.5750683648e-09
-4.72699636694e-08
-9.87138837491e-09
-4.56325094243e-08
-1.0135165779e-08
-4.39411095905e-08
-1.03656555105e-08
-4.21999818699e-08
-1.05622917969e-08
-4.04135892427e-08
-1.07247111951e-08
-3.85863049192e-08
-1.08527771203e-08
-3.67226914713e-08
-1.09466042645e-08
-3.48271760487e-08
-1.10065838324e-08
-3.29043138825e-08
-1.10334079397e-08
-3.09584740633e-08
-1.10280936392e-08
-2.89940904377e-08
-1.09920047932e-08
-2.70153598957e-08
-1.09268716359e-08
-2.50264856371e-08
-1.08348060326e-08
-2.30313933363e-08
-1.07183114387e-08
-2.10339765713e-08
-1.05802850765e-08
-1.90378434658e-08
-1.04240097405e-08
-1.70465837605e-08
-1.02531308066e-08
-1.50635700969e-08
-1.00716113633e-08
-1.30922763687e-08
-9.8836544546e-09
-1.11361575987e-08
-9.69357472438e-09
-9.19902025558e-09
-9.50559781783e-09
-7.28491845858e-09
-9.32356648726e-09
-5.39841349968e-09
-9.15055618184e-09
-3.54420252167e-09
-8.98845963898e-09