/*--------------------------------*- C++ -*----------------------------------*\
| =========                 |                                                 |
| \\      /  F ield         | OpenFOAM: The Open Source CFD Toolbox           |
|  \\    /   O peration     | Version:  2206                                  |
|   \\  /    A nd           | Website:  www.openfoam.com                      |
|    \\/     M anipulation  |                                                 |
\*---------------------------------------------------------------------------*/
FoamFile
{
    version     2.0;
    format      ascii;
    arch        "LSB;label=64;scalar=64";
    class       surfaceScalarField;
    location    "586800";
    object      phi;
}
// * * * * * * * * * * * * * * * * * * * * * * * * * * * * * * * * * * * * * //

dimensions      [0 3 -1 0 0 0 0];

oriented        oriented;

internalField   nonuniform List<scalar> 
24
(
3.92297e-10
-3.92297e-10
5.16774e-10
-1.24477e-10
2.87928e-10
2.28846e-10
2.87928e-10
5.72243e-11
-4.49522e-10
1.06619e-10
-1.73872e-10
2.14152e-11
3.1405e-10
3.09343e-10
-1.93718e-10
-2.55804e-10
-2.65261e-10
-1.02328e-10
-1.57521e-10
2.06311e-10
1.51822e-10
-2.55804e-10
-3.58132e-10
-1.51822e-10
)
;

boundaryField
{
    movingWall
    {
        type            calculated;
        value           uniform 0;
    }
    fixedWalls
    {
        type            calculated;
        value           uniform 0;
    }
    frontAndBack
    {
        type            empty;
        value           nonuniform List<scalar> 0();
    }
}


// ************************************************************************* //
