/*--------------------------------*- C++ -*----------------------------------*\
| =========                 |                                                 |
| \\      /  F ield         | OpenFOAM: The Open Source CFD Toolbox           |
|  \\    /   O peration     | Version:  2212                                  |
|   \\  /    A nd           | Website:  www.openfoam.com                      |
|    \\/     M anipulation  |                                                 |
\*---------------------------------------------------------------------------*/
FoamFile
{
    version     2.0;
    format      ascii;
    arch        "LSB;label=64;scalar=64";
    class       volScalarField::Internal;
    location    "1110";
    object      dGco2;
}
// * * * * * * * * * * * * * * * * * * * * * * * * * * * * * * * * * * * * * //

dimensions      [1 -3 -1 0 0 0 0];

value           nonuniform List<scalar> 
1024
(
0.000145698
0.000145719
0.000145768
0.000145857
0.000146
0.000146206
0.000146482
0.000146822
0.000147212
0.000147627
0.000148042
0.000148421
0.000148722
0.000148884
0.000148854
0.0001486
0.000148136
0.000147571
0.000146985
0.00014639
0.000145786
0.000145179
0.000144581
0.000144018
0.000143516
0.000143096
0.000142766
0.000142524
0.000142358
0.000142255
0.000142198
0.000142175
0.000145701
0.000145721
0.000145771
0.000145863
0.000146008
0.000146218
0.000146497
0.000146841
0.000147235
0.000147653
0.000148071
0.000148453
0.000148757
0.00014892
0.000148888
0.000148631
0.000148165
0.000147599
0.000147011
0.000146415
0.000145812
0.000145205
0.000144606
0.000144041
0.000143536
0.000143112
0.000142778
0.000142532
0.000142365
0.00014226
0.000142202
0.000142178
0.000145705
0.000145726
0.000145778
0.000145873
0.000146024
0.00014624
0.000146527
0.000146879
0.000147279
0.000147705
0.000148132
0.000148526
0.00014884
0.000149007
0.00014897
0.000148705
0.000148231
0.000147658
0.000147067
0.000146469
0.000145866
0.000145258
0.000144658
0.00014409
0.000143578
0.000143146
0.000142804
0.000142552
0.000142379
0.000142271
0.000142211
0.000142187
0.000145713
0.000145735
0.00014579
0.000145889
0.000146046
0.00014627
0.000146567
0.000146929
0.000147342
0.000147784
0.000148231
0.000148651
0.00014899
0.000149166
0.00014912
0.000148835
0.000148341
0.000147754
0.000147153
0.000146551
0.000145946
0.000145338
0.000144737
0.000144163
0.000143642
0.000143198
0.000142844
0.000142582
0.000142402
0.000142289
0.000142226
0.000142201
0.000145725
0.000145748
0.000145804
0.000145907
0.00014607
0.000146303
0.00014661
0.000146986
0.000147418
0.000147886
0.000148373
0.000148841
0.000149226
0.000149421
0.00014936
0.000149038
0.000148506
0.000147891
0.000147271
0.000146658
0.000146048
0.000145439
0.000144835
0.000144255
0.000143724
0.000143266
0.000142898
0.000142623
0.000142433
0.000142314
0.000142249
0.000142222
0.000145741
0.000145764
0.000145821
0.000145925
0.000146092
0.000146331
0.000146649
0.000147041
0.0001475
0.000148013
0.000148563
0.000149111
0.000149569
0.000149798
0.000149714
0.000149334
0.000148739
0.000148074
0.00014742
0.000146784
0.000146163
0.000145548
0.000144941
0.000144355
0.000143814
0.000143342
0.000142959
0.000142671
0.000142471
0.000142345
0.000142276
0.000142248
0.000145763
0.000145785
0.00014584
0.000145943
0.000146109
0.000146351
0.000146677
0.00014709
0.000147586
0.000148163
0.000148808
0.000149473
0.000150039
0.000150319
0.000150208
0.000149744
0.000149053
0.00014831
0.000147598
0.000146922
0.000146277
0.00014565
0.000145037
0.000144446
0.000143896
0.000143413
0.000143018
0.000142719
0.00014251
0.000142378
0.000142306
0.000142276
0.000145799
0.000145819
0.00014587
0.000145967
0.000146126
0.000146365
0.000146697
0.000147133
0.00014768
0.000148345
0.000149121
0.000149946
0.000150654
0.000151006
0.000150864
0.000150291
0.000149469
0.00014861
0.000147807
0.000147065
0.000146376
0.000145725
0.0001451
0.000144504
0.00014395
0.000143461
0.00014306
0.000142754
0.00014254
0.000142405
0.00014233
0.0001423
0.000145877
0.000145892
0.000145934
0.00014602
0.000146167
0.000146398
0.000146733
0.000147196
0.000147808
0.000148589
0.000149533
0.000150558
0.000151441
0.00015188
0.000151704
0.000151
0.000150013
0.000148998
0.00014806
0.000147212
0.000146448
0.000145752
0.000145106
0.000144503
0.00014395
0.000143465
0.000143066
0.000142763
0.00014255
0.000142415
0.00014234
0.00014231
0.000146067
0.000146075
0.000146103
0.00014617
0.000146299
0.000146517
0.000146857
0.000147354
0.000148048
0.000148975
0.000150124
0.000151376
0.000152449
0.000152977
0.00015276
0.000151914
0.000150742
0.000149527
0.000148397
0.000147383
0.000146496
0.000145722
0.000145036
0.000144421
0.000143873
0.000143402
0.000143019
0.000142729
0.000142526
0.000142396
0.000142324
0.000142294
0.000146529
0.000146528
0.000146538
0.000146583
0.00014669
0.000146897
0.000147247
0.000147794
0.000148592
0.000149685
0.000151051
0.000152529
0.000153772
0.000154364
0.000154097
0.000153127
0.000151778
0.000150327
0.000148927
0.000147656
0.000146564
0.000145652
0.00014489
0.000144249
0.000143707
0.000143259
0.000142904
0.00014264
0.000142456
0.000142339
0.000142274
0.000142247
0.000147562
0.000147553
0.000147551
0.000147579
0.000147673
0.000147881
0.000148259
0.000148873
0.000149786
0.000151036
0.000152579
0.000154218
0.00015556
0.000156172
0.000155875
0.000154863
0.000153409
0.000151706
0.000149936
0.000148266
0.000146826
0.000145658
0.00014474
0.000144027
0.000143475
0.00014305
0.000142733
0.000142508
0.000142358
0.000142268
0.000142221
0.000142203
0.000149561
0.000149556
0.000149562
0.000149603
0.000149716
0.000149953
0.000150379
0.000151062
0.000152062
0.000153402
0.000155019
0.000156696
0.000158037
0.000158658
0.00015846
0.000157637
0.000156279
0.000154387
0.000152168
0.00014991
0.000147881
0.000146223
0.00014495
0.000144024
0.000143377
0.00014294
0.000142661
0.0001425
0.000142425
0.000142406
0.000142414
0.000142426
0.000152758
0.000152773
0.000152817
0.000152911
0.000153087
0.000153391
0.000153881
0.00015462
0.000155661
0.000157013
0.000158603
0.000160231
0.00016158
0.000162403
0.000162691
0.000162539
0.000161733
0.000159999
0.000157517
0.000154662
0.00015182
0.000149313
0.000147256
0.000145722
0.000144689
0.000144074
0.000143787
0.000143734
0.000143827
0.000143981
0.000144124
0.000144208
0.000156813
0.000156853
0.000156948
0.000157116
0.000157386
0.000157798
0.000158403
0.000159261
0.000160418
0.000161874
0.000163557
0.00016534
0.000167075
0.000168694
0.000170201
0.000171524
0.000172195
0.000171675
0.00016999
0.000167458
0.000164437
0.000161298
0.000158293
0.000155693
0.00015368
0.000152282
0.000151489
0.000151209
0.000151279
0.000151514
0.000151757
0.000151902
0.000160813
0.000160874
0.000161022
0.000161296
0.000161742
0.000162417
0.000163379
0.000164677
0.000166326
0.000168302
0.000170551
0.00017306
0.000175858
0.000178978
0.000182407
0.000186035
0.000189332
0.000191556
0.000192523
0.000192389
0.000191302
0.000189452
0.00018706
0.000184368
0.000181626
0.000179043
0.000176847
0.000175199
0.000174143
0.000173594
0.000173391
0.00017336
0.000163734
0.000163802
0.000163982
0.000164336
0.000164938
0.000165868
0.0001672
0.000168986
0.000171246
0.000173967
0.000177126
0.000180709
0.000184731
0.000189194
0.000194057
0.000199219
0.000204196
0.000208356
0.000211661
0.000214258
0.000216121
0.000217189
0.000217414
0.000216798
0.000215423
0.000213478
0.000211225
0.000208983
0.00020706
0.000205662
0.000204845
0.000204517
0.000165529
0.000165598
0.000165785
0.00016616
0.000166812
0.00016784
0.000169337
0.000171374
0.000173973
0.000177114
0.000180739
0.000184782
0.000189171
0.000193803
0.000198509
0.000203068
0.000207035
0.000210271
0.000213249
0.000216253
0.000219253
0.00022208
0.00022452
0.00022638
0.000227527
0.000227919
0.000227626
0.000226832
0.000225808
0.000224846
0.000224162
0.000223838
0.00016661
0.000166676
0.000166856
0.000167217
0.000167846
0.000168845
0.000170317
0.000172343
0.000174958
0.000178136
0.000181795
0.000185813
0.000190041
0.000194289
0.000198299
0.000201766
0.000204308
0.000206195
0.000208271
0.000210931
0.000214155
0.000217722
0.0002213
0.000224558
0.000227242
0.000229208
0.000230435
0.000231004
0.000231085
0.000230895
0.000230649
0.000230496
0.000167263
0.000167324
0.000167487
0.000167813
0.00016838
0.000169286
0.000170631
0.0001725
0.000174934
0.000177913
0.000181347
0.00018509
0.000188959
0.00019273
0.000196125
0.000198842
0.000200586
0.000201819
0.000203436
0.000205888
0.000209236
0.000213315
0.000217758
0.000222106
0.000225943
0.000228985
0.000231129
0.000232434
0.000233069
0.000233259
0.000233232
0.000233167
0.000167701
0.000167751
0.000167887
0.000168162
0.000168648
0.00016943
0.000170604
0.000172249
0.000174409
0.00017707
0.000180149
0.000183509
0.000186969
0.000190318
0.000193316
0.000195718
0.000197318
0.000198572
0.000200199
0.000202608
0.000205934
0.000210127
0.00021493
0.000219913
0.00022459
0.000228537
0.000231508
0.000233467
0.000234552
0.000235006
0.000235099
0.00023507
0.000168169
0.000168196
0.000168284
0.000168482
0.000168859
0.000169495
0.000170476
0.000171875
0.000173733
0.000176043
0.000178739
0.000181707
0.000184802
0.000187854
0.000190686
0.000193135
0.000195057
0.000196753
0.000198699
0.000201232
0.000204526
0.000208623
0.000213395
0.000218538
0.000223614
0.000228144
0.000231761
0.000234301
0.00023582
0.000236536
0.000236747
0.000236746
0.000168984
0.00016897
0.000168973
0.000169049
0.000169272
0.000169728
0.0001705
0.000171658
0.00017324
0.000175244
0.000177625
0.000180301
0.000183166
0.000186101
0.000188988
0.000191742
0.000194231
0.000196525
0.000198884
0.000201591
0.000204841
0.000208739
0.000213256
0.000218213
0.000223281
0.000228033
0.000232046
0.000235035
0.00023694
0.000237915
0.00023825
0.00023828
0.000170515
0.000170435
0.00017031
0.00017021
0.000170231
0.000170476
0.000171043
0.000172003
0.000173396
0.000175221
0.000177447
0.000180013
0.000182838
0.00018584
0.000188943
0.000192115
0.000195191
0.000198016
0.000200702
0.000203506
0.000206632
0.00021023
0.00021435
0.000218908
0.000223678
0.000228327
0.000232463
0.000235729
0.000237942
0.000239156
0.00023962
0.000239685
0.000173119
0.000172947
0.000172658
0.000172353
0.000172162
0.000172221
0.000172647
0.000173522
0.000174878
0.000176708
0.000178973
0.00018161
0.000184549
0.00018772
0.000191069
0.000194592
0.000198079
0.000201216
0.000204037
0.000206789
0.000209681
0.000212881
0.000216488
0.000220496
0.000224776
0.000229085
0.000233093
0.000236441
0.000238855
0.000240272
0.000240864
0.00024097
0.000177069
0.000176788
0.000176334
0.000175866
0.000175554
0.000175556
0.000176
0.000176964
0.000178459
0.00018045
0.000182877
0.000185664
0.000188735
0.000192027
0.000195496
0.00019915
0.000202754
0.00020592
0.000208656
0.0002112
0.000213754
0.000216484
0.000219509
0.000222873
0.000226526
0.000230319
0.000233997
0.000237234
0.000239716
0.000241276
0.000241986
0.000242137
0.000182533
0.000182145
0.000181596
0.000181121
0.000180904
0.000181081
0.000181752
0.000182966
0.000184696
0.000186879
0.000189437
0.000192288
0.000195357
0.000198586
0.00020194
0.000205435
0.000208839
0.000211771
0.000214232
0.000216443
0.000218588
0.000220814
0.000223236
0.000225924
0.000228879
0.000232033
0.000235218
0.000238168
0.00024057
0.000242188
0.00024299
0.000243189
0.000189611
0.000189155
0.000188681
0.000188464
0.000188624
0.000189205
0.000190242
0.000191736
0.000193634
0.000195872
0.000198379
0.000201081
0.000203916
0.000206839
0.000209824
0.00021289
0.000215837
0.000218336
0.000220393
0.000222196
0.000223898
0.000225622
0.000227465
0.000229498
0.000231751
0.000234209
0.000236786
0.000239297
0.000241468
0.000243037
0.000243884
0.000244127
0.000198415
0.000197998
0.000197865
0.000198184
0.000198898
0.000199932
0.000201267
0.000202877
0.000204726
0.000206776
0.000208979
0.000211286
0.000213655
0.000216053
0.000218467
0.000220915
0.00022324
0.000225192
0.000226776
0.000228141
0.000229404
0.000230656
0.000231973
0.000233413
0.000235013
0.000236785
0.000238701
0.000240659
0.000242461
0.000243859
0.000244683
0.000244954
0.000209174
0.000209004
0.000209464
0.000210364
0.000211487
0.000212731
0.000214075
0.000215512
0.000217039
0.00021865
0.000220328
0.000222046
0.000223782
0.000225518
0.000227245
0.000228979
0.000230612
0.000231974
0.00023307
0.000234003
0.000234853
0.000235681
0.00023654
0.00023747
0.000238501
0.000239651
0.000240922
0.000242274
0.000243593
0.000244696
0.000245408
0.000245674
0.000222326
0.000222632
0.000223541
0.00022457
0.000225604
0.000226612
0.000227597
0.000228572
0.000229555
0.000230558
0.000231578
0.000232609
0.00023364
0.000234662
0.000235672
0.000236679
0.000237623
0.000238407
0.000239035
0.000239565
0.000240043
0.000240503
0.000240974
0.00024148
0.000242038
0.000242661
0.000243357
0.000244116
0.000244894
0.000245592
0.000246087
0.000246299
0.000238415
0.00023866
0.000239132
0.000239583
0.000240001
0.000240387
0.000240747
0.000241089
0.000241424
0.000241759
0.000242096
0.000242434
0.000242771
0.000243103
0.00024343
0.000243754
0.000244058
0.00024431
0.000244511
0.00024468
0.000244831
0.000244976
0.000245124
0.000245281
0.000245454
0.000245646
0.000245861
0.000246098
0.000246345
0.000246578
0.000246758
0.000246845
)
;


// ************************************************************************* //
