/*--------------------------------*- C++ -*----------------------------------*\
| =========                 |                                                 |
| \\      /  F ield         | OpenFOAM: The Open Source CFD Toolbox           |
|  \\    /   O peration     | Version:  2212                                  |
|   \\  /    A nd           | Website:  www.openfoam.com                      |
|    \\/     M anipulation  |                                                 |
\*---------------------------------------------------------------------------*/
FoamFile
{
    version     2.0;
    format      ascii;
    arch        "LSB;label=64;scalar=64";
    class       volScalarField;
    location    "1110";
    object      Gch4;
}
// * * * * * * * * * * * * * * * * * * * * * * * * * * * * * * * * * * * * * //

dimensions      [1 -3 0 0 0 0 0];

internalField   nonuniform List<scalar> 
1024
(
1.93052
1.93046
1.93032
1.93007
1.92967
1.9291
1.92833
1.92739
1.92631
1.92516
1.92401
1.92297
1.92214
1.92171
1.92181
1.92253
1.92384
1.92542
1.92706
1.92873
1.93041
1.93211
1.93378
1.93536
1.93676
1.93794
1.93886
1.93954
1.94
1.94029
1.94045
1.94052
1.93051
1.93045
1.93031
1.93006
1.92965
1.92906
1.92829
1.92733
1.92624
1.92509
1.92393
1.92288
1.92205
1.92161
1.92171
1.92245
1.92376
1.92535
1.92699
1.92866
1.93034
1.93204
1.93371
1.93529
1.9367
1.93789
1.93883
1.93951
1.93998
1.94028
1.94044
1.94051
1.9305
1.93044
1.93029
1.93002
1.9296
1.929
1.92821
1.92723
1.92612
1.92494
1.92376
1.92268
1.92182
1.92137
1.92148
1.92224
1.92358
1.92518
1.92684
1.92851
1.93019
1.93189
1.93357
1.93516
1.93659
1.9378
1.93875
1.93946
1.93994
1.94025
1.94041
1.94048
1.93047
1.93041
1.93026
1.92998
1.92954
1.92892
1.92809
1.92709
1.92595
1.92472
1.92349
1.92233
1.9214
1.92092
1.92107
1.92188
1.92327
1.92492
1.9266
1.92828
1.92997
1.93167
1.93335
1.93495
1.93641
1.93765
1.93864
1.93938
1.93988
1.9402
1.94037
1.94044
1.93043
1.93037
1.93021
1.92993
1.92948
1.92883
1.92797
1.92693
1.92573
1.92444
1.92309
1.9218
1.92074
1.92022
1.92041
1.92132
1.92282
1.92454
1.92627
1.92799
1.92969
1.93139
1.93308
1.9347
1.93618
1.93746
1.93849
1.93926
1.93979
1.94013
1.94031
1.94039
1.93039
1.93032
1.93017
1.92987
1.92941
1.92875
1.92787
1.92678
1.9255
1.92408
1.92256
1.92105
1.91979
1.91917
1.91943
1.9205
1.92218
1.92404
1.92587
1.92764
1.92937
1.93109
1.93278
1.93442
1.93593
1.93725
1.93832
1.93913
1.93969
1.94004
1.94023
1.94031
1.93032
1.93026
1.93011
1.92982
1.92936
1.92869
1.92779
1.92664
1.92526
1.92366
1.92188
1.92004
1.91848
1.91773
1.91806
1.91937
1.92131
1.92339
1.92538
1.92726
1.92906
1.93081
1.93252
1.93417
1.9357
1.93705
1.93816
1.939
1.93958
1.93995
1.94015
1.94023
1.93022
1.93017
1.93002
1.92976
1.92931
1.92865
1.92773
1.92652
1.925
1.92315
1.92101
1.91873
1.91678
1.91582
1.91624
1.91786
1.92017
1.92257
1.92481
1.92688
1.9288
1.93061
1.93235
1.93401
1.93556
1.93692
1.93804
1.9389
1.9395
1.93988
1.94008
1.94017
1.93
1.92996
1.92984
1.92961
1.9292
1.92856
1.92762
1.92634
1.92464
1.92247
1.91986
1.91703
1.91459
1.9134
1.91392
1.91591
1.91867
1.92151
1.92412
1.92648
1.92861
1.93054
1.93234
1.93402
1.93556
1.93692
1.93803
1.93888
1.93947
1.93985
1.94006
1.94014
1.92947
1.92945
1.92937
1.92918
1.92883
1.92822
1.92728
1.9259
1.92397
1.9214
1.91822
1.91475
1.9118
1.91037
1.911
1.91339
1.91667
1.92006
1.9232
1.92603
1.92849
1.93064
1.93255
1.93426
1.93578
1.9371
1.93817
1.93898
1.93954
1.93991
1.94011
1.94019
1.92818
1.92819
1.92816
1.92803
1.92774
1.92716
1.92619
1.92467
1.92246
1.91942
1.91564
1.91155
1.90813
1.90653
1.90731
1.91004
1.91381
1.91786
1.92176
1.92529
1.92832
1.93085
1.93297
1.93475
1.93626
1.9375
1.93849
1.93923
1.93974
1.94007
1.94025
1.94033
1.92531
1.92533
1.92534
1.92526
1.925
1.92443
1.92338
1.92167
1.91914
1.91568
1.9114
1.90687
1.90318
1.90153
1.90239
1.90524
1.90931
1.91406
1.91898
1.92362
1.92762
1.93086
1.9334
1.93538
1.93692
1.9381
1.93898
1.93961
1.94002
1.94028
1.94041
1.94046
1.91975
1.91976
1.91974
1.91963
1.91932
1.91867
1.91749
1.9156
1.91283
1.90912
1.90464
1.90001
1.89633
1.89465
1.89524
1.89757
1.90138
1.90665
1.91282
1.91909
1.92472
1.92932
1.93285
1.93541
1.93721
1.93842
1.93919
1.93964
1.93985
1.93991
1.93989
1.93986
1.91086
1.91082
1.9107
1.91044
1.90996
1.90912
1.90777
1.90572
1.90285
1.89911
1.89472
1.89023
1.88652
1.88428
1.88353
1.884
1.88628
1.89113
1.89804
1.90596
1.91384
1.92079
1.92648
1.93073
1.93359
1.9353
1.93609
1.93624
1.93599
1.93557
1.93517
1.93494
1.89959
1.89948
1.89923
1.89876
1.89802
1.89689
1.89522
1.89285
1.88966
1.88565
1.881
1.87609
1.87131
1.86686
1.86273
1.85913
1.85733
1.85884
1.86355
1.87059
1.87897
1.88766
1.89598
1.90317
1.90874
1.91261
1.9148
1.91558
1.91539
1.91474
1.91407
1.91367
1.88849
1.88833
1.88792
1.88717
1.88594
1.88408
1.88143
1.87786
1.8733
1.86785
1.86164
1.85471
1.84698
1.83838
1.82894
1.81897
1.80995
1.8039
1.80131
1.80175
1.80481
1.80996
1.81658
1.82403
1.8316
1.83873
1.84478
1.84933
1.85224
1.85376
1.85431
1.8544
1.88037
1.88019
1.87969
1.87872
1.87706
1.8745
1.87082
1.86589
1.85965
1.85213
1.84339
1.83348
1.82237
1.81005
1.79665
1.78246
1.76883
1.75748
1.74851
1.74148
1.73646
1.73362
1.73307
1.73481
1.73862
1.74398
1.75017
1.75633
1.76161
1.76545
1.76769
1.76859
1.87536
1.87518
1.87466
1.87363
1.87183
1.869
1.86486
1.85923
1.85204
1.84335
1.83331
1.82212
1.80997
1.79717
1.78419
1.77165
1.76079
1.752
1.74396
1.73588
1.72781
1.72022
1.71366
1.70867
1.7056
1.70456
1.70537
1.70754
1.71033
1.71295
1.71481
1.71569
1.87233
1.87215
1.87166
1.87066
1.86893
1.86617
1.8621
1.85649
1.84925
1.84045
1.83031
1.81917
1.80745
1.79569
1.7846
1.77503
1.76806
1.76295
1.75738
1.75025
1.74161
1.73204
1.72244
1.7137
1.70649
1.7012
1.6979
1.69636
1.69613
1.69663
1.69729
1.6977
1.87048
1.87032
1.86987
1.86897
1.86741
1.86491
1.86119
1.85601
1.84927
1.84101
1.83148
1.82109
1.81035
1.79988
1.79047
1.78295
1.77814
1.7748
1.77046
1.76389
1.7549
1.74395
1.73202
1.72034
1.71004
1.70187
1.69611
1.6926
1.69088
1.69036
1.69042
1.69059
1.86923
1.8691
1.86872
1.86797
1.86663
1.86447
1.86122
1.85666
1.85068
1.84329
1.83474
1.82541
1.81579
1.80648
1.79815
1.79148
1.78707
1.78366
1.77928
1.7728
1.76385
1.75258
1.73967
1.72628
1.71372
1.70312
1.69515
1.68988
1.68696
1.68573
1.68547
1.68554
1.86791
1.86784
1.8676
1.86705
1.86601
1.86425
1.86154
1.85766
1.85251
1.8461
1.83861
1.83036
1.82176
1.81327
1.8054
1.79861
1.79332
1.78869
1.78343
1.77659
1.76771
1.75668
1.74385
1.73002
1.71638
1.70421
1.69451
1.68769
1.6836
1.68167
1.6811
1.6811
1.86566
1.8657
1.86568
1.86547
1.86485
1.86359
1.86145
1.85824
1.85386
1.8483
1.84169
1.83426
1.8263
1.81816
1.81015
1.80254
1.7957
1.78944
1.78304
1.77571
1.76694
1.75643
1.74427
1.73093
1.71731
1.70455
1.69377
1.68575
1.68063
1.67801
1.67711
1.67702
1.86146
1.86168
1.86202
1.86228
1.86222
1.86153
1.85996
1.8573
1.85344
1.84839
1.84222
1.83512
1.82729
1.81899
1.81042
1.80169
1.79325
1.78554
1.77824
1.77064
1.76219
1.75247
1.74137
1.7291
1.71627
1.70378
1.69268
1.68391
1.67797
1.67472
1.67346
1.67328
1.85436
1.85483
1.85561
1.85643
1.85694
1.85677
1.85558
1.85316
1.84942
1.84437
1.83812
1.83085
1.82275
1.81401
1.80479
1.79512
1.78557
1.77701
1.76934
1.76187
1.75404
1.74539
1.73566
1.72487
1.71335
1.70177
1.69101
1.68202
1.67555
1.67175
1.67016
1.66987
1.84361
1.84437
1.8456
1.84687
1.84771
1.84769
1.84646
1.84381
1.8397
1.83423
1.82757
1.81991
1.81147
1.80243
1.79291
1.78289
1.77304
1.7644
1.75696
1.75005
1.74312
1.73574
1.72758
1.71851
1.70868
1.69848
1.6886
1.67992
1.67326
1.66908
1.66717
1.66676
1.82875
1.8298
1.83129
1.83258
1.83317
1.83267
1.83084
1.82751
1.82278
1.8168
1.8098
1.80199
1.79358
1.78474
1.77555
1.76598
1.75668
1.74868
1.74198
1.73597
1.73015
1.72413
1.71759
1.71034
1.70238
1.6939
1.68534
1.67743
1.67099
1.66665
1.6645
1.66397
1.80952
1.81076
1.81205
1.81264
1.8122
1.81061
1.80779
1.80371
1.79853
1.79242
1.78557
1.77818
1.77043
1.76244
1.75427
1.74588
1.73783
1.73102
1.72542
1.72051
1.71589
1.71123
1.70624
1.70076
1.69469
1.68808
1.68115
1.67442
1.66859
1.66439
1.66212
1.66147
1.78562
1.78676
1.78712
1.78625
1.78431
1.7815
1.77787
1.77348
1.76844
1.76286
1.75685
1.75055
1.74408
1.73752
1.73093
1.72424
1.71789
1.71256
1.70825
1.70453
1.7011
1.69771
1.69415
1.69026
1.68595
1.68118
1.67603
1.67078
1.66595
1.6622
1.66
1.65927
1.75643
1.75689
1.75564
1.7532
1.75015
1.74677
1.74312
1.73921
1.73506
1.73067
1.7261
1.72141
1.71667
1.71193
1.70721
1.70247
1.69801
1.6943
1.69131
1.68877
1.68647
1.68422
1.6819
1.67939
1.67661
1.67351
1.67009
1.66647
1.66293
1.65998
1.65807
1.65736
1.72076
1.71993
1.71746
1.71467
1.71186
1.70913
1.70645
1.7038
1.70113
1.6984
1.69562
1.69281
1.69
1.68721
1.68445
1.68169
1.67912
1.67698
1.67527
1.67382
1.67253
1.67128
1.67
1.66864
1.66713
1.66545
1.66358
1.66154
1.65946
1.65759
1.65627
1.6557
1.67713
1.67646
1.67518
1.67396
1.67283
1.67178
1.6708
1.66987
1.66896
1.66805
1.66713
1.66621
1.66529
1.66439
1.66349
1.66261
1.66178
1.66109
1.66054
1.66008
1.65967
1.65928
1.65888
1.65845
1.65799
1.65747
1.65689
1.65626
1.65559
1.65497
1.65449
1.65426
)
;

boundaryField
{
    movingWall
    {
        type            fixedValue;
        value           uniform 1.6535;
    }
    fixedWalls
    {
        type            zeroGradient;
    }
    floor
    {
        type            zeroGradient;
    }
    frontAndBack
    {
        type            empty;
    }
}


// ************************************************************************* //
