/*--------------------------------*- C++ -*----------------------------------*\
| =========                 |                                                 |
| \\      /  F ield         | OpenFOAM: The Open Source CFD Toolbox           |
|  \\    /   O peration     | Version:  2212                                  |
|   \\  /    A nd           | Website:  www.openfoam.com                      |
|    \\/     M anipulation  |                                                 |
\*---------------------------------------------------------------------------*/
FoamFile
{
    version     2.0;
    format      ascii;
    arch        "LSB;label=64;scalar=64";
    class       volScalarField;
    location    "1110";
    object      Gco2;
}
// * * * * * * * * * * * * * * * * * * * * * * * * * * * * * * * * * * * * * //

dimensions      [1 -3 0 0 0 0 0];

internalField   nonuniform List<scalar> 
1024
(
0.0584036
0.0583944
0.0583722
0.0583319
0.0582682
0.0581763
0.0580539
0.0579028
0.0577295
0.0575448
0.0573608
0.0571923
0.0570589
0.056987
0.0570008
0.0571142
0.0573203
0.0575716
0.0578324
0.058097
0.058365
0.058635
0.0589004
0.0591502
0.059373
0.0595596
0.059706
0.0598134
0.0598867
0.0599326
0.0599578
0.0599681
0.0584024
0.0583931
0.0583705
0.0583295
0.0582646
0.0581711
0.0580469
0.057894
0.0577193
0.0575334
0.0573481
0.0571782
0.0570435
0.0569712
0.0569856
0.0571002
0.0573074
0.0575595
0.0578208
0.0580855
0.0583535
0.0586235
0.0588892
0.0591398
0.0593641
0.0595525
0.0597007
0.0598095
0.0598839
0.0599305
0.0599561
0.0599666
0.0583999
0.0583904
0.058367
0.0583246
0.0582575
0.0581611
0.0580336
0.0578774
0.0576994
0.0575101
0.0573207
0.0571459
0.0570065
0.0569325
0.0569489
0.0570673
0.0572783
0.0575331
0.057796
0.0580615
0.0583296
0.0585996
0.0588659
0.0591183
0.0593454
0.0595374
0.0596891
0.059801
0.0598776
0.0599257
0.0599521
0.0599629
0.0583959
0.058386
0.0583617
0.0583176
0.0582478
0.0581477
0.0580159
0.0578549
0.0576715
0.0574753
0.0572767
0.0570903
0.0569399
0.0568616
0.0568823
0.0570094
0.0572292
0.0574903
0.0577574
0.0580251
0.0582939
0.058564
0.0588311
0.0590859
0.0593171
0.0595141
0.059671
0.0597874
0.0598674
0.0599177
0.0599452
0.0599565
0.0583902
0.0583801
0.058355
0.0583093
0.0582369
0.0581333
0.0579967
0.0578295
0.0576378
0.0574296
0.0572136
0.0570056
0.0568347
0.0567479
0.0567757
0.0569189
0.0571555
0.0574292
0.0577047
0.0579774
0.0582484
0.0585193
0.0587875
0.0590449
0.0592808
0.0594839
0.0596472
0.0597692
0.0598534
0.0599064
0.0599354
0.0599472
0.0583829
0.0583727
0.0583474
0.0583009
0.058227
0.0581206
0.0579794
0.0578048
0.0576009
0.0573733
0.057129
0.0568856
0.0566819
0.0565803
0.0566179
0.0567871
0.0570517
0.0573475
0.0576384
0.057921
0.0581974
0.0584706
0.0587403
0.0590003
0.0592408
0.0594501
0.05962
0.0597479
0.0598366
0.0598926
0.0599232
0.0599356
0.0583731
0.0583632
0.0583385
0.0582927
0.0582191
0.0581116
0.0579667
0.0577833
0.0575625
0.0573064
0.0570198
0.0567243
0.0564728
0.0563484
0.0563978
0.0566042
0.0569114
0.0572422
0.057559
0.0578594
0.0581465
0.0584251
0.0586975
0.05896
0.0592042
0.0594185
0.0595939
0.0597268
0.0598195
0.0598781
0.0599101
0.0599231
0.0583568
0.058348
0.0583253
0.0582822
0.0582112
0.058105
0.0579574
0.0577639
0.0575207
0.0572253
0.0568806
0.0565143
0.0561993
0.0560428
0.0561055
0.0563605
0.0567261
0.0571081
0.0574654
0.0577956
0.0581022
0.0583918
0.0586693
0.0589342
0.0591804
0.0593971
0.0595754
0.0597111
0.059806
0.0598662
0.0598992
0.0599126
0.058322
0.0583153
0.0582964
0.0582585
0.0581931
0.0580906
0.0579415
0.0577359
0.057464
0.0571171
0.0566973
0.0562422
0.0558493
0.0556538
0.0557314
0.0560444
0.056483
0.0569347
0.0573521
0.0577297
0.0580696
0.0583792
0.0586664
0.0589344
0.0591802
0.0593956
0.0595725
0.0597072
0.0598016
0.0598616
0.0598947
0.0599082
0.0582376
0.0582341
0.0582214
0.0581916
0.0581343
0.0580374
0.0578867
0.0576658
0.0573572
0.0569457
0.0564351
0.0558782
0.0554008
0.0551657
0.0552615
0.0556369
0.0561578
0.0566981
0.0572013
0.0576527
0.0580476
0.0583922
0.0586973
0.0589706
0.059214
0.0594234
0.0595934
0.0597223
0.0598125
0.0598699
0.0599019
0.0599151
0.0580325
0.0580332
0.0580284
0.0580086
0.0579609
0.0578691
0.0577135
0.0574709
0.0571163
0.0566305
0.0560233
0.0553662
0.0548127
0.0545484
0.0546658
0.0550963
0.0556955
0.0563411
0.0569645
0.0575303
0.0580165
0.0584228
0.0587617
0.0590469
0.0592877
0.0594868
0.0596443
0.0597618
0.0598434
0.0598953
0.0599242
0.0599362
0.0575745
0.0575783
0.0575795
0.057567
0.0575252
0.0574331
0.0572653
0.0569927
0.0565871
0.0560316
0.0553452
0.0546157
0.0540177
0.053744
0.0538743
0.0543229
0.0549689
0.055727
0.056515
0.0572583
0.0578994
0.0584194
0.058828
0.059145
0.0593907
0.0595793
0.0597201
0.0598202
0.0598867
0.0599268
0.0599477
0.0599556
0.0566878
0.0566898
0.0566874
0.0566696
0.0566195
0.0565142
0.0563253
0.056022
0.0555775
0.0549817
0.054262
0.0535148
0.0529163
0.0526375
0.0527236
0.0530883
0.0536923
0.0545344
0.055522
0.0565269
0.0574297
0.0581674
0.0587339
0.0591458
0.0594336
0.0596277
0.0597517
0.0598233
0.0598566
0.059865
0.0598612
0.0598557
0.0552689
0.0552623
0.055243
0.0552015
0.0551235
0.0549887
0.0547713
0.0544428
0.05398
0.053378
0.0526695
0.0519432
0.0513408
0.050972
0.0508421
0.0509092
0.0512686
0.0520409
0.0531454
0.0544152
0.0556786
0.0567936
0.0577079
0.0583899
0.058849
0.0591223
0.0592501
0.0592735
0.0592324
0.0591642
0.0591004
0.059063
0.0534683
0.0534506
0.0534089
0.0533344
0.0532146
0.053032
0.052763
0.0523813
0.0518664
0.0512177
0.0504672
0.049672
0.0488979
0.0481766
0.0475069
0.0469202
0.0466246
0.0468583
0.0476084
0.0487342
0.050076
0.0514706
0.0528049
0.0539599
0.0548538
0.055475
0.0558273
0.0559522
0.0559214
0.055817
0.0557096
0.055645
0.0516913
0.0516645
0.0515987
0.0514773
0.0512792
0.0509795
0.0505518
0.0499747
0.0492408
0.0483618
0.0473607
0.0462442
0.045
0.0436145
0.0420936
0.0404861
0.0390267
0.0380436
0.0376176
0.037679
0.0381627
0.0389843
0.040046
0.0412405
0.0424565
0.0436023
0.0445765
0.0453078
0.0457766
0.0460201
0.0461102
0.0461242
0.0503935
0.0503634
0.0502834
0.0501265
0.0498595
0.0494466
0.0488548
0.0480612
0.0470573
0.0458479
0.0444446
0.042853
0.0410682
0.0390887
0.0369341
0.034649
0.0324473
0.0306081
0.0291473
0.0279992
0.0271762
0.0267045
0.0266057
0.0268794
0.0274885
0.0283501
0.0293477
0.0303404
0.0311924
0.0318112
0.0321731
0.0323186
0.0495957
0.0495654
0.0494824
0.0493158
0.0490264
0.0485702
0.0479054
0.0470012
0.0458469
0.0444523
0.0428428
0.0410484
0.0391014
0.0370481
0.034964
0.0329468
0.0311936
0.0297646
0.0284499
0.0271229
0.025798
0.0245491
0.0234707
0.0226487
0.0221417
0.0219681
0.0220972
0.022448
0.0229005
0.0233256
0.0236278
0.0237711
0.049115
0.0490857
0.0490059
0.0488458
0.0485668
0.0481235
0.04747
0.0465705
0.0454095
0.0439985
0.0423744
0.0405914
0.0387159
0.0368328
0.0350567
0.0335226
0.0323995
0.031567
0.030651
0.0294768
0.0280526
0.0264774
0.0248969
0.0234576
0.022272
0.0214032
0.0208613
0.0206091
0.0205729
0.0206563
0.0207648
0.0208323
0.0488247
0.0487977
0.0487252
0.0485807
0.0483289
0.0479269
0.04733
0.0465004
0.0454196
0.0440971
0.042573
0.0409116
0.039195
0.0375231
0.0360186
0.0348161
0.0340452
0.0335015
0.0327878
0.0317049
0.0302259
0.0284245
0.0264619
0.0245413
0.0228469
0.0215036
0.0205566
0.01998
0.0196991
0.0196147
0.0196265
0.019655
0.0486297
0.0486075
0.0485472
0.0484251
0.0482096
0.0478622
0.0473413
0.0466111
0.0456521
0.0444709
0.0431037
0.0416124
0.0400771
0.0385916
0.0372625
0.0361987
0.0354909
0.034937
0.0342187
0.0331544
0.031685
0.0298328
0.0277115
0.0255108
0.0234453
0.0217025
0.0203905
0.0195252
0.0190458
0.0188453
0.0188037
0.0188165
0.0484217
0.0484095
0.0483705
0.0482826
0.0481155
0.0478331
0.0473976
0.0467765
0.0459516
0.0449263
0.0437295
0.0424116
0.0410384
0.0396841
0.0384283
0.0373433
0.0364927
0.0357427
0.0348827
0.0337632
0.0323077
0.030498
0.0283899
0.0261183
0.0238767
0.0218764
0.0202795
0.0191579
0.018487
0.0181707
0.0180773
0.0180776
0.0480603
0.0480666
0.0480649
0.048031
0.047932
0.0477297
0.0473867
0.0468727
0.0461706
0.045281
0.044224
0.043036
0.0417648
0.0404629
0.0391827
0.0379625
0.0368605
0.0358458
0.0348028
0.033606
0.0321698
0.0304477
0.0284519
0.0262624
0.0240245
0.0219263
0.0201542
0.0188345
0.0179934
0.0175632
0.017415
0.0174018
0.0473821
0.0474178
0.0474729
0.0475168
0.0475074
0.0473983
0.0471465
0.0467201
0.0461023
0.0452921
0.0443044
0.0431663
0.0419129
0.0405817
0.0392061
0.037801
0.036439
0.0351892
0.0340011
0.0327614
0.0313797
0.0297898
0.0279696
0.0259562
0.0238497
0.0217969
0.0199709
0.018529
0.0175519
0.0170159
0.0168108
0.016782
0.0462299
0.046306
0.0464338
0.0465685
0.0466526
0.0466261
0.0464367
0.0460487
0.0454471
0.0446355
0.0436314
0.0424621
0.0411593
0.0397539
0.0382698
0.0367094
0.0351655
0.0337776
0.0325297
0.0313126
0.0300343
0.0286201
0.0270262
0.0252557
0.0233656
0.0214628
0.0196932
0.0182152
0.0171494
0.0165239
0.0162624
0.0162156
0.0444824
0.0446067
0.0448071
0.0450141
0.0451518
0.0451506
0.0449538
0.0445266
0.043864
0.0429816
0.0419064
0.0406715
0.0393105
0.037852
0.0363154
0.0346971
0.0331019
0.0317007
0.0304906
0.0293654
0.0282364
0.0270297
0.025693
0.024207
0.0225934
0.0209186
0.0192945
0.0178656
0.0167699
0.0160812
0.0157679
0.015701
0.0420652
0.0422369
0.0424794
0.0426898
0.0427855
0.0427068
0.0424096
0.0418719
0.0411059
0.0401393
0.0390065
0.0377439
0.0363846
0.0349545
0.033469
0.0319213
0.0304145
0.0291172
0.0280285
0.0270504
0.0261023
0.0251184
0.0240477
0.0228606
0.0215551
0.0201624
0.0187558
0.0174535
0.0163935
0.0156792
0.0153253
0.0152374
0.0389346
0.0391362
0.0393461
0.039442
0.0393708
0.0391137
0.0386551
0.037994
0.0371539
0.036163
0.0350533
0.0338569
0.0326016
0.0313075
0.0299857
0.0286281
0.0273237
0.0262177
0.0253079
0.0245103
0.0237576
0.0229957
0.0221809
0.0212827
0.0202876
0.0192022
0.0180643
0.0169558
0.0159972
0.0153049
0.0149309
0.0148238
0.035041
0.0352255
0.0352843
0.0351432
0.0348275
0.0343699
0.0337796
0.0330671
0.0322489
0.0313419
0.0303667
0.0293454
0.028297
0.027235
0.0261663
0.0250827
0.0240534
0.0231898
0.0224887
0.0218848
0.0213266
0.0207732
0.020191
0.0195546
0.0188479
0.0180654
0.0172193
0.0163546
0.0155594
0.0149423
0.0145787
0.0144593
0.0302835
0.0303587
0.0301551
0.029757
0.0292606
0.0287104
0.0281157
0.0274801
0.0268045
0.0260916
0.0253493
0.0245887
0.0238204
0.023052
0.0222872
0.0215198
0.0207967
0.0201941
0.019709
0.0192963
0.0189207
0.0185545
0.0181748
0.0177638
0.0173084
0.0168004
0.0162392
0.0156423
0.01506
0.0145732
0.0142593
0.0141416
0.0244678
0.0243325
0.0239302
0.0234754
0.0230182
0.0225724
0.0221367
0.0217053
0.0212704
0.0208271
0.0203755
0.0199192
0.0194631
0.0190105
0.0185633
0.0181175
0.0176997
0.0173528
0.0170748
0.0168403
0.0166292
0.0164258
0.0162174
0.0159937
0.0157472
0.015472
0.0151648
0.0148295
0.0144864
0.0141784
0.01396
0.0138665
0.0173537
0.0172452
0.0170364
0.0168369
0.0166523
0.0164815
0.0163224
0.0161711
0.0160228
0.0158746
0.0157254
0.0155758
0.015427
0.0152801
0.0151353
0.0149916
0.0148572
0.0147458
0.0146568
0.014582
0.014515
0.0144509
0.0143857
0.0143161
0.0142398
0.0141549
0.0140601
0.0139556
0.0138461
0.0137433
0.0136642
0.0136258
)
;

boundaryField
{
    movingWall
    {
        type            fixedValue;
        value           uniform 0.0135;
    }
    fixedWalls
    {
        type            zeroGradient;
    }
    floor
    {
        type            zeroGradient;
    }
    frontAndBack
    {
        type            empty;
    }
}


// ************************************************************************* //
