/*--------------------------------*- C++ -*----------------------------------*\
| =========                 |                                                 |
| \\      /  F ield         | OpenFOAM: The Open Source CFD Toolbox           |
|  \\    /   O peration     | Version:  2212                                  |
|   \\  /    A nd           | Website:  www.openfoam.com                      |
|    \\/     M anipulation  |                                                 |
\*---------------------------------------------------------------------------*/
FoamFile
{
    version     2.0;
    format      ascii;
    arch        "LSB;label=64;scalar=64";
    class       volVectorField;
    location    "1110";
    object      U;
}
// * * * * * * * * * * * * * * * * * * * * * * * * * * * * * * * * * * * * * //

dimensions      [0 1 -1 0 0 0 0];

internalField   nonuniform List<vector> 
1024
(
(1.03748e-05 -1.09474e-05 0)
(-3.16955e-05 7.61641e-06 0)
(-0.000187696 2.79991e-05 0)
(-0.000449882 3.68718e-05 0)
(-0.000779924 3.75433e-05 0)
(-0.00114276 3.56163e-05 0)
(-0.00151832 3.35401e-05 0)
(-0.00188864 3.06513e-05 0)
(-0.00221625 2.48854e-05 0)
(-0.00241765 1.31311e-05 0)
(-0.00235277 -7.63418e-06 0)
(-0.00183407 -3.25201e-05 0)
(-0.000848048 -4.5148e-05 0)
(0.000436564 -3.56802e-05 0)
(0.00134542 -2.11549e-05 0)
(0.00191539 -7.1254e-06 0)
(0.00212133 -8.19317e-07 0)
(0.00212344 3.06522e-06 0)
(0.00200924 6.09166e-06 0)
(0.00182911 7.97336e-06 0)
(0.00162206 9.25295e-06 0)
(0.00140841 1.00329e-05 0)
(0.00120158 1.02878e-05 0)
(0.00100917 1.0253e-05 0)
(0.000831356 1.0466e-05 0)
(0.000661555 1.16348e-05 0)
(0.000492187 1.3918e-05 0)
(0.000324001 1.6087e-05 0)
(0.000171545 1.56078e-05 0)
(5.7897e-05 1.008e-05 0)
(-1.40128e-08 9.12921e-08 0)
(-7.14783e-06 -7.18992e-06 0)
(-1.04769e-05 3.25598e-05 0)
(-0.000211703 0.000193605 0)
(-0.000678281 0.000347947 0)
(-0.0013974 0.000426625 0)
(-0.00228453 0.000434859 0)
(-0.0032527 0.000404346 0)
(-0.00423243 0.000355929 0)
(-0.00515169 0.000290187 0)
(-0.00589526 0.00019493 0)
(-0.00625622 5.36803e-05 0)
(-0.00592761 -0.00014324 0)
(-0.00452931 -0.000349225 0)
(-0.00205639 -0.000469276 0)
(0.00128134 -0.000395242 0)
(0.00363454 -0.000235477 0)
(0.00520604 -0.000105507 0)
(0.00586278 -2.80107e-05 0)
(0.00595335 1.88827e-05 0)
(0.00571436 5.45326e-05 0)
(0.00527587 8.11207e-05 0)
(0.0047402 0.000101302 0)
(0.00416558 0.00011652 0)
(0.0035906 0.000127252 0)
(0.0030382 0.000135735 0)
(0.00251339 0.00014646 0)
(0.00200634 0.000163926 0)
(0.00150651 0.000186725 0)
(0.00102252 0.000202644 0)
(0.000590841 0.00019227 0)
(0.000261641 0.000142578 0)
(6.88133e-05 6.40753e-05 0)
(1.4348e-07 -5.91107e-07 0)
(-3.97865e-05 0.000218629 0)
(-0.000435387 0.000689624 0)
(-0.00121457 0.00107095 0)
(-0.00234258 0.0012592 0)
(-0.00369514 0.00126679 0)
(-0.00514404 0.00116023 0)
(-0.0065693 0.000989258 0)
(-0.00783936 0.000762356 0)
(-0.00877085 0.000459478 0)
(-0.00907788 5.14655e-05 0)
(-0.00835868 -0.000471709 0)
(-0.00621988 -0.000989977 0)
(-0.00271259 -0.00131002 0)
(0.00209462 -0.00112174 0)
(0.00551804 -0.0006798 0)
(0.00797063 -0.0003304 0)
(0.00913912 -0.000107556 0)
(0.00942591 3.20931e-05 0)
(0.00917853 0.000138985 0)
(0.00859237 0.000222781 0)
(0.00781961 0.000289729 0)
(0.00695276 0.000343514 0)
(0.0060539 0.000385938 0)
(0.00516207 0.000422697 0)
(0.00429254 0.000464467 0)
(0.00344223 0.000520608 0)
(0.00260776 0.000584932 0)
(0.00180845 0.000625696 0)
(0.00109523 0.00059648 0)
(0.000534339 0.000468836 0)
(0.000175843 0.000265442 0)
(1.27797e-05 6.39781e-05 0)
(-6.32438e-05 0.000584774 0)
(-0.00062073 0.00157301 0)
(-0.0016541 0.00227545 0)
(-0.00309531 0.00259194 0)
(-0.00477861 0.00256531 0)
(-0.00653983 0.00230915 0)
(-0.00821589 0.00191197 0)
(-0.00962648 0.00139976 0)
(-0.0105425 0.000752232 0)
(-0.0106383 -6.86553e-05 0)
(-0.00947429 -0.00105321 0)
(-0.00678696 -0.00197862 0)
(-0.00269461 -0.00255782 0)
(0.00279835 -0.00221376 0)
(0.00686196 -0.00137928 0)
(0.0100031 -0.00071851 0)
(0.0117011 -0.000273188 0)
(0.0122922 1.75267e-05 0)
(0.0121617 0.000242858 0)
(0.011558 0.000425471 0)
(0.0106667 0.000577546 0)
(0.00960631 0.000705871 0)
(0.00845811 0.00081437 0)
(0.0072766 0.000912902 0)
(0.00609154 0.00101886 0)
(0.00491458 0.00114584 0)
(0.0037564 0.00127977 0)
(0.00264776 0.00136307 0)
(0.00164918 0.00131317 0)
(0.000840789 0.00107611 0)
(0.000296716 0.000677001 0)
(2.62254e-05 0.000218949 0)
(-7.31168e-05 0.001119 0)
(-0.000703327 0.00282155 0)
(-0.00185639 0.00392992 0)
(-0.00344676 0.00437901 0)
(-0.00528042 0.00426874 0)
(-0.00716378 0.00377525 0)
(-0.00890003 0.00303756 0)
(-0.0102756 0.00211143 0)
(-0.0110376 0.000987984 0)
(-0.0108379 -0.000369622 0)
(-0.00929824 -0.00190308 0)
(-0.00629975 -0.00327331 0)
(-0.00199846 -0.00409348 0)
(0.00333639 -0.00356389 0)
(0.00763485 -0.00230861 0)
(0.0111902 -0.00128251 0)
(0.0133489 -0.000557123 0)
(0.0143091 -6.13761e-05 0)
(0.0144031 0.000332235 0)
(0.0139087 0.000659672 0)
(0.0130273 0.000942693 0)
(0.0118919 0.00119227 0)
(0.0105956 0.00141495 0)
(0.00920542 0.0016243 0)
(0.00776653 0.00184274 0)
(0.00630899 0.00208567 0)
(0.00486121 0.00232838 0)
(0.00346682 0.00248342 0)
(0.00219587 0.00242252 0)
(0.00114442 0.00204823 0)
(0.000415723 0.00136653 0)
(3.91853e-05 0.000492949 0)
(-6.46404e-05 0.00174416 0)
(-0.000644053 0.00428865 0)
(-0.00173016 0.00587909 0)
(-0.00325639 0.00648243 0)
(-0.00503359 0.00625842 0)
(-0.00685339 0.00545444 0)
(-0.00849492 0.00427411 0)
(-0.00972397 0.00281909 0)
(-0.0102795 0.00110813 0)
(-0.00979948 -0.000875117 0)
(-0.00803505 -0.00299934 0)
(-0.00497979 -0.00480624 0)
(-0.000821162 -0.00576908 0)
(0.00379123 -0.00503205 0)
(0.00793357 -0.00341053 0)
(0.0115638 -0.00200917 0)
(0.0140059 -0.000977842 0)
(0.0152971 -0.000239948 0)
(0.0156818 0.000366494 0)
(0.0153923 0.000885098 0)
(0.0146337 0.00134872 0)
(0.0135408 0.00177421 0)
(0.0122096 0.00217112 0)
(0.0107138 0.00255528 0)
(0.00911137 0.00295101 0)
(0.00744994 0.00337142 0)
(0.00577626 0.00377761 0)
(0.0041491 0.00404726 0)
(0.00265121 0.00399417 0)
(0.00139618 0.00345415 0)
(0.000513806 0.00238738 0)
(4.98951e-05 0.000908389 0)
(-3.97649e-05 0.00232284 0)
(-0.000450591 0.00570267 0)
(-0.00128057 0.00783053 0)
(-0.00251974 0.00865436 0)
(-0.00402993 0.00834928 0)
(-0.0056159 0.00721768 0)
(-0.00704748 0.00553676 0)
(-0.00807894 0.00347341 0)
(-0.00844696 0.00109561 0)
(-0.00777232 -0.00156663 0)
(-0.00595759 -0.00428785 0)
(-0.00308182 -0.00647867 0)
(0.000587613 -0.00744196 0)
(0.00427214 -0.00649737 0)
(0.00792135 -0.00459704 0)
(0.0112781 -0.00285075 0)
(0.0137464 -0.00152422 0)
(0.0152312 -0.00053602 0)
(0.0158903 0.000310978 0)
(0.0158409 0.00106034 0)
(0.0152752 0.00175176 0)
(0.0143168 0.00240979 0)
(0.0130537 0.00304727 0)
(0.011559 0.00368037 0)
(0.00989789 0.00433131 0)
(0.0081314 0.00500532 0)
(0.0063233 0.00564288 0)
(0.0045497 0.00607783 0)
(0.00290976 0.00605104 0)
(0.00153322 0.00530989 0)
(0.000564982 0.00374713 0)
(5.52581e-05 0.00146699 0)
(-7.95799e-06 0.00269675 0)
(-0.000182276 0.00672293 0)
(-0.000621035 0.00938399 0)
(-0.00138506 0.0105334 0)
(-0.0024299 0.0102709 0)
(-0.00361624 0.00889422 0)
(-0.00473425 0.00673919 0)
(-0.00553931 0.00405071 0)
(-0.00576465 0.000968443 0)
(-0.00499497 -0.00239766 0)
(-0.00329283 -0.00568812 0)
(-0.000805583 -0.00815078 0)
(0.00203953 -0.00897746 0)
(0.00480838 -0.00786227 0)
(0.0077132 -0.00575832 0)
(0.0105 -0.00372786 0)
(0.0127261 -0.00215183 0)
(0.0142166 -0.000937456 0)
(0.0150537 0.000154256 0)
(0.0152124 0.0011571 0)
(0.0148536 0.00211202 0)
(0.0140795 0.00305265 0)
(0.0129594 0.00399495 0)
(0.0115571 0.00495293 0)
(0.00993827 0.00594193 0)
(0.00817262 0.00695157 0)
(0.00633897 0.00789052 0)
(0.00453275 0.00853372 0)
(0.00287163 0.00853305 0)
(0.00149539 0.00753681 0)
(0.000543905 0.00536902 0)
(5.2044e-05 0.00213003 0)
(1.80268e-05 0.00275458 0)
(7.00194e-05 0.00705158 0)
(5.1695e-05 0.0101162 0)
(-0.000138228 0.0116806 0)
(-0.000557434 0.0116609 0)
(-0.00116885 0.0102494 0)
(-0.00183459 0.00777789 0)
(-0.00234113 0.00455293 0)
(-0.00242416 0.000787901 0)
(-0.00163754 -0.0032892 0)
(-0.000217615 -0.00707483 0)
(0.00161744 -0.0096008 0)
(0.00346076 -0.0102475 0)
(0.00532225 -0.0090187 0)
(0.00729524 -0.00676662 0)
(0.00928633 -0.00453879 0)
(0.0110471 -0.00279287 0)
(0.012376 -0.00140386 0)
(0.0132454 -9.38564e-05 0)
(0.013554 0.00116579 0)
(0.013377 0.00240245 0)
(0.0127991 0.00366134 0)
(0.0118645 0.00496174 0)
(0.0106208 0.0063126 0)
(0.00912903 0.00771609 0)
(0.00746404 0.00913476 0)
(0.00571964 0.0104271 0)
(0.0040125 0.0112876 0)
(0.00247738 0.0112673 0)
(0.00125055 0.00992904 0)
(0.000438785 0.0070649 0)
(3.90157e-05 0.00280585 0)
(3.2267e-05 0.00249144 0)
(0.000244429 0.00659918 0)
(0.000562655 0.00976624 0)
(0.000894009 0.0116323 0)
(0.0011295 0.0119814 0)
(0.0012143 0.0108275 0)
(0.00118078 0.00836875 0)
(0.00115563 0.00485824 0)
(0.00136186 0.000520614 0)
(0.00205309 -0.00414342 0)
(0.00295304 -0.00808343 0)
(0.00392355 -0.0105573 0)
(0.00479875 -0.0111117 0)
(0.0056278 -0.0098023 0)
(0.00650275 -0.00746205 0)
(0.00752363 -0.00515834 0)
(0.00865095 -0.00336579 0)
(0.00970773 -0.00188445 0)
(0.0105182 -0.00040189 0)
(0.0109246 0.00109257 0)
(0.0108921 0.00260726 0)
(0.0105047 0.00420016 0)
(0.00977786 0.00589387 0)
(0.00873897 0.0076885 0)
(0.00744246 0.00956342 0)
(0.00597003 0.0114356 0)
(0.00443379 0.0130852 0)
(0.00297303 0.0141012 0)
(0.00172997 0.0139406 0)
(0.000811916 0.0121371 0)
(0.000260021 0.00853561 0)
(1.82219e-05 0.00335616 0)
(3.46729e-05 0.00196662 0)
(0.000320669 0.00542082 0)
(0.000837581 0.00831915 0)
(0.00152651 0.0102594 0)
(0.00227526 0.0109042 0)
(0.00298792 0.0100998 0)
(0.00361858 0.00789357 0)
(0.00419053 0.00446346 0)
(0.00485385 7.30543e-05 0)
(0.00539279 -0.00460847 0)
(0.00577049 -0.00852861 0)
(0.00591125 -0.0109191 0)
(0.00574222 -0.0113489 0)
(0.00538967 -0.00997319 0)
(0.00501173 -0.00763392 0)
(0.0049303 -0.00542382 0)
(0.00529218 -0.00376895 0)
(0.00600757 -0.00233713 0)
(0.00675472 -0.000748453 0)
(0.00727762 0.000938907 0)
(0.00737661 0.0027058 0)
(0.00718562 0.00462524 0)
(0.00669181 0.00672462 0)
(0.00590217 0.00898805 0)
(0.00487113 0.0113545 0)
(0.00369602 0.0136645 0)
(0.00251256 0.0155833 0)
(0.00147679 0.0165798 0)
(0.000710394 0.0160699 0)
(0.000249374 0.0136739 0)
(4.41101e-05 0.00940515 0)
(-5.20174e-06 0.00362223 0)
(2.71851e-05 0.0013262 0)
(0.00030175 0.00380551 0)
(0.000857482 0.00606706 0)
(0.00168789 0.00775959 0)
(0.00271445 0.00850004 0)
(0.00383827 0.00800918 0)
(0.00496893 0.00619076 0)
(0.00604876 0.00313118 0)
(0.00705598 -0.000888933 0)
(0.00760777 -0.00503839 0)
(0.0075899 -0.00846336 0)
(0.00695237 -0.0104845 0)
(0.00567714 -0.0106786 0)
(0.00404783 -0.00923674 0)
(0.00231338 -0.00702114 0)
(0.00109131 -0.00514465 0)
(0.00058967 -0.00388074 0)
(0.0008741 -0.00272934 0)
(0.00154901 -0.00119688 0)
(0.00234387 0.000649977 0)
(0.00261157 0.0026416 0)
(0.00267327 0.00485433 0)
(0.00248316 0.00734999 0)
(0.00203351 0.01008 0)
(0.00140004 0.0129008 0)
(0.000710919 0.0155226 0)
(0.000112485 0.0174625 0)
(-0.000263887 0.018099 0)
(-0.000383096 0.0169803 0)
(-0.000310971 0.0139932 0)
(-0.000156043 0.00935011 0)
(-2.41174e-05 0.00349869 0)
(1.88295e-05 0.000699628 0)
(0.000229346 0.00208709 0)
(0.000703193 0.00344565 0)
(0.00148436 0.00454434 0)
(0.00255208 0.0050635 0)
(0.003836 0.00469658 0)
(0.00522751 0.0032638 0)
(0.00657491 0.000783425 0)
(0.00759669 -0.0023224 0)
(0.00798265 -0.00536145 0)
(0.00749763 -0.00777514 0)
(0.00608131 -0.00906277 0)
(0.00363828 -0.00881621 0)
(0.000735163 -0.00727441 0)
(-0.00232883 -0.00533307 0)
(-0.00446841 -0.00419439 0)
(-0.0058036 -0.00358426 0)
(-0.00612117 -0.00294296 0)
(-0.00564228 -0.00175783 0)
(-0.00459116 0.000121421 0)
(-0.00386502 0.00231561 0)
(-0.00335421 0.00477076 0)
(-0.0029847 0.00762622 0)
(-0.00278883 0.0107077 0)
(-0.00267908 0.0137094 0)
(-0.00253828 0.0162171 0)
(-0.00227375 0.0177207 0)
(-0.00184951 0.0177478 0)
(-0.00130802 0.0160599 0)
(-0.00075056 0.0127553 0)
(-0.000299738 0.00821483 0)
(-3.48146e-05 0.00295188 0)
(9.44302e-06 0.000307194 0)
(0.000177669 0.000820576 0)
(0.000569598 0.00125449 0)
(0.00123349 0.00153643 0)
(0.00215997 0.00152229 0)
(0.00327519 0.00103095 0)
(0.00442645 -4.75656e-05 0)
(0.00538379 -0.00160703 0)
(0.0058901 -0.00335338 0)
(0.00563325 -0.00500401 0)
(0.00436738 -0.00609651 0)
(0.00204154 -0.00632972 0)
(-0.00189494 -0.00532681 0)
(-0.00572479 -0.00394576 0)
(-0.00922309 -0.00296558 0)
(-0.0121462 -0.00261088 0)
(-0.0142999 -0.00273082 0)
(-0.0152575 -0.00282715 0)
(-0.0150417 -0.00233462 0)
(-0.0139302 -0.000994029 0)
(-0.0120791 0.0011597 0)
(-0.0105904 0.00370842 0)
(-0.0091146 0.0065742 0)
(-0.0077554 0.0095622 0)
(-0.00647116 0.012328 0)
(-0.00521983 0.0144432 0)
(-0.00400679 0.0154276 0)
(-0.00285141 0.0149541 0)
(-0.00180342 0.012995 0)
(-0.000940221 0.00985119 0)
(-0.000343095 0.00603121 0)
(-3.50878e-05 0.0020435 0)
(2.03718e-05 -0.000393284 0)
(0.000143572 -0.00107367 0)
(0.000377592 -0.00165394 0)
(0.00071286 -0.00211123 0)
(0.00109979 -0.00245285 0)
(0.00144104 -0.00272467 0)
(0.00158058 -0.00299039 0)
(0.00132306 -0.00326513 0)
(0.000468837 -0.00340715 0)
(-0.00133336 -0.00294509 0)
(-0.00421924 -0.00180137 0)
(-0.00799936 -0.000655187 0)
(-0.0120367 6.13799e-05 0)
(-0.015842 0.000337028 0)
(-0.019241 0.0002601 0)
(-0.0221322 -0.000258882 0)
(-0.0243887 -0.00122153 0)
(-0.0255663 -0.00227871 0)
(-0.0254233 -0.00289111 0)
(-0.0241283 -0.00273765 0)
(-0.0218113 -0.00163894 0)
(-0.0186516 0.000423048 0)
(-0.0152476 0.00311654 0)
(-0.0119175 0.0059379 0)
(-0.00892891 0.00822513 0)
(-0.00628918 0.00990843 0)
(-0.00413932 0.0106204 0)
(-0.00250649 0.0101254 0)
(-0.00135084 0.00850115 0)
(-0.000600328 0.00613994 0)
(-0.000182957 0.00355073 0)
(-1.32939e-05 0.00112199 0)
(-2.73789e-05 -0.000309339 0)
(-0.000260936 -0.000755346 0)
(-0.000749252 -0.000969767 0)
(-0.00153147 -0.000848021 0)
(-0.0026127 -0.00032461 0)
(-0.00399605 0.000564184 0)
(-0.00570057 0.00167294 0)
(-0.00776541 0.00281266 0)
(-0.0101977 0.00380995 0)
(-0.0128421 0.00449972 0)
(-0.0155112 0.00481892 0)
(-0.0182145 0.00485444 0)
(-0.0209823 0.00461897 0)
(-0.0238262 0.00409704 0)
(-0.0266771 0.00323826 0)
(-0.0293212 0.00192113 0)
(-0.0313488 1.24604e-06 0)
(-0.0322394 -0.00224601 0)
(-0.0320748 -0.00433423 0)
(-0.0309174 -0.00604809 0)
(-0.0287678 -0.0072136 0)
(-0.0256834 -0.0076797 0)
(-0.0218188 -0.00728526 0)
(-0.017445 -0.00589719 0)
(-0.012951 -0.00348708 0)
(-0.00883201 -0.000593721 0)
(-0.00537585 0.00219797 0)
(-0.00279776 0.00417186 0)
(-0.00116168 0.00479831 0)
(-0.000332623 0.00416267 0)
(-2.80642e-05 0.00281194 0)
(1.57186e-05 0.00105437 0)
(-3.11834e-05 0.00130277 0)
(-0.000360529 0.00354687 0)
(-0.00104095 0.00546005 0)
(-0.00209995 0.00693144 0)
(-0.00348334 0.00794266 0)
(-0.00510707 0.0085824 0)
(-0.00689113 0.00898023 0)
(-0.00879118 0.00922626 0)
(-0.0108096 0.00935405 0)
(-0.0129646 0.00937065 0)
(-0.0152574 0.00927184 0)
(-0.0176741 0.00900727 0)
(-0.020183 0.00847755 0)
(-0.0227532 0.00758313 0)
(-0.0253364 0.00622395 0)
(-0.0277965 0.00425943 0)
(-0.029845 0.0014991 0)
(-0.0309414 -0.00179008 0)
(-0.0310283 -0.00505488 0)
(-0.0304592 -0.0082178 0)
(-0.029159 -0.0112078 0)
(-0.0271046 -0.0139124 0)
(-0.0243146 -0.0161161 0)
(-0.0208795 -0.0174956 0)
(-0.0169742 -0.0176722 0)
(-0.0128678 -0.0163239 0)
(-0.00890138 -0.0133414 0)
(-0.00543453 -0.00904501 0)
(-0.00278218 -0.00437346 0)
(-0.0010989 -0.000703079 0)
(-0.000278213 0.000985588 0)
(-8.74387e-06 0.000810155 0)
(-2.15116e-05 0.00231459 0)
(-0.000237067 0.00619025 0)
(-0.000690059 0.00936276 0)
(-0.00141657 0.0116852 0)
(-0.00240848 0.0131623 0)
(-0.00363686 0.013945 0)
(-0.0050577 0.0142507 0)
(-0.00662296 0.0142631 0)
(-0.00829305 0.0140834 0)
(-0.0100408 0.0137477 0)
(-0.0118465 0.0132565 0)
(-0.0136926 0.0125792 0)
(-0.0155593 0.0116515 0)
(-0.0174316 0.0103833 0)
(-0.0192914 0.00865058 0)
(-0.0210722 0.00626857 0)
(-0.0226064 0.00296398 0)
(-0.0236634 -0.00100003 0)
(-0.0240509 -0.00494433 0)
(-0.0242198 -0.00887298 0)
(-0.0240366 -0.0129395 0)
(-0.0233785 -0.0171468 0)
(-0.0221195 -0.0212998 0)
(-0.0201836 -0.0249883 0)
(-0.0175863 -0.0276202 0)
(-0.0144493 -0.028524 0)
(-0.0109964 -0.027089 0)
(-0.00753617 -0.0230443 0)
(-0.00443372 -0.0168391 0)
(-0.00205542 -0.00991356 0)
(-0.000622997 -0.00417515 0)
(-3.7543e-05 -0.000706759 0)
(-2.33841e-06 0.00281698 0)
(-8.00082e-05 0.00760516 0)
(-0.000284235 0.0116148 0)
(-0.000669412 0.014631 0)
(-0.00126403 0.0165881 0)
(-0.00206698 0.017599 0)
(-0.00304772 0.0178987 0)
(-0.00415754 0.0177328 0)
(-0.00534407 0.0172753 0)
(-0.00656002 0.0166159 0)
(-0.00776485 0.0157837 0)
(-0.00892573 0.0147666 0)
(-0.0100189 0.0135185 0)
(-0.0110334 0.0119606 0)
(-0.0119707 0.00997614 0)
(-0.0128168 0.00738592 0)
(-0.0134811 0.00391569 0)
(-0.0140236 -0.000215418 0)
(-0.0146161 -0.00421666 0)
(-0.0153452 -0.00815813 0)
(-0.0161253 -0.0124586 0)
(-0.0167849 -0.0173047 0)
(-0.0170948 -0.0226527 0)
(-0.0168179 -0.0281552 0)
(-0.015793 -0.0331307 0)
(-0.0139723 -0.0366785 0)
(-0.0114485 -0.0377529 0)
(-0.00846142 -0.0354398 0)
(-0.00538477 -0.0293763 0)
(-0.00270371 -0.0204006 0)
(-0.000889526 -0.0107906 0)
(-6.48293e-05 -0.00289997 0)
(8.49844e-06 0.00284131 0)
(3.73972e-05 0.00785497 0)
(3.76464e-05 0.0122649 0)
(-4.76195e-05 0.0157911 0)
(-0.000275406 0.0182229 0)
(-0.000676096 0.0195562 0)
(-0.00123493 0.0199719 0)
(-0.00190017 0.0197345 0)
(-0.00260195 0.019077 0)
(-0.0032737 0.018151 0)
(-0.00386176 0.0170318 0)
(-0.00432737 0.0157402 0)
(-0.00464994 0.0142566 0)
(-0.00482526 0.0125035 0)
(-0.00487231 0.0103733 0)
(-0.00481973 0.00768576 0)
(-0.0046561 0.00423205 0)
(-0.00441794 0.000257098 0)
(-0.00527772 -0.00340038 0)
(-0.00630993 -0.00690577 0)
(-0.00763583 -0.0108334 0)
(-0.00915711 -0.0155351 0)
(-0.010665 -0.0212105 0)
(-0.0118372 -0.0277363 0)
(-0.0123641 -0.0344725 0)
(-0.0120211 -0.0404652 0)
(-0.0107282 -0.0443491 0)
(-0.00859528 -0.0446508 0)
(-0.00592114 -0.0401243 0)
(-0.00321522 -0.0305751 0)
(-0.00113929 -0.017881 0)
(-9.52006e-05 -0.00543251 0)
(1.36986e-05 0.00265832 0)
(0.000104558 0.0075361 0)
(0.000238646 0.0120306 0)
(0.000368005 0.0158116 0)
(0.000428675 0.018594 0)
(0.000375059 0.020251 0)
(0.000204779 0.0208557 0)
(-3.87569e-05 0.0206246 0)
(-0.000274594 0.0198254 0)
(-0.000419351 0.0186832 0)
(-0.000409449 0.0173305 0)
(-0.000200144 0.0158279 0)
(0.000214746 0.0141561 0)
(0.00081585 0.0122786 0)
(0.00155854 0.010086 0)
(0.00237404 0.00736062 0)
(0.00307382 0.00399785 0)
(0.00350277 0.000539429 0)
(0.00260545 -0.00257037 0)
(0.00140327 -0.00555915 0)
(-0.000165856 -0.00899338 0)
(-0.00205263 -0.0131545 0)
(-0.00415668 -0.0184387 0)
(-0.00629197 -0.0251827 0)
(-0.00807163 -0.032876 0)
(-0.00912502 -0.0407416 0)
(-0.00916287 -0.0472368 0)
(-0.00811024 -0.0505013 0)
(-0.00611206 -0.0484768 0)
(-0.00361255 -0.0397328 0)
(-0.00138299 -0.0250329 0)
(-0.000127453 -0.0081981 0)
(1.43367e-05 0.00240755 0)
(0.0001283 0.00698628 0)
(0.000326169 0.0113858 0)
(0.000576207 0.0152568 0)
(0.000824476 0.0182473 0)
(0.00103069 0.0201286 0)
(0.00119209 0.0208775 0)
(0.00135066 0.0206614 0)
(0.00158411 0.0197562 0)
(0.00197629 0.0184343 0)
(0.00258984 0.0168889 0)
(0.00345589 0.0152245 0)
(0.00456153 0.0134504 0)
(0.00586117 0.0115365 0)
(0.00726636 0.00937346 0)
(0.00865785 0.00674756 0)
(0.00964729 0.00368226 0)
(0.00988635 0.000774695 0)
(0.00894751 -0.00187187 0)
(0.00754799 -0.00448297 0)
(0.005841 -0.00735671 0)
(0.00386411 -0.0108233 0)
(0.00169318 -0.0152956 0)
(-0.000872 -0.0217249 0)
(-0.00342805 -0.0295483 0)
(-0.00562445 -0.0385193 0)
(-0.00695644 -0.0470708 0)
(-0.00711708 -0.0532104 0)
(-0.00601434 -0.0542322 0)
(-0.00393216 -0.0474463 0)
(-0.0016511 -0.0319544 0)
(-0.000167126 -0.01112 0)
(1.06671e-05 0.00218542 0)
(0.000106823 0.00645474 0)
(0.00029219 0.0106826 0)
(0.000562985 0.0145187 0)
(0.00089709 0.0175702 0)
(0.00127937 0.0195385 0)
(0.00172135 0.0203299 0)
(0.00226833 0.020076 0)
(0.00298742 0.0190609 0)
(0.0039416 0.0175951 0)
(0.00516798 0.0159173 0)
(0.00667064 0.0141635 0)
(0.00841404 0.0123678 0)
(0.0103271 0.0104994 0)
(0.0122829 0.00845793 0)
(0.0141037 0.00605582 0)
(0.0152562 0.00341142 0)
(0.0153937 0.00103919 0)
(0.0144259 -0.00112833 0)
(0.0128872 -0.00333146 0)
(0.0109791 -0.00583916 0)
(0.00882376 -0.0089381 0)
(0.00653319 -0.0129503 0)
(0.00404219 -0.0183079 0)
(0.00131226 -0.0253817 0)
(-0.00165067 -0.0347301 0)
(-0.004135 -0.0445737 0)
(-0.00559304 -0.0531707 0)
(-0.00560345 -0.0574191 0)
(-0.00417486 -0.0534905 0)
(-0.00197939 -0.0384848 0)
(-0.000224556 -0.014214 0)
(7.94891e-07 0.00205805 0)
(2.35881e-05 0.00612322 0)
(9.96952e-05 0.0101835 0)
(0.000278871 0.0138862 0)
(0.000603946 0.0168332 0)
(0.00110166 0.0187101 0)
(0.00180125 0.0193993 0)
(0.00274812 0.0190219 0)
(0.00398536 0.0178785 0)
(0.00553218 0.0163061 0)
(0.00737974 0.0145641 0)
(0.0094965 0.0128003 0)
(0.0118247 0.0110583 0)
(0.0142743 0.00930765 0)
(0.0166929 0.00745784 0)
(0.018856 0.00535397 0)
(0.0201597 0.00315124 0)
(0.020326 0.0012569 0)
(0.0194489 -0.000464636 0)
(0.0179451 -0.00225574 0)
(0.0160084 -0.00435757 0)
(0.0137622 -0.00705475 0)
(0.0113028 -0.0106677 0)
(0.00865924 -0.0155423 0)
(0.00582554 -0.0219185 0)
(0.00274053 -0.0300701 0)
(-0.000609143 -0.0403348 0)
(-0.00337689 -0.0507466 0)
(-0.00474251 -0.0580921 0)
(-0.00427494 -0.0576646 0)
(-0.00239161 -0.0444453 0)
(-0.000318453 -0.0175521 0)
(-1.92761e-05 0.0021052 0)
(-0.000156801 0.00618314 0)
(-0.000318797 0.0101089 0)
(-0.000355866 0.0135359 0)
(-0.000118068 0.0161637 0)
(0.000483265 0.0177566 0)
(0.0014709 0.0181834 0)
(0.0028644 0.0175934 0)
(0.00466799 0.0163118 0)
(0.00683734 0.0146815 0)
(0.00930755 0.0129502 0)
(0.0120133 0.0112536 0)
(0.0148819 0.00963054 0)
(0.0178157 0.00805081 0)
(0.0206524 0.00643482 0)
(0.0231468 0.00465668 0)
(0.0246781 0.00286847 0)
(0.0250284 0.00138211 0)
(0.0244426 5.28819e-05 0)
(0.0231367 -0.0013648 0)
(0.0213672 -0.00308363 0)
(0.0192131 -0.00536916 0)
(0.0167258 -0.00851961 0)
(0.0139222 -0.0128408 0)
(0.0108051 -0.0185881 0)
(0.00737945 -0.0259802 0)
(0.00364773 -0.0351732 0)
(-0.000238246 -0.0462129 0)
(-0.00318915 -0.056258 0)
(-0.00408257 -0.0597193 0)
(-0.00287439 -0.0495611 0)
(-0.000477684 -0.0212282 0)
(-6.64454e-05 0.00243794 0)
(-0.000518203 0.00683188 0)
(-0.00107267 0.0106355 0)
(-0.00141874 0.0135823 0)
(-0.00128061 0.0155977 0)
(-0.00055068 0.0166585 0)
(0.000826191 0.0167026 0)
(0.00275735 0.015846 0)
(0.00518919 0.0144445 0)
(0.00801036 0.0128194 0)
(0.0111059 0.0111729 0)
(0.0143901 0.00960912 0)
(0.0177878 0.00815372 0)
(0.0212061 0.00677635 0)
(0.0244884 0.00540933 0)
(0.0273952 0.0039504 0)
(0.0293053 0.00252947 0)
(0.0300236 0.00137834 0)
(0.0298576 0.000369343 0)
(0.0289376 -0.000722749 0)
(0.0275149 -0.00209501 0)
(0.0256174 -0.00397163 0)
(0.0232388 -0.00661364 0)
(0.0203502 -0.0102954 0)
(0.0169299 -0.0152736 0)
(0.0129953 -0.0217887 0)
(0.00861837 -0.0300761 0)
(0.00394712 -0.0402962 0)
(-0.000597591 -0.0518737 0)
(-0.00332825 -0.0593359 0)
(-0.00332994 -0.0534255 0)
(-0.000732884 -0.0252863 0)
(-0.000179137 0.00326188 0)
(-0.0012068 0.00828523 0)
(-0.00229224 0.0118027 0)
(-0.00293899 0.0139405 0)
(-0.00279385 0.0150538 0)
(-0.00178745 0.0153792 0)
(9.94531e-05 0.0149373 0)
(0.00273272 0.0138042 0)
(0.0058753 0.0123423 0)
(0.00939784 0.0107951 0)
(0.0131559 0.00929715 0)
(0.0170615 0.00791356 0)
(0.0210468 0.00665486 0)
(0.0250299 0.00549196 0)
(0.0288674 0.00436961 0)
(0.0323389 0.00320629 0)
(0.0348032 0.00210439 0)
(0.0360468 0.00123075 0)
(0.0363819 0.0004796 0)
(0.0359671 -0.000340945 0)
(0.0349758 -0.00140251 0)
(0.0334022 -0.00287878 0)
(0.0311918 -0.00498337 0)
(0.0282684 -0.00795246 0)
(0.0245702 -0.0120323 0)
(0.0200922 -0.0174915 0)
(0.0149152 -0.0246526 0)
(0.00922301 -0.0338996 0)
(0.00337372 -0.0452701 0)
(-0.00155252 -0.0561433 0)
(-0.00350484 -0.0555072 0)
(-0.00108224 -0.0296417 0)
(-0.000425919 0.00491587 0)
(-0.00238825 0.0107064 0)
(-0.00399125 0.0134506 0)
(-0.00470319 0.0143361 0)
(-0.00423909 0.0143075 0)
(-0.00266207 0.0137971 0)
(2.195e-05 0.0128272 0)
(0.0035494 0.0114707 0)
(0.00753262 0.0100424 0)
(0.0118639 0.00864405 0)
(0.0163942 0.00734316 0)
(0.0210396 0.00617066 0)
(0.025736 0.00512527 0)
(0.0304054 0.00418106 0)
(0.0349111 0.00329502 0)
(0.0390458 0.00240588 0)
(0.0421259 0.00158842 0)
(0.0439109 0.000953944 0)
(0.044725 0.000416332 0)
(0.0447771 -0.000175377 0)
(0.0441564 -0.000952487 0)
(0.0428503 -0.00204179 0)
(0.0407796 -0.0036053 0)
(0.0378342 -0.00583053 0)
(0.0339096 -0.00893401 0)
(0.0289491 -0.0131906 0)
(0.0229844 -0.0189881 0)
(0.0161701 -0.0268895 0)
(0.00886775 -0.0374804 0)
(0.0019186 -0.0498229 0)
(-0.00290594 -0.0551696 0)
(-0.00143127 -0.0340868 0)
(-0.000874447 0.00790146 0)
(-0.00405293 0.0139584 0)
(-0.00570056 0.0150104 0)
(-0.00576807 0.0142257 0)
(-0.00430147 0.0129921 0)
(-0.00159196 0.011679 0)
(0.00242002 0.0102332 0)
(0.00699024 0.00883919 0)
(0.0119982 0.0075468 0)
(0.0172858 0.00636101 0)
(0.0227104 0.00529972 0)
(0.0281801 0.00436841 0)
(0.033619 0.0035578 0)
(0.0389399 0.00284561 0)
(0.0440053 0.00219932 0)
(0.0486154 0.00157668 0)
(0.0520741 0.0010249 0)
(0.054163 0.000606025 0)
(0.0552375 0.000252903 0)
(0.0555399 -0.000137279 0)
(0.0551067 -0.000652197 0)
(0.053935 -0.00137958 0)
(0.0519387 -0.00243036 0)
(0.0489907 -0.00393671 0)
(0.0449524 -0.00606517 0)
(0.0397027 -0.00905846 0)
(0.0331716 -0.0133138 0)
(0.0253908 -0.0194981 0)
(0.0166143 -0.0285825 0)
(0.00756142 -0.0409762 0)
(-0.000685424 -0.0515261 0)
(-0.00148703 -0.0380867 0)
(-0.00161662 0.0130193 0)
(-0.00551266 0.0172037 0)
(-0.00550048 0.0153404 0)
(-0.00327731 0.012793 0)
(0.000528469 0.0105411 0)
(0.00529381 0.00870281 0)
(0.0107521 0.00718119 0)
(0.016583 0.00592973 0)
(0.0226551 0.0048764 0)
(0.0288191 0.00397536 0)
(0.0349401 0.00320937 0)
(0.0409174 0.00256469 0)
(0.046668 0.00202524 0)
(0.0521074 0.0015706 0)
(0.0571171 0.00117596 0)
(0.0615307 0.00081462 0)
(0.0647515 0.000508086 0)
(0.0666593 0.000280183 0)
(0.0676227 8.64531e-05 0)
(0.0678635 -0.000128615 0)
(0.0674158 -0.000415106 0)
(0.0662738 -0.000826942 0)
(0.0643477 -0.00142863 0)
(0.0615053 -0.00229818 0)
(0.0575921 -0.00354153 0)
(0.0524375 -0.00533397 0)
(0.0458536 -0.00800674 0)
(0.0376536 -0.0122033 0)
(0.0277678 -0.0190745 0)
(0.016486 -0.0300366 0)
(0.00438508 -0.0434366 0)
(-0.000172674 -0.0395803 0)
(-0.00122777 0.0182878 0)
(-0.002994 0.0181692 0)
(0.00336384 0.0126247 0)
(0.010472 0.00928193 0)
(0.0174902 0.00693878 0)
(0.0243471 0.00519883 0)
(0.0310981 0.00392094 0)
(0.0376605 0.00299035 0)
(0.0439866 0.00229216 0)
(0.0500123 0.00175476 0)
(0.0556696 0.00133802 0)
(0.0609098 0.00101462 0)
(0.0657006 0.000763269 0)
(0.0700139 0.000565334 0)
(0.0737999 0.000403435 0)
(0.0769709 0.000263412 0)
(0.0791611 0.00014964 0)
(0.0803682 6.57403e-05 0)
(0.0808921 -7.53076e-06 0)
(0.0808702 -9.11405e-05 0)
(0.080348 -0.000206724 0)
(0.0792942 -0.000379094 0)
(0.077616 -0.000635822 0)
(0.075191 -0.00101059 0)
(0.071875 -0.00155271 0)
(0.0674883 -0.00235538 0)
(0.0617714 -0.00362334 0)
(0.0543165 -0.00581792 0)
(0.0445053 -0.00991394 0)
(0.0315657 -0.0176092 0)
(0.0154761 -0.0297636 0)
(0.00630954 -0.0334429 0)
(0.0207953 0.0113566 0)
(0.027181 0.0092838 0)
(0.040238 0.00541872 0)
(0.0508574 0.00328612 0)
(0.0588327 0.0020495 0)
(0.0651551 0.001267 0)
(0.0703589 0.000778449 0)
(0.074711 0.000483587 0)
(0.078403 0.000305198 0)
(0.0815626 0.000195468 0)
(0.0842723 0.000127115 0)
(0.0865945 8.38831e-05 0)
(0.0885793 5.58871e-05 0)
(0.0902621 3.69168e-05 0)
(0.0916552 2.27348e-05 0)
(0.0927439 1.1089e-05 0)
(0.0934233 1.92079e-06 0)
(0.0937271 -5.1237e-06 0)
(0.0937708 -1.19635e-05 0)
(0.0936025 -2.1092e-05 0)
(0.0932278 -3.56983e-05 0)
(0.0926063 -5.95928e-05 0)
(0.0916726 -9.6623e-05 0)
(0.090351 -0.000151619 0)
(0.0885544 -0.000232316 0)
(0.0861625 -0.00035582 0)
(0.0829597 -0.000566053 0)
(0.0784976 -0.000976079 0)
(0.0718065 -0.00186629 0)
(0.0608664 -0.00398277 0)
(0.0432813 -0.00919231 0)
(0.0285943 -0.0145305 0)
)
;

boundaryField
{
    movingWall
    {
        type            fixedValue;
        value           uniform (0.1 0 0);
    }
    fixedWalls
    {
        type            noSlip;
    }
    floor
    {
        type            noSlip;
    }
    frontAndBack
    {
        type            empty;
    }
}


// ************************************************************************* //
