/*--------------------------------*- C++ -*----------------------------------*\
| =========                 |                                                 |
| \\      /  F ield         | OpenFOAM: The Open Source CFD Toolbox           |
|  \\    /   O peration     | Version:  2206                                  |
|   \\  /    A nd           | Website:  www.openfoam.com                      |
|    \\/     M anipulation  |                                                 |
\*---------------------------------------------------------------------------*/
FoamFile
{
    version     2.0;
    format      ascii;
    arch        "LSB;label=64;scalar=64";
    class       volScalarField;
    location    "3.9/water";
    object      alpha.gas;
}
// * * * * * * * * * * * * * * * * * * * * * * * * * * * * * * * * * * * * * //

dimensions      [0 0 0 0 0 0 0];

internalField   nonuniform List<scalar> 
23300
(
1e-15
1e-15
1e-15
1e-15
1e-15
1e-15
1e-15
1e-15
1e-15
1e-15
1e-15
1e-15
1e-15
1e-15
1e-15
1e-15
1e-15
1e-15
1e-15
1e-15
1e-15
1e-15
1e-15
1e-15
1e-15
1e-15
1e-15
1e-15
1e-15
1e-15
1e-15
1e-15
1e-15
1e-15
1e-15
1e-15
1e-15
1e-15
1e-15
1e-15
1e-15
1e-15
1e-15
1e-15
1e-15
1e-15
1e-15
1e-15
1e-15
1e-15
1e-15
1e-15
1e-15
1e-15
1e-15
1e-15
1e-15
1e-15
1e-15
1e-15
1e-15
1e-15
1e-15
1e-15
1e-15
1e-15
1e-15
1e-15
1e-15
1e-15
1e-15
1e-15
1e-15
1e-15
1e-15
1e-15
1e-15
1e-15
1e-15
1e-15
1e-15
1e-15
1e-15
1e-15
1e-15
1e-15
1e-15
1e-15
1e-15
1e-15
1e-15
1e-15
1e-15
1e-15
1e-15
1e-15
1e-15
1e-15
1e-15
1e-15
1e-15
1e-15
1e-15
1e-15
1e-15
1e-15
1e-15
1e-15
1e-15
1e-15
1e-15
1e-15
1e-15
1e-15
1e-15
1e-15
1e-15
1e-15
1e-15
1e-15
1e-15
1e-15
1e-15
1e-15
1e-15
1e-15
1e-15
1e-15
1e-15
1e-15
1e-15
1e-15
1e-15
1e-15
1e-15
1e-15
1e-15
1e-15
1e-15
1e-15
1e-15
1e-15
1e-15
1e-15
1e-15
1e-15
1e-15
1e-15
1e-15
1e-15
1e-15
1e-15
1e-15
1e-15
1e-15
1e-15
1e-15
1e-15
1e-15
1e-15
1e-15
1e-15
1e-15
1e-15
1e-15
1e-15
1e-15
1e-15
1e-15
1e-15
1e-15
1e-15
1e-15
1e-15
1e-15
1e-15
1e-15
1e-15
1e-15
1e-15
1e-15
1e-15
1e-15
1e-15
1e-15
1e-15
1e-15
1e-15
1e-15
1e-15
1e-15
1e-15
1e-15
1e-15
1e-15
1e-15
1e-15
1e-15
1e-15
1e-15
1e-15
1e-15
1e-15
1e-15
1e-15
1e-15
1e-15
1e-15
1e-15
1e-15
1e-15
1e-15
1e-15
1e-15
1e-15
1e-15
1e-15
1e-15
1e-15
1e-15
1e-15
1e-15
1e-15
1e-15
1e-15
1e-15
1e-15
1e-15
1e-15
1e-15
1e-15
1e-15
1e-15
1e-15
1e-15
1e-15
1e-15
1e-15
1e-15
1e-15
1e-15
1e-15
1e-15
1e-15
1e-15
1e-15
1e-15
1e-15
1e-15
1e-15
1e-15
1e-15
1e-15
1e-15
1e-15
1e-15
1e-15
1e-15
1e-15
1e-15
1e-15
1e-15
1e-15
1e-15
1e-15
1e-15
1e-15
1e-15
1e-15
1e-15
1e-15
1e-15
1e-15
1e-15
1e-15
1e-15
1e-15
1e-15
1e-15
1e-15
1e-15
1e-15
1e-15
1e-15
1e-15
1e-15
1e-15
1e-15
1e-15
1e-15
1e-15
1e-15
1e-15
1e-15
1e-15
1e-15
1e-15
1e-15
1e-15
1e-15
1e-15
1e-15
1e-15
1e-15
1e-15
1e-15
1e-15
1e-15
1e-15
1e-15
1e-15
1e-15
1e-15
1e-15
1e-15
1e-15
1e-15
1e-15
1e-15
1e-15
1e-15
1e-15
1e-15
1e-15
1e-15
1e-15
1e-15
1e-15
1e-15
1e-15
1e-15
1e-15
1e-15
1e-15
1e-15
1e-15
1e-15
1e-15
1e-15
1e-15
1e-15
1e-15
1e-15
1e-15
1e-15
1e-15
1e-15
1e-15
1e-15
1e-15
1e-15
1e-15
1e-15
1e-15
1e-15
1e-15
1e-15
1e-15
1e-15
1e-15
1e-15
1e-15
1e-15
1e-15
1e-15
1e-15
1e-15
1e-15
1e-15
1e-15
1e-15
1e-15
1e-15
1e-15
1e-15
1e-15
1e-15
1e-15
1e-15
1e-15
1e-15
1e-15
1e-15
1e-15
1e-15
1e-15
1e-15
1e-15
1e-15
1e-15
1e-15
1e-15
1e-15
1e-15
1e-15
1e-15
1e-15
1e-15
1e-15
1e-15
1e-15
1e-15
1e-15
1e-15
1e-15
1e-15
1e-15
1e-15
1e-15
1e-15
1e-15
1e-15
1e-15
1e-15
1e-15
1e-15
1e-15
1e-15
1e-15
1e-15
1e-15
1e-15
1e-15
1e-15
1e-15
1e-15
1e-15
1e-15
1e-15
1e-15
1e-15
1e-15
1e-15
1e-15
1e-15
1e-15
1e-15
1e-15
1e-15
1e-15
1e-15
1e-15
1e-15
1e-15
1e-15
1e-15
1e-15
1e-15
1e-15
1e-15
1e-15
1e-15
1e-15
1e-15
1e-15
1e-15
1e-15
1e-15
1e-15
1e-15
1e-15
1e-15
1e-15
1e-15
1e-15
1e-15
1e-15
1e-15
1e-15
1e-15
1e-15
1e-15
1e-15
1e-15
1e-15
1e-15
1e-15
1e-15
1e-15
1e-15
1e-15
1e-15
1e-15
1e-15
1e-15
1e-15
1e-15
1e-15
1e-15
1e-15
1e-15
1e-15
1e-15
1e-15
1e-15
1e-15
1e-15
1e-15
1e-15
1e-15
1e-15
1e-15
1e-15
1e-15
1e-15
1e-15
1e-15
1e-15
1e-15
1e-15
1e-15
1e-15
1e-15
1e-15
1e-15
1e-15
1e-15
1e-15
1e-15
1e-15
1e-15
1e-15
1e-15
1e-15
1e-15
1e-15
1e-15
1e-15
1e-15
1e-15
1e-15
1e-15
1e-15
1e-15
1e-15
1e-15
1e-15
1e-15
1e-15
1e-15
1e-15
1e-15
1e-15
1e-15
1e-15
1e-15
1e-15
1e-15
1e-15
1e-15
1e-15
1e-15
1e-15
1e-15
1e-15
1e-15
1e-15
1e-15
1e-15
1e-15
1.01220663212e-15
1e-15
1e-15
1e-15
1e-15
1e-15
1e-15
1e-15
1e-15
1e-15
1e-15
1e-15
1e-15
1e-15
1e-15
1e-15
1e-15
1e-15
1e-15
1e-15
1e-15
1e-15
1e-15
1e-15
1e-15
1e-15
1e-15
1e-15
1e-15
1e-15
1e-15
1e-15
1e-15
1e-15
1e-15
1e-15
1e-15
1e-15
1e-15
1e-15
1e-15
1e-15
1e-15
1e-15
1e-15
1e-15
1e-15
1e-15
1e-15
1e-15
1e-15
1e-15
1e-15
1e-15
1e-15
1e-15
1e-15
1e-15
1e-15
1e-15
1e-15
1e-15
1e-15
1e-15
1e-15
1e-15
1e-15
1e-15
1e-15
1e-15
1e-15
1e-15
1e-15
1e-15
1e-15
1e-15
1e-15
1e-15
1e-15
1e-15
1e-15
1e-15
1e-15
1e-15
1e-15
1e-15
1e-15
1e-15
1e-15
1e-15
1e-15
1e-15
1e-15
1e-15
1e-15
1e-15
1e-15
1e-15
1e-15
1e-15
1e-15
1e-15
1e-15
1e-15
1e-15
1e-15
1e-15
1e-15
1e-15
1e-15
1e-15
1e-15
1e-15
1e-15
1e-15
1e-15
1e-15
1e-15
1e-15
1e-15
1e-15
1e-15
1e-15
1e-15
1e-15
1e-15
1e-15
1e-15
1e-15
1e-15
1e-15
1e-15
1.02834828856e-15
1.02783828274e-15
1.02852937069e-15
1.02603418659e-15
1e-15
1e-15
1.01473920401e-15
1e-15
1.01656072431e-15
1e-15
1e-15
1e-15
1e-15
1e-15
1e-15
1e-15
1e-15
1e-15
1e-15
1e-15
1e-15
1e-15
1e-15
1e-15
1e-15
1e-15
1e-15
1e-15
1e-15
1e-15
1e-15
1e-15
1e-15
1e-15
1e-15
1e-15
1e-15
1e-15
1e-15
1e-15
1e-15
1e-15
1e-15
1e-15
1e-15
1e-15
1e-15
1e-15
1e-15
1e-15
1e-15
1e-15
1e-15
1e-15
1e-15
1e-15
1e-15
1e-15
1e-15
1e-15
1e-15
1e-15
1e-15
1e-15
1e-15
1e-15
1e-15
1e-15
1e-15
1e-15
1e-15
1e-15
1e-15
1e-15
1e-15
1e-15
1e-15
1e-15
1e-15
1e-15
1e-15
1e-15
1e-15
1e-15
1e-15
1e-15
1e-15
1e-15
1e-15
1e-15
1e-15
1e-15
1e-15
1e-15
1e-15
1e-15
1e-15
1e-15
1e-15
1e-15
1e-15
1e-15
1e-15
1e-15
1e-15
1e-15
1e-15
1e-15
1e-15
1e-15
1e-15
1e-15
1e-15
1e-15
1e-15
1e-15
1e-15
1e-15
1e-15
1e-15
1e-15
1e-15
1e-15
1e-15
1e-15
1e-15
1e-15
1e-15
1e-15
1e-15
1e-15
1e-15
1e-15
1e-15
1e-15
1e-15
1e-15
1e-15
1e-15
1e-15
1.02783828274e-15
1.02897259718e-15
1.02783828274e-15
1.0287184699e-15
1e-15
1e-15
1.01298708452e-15
1e-15
1.01220663212e-15
1e-15
1e-15
1e-15
1e-15
1e-15
1e-15
1.00002535263e-15
1.00010951739e-15
1.00018195404e-15
1.00023028327e-15
1.00025710802e-15
1.00026724507e-15
1.00025825145e-15
1.00023120013e-15
1.00017368899e-15
1.00008329145e-15
1.00000185719e-15
1e-15
1e-15
1e-15
1e-15
1e-15
1e-15
1e-15
1e-15
1e-15
1e-15
1e-15
1e-15
1e-15
1e-15
1e-15
1e-15
1e-15
1e-15
1e-15
1e-15
1.00003149144e-15
1.00052742932e-15
1.00149929162e-15
1.00154598584e-15
1.00155199882e-15
1.0015758533e-15
1.00156070179e-15
1.00158032111e-15
1.00156070179e-15
1.00157101628e-15
1.00155007679e-15
1.00067798274e-15
1.00031651776e-15
1.00032232687e-15
1.00031649107e-15
1.00030701902e-15
1.00029581774e-15
1.0002811681e-15
1.00026499886e-15
1.00024372062e-15
1.00021816114e-15
1.00018795226e-15
1.00015266792e-15
1.00010683973e-15
1.00005330244e-15
1e-15
1e-15
1e-15
1e-15
1e-15
1e-15
1e-15
1e-15
1e-15
1e-15
1e-15
1e-15
1e-15
1e-15
1e-15
1e-15
1e-15
1e-15
1e-15
1e-15
1e-15
1e-15
1e-15
1e-15
1e-15
1e-15
1e-15
1e-15
1e-15
1e-15
1e-15
1e-15
1e-15
1.00000032417e-15
1.00003382894e-15
1.00009570211e-15
1.00014718164e-15
1.00018818404e-15
1.00021687845e-15
1.00023729966e-15
1.00024999173e-15
1.00025776201e-15
1.00025995499e-15
1.00025794271e-15
1.00025041255e-15
1.00023801779e-15
1.00021920761e-15
1.00019292849e-15
1.00015897199e-15
1.00012421712e-15
1.00008704538e-15
1.00004857093e-15
1.00000955587e-15
1.00000185704e-15
1.00000093127e-15
1.00000001733e-15
1e-15
1e-15
1e-15
1e-15
1e-15
1e-15
1e-15
1.00000028857e-15
1.00000226432e-15
1.0000601313e-15
1.0001915756e-15
1.0003412773e-15
1.02338927417e-15
1.02885905563e-15
1.02783828274e-15
1.02894316366e-15
1.02783828274e-15
1.00095697024e-15
1.00006970692e-15
1.01470496346e-15
1e-15
1.0161953006e-15
1e-15
1e-15
1e-15
1e-15
1e-15
1e-15
1.00006922365e-15
1.00020594381e-15
1.00036091764e-15
1.00049068963e-15
1.0005640005e-15
1.00059999143e-15
1.00058376943e-15
1.0005273026e-15
1.00040725022e-15
1.00024758609e-15
1.00008270166e-15
1e-15
1e-15
1e-15
1e-15
1e-15
1e-15
1e-15
1e-15
1e-15
1e-15
1e-15
1e-15
1e-15
1e-15
1e-15
1e-15
1e-15
1e-15
1e-15
1.0000754038e-15
1.00039116284e-15
1.00155915364e-15
1.00157732948e-15
1.00156070179e-15
1.00158395213e-15
1.00156070179e-15
1.00158972171e-15
1.00156070179e-15
1.00158571285e-15
1.00156070179e-15
1.00158153153e-15
1.00156070179e-15
1.00110057016e-15
1.00079335739e-15
1.00078092732e-15
1.00075582436e-15
1.00072834801e-15
1.00068968034e-15
1.00064348498e-15
1.00059720844e-15
1.00056683274e-15
1.00051736576e-15
1.00043500796e-15
1.00032284534e-15
1.00019751983e-15
1.00006582958e-15
1e-15
1e-15
1e-15
1e-15
1e-15
1e-15
1e-15
1e-15
1e-15
1e-15
1e-15
1e-15
1e-15
1e-15
1e-15
1e-15
1e-15
1e-15
1e-15
1e-15
1e-15
1e-15
1e-15
1e-15
1e-15
1e-15
1e-15
1e-15
1e-15
1e-15
1e-15
1e-15
1.00006129498e-15
1.0002254549e-15
1.00035365139e-15
1.00045386271e-15
1.00053419472e-15
1.00059346098e-15
1.00063867529e-15
1.00066964639e-15
1.00069108224e-15
1.00070082899e-15
1.00070193895e-15
1.00069314273e-15
1.00067507745e-15
1.00064531472e-15
1.00060259989e-15
1.00054273126e-15
1.00047893228e-15
1.00040888802e-15
1.00033396328e-15
1.00025401151e-15
1.0001473239e-15
1.00006685941e-15
1.00000119654e-15
1e-15
1e-15
1e-15
1e-15
1e-15
1e-15
1e-15
1.00000733618e-15
1.00015047688e-15
1.00039381967e-15
1.00066197322e-15
1.00095351697e-15
1.02840039944e-15
1.02783828274e-15
1.02892471071e-15
1.02783828274e-15
1.02867056465e-15
1.00244595181e-15
1.00070587835e-15
1.01298708452e-15
1e-15
1.01220663212e-15
1e-15
1e-15
1e-15
1e-15
1e-15
1e-15
1.00004121881e-15
1.00023378095e-15
1.0004847979e-15
1.00070200688e-15
1.00082892816e-15
1.00090017951e-15
1.00088345548e-15
1.00080707804e-15
1.00063182952e-15
1.00040488566e-15
1.0001685445e-15
1.00003102451e-15
1e-15
1e-15
1e-15
1e-15
1e-15
1e-15
1e-15
1e-15
1e-15
1e-15
1e-15
1e-15
1e-15
1e-15
1e-15
1e-15
1.00001365412e-15
1.00010538124e-15
1.00033074948e-15
1.0007463855e-15
1.00156841261e-15
1.00156070179e-15
1.00157451813e-15
1.00156070179e-15
1.0015781406e-15
1.00156070179e-15
1.00158251969e-15
1.00156070179e-15
1.00157390247e-15
1.00156070179e-15
1.00157235109e-15
1.00156070179e-15
1.00128769291e-15
1.00118290986e-15
1.0011264956e-15
1.00106158304e-15
1.00098977777e-15
1.0009385442e-15
1.00083533427e-15
1.0007138398e-15
1.00057864327e-15
1.00044767015e-15
1.00031119808e-15
1.00016002988e-15
1.00001005025e-15
1e-15
1e-15
1e-15
1e-15
1e-15
1e-15
1e-15
1e-15
1e-15
1e-15
1e-15
1e-15
1e-15
1e-15
1e-15
1e-15
1e-15
1e-15
1e-15
1e-15
1e-15
1e-15
1e-15
1e-15
1e-15
1e-15
1e-15
1e-15
1e-15
1e-15
1e-15
1.00001606967e-15
1.00023853879e-15
1.00044720326e-15
1.00062047644e-15
1.000759359e-15
1.00087929236e-15
1.0009757225e-15
1.00105448951e-15
1.00111130084e-15
1.00115307271e-15
1.00117570361e-15
1.00118459373e-15
1.00117762089e-15
1.00115771637e-15
1.001122178e-15
1.0010710478e-15
1.00099342115e-15
1.00090853066e-15
1.00081812897e-15
1.00072099315e-15
1.00061557207e-15
1.00049894164e-15
1.00036752179e-15
1.00024416255e-15
1.00014775039e-15
1.00011175244e-15
1.00009450582e-15
1.00008708826e-15
1.00009028688e-15
1.00010577327e-15
1.00013850822e-15
1.00027023e-15
1.00053942292e-15
1.00086870758e-15
1.00124982277e-15
1.00167577514e-15
1.02783828274e-15
1.02881239772e-15
1.02783828274e-15
1.02888454108e-15
1.02783828274e-15
1.0040972393e-15
1.00153742752e-15
1.01412719393e-15
1e-15
1.01544670425e-15
1e-15
1e-15
1e-15
1e-15
1e-15
1e-15
1.00000254888e-15
1.00031806405e-15
1.00066557682e-15
1.00096284963e-15
1.00114762762e-15
1.00125541137e-15
1.00124272267e-15
1.00115169922e-15
1.00092970952e-15
1.00063372586e-15
1.00029017139e-15
1.00008030027e-15
1e-15
1e-15
1e-15
1e-15
1e-15
1e-15
1e-15
1e-15
1e-15
1e-15
1e-15
1e-15
1e-15
1e-15
1e-15
1e-15
1.00011991981e-15
1.00030616618e-15
1.00060104877e-15
1.00127355498e-15
1.00156070179e-15
1.00156710865e-15
1.00156070179e-15
1.00157042907e-15
1.00156070179e-15
1.0015736619e-15
1.00156070179e-15
1.00157087272e-15
1.00156070179e-15
1.00156723314e-15
1.00156070179e-15
1.00156558232e-15
1.00156070179e-15
1.00138920758e-15
1.00130981369e-15
1.0012338998e-15
1.00110676938e-15
1.00095284028e-15
1.00081343208e-15
1.00066365068e-15
1.00050794763e-15
1.00035755077e-15
1.0001827414e-15
1.00000946586e-15
1e-15
1e-15
1e-15
1e-15
1e-15
1e-15
1e-15
1e-15
1e-15
1e-15
1e-15
1e-15
1e-15
1e-15
1e-15
1e-15
1e-15
1e-15
1e-15
1e-15
1e-15
1e-15
1e-15
1e-15
1e-15
1e-15
1e-15
1e-15
1e-15
1e-15
1e-15
1e-15
1.00008816537e-15
1.00037819376e-15
1.00060367161e-15
1.0008101812e-15
1.00099650723e-15
1.00116714398e-15
1.00130897959e-15
1.001427651e-15
1.00151630794e-15
1.00158384788e-15
1.00162478536e-15
1.00164684651e-15
1.00164529531e-15
1.00162824837e-15
1.00159033957e-15
1.00153459865e-15
1.00144221893e-15
1.00133798171e-15
1.00123405108e-15
1.00112376203e-15
1.0010042869e-15
1.00088173515e-15
1.00074218514e-15
1.00059887331e-15
1.00046170853e-15
1.00037279396e-15
1.0003254981e-15
1.00030551842e-15
1.00031334013e-15
1.00035282778e-15
1.00044196563e-15
1.00066583106e-15
1.00100024669e-15
1.00139145038e-15
1.0018694324e-15
1.00244106848e-15
1.02841274282e-15
1.02783828274e-15
1.02886735736e-15
1.02783828274e-15
1.02861344598e-15
1.00572040512e-15
1.00233593709e-15
1.01298708452e-15
1e-15
1.01220663212e-15
1e-15
1e-15
1e-15
1e-15
1e-15
1e-15
1.00008217962e-15
1.00063145334e-15
1.00105600205e-15
1.00139128966e-15
1.00161488664e-15
1.00175679793e-15
1.00174937731e-15
1.00164409558e-15
1.00137967399e-15
1.00102012627e-15
1.00054656827e-15
1.00017708303e-15
1e-15
1e-15
1e-15
1e-15
1e-15
1e-15
1e-15
1e-15
1e-15
1e-15
1e-15
1e-15
1e-15
1e-15
1e-15
1.00003116351e-15
1.00025619939e-15
1.00049478051e-15
1.00086595284e-15
1.00155892913e-15
1.0015624277e-15
1.00156070179e-15
1.00156468098e-15
1.00156070179e-15
1.00156615979e-15
1.00156070179e-15
1.0015693823e-15
1.00156070179e-15
1.00156350879e-15
1.00156070179e-15
1.00156279103e-15
1.00156070179e-15
1.00156157892e-15
1.00151141848e-15
1.00137032594e-15
1.00122187785e-15
1.00107175634e-15
1.00089611724e-15
1.00070660577e-15
1.00050756e-15
1.00029374751e-15
1.00009854603e-15
1e-15
1e-15
1e-15
1e-15
1e-15
1e-15
1e-15
1e-15
1e-15
1e-15
1e-15
1e-15
1e-15
1e-15
1e-15
1e-15
1e-15
1e-15
1e-15
1e-15
1e-15
1e-15
1e-15
1e-15
1e-15
1e-15
1e-15
1e-15
1e-15
1e-15
1e-15
1e-15
1e-15
1e-15
1.00012145802e-15
1.00039809724e-15
1.00066298052e-15
1.00092400412e-15
1.00117546243e-15
1.00140605869e-15
1.00159674209e-15
1.00175672586e-15
1.00187943813e-15
1.00197498133e-15
1.00203722099e-15
1.00207533383e-15
1.00208259239e-15
1.00207080021e-15
1.00203295023e-15
1.0019755813e-15
1.00187113031e-15
1.0017437762e-15
1.00162264883e-15
1.00149482299e-15
1.00135672071e-15
1.00122206875e-15
1.00108679075e-15
1.00095204352e-15
1.00082094929e-15
1.00071407077e-15
1.00064601039e-15
1.00061719385e-15
1.0006310962e-15
1.00069473704e-15
1.00083229014e-15
1.00108643886e-15
1.00143439304e-15
1.00189063731e-15
1.00247460618e-15
1.00321013403e-15
1.02783828274e-15
1.02876041859e-15
1.02783828274e-15
1.02882302341e-15
1.02783828274e-15
1.00723678865e-15
1.00299384977e-15
1.01370924807e-15
1e-15
1.01469782957e-15
1e-15
1e-15
1e-15
1e-15
1e-15
1e-15
1.00022767548e-15
1.000970105e-15
1.00156265502e-15
1.00199745355e-15
1.00221277152e-15
1.0023734423e-15
1.00237392756e-15
1.00225572136e-15
1.00195551513e-15
1.00154434804e-15
1.00097726359e-15
1.00040174654e-15
1.00001899247e-15
1e-15
1e-15
1e-15
1e-15
1e-15
1e-15
1e-15
1e-15
1e-15
1e-15
1e-15
1e-15
1e-15
1e-15
1.00014473975e-15
1.00037314133e-15
1.00062934489e-15
1.0010585484e-15
1.00156071434e-15
1.00156070179e-15
1.00156146605e-15
1.00156070179e-15
1.00156258603e-15
1.00156070179e-15
1.00156337064e-15
1.00156070179e-15
1.00156307282e-15
1.00156070179e-15
1.00156126925e-15
1.00156070179e-15
1.00156091791e-15
1.00156040299e-15
1.00149635915e-15
1.00133735704e-15
1.00116497937e-15
1.00097159706e-15
1.00076289165e-15
1.00050786778e-15
1.00022599583e-15
1e-15
1e-15
1e-15
1e-15
1e-15
1e-15
1e-15
1e-15
1e-15
1e-15
1e-15
1e-15
1e-15
1e-15
1e-15
1e-15
1e-15
1e-15
1e-15
1e-15
1e-15
1e-15
1e-15
1e-15
1e-15
1e-15
1e-15
1e-15
1e-15
1e-15
1e-15
1e-15
1e-15
1e-15
1e-15
1e-15
1.00011149052e-15
1.00039647017e-15
1.0007098917e-15
1.00104271644e-15
1.00136940382e-15
1.00166057296e-15
1.00189813439e-15
1.00209732524e-15
1.00225335858e-15
1.00237653572e-15
1.00246084404e-15
1.00251579073e-15
1.00253435645e-15
1.0025287583e-15
1.00249364756e-15
1.00243915259e-15
1.00232526445e-15
1.00217050046e-15
1.00202766775e-15
1.00187429691e-15
1.00170662643e-15
1.00154587081e-15
1.0013979989e-15
1.00126282385e-15
1.00113888075e-15
1.00103581678e-15
1.0009642542e-15
1.00093699519e-15
1.0009584657e-15
1.00103808385e-15
1.00120152898e-15
1.00146441345e-15
1.00183450306e-15
1.00238484487e-15
1.00309150313e-15
1.00399047985e-15
1.02841306683e-15
1.02783828274e-15
1.0288098812e-15
1.02783828274e-15
1.02855837125e-15
1.00862261875e-15
1.00352441659e-15
1.01298708452e-15
1e-15
1.01220663212e-15
1e-15
1e-15
1e-15
1e-15
1e-15
1e-15
1.00018285274e-15
1.00095671177e-15
1.00162575833e-15
1.00224026976e-15
1.00266832478e-15
1.00286465598e-15
1.00288877365e-15
1.00276902172e-15
1.00244894409e-15
1.00200845878e-15
1.00142276983e-15
1.00075355536e-15
1.00013553464e-15
1e-15
1e-15
1e-15
1e-15
1e-15
1e-15
1e-15
1e-15
1e-15
1e-15
1e-15
1e-15
1e-15
1e-15
1.00023213665e-15
1.00044117324e-15
1.00073426891e-15
1.00120984071e-15
1.00155844678e-15
1.00155997721e-15
1.00156069684e-15
1.00156093081e-15
1.00156070179e-15
1.00156116883e-15
1.00156070179e-15
1.00156245466e-15
1.00156070179e-15
1.00155982689e-15
1.00155940957e-15
1.00155844195e-15
1.00155668606e-15
1.00155203066e-15
1.00143122327e-15
1.00124463994e-15
1.00104064977e-15
1.00079982448e-15
1.00052991762e-15
1.00019814362e-15
1e-15
1e-15
1e-15
1e-15
1e-15
1e-15
1e-15
1e-15
1e-15
1e-15
1e-15
1e-15
1e-15
1e-15
1e-15
1e-15
1e-15
1e-15
1e-15
1e-15
1e-15
1e-15
1e-15
1e-15
1e-15
1e-15
1e-15
1e-15
1e-15
1e-15
1e-15
1e-15
1e-15
1e-15
1e-15
1e-15
1e-15
1.00010402847e-15
1.00040707504e-15
1.00080648388e-15
1.00124068111e-15
1.00164004158e-15
1.00198360768e-15
1.00226464845e-15
1.00250102239e-15
1.00268953878e-15
1.00283988546e-15
1.00294673312e-15
1.00301910059e-15
1.00305101556e-15
1.00305270878e-15
1.00302332777e-15
1.00297064628e-15
1.00285818869e-15
1.00268276368e-15
1.00251338119e-15
1.00233521855e-15
1.00213601679e-15
1.00193875336e-15
1.00175605862e-15
1.0015941188e-15
1.00145327142e-15
1.00133925783e-15
1.00125914115e-15
1.00123012446e-15
1.00125853814e-15
1.00135302816e-15
1.00154335679e-15
1.00184044567e-15
1.00227894139e-15
1.00294710813e-15
1.00377292995e-15
1.00481187347e-15
1.02783828274e-15
1.02870878952e-15
1.02783828274e-15
1.02876451107e-15
1.02783828274e-15
1.00991116988e-15
1.00393247448e-15
1.01342057744e-15
1e-15
1.01398006437e-15
1e-15
1e-15
1e-15
1e-15
1e-15
1e-15
1e-15
1.00078533104e-15
1.00152657932e-15
1.00219864082e-15
1.00270347722e-15
1.00304662606e-15
1.00313002373e-15
1.00303115458e-15
1.00270969724e-15
1.00226924166e-15
1.001706206e-15
1.00108682516e-15
1.00036632081e-15
1e-15
1e-15
1e-15
1e-15
1e-15
1e-15
1e-15
1e-15
1e-15
1e-15
1e-15
1e-15
1e-15
1e-15
1.0002336882e-15
1.00044630577e-15
1.00082665857e-15
1.00132029393e-15
1.00155192834e-15
1.00155493155e-15
1.00155717297e-15
1.00155840647e-15
1.00155921711e-15
1.00155951782e-15
1.00155964992e-15
1.00156070179e-15
1.00156045403e-15
1.0015515718e-15
1.0015498527e-15
1.0015467737e-15
1.00154112047e-15
1.00148163538e-15
1.00129270539e-15
1.00107088961e-15
1.00081769746e-15
1.00049699488e-15
1.00015663155e-15
1e-15
1e-15
1e-15
1e-15
1e-15
1e-15
1e-15
1e-15
1e-15
1e-15
1e-15
1e-15
1e-15
1e-15
1e-15
1e-15
1e-15
1e-15
1e-15
1e-15
1e-15
1e-15
1e-15
1e-15
1e-15
1e-15
1e-15
1e-15
1e-15
1e-15
1e-15
1e-15
1e-15
1e-15
1e-15
1e-15
1e-15
1e-15
1.00008825665e-15
1.00047257227e-15
1.00102765036e-15
1.00152444892e-15
1.00197900231e-15
1.00236767041e-15
1.00268939809e-15
1.00296451214e-15
1.00318716294e-15
1.0033660272e-15
1.00349678216e-15
1.00358804249e-15
1.00363494202e-15
1.00364591183e-15
1.00362340556e-15
1.00357336158e-15
1.00347189822e-15
1.0032835314e-15
1.00309039783e-15
1.00289776043e-15
1.00268089342e-15
1.00245417784e-15
1.00223016153e-15
1.00202439571e-15
1.00184429927e-15
1.00169802729e-15
1.00159423137e-15
1.00155177937e-15
1.00158527879e-15
1.00169935116e-15
1.00193052528e-15
1.0022950845e-15
1.00283726355e-15
1.00361148816e-15
1.00452686065e-15
1.00567661234e-15
1.0284098427e-15
1.02783828274e-15
1.02875488705e-15
1.02783828274e-15
1.02850849863e-15
1.01109229109e-15
1.00431284346e-15
1.01298708452e-15
1e-15
1.01220663212e-15
1e-15
1e-15
1e-15
1e-15
1e-15
1e-15
1e-15
1.00035796686e-15
1.0012493994e-15
1.00203852974e-15
1.00265393168e-15
1.00306988116e-15
1.00322168969e-15
1.00315546384e-15
1.00283897132e-15
1.00240581958e-15
1.00186526584e-15
1.00131725691e-15
1.00065059876e-15
1.00004166908e-15
1e-15
1e-15
1e-15
1e-15
1e-15
1e-15
1e-15
1e-15
1e-15
1e-15
1e-15
1e-15
1.0000161716e-15
1.00021380827e-15
1.00043801393e-15
1.00091509453e-15
1.00140792208e-15
1.00153893147e-15
1.00154403641e-15
1.00154746797e-15
1.00154987623e-15
1.0015509833e-15
1.00155162593e-15
1.00155162681e-15
1.00155607258e-15
1.00155749425e-15
1.00154711308e-15
1.00152810844e-15
1.00150845096e-15
1.00145389092e-15
1.00127978811e-15
1.0010469412e-15
1.00075415037e-15
1.00040018624e-15
1.00005443263e-15
1e-15
1e-15
1e-15
1e-15
1e-15
1e-15
1e-15
1e-15
1e-15
1e-15
1e-15
1e-15
1e-15
1e-15
1e-15
1e-15
1e-15
1e-15
1e-15
1e-15
1e-15
1e-15
1e-15
1e-15
1e-15
1e-15
1e-15
1e-15
1e-15
1e-15
1e-15
1e-15
1e-15
1e-15
1e-15
1e-15
1e-15
1e-15
1e-15
1.00009912031e-15
1.00062753358e-15
1.0012318266e-15
1.0018381087e-15
1.0023111074e-15
1.0027344263e-15
1.0031136755e-15
1.00343288212e-15
1.00369247446e-15
1.00390386983e-15
1.00406127729e-15
1.00417376224e-15
1.00423699739e-15
1.00425881854e-15
1.00424279139e-15
1.00419545598e-15
1.00410980972e-15
1.00392024185e-15
1.00369369585e-15
1.00350246838e-15
1.00328424297e-15
1.00304848888e-15
1.00280244163e-15
1.00256374706e-15
1.00234539038e-15
1.00216226012e-15
1.00202879741e-15
1.00196674667e-15
1.00200387272e-15
1.00213968369e-15
1.00241706708e-15
1.00285776365e-15
1.00349256304e-15
1.00432820046e-15
1.00530073681e-15
1.00654701594e-15
1.02783828274e-15
1.02865915198e-15
1.02783828274e-15
1.02871106596e-15
1.02783828274e-15
1.01215127099e-15
1.00449733935e-15
1.01323149549e-15
1e-15
1.01332476953e-15
1e-15
1e-15
1e-15
1e-15
1e-15
1e-15
1e-15
1e-15
1.0008683635e-15
1.00182198869e-15
1.00255912806e-15
1.00308674765e-15
1.00330402353e-15
1.00327696314e-15
1.00296388294e-15
1.00252743414e-15
1.00199544851e-15
1.00149170297e-15
1.00091926998e-15
1.00027436533e-15
1e-15
1e-15
1e-15
1e-15
1e-15
1e-15
1e-15
1e-15
1e-15
1e-15
1e-15
1e-15
1.00002161114e-15
1.00016878883e-15
1.00042137797e-15
1.00098973863e-15
1.00142224059e-15
1.00151945665e-15
1.00152470967e-15
1.001528646e-15
1.00153168182e-15
1.00153330316e-15
1.00153420772e-15
1.00153410809e-15
1.00153534859e-15
1.00155021841e-15
1.00152681412e-15
1.00143644786e-15
1.00136122196e-15
1.00120074699e-15
1.00091886582e-15
1.00060156025e-15
1.00021957751e-15
1e-15
1e-15
1e-15
1e-15
1e-15
1e-15
1e-15
1e-15
1e-15
1e-15
1e-15
1e-15
1e-15
1e-15
1e-15
1e-15
1e-15
1e-15
1e-15
1e-15
1e-15
1e-15
1e-15
1e-15
1e-15
1e-15
1e-15
1e-15
1e-15
1e-15
1e-15
1e-15
1e-15
1e-15
1e-15
1e-15
1e-15
1e-15
1e-15
1e-15
1e-15
1.00012884038e-15
1.00072671715e-15
1.00139058927e-15
1.00202188552e-15
1.00255149557e-15
1.00306893775e-15
1.00347772534e-15
1.00384896639e-15
1.00415682665e-15
1.00440277192e-15
1.00458863216e-15
1.00472501378e-15
1.00480589664e-15
1.00483978545e-15
1.00482981567e-15
1.00478576377e-15
1.00471881251e-15
1.0045204007e-15
1.00428374513e-15
1.00406482964e-15
1.00385312688e-15
1.00362235862e-15
1.00337782614e-15
1.00313456669e-15
1.00290347918e-15
1.00270301243e-15
1.00255321087e-15
1.00248017468e-15
1.00252085787e-15
1.00267318351e-15
1.00298304401e-15
1.00347352302e-15
1.00415330503e-15
1.00501322414e-15
1.00603145166e-15
1.00737368062e-15
1.02840292742e-15
1.02783828274e-15
1.02870407353e-15
1.02783828274e-15
1.02846518588e-15
1.01305440947e-15
1.00446431496e-15
1.01298411695e-15
1e-15
1.01220663212e-15
1e-15
1e-15
1e-15
1e-15
1e-15
1e-15
1e-15
1e-15
1.00049022603e-15
1.00164257181e-15
1.00252560364e-15
1.00315010268e-15
1.00345288337e-15
1.0034786857e-15
1.00316687287e-15
1.00270346769e-15
1.00215396407e-15
1.00166751651e-15
1.00116066158e-15
1.00058011217e-15
1e-15
1e-15
1e-15
1e-15
1e-15
1e-15
1e-15
1e-15
1e-15
1e-15
1e-15
1e-15
1e-15
1.00010221337e-15
1.00038427286e-15
1.00097801109e-15
1.00139238058e-15
1.00148720385e-15
1.00149434697e-15
1.00149932372e-15
1.0015012634e-15
1.00150199501e-15
1.00150117501e-15
1.00149935157e-15
1.00149600103e-15
1.00152221043e-15
1.00138927179e-15
1.00117581117e-15
1.00102089556e-15
1.00071312536e-15
1.00031005336e-15
1.00002191027e-15
1e-15
1e-15
1e-15
1e-15
1e-15
1e-15
1e-15
1e-15
1e-15
1e-15
1e-15
1e-15
1e-15
1e-15
1e-15
1e-15
1e-15
1e-15
1e-15
1e-15
1e-15
1e-15
1e-15
1e-15
1e-15
1e-15
1e-15
1e-15
1e-15
1e-15
1e-15
1e-15
1e-15
1e-15
1e-15
1e-15
1e-15
1e-15
1e-15
1e-15
1e-15
1e-15
1.00014731775e-15
1.00080363782e-15
1.00145415887e-15
1.0021228007e-15
1.00273755256e-15
1.00328633966e-15
1.00381440459e-15
1.00423329625e-15
1.0045597464e-15
1.00484766365e-15
1.00506688084e-15
1.00522628725e-15
1.005325169e-15
1.00537232302e-15
1.00536802202e-15
1.00532833834e-15
1.00525735477e-15
1.00511384938e-15
1.0047489808e-15
1.00459530448e-15
1.00435907148e-15
1.00412182746e-15
1.00388489157e-15
1.00365361626e-15
1.00343304875e-15
1.00323990197e-15
1.00309506624e-15
1.00302802543e-15
1.00307349152e-15
1.00323454933e-15
1.00355598936e-15
1.00406006356e-15
1.00474475685e-15
1.00562078046e-15
1.0066900831e-15
1.00812799558e-15
1.02783828274e-15
1.02861292403e-15
1.02783828274e-15
1.02866334942e-15
1.02783828274e-15
1.01380975138e-15
1.00435125694e-15
1.01311114017e-15
1e-15
1.01278043548e-15
1e-15
1e-15
1e-15
1e-15
1e-15
1e-15
1e-15
1e-15
1e-15
1.00146484822e-15
1.00255033414e-15
1.00330130893e-15
1.00371262301e-15
1.00380912132e-15
1.00350617205e-15
1.00298852499e-15
1.00237905231e-15
1.00187740627e-15
1.00139822029e-15
1.00089293429e-15
1.00024442132e-15
1e-15
1e-15
1e-15
1e-15
1e-15
1e-15
1e-15
1e-15
1e-15
1e-15
1e-15
1e-15
1.00000887524e-15
1.00032004509e-15
1.0009215727e-15
1.00130462529e-15
1.00140463992e-15
1.00141347253e-15
1.00141693378e-15
1.00140758682e-15
1.00139926949e-15
1.00138867684e-15
1.0013811282e-15
1.00136070136e-15
1.00132647904e-15
1.00106531793e-15
1.0007368734e-15
1.00038371936e-15
1.00005217204e-15
1e-15
1e-15
1e-15
1e-15
1e-15
1e-15
1e-15
1e-15
1e-15
1e-15
1e-15
1e-15
1e-15
1e-15
1e-15
1e-15
1e-15
1e-15
1e-15
1e-15
1e-15
1e-15
1e-15
1e-15
1e-15
1e-15
1e-15
1e-15
1e-15
1e-15
1e-15
1e-15
1e-15
1e-15
1e-15
1e-15
1e-15
1e-15
1e-15
1e-15
1e-15
1e-15
1e-15
1e-15
1.00016928589e-15
1.00083474991e-15
1.00150462299e-15
1.0022360732e-15
1.00285587106e-15
1.00349787163e-15
1.0040971275e-15
1.00452310243e-15
1.0049572564e-15
1.00526650188e-15
1.00550200409e-15
1.0056917439e-15
1.00581042408e-15
1.00586977217e-15
1.00587192995e-15
1.0058371754e-15
1.00578799041e-15
1.00552379582e-15
1.00549650789e-15
1.00496341544e-15
1.00480224423e-15
1.00456613306e-15
1.00432288563e-15
1.0040999579e-15
1.00389437383e-15
1.0037193227e-15
1.00359140608e-15
1.00354100661e-15
1.00359222176e-15
1.00375845653e-15
1.00407953684e-15
1.00457639593e-15
1.00525284227e-15
1.00615366298e-15
1.00728174797e-15
1.00880840082e-15
1.02839273712e-15
1.02783828274e-15
1.0286582047e-15
1.02783828274e-15
1.02842821542e-15
1.01442419263e-15
1.00415772759e-15
1.01298230481e-15
1e-15
1.01220633599e-15
1e-15
1e-15
1e-15
1e-15
1e-15
1e-15
1e-15
1e-15
1e-15
1.00120810849e-15
1.00252271125e-15
1.00350349534e-15
1.00405009814e-15
1.00424272593e-15
1.00397762053e-15
1.00340749752e-15
1.00269980541e-15
1.00214074169e-15
1.0016574063e-15
1.00118908017e-15
1.00060844538e-15
1e-15
1e-15
1e-15
1e-15
1e-15
1e-15
1e-15
1e-15
1e-15
1e-15
1e-15
1e-15
1e-15
1.00022330197e-15
1.00079520558e-15
1.0011175182e-15
1.00120391582e-15
1.00120711664e-15
1.00119914167e-15
1.0011678634e-15
1.00114191124e-15
1.00111623293e-15
1.00110013073e-15
1.00105518624e-15
1.0009105368e-15
1.00055266762e-15
1.00015648738e-15
1e-15
1e-15
1e-15
1e-15
1e-15
1e-15
1e-15
1e-15
1e-15
1e-15
1e-15
1e-15
1e-15
1e-15
1e-15
1e-15
1e-15
1e-15
1e-15
1e-15
1e-15
1e-15
1e-15
1e-15
1e-15
1e-15
1e-15
1e-15
1e-15
1e-15
1e-15
1e-15
1e-15
1e-15
1e-15
1e-15
1e-15
1e-15
1e-15
1e-15
1e-15
1e-15
1e-15
1e-15
1e-15
1e-15
1.00020145718e-15
1.00085749403e-15
1.00155682661e-15
1.0023448915e-15
1.00302654179e-15
1.0037518552e-15
1.00433215988e-15
1.00482183643e-15
1.00530052735e-15
1.00564878346e-15
1.00595102192e-15
1.00614398503e-15
1.00627600433e-15
1.00635591282e-15
1.00636477109e-15
1.00632974361e-15
1.00618014356e-15
1.00832558007e-15
1.01153886919e-15
1.01037273319e-15
1.005252703e-15
1.00496942146e-15
1.00472805176e-15
1.00450054581e-15
1.00430062732e-15
1.00414046118e-15
1.00402895605e-15
1.0039950885e-15
1.0040515463e-15
1.00422278455e-15
1.00454158478e-15
1.00502739839e-15
1.0057015222e-15
1.00663901702e-15
1.00782821166e-15
1.00943203248e-15
1.02783828274e-15
1.02857058848e-15
1.02783828274e-15
1.0286215418e-15
1.02783828274e-15
1.01493308521e-15
1.00390897711e-15
1.01303936825e-15
1e-15
1.01240105632e-15
1e-15
1e-15
1e-15
1e-15
1e-15
1e-15
1e-15
1e-15
1e-15
1.00080323118e-15
1.002391786e-15
1.00364036948e-15
1.00437698285e-15
1.00470172299e-15
1.00451509405e-15
1.00393805641e-15
1.00313269839e-15
1.00247474326e-15
1.00195497191e-15
1.00148270443e-15
1.00095996063e-15
1.00035400283e-15
1e-15
1e-15
1e-15
1e-15
1e-15
1e-15
1e-15
1e-15
1e-15
1e-15
1e-15
1e-15
1.00002710192e-15
1.00056478513e-15
1.00078800485e-15
1.00083549291e-15
1.00081187577e-15
1.0007781577e-15
1.00070885074e-15
1.00064458024e-15
1.00058626587e-15
1.00055125856e-15
1.00047409106e-15
1.00027039313e-15
1.00006531017e-15
1e-15
1e-15
1e-15
1e-15
1e-15
1e-15
1e-15
1e-15
1e-15
1e-15
1e-15
1e-15
1e-15
1e-15
1e-15
1e-15
1e-15
1e-15
1e-15
1e-15
1e-15
1e-15
1e-15
1e-15
1e-15