/*--------------------------------*- C++ -*----------------------------------*\
| =========                 |                                                 |
| \\      /  F ield         | OpenFOAM: The Open Source CFD Toolbox           |
|  \\    /   O peration     | Version:  2206                                  |
|   \\  /    A nd           | Website:  www.openfoam.com                      |
|    \\/     M anipulation  |                                                 |
\*---------------------------------------------------------------------------*/
FoamFile
{
    version     2.0;
    format      ascii;
    arch        "LSB;label=64;scalar=64";
    class       volScalarField;
    location    "3.9/water";
    object      epsilon.gas;
}
// * * * * * * * * * * * * * * * * * * * * * * * * * * * * * * * * * * * * * //

dimensions      [0 2 -3 0 0 0 0];

internalField   nonuniform List<scalar> 
23300
(
0.00610131245404
0.00621134502734
0.00635661790978
0.00654661125626
0.006780898098
0.00706030089874
0.00738691720756
0.00776378350943
0.00819458933741
0.00868343669053
0.00923461903938
0.00985239735019
0.0105407651644
0.0113031922614
0.0121423567108
0.0130598628085
0.0140559749594
0.0151293678895
0.0162769444526
0.0174937112794
0.018772779078
0.0201054454535
0.0214814315772
0.022889176007
0.0243162600753
0.0257498061626
0.0271769474001
0.0285851637668
0.029962642501
0.0312984329713
0.0325826353397
0.0338063698353
0.0349618386141
0.0360421879125
0.0370415266183
0.0379547616644
0.0387776272552
0.0395065298032
0.0401385967207
0.0406715290699
0.0411036510284
0.0414337479978
0.0416610786832
0.0417851451444
0.0418055617324
0.0417249556057
0.0415458174431
0.0412705955762
0.0409020089179
0.0404430587537
0.0398971341477
0.0392679496928
0.0385596083635
0.0377765331533
0.0369235148136
0.036005647578
0.0350283656121
0.0339973815662
0.0329187118216
0.0317986134918
0.0306435970566
0.0294603579816
0.0282557748618
0.0270368330228
0.0258106073825
0.0245841771909
0.0233645952374
0.0221587947051
0.0209735496787
0.0198153783733
0.0186905037173
0.0176047659674
0.0165636049521
0.0155720130791
0.0146345842842
0.0137555711706
0.0129390853938
0.0121893828814
0.0115114049517
0.0109116116016
0.0103994221526
0.00998951223289
0.00970482678653
0.00957157883691
0.0095739950796
0.00967308954031
0.00984176191434
0.010062903716
0.0103252562512
0.0106207991083
0.0109432823988
0.0112873719505
0.0116481818699
0.0120209864676
0.0124010842943
0.0127837094029
0.0131640223287
0.0135371034107
0.0138980010812
0.0142417629853
0.0145635107061
0.0148584846906
0.0151221254999
0.0153501160631
0.0155384562434
0.015683493054
0.0157819819993
0.0158311015914
0.015828498065
0.0157722798322
0.015661034823
0.0154937860716
0.0152705176214
0.0149917439245
0.0146585779825
0.0142727543162
0.0138366836596
0.0133534769059
0.01282699958
0.0122618962335
0.0116636313917
0.0110384883295
0.0103935548764
0.00973664069688
0.0090761424518
0.00842081598954
0.00777947805411
0.0071606327666
0.00657207108581
0.00602047867017
0.00551111283002
0.00504758763453
0.00463179843706
0.00426399085701
0.0039429682865
0.0036664393314
0.00343155783739
0.00323585186897
0.00307906491609
0.00296705850385
0.00706503731221
0.00713194682143
0.00725124877973
0.00741942406729
0.00763487770017
0.00789746922246
0.00820814631167
0.00856863633195
0.00898118040121
0.00944829154695
0.00997252509451
0.010556246771
0.0112013964621
0.0119092416593
0.0126801309307
0.0135132512129
0.0144064129477
0.0153558751084
0.0163562448192
0.0174004632233
0.018479911547
0.0195846309763
0.0207036718103
0.0218255291083
0.0229386525611
0.0240319509395
0.0250952682262
0.0261197432352
0.0270980580231
0.0280245142148
0.0288949960492
0.0297067927409
0.0304583780146
0.0311491251021
0.0317790590471
0.032348602553
0.0328584010364
0.0333091571611
0.0337015466934
0.0340361322469
0.0343133428003
0.0345334346748
0.0346965052922
0.0348024854445
0.0348511973721
0.0348430389334
0.03477834388
0.0346573016109
0.0344800733353
0.0342468540857
0.0339579464279
0.0336137940287
0.0332150357222
0.0327625296917
0.0322573991819
0.0317010528939
0.0310952243506
0.0304419880593
0.0297437907387
0.0290034601398
0.0282242246033
0.0274097103636
0.0265639454411
0.0256913414941
0.0247966789435
0.0238850709955
0.0229619290258
0.0220329088875
0.0211038584325
0.020180749651
0.0192696149491
0.0183764762085
0.0175072883667
0.0166678938092
0.0158640142288
0.0151012841414
0.0143853558182
0.0137220819595
0.0131177959302
0.0125796639198
0.0121160247109
0.011736401443
0.0114503431367
0.0112632154693
0.0111686881927
0.0111517781178
0.0111971779335
0.0112919596736
0.011425753531
0.0115902256022
0.011778502635
0.0119847107355
0.012203649261
0.0124305705872
0.0126610418341
0.0128908602415
0.0131160104963
0.013332646883
0.013537097191
0.0137258760363
0.0138957080464
0.0140435501974
0.0141666160694
0.0142623927741
0.0143286558375
0.0143634742516
0.014365213045
0.0143325263949
0.0142643497668
0.0141598844587
0.0140185843103
0.0138401372333
0.0136246362005
0.0133724646961
0.0130842865424
0.0127610681503
0.012404115509
0.0120151194997
0.0115962153251
0.011150046669
0.0106798341727
0.0101894327559
0.00968336869503
0.00916683527782
0.00864563394945
0.00812604475062
0.00761462513225
0.00711794417358
0.00664227754131
0.00619329553519
0.00577578168631
0.00539341023513
0.00504859642948
0.00474241084463
0.00447452115278
0.00424308093372
0.00404439831634
0.00387201640572
0.00371436409875
0.00355002355965
0.00801218558416
0.00806077935092
0.00815992226437
0.00830742080008
0.0085021686286
0.00874396433629
0.00903329708835
0.00937114213923
0.00975876074088
0.0101975003367
0.0106885924255
0.0112329460921
0.0118309382159
0.0124822034606
0.0131854322206
0.0139381874495
0.0147367572326
0.0155760609327
0.0164496307451
0.0173496853673
0.0182673109108
0.0191927489912
0.0201157843142
0.0210262007318
0.0219142692968
0.0227712112181
0.0235895900787
0.0243635808871
0.0250890981689
0.0257637677401
0.0263867714834
0.026958586631
0.0274806769389
0.027955163053
0.0283845234162
0.0287713318963
0.0291180615556
0.0294269372243
0.0296998505387
0.0299383089167
0.030143428603
0.0303159436403
0.0304562451988
0.0305644295039
0.0306403739523
0.0306832360356
0.0306922508074
0.0306665350045
0.0306051311218
0.0305070496243
0.0303713195793
0.0301970291488
0.029983371999
0.0297296846083
0.0294354897076
0.0291005317903
0.0287248181446
0.0283086520973
0.0278526701409
0.0273578704859
0.026825643098
0.0262577897675
0.0256565429239
0.0250245729807
0.024364991908
0.0236813442922
0.0229775928454
0.0222580911696
0.021527550159
0.0207909924834
0.0200537015213
0.0193211617772
0.0185989988724
0.0178929204821
0.0172086692428
0.0165519921091
0.0159286351806
0.0153443607521
0.0148049752585
0.0143163279323
0.0138842052822
0.0135139854523
0.0132098385709
0.012973229481
0.0128014715027
0.0126880815286
0.0126248559797
0.012603517401
0.012616402136
0.0126566644412
0.0127182525801
0.0127958026291
0.0128845206508
0.0129800795931
0.0130785397513
0.0131762912868
0.0132700168393
0.0133566690829
0.01343346046
0.0134978597956
0.0135475934843
0.0135806466164
0.0135952630791
0.0135899414555
0.0135634275569
0.0135147018727
0.0134429641848
0.0133476145593
0.0132282338584
0.0130845637621
0.0129164906264
0.0127240341305
0.0125073212395
0.0122666347057
0.0120023959851
0.0117151817339
0.0114057545897
0.0110751067484
0.0107245169687
0.0103556168454
0.0099704624001
0.00957160135399
0.00916212568343
0.00874569479002
0.00832651644447
0.00790927427243
0.00749899880514
0.00710088767385
0.0067200915133
0.00636148845073
0.00602947138111
0.00572776494057
0.00545927553509
0.00522595885504
0.00502866590823
0.00486689581622
0.00473832928585
0.00463789109913
0.00455506849132
0.0044833138565
0.00875995900167
0.00880659436013
0.00890012803336
0.00904014559894
0.00922628516643
0.00945844152339
0.00973678245997
0.0100616762036
0.010433572629
0.0108528583156
0.011319695447
0.0118338515985
0.0123945265165
0.0130001837663
0.0136483968967
0.0143357227419
0.0150576164605
0.0158084042728
0.0165813292934
0.0173686820817
0.0181620217319
0.0189524821742
0.0197311481543
0.0204894700852
0.021219680253
0.0219151631914
0.0225707410943
0.0231828385108
0.0237495155112
0.0242703683669
0.0247463257102
0.0251793680627
0.0255722172488
0.0259280244445
0.0262500938985
0.0265416513031
0.0268056737671
0.0270447706936
0.0272611193127
0.0274564353985
0.0276319802138
0.0277885844527
0.0279266931959
0.0280464161983
0.0281475910373
0.028228931947
0.0282891710048
0.02832694732
0.0283408292762
0.0283293407109
0.0282909963693
0.0282243341484
0.0281279526442
0.0280005442474
0.0278409328893
0.02764810751
0.027421259755
0.0271598172676
0.026863480195
0.0265322525297
0.0261664749927
0.0257668514471
0.0253344747374
0.0248708445195
0.0243778823528
0.0238579374346
0.0233137877961
0.0227486312716
0.0221660706282
0.0215700880781
0.020965013212
0.0203554807884
0.0197463827688
0.0191428130799
0.0185500103977
0.0179732985573
0.0174180273427
0.0168895071239
0.0163929265976
0.0159332275842
0.0155149020203
0.0151416683003
0.0148160057124
0.0145386031106
0.0143080172045
0.0141211727045
0.0139732792333
0.0138589820017
0.0137728536777
0.0137096868698
0.0136646380412
0.0136332783071
0.0136115940473
0.0135959635598
0.0135831264264
0.0135701531844
0.0135544200748
0.0135335890082
0.0135055930116
0.0134686246042
0.0134211261777
0.013361779607
0.0132894948077
0.0132033954233
0.0131028025415
0.0129872156255
0.0128562924567
0.0127098279039
0.0125477338755
0.0123700207567
0.0121767832268
0.0119681912634
0.0117443829964
0.0115055760027
0.0112520615115
0.0109842198059
0.0107025479992
0.0104076993859
0.0101005345513
0.00978218118662
0.00945409924042
0.00911814420888
0.00877662055713
0.00843231464162
0.00808849781328
0.00774889204855
0.00741759640592
0.00709897910518
0.00679754794684
0.00651781674954
0.00626418669656
0.00604085662269
0.00585176669311
0.00570056773398
0.00559059749431
0.00552483840802
0.00550582441769
0.0055353205387
0.00560990127658
0.00573358449687
0.00947182400578
0.00951693890265
0.00960714544252
0.00974231006109
0.00992227633269
0.0101469286806
0.0104161988426
0.0107300214347
0.0110882514457
0.0114905556186
0.0119362871602
0.0124243526362
0.0129530792096
0.0135200917906
0.014122210123
0.0147553776034
0.0154146337002
0.0160941417934
0.0167872819358
0.0174868137761
0.018185108798
0.0188744418057
0.0195473235601
0.0201968458697
0.0208170071681
0.0214029819524
0.0219513063818
0.0224599573685
0.0229283228555
0.0233570688085
0.0237479294495
0.02410344585
0.0244266901757
0.0247209981953
0.024989737548
0.0252361178014
0.0254630537088
0.0256730725518
0.02586826698
0.0260502776622
0.0262203051382
0.0263791352167
0.0265271794144
0.0266645173444
0.0267909459391
0.0269051817341
0.027005739082
0.0270910603692
0.0271595297807
0.0272094901076
0.027239268189
0.0272471991713
0.0272316561752
0.0271910771599
0.0271239962828
0.0270290722245
0.0269051206137
0.0267511432233
0.0265663605665
0.0263502406755
0.0261025300912
0.0258232800219
0.0255128731138
0.0251720441129
0.024801899367
0.0244039289532
0.0239800159745
0.0235324374275
0.0230638607388
0.0225773309209
0.0220762518518
0.0215643571064
0.0210456733196
0.0205244722114
0.0200052139836
0.0194924787194
0.0189908871233
0.0185050052076
0.0180392294596
0.0175976422429
0.0171838307969
0.0168006660639
0.0164500587445
0.0161327401866
0.015848157987
0.0155948337328
0.0153704019124
0.0151715816819
0.0149948179694
0.0148365060644
0.0146931462482
0.0145614378852
0.0144383299855
0.0143210422164
0.0142070689963
0.0140941739103
0.0139803804957
0.0138639611343
0.0137434260532
0.0136175114766
0.0134851674932
0.0133455441438
0.0131979764334
0.0130419672084
0.0128771691846
0.0127033655755
0.012520451041
0.0123284127229
0.0121273133466
0.0119172763848
0.0116984754097
0.0114711276633
0.0112353578343
0.0109913306934
0.0107392580102
0.0104794146446
0.0102121648118
0.00993799781526
0.00965757341905
0.00937177444953
0.00908176418937
0.00878904329742
0.00849550077442
0.00820345179726
0.00791565671209
0.00763531699921
0.00736604883774
0.00711184005658
0.00687700291931
0.00666614028899
0.00648414612466
0.00633626120131
0.00622820227368
0.00616637907165
0.00615821207185
0.00621256811362
0.00634033122498
0.00655499787261
0.00687061563134
0.00730991529943
0.0101559302181
0.0102000956026
0.0102883457202
0.0104205477428
0.0105965157544
0.0108160091358
0.0110787112397
0.0113841828796
0.0117317928577
0.0121206314455
0.0125494137147
0.0130163808067
0.0135192071476
0.0140549226484
0.0146198586306
0.0152096268411
0.0158191397377
0.0164426791441
0.0170740173272
0.0177065904438
0.0183337191389
0.0189488641241
0.0195458993979
0.0201193790645
0.02066477347
0.0211786486518
0.0216587720045
0.022104131473
0.0225148715442
0.0228921539088
0.0232379657364
0.0235548953674
0.0238459038187
0.0241141080115
0.0243625957125
0.0245942753417
0.0248117688181
0.0250173395975
0.0252128569513
0.0253997838322
0.0255791878998
0.0257517628941
0.0259178615075
0.0260775289861
0.0262305420347
0.0263758622763
0.0265119112169
0.0266370582684
0.0267496283889
0.0268479125006
0.0269301860798
0.0269947274064
0.0270398411645
0.0270638799404
0.0270652700559
0.0270425348514
0.0269943219133
0.0269194275101
0.0268168244602
0.0266856867489
0.0265254167273
0.0263356683007
0.026116371518
0.0258677521602
0.0255903513357
0.0252850390036
0.024953026053
0.0245958692702
0.0242154733851
0.0238140848894
0.0233942811949
0.0229589500359
0.0225112619095
0.0220546306721
0.0215926644518
0.0211291024535
0.0206677394494
0.0202123341341
0.0197665030804
0.0193335980779
0.018916571527
0.0185178351983
0.0181391290226
0.017781421786
0.0174448731272
0.0171288768373
0.0168326826133
0.0165548197944
0.016293260684
0.0160458244848
0.0158102954269
0.0155845096527
0.0153664154057
0.0151541108102
0.0149458662208
0.0147401349536
0.014535557107
0.0143309577884
0.01412534226
0.0139178877461
0.0137079334395
0.0134949679866
0.0132786158632
0.0130586220015
0.012834836219
0.0126071969719
0.0123757160913
0.012140464145
0.0119015581477
0.0116591513585
0.0114134268507
0.0111645944668
0.0109127505418
0.0106580084555
0.0104005209493
0.0101404973236
0.00987822895798
0.00961412241132
0.00934874030949
0.0090828481434
0.00881746542623
0.00855391758982
0.0082938853573
0.0080394473694
0.00779311360629
0.00755784877024
0.00733708920123
0.00713476168586
0.00695531928732
0.00680381614466
0.00668605102047
0.0066088176865
0.00658031086276
0.00661075179651
0.00671332308502
0.00690554670983
0.00721130751679
0.00766373772811
0.00830757017994
0.00920739822743
0.0108171434295
0.0108609776418
0.0109485129318
0.0110795361911
0.0112537356904
0.0114706767642
0.0117297668346
0.0120302065731
0.0123709286108
0.0127505281195
0.0131671912038
0.0136186281404
0.0141020183759
0.0146139746444
0.015150532516
0.0157071714296
0.0162788713599
0.0168602077263
0.0174454841634
0.0180288994635
0.0186047413206
0.0191675949559
0.0197125521675
0.0202354026872
0.0207327914627
0.0212023252285
0.0216426196498
0.0220532811898
0.0224348297157
0.0227885694821
0.0231164267953
0.0234207684014
0.0237042211998
0.0239695034105
0.0242192814933
0.0244560538558
0.0246820676224
0.0248992618931
0.0251092389645
0.0253132534448
0.0255122196443
0.0257067267801
0.0258970634754
0.0260832426717
0.0262650317564
0.0264417789286
0.0266118672711
0.0267736429625
0.0269254188515
0.0270654810723
0.0271921032831
0.0273035606772
0.0273981490897
0.0274742022405
0.0275301131345
0.0275643530481
0.0275754942785
0.027562230187
0.0275233985987
0.0274580021103
0.0273652311343
0.0272444832776
0.0270953845932
0.0269178064227
0.0267118830499
0.0264780240965
0.0262169265393
0.0259295805618
0.0256172737164
0.0252815878861
0.0249243929765
0.0245478320218
0.0241543009544
0.0237464179192
0.0233269848275
0.0228989366053
0.0224652809134
0.0220290252752
0.0215930956866
0.0211602465625
0.0207329690888
0.0203134022683
0.0199032575331
0.0195037643977
0.0191156477925
0.0187391384755
0.0183740225808
0.0180205218983
0.0176780404933
0.0173456204175
0.017022201407
0.0167066844817
0.016397982101
0.0160950554405
0.0157969416048
0.0155027714177
0.015211780687
0.0149233150859
0.0146368310017
0.0143518921161
0.0140681636741
0.0137854039865
0.0135034549222
0.013222230868
0.0129417078171
0.0126619120596
0.0123829100767
0.0121047991517
0.0118277002675
0.0115517528581
0.0112771128629
0.0110039534766
0.0107323358304
0.0104623171829
0.0101939953534
0.00992752703603
0.00966315298017
0.00940122927438
0.00914226501921
0.00888696499707
0.0086362765792
0.00839143864271
0.00815403110039
0.00792602330171
0.00770982168527
0.00750831901365
0.00732495206987
0.00716377993057
0.00702960292792
0.00692815240966
0.0068663958981
0.00685302317292
0.00689921169941
0.00701982315305
0.00723527259502
0.00757446750279
0.0080794858602
0.00881307751934
0.00986960781909
0.0113935789083
0.0114608124511
0.0115049440845
0.0115930059541
0.0117246652637
0.0118994351988
0.0121166437823
0.0123753959588
0.012674527549
0.0130125538047
0.0133876172172
0.0137974403213
0.0142392896387
0.01470995624
0.0152057578808
0.0157225660617
0.0162558604285
0.0168008107615
0.0173523853449
0.0179054821243
0.0184550769794
0.0189963814477
0.019524999933
0.0200370760263
0.0205294160546
0.0209995806806
0.0214459355267
0.0218676581444
0.0222646996751
0.0226377078734
0.0229879174256
0.0233170210314
0.023627029938
0.0239201381081
0.0241985955491
0.0244646009256
0.0247202130587
0.0249672865291
0.0252074260178
0.0254419615904
0.0256719370105
0.0258981124411
0.0261209728675
0.0263407439139
0.026557406523
0.0267707130096
0.0269804196149
0.0271849788295
0.0273827276403
0.0275719720858
0.0277509982168
0.0279180845296
0.0280715125665
0.0282095822368
0.0283306254281
0.0284330237549
0.0285152239285
0.0285757567831
0.0286132535279
0.0286264652836
0.028614279486
0.0285757391028
0.0285100582742
0.0284166401403
0.0282950905496
0.0281452331773
0.0279671198988
0.02776104166
0.027527533901
0.0272673814209
0.0269816169805
0.0266715180896
0.026338596521
0.0259845844952
0.0256114123979
0.0252211815956
0.0248161278732
0.0243985792148
0.0239709048783
0.023535460555
0.0230945288355
0.0226502613521
0.022204623755
0.0217593501304
0.0213159076079
0.0208754755062
0.0204389383313
0.0200068926807
0.0195796756977
0.0191585118075
0.018743627249
0.0183349788507
0.0179324343893
0.0175358058478
0.0171448762501
0.0167594224753
0.0163792327638
0.0160041201301
0.0156339305847
0.0152685480429
0.0149078953063
0.014551933095
0.0142006565414
0.0138540909725
0.013512286342
0.0131753119708
0.0128432509354
0.0125161956465
0.0121942440055
0.0118774976193
0.0115660615292
0.0112600467781
0.0109595750814
0.0106646729947
0.0103753344113
0.0100915983236
0.00981356814062
0.00954143673452
0.0092755164881
0.00901627474846
0.0087643737338
0.00852071482534
0.00828648617617
0.00806321377899
0.00785281630111
0.00765766649732
0.00748066443328
0.00732533282065
0.00719595103671
0.00709775448637
0.00703724033557
0.00702264380164
0.00706468678593
0.00717776517671
0.00738185443438
0.00770561745002
0.00819157712919
0.00890493455562
0.00994896126496
0.0114915863742
0.0138111774052
0.0120928711568
0.0121379530653
0.0122278327729
0.0123620310152
0.0125398516033
0.0127603506269
0.0130223020965
0.0133241596145
0.0136640181665
0.0140395811985
0.0144481389474
0.014886563061
0.0153513211398
0.0158385134132
0.0163439315989
0.0168631387185
0.0173915666525
0.0179246272602
0.0184578315323
0.0189869106122
0.019507932215
0.0200174055976
0.0205123693581
0.0209904561609
0.0214499313381
0.0218897021569
0.0223092990435
0.0227088292724
0.0230889090568
0.0234505775254
0.0237952014808
0.0241243749806
0.0244398228133
0.0247433098612
0.0250365634686
0.0253212074922
0.0255987127188
0.0258703593697
0.0261372147461
0.0264001199336
0.0266596880906
0.0269163075134
0.027170152397
0.0274211948323
0.027669223242
0.0279138645185
0.0281543056823
0.0283887820263
0.0286155485976
0.0288328664683
0.02903900214
0.0292322306434
0.0294108459137
0.0295731706316
0.0297175706888
0.0298424674161
0.0299463535078
0.0300278060731
0.0300855029682
0.030118235881
0.0301249263237
0.0301046380234
0.030056591774
0.0299801763065
0.0298749610822
0.0297407046872
0.0295773645085
0.0293851015426
0.0291642857235
0.0289154958452
0.0286395191098
0.0283373446665
0.0280101558037
0.0276593155656
0.0272863501937
0.0268929258223
0.0264808228769
0.0260519046759
0.0256080851352
0.0251512933882
0.0246834405248
0.0242063868031
0.0237219135661
0.0232316973248
0.0227372887501
0.0222400938571
0.0217413616522
0.0212421741644
0.0207434568814
0.0202473228329
0.019754802507
0.0192666275229
0.0187834329347
0.0183057684463
0.0178341115958
0.0173688799914
0.0169104432569
0.0164591316566
0.0160152431283
0.0155790475147
0.0151507897981
0.0147306913796
0.0143189511401
0.0139157453955
0.013521228338
0.0131355321157
0.0127587680299
0.0123910281043
0.0120323884494
0.0116829137913
0.0113426644412
0.0110117048972
0.0106900353974
0.0103775788613
0.0100743081837
0.00978026635159
0.0094955914379
0.00922054581608
0.00895555012551
0.00870122140475
0.00845841590852
0.00822827648712
0.00801228591985
0.00781232817699
0.0076307624572
0.00747051780365
0.00733522190376
0.00722938533546
0.00715867524368
0.00713033199942
0.00715381569888
0.00724182688055
0.00741195006028
0.00768936264674
0.00811142446313
0.00873570150482
0.00965448883438
0.0110220500267
0.0131067588173
0.0163899426074
0.0127196558182
0.0127663761079
0.0128594360555
0.0129981860237
0.0131816885347
0.0134086919163
0.0136776041628
0.013986466539
0.0143329322408
0.0147142558474
0.0151272993316
0.0155685582672
0.0160342096805
0.0165201804814
0.0170222331304
0.0175360638296
0.0180574071282
0.0185821407813
0.0191063846237
0.0196265881355
0.020139602585
0.0206427347782
0.0211337814923
0.0216110441024
0.0220733253023
0.0225199088828
0.0229505261524
0.0233653101823
0.0237647422173
0.0241495909934
0.0245208497391
0.0248796709985
0.0252273043437
0.025565036295
0.0258941374262
0.0262158147494
0.0265311738504
0.0268411874187
0.0271466740446
0.0274482826241
0.0277464858442
0.0280415770751
0.0283336739714
0.0286227224572
0.0289085048104
0.0291906463636
0.0294690151387
0.0297417726067
0.0300071183816
0.0302632714445
0.0305084652226
0.0307409466069
0.0309589827449
0.0311608676903
0.0313449340509
0.0315095624945
0.0316531950909
0.0317743456884
0.0318716136625
0.0319436943007
0.0319893922578
0.0320076313574
0.0319974671578
0.0319580956116
0.0318888641472
0.0317892786072
0.0316590122058
0.0314979100977
0.0313059954791
0.0310834710294
0.0308307213203
0.0305483102992
0.0302369791779
0.0298976392502
0.0295313647383
0.0291393807648
0.0287230514274
0.0282838637869
0.0278234126508
0.0273433825564
0.0268455313655
0.0263316717975
0.0258036540953
0.0252633456077
0.0247126097062
0.0241532808494
0.0235871394314
0.0230158870054
0.0224411233853
0.0218643423885
0.0212882983939
0.0207148800038
0.0201454632367
0.019581303675
0.0190235311921
0.0184731582137
0.0179310875197
0.0173981190032
0.0168749566727
0.016362214547
0.0158604228763
0.015370033213
0.0148914239315
0.014424904987
0.0139707234312
0.0135290686143
0.0131000784989
0.0126838461759
0.012280427963
0.0118898523607
0.0115121311532
0.0111472718892
0.0107952646029
0.0104559545446
0.0101292405684
0.00981509558591
0.00951359152356
0.00922492805931
0.00894946568963
0.00868776281037
0.00844061780533
0.00820911678653
0.0079946893811
0.00779917587118
0.00762491220258
0.00747484286198
0.00735267823932
0.00726312227373
0.00721221178284
0.00720783403045
0.00726053336244
0.00738479721446
0.00760116141156
0.00793976587108
0.00844658098903
0.0091947642508
0.0103063206374
0.0119953852191
0.0146580593619
0.0190595262044
0.0133477433373
0.013396830505
0.0134945126408
0.0136399441742
0.0138319109893
0.0140688117013
0.0143486434184
0.0146689912861
0.0150270280497
0.01541952944
0.0158429108833
0.0162932871299
0.0167665534349
0.0172584836804
0.0177648385288
0.0182814756977
0.0188044540623
0.0193301244506
0.0198552013943
0.0203768125196
0.0208925247261
0.0214003485118
0.0218987241947
0.0223864942489
0.0228628674516
0.0233273785842
0.0237798482449
0.0242203435863
0.0246491422164
0.0250666972134
0.0254736043993
0.0258705687773
0.0262583720643
0.0266378386302
0.0270098032915
0.0273750787135
0.027734426862
0.028088531939
0.0284379794225
0.0287832376855
0.0291246464902
0.0294624075386
0.0297965806981
0.0301270793488
0.0304536669779
0.0307759451814
0.0310944582513
0.0314073788228
0.0317128498449
0.0320090245644
0.0322940748888
0.0325661911331
0.0328235863421
0.0330644999801
0.0332872069487
0.033490024603
0.0336713238767
0.0338295374076
0.0339631712413
0.0340708130993
0.0341511439718
0.0342029460296
0.0342251136635
0.0342166606854
0.0341767304647
0.0341046021295
0.0339996994882
0.0338615959473
0.0336900218841
0.0334848679519
0.0332461905229
0.0329742130264
0.0326693291144
0.0323321017925
0.0319632641836
0.0315637165203
0.0311345247455
0.030676915749
0.030192274169
0.0296821359679
0.0291481828752
0.028592232661
0.0280162282242
0.0274222203443
0.0268123468421
0.0261888043633
0.0255538171542
0.0249096013218
0.0242583320852
0.0236021104301
0.0229429511799
0.0222838685401
0.0216277638301
0.0209765340641
0.0203319058863
0.0196954454635
0.0190685640122
0.018452517921
0.017848413077
0.0172572107518
0.0166797352669
0.016116681485
0.0155686235273
0.0150360231723
0.0145192394
0.0140185377821
0.0135341010979
0.0130660400801
0.0126144056038
0.012179201434
0.0117603987873
0.0113579519988
0.0109718630248
0.0106018968999
0.0102478722084
0.00990968195422
0.00958731898403
0.00928090485189
0.00899072259513
0.00871725333764
0.00846121814131
0.00822362638356
0.00800583386032
0.00780961497066
0.00763725683567
0.0074916871688
0.00737665513348
0.0072969951127
0.00725902179022
0.00727113568592
0.00734477367284
0.00749594119774
0.00774776099941
0.00813487241887
0.00871135830714
0.00956574143931
0.0108509261986
0.012847485486
0.0161044637375
0.0217580706899
0.0139839108031
0.0140361374534
0.0141399694071
0.0142943357142
0.0144977040586
0.0147480723528
0.0150429701648
0.0153794682537
0.0157542033033
0.016163423677
0.0166030606032
0.0170688238043
0.0175563168778
0.0180611636445
0.0185791350074
0.019106265558
0.0196389502228
0.020174013921
0.0207087501597
0.0212409283057
0.0217687726584
0.022290919251
0.0228063585235
0.0233143720477
0.0238144717389
0.0243063469155
0.0247898237223
0.0252648366251
0.0257314118263
0.0261896578254
0.0266397610761
0.027081980964
0.0275166435649
0.0279441299802
0.028364861616
0.0287792799864
0.0291878255889
0.0295909139822
0.0299889144081
0.0303821284165
0.0307707736646
0.0311549690382
0.0315347257012
0.0319099388564
0.0322803846491
0.0326457170458
0.0330061989873
0.033361122742
0.0337084165369
0.0340460884876
0.0343721992784
0.0346848447076
0.034982150989
0.0352622730771
0.0355234002434
0.0357637604128
0.0359816292095
0.0361753361271
0.0363432746178
0.0364839087522
0.0365957835523
0.03667753167
0.0367278836171
0.0367456742484
0.0367298527117
0.0366794886442
0.0365937817531
0.036472067686
0.0363138271675
0.0361186914866
0.0358864510789
0.0356170605373
0.0353106465153
0.0349675121793
0.0345881443545
0.0341732173676
0.0337235993132
0.0332403549942
0.0327247506194
0.0321782545078
0.0316025379399
0.0309994702094
0.030371111111
0.0297196951608
0.0290476108427
0.0283573707201
0.0276515770606
0.0269328812457
0.0262039427913
0.0254673894718
0.0247257824541
0.0239815988929
0.0232376212472
0.0224980775057
0.0217651657148
0.0210409661773
0.0203273779144
0.0196261036048
0.0189386495867
0.0182663309943
0.0176102796156
0.0169714522703
0.0163506413034
0.0157484852686
0.0151654812707
0.0146019974215
0.0140582867765
0.0135345014682
0.0130307082779
0.0125469044846
0.0120830348951
0.0116390084647
0.0112148389476
0.0108102423888
0.0104249524573
0.0100587720694
0.00971160128854
0.00938346714565
0.00907455659713
0.00878525302111
0.00851617812036
0.00826824103309
0.0080426984805
0.00784123111223
0.00766604494723
0.00752001118766
0.00740686583777
0.00733150264113
0.00730041402289
0.00732237075624
0.00740949716627
0.00757902322936
0.00785624202143
0.00827971351939
0.00891087611204
0.00985281395061
0.0112892557776
0.0135712125382
0.0174218862003
0.0244353460602
0.0146352331455
0.0146914209999
0.0148030254544
0.0149687154419
0.0151865906577
0.0154541863586
0.0157684941118
0.0161259958243
0.0165227187647
0.0169543167322
0.0174161805698
0.0179035734633
0.018411782135
0.0189362706188
0.0194728224539
0.0200176581013
0.0205675173688
0.0211197010339
0.0216720704536
0.0222230089231
0.0227713524815
0.0233163007733
0.0238573201395
0.0243940503331
0.024926225092
0.025453612568
0.0259759792937
0.0264930757528
0.0270046408387
0.0275104177939
0.0280101767536
0.0285037358605
0.0289909784401
0.0294718608876
0.0299464128802
0.0304147274521
0.0308769456963
0.0313332348597
0.0317837658847
0.0322286887209
0.0326681114123
0.0331020799219
0.0335305640722
0.0339534450175
0.0343705095036
0.0347814472773
0.0351858604104
0.0355846538437
0.035975514966
0.036356272035
0.0367248380179
0.0370791790256
0.0374173014298
0.0377372447661
0.0380370836692
0.0383149294566
0.0385689372008
0.038797310168
0.0389983086304
0.0391702553297
0.0393115450422
0.0394206505706
0.0394961327686
0.0395366469348
0.039540953223
0.039507923462
0.0394365519819
0.0393259629441
0.0391754216282
0.0389843423275
0.0387523000795
0.0384790390919
0.038164484797
0.0378087526539
0.0374121602642
0.0369752361754
0.0364987314376
0.0359836274377
0.035431145352
0.0348427507048
0.0342201574664
0.0335653251147
0.0328804523964
0.0321679617064
0.0314304780284
0.0306707979062
0.0298918535672
0.029096669665
0.0282883189473
0.0274698754595
0.0266443727355
0.0258147644941
0.0249838933354
0.0241543301964
0.0233310934715
0.0225168625273
0.0217140286042
0.0209247345384
0.0201508826035
0.0193941492594
0.0186559890717
0.0179376422009
0.0172401450788
0.0165643418028
0.0159108980182
0.0152803152955
0.0146729473628
0.0140890168044
0.013528633608
0.0129918145548
0.0124785050405
0.0119886032305
0.0115219899033
0.0110785203862
0.0106578190072
0.010259581799
0.00988360074085
0.00952979199915
0.00919822821941
0.00888917479255
0.00860313191442
0.00834088446412
0.00810356394114
0.00789272820362
0.00771046869972
0.00755955961375
0.00744367215051
0.00736769049081
0.00733818955099