/*--------------------------------*- C++ -*----------------------------------*\
| =========                 |                                                 |
| \\      /  F ield         | OpenFOAM: The Open Source CFD Toolbox           |
|  \\    /   O peration     | Version:  2206                                  |
|   \\  /    A nd           | Website:  www.openfoam.com                      |
|    \\/     M anipulation  |                                                 |
\*---------------------------------------------------------------------------*/
FoamFile
{
    version     2.0;
    format      ascii;
    arch        "LSB;label=64;scalar=64";
    class       volScalarField;
    location    "3.9/water";
    object      k.gas;
}
// * * * * * * * * * * * * * * * * * * * * * * * * * * * * * * * * * * * * * //

dimensions      [0 2 -2 0 0 0 0];

internalField   nonuniform List<scalar> 
23300
(
0.013557185447
0.013560248394
0.0135661119831
0.0135746403279
0.0135856959632
0.0135991367645
0.0136148019586
0.0136325013944
0.0136520080206
0.0136730532337
0.0136953247942
0.0137184681116
0.0137420914079
0.0137657761246
0.0137890932137
0.0138116263236
0.0138330016943
0.0138529241394
0.013871217019
0.0138878627635
0.0139030395891
0.0139171482727
0.0139308241282
0.0139449279957
0.0139605152119
0.0139787806061
0.0140009865384
0.0140283779927
0.0140620989928
0.0141031157039
0.0141521609378
0.0142096988949
0.0142759190328
0.0143507482138
0.0144338848121
0.0145248382517
0.0146229777785
0.0147275739226
0.0148378403504
0.014952961938
0.0150721206047
0.0151945064028
0.0153193271549
0.0154458040439
0.015573165422
0.015700756749
0.0158279273117
0.0159540336203
0.0160784497551
0.0162005656571
0.01631978876
0.0164355391964
0.016547250669
0.0166543666354
0.0167563424642
0.0168526436598
0.0169427497983
0.0170261549905
0.0171023735874
0.0171709427339
0.0172314295769
0.0172834355275
0.0173266044795
0.0173606281529
0.0173852545574
0.017400293466
0.0174056239925
0.0174011988469
0.0173870495232
0.0173632877226
0.0173301066239
0.0172877781752
0.0172366496468
0.0171771365638
0.0171097149627
0.0170349107885
0.0169532888323
0.0168654392024
0.0167719627691
0.0166734529944
0.0165704732863
0.0164635223274
0.016352967839
0.0162388613988
0.0161204868305
0.015996782196
0.0158670452033
0.0157308574205
0.0155879836785
0.0154383126166
0.0152818248091
0.0151185748184
0.0149486810255
0.0147723184711
0.0145897138795
0.0144011408143
0.0142069156369
0.0140073927959
0.0138029605294
0.0135940355732
0.0133810582303
0.0131644864696
0.012944790728
0.0127224481305
0.0124979380036
0.0122717372849
0.0120443177186
0.011816143214
0.0115876691719
0.0113593419344
0.0111316000617
0.0109048756991
0.0106796327283
0.0104563394437
0.0102354762066
0.0100175420056
0.00980306152465
0.00959259073331
0.00938672187117
0.00918608554012
0.00899135021698
0.00880321693035
0.00862240931364
0.00844965759709
0.00828567765496
0.00813114561795
0.00798667096027
0.00785277070682
0.00772984861573
0.00761818205563
0.00751791860486
0.00742908226266
0.00735158739921
0.00728525657045
0.00722983700321
0.00718501006961
0.00715038895273
0.0071255029991
0.00710977369849
0.00710251173013
0.0135580475436
0.0135609542276
0.0135666907126
0.013575161064
0.0135862439231
0.0135997885792
0.0136156081473
0.0136334722301
0.013653100104
0.0136741554104
0.0136962429913
0.0137189091329
0.0137416463151
0.0137639040952
0.0137851072409
0.0138046823021
0.0138220926698
0.0138368814881
0.0138487200807
0.0138574581815
0.0138631707252
0.0138661946769
0.013867149551
0.0138669353625
0.0138667051187
0.0138678107524
0.0138717275394
0.0138799632664
0.0138939643296
0.0139150278803
0.0139442321973
0.0139823891087
0.0140300238716
0.014087377448
0.014154430041
0.0142309355802
0.0143164647543
0.0144104465802
0.0145122089466
0.0146210109232
0.014736070625
0.0148565837438
0.0149817386161
0.0151107243428
0.0152427396172
0.0153769181609
0.0155124164329
0.0156484145493
0.0157841141137
0.0159187345854
0.0160515124651
0.0161816986597
0.0163085587493
0.0164313718389
0.0165494324292
0.0166620511534
0.0167685584758
0.0168683073944
0.0169606789081
0.0170450865156
0.0171209831575
0.0171878671067
0.0172452898541
0.0172928627292
0.0173302649144
0.0173572498159
0.0173736520405
0.0173793921605
0.0173744811316
0.0173590218278
0.0173332093063
0.0172973277109
0.0172517453791
0.0171969066213
0.0171333217066
0.0170615538425
0.0169822042038
0.0168958933317
0.0168032384887
0.016704823465
0.0166011574648
0.0164926168337
0.0163793665948
0.016261271107
0.0161379931896
0.0160089658212
0.0158736924864
0.0157318080399
0.0155830729748
0.015427355634
0.0152646164983
0.0150948963144
0.0149183078414
0.0147350294853
0.0145453004398
0.0143494161259
0.0141477240898
0.0139406194513
0.013728540304
0.0135119622944
0.0132913930134
0.0130673656119
0.0128404325299
0.0126111588821
0.0123801165137
0.0121478782341
0.0119150132034
0.0116820828492
0.0114496382042
0.0112182179671
0.0109883482064
0.0107605429647
0.0105353162162
0.0103131747386
0.0100946192693
0.0098801475274
0.00967025760621
0.00946545069028
0.00926623327222
0.00907311775053
0.00888662141336
0.00870726282219
0.00853555574459
0.00837200024459
0.00821707173409
0.00807120864779
0.00793480040479
0.0078081771223
0.00769160281521
0.00758527308405
0.00748931772068
0.00740380760654
0.00732876437199
0.00726417025393
0.00720997454135
0.00716609200839
0.0071323877247
0.00710864103878
0.00709447603665
0.00708922414498
0.0135773862428
0.0135804168579
0.0135864618418
0.0135954498904
0.0136072670103
0.0136217549573
0.0136387061479
0.0136578575685
0.0136788847829
0.0137013974676
0.013724937275
0.0137489798038
0.01377294176
0.0137961952173
0.0138180897813
0.0138379837493
0.0138552836766
0.0138694913371
0.0138802549581
0.0138874207238
0.0138910787741
0.0138915974588
0.0138896395631
0.0138861553295
0.0138823498857
0.0138796254381
0.0138795033943
0.0138835336723
0.0138932023265
0.0139098468445
0.0139345892937
0.0139682914124
0.0140115351161
0.0140646245827
0.014127607427
0.0142003067991
0.014282360833
0.0143732618393
0.0144723941545
0.0145790656648
0.0146925348343
0.0148120303825
0.0149367672512
0.0150659571374
0.0151988181796
0.0153344381956
0.0154719134839
0.0156103713925
0.0157489650543
0.0158868684253
0.0160232740799
0.0161573905937
0.0162884422996
0.0164156685532
0.0165383253096
0.016655686263
0.0167670462386
0.016871724165
0.0169690681608
0.0170584601458
0.0171393223279
0.0172111230661
0.0172733842547
0.0173256878201
0.0173676832411
0.0173990937744
0.0174197230315
0.0174294596841
0.0174282816743
0.017416257852
0.0173935482227
0.0173604009934
0.0173171475496
0.0172641939227
0.0172020098428
0.0171311141522
0.0170520573097
0.0169653994897
0.0168716842272
0.0167714058037
0.0166649707108
0.0165526546247
0.0164345632445
0.016310613532
0.0161806680316
0.0160445088697
0.0159018536184
0.0157524746687
0.0155962172342
0.0154330040033
0.0152628341465
0.0150857798425
0.014901982354
0.0147116477794
0.0145150430671
0.0143124917777
0.0141043699291
0.0138911012896
0.0136731524738
0.0134510272741
0.0132252607614
0.0129964127579
0.0127650614145
0.0125317965995
0.0122972138969
0.0120619088878
0.0118264724495
0.0115914866434
0.011357521842
0.011125134595
0.0108948668429
0.0106672459691
0.0104427847128
0.010221983828
0.0100053317572
0.0097933060992
0.00958637539092
0.00938500040026
0.00918963500626
0.00900072588555
0.0088187110434
0.00864401659624
0.00847705205156
0.0083182040185
0.00816782915141
0.0080262470611
0.00789373460556
0.00777052278797
0.0076567975642
0.00755270522301
0.0074583624332
0.00737387019823
0.00729933021102
0.00723486126745
0.00718061226366
0.00713676658781
0.00710352975435
0.00708108685298
0.00706950424911
0.00706854047876
0.0136075009105
0.0136109808389
0.0136179190339
0.0136282434975
0.0136418287156
0.0136584937009
0.0136779976751
0.0137000348694
0.0137242296244
0.0137501335369
0.0137772256454
0.0138049175985
0.0138325648505
0.0138594855857
0.0138849877113
0.0139084044142
0.0139291369074
0.0139467026282
0.0139607851054
0.0139712812058
0.0139783400559
0.0139823881088
0.0139841351721
0.0139845578788
0.0139848597653
0.0139864099012
0.0139906658693
0.0139990885537
0.0140130586678
0.0140338030914
0.0140623389239
0.0140994380495
0.0141456140208
0.014201127481
0.0142660072652
0.0143400803182
0.0144230071048
0.0145143164796
0.0146134389351
0.0147197344502
0.0148325162539
0.0149510684139
0.0150746599611
0.0152025541969
0.0153340164497
0.0154681915185
0.0156041850808
0.0157411341229
0.0158782018422
0.0160145727585
0.0161494502661
0.0162820541359
0.0164116201726
0.0165373996391
0.0166586607113
0.0167746896436
0.0168847938816
0.016988304836
0.0170845824799
0.0171730195158
0.0172530471692
0.0173241403931
0.0173858244065
0.0174376804
0.0174793521619
0.0175105515133
0.0175310641047
0.0175407535197
0.0175395650221
0.0175275269769
0.0175047510959
0.0174714297062
0.0174278310889
0.0173742913496
0.0173112038134
0.0172390046573
0.0171581556586
0.0170691229858
0.0169723530099
0.0168682450097
0.016757123555
0.0166392141319
0.0165146295444
0.0163833740024
0.0162453829125
0.0161007423758
0.0159493637391
0.0157911791428
0.0156261597897
0.0154543268868
0.0152757574183
0.0150905862013
0.0148990058968
0.014701265341
0.0144976671582
0.0142885644498
0.0140743571276
0.0138554874387
0.0136324351659
0.013405712066
0.0131758561399
0.0129434254081
0.012708991901
0.0124731355841
0.0122364389333
0.0119994818291
0.0117628374095
0.0115270684623
0.0112927249108
0.0110603419021
0.0108304389729
0.010603519728
0.0103800675654
0.0101605524351
0.0099454307999
0.0097351466901
0.00953013298284
0.00933081220513
0.00913759691911
0.00895088901736
0.00877107797611
0.00859853759436
0.00843362149927
0.00827665747404
0.00812794146524
0.00798773213596
0.00785624748282
0.00773366494619
0.00762012655495
0.00751575011616
0.00742064695077
0.00733494591096
0.00725882276385
0.00719253334454
0.00713644781747
0.00709108135606
0.0070571124013
0.00703537238399
0.00702677596003
0.00703212581726
0.0136534552162
0.0136576441197
0.0136659838436
0.0136783825783
0.0136946867084
0.0137146768935
0.0137380637923
0.0137644838909
0.0137934963163
0.013824582442
0.013857149483
0.013890540011
0.0139240482206
0.0139569442291
0.0139885060748
0.0140180590998
0.0140450204711
0.0140689463559
0.0140895774736
0.0141068787095
0.0141210675782
0.0141326271487
0.0141422998216
0.01415106039
0.0141600693048
0.0141706095347
0.0141840132525
0.0142015854822
0.0142245330951
0.0142539053989
0.014290551851
0.0143350980797
0.0143879405674
0.0144492561069
0.0145190231587
0.0145970493646
0.014683002524
0.0147764403296
0.0148768381803
0.0149836122142
0.0150961387693
0.01521376866
0.0153358385003
0.01546167794
0.015590615485
0.0157219071863
0.0158547001219
0.0159881702737
0.0161215181199
0.0162539642783
0.0163847473139
0.0165131215907
0.0166383570953
0.0167597390863
0.0168765695607
0.0169881684214
0.0170938763562
0.0171930573243
0.0172851026327
0.0173694345088
0.0174455110917
0.0175128307675
0.0175709376834
0.0176194263932
0.0176579473526
0.0176862112527
0.0177039937597
0.0177111386932
0.0177075610364
0.0176932478749
0.0176682584859
0.0176327217972
0.0175868323148
0.0175308429464
0.0174650557782
0.0173898095377
0.0173054648901
0.0172123868386
0.0171109259135
0.0170013986967
0.0168840709231
0.0167591457641
0.0166267614715
0.016486999237
0.0163398994113
0.0161856048486
0.0160243278595
0.0158561565455
0.0156812028641
0.0154996101669
0.0153115590794
0.0151172709229
0.0149170095172
0.0147110812309
0.0144998340584
0.0142836554483
0.0140629695122
0.0138382332257
0.0136099322219
0.013378575818
0.0131446919448
0.012908821678
0.0126715140761
0.0124333210195
0.0121947927153
0.0119564734972
0.0117188985081
0.0114825908229
0.011248059519
0.011015798198
0.0107862843804
0.0105599792132
0.0103373214857
0.0101187368254
0.00990463841468
0.00969542812585
0.00949149778353
0.00929322990565
0.00910099796047
0.00891516550691
0.00873608424411
0.00856409053618
0.00839950068775
0.00824260508577
0.00809366211312
0.00795289283304
0.00782047814205
0.00769656013711
0.00758124969229
0.00747464192579
0.00737684097028
0.00728799503376
0.00720834258327
0.0071382706405
0.00707838652755
0.0070296045012
0.00699324741763
0.00697115937949
0.00696581226196
0.006980334022
0.0137171244136
0.0137222731102
0.0137325101203
0.0137477096692
0.0137676727413
0.0137921224858
0.0138207005726
0.0138529646293
0.013888387585
0.0139263607824
0.013966202081
0.0140071707613
0.0140484897199
0.0140893756041
0.0141290757344
0.014166910609
0.0142023188687
0.0142349016257
0.0142644616088
0.0142910331033
0.0143148983037
0.014336587127
0.014356858635
0.0143766644508
0.0143970966894
0.0144193249046
0.0144445283621
0.0144738300807
0.0145082393155
0.0145486068152
0.0145955961774
0.0146496710142
0.014711097108
0.014779955624
0.0148561646507
0.0149395043165
0.0150296434694
0.0151261643457
0.0152285850083
0.0153363774578
0.0154489826544
0.0155658212136
0.0156863017559
0.0158098259692
0.0159357927816
0.0160635989691
0.0161924466645
0.0163215641836
0.0164502018877
0.0165776282915
0.0167031282432
0.0168260011924
0.0169455612787
0.0170611372286
0.0171720738843
0.0172777333697
0.0173774977642
0.0174707712857
0.017556983861
0.0176355940792
0.0177060933833
0.0177680095034
0.0178209109335
0.0178644104744
0.017898169567
0.017921901467
0.0179353748746
0.0179384161137
0.0179309113354
0.017912806903
0.0178841092938
0.0178448827807
0.0177952461229
0.0177353667197
0.0176654534338
0.0175857468688
0.0174965084747
0.0173980078768
0.0172905103634
0.0171742649728
0.0170494959665
0.016916398806
0.0167751426427
0.0166258779636
0.0164687470542
0.0163038943675
0.0161316992485
0.0159524997426
0.0157665483271
0.0155741182919
0.0153755064954
0.0151710352337
0.0149610537035
0.0147459383361
0.0145260925355
0.0143019452959
0.0140739492578
0.0138425777601
0.0136083215269
0.0133716846412
0.0131331805035
0.0128933274608
0.012652644793
0.0124116487122
0.0121708489956
0.0119307458502
0.0116918275533
0.0114545684197
0.0112194275717
0.0109868480259
0.0107572564973
0.0105310633931
0.010308655714
0.0100904078911
0.00987668376197
0.0096678379261
0.00946421712936
0.00926616105608
0.00907400254065
0.00888806658627
0.00870866819029
0.00853610856096
0.00837066998634
0.00821260950512
0.00806215230825
0.00791948596162
0.00778475728519
0.00765807391361
0.00753951299899
0.00742913952428
0.00732703689318
0.00723335276394
0.00714836413211
0.00707256792827
0.00700680756313
0.00695245278228
0.00691166037135
0.0068877567001
0.00688579409006
0.00691329735479
0.0137998814694
0.0138062361403
0.0138188564459
0.0138375696417
0.0138621132529
0.0138921311861
0.0139271718219
0.0139666881259
0.014010040693
0.0140565055597
0.0141052880642
0.0141555442579
0.014206409828
0.014257036425
0.014306633316
0.0143545122401
0.0144001315715
0.0144431362737
0.014483389099
0.0145209896116
0.0145562777347
0.0145898204728
0.014622381712
0.0146548772767
0.0146883190572
0.0147237534495
0.0147622001695
0.0148045969715
0.0148517552264
0.0149043289111
0.0149627984334
0.0150274677882
0.0150984733399
0.0151758003251
0.0152593045548
0.0153487354083
0.0154437587237
0.0155439769321
0.0156489466493
0.0157581922388
0.0158712166662
0.0159875086941
0.0161065482333
0.0162278090478
0.0163507610178
0.0164749578512
0.0165996650378
0.0167241699375
0.0168477785019
0.0169698122263
0.0170896069109
0.0172065113822
0.0173198878404
0.0174291119457
0.0175335743863
0.0176326820016
0.0177258602511
0.0178125550844
0.0178922360333
0.0179643985701
0.0180285675574
0.0180842998352
0.0181311877467
0.0181688616659
0.0181969932773
0.0182152977006
0.0182235361333
0.0182215171459
0.0182090982003
0.0181861855943
0.0181527342934
0.0181087459632
0.0180542665864
0.0179893821609
0.0179142138599
0.017828911463
0.0177336465858
0.0176286050382
0.0175139802066
0.0173899674464
0.0172567616043
0.0171145575725
0.0169635547307
0.0168039630957
0.0166360096637
0.0164599413027
0.0162760273265
0.0160848903518
0.0158869874138
0.0156827201651
0.0154725048863
0.0152567717776
0.0150359643979
0.0148105389533
0.0145809636768
0.014347717578
0.0141112890022
0.0138721734215
0.0136308710635
0.0133878839691
0.0131437131546
0.0128988555084
0.0126538010747
0.012409030329
0.0121650120306
0.0119222012186
0.0116810378742
0.0114419457887
0.011205332105
0.0109715870571
0.0107410843036
0.0105141813542
0.0102912115253
0.0100724951852
0.00985834400013
0.00964906250168
0.00944494957826
0.00924629928598
0.00905340097046
0.00886653810521
0.00868598582836
0.00851200678129
0.00834484549684
0.00818472150482
0.00803182207947
0.00788629575403
0.00774824850143
0.00761774479273
0.00749481638305
0.00737948207204
0.00727178252766
0.0071718356722
0.00707992111511
0.00699660798515
0.00692295167158
0.00686080555216
0.00681333030299
0.00678584554242
0.00678726326021
0.0068324219084
0.0139022664451
0.0139100717492
0.013925557594
0.0139484906246
0.0139785255046
0.014015202816
0.0140579502428
0.0141060866903
0.0141588304047
0.0142153129749
0.0142746003337
0.0143357218396
0.0143977067549
0.0144596270589
0.0145206435603
0.0145800522989
0.0146373267241
0.0146921519418
0.0147444467738
0.0147943710647
0.0148423162151
0.0148888792434
0.0149348219481
0.0149810188902
0.0150283989856
0.0150778863421
0.0151303459155
0.0151865384966
0.0152470883655
0.0153124645984
0.0153829758734
0.0154587763211
0.0155398800608
0.0156261805929
0.0157174727447
0.015813473957
0.0159138440349
0.0160182014482
0.0161261367709
0.0162372222656
0.0163510190358
0.0164670809921
0.0165849572365
0.016704191787
0.0168243217028
0.0169450377623
0.017065708097
0.0171856818721
0.0173043210869
0.0174210005672
0.0175351076373
0.017646041104
0.0177532116508
0.0178560419358
0.0179539680957
0.0180464407497
0.0181329272406
0.0182129131831
0.0182859051123
0.0183514322963
0.0184090495321
0.0184583389932
0.0184989129463
0.0185304154224
0.0185525246343
0.018564954255
0.0185674552977
0.018559816758
0.0185418666832
0.0185134719014
0.0184745379956
0.0184250078684
0.0183648604274
0.0182941079162
0.0182127934168
0.0181209873199
0.0180187843692
0.0179063004445
0.0177836708249
0.0176510494009
0.0175086103962
0.0173565516639
0.0171950999022
0.0170245154463
0.0168450956153
0.0166571746129
0.0164611195825
0.0162573278692
0.0160466426182
0.01582963926
0.0156068506415
0.0153788156176
0.0151460761828
0.0149091746635
0.0146686518042
0.0144250449863
0.0141788867991
0.0139307032546
0.0136810121689
0.013430321201
0.0131791261688
0.0129279091829
0.0126771372065
0.0124272605855
0.0121787121046
0.011931906105
0.0116872381697
0.0114450849117
0.0112058043258
0.0109697362384
0.0107372032516
0.0105085116973
0.0102839431784
0.0100637636454
0.00984823182553
0.00963760094839
0.00943212028231
0.00923203589252
0.0090375906001
0.00884902256773
0.00866656248705
0.0084904289927
0.00832082254157
0.0081579179295
0.00800185634115
0.00785273804228
0.00771061760468
0.00757550396261
0.00744736842969
0.00732616460743
0.00721186570182
0.00710452753879
0.00700439112927
0.00691204955159
0.00682872542614
0.00675674775319
0.00670040037348
0.00666747549111
0.00667215760505
0.00674026961201
0.0140241432033
0.0140336459403
0.0140524830366
0.0140803458406
0.0141167851147
0.0141612118667
0.0142129029733
0.0142710108623
0.0143345783791
0.0144025605668
0.0144738543546
0.0145473365945
0.0146219089
0.0146965472183
0.0147703520844
0.0148425957449
0.0149127612074
0.0149805695671
0.0150459919161
0.0151092443519
0.0151707654741
0.0152311783202
0.0152912398303
0.0153517828539
0.0154136561513
0.0154776681439
0.0155445393343
0.0156148668592
0.0156891030354
0.0157675475386
0.0158503517766
0.0159375322691
0.0160289901968
0.0161245333884
0.0162238986457
0.016326771755
0.0164328047303
0.0165416289654
0.0166528652084
0.016766129794
0.0168810387348
0.0169972092539
0.017114260596
0.0172318136705
0.0173494919927
0.0174669248057
0.0175838042097
0.0176995118852
0.0178134542272
0.0179250544234
0.0180337487706
0.0181389842106
0.0182402180712
0.0183369178524
0.0184285625153
0.0185146432852
0.0185946656398
0.0186681505402
0.0187346366818
0.0187936818314
0.0188448650811
0.0188877880912
0.0189220771729
0.0189473843012
0.0189633888997
0.0189697985235
0.0189663502454
0.0189528109221
0.0189289780916
0.0188946797494
0.0188497746948
0.0187941518074
0.0187277298983
0.0186504566603
0.0185623083464
0.0184632889157
0.0183534302807
0.0182327926201
0.0181014663369
0.0179595746874
0.0178072782703
0.0176447799256
0.0174723302347
0.0172902313036
0.0170988383837
0.0168985574156
0.0166898397929
0.0164731730566
0.0162490757671
0.0160185587642
0.0157823293645
0.0155410311689
0.0152953043429
0.0150457800091
0.0147930766252
0.0145377970283
0.0142805266394
0.0140218316441
0.0137622577598
0.0135023289481
0.0132425466269
0.0129833888222
0.0127253098181
0.012468739784
0.0122140849105
0.0119617275535
0.0117120268825
0.0114653195567
0.0112219208865
0.0109821260195
0.0107462115471
0.0105144370587
0.0102870377861
0.0100642266465
0.009846210122
0.0096331900808
0.00942536529797
0.0092229321053
0.00902608413921
0.00883501063335
0.00864989323117
0.00847090096737
0.00829818364936
0.00813186380615
0.00797202805272
0.00781871892565
0.00767192901501
0.00753159969313
0.00739762773421
0.007269884298
0.00714825308385
0.00703269870317
0.00692338482573
0.00682087869378
0.00672651350715
0.00664305306907
0.00657595767688
0.00653587809842
0.00654366972645
0.00664032683058
0.0141648095603
0.0141762635208
0.0141989506568
0.0142324711152
0.0142762489508
0.0143295370014
0.0143914285439
0.0144608742345
0.0145367054951
0.014617665954
0.0147024514978
0.0147897585989
0.0148783384101
0.0149670533527
0.0150549311666
0.0151412119099
0.0152253827359
0.0153071971247
0.0153866756911
0.0154640883711
0.0155399188729
0.0156148149581
0.0156895289997
0.0157648548781
0.0158415670674
0.0159203675691
0.0160018448466
0.0160864471931
0.0161744710571
0.0162660628209
0.0163612315429
0.0164598689122
0.0165617732213
0.0166666737332
0.0167742535155
0.0168841685422
0.0169960629473
0.0171095795726
0.0172243669853
0.0173400827217
0.0174563944662
0.0175729788731
0.0176895197383
0.0178057048222
0.0179212227759
0.0180357588279
0.0181492163504
0.0182610337014
0.018370669648
0.0184775971813
0.0185813003351
0.0186812717532
0.0187770122882
0.0188680306016
0.0189538442529
0.0190339802901
0.0191079769941
0.0191753848211
0.01923576832
0.019288707085
0.0193337975932
0.0193706539992
0.019398909772
0.0194182182644
0.0194282541082
0.0194287135588
0.0194193156626
0.0193998024205
0.0193699397791
0.0193295176948
0.0192783510498
0.0192162797689
0.0191431698696
0.0190589139363
0.0189634327107
0.0188566764505
0.018738627686
0.0186093041413
0.0184687632753
0.0183171071335
0.0181544885044
0.0179811166404
0.017797262771
0.0176032631877
0.017399519837
0.0171864968009
0.0169647135905
0.0167347356634
0.0164971626716
0.0162526214522
0.0160022086807
0.0157467961918
0.0154871175924
0.0152238927113
0.0149578195109
0.0146895712072
0.0144197935073
0.0141491023341
0.0138780824462
0.0136072863742
0.013337234125
0.0130684129843
0.0128012779358
0.0125362521112
0.0122737277775
0.0120140673257
0.0117576047448
0.0115046470884
0.0112554763861
0.0110103515386
0.0107695105934
0.0105331729483
0.0103015362508
0.0100747632444
0.00985301015755
0.00963642852494
0.00942516665784
0.00921937017804
0.00901918156077
0.00882473814796
0.00863616861318
0.00845358755209
0.00827708842473
0.00810673500508
0.00794255212881
0.00778451671677
0.00763255079799
0.00748651876963
0.00734623225153
0.00721146739063
0.00708200248841
0.00695768948405
0.00683858437304
0.00672518539633
0.00661887832941
0.00652279896752
0.00644357314004
0.00639496786518
0.00640576054864
0.00653649876941
0.01432311683
0.0143367884783
0.0143638488287
0.014403789471
0.0144558828222
0.0145191923547
0.014592591871
0.0146747916159
0.0147643722693
0.0148598280178
0.0149596188592
0.0150622307558
0.0151662399118
0.0152703766719
0.0153735830019
0.0154750584673
0.0155742895445
0.0156710595357
0.0157654372823
0.0158577459501
0.0159485143396
0.0160384158493
0.0161282007379
0.016218628571
0.0163104068817
0.016404141428
0.0165003013652
0.0165992007611
0.0167009957669
0.0168056949621
0.0169131795117
0.0170232289453
0.0171355490929
0.0172497986589
0.0173656126551
0.0174826208605
0.0176004614662
0.0177187894226
0.0178372808785
0.0179556337363
0.0180735661244
0.0181908126137
0.0183071198252
0.0184222406034
0.0185359277712
0.0186479252766
0.0187583253047
0.0188666472042
0.018972406574
0.0190751246802
0.0191743298204
0.0192695561419
0.0193603433697
0.0194462362372
0.0195267853532
0.0196015475676
0.0196700874898
0.0197319781875
0.0197868028466
0.0198341554438
0.0198736423027
0.0199048826027
0.0199275097574
0.0199411717542
0.0199455323881
0.019940271513
0.0199250862348
0.0198996912142
0.0198638199724
0.0198172254307
0.0197596815296
0.0196909842484
0.0196109538163
0.0195194365513
0.0194163080523
0.0193014762925
0.0191748862281
0.0190365245127
0.0188864256911
0.0187246783353
0.0185514320424
0.0183669034162
0.0181713813874
0.0179652297614
0.0177488872567
0.0175228634742
0.0172877319262
0.0170441196703
0.0167926961275
0.0165341598112
0.0162692308549
0.0159989831603
0.0157245098966
0.0154466150322
0.0151660741048
0.0148836319788
0.0146000001917
0.0143158528498
0.0140318244428
0.0137485085531
0.0134664575647
0.0131861826765
0.012908154684
0.0126328048888
0.012360526625
0.0120916768273
0.0118265781119
0.011565520858
0.0113087657286
0.0110565461611
0.0108090712142
0.0105665283377
0.0103290898186
0.0100968730133
0.00986998739878
0.00964853640045
0.00943261890258
0.00922232975416
0.0090177591822
0.00881899059885
0.00862609680053
0.00843913426106
0.00825813574351
0.00808310137096
0.007913988886
0.00775070398684
0.00759309234261
0.00744093541849
0.00729395345074
0.0071518206571
0.00701420136178
0.00688082264503
0.00675161357009
0.00662697157946
0.00650828394693
0.00639898636235
0.00630680868321
0.00624875848344
0.0062625511786
0.00643253762277
0.0144975661983
0.0145137410247
0.0145457346477
0.0145929110261
0.0146543635045
0.0147289316916
0.0148152302775
0.0149116864029
0.0150165864749
0.0151281332457
0.0152445124861
0.0153639666421
0.0154848704151
0.0156058022995
0.0157256050957
0.0158434298868
0.0159587585695
0.0160714030977
0.0161814809751
0.0162893699204
0.0163956457927
0.0165010104126
0.0166062159706
0.0167119935323
0.0168189916508
0.0169277300561
0.0170385708446
0.0171517076192
0.0172671707864
0.017384845675
0.017504499375
0.0176258117639
0.0177484070348
0.0178718823198
0.0179958317506
0.0181198644398
0.018243616764
0.0183667587881
0.0184889964083
0.018610069487
0.0187297479083
0.0188478255788
0.0189641141746
0.0190784361507
0.0191906186492
0.0193004876835
0.0194080682343
0.0195132387575
0.0196155360373
0.0197145133049
0.0198097337991
0.0199007661985
0.0199871827516
0.0200685579007
0.0201444686971
0.0202144948729
0.0202782201408
0.0203352327017
0.0203851267309
0.0204275028813
0.0204619696914
0.0204881439638
0.0205056520599
0.0205141301991
0.0205132257315
0.0205025975006
0.020481917261
0.0204508703089
0.0204091572595
0.0203564951855
0.0202926200017
0.020217288384
0.0201302810439
0.0200314057331
0.0199205017159
0.019797444153
0.0196621499932
0.019514583816
0.019354764961
0.0191827742548
0.0189987612618
0.0188029501316
0.0185956445591
0.0183772298601
0.0181481726772
0.0179090168296
0.0176603764388
0.017402925822
0.0171373879076
0.0168645218335
0.0165851106654
0.0162999533639
0.0160099749701
0.0157165843955
0.0154206073664
0.0151228603799
0.0148241251019
0.0145251406092
0.0142266003559
0.0139291504154
0.0136333888479
0.0133398654558
0.0130490824882
0.0127614955942
0.0124775155151
0.012197509903
0.0119218057225
0.0116506916993
0.011384421242
0.0111232153347
0.0108672657274
0.0106167378201
0.0103717898228
0.0101325055174
0.00989895267906
0.00967118998454
0.00944926898121
0.00923323472395
0.00902312516194
0.00881896884295
0.00862078096652
0.00842855751643
0.00824226769594
0.00806184478769
0.0078871761075
0.00771809284652
0.0075543612756
0.0073956773096
0.00724166769413
0.00709190299771
0.00694593164419
0.00680335221306
0.00666395827679
0.00652802706393
0.00639690751965
0.00627426433604
0.00616883787063
0.00610088498744
0.0061178044441
0.00633159109902
0.0146863747479
0.0147053641467
0.0147429016165
0.0147982022902
0.0148701498113
0.0149573214244
0.015058028269
0.0151703664004
0.0152922791007
0.015421630531
0.0155562892725
0.0156942175378
0.0158335593089
0.0159727199409
0.0161104292684
0.0162457824501
0.0163782542005
0.0165076857754
0.0166342458863
0.0167583703143
0.0168806860151
0.0170019278022
0.0171228552014
0.0172441774216
0.0173664922561
0.0174902433422
0.0176156972534
0.0177429399191
0.0178718895369
0.0180023218902
0.0181339033232
0.0182662265647
0.0183988455401
0.0185313058751
0.0186631695445
0.0187940324275
0.0189235353457
0.0190513687055
0.0191772724964
0.0193010321425
0.0194224722635
0.0195414485447
0.0196578396169
0.0197715386335
0.0198824463677
0.0199904656616
0.0200954996515
0.0201978495468
0.0202970756562
0.0203927604099
0.0204844969528
0.0205718823851
0.0206545148346
0.0207319914842
0.0208039086057
0.0208698613841
0.0209294450553
0.020982255299
0.0210278896434
0.0210659479098
0.0210960335941
0.0211177542516
0.021130722851
0.0211345581868
0.021128886342
0.0211133413156
0.0210875668018
0.0210512172714
0.0210039603113
0.0209454784162
0.0208754721398
0.0207936628539
0.0206997969506
0.020593649801
0.0204750312019
0.0203437906685
0.0201998241454
0.0200430804744
0.0198735689375
0.0196913660985
0.0194966229186
0.0192895702159
0.0190705231551
0.0188398828673
0.018598135927
0.018345850236
0.0180836685072
0.0178122986096
0.0175325025224
0.0172450836004
0.0169508743585
0.016650724067
0.0163454878585
0.0160359793319
0.0157237522852
0.0154097304753
0.0150947737389
0.014779691325
0.0144652412972
0.0141521314448
0.0138410171132
0.0135325002734
0.0132271297028
0.0129254014889
0.0126277604871
0.0123346020255
0.0120462742981
0.0117630808935
0.0114852839068
0.0112131071544
0.0109467399111
0.0106863407513
0.0104320421469
0.0101839357233
0.00994205043781
0.00970640375094
0.00947700293063
0.00925384541919
0.00903691811588
0.00882619504542
0.00862163340059
0.0084231676825
0.00823070214901
0.00804410166952
0.00786318159638
0.0076876973549
0.00751733509763
0.00735170527429
0.00719034225986