/*--------------------------------*- C++ -*----------------------------------*\
| =========                 |                                                 |
| \\      /  F ield         | OpenFOAM: The Open Source CFD Toolbox           |
|  \\    /   O peration     | Version:  2206                                  |
|   \\  /    A nd           | Website:  www.openfoam.com                      |
|    \\/     M anipulation  |                                                 |
\*---------------------------------------------------------------------------*/
FoamFile
{
    version     2.0;
    format      ascii;
    arch        "LSB;label=64;scalar=64";
    class       surfaceScalarField;
    location    "3.9/water";
    object      phi.gas;
}
// * * * * * * * * * * * * * * * * * * * * * * * * * * * * * * * * * * * * * //

dimensions      [0 3 -1 0 0 0 0];

oriented        oriented;

internalField   nonuniform List<scalar> 
46280
(
-7.15077693877e-09
2.71791508411e-07
2.48469211119e-10
2.71769681065e-07
2.16731224324e-10
2.71684929166e-07
1.42572705291e-10
2.71581797463e-07
-3.97761228385e-12
2.71462760079e-07
-2.45313196897e-10
2.71329945638e-07
-5.95843554631e-10
2.71186780767e-07
-1.06100573622e-09
2.71037694755e-07
-1.64727479617e-09
2.70886662563e-07
-2.35358181089e-09
2.70738505748e-07
-3.17982656649e-09
2.70597380356e-07
-4.11942372322e-09
2.70467991535e-07
-5.16618076053e-09
2.7035410462e-07
-6.30937999348e-09
2.70259592558e-07
-7.53843813954e-09
2.70187135887e-07
-8.84058218641e-09
2.70139136944e-07
-1.02032852316e-08
2.70116683236e-07
-1.16138707617e-08
2.70120391451e-07
-1.30601461131e-08
2.7014963244e-07
-1.45311170773e-08
2.70203347229e-07
-1.60163981006e-08
2.70279472529e-07
-1.75073709377e-08
2.70375739766e-07
-1.89959446788e-08
2.70489212807e-07
-2.04757027797e-08
2.70617057256e-07
-2.19404947074e-08
2.707561049e-07
-2.33853085764e-08
2.70903576826e-07
-2.48050742362e-08
2.71056613102e-07
-2.61951406651e-08
2.71212944647e-07
-2.75505742234e-08
2.7137035852e-07
-2.88662187001e-08
2.71527328637e-07
-3.01366643907e-08
2.71682413383e-07
-3.13558870053e-08
2.71834863457e-07
-3.25179289368e-08
2.71983963342e-07
-3.36160978854e-08
2.72129634439e-07
-3.46442836972e-08
2.72271737611e-07
-3.55956906664e-08
2.7241068467e-07
-3.64646505204e-08
2.7254672044e-07
-3.72449071318e-08
2.72680549499e-07
-3.79317777498e-08
2.72812615296e-07
-3.85200650087e-08
2.72943742223e-07
-3.90064271262e-08
2.73074426649e-07
-3.93870265547e-08
2.73205487982e-07
-3.9659864061e-08
2.73337379785e-07
-3.98204089026e-08
2.7347079129e-07
-3.98680513562e-08
2.73605872757e-07
-3.98036227296e-08
2.73743002297e-07
-3.96278445477e-08
2.73882344583e-07
-3.93407455581e-08
2.74024284908e-07
-3.89440246222e-08
2.74168793849e-07
-3.84390908006e-08
2.74315989021e-07
-3.78288236673e-08
2.74465606809e-07
-3.71158959066e-08
2.74617519108e-07
-3.63042269426e-08
2.74771247629e-07
-3.53976211839e-08
2.74926429505e-07
-3.4400924031e-08
2.75082376616e-07
-3.3318938489e-08
2.7523849304e-07
-3.21573267524e-08
2.75393877233e-07
-3.09217390796e-08
2.75547696455e-07
-2.9618536664e-08
2.75698826783e-07
-2.82540396022e-08
2.75846192151e-07
-2.68351696109e-08
2.75988435207e-07
-2.53687143274e-08
2.76124231055e-07
-2.38620025274e-08
2.76251981576e-07
-2.23220784155e-08
2.76370116159e-07
-2.07565258693e-08
2.76476803168e-07
-1.9172460533e-08
2.76570252608e-07
-1.75776177007e-08
2.76648441716e-07
-1.59790884118e-08
2.76709437774e-07
-1.43847757726e-08
2.76751139983e-07
-1.28018260688e-08
2.76771645091e-07
-1.12385302513e-08
2.76769013491e-07
-9.70240459721e-09
2.76741702388e-07
-8.20256349713e-09
2.76688368634e-07
-6.74738562896e-09
2.76608396916e-07
-5.34731299825e-09
2.76501761396e-07
-4.01197944735e-09
2.76369693348e-07
-2.75319336412e-09
2.7621466096e-07
-1.5809563535e-09
2.76041271018e-07
-5.05079521151e-10
2.75856476362e-07
4.73978200612e-10
2.75670754304e-07
1.37526330834e-09
2.7549815067e-07
2.25299522173e-09
2.75355434005e-07
3.10748340857e-09
2.7525620445e-07
3.89385540977e-09
2.75206346766e-07
4.6064639377e-09
2.752067913e-07
5.29663763004e-09
2.75251411158e-07
6.02294473533e-09
2.75324203989e-07
6.80063127481e-09
2.75407977994e-07
7.62354728736e-09
2.75489063438e-07
8.48127255505e-09
2.75558166951e-07
9.35989203589e-09
2.75609120455e-07
1.0247678575e-08
2.75638500486e-07
1.11319792681e-08
2.75644568175e-07
1.20030534514e-08
2.75627193504e-07
1.28505766281e-08
2.75587090324e-07
1.36669571688e-08
2.75525907498e-07
1.44439971326e-08
2.75445627525e-07
1.51759172894e-08
2.75348733288e-07
1.58562743342e-08
2.75237711561e-07
1.64807478194e-08
2.7511526026e-07
1.70443279393e-08
2.74983871925e-07
1.75438814949e-08
2.74846065237e-07
1.79756037636e-08
2.74704033593e-07
1.83373757389e-08
2.74559890129e-07
1.86264684278e-08
2.74415369444e-07
1.88417009452e-08
2.74272076789e-07
1.8981380433e-08
2.74131231833e-07
1.90452694786e-08
2.73993913333e-07
1.90327411295e-08
2.73860834987e-07
1.89445403913e-08
2.73732579171e-07
1.8780988338e-08
2.73609407858e-07
1.85436253631e-08
2.73491543545e-07
1.82336241849e-08
2.73378961293e-07
1.78531992732e-08
2.73271536148e-07
1.74043868202e-08
2.73168948375e-07
1.6890292735e-08
2.73070884425e-07
1.63138624262e-08
2.72976908393e-07
1.56789462057e-08
2.72886648625e-07
1.49891712111e-08
2.72799695957e-07
1.42488396493e-08
2.72715786777e-07
1.34618871003e-08
2.72634730389e-07
1.26326268981e-08
2.72556589262e-07
1.17648194119e-08
2.72481631143e-07
1.08623363043e-08
2.72410494951e-07
9.92846252543e-09
2.723441443e-07
8.96667369542e-09
2.72283980074e-07
7.9804222386e-09
2.7223173773e-07
6.9743055889e-09
2.72189471308e-07
5.95457230951e-09
2.7215931082e-07
4.93075357644e-09
2.72143244386e-07
3.91671115152e-09
2.72142703631e-07
2.93221067621e-09
2.72158184974e-07
2.00380772214e-09
2.721888033e-07
1.16578239876e-09
2.72231982261e-07
4.61103565881e-10
2.72283245661e-07
-5.65829277064e-11
2.72336207832e-07
-3.20747041567e-10
2.72382765163e-07
-2.69154817603e-10
2.72413915469e-07
-8.34904652034e-09
2.72413065622e-07
2.72388672464e-07
-4.24373045754e-09
2.22885123617e-07
-6.37673977113e-10
2.22931330801e-07
-9.25957635047e-10
2.22966255327e-07
-1.25721690496e-09
2.23013023019e-07
-1.63396072005e-09
2.23072583728e-07
-2.06497984227e-09
2.23143737405e-07
-2.5579192063e-09
2.23225279847e-07
-3.11823118292e-09
2.23316142698e-07
-3.74953510123e-09
2.23414921368e-07
-4.45384913398e-09
2.23520209142e-07
-5.23153650053e-09
2.23630217816e-07
-6.0819601377e-09
2.23743171224e-07
-7.00281643203e-09
2.23856937261e-07
-7.99150760669e-09
2.23969444388e-07
-9.04372468713e-09
2.24078336273e-07
-1.01555503163e-08
2.24181371059e-07
-1.13213237305e-08
2.24276127974e-07
-1.25362853864e-08
2.24360380545e-07
-1.37939187519e-08
2.24431850633e-07
-1.5088907053e-08
2.24488562901e-07
-1.64141712719e-08
2.24528632126e-07
-1.7763953988e-08
2.24550600062e-07
-1.91307428383e-08
2.24553232786e-07
-2.05083409077e-08
2.24535829996e-07
-2.18888144972e-08
2.24498003465e-07
-2.32654631234e-08
2.24439942913e-07
-2.46298986899e-08
2.24362152095e-07
-2.59748778266e-08
2.24265664153e-07
-2.72916002285e-08
2.24151731623e-07
-2.8572404085e-08
2.24022004241e-07
-2.98083362062e-08
2.2387819307e-07
-3.09916993219e-08
2.23722240473e-07
-3.21138838679e-08
2.23555989182e-07
-3.31677293366e-08
2.23381371924e-07
-3.41455590612e-08
2.23200106575e-07
-3.50413123522e-08
2.23013915503e-07
-3.58487183522e-08
2.22824250011e-07
-3.65631932042e-08
2.22632532234e-07
-3.71801140067e-08
2.22439901079e-07
-3.76965137641e-08
2.22247463342e-07
-3.81094363508e-08
2.22056052744e-07
-3.84174927406e-08
2.21866478515e-07
-3.86193739261e-08
2.21679292338e-07
-3.87145412192e-08
2.21495057395e-07
-3.87028624353e-08
2.21314256357e-07
-3.85860232102e-08
2.21137379417e-07
-3.83651825506e-08
2.20964628522e-07
-3.80427310792e-08
2.20796176704e-07
-3.76207965903e-08
2.20632060842e-07
-3.71026994315e-08
2.20472375852e-07
-3.64914293886e-08
2.2031709244e-07
-3.57911446422e-08
2.20166239625e-07
-3.50056115376e-08
2.20019742803e-07
-3.41397403834e-08
2.19877590206e-07
-3.319799055e-08
2.19739687886e-07
-3.2185934804e-08
2.19606008851e-07
-3.1108637528e-08
2.19476463935e-07
-2.99722315615e-08
2.19351034389e-07
-2.8782284424e-08
2.1922965776e-07
-2.75453643855e-08
2.19112345845e-07
-2.62674134853e-08
2.18999084553e-07
-2.49552796865e-08
2.18889939433e-07
-2.36151180081e-08
2.18784968165e-07
-2.22538649951e-08
2.18684316129e-07
-2.08776878526e-08
2.18588139917e-07
-1.94933835601e-08
2.18496695008e-07
-1.81068938804e-08
2.18410268262e-07
-1.67246170857e-08
2.1832925927e-07
-1.53520025266e-08
2.18254119423e-07
-1.39947746178e-08
2.18185427468e-07
-1.26576144019e-08
2.18123832825e-07
-1.13452908566e-08
2.18070125636e-07
-1.00614088956e-08
2.18025180987e-07
-8.80940854976e-09
2.17990019118e-07
-7.59128668313e-09
2.17965737043e-07
-6.40832245685e-09
2.17953532173e-07
-5.25952900873e-09
2.17954565677e-07
-4.14174225962e-09
2.17969849391e-07
-3.04725298633e-09
2.17999863375e-07
-1.96271572019e-09
2.1804400349e-07
-8.67405197388e-10
2.18099465674e-07
2.56807216971e-10
2.18159907909e-07
1.38075830273e-09
2.18215762536e-07
2.45686022345e-09
2.18260799416e-07
3.45519579922e-09
2.1829556041e-07
4.37076020417e-09
2.18328775865e-07
5.23060058025e-09
2.18370813944e-07
6.05642911992e-09
2.184258164e-07
6.86130313903e-09
2.18494570402e-07
7.65153691387e-09
2.18576242056e-07
8.42962218327e-09
2.18669299346e-07
9.1954043451e-09
2.18772095759e-07
9.94741468673e-09
2.18883046209e-07
1.06830886254e-08
2.1900078299e-07
1.13994153169e-08
2.19124120654e-07
1.20928618925e-08
2.1925211301e-07
1.27597683377e-08
2.19383971259e-07
1.33962118492e-08
2.19519104262e-07
1.3998297101e-08
2.19657029521e-07
1.45620257036e-08
2.19797413412e-07
1.50835331175e-08
2.19939983389e-07
1.55589754155e-08
2.20084570932e-07
1.59847343534e-08
2.20231027351e-07
1.63573204445e-08
2.20379269486e-07
1.6673556808e-08
2.20529199993e-07
1.69304925953e-08
2.20680755118e-07
1.71255705374e-08
2.20833830039e-07
1.72565452278e-08
2.20988328309e-07
1.73216395708e-08
2.21144093301e-07
1.73194841191e-08
2.21300959725e-07
1.72493854434e-08
2.21458686093e-07
1.71109590322e-08
2.21616994069e-07
1.69041482948e-08
2.2177552793e-07
1.66295471636e-08
2.21933880859e-07
1.62884091903e-08
2.2209153153e-07
1.58825592721e-08
2.22247877322e-07
1.54145143094e-08
2.22402174893e-07
1.48873958008e-08
2.22553570902e-07
1.43050212354e-08
2.22701043129e-07
1.36717822033e-08
2.22843425949e-07
1.29926750761e-08
2.22979358339e-07
1.22731128057e-08
2.23107314548e-07
1.15188695167e-08
2.23225575176e-07
1.07358191164e-08
2.23332283202e-07
9.92982206578e-09
2.23425461095e-07
9.10647009739e-09
2.23503112084e-07
8.27105428068e-09
2.23563294822e-07
7.42851088242e-09
2.23604265371e-07
6.58369470014e-09
2.23624585651e-07
5.7417278558e-09
2.23623263236e-07
4.90869566562e-09
2.23599840001e-07
4.09235802394e-09
2.23554480467e-07
3.30305256564e-09
2.23488016483e-07
2.55443192814e-09
2.23402009791e-07
1.86438482893e-09
2.2329884485e-07
1.25631308786e-09
2.2318192762e-07
7.62288360104e-10
2.23056090198e-07
4.37596393856e-10
2.22928759125e-07
-4.46387053734e-09
2.2280665192e-07
2.22694409223e-07
-4.52955423433e-09
2.31289010445e-07
-7.35436943851e-10
2.31318646881e-07
-1.05635750617e-09
2.31364460841e-07
-1.42284749623e-09
2.31421987462e-07
-1.84057587573e-09
2.314945037e-07
-2.31687952589e-09
2.31581970193e-07
-2.85892903201e-09
2.31683908645e-07
-3.47233462831e-09
2.31799754814e-07
-4.16024761447e-09
2.31928776428e-07
-4.92428055124e-09
2.32070076152e-07
-5.7636540392e-09
2.32222382725e-07
-6.67673032088e-09
2.3238416841e-07
-7.65955088156e-09
2.3255343271e-07
-8.70816848611e-09
2.32727844073e-07
-9.81648118093e-09
2.32904588665e-07
-1.09792155536e-08
2.33080552432e-07
-1.21891502894e-08
2.33252233182e-07
-1.34405321346e-08
2.33415968906e-07
-1.47258303858e-08
2.33567912134e-07
-1.60393683543e-08
2.33704292428e-07
-1.73737770596e-08
2.33821430816e-07
-1.87236765722e-08
2.33916011001e-07
-2.00819866352e-08
2.3398509588e-07
-2.14435429604e-08
2.34026371376e-07
-2.28013956374e-08
2.34038121502e-07
-2.41503032808e-08
2.34019408897e-07
-2.54831358335e-08
2.3396997561e-07
-2.67942409502e-08
2.33890342148e-07
-2.80760577626e-08
2.33781628192e-07
-2.93223814458e-08
2.3364558198e-07
-3.05252565145e-08
2.33484347375e-07
-3.16781407819e-08
2.33300461338e-07
-3.27730744667e-08
2.33096610765e-07
-3.38037019407e-08
2.32875639582e-07
-3.47626532083e-08
2.32640331431e-07
-3.56443652887e-08
2.32393450863e-07
-3.64426034435e-08
2.32137566266e-07
-3.71530581951e-08
2.3187512748e-07
-3.77709619193e-08
2.31608325314e-07
-3.82934808608e-08
2.31339195163e-07
-3.87174118767e-08
2.31069502273e-07
-3.90414302051e-08
2.30800858602e-07
-3.92638689032e-08
2.30534627811e-07
-3.93836141183e-08
2.30272049847e-07
-3.94000349292e-08
2.30014138919e-07
-3.93151409342e-08
2.29761845408e-07
-3.91300390745e-08
2.29516010976e-07
-3.88469668562e-08
2.29277303915e-07
-3.84676014268e-08
2.29046262648e-07
-3.79950881874e-08
2.28823399277e-07
-3.74319367286e-08
2.28609129238e-07
-3.67820726911e-08
2.28403859559e-07
-3.60487353661e-08
2.28207924322e-07
-3.52365381574e-08
2.28021661193e-07
-3.43493623911e-08
2.27845352639e-07
-3.33924177091e-08
2.2767929027e-07
-3.23701359289e-08
2.27523721953e-07
-3.12882186569e-08
2.27378904253e-07
-3.0151540839e-08
2.27245055852e-07
-2.89661675025e-08
2.27122398962e-07
-2.77372800196e-08
2.27011119174e-07
-2.64711449141e-08
2.26911396771e-07
-2.51730772502e-08
2.26823373053e-07
-2.38493447197e-08
2.26747172652e-07
-2.25051812583e-08
2.26682876083e-07
-2.11466156654e-08
2.26630533918e-07
-1.97785464188e-08
2.26590145218e-07
-1.84064894633e-08
2.26561664449e-07
-1.70347220784e-08
2.26544985279e-07
-1.5667953169e-08
2.26539940884e-07
-1.43095377057e-08
2.26546292436e-07
-1.2963068552e-08
2.2656372254e-07
-1.16306413616e-08
2.26591825073e-07
-1.0314344078e-08
2.26630086118e-07
-9.01451293996e-09
2.26677862831e-07
-7.731054585e-09
2.26734333352e-07
-6.46160001439e-09
2.26798436041e-07
-5.20259331301e-09
2.26868751259e-07
-3.94740102265e-09
2.26943354023e-07
-2.68783416594e-09
2.27019579377e-07
-1.41494091819e-09
2.27093796715e-07
-1.27363906844e-10
2.27161376837e-07
1.14564782475e-09
2.27217333309e-07
2.36365009151e-09
2.27261040614e-07
3.51316785677e-09
2.27292480913e-07
4.5868336617e-09
2.27315012741e-07
5.58623595408e-09
2.27336217913e-07
6.52525364731e-09
2.27360487713e-07
7.41565990202e-09
2.27391069271e-07
8.2653565685e-09
2.27429786613e-07
9.0798657385e-09
2.27477650528e-07
9.86213409218e-09
2.27535128052e-07
1.06139234952e-08
2.27602370941e-07
1.13354642057e-08
2.27679343598e-07
1.20264725184e-08
2.27765913484e-07
1.26856902436e-08
2.27861897267e-07
1.33116759156e-08
2.27967089066e-07
1.39023302307e-08
2.28081273267e-07
1.44555532485e-08
2.28204224605e-07
1.49687976703e-08
2.28335710272e-07
1.54396385315e-08
2.28475477494e-07
1.58653658755e-08
2.28623254702e-07
1.62434922357e-08
2.28778733936e-07
1.6571385026e-08
2.28941574876e-07
1.68467265704e-08
2.29111385068e-07
1.70671807289e-08
2.29287727214e-07
1.72308134781e-08
2.29470097938e-07
1.73357878345e-08
2.29657937513e-07
1.73807526136e-08
2.29850607249e-07
1.73645618184e-08
2.30047400225e-07
1.72867719871e-08
2.30247517741e-07
1.71471479067e-08
2.30450101291e-07
1.69457418779e-08
2.30654206379e-07
1.66831507681e-08
2.3085875073e-07
1.6360626867e-08
2.31062508261e-07
1.59798367577e-08
2.31264116171e-07
1.55431136209e-08
2.31462043763e-07
1.50532014206e-08
2.31654600294e-07
1.4513443913e-08
2.31839911625e-07
1.39274912929e-08
2.3201593979e-07
1.32993992746e-08
2.32180480689e-07
1.26332779074e-08
2.32331211886e-07
1.19332983629e-08
2.32465730767e-07
1.12033114855e-08
2.32581648552e-07
1.04468344447e-08
2.32676682058e-07
9.66676611266e-09
2.32748794455e-07
8.8655332742e-09
2.32796323881e-07
8.04512185554e-09
2.32818131615e-07
7.20760277737e-09
2.32813707756e-07
6.3556479754e-09
2.32783253548e-07
5.49349834003e-09
2.32727693953e-07
4.6278629154e-09
2.32648647076e-07
3.76906512674e-09
2.32548343325e-07
2.93194404412e-09
2.32429543787e-07
2.13690710108e-09
2.32295492735e-07
1.41137036051e-09
2.32149958119e-07
7.95242811466e-10
2.31997337086e-07
3.46352448828e-10
2.31842769769e-07
-5.14340986033e-09
2.3168776942e-07
2.31591986621e-07
-4.45581513927e-09
2.30246644285e-07
-7.89708959623e-10
2.30270565098e-07
-1.172881957e-09
2.30328696138e-07
-1.593642944e-09
2.30409970215e-07
-2.06537670665e-09
2.30515001162e-07
-2.59664620162e-09
2.30643117271e-07
-3.19477000816e-09
2.30793314722e-07
-3.86500086042e-09
2.30964373948e-07
-4.61053128546e-09
2.31154779593e-07
-5.43265135429e-09
2.31362753501e-07
-6.33032401357e-09
2.31586097574e-07
-7.3012959684e-09
2.31822206953e-07
-8.34108748696e-09
2.32067928137e-07
-9.44483926609e-09
2.32319670885e-07
-1.06057001202e-08
2.32573291597e-07
-1.1817329452e-08
2.32824278861e-07
-1.30717039408e-08
2.33067712558e-07
-1.43620544034e-08
2.33298504554e-07
-1.56802187832e-08
2.3351142829e-07
-1.70197812652e-08
2.33701396472e-07
-1.83731128871e-08
2.33863533782e-07
-1.97345393524e-08
2.33993459164e-07
-2.10972024096e-08
2.34087358528e-07
-2.24561423466e-08
2.34142228008e-07
-2.38051012759e-08
2.3415589662e-07
-2.51394721194e-08
2.34127187272e-07
-2.64531662642e-08
2.34055850439e-07
-2.77414400283e-08
2.33942620631e-07
-2.89979480002e-08
2.33789053485e-07
-3.02174870819e-08
2.33597492352e-07
-3.13933175282e-08
2.33370840199e-07
-3.25198344007e-08
2.33112483485e-07
-3.35901610581e-08
2.32826051582e-07
-3.45987074225e-08
2.32515351107e-07
-3.55389756832e-08
2.32184157399e-07
-3.64059445618e-08
2.31836192279e-07
-3.71940144045e-08
2.3147496579e-07
-3.78991869556e-08
2.31103803054e-07
-3.85171030057e-08
2.30725731608e-07
-3.90450310996e-08
2.30343546136e-07
-3.94799799518e-08
2.29959726852e-07
-3.98205388114e-08
2.29576526976e-07
-4.0065039136e-08
2.2919590838e-07
-4.02121095876e-08
2.28819638479e-07
-4.0260627405e-08
2.28449177203e-07
-4.02121064508e-08
2.28085946805e-07
-4.00680782904e-08
2.27731251313e-07
-3.98303194606e-08
2.27386132937e-07
-3.95001909101e-08
2.27051495146e-07
-3.90802861886e-08
2.26728193806e-07
-3.85727207667e-08
2.26416980976e-07
-3.79807884682e-08
2.26118587805e-07
-3.73072564537e-08
2.25833666997e-07
-3.65560294596e-08
2.25562867272e-07
-3.5730443863e-08
2.25306774703e-07
-3.48349294813e-08
2.2506597825e-07
-3.387330678e-08
2.24841010614e-07
-3.28504329858e-08
2.2463240509e-07
-3.17705125406e-08
2.24440636732e-07
-3.06387102969e-08
2.24266171177e-07
-2.94594886374e-08
2.24109406628e-07
-2.82381711602e-08
2.23970715327e-07
-2.69793212834e-08
2.23850386726e-07
-2.56882408882e-08
2.23748662451e-07
-2.43694043448e-08
2.23665680623e-07
-2.30278820177e-08
2.23601505028e-07
-2.16678416073e-08
2.23556070422e-07
-2.0293892166e-08
2.23529206752e-07
-1.89096618847e-08
2.23520585157e-07
-1.75190663945e-08
2.2352973826e-07
-1.6124967114e-08
2.2355600709e-07
-1.47303676405e-08
2.2359855874e-07
-1.33371434292e-08
2.23656333754e-07
-1.19471606766e-08
2.2372806008e-07
-1.05610505515e-08
2.23812196217e-07
-9.1792375035e-09
2.23906933517e-07
-7.80075039164e-09
2.24010122207e-07
-6.42423228924e-09
2.24119247674e-07
-5.04705493207e-09
2.24231329865e-07
-3.66708129735e-09
2.24342893247e-07
-2.28378986105e-09
2.24449954515e-07
-9.03215910419e-10
2.245483305e-07
4.58660320137e-10
2.24634499757e-07
1.76308055898e-09
2.24706879306e-07
3.00520415005e-09
2.24768425189e-07
4.1905883758e-09
2.24819837626e-07
5.30529008192e-09
2.24863836285e-07
6.35438134677e-09
2.24907496581e-07
7.34384578886e-09
2.24954190303e-07
8.27896302736e-09
2.2500699892e-07
9.16414579817e-09
2.25068170413e-07
1.00024996577e-08
2.25139390314e-07
1.07964137227e-08
2.25221867432e-07
1.15472875274e-08
2.25316462486e-07
1.22560629694e-08
2.25423740975e-07
1.29229652343e-08
2.2554405619e-07
1.35479411046e-08
2.25677567045e-07
1.41304140993e-08
2.25824293214e-07
1.46696559867e-08
2.25984113271e-07
1.51645616977e-08
2.26156803511e-07
1.56139759083e-08
2.26342026002e-07
1.60164890623e-08
2.26539358512e-07
1.63707344646e-08
2.26748278119e-07
1.66752038731e-08
2.26968186188e-07
1.69285243228e-08
2.27198389813e-07
1.71292887511e-08
2.2743812304e-07
1.72763170129e-08
2.27686526519e-07
1.73684965318e-08
2.27942665034e-07
1.74050290731e-08
2.28205505233e-07
1.73852747338e-08
2.2847392974e-07
1.73092020268e-08
2.28746714322e-07
1.71769669749e-08
2.29022557508e-07
1.69886869581e-08
2.29300066703e-07
1.67450641205e-08
2.29577688994e-07
1.64472895228e-08
2.29853700942e-07
1.60968711429e-08
2.30126216308e-07
1.56957926646e-08
2.30393158787e-07
1.52463160565e-08
2.30652269271e-07
1.47510811522e-08
2.30901090638e-07
1.42128603996e-08
2.31136992183e-07
1.36345840459e-08
2.31357181776e-07
1.30190429069e-08
2.31558764857e-07
1.23688539445e-08
2.317388019e-07
1.16861589919e-08
2.31894416531e-07
1.09726167909e-08
2.32022905042e-07
1.02292316768e-08
2.32121886744e-07
9.4565414358e-09
2.32189440859e-07
8.65476814924e-09
2.32224254187e-07
7.82437727826e-09
2.32225723939e-07
6.96666935566e-09
2.32194033349e-07
6.08472733523e-09
2.3213015878e-07
5.18432513705e-09
2.32035837973e-07
4.27499389345e-09
2.31913493323e-07
3.3708459347e-09
2.31766173424e-07
2.49135653837e-09
2.3159755962e-07
1.66204117892e-09
2.31412143144e-07
9.1815968304e-10
2.31215685248e-07
3.04608422448e-10
2.31015793334e-07
-5.11193317108e-09
2.3081976596e-07
2.3073186574e-07
-4.50838197244e-09
2.30946432278e-07
-8.4089469817e-10
2.30974041151e-07
-1.27316939323e-09
2.31044834448e-07
-1.74278532227e-09
2.31146638526e-07
-2.26382390233e-09
2.31279917995e-07
-2.84591600037e-09
2.31443544521e-07
-3.49667782294e-09
2.31636113498e-07
-4.22125921768e-09
2.31855835634e-07
-5.02266914371e-09
2.3210060091e-07
-5.90183526027e-09
2.32367858955e-07
-6.85736395198e-09
2.32654537581e-07
-7.8864657338e-09
2.32957043056e-07
-8.98398270757e-09
2.33271168986e-07
-1.01443042374e-08
2.33592137137e-07
-1.13596935904e-08
2.33914596007e-07
-1.26229084243e-08
2.34232736789e-07
-1.39249932786e-08
2.34540365594e-07
-1.5258316602e-08
2.34831093996e-07
-1.66139525405e-08
2.3509847675e-07
-1.79848817005e-08
2.3533624919e-07
-1.93630809417e-08
2.35538501435e-07
-2.07426992709e-08
2.35699921623e-07
-2.21169670942e-08
2.35815960003e-07
-2.34812302826e-08
2.35883026447e-07
-2.48297907533e-08
2.35898590139e-07
-2.61587600988e-08
2.35861282124e-07
-2.74629587226e-08
2.35770888822e-07
-2.87386199055e-08
2.35628335241e-07
-2.99804801982e-08
2.35435566201e-07
-3.11843923355e-08
2.35195428363e-07
-3.23446977301e-08
2.34911476267e-07
-3.34567709246e-08
2.34587807483e-07
-3.45146818615e-08
2.34228853708e-07
-3.55136370229e-08
2.33839229693e-07
-3.64478697171e-08
2.33423559821e-07
-3.73129194393e-08
2.3298637878e-07
-3.81036727181e-08
2.32532014613e-07
-3.88164487076e-08
2.32064548688e-07
-3.94471373105e-08
2.3158775017e-07
-3.99931019403e-08
2.31105083263e-07
-4.04513897655e-08
2.30619676454e-07
-4.08204913814e-08
2.30134359858e-07
-4.10985968476e-08
2.29651650521e-07
-4.12844127518e-08
2.29173801308e-07
-4.1375711133e-08
2.28702643046e-07
-4.1373260194e-08
2.28240048936e-07
-4.12791589754e-08
2.27787765191e-07
-4.10947167072e-08
2.27347175321e-07
-4.08208173584e-08
2.26919527067e-07
-4.04595116646e-08
2.26505984211e-07
-4.00123665752e-08
2.26107608685e-07
-3.9482067334e-08
2.25725410124e-07
-3.88707687935e-08
2.25360324026e-07
-3.81817106231e-08
2.25013253657e-07
-3.74175633889e-08
2.24685042425e-07
-3.65820452841e-08
2.24376508084e-07
-3.56782681344e-08
2.24088410954e-07
-3.47103422585e-08
2.23821480575e-07
-3.3681733337e-08
2.2357638107e-07
-3.25968389335e-08
2.23353730663e-07
-3.14593702875e-08
2.23154065316e-07
-3.02738845379e-08
2.22977851672e-07
-2.90442065409e-08
2.22825449923e-07
-2.77749030332e-08
2.22697120908e-07
-2.64697583859e-08
2.22592988969e-07
-2.51331821167e-08
2.2251304401e-07
-2.3768750083e-08
2.22457105056e-07
-2.23805429679e-08
2.22424818343e-07
-2.09717613252e-08
2.22415622536e-07
-1.95459997676e-08
2.22428744572e-07
-1.81059397777e-08
2.22463168321e-07
-1.6654566493e-08
2.2251763084e-07
-1.5193934446e-08
2.22590596842e-07
-1.37263304816e-08
2.22680257628e-07
-1.22531014737e-08
2.22784512102e-07
-1.0775774162e-08
2.22900967743e-07
-9.29497250841e-09
2.2302692634e-07
-7.81160390512e-09
2.23159388156e-07
-6.32612707841e-09
2.23295055106e-07
-4.8403233001e-09
2.2343038419e-07
-3.35769143119e-09
2.23561722389e-07
-1.88611361422e-09
2.23685635824e-07
-4.37375638446e-10
2.23799423354e-07
9.6287627773e-10
2.23901577161e-07
2.29671289284e-09
2.23994916272e-07
3.57324024388e-09
2.24081360437e-07
4.79205055421e-09
2.24160478276e-07
5.94296172163e-09
2.24236116444e-07
7.02889495541e-09
2.24313359599e-07
8.05231159524e-09
2.24395096248e-07
9.01605612874e-09
2.24484015963e-07
9.9224222662e-09
2.24582323971e-07
1.07735816363e-08
2.2469179737e-07
1.15711299299e-08
2.24813850334e-07
1.23165082228e-08
2.24949562837e-07
1.30106531464e-08
2.25099731854e-07
1.3654375126e-08
2.25264893915e-07
1.42480653413e-08
2.25445361718e-07
1.47920284843e-08
2.25641237849e-07
1.52862311042e-08
2.2585244239e-07
1.57305987638e-08
2.2607871989e-07
1.61247986963e-08
2.2631966136e-07
1.64685120422e-08
2.2657470716e-07
1.67612444171e-08
2.26843165178e-07
1.70025805745e-08
2.27124210458e-07
1.71920156452e-08
2.27416899539e-07
1.73291959002e-08
2.27720166461e-07
1.74137628982e-08
2.2803283271e-07
1.74455807259e-08
2.28353599304e-07
1.74245861448e-08
2.28681052628e-07
1.73513100978e-08
2.29013653869e-07
1.72264245718e-08
2.29349758933e-07
1.70501957973e-08
2.29687636192e-07
1.68234784987e-08
2.30025373093e-07
1.65475108057e-08
2.3036086652e-07
1.6223709067e-08
2.30691831181e-07
1.58538075246e-08
2.31015784785e-07
1.54396543539e-08
2.3133005227e-07
1.4983294713e-08
2.31631765313e-07
1.44867212924e-08
2.31917887494e-07
1.39518949237e-08
2.32185243427e-07
1.33804564657e-08
2.32430580974e-07
1.27737106441e-08
2.32650644743e-07
1.21323557854e-08
2.32842285115e-07
1.14565194166e-08
2.33002576784e-07
1.07456333879e-08
2.33128961497e-07
9.99867148325e-09
2.33219381989e-07
9.21433305234e-09
2.33272411736e-07
8.39162155401e-09
2.33287345831e-07
7.5304226407e-09
2.33264256905e-07
6.63242111768e-09
2.33203995676e-07
5.70195446122e-09
2.33108156712e-07
4.7470354631e-09
2.32979025442e-07
3.78012913509e-09
2.32819563397e-07
2.81887063527e-09
2.32633512096e-07
1.88649937242e-09
2.32425742918e-07
1.01342665357e-09
2.32203002182e-07
2.37557545322e-10
2.31975181782e-07
-4.99520772592e-09
2.31754247328e-07
2.31671155626e-07
-4.562897184e-09
2.31418401953e-07
-8.91197550756e-10
2.3145321159e-07
-1.36604349711e-09
2.31538789446e-07
-1.87936154694e-09
2.31663489122e-07
-2.44513159045e-09
2.318275206e-07
-3.07342069878e-09
2.32029274576e-07
-3.7723090829e-09
2.32266783759e-07
-4.54682658516e-09
2.32537629832e-07
-5.39995051972e-09
2.32838889527e-07
-6.33239912644e-09
2.33167085131e-07
-7.34239862138e-09
2.33518163621e-07
-8.42671078607e-09
2.33887387977e-07
-9.57960494672e-09
2.34269361656e-07
-1.07947904964e-08
2.34658043199e-07
-1.20637660762e-08
2.35046802458e-07
-1.33784930338e-08
2.35428535713e-07
-1.47292066782e-08
2.35795801473e-07
-1.61075281593e-08
2.36141008531e-07
-1.7503873867e-08
2.36456615944e-07
-1.8910713225e-08
2.36735364456e-07
-2.03196897438e-08
2.36970505267e-07
-2.17248118983e-08
2.37156030643e-07
-2.31193878821e-08
2.37286880957e-07
-2.44990262573e-08
2.37359119661e-07
-2.58584947643e-08
2.3737006214e-07
-2.71945009908e-08
2.37318344181e-07
-2.85026102582e-08
2.37203931311e-07
-2.97798542214e-08
2.37028058112e-07
-3.10218497882e-08
2.36793115807e-07
-3.22253084745e-08
2.36502485501e-07
-3.33854514363e-08
2.36160346823e-07
-3.44984512906e-08
2.35771465083e-07
-3.55591503371e-08
2.35340986182e-07
-3.65634052671e-08
2.34874242449e-07
-3.75060443487e-08
2.34376587006e-07
-3.8383060505e-08
2.33853258184e-07
-3.91897260777e-08
2.33309275093e-07
-3.99226036474e-08
2.32749368399e-07
-4.05777595287e-08
2.32177931333e-07
-4.11526021883e-08
2.3159900387e-07
-4.16441623041e-08
2.3101626084e-07
-4.20508031951e-08
2.30433030766e-07
-4.23705568965e-08
2.29852305854e-07
-4.26027235857e-08
2.29276766249e-07
-4.2743286718e-08
2.28708506759e-07
-4.27921259661e-08
2.28149867801e-07
-4.27521735922e-08
2.27602921619e-07
-4.26242783617e-08
2.27069366742e-07
-4.24088479127e-08
2.26550750961e-07
-4.21074149497e-08
2.26048510644e-07
-4.1721001316e-08
2.2556397014e-07
-4.12517115593e-08
2.25098384508e-07
-4.07011007977e-08
2.24652928749e-07
-4.00717845621e-08
2.24228729605e-07
-3.93657947219e-08
2.23826847237e-07
-3.85861952171e-08
2.23448299487e-07
-3.77354347741e-08
2.23094037578e-07
-3.68169542453e-08
2.22764962914e-07
-3.58335487393e-08
2.22461898443e-07
-3.47889498107e-08
2.22185598438e-07
-3.36862123204e-08
2.21936717135e-07
-3.25292555077e-08
2.21715812145e-07
-3.13212904348e-08
2.21523311813e-07
-3.00663067482e-08
2.21359513141e-07
-2.87675550161e-08
2.21224549174e-07
-2.74289710458e-08
2.2111838252e-07
-2.60537245122e-08
2.21040774087e-07
-2.46455788204e-08
2.2099127358e-07
-2.32075138074e-08
2.20969191215e-07
-2.17430254767e-08
2.20973587299e-07
-2.02548262006e-08
2.21003249398e-07
-1.8746091587e-08
2.21056684247e-07
-1.72192359118e-08
2.2113210388e-07
-1.56771138041e-08
2.2122742383e-07
-1.41218692823e-08
2.21340261896e-07
-1.25561135556e-08
2.21467946478e-07
-1.0981886794e-08
2.21607532573e-07
-9.40191311477e-09
2.21755829855e-07
-7.81886130212e-09
2.21909456918e-07
-6.23694916377e-09
2.22064935516e-07
-4.66173782295e-09
2.22218867086e-07
-3.10188298824e-09
2.22368210562e-07
-1.56856854436e-09
2.2251067504e-07
-7.38688063562e-11
2.22645247126e-07
1.35794167553e-09
2.22771608582e-07
2.72145072925e-09
2.2289476473e-07
4.03000628173e-09
2.23015031046e-07
5.27726065692e-09
2.23131109539e-07
6.45599299764e-09
2.23247923197e-07
7.56723823328e-09
2.2336903192e-07
8.61228970577e-09
2.2349701871e-07
9.59247420078e-09
2.23634177618e-07
1.05094227247e-08
2.23782495808e-07
1.13645093368e-08
2.23943606818e-07
1.21592350757e-08
2.24118838271e-07
1.28947961809e-08
2.24309218739e-07
1.35724436781e-08
2.24515497557e-07
1.41931338492e-08
2.24738166334e-07
1.47578486094e-08
2.24977472501e-07
1.52673002967e-08
2.25233440229e-07
1.57222201676e-08
2.25505881022e-07