/*--------------------------------*- C++ -*----------------------------------*\
| =========                 |                                                 |
| \\      /  F ield         | OpenFOAM: The Open Source CFD Toolbox           |
|  \\    /   O peration     | Version:  2206                                  |
|   \\  /    A nd           | Website:  www.openfoam.com                      |
|    \\/     M anipulation  |                                                 |
\*---------------------------------------------------------------------------*/
FoamFile
{
    version     2.0;
    format      ascii;
    arch        "LSB;label=64;scalar=64";
    class       surfaceScalarField;
    location    "424800";
    object      phi;
}
// * * * * * * * * * * * * * * * * * * * * * * * * * * * * * * * * * * * * * //

dimensions      [0 3 -1 0 0 0 0];

oriented        oriented;

internalField   nonuniform List<scalar> 
24
(
4.00307e-10
-4.00307e-10
7.06879e-10
-3.06573e-10
4.11528e-10
2.95351e-10
4.11528e-10
1.90895e-10
-5.91201e-10
3.2598e-10
-4.41658e-10
2.03873e-10
4.17458e-10
6.15402e-10
-2.28291e-10
-3.62911e-10
-4.22227e-10
-2.47722e-10
-2.35042e-10
2.30273e-10
3.8036e-10
-3.62911e-10
-6.10632e-10
-3.8036e-10
)
;

boundaryField
{
    movingWall
    {
        type            calculated;
        value           uniform 0;
    }
    fixedWalls
    {
        type            calculated;
        value           uniform 0;
    }
    frontAndBack
    {
        type            empty;
        value           nonuniform List<scalar> 0();
    }
}


// ************************************************************************* //
