/*--------------------------------*- C++ -*----------------------------------*\
| =========                 |                                                 |
| \\      /  F ield         | OpenFOAM: The Open Source CFD Toolbox           |
|  \\    /   O peration     | Version:  2212                                  |
|   \\  /    A nd           | Website:  www.openfoam.com                      |
|    \\/     M anipulation  |                                                 |
\*---------------------------------------------------------------------------*/
FoamFile
{
    version     2.0;
    format      ascii;
    arch        "LSB;label=64;scalar=64";
    class       volScalarField;
    location    "1000";
    object      Sch4;
}
// * * * * * * * * * * * * * * * * * * * * * * * * * * * * * * * * * * * * * //

dimensions      [1 -3 0 0 0 0 0];

internalField   nonuniform List<scalar> 
1024
(
0.0350426
0.0350558
0.035088
0.0351459
0.0352356
0.0353609
0.0355212
0.0357096
0.0359142
0.0361192
0.0363077
0.0364611
0.036561
0.0365939
0.0365493
0.0364176
0.0362044
0.0359493
0.0356849
0.0354169
0.0351469
0.0348771
0.034613
0.0343646
0.0341429
0.0339568
0.0338103
0.0337023
0.0336283
0.0335818
0.0335562
0.0335458
0.0350452
0.0350587
0.0350916
0.0351508
0.0352425
0.0353703
0.0355331
0.0357237
0.0359299
0.0361363
0.0363256
0.0364792
0.0365784
0.0366101
0.0365643
0.0364317
0.0362179
0.0359627
0.0356984
0.0354306
0.0351609
0.0348912
0.0346268
0.0343773
0.0341538
0.0339656
0.0338169
0.0337072
0.0336318
0.0335844
0.0335584
0.0335478
0.0350511
0.0350651
0.0350994
0.0351611
0.0352564
0.0353889
0.0355567
0.0357524
0.0359636
0.0361747
0.0363683
0.0365239
0.0366215
0.0366496
0.0365995
0.036463
0.0362466
0.03599
0.0357253
0.0354579
0.035189
0.0349199
0.0346551
0.0344036
0.0341768
0.0339843
0.0338313
0.0337178
0.0336397
0.0335906
0.0335636
0.0335527
0.035061
0.0350757
0.0351116
0.0351765
0.0352767
0.0354157
0.0355914
0.035796
0.0360174
0.0362397
0.0364438
0.0366052
0.0367008
0.0367213
0.0366613
0.0365152
0.0362913
0.0360302
0.0357636
0.0354963
0.0352286
0.0349608
0.0346962
0.0344427
0.0342116
0.0340132
0.0338539
0.0337348
0.0336526
0.0336008
0.0335724
0.0335608
0.0350752
0.0350904
0.0351282
0.0351964
0.0353022
0.0354494
0.035636
0.0358549
0.036094
0.036337
0.0365609
0.0367337
0.0368271
0.0368347
0.0367564
0.0365915
0.0363522
0.036081
0.0358093
0.0355408
0.0352744
0.0350088
0.0347454
0.0344906
0.0342552
0.0340501
0.0338834
0.0337576
0.0336701
0.033615
0.0335847
0.0335725
0.0350937
0.0351094
0.0351486
0.0352201
0.0353319
0.0354887
0.03569
0.0359298
0.0361966
0.0364722
0.036727
0.0369181
0.0370096
0.0369978
0.0368906
0.0366946
0.0364283
0.0361384
0.0358562
0.0355836
0.0353178
0.0350549
0.0347942
0.0345397
0.0343013
0.0340903
0.0339164
0.0337838
0.0336909
0.0336321
0.0335999
0.0335869
0.0351169
0.0351329
0.0351732
0.0352476
0.0353655
0.0355336
0.0357538
0.0360223
0.0363283
0.0366498
0.0369471
0.0371629
0.0372525
0.0372146
0.0370667
0.0368253
0.0365176
0.0361969
0.0358961
0.0356148
0.0353473
0.0350873
0.0348306
0.0345789
0.0343401
0.0341259
0.0339469
0.0338089
0.0337116
0.0336498
0.0336159
0.0336022
0.0351459
0.035162
0.0352031
0.0352801
0.0354044
0.0355858
0.0358297
0.0361358
0.0364932
0.0368738
0.0372233
0.037468
0.0375544
0.0374831
0.0372831
0.0369821
0.0366171
0.0362507
0.03592
0.0356228
0.0353501
0.0350919
0.0348405
0.0345943
0.0343594
0.0341463
0.0339665
0.0338266
0.0337273
0.033664
0.0336291
0.033615
0.0351834
0.0351995
0.0352414
0.0353212
0.0354529
0.0356502
0.0359235
0.0362763
0.0366973
0.0371485
0.0375569
0.0378307
0.0379093
0.0377972
0.0375362
0.0371645
0.0367266
0.0362966
0.0359206
0.035597
0.0353131
0.0350544
0.0348091
0.0345719
0.0343458
0.0341401
0.0339655
0.0338291
0.0337318
0.0336694
0.0336348
0.0336206
0.0352351
0.0352514
0.0352943
0.0353779
0.035519
0.0357363
0.036046
0.0364559
0.0369522
0.0374829
0.037952
0.0382504
0.0383138
0.0381551
0.0378298
0.0373824
0.0368582
0.0363425
0.0358989
0.0355322
0.0352269
0.0349633
0.034724
0.034499
0.0342878
0.0340968
0.0339351
0.0338086
0.033718
0.0336594
0.0336264
0.0336126
0.0353114
0.0353281
0.0353731
0.0354624
0.035617
0.0358606
0.0362163
0.0366952
0.0372783
0.0378941
0.0384209
0.0387347
0.0387758
0.0385723
0.0381918
0.0376755
0.0370564
0.0364277
0.0358827
0.0354433
0.0350964
0.0348165
0.0345796
0.034369
0.0341784
0.0340098
0.0338686
0.0337584
0.0336792
0.0336271
0.0335972
0.0335844
0.0354291
0.0354467
0.0354955
0.0355946
0.0357691
0.0360494
0.0364643
0.0370269
0.0377072
0.0384091
0.0389856
0.0393062
0.0393277
0.0391002
0.0386972
0.0381405
0.0374319
0.0366631
0.0359672
0.0354002
0.0349673
0.0346414
0.0343907
0.034189
0.0340204
0.033879
0.0337639
0.0336752
0.0336113
0.0335691
0.0335448
0.0335342
0.0356123
0.035632
0.0356877
0.0358025
0.0360075
0.036339
0.036831
0.0374934
0.0382786
0.0390623
0.0396795
0.0400088
0.0400386
0.039843
0.0394873
0.0389571
0.0382053
0.0373005
0.0364061
0.035627
0.0350158
0.0345662
0.0342446
0.0340155
0.0338499
0.0337281
0.0336391
0.0335767
0.0335367
0.0335144
0.0335045
0.0335016
0.0358912
0.0359144
0.0359812
0.0361207
0.0363704
0.036773
0.0373632
0.0381407
0.039034
0.0398927
0.0405494
0.0409151
0.0410221
0.0409597
0.0407691
0.0403958
0.0397393
0.0388122
0.037769
0.0367465
0.0358457
0.0351184
0.034572
0.0341841
0.03393
0.0337768
0.0336982
0.0336731
0.0336828
0.0337097
0.0337378
0.0337551
0.0362967
0.0363253
0.036409
0.0365849
0.0368985
0.0373968
0.038109
0.039014
0.0400114
0.0409373
0.0416479
0.042109
0.0423938
0.0425887
0.0427089
0.0426897
0.0424072
0.0417935
0.0409271
0.0399219
0.0388856
0.0379069
0.0370439
0.0363304
0.0358005
0.0354389
0.0352351
0.0351621
0.0351791
0.0352393
0.0353019
0.0353397
0.0368479
0.0368838
0.0369888
0.0372074
0.037591
0.0381857
0.0390076
0.0400135
0.0410882
0.042081
0.0428864
0.0435074
0.044027
0.0445186
0.0449991
0.0454489
0.0457928
0.0459228
0.0458036
0.0454642
0.0449461
0.0442992
0.0435767
0.0428335
0.0421254
0.0414848
0.0409564
0.0405694
0.040328
0.0402082
0.0401688
0.0401663
0.0373866
0.0374264
0.0375402
0.0377737
0.0381778
0.0387939
0.0396317
0.040646
0.0417342
0.0427673
0.0436518
0.0443775
0.0450002
0.045579
0.0461466
0.0467385
0.0473827
0.0480471
0.0486585
0.0491686
0.0495384
0.0497423
0.0497681
0.0496176
0.04931
0.0488869
0.0484037
0.0479253
0.0475153
0.0472177
0.0470444
0.0469756
0.037758
0.0377981
0.0379091
0.0381322
0.0385137
0.0390919
0.039877
0.0408321
0.0418699
0.0428752
0.0437502
0.044455
0.045007
0.0454431
0.0457967
0.046124
0.0465238
0.04708
0.0477665
0.048522
0.0492825
0.0499914
0.0506006
0.0510724
0.0513831
0.0515261
0.051517
0.0513933
0.0512107
0.0510304
0.0508993
0.0508364
0.0379598
0.0379992
0.0381032
0.0383059
0.0386474
0.0391628
0.0398651
0.0407277
0.0416792
0.0426177
0.0434443
0.0440979
0.0445658
0.0448663
0.0450321
0.0451291
0.0452906
0.0456672
0.0462677
0.0470401
0.047918
0.0488314
0.0497095
0.05049
0.0511279
0.0515998
0.0519053
0.0520645
0.0521131
0.0520967
0.0520598
0.0520344
0.0380302
0.0380689
0.0381658
0.0383471
0.0386451
0.0390905
0.0396985
0.0404526
0.0412972
0.0421453
0.0429036
0.0435019
0.0439095
0.0441323
0.0442042
0.044201
0.0442709
0.0445697
0.0451135
0.0458694
0.0467922
0.0478255
0.0488937
0.0499102
0.0507972
0.0515004
0.0520008
0.0523121
0.0524721
0.0525298
0.0525347
0.0525258
0.0380011
0.0380391
0.0381298
0.0382925
0.0385512
0.0389303
0.0394444
0.0400847
0.0408101
0.04155
0.0422227
0.04276
0.0431258
0.0433205
0.0433811
0.0433927
0.0435035
0.0438345
0.0443844
0.0451308
0.0460479
0.0471036
0.048244
0.0493913
0.0504564
0.0513562
0.0520392
0.0524961
0.0527557
0.0528706
0.0529009
0.052899
0.0379097
0.0379453
0.0380282
0.0381731
0.0383973
0.0387183
0.0391471
0.0396783
0.0402821
0.040904
0.0414796
0.0419528
0.0422932
0.0425039
0.0426252
0.0427449
0.0429921
0.0434328
0.0440422
0.0448041
0.0457078
0.0467411
0.0478754
0.0490571
0.050208
0.0512355
0.0520622
0.0526496
0.0530067
0.0531804
0.0532366
0.0532408
0.0378217
0.0378489
0.0379149
0.0380338
0.0382203
0.0384868
0.0388394
0.0392722
0.0397631
0.0402734
0.0407591
0.0411839
0.0415309
0.0418091
0.0420582
0.0423569
0.0427945
0.0433774
0.0440649
0.0448499
0.0457352
0.0467236
0.0478058
0.0489519
0.050105
0.051184
0.0521008
0.0527903
0.053235
0.053467
0.053551
0.0535618
0.037846
0.0378542
0.037884
0.0379542
0.0380841
0.0382865
0.0385649
0.0389121
0.039312
0.0397409
0.040176
0.0406005
0.0410095
0.0414135
0.0418423
0.0423549
0.0429896
0.043703
0.0444523
0.045244
0.0460925
0.047013
0.0480116
0.0490766
0.0501707
0.051232
0.0521785
0.0529311
0.0534456
0.0537313
0.053844
0.0538625
0.0381214
0.0380976
0.0380666
0.0380567
0.0380996
0.0382179
0.0384195
0.0386996
0.0390485
0.0394544
0.039908
0.0404023
0.0409335
0.0415038
0.0421268
0.0428373
0.043628
0.0444247
0.0451953
0.0459616
0.0467475
0.0475761
0.0484636
0.0494121
0.0504031
0.0513931
0.0523135
0.0530845
0.0536433
0.0539738
0.0541144
0.0541417
0.0387764
0.0387109
0.0386029
0.0384939
0.0384324
0.0384593
0.0385955
0.0388436
0.039198
0.0396498
0.0401897
0.0408053
0.0414828
0.0422114
0.0429887
0.0438306
0.0447002
0.0455135
0.0462553
0.04696
0.0476574
0.0483741
0.0491308
0.0499385
0.050793
0.0516698
0.0525171
0.0532624
0.0538345
0.0541954
0.0543611
0.054398
0.0398934
0.0397851
0.0396107
0.0394259
0.0392902
0.0392607
0.0393733
0.0396364
0.0400438
0.0405795
0.0412233
0.0419501
0.0427341
0.0435545
0.0443998
0.0452757
0.0461341
0.0468966
0.0475633
0.0481755
0.0487646
0.0493568
0.0499733
0.0506284
0.0513272
0.0520607
0.0527963
0.0534753
0.0540271
0.0543987
0.0545835
0.0546304
0.0415009
0.0413645
0.0411753
0.0409955
0.0408732
0.0408629
0.0410059
0.0413121
0.0417729
0.042365
0.0430587
0.0438201
0.0446178
0.0454282
0.046238
0.0470492
0.0478156
0.048473
0.0490309
0.0495305
0.0500008
0.0504649
0.0509414
0.0514445
0.0519831
0.0525585
0.053155
0.0537328
0.0542304
0.0545888
0.0547823
0.0548383
0.0436018
0.043473
0.0433595
0.0432944
0.0432833
0.0433564
0.0435506
0.0438795
0.0443381
0.0449047
0.0455495
0.0462393
0.0469449
0.0476458
0.0483307
0.0490006
0.0496184
0.0501362
0.0505667
0.0509452
0.0512955
0.0516359
0.051981
0.0523424
0.0527291
0.0531467
0.0535916
0.0540424
0.0544546
0.0547728
0.0549598
0.0550215
0.0462181
0.0461573
0.0462072
0.046312
0.0464335
0.0465835
0.046794
0.0470861
0.047464
0.0479151
0.0484176
0.0489464
0.0494793
0.0500011
0.0505038
0.0509881
0.051428
0.0517915
0.0520896
0.0523483
0.0525847
0.0528116
0.0530391
0.0532753
0.0535269
0.0537999
0.054096
0.0544075
0.0547091
0.0549597
0.0551205
0.0551808
0.049433
0.0494993
0.0496881
0.0498741
0.0500355
0.0501849
0.0503464
0.0505417
0.0507804
0.0510587
0.0513654
0.0516857
0.0520061
0.0523176
0.0526153
0.0528997
0.0531558
0.0533658
0.0535366
0.0536836
0.0538167
0.0539433
0.0540692
0.0541988
0.054336
0.0544847
0.0546474
0.0548227
0.0550004
0.0551588
0.0552705
0.0553183
0.0533688
0.0534273
0.0535336
0.0536245
0.0536979
0.05376
0.0538201
0.0538875
0.0539672
0.0540592
0.0541601
0.0542653
0.0543701
0.0544717
0.0545685
0.0546606
0.0547432
0.0548107
0.0548654
0.0549123
0.0549545
0.0549945
0.055034
0.0550745
0.0551172
0.0551632
0.0552136
0.0552683
0.055325
0.0553779
0.0554184
0.0554379
)
;

boundaryField
{
    movingWall
    {
        type            fixedValue;
        value           uniform 0.0555;
    }
    fixedWalls
    {
        type            zeroGradient;
    }
    floor
    {
        type            zeroGradient;
    }
    frontAndBack
    {
        type            empty;
    }
}


// ************************************************************************* //
