/*--------------------------------*- C++ -*----------------------------------*\
| =========                 |                                                 |
| \\      /  F ield         | OpenFOAM: The Open Source CFD Toolbox           |
|  \\    /   O peration     | Version:  2212                                  |
|   \\  /    A nd           | Website:  www.openfoam.com                      |
|    \\/     M anipulation  |                                                 |
\*---------------------------------------------------------------------------*/
FoamFile
{
    version     2.0;
    format      ascii;
    arch        "LSB;label=64;scalar=64";
    class       volScalarField;
    location    "1000";
    object      T;
}
// * * * * * * * * * * * * * * * * * * * * * * * * * * * * * * * * * * * * * //

dimensions      [0 0 0 1 0 0 0];

internalField   nonuniform List<scalar> 
1024
(
309.995
309.994
309.994
309.993
309.992
309.991
309.989
309.987
309.985
309.983
309.981
309.981
309.981
309.983
309.984
309.986
309.987
309.988
309.989
309.99
309.991
309.992
309.993
309.993
309.994
309.994
309.995
309.996
309.996
309.996
309.996
309.996
309.983
309.982
309.981
309.979
309.975
309.971
309.965
309.96
309.953
309.947
309.942
309.94
309.942
309.946
309.951
309.955
309.959
309.963
309.966
309.969
309.972
309.974
309.977
309.979
309.981
309.983
309.984
309.986
309.987
309.988
309.988
309.989
309.97
309.969
309.967
309.963
309.956
309.948
309.939
309.929
309.918
309.908
309.9
309.896
309.9
309.906
309.914
309.921
309.928
309.935
309.941
309.946
309.95
309.954
309.958
309.962
309.966
309.969
309.972
309.975
309.978
309.979
309.98
309.98
309.957
309.956
309.952
309.946
309.936
309.924
309.911
309.897
309.882
309.869
309.859
309.854
309.858
309.866
309.875
309.885
309.895
309.904
309.912
309.919
309.926
309.932
309.938
309.943
309.949
309.954
309.959
309.963
309.967
309.969
309.97
309.97
309.943
309.942
309.937
309.929
309.916
309.9
309.883
309.865
309.848
309.834
309.823
309.819
309.822
309.83
309.839
309.849
309.86
309.871
309.882
309.891
309.9
309.908
309.916
309.923
309.93
309.937
309.944
309.95
309.955
309.958
309.96
309.96
309.93
309.928
309.923
309.913
309.898
309.879
309.859
309.839
309.822
309.807
309.798
309.793
309.796
309.802
309.809
309.819
309.829
309.841
309.852
309.863
309.873
309.883
309.893
309.902
309.911
309.92
309.929
309.937
309.943
309.947
309.949
309.95
309.917
309.915
309.91
309.899
309.882
309.862
309.84
309.82
309.803
309.79
309.781
309.778
309.779
309.783
309.789
309.797
309.805
309.815
309.826
309.837
309.848
309.859
309.87
309.881
309.891
309.902
309.913
309.923
309.931
309.936
309.938
309.939
309.905
309.904
309.898
309.887
309.87
309.849
309.827
309.808
309.792
309.78
309.773
309.769
309.77
309.773
309.778
309.783
309.79
309.797
309.806
309.816
309.827
309.838
309.849
309.861
309.873
309.886
309.898
309.91
309.919
309.925
309.928
309.929
309.894
309.893
309.888
309.878
309.861
309.841
309.82
309.801
309.786
309.775
309.768
309.765
309.766
309.769
309.773
309.777
309.782
309.787
309.793
309.801
309.811
309.821
309.833
309.845
309.858
309.871
309.886
309.899
309.909
309.916
309.919
309.92
309.884
309.883
309.879
309.87
309.855
309.836
309.816
309.798
309.782
309.771
309.765
309.764
309.765
309.768
309.772
309.776
309.78
309.784
309.788
309.794
309.801
309.81
309.821
309.833
309.847
309.861
309.876
309.89
309.901
309.907
309.91
309.911
309.875
309.874
309.87
309.863
309.85
309.832
309.813
309.795
309.779
309.768
309.763
309.762
309.765
309.768
309.772
309.776
309.781
309.786
309.789
309.792
309.797
309.805
309.815
309.827
309.84
309.856
309.871
309.884
309.894
309.9
309.903
309.903
309.866
309.865
309.862
309.856
309.844
309.828
309.81
309.791
309.775
309.765
309.761
309.762
309.764
309.768
309.772
309.777
309.783
309.789
309.793
309.795
309.799
309.806
309.815
309.827
309.841
309.855
309.87
309.882
309.89
309.894
309.896
309.896
309.857
309.857
309.854
309.848
309.837
309.822
309.804
309.786
309.77
309.761
309.759
309.76
309.763
309.766
309.771
309.776
309.783
309.791
309.798
309.804
309.808
309.815
309.823
309.834
309.846
309.859
309.871
309.88
309.886
309.888
309.889
309.89
309.849
309.848
309.845
309.839
309.829
309.813
309.795
309.776
309.763
309.757
309.755
309.757
309.759
309.761
309.765
309.77
309.777
309.787
309.798
309.809
309.819
309.828
309.836
309.844
309.854
309.863
309.871
309.877
309.88
309.882
309.882
309.882
309.839
309.838
309.835
309.828
309.816
309.8
309.781
309.764
309.753
309.749
309.748
309.748
309.749
309.749
309.751
309.753
309.758
309.766
309.777
309.789
309.802
309.817
309.831
309.844
309.852
309.859
309.864
309.867
309.869
309.869
309.868
309.868
309.83
309.828
309.824
309.816
309.803
309.785
309.765
309.749
309.739
309.734
309.731
309.729
309.728
309.727
309.727
309.727
309.729
309.732
309.737
309.742
309.749
309.756
309.764
309.774
309.787
309.8
309.812
309.822
309.827
309.829
309.829
309.829
309.823
309.821
309.817
309.808
309.794
309.776
309.757
309.742
309.731
309.724
309.719
309.715
309.712
309.709
309.708
309.707
309.709
309.711
309.714
309.718
309.722
309.726
309.729
309.732
309.735
309.737
309.739
309.742
309.745
309.749
309.752
309.753
309.819
309.817
309.813
309.804
309.791
309.773
309.755
309.739
309.727
309.719
309.713
309.709
309.704
309.701
309.699
309.698
309.699
309.702
309.706
309.711
309.716
309.721
309.726
309.73
309.733
309.735
309.736
309.736
309.734
309.732
309.731
309.73
309.817
309.816
309.812
309.804
309.791
309.775
309.756
309.74
309.727
309.718
309.711
309.706
309.701
309.698
309.695
309.693
309.694
309.697
309.701
309.707
309.713
309.719
309.726
309.732
309.737
309.741
309.743
309.743
309.742
309.74
309.737
309.736
309.816
309.815
309.811
309.804
309.793
309.778
309.761
309.744
309.73
309.719
309.712
309.706
309.702
309.698
309.695
309.693
309.693
309.696
309.7
309.704
309.71
309.717
309.725
309.732
309.739
309.744
309.748
309.75
309.749
309.748
309.746
309.744
309.817
309.815
309.812
309.806
309.796
309.782
309.766
309.75
309.735
309.724
309.715
309.709
309.704
309.701
309.698
309.697
309.697
309.699
309.702
309.706
309.711
309.717
309.724
309.732
309.74
309.746
309.751
309.754
309.755
309.754
309.752
309.751
309.817
309.816
309.813
309.807
309.799
309.787
309.772
309.757
309.743
309.731
309.722
309.715
309.71
309.706
309.704
309.704
309.704
309.706
309.709
309.712
309.715
309.72
309.726
309.733
309.741
309.748
309.754
309.757
309.759
309.759
309.758
309.756
309.818
309.817
309.814
309.809
309.801
309.791
309.778
309.764
309.751
309.739
309.73
309.723
309.718
309.715
309.713
309.713
309.714
309.715
309.717
309.719
309.722
309.726
309.731
309.736
309.743
309.75
309.756
309.76
309.762
309.763
309.762
309.761
309.818
309.817
309.815
309.81
309.804
309.795
309.783
309.771
309.759
309.748
309.74
309.733
309.728
309.725
309.724
309.724
309.725
309.726
309.727
309.729
309.731
309.733
309.737
309.741
309.746
309.752
309.757
309.762
309.764
309.765
309.765
309.764
309.818
309.817
309.815
309.812
309.806
309.798
309.788
309.777
309.767
309.757
309.75
309.744
309.74
309.737
309.736
309.736
309.737
309.738
309.738
309.739
309.74
309.742
309.744
309.748
309.751
309.755
309.76
309.763
309.766
309.767
309.767
309.767
309.818
309.817
309.816
309.812
309.807
309.801
309.792
309.783
309.774
309.766
309.76
309.755
309.752
309.749
309.748
309.748
309.749
309.749
309.749
309.75
309.75
309.751
309.752
309.754
309.757
309.759
309.762
309.765
309.768
309.769
309.769
309.769
309.817
309.817
309.815
309.813
309.809
309.803
309.796
309.788
309.781
309.775
309.77
309.766
309.763
309.761
309.76
309.76
309.76
309.76
309.76
309.759
309.759
309.759
309.76
309.761
309.762
309.764
309.766
309.768
309.769
309.771
309.771
309.77
309.816
309.816
309.815
309.813
309.809
309.804
309.799
309.793
309.788
309.783
309.779
309.776
309.774
309.772
309.771
309.771
309.77
309.77
309.769
309.768
309.768
309.767
309.767
309.767
309.767
309.768
309.769
309.77
309.771
309.772
309.772
309.772
309.816
309.815
309.814
309.813
309.81
309.806
309.802
309.798
309.794
309.79
309.788
309.785
309.784
309.782
309.781
309.78
309.779
309.778
309.776
309.775
309.774
309.774
309.773
309.772
309.772
309.772
309.772
309.772
309.773
309.773
309.773
309.773
309.815
309.815
309.814
309.813
309.811
309.809
309.806
309.803
309.8
309.797
309.795
309.793
309.792
309.79
309.788
309.787
309.785
309.784
309.782
309.781
309.78
309.778
309.777
309.777
309.776
309.775
309.775
309.774
309.774
309.774
309.774
309.774
309.815
309.815
309.815
309.814
309.813
309.811
309.809
309.807
309.805
309.803
309.801
309.799
309.797
309.795
309.793
309.791
309.789
309.787
309.786
309.784
309.783
309.782
309.78
309.779
309.778
309.778
309.777
309.776
309.776
309.775
309.775
309.774
309.815
309.815
309.815
309.814
309.814
309.813
309.812
309.81
309.808
309.806
309.804
309.802
309.8
309.798
309.796
309.793
309.791
309.789
309.787
309.786
309.784
309.783
309.782
309.781
309.78
309.779
309.778
309.777
309.777
309.776
309.775
309.775
)
;

boundaryField
{
    movingWall
    {
        type            zeroGradient;
    }
    fixedWalls
    {
        type            zeroGradient;
    }
    floor
    {
        type            fixedValue;
        value           uniform 310;
    }
    frontAndBack
    {
        type            empty;
    }
}


// ************************************************************************* //
