/*--------------------------------*- C++ -*----------------------------------*\
| =========                 |                                                 |
| \\      /  F ield         | OpenFOAM: The Open Source CFD Toolbox           |
|  \\    /   O peration     | Version:  2206                                  |
|   \\  /    A nd           | Website:  www.openfoam.com                      |
|    \\/     M anipulation  |                                                 |
\*---------------------------------------------------------------------------*/
FoamFile
{
    version     2.0;
    format      ascii;
    arch        "LSB;label=64;scalar=64";
    class       volScalarField;
    location    "3.1/water";
    object      epsilonm;
}
// * * * * * * * * * * * * * * * * * * * * * * * * * * * * * * * * * * * * * //

dimensions      [0 2 -3 0 0 0 0];

internalField   nonuniform List<scalar> 
23300
(
0.00062758130799
0.000640863539036
0.000663028286818
0.000693648519125
0.000732444378399
0.000779510298788
0.000835186518304
0.000899962228792
0.000974404777404
0.00105909986909
0.00115459916
0.00126136743637
0.00137973600536
0.00150985568175
0.00165166285698
0.00180485087784
0.00196886100985
0.00214288282102
0.00232587605885
0.00251659829915
0.00271365041308
0.0029155172743
0.00312062090261
0.0033273573876
0.00353414339997
0.00373943873312
0.00394178008424
0.00413978720014
0.00433218504105
0.00451779731449
0.00469556118439
0.0048645135039
0.0050238018803
0.00517266776763
0.00531045597202
0.00543659689826
0.00555061481395
0.0056521103405
0.00574076652159
0.00581633173943
0.00587862140001
0.00592749955742
0.00596287045241
0.00598464895763
0.00599274094253
0.00598756718099
0.00596943725812
0.00593864335737
0.00589548967499
0.00584031674843
0.00577349555778
0.0056954448773
0.0056066142337
0.00550750482125
0.00539864559162
0.00528061939071
0.00515403312675
0.00501954885458
0.0048778483925
0.00472966852883
0.00457576047939
0.00441692817668
0.00425398306303
0.00408778419932
0.00391918921863
0.0037490947662
0.00357838467293
0.0034079692818
0.00323873217945
0.0030715673161
0.00290732616233
0.00274685240579
0.002590932276
0.00244032845973
0.00229573783973
0.00215782889264
0.00202721356044
0.00190449607376
0.00179027031012
0.00168519572155
0.00159004441385
0.00150584341183
0.00143403572266
0.0013767845106
0.00133727062978
0.00131880137592
0.00131854483566
0.00133098521064
0.00135249601474
0.00138089045613
0.00141476671347
0.00145314900009
0.00149527190611
0.00154048181568
0.00158816235156
0.00163771168003
0.00168851272821
0.00173993626655
0.001791328605
0.00184202464412
0.00189134325213
0.00193860385316
0.00198312507197
0.00202424173219
0.0020613045438
0.00209369582699
0.00212082900291
0.00214216216541
0.00215719667944
0.00216548810036
0.00216664333474
0.00216032793742
0.00214625995364
0.00212420932831
0.00209404044338
0.00205572320376
0.00200929658435
0.00195488054492
0.00189268152601
0.00182300380144
0.00174625805822
0.00166297604531
0.00157382370742
0.00147961916522
0.00138134769112
0.00128017649784
0.00117745888356
0.00107472552341
0.000973649481739
0.000875981507169
0.000783448848646
0.000697628765971
0.000619813784846
0.000550901999823
0.00049134028394
0.000441141248897
0.0003999757181
0.000367343072853
0.000342854456133
0.000326759882428
0.000745729986159
0.000755852577176
0.00077516975315
0.000803241682169
0.000839870925554
0.000885075172277
0.000939031679479
0.00100201729545
0.00107435060815
0.00115633582044
0.00124820888347
0.00135008504885
0.00146191150608
0.0015834263026
0.00171413006755
0.00185327169235
0.00199985414149
0.00215265780647
0.00231028407347
0.00247121075347
0.00263385859406
0.002796656744
0.0029581065313
0.00311683180752
0.00327161905856
0.00342143854688
0.00356545445909
0.00370301799497
0.00383365454804
0.00395703964163
0.00407297565369
0.00418136300496
0.004282177176
0.00437544359932
0.00446122066181
0.00453958156934
0.00461060440639
0.00467436057477
0.00473091038017
0.00478029604572
0.00482254049554
0.00485764273318
0.00488557775865
0.00490629329717
0.00491973375022
0.00492594911451
0.00492495063876
0.0049167247192
0.00490124810603
0.00487849718801
0.00484845642531
0.00481112364196
0.00476651554984
0.00471467209916
0.00465566086822
0.0045895814373
0.0045165690438
0.00443679905758
0.00435048976832
0.00425790668283
0.00415936408646
0.00405522870481
0.00394591956226
0.00383191044237
0.00371372753533
0.00359195009514
0.00346720543183
0.00334016727037
0.00321154788778
0.00308209405491
0.00295257672834
0.00282378531731
0.0026965165413
0.002571569387
0.00244973671699
0.00233180558593
0.00221855762521
0.00211078171502
0.00200929091385
0.00191495473926
0.00182873696855
0.00175174209374
0.00168524234668
0.00163064107713
0.00158924108916
0.00156159579086
0.00154655579741
0.00154194564872
0.00154569284505
0.00155611383015
0.00157188377825
0.00159194379291
0.0016154141441
0.0016415323247
0.00166960958392
0.00169900505444
0.00172910909095
0.00175933594759
0.00178911987323
0.0018179159405
0.00184520139548
0.00187047930864
0.00189328140745
0.00191317191548
0.00192975001621
0.00194265259329
0.0019515554195
0.00195617421159
0.00195626416564
0.00195161915541
0.00194206954717
0.0019274796027
0.00190774383245
0.00188278377195
0.00185255548915
0.00181706453694
0.00177634535992
0.00173046274649
0.00167951511964
0.00162364048462
0.00156302538439
0.00149791760987
0.00142864280838
0.00135562504416
0.00127941013035
0.0012006894911
0.00112032001398
0.00103933351313
0.000958927430065
0.000880428993255
0.000805228286894
0.000734683538571
0.000670011356188
0.000612182486558
0.00056184280282
0.000519266176985
0.000484316807468
0.000456346074975
0.000433841899346
0.000413458148652
0.000859167138627
0.000867902641743
0.00088536343079
0.000911393573359
0.000945924163555
0.000988978364396
0.00104065020025
0.00110106987874
0.00117036210363
0.00124860096561
0.00133576406202
0.00143168849763
0.00153603226028
0.0016482447731
0.00176755100637
0.00189295235015
0.00202324670069
0.00215706712594
0.0022929369828
0.0024293357346
0.00256476952765
0.00269783834434
0.00282729410668
0.00295208358584
0.00307137462249
0.00318456389517
0.00329126941097
0.00339130930452
0.00348467256736
0.00357148403262
0.00365196905439
0.00372641896336
0.00379516114262
0.00385853305105
0.00391686238614
0.00397045151166
0.00401956729792
0.00406443413336
0.00410523081431
0.00414208934875
0.00417509631343
0.00420429555764
0.00422969325415
0.00425126532873
0.0042689430744
0.00428259127575
0.00429206830548
0.00429722191821
0.00429789049815
0.00429390727161
0.00428510461841
0.00427131907977
0.00425239554377
0.00422819228047
0.00419858503107
0.00416347221147
0.00412277900882
0.00407646272798
0.00402451679259
0.00396697600599
0.00390392016999
0.00383547886155
0.00376183422541
0.00368322472552
0.0035999465466
0.00351235568631
0.00342086734795
0.00332595574862
0.00322815098111
0.00312803613444
0.00302624149244
0.00292343917636
0.00282033543129
0.00271766418583
0.00261617961651
0.00251665157977
0.00241986201888
0.00232660589863
0.0022376941795
0.00215396031329
0.00207626437987
0.00200548988505
0.00194251777344
0.00188815914989
0.00184301656362
0.00180726001807
0.00178046299501
0.00176171089578
0.00174989663114
0.00174393017854
0.00174280950984
0.00174563539394
0.00175160211482
0.00175998241336
0.00177011283679
0.00178138299252
0.00179322790529
0.00180512384149
0.00181658586303
0.00182716721778
0.00183645913139
0.00184409130902
0.00184973209531
0.00185308873359
0.00185390693763
0.00185197024537
0.0018470985571
0.00183914631845
0.00182799991672
0.00181357474087
0.00179581164225
0.00177467328633
0.00175014041957
0.00172220880556
0.0016908818186
0.00165617914402
0.00161813051504
0.00157677511816
0.00153216317186
0.00148436021511
0.00143345454637
0.00137956843369
0.00132287343097
0.00126360990159
0.00120211000155
0.00113882234785
0.00107433491988
0.00100939116266
0.000944892896012
0.000881883903232
0.000821510422966
0.000764959977054
0.000713386454119
0.000667834922907
0.000629180478544
0.000598089271604
0.000574994567204
0.000560050918152
0.000552938759528
0.000552757376599
0.000959361498046
0.000967689925098
0.000984336567104
0.00100927096241
0.0010424788482
0.0010839705225
0.00113377035784
0.00119189357114
0.00125831478457
0.00133293228069
0.00141553123534
0.00150574961709
0.0016030505311
0.00170670500101
0.00181578871328
0.00192919521623
0.00204566641545
0.00216383884733
0.00228230225353
0.00239966463169
0.00251461748309
0.00262599415411
0.00273281619711
0.00283432335949
0.0029299864419
0.00301950295488
0.0031027790156
0.00317990023248
0.00325109674316
0.00331670532041
0.00337713295957
0.00343282331934
0.00348422861987
0.00353178663775
0.00357590382606
0.00361694318153
0.00365521702575
0.00369098312887
0.00372444405768
0.00375574851948
0.00378499456696
0.00381223403743
0.00383747820801
0.00386070502175
0.00388185773653
0.00390070828633
0.00391705644037
0.00393069448641
0.00394140719927
0.00394897414255
0.00395317201528
0.00395377822579
0.00395057385303
0.00394334780126
0.00393190009501
0.00391604648106
0.0038956219961
0.00387048592981
0.00384052556539
0.00380566132872
0.00376585049143
0.00372109220664
0.00367143083453
0.00361696043446
0.00355782724691
0.00349423309772
0.00342643647783
0.00335475426006
0.00327956081668
0.0032012875301
0.00312041958007
0.00303749307131
0.00295308964193
0.00286783174414
0.00278237609065
0.00269740852087
0.00261363796682
0.00253179234137
0.00245261341216
0.00237685176596
0.00230525668225
0.00223855855874
0.00217743557384
0.00212246070481
0.00207402631535
0.00203226306089
0.00199699646486
0.00196784486209
0.00194418001995
0.00192529768008
0.00191047685182
0.00189901516633
0.0018902466064
0.00188354973956
0.00187835010248
0.00187412061337
0.00187038051468
0.00186669445718
0.00186267109852
0.00185796209272
0.00185226066108
0.0018453004171
0.00183685370459
0.00182673002808
0.00181477394017
0.00180086289228
0.00178490453287
0.00176683391064
0.00174661020215
0.00172421339721
0.00169964071123
0.00167290316932
0.00164402230891
0.00161302747011
0.00157994384383
0.00154479503904
0.00150760604774
0.00146840275662
0.00142721337226
0.0013840722376
0.00133902644186
0.00129214578951
0.00124353645632
0.00119335848378
0.00114184660101
0.001089333116
0.00103627042338
0.00098324966669
0.000931011322762
0.000880443980693
0.000832569556043
0.000788517161837
0.000749492846778
0.00071675751397
0.00069162912367
0.000675528371926
0.00067009057919
0.00067736359908
0.000699956733499
0.000741299732007
0.00105310885491
0.00106117484488
0.00107729563357
0.00110145890547
0.00113365094514
0.00117385178265
0.00122202231947
0.00127808399017
0.00134189294451
0.00141321162924
0.00149168088074
0.00157679611191
0.00166789099274
0.00176413199125
0.00186452618614
0.00196794361773
0.00207315373059
0.00217887353607
0.0022838235541
0.0023867860636
0.00248666011425
0.00258250760154
0.00267358661979
0.00275936925745
0.00283954398052
0.0029140034814
0.00298282148862
0.00304622148319
0.00310454182816
0.00315819999951
0.00320765939173
0.00325339983696
0.00329589359203
0.00333558643456
0.00337288428372
0.00340814421782
0.00344166964291
0.00347370842761
0.00350445357224
0.00353404557814
0.0035625760746
0.0035900923615
0.00361660240441
0.00364208040522
0.00366647204018
0.00368954011534
0.00371106195019
0.00373080929494
0.00374854846878
0.00376404175726
0.00377704862967
0.00378732826285
0.00379464154009
0.0037987543354
0.00379944001189
0.00379648326425
0.00378968298992
0.0037788565738
0.00376384302976
0.00374450758594
0.00372074493901
0.00369248392155
0.00365969062222
0.00362237281805
0.0035805826115
0.00353442020897
0.00348403563102
0.00342963133908
0.00337146252207
0.00330983806234
0.00324511894935
0.00317771720281
0.00310809218746
0.00303674743635
0.00296422504294
0.00289110073424
0.00281797677621
0.00274547551891
0.00267423041546
0.00260487639346
0.00253803552504
0.00247429864703
0.00241419869094
0.00235817762083
0.00230654773878
0.00225945820942
0.00221687890752
0.00217864859158
0.00214449188622
0.00211398167389
0.00208664324619
0.00206198372689
0.00203951336855
0.00201876076983
0.00199928232288
0.00198066847254
0.00196254678835
0.00194458369809
0.00192648448119
0.00190799282742
0.00188888938778
0.00186899027979
0.00184814493396
0.00182623401463
0.0018031668371
0.00177887886407
0.00175332879007
0.0017264957051
0.00169837596259
0.0016689801897
0.00163833019399
0.0016064561755
0.0015733941064
0.00153918357765
0.00150385494662
0.00146742818164
0.00142992145116
0.00139135125334
0.0013517342111
0.0013110909291
0.0012694522351
0.00122686830818
0.00118342097808
0.00113923938976
0.00109451872197
0.00104954119716
0.00100469785715
0.000960509137944
0.000917642107452
0.000876923228524
0.000839347739706
0.000806090867472
0.000778531684322
0.000758307909362
0.000747430123044
0.000748501319217
0.000765122027823
0.000802623664561
0.000869265755237
0.000977908478462
0.00114110402429
0.00114902168123
0.00116483598167
0.00118852095995
0.00122003685394
0.00125931886011
0.00130626206455
0.00136070236237
0.00142239471355
0.00149099118448
0.00156602144271
0.00164687876285
0.00173281422129
0.00182294134358
0.00191625237895
0.00201164629345
0.00210796704547
0.00220404939654
0.00229876839946
0.00239108795743
0.00248010401302
0.00256507824829
0.00264545977128
0.00272089327911
0.00279121440397
0.00285643362831
0.00291671191845
0.00297233083565
0.00302366074658
0.0030711294166
0.00311519353111
0.00315631405907
0.00319493652715
0.00323147592811
0.00326630626274
0.00329975389733
0.00333209423837
0.00336355093626
0.00339429698727
0.00342445727686
0.0034541119184
0.00348330035971
0.0035120255905
0.003540258877
0.00356794425653
0.00359488099941
0.00362083734049
0.00364557848836
0.00366886621073
0.003690459619
0.00371011567493
0.00372759104117
0.00374264338947
0.00375503403607
0.0037645297819
0.00377090611605
0.00377394943665
0.00377346069255
0.00376925787856
0.00376117999076
0.00374908966924
0.00373287730162
0.00371246363275
0.00368780378615
0.00365888958885
0.00362575320389
0.00358846884055
0.00354715561523
0.00350197824948
0.00345314872351
0.0034009255346
0.00334561370996
0.00328756224259
0.00322716211897
0.0031648416754
0.00310106242978
0.00303631218694
0.00297109841176
0.00290593862205
0.00284135044582
0.00277783800122
0.00271587701368
0.00265589587826
0.00259825604974
0.00254323133265
0.00249099216412
0.00244159709372
0.0023949972776
0.00235111570315
0.00230978949152
0.00227074888878
0.0022336961101
0.00219832117248
0.00216431568476
0.00213138274235
0.0020992446088
0.00206764733014
0.00203636391628
0.00200519545907
0.00197397158744
0.00194254965567
0.00191081375297
0.00187867292405
0.00184605943103
0.00181292648504
0.00177924609715
0.00174500655966
0.00171021008766
0.00167487023876
0.00163900956284
0.00160265721402
0.00156584691888
0.00152861510635
0.00149099942096
0.00145302654286
0.00141470848651
0.00137605504134
0.00133707455016
0.00129777616504
0.00125817389958
0.00121829271536
0.00117817708672
0.00113790228703
0.00109758864088
0.0010574186204
0.00101765648005
0.000978669729057
0.000940951805062
0.000905145716527
0.000872070065096
0.00084275186379
0.000818475991958
0.000800869532912
0.000792053046564
0.000794914796038
0.000813611094521
0.000854496681569
0.000927911098382
0.00105164575401
0.00125713774513
0.00122408220429
0.00123195593159
0.00124766580202
0.00127115903192
0.00130235621982
0.00134113802325
0.0013873299301
0.00144068523218
0.0015008676175
0.00156743553168
0.00163983070659
0.00171737320549
0.00179926464607
0.00188460079051
0.00197239347011
0.00206160102284
0.00215116520914
0.00224005191363
0.00232729224015
0.0024120205184
0.00249350596415
0.00257117537348
0.00264462534998
0.00271362357121
0.00277810001501
0.00283812972647
0.00289390968334
0.00294573216895
0.00299395733509
0.00303898683776
0.00308124025671
0.00312113507771
0.00315907076385
0.00319541680754
0.00323050446674
0.00326462171723
0.00329801074733
0.00333086760339
0.00336334320259
0.00339554561914
0.00342754283005
0.00345936620368
0.00349101390444
0.00352245495486
0.00355363314729
0.00358440621454
0.00361453873124
0.00364379454759
0.00367193562435
0.00369872245858
0.00372391418462
0.00374727003127
0.00376855014487
0.00378751776409
0.00380394053742
0.00381759322889
0.00382825938311
0.00383573442903
0.00383982758215
0.00384036522837
0.00383719295179
0.00383017906442
0.00381921662128
0.00380422692485
0.00378516134618
0.00376200458265
0.0037347760488
0.0037035326074
0.0036683692337
0.00362942088014
0.00358686206339
0.00354090747641
0.00349181011513
0.00343986023472
0.00338538163672
0.00332872858684
0.00327027991725
0.00321043356105
0.00314959816863
0.00308818498701
0.00302659686725
0.00296521764078
0.00290439926035
0.00284445031132
0.00278562415499
0.00272811071414
0.00267203076362
0.00261743618837
0.00256431548224
0.00251270339214
0.00246255572766
0.00241374446319
0.0023661253828
0.00231954669595
0.00227385611046
0.00222890722671
0.00218456387933
0.00214070364996
0.00209721956085
0.00205402129154
0.00201103513959
0.00196820383579
0.00192548551681
0.00188285273569
0.00184029089949
0.00179779683495
0.00175537697245
0.00171304571617
0.00167082359957
0.00162873569911
0.00158681001463
0.0015450762143
0.00150356451195
0.00146230487008
0.00142131660612
0.00138060164725
0.00134016048198
0.00129999349398
0.00126010362513
0.00122050062858
0.00118120707476
0.00114226650935
0.00110375397609
0.00106578920742
0.00102855253626
0.000992303625033
0.000957403011947
0.000924336963394
0.000893747045777
0.000866468176063
0.000843582995171
0.000826507921651
0.00081713917316
0.000818110989338
0.000833265088569
0.0008685300074
0.000933636150707
0.00104564106536
0.00123653934602
0.00156942133064
0.00130285826541
0.00131078775436
0.00132658847904
0.00135017397874
0.0013814175209
0.00142013888509
0.00146609079165
0.00151894507644
0.00157828019345
0.00164357214063
0.00171419067552
0.00178940241306
0.00186838154801
0.00195022826472
0.00203399384521
0.00211871105744
0.00220342752113
0.00228723975988
0.00236932521355
0.00244896994905
0.00252558990857
0.00259874439053
0.00266814100349
0.00273363233143
0.00279520517453
0.00285296394695
0.00290711007876
0.00295791944651
0.0030057196113
0.00305086842294
0.00309373497645
0.00313468366423
0.00317406141153
0.00321218821988
0.00324935048905
0.00328579702061
0.00332173688033
0.00335733911931
0.00339273342456
0.00342801195398
0.0034632313671
0.00349841561557
0.00353355845065
0.00356862660359
0.00360356264529
0.00363829322914
0.00367258570467
0.00370620474059
0.00373891302782
0.0037704725018
0.0038006445157
0.00382919112309
0.00385587552865
0.00388046391275
0.00390272631121
0.00392243892959
0.00393938533452
0.00395335912335
0.00396416530838
0.00397162322256
0.00397556799038
0.00397585355208
0.0039723541089
0.00396496713364
0.00395361465736
0.00393824610679
0.00391883926743
0.00389540275013
0.00386797642358
0.0038366332656
0.0038014790097
0.00376265308654
0.00372032718266
0.00367470493613
0.00362601907886
0.00357452954391
0.00352051889397
0.0034642885823
0.00340615253999
0.00334643161983
0.00328544565886
0.00322350675251
0.00316091086813
0.00309793137592
0.00303481187843
0.00297176163255
0.00290895105399
0.00284651043365
0.00278452962445
0.00272306341022
0.00266226047556
0.00260220418618
0.00254289366855
0.00248431768377
0.00242645669485
0.00236928674628
0.00231278246738
0.00225692012986
0.00220167930184
0.00214704444987
0.00209300547309
0.00203955826165
0.0019867044476
0.00193445124876
0.00188281072092
0.00183179915504
0.00178143606684
0.00173174337994
0.00168274437078
0.00163446287193
0.00158692241511
0.00154014572737
0.0014941543219
0.001448968378
0.00140459937629
0.00136103826147
0.00131827571167
0.00127630390188
0.00123511948254
0.00119472799238
0.00115514980019
0.00111642794011
0.00107863803297
0.00104190065834
0.00100639638592
0.000972383901569
0.000940221801139
0.000910395459764
0.000883551758023
0.000860547479318
0.000842522470212
0.000831018631408
0.000828184240272
0.00083713981792
0.000862658997987
0.00091249307925
0.00100009397917
0.00115059948722
0.0014149314291
0.00190376872599
0.00137828539186
0.00138636872279
0.00140245380009
0.00142641634425
0.00145807732286
0.00149719123831
0.00154343535783
0.00159640006887
0.0016555819891
0.00172038154494
0.00179010653756
0.00186398246534
0.00194116930321
0.00202078397193
0.00210192671082
0.00218370963299
0.00226528518202
0.0023458728116
0.00242478193616
0.00250143009486
0.00257535512096
0.00264622112133
0.00271381798852
0.00277805519418
0.00283895047912
0.00289661492263
0.0029512354821
0.00300305667982
0.00305236237564
0.00309945896107
0.00314466032649
0.00318827539986
0.0032305979671
0.00327189918088
0.00331242201647
0.00335237796353
0.00339194497681
0.00343126707767
0.00347045451768
0.00350958511134
0.00354870556279
0.00358783363993
0.00362695989835
0.00366605000718
0.00370504605099
0.00374390793304
0.00378245733011
0.0038204548323
0.00385766000856
0.00389383330728
0.00392873590894
0.00396213062542
0.0039937818976
0.00402345728336
0.0040509279289
0.00407597055844
0.00409836824908
0.00411791275125
0.0041344054253
0.0041476597636
0.0041575023817
0.00416377563363
0.00416633856195
0.00416506950054
0.00415986688498
0.00415065172785
0.00413736817773
0.004119985733
0.00409849941505
0.00407293155873
0.00404333143502
0.00400977642205
0.00397237087981
0.00393124647476
0.00388656009034
0.00383849307717
0.00378724801953
0.00373304677287
0.00367612607758
0.00361673451498
0.00355512733546
0.00349156290885
0.00342629755396
0.00335958229893
0.00329165839037
0.00322275466984
0.00315308372412
0.00308283971499
0.00301219555513
0.00294130241971
0.00287029210568
0.00279940251924
0.0027288554445
0.00265875905835
0.00258921077584
0.00252029589603
0.00245208985481
0.00238465998648
0.00231806651809
0.00225236409542
0.00218760254143
0.00212382791183
0.00206108285491
0.00199940718459
0.00193883788302
0.001879409295
0.00182115289887
0.00176409728422
0.00170826786052
0.00165368681784
0.00160037298625
0.00154834202783
0.00149760667964
0.0014481772674
0.00140005902753
0.00135323181581
0.00130767633285
0.00126337617991
0.0012203210735
0.00117851138442
0.00113796402144
0.00109871999637
0.00106085385192
0.00102448537929
0.000989793967803
0.000957036301849
0.000926568436345
0.000898874391882
0.000874605161198
0.000854635679706
0.000840153763397
0.000832807520728
0.000834961990299
0.000850166449824
0.000884046222199
0.000946101485641
0.00105358815703
0.00124058554388
0.00158104399632
0.0022501643912
0.00145122120345
0.00145955670723
0.00147612073513
0.0015007482929
0.00153320435619
0.00157317442221
0.00162025752329
0.00167396148896
0.00173370203841
0.00179880724107
0.0018685281333
0.00194205546412
0.00201854145983
0.00209712497946
0.00217695775223
0.00225722991558
0.00233719277368
0.00241617787726
0.00249361126022
0.00256902293765
0.00264205124429
0.00271244275069
0.00278004774338
0.00284481237396
0.00290676770987
0.00296601703491
0.00302272172529
0.00307708709856
0.00312934839608
0.00317975811234
0.00322857445114
0.00327605183926
0.00332243285822
0.00336794232254
0.0034127825454
0.0034571304806
0.00350113558574
0.00354491919672
0.00358857413697
0.00363216553128
0.00367573144561
0.003719284548
0.00376281334466
0.00380628457066
0.00384964559197
0.00389282950875
0.00393578510881
0.0039782582608
0.00402000079995
0.00406076842104
0.00410031909111
0.00413841340768
0.00417481415325
0.00420928749029
0.00424160305033
0.00427153564724
0.00429886567442
0.00432338114212
0.0043448782249
0.00436316348544
0.00437805446355
0.00438938198431
0.00439699070537
0.00440074142332
0.0044005115064
0.00439619711715
0.00438771345876
0.00437499682791
0.00435800459613
0.00433671699567
0.00431113674502
0.00428129045483
0.0042472277926
0.00420902238246
0.00416677039984
0.00412059084629
0.00407062349898
0.00401702850974
0.00395998375311
0.00389968386959
0.00383633726937
0.00377016494798
0.00370139752212
0.0036302740659
0.00355703919144
0.00348194154266
0.00340523028597
0.00332715260683
0.00324794936679
0.0031678523289
0.00308708088324
0.00300584398884
0.00292441542644
0.00284317773625
0.00276232658222
0.00268203978554
0.0026024820574
0.00252380355976
0.00244613910297
0.00236960923271
0.00229432087781
0.00222036858784
0.00214783525305
0.00207679320663
0.00200730481991
0.00193942337117
0.00187319349591
0.00180865187449
0.00174582762672
0.00168474295889
0.00162541366649
0.00156784994369
0.00151205718066
0.00145803700273
0.00140579068243
0.00135528833185
0.00130650084899
0.00125940295483
0.00121397663124
0.00117021579104
0.00112813211748
0.00108776239986
0.0010491775478
0.00101249377412
0.000977886401781
0.000945607238736
0.00091600691403
0.000889564897259
0.000866931983932
0.000848994243757
0.000836974964756
0.000832606037045
0.000838430140794
0.000858359881873
0.000898769381815
0.000970766606743
0.00109530533604
0.00131578514434
0.00173227420209
0.00260042988224
0.00152250825091
0.00153119563713
0.00154843619825
0.00157402182243
0.0016076581191
0.00164895792888
0.00169743862625
0.00175252286018
0.00181354412954
0.00187975812341
0.00195036018318
0.00202450800726
0.00210134752228
0.00218003976891
0.00225978604715
0.00233984966848
0.00241957259628
0.00249838693401
0.00257582088961
0.00265150041869
0.00272514676813
0.00279657144934
0.00286566871728
0.00293240691746
0.00299681845524
0.00305898960506
0.00311904971935
0.0031771610355
0.00323350850691
0.00328829084429
0.00334171200804
0.00339397428496
0.00344527195997
0.00349578667342
0.00354568326045
0.00359510718441
0.00364418219253
0.00369300939948
0.00374166629213
0.00379020700146
0.00383866220188
0.00388704014608
0.00393532705709
0.00398348861153
0.00403147070349
0.00407920163889
0.00412673147554
0.00417380711598
0.00422017550227
0.00426558576535
0.00430978942934
0.00435254136636
0.00439359921805
0.00443272437547
0.00446968169301
0.00450424094692
0.00453617687292
0.00456527096685
0.0045913116885
0.0046140964589
0.0046334319183
0.00464913602179
0.00466103827769
0.0046689818706
0.00467282382733
0.00467243711005
0.00466771066721
0.00465855144513
0.00464488428508
0.00462665380169
0.00460382408713
0.00457638040171
0.00454432864509
0.00450769680268
0.00446653414763
0.00442091239507
0.00437092462042
0.00431668610832
0.00425833302788
0.00419602303
0.00412993378439
0.00406026340059
0.00398722885629
0.00391106608762
0.00383202793337
0.00375038323332
0.00366641348502
0.00358041020232
0.00349266994709
0.00340349025103
0.0033131643636
0.00322197835332
0.00313021000152
0.00303810448068
0.00294624334357
0.00285486089322
0.00276420276716
0.00267449471344
0.00258593944939
0.00249871903105
0.00241299488171
0.00232890888427
0.00224658417501
0.00216612651305
0.00208762526151
0.00201115475824
0.00193677529738
0.00186453440043
0.00179446778475
0.0017266006024
0.00166094850947
0.00159751905186
0.00153631306448
0.00147732656435
0.00142055292348
0.00136596187693
0.00131351396648
0.00126317452067
0.00121491694205
0.00116872738075
0.0011246104954
0.00108259657872
0.00104275022239
0.00100518106447
0.000970057166061
0.000937622146059
0.000908217753436
0.000882315059158
0.000860559764338
0.000843841813346
0.000833408006248
0.000831053417832
0.000839462646551
0.000862850191111
0.000908235336519
0.000988167976419
0.00112708267932
0.00137769669927
0.00186817333243
0.0029480052498
0.00159297455543
0.00160211587754
0.00162023515849
0.00164707886326
0.00168228980403
0.00172540389859
0.00177585239958
0.00183296855092
0.00189599984782
0.00196412655692
0.00203648595143
0.00211220057756
0.00219040778101
0.00227028767174
0.00235108653959
0.00243213434095
0.00251285497071
0.00259277023982
0.00267149794397
0.00274874629697
0.0028243054611
0.00289803840325
0.00296987110048
0.00303978365797
0.0031078015386
0.00317398801543
0.00323843663523
0.00330126477211
0.00336260698379
0.00342260941667
0.0034814239685
0.00353920361049
0.00359609751076
0.00365224745535
0.00370778408093
0.00376282448612
0.00381746958808
0.00387180287568
0.00392588877931
0.00397977241554
0.00403347877285
0.00408701320943
0.00414036113249
0.00419348877049
0.00424634243033
0.00429884750568
0.00435107022042
0.00440286018782
0.0044539511715
0.00450407854277
0.00455298189673
0.00460040591802
0.00464609914932
0.0046898145218
0.00473130858784
0.00477034269955
0.00480668268169
0.00484010042472
0.0048703737778
0.00489728837798
0.00492063763708
0.00494022470742
0.00495586249544
0.00496737570423
0.00497460083594
0.00497738827155
0.0049756022397
0.00496912290435
0.00495784628597
0.00494168633263
0.00492057478417
0.00489446320401
0.00486332278033
0.00482714629686
0.00478594786807
0.00473976482856
0.00468865740312
0.00463271049558
0.00457203329465
0.00450676092973
0.00443705397447
0.00436309984554
0.00428511199431
0.0042033306549
0.00411802116195
0.00402947329993
0.00393799796402
0.00384392444468
0.00374759512658
0.00364936090603
0.0035495746856
0.00344858622762
0.00334673615906
0.00324435081791
0.00314174553065
0.00303942940573
0.00293781888139
0.00283720473693
0.00273784538851
0.00263997908584
0.00254381888139
0.00244955286744
0.00235734468457
0.0022673348184
0.00217964174459
0.00209436359757
0.0020115795098
0.00193135131237
0.001853724941
0.00177873214644
0.00170639202467
0.00163671288774
0.00156969413165
0.00150532850684
0.00144360427531
0.00138449532314
0.0013279527333
0.0012739324503
0.0012223987683
0.00117332902901
0.00112671930037
0.00108259132758
0.00104100092128
0.00100204836753
0.000965891478634
0.000932762564344
0.000902991230221
0.000877036552061
0.000855534696458
0.000839373157775
0.000829812137439
0.000828692669815
0.000838811125598
0.000864630531859
0.000913720372509
0.000999905202365
0.00115082833137
0.00142825268334
0.00198938251698
0.00328745462812
0.00166345158526
0.00167315222991
0.00169235891205
0.00172077017715
0.00175796203129
0.001803388399
0.00185638850106
0.00191619985533
0.00198197775265
0.00205282107086
0.00212780341211
0.00220600697932
0.00228655544974
0.00236864268547
0.00245155401804
0.0025346791175
0.0026175156951
0.00269966597786
0.00278082710621
0.00286077878193
0.00293936931473
0.00301650293782
0.00309212824363
0.00316622947675
0.0032388192512
0.00330993373487
0.00337962829152
0.00344797462033
0.00351505738497
0.00358097172345
0.00364581979808
0.00370970812561