/*--------------------------------*- C++ -*----------------------------------*\
| =========                 |                                                 |
| \\      /  F ield         | OpenFOAM: The Open Source CFD Toolbox           |
|  \\    /   O peration     | Version:  2206                                  |
|   \\  /    A nd           | Website:  www.openfoam.com                      |
|    \\/     M anipulation  |                                                 |
\*---------------------------------------------------------------------------*/
FoamFile
{
    version     2.0;
    format      ascii;
    arch        "LSB;label=64;scalar=64";
    class       volScalarField;
    location    "3.1/water";
    object      p;
}
// * * * * * * * * * * * * * * * * * * * * * * * * * * * * * * * * * * * * * //

dimensions      [1 -1 -2 0 0 0 0];

internalField   nonuniform List<scalar> 
23300
(
100720.330131
100720.388513
100720.387292
100720.387523
100720.389175
100720.3925
100720.398059
100720.406208
100720.417435
100720.431923
100720.449964
100720.471533
100720.496719
100720.52533
100720.557307
100720.592359
100720.630356
100720.670984
100720.714112
100720.759461
100720.806942
100720.856341
100720.907631
100720.960668
100721.015489
100721.072012
100721.130322
100721.190385
100721.25232
100721.316119
100721.381913
100721.449701
100721.519605
100721.591613
100721.665821
100721.74219
100721.820777
100721.901507
100721.984394
100722.069322
100722.156258
100722.245046
100722.33561
100722.427758
100722.521349
100722.616135
100722.711965
100722.808588
100722.905819
100723.003383
100723.101069
100723.198588
100723.295713
100723.392147
100723.487655
100723.581941
100723.674771
100723.765857
100723.854975
100723.941851
100724.026276
100724.108002
100724.186843
100724.262579
100724.335053
100724.404079
100724.469538
100724.53128
100724.589226
100724.643271
100724.693383
100724.739506
100724.781666
100724.819869
100724.854214
100724.884784
100724.911778
100724.935387
100724.955938
100724.973767
100724.989363
100725.003215
100725.015897
100725.027734
100725.0387
100725.048835
100725.058761
100725.069017
100725.079745
100725.090506
100725.100823
100725.110213
100725.118347
100725.124957
100725.129913
100725.133142
100725.134673
100725.13457
100725.132969
100725.130023
100725.125925
100725.120874
100725.115087
100725.108778
100725.102163
100725.095451
100725.088842
100725.082524
100725.076672
100725.071445
100725.066986
100725.063418
100725.060845
100725.059351
100725.058995
100725.059822
100725.061852
100725.065091
100725.06952
100725.075106
100725.081791
100725.089502
100725.098148
100725.107623
100725.117813
100725.128601
100725.13988
100725.151563
100725.163607
100725.176029
100725.188928
100725.202483
100725.216935
100725.232512
100725.249306
100725.267091
100725.285082
100725.301653
100725.314131
100725.377778
100712.31763
100712.378483
100712.383755
100712.391126
100712.400766
100712.412697
100712.427108
100712.444091
100712.463829
100712.486332
100712.511672
100712.539739
100712.570486
100712.603707
100712.639275
100712.676938
100712.716543
100712.757843
100712.800707
100712.84493
100712.890433
100712.937074
100712.984832
100713.033634
100713.08352
100713.134477
100713.186594
100713.239904
100713.294532
100713.350536
100713.408052
100713.467144
100713.527937
100713.590476
100713.654859
100713.721099
100713.789251
100713.859284
100713.931207
100714.004944
100714.080456
100714.157622
100714.23636
100714.316509
100714.397939
100714.480447
100714.56388
100714.648021
100714.732694
100714.817668
100714.902751
100714.987705
100715.072331
100715.156392
100715.239691
100715.321997
100715.403123
100715.482855
100715.561023
100715.637435
100715.711947
100715.784396
100715.85467
100715.922641
100715.988234
100716.051359
100716.111981
100716.170053
100716.22558
100716.278555
100716.329025
100716.37702
100716.422621
100716.465891
100716.50694
100716.545851
100716.582747
100716.617707
100716.650833
100716.682141
100716.711615
100716.739057
100716.764096
100716.786006
100716.803898
100716.817497
100716.827412
100716.834657
100716.840356
100716.845175
100716.84949
100716.853466
100716.857199
100716.860719
100716.864059
100716.867232
100716.870271
100716.873198
100716.876059
100716.87889
100716.881745
100716.884676
100716.887745
100716.891011
100716.894543
100716.898406
100716.90267
100716.907404
100716.912674
100716.918544
100716.925074
100716.932317
100716.940316
100716.949106
100716.958704
100716.969117
100716.980342
100716.992361
100717.005136
100717.018615
100717.032724
100717.04737
100717.062437
100717.07779
100717.093272
100717.108711
100717.123926
100717.138741
100717.153002
100717.166607
100717.179538
100717.191888
100717.203872
100717.215803
100717.228013
100717.240711
100717.253772
100717.266442
100717.276775
100717.341088
100704.200472
100704.259975
100704.265979
100704.274362
100704.285285
100704.298819
100704.315135
100704.334309
100704.356485
100704.381662
100704.409875
100704.441001
100704.474954
100704.511502
100704.550472
100704.591576
100704.634608
100704.67928
100704.725406
100704.772743
100704.82116
100704.870485
100704.920661
100704.971591
100705.02329
100705.075733
100705.128995
100705.183105
100705.23818
100705.294284
100705.351553
100705.410059
100705.469935
100705.531241
100705.594085
100705.658501
100705.72456
100705.792255
100705.861616
100705.932594
100706.005173
100706.079267
100706.154818
100706.231705
100706.309816
100706.388978
100706.469069
100706.549913
100706.631369
100706.713247
100706.795393
100706.877612
100706.959741
100707.041587
100707.12299
100707.203762
100707.283751
100707.362781
100707.440717
100707.5174
100707.592712
100707.66652
100707.738728
100707.809227
100707.877949
100707.94481
100708.009767
100708.07276
100708.13377
100708.192757
100708.249715
100708.304616
100708.357462
100708.408223
100708.456891
100708.503419
100708.547768
100708.589842
100708.629537
100708.666659
100708.70097
100708.732095
100708.759566
100708.782777
100708.801174
100708.814683
100708.8239
100708.829535
100708.832403
100708.833284
100708.832789
100708.831351
100708.829312
100708.826919
100708.824382
100708.821858
100708.819489
100708.817383
100708.815641
100708.81434
100708.813556
100708.813345
100708.813763
100708.814854
100708.816658
100708.819211
100708.822544
100708.826684
100708.831653
100708.83747
100708.844149
100708.851696
100708.860111
100708.869383
100708.879488
100708.890392
100708.902053
100708.914414
100708.927406
100708.940942
100708.954915
100708.969204
100708.983669
100708.998151
100709.012481
100709.026482
100709.039983
100709.052834
100709.064935
100709.076263
100709.086907
100709.097092
100709.107191
100709.117683
100709.129075
100709.141741
100709.155716
100709.170404
100709.184146
100709.251736
100696.094571
100696.153731
100696.159617
100696.168184
100696.179535
100696.193749
100696.210994
100696.231336
100696.254901
100696.281669
100696.311653
100696.344709
100696.380727
100696.419453
100696.460685
100696.504105
100696.549475
100696.596475
100696.644885
100696.694429
100696.744947
100696.796238
100696.848219
100696.900774
100696.953898
100697.007553
100697.061802
100697.116667
100697.172257
100697.228634
100697.28593
100697.344221
100697.40364
100697.464253
100697.526177
100697.589454
100697.654166
100697.720325
100697.787973
100697.857085
100697.927663
100697.999646
100698.073
100698.147632
100698.223453
100698.300314
100698.378116
100698.456713
100698.535994
100698.615801
100698.69601
100698.776454
100698.857003
100698.937489
100699.017781
100699.097715
100699.177164
100699.255971
100699.334019
100699.411164
100699.487301
100699.562302
100699.636075
100699.70851
100699.779529
100699.849038
100699.916972
100699.983249
100700.047813
100700.110585
100700.171513
100700.230514
100700.287525
100700.342447
100700.395196
100700.445643
100700.493663
100700.539079
100700.581703
100700.621281
100700.657534
100700.690099
100700.718598
100700.742616
100700.761869
100700.776277
100700.786417
100700.792872
100700.796084
100700.796698
100700.795306
100700.792395
100700.788396
100700.783657
100700.778492
100700.773155
100700.767877
100700.762843
100700.758221
100700.754144
100700.750729
100700.748068
100700.746238
100700.745297
100700.745294
100700.746262
100700.748226
100700.751201
100700.755192
100700.760199
100700.766211
100700.773211
100700.781174
100700.790062
100700.799823
100700.810394
100700.82171
100700.833691
100700.846243
100700.85926
100700.872621
100700.886189
100700.899816
100700.91334
100700.926595
100700.939418
100700.951661
100700.96321
100700.974012
100700.984101
100700.993634
100701.002913
100701.012384
100701.022609
100701.034182
100701.047586
100701.062997
100701.080049
100701.097528
100701.165592
100687.990098
100688.049695
100688.055356
100688.063877
100688.075355
100688.089861
100688.107566
100688.128534
100688.152883
100688.180584
100688.21164
100688.245896
100688.283229
100688.323371
100688.366102
100688.411089
100688.458071
100688.506708
100688.556756
100688.607918
100688.660012
100688.712818
100688.766232
100688.820125
100688.874477
100688.929238
100688.98446
100689.040158
100689.096435
100689.153345
100689.211018
100689.269524
100689.328997
100689.389504
100689.451162
100689.514019
100689.578163
100689.643614
100689.710426
100689.778585
100689.848111
100689.918957
100689.991109
100690.06449
100690.139039
100690.214623
100690.291151
100690.368501
100690.446585
100690.525266
100690.604445
100690.683975
100690.763746
100690.843611
100690.923455
100691.003129
100691.082519
100691.161481
100691.239904
100691.317651
100691.394618
100691.470674
100691.545725
100691.61965
100691.692361
100691.763743
100691.833714
100691.902164
100691.96901
100692.034142
100692.097468
100692.158869
100692.21824
100692.27544
100692.330343
100692.382779
100692.432586
100692.479557
100692.523485
100692.564111
100692.601178
100692.634377
100692.663423
100692.688039
100692.708066
100692.723482
100692.734625
100692.742097
100692.746328
100692.747656
100692.74661
100692.743652
100692.739224
100692.733707
100692.727455
100692.720775
100692.713947
100692.70721
100692.700778
100692.69483
100692.689523
100692.684982
100692.681315
100692.678601
100692.676909
100692.676283
100692.676757
100692.678346
100692.681057
100692.684882
100692.689807
100692.695802
100692.702831
100692.710844
100692.71977
100692.729533
100692.740052
100692.751235
100692.762977
100692.775163
100692.787664
100692.80034
100692.813042
100692.825614
100692.8379
100692.849753
100692.861049
100692.871705
100692.881704
100692.891125
100692.900169
100692.909183
100692.918665
100692.929233
100692.941549
100692.956194
100692.973471
100692.993192
100693.014393
100693.080434
100679.882509
100679.942892
100679.948309
100679.95671
100679.968187
100679.982804
100680.000731
100680.022028
100680.046815
100680.075058
100680.106758
100680.141756
100680.179925
100680.220991
100680.264729
100680.310796
100680.35892
100680.408748
100680.460023
100680.512434
100680.565785
100680.619841
100680.674489
100680.729586
100680.785102
100680.840978
100680.897259
100680.95395
100681.011147
100681.068897
100681.127325
100681.186494
100681.246534
100681.307508
100681.369531
100681.432649
100681.496955
100681.562467
100681.629247
100681.697288
100681.766617
100681.837197
100681.909028
100681.982044
100682.05621
100682.131401
100682.207524
100682.284473
100682.362177
100682.440517
100682.519407
100682.598716
100682.67835
100682.758171
100682.838077
100682.917929
100682.99762
100683.07701
100683.155992
100683.234428
100683.312214
100683.389213
100683.465324
100683.540415
100683.614385
100683.687105
100683.758475
100683.828364
100683.896668
100683.963253
100684.028004
100684.090775
100684.15144
100684.209835
100684.265812
100684.319184
100684.369779
100684.417383
100684.461794
100684.50277
100684.540085
100684.573485
100684.602756
100684.627706
100684.64825
100684.664409
100684.676362
100684.68456
100684.689569
100684.691684
100684.691224
100684.688616
100684.684282
100684.678602
100684.671941
100684.664624
100684.656955
100684.649201
100684.641605
100684.634374
100684.627694
100684.621718
100684.616577
100684.612374
100684.609195
100684.6071
100684.606135
100684.606327
100684.607687
100684.610212
100684.613888
100684.618685
100684.624565
100684.631475
100684.639335
100684.648061
100684.657566
100684.667754
100684.678517
100684.689736
100684.701284
100684.713021
100684.724805
100684.736487
100684.747926
100684.758991
100684.769581
100684.77964
100684.789182
100684.798318
100684.807283
100684.816457
100684.826374
100684.837691
100684.851123
100684.867311
100684.88663
100684.908945
100684.933275
100684.995531
100671.76931
100671.830593
100671.835767
100671.844013
100671.855423
100671.870052
100671.888067
100671.909527
100671.934548
100671.963098
100671.99518
100672.030637
100672.069344
100672.111028
100672.155463
100672.202304
100672.251278
100672.302025
100672.354283
100672.407733
100672.462171
100672.517355
100672.573165
100672.629447
100672.686168
100672.743259
100672.800757
100672.858659
100672.917054
100672.97598
100673.035552
100673.095827
100673.156925
100673.218902
100673.281867
100673.34586
100673.410971
100673.477217
100673.544659
100673.613289
100673.683141
100673.754181
100673.826414
100673.899783
100673.974283
100674.049786
100674.126191
100674.203401
100674.281359
100674.359954
100674.439114
100674.518719
100674.598682
100674.678876
100674.759205
100674.839536
100674.919766
100674.999758
100675.079406
100675.158569
100675.237139
100675.314976
100675.391969
100675.467978
100675.54289
100675.616566
100675.688889
100675.759715
100675.828923
100675.896364
100675.961909
100676.025396
100676.086684
100676.145601
100676.201989
100676.255658
100676.306435
100676.354113
100676.398504
100676.43939
100676.476577
100676.509859
100676.539076
100676.564093
100676.584873
100676.60145
100676.61399
100676.622731
100676.628181
100676.630823
100676.630903
100676.628703
100676.624616
100676.619008
100676.612238
100676.604634
100676.596507
100676.588135
100676.579777
100676.571656
100676.563977
100676.55691
100676.550605
100676.545184
100676.540746
100676.537368
100676.535109
100676.534006
100676.534081
100676.535337
100676.537765
100676.541342
100676.546032
100676.551785
100676.55852
100676.566146
100676.574579
100676.583723
100676.593472
100676.60371
100676.614313
100676.625149
100676.636081
100676.646975
100676.657703
100676.668152
100676.678243
100676.687942
100676.697292
100676.706428
100676.715611
100676.725246
100676.735885
100676.748208
100676.762951
100676.780776
100676.802057
100676.82659
100676.853192
100676.910741
100663.648692
100663.710824
100663.715775
100663.723865
100663.735186
100663.749787
100663.767831
100663.78937
100663.814521
100663.843255
100663.875577
100663.911336
100663.950413
100663.992542
100664.037502
100664.084952
100664.134622
100664.186153
100664.239284
100664.293692
100664.349173
100664.40548
100664.462487
100664.520037
100664.57809
100664.636569
100664.695506
100664.754886
100664.814789
100664.875242
100664.936351
100664.998158
100665.060774
100665.124241
100665.188662
100665.254065
100665.320533
100665.388075
100665.456751
100665.526548
100665.5975
100665.669571
100665.742771
100665.817042
100665.892415
100665.96876
100666.045957
100666.123916
100666.202586
100666.281865
100666.36169
100666.441946
100666.522557
100666.6034
100666.684386
100666.765384
100666.846296
100666.926983
100667.007341
100667.087228
100667.166531
100667.245105
100667.322834
100667.39957
100667.475191
100667.549548
100667.622514
100667.693935
100667.763679
100667.831586
100667.897517
100667.961304
100668.022798
100668.081822
100668.138217
100668.191798
100668.242395
100668.289815
100668.333885
100668.374413
100668.411237
100668.444188
100668.473149
100668.498027
100668.518812
100668.535553
100668.548398
100668.557562
100668.563333
100668.566189
100668.566582
100668.56472
100668.560883
100668.555411
100668.548653
100668.540928
100668.532546
100668.52379
100668.514922
100668.506176
100668.497765
100668.489872
100668.482659
100668.476259
100668.470787
100668.46633
100668.462958
100668.460719
100668.459645
100668.459748
100668.461026
100668.463463
100668.467028
100668.47168
100668.477339
100668.483911
100668.491316
100668.499463
100668.508251
100668.517569
100668.5273
100668.537321
100668.547507
100668.557735
100668.567891
100668.577882
100668.587647
100668.597177
100668.606532
100668.61587
100668.62547
100668.635749
100668.647265
100668.660697
100668.676777
100668.696144
100668.719111
100668.745326
100668.773306
100668.82584
100655.519186
100655.581992
100655.586749
100655.594702
100655.605947
100655.620523
100655.638584
100655.660182
100655.685431
100655.714302
100655.74681
100655.782809
100655.82219
100655.864697
100655.91012
100655.958126
100656.008454
100656.06075
100656.114758
100656.170157
100656.226743
100656.284268
100656.342605
100656.40159
100656.461179
100656.521286
100656.581934
100656.643097
100656.704845
100656.767187
100656.830218
100656.893964
100656.958522
100657.023919
100657.090244
100657.157514
100657.2258
100657.295101
100657.365471
100657.43689
100657.509389
100657.582929
100657.657519
100657.733102
100657.809712
100657.887255
100657.965616
100658.044665
100658.124362
100658.204612
100658.285359
100658.366496
100658.447952
100658.52961
100658.611385
100658.693151
100658.774811
100658.856229
100658.9373
100659.017879
100659.097853
100659.177073
100659.255417
100659.332732
100659.40889
100659.483734
100659.55713
100659.628917
100659.698955
100659.767079
100659.833142
100659.896974
100659.958422
100660.01731
100660.073481
100660.126754
100660.17697
100660.22395
100660.267537
100660.307564
100660.343894
100660.376393
100660.404975
100660.429579
100660.450215
100660.466941
100660.479899
100660.489278
100660.495341
100660.498383
100660.498838
100660.497128
100660.493487
100660.488159
100660.481456
100660.473693
100660.465173
100660.456176
100660.446967
100660.437782
100660.42884
100660.420329
100660.41242
100660.405254
100660.398956
100660.393621
100660.389329
100660.386137
100660.384085
100660.383194
100660.383469
100660.384901
100660.387467
100660.391134
100660.395831
100660.401458
100660.407941
100660.415195
100660.423125
100660.431629
100660.440598
100660.449918
100660.459476
100660.469162
100660.478877
100660.488545
100660.498123
100660.507619
100660.517112
100660.526774
100660.536892
100660.547886
100660.560308
100660.574818
100660.592115
100660.612785
100660.637044
100660.664353
100660.692901
100660.740482
100647.379485
100647.442687
100647.44729
100647.455146
100647.466347
100647.480928
100647.499038
100647.520716
100647.546081
100647.575106
100647.607811
100647.64406
100647.68376
100647.726663
100647.772578
100647.821182
100647.872227
100647.925367
100647.980355
100648.036874
100648.094723
100648.153653
100648.213535
100648.274199
100648.335594
100648.397625
100648.460302
100648.523587
100648.587532
100648.652133
100648.717465
100648.783536
100648.850426
100648.918145
100648.986766
100649.056288
100649.126773
100649.198206
100649.270631
100649.344021
100649.418402
100649.493731
100649.570017
100649.647206
100649.725294
100649.804264
100649.884031
100649.96439
100650.045311
100650.126706
100650.208526
100650.290672
100650.373078
100650.455633
100650.538257
100650.620828
100650.703251
100650.785393
100650.867149
100650.948375
100651.028955
100651.108738
100651.187599
100651.265382
100651.341953
100651.41715
100651.490835
100651.562841
100651.633025
100651.701214
100651.767263
100651.830996
100651.892263
100651.950888
100652.006719
100652.059582
100652.109328
100652.155791
100652.198832
100652.238303
100652.274094
100652.306094
100652.334246
100652.35851
100652.378914
100652.395524
100652.408476
100652.417947
100652.424176
100652.427431
100652.428031
100652.426308
100652.422714
100652.417508
100652.410894
100652.403148
100652.394569
100652.385438
100652.376016
100652.366538
100652.357226
100652.348271
100652.339848
100652.332106
100652.325172
100652.319151
100652.31413
100652.310172
100652.307325
100652.305616
100652.305058
100652.305648
100652.307369
100652.310199
100652.314077
100652.318899
100652.324597
100652.33109
100652.338291
100652.346107
100652.354437
100652.363178
100652.372227
100652.381488
100652.390875
100652.400327
100652.409817
100652.419366
100652.429068
100652.439101
100652.449757
100652.461445
100652.4747
100652.49015
100652.508444
100652.530094
100652.555199
100652.58303
100652.611471
100652.654341
100639.228372
100639.291609
100639.2961
100639.303904
100639.315118
100639.329759
100639.347969
100639.369786
100639.395326
100639.424562
100639.457527
100639.494095
100639.534188
100639.577577
100639.624086
100639.673408
100639.725312
100639.779462
100639.83562
100639.893475
100639.952828
100640.013429
100640.075145
100640.137799
100640.20133
100640.265629
100640.330693
100640.396464
100640.46298
100640.530211
100640.598215
100640.666979
100640.736563
100640.806955
100640.878211
100640.950314
100641.023309
100641.09717
100641.171931
100641.247554
100641.324059
100641.4014
100641.479583
100641.558551
100641.638297
100641.718862
100641.800155
100641.881941
100641.964189
100642.046816
100642.129779
100642.212986
100642.296379
100642.379852
100642.463332
100642.5467
100642.629866
100642.7127
100642.795097
100642.876915
100642.958038
100643.038314
100643.117617
100643.195786
100643.272686
100643.348151
100643.422039
100643.494181
100643.564429
100643.63261
100643.698575
100643.762149
100643.823182
100643.881503
100643.936963
100643.989397
100644.038664
100644.084612
100644.127116
100644.16605
100644.201319
100644.232838
100644.260569
100644.284492
100644.304648
100644.321107
100644.334006
100644.343512
100644.349849
100644.353267
100644.354048
100644.352509
100644.348902
100644.343723
100644.337238
100644.329528
100644.320971
100644.311801
100644.302281
100644.292641
100644.283102
100644.273858
100644.265087
100644.25694
100644.249549
100644.243025
100644.237457
100644.232916
100644.229455
100644.227107
100644.22589
100644.225808
100644.226851
100644.228996
100644.232203
100644.236377
100644.241437
100644.247312
100644.253921
100644.261179
100644.268995
100644.277274
100644.285924
100644.294861
100644.304012
100644.313328
100644.322792
100644.332441
100644.342371
100644.352769
100644.363917
100644.376212
100644.390161
100644.406348
100644.425362
100644.447631
100644.473137
100644.500971
100644.528768
100644.567239
100631.064682
100631.12751
100631.131936
100631.139749
100631.151034
100631.165806
100631.184196
100631.20623
100631.232029
100631.26157
100631.294895
100631.331893
100631.372506
100631.416522
100631.46379
100631.514018
100631.566994
100631.622392
100631.679987
100631.739469
100631.800643
100631.863251
100631.927159
100631.992173
100632.058223
100632.12518
100632.193024
100632.261673
100632.331144
100632.401384
100632.472428
100632.544236
100632.61685
100632.690233
100632.764424
100632.839386
100632.91515
100632.991675
100633.068984
100633.147033
100633.225835
100633.305338
100633.38555
100633.46641
100633.54791
100633.6301
100633.712949
100633.796228
100633.879847
100633.963732
100634.047852
100634.132121
100634.21649
100634.300862
100634.385168
100634.469296
100634.553163
100634.636639
100634.719626
100634.801983
100634.883593
100634.964307
100635.043995
100635.122498
100635.199677
100635.275365
100635.349418
100635.421662
100635.491949
100635.560105
100635.625978
100635.689396
100635.750209
100635.80825
100635.863373
100635.915422
100635.964265
100636.009761
100636.051799
100636.090267
100636.12509
100636.156201
100636.183576
100636.207212
100636.22716
100636.243497
100636.256358
100636.265905
100636.27235
100636.275928
100636.276907
100636.275559
100636.272186
100636.267117
100636.260664
100636.253106
100636.244632
100636.235548
100636.226052
100636.216378
100636.206752
100636.197369
100636.188406
100636.180017
100636.172337
100636.16548
100636.159539
100636.15459
100636.150689
100636.147874
100636.146168
100636.14558
100636.146103
100636.147719
100636.150409
100636.154085
100636.158653
100636.164048
100636.170198
100636.177023
100636.18444
100636.192365
100636.200713
100636.209412
100636.218397
100636.22763
100636.237106
100636.246866
100636.257012
100636.267726
100636.279283
100636.292058
100636.306523
100636.323213
100636.342651
100636.365179
100636.390668
100636.418056
100636.444798
100636.479193
100622.887269
100622.949171
100622.953581
100622.961462
100622.972898
100622.987882
100623.006538
100623.02889
100623.055054
100623.085013
100623.118825
100623.156397
100623.197692
100623.242524
100623.290763
100623.342141
100623.396461
100623.453412
100623.512777
100623.574247
100623.637625
100623.702647
100623.769164
100623.836968
100623.90597
100623.976016
100624.047066
100624.11901
100624.19184
100624.265474
100624.339921
100624.415117
100624.491077
100624.567744
100624.645135
100624.723194
100624.801938
100624.881313
100624.961333
100625.041943
100625.123156
100625.204915
100625.287228
100625.370039
100625.453351
100625.537119
100625.621469
100625.706252
100625.791232
100625.876355
100625.961599
100626.046891
100626.13219
100626.217409
100626.302487
100626.387321
100626.471832
100626.555897
100626.639421
100626.722267
100626.80432
100626.885431
100626.965473
100627.044284
100627.121725
100627.197627
100627.271844
100627.344202
100627.41455
100627.482712
100627.548538
100627.611855
100627.672515
100627.730352
100627.785228
100627.836991
100627.885517
100627.930675
100627.972367
100628.010495
100628.044995
100628.075818
100628.102952
100628.126408
100628.146244
100628.162543
100628.17544
100628.185093
100628.191707
100628.195504
100628.19674
100628.19568
100628.19261
100628.187815
100628.181623
100628.174192
100628.165938
100628.157073
100628.147672
100628.138103
100628.128533
100628.119156
100628.110155
100628.101683
100628.093876
100628.08685
100628.080702
100628.07551
100628.071333
100628.068215
100628.066181
100628.065242
100628.065397
100628.06663
100628.068946
100628.072265
100628.076476
100628.081522
100628.087334
100628.09384
100628.100963
100628.108627
100628.116757
100628.125285
100628.134159
100628.143346
100628.152849
100628.16271
100628.173035
100628.183998
100628.195859
100628.208967
100628.223757
100628.240712
100628.260283
100628.282732
100628.30783
100628.334396
100628.359774
100628.390405
100614.694978
100614.755369
100614.759816
100614.767837
100614.7795
100614.794789
100614.813815
100614.836589
100614.863234
100614.893743
100614.928187
100614.966496
100615.008664
100615.05453
100615.103995
100615.156811
100615.212804
100615.271671
100615.333202
100615.397086
100615.463119
100615.531021
100615.600627
100615.671706
100615.744142
100615.817754
100615.892472
100615.968155
100616.044764
100616.122187
100616.200405
100616.279323
100616.358934
100616.439155
100616.519985
100616.601347
100616.683247
100616.765617
100616.848462
100616.931722
100617.015406
100617.099457
100617.183885
100617.268636
100617.353718
100617.43907
100617.524902
100617.611087
100617.697361
100617.783653
100617.869951
100617.956191
100618.042347
100618.12834
100618.21412
100618.299592
100618.384684
100618.469282
100618.553295
100618.636588
100618.719054
100618.800541
100618.880925
100618.960045
100619.03776
100619.113902
100619.188321
100619.260843
100619.331316
100619.399562
100619.465431
100619.528749
100619.589369
100619.64713
100619.701895
100619.753518
100619.801881
100619.846864
100619.888377
100619.926333
100619.960681
100619.991382
100620.018438
100620.041868
100620.061737
100620.078134
100620.091193
100620.10107
100620.107963
100620.112085
100620.113683
100620.113009
100620.110338
100620.105942
100620.100091
100620.093059
100620.085158
100620.076554
100620.067515
100620.058193
100620.048816
100620.039611
100620.030729
100620.022332
100620.014559
100620.007524
100620.001328
100619.996052
100619.991756
100619.988488
100619.986275
100619.985133
100619.985061
100619.986046
100619.988114
100619.991205
100619.995182
100619.999993
100620.005576
100620.011864
100620.018786
100620.026271
100620.03425
100620.042664
100620.051466
100620.060629
100620.070159
100620.080102
100620.090557
100620.10169
100620.113742
100620.127036
100620.141963
100620.158952
100620.178389
100620.200455
100620.224839
100620.250274
100620.274069
100620.301223
100606.486641
100606.544875
100606.549413
100606.557644
100606.569627
100606.585316
100606.604812
100606.628125
100606.655374
100606.686563
100606.721791
100606.761013
100606.80426
100606.851404
100606.90238
100606.956965
100607.015005
100607.076207
100607.140362
100607.207149
100607.276353
100607.347669
100607.420907
100607.495802
100607.57221
100607.649909
100607.728796
100607.808692
100607.889525
100607.971146
100608.053508
100608.136483
100608.22004
100608.304071
100608.388556
100608.473402
100608.558601
100608.644073
100608.729822
100608.81578
100608.901957
100608.988299
100609.07482
100609.161472
100609.248271
100609.335171
100609.422302
100609.509706
100609.597213
100609.68459
100609.771851
100609.858949
100609.94587
100610.032549
100610.118949
100610.204984
100610.290593
100610.375669
100610.460126
100610.543838
100610.626697
100610.708559
100610.789297
100610.868753
100610.946785
100611.023223
100611.097919
100611.170694
100611.241394
100611.309843
100611.375886
100611.439351
100611.500092
100611.557947
100611.612783
100611.664458
100611.71286
100611.757874
100611.799419
100611.837417
100611.871826
100611.902618
100611.929803
100611.953407
100611.973503
100611.990181
100612.003576
100612.013843
100612.021173
100612.025774
100612.027882
100612.027742
100612.025617
100612.021766
100612.01646
100612.009959
100612.002523
100611.994431
100611.985839
100611.976977
100611.968049
100611.959131
100611.950534
100611.942381
100611.934799
100611.927915
100611.921829
100611.916621
100611.912357
100611.909084
100611.906835
100611.905626
100611.905459
100611.906324
100611.908257
100611.911222
100611.915071
100611.919752
100611.925203
100611.931361
100611.93816
100611.945534
100611.953421
100611.961765
100611.970524
100611.979675
100611.989226
100611.999222
100612.009754
100612.020977
100612.033112
100612.046449
100612.061338
100612.078153