/*--------------------------------*- C++ -*----------------------------------*\
| =========                 |                                                 |
| \\      /  F ield         | OpenFOAM: The Open Source CFD Toolbox           |
|  \\    /   O peration     | Version:  2206                                  |
|   \\  /    A nd           | Website:  www.openfoam.com                      |
|    \\/     M anipulation  |                                                 |
\*---------------------------------------------------------------------------*/
FoamFile
{
    version     2.0;
    format      ascii;
    arch        "LSB;label=64;scalar=64";
    class       surfaceScalarField;
    location    "3.1/water";
    object      phi;
}
// * * * * * * * * * * * * * * * * * * * * * * * * * * * * * * * * * * * * * //

dimensions      [0 3 -1 0 0 0 0];

oriented        oriented;

internalField   nonuniform List<scalar> 
46280
(
-5.21369949305e-10
5.21437104744e-10
-1.06196500504e-09
5.40641983852e-10
-1.62432560252e-09
5.62450109721e-10
-2.21554713187e-09
5.91262637505e-10
-2.84312613702e-09
6.276699962e-10
-3.51467597806e-09
6.71585913666e-10
-4.23730924702e-09
7.22730479924e-10
-5.01793152635e-09
7.80651947766e-10
-5.86258645534e-09
8.44750126609e-10
-6.77677743214e-09
9.14208890216e-10
-7.76471511504e-09
9.88022235081e-10
-8.82965397739e-09
1.06494361773e-09
-9.97313183532e-09
1.14355001073e-09
-1.11953684636e-08
1.22222992881e-09
-1.24945922284e-08
1.29928580038e-09
-1.38675594034e-08
1.37295281792e-09
-1.53090240161e-08
1.44151997523e-09
-1.68123955188e-08
1.50335282705e-09
-1.8369347319e-08
1.55700308199e-09
-1.99705772286e-08
1.6012087689e-09
-2.16055019885e-08
1.6349732789e-09
-2.32630589248e-08
1.65753397748e-09
-2.4931424055e-08
1.66841127897e-09
-2.65988019913e-08
1.6673530295e-09
-2.8253122873e-08
1.65436455613e-09
-2.98827900767e-08
1.62963994893e-09
-3.14763320303e-08
1.59358286226e-09
-3.302309418e-08
1.54673204984e-09
-3.45128350063e-08
1.48977864618e-09
-3.59363587486e-08
1.42349041435e-09
-3.7285054029e-08
1.3487297427e-09
-3.8551471455e-08
1.2663805735e-09
-3.97288114867e-08
1.17737094524e-09
-4.08114578212e-08
1.08260583886e-09
-4.17944271989e-08
9.82996642717e-10
-4.26738725812e-08
8.79401215187e-10
-4.3446509358e-08
7.72660379607e-10
-4.41101015239e-08
6.63544453576e-10
-4.46628766929e-08
5.52795190556e-10
-4.51040046124e-08
4.4107684737e-10
-4.54330091513e-08
3.29021146e-10
-4.56502437652e-08
2.17180486915e-10
-4.57563035707e-08
1.06073252337e-10
-4.57525026022e-08
-3.85780412125e-12
-4.56403355952e-08
-1.12156385254e-10
-4.54219597661e-08
-2.18434915155e-10
-4.50996016606e-08
-3.22349896673e-10
-4.46760776453e-08
-4.23584883415e-10
-4.41542591568e-08
-5.2181222853e-10
-4.35375804179e-08
-6.16740866467e-10
-4.28295027278e-08
-7.08072884671e-10
-4.20340192249e-08
-7.95546419143e-10
-4.1155123907e-08
-8.78891472324e-10
-4.01973149564e-08
-9.57872183519e-10
-3.91650675724e-08
-1.0322440139e-09
-3.80633344165e-08
-1.10179632538e-09
-3.68970198195e-08
-1.16631125245e-09
-3.56714759037e-08
-1.22560667089e-09
-3.43919756546e-08
-1.27949652403e-09
-3.30642036924e-08
-1.32783406832e-09
-3.16937259496e-08
-1.37047329363e-09
-3.02864748886e-08
-1.40731231843e-09
-2.88482139385e-08
-1.43825548495e-09
-2.73850174655e-08
-1.46325677976e-09
-2.5902728535e-08
-1.48228221375e-09
-2.44074346103e-08
-1.49535317732e-09
-2.2904917787e-08
-1.50250865754e-09
-2.14011274773e-08
-1.5038484513e-09
-1.99016229659e-08
-1.49949474557e-09
-1.84120448295e-08
-1.48963504682e-09
-1.69375507583e-08
-1.47448257854e-09
-1.54832874777e-08
-1.45431880863e-09
-1.40538218822e-08
-1.42945228897e-09
-1.26536146332e-08
-1.40026112591e-09
-1.1286448411e-08
-1.36715106067e-09
-9.95590015859e-09
-1.33060015818e-09
-8.66476288661e-09
-1.29112030808e-09
-7.41550123741e-09
-1.24931117218e-09
-6.2096464286e-09
-1.20583621505e-09
-5.0481910235e-09
-1.16150207343e-09
-3.93089903721e-09
-1.1172720675e-09
-2.85654299437e-09
-1.07439929535e-09
-1.82202050083e-09
-1.03450164778e-09
-8.22351917969e-10
-9.99708032048e-10
1.50060570711e-10
-9.72391130885e-10
1.10401112142e-09
-9.53986149707e-10
2.04745664152e-09
-9.43424086519e-10
2.98539517052e-09
-9.3797048629e-10
3.92061244853e-09
-9.35196242383e-10
4.85404813243e-09
-9.33464288948e-10
5.78571778539e-09
-9.31649512282e-10
6.71463356623e-09
-9.28941399373e-10
7.63932682569e-09
-9.24674468925e-10
8.55759653196e-09
-9.18292736675e-10
9.46690072274e-09
-9.09287130924e-10
1.03640927922e-08
-8.9721293419e-10
1.12457674435e-08
-8.81659613578e-10
1.21080274976e-08
-8.62279162159e-10
1.29468048319e-08
-8.38764525066e-10
1.37576631218e-08
-8.10876035441e-10
1.45360949151e-08
-7.78421336661e-10
1.52773550648e-08
-7.41276885987e-10
1.59767311157e-08
-6.9936799862e-10
1.66294008642e-08
-6.5268579008e-10
1.72306743544e-08
-6.01267828388e-10
1.7775870518e-08
-5.45211771304e-10
1.82605313025e-08
-4.84657445973e-10
1.86803143008e-08
-4.19798389336e-10
1.90311813301e-08
-3.50865903941e-10
1.93093051695e-08
-2.78139184219e-10
1.95112353257e-08
-2.01931103802e-10
1.96338162396e-08
-1.22596348399e-10
1.96743305441e-08
-4.05171639957e-11
1.96304279474e-08
4.3886974701e-11
1.95002427914e-08
1.30180557979e-10
1.928235229e-08
2.17874621777e-10
1.89759164592e-08
3.06429671588e-10
1.85806609696e-08
3.95239310918e-10
1.80970248456e-08
4.83628577347e-10
1.75261733779e-08
5.70834969749e-10
1.68701660849e-08
6.55998525727e-10
1.61320135847e-08
7.38135700681e-10
1.53158828237e-08
8.16120944013e-10
1.44272103419e-08
8.88655442638e-10
1.34729514472e-08
9.54248201821e-10
1.24617361142e-08
1.0111981763e-09
1.14041145036e-08
1.05761020062e-09
1.03126502136e-08
1.09144716362e-09
9.20198039365e-09
1.11065776088e-09
8.08858226307e-09
1.11338118873e-09
6.99032884304e-09
1.09824073675e-09
5.92563574852e-09
1.0646765902e-09
4.91236261956e-09
1.01325995151e-09
3.96645187923e-09
9.45895113429e-10
3.10056413606e-09
8.65874150523e-10
2.32273177532e-09
7.77818298403e-10
1.63503529799e-09
6.87684299037e-10
1.03186631817e-09
6.03157592757e-10
4.96939097534e-10
5.34915635021e-10
4.96935853943e-10
-5.78830470281e-10
1.10033658032e-09
-1.16527524069e-09
1.12714711351e-09
-1.77059040589e-09
1.16784666344e-09
-2.40312026173e-09
1.22384790727e-09
-3.07102245556e-09
1.29565240481e-09
-3.78232728566e-09
1.38293954235e-09
-4.54451883063e-09
1.4850016766e-09
-5.36465752654e-09
1.60083217127e-09
-6.24894710968e-09
1.72911181773e-09
-7.20285604103e-09
1.86814943888e-09
-8.23062619022e-09
2.01585439016e-09
-9.33538187875e-09
2.16971872984e-09
-1.05186355607e-08
2.32685452019e-09
-1.17804468044e-08
2.48405063191e-09
-1.31190043944e-08
2.63788550272e-09
-1.45308941573e-08
2.78484540532e-09
-1.60108141458e-08
2.92147647961e-09
-1.75519770578e-08
3.04451471429e-09
-1.91459616787e-08
3.1510208557e-09
-2.07832259284e-08
3.238469665e-09
-2.2453049805e-08
3.30482795966e-09
-2.41441018247e-08
3.34858077712e-09
-2.58444101909e-08
3.36874831835e-09
-2.75419236682e-08
3.36485925145e-09
-2.92244587328e-08
3.33692591669e-09
-3.08802158187e-08
3.28538732965e-09
-3.24976736368e-08
3.21106424307e-09
-3.40660442764e-08
3.11509007572e-09
-3.5575105498e-08
2.99886030702e-09
-3.70155935559e-08
2.86396257653e-09
-3.83789762254e-08
2.71212945144e-09
-3.96577903826e-08
2.54517529154e-09
-4.08453648257e-08
2.36495881408e-09
-4.19361140028e-08
2.1733319096e-09
-4.29252232699e-08
1.97211564971e-09
-4.38089119445e-08
1.76306310495e-09
-4.45840946251e-08
1.54784910635e-09
-4.52486264554e-08
1.32804592811e-09
-4.58009531831e-08
1.1051243983e-09
-4.62403494607e-08
8.8043939203e-10
-4.6566568043e-08
6.55238822435e-10
-4.6780080073e-08
4.30655691721e-10
-4.68817334242e-08
2.07722609422e-10
-4.68730000698e-08
-1.26307195635e-11
-4.67555992445e-08
-2.29563946533e-10
-4.65317408992e-08
-4.42335115832e-10
-4.62038520128e-08
-6.50247809274e-10
-4.57748222844e-08
-8.52658282463e-10
-4.5247687851e-08
-1.04895751407e-09
-4.46258984327e-08
-1.23857526337e-09
-4.39130159697e-08
-1.42096751051e-09
-4.31129861748e-08
-1.59562201525e-09
-4.22298433746e-08
-1.76204727132e-09
-4.12679822544e-08
-1.91977946489e-09
-4.02318660449e-08
-2.06837357536e-09
-3.91262962535e-08
-2.2074122361e-09
-3.79561217499e-08
-2.33649905359e-09
-3.67265048242e-08
-2.45526932632e-09
-3.54426289638e-08
-2.56338524453e-09
-3.41099599429e-08
-2.66054816786e-09
-3.27339502045e-08
-2.74649517046e-09
-3.13202942315e-08
-2.82101251865e-09
-2.98746278689e-08
-2.88393300666e-09
-2.84027776375e-08
-2.9351502568e-09
-2.69104536183e-08
-2.9746162406e-09
-2.54034929566e-08
-3.00235600308e-09
-2.38875455609e-08
-3.01846474233e-09
-2.23683125505e-08
-3.02312247133e-09
-2.08512246662e-08
-3.01658989596e-09
-1.93416770477e-08
-2.99922242597e-09
-1.78447012179e-08
-2.97146412077e-09
-1.63651977778e-08
-2.93386062985e-09
-1.49076030692e-08
-2.88705106472e-09
-1.34761202168e-08
-2.83178078411e-09
-1.20743800446e-08
-2.7688935415e-09
-1.07056663329e-08
-2.69934885533e-09
-9.372564877e-09
-2.62422227567e-09
-8.07716989334e-09
-2.54473902289e-09
-6.82070694885e-09
-2.46229786179e-09
-5.60370103206e-09
-2.37853837402e-09
-4.42556826149e-09
-2.29540180508e-09
-3.28477086012e-09
-2.21522418125e-09
-2.17850612187e-09
-2.14076173211e-09
-1.10317403682e-09
-2.07506440678e-09
-5.46811196347e-11
-2.02087802343e-09
9.70828851231e-10
-1.97951721565e-09
1.97738271501e-09
-1.94997090733e-09
2.96881814526e-09
-1.92942410677e-09
3.94823800582e-09
-1.91460850128e-09
4.91754311156e-09
-1.90278512685e-09
5.87768152548e-09
-1.89178022801e-09
6.82858306179e-09
-1.87985669448e-09
7.76949156714e-09
-1.86557562577e-09
8.69890080014e-09
-1.84771422162e-09
9.61482316167e-09
-1.82520286155e-09
1.05147037866e-08
-1.79710473055e-09
1.13956450357e-08
-1.76259526092e-09
1.2254320462e-08
-1.72096505926e-09
1.30871732226e-08
-1.67161294396e-09
1.3890339996e-08
-1.61405290956e-09
1.4659830264e-08
-1.54790870007e-09
1.5391461624e-08
-1.47291825662e-09
1.60810215851e-08
-1.38892659953e-09
1.67242126498e-08
-1.29588700285e-09
1.73167970939e-08
-1.1938525172e-09
1.78545499736e-08
-1.08297511343e-09
1.8333387818e-08
-9.63497144167e-10
1.87493284774e-08
-8.35749956287e-10
1.90986055515e-08
-7.0014641134e-10
1.93776348615e-08
-5.57179938342e-10
1.95831172419e-08
-4.07418430926e-10
1.97120124659e-08
-2.51503610898e-10
1.97616346732e-08
-9.01457472224e-11
1.97296299982e-08
7.58789882647e-11
1.96140640052e-08
2.45738852793e-10
1.94134200507e-08
4.18505287878e-10
1.91267062803e-08
5.93134533782e-10
1.87534780697e-08
7.68453619684e-10
1.82939544883e-08
9.43142158697e-10
1.77490694075e-08
1.11570556547e-09
1.712061169e-08
1.28444526988e-09
1.64113114194e-08
1.44742095894e-09
1.56250086062e-08
1.602411944e-09
1.4766770927e-08
1.74687767747e-09
1.38430754053e-08
1.87793122226e-09
1.28619206758e-08
1.99233716731e-09
1.18329570136e-08
2.08656081673e-09
1.07674948114e-08
2.15689347698e-09
9.67845422418e-09
2.19968482242e-09
8.58012617147e-09
2.21169331614e-09
7.48781069315e-09
2.19054226964e-09
6.41724889083e-09
2.13522259628e-09
5.38393988703e-09
2.04655470536e-09
4.40230260378e-09
1.92751723034e-09
3.48475241087e-09
1.78340997961e-09
2.64063650673e-09
1.62192007665e-09
1.87501032073e-09
1.4532979308e-09
1.18716441833e-09
1.29099188756e-09
5.68983781497e-10
1.15308453993e-09
1.06591635101e-09
-6.45757132274e-10
1.74617167578e-09
-1.29710324488e-09
1.77856144422e-09
-1.96476601389e-09
1.8355964609e-09
-2.65829457406e-09
1.91743523323e-09
-3.386444153e-09
2.02388427317e-09
-4.15762321513e-09
2.1541687697e-09
-4.97955711351e-09
2.30700930905e-09
-5.85937054234e-09
2.48068503602e-09
-6.80319399472e-09
2.67300166926e-09
-7.81625036344e-09
2.88123310504e-09
-8.90241870463e-09
3.1020778552e-09
-1.0064333666e-08
3.33165061539e-09
-1.13029647812e-08
3.56553086045e-09
-1.2617768329e-08
3.79886269215e-09
-1.4006351851e-08
4.02650695236e-09
-1.54647312336e-08
4.24322785952e-09
-1.6987121044e-08
4.44389963921e-09
-1.85663148731e-08
4.62370854564e-09
-2.01935983186e-08
4.77833486125e-09
-2.18592267203e-08
4.90409616201e-09
-2.35524176129e-08
4.99804737177e-09
-2.52618720323e-08
5.05803165317e-09
-2.69757870911e-08
5.08268989108e-09
-2.86823649251e-08
5.07143160682e-09
-3.03697951814e-08
5.02438037393e-09
-3.20267134386e-08
4.94229772388e-09
-3.36421254287e-08
4.8264977062e-09
-3.52057993659e-08
4.6787532714e-09
-3.67081248453e-08
4.50120414991e-09
-3.814044097e-08
4.29626472201e-09
-3.94948364977e-08
4.06653993563e-09
-4.07644247685e-08
3.81474607156e-09
-4.19430979501e-08
3.54364336e-09
-4.30257630857e-08
3.25597594172e-09
-4.40080648769e-08
2.95442512979e-09
-4.48865967886e-08
2.64157027946e-09
-4.56586058579e-08
2.31986221526e-09
-4.63221909525e-08
1.99160278196e-09
-4.6876000852e-08
1.65893480846e-09
-4.73194289166e-08
1.32383589493e-09
-4.76523129375e-08
9.88120037846e-10
-4.78751328055e-08
6.53440978324e-10
-4.79887172196e-08
3.21301188518e-10
-4.7994444705e-08
-6.9404940617e-12
-4.78939538739e-08
-3.3006326672e-10
-4.76893231362e-08
-6.4700533536e-10
-4.73828205827e-08
-9.56761067464e-10
-4.69771178668e-08
-1.25840224135e-09
-4.64750252975e-08
-1.55106251741e-09
-4.58797155959e-08
-1.83392745438e-09
-4.51944706347e-08
-2.10622614077e-09
-4.44229098368e-08
-2.36722608886e-09
-4.35687429316e-08
-2.6162285935e-09
-4.26359991789e-08
-2.85256681661e-09
-4.16287829647e-08
-3.07560450098e-09
-4.05515015495e-08
-3.28473720357e-09
-3.94086210187e-08
-3.47939417913e-09
-3.8204891037e-08
-3.65904247229e-09
-3.69450989469e-08
-3.82319146692e-09
-3.5634290336e-08
-3.97139933104e-09
-3.42775192738e-08
-4.10327961916e-09
-3.28800640287e-08
-4.21850951372e-09
-3.14471716594e-08
-4.3168377986e-09
-2.99842684752e-08
-4.39809429954e-09
-2.84966974745e-08
-4.46219852843e-09
-2.6989923678e-08
-4.50916968034e-09
-2.54692633254e-08
-4.53913511802e-09
-2.39400845386e-08
-4.55234013281e-09
-2.24075277827e-08
-4.54915530019e-09
-2.08767029022e-08
-4.53008509626e-09
-1.93524010757e-08
-4.49577311988e-09
-1.78392893963e-08
-4.44700892925e-09
-1.63416150717e-08
-4.38473097644e-09
-1.48633984031e-08
-4.31003272249e-09
-1.34081298976e-08
-4.22416595008e-09
-1.19789611e-08
-4.12855135757e-09
-1.05783953305e-08
-4.02479018923e-09
-9.20847636785e-09
-3.9146898037e-09
-7.87048015663e-09
-3.80029443064e-09
-6.56511652996e-09
-3.68393153767e-09
-5.29226628364e-09
-3.56825063319e-09
-4.05127855915e-09
-3.45623867967e-09
-2.84090499077e-09
-3.35113218807e-09
-1.65986359552e-09
-3.25612946079e-09
-5.06958654088e-10
-3.17377837314e-09
6.1855589833e-10
-3.10505222856e-09
1.71800119685e-09
-3.04941051343e-09
2.79335311148e-09
-3.00479354424e-09
3.84677601803e-09
-2.96802510063e-09
4.88000406308e-09
-2.93602820691e-09
5.89422974273e-09
-2.90599948553e-09
6.88986360664e-09
-2.87550363229e-09
7.86671850999e-09
-2.84242443782e-09
8.82391024225e-09
-2.80491756029e-09
9.76007971955e-09
-2.76136694866e-09
1.06733237964e-08
-2.7103593991e-09
1.15613997439e-08
-2.65066680838e-09
1.24216634596e-08
-2.58123873551e-09
1.32512497592e-08
-2.5011960528e-09
1.40470154917e-08
-2.4098283046e-09
1.48056976173e-08
-2.3065889982e-09
1.55238615925e-08
-2.1910918652e-09
1.61980400413e-08
-2.0631046829e-09
1.68246867281e-08
-1.92254351462e-09
1.74002983814e-08
-1.76946531422e-09
1.79213743327e-08
-1.6040612449e-09
1.83845239155e-08
-1.42664938441e-09
1.87864319069e-08
-1.23766860642e-09
1.9123954026e-08
-1.03767266886e-09
1.93940886263e-08
-8.27325756493e-10
1.95940632044e-08
-6.07398569255e-10
1.97213133942e-08
-3.78765630745e-10
1.97735631997e-08
-1.42402453653e-10
1.97488117787e-08
1.0061794615e-10
1.96454138012e-08
3.49128685659e-10
1.94620775808e-08
6.01828411297e-10
1.91979527554e-08
8.57250077009e-10
1.8852651578e-08
1.11374108389e-09
1.84263472675e-08
1.36943615607e-09
1.79198153697e-08
1.62222316442e-09
1.73345463001e-08
1.86970310635e-09
1.66728069621e-08
2.10914546722e-09
1.59377638415e-08
2.33744303425e-09
1.51335533057e-08
2.55107294749e-09
1.42653953756e-08
2.74607647179e-09
1.33396413825e-08
2.91807558872e-09
1.23638376997e-08
3.06235129833e-09
1.13467042842e-08
3.17401114828e-09
1.02981055069e-08
3.24826993877e-09
9.22893202129e-09
3.28085098229e-09
8.15097322417e-09
3.26848696618e-09
7.07671600616e-09
3.20946411946e-09
6.01912468973e-09
3.1041315989e-09
4.99131509593e-09
2.95531154853e-09
4.00609760558e-09
2.76861298045e-09
3.07523584075e-09
2.55276751922e-09
2.20827366201e-09
2.32024725724e-09
1.41064850382e-09
2.08860515921e-09
6.80195227316e-10
1.88352576665e-09
1.74610822875e-09
-7.16287142478e-10
2.46254542555e-09
-1.43927093772e-09
2.50161983744e-09
-2.17831122789e-09
2.57472953929e-09
-2.94284460663e-09
2.68203376586e-09
-3.74180322693e-09
2.8229261057e-09
-4.58366842298e-09
2.9960829834e-09
-5.47612165532e-09
3.19953696308e-09
-6.42611675004e-09
3.43071562702e-09
-7.4394650831e-09
3.68641093049e-09
-8.52092618784e-09
3.96271829293e-09
-9.67379520567e-09
4.25499782223e-09
-1.09000181323e-08
4.55788678418e-09
-1.21998181804e-08
4.86537285641e-09
-1.35718869492e-08
5.17093723465e-09
-1.50131010232e-08
5.46775665182e-09
-1.65188202172e-08
5.74894837507e-09
-1.80827223183e-08
6.00783356282e-09
-1.96972094025e-08
6.23819456257e-09
-2.13533460382e-08
6.43450104108e-09
-2.30413412723e-08
6.59208885414e-09
-2.47505456271e-08
6.70727951868e-09
-2.64699580137e-08
6.77744008859e-09
-2.81882280133e-08
6.80098583796e-09
-2.98941389329e-08
6.77733678912e-09
-3.15765720459e-08
6.70683720151e-09
-3.3224933623e-08
6.59065125594e-09
-3.4829058071e-08
6.43064319363e-09
-3.63795677673e-08
6.22925212314e-09
-3.78677120046e-08
5.98936635017e-09
-3.92856651825e-08
5.71420387152e-09
-4.062631173e-08
5.40720107912e-09
-4.18834968837e-08
5.07191376605e-09
-4.3051773023e-08
4.71193054083e-09
-4.41266189914e-08
4.33080090514e-09
-4.51041630476e-08
3.93197660524e-09
-4.59813844667e-08
3.5187671581e-09
-4.67558254871e-08
3.09430706162e-09
-4.74257854658e-08
2.6615348032e-09
-4.79900308738e-08
2.22318058753e-09
-4.8447988877e-08
1.78176273388e-09
-4.87994612346e-08
1.33958952643e-09
-4.90448210852e-08
8.98766740909e-10
-4.91847333612e-08
4.61207655539e-10
-4.92203567567e-08
2.86462524796e-11
-4.91530762657e-08
-3.9735213211e-10
-4.89846903079e-08
-8.15430066147e-10
-4.87171483279e-08
-1.22431353798e-09
-4.83527650272e-08
-1.62282596053e-09
-4.78939705733e-08
-2.00986909759e-09
-4.73435309319e-08
-2.38440867169e-09
-4.67043055325e-08
-2.74546480423e-09
-4.59794703129e-08
-3.09210357211e-09
-4.51722805239e-08
-3.4234323116e-09
-4.42862941841e-08
-3.73859568002e-09
-4.33251374352e-08
-4.03677539556e-09
-4.22927265082e-08
-4.31719054252e-09
-4.11930333426e-08
-4.579101319e-09
-4.00303047397e-08
-4.82181307675e-09
-3.88088262511e-08
-5.04468342475e-09
-3.75331376082e-08
-5.24712934474e-09
-3.620779304e-08
-5.42863689577e-09
-3.48375724459e-08
-5.58877070299e-09
-3.34272365074e-08
-5.72718548139e-09
-3.19817333741e-08
-5.84363716763e-09
-3.05059471215e-08
-5.93799541979e-09
-2.90049000532e-08
-6.01025558304e-09
-2.74834934005e-08
-6.0605511902e-09
-2.59467056697e-08
-6.08916577292e-09
-2.43993249249e-08
-6.09654416332e-09
-2.28461439897e-08
-6.0833029796e-09
-2.12916843743e-08
-6.05023946393e-09
-1.97403895257e-08
-5.99833968155e-09
-1.81963414283e-08
-5.92878433012e-09
-1.66634537073e-08
-5.84295515705e-09
-1.5145183764e-08
-5.74243958725e-09
-1.36447292832e-08
-5.6290391369e-09
-1.21647432648e-08
-5.50477827928e-09
-1.07075437482e-08
-5.371920893e-09
-9.27485201332e-09
-5.23298657793e-09
-7.8680442912e-09
-5.09076869566e-09
-6.48796399212e-09
-4.94832969213e-09
-5.13527853646e-09
-4.80895097815e-09
-3.81043346699e-09
-4.67597442854e-09
-2.51410179252e-09
-4.55248503062e-09
-1.24707471868e-09
-4.44080122743e-09
-1.01956016656e-11
-4.34195219184e-09
1.19576424808e-09
-4.25536510495e-09
2.37071422392e-09
-4.17976151198e-09
3.51558830833e-09
-4.1128933558e-09
4.631179854e-09
-4.05163529429e-09
5.71820902231e-09
-3.99302273679e-09
6.77695337814e-09
-3.93426156911e-09
7.80734499394e-09
-3.87281048832e-09
8.80880153037e-09
-3.8063862031e-09
9.78039599199e-09
-3.7329565553e-09
1.07207575358e-08
-3.65073201518e-09
1.16282512657e-08
-3.55815667454e-09
1.25009041924e-08
-3.45390208381e-09
1.3336571172e-08
-3.33686036457e-09
1.4132870927e-08
-3.20613815363e-09
1.48873324209e-08
-3.06104916323e-09
1.55973370413e-08
-2.90110651886e-09
1.62602462767e-08
-2.72601401394e-09
1.68733496632e-08
-2.53565708521e-09
1.7433976336e-08
-2.33009354698e-09
1.79394490634e-08
-2.10954446947e-09
1.83871823853e-08
-1.87438572733e-09
1.87746430655e-08
-1.62514021465e-09
1.90994374184e-08
-1.36247146891e-09
1.93592785712e-08
-1.08717835014e-09
1.95520656465e-08
-8.00191456553e-10
1.96758584408e-08
-5.0257043017e-10
1.97289511679e-08
-1.95502278829e-10
1.97098556219e-08
1.1970089825e-10
1.96173725624e-08
4.41603456929e-10
1.945057976e-08
7.68608029874e-10
1.92089062603e-08
1.09891419882e-09
1.88921395454e-08
1.43049403744e-09
1.85005050999e-08
1.76106023666e-09
1.80346858743e-08
2.08802807742e-09
1.74959057763e-08
2.40847195336e-09
1.68859568603e-08
2.71907956742e-09
1.62072797343e-08
3.01610814175e-09
1.54629860734e-08
3.29535137872e-09
1.46569203363e-08
3.55212955836e-09
1.37936592611e-08
3.78132114476e-09
1.28785396204e-08
3.97745778327e-09
1.19176290016e-08
4.13490609289e-09
1.09177322353e-08
4.24815309095e-09
9.88637044018e-09
4.31219703064e-09
8.83182260423e-09
4.32302075799e-09
7.76317141134e-09
4.27809960174e-09
6.69040289079e-09
4.17688571254e-09
5.62446204495e-09
4.02123719914e-09
4.57721851236e-09
3.81584189691e-09
3.5611496297e-09
3.56882202251e-09
2.5884977661e-09
3.29288618232e-09
1.66945503923e-09
3.00763574685e-09
8.08766215506e-10
2.74420230035e-09
2.55487104866e-09
-7.87093517569e-10
3.24973314416e-09
-1.58225506279e-09
3.29686342232e-09
-2.39419099728e-09
3.38676427033e-09
-3.23200883469e-09
3.51991706311e-09
-4.10448689957e-09
3.69549156631e-09
-5.01995927008e-09
3.91160600584e-09
-5.98586822731e-09
4.1655167919e-09
-7.00880972967e-09
4.45369154721e-09
-8.09412332243e-09
4.77178485888e-09
-9.24598243005e-09
5.11459722516e-09
-1.04669917616e-08
5.47605515685e-09
-1.17583434189e-08
5.8492485003e-09
-1.31194762605e-08
6.22654496887e-09
-1.45483163257e-08
6.59978051801e-09
-1.60410399195e-08
6.96051390344e-09
-1.75924185818e-08
7.30032640433e-09
-1.91956897699e-08
7.61113522682e-09
-2.08429924965e-08
7.88549475093e-09
-2.25253184676e-08
8.11685563531e-09
-2.42329993502e-08
8.29976605294e-09
-2.59556933387e-08
8.43000064951e-09
-2.76828773759e-08
8.50461924943e-09
-2.9403823283e-08
8.52195720465e-09
-3.11080550533e-08
8.48156203665e-09
-3.27852803904e-08
8.38408587276e-09
-3.44257890755e-08
8.23115121764e-09
-3.60203238482e-08
8.0251986983e-09
-3.75604142676e-08
7.76933110814e-09
-3.9038188358e-08
7.46715816272e-09
-4.04466509149e-08
7.12265190308e-09
-4.17794486402e-08
6.74001321998e-09
-4.30311087376e-08
6.32355600185e-09
-4.41967738442e-08
5.87760657792e-09
-4.52724168459e-08
5.40642260846e-09
-4.62545600914e-08
4.91412723054e-09
-4.71404787617e-08
4.40466110915e-09
-4.79279149369e-08
3.88174710907e-09
-4.86152776319e-08
3.3488694911e-09
-4.92013584738e-08
2.80926193685e-09
-4.96855329849e-08
2.26590616361e-09
-5.00674815838e-08
1.72153549593e-09
-5.03473940606e-08
1.17864535236e-09
-5.05256971384e-08
6.39505268151e-10
-5.06032626633e-08
1.06175486517e-10
-5.05811469612e-08
-4.19475751064e-10
-5.04608114406e-08
-9.35803862938e-10
-5.02438291535e-08
-1.44130574662e-09
-4.99321094685e-08
-1.93458543511e-09
-4.95276551106e-08
-2.41433489626e-09
-4.90327859818e-08
-2.87931861742e-09
-4.84499003043e-08
-3.32836295264e-09
-4.7781699197e-08
-3.76034606891e-09
-4.70309521164e-08
-4.17419242385e-09
-4.62007212374e-08
-4.56886810398e-09
-4.52941291717e-08
-4.94338062373e-09
-4.43145816643e-08
-5.29677940227e-09
-4.32655356119e-08
-5.62816028923e-09
-4.2150719072e-08
-5.93667049511e-09
-4.09738978236e-08
-6.2215170383e-09
-3.97390920587e-08
-6.48197532093e-09
-3.84503399058e-08
-6.71740062241e-09
-3.711191054e-08
-6.92723948664e-09
-3.57280632689e-08
-7.11104336067e-09
-3.43032570676e-08
-7.26848193674e-09
-3.28419040228e-08
-7.39935798513e-09
-3.13485755917e-08
-7.5036217088e-09
-2.98277494748e-08
-7.58138565747e-09
-2.8284013126e-08
-7.63293894429e-09
-2.67218035299e-08
-7.65876087644e-09
-2.51456088011e-08
-7.65953363691e-09
-2.35597010096e-08
-7.63615308194e-09
-2.1968337142e-08
-7.5897385245e-09
-2.03754863817e-08
-7.52163956272e-09
-1.87850328743e-08
-7.43344255416e-09
-1.72005016158e-08
-7.32697390337e-09
-1.56252685569e-08
-7.2043047953e-09
-1.40622953743e-08
-7.06775305677e-09
-1.25143599006e-08
-6.91988737939e-09
-1.09838220303e-08
-6.76352456107e-09
-9.47290039902e-09
-6.60171937748e-09
-7.98350540177e-09
-6.43772333329e-09
-6.5175879587e-09
-6.27489510119e-09
-5.07703992155e-09
-6.11651971749e-09
-3.66402811329e-09
-5.96552083575e-09
-2.28074745307e-09
-5.82407793048e-09
-9.29464119712e-10
-5.69325673007e-09
3.87924758994e-10
-5.57274913829e-09
1.66958702429e-09
-5.46144232907e-09
2.91464496268e-09
-5.35794597413e-09
4.12288982671e-09
-5.25989638149e-09
5.29421543366e-09
-5.16434299254e-09
6.42839807148e-09
-5.06845852764e-09
7.5251384017e-09
-4.96954584057e-09
8.58385461921e-09
-4.86511527813e-09
9.60381021381e-09
-4.75290788283e-09
1.05839778729e-08
-4.63091148136e-09
1.15231898928e-08
-4.49736540105e-09
1.24200386105e-08
-4.3507619216e-09
1.32730226861e-08
-4.18984231347e-09
1.40804650278e-08
-4.01359123982e-09
1.48406452307e-08
-3.82122853736e-09
1.55517282149e-08
-3.61220012842e-09
1.62118814387e-08
-3.38616778494e-09
1.68192122282e-08
-3.14299858761e-09
1.73718711381e-08
-2.88275441254e-09
1.78679973948e-08
-2.60568168437e-09
1.83058104243e-08
-2.31220211483e-09
1.86835631294e-08
-2.00290424037e-09
1.89996236372e-08
-1.6785366995e-09
1.92524362493e-08
-1.34000272722e-09
1.94405955407e-08
-9.88356775378e-10
1.95628151043e-08
-6.24802258281e-10
1.96179963722e-08
-2.50690801697e-10
1.96052057341e-08
1.32478744405e-10
1.95237370556e-08
5.23063744453e-10
1.93730858723e-08
9.19245887602e-10
1.91530120877e-08
1.31897855309e-09
1.88635318748e-08
1.71996039848e-09
1.85049796836e-08
2.11960205322e-09
1.80780057087e-08
2.51498769278e-09
1.75836339318e-08
2.90283250529e-09
1.70232587025e-08
3.27943997308e-09
1.6398691168e-08
3.64066371114e-09
1.5712144399e-08
3.98188294177e-09
1.49662581543e-08
4.29800322734e-09
1.41640649124e-08
4.58349892677e-09
1.33089943419e-08
4.83251529164e-09
1.2404836881e-08
5.03904796322e-09
1.14557663647e-08
5.19721009571e-09
1.04663638399e-08
5.30158390581e-09
9.4417370424e-09
5.34763357698e-09
8.38768208344e-09
5.33213904066e-09
7.31094542001e-09
5.25360803086e-09
6.21951101401e-09
5.11265640485e-09
5.12290628042e-09
4.91243212527e-09
4.03240397742e-09
4.6593099077e-09
2.96097561837e-09
4.36430145488e-09
1.92270540377e-09
4.04589370013e-09
9.31507166065e-10
3.73538807818e-09
3.48637478819e-09
-8.54078401261e-10
4.10391045253e-09
-1.71764575135e-09
4.16051473013e-09
-2.59899867873e-09
4.26821863346e-09
-3.50696279447e-09
4.42795211756e-09
-4.45009612366e-09
4.63871164503e-09
-5.43648119635e-09
4.89804008071e-09
-6.47323207476e-09
5.20234168633e-09
-7.56652958127e-09
5.5470206133e-09
-8.72118519566e-09
5.92649699478e-09
-9.94075471101e-09
6.33418526738e-09
-1.12271588348e-08
6.76250515945e-09
-1.25808652884e-08
7.20296240845e-09
-1.40005893947e-08
7.64630648186e-09
-1.54835816269e-08
8.08277356053e-09
-1.70254293647e-08
8.50239374687e-09
-1.86204454784e-08
8.89533988454e-09
-2.02615641634e-08
9.25228318557e-09
-2.19408006695e-08
9.5647270648e-09
-2.36492050988e-08
9.82528778135e-09
-2.53773505916e-08
1.00279064643e-08
-2.711530135e-08
1.01679778628e-08
-2.88530882081e-08
1.02424000122e-08
-3.05806530587e-08
1.02495469846e-08
-3.22882811511e-08
1.01891825238e-08
-3.39664969297e-08
1.00623245725e-08
-3.56064372514e-08
9.87108184389e-09
-3.71996895278e-08
9.61847138967e-09
-3.87386056113e-08
9.30823489391e-09
-4.02160876118e-08
8.94465765534e-09
-4.16258538151e-08
8.53240282708e-09
-4.29621862548e-08
8.07635993148e-09
-4.42201647182e-08
7.58151597219e-09
-4.53953919047e-08
7.05284464007e-09
-4.64842102093e-08
6.49521911316e-09
-4.74834174065e-08
5.91334184853e-09
-4.83904766256e-08
5.31169525326e-09
-4.92032311666e-08
4.69450566557e-09
-4.99201137138e-08
4.06572382858e-09
-5.05398651544e-08
3.42901413972e-09
-5.10617458576e-08
2.78775574786e-09
-5.14852607406e-08
2.14504812272e-09
-5.18103734505e-08
1.5037243234e-09
-5.20372381718e-08
8.66365022128e-10
-5.21664150072e-08
2.35316324504e-10
-5.21986083237e-08
-3.87289727911e-10
-5.21349298264e-08
-9.99520182471e-10
-5.19765671149e-08
-1.5996776284e-09
-5.17250211756e-08
-2.18617054916e-09
-5.13818673937e-08
-2.75749924182e-09
-5.09489839699e-08
-3.31224209368e-09
-5.04283139115e-08
-3.84904448296e-09
-4.98220930746e-08
-4.36660738907e-09
-4.91326162303e-08
-4.86368119021e-09
-4.8362464215e-08
-5.33906063623e-09
-4.7514272101e-08
-5.79158469389e-09
-4.65909543429e-08
-6.22013737873e-09
-4.55954733672e-08
-6.62365290009e-09
-4.45310620022e-08
-7.00112152486e-09
-4.34009909822e-08
-7.35159908526e-09
-4.22087883159e-08
-7.67421692358e-09
-4.09580043904e-08
-7.9681947534e-09
-3.96524282743e-08
-8.23285371178e-09
-3.82958493147e-08
-8.46763155396e-09
-3.68922706643e-08
-8.67209782961e-09
-3.54456664772e-08
-8.84597034095e-09
-3.39601931913e-08
-8.98913137329e-09
-3.24399417034e-08
-9.10164419208e-09
-3.08891471339e-08
-9.18376904415e-09
-2.93119357182e-08
-9.23597818436e-09
-2.77125339777e-08
-9.25897006157e-09
-2.60950106762e-08
-9.25368109058e-09
-2.44634867141e-08
-9.22129628035e-09
-2.28218737341e-08
-9.16325603431e-09
-2.1174087215e-08
-9.08126186936e-09
-1.95237861101e-08
-8.97727724924e-09
-1.78745947055e-08
-8.85352781342e-09
-1.6229853323e-08
-8.71249540775e-09
-1.45928605471e-08
-8.55691032407e-09
-1.29666533415e-08
-8.38973145907e-09
-1.13542868224e-08
-8.21411429179e-09
-9.75866255841e-09
-8.03334604552e-09
-8.1828450552e-09
-7.8507388816e-09
-6.62990803772e-09
-7.66945402509e-09
-5.10319200185e-09
-7.49226076215e-09
-3.60601962285e-09
-7.32124661568e-09
-2.14174264898e-09
-7.15755510674e-09
-7.13207241296e-10
-7.00128014774e-09
6.76672728857e-10
-6.85134130362e-09
2.0252586728e-09
-6.70652717124e-09
3.33093883526e-09