/*--------------------------------*- C++ -*----------------------------------*\
| =========                 |                                                 |
| \\      /  F ield         | OpenFOAM: The Open Source CFD Toolbox           |
|  \\    /   O peration     | Version:  2206                                  |
|   \\  /    A nd           | Website:  www.openfoam.com                      |
|    \\/     M anipulation  |                                                 |
\*---------------------------------------------------------------------------*/
FoamFile
{
    version     2.0;
    format      ascii;
    arch        "LSB;label=64;scalar=64";
    class       volScalarField;
    location    "0.4/solid";
    object      T;
}
// * * * * * * * * * * * * * * * * * * * * * * * * * * * * * * * * * * * * * //

dimensions      [0 0 0 1 0 0 0];

internalField   nonuniform List<scalar> 
500
(
1118.48889027
1118.33419016
1118.01062264
1117.51131584
1116.82325356
1115.92650559
1114.80205754
1113.45015003
1111.9308527
1110.37177047
1119.11689019
1118.96297377
1118.65094912
1118.17523355
1117.52900694
1116.706164
1115.7044753
1114.53143349
1113.21383734
1111.79365036
1119.64881406
1119.50174781
1119.20538868
1118.75599042
1118.14923921
1117.38168551
1116.45253194
1115.36588921
1114.13359771
1112.77124061
1120.08676173
1119.94632811
1119.66374873
1119.23596667
1118.65919829
1117.92976111
1117.04503512
1116.0048596
1114.81439773
1113.4816768
1120.43439231
1120.29910682
1120.02692954
1119.61487783
1119.05897182
1118.35472527
1117.4977366
1116.48490547
1115.31844115
1114.00807355
1120.6995994
1120.56803365
1120.30328305
1119.90227108
1119.36071591
1118.67345015
1117.83483335
1116.83987424
1115.68913569
1114.40311293
1120.89375109
1120.76485412
1120.50542426
1120.11231583
1119.58105541
1118.90605799
1118.08090879
1117.09932541
1115.96004515
1114.68618274
1121.03037423
1120.90347029
1120.64804119
1120.26095006
1119.7376797
1119.07246468
1118.25843877
1117.28837492
1116.15930428
1114.89307261
1121.12325144
1120.99794462
1120.74575894
1120.36364255
1119.84716261
1119.1905585
1118.38673892
1117.42773218
1116.30883583
1115.04915525
1121.18479188
1121.06086652
1120.81151964
1120.43384243
1119.92358306
1119.27512524
1118.48132562
1117.53361352
1116.42545631
1115.17300611
1121.22511602
1121.10246028
1120.85574583
1120.48224568
1119.97795697
1119.33751457
1118.55387194
1117.61801025
1116.52151936
1115.27642022
1121.25182577
1121.13038141
1120.88619242
1120.51673704
1120.01830816
1119.38587739
1118.61263857
1117.68931038
1116.60558445
1115.36905184
1121.27023383
1121.14996583
1120.90823594
1120.54273913
1120.05009312
1119.42567125
1118.66303812
1117.75286572
1116.68307701
1115.45559205
1121.28381426
1121.16469358
1120.92536423
1120.56374063
1120.07678104
1119.46030974
1118.70838488
1117.81187742
1116.75712402
1115.54015384
1121.29469752
1121.17669183
1120.93969469
1120.58183555
1120.10041678
1119.49174519
1118.75048092
1117.86797935
1116.82939668
1115.62359378
1121.30410746
1121.18717694
1120.95242631
1120.59819025
1120.12210862
1119.52098462
1118.79016084
1117.92174852
1116.90022226
1115.70745456
1121.31269828
1121.19679454
1120.96418582
1120.6133979
1120.14239346
1119.54847161
1118.82771456
1117.97324912
1116.96946519
1115.79013077
1121.32078854
1121.2058553
1120.97526636
1120.62772012
1120.1614781
1119.57431562
1118.86307077
1118.02208792
1117.03638114
1115.87243333
1121.32851
1121.21448466
1120.98577934
1120.641243
1120.17940479
1119.59848288
1118.89605859
1118.0678433
1117.10018735
1115.95187712
1121.33589525
1121.22271087
1120.99574349
1120.65396811
1120.19614492
1119.62089115
1118.92649352
1118.11012416
1117.16025208
1116.02836219
1121.34292574
1121.23051316
1121.00513353
1120.66586258
1120.21165242
1119.64146929
1118.95424744
1118.14864799
1117.21609542
1116.10091488
1121.34955664
1121.23784645
1121.01390491
1120.67688497
1120.22589321
1119.66019517
1118.97930419
1118.18333036
1117.26756978
1116.17021152
1121.3557288
1121.24465255
1121.02200315
1120.68699066
1120.23884306
1119.6770802
1119.00172565
1118.21422767
1117.31456131
1116.2425935
1121.36137497
1121.25086545
1121.02936695
1120.69613058
1120.25047785
1119.6921423
1119.02158788
1118.24142295
1117.35665123
1116.31774836
1121.36642509
1121.25641625
1121.03593205
1120.70425328
1120.2607731
1119.7054046
1119.03898803
1118.26506387
1117.39350426
1116.39046015
1121.37081332
1121.26123984
1121.04163715
1120.71130878
1120.26970359
1119.71688617
1119.05401937
1118.28534116
1117.42515099
1116.46095813
1121.37448874
1121.26528607
1121.04643558
1120.71726053
1120.27725417
1119.72660792
1119.06675687
1118.30238582
1117.4512203
1116.530066
1121.37742923
1121.26853493
1121.05031321
1120.72210728
1120.28344755
1119.73462986
1119.07731544
1118.31642121
1117.47142821
1116.59835607
1121.37965358
1121.27100989
1121.05330407
1120.72590203
1120.28836779
1119.74108146
1119.08588519
1118.32778681
1117.48604941
1116.63197939
1121.38122615
1121.27278306
1121.05549632
1120.72875893
1120.29216815
1119.74617208
1119.09274998
1118.33691223
1117.49720761
1116.64500342
1121.38224875
1121.27396676
1121.05702332
1120.73084365
1120.29506067
1119.75018069
1119.09828576
1118.34431139
1117.50591127
1116.65422477
1121.38283637
1121.27468778
1121.05803486
1120.73233983
1120.29727511
1119.75340069
1119.10287619
1118.35048763
1117.51279476
1116.6596755
1121.38307515
1121.27504329
1121.05864908
1120.73339492
1120.29899591
1119.75606355
1119.10681651
1118.35581866
1117.51831068
1116.66319433
1121.38295868
1121.27503578
1121.05888494
1120.7340498
1120.30028994
1119.75826829
1119.110254
1118.36053272
1117.52278249
1116.66404963
1121.38228857
1121.27447316
1121.05856158
1120.7341375
1120.30100473
1119.75987802
1119.11307784
1118.36458109
1117.52626372
1116.66338996
1121.38050884
1121.27280367
1121.05713453
1120.73312183
1120.30061104
1119.76036934
1119.11477909
1118.36750826
1117.52839272
1116.65979664
1121.3764224
1121.2688335
1121.05341568
1120.72982124
1120.29793267
1119.75856837
1119.11418835
1118.36818248
1117.52816039
1116.65350828
1121.36771878
1121.26025458
1121.04510139
1120.72193759
1120.29067634
1119.75218387
1119.10901534
1118.36434217
1117.52339471
1116.64128564
1121.35023379
1121.24290349
1121.02802954
1120.70531009
1120.2746816
1119.73705287
1119.09509297
1118.35184227
1117.5100594
1116.61997601
1121.316875
1121.20968622
1120.99510283
1120.67283624
1120.24283799
1119.70605179
1119.06527623
1118.32352973
1117.48109449
1116.58190292
1121.25619207
1121.14914837
1120.93485883
1120.6130416
1120.18365497
1119.64766842
1119.00802189
1118.26783525
1117.42497279
1116.5159847
1121.15066759
1121.04376616
1120.82976108
1120.50837114
1120.07955383
1119.5442958
1118.90568886
1118.16709226
1117.3240871
1116.40385643
1120.97495745
1120.86818617
1120.65443777
1120.33342605
1119.90510131
1119.37045985
1118.73275356
1117.99572765
1117.15290872
1116.22033346
1120.69449863
1120.58783121
1120.37428328
1120.05355803
1119.62559208
1119.09138358
1118.45434962
1117.71877947
1116.87648795
1115.92946012
1120.26506934
1120.15845786
1119.94501036
1119.62441174
1119.19657458
1118.66248571
1118.02572898
1117.29132686
1116.4499738
1115.48622705
1119.63394248
1119.52730976
1119.31380327
1118.99307712
1118.56499669
1118.03050103
1117.39331082
1116.65936559
1115.81917187
1114.83540404
1118.74312467
1118.63636171
1118.42257632
1118.10137479
1117.67252856
1117.13684093
1116.49805618
1115.76311207
1114.92363385
1113.91665104
1117.53473491
1117.42770003
1117.21337923
1116.89132549
1116.46114971
1115.92337078
1115.28153306
1114.54341682
1113.70302678
1112.67546013
1115.95780039
1115.85024064
1115.63508283
1115.31188561
1114.88007827
1114.33978844
1113.69423895
1112.95184694
1112.10928659
1111.07114163
1113.97533269
1113.8662353
1113.64953499
1113.32488737
1112.89196216
1112.350472
1111.70385254
1110.96199884
1110.12634177
1109.09699115
)
;

boundaryField
{
    symmetric
    {
        type            symmetry;
    }
    emptyPatch
    {
        type            empty;
    }
    solid_to_water
    {
        type            compressible::turbulentTemperatureTwoPhaseRadCoupledMixed;
        refValue        nonuniform List<scalar> 
70
(
421.74469957
422.091337655
420.996946724
419.372799747
416.940646108
405.112188248
384.328805547
363.51857444
344.981956081
337.847422088
336.430397535
335.997247722
335.638000977
335.712967056
337.089331682
342.176766478
348.617008808
352.101984073
351.232227083
354.202960049
352.245928466
354.955343826
352.773223303
355.362160319
353.069265543
355.236163135
353.063316828
354.4678932
352.942740985
353.214560714
352.066359506
348.019952348
341.93515284
338.695518038
337.058516909
336.759293129
338.189514674
349.314994562
407.629634861
417.551256034
436.444705951
430.846654535
444.315575394
435.377523141
446.218067937
436.681098744
445.318782055
436.663474032
443.483027401
436.503323563
441.864137322
436.651012861
440.366698818
438.081521773
439.282279767
434.227947301
409.888076427
371.081993382
351.120907989
334.104900225
334.191932115
334.266287194
334.353693283
334.375426362
334.38565555
334.426465024
334.756412212
335.000256873
341.857155078
335.137681941
)
;
        refGradient     uniform 0;
        valueFraction   nonuniform List<scalar> 
70
(
0.000527301989064
0.000527654028661
0.000527865585101
0.000528357777247
0.000528968463486
0.000562263143701
0.000655085179324
0.00081927289529
0.00119130466182
0.00148993671617
0.000975653291205
0.000968012316757
0.000963082338602
0.000965599484794
0.000986756513994
0.000958724059491
0.000863533543966
0.00082961195082
0.000862737132053
0.000821683684623
0.000860403609193
0.00082034844337
0.000859222772963
0.000820766414115
0.000859303215855
0.00082638681729
0.00086065038161
0.000837358571794
0.00086071844409
0.000853694216665
0.000864247679397
0.00090639965691
0.000986061952239
0.000996106669776
0.000982770989084
0.000981957415698
0.000995427082639
0.000887902418218
0.000496286471298
0.000518473443251
0.000485089547852
0.000518290250588
0.000485975170788
0.000516882880927
0.000487748016447
0.000516877137037
0.000492466490218
0.000518476104913
0.00049882852403
0.000520393369527
0.000505370516308
0.000522490483115
0.000513285975794
0.000522396085244
0.000518425195747
0.000523143029353
0.000573625784095
0.000741064711474
0.000900473439049
0.00153832757993
0.00154280181903
0.00154611146794
0.00154969454229
0.00154950057589
0.00154890028227
0.00155009812804
0.00156205656266
0.00156245747979
0.000990504531324
0.00156131777114
)
;
        source          uniform 0;
        value           nonuniform List<scalar> 
70
(
1118.12365989
1117.96913355
1117.64504559
1117.14485727
1116.45550745
1115.52946088
1114.32629608
1112.83822373
1111.01986247
1109.22382801
1109.61974353
1111.04540694
1112.02539459
1112.73330714
1113.24446813
1113.66539112
1114.02551769
1114.26045415
1114.39096397
1114.5477922
1114.62070756
1114.74539607
1114.80121294
1114.91657415
1114.96949411
1115.07973074
1115.13517992
1115.23611597
1115.29699442
1115.37906966
1115.44290348
1115.47723782
1115.48413946
1115.5488517
1115.63045849
1115.70165113
1115.76229283
1115.92268242
1116.27851921
1116.28113805
1116.32213911
1116.30264719
1116.33421236
1116.31018814
1116.33406436
1116.30649473
1116.32054251
1116.28679675
1116.28182793
1116.22597474
1116.1726929
1116.04664462
1115.87120577
1115.57331794
1115.13359033
1114.47742074
1113.51190505
1112.12818166
1110.39203042
1112.77856398
1112.66628306
1112.44746729
1112.12068104
1111.68860301
1111.14838069
1110.50177919
1109.75235347
1108.9192017
1108.34432361
1107.89587756
)
;
        kappaMethod     solidThermo;
        Tnbr            T.liquid;
        region          solid;
        otherPhase      gas;
    }
}


// ************************************************************************* //
