/*--------------------------------*- C++ -*----------------------------------*\
| =========                 |                                                 |
| \\      /  F ield         | OpenFOAM: The Open Source CFD Toolbox           |
|  \\    /   O peration     | Version:  2206                                  |
|   \\  /    A nd           | Website:  www.openfoam.com                      |
|    \\/     M anipulation  |                                                 |
\*---------------------------------------------------------------------------*/
FoamFile
{
    version     2.0;
    format      ascii;
    arch        "LSB;label=64;scalar=64";
    class       volScalarField;
    location    "1.1/solid";
    object      T;
}
// * * * * * * * * * * * * * * * * * * * * * * * * * * * * * * * * * * * * * //

dimensions      [0 0 0 1 0 0 0];

internalField   nonuniform List<scalar> 
500
(
1107.71952019
1107.65716026
1107.40676198
1106.96232519
1106.32968466
1105.51452274
1104.51883281
1103.34451288
1101.99134524
1100.51105013
1109.15903811
1109.020352
1108.72466954
1108.26249994
1107.63231571
1106.83589006
1105.8768106
1104.76201365
1103.50418409
1102.12105651
1110.27813959
1110.12674748
1109.82085624
1109.35803494
1108.73795466
1107.96217079
1107.03407645
1105.95940007
1104.74593491
1103.3959993
1111.19167965
1111.04004787
1110.73635063
1110.28040881
1109.67278244
1108.91494312
1108.00937854
1106.95982251
1105.77058105
1104.43792262
1111.95040777
1111.8011118
1111.50259611
1111.05516461
1110.45948027
1109.71662954
1108.82817115
1107.79640951
1106.62406122
1105.30492716
1112.58444509
1112.4378862
1112.14488405
1111.70570768
1111.12079897
1110.39076595
1109.51640319
1108.49910553
1107.34113501
1106.03561235
1113.11628812
1112.97237149
1112.68458697
1112.25304207
1111.67789021
1110.95929987
1110.09746481
1109.09315275
1107.94872812
1106.6578579
1113.56399741
1113.42255361
1113.13963536
1112.71518457
1112.14909672
1111.4411859
1110.59118709
1109.59942087
1108.46875344
1107.1944602
1113.94225218
1113.80314596
1113.52483671
1113.10713284
1112.54973026
1111.85217822
1111.01386259
1110.03474819
1108.91855202
1107.66377479
1114.26308272
1114.12623298
1113.85238944
1113.44126604
1112.89242026
1112.20522003
1111.37879004
1110.41273131
1109.3115755
1108.07904398
1114.53648731
1114.40185832
1114.1324267
1113.72784723
1113.18759137
1112.5109146
1111.69675603
1110.74437414
1109.65942565
1108.45693099
1114.77087676
1114.63846111
1114.37344139
1113.97544257
1113.44389409
1112.77799904
1111.97657971
1111.03849226
1109.96978236
1108.80370247
1114.97335437
1114.84315676
1114.58256963
1114.19121056
1113.66850035
1113.01363552
1112.22537988
1111.30215322
1110.2491342
1109.11961801
1115.14988788
1115.02191304
1114.76577591
1114.38110201
1113.86732507
1113.22366341
1112.44886459
1111.54095459
1110.50351805
1109.38970566
1115.30542832
1115.17967419
1114.92798835
1114.55001471
1114.04521476
1113.41284901
1112.65168357
1111.75939248
1110.73777351
1109.63689586
1115.44401084
1115.32046556
1115.07321096
1114.70191637
1114.2060802
1113.58501721
1112.83753763
1111.96101697
1110.95544213
1109.86626892
1115.56885405
1115.44749506
1115.20462949
1114.8399576
1114.35302217
1113.74320246
1113.00937887
1112.14869759
1111.15939221
1110.08272638
1115.68246378
1115.56325761
1115.32471661
1114.96657694
1114.48843266
1113.88973721
1113.16946504
1112.32459603
1111.35162518
1110.28637643
1115.78674169
1115.66964414
1115.43534134
1115.08360943
1114.61409985
1114.02634947
1113.3194535
1112.49031117
1111.53382169
1110.48105437
1115.8830933
1115.76805049
1115.53787968
1115.19240025
1114.73132557
1114.15428222
1113.46050668
1112.64689306
1111.70684555
1110.66570424
1115.97252852
1115.85947837
1115.63331669
1115.2939088
1114.84103394
1114.27441367
1113.59344395
1112.79508626
1111.87132708
1110.8418922
1116.05574866
1115.94462257
1115.72233374
1115.38879558
1114.9438564
1114.38733706
1113.71880971
1112.93538619
1112.02783336
1111.00987054
1116.13321572
1116.02394013
1115.80537753
1115.47749079
1115.04019969
1114.49342714
1113.83693375
1113.06804604
1112.17640192
1111.17026625
1116.20520139
1116.09769901
1115.88270793
1115.56024041
1115.13028736
1114.59287216
1113.94795065
1113.19314013
1112.31711245
1111.32138601
1116.27181469
1116.16600589
1115.95442649
1115.63713728
1115.21419894
1114.68573194
1114.05188876
1113.31063934
1112.44984119
1111.46472929
1116.33300702
1116.22881073
1116.02048009
1115.70812304
1115.29186781
1114.77192618
1114.1486411
1113.4203877
1112.57438257
1111.59864258
1116.38855372
1116.28588769
1116.08064037
1115.77296521
1115.36305547
1114.85120839
1114.23795064
1113.52211824
1112.69048418
1111.72390218
1116.43801124
1116.33679172
1116.13445917
1115.83121087
1115.42730269
1114.9231112
1114.31933637
1113.61532564
1112.79763048
1111.83941807
1116.48064868
1116.3807893
1116.18119745
1115.88211191
1115.48384823
1114.986856
1114.39199697
1113.699182
1112.89499108
1111.94439435
1116.51535226
1116.41676284
1116.21972947
1115.92452906
1115.53153232
1115.04125368
1114.4547001
1113.7723957
1112.98126006
1112.03676347
1116.54050116
1116.44308706
1116.24842015
1115.95681053
1115.56867737
1115.0845889
1114.50567457
1113.83311642
1113.05461955
1112.11521908
1116.55381301
1116.45747556
1116.26497434
1115.97664611
1115.59295001
1115.11449598
1114.54250971
1113.87886152
1113.11258812
1112.17576367
1116.55215772
1116.45679635
1116.26625568
1115.98089152
1115.60119246
1115.1277948
1114.5619825
1113.90630147
1113.15187921
1112.21516624
1116.5313408
1116.43685616
1116.24807331
1115.96535906
1115.58921995
1115.12030144
1114.55990048
1113.91117408
1113.16832423
1112.23410496
1116.48586224
1116.39215945
1116.2049411
1115.92457786
1115.55158367
1115.08659787
1114.53088704
1113.88810651
1113.15633363
1112.23700836
1116.40866467
1116.31565564
1116.12982307
1115.85153621
1115.48130855
1115.0197617
1114.46809255
1113.83030117
1113.10858522
1112.2132058
1116.29089282
1116.19849694
1116.01388752
1115.73742924
1115.3696304
1114.911088
1114.36289795
1113.72923626
1113.01629841
1112.14782219
1116.12169262
1116.02983606
1115.84630186
1115.57144941
1115.20578096
1114.74986855
1114.20468834
1113.57442319
1112.8689511
1112.02830294
1115.88808254
1115.79669617
1115.61409979
1115.34064921
1114.9768434
1114.52323475
1113.98067272
1113.35318726
1112.65387137
1111.84227935
1115.57493124
1115.4839471
1115.30215458
1115.02990965
1114.66771404
1114.21611104
1113.67582898
1113.05060143
1112.35605734
1111.57584748
1115.16507446
1115.07442099
1114.89329219
1114.62205007
1114.26120833
1113.81131647
1113.27299806
1112.64957137
1111.95820629
1111.21308483
1114.63959914
1114.54919485
1114.36857076
1114.09810287
1113.73832947
1113.28982686
1112.75314421
1112.13112167
1111.44107425
1110.72917806
1113.97831386
1113.88805921
1113.70774556
1113.4377727
1113.07871892
1112.63121227
1112.09576722
1111.47474772
1110.78453192
1110.07994075
1113.16041203
1113.07018009
1112.88992836
1112.62009132
1112.26130505
1111.81427882
1111.27954121
1110.65902155
1109.96792923
1109.2621398
1112.16531823
1112.07494609
1111.89443505
1111.62426393
1111.2651432
1110.817894
1110.28311752
1109.66237875
1108.96967034
1108.26126982
1110.9736883
1110.88297363
1110.7018006
1110.43069494
1110.07044576
1109.62200141
1109.08608439
1108.46397402
1107.76844397
1107.05607886
1109.56850843
1109.47721677
1109.29491239
1109.02215629
1108.6597867
1108.20883824
1107.67013368
1107.04469432
1106.34411414
1105.62555571
1107.93619255
1107.84406801
1107.66013974
1107.38498453
1107.01940734
1106.56437267
1106.02059005
1105.38860824
1104.67876922
1103.94989277
1106.06751692
1105.97422216
1105.78818025
1105.51000871
1105.14037761
1104.67990945
1104.12866549
1103.48584645
1102.75956211
1102.01099557
1103.95834122
1103.86292876
1103.67414667
1103.39263044
1103.01893514
1102.55321152
1101.9942079
1101.3383215
1100.5904078
1099.81247463
)
;

boundaryField
{
    symmetric
    {
        type            symmetry;
    }
    emptyPatch
    {
        type            empty;
    }
    solid_to_water
    {
        type            compressible::turbulentTemperatureTwoPhaseRadCoupledMixed;
        refValue        nonuniform List<scalar> 
70
(
343.586833396
350.829801222
350.973209438
351.224019879
350.55044989
350.555516458
349.972094409
349.726033573
345.274870802
339.07302154
338.86879535
339.13025343
338.911093891
338.50849637
338.015676362
337.436443741
336.787893619
336.140757302
335.662952285
335.590990638
336.261022935
339.028667784
355.31816958
367.320023565
377.945900391
375.642267972
384.7232558
380.116931567
389.294007202
383.218135027
390.911791303
384.776420632
392.426658314
386.482832526
392.984650409
387.245024352
391.564902451
387.101431111
389.5031445
387.058351034
387.996406625
385.523357051
379.745294076
358.780495381
345.467120435
340.398810139
337.981806543
336.683739896
336.342899997
336.934601093
340.498048393
365.577295887
418.840242845
436.49389541
444.036608832
449.859190491
451.441562552
453.325686757
450.996686818
334.231026537
334.322896351
334.383779809
334.451545019
334.524118829
334.593946356
334.668324974
334.832114225
335.487184132
419.283990669
338.684854053
)
;
        refGradient     uniform 0;
        valueFraction   nonuniform List<scalar> 
70
(
0.00117171371723
0.000964128941085
0.000976349000633
0.000965400698402
0.000979998194846
0.000970620226189
0.000980479297682
0.000977931556674
0.00111913211797
0.00141287611379
0.000987597624572
0.000988838767
0.000989379583843
0.000989104506903
0.000987584222442
0.000983993561571
0.00097760763382
0.000968865821348
0.000961145576571
0.000960941470294
0.000973100243439
0.000991010690796
0.000730049817875
0.000657789699968
0.000609913850292
0.000657960193478
0.00060906460642
0.000655602952218
0.0006026175738
0.000650646974073
0.000606198079783
0.000650755559365
0.000607151325079
0.0006482136057
0.000610840027334
0.000648293627956
0.000622028482006
0.000650996772121
0.000636324119214
0.00065258282061
0.000645945200886
0.000656160207381
0.000669186166269
0.000810994369675
0.000953959404773
0.000995009689202
0.000988351512176
0.0009753224235
0.000972640524246
0.000979859828002
0.000993141504637
0.00071522326946
0.000490038123962
0.000480573257664
0.000483001281084
0.000479854332981
0.000482632881869
0.000481820025623
0.000488903161262
0.00152578161426
0.00153082437818
0.00153359937615
0.00153652050656
0.00153932327808
0.00154163985618
0.00154379584766
0.00154830558203
0.00154717884896
0.000570945713906
0.00136774437637
)
;
        source          uniform 0;
        value           nonuniform List<scalar> 
70
(
1106.82593101
1106.92952696
1106.67053224
1106.23499433
1105.5912962
1104.78388342
1103.78106108
1102.60935334
1101.14625343
1099.43727991
1099.7609023
1101.36886406
1102.6419101
1103.68259934
1104.5494222
1105.28157721
1105.90747874
1106.44965183
1106.92405049
1107.33916217
1107.70836151
1108.04424346
1108.56919552
1108.90039744
1109.18877956
1109.38209603
1109.63921058
1109.80671785
1110.04480711
1110.19155567
1110.40406557
1110.53662933
1110.73269007
1110.85104896
1111.02490152
1111.12874319
1111.27532851
1111.36751774
1111.4844445
1111.56371768
1111.64750254
1111.69918822
1111.72547586
1111.62574816
1111.51060765
1111.45124702
1111.38891521
1111.27846612
1111.09464896
1110.82388747
1110.4552574
1110.2000277
1109.7415276
1108.93890158
1107.94052683
1106.74073302
1105.30985489
1103.63636432
1101.69256332
1102.78558677
1102.68657787
1102.49603995
1102.21280838
1101.83763968
1101.37096156
1100.81129141
1100.15313998
1099.40759988
1099.42352891
1098.77104603
)
;
        kappaMethod     solidThermo;
        Tnbr            T.liquid;
        region          solid;
        otherPhase      gas;
    }
}


// ************************************************************************* //
