/*--------------------------------*- C++ -*----------------------------------*\
| =========                 |                                                 |
| \\      /  F ield         | OpenFOAM: The Open Source CFD Toolbox           |
|  \\    /   O peration     | Version:  2206                                  |
|   \\  /    A nd           | Website:  www.openfoam.com                      |
|    \\/     M anipulation  |                                                 |
\*---------------------------------------------------------------------------*/
FoamFile
{
    version     2.0;
    format      ascii;
    arch        "LSB;label=64;scalar=64";
    class       volScalarField;
    location    "3.5/solid";
    object      T;
}
// * * * * * * * * * * * * * * * * * * * * * * * * * * * * * * * * * * * * * //

dimensions      [0 0 0 1 0 0 0];

internalField   nonuniform List<scalar> 
500
(
1081.21750752
1081.04668455
1080.70372799
1080.185167
1079.48552451
1078.59858881
1077.51899947
1076.24239339
1074.77765067
1073.28128022
1082.07638224
1081.91133726
1081.58078257
1081.08387905
1080.41993718
1079.58979358
1078.59832956
1077.45788092
1076.19116388
1074.83562844
1082.98935302
1082.83127247
1082.51536945
1082.04234469
1081.4137507
1080.63271918
1079.70498252
1078.63973747
1077.44862156
1076.14172823
1083.93002512
1083.77819401
1083.47502707
1083.0216217
1082.41986502
1081.67269877
1080.78438042
1079.76037977
1078.60556773
1077.31997597
1084.87969066
1084.73278615
1084.43944187
1084.00062811
1083.41786812
1082.69328901
1081.82963785
1080.8300086
1079.69593563
1078.42250586
1085.82352361
1085.680324
1085.39427242
1084.96607309
1084.3967747
1083.68774925
1082.8406679
1081.85729046
1080.73753421
1079.47318841
1086.75092426
1086.61053817
1086.32999572
1085.90975498
1085.35047345
1084.65297383
1083.81824494
1082.84736062
1081.73953519
1080.4838477
1087.65474874
1087.51661249
1087.24047824
1086.82662011
1086.27541883
1085.58733193
1084.76293147
1083.80298259
1082.70656276
1081.46027948
1088.53036356
1088.39416559
1088.12184489
1087.71355148
1087.16948478
1086.48986936
1085.67502479
1084.7256336
1083.64109363
1082.40571657
1089.37486394
1089.24046472
1088.97170143
1088.56864616
1088.03138635
1087.36000223
1086.55465782
1085.61608715
1084.54445851
1083.32232644
1090.18649469
1090.05386257
1089.78861016
1089.39076488
1088.86035112
1088.19736505
1087.40187088
1086.4747172
1085.41726666
1084.21207671
1090.9642383
1090.83340295
1090.57173248
1090.17923277
1089.65589923
1089.00168577
1088.21658783
1087.30157924
1086.25958487
1085.07520082
1091.70752788
1091.57854797
1091.3205845
1090.93363694
1090.41769389
1089.77269404
1088.99857637
1088.09640383
1087.07098761
1085.91100908
1092.4160507
1092.28899266
1092.03487378
1091.65369635
1091.14545583
1090.51009296
1089.74749055
1088.85869535
1087.85048707
1086.71790394
1093.08961417
1092.96453928
1092.71439013
1092.33917672
1091.83890865
1091.21353956
1090.46289565
1089.58788051
1088.59713358
1087.49536781
1093.72805229
1093.60500966
1093.35892962
1092.98983188
1092.49774317
1091.8826355
1091.14427689
1090.28327328
1089.30962331
1088.24292614
1094.33115683
1094.21018016
1093.96823711
1093.60535812
1093.12158917
1092.5169284
1091.79110245
1090.94431772
1089.98700923
1088.96208626
1094.89862302
1094.77972915
1094.54195682
1094.18534711
1093.70996546
1093.11584034
1092.40267434
1091.57021997
1090.62778157
1089.63928518
1095.43000465
1095.31319341
1095.07959107
1094.72924839
1094.26224863
1093.67865147
1092.97815151
1092.16006777
1091.23180101
1090.25443389
1095.92467537
1095.80993051
1095.58046504
1095.23633806
1094.77764833
1094.20448608
1093.51655381
1092.71279192
1091.79869508
1090.83166156
1096.38179331
1096.26908398
1096.04369304
1095.70568641
1095.25517588
1094.69228143
1094.01672868
1093.22713072
1092.32707128
1091.36925108
1096.80026834
1096.68955086
1096.46814641
1096.13612627
1095.69361264
1095.14075358
1094.47731204
1093.70163593
1092.81548387
1091.86720094
1097.17873181
1097.06995136
1096.85242317
1096.52622246
1096.09147916
1095.54836662
1094.89669552
1094.13460039
1093.26204737
1092.32224225
1097.5155091
1097.40860146
1097.19482049
1096.87424417
1096.44700762
1095.91330627
1095.27300714
1094.52408632
1093.66479087
1092.73368927
1097.80859566
1097.70348867
1097.49331015
1097.17813963
1096.75811508
1096.23345071
1095.6040782
1094.867874
1094.02143989
1093.09771709
1098.05563694
1097.95225215
1097.74551877
1097.43551708
1097.02238599
1096.50635549
1095.88742958
1095.1634468
1094.32947757
1093.41344322
1098.25391312
1098.15216702
1097.94871151
1097.643627
1097.23705158
1096.72922699
1096.12023208
1095.40791567
1094.585887
1093.67619886
1098.40032963
1098.30013465
1098.0997818
1097.79935153
1097.39898041
1096.89891957
1096.29932888
1095.59813176
1094.78759287
1093.88429228
1098.49141506
1098.39267995
1098.19524741
1097.89919822
1097.50466728
1097.01191261
1096.42117667
1095.73050886
1094.93092315
1094.03289256
1098.52332794
1098.42595775
1098.23125569
1097.93930328
1097.55023408
1097.06431166
1096.48186584
1095.80113929
1095.01202002
1094.11900552
1098.49187427
1098.39577026
1098.20360102
1097.91544873
1097.53144565
1097.05185958
1096.47711221
1095.80571027
1095.02652722
1094.13711021
1098.39253605
1098.29759639
1098.1077557
1097.82309588
1097.44374676
1096.96997774
1096.40230499
1095.73958238
1094.96986794
1094.08358989
1098.22050915
1098.1266309
1097.93891178
1097.65743143
1097.28231402
1096.81382307
1096.2525585
1095.59778138
1094.83692107
1093.95195758
1097.97074719
1097.87782936
1097.69202886
1097.41342105
1097.04212136
1096.57837989
1096.02286673
1095.37531299
1094.62279195
1093.73784156
1097.63800788
1097.54595458
1097.36188027
1097.08585498
1096.71798367
1096.25849738
1095.70812068
1095.06711369
1094.32258463
1093.43588699
1097.21690142
1097.1256239
1096.94309823
1096.66938914
1096.30459131
1095.84891319
1095.30311565
1094.66803448
1093.93133879
1093.04136347
1096.70194252
1096.61135969
1096.43022116
1096.15858776
1095.79654617
1095.34428201
1094.80257339
1094.17285952
1093.44408614
1092.54904583
1096.0876092
1095.9976466
1095.81774744
1095.54797126
1095.18840098
1094.73920226
1094.20115111
1093.57628419
1092.85575912
1091.95470206
1095.36841178
1095.27899891
1095.10019988
1094.83207644
1094.47471346
1094.02826185
1093.49347647
1092.87293896
1092.16107364
1091.26220538
1094.53897435
1094.45004071
1094.27220306
1094.00552979
1093.65011471
1093.20610121
1092.67420406
1092.05744084
1091.35411251
1090.47199881
1093.59413121
1093.50560098
1093.32857582
1093.06313641
1092.7093943
1092.26749618
1091.73810461
1091.12453897
1090.42906464
1089.57051784
1092.52904013
1092.44082528
1092.26443999
1091.99998413
1091.64759793
1091.20744597
1090.68013436
1090.06913958
1089.38052065
1088.54747824
1091.33931442
1091.251306
1091.07534677
1090.81156406
1090.46014011
1090.02127647
1089.49552806
1088.88638065
1088.20334773
1087.39723879
1090.02117726
1089.93323479
1089.75742482
1089.49391104
1089.14293288
1088.70475309
1088.17989521
1087.57172111
1086.89264794
1086.1157844
1088.57164183
1088.48358194
1088.30755724
1088.04377401
1087.69254152
1087.25420942
1086.72930471
1086.12096744
1085.4436501
1084.699202
1086.98872193
1086.90030996
1086.72359975
1086.45883656
1086.10639706
1085.66672817
1085.14039529
1084.53027616
1083.85164779
1083.13712256
1085.27167478
1085.18262518
1085.00465319
1084.73802095
1084.38312952
1083.94047131
1083.41061832
1082.79616224
1082.11227575
1081.40481556
1083.42126295
1083.3312439
1083.15136747
1082.88188263
1082.52310698
1082.07538604
1081.53904128
1080.91612258
1080.2214592
1079.50607374
1081.43999576
1081.3485531
1081.16610591
1080.89292626
1080.52910333
1080.07446368
1079.5283758
1078.89123174
1078.17631367
1077.43865506
1079.3321615
1079.23804094
1079.05217479
1078.77492466
1078.40609309
1077.94471043
1077.38832311
1076.73336387
1075.98653063
1075.19030728
)
;

boundaryField
{
    symmetric
    {
        type            symmetry;
    }
    emptyPatch
    {
        type            empty;
    }
    solid_to_water
    {
        type            compressible::turbulentTemperatureTwoPhaseRadCoupledMixed;
        refValue        nonuniform List<scalar> 
70
(
418.774470661
417.090367337
415.584170241
414.234141161
412.299986545
408.378834518
397.98724629
372.383410684
344.564208872
338.009757907
341.193418258
342.055254816
342.335347342
342.160969053
342.199382994
342.006864271
342.010460164
341.854705528
341.653010047
340.625444048
339.138767545
337.782622258
336.634051415
335.810749438
335.597147109
336.302995174
340.181113477
373.177787487
381.441709676
395.076841175
391.993835441
403.030906741
395.869634146
405.934993378
397.642885427
406.347853597
398.472951132
405.628464594
398.711003923
404.550536695
398.435089273
403.35138547
398.443647995
402.028259176
398.580692592
399.783914537
395.767539425
380.944199256
353.84562254
343.217283021
339.410012166
337.651617079
337.160787823
337.720466417
341.187224226
360.157958953
400.51546974
417.944964135
421.771409874
334.354336604
334.466280793
334.542281876
334.614777401
334.684629981
334.746918825
334.79649267
334.888438932
335.248691235
393.64925146
336.505629005
)
;
        refGradient     uniform 0;
        valueFraction   nonuniform List<scalar> 
70
(
0.000528114917551
0.00052763200044
0.0005276466716
0.000527759794132
0.000530842613024
0.000542613657391
0.000585385289924
0.000759391884758
0.00126035164051
0.00148272901885
0.000951509959745
0.000954072793944
0.000952750751864
0.000956241535487
0.00095502796706
0.00095805945407
0.000957519408057
0.000959815133856
0.000960822461645
0.00097019628273
0.000977139074875
0.000971666800398
0.000958738818586
0.000945781185471
0.000943259942305
0.000955409775379
0.000977492532193
0.000588497542576
0.000602870011571
0.000559197970401
0.000599739383993
0.000554955307837
0.000599990156602
0.000555417488877
0.000600189445338
0.000560017788296
0.000600334439797
0.000565980732982
0.000600419593333
0.000571353651061
0.000602149524379
0.000578093111786
0.000603830594159
0.000586190208856
0.000604198024402
0.000596102670471
0.00060536338427
0.000653297363243
0.000856214377147
0.0009684521067
0.000979011284706
0.000967306360613
0.000964128193918
0.00096989477569
0.00097173562508
0.000759363762484
0.000550212909475
0.000526836133876
0.000534081797314
0.00149684133525
0.00150327789429
0.00150696667679
0.00151022125352
0.00151299879249
0.00151508342512
0.00151629950224
0.00151888521008
0.00152542888436
0.000645211150482
0.0014887084501
)
;
        source          uniform 0;
        value           nonuniform List<scalar> 
70
(
1080.86866721
1080.69736146
1080.35377563
1079.83468151
1079.13228627
1078.23577382
1077.12204032
1075.70909129
1073.8590194
1072.19221492
1072.58583506
1074.13770583
1075.44383523
1076.61831575
1077.72075393
1078.76811729
1079.77827918
1080.75205243
1081.69576602
1082.60381649
1083.48637344
1084.35157278
1085.19522451
1086.01038733
1086.78907024
1087.52792715
1088.23423177
1089.21655212
1089.82613676
1090.44103381
1090.94887256
1091.48342166
1091.90358832
1092.35087774
1092.67967475
1093.02753558
1093.25835269
1093.49383537
1093.6150487
1093.72430086
1093.71796772
1093.6837544
1093.53185724
1093.33199486
1093.01594099
1092.6278649
1092.12711584
1091.49077575
1090.63440407
1089.75375309
1088.84197457
1087.8271069
1086.68009023
1085.39641586
1083.98346556
1082.59211935
1081.03110657
1079.15793278
1077.08873873
1078.21829537
1078.11968898
1077.93147116
1077.65232699
1077.28209363
1076.8199587
1076.26358426
1075.60772571
1074.85726174
1074.75115404
1074.09120531
)
;
        kappaMethod     solidThermo;
        Tnbr            T.liquid;
        region          solid;
        otherPhase      gas;
    }
}


// ************************************************************************* //
