/*--------------------------------*- C++ -*----------------------------------*\
| =========                 |                                                 |
| \\      /  F ield         | OpenFOAM: The Open Source CFD Toolbox           |
|  \\    /   O peration     | Version:  2212                                  |
|   \\  /    A nd           | Website:  www.openfoam.com                      |
|    \\/     M anipulation  |                                                 |
\*---------------------------------------------------------------------------*/
FoamFile
{
    version     2.0;
    format      ascii;
    arch        "LSB;label=64;scalar=64";
    class       volVectorField;
    location    "1680";
    object      U;
}
// * * * * * * * * * * * * * * * * * * * * * * * * * * * * * * * * * * * * * //

dimensions      [0 1 -1 0 0 0 0];

internalField   nonuniform List<vector> 
1024
(
(4.17047e-06 -4.18077e-06 0)
(8.36711e-07 -1.08062e-07 0)
(-3.21032e-05 5.96086e-06 0)
(-0.000101421 1.01952e-05 0)
(-0.000202075 1.17677e-05 0)
(-0.000321693 1.11742e-05 0)
(-0.000445364 9.31573e-06 0)
(-0.000559664 6.9774e-06 0)
(-0.000654625 4.65764e-06 0)
(-0.000724382 2.67579e-06 0)
(-0.000768031 1.28157e-06 0)
(-0.000790056 5.6241e-07 0)
(-0.000797225 2.65537e-07 0)
(-0.000787886 -3.31976e-07 0)
(-0.000732891 -2.24652e-06 0)
(-0.000545663 -7.11618e-06 0)
(-0.000118857 -1.43547e-05 0)
(0.000617503 -2.16314e-05 0)
(0.0013633 -2.17137e-05 0)
(0.00189135 -1.14451e-05 0)
(0.00205136 4.25507e-06 0)
(0.00190934 1.6177e-05 0)
(0.00161646 2.04671e-05 0)
(0.00129583 2.07347e-05 0)
(0.000999156 1.96093e-05 0)
(0.000738554 1.86139e-05 0)
(0.000511635 1.81694e-05 0)
(0.000316604 1.75946e-05 0)
(0.000159238 1.51044e-05 0)
(5.08437e-05 8.93278e-06 0)
(-1.43613e-06 -4.3937e-07 0)
(-6.82533e-06 -6.91009e-06 0)
(1.3152e-07 -1.03853e-06 0)
(-3.69157e-05 3.56023e-05 0)
(-0.000146088 8.41708e-05 0)
(-0.000343326 0.000121589 0)
(-0.000619991 0.000137982 0)
(-0.000948959 0.000133677 0)
(-0.00129322 0.000114743 0)
(-0.00161617 8.85739e-05 0)
(-0.00188865 6.12102e-05 0)
(-0.00209243 3.69487e-05 0)
(-0.00222267 1.86619e-05 0)
(-0.00228832 7.16203e-06 0)
(-0.00230393 -2.76261e-07 0)
(-0.00226196 -1.08678e-05 0)
(-0.00208419 -3.51874e-05 0)
(-0.00155624 -8.52366e-05 0)
(-0.00041043 -0.000165228 0)
(0.00155694 -0.000234443 0)
(0.00349909 -0.000229975 0)
(0.00490549 -0.00013828 0)
(0.0054261 4.0161e-06 0)
(0.0051825 0.000125801 0)
(0.00451113 0.000194316 0)
(0.00370586 0.000223043 0)
(0.00291531 0.000231469 0)
(0.00219326 0.000232913 0)
(0.00155281 0.000231375 0)
(0.00100141 0.000221435 0)
(0.000556291 0.000191413 0)
(0.000239801 0.000133602 0)
(6.20223e-05 5.74542e-05 0)
(2.01656e-08 -1.57277e-06 0)
(-6.68224e-06 3.3702e-05 0)
(-9.40763e-05 0.000147231 0)
(-0.000293435 0.000273238 0)
(-0.00062181 0.000369594 0)
(-0.00106539 0.000412792 0)
(-0.00158705 0.000400646 0)
(-0.00213376 0.000346667 0)
(-0.00264996 0.000270236 0)
(-0.00308927 0.00018885 0)
(-0.00342152 0.000115618 0)
(-0.00363691 5.9121e-05 0)
(-0.00374589 2.16935e-05 0)
(-0.00376615 -4.39425e-06 0)
(-0.00368204 -3.90912e-05 0)
(-0.00337583 -0.000110669 0)
(-0.00254863 -0.000250469 0)
(-0.000840368 -0.000478799 0)
(0.00208984 -0.000669673 0)
(0.00494652 -0.000656977 0)
(0.00709646 -0.000421592 0)
(0.00805941 -4.38686e-05 0)
(0.00790058 0.00029775 0)
(0.00705763 0.000514352 0)
(0.00593297 0.00062766 0)
(0.00475852 0.000679668 0)
(0.00364123 0.000702015 0)
(0.00262687 0.000705126 0)
(0.0017434 0.000677279 0)
(0.00102067 0.000594085 0)
(0.000487703 0.000442213 0)
(0.000159516 0.000243033 0)
(1.18563e-05 5.77647e-05 0)
(-1.33365e-05 0.000115379 0)
(-0.000154412 0.000370167 0)
(-0.000449116 0.000616485 0)
(-0.000909723 0.000796995 0)
(-0.00151169 0.000874971 0)
(-0.00220757 0.000846001 0)
(-0.00293245 0.000733784 0)
(-0.00361706 0.000574911 0)
(-0.004202 0.000404505 0)
(-0.00464774 0.000249908 0)
(-0.0049405 0.0001289 0)
(-0.00509098 4.60327e-05 0)
(-0.00511697 -1.43028e-05 0)
(-0.00499514 -9.11854e-05 0)
(-0.00458174 -0.000237634 0)
(-0.00353877 -0.000511051 0)
(-0.00149622 -0.000963499 0)
(0.00199712 -0.00134123 0)
(0.00544538 -0.00132896 0)
(0.00818989 -0.000910329 0)
(0.00966622 -0.000200504 0)
(0.0097815 0.000480684 0)
(0.00897695 0.000948752 0)
(0.00772609 0.00122737 0)
(0.00632236 0.00138161 0)
(0.00492343 0.00146332 0)
(0.00361481 0.0014907 0)
(0.00245197 0.00144575 0)
(0.00148075 0.00129065 0)
(0.000740565 0.00100462 0)
(0.000260084 0.000615428 0)
(2.35737e-05 0.000198019 0)
(-1.9036e-05 0.000254583 0)
(-0.000209033 0.000732288 0)
(-0.000592893 0.00115048 0)
(-0.00117643 0.00143925 0)
(-0.00192101 0.00155344 0)
(-0.00276708 0.00149136 0)
(-0.00363977 0.00129185 0)
(-0.00446064 0.00101409 0)
(-0.00516239 0.000716537 0)
(-0.00570054 0.000445868 0)
(-0.00606038 0.000232289 0)
(-0.0062541 8.27969e-05 0)
(-0.00629906 -2.8939e-05 0)
(-0.00616835 -0.000166448 0)
(-0.00570743 -0.000411967 0)
(-0.00457883 -0.000851713 0)
(-0.00245317 -0.00157843 0)
(0.00108645 -0.00220633 0)
(0.00481157 -0.00223786 0)
(0.00798385 -0.00164042 0)
(0.0100045 -0.0005412 0)
(0.0105693 0.000591062 0)
(0.00998787 0.00142127 0)
(0.00879982 0.00196095 0)
(0.00734287 0.00229647 0)
(0.00581305 0.00249753 0)
(0.00433166 0.00258842 0)
(0.00298304 0.00254419 0)
(0.00183269 0.00231239 0)
(0.000935373 0.00185915 0)
(0.000337094 0.00120703 0)
(3.24115e-05 0.000432513 0)
(-2.33301e-05 0.000458015 0)
(-0.000251591 0.00125307 0)
(-0.000707116 0.00190376 0)
(-0.00139064 0.00232679 0)
(-0.00225028 0.0024743 0)
(-0.00321427 0.00235583 0)
(-0.004199 0.00203348 0)
(-0.00512026 0.00159587 0)
(-0.00590781 0.00113084 0)
(-0.00651787 0.00070913 0)
(-0.00693988 0.000375996 0)
(-0.00719115 0.000140282 0)
(-0.00729065 -3.80268e-05 0)
(-0.00721376 -0.000250862 0)
(-0.00680855 -0.00061285 0)
(-0.00576336 -0.00123878 0)
(-0.0037879 -0.00225296 0)
(-0.000686408 -0.00318144 0)
(0.00299647 -0.00336039 0)
(0.00640285 -0.00264342 0)
(0.00893429 -0.00115094 0)
(0.0100974 0.000532712 0)
(0.00988316 0.00183958 0)
(0.008915 0.00274195 0)
(0.00757221 0.00334807 0)
(0.00607518 0.00374244 0)
(0.00457132 0.00395095 0)
(0.00317049 0.00393828 0)
(0.0019582 0.00363392 0)
(0.00100366 0.00298495 0)
(0.000363344 0.0020001 0)
(3.5394e-05 0.000751755 0)
(-2.5718e-05 0.000726213 0)
(-0.000276765 0.00193715 0)
(-0.000777083 0.00288635 0)
(-0.00152557 0.00347339 0)
(-0.00246171 0.00365156 0)
(-0.00350429 0.00345068 0)
(-0.00456285 0.00296645 0)
(-0.00555029 0.00232603 0)
(-0.00639822 0.00165389 0)
(-0.00706993 0.0010499 0)
(-0.00756561 0.000576027 0)
(-0.00791243 0.000240915 0)
(-0.00813343 -1.31041e-05 0)
(-0.00820737 -0.000308411 0)
(-0.0079957 -0.000796203 0)
(-0.0072177 -0.00161798 0)
(-0.00561114 -0.0029081 0)
(-0.00312053 -0.00416646 0)
(9.76528e-05 -0.00462906 0)
(0.00352149 -0.00393597 0)
(0.00644616 -0.00211894 0)
(0.00830204 0.000205712 0)
(0.0085798 0.00210227 0)
(0.00795032 0.00346536 0)
(0.00686255 0.00442936 0)
(0.00555282 0.00509021 0)
(0.00418574 0.00546926 0)
(0.00289118 0.00551503 0)
(0.00176975 0.00513673 0)
(0.000895729 0.0042643 0)
(0.000319314 0.0028973 0)
(3.01868e-05 0.00111037 0)
(-2.59195e-05 0.00105126 0)
(-0.000281932 0.00276937 0)
(-0.000795609 0.0040835 0)
(-0.00156808 0.00486946 0)
(-0.00253707 0.00508169 0)
(-0.00361717 0.00477682 0)
(-0.00471453 0.00409477 0)
(-0.00574271 0.00321248 0)
(-0.00664037 0.00230039 0)
(-0.00738473 0.00149321 0)
(-0.00799306 0.00086982 0)
(-0.00850499 0.000433715 0)
(-0.00894608 0.000103257 0)
(-0.00928424 -0.000276859 0)
(-0.00940867 -0.000893857 0)
(-0.0090555 -0.00191889 0)
(-0.00796636 -0.00348434 0)
(-0.00605955 -0.00508828 0)
(-0.00350551 -0.00590244 0)
(-0.000456034 -0.00547736 0)
(0.0026494 -0.00351874 0)
(0.0051039 -0.000546199 0)
(0.00611419 0.00207012 0)
(0.00593734 0.00399796 0)
(0.00522432 0.00539891 0)
(0.0042393 0.00638371 0)
(0.00316202 0.00696442 0)
(0.00213609 0.00706976 0)
(0.00126635 0.00659548 0)
(0.000615706 0.0054734 0)
(0.000208801 0.00371833 0)
(1.75119e-05 0.00142698 0)
(-2.42246e-05 0.00141767 0)
(-0.000269405 0.00371705 0)
(-0.000768017 0.00545859 0)
(-0.00152702 0.00648511 0)
(-0.00248952 0.00674689 0)
(-0.00357252 0.00632936 0)
(-0.00468413 0.00542579 0)
(-0.00574381 0.00427578 0)
(-0.00670366 0.00310709 0)
(-0.00756107 0.00209475 0)
(-0.00835264 0.00133114 0)
(-0.00912483 0.000804258 0)
(-0.00989293 0.000399023 0)
(-0.010604 -7.35405e-05 0)
(-0.0111584 -0.000826174 0)
(-0.0113187 -0.00206997 0)
(-0.0108023 -0.00393475 0)
(-0.00946478 -0.00590489 0)
(-0.00745556 -0.0070984 0)
(-0.00496822 -0.00702068 0)
(-0.0022308 -0.00537281 0)
(0.000688544 -0.00194445 0)
(0.00269679 0.00160533 0)
(0.00310007 0.00421205 0)
(0.00286277 0.00609346 0)
(0.00232223 0.00741904 0)
(0.00167006 0.00818861 0)
(0.00105363 0.00831406 0)
(0.000565413 0.00770183 0)
(0.000239674 0.00632286 0)
(6.60215e-05 0.00424468 0)
(1.95569e-06 0.00160897 0)
(-2.15456e-05 0.00180818 0)
(-0.000246634 0.0047425 0)
(-0.000712426 0.00696803 0)
(-0.00143358 0.00828419 0)
(-0.00236404 0.00862749 0)
(-0.00342995 0.00810943 0)
(-0.00454835 0.00698347 0)
(-0.00565177 0.00556509 0)
(-0.00671234 0.00415088 0)
(-0.00775025 0.002958 0)
(-0.00881468 0.00208162 0)
(-0.00994301 0.00147812 0)
(-0.0111243 0.000990675 0)
(-0.0122812 0.00040197 0)
(-0.0132565 -0.000527227 0)
(-0.0139234 -0.0020153 0)
(-0.0139563 -0.00421731 0)
(-0.0131675 -0.00658976 0)
(-0.0116778 -0.0081954 0)
(-0.00966648 -0.00849929 0)
(-0.00728352 -0.00716204 0)
(-0.0046158 -0.00411109 0)
(-0.00185167 0.000105236 0)
(-0.000354457 0.00375704 0)
(8.70153e-05 0.00628677 0)
(0.000156565 0.00795237 0)
(5.27425e-05 0.0088537 0)
(-6.28765e-05 0.00893073 0)
(-0.000117233 0.0081484 0)
(-0.000105613 0.00656529 0)
(-5.69634e-05 0.00432147 0)
(-9.76206e-06 0.00160296 0)
(-1.89762e-05 0.00221257 0)
(-0.000222868 0.00582229 0)
(-0.000651955 0.00858451 0)
(-0.00132843 0.0102468 0)
(-0.00221992 0.0107217 0)
(-0.00326725 0.0101414 0)
(-0.00440347 0.00882447 0)
(-0.00558091 0.00717302 0)
(-0.00679448 0.00555902 0)
(-0.00807985 0.00423354 0)
(-0.00948 0.00327408 0)
(-0.0110027 0.00258949 0)
(-0.0126015 0.00198169 0)
(-0.0141778 0.00121615 0)
(-0.0155732 5.42219e-05 0)
(-0.0166247 -0.00172754 0)
(-0.0171289 -0.00429584 0)
(-0.0168521 -0.00709667 0)
(-0.0158775 -0.00915334 0)
(-0.0143262 -0.00993427 0)
(-0.0122576 -0.00907939 0)
(-0.00972885 -0.00646607 0)
(-0.00691072 -0.00242477 0)
(-0.00413454 0.00211601 0)
(-0.0026842 0.00536476 0)
(-0.00183341 0.00744752 0)
(-0.00129827 0.0085224 0)
(-0.000911772 0.00860302 0)
(-0.000591501 0.00775395 0)
(-0.00032314 0.00612915 0)
(-0.000125756 0.00394341 0)
(-1.45746e-05 0.00142309 0)
(-1.70784e-05 0.00263267 0)
(-0.000203292 0.00695961 0)
(-0.000600378 0.0103137 0)
(-0.00123709 0.0123875 0)
(-0.00209553 0.0130621 0)
(-0.00313449 0.0124861 0)
(-0.00430706 0.0110447 0)
(-0.00558647 0.00923075 0)
(-0.00698317 0.00748563 0)
(-0.00853094 0.00607337 0)
(-0.0102481 0.00503317 0)
(-0.0121082 0.00422556 0)
(-0.01404 0.00342827 0)
(-0.0159398 0.00240827 0)
(-0.0176646 0.000941559 0)
(-0.0189996 -0.00119675 0)
(-0.019859 -0.00414308 0)
(-0.0200245 -0.00737699 0)
(-0.0195295 -0.00991743 0)
(-0.0184191 -0.0112818 0)
(-0.0166685 -0.0111415 0)
(-0.014273 -0.00935139 0)
(-0.0113353 -0.00603852 0)
(-0.00811775 -0.00166504 0)
(-0.00513994 0.00280018 0)
(-0.00329984 0.0055401 0)
(-0.00208347 0.00698867 0)
(-0.00127939 0.00727535 0)
(-0.000724042 0.00658088 0)
(-0.000347057 0.00514863 0)
(-0.000118329 0.00325534 0)
(-1.11933e-05 0.00114775 0)
(-1.5288e-05 0.00307417 0)
(-0.000183708 0.00816742 0)
(-0.000548039 0.012176 0)
(-0.00114366 0.0147384 0)
(-0.00196797 0.015701 0)
(-0.00299852 0.0152217 0)
(-0.0042063 0.0137468 0)
(-0.00557676 0.0118521 0)
(-0.00711963 0.0100311 0)
(-0.0088508 0.00854147 0)
(-0.0107622 0.00738166 0)
(-0.0128082 0.0063819 0)
(-0.0149131 0.00531638 0)
(-0.016982 0.00396496 0)
(-0.0188963 0.00212374 0)
(-0.020479 -0.000405459 0)
(-0.0215583 -0.00374854 0)
(-0.0220588 -0.00740173 0)
(-0.0219695 -0.0104498 0)
(-0.021263 -0.012501 0)
(-0.0198557 -0.0132915 0)
(-0.0177018 -0.0126692 0)
(-0.0148622 -0.0106234 0)
(-0.0115341 -0.0073242 0)
(-0.00805516 -0.00317814 0)
(-0.00489711 0.00114065 0)
(-0.00270077 0.00398614 0)
(-0.00136024 0.00510075 0)
(-0.000601814 0.00502169 0)
(-0.000215841 0.0041044 0)
(-4.79692e-05 0.00266834 0)
(6.51038e-07 0.000963991 0)
(-1.20761e-05 0.00352052 0)
(-0.000150967 0.00940845 0)
(-0.000461217 0.014129 0)
(-0.000986603 0.0172705 0)
(-0.00174307 0.0186339 0)
(-0.00272736 0.0183665 0)
(-0.00392229 0.0169548 0)
(-0.00531173 0.0150394 0)
(-0.00688953 0.0131543 0)
(-0.00864946 0.0115535 0)
(-0.010569 0.0102146 0)
(-0.0126032 0.00895955 0)
(-0.0146885 0.00757143 0)
(-0.016748 0.00584609 0)
(-0.0186931 0.0035979 0)
(-0.0204016 0.000654754 0)
(-0.021642 -0.0031182 0)
(-0.0223537 -0.00715746 0)
(-0.0225954 -0.0107087 0)
(-0.0222727 -0.0135032 0)
(-0.0212683 -0.0153538 0)
(-0.0195113 -0.0160965 0)
(-0.0170356 -0.015596 0)
(-0.0139957 -0.0137893 0)
(-0.0106503 -0.0107587 0)
(-0.00733017 -0.00682151 0)
(-0.00441429 -0.00258638 0)
(-0.00226265 0.000885412 0)
(-0.000968698 0.00270658 0)
(-0.000321037 0.00298838 0)
(-5.93517e-05 0.00228248 0)
(4.11874e-06 0.000933753 0)
(-6.06686e-06 0.00390051 0)
(-9.21779e-05 0.0105141 0)
(-0.000304103 0.0159541 0)
(-0.00069503 0.0197615 0)
(-0.00130452 0.0216669 0)
(-0.00215246 0.0217576 0)
(-0.00323149 0.0205113 0)
(-0.00451524 0.0186092 0)
(-0.00597378 0.016634 0)
(-0.00758022 0.0148666 0)
(-0.00930784 0.0132946 0)
(-0.0111247 0.0117473 0)
(-0.0129904 0.0100178 0)
(-0.0148557 0.0079131 0)
(-0.0166623 0.00525831 0)
(-0.0183224 0.00190048 0)
(-0.0196811 -0.00224799 0)
(-0.0205121 -0.00662726 0)
(-0.0210485 -0.0106191 0)
(-0.0211421 -0.0141232 0)
(-0.0206535 -0.0170489 0)
(-0.0194781 -0.0192335 0)
(-0.0176004 -0.0204325 0)
(-0.0151131 -0.020369 0)
(-0.012207 -0.0188266 0)
(-0.0091434 -0.0157818 0)
(-0.00621873 -0.0115554 0)
(-0.00372563 -0.00689642 0)
(-0.00188751 -0.00282266 0)
(-0.000755554 -0.000143127 0)
(-0.000200941 0.000888194 0)
(-8.10347e-06 0.000614784 0)
(2.0797e-06 0.00408422 0)
(-1.13054e-05 0.0111617 0)
(-8.06701e-05 0.0172021 0)
(-0.00026122 0.0217098 0)
(-0.000616037 0.0243133 0)
(-0.00119574 0.0249625 0)
(-0.00201229 0.0240353 0)
(-0.00303377 0.0222056 0)
(-0.00420759 0.02012 0)
(-0.00548516 0.018138 0)
(-0.0068346 0.0163024 0)
(-0.00823809 0.0144674 0)
(-0.0096837 0.0124337 0)
(-0.0111622 0.0100106 0)
(-0.0126617 0.00702337 0)
(-0.0141435 0.0033166 0)
(-0.0155398 -0.00118624 0)
(-0.0164186 -0.00580533 0)
(-0.0172361 -0.0100559 0)
(-0.0178151 -0.0140792 0)
(-0.0179928 -0.017919 0)
(-0.0176113 -0.021466 0)
(-0.0165719 -0.0244225 0)
(-0.0148717 -0.0263487 0)
(-0.0126117 -0.0267599 0)
(-0.00998417 -0.0252665 0)
(-0.00725034 -0.0217651 0)
(-0.0047051 -0.0166545 0)
(-0.00262124 -0.0109252 0)
(-0.00116725 -0.00583909 0)
(-0.000348989 -0.00225798 0)
(-2.16194e-05 -0.00032325 0)
(9.75892e-06 0.00396747 0)
(6.97467e-05 0.0110416 0)
(0.000149307 0.0173343 0)
(0.000199811 0.022353 0)
(0.000149807 0.0256607 0)
(-7.66008e-05 0.0270396 0)
(-0.000525092 0.0266225 0)
(-0.0011831 0.0249916 0)
(-0.00198909 0.0228405 0)
(-0.00286175 0.0206462 0)
(-0.00374662 0.0185565 0)
(-0.00462564 0.0164787 0)
(-0.00549681 0.0142329 0)
(-0.0063718 0.0116356 0)
(-0.00727287 0.00851581 0)
(-0.00820815 0.00470278 0)
(-0.00919738 7.22816e-05 0)
(-0.0102394 -0.00461939 0)
(-0.011281 -0.00882604 0)
(-0.0123631 -0.0129865 0)
(-0.0133106 -0.0173361 0)
(-0.0139146 -0.0219181 0)
(-0.0139666 -0.0264736 0)
(-0.0133354 -0.0304716 0)
(-0.0120045 -0.033206 0)
(-0.0100761 -0.0339306 0)
(-0.00775867 -0.0320572 0)
(-0.005341 -0.0274428 0)
(-0.00315059 -0.0207062 0)
(-0.00147808 -0.0132645 0)
(-0.000465324 -0.00667495 0)
(-3.26098e-05 -0.00175329 0)
(1.55515e-05 0.00360357 0)
(0.000135483 0.0102649 0)
(0.000340713 0.0164698 0)
(0.000590937 0.0217276 0)
(0.000811737 0.0255409 0)
(0.00092072 0.0275701 0)
(0.000849631 0.0277896 0)
(0.000575486 0.0265685 0)
(0.000140029 0.0244931 0)
(-0.000367364 0.0221004 0)
(-0.000844489 0.0197713 0)
(-0.00125149 0.0174759 0)
(-0.00157858 0.0150651 0)
(-0.00184524 0.0123627 0)
(-0.00209041 0.0091994 0)
(-0.0023604 0.0054222 0)
(-0.00250433 0.000970285 0)
(-0.00349768 -0.00340268 0)
(-0.00461717 -0.0072149 0)
(-0.00597363 -0.0110199 0)
(-0.00747465 -0.0152203 0)
(-0.0089458 -0.0201516 0)
(-0.0100979 -0.0257397 0)
(-0.0106535 -0.031475 0)
(-0.0104494 -0.0365139 0)
(-0.009462 -0.0398103 0)
(-0.00780964 -0.0403006 0)
(-0.0057386 -0.0372102 0)
(-0.00359582 -0.0305072 0)
(-0.00177527 -0.0213397 0)
(-0.000582358 -0.0117678 0)
(-4.38586e-05 -0.00347851 0)
(1.84221e-05 0.00312027 0)
(0.000178326 0.00911976 0)
(0.000476733 0.0149847 0)
(0.000885002 0.020253 0)
(0.00132991 0.0243883 0)
(0.00172452 0.0269475 0)
(0.00198897 0.0277544 0)
(0.00207926 0.0269974 0)
(0.0020139 0.025144 0)
(0.00187089 0.0227341 0)
(0.00176056 0.0202093 0)
(0.00176516 0.0176963 0)
(0.00191116 0.0151251 0)
(0.00216923 0.0123425 0)
(0.00247071 0.00917156 0)
(0.00269137 0.00543592 0)
(0.00288365 0.00137293 0)
(0.00212479 -0.00238325 0)
(0.00101 -0.00571888 0)
(-0.000443446 -0.00911437 0)
(-0.0021116 -0.0127235 0)
(-0.00399741 -0.0172711 0)
(-0.00590087 -0.0230798 0)
(-0.00744609 -0.0298244 0)
(-0.00831623 -0.0366601 0)
(-0.00833533 -0.0423586 0)
(-0.00748999 -0.045475 0)
(-0.00593505 -0.0446377 0)
(-0.00398295 -0.0390277 0)
(-0.00208482 -0.0291082 0)
(-0.000715101 -0.0170121 0)
(-5.76257e-05 -0.00533693 0)
(1.86144e-05 0.00262336 0)
(0.00019566 0.00787099 0)
(0.000546068 0.0132495 0)
(0.00105767 0.018353 0)
(0.00166674 0.0226385 0)
(0.00228863 0.0255859 0)
(0.00283936 0.0268889 0)
(0.00326324 0.0265795 0)
(0.00356036 0.025002 0)
(0.00379217 0.0226575 0)
(0.00406268 0.0200231 0)
(0.00446719 0.0173452 0)
(0.00504157 0.0146518 0)
(0.00574656 0.0118375 0)
(0.00647543 0.00873932 0)
(0.00703722 0.00518908 0)
(0.00723429 0.001555 0)
(0.00650192 -0.00170518 0)
(0.00531304 -0.00463004 0)
(0.0038477 -0.00743529 0)
(0.00219507 -0.0104106 0)
(0.000293248 -0.01423 0)
(-0.00192583 -0.0196594 0)
(-0.00412985 -0.0266735 0)
(-0.00588877 -0.0346391 0)
(-0.00686849 -0.0423073 0)
(-0.00689027 -0.0479794 0)
(-0.00597184 -0.0497867 0)
(-0.00433603 -0.0461075 0)
(-0.00243023 -0.0364171 0)
(-0.00087675 -0.0223691 0)
(-7.42855e-05 -0.00732763 0)
(1.67675e-05 0.00218011 0)
(0.000189612 0.00670555 0)
(0.000548973 0.0115479 0)
(0.00110187 0.0163723 0)
(0.00180351 0.0206594 0)
(0.00258239 0.0238431 0)
(0.00336116 0.0255139 0)
(0.00408338 0.0255752 0)
(0.00473864 0.024263 0)
(0.00536984 0.0220295 0)
(0.00605897 0.0193652 0)
(0.00688604 0.0166 0)
(0.00787789 0.0138518 0)
(0.00898136 0.0110754 0)
(0.010057 0.00813968 0)
(0.0108596 0.00491081 0)
(0.0110416 0.00177562 0)
(0.0102643 -0.000976953 0)
(0.00894061 -0.00350355 0)
(0.00729754 -0.00598352 0)
(0.0054977 -0.00863608 0)
(0.00360694 -0.011832 0)
(0.00157172 -0.0161838 0)
(-0.000886495 -0.0228959 0)
(-0.00326027 -0.031292 0)
(-0.00509154 -0.0403311 0)
(-0.00600822 -0.0482348 0)
(-0.00583895 -0.0527899 0)
(-0.00465732 -0.0516498 0)
(-0.00283667 -0.0431409 0)
(-0.00109361 -0.0278481 0)
(-9.81921e-05 -0.00948178 0)
(1.31686e-05 0.00182798 0)
(0.000160614 0.00574164 0)
(0.000483266 0.0100767 0)
(0.00100875 0.0145658 0)
(0.00172212 0.018732 0)
(0.00257985 0.0219946 0)
(0.00352565 0.0238742 0)
(0.00451424 0.0241804 0)
(0.00553115 0.023069 0)
(0.00659648 0.0209517 0)
(0.00775381 0.0183207 0)
(0.00904291 0.0155543 0)
(0.0104616 0.0128352 0)
(0.011937 0.0101708 0)
(0.0133064 0.00746531 0)
(0.0142926 0.00461513 0)
(0.0144866 0.00196546 0)
(0.013712 -0.000314518 0)
(0.0123161 -0.00240822 0)
(0.0105365 -0.00450519 0)
(0.0085466 -0.0068425 0)
(0.00647942 -0.00974959 0)
(0.00439683 -0.0136667 0)
(0.00217684 -0.0192143 0)
(-0.000406227 -0.027276 0)
(-0.00289961 -0.0370207 0)
(-0.00471401 -0.0466381 0)
(-0.00542435 -0.0537926 0)
(-0.00487682 -0.0555704 0)
(-0.0032897 -0.0491268 0)
(-0.00138897 -0.0334626 0)
(-0.000135181 -0.0118676 0)
(7.21282e-06 0.00159099 0)
(0.000102209 0.00506086 0)
(0.000331458 0.00897681 0)
(0.000748709 0.0131178 0)
(0.00138665 0.0170567 0)
(0.00224851 0.0202313 0)
(0.00331272 0.0221355 0)
(0.00455314 0.0225279 0)
(0.00595136 0.0215205 0)
(0.00749459 0.0195013 0)
(0.00917038 0.016954 0)
(0.0109594 0.0142723 0)
(0.0128173 0.0116699 0)
(0.0146491 0.0091885 0)
(0.0162802 0.00676159 0)
(0.0174272 0.00430564 0)
(0.0176695 0.00210366 0)
(0.0170327 0.000280689 0)
(0.0156195 -0.00140385 0)
(0.0138045 -0.00312831 0)
(0.011737 -0.00513385 0)
(0.00954728 -0.00774117 0)
(0.00732471 -0.0113521 0)
(0.00506594 -0.0164313 0)
(0.00263035 -0.0234129 0)
(-0.00015349 -0.032837 0)
(-0.00279247 -0.0435179 0)
(-0.00452005 -0.0528948 0)
(-0.00484708 -0.0577328 0)
(-0.00372547 -0.0541217 0)
(-0.00178017 -0.0391285 0)
(-0.000195402 -0.0145645 0)
(-3.08538e-06 0.00149484 0)
(-8.59426e-06 0.00473983 0)
(3.94596e-05 0.00836699 0)
(0.000246742 0.0121642 0)
(0.000727368 0.0157601 0)
(0.001548 0.0186543 0)
(0.00271916 0.0203825 0)
(0.00422938 0.0206926 0)
(0.00604987 0.0196881 0)
(0.00811955 0.017748 0)
(0.0103537 0.0153323 0)
(0.0126657 0.0128154 0)
(0.0149673 0.0104099 0)
(0.0171465 0.00817131 0)
(0.0190294 0.00605311 0)
(0.0203498 0.00398324 0)
(0.0207146 0.00217936 0)
(0.0202069 0.00074794 0)
(0.0189574 -0.000565462 0)
(0.0172887 -0.00195011 0)
(0.0153266 -0.00363086 0)
(0.0131735 -0.00592188 0)
(0.0109004 -0.00919911 0)
(0.00852012 -0.0138604 0)
(0.00597617 -0.0202446 0)
(0.00315144 -0.0285876 0)
(-2.17578e-05 -0.0391331 0)
(-0.00285046 -0.0501571 0)
(-0.00434507 -0.0579497 0)
(-0.00402528 -0.0577723 0)
(-0.00227136 -0.0446187 0)
(-0.00029683 -0.0176581 0)
(-2.48072e-05 0.00160403 0)
(-0.000216866 0.00492922 0)
(-0.000470229 0.00839612 0)
(-0.000586679 0.0117734 0)
(-0.000346238 0.0148222 0)
(0.000436893 0.0172666 0)
(0.0017729 0.0186252 0)
(0.00361397 0.0187035 0)
(0.00591712 0.0176235 0)
(0.00855965 0.0157618 0)
(0.0113757 0.0135277 0)
(0.0142175 0.011245 0)
(0.0169647 0.00909953 0)
(0.0195001 0.00714422 0)
(0.0216657 0.00534455 0)
(0.0232345 0.00363461 0)
(0.0238534 0.0021762 0)
(0.0236163 0.00105814 0)
(0.0227373 5.90589e-05 0)
(0.0213583 -0.00103279 0)
(0.01967 -0.00241578 0)
(0.017718 -0.00438141 0)
(0.0155216 -0.00727275 0)
(0.0130604 -0.0114429 0)
(0.0102865 -0.0171947 0)
(0.007155 -0.024746 0)
(0.00364598 -0.0342285 0)
(-0.000121416 -0.0456155 0)
(-0.00307451 -0.0560044 0)
(-0.00400112 -0.0596492 0)
(-0.00283031 -0.0495519 0)
(-0.00046705 -0.0212244 0)
(-7.49638e-05 0.00202203 0)
(-0.000613967 0.00578222 0)
(-0.00132287 0.00916588 0)
(-0.00184398 0.0119919 0)
(-0.00182292 0.0142552 0)
(-0.00105261 0.0159335 0)
(0.00054174 0.0167946 0)
(0.0028396 0.0165547 0)
(0.00570336 0.0153684 0)
(0.00896278 0.0136109 0)
(0.0123777 0.0116089 0)
(0.0157618 0.00961224 0)
(0.0189836 0.00776536 0)
(0.021936 0.00610967 0)
(0.02449 0.00461758 0)
(0.0264699 0.00322824 0)
(0.0275413 0.00206019 0)
(0.0277649 0.00118697 0)
(0.0273941 0.000431119 0)
(0.0264687 -0.000409888 0)
(0.0252004 -0.00152705 0)
(0.023577 -0.00316433 0)
(0.0215562 -0.00561787 0)
(0.0190656 -0.00919846 0)
(0.0160342 -0.0141902 0)
(0.0124348 -0.0208348 0)
(0.00831312 -0.0293465 0)
(0.00380677 -0.0398446 0)
(-0.000662227 -0.0516831 0)
(-0.00335915 -0.0592767 0)
(-0.00334185 -0.0534045 0)
(-0.000733876 -0.0252704 0)
(-0.000193494 0.00296676 0)
(-0.00134781 0.00750799 0)
(-0.00264466 0.0106619 0)
(-0.00354153 0.0126369 0)
(-0.00361124 0.0138636 0)
(-0.00268346 0.0145998 0)
(-0.000746518 0.0148128 0)
(0.002215 0.0142178 0)
(0.00573176 0.0129564 0)
(0.00966562 0.0113513 0)
(0.0137251 0.009623 0)
(0.0177162 0.00794082 0)
(0.0215142 0.00640497 0)
(0.02503 0.00504353 0)
(0.0281621 0.00383461 0)
(0.0307776 0.00272557 0)
(0.0325101 0.00180365 0)
(0.0333517 0.00112829 0)
(0.033555 0.000563756 0)
(0.0331907 -7.08734e-05 0)
(0.0324013 -0.000948806 0)
(0.0311422 -0.00225648 0)
(0.0293219 -0.00423346 0)
(0.0268201 -0.0071421 0)
(0.0235289 -0.0112457 0)
(0.0194035 -0.0168127 0)
(0.0145003 -0.0241493 0)
(0.00899417 -0.0336067 0)
(0.00324434 -0.045172 0)
(-0.00163018 -0.0561653 0)
(-0.00354054 -0.0555436 0)
(-0.00109113 -0.0296645 0)
(-0.000446297 0.00476948 0)
(-0.00256 0.0102326 0)
(-0.00440647 0.0126685 0)
(-0.00541568 0.0133678 0)
(-0.00524359 0.0133557 0)
(-0.00385415 0.013091 0)
(-0.00130232 0.0126063 0)
(0.00252455 0.0116574 0)
(0.0068205 0.0104074 0)
(0.0115304 0.00900768 0)
(0.0163487 0.0075779 0)
(0.0210896 0.00621751 0)
(0.0256349 0.00498853 0)
(0.0299001 0.00390855 0)
(0.0337911 0.00296182 0)
(0.0371895 0.002108 0)
(0.0396575 0.00140969 0)
(0.0411241 0.00090864 0)
(0.0418606 0.000501291 0)
(0.0420181 3.9714e-05 0)
(0.0416273 -0.000612395 0)
(0.0406551 -0.00159161 0)
(0.0389824 -0.00307715 0)
(0.0364558 -0.00527409 0)
(0.0329283 -0.0084091 0)
(0.0283087 -0.0127553 0)
(0.0226073 -0.018687 0)
(0.015972 -0.0267427 0)
(0.00877008 -0.0374731 0)
(0.00186279 -0.0499029 0)
(-0.00293468 -0.0552613 0)
(-0.00144187 -0.0341538 0)
(-0.000891618 0.00788948 0)
(-0.00420115 0.0137491 0)
(-0.00607639 0.0145557 0)
(-0.00644273 0.0135885 0)
(-0.00531657 0.0123172 0)
(-0.0028922 0.0111393 0)
(0.00084442 0.0100083 0)
(0.00562836 0.00885988 0)
(0.0108677 0.00772102 0)
(0.0164756 0.00657042 0)
(0.0221701 0.00545407 0)
(0.0277633 0.00441865 0)
(0.0331228 0.00349694 0)
(0.0381457 0.00269847 0)
(0.0427249 0.00201207 0)
(0.0467398 0.00141012 0)
(0.0497085 0.000931459 0)
(0.0515585 0.000595791 0)
(0.0526036 0.000326458 0)
(0.0530397 1.80812e-05 0)
(0.0528712 -0.000419808 0)
(0.052045 -0.0010828 0)
(0.0504389 -0.00209267 0)
(0.0478854 -0.00359257 0)
(0.0442084 -0.00575449 0)
(0.0392582 -0.00881828 0)
(0.0329492 -0.0131702 0)
(0.0253106 -0.0194588 0)
(0.0166052 -0.0286309 0)
(0.00756999 -0.0410739 0)
(-0.000683291 -0.0516349 0)
(-0.00149156 -0.0381707 0)
(-0.00161494 0.0130739 0)
(-0.00557357 0.0171617 0)
(-0.005716 0.0151384 0)
(-0.00373168 0.0124547 0)
(-0.000312524 0.0101717 0)
(0.00417072 0.00837026 0)
(0.00935938 0.00699147 0)
(0.0151979 0.00587104 0)
(0.0213819 0.00492832 0)
(0.0277693 0.00407153 0)
(0.0341199 0.00329295 0)
(0.0402407 0.00260055 0)
(0.0459833 0.00200346 0)
(0.0512338 0.00150215 0)
(0.0558907 0.00108606 0)
(0.0598567 0.000736761 0)
(0.0627175 0.000470271 0)
(0.064474 0.000287687 0)
(0.0654607 0.000140027 0)
(0.0658799 -3.18748e-05 0)
(0.0657038 -0.000279361 0)
(0.0648926 -0.000660233 0)
(0.0633216 -0.00124566 0)
(0.0608217 -0.00211988 0)
(0.0572058 -0.00339124 0)
(0.052281 -0.00523213 0)
(0.0458504 -0.00796574 0)
(0.0377303 -0.012223 0)
(0.0278644 -0.0191392 0)
(0.0165621 -0.0301192 0)
(0.00442557 -0.0435162 0)
(-0.000166682 -0.0396461 0)
(-0.00120848 0.0183408 0)
(-0.00296273 0.0182011 0)
(0.00333374 0.0125825 0)
(0.0102998 0.009175 0)
(0.0170739 0.00680004 0)
(0.0236776 0.00506004 0)
(0.0301784 0.00382619 0)
(0.0366256 0.00294386 0)
(0.0429498 0.00229699 0)
(0.0490888 0.00178589 0)
(0.0549056 0.00136962 0)
(0.0602697 0.00102942 0)
(0.0650838 0.000755741 0)
(0.0692873 0.00054005 0)
(0.0728421 0.000371354 0)
(0.0757214 0.000238122 0)
(0.0776964 0.000141656 0)
(0.078846 7.64922e-05 0)
(0.0794376 2.06429e-05 0)
(0.0796016 -4.63874e-05 0)
(0.0793204 -0.000148239 0)
(0.0785391 -0.000310668 0)
(0.0771375 -0.000564498 0)
(0.0749638 -0.000946148 0)
(0.0718492 -0.00150556 0)
(0.0675992 -0.0023338 0)
(0.0619516 -0.00363083 0)
(0.0545072 -0.00585117 0)
(0.0446649 -0.00996213 0)
(0.0316734 -0.0176573 0)
(0.0155323 -0.0298028 0)
(0.00632269 -0.0334746 0)
(0.0208108 0.0113816 0)
(0.0272281 0.00930921 0)
(0.0402902 0.00543065 0)
(0.0508673 0.00328532 0)
(0.0587433 0.00204049 0)
(0.0649357 0.00125414 0)
(0.0700052 0.000769749 0)
(0.0742738 0.00047942 0)
(0.0779455 0.00030738 0)
(0.0811494 0.000200285 0)
(0.0839318 0.000131013 0)
(0.0863098 8.49609e-05 0)
(0.0883005 5.4084e-05 0)
(0.0899284 3.34422e-05 0)
(0.0912193 1.93212e-05 0)
(0.0921944 9.35415e-06 0)
(0.0928093 2.87639e-06 0)
(0.0931242 -1.68855e-06 0)
(0.0932366 -7.06301e-06 0)
(0.0931761 -1.43405e-05 0)
(0.0929281 -2.76753e-05 0)
(0.0924408 -5.09559e-05 0)
(0.0916348 -8.86494e-05 0)
(0.0904191 -0.000146016 0)
(0.0886947 -0.000230748 0)
(0.0863358 -0.000359357 0)
(0.0831295 -0.000574716 0)
(0.078637 -0.000988635 0)
(0.0719032 -0.00188044 0)
(0.0609227 -0.00399584 0)
(0.0433085 -0.00920271 0)
(0.0286017 -0.0145395 0)
)
;

boundaryField
{
    movingWall
    {
        type            fixedValue;
        value           uniform (0.1 0 0);
    }
    fixedWalls
    {
        type            noSlip;
    }
    floor
    {
        type            noSlip;
    }
    frontAndBack
    {
        type            empty;
    }
}


// ************************************************************************* //
