/*--------------------------------*- C++ -*----------------------------------*\
| =========                 |                                                 |
| \\      /  F ield         | OpenFOAM: The Open Source CFD Toolbox           |
|  \\    /   O peration     | Version:  2212                                  |
|   \\  /    A nd           | Website:  www.openfoam.com                      |
|    \\/     M anipulation  |                                                 |
\*---------------------------------------------------------------------------*/
FoamFile
{
    version     2.0;
    format      ascii;
    arch        "LSB;label=64;scalar=64";
    class       volScalarField;
    location    "1680";
    object      Xpr;
}
// * * * * * * * * * * * * * * * * * * * * * * * * * * * * * * * * * * * * * //

dimensions      [1 -3 0 0 0 0 0];

internalField   nonuniform List<scalar> 
1024
(
0.0817269
0.0817289
0.0817338
0.0817427
0.0817572
0.0817788
0.0818091
0.0818495
0.0819004
0.081961
0.0820292
0.0821013
0.0821733
0.0822407
0.0822992
0.0823443
0.0823679
0.0823662
0.0823446
0.0823087
0.0822624
0.0822097
0.0821546
0.0821018
0.0820549
0.0820163
0.0819865
0.0819651
0.0819505
0.0819415
0.0819366
0.0819346
0.0817275
0.0817295
0.0817345
0.0817435
0.0817581
0.08178
0.0818107
0.0818514
0.0819027
0.0819637
0.082032
0.0821043
0.0821763
0.0822436
0.0823021
0.0823472
0.0823708
0.0823691
0.0823475
0.0823115
0.0822652
0.0822123
0.0821571
0.082104
0.0820567
0.0820177
0.0819876
0.0819658
0.0819512
0.081942
0.0819371
0.081935
0.081729
0.081731
0.0817361
0.0817453
0.0817603
0.0817826
0.081814
0.0818557
0.0819078
0.0819696
0.0820385
0.0821112
0.0821833
0.0822506
0.082309
0.0823541
0.0823779
0.0823762
0.0823543
0.0823178
0.082271
0.0822178
0.0821621
0.0821084
0.0820604
0.0820206
0.0819898
0.0819676
0.0819526
0.0819432
0.0819382
0.0819361
0.0817316
0.0817337
0.0817389
0.0817485
0.081764
0.0817872
0.0818197
0.0818626
0.0819162
0.0819793
0.0820494
0.0821227
0.0821952
0.0822627
0.0823213
0.0823667
0.0823909
0.0823891
0.0823663
0.0823284
0.0822803
0.082226
0.0821694
0.0821148
0.0820658
0.082025
0.0819933
0.0819704
0.0819549
0.0819453
0.0819401
0.081938
0.0817357
0.0817379
0.0817433
0.0817533
0.0817696
0.0817939
0.0818279
0.0818728
0.0819285
0.0819936
0.0820654
0.0821401
0.0822134
0.0822815
0.0823407
0.0823869
0.0824119
0.0824098
0.0823851
0.0823444
0.0822935
0.0822369
0.0821787
0.0821226
0.0820724
0.0820305
0.0819978
0.0819742
0.0819582
0.0819484
0.0819431
0.0819409
0.0817416
0.0817439
0.0817496
0.0817601
0.0817773
0.0818031
0.0818391
0.0818864
0.0819449
0.0820129
0.0820873
0.0821642
0.0822392
0.0823086
0.0823691
0.0824168
0.0824431
0.0824404
0.0824125
0.082367
0.0823111
0.0822505
0.0821894
0.0821314
0.0820797
0.0820366
0.0820032
0.081979
0.0819627
0.0819527
0.0819474
0.0819452
0.0817498
0.0817521
0.0817581
0.0817693
0.0817876
0.081815
0.0818535
0.0819039
0.081966
0.0820379
0.0821161
0.0821963
0.082274
0.0823458
0.0824086
0.0824589
0.0824869
0.0824833
0.0824507
0.0823978
0.0823341
0.082267
0.0822015
0.0821406
0.0820872
0.0820432
0.0820093
0.0819849
0.0819687
0.0819588
0.0819536
0.0819516
0.0817605
0.081763
0.0817692
0.0817811
0.0818006
0.08183
0.0818713
0.0819256
0.0819923
0.0820693
0.0821527
0.0822377
0.0823196
0.082395
0.0824613
0.082515
0.0825454
0.0825405
0.082502
0.0824397
0.0823652
0.0822886
0.0822161
0.0821511
0.0820956
0.0820507
0.0820168
0.0819929
0.0819772
0.0819679
0.0819631
0.0819613
0.0817742
0.0817768
0.0817833
0.0817959
0.0818167
0.0818484
0.081893
0.0819518
0.0820243
0.0821079
0.0821982
0.0822897
0.0823773
0.0824577
0.0825286
0.0825867
0.08262
0.0826144
0.0825702
0.0824975
0.08241
0.0823205
0.0822381
0.0821668
0.0821082
0.0820624
0.0820289
0.0820059
0.0819914
0.0819832
0.0819792
0.0819778
0.0817915
0.0817941
0.081801
0.0818142
0.0818365
0.0818707
0.0819192
0.0819835
0.0820629
0.0821547
0.0822536
0.0823533
0.0824479
0.0825342
0.0826105
0.0826739
0.0827117
0.0827078
0.0826611
0.0825806
0.0824804
0.082376
0.08228
0.082199
0.0821348
0.082087
0.0820535
0.0820318
0.0820189
0.0820123
0.0820094
0.0820086
0.081813
0.0818157
0.0818229
0.0818369
0.0818607
0.0818977
0.0819507
0.0820213
0.082109
0.0822104
0.0823193
0.0824281
0.0825305
0.0826231
0.0827052
0.0827748
0.0828195
0.0828231
0.0827819
0.0827024
0.0825963
0.0824797
0.0823683
0.082273
0.0821987
0.0821453
0.0821096
0.082088
0.0820764
0.0820713
0.0820697
0.0820697
0.0818395
0.0818423
0.0818497
0.0818645
0.0818901
0.0819302
0.081988
0.0820657
0.0821624
0.0822742
0.0823935
0.0825115
0.0826211
0.0827195
0.0828069
0.0828831
0.0829384
0.0829581
0.082936
0.0828739
0.0827786
0.0826633
0.0825436
0.0824341
0.0823444
0.0822786
0.0822347
0.0822088
0.0821956
0.0821903
0.0821892
0.0821895
0.0818716
0.0818744
0.0818821
0.0818977
0.081925
0.0819681
0.0820308
0.0821154
0.0822208
0.0823423
0.0824708
0.0825964
0.0827114
0.0828133
0.0829038
0.0829854
0.0830528
0.083096
0.0831073
0.0830835
0.0830247
0.0829372
0.0828322
0.0827234
0.0826233
0.0825415
0.0824818
0.0824431
0.0824212
0.082411
0.0824075
0.0824069
0.081909
0.0819118
0.0819197
0.0819359
0.0819644
0.0820098
0.0820763
0.0821661
0.0822781
0.0824065
0.0825413
0.0826712
0.0827879
0.0828889
0.0829769
0.083057
0.0831306
0.0831952
0.0832448
0.0832721
0.0832712
0.0832402
0.0831828
0.0831065
0.0830216
0.0829393
0.0828688
0.0828154
0.0827798
0.0827594
0.0827497
0.0827466
0.0819503
0.0819531
0.0819609
0.081977
0.0820056
0.0820515
0.0821189
0.0822104
0.0823245
0.0824551
0.0825913
0.0827207
0.0828338
0.082927
0.0830026
0.0830677
0.0831312
0.0832019
0.0832776
0.0833493
0.0834062
0.0834408
0.0834498
0.0834339
0.0833976
0.0833481
0.0832945
0.0832452
0.0832064
0.0831803
0.0831657
0.08316
0.0819922
0.0819948
0.0820021
0.0820172
0.082044
0.0820873
0.0821513
0.0822387
0.0823485
0.0824746
0.0826063
0.0827301
0.0828346
0.0829135
0.0829674
0.0830037
0.0830385
0.0830945
0.0831761
0.083273
0.0833707
0.0834571
0.0835242
0.0835687
0.0835904
0.0835923
0.0835796
0.083559
0.0835372
0.0835193
0.0835077
0.0835025
0.0820272
0.0820295
0.082036
0.0820493
0.0820727
0.0821105
0.082167
0.0822448
0.0823438
0.082459
0.0825805
0.0826951
0.0827896
0.0828548
0.082888
0.082895
0.0828957
0.0829251
0.0829966
0.0831023
0.0832259
0.0833496
0.0834597
0.0835483
0.0836126
0.0836538
0.0836754
0.0836826
0.0836811
0.0836761
0.0836713
0.0836687
0.08205
0.0820521
0.0820578
0.082069
0.0820888
0.0821206
0.0821682
0.0822345
0.0823201
0.0824215
0.0825304
0.0826348
0.0827214
0.0827791
0.0828025
0.082795
0.082776
0.0827837
0.0828382
0.0829392
0.0830747
0.0832252
0.083371
0.0834973
0.0835962
0.0836662
0.0837105
0.0837345
0.0837447
0.0837468
0.0837458
0.0837446
0.0820624
0.0820643
0.0820693
0.0820788
0.0820954
0.0821219
0.0821615
0.082217
0.0822895
0.0823767
0.0824724
0.0825663
0.0826462
0.0827008
0.0827234
0.0827151
0.0826934
0.082694
0.0827375
0.0828286
0.0829619
0.0831222
0.0832895
0.0834445
0.0835737
0.0836707
0.0837363
0.0837751
0.0837944
0.0838015
0.0838025
0.0838018
0.0820684
0.08207
0.0820742
0.0820824
0.0820962
0.0821182
0.082151
0.0821971
0.0822578
0.0823316
0.0824141
0.082497
0.08257
0.082623
0.0826491
0.0826488
0.0826371
0.0826438
0.0826865
0.0827717
0.0828982
0.0830564
0.0832306
0.0834014
0.0835516
0.0836707
0.0837556
0.0838091
0.0838378
0.0838499
0.083853
0.0838528
0.0820726
0.0820738
0.0820771
0.0820835
0.0820947
0.0821127
0.0821397
0.0821777
0.082228
0.0822898
0.0823597
0.0824316
0.0824976
0.0825498
0.0825825
0.0825963
0.0826034
0.0826254
0.0826753
0.0827597
0.0828798
0.0830306
0.083201
0.0833752
0.0835363
0.0836707
0.0837713
0.0838382
0.0838764
0.0838938
0.0838991
0.0838994
0.0820818
0.0820823
0.082084
0.0820879
0.0820957
0.0821092
0.0821305
0.0821613
0.0822027
0.082254
0.082313
0.0823757
0.0824364
0.08249
0.0825326
0.0825655
0.0825969
0.0826388
0.0826995
0.0827853
0.0828992
0.08304
0.0832005
0.0833688
0.0835309
0.0836729
0.0837848
0.0838631
0.0839103
0.0839334
0.0839412
0.0839421
0.0821047
0.0821039
0.082103
0.082103
0.0821058
0.0821137
0.0821287
0.0821526
0.0821862
0.0822295
0.082281
0.0823383
0.0823983
0.0824575
0.0825141
0.0825692
0.082626
0.0826876
0.0827584
0.0828448
0.0829513
0.0830795
0.083226
0.0833824
0.0835377
0.0836797
0.0837977
0.0838847
0.0839401
0.0839689
0.0839795
0.083981
0.0821505
0.0821478
0.0821431
0.0821378
0.0821342
0.0821351
0.0821433
0.0821609
0.0821891
0.0822281
0.0822772
0.0823352
0.0824
0.0824695
0.0825422
0.0826187
0.0826973
0.0827741
0.0828513
0.0829356
0.0830325
0.0831458
0.0832749
0.0834151
0.0835579
0.0836936
0.0838119
0.0839041
0.0839662
0.0840005
0.0840141
0.0840165
0.0822271
0.082222
0.0822129
0.0822017
0.0821916
0.0821861
0.0821889
0.0822027
0.0822292
0.0822689
0.0823213
0.0823852
0.0824587
0.0825399
0.0826269
0.0827195
0.0828122
0.082897
0.0829753
0.083054
0.0831393
0.083236
0.0833456
0.0834662
0.0835924
0.0837167
0.0838299
0.083923
0.0839896
0.0840287
0.0840454
0.0840487
0.0823397
0.082332
0.0823187
0.0823034
0.0822899
0.0822821
0.0822839
0.0822986
0.0823281
0.0823728
0.0824316
0.0825029
0.0825845
0.0826738
0.0827688
0.0828685
0.0829657
0.0830507
0.0831246
0.0831948
0.0832672
0.0833466
0.0834361
0.0835354
0.083642
0.0837506
0.083854
0.0839435
0.0840114
0.0840539
0.0840734
0.0840779
0.0824912
0.0824809
0.0824657
0.082451
0.0824407
0.0824378
0.082445
0.0824657
0.0825013
0.0825516
0.0826155
0.0826907
0.0827747
0.0828649
0.0829589
0.0830559
0.0831483
0.0832265
0.083292
0.0833514
0.0834103
0.0834732
0.0835431
0.0836212
0.0837067
0.0837966
0.0838859
0.0839674
0.0840328
0.0840766
0.0840984
0.084104
0.0826829
0.0826712
0.0826588
0.0826521
0.0826531
0.0826621
0.0826797
0.0827083
0.0827489
0.0828014
0.0828646
0.0829367
0.0830152
0.0830977
0.0831823
0.083268
0.0833482
0.0834147
0.0834689
0.0835166
0.0835624
0.08361
0.0836621
0.0837203
0.083785
0.0838548
0.0839271
0.0839964
0.0840555
0.0840978
0.0841206
0.0841273
0.0829179
0.0829074
0.0829047
0.0829132
0.0829302
0.0829528
0.0829802
0.0830138
0.0830544
0.0831027
0.0831582
0.0832196
0.0832852
0.0833531
0.0834217
0.0834904
0.0835539
0.0836058
0.0836474
0.0836832
0.0837167
0.0837506
0.0837873
0.0838281
0.0838736
0.0839239
0.0839776
0.0840317
0.0840807
0.0841183
0.0841403
0.0841476
0.0832024
0.0831985
0.0832116
0.0832359
0.0832648
0.0832947
0.0833249
0.0833564
0.0833905
0.0834284
0.0834704
0.0835159
0.0835637
0.0836127
0.0836618
0.0837106
0.0837553
0.0837916
0.0838204
0.0838447
0.0838671
0.0838893
0.0839129
0.083939
0.0839682
0.0840008
0.0840364
0.0840738
0.0841097
0.0841393
0.0841582
0.0841653
0.0835487
0.0835571
0.0835817
0.0836094
0.0836364
0.0836616
0.0836848
0.0837069
0.0837291
0.0837526
0.0837779
0.083805
0.0838332
0.083862
0.0838907
0.0839191
0.083945
0.0839659
0.0839824
0.0839962
0.0840087
0.084021
0.0840339
0.084048
0.0840637
0.0840813
0.0841008
0.0841219
0.084143
0.0841617
0.0841748
0.0841804
0.0839714
0.0839779
0.0839906
0.0840027
0.0840137
0.0840235
0.0840321
0.08404
0.0840476
0.0840554
0.0840638
0.0840726
0.0840818
0.0840911
0.0841004
0.0841095
0.0841179
0.0841246
0.0841299
0.0841343
0.0841383
0.0841421
0.0841461
0.0841505
0.0841554
0.0841608
0.0841668
0.0841734
0.0841802
0.0841864
0.0841911
0.0841934
)
;

boundaryField
{
    movingWall
    {
        type            fixedValue;
        value           uniform 0.0842;
    }
    fixedWalls
    {
        type            zeroGradient;
    }
    floor
    {
        type            zeroGradient;
    }
    frontAndBack
    {
        type            empty;
    }
}


// ************************************************************************* //
