/*--------------------------------*- C++ -*----------------------------------*\
| =========                 |                                                 |
| \\      /  F ield         | OpenFOAM: The Open Source CFD Toolbox           |
|  \\    /   O peration     | Version:  2212                                  |
|   \\  /    A nd           | Website:  www.openfoam.com                      |
|    \\/     M anipulation  |                                                 |
\*---------------------------------------------------------------------------*/
FoamFile
{
    version     2.0;
    format      ascii;
    arch        "LSB;label=64;scalar=64";
    class       volScalarField::Internal;
    location    "1410";
    object      dGco2;
}
// * * * * * * * * * * * * * * * * * * * * * * * * * * * * * * * * * * * * * //

dimensions      [1 -3 -1 0 0 0 0];

value           nonuniform List<scalar> 
1024
(
0.000145647
0.000145696
0.000145815
0.000146033
0.000146377
0.000146875
0.000147542
0.000148372
0.000149331
0.000150358
0.000151378
0.000152314
0.000153117
0.000153764
0.000154243
0.000154525
0.000154479
0.000153991
0.00015312
0.000151931
0.000150488
0.000148876
0.000147213
0.000145628
0.000144227
0.000143074
0.000142185
0.000141542
0.000141107
0.000140836
0.000140687
0.000140627
0.000145665
0.000145714
0.000145835
0.000146056
0.000146407
0.000146913
0.00014759
0.000148431
0.0001494
0.000150436
0.000151462
0.0001524
0.000153201
0.000153844
0.00015432
0.000154601
0.000154554
0.000154064
0.000153193
0.000152006
0.000150564
0.000148953
0.000147286
0.000145692
0.00014428
0.000143115
0.000142216
0.000141564
0.000141123
0.000140849
0.000140698
0.000140637
0.000145707
0.000145757
0.000145882
0.00014611
0.000146472
0.000146996
0.000147694
0.00014856
0.000149557
0.00015062
0.000151668
0.000152615
0.000153415
0.00015405
0.000154517
0.00015479
0.000154734
0.000154234
0.000153356
0.000152167
0.000150726
0.000149114
0.000147439
0.000145829
0.000144394
0.000143205
0.000142283
0.000141614
0.000141161
0.000140879
0.000140725
0.000140663
0.000145782
0.000145835
0.000145964
0.000146201
0.00014658
0.000147129
0.000147863
0.000148774
0.000149824
0.000150946
0.000152043
0.000153016
0.000153818
0.000154439
0.000154887
0.000155139
0.000155059
0.000154529
0.000153625
0.000152421
0.000150975
0.000149359
0.000147673
0.000146039
0.000144572
0.000143347
0.000142392
0.000141697
0.000141225
0.000140931
0.000140771
0.000140706
0.000145902
0.000145956
0.000146091
0.00014634
0.00014674
0.000147324
0.000148109
0.000149091
0.000150231
0.000151454
0.000152644
0.000153671
0.000154483
0.000155085
0.000155499
0.000155713
0.000155579
0.000154981
0.000154015
0.000152769
0.000151302
0.000149674
0.000147972
0.00014631
0.000144804
0.000143534
0.000142538
0.000141809
0.000141314
0.000141006
0.000140838
0.00014077
0.000146082
0.000146137
0.000146276
0.000146537
0.000146963
0.000147592
0.000148448
0.000149533
0.00015081
0.000152192
0.000153527
0.000154648
0.000155489
0.000156069
0.000156435
0.000156581
0.000156349
0.000155625
0.000154538
0.000153203
0.000151685
0.000150028
0.000148303
0.000146611
0.000145064
0.000143749
0.000142709
0.000141944
0.000141423
0.000141099
0.000140922
0.000140851
0.000146344
0.000146399
0.000146542
0.000146817
0.000147272
0.000147956
0.000148905
0.000150131
0.000151598
0.0001532
0.000154742
0.000156007
0.000156905
0.000157469
0.000157772
0.000157818
0.000157424
0.000156489
0.000155198
0.000153705
0.000152086
0.000150372
0.000148611
0.000146888
0.000145306
0.000143952
0.000142876
0.000142081
0.000141539
0.000141201
0.000141018
0.000140944
0.000146723
0.000146778
0.000146925
0.000147213
0.000147701
0.000148452
0.000149518
0.000150923
0.000152634
0.000154518
0.000156326
0.000157786
0.000158778
0.000159342
0.000159575
0.000159479
0.000158843
0.000157586
0.000155979
0.000154237
0.000152451
0.000150639
0.000148825
0.000147071
0.000145466
0.000144093
0.000143
0.000142191
0.00014164
0.000141297
0.00014111
0.000141036
0.000147277
0.000147331
0.000147482
0.000147785
0.000148311
0.000149139
0.000150344
0.000151966
0.000153968
0.000156183
0.000158303
0.000160004
0.000161128
0.000161714
0.000161873
0.000161592
0.000160614
0.000158903
0.000156847
0.000154745
0.000152712
0.000150751
0.000148861
0.00014708
0.000145474
0.000144113
0.000143035
0.000142242
0.000141703
0.000141369
0.000141188
0.000141116
0.000148089
0.000148144
0.0001483
0.000148621
0.000149193
0.000150113
0.000151478
0.000153344
0.00015567
0.000158245
0.000160701
0.000162666
0.000163948
0.00016458
0.000164669
0.00016416
0.000162741
0.000160435
0.000157789
0.000155199
0.000152822
0.000150653
0.000148663
0.000146861
0.000145284
0.000143976
0.000142958
0.000142221
0.000141726
0.000141423
0.000141262
0.000141198
0.000149275
0.000149332
0.000149498
0.000149847
0.000150477
0.000151507
0.000153052
0.000155184
0.000157845
0.000160777
0.000163561
0.000165783
0.000167232
0.000167932
0.000167969
0.000167219
0.000165306
0.000162316
0.000158959
0.000155739
0.000152896
0.000150431
0.000148299
0.000146472
0.00014495
0.00014374
0.000142833
0.000142199
0.00014179
0.000141552
0.000141433
0.00014139
0.000150966
0.000151029
0.000151214
0.000151605
0.000152315
0.000153478
0.000155228
0.000157636
0.00016062
0.000163876
0.000166943
0.000169387
0.000170998
0.000171804
0.00017186
0.000170966
0.000168682
0.000165113
0.000161038
0.000157066
0.000153584
0.000150667
0.000148271
0.000146348
0.000144858
0.00014376
0.000143002
0.000142526
0.000142263
0.000142143
0.000142105
0.000142103
0.00015326
0.000153334
0.00015355
0.000154003
0.000154821
0.000156153
0.000158136
0.000160826
0.000164104
0.000167624
0.0001709
0.000173517
0.000175308
0.000176327
0.000176607
0.000175909
0.000173754
0.000170146
0.000165758
0.000161207
0.000156987
0.000153363
0.000150407
0.000148122
0.000146468
0.000145369
0.000144729
0.000144436
0.000144373
0.000144431
0.000144521
0.000144584
0.000156126
0.000156217
0.000156477
0.000157018
0.000157982
0.000159527
0.00016178
0.000164758
0.000168289
0.00017199
0.000175393
0.00017816
0.000180218
0.000181671
0.000182575
0.000182743
0.000181717
0.000179272
0.000175742
0.000171584
0.000167258
0.000163133
0.000159455
0.000156413
0.000154097
0.000152524
0.000151634
0.000151284
0.000151279
0.000151437
0.000151618
0.00015173
0.000159265
0.00015937
0.000159669
0.000160285
0.00016137
0.000163082
0.000165528
0.000168692
0.000172379
0.000176217
0.000179793
0.000182848
0.000185379
0.000187551
0.000189503
0.000191227
0.000192406
0.000192598
0.000191689
0.000189827
0.000187222
0.000184112
0.000180761
0.000177443
0.000174391
0.000171828
0.000169912
0.000168677
0.000168019
0.000167766
0.000167732
0.000167767
0.000162198
0.000162307
0.000162615
0.000163246
0.00016435
0.000166079
0.000168533
0.000171698
0.000175396
0.000179304
0.000183058
0.000186426
0.000189409
0.000192188
0.000194991
0.000198025
0.000201237
0.000204213
0.000206565
0.000208158
0.0002089
0.000208758
0.000207765
0.000206033
0.000203767
0.000201249
0.000198783
0.000196652
0.000195042
0.000194007
0.000193467
0.000193273
0.000164362
0.000164467
0.000164755
0.000165337
0.00016635
0.000167934
0.000170191
0.000173126
0.000176607
0.000180358
0.000184036
0.00018737
0.000190275
0.000192856
0.00019534
0.000198052
0.000201252
0.000204925
0.000208744
0.000212447
0.000215775
0.00021851
0.000220489
0.000221614
0.000221876
0.000221372
0.000220303
0.000218958
0.000217645
0.000216606
0.00021595
0.000215665
0.000165606
0.000165703
0.000165963
0.000166475
0.000167357
0.00016873
0.000170696
0.000173279
0.000176386
0.000179789
0.000183167
0.000186205
0.000188715
0.000190679
0.000192242
0.000193732
0.000195654
0.000198489
0.000202167
0.000206419
0.000210879
0.000215189
0.000219036
0.000222189
0.000224513
0.000225985
0.000226685
0.000226782
0.000226506
0.000226099
0.000225755
0.000225575
0.000166185
0.000166276
0.000166509
0.000166957
0.000167713
0.000168882
0.000170555
0.000172769
0.000175465
0.000178461
0.000181471
0.000184176
0.000186328
0.000187817
0.00018871
0.000189302
0.000190215
0.000192192
0.000195394
0.000199695
0.00020476
0.000210145
0.000215368
0.000219999
0.000223747
0.00022649
0.000228265
0.000229228
0.0002296
0.000229625
0.000229519
0.000229431
0.000166358
0.000166442
0.000166652
0.000167044
0.000167693
0.000168684
0.000170095
0.000171966
0.000174264
0.000176849
0.000179481
0.000181873
0.000183766
0.000185011
0.000185628
0.00018588
0.000186403
0.00018796
0.000190766
0.000194824
0.000199943
0.000205781
0.00021185
0.000217602
0.00022256
0.000226431
0.00022914
0.000230795
0.000231628
0.000231919
0.000231937
0.000231887
0.000166331
0.000166405
0.000166586
0.000166923
0.000167476
0.000168312
0.000169497
0.000171067
0.000173002
0.000175198
0.00017747
0.000179581
0.000181308
0.00018251
0.000183194
0.000183599
0.000184294
0.00018589
0.00018856
0.000192367
0.000197252
0.000203024
0.00020932
0.000215625
0.000221381
0.000226144
0.000229685
0.000232007
0.000233298
0.000233849
0.000233977
0.000233955
0.00016635
0.000166401
0.000166534
0.000166794
0.000167236
0.00016792
0.0001689
0.000170205
0.000171824
0.000173684
0.000175652
0.000177558
0.000179237
0.000180584
0.000181617
0.000182547
0.000183802
0.000185744
0.00018848
0.000192116
0.000196687
0.000202122
0.0002082
0.00021453
0.000220606
0.000225919
0.000230099
0.000233007
0.00023474
0.00023556
0.000235808
0.000235814
0.000166749
0.000166756
0.000166802
0.000166935
0.000167219
0.00016772
0.000168493
0.000169567
0.000170937
0.000172558
0.000174349
0.000176201
0.000178008
0.000179701
0.000181299
0.000182976
0.000184968
0.00018737
0.000190236
0.000193716
0.000197921
0.000202885
0.000208494
0.00021448
0.000220446
0.000225933
0.000230499
0.000233866
0.000235999
0.000237089
0.000237468
0.000237506
0.000167935
0.00016787
0.000167775
0.000167716
0.000167779
0.000168056
0.00016862
0.000169512
0.000170744
0.000172291
0.000174107
0.000176119
0.000178253
0.000180451
0.00018272
0.000185177
0.000187867
0.000190667
0.000193604
0.000196875
0.000200649
0.000205034
0.000210018
0.000215435
0.000220994
0.000226319
0.000230993
0.000234648
0.000237109
0.000238455
0.000238972
0.000239048
0.000170305
0.000170139
0.000169859
0.000169564
0.00016938
0.000169437
0.000169844
0.000170667
0.000171928
0.000173609
0.000175664
0.000178022
0.000180603
0.000183341
0.000186214
0.00018929
0.000192463
0.000195476
0.000198355
0.000201334
0.000204617
0.000208355
0.000212605
0.0002173
0.00022225
0.000227165
0.000231684
0.000235425
0.000238106
0.000239674
0.000240331
0.000240452
0.000174167
0.00017388
0.00017341
0.000172914
0.000172563
0.00017252
0.000172922
0.000173851
0.000175323
0.000177298
0.000179704
0.000182446
0.000185425
0.000188559
0.000191806
0.000195195
0.000198541
0.000201533
0.000204207
0.000206817
0.000209574
0.000212641
0.000216116
0.000220001
0.000224199
0.000228515
0.000232659
0.000236278
0.000239036
0.000240765
0.000241552
0.000241723
0.000179701
0.000179295
0.000178709
0.000178175
0.000177883
0.000177982
0.000178599
0.0001798
0.000181572
0.000183846
0.000186524
0.000189492
0.000192642
0.000195888
0.00019918
0.000202531
0.000205733
0.000208482
0.000210829
0.000213016
0.000215241
0.000217659
0.000220377
0.000223437
0.000226811
0.000230392
0.000233983
0.000237284
0.000239957
0.000241753
0.000242642
0.000242866
0.000187001
0.000186519
0.000185999
0.000185717
0.000185797
0.000186297
0.000187285
0.000188788
0.000190769
0.000193157
0.000195854
0.000198753
0.000201754
0.000204782
0.000207792
0.000210792
0.000213592
0.000215932
0.000217867
0.000219607
0.000221323
0.000223145
0.000225169
0.000227453
0.000230006
0.000232791
0.000235696
0.000238509
0.00024093
0.000242673
0.000243613
0.000243884
0.00019616
0.000195719
0.000195555
0.000195834
0.000196494
0.000197474
0.00019878
0.000200413
0.000202354
0.000204559
0.000206957
0.000209467
0.000212015
0.000214544
0.000217019
0.000219446
0.000221673
0.000223503
0.000224984
0.000226283
0.00022753
0.000228824
0.000230244
0.000231842
0.000233643
0.000235645
0.000237805
0.000240001
0.000242011
0.000243566
0.00024448
0.000244781
0.000207399
0.000207218
0.000207682
0.000208584
0.000209694
0.000210918
0.000212254
0.000213716
0.000215317
0.00021705
0.000218881
0.000220762
0.000222645
0.000224493
0.000226282
0.000228017
0.000229592
0.000230872
0.000231895
0.000232775
0.000233602
0.000234446
0.000235359
0.00023638
0.000237533
0.000238829
0.000240261
0.000241778
0.000243251
0.000244477
0.000245266
0.000245562
0.000221161
0.00022148
0.000222424
0.00022348
0.000224526
0.000225535
0.000226523
0.000227515
0.000228542
0.000229616
0.000230729
0.00023186
0.000232982
0.000234077
0.000235129
0.000236143
0.000237057
0.000237796
0.000238381
0.00023888
0.000239341
0.000239805
0.000240301
0.000240852
0.000241474
0.000242174
0.000242957
0.00024381
0.000244678
0.000245454
0.000246002
0.000246237
0.000238006
0.000238263
0.000238755
0.000239221
0.000239647
0.000240037
0.000240399
0.000240747
0.000241096
0.000241454
0.000241821
0.000242192
0.000242559
0.000242915
0.000243256
0.000243584
0.000243879
0.000244116
0.000244304
0.000244463
0.000244609
0.000244754
0.000244909
0.000245079
0.000245271
0.000245487
0.000245729
0.000245994
0.000246271
0.000246531
0.000246729
0.000246825
)
;


// ************************************************************************* //
