/*--------------------------------*- C++ -*----------------------------------*\
| =========                 |                                                 |
| \\      /  F ield         | OpenFOAM: The Open Source CFD Toolbox           |
|  \\    /   O peration     | Version:  2212                                  |
|   \\  /    A nd           | Website:  www.openfoam.com                      |
|    \\/     M anipulation  |                                                 |
\*---------------------------------------------------------------------------*/
FoamFile
{
    version     2.0;
    format      ascii;
    arch        "LSB;label=64;scalar=64";
    class       volScalarField;
    location    "1410";
    object      Gch4;
}
// * * * * * * * * * * * * * * * * * * * * * * * * * * * * * * * * * * * * * //

dimensions      [1 -3 0 0 0 0 0];

internalField   nonuniform List<scalar> 
1024
(
1.93075
1.93061
1.93027
1.92967
1.9287
1.9273
1.92543
1.92311
1.92042
1.91754
1.91469
1.91207
1.90983
1.90804
1.90672
1.90597
1.90614
1.90754
1.91001
1.91336
1.91742
1.92195
1.92663
1.9311
1.93504
1.93829
1.9408
1.94261
1.94384
1.94461
1.94502
1.94519
1.9307
1.93056
1.93022
1.9296
1.92862
1.9272
1.9253
1.92294
1.92023
1.91732
1.91445
1.91183
1.9096
1.90781
1.90651
1.90576
1.90593
1.90734
1.9098
1.91315
1.9172
1.92174
1.92643
1.93092
1.9349
1.93818
1.94071
1.94255
1.94379
1.94457
1.94499
1.94517
1.93058
1.93044
1.93009
1.92945
1.92843
1.92697
1.92501
1.92258
1.91979
1.91681
1.91388
1.91123
1.909
1.90724
1.90596
1.90523
1.90543
1.90687
1.90935
1.9127
1.91675
1.92129
1.926
1.93053
1.93458
1.93793
1.94052
1.94241
1.94369
1.94448
1.94492
1.94509
1.93037
1.93022
1.92986
1.92919
1.92813
1.92659
1.92453
1.92198
1.91904
1.9159
1.91283
1.91011
1.90788
1.90616
1.90493
1.90426
1.90453
1.90605
1.90861
1.912
1.91606
1.9206
1.92535
1.92994
1.93408
1.93753
1.94022
1.94218
1.94351
1.94434
1.94479
1.94497
1.93003
1.92988
1.9295
1.92881
1.92768
1.92605
1.92384
1.9211
1.9179
1.91448
1.91115
1.90829
1.90603
1.90436
1.90323
1.90268
1.9031
1.9048
1.90753
1.91103
1.91515
1.91973
1.92451
1.92919
1.93343
1.937
1.93981
1.94186
1.94326
1.94413
1.9446
1.9448
1.92953
1.92937
1.92898
1.92825
1.92706
1.9253
1.9229
1.91986
1.91628
1.91242
1.90869
1.90556
1.90323
1.90163
1.90064
1.90027
1.90097
1.90303
1.90609
1.90984
1.91409
1.91874
1.92359
1.92835
1.9327
1.9364
1.93933
1.94149
1.94296
1.94387
1.94437
1.94457
1.92879
1.92864
1.92824
1.92747
1.92619
1.92428
1.92162
1.91819
1.91408
1.90961
1.9053
1.90178
1.89929
1.89774
1.89693
1.89686
1.89801
1.90066
1.90428
1.90846
1.91299
1.9178
1.92274
1.92758
1.93203
1.93584
1.93887
1.9411
1.94263
1.94359
1.9441
1.94431
1.92773
1.92758
1.92717
1.92636
1.92499
1.92289
1.91991
1.91597
1.91119
1.90593
1.90088
1.89682
1.89408
1.89254
1.89194
1.89227
1.89411
1.89765
1.90215
1.90702
1.912
1.91707
1.92216
1.92708
1.93159
1.93545
1.93853
1.9408
1.94236
1.94332
1.94385
1.94406
1.92618
1.92603
1.9256
1.92476
1.92328
1.92097
1.9176
1.91306
1.90747
1.90128
1.89537
1.89065
1.88755
1.88597
1.88559
1.88645
1.88925
1.89406
1.8998
1.90566
1.91132
1.9168
1.92208
1.92707
1.93158
1.93541
1.93844
1.94067
1.94219
1.94313
1.94364
1.94384
1.9239
1.92375
1.92331
1.92241
1.92081
1.91824
1.91443
1.90921
1.90272
1.89553
1.8887
1.88325
1.87972
1.87803
1.87787
1.87939
1.88343
1.88989
1.89726
1.90447
1.91107
1.91712
1.92267
1.92772
1.93214
1.93581
1.93867
1.94074
1.94214
1.94299
1.94344
1.94362
1.92057
1.92041
1.91995
1.91898
1.91722
1.91434
1.91002
1.90407
1.89665
1.88848
1.88074
1.87459
1.87063
1.86877
1.86878
1.87098
1.87641
1.88478
1.89412
1.90306
1.91095
1.91781
1.92375
1.92885
1.93311
1.9365
1.93905
1.94083
1.94198
1.94265
1.94299
1.94311
1.91583
1.91566
1.91514
1.91405
1.91207
1.90882
1.90394
1.89722
1.88891
1.87985
1.87134
1.8646
1.8602
1.85808
1.85806
1.86069
1.86715
1.87714
1.88847
1.89949
1.90915
1.91725
1.92391
1.92926
1.93342
1.9365
1.93862
1.93996
1.94071
1.94105
1.94116
1.94117
1.9094
1.90919
1.90859
1.90733
1.90505
1.90133
1.89581
1.88832
1.87919
1.86942
1.86035
1.85315
1.84828
1.84559
1.84496
1.84706
1.85319
1.86329
1.8755
1.88814
1.89984
1.90989
1.91809
1.92444
1.92904
1.9321
1.93389
1.93471
1.9349
1.93475
1.9345
1.93433
1.90137
1.90111
1.90039
1.89889
1.8962
1.8919
1.88563
1.87734
1.86753
1.85727
1.84787
1.84027
1.83468
1.83079
1.82845
1.82816
1.83117
1.83807
1.84792
1.85948
1.87149
1.88292
1.89312
1.90155
1.90797
1.91234
1.91481
1.91578
1.9158
1.91537
1.91487
1.91456
1.89257
1.89228
1.89145
1.88973
1.88671
1.88195
1.87515
1.86636
1.85613
1.8455
1.83562
1.82724
1.82033
1.81444
1.80918
1.80458
1.80149
1.80112
1.80376
1.809
1.81627
1.82491
1.8342
1.84339
1.85184
1.85893
1.86423
1.86764
1.86946
1.87016
1.87025
1.87016
1.88434
1.88404
1.88318
1.88143
1.87836
1.87355
1.86673
1.85794
1.84767
1.83684
1.82647
1.81719
1.80901
1.80142
1.79377
1.78553
1.77683
1.76879
1.76247
1.75822
1.75629
1.75678
1.75958
1.7644
1.77067
1.77763
1.78443
1.79031
1.79475
1.7976
1.79909
1.79962
1.87825
1.87796
1.87716
1.87554
1.87273
1.86832
1.86205
1.85388
1.84421
1.8338
1.8236
1.81438
1.80638
1.79928
1.79248
1.78509
1.77642
1.76649
1.75618
1.7462
1.73723
1.72987
1.72456
1.72155
1.72088
1.7223
1.72524
1.72893
1.73253
1.73538
1.73717
1.73796
1.87472
1.87445
1.87373
1.87231
1.86986
1.86604
1.86057
1.85338
1.84473
1.83526
1.82587
1.81743
1.81047
1.80504
1.80073
1.79667
1.79148
1.78386
1.77396
1.76252
1.75052
1.73893
1.72857
1.72009
1.71383
1.70985
1.70796
1.7077
1.70844
1.70953
1.71046
1.71095
1.87305
1.8728
1.87215
1.87091
1.86881
1.86556
1.8609
1.85473
1.84721
1.83885
1.83046
1.82292
1.81692
1.81276
1.81027
1.80865
1.80621
1.80091
1.79231
1.78073
1.7671
1.7526
1.73854
1.72607
1.71599
1.7086
1.70381
1.70121
1.70019
1.70011
1.70039
1.70062
1.87252
1.87229
1.8717
1.87062
1.86881
1.86605
1.86212
1.8569
1.85048
1.84326
1.8359
1.82921
1.82391
1.82041
1.81866
1.81796
1.81657
1.81241
1.80487
1.79395
1.78015
1.76442
1.74807
1.73258
1.71924
1.70882
1.70153
1.69707
1.69482
1.69402
1.69396
1.69409
1.87255
1.87235
1.87185
1.87091
1.86937
1.86704
1.86374
1.85936
1.85395
1.8478
1.84144
1.83552
1.83067
1.82728
1.82535
1.82422
1.82236
1.81808
1.8109
1.80064
1.78747
1.7719
1.75493
1.73795
1.72246
1.70964
1.70011
1.69386
1.69038
1.68889
1.68853
1.68859
1.87248
1.87234
1.87196
1.87124
1.87001
1.8681
1.86537
1.86172
1.85719
1.85198
1.84646
1.84112
1.83641
1.83262
1.82974
1.82718
1.82379
1.81856
1.81119
1.80138
1.78904
1.77438
1.75799
1.74093
1.72457
1.71028
1.69904
1.69121
1.68655
1.68434
1.68366
1.68364
1.87138
1.87136
1.87122
1.87085
1.87005
1.86864
1.86648
1.86348
1.85964
1.85511
1.8501
1.84492
1.83987
1.83516
1.83075
1.82615
1.82075
1.81426
1.80652
1.79712
1.78576
1.77236
1.75723
1.7411
1.72503
1.71027
1.69799
1.68894
1.6832
1.68026
1.67924
1.67913
1.86815
1.86832
1.86857
1.86872
1.86852
1.86773
1.86615
1.86365
1.86021
1.8559
1.85085
1.84526
1.83934
1.83327
1.82704
1.82033
1.81302
1.80543
1.79749
1.78865
1.77845
1.76661
1.75316
1.73856
1.72358
1.70925
1.69668
1.68686
1.68025
1.67663
1.67523
1.67502
1.86171
1.86216
1.86291
1.8637
1.86418
1.86399
1.86284
1.86054
1.85704
1.85239
1.84671
1.8402
1.8331
1.82558
1.81771
1.80932
1.8007
1.79252
1.78473
1.77667
1.76779
1.75769
1.74622
1.73356
1.72023
1.707
1.69485
1.68479
1.67759
1.67338
1.67161
1.67128
1.85123
1.852
1.85327
1.85461
1.85554
1.85563
1.8545
1.85192
1.84787
1.84244
1.83583
1.82831
1.82014
1.81156
1.80269
1.79345
1.78436
1.77624
1.76899
1.76192
1.75447
1.74618
1.7368
1.72632
1.71501
1.70339
1.69224
1.68252
1.67511
1.67047
1.66835
1.66789
1.83621
1.83731
1.8389
1.84033
1.84111
1.84082
1.83911
1.83581
1.83096
1.82473
1.81741
1.80929
1.80068
1.79182
1.78284
1.77371
1.765
1.75753
1.75117
1.74525
1.73922
1.73269
1.72535
1.71709
1.708
1.69836
1.6887
1.67983
1.67265
1.66784
1.66545
1.66485
1.81642
1.81772
1.81913
1.81988
1.81965
1.81828
1.81557
1.81147
1.80606
1.79954
1.79218
1.78427
1.77608
1.76782
1.75962
1.75145
1.74383
1.73748
1.73223
1.72751
1.72287
1.71794
1.71247
1.70631
1.69943
1.69193
1.68412
1.67656
1.67006
1.66538
1.66286
1.66213
1.79159
1.79278
1.79322
1.79246
1.79066
1.78799
1.78443
1.77998
1.77469
1.76869
1.76215
1.75531
1.74837
1.74147
1.73473
1.72812
1.72206
1.71709
1.71307
1.70955
1.70618
1.70267
1.69884
1.69453
1.68967
1.68428
1.67847
1.67257
1.66717
1.663
1.66055
1.65974
1.76113
1.76162
1.76036
1.75791
1.75489
1.75157
1.74793
1.74396
1.7396
1.73488
1.7299
1.72478
1.71965
1.71461
1.70974
1.70501
1.70073
1.69725
1.69448
1.69209
1.68985
1.68757
1.6851
1.68234
1.67923
1.67574
1.67189
1.66781
1.66386
1.66057
1.65846
1.65767
1.72384
1.72297
1.72042
1.71755
1.71472
1.71197
1.70929
1.7066
1.7038
1.70088
1.69785
1.69477
1.69172
1.68874
1.68587
1.68311
1.68062
1.67861
1.67702
1.67567
1.67442
1.67317
1.67183
1.67034
1.66866
1.66678
1.66467
1.66238
1.66005
1.65797
1.6565
1.65587
1.67821
1.67752
1.67618
1.67492
1.67376
1.6727
1.67172
1.67078
1.66983
1.66885
1.66785
1.66685
1.66585
1.66488
1.66395
1.66305
1.66225
1.66161
1.6611
1.66067
1.66027
1.65988
1.65946
1.659
1.65848
1.6579
1.65725
1.65654
1.65579
1.6551
1.65457
1.65431
)
;

boundaryField
{
    movingWall
    {
        type            fixedValue;
        value           uniform 1.6535;
    }
    fixedWalls
    {
        type            zeroGradient;
    }
    floor
    {
        type            zeroGradient;
    }
    frontAndBack
    {
        type            empty;
    }
}


// ************************************************************************* //
