/*--------------------------------*- C++ -*----------------------------------*\
| =========                 |                                                 |
| \\      /  F ield         | OpenFOAM: The Open Source CFD Toolbox           |
|  \\    /   O peration     | Version:  2212                                  |
|   \\  /    A nd           | Website:  www.openfoam.com                      |
|    \\/     M anipulation  |                                                 |
\*---------------------------------------------------------------------------*/
FoamFile
{
    version     2.0;
    format      ascii;
    arch        "LSB;label=64;scalar=64";
    class       volScalarField;
    location    "1410";
    object      Sco2;
}
// * * * * * * * * * * * * * * * * * * * * * * * * * * * * * * * * * * * * * //

dimensions      [1 -3 0 0 0 0 0];

internalField   nonuniform List<scalar> 
1024
(
0.00555172
0.00555357
0.00555812
0.0055664
0.00557953
0.00559852
0.00562395
0.00565557
0.00569211
0.00573129
0.00577017
0.00580585
0.00583646
0.00586109
0.00587934
0.00589013
0.00588836
0.00586974
0.00583655
0.00579123
0.00573621
0.00567479
0.00561141
0.00555097
0.00549758
0.00545363
0.00541975
0.00539524
0.00537864
0.0053683
0.00536264
0.00536034
0.00555238
0.00555426
0.00555888
0.0055673
0.00558066
0.00559997
0.00562578
0.00565782
0.00569475
0.00573426
0.00577336
0.0058091
0.00583965
0.00586417
0.00588231
0.00589302
0.00589121
0.00587254
0.00583935
0.00579408
0.00573913
0.0056777
0.00561417
0.00555341
0.00549959
0.0054552
0.00542091
0.00539608
0.00537927
0.0053688
0.00536307
0.00536074
0.00555398
0.00555591
0.00556067
0.00556935
0.00558315
0.00560311
0.00562975
0.00566275
0.00570072
0.00574127
0.00578119
0.0058173
0.00584778
0.005872
0.00588979
0.0059002
0.00589807
0.00587903
0.00584556
0.00580021
0.00574531
0.00568384
0.00562001
0.00555863
0.00550395
0.00545862
0.00542349
0.00539799
0.00538072
0.00536997
0.0053641
0.00536171
0.00555686
0.00555885
0.00556379
0.00557284
0.00558728
0.00560821
0.00563619
0.0056709
0.00571092
0.00575367
0.0057955
0.0058326
0.00586315
0.00588683
0.00590389
0.00591353
0.00591046
0.00589027
0.00585581
0.00580989
0.00575479
0.00569318
0.00562891
0.00556665
0.00551072
0.00546402
0.00542762
0.00540112
0.00538314
0.00537195
0.00536585
0.00536337
0.00556144
0.00556349
0.00556861
0.0055781
0.00559335
0.00561561
0.00564556
0.00568297
0.00572643
0.00577307
0.0058184
0.00585756
0.00588851
0.00591145
0.00592725
0.00593538
0.00593027
0.00590751
0.00587068
0.00582316
0.00576725
0.00570519
0.00564031
0.00557698
0.00551956
0.00547117
0.0054332
0.00540542
0.00538654
0.00537479
0.00536838
0.00536579
0.00556829
0.00557037
0.00557568
0.00558565
0.00560187
0.00562583
0.00565848
0.00569984
0.00574851
0.00580117
0.00585207
0.00589481
0.00592685
0.00594896
0.0059629
0.00596849
0.00595964
0.00593204
0.00589062
0.00583974
0.00578184
0.00571868
0.00565292
0.00558844
0.00552947
0.00547934
0.00543971
0.00541056
0.0053907
0.00537834
0.00537161
0.0053689
0.00557826
0.00558036
0.00558583
0.00559629
0.00561363
0.0056397
0.0056759
0.00572263
0.00577854
0.00583961
0.00589839
0.00594659
0.00598082
0.00600231
0.00601389
0.00601562
0.00600063
0.00596498
0.00591575
0.00585887
0.00579714
0.0057318
0.00566469
0.00559901
0.0055387
0.00548711
0.00544608
0.00541579
0.00539511
0.00538224
0.00537524
0.00537242
0.00559273
0.00559482
0.00560042
0.0056114
0.00563
0.00565861
0.00569924
0.00575282
0.00581804
0.00588984
0.00595875
0.00601441
0.00605224
0.00607371
0.00608259
0.00607894
0.00605469
0.00600678
0.00594552
0.00587914
0.00581106
0.00574198
0.00567282
0.00560597
0.00554481
0.00549247
0.00545079
0.00541998
0.00539895
0.00538587
0.00537878
0.00537592
0.00561383
0.00561591
0.00562164
0.00563319
0.00565324
0.00568483
0.00573075
0.00579256
0.00586887
0.0059533
0.00603412
0.00609895
0.0061418
0.00616412
0.00617021
0.00615949
0.00612223
0.00605698
0.00597863
0.0058985
0.00582099
0.00574624
0.00567422
0.00560632
0.00554512
0.00549322
0.00545213
0.00542191
0.00540136
0.00538863
0.00538175
0.00537899
0.00564479
0.00564688
0.00565282
0.00566508
0.00568687
0.00572194
0.00577395
0.00584511
0.00593375
0.00603189
0.00612552
0.00620041
0.00624929
0.00627338
0.00627679
0.00625738
0.00620327
0.00611539
0.00601453
0.00591579
0.00582521
0.0057425
0.00566667
0.00559796
0.00553786
0.00548801
0.00544922
0.0054211
0.00540223
0.0053907
0.00538455
0.00538212
0.00569
0.00569218
0.00569851
0.00571181
0.00573582
0.00577506
0.00583397
0.00591525
0.00601666
0.00612843
0.00623453
0.00631923
0.00637445
0.00640114
0.00640255
0.00637397
0.00630104
0.00618707
0.00605911
0.00593639
0.00582803
0.00573407
0.00565278
0.00558314
0.00552513
0.005479
0.00544442
0.00542026
0.00540469
0.00539562
0.00539108
0.00538942
0.00575445
0.00575687
0.00576391
0.00577881
0.00580585
0.00585021
0.00591692
0.00600871
0.00612244
0.00624657
0.00636345
0.00645659
0.00651801
0.00654876
0.00655088
0.0065168
0.00642975
0.0062937
0.00613836
0.00598696
0.00585424
0.00574304
0.00565172
0.00557844
0.00552164
0.00547976
0.0054509
0.00543275
0.0054227
0.00541813
0.00541671
0.0054166
0.00584188
0.00584472
0.00585293
0.00587021
0.0059014
0.00595218
0.00602775
0.00613027
0.00625524
0.00638941
0.0065143
0.00661403
0.0066823
0.00672114
0.0067318
0.00670521
0.00662305
0.00648555
0.0063183
0.00614481
0.00598395
0.00584583
0.00573315
0.00564606
0.005583
0.00554112
0.00551672
0.00550555
0.00550313
0.00550533
0.00550879
0.00551117
0.00595115
0.00595461
0.00596452
0.00598513
0.00602189
0.00608079
0.00616664
0.00628016
0.00641476
0.00655584
0.00668555
0.00679103
0.00686945
0.00692485
0.00695931
0.00696573
0.0069266
0.00683339
0.00669884
0.00654036
0.00637545
0.00621824
0.00607803
0.00596206
0.0058738
0.00581382
0.00577991
0.00576657
0.00576638
0.0057724
0.00577928
0.00578357
0.00607079
0.00607479
0.00608618
0.00610965
0.00615104
0.00621629
0.0063095
0.00643012
0.00657064
0.00671694
0.00685326
0.00696971
0.0070662
0.00714898
0.0072234
0.00728911
0.00733405
0.00734135
0.00730671
0.00723574
0.00713644
0.00701789
0.00689017
0.00676367
0.00664736
0.00654967
0.00647664
0.00642956
0.00640447
0.00639481
0.00639354
0.00639485
0.00618257
0.00618673
0.00619848
0.00622253
0.00626463
0.00633054
0.00642407
0.00654469
0.00668566
0.00683461
0.00697773
0.00710611
0.00721979
0.00732572
0.00743258
0.00754821
0.00767064
0.00778408
0.00787375
0.00793445
0.00796274
0.00795734
0.0079195
0.00785346
0.0077671
0.0076711
0.00757712
0.00749587
0.00743453
0.00739507
0.00737447
0.00736709
0.00626508
0.00626906
0.00628004
0.00630224
0.00634086
0.00640123
0.00648724
0.00659914
0.00673183
0.00687479
0.007015
0.0071421
0.00725282
0.0073512
0.00744589
0.00754925
0.00767123
0.00781122
0.00795681
0.00809796
0.0082248
0.00832907
0.00840449
0.00844737
0.00845737
0.00843814
0.00839741
0.00834612
0.00829611
0.00825649
0.00823148
0.0082206
0.00631249
0.00631619
0.00632608
0.00634563
0.00637922
0.00643158
0.0065065
0.00660495
0.0067234
0.00685312
0.00698185
0.00709768
0.00719334
0.0072682
0.0073278
0.0073846
0.00745785
0.00756591
0.00770612
0.00786819
0.0080382
0.00820246
0.00834912
0.00846928
0.00855787
0.00861399
0.00864067
0.00864436
0.00863384
0.00861835
0.00860523
0.00859835
0.00633458
0.00633803
0.00634692
0.006364
0.00639281
0.00643736
0.00650112
0.00658551
0.00668829
0.00680249
0.00691721
0.00702035
0.00710235
0.0071591
0.00719315
0.00721572
0.00725052
0.0073259
0.00744794
0.00761188
0.00780494
0.00801021
0.00820928
0.00838583
0.00852868
0.00863322
0.00870091
0.00873761
0.0087518
0.00875274
0.00874869
0.00874533
0.00634117
0.00634437
0.00635236
0.00636732
0.00639206
0.00642981
0.00648358
0.00655493
0.00664252
0.00674104
0.00684139
0.00693256
0.0070047
0.00705216
0.0070757
0.00708529
0.00710523
0.00716456
0.00727154
0.0074262
0.00762133
0.00784387
0.00807521
0.00829445
0.00848343
0.00863099
0.00873423
0.00879733
0.00882907
0.00884016
0.00884085
0.00883897
0.00634014
0.00634293
0.00634985
0.0063627
0.00638376
0.00641564
0.00646081
0.00652066
0.0065944
0.00667812
0.00676471
0.00684518
0.00691101
0.00695681
0.00698289
0.00699833
0.00702485
0.00708567
0.00718745
0.00733256
0.00751876
0.00773877
0.00797878
0.00821909
0.00843848
0.00862004
0.00875502
0.00884355
0.00889273
0.00891373
0.00891864
0.00891778
0.00634085
0.00634279
0.00634787
0.00635778
0.00637462
0.00640069
0.00643803
0.00648781
0.00654952
0.00662041
0.00669541
0.00676806
0.00683206
0.00688343
0.00692278
0.00695825
0.00700607
0.00708008
0.00718439
0.007323
0.00749722
0.0077044
0.00793606
0.00817735
0.00840897
0.00861148
0.00877078
0.00888165
0.0089477
0.00897896
0.00898843
0.00898864
0.00635606
0.00635633
0.00635807
0.00636314
0.00637398
0.00639308
0.00642254
0.00646346
0.00651568
0.00657749
0.00664575
0.00671635
0.00678523
0.00684974
0.00691066
0.0069746
0.00705051
0.00714209
0.00725133
0.00738396
0.00754426
0.00773348
0.00794729
0.00817543
0.00840287
0.008612
0.00878605
0.00891438
0.00899569
0.00903725
0.00905169
0.00905313
0.00640125
0.00639877
0.00639516
0.0063929
0.00639533
0.00640589
0.00642737
0.0064614
0.00650832
0.00656732
0.00663652
0.00671323
0.00679456
0.00687836
0.00696482
0.00705849
0.00716101
0.00726776
0.00737971
0.00750438
0.00764822
0.0078154
0.00800535
0.00821185
0.00842374
0.00862672
0.00880487
0.00894419
0.00903799
0.00908931
0.00910903
0.00911193
0.0064916
0.00648527
0.00647461
0.00646336
0.00645635
0.00645853
0.00647404
0.00650541
0.00655346
0.00661754
0.00669587
0.00678575
0.00688414
0.00698851
0.00709803
0.00721525
0.00733621
0.00745106
0.00756078
0.00767436
0.00779948
0.00794196
0.00810398
0.00828296
0.00847163
0.00865898
0.00883121
0.00897381
0.009076
0.00913578
0.00916083
0.00916542
0.0066388
0.00662786
0.00660997
0.00659106
0.00657767
0.00657602
0.00659134
0.00662678
0.00668287
0.00675816
0.00684987
0.00695439
0.00706795
0.00718742
0.00731116
0.00744034
0.00756789
0.00768192
0.00778388
0.00788336
0.00798843
0.00810535
0.00823781
0.0083859
0.00854591
0.00871041
0.0088684
0.00900631
0.00911148
0.00917736
0.00920736
0.00921386
0.00684977
0.0068343
0.00681195
0.00679158
0.00678045
0.00678424
0.00680773
0.00685355
0.00692107
0.00700774
0.00710981
0.00722297
0.00734305
0.00746677
0.00759225
0.00771998
0.00784202
0.00794683
0.00803629
0.00811964
0.00820446
0.00829663
0.00840023
0.00851688
0.00864547
0.00878199
0.00891884
0.00904468
0.00914658
0.00921502
0.00924892
0.00925744
0.007128
0.00710964
0.00708982
0.00707909
0.00708213
0.00710119
0.00713883
0.00719613
0.00727164
0.00736267
0.00746549
0.00757598
0.00769037
0.00780579
0.00792053
0.00803489
0.00814158
0.00823079
0.00830455
0.00837089
0.0084363
0.00850573
0.00858288
0.00866993
0.00876727
0.00887341
0.00898415
0.00909139
0.00918366
0.00925009
0.00928593
0.00929626
0.00747715
0.00746031
0.00745407
0.0074647
0.00748988
0.00752722
0.00757699
0.00763925
0.00771323
0.00779727
0.00788867
0.00798438
0.0080815
0.00817787
0.00827221
0.00836472
0.00844962
0.00851938
0.00857585
0.00862534
0.00867286
0.00872221
0.00877634
0.00883724
0.00890588
0.0089822
0.00906452
0.00914824
0.00922487
0.00928412
0.00931896
0.00933045
0.00790554
0.00789862
0.00791633
0.00795071
0.00799302
0.00803967
0.00809061
0.00814631
0.00820733
0.00827339
0.00834319
0.0084149
0.00848668
0.00855711
0.00862532
0.00869145
0.00875147
0.00880027
0.00883925
0.0088728
0.00890435
0.00893649
0.00897129
0.00901021
0.00905416
0.00910357
0.00915814
0.00921596
0.00927211
0.00931887
0.00934893
0.00936021
0.00843011
0.00844229
0.00847827
0.0085185
0.00855836
0.00859685
0.00863449
0.0086723
0.00871144
0.00875239
0.00879482
0.00883792
0.00888071
0.00892242
0.00896255
0.00900118
0.00903603
0.00906419
0.00908651
0.00910549
0.00912309
0.00914077
0.00915968
0.00918069
0.00920437
0.00923107
0.00926093
0.00929343
0.00932653
0.0093561
0.009377
0.00938594
0.00907218
0.00908198
0.00910074
0.00911852
0.00913476
0.00914962
0.00916341
0.00917668
0.00918997
0.00920362
0.00921762
0.00923175
0.00924573
0.00925931
0.00927233
0.00928482
0.00929605
0.00930511
0.00931226
0.00931831
0.00932387
0.00932941
0.00933531
0.00934182
0.00934912
0.00935735
0.00936657
0.0093767
0.00938726
0.00939713
0.00940469
0.00940836
)
;

boundaryField
{
    movingWall
    {
        type            fixedValue;
        value           uniform 0.00942;
    }
    fixedWalls
    {
        type            zeroGradient;
    }
    floor
    {
        type            zeroGradient;
    }
    frontAndBack
    {
        type            empty;
    }
}


// ************************************************************************* //
