/*--------------------------------*- C++ -*----------------------------------*\
| =========                 |                                                 |
| \\      /  F ield         | OpenFOAM: The Open Source CFD Toolbox           |
|  \\    /   O peration     | Version:  2212                                  |
|   \\  /    A nd           | Website:  www.openfoam.com                      |
|    \\/     M anipulation  |                                                 |
\*---------------------------------------------------------------------------*/
FoamFile
{
    version     2.0;
    format      ascii;
    arch        "LSB;label=64;scalar=64";
    class       volVectorField;
    location    "1410";
    object      U;
}
// * * * * * * * * * * * * * * * * * * * * * * * * * * * * * * * * * * * * * //

dimensions      [0 1 -1 0 0 0 0];

internalField   nonuniform List<vector> 
1024
(
(4.84283e-06 -5.07083e-06 0)
(-4.13599e-05 1.16612e-05 0)
(-0.000181786 2.78788e-05 0)
(-0.000407214 3.46943e-05 0)
(-0.000679611 3.39117e-05 0)
(-0.000952268 2.83229e-05 0)
(-0.00117311 1.89411e-05 0)
(-0.00127526 5.2317e-06 0)
(-0.0011653 -1.49516e-05 0)
(-0.000754179 -3.35882e-05 0)
(-2.1215e-05 -4.19474e-05 0)
(0.000777455 -3.06167e-05 0)
(0.00137393 -1.68479e-05 0)
(0.00176229 -7.77404e-06 0)
(0.00200821 -4.43309e-06 0)
(0.00221723 -3.94648e-06 0)
(0.0023982 -2.21216e-06 0)
(0.00243681 3.38938e-06 0)
(0.00228044 1.00244e-05 0)
(0.0019813 1.37441e-05 0)
(0.00163918 1.45812e-05 0)
(0.00131637 1.38199e-05 0)
(0.00103762 1.23896e-05 0)
(0.000807151 1.07738e-05 0)
(0.000618093 9.64249e-06 0)
(0.000457902 9.44426e-06 0)
(0.000315562 1.01067e-05 0)
(0.000188641 1.04881e-05 0)
(8.52721e-05 8.74957e-06 0)
(1.70622e-05 3.82579e-06 0)
(-1.00191e-05 -2.57576e-06 0)
(-6.15829e-06 -6.22209e-06 0)
(-1.30327e-05 4.20787e-05 0)
(-0.000187875 0.000179785 0)
(-0.000570515 0.000300025 0)
(-0.00114374 0.00035387 0)
(-0.00182148 0.000338773 0)
(-0.00248742 0.000269486 0)
(-0.00300326 0.000157873 0)
(-0.00320011 8.41442e-06 0)
(-0.00286652 -0.000176838 0)
(-0.00182097 -0.00034829 0)
(1.42092e-05 -0.000421142 0)
(0.00203085 -0.000331152 0)
(0.003596 -0.000203151 0)
(0.00469193 -0.000113209 0)
(0.00544304 -7.11863e-05 0)
(0.00608808 -5.67396e-05 0)
(0.00663931 -3.32059e-05 0)
(0.0068148 2.01777e-05 0)
(0.00649099 8.62395e-05 0)
(0.00577345 0.000135492 0)
(0.00489505 0.000159856 0)
(0.00402153 0.00016599 0)
(0.0032328 0.000161851 0)
(0.00255392 0.000153488 0)
(0.00197791 0.000147092 0)
(0.00148151 0.000146353 0)
(0.0010435 0.000149321 0)
(0.000660851 0.000146143 0)
(0.000351194 0.000124338 0)
(0.000137385 7.9411e-05 0)
(2.70206e-05 2.44771e-05 0)
(-2.71843e-06 -1.05139e-05 0)
(-3.30505e-05 0.000196506 0)
(-0.00033754 0.000575225 0)
(-0.000925064 0.000862279 0)
(-0.00176135 0.000981147 0)
(-0.00272335 0.00092219 0)
(-0.00364504 0.000714526 0)
(-0.00432452 0.000390825 0)
(-0.00452289 -2.68292e-05 0)
(-0.00395754 -0.000518424 0)
(-0.00244403 -0.000967012 0)
(0.000141586 -0.0011591 0)
(0.00297691 -0.000931224 0)
(0.00528247 -0.000597942 0)
(0.00701436 -0.000355831 0)
(0.00828864 -0.000233247 0)
(0.00940044 -0.000183848 0)
(0.0103496 -0.000113363 0)
(0.0107432 3.37055e-05 0)
(0.0104007 0.000218501 0)
(0.00944783 0.000368178 0)
(0.00819093 0.000456154 0)
(0.00687243 0.000493581 0)
(0.00562725 0.000499145 0)
(0.0045122 0.000489197 0)
(0.00353494 0.000479889 0)
(0.00267705 0.000480519 0)
(0.00191865 0.000485609 0)
(0.00125912 0.000471035 0)
(0.000720377 0.000408233 0)
(0.000330035 0.00028851 0)
(9.97292e-05 0.000139578 0)
(5.23705e-06 1.99591e-05 0)
(-4.48959e-05 0.000465435 0)
(-0.000433312 0.00121702 0)
(-0.00115219 0.00172911 0)
(-0.00214731 0.00191607 0)
(-0.00326586 0.00176915 0)
(-0.00430881 0.00133713 0)
(-0.00503486 0.000683381 0)
(-0.00516398 -0.000137829 0)
(-0.0043908 -0.00106488 0)
(-0.00259187 -0.00188954 0)
(0.000354288 -0.00223478 0)
(0.00353993 -0.00182769 0)
(0.00629117 -0.00122565 0)
(0.00851246 -0.000771539 0)
(0.0102683 -0.000525496 0)
(0.0118413 -0.000414801 0)
(0.0132038 -0.0002699 0)
(0.0139078 1.7999e-05 0)
(0.0136993 0.000384549 0)
(0.0127077 0.0006988 0)
(0.011265 0.000905815 0)
(0.00965755 0.00101734 0)
(0.00806299 0.00106333 0)
(0.00657199 0.00107307 0)
(0.00521772 0.00107517 0)
(0.00400055 0.00108629 0)
(0.00291289 0.00109684 0)
(0.00196049 0.00106537 0)
(0.00116861 0.000942328 0)
(0.000571132 0.000709876 0)
(0.000192591 0.000406464 0)
(1.53346e-05 0.000113486 0)
(-4.60238e-05 0.000818999 0)
(-0.000448248 0.00204962 0)
(-0.0011929 0.00283487 0)
(-0.00222044 0.0030879 0)
(-0.00336562 0.00280942 0)
(-0.00441232 0.00207436 0)
(-0.00509909 0.000986826 0)
(-0.0051262 -0.000348893 0)
(-0.00421038 -0.00179857 0)
(-0.00231644 -0.00304117 0)
(0.000611704 -0.00352937 0)
(0.00370351 -0.00293498 0)
(0.00656873 -0.00205568 0)
(0.00905369 -0.00136486 0)
(0.0111646 -0.000967724 0)
(0.0131293 -0.000773559 0)
(0.0148862 -0.000533478 0)
(0.0159748 -6.66405e-05 0)
(0.0160458 0.000540214 0)
(0.0151987 0.00108355 0)
(0.0137666 0.00147304 0)
(0.0120542 0.00171711 0)
(0.0102631 0.00185486 0)
(0.00851009 0.00192752 0)
(0.00685539 0.00197518 0)
(0.00532527 0.00202142 0)
(0.00393249 0.00205252 0)
(0.00269508 0.00200865 0)
(0.0016458 0.00181354 0)
(0.000830031 0.001429 0)
(0.000292282 0.000891539 0)
(2.60686e-05 0.000297556 0)
(-3.71307e-05 0.00119798 0)
(-0.000381872 0.00295742 0)
(-0.00104048 0.00405353 0)
(-0.00197036 0.00438509 0)
(-0.00302066 0.00395545 0)
(-0.00397749 0.00286517 0)
(-0.00457469 0.00126801 0)
(-0.00450916 -0.000659019 0)
(-0.00354934 -0.00267273 0)
(-0.00174423 -0.00431553 0)
(0.000847576 -0.00489216 0)
(0.0035112 -0.00413293 0)
(0.0061669 -0.00301779 0)
(0.00863662 -0.00210703 0)
(0.0108923 -0.00155771 0)
(0.0130978 -0.00127347 0)
(0.015168 -0.000933422 0)
(0.0166539 -0.000267454 0)
(0.0171327 0.000630254 0)
(0.0165786 0.00146571 0)
(0.0153256 0.00210302 0)
(0.0136862 0.00254649 0)
(0.0118697 0.00284262 0)
(0.0100056 0.00304166 0)
(0.00817501 0.00319127 0)
(0.00642843 0.00331888 0)
(0.00480172 0.0034046 0)
(0.00333075 0.00336785 0)
(0.00206201 0.00309758 0)
(0.0010566 0.00251964 0)
(0.000379756 0.00165155 0)
(3.56685e-05 0.000596536 0)
(-2.20575e-05 0.00152785 0)
(-0.000258883 0.00378499 0)
(-0.000744366 0.00520937 0)
(-0.00146931 0.00565552 0)
(-0.00232475 0.00510024 0)
(-0.00312266 0.00365191 0)
(-0.00360813 0.00151485 0)
(-0.00348975 -0.00103728 0)
(-0.00259539 -0.00361178 0)
(-0.0010394 -0.00558379 0)
(0.00098688 -0.00616869 0)
(0.00302448 -0.0052869 0)
(0.00520145 -0.00400721 0)
(0.00737553 -0.00293017 0)
(0.00951919 -0.00225967 0)
(0.0117461 -0.00190418 0)
(0.0139746 -0.00148524 0)
(0.0157942 -0.000631211 0)
(0.0167595 0.000594385 0)
(0.0165941 0.00178284 0)
(0.0156386 0.00272952 0)
(0.0142156 0.00343881 0)
(0.0125311 0.00396539 0)
(0.0107148 0.00436551 0)
(0.00885796 0.00468962 0)
(0.00702932 0.00496337 0)
(0.00528601 0.00515505 0)
(0.00368472 0.00515638 0)
(0.00229005 0.00481157 0)
(0.00117806 0.00399672 0)
(0.000425928 0.0026964 0)
(4.08479e-05 0.00101428 0)
(-6.45801e-06 0.00174316 0)
(-0.000119888 0.0043806 0)
(-0.000393233 0.00611349 0)
(-0.000852086 0.00672336 0)
(-0.00144638 0.00611784 0)
(-0.00203801 0.00437466 0)
(-0.00240252 0.00173095 0)
(-0.00227805 -0.0014276 0)
(-0.00154655 -0.00451475 0)
(-0.000367898 -0.00670069 0)
(0.000951338 -0.00721032 0)
(0.00227029 -0.00625647 0)
(0.00377806 -0.00489368 0)
(0.00542408 -0.00373031 0)
(0.00720699 -0.00300038 0)
(0.00920924 -0.00262173 0)
(0.011382 -0.00217866 0)
(0.0133973 -0.00119319 0)
(0.0148512 0.00037933 0)
(0.0151198 0.00197599 0)
(0.0145261 0.00328205 0)
(0.0134188 0.00431413 0)
(0.0119934 0.00513776 0)
(0.0103682 0.00581284 0)
(0.00863555 0.00638771 0)
(0.00687556 0.00687796 0)
(0.00516417 0.00722946 0)
(0.00357971 0.00729438 0)
(0.00220464 0.00686358 0)
(0.00112172 0.00576111 0)
(0.000401041 0.00394111 0)
(3.78791e-05 0.00151127 0)
(4.60656e-06 0.00181186 0)
(-5.9044e-06 0.00464893 0)
(-8.4079e-05 0.00661986 0)
(-0.000275871 0.0074264 0)
(-0.000587251 0.00687381 0)
(-0.000946523 0.00496225 0)
(-0.00118173 0.00191866 0)
(-0.0010856 -0.00176272 0)
(-0.000593981 -0.00525506 0)
(9.06615e-05 -0.00749853 0)
(0.00066837 -0.00787883 0)
(0.00121315 -0.00689352 0)
(0.00193975 -0.00553105 0)
(0.00289639 -0.00437735 0)
(0.00411774 -0.00367176 0)
(0.00566614 -0.00334438 0)
(0.00753912 -0.00296856 0)
(0.00955711 -0.00195789 0)
(0.0113267 -6.99222e-05 0)
(0.0121264 0.00198199 0)
(0.0119378 0.00368165 0)
(0.0112169 0.00507858 0)
(0.0101512 0.00625176 0)
(0.00883981 0.00726365 0)
(0.00736998 0.00815458 0)
(0.00583035 0.00891794 0)
(0.00431473 0.00946045 0)
(0.0029219 0.00958067 0)
(0.00174516 0.00901695 0)
(0.000856705 0.00756375 0)
(0.000294161 0.00517752 0)
(2.55384e-05 0.0019921 0)
(9.52988e-06 0.00175384 0)
(5.88718e-05 0.00459919 0)
(0.000110695 0.00668794 0)
(0.000122624 0.00767357 0)
(6.31468e-05 0.00726572 0)
(-6.6161e-05 0.00533171 0)
(-0.000169747 0.00205716 0)
(-0.000122318 -0.00198093 0)
(6.63684e-05 -0.0056752 0)
(0.000171553 -0.00779127 0)
(6.39221e-06 -0.00801562 0)
(-0.000246478 -0.00703543 0)
(-0.000339393 -0.00576949 0)
(-0.000161268 -0.00473669 0)
(0.00035978 -0.0041415 0)
(0.00126593 -0.00395347 0)
(0.00259568 -0.00376347 0)
(0.0043751 -0.00288278 0)
(0.00621642 -0.000803948 0)
(0.00773061 0.00171657 0)
(0.00796404 0.00383398 0)
(0.00768253 0.00561826 0)
(0.00706173 0.00717042 0)
(0.00617229 0.00855787 0)
(0.00509407 0.00980309 0)
(0.00392501 0.010858 0)
(0.00277698 0.0115684 0)
(0.00176197 0.0116721 0)
(0.000966049 0.0108806 0)
(0.00042647 0.00901672 0)
(0.000127601 0.00610029 0)
(7.17532e-06 0.00232336 0)
(9.19807e-06 0.00161896 0)
(7.35065e-05 0.00433134 0)
(0.000174248 0.00641656 0)
(0.00028305 0.00750007 0)
(0.000362485 0.00722614 0)
(0.00039171 0.00538533 0)
(0.000396949 0.00210085 0)
(0.000381325 -0.0019844 0)
(0.000210036 -0.00554613 0)
(-0.000328996 -0.00738624 0)
(-0.00124321 -0.00741776 0)
(-0.00226365 -0.0065142 0)
(-0.00313876 -0.00546264 0)
(-0.00373768 -0.00467417 0)
(-0.00399485 -0.00429783 0)
(-0.00386997 -0.00431066 0)
(-0.00327797 -0.00439248 0)
(-0.00202535 -0.0038386 0)
(-0.000476689 -0.0020244 0)
(0.00200278 0.00109922 0)
(0.00273911 0.00370432 0)
(0.00299381 0.00583816 0)
(0.00292759 0.0077441 0)
(0.00257945 0.0095016 0)
(0.00202944 0.0110895 0)
(0.00139208 0.0123854 0)
(0.000792557 0.0131538 0)
(0.000333187 0.0130921 0)
(6.07713e-05 0.0119534 0)
(-4.39228e-05 0.00967124 0)
(-4.43955e-05 0.0063993 0)
(-1.01967e-05 0.00238556 0)
(4.91405e-06 0.00148499 0)
(4.59515e-05 0.00402781 0)
(0.000117113 0.00604568 0)
(0.000206157 0.00716157 0)
(0.000289569 0.00698882 0)
(0.000344153 0.00528228 0)
(0.000343935 0.00216369 0)
(0.000183411 -0.00164706 0)
(-0.00045264 -0.00474097 0)
(-0.00166627 -0.00606119 0)
(-0.00328075 -0.00594919 0)
(-0.00499485 -0.00522813 0)
(-0.00658746 -0.0044975 0)
(-0.00793876 -0.00404491 0)
(-0.00898316 -0.00397781 0)
(-0.00965794 -0.00428375 0)
(-0.00982708 -0.004694 0)
(-0.00925466 -0.0045042 0)
(-0.00804565 -0.00315933 0)
(-0.00602657 -0.00040365 0)
(-0.00377242 0.00279071 0)
(-0.0026869 0.00535804 0)
(-0.00195587 0.00764394 0)
(-0.0015517 0.00976182 0)
(-0.00136923 0.0116133 0)
(-0.00128077 0.0129894 0)
(-0.00117546 0.0136148 0)
(-0.000988769 0.0132444 0)
(-0.000720339 0.011766 0)
(-0.000423403 0.00925635 0)
(-0.000173264 0.00595135 0)
(-2.12429e-05 0.00214903 0)
(-4.3668e-07 0.00142092 0)
(-1.33304e-05 0.00388011 0)
(-4.13575e-05 0.00585691 0)
(-8.38082e-05 0.00697441 0)
(-0.000140097 0.00684456 0)
(-0.000227755 0.00524581 0)
(-0.000435579 0.00240296 0)
(-0.000992145 -0.000763689 0)
(-0.00223504 -0.00293498 0)
(-0.00409708 -0.00369145 0)
(-0.00628017 -0.003544 0)
(-0.00853629 -0.00311589 0)
(-0.0107015 -0.00279195 0)
(-0.0126844 -0.00275271 0)
(-0.0144261 -0.00307813 0)
(-0.0158424 -0.00376945 0)
(-0.0167531 -0.00462723 0)
(-0.0168122 -0.0049978 0)
(-0.015926 -0.00429101 0)
(-0.0140785 -0.00229865 0)
(-0.0113078 0.000658909 0)
(-0.00884832 0.00366168 0)
(-0.00702739 0.00626599 0)
(-0.00557851 0.00860473 0)
(-0.00442045 0.0105768 0)
(-0.00345797 0.0119332 0)
(-0.00262075 0.0123921 0)
(-0.00186156 0.0117919 0)
(-0.00118077 0.0101652 0)
(-0.000619016 0.00772464 0)
(-0.000227942 0.00478571 0)
(-2.32068e-05 0.00165693 0)
(-1.13663e-05 0.00157697 0)
(-0.000120398 0.00428818 0)
(-0.000338253 0.00643987 0)
(-0.000665629 0.00764978 0)
(-0.00109402 0.00759859 0)
(-0.00165928 0.00624852 0)
(-0.00250816 0.00407982 0)
(-0.00386303 0.00200378 0)
(-0.00572519 0.000629729 0)
(-0.00798367 3.12235e-05 0)
(-0.0104195 -0.000126099 0)
(-0.0128621 -0.000205071 0)
(-0.015228 -0.000414077 0)
(-0.0174809 -0.000859707 0)
(-0.0196154 -0.00160603 0)
(-0.0215291 -0.00272396 0)
(-0.0229982 -0.0041067 0)
(-0.0236032 -0.00519095 0)
(-0.0231396 -0.00543311 0)
(-0.0215701 -0.00465904 0)
(-0.018951 -0.00287721 0)
(-0.0155147 -0.000210315 0)
(-0.0119693 0.00282784 0)
(-0.00891979 0.00548388 0)
(-0.00642518 0.00751338 0)
(-0.00444815 0.00887863 0)
(-0.00296052 0.00934208 0)
(-0.00185524 0.00880135 0)
(-0.00104379 0.00739418 0)
(-0.00048822 0.00541707 0)
(-0.000160482 0.00321282 0)
(-1.49753e-05 0.00105378 0)
(-1.89888e-05 0.00210371 0)
(-0.000201147 0.00566762 0)
(-0.000573692 0.00847408 0)
(-0.00115446 0.0101416 0)
(-0.00194234 0.0104567 0)
(-0.00296788 0.00956396 0)
(-0.00431094 0.00801899 0)
(-0.00603932 0.00650279 0)
(-0.00812616 0.00537985 0)
(-0.0104725 0.00461513 0)
(-0.0129643 0.00400935 0)
(-0.0155166 0.00338986 0)
(-0.0180686 0.00263926 0)
(-0.0205602 0.00166271 0)
(-0.0228987 0.000367445 0)
(-0.0249853 -0.00126766 0)
(-0.0266698 -0.00320573 0)
(-0.0275926 -0.00510087 0)
(-0.027545 -0.00650128 0)
(-0.0264678 -0.00730356 0)
(-0.0243523 -0.00745778 0)
(-0.0212975 -0.0068777 0)
(-0.0175392 -0.00543714 0)
(-0.013419 -0.00304731 0)
(-0.00944666 -5.99269e-05 0)
(-0.00603468 0.00282277 0)
(-0.00339911 0.00487504 0)
(-0.00164596 0.00550613 0)
(-0.000631521 0.00510472 0)
(-0.000157846 0.00402939 0)
(-2.45845e-06 0.0025596 0)
(1.08337e-05 0.000907991 0)
(-1.63649e-05 0.0028425 0)
(-0.000185976 0.00764223 0)
(-0.000548043 0.0114716 0)
(-0.00113989 0.0139288 0)
(-0.00197556 0.014837 0)
(-0.0030697 0.0144034 0)
(-0.00443561 0.0131881 0)
(-0.00606499 0.0118013 0)
(-0.00792341 0.0105743 0)
(-0.00997255 0.00952125 0)
(-0.0121798 0.00851518 0)
(-0.0145133 0.00743077 0)
(-0.0169364 0.00617712 0)
(-0.0194066 0.00468049 0)
(-0.0218615 0.00287079 0)
(-0.0241642 0.000679826 0)
(-0.0260145 -0.0019214 0)
(-0.0270688 -0.00458042 0)
(-0.0273985 -0.00702156 0)
(-0.0269279 -0.00923723 0)
(-0.025614 -0.0111874 0)
(-0.0234727 -0.0127403 0)
(-0.0205939 -0.013671 0)
(-0.017143 -0.0136966 0)
(-0.0133664 -0.0125622 0)
(-0.00958918 -0.0101656 0)
(-0.00617136 -0.00668777 0)
(-0.00342637 -0.0027305 0)
(-0.00158185 0.000415513 0)
(-0.000560591 0.00200947 0)
(-0.000118036 0.00206288 0)
(2.94747e-06 0.000981732 0)
(-6.57788e-06 0.00339469 0)
(-9.82565e-05 0.00919328 0)
(-0.000318862 0.0139602 0)
(-0.000719802 0.0172564 0)
(-0.00133836 0.0188517 0)
(-0.00219515 0.0188965 0)
(-0.00328332 0.0179156 0)
(-0.00456832 0.0165356 0)
(-0.00600724 0.0151582 0)
(-0.00757122 0.0138713 0)
(-0.0092478 0.0125883 0)
(-0.0110299 0.011195 0)
(-0.0129082 0.00959994 0)
(-0.0148709 0.00772346 0)
(-0.0168935 0.00548342 0)
(-0.0189051 0.00279849 0)
(-0.0207879 -0.000388217 0)
(-0.0219846 -0.00365474 0)
(-0.022745 -0.00679592 0)
(-0.0230477 -0.0100098 0)
(-0.0227771 -0.0133366 0)
(-0.0218443 -0.0166484 0)
(-0.0202094 -0.0196406 0)
(-0.0179082 -0.0218699 0)
(-0.0150635 -0.0228286 0)
(-0.0118789 -0.0220518 0)
(-0.00861886 -0.0192944 0)
(-0.00558318 -0.0147775 0)
(-0.00308037 -0.00939198 0)
(-0.00134049 -0.00451823 0)
(-0.000385057 -0.00126554 0)
(-2.13659e-05 8.97186e-05 0)
(3.14401e-06 0.00355631 0)
(1.20663e-07 0.00978147 0)
(-5.02159e-05 0.0151184 0)
(-0.000205997 0.0190856 0)
(-0.000529563 0.0213436 0)
(-0.00106556 0.0218988 0)
(-0.00181436 0.021173 0)
(-0.00272808 0.0197954 0)
(-0.00374302 0.0182588 0)
(-0.00481278 0.0167501 0)
(-0.00591646 0.0152384 0)
(-0.0070478 0.0136237 0)
(-0.00820352 0.0118156 0)
(-0.00937925 0.00973859 0)
(-0.0105608 0.00732088 0)
(-0.0116966 0.00448574 0)
(-0.0127666 0.00115615 0)
(-0.0140851 -0.00231661 0)
(-0.0151079 -0.00562184 0)
(-0.0161258 -0.00917318 0)
(-0.0169455 -0.0132079 0)
(-0.0173725 -0.0177221 0)
(-0.0172151 -0.0224497 0)
(-0.0163442 -0.0268809 0)
(-0.014727 -0.0303171 0)
(-0.0124451 -0.0319575 0)
(-0.00969593 -0.0310703 0)
(-0.00677684 -0.0272675 0)
(-0.00405701 -0.0208905 0)
(-0.00191626 -0.0133055 0)
(-0.000597698 -0.00644285 0)
(-3.94322e-05 -0.0015401 0)
(1.15809e-05 0.00341936 0)
(8.37367e-05 0.00959588 0)
(0.00018237 0.0151247 0)
(0.000253808 0.0195144 0)
(0.00022266 0.022347 0)
(2.12164e-05 0.0234635 0)
(-0.00038067 0.0230758 0)
(-0.000940067 0.0217553 0)
(-0.00157427 0.0200783 0)
(-0.00220522 0.0183504 0)
(-0.00278917 0.0166213 0)
(-0.00331555 0.0148177 0)
(-0.00379144 0.0128474 0)
(-0.00423132 0.0106261 0)
(-0.00465096 0.00808004 0)
(-0.00503073 0.0051653 0)
(-0.00532121 0.00191685 0)
(-0.00617978 -0.00124883 0)
(-0.00714962 -0.00421552 0)
(-0.00842515 -0.00743071 0)
(-0.00989718 -0.0113592 0)
(-0.0113568 -0.0162118 0)
(-0.0125097 -0.0218844 0)
(-0.0130733 -0.0279314 0)
(-0.0128469 -0.0335973 0)
(-0.0117542 -0.0378524 0)
(-0.00987346 -0.0395439 0)
(-0.00743142 -0.0376567 0)
(-0.00479097 -0.0317419 0)
(-0.00242822 -0.022573 0)
(-0.000807227 -0.0123838 0)
(-6.09861e-05 -0.00354257 0)
(1.56853e-05 0.00311388 0)
(0.000138203 0.00894204 0)
(0.000346752 0.0143987 0)
(0.000596799 0.0189892 0)
(0.000810069 0.0222278 0)
(0.000909658 0.0238258 0)
(0.000847946 0.0238413 0)
(0.00064049 0.0226972 0)
(0.000367155 0.0209522 0)
(0.000131531 0.0190214 0)
(9.66103e-06 0.0170747 0)
(2.44184e-05 0.015099 0)
(0.000157546 0.0130158 0)
(0.000369308 0.0107346 0)
(0.000600589 0.00816643 0)
(0.000781197 0.0052534 0)
(0.000953566 0.00220147 0)
(0.000378046 -0.000599359 0)
(-0.000535261 -0.00322415 0)
(-0.00174459 -0.0058516 0)
(-0.00331211 -0.00914295 0)
(-0.00520206 -0.0135897 0)
(-0.00718732 -0.0193861 0)
(-0.00888946 -0.0262684 0)
(-0.00995313 -0.0335759 0)
(-0.0101186 -0.0401818 0)
(-0.00929983 -0.0446272 0)
(-0.00759578 -0.0453601 0)
(-0.00529312 -0.0410868 0)
(-0.00288713 -0.0315914 0)
(-0.00102255 -0.0187293 0)
(-8.47761e-05 -0.00582833 0)
(1.65682e-05 0.00275892 0)
(0.000163253 0.00810004 0)
(0.000436893 0.0133148 0)
(0.000807747 0.0179315 0)
(0.0012042 0.0214213 0)
(0.00154947 0.0233901 0)
(0.00178986 0.0237576 0)
(0.00192591 0.022813 0)
(0.0020246 0.021065 0)
(0.00219072 0.0189862 0)
(0.00251286 0.0168516 0)
(0.00302435 0.014729 0)
(0.00369967 0.0125748 0)
(0.00446976 0.0103018 0)
(0.00522748 0.00781334 0)
(0.00582698 0.00503949 0)
(0.00609107 0.00229815 0)
(0.00558609 -0.000142942 0)
(0.00462357 -0.00237649 0)
(0.00340569 -0.00460799 0)
(0.00196439 -0.00721194 0)
(0.000155329 -0.0108773 0)
(-0.00208716 -0.0161936 0)
(-0.004435 -0.0231014 0)
(-0.00649229 -0.0312786 0)
(-0.00782303 -0.0396645 0)
(-0.00813657 -0.0466373 0)
(-0.00734924 -0.0502635 0)
(-0.00559981 -0.0484712 0)
(-0.00331921 -0.0398521 0)
(-0.00126341 -0.0252071 0)
(-0.00011363 -0.00832513 0)
(1.49144e-05 0.00242871 0)
(0.00016036 0.0072674 0)
(0.000450424 0.012161 0)
(0.000875752 0.0166778 0)
(0.00138411 0.020274 0)
(0.00191261 0.0224797 0)
(0.00241441 0.0231032 0)
(0.00288563 0.0223253 0)
(0.00337762 0.0206005 0)
(0.00397644 0.0184281 0)
(0.00475781 0.0161604 0)
(0.00574817 0.0139425 0)
(0.00691128 0.0117726 0)
(0.00815448 0.00957517 0)
(0.00933033 0.00725451 0)
(0.010232 0.00474496 0)
(0.0105298 0.00237208 0)
(0.0101166 0.000333082 0)
(0.00899159 -0.00158758 0)
(0.00760327 -0.00355908 0)
(0.0060445 -0.00586305 0)
(0.00431943 -0.00888624 0)
(0.00233348 -0.0131317 0)
(-9.26638e-05 -0.0194259 0)
(-0.00270093 -0.0277082 0)
(-0.00498394 -0.0371346 0)
(-0.00642197 -0.0461052 0)
(-0.00669133 -0.0525347 0)
(-0.00570374 -0.053726 0)
(-0.00373551 -0.0470443 0)
(-0.00155788 -0.0316771 0)
(-0.000153147 -0.0110334 0)
(1.0309e-05 0.00217092 0)
(0.000124484 0.00658177 0)
(0.00037244 0.0111487 0)
(0.000773793 0.0154811 0)
(0.00131407 0.0190438 0)
(0.00196253 0.0213271 0)
(0.0026929 0.0220674 0)
(0.00350361 0.0213743 0)
(0.00442503 0.0196645 0)
(0.0055044 0.0174475 0)
(0.00677802 0.0151201 0)
(0.00824576 0.0128796 0)
(0.00985616 0.0107588 0)
(0.011502 0.00869648 0)
(0.0130122 0.0066023 0)
(0.0141441 0.00441456 0)
(0.0145135 0.00241147 0)
(0.0141224 0.000761056 0)
(0.013012 -0.000798283 0)
(0.011562 -0.00246485 0)
(0.0098796 -0.00448634 0)
(0.0080351 -0.00720784 0)
(0.00605029 -0.0110155 0)
(0.00383667 -0.0163324 0)
(0.00130591 -0.023589 0)
(-0.00158689 -0.0333264 0)
(-0.00405546 -0.0435664 0)
(-0.00550226 -0.0524092 0)
(-0.00551399 -0.0567718 0)
(-0.00410037 -0.0528985 0)
(-0.00193138 -0.0380002 0)
(-0.000213889 -0.0139993 0)
(1.7733e-07 0.002027 0)
(3.50974e-05 0.00616129 0)
(0.000157985 0.0104527 0)
(0.000440502 0.0145363 0)
(0.000934843 0.0179111 0)
(0.00165818 0.020083 0)
(0.00261039 0.0207691 0)
(0.00379013 0.0200511 0)
(0.00519396 0.0183319 0)
(0.00680827 0.0161178 0)
(0.00860878 0.0138132 0)
(0.0105567 0.0116336 0)
(0.0125856 0.00962924 0)
(0.0145852 0.00775062 0)
(0.0163808 0.00591485 0)
(0.0177254 0.00406048 0)
(0.0182378 0.00240706 0)
(0.0179602 0.00109264 0)
(0.0170219 -0.000135699 0)
(0.0156619 -0.00149986 0)
(0.0140165 -0.00321809 0)
(0.012144 -0.00561003 0)
(0.0100796 -0.00903624 0)
(0.00780676 -0.0138622 0)
(0.0052765 -0.0203645 0)
(0.00238911 -0.0287895 0)
(-0.000868642 -0.0394621 0)
(-0.00355503 -0.0500997 0)
(-0.00484441 -0.0575281 0)
(-0.00431632 -0.0571136 0)
(-0.00239511 -0.0439532 0)
(-0.000314121 -0.0172986 0)
(-1.94182e-05 0.0020611 0)
(-0.000146372 0.00615483 0)
(-0.000271309 0.0102314 0)
(-0.000227289 0.0139522 0)
(0.000161921 0.0169632 0)
(0.000968051 0.0188124 0)
(0.00218517 0.019263 0)
(0.00379624 0.0184119 0)
(0.00574832 0.016667 0)
(0.00794746 0.0145097 0)
(0.0103006 0.012312 0)
(0.0127323 0.0102738 0)
(0.0151685 0.00844519 0)
(0.0175093 0.00678377 0)
(0.0195966 0.0052152 0)
(0.0212085 0.00367641 0)
(0.0219865 0.00233196 0)
(0.0219724 0.00129132 0)
(0.0213985 0.000346059 0)
(0.020275 -0.000738009 0)
(0.0188389 -0.00216437 0)
(0.0170995 -0.00421594 0)
(0.0150552 -0.00721958 0)
(0.0126763 -0.0115032 0)
(0.00992533 -0.0173378 0)
(0.00677658 -0.0249282 0)
(0.00321685 -0.0344007 0)
(-0.00058174 -0.0457664 0)
(-0.00342054 -0.0558839 0)
(-0.00421001 -0.0593333 0)
(-0.00292266 -0.0491866 0)
(-0.000481735 -0.0210101 0)
(-6.59879e-05 0.00238263 0)
(-0.000508504 0.006759 0)
(-0.00103395 0.010662 0)
(-0.00131183 0.0138319 0)
(-0.00104265 0.0161537 0)
(-0.000107553 0.0174636 0)
(0.00149308 0.017541 0)
(0.00363648 0.0164878 0)
(0.00621201 0.0147304 0)
(0.00904053 0.0126933 0)
(0.0119717 0.0106793 0)
(0.0149091 0.00884754 0)
(0.0177847 0.00723586 0)
(0.020521 0.00580642 0)
(0.0229904 0.00449447 0)
(0.025013 0.00323719 0)
(0.0262362 0.00215452 0)
(0.0266631 0.00133266 0)
(0.0265239 0.000610097 0)
(0.0258304 -0.000228293 0)
(0.0247646 -0.00138505 0)
(0.0232969 -0.00309082 0)
(0.0213749 -0.0056272 0)
(0.018928 -0.00928597 0)
(0.0158979 -0.0143324 0)
(0.0122758 -0.0209988 0)
(0.00812132 -0.0294972 0)
(0.00358254 -0.0399445 0)
(-0.000883406 -0.051711 0)
(-0.00349775 -0.0591512 0)
(-0.0034036 -0.0532174 0)
(-0.000744762 -0.0251497 0)
(-0.000178976 0.00319692 0)
(-0.00120246 0.00818189 0)
(-0.00226861 0.0117635 0)
(-0.00285897 0.0140674 0)
(-0.0025961 0.0154177 0)
(-0.0014072 0.0159591 0)
(0.000749186 0.0155576 0)
(0.00358055 0.0142926 0)
(0.00687077 0.0125747 0)
(0.0103917 0.0107248 0)
(0.0139638 0.00895369 0)
(0.0174907 0.00736986 0)
(0.0209196 0.00599517 0)
(0.024197 0.00479652 0)
(0.0272244 0.00372054 0)
(0.0298593 0.00270994 0)
(0.0317117 0.00185138 0)
(0.032718 0.00121215 0)
(0.0330985 0.000667503 0)
(0.0329343 3.14909e-05 0)
(0.032283 -0.00087589 0)
(0.0311237 -0.00223433 0)
(0.0293553 -0.00427044 0)
(0.0268618 -0.00723227 0)
(0.0235479 -0.0113709 0)
(0.019385 -0.0169486 0)
(0.0144428 -0.0242709 0)
(0.00890569 -0.0336922 0)
(0.00313695 -0.0452037 0)
(-0.00171746 -0.0561315 0)
(-0.00357662 -0.0554508 0)
(-0.0010974 -0.0295969 0)
(-0.000427966 0.00485106 0)
(-0.00239827 0.0105948 0)
(-0.00399695 0.0133744 0)
(-0.00466873 0.0143744 0)
(-0.00410429 0.0145184 0)
(-0.00236053 0.0141738 0)
(0.00061124 0.0132469 0)
(0.00433174 0.0118244 0)
(0.00847168 0.0102285 0)
(0.0128103 0.00862489 0)
(0.017167 0.0071343 0)
(0.021452 0.00581952 0)
(0.0256188 0.00468969 0)
(0.0296217 0.00371811 0)
(0.0333728 0.0028638 0)
(0.0367449 0.00208031 0)
(0.0392806 0.0014279 0)
(0.0408604 0.00095244 0)
(0.0417222 0.000556095 0)
(0.042005 9.18307e-05 0)
(0.0417161 -0.000579837 0)
(0.0408056 -0.00159425 0)
(0.0391522 -0.00311989 0)
(0.0366089 -0.00535137 0)
(0.0330413 -0.00850736 0)
(0.0283724 -0.0128571 0)
(0.0226243 -0.0187752 0)
(0.0159525 -0.0268038 0)
(0.00872843 -0.0374999 0)
(0.00181789 -0.0498924 0)
(-0.00295596 -0.0552128 0)
(-0.00144506 -0.0341131 0)
(-0.000880524 0.00785227 0)
(-0.00408236 0.0138641 0)
(-0.00574515 0.0149257 0)
(-0.00579741 0.0142075 0)
(-0.00426217 0.0130852 0)
(-0.00140092 0.0118802 0)
(0.00284549 0.010487 0)
(0.0076186 0.00907166 0)
(0.0127917 0.00768527 0)
(0.018116 0.00637532 0)
(0.0234159 0.00519336 0)
(0.0285907 0.00416775 0)
(0.033577 0.00329888 0)
(0.0383153 0.00256614 0)
(0.0427134 0.00193912 0)
(0.0466487 0.00138377 0)
(0.0496299 0.000935881 0)
(0.0515436 0.000617055 0)
(0.0526698 0.0003542 0)
(0.05318 4.23075e-05 0)
(0.0530777 -0.000409056 0)
(0.0522821 -0.00109462 0)
(0.0506712 -0.0021294 0)
(0.0480844 -0.00364967 0)
(0.0443572 -0.00582243 0)
(0.0393526 -0.00888544 0)
(0.0329946 -0.0132255 0)
(0.0253188 -0.0194943 0)
(0.0165907 -0.0286434 0)
(0.00754763 -0.0410653 0)
(-0.000697997 -0.0516089 0)
(-0.00149299 -0.0381446 0)
(-0.00162412 0.0129942 0)
(-0.00555071 0.0171418 0)
(-0.00557074 0.0152705 0)
(-0.00336337 0.0127514 0)
(0.000463444 0.0105608 0)
(0.00533094 0.00878363 0)
(0.010955 0.0073013 0)
(0.0169672 0.00605475 0)
(0.0232026 0.0049615 0)
(0.0294397 0.00399762 0)
(0.0355031 0.0031655 0)
(0.0412744 0.00246686 0)
(0.046674 0.00189346 0)
(0.0516392 0.00142704 0)
(0.0560949 0.00104405 0)
(0.0599506 0.000720952 0)
(0.0627899 0.000471536 0)
(0.0645781 0.000297928 0)
(0.0656158 0.000153373 0)
(0.0660855 -2.18937e-05 0)
(0.0659443 -0.000278039 0)
(0.0651399 -0.000671723 0)
(0.0635478 -0.00127061 0)
(0.0610059 -0.00215499 0)
(0.0573377 -0.00343051 0)
(0.0523609 -0.00526864 0)
(0.0458865 -0.00799337 0)
(0.0377354 -0.0122378 0)
(0.027852 -0.0191409 0)
(0.0165447 -0.0301106 0)
(0.00441303 -0.0435009 0)
(-0.000168945 -0.0396297 0)
(-0.00123063 0.0182828 0)
(-0.00301975 0.018144 0)
(0.0033025 0.0125865 0)
(0.0103784 0.00925105 0)
(0.0173845 0.00692884 0)
(0.024278 0.00521335 0)
(0.0311184 0.00395664 0)
(0.0378076 0.00303527 0)
(0.0442669 0.00232618 0)
(0.0503752 0.0017655 0)
(0.0560213 0.00132223 0)
(0.0611334 0.000977028 0)
(0.0656794 0.000712796 0)
(0.0696519 0.000511826 0)
(0.0730422 0.000356753 0)
(0.0758313 0.000233737 0)
(0.0777869 0.000143486 0)
(0.078958 8.12512e-05 0)
(0.0795841 2.60492e-05 0)
(0.0797807 -4.30776e-05 0)
(0.0795151 -0.000149409 0)
(0.0787271 -0.000317525 0)
(0.0772985 -0.000576837 0)
(0.0750841 -0.000962036 0)
(0.0719246 -0.00152197 0)
(0.0676338 -0.00234753 0)
(0.0619556 -0.00363936 0)
(0.0544929 -0.00585339 0)
(0.0446438 -0.0099588 0)
(0.0316542 -0.0176507 0)
(0.0155198 -0.0297948 0)
(0.00631926 -0.0334666 0)
(0.0207966 0.0113585 0)
(0.0271767 0.00928026 0)
(0.0402176 0.00541216 0)
(0.0508136 0.00327964 0)
(0.0587714 0.00204538 0)
(0.0650972 0.00126597 0)
(0.0703322 0.000780643 0)
(0.0747399 0.000487539 0)
(0.0784945 0.000307785 0)
(0.0816925 0.000195094 0)
(0.0843931 0.000123686 0)
(0.0866493 7.84416e-05 0)
(0.0885167 4.98421e-05 0)
(0.090047 3.14835e-05 0)
(0.0912768 1.89262e-05 0)
(0.0922262 9.82844e-06 0)
(0.092844 3.72323e-06 0)
(0.0931754 -7.75064e-07 0)
(0.0933058 -6.26234e-06 0)
(0.0932586 -1.40967e-05 0)
(0.0930132 -2.82745e-05 0)
(0.0925166 -5.24379e-05 0)
(0.0916918 -9.08467e-05 0)
(0.0904523 -0.000148471 0)
(0.0887046 -0.000232867 0)
(0.0863276 -0.000360597 0)
(0.0831108 -0.000574751 0)
(0.0786154 -0.000987453 0)
(0.0718843 -0.00187836 0)
(0.0609093 -0.00399336 0)
(0.0433008 -0.00920023 0)
(0.0285992 -0.014537 0)
)
;

boundaryField
{
    movingWall
    {
        type            fixedValue;
        value           uniform (0.1 0 0);
    }
    fixedWalls
    {
        type            noSlip;
    }
    floor
    {
        type            noSlip;
    }
    frontAndBack
    {
        type            empty;
    }
}


// ************************************************************************* //
