/*--------------------------------*- C++ -*----------------------------------*\
| =========                 |                                                 |
| \\      /  F ield         | OpenFOAM: The Open Source CFD Toolbox           |
|  \\    /   O peration     | Version:  2206                                  |
|   \\  /    A nd           | Website:  www.openfoam.com                      |
|    \\/     M anipulation  |                                                 |
\*---------------------------------------------------------------------------*/
FoamFile
{
    version     2.0;
    format      ascii;
    arch        "LSB;label=64;scalar=64";
    class       volVectorField;
    location    "550800";
    object      U;
}
// * * * * * * * * * * * * * * * * * * * * * * * * * * * * * * * * * * * * * //

dimensions      [0 1 -1 0 0 0 0];

internalField   nonuniform List<vector> 
16
(
(9.91154e-08 -7.82803e-08 0)
(1.7946e-07 -1.7395e-08 0)
(1.71058e-07 3.59604e-09 0)
(9.87071e-08 9.16786e-08 0)
(8.71235e-09 -2.02502e-07 0)
(8.51629e-08 -4.85666e-08 0)
(4.49369e-08 7.10119e-08 0)
(-2.01095e-08 1.7921e-07 0)
(-6.24443e-08 -1.68813e-07 0)
(-9.77658e-08 -5.62206e-08 0)
(-8.85312e-08 1.08686e-07 0)
(-5.73288e-08 1.18817e-07 0)
(-5.02261e-08 -4.4689e-08 0)
(-1.6361e-07 -2.58672e-08 0)
(-1.28369e-07 3.64183e-08 0)
(-2.26503e-08 3.17838e-08 0)
)
;

boundaryField
{
    movingWall
    {
        type            noSlip;
    }
    fixedWalls
    {
        type            noSlip;
    }
    frontAndBack
    {
        type            empty;
    }
}


// ************************************************************************* //
