/*--------------------------------*- C++ -*----------------------------------*\
| =========                 |                                                 |
| \\      /  F ield         | OpenFOAM: The Open Source CFD Toolbox           |
|  \\    /   O peration     | Version:  2212                                  |
|   \\  /    A nd           | Website:  www.openfoam.com                      |
|    \\/     M anipulation  |                                                 |
\*---------------------------------------------------------------------------*/
FoamFile
{
    version     2.0;
    format      ascii;
    arch        "LSB;label=64;scalar=64";
    class       volScalarField;
    location    "500";
    object      k;
}
// * * * * * * * * * * * * * * * * * * * * * * * * * * * * * * * * * * * * * //

dimensions      [0 2 -2 0 0 0 0];

internalField   nonuniform List<scalar> 
125000
(
1.31384523992
1.33292799935
1.31384521976
1.37383630085
1.33740792178
1.33292795356
1.4035247867
1.31384521992
1.37383626935
1.32492764558
1.33592512474
1.33740790957
1.40170724606
1.33292795237
1.40352484361
1.34485058762
1.31384521986
1.37383626922
1.32492763949
1.30993197788
1.33182188147
1.33592511694
1.3965078513
1.33740791174
1.40170729301
1.34452222689
1.33292795274
1.4035248449
1.34485062611
1.32159768443
1.31384524004
1.37383626999
1.32492763891
1.30993199187
1.30522906386
1.32617725299
1.33182187171
1.39112051569
1.33592511871
1.39650787334
1.34206749579
1.33740790887
1.40170729357
1.34452226007
1.32157581738
1.33292799829
1.40352484372
1.34485062692
1.32159769232
1.31198419452
1.37383630113
1.32492764004
1.3099319914
1.30522909106
1.30367953634
1.32124706695
1.32617723553
1.38707627027
1.3318218726
1.39112051722
1.33733374254
1.33592511629
1.39650787327
1.34206751325
1.32000960322
1.33740792096
1.40170729294
1.34452226055
1.32157582545
1.31229351223
1.40352478663
1.34485062627
1.32159769281
1.31198418193
1.30761673693
1.32492764555
1.30993199227
1.30522909074
1.30367955416
1.30318035274
1.31737852968
1.32124704545
1.38514455173
1.32617723687
1.38707625884
1.3330822667
1.33182187079
1.39112051845
1.33733374636
1.31640885559
1.33592512414
1.39650787332
1.34206751314
1.32000960759
1.31121788367
1.40170724602
1.34452225994
1.32157582581
1.3122935056
1.30832898944
1.34485058789
1.32159769238
1.31198418222
1.30761672899
1.30538160863
1.30993197758
1.30522909137
1.30367955395
1.30318036501
1.30297550436
1.31439445871
1.31737850385
1.38467559907
1.32124704694
1.38514453186
1.33011823373
1.32617723474
1.38707625957
1.33308226058
1.31215983235
1.33182188033
1.39112051709
1.33733374673
1.316408854
1.30860196317
1.39650785181
1.34206751322
1.32000960774
1.31121787654
1.30768345967
1.34452222695
1.32157582532
1.31229350575
1.30832898156
1.30637668712
1.32159768468
1.31198418201
1.30761672916
1.30538160698
1.30421088864
1.30522906347
1.30367955442
1.30318036495
1.30297551598
1.30289128511
1.31204684605
1.31439443103
1.38477336824
1.31737850544
1.38467557403
1.32850588264
1.32124704462
1.38514453225
1.33011822067
1.30850431341
1.32617725246
1.38707625865
1.33308226068
1.31215982554
1.30487046673
1.39112051632
1.33733374625
1.31640885404
1.30860195562
1.30598413184
1.34206749627
1.32000960755
1.31121787662
1.30768345004
1.30609072652
1.32157581764
1.31229350551
1.30832898163
1.30637668055
1.30521415338
1.3119841949
1.30761672902
1.30538160703
1.30421088521
1.30359062486
1.3036795365
1.3031803654
1.30297551599
1.30289129393
1.30284148845
1.31022007222
1.31204681756
1.38509820028
1.31439443251
1.3847733424
1.32772176906
1.31737850323
1.38467557422
1.32850586454
1.30580668366
1.32124706594
1.38514453161
1.33011822048
1.3085043022
1.30115834658
1.38707627114
1.33308226042
1.31215982539
1.30487045692
1.30309606433
1.33733374311
1.31640885388
1.30860195557
1.30598412134
1.30515339696
1.3200096037
1.31121787649
1.30768345007
1.3060907179
1.30518848658
1.31229351279
1.30832898146
1.30637668057
1.30521414829
1.30438326536
1.3076167368
1.30538160691
1.30421088514
1.30359062038
1.30326958722
1.30318035309
1.30297551611
1.30289129398
1.30284149542
1.30280220911
1.3087133748
1.31022004327
1.38558213262
1.31204681898
1.38509817317
1.32768477418
1.31439443039
1.38477334236
1.32772174894
1.30391737893
1.31737852945
1.3846755737
1.32850586394
1.30580666855
1.29792373875
1.3851445521
1.33011822051
1.30850430184
1.30115833446
1.29984454998
1.33308226743
1.31215982537
1.30487045664
1.30309605244
1.30322487875
1.31640885621
1.30860195553
1.30598412124
1.30515338659
1.30477146767
1.31121788422
1.30768344999
1.30609071788
1.30518847951
1.30461479091
1.30832898987
1.30637668047
1.3052141483
1.30438326171
1.30380941646
1.30538160829
1.30421088523
1.30359062018
1.30326958203
1.30309639612
1.30297550442
1.30289129398
1.30284149553
1.30280221509
1.30276986726
1.30745691054
1.30871334586
1.38597661635
1.31022004457
1.38558210537
1.32784080306
1.31204681705
1.38509817277
1.32768475229
1.30279537678
1.31439445813
1.38477334204
1.32772174816
1.30391736188
1.29526690052
1.38467559947
1.32850586434
1.30580666774
1.29792372422
1.29665630817
1.33011823422
1.30850430209
1.30115833399
1.29984453677
1.30070019935
1.31215983293
1.30487045678
1.3030960521
1.30322486621
1.30371461166
1.30860196371
1.30598412127
1.3051533864
1.30477145845
1.3044608583
1.30768346009
1.30609071787
1.30518847946
1.30461478394
1.30415879376
1.30637668745
1.30521414823
1.30438326175
1.30380941292
1.30344728864
1.30421088856
1.30359062041
1.30326958171
1.30309639071
1.30299170797
1.30289128521
1.30284149546
1.30280221525
1.3027698725
1.30274462873
1.30637498389
1.3074568817
1.38634508366
1.30871334711
1.3859765891
1.32820664484
1.31022004286
1.38558210468
1.3278407809
1.30216651789
1.31204684582
1.3850981728
1.32768475101
1.30279535814
1.29322828423
1.38477336832
1.32772174877
1.30391736087
1.29526688471
1.2937505031
1.32850588316
1.30580666838
1.2979237233
1.29665629349
1.29796267389
1.30850431395
1.3011583344
1.29984453623
1.30070018578
1.30196228396
1.30487046724
1.30309605232
1.30322486582
1.30371460006
1.30396849479
1.30598413233
1.3051533865
1.30477145821
1.30446085023
1.30414921589
1.30609072686
1.30518847947
1.30461478373
1.30415878743
1.30376311779
1.3052141536
1.30438326168
1.30380941288
1.3034472845
1.30322723145
1.3035906249
1.30326958205
1.30309639032
1.30299170294
1.30291992628
1.30284148859
1.30280221513
1.30276987269
1.30274463318
1.30272587584
1.30542471814
1.30637495528
1.38663052823
1.30745688296
1.38634505652
1.32874820168
1.30871334564
1.38597658816
1.32820662229
1.30188910605
1.31022007192
1.3855821049
1.32784077938
1.30216649863
1.29172463606
1.38509820033
1.32768475198
1.30279535656
1.29322826724
1.29122757025
1.32772176943
1.30391736178
1.29526688358
1.29375048766
1.29524774343
1.3058066841
1.29792372409
1.29665629251
1.29796265924
1.29986712342
1.30115834708
1.29984453674
1.30070018516
1.30196227095
1.30293864495
1.30309606474
1.30322486615
1.30371459961
1.30396848504
1.30396688481
1.3051533973
1.30477145838
1.30446084992
1.3041492086
1.30387781681
1.30518848688
1.30461478391
1.30415878715
1.30376311213
1.30346254468
1.30438326543
1.30380941289
1.30344728435
1.30322722688
1.3030894781
1.30326958732
1.30309639074
1.3029917025
1.30291992205
1.3028667349
1.30280220922
1.30276987252
1.30274463337
1.3027258794
1.3027121491
1.30457178487
1.30542468971
1.38683967524
1.30637495644
1.3866305014
1.32928354193
1.30745688174
1.38634505539
1.32874817913
1.30192642202
1.30871337495
1.3859765886
1.32820662035
1.3018890864
1.29062914485
1.38558213226
1.32784078067
1.30216649678
1.2917246185
1.2891263632
1.32768477431
1.30279535795
1.29322826555
1.291227554
1.29267743392
1.30391737938
1.29526688465
1.29375048647
1.29524772823
1.29761527514
1.29792373918
1.29665629338
1.2979626582
1.29986710936
1.30150033456
1.29984455047
1.30070018577
1.30196227024
1.30293863295
1.30347847184
1.30322487911
1.30371460001
1.30396848456
1.30396687615
1.30382943632
1.30477146791
1.30446085018
1.3041492082
1.3038778097
1.30362103151
1.30461479118
1.3041587874
1.30376311184
1.30346253923
1.30325590109
1.3038094165
1.30344728448
1.30322722661
1.3030894735
1.30299699929
1.30309639626
1.30299170296
1.30291992159
1.30286673172
1.30282621079
1.30276986737
1.30274463317
1.30272587961
1.30271215174
1.30270192772
1.30380905185
1.3045717568
1.38698805525
1.30542469074
1.38683964857
1.3298149706
1.30637495554
1.38663050024
1.3292835196
1.30207241437
1.30745691085
1.38634505605
1.32874817695
1.30192640236
1.28991734498
1.38597661599
1.32820662193
1.30188908401
1.29062912702
1.28739189333
1.32784080317
1.30216649848
1.29172461651
1.28912634654
1.29035448055
1.30279537702
1.29322826708
1.29122755227
1.2926774181
1.29531924151
1.29526690097
1.29375048764
1.29524772696
1.29761526046
1.29981746096
1.2966563085
1.29796265916
1.29986710826
1.30150032151
1.30259781325
1.30070019979
1.30196227095
1.30293863212
1.30347846125
1.30363427432
1.30371461198
1.30396848502
1.30396687556
1.30382942844
1.30364976389
1.30446085846
1.30414920855
1.30387780916
1.3036210252
1.30339468751
1.30415879398
1.30376311212
1.30346253885
1.30325589589
1.30311682389
1.30344728868
1.30322722686
1.30308947314
1.30299699511
1.3029303665
1.30299170813
1.30291992206
1.30286673126
1.30282620873
1.30279511259
1.3027446288
1.30272587941
1.30271215195
1.30270192951
1.30269407123
1.3031161963
1.30380902398
1.38710543242
1.30457175729
1.38698802892
1.33032966857
1.30542469
1.38683964741
1.32981494837
1.3023697294
1.30637498444
1.38663050117
1.32928351719
1.30207239482
1.28945968058
1.38634508321
1.32874817887
1.30192639979
1.28991732705
1.28602211953
1.32820664478
1.30188908609
1.29062912448
1.28739187651
1.28828973375
1.30216651811
1.2917246184
1.28912634448
1.29035446443
1.29310259422
1.29322828454
1.29122755387
1.29267741631
1.29531922628
1.29797340983
1.29375050355
1.29524772822
1.29761525909
1.29981744718
1.30146119488
1.29796267418
1.29986710929
1.30150032032
1.3025978015
1.30319210308
1.3019622843
1.30293863293
1.30347846034
1.30363426528
1.30359086072
1.30396849508
1.30396687612
1.30382942774
1.3036497564
1.30347392048
1.304149216
1.30387780967
1.30362102465
1.30339468188
1.30322257735
1.30376311792
1.30346253922
1.30325589544
1.30311681922
1.30302065725
1.3032272315
1.30308947349
1.30299699467
1.30293036301
1.30288003908
1.30291992643
1.30286673174
1.3028262083
1.30279511165
1.30277105942
1.30272587588
1.30271215175
1.30270192969
1.30269407225
1.30268785023
1.30248580176
1.30311616882
1.38717685164
1.30380902428
1.38710540636
1.33083030687
1.3045717568
1.38698802739
1.33032964673
1.30275006435
1.30542471863
1.38683964855
1.32981494584
1.30236970996
1.28920870586
1.38663052803
1.32928351938
1.30207239188
1.28945966286
1.28494717659
1.32874820163
1.3019264022
1.28991732418
1.28602210262
1.28650927513
1.30188910597
1.29062912681
1.28739187392
1.28828971755
1.29101113814
1.29172463636
1.28912634648
1.29035446232
1.2931025787
1.29607911762
1.2912275705
1.29267741799
1.29531922443
1.29797339547
1.30011565826
1.29524774384
1.29761526046
1.29981744571
1.30146118232
1.30250016502
1.29986712366
1.30150032145
1.30259780024
1.30319209266
1.30341203634
1.30293864517
1.30347846123
1.30363426432
1.30359085274
1.30346949162
1.30396688505
1.30382942842
1.30364975549
1.30347391382
1.30330484131
1.30387781688
1.30362102518
1.30339468128
1.30322257244
1.30309906243
1.30346254479
1.30325589588
1.30311681872
1.30302065336
1.30295111084
1.30308947816
1.30299699509
1.30293036253
1.30288003646
1.30284106136
1.30286673503
1.30282620875
1.30279511126
1.30277105949
1.3027521843
1.30271214908
1.30270192951
1.3026940724
1.30268785059
1.30268282102
1.3019080431
1.30248577451
1.387221696
1.30311616889
1.38717682603
1.33128383377
1.30380902398
1.38710540456
1.33083028531
1.30317727247
1.3045717852
1.38698802884
1.33032964377
1.30275004541
1.2891498494
1.38683967514
1.32981494834
1.30236970677
1.28920868824
1.28411978541
1.32928354192
1.30207239464
1.28945965954
1.28494715996
1.28498699618
1.30192642212
1.28991732693
1.28602209966
1.28650925889
1.28909380359
1.290629145
1.28739187634
1.2882897149
1.29101112257
1.29419241799
1.28912636353
1.2903544644
1.29310257651
1.29607910293
1.29864282924
1.29267743417
1.29531922618
1.29797339355
1.3001156451
1.30160710471
1.29761527547
1.29981744718
1.30146118076
1.30250015384
1.3030471421
1.30150033476
1.30259780145
1.30319209134
1.30341202759
1.30341301554
1.30347847194
1.30363426525
1.30359085168
1.30346948462
1.303340039
1.3038294365
1.30364975638
1.30347391284
1.3033048358
1.30316588277
1.30362103152
1.30339468186
1.30322257178
1.30309905845
1.30301044383
1.3032559012
1.30311681921
1.30302065285
1.30295110794
1.30289873437
1.30299699935
1.302930363
1.30288003595
1.30284105969
1.30281041453
1.3028262109
1.30279511167
1.30277105916
1.30275218527
1.30273710248
1.30270192769
1.30269407223
1.30268785071
1.30268282084
1.30267869887
1.30137523859
1.30190801629
1.38723648061
1.30248577437
1.3872216706
1.33170980031
1.30311616894
1.38717682403
1.3312838127
1.30360649991
1.30380905211
1.38710540621
1.33083028209
1.30317725381
1.28919419202
1.38698805518
1.33032964664
1.30275004171
1.2891498324
1.28351079527
1.32981497067
1.30236971
1.28920868469
1.28411976898
1.28370330316
1.30207241438
1.2894596627
1.28494715652
1.28498698028
1.28735742799
1.28991734518
1.28602210255
1.28650925589
1.28909378804
1.29237186014
1.28739189347
1.2882897174
1.29101111989
1.29419240325
1.29709499634
1.29035448089
1.29310257867
1.29607910067
1.29864281571
1.3005589866
1.29531924173
1.29797339539
1.30011564312
1.30160709298
1.30251182044
1.29981746122
1.30146118232
1.3025001522
1.30304713238
1.30326275742
1.30259781341
1.30319209264
1.30341202628
1.30341300808
1.30332977235
1.30363427432
1.3035908527
1.30346948348
1.30334003302
1.30321258155
1.30364976405
1.30347391381
1.30330483485
1.30316587843
1.30306107431
1.30339468752
1.30322257242
1.30309905776
1.30301044096
1.30294523373
1.30311682399
1.30302065337
1.30295110742
1.30289873252
1.30285814155
1.30293036656
1.30288003646
1.30284105918
1.30281041381
1.30278599375
1.30279511268
1.30277105951
1.30275218501
1.30273710419
1.30272483973
1.30269407118
1.30268785058
1.30268282094
1.30267869831
1.30267528605
1.30088634266
1.3013752121
1.38723256507
1.30190801572
1.38723645584
1.33209903544
1.30248577459
1.38722166851
1.3317097795
1.3040572455
1.30311619665
1.38717682601
1.33128380918
1.3036064818
1.2893121767
1.38710543227
1.33083028521
1.30317724984
1.28919417528
1.28308125716
1.33032966861
1.30275004537
1.28914982828
1.28351077941
1.28262926472
1.30236972959
1.28920868824
1.28411976529
1.28370328755
1.28581036626
1.28945968071
1.28494715985
1.28498697676
1.28735741275
1.29064274175
1.28602211978
1.28650925884
1.289093785
1.29237184544
1.29552764442
1.28828973391
1.29101112244
1.29419240052
1.29709498271
1.29939373115
1.2931025945
1.2960791029
1.29864281339
1.30055897451
1.30183010583
1.29797341003
1.30011564503
1.30160709095
1.3025118103
1.30297718541
1.30146119504
1.30250015384
1.30304713067
1.3032627493
1.30327968796
1.30319210328
1.30341202758
1.30341300671
1.3033297662
1.30322836169
1.3035908607
1.30346948459
1.30334003176
1.30321257691
1.30310195181
1.30347392061
1.3033048358
1.3031658775
1.30306107125
1.30298355169
1.30322257735
1.30309905843
1.30301044027
1.30294523205
1.30289576378
1.30302065735
1.30295110794
1.30289873203
1.30285814075
1.30282605273
1.30288003913
1.3028410597
1.30281041332
1.30278599391
1.30276626009
1.30277105949
1.3027521853
1.302737104
1.30272484203
1.30271472414
1.30268785017
1.30268282083
1.30267869837
1.30267528522
1.30267243576
1.30043481541
1.30088631652
1.38721986829
1.30137521129
1.38723254049
1.3324577676
1.30190801621
1.3872364534
1.33209901518
1.30450250329
1.30248580203
1.38722167067
1.33170977584
1.3040572277
1.28952491202
1.38717685163
1.33128381262
1.30360647749
1.28931216056
1.2827788253
1.33083030688
1.30317725377
1.2891941709
1.28308124168
1.28175394257
1.30275006442
1.28914983232
1.28351077517
1.28262924966
1.28443508363
1.28920870608
1.28411976901
1.28370328374
1.28581035137
1.28903247841
1.28494717672
1.28498698015
1.28735740922
1.29064272731
1.29397233866
1.28650927542
1.289093788
1.29237184236
1.29552763084
1.29815469044
1.2910111383
1.29419240313
1.29709497996
1.29939371893
1.3010230226
1.29607911786
1.29864281569
1.30055897215
1.3018300954
1.30257492756
1.30011565842
1.30160709293
1.30251180824
1.30297717695
1.30315887082
1.30250016513
1.30304713235
1.30326274759
1.30327968153
1.30321762849
1.30341203655
1.30341300807
1.30332976479
1.3032283569
1.30312892721
1.30346949162
1.30334003298
1.30321257573
1.30310194859
1.30301532694
1.3033048414
1.30316587843
1.30306107035
1.30298354997
1.30292556428
1.30309906244
1.30301044094
1.30294523142
1.30289576329
1.30285725319
1.30295111092
1.30289873252
1.3028581403
1.3028260529
1.30280028179
1.30284106142
1.30281041382
1.30278599347
1.30276626104
1.3027500933
1.30275218434
1.30273710421
1.30272484192
1.30271472684
1.30270628409
1.30268282096
1.30267869829
1.30267528524
1.30267243478
1.302670037
1.30001573091
1.30043478961
1.3871918294
1.30088631558
1.38721984409
1.33279198189
1.301375212
1.38723253784
1.33245774775
1.30494490005
1.30190804325
1.3872364558
1.3320990112
1.30450248611
1.28977669479
1.38722169603
1.3317097795
1.30405722319
1.28952489625
1.28260553999
1.3312838338
1.30360648177
1.28931215575
1.28277881053
1.2810334496
1.30317727254
1.28919417522
1.2830812371
1.28175392798
1.28323817111
1.28914984951
1.28351077936
1.28262924535
1.28443506929
1.28753931187
1.28411978568
1.28370328755
1.28581034754
1.28903246433
1.29246433106
1.28498699632
1.28735741264
1.29064272377
1.2939723253
1.29687080819
1.28909380384
1.2923718454
1.29552762775
1.29815467826
1.30011886792
1.29419241815
1.29709498261
1.29939371616
1.30102301203
1.30206156296
1.29864282939
1.30055897449
1.30183009302
1.30257491891
1.30294645885
1.30160710486
1.30251181025
1.30297717491
1.30315886407
1.30317695867
1.30304714209
1.30326274928
1.30327967988
1.30321762365
1.30313568206
1.3034130157
1.30332976619
1.30322835544
1.30312892397
1.30304027214
1.30334003898
1.30321257689
1.30310194747
1.30301532519
1.3029496323
1.30316588286
1.30306107125
1.30298354914
1.30292556388
1.3028812139
1.30301044385
1.30294523204
1.30289576274
1.3028572538
1.30282666249
1.30289873444
1.30285814076
1.30282605252
1.30280028283
1.30277928554
1.30281041458
1.30278599392
1.30276626066
1.3027500949
1.30273668313
1.30273710251
1.30272484205
1.3027147268
1.30270628703
1.30269917904
1.30267869881
1.30267528519
1.30267243477
1.30267003595
1.30266800462
1.29962505973
1.3000157056
1.38715017321
1.3004347884
1.3871918057
1.3330939071
1.30088631654
1.3872198413
1.33279196256
1.30537691807
1.30137523872
1.38723254041
1.33245774349
1.30494488337
1.29007294827
1.38723648061
1.33209901512
1.30450248125
1.28977667982
1.28252115614
1.33170980037
1.30405722775
1.28952489119
1.28260552561
1.28046184821
1.30360649996
1.28931216048
1.28277880551
1.28103343576
1.28219172375
1.28919419215
1.28308124168
1.2817539233
1.28323815728
1.28617840837
1.28351079539
1.28262924959
1.284435065
1.28753929833
1.29101456068
1.28370330345
1.28581035139
1.28903246048
1.29246431804
1.29557583188
1.28735742815
1.2906427272
1.29397232179
1.2968707962
1.29913901645
1.29237186037
1.2955276308
1.29815467517
1.30011885739
1.30145217088
1.29709499648
1.29939371884
1.3010230093
1.30206155422
1.30264909195
1.30055898671
1.30183009536
1.30257491657
1.30294645203
1.30308530716
1.30251182054
1.30297717691
1.30315886209
1.30317695374
1.30312650947
1.30326275741
1.30327968148
1.30321762205
1.30313567886
1.30305611806
1.30332977245
1.3032283569
1.30312892264
1.30304027048
1.30296930275
1.30321258154
1.30310194856
1.30301532419
1.30294963199
1.3028997562
1.30306107436
1.30298354997
1.30292556317
1.30288121473
1.30284651906
1.30294523376
1.30289576328
1.30285725335
1.30282666407
1.30280195197
1.3028581416
1.30282605291
1.30280028252
1.30277928729
1.30276194951
1.30278599379
1.30276626105
1.3027500946
1.30273668522
1.30272544143
1.30272483974
1.30271472685
1.30270628706
1.30269918207
1.30269315527
1.30267528599
1.30267243475
1.30267003592
1.30266800358
1.30266627307
1.29926140662
1.29962503478
1.38709942469
1.30001570405
1.3871501501
1.33337069243
1.30043478958
1.38719180264
1.33309388809
1.30578743323
1.30088634287
1.38721984406
1.33279195813
1.30537690201
1.29038621805
1.38723256505
1.33245774767
1.3049448782
1.29007293384
1.28252932087
1.33209903549
1.30450248611
1.28977667436
1.28252114279
1.28000738288
1.3040572456
1.28952489626
1.28260552034
1.28046183489
1.28129111333
1.28931217677
1.28277881048
1.28103343064
1.28219171068
1.28494018218
1.28308125735
1.28175392797
1.28323815263
1.28617839538
1.28964272457
1.28262926486
1.28443506923
1.28753929406
1.29101454817
1.29428725337
1.28581036653
1.28903246434
1.29246431423
1.29557582021
1.29810990824
1.2906427419
1.29397232521
1.29687079274
1.2991390061
1.30075904861
1.29552764458
1.29815467822
1.30011885436
1.30145216219
1.30227083786
1.29939373128
1.30102301196
1.30206155156
1.30264908513
1.30293091213
1.30183010587
1.30257491888
1.30294644978
1.30308530219
1.3030957588
1.3029771855
1.30315886405
1.30317695193
1.3031265063
1.30305867538
1.30327968788
1.30321762361
1.30313567729
1.3030561165
1.30298450938
1.30322836177
1.30312892396
1.30304026931
1.30296930262
1.30291455989
1.30310195179
1.30301532517
1.30294963114
1.30289975723
1.30286129695
1.30298355175
1.30292556388
1.30288121417
1.30284652097
1.3028188376
1.30289576381
1.3028572538
1.30282666374
1.30280195433
1.30278168818
1.30282605278
1.30280028284
1.30277928706
1.30276195179
1.30274746319
1.30276626012
1.30275009491
1.30273668501
1.30272544386
1.30271593448
1.30271472415
1.30270628703
1.30269918215
1.30269315826
1.30268801958
1.3026724357
1.30267003592
1.30266800354
1.3026662721
1.3026647911
1.29891995401
1.29926138214
1.38704141574
1.299625033
1.38709940191
1.33362150179
1.30001570549
1.38715014678
1.33337067416
1.30618538902
1.30043481557
1.38719180573
1.33309388349
1.30578741753
1.29070901056
1.38721986831
1.33279196248
1.30537689665
1.29038620425
1.28257637715
1.33245776762
1.30494488336
1.29007292808
1.28252930792
1.27966518675
1.30450250333
1.28977667979
1.28252113707
1.28000737048
1.280515325
1.28952491214
1.28260552566
1.2804618295
1.2812911009
1.28382519324
1.28277882539
1.28103343568
1.28219170561
1.28494016992
1.28835277264
1.28175394279
1.2832381573
1.28617839077
1.28964271261
1.29302572667
1.28443508379
1.28753929826
1.29101454398
1.29428724216
1.2970495424
1.28903247866
1.29246431805
1.29557581646
1.29810989819
1.29999924162
1.29397233881
1.29687079611
1.29913900274
1.3007590401
1.30181678008
1.29815469057
1.30011885735
1.30145215927
1.30227083113
1.30271655334
1.30102302269
1.30206155416
1.30264908261
1.30293090726
1.30302890608
1.30257492759
1.30294645199
1.30308530009
1.30309575571
1.30305165502
1.30315887092
1.30317695374
1.30312650463
1.30305867399
1.30299382121
1.30321762846
1.30313567881
1.30305611516
1.30298450945
1.30292654582
1.30312892725
1.30304027048
1.30296930164
1.30291456118
1.30287251852
1.30301532695
1.30294963198
1.30289975656
1.30286129916
1.3028310599
1.30292556431
1.30288121474
1.30284652056
1.30281884038
1.30279636574
1.30285725322
1.30282666408
1.30280195413
1.30278169113
1.30276483993
1.30280028182
1.3027792873
1.30276195165
1.30274746583
1.30273523188
1.30275009334
1.30273668523
1.30272544374
1.30271593711
1.30270783685
1.30270628408
1.30269918207
1.30269315839
1.30268802243
1.30268362176
1.30267003695
1.30266800356
1.30266627204
1.30266479021
1.30266351817
1.29860164898
1.29891992995
1.38697678793
1.29926138022
1.38704139358
1.33385016348
1.29962503463
1.38709939836
1.33362148387
1.3065622113
1.30001573101
1.38715015008
1.33337066933
1.30618537418
1.29104844827
1.38719182947
1.33309388807
1.30578741197
1.29070899728
1.28267742276
1.33279198193
1.30537690199
1.29038619828
1.28257636487
1.27940925615
1.30494490008
1.29007293381
1.28252930199
1.27966517502
1.27985528791
1.28977669487
1.28252114279
1.28000736469
1.28051531344
1.28282291634
1.28260554015
1.28046183492
1.28129109555
1.28382518168
1.28715050516
1.2810334497
1.28219171063
1.28494016493
1.28835276137
1.29180310108
1.28323817133
1.28617839539
1.28964270811
1.29302571598
1.29597642708
1.28753931204
1.29101454811
1.29428723807
1.29704953275
1.29918713316
1.29246433125
1.2955758202
1.29810989456
1.2999992334
1.30129528182
1.29687080833
1.29913900603
1.30075903689
1.30181677355
1.30244217633
1.30011886798
1.30145216215
1.30227082837
1.30271654863
1.30291980567
1.30206156303
1.30264908509
1.30293090494
1.30302890314
1.30302953959
1.30294645883
1.30308530215
1.30309575386
1.30305165376
1.30299451764
1.30317695879
1.30312650629
1.30305867246
1.30299382143
1.30293564581
1.30313568203
1.30305611648
1.30298450834
1.30292654739
1.30288137641
1.30304027219
1.30296930262
1.30291456042
1.30287252105
1.30283987037
1.3029496323
1.30289975723
1.30286129869
1.30283106305
1.30280683126
1.30288121394
1.30284652098
1.30281884014
1.30279636916
1.30277783196
1.30282666252
1.30280195433
1.30278169106
1.30276484326
1.30275065654
1.30277928558
1.3027619518
1.30274746577
1.30273523472
1.30272481411
1.30273668315
1.30272544387
1.30271593706
1.30270783954
1.30270089982
1.30269917904
1.30269315825
1.30268802259
1.3026836244
1.30267984304
1.30266800458
1.30266627207
1.30266479016
1.30266351738
1.30266242172
1.29830256828
1.29860162534
1.38691121286
1.2989199278
1.38697676616
1.3340576758
1.29926138212
1.38704138992
1.3338501463
1.30692215407
1.2996250598
1.3870994018
1.33362147884
1.30656219686
1.29138577294
1.38715017327
1.33337067411
1.30618536838
1.29104843597
1.28282802183
1.33309390715
1.30578741756
1.29070899106
1.28267741131
1.27922306693
1.3053769181
1.2903862042
1.28257635868
1.27940924521
1.27930188658
1.29007294833
1.28252930792
1.27966516893
1.2798552771
1.28192610514
1.28252115622
1.28000737045
1.28051530772
1.28282290562
1.28603633452
1.2804618484
1.28129110095
1.2838251764
1.28715049459
1.29062877888
1.28219172387
1.28494016986
1.28835275653
1.29180309104
1.29490523653
1.28617840859
1.28964271263
1.29302571161
1.29597641793
1.29833694882
1.29101456085
1.2942872421
1.29704952883
1.29918712531
1.30071541541
1.29557583204
1.29810989818
1.29999922995
1.30129527557
1.30211009979
1.29913901656
1.30075904003
1.30181677055
1.30244217183
1.30276820481
1.30145217092
1.30227083108
1.3027165461
1.30291980295
1.30298255484
1.30264909199
1.30293090723
1.30302890107
1.3030295385
1.30298947127
1.30308530712
1.30309575565
1.30305165216
1.3029945182
1.30294101219
1.30312650952
1.30305867397
1.30299382021
1.30293564756
1.30288838416
1.30305611806
1.30298450943
1.30292654655
1.30288137927
1.30284640486
1.30296930277
1.30291456118
1.30287252054
1.3028398739
1.30281407874
1.30289975622
1.30286129916
1.30283106279
1.30280683511
1.3027870685
1.30284651909
1.30281884038
1.30279636909
1.3027778358
1.30276232117
1.302801952
1.30278169114
1.3027648433
1.30275066006
1.30273858704
1.30276194953
1.30274746584
1.30273523474
1.30272481701
1.30271587717
1.30272544145
1.30271593711
1.30270783957
1.30270090246
1.30269493014
1.30269315526
1.30268802242
1.30268362458
1.30267984543
1.30267658784
1.30266627304
1.3026647902
1.30266351733
1.30266242105
1.3026614753
1.29802094836
1.29830254514
1.38683959307
1.29860162293
1.38691119164
1.33424959691
1.29891992987
1.38697676235
1.33405765901
1.30726292903
1.29926140678
1.38704139358
1.33385014113
1.30692214046
1.29172640365
1.38709942467
1.33362148378
1.30656219085
1.29138576108
1.28299944913
1.3333706925
1.30618537416
1.2910484295
1.28282801139
1.27911144764
1.30578743328
1.29070899728
1.28267740479
1.27922305669
1.27883132999
1.2903862181
1.28257636486
1.27940923886
1.27930187668
1.28113464279
1.28252932098
1.27966517502
1.27985527108
1.2819260952
1.28500521573
1.28000738297
1.28051531342
1.28282290002
1.28603632477
1.28951080479
1.28129111353
1.28382518171
1.28715048948
1.29062876951
1.29384667153
1.28494018232
1.28835276133
1.29180308637
1.29490522796
1.29746238127
1.28964272476
1.29302571598
1.29597641376
1.29833694142
1.30008630192
1.29428725354
1.29704953271
1.29918712161
1.30071540952
1.30172437613
1.29810990835
1.29999923338
1.30129527237
1.30211009558
1.30257293167
1.3007590487
1.3018167735
1.30244216911
1.30276820234
1.30290724705
1.30227083785
1.30271654859
1.30291980072
1.30298255402
1.30297419318
1.30293091218
1.30302890312
1.30302953679
1.30298947196
1.30294092337
1.30309575873
1.30305165372
1.30299451685
1.30294101433
1.30289366599
1.30305867541
1.30299382142
1.30293564665
1.30288838727
1.30285137255
1.30298450937
1.30292654738
1.30288137872
1.30284640877
1.3028190891
1.30291455991
1.30287252105
1.30283987363
1.30281408301
1.30279332243
1.30286129697
1.30283106305
1.30280683506
1.30278707279
1.30277067577
1.30281883763
1.30279636917
1.30277783588
1.30276232522
1.30274916805
1.30278168821
1.30276484326
1.30275066021
1.30273859059
1.30272822273
1.30274746321
1.30273523472
1.3027248171
1.30271588
1.30270816644
1.30271593449
1.30270783954
1.30270090255
1.30269493264
1.30268977512
1.30268801957
1.30268362439
1.30267984562
1.30267658995
1.30267377809
1.30266479107
1.30266351737
1.30266242101
1.30266147473
1.3026606571
1.29775535863
1.29802092568
1.38676460067
1.29830254254
1.38683957243
1.33442027288
1.2986016252
1.38691118763
1.33424958078
1.30758685626
1.29891995412
1.38697676615
1.33405765371
1.30726291592
1.29206228482
1.38704141583
1.33385014624
1.30692213432
1.29172639273
1.28320226443
1.33362150179
1.30656219682
1.29138575442
1.28299943915
1.27904450722
1.30618538906
1.29104843593
1.28282800462
1.27911143852
1.27844825848
1.29070901061
1.28267741135
1.27922305009
1.2788313208
1.28042814102
1.28257637719
1.27940924517
1.2793018704
1.2811346338
1.28406301644
1.27966518689
1.27985527714
1.28192608933
1.28500520676
1.28844825424
1.28051532511
1.28282290558
1.28603631939
1.2895107962
1.29281252065
1.28382519344
1.28715049463
1.29062876461
1.2938466636
1.29657335897
1.28835277279
1.29180309098
1.29490522355
1.29746237441
1.29941840043
1.29302572683