/*--------------------------------*- C++ -*----------------------------------*\
| =========                 |                                                 |
| \\      /  F ield         | OpenFOAM: The Open Source CFD Toolbox           |
|  \\    /   O peration     | Version:  2206                                  |
|   \\  /    A nd           | Website:  www.openfoam.com                      |
|    \\/     M anipulation  |                                                 |
\*---------------------------------------------------------------------------*/
FoamFile
{
    version     2.0;
    format      ascii;
    arch        "LSB;label=64;scalar=64";
    class       volScalarField;
    location    "3.7/water";
    object      alpha.gas;
}
// * * * * * * * * * * * * * * * * * * * * * * * * * * * * * * * * * * * * * //

dimensions      [0 0 0 0 0 0 0];

internalField   nonuniform List<scalar> 
23300
(
1e-15
1e-15
1e-15
1e-15
1e-15
1e-15
1e-15
1e-15
1e-15
1e-15
1e-15
1e-15
1e-15
1e-15
1e-15
1e-15
1e-15
1e-15
1e-15
1e-15
1e-15
1e-15
1e-15
1e-15
1e-15
1e-15
1e-15
1e-15
1e-15
1e-15
1e-15
1e-15
1e-15
1e-15
1e-15
1e-15
1e-15
1e-15
1e-15
1e-15
1e-15
1e-15
1e-15
1e-15
1e-15
1e-15
1e-15
1e-15
1e-15
1e-15
1e-15
1e-15
1e-15
1e-15
1e-15
1e-15
1e-15
1e-15
1e-15
1e-15
1e-15
1e-15
1e-15
1e-15
1e-15
1e-15
1e-15
1e-15
1e-15
1e-15
1e-15
1e-15
1e-15
1e-15
1e-15
1e-15
1e-15
1e-15
1e-15
1e-15
1e-15
1e-15
1e-15
1e-15
1e-15
1e-15
1e-15
1e-15
1e-15
1e-15
1e-15
1e-15
1e-15
1e-15
1e-15
1e-15
1e-15
1e-15
1e-15
1e-15
1e-15
1e-15
1e-15
1e-15
1e-15
1e-15
1e-15
1e-15
1e-15
1e-15
1e-15
1e-15
1e-15
1e-15
1e-15
1e-15
1e-15
1e-15
1e-15
1e-15
1e-15
1e-15
1e-15
1e-15
1e-15
1e-15
1e-15
1e-15
1e-15
1e-15
1e-15
1e-15
1e-15
1e-15
1e-15
1e-15
1e-15
1e-15
1e-15
1e-15
1e-15
1e-15
1e-15
1e-15
1e-15
1e-15
1e-15
1e-15
1e-15
1e-15
1e-15
1e-15
1e-15
1e-15
1e-15
1e-15
1e-15
1e-15
1e-15
1e-15
1e-15
1e-15
1e-15
1e-15
1e-15
1e-15
1e-15
1e-15
1e-15
1e-15
1e-15
1e-15
1e-15
1e-15
1e-15
1e-15
1e-15
1e-15
1e-15
1e-15
1e-15
1e-15
1e-15
1e-15
1e-15
1e-15
1e-15
1e-15
1e-15
1e-15
1e-15
1e-15
1e-15
1e-15
1e-15
1e-15
1e-15
1e-15
1e-15
1e-15
1e-15
1e-15
1e-15
1e-15
1e-15
1e-15
1e-15
1e-15
1e-15
1e-15
1e-15
1e-15
1e-15
1e-15
1e-15
1e-15
1e-15
1e-15
1e-15
1e-15
1e-15
1e-15
1e-15
1e-15
1e-15
1e-15
1e-15
1e-15
1e-15
1e-15
1e-15
1e-15
1e-15
1e-15
1e-15
1e-15
1e-15
1e-15
1e-15
1e-15
1e-15
1e-15
1e-15
1e-15
1e-15
1e-15
1e-15
1e-15
1e-15
1e-15
1e-15
1e-15
1e-15
1e-15
1e-15
1e-15
1e-15
1e-15
1e-15
1e-15
1e-15
1e-15
1e-15
1e-15
1e-15
1e-15
1e-15
1e-15
1e-15
1e-15
1e-15
1e-15
1e-15
1e-15
1e-15
1e-15
1e-15
1e-15
1e-15
1e-15
1e-15
1e-15
1e-15
1e-15
1e-15
1e-15
1e-15
1e-15
1e-15
1e-15
1e-15
1e-15
1e-15
1e-15
1e-15
1e-15
1e-15
1e-15
1e-15
1e-15
1e-15
1e-15
1e-15
1e-15
1e-15
1e-15
1e-15
1e-15
1e-15
1e-15
1e-15
1e-15
1e-15
1e-15
1e-15
1e-15
1e-15
1e-15
1e-15
1e-15
1e-15
1e-15
1e-15
1e-15
1e-15
1e-15
1e-15
1e-15
1e-15
1e-15
1e-15
1e-15
1e-15
1e-15
1e-15
1e-15
1e-15
1e-15
1e-15
1e-15
1e-15
1e-15
1e-15
1e-15
1e-15
1e-15
1e-15
1e-15
1e-15
1e-15
1e-15
1e-15
1e-15
1e-15
1e-15
1e-15
1e-15
1e-15
1e-15
1e-15
1e-15
1e-15
1e-15
1e-15
1e-15
1e-15
1e-15
1e-15
1e-15
1e-15
1e-15
1e-15
1e-15
1e-15
1e-15
1e-15
1e-15
1e-15
1e-15
1e-15
1e-15
1e-15
1e-15
1e-15
1e-15
1e-15
1e-15
1e-15
1e-15
1e-15
1e-15
1e-15
1e-15
1e-15
1e-15
1e-15
1e-15
1e-15
1e-15
1e-15
1e-15
1e-15
1e-15
1e-15
1e-15
1e-15
1e-15
1e-15
1e-15
1e-15
1e-15
1e-15
1e-15
1e-15
1e-15
1e-15
1e-15
1e-15
1e-15
1e-15
1e-15
1e-15
1e-15
1e-15
1e-15
1e-15
1e-15
1e-15
1e-15
1e-15
1e-15
1e-15
1e-15
1e-15
1e-15
1e-15
1e-15
1e-15
1e-15
1e-15
1e-15
1e-15
1e-15
1e-15
1e-15
1e-15
1e-15
1e-15
1e-15
1e-15
1e-15
1e-15
1e-15
1e-15
1e-15
1e-15
1e-15
1e-15
1e-15
1e-15
1e-15
1e-15
1e-15
1e-15
1e-15
1e-15
1e-15
1e-15
1e-15
1e-15
1e-15
1e-15
1e-15
1e-15
1e-15
1e-15
1e-15
1e-15
1e-15
1e-15
1e-15
1e-15
1e-15
1e-15
1e-15
1e-15
1e-15
1e-15
1e-15
1e-15
1e-15
1e-15
1e-15
1e-15
1e-15
1e-15
1e-15
1e-15
1e-15
1e-15
1e-15
1e-15
1e-15
1e-15
1e-15
1e-15
1e-15
1e-15
1e-15
1e-15
1e-15
1e-15
1e-15
1e-15
1e-15
1e-15
1e-15
1e-15
1e-15
1e-15
1e-15
1e-15
1e-15
1e-15
1e-15
1e-15
1e-15
1e-15
1e-15
1e-15
1e-15
1e-15
1e-15
1e-15
1e-15
1e-15
1e-15
1e-15
1e-15
1e-15
1e-15
1e-15
1e-15
1e-15
1e-15
1e-15
1e-15
1e-15
1e-15
1e-15
1e-15
1e-15
1e-15
1e-15
1e-15
1e-15
1e-15
1e-15
1e-15
1e-15
1.01689125251e-15
1e-15
1e-15
1e-15
1e-15
1e-15
1e-15
1e-15
1e-15
1e-15
1e-15
1e-15
1e-15
1e-15
1e-15
1e-15
1e-15
1e-15
1e-15
1e-15
1e-15
1e-15
1e-15
1e-15
1e-15
1e-15
1e-15
1e-15
1e-15
1e-15
1e-15
1e-15
1e-15
1e-15
1e-15
1e-15
1e-15
1e-15
1e-15
1e-15
1e-15
1e-15
1e-15
1e-15
1e-15
1e-15
1e-15
1e-15
1e-15
1e-15
1e-15
1e-15
1e-15
1e-15
1e-15
1e-15
1e-15
1e-15
1e-15
1e-15
1e-15
1e-15
1e-15
1e-15
1e-15
1e-15
1e-15
1e-15
1e-15
1e-15
1e-15
1e-15
1e-15
1e-15
1e-15
1e-15
1e-15
1e-15
1e-15
1e-15
1e-15
1e-15
1e-15
1e-15
1e-15
1e-15
1e-15
1e-15
1e-15
1e-15
1e-15
1e-15
1e-15
1e-15
1e-15
1e-15
1e-15
1e-15
1e-15
1e-15
1e-15
1e-15
1e-15
1e-15
1e-15
1e-15
1e-15
1e-15
1e-15
1e-15
1e-15
1e-15
1e-15
1e-15
1e-15
1e-15
1e-15
1e-15
1e-15
1e-15
1e-15
1e-15
1e-15
1e-15
1e-15
1e-15
1e-15
1e-15
1e-15
1e-15
1e-15
1e-15
1.02771962902e-15
1.02861971493e-15
1.02783828274e-15
1.0283772526e-15
1e-15
1e-15
1.01298708452e-15
1e-15
1.01220663212e-15
1e-15
1e-15
1e-15
1e-15
1e-15
1e-15
1e-15
1e-15
1e-15
1e-15
1e-15
1e-15
1e-15
1e-15
1e-15
1e-15
1e-15
1e-15
1e-15
1e-15
1e-15
1e-15
1e-15
1e-15
1e-15
1e-15
1e-15
1e-15
1e-15
1e-15
1e-15
1e-15
1e-15
1e-15
1e-15
1e-15
1e-15
1e-15
1e-15
1e-15
1e-15
1e-15
1e-15
1e-15
1e-15
1e-15
1e-15
1e-15
1e-15
1e-15
1e-15
1e-15
1e-15
1e-15
1e-15
1e-15
1e-15
1e-15
1e-15
1e-15
1e-15
1e-15
1e-15
1e-15
1e-15
1e-15
1e-15
1e-15
1e-15
1e-15
1e-15
1e-15
1e-15
1e-15
1e-15
1e-15
1e-15
1e-15
1e-15
1e-15
1e-15
1e-15
1e-15
1e-15
1e-15
1e-15
1e-15
1e-15
1e-15
1e-15
1e-15
1e-15
1e-15
1e-15
1e-15
1e-15
1e-15
1e-15
1e-15
1e-15
1e-15
1e-15
1e-15
1e-15
1e-15
1e-15
1e-15
1e-15
1e-15
1e-15
1e-15
1e-15
1e-15
1e-15
1e-15
1e-15
1e-15
1e-15
1e-15
1e-15
1e-15
1e-15
1e-15
1e-15
1e-15
1e-15
1e-15
1e-15
1e-15
1e-15
1e-15
1.02886433708e-15
1.02783828274e-15
1.02905527938e-15
1.02783828274e-15
1e-15
1e-15
1.01472566485e-15
1e-15
1.01686059998e-15
1e-15
1e-15
1.00000027253e-15
1.00000299511e-15
1.00001421838e-15
1.00005548708e-15
1.00011319366e-15
1.00018835951e-15
1.00023995999e-15
1.00027314223e-15
1.00028689431e-15
1.00028610802e-15
1.00026504598e-15
1.00022454878e-15
1.00014955801e-15
1.00005856053e-15
1.00000685511e-15
1.00000118474e-15
1e-15
1e-15
1e-15
1e-15
1e-15
1e-15
1e-15
1e-15
1e-15
1e-15
1e-15
1e-15
1e-15
1e-15
1e-15
1e-15
1e-15
1.00000035573e-15
1.00000160612e-15
1.00012877211e-15
1.00116891655e-15
1.00136010238e-15
1.00146654758e-15
1.00155525647e-15
1.00153689401e-15
1.00155661966e-15
1.00153689401e-15
1.00155669152e-15
1.00153689401e-15
1.00155549967e-15
1.00153689401e-15
1.00099233001e-15
1.00027993352e-15
1.00029336232e-15
1.00028474689e-15
1.0002758306e-15
1.00026260831e-15
1.00024884919e-15
1.00023092958e-15
1.00021000416e-15
1.00018093319e-15
1.00014880326e-15
1.00010724924e-15
1.00006105695e-15
1.00001003355e-15
1.0000010498e-15
1e-15
1e-15
1e-15
1e-15
1e-15
1e-15
1e-15
1e-15
1e-15
1e-15
1e-15
1e-15
1e-15
1e-15
1e-15
1e-15
1e-15
1e-15
1e-15
1e-15
1e-15
1e-15
1e-15
1e-15
1e-15
1e-15
1e-15
1e-15
1e-15
1e-15
1e-15
1e-15
1.00000190836e-15
1.00000660508e-15
1.0000660306e-15
1.00012400299e-15
1.00017112727e-15
1.00020904662e-15
1.00023460392e-15
1.00025150191e-15
1.00026153331e-15
1.00026714558e-15
1.00026731121e-15
1.00026349808e-15
1.00025369441e-15
1.00023734885e-15
1.0002123278e-15
1.00018045651e-15
1.00014659941e-15
1.00011134712e-15
1.00007370171e-15
1.00003615489e-15
1.00000650495e-15
1.00000420032e-15
1.00000327181e-15
1.000001328e-15
1e-15
1e-15
1e-15
1e-15
1.00000107126e-15
1.00000330309e-15
1.00000503014e-15
1.00006364758e-15
1.00018638227e-15
1.00032840687e-15
1.00046754148e-15
1.02783828274e-15
1.02903167773e-15
1.02783828274e-15
1.02884793041e-15
1.00099568176e-15
1.00012995461e-15
1.01298708452e-15
1e-15
1.01220663212e-15
1e-15
1e-15
1e-15
1.00000347429e-15
1.00002608982e-15
1.00006745403e-15
1.00018120892e-15
1.00033755669e-15
1.00045418249e-15
1.00055028279e-15
1.0005955338e-15
1.00060358215e-15
1.00055881438e-15
1.000467784e-15
1.00032046579e-15
1.00016049282e-15
1.00004243398e-15
1e-15
1e-15
1e-15
1e-15
1e-15
1e-15
1e-15
1e-15
1e-15
1e-15
1e-15
1e-15
1e-15
1e-15
1e-15
1e-15
1e-15
1e-15
1e-15
1.00016532124e-15
1.0011954793e-15
1.00155461483e-15
1.00153689401e-15
1.00156262807e-15
1.00153689401e-15
1.00156669769e-15
1.00153689401e-15
1.00156669775e-15
1.00153689401e-15
1.0015633026e-15
1.00153689401e-15
1.00156103239e-15
1.00153689401e-15
1.00109383041e-15
1.00073097978e-15
1.00071022546e-15
1.00068615275e-15
1.00065409035e-15
1.00061689426e-15
1.00056930499e-15
1.00053301278e-15
1.00050144674e-15
1.00044236221e-15
1.00035741014e-15
1.00024689085e-15
1.0001107252e-15
1e-15
1e-15
1e-15
1e-15
1e-15
1e-15
1e-15
1e-15
1e-15
1e-15
1e-15
1e-15
1e-15
1e-15
1e-15
1e-15
1e-15
1e-15
1e-15
1e-15
1e-15
1e-15
1e-15
1e-15
1e-15
1e-15
1e-15
1e-15
1e-15
1e-15
1e-15
1e-15
1e-15
1.00000085854e-15
1.00013849019e-15
1.00027868669e-15
1.0003985435e-15
1.00049230496e-15
1.00056573754e-15
1.00061863131e-15
1.00065763444e-15
1.00068344427e-15
1.00069957283e-15
1.00070454781e-15
1.00070097564e-15
1.00068663789e-15
1.00066222012e-15
1.00062226333e-15
1.00056531121e-15
1.00050195607e-15
1.00043435612e-15
1.00036032038e-15
1.00028243384e-15
1.00019796497e-15
1.00011414933e-15
1.00004856119e-15
1.00000068188e-15
1e-15
1e-15
1e-15
1e-15
1e-15
1.00003702974e-15
1.00016151448e-15
1.00036773848e-15
1.00062387949e-15
1.00090177253e-15
1.00102479159e-15
1.0288719167e-15
1.02783828274e-15
1.02902882335e-15
1.02783828274e-15
1.00252986801e-15
1.00080327206e-15
1.01441349051e-15
1e-15
1.01612613586e-15
1e-15
1e-15
1e-15
1.00000105281e-15
1.00001329505e-15
1.00004783394e-15
1.00015450728e-15
1.00032818941e-15
1.00053672019e-15
1.00071497658e-15
1.00080223496e-15
1.00083320492e-15
1.00077141163e-15
1.00064412354e-15
1.00044155696e-15
1.00024527975e-15
1.00007924105e-15
1.00002042974e-15
1e-15
1e-15
1e-15
1e-15
1e-15
1e-15
1e-15
1e-15
1e-15
1e-15
1e-15
1e-15
1e-15
1e-15
1e-15
1e-15
1.00000938471e-15
1.00009627811e-15
1.00056661193e-15
1.00154693156e-15
1.00153689401e-15
1.00155415817e-15
1.00153689401e-15
1.00155833358e-15
1.00153689401e-15
1.00156172599e-15
1.00153689401e-15
1.00156200178e-15
1.00153689401e-15
1.00155450141e-15
1.00153689401e-15
1.00155168482e-15
1.00153689401e-15
1.00116907199e-15
1.00111741348e-15
1.0010665609e-15
1.00099903573e-15
1.00094301166e-15
1.00089294304e-15
1.00078673499e-15
1.00066421289e-15
1.0005319316e-15
1.00038500848e-15
1.00024091794e-15
1.00008070916e-15
1e-15
1e-15
1e-15
1e-15
1e-15
1e-15
1e-15
1e-15
1e-15
1e-15
1e-15
1e-15
1e-15
1e-15
1e-15
1e-15
1e-15
1e-15
1e-15
1e-15
1e-15
1e-15
1e-15
1e-15
1e-15
1e-15
1e-15
1e-15
1e-15
1e-15
1e-15
1e-15
1e-15
1.00009060494e-15
1.00035045137e-15
1.00055264986e-15
1.00071986048e-15
1.00085157381e-15
1.00096143401e-15
1.00104554427e-15
1.00111214806e-15
1.00115877126e-15
1.00119089023e-15
1.00120551861e-15
1.00120676566e-15
1.00119321762e-15
1.00116643837e-15
1.00111938457e-15
1.00104589989e-15
1.00096053501e-15
1.00087203359e-15
1.00077353956e-15
1.00066816556e-15
1.00055249327e-15
1.00041848206e-15
1.00029437218e-15
1.00019399531e-15
1.000146563e-15
1.00012521186e-15
1.00011845236e-15
1.00013015828e-15
1.00016475285e-15
1.00027977752e-15
1.00051985439e-15
1.00083601718e-15
1.00120496908e-15
1.00160648419e-15
1.01989449038e-15
1.02783828274e-15
1.0289771597e-15
1.02783828274e-15
1.02879257194e-15
1.00422204848e-15
1.00165554941e-15
1.01298708452e-15
1e-15
1.01220663212e-15
1e-15
1e-15
1e-15
1e-15
1.00000259402e-15
1.00002555344e-15
1.00008434629e-15
1.00031777285e-15
1.00060726928e-15
1.00085887507e-15
1.00099168624e-15
1.00104956993e-15
1.00097976726e-15
1.00082809935e-15
1.00056619373e-15
1.00031677264e-15
1.00012095264e-15
1.00002648322e-15
1e-15
1e-15
1e-15
1e-15
1e-15
1e-15
1e-15
1e-15
1e-15
1e-15
1e-15
1e-15
1e-15
1e-15
1e-15
1e-15
1.00009100098e-15
1.00029098797e-15
1.00087400488e-15
1.00153689401e-15
1.00154309699e-15
1.00153689401e-15
1.00154683872e-15
1.00153689401e-15
1.00154906932e-15
1.00153689401e-15
1.00155390127e-15
1.00153689401e-15
1.00154512911e-15
1.00153689401e-15
1.00154395719e-15
1.00153689401e-15
1.00154212602e-15
1.00153689401e-15
1.00135186203e-15
1.0012834747e-15
1.00118945696e-15
1.00105890899e-15
1.00090181012e-15
1.0007683132e-15
1.00061514073e-15
1.00046514838e-15
1.00029724045e-15
1.00011776642e-15
1e-15
1e-15
1e-15
1e-15
1e-15
1e-15
1e-15
1e-15
1e-15
1e-15
1e-15
1e-15
1e-15
1e-15
1e-15
1e-15
1e-15
1e-15
1e-15
1e-15
1e-15
1e-15
1e-15
1e-15
1e-15
1e-15
1e-15
1e-15
1e-15
1e-15
1e-15
1e-15
1e-15
1e-15
1.00025174563e-15
1.00056254626e-15
1.00078470531e-15
1.00098596701e-15
1.00116022283e-15
1.00131641995e-15
1.0014416589e-15
1.00154383018e-15
1.00161785102e-15
1.00167170145e-15
1.00170059756e-15
1.00171063825e-15
1.00170027056e-15
1.00167297843e-15
1.00162246132e-15
1.00153597987e-15
1.0014317901e-15
1.00133075692e-15
1.00121897123e-15
1.00109901573e-15
1.00097118297e-15
1.00083531778e-15
1.00069033778e-15
1.00055710106e-15
1.00045326415e-15
1.00039315301e-15
1.00037143131e-15
1.00040378951e-15
1.00049701509e-15
1.00069427938e-15
1.00099979317e-15
1.00137410237e-15
1.00183316728e-15
1.00236412995e-15
1.02783826915e-15
1.02883877908e-15
1.02783828274e-15
1.02896823061e-15
1.02783828274e-15
1.00590713251e-15
1.00246244071e-15
1.01391010932e-15
1e-15
1.0153614626e-15
1e-15
1e-15
1e-15
1e-15
1e-15
1.0000089737e-15
1.0000458328e-15
1.00041172248e-15
1.00078982449e-15
1.00109295148e-15
1.00126706767e-15
1.0013564145e-15
1.00128491683e-15
1.00111467293e-15
1.00079033599e-15
1.00044562756e-15
1.0001692897e-15
1.00003028355e-15
1.00000145397e-15
1e-15
1e-15
1e-15
1e-15
1e-15
1e-15
1e-15
1e-15
1e-15
1e-15
1e-15
1e-15
1e-15
1e-15
1.00001879669e-15
1.0002358257e-15
1.00059950393e-15
1.00131106217e-15
1.00153946336e-15
1.00153689401e-15
1.00154220003e-15
1.00153689401e-15
1.00154396751e-15
1.00153689401e-15
1.00154500482e-15
1.00153689401e-15
1.00154688333e-15
1.00153689401e-15
1.00154082743e-15
1.00153689401e-15
1.00153992653e-15
1.00153689401e-15
1.00153806129e-15
1.00145524681e-15
1.00131556726e-15
1.00116622789e-15
1.00101506245e-15
1.00083077228e-15
1.00065338909e-15
1.00044756004e-15
1.00023499144e-15
1.00002412696e-15
1e-15
1e-15
1e-15
1e-15
1e-15
1e-15
1e-15
1e-15
1e-15
1e-15
1e-15
1e-15
1e-15
1e-15
1e-15
1e-15
1e-15
1e-15
1e-15
1e-15
1e-15
1e-15
1e-15
1e-15
1e-15
1e-15
1e-15
1e-15
1e-15
1e-15
1e-15
1e-15
1e-15
1e-15
1.00001003475e-15
1.00032687786e-15
1.00063419369e-15
1.00089551397e-15
1.0011519642e-15
1.00138684924e-15
1.00159902894e-15
1.00177153427e-15
1.00191383463e-15
1.00201959704e-15
1.00209899638e-15
1.00214575369e-15
1.00216803195e-15
1.00216283226e-15
1.00213687753e-15
1.00208600776e-15
1.00198860939e-15
1.00186152802e-15
1.00174709053e-15
1.0016220019e-15
1.00148905038e-15
1.00135210418e-15
1.00122141788e-15
1.00108629214e-15
1.00095619264e-15
1.00084356899e-15
1.00076851256e-15
1.00074363762e-15
1.0007907226e-15
1.00091886304e-15
1.00114732581e-15
1.00146892935e-15
1.0018879628e-15
1.00243508444e-15
1.00309647648e-15
1.02841716515e-15
1.02783828274e-15
1.02892114705e-15
1.02783828274e-15
1.02873667619e-15
1.00746802135e-15
1.00312253911e-15
1.01298708452e-15
1e-15
1.01220663212e-15
1e-15
1e-15
1e-15
1e-15
1e-15
1.00000130168e-15
1.00007558584e-15
1.00072285228e-15
1.00120811171e-15
1.00154244009e-15
1.00171720427e-15
1.00181334793e-15
1.00174801876e-15
1.00156193067e-15
1.00118920988e-15
1.00072656655e-15
1.00027775765e-15
1.00003764209e-15
1.00000402607e-15
1e-15
1e-15
1e-15
1e-15
1e-15
1e-15
1e-15
1e-15
1e-15
1e-15
1e-15
1e-15
1e-15
1e-15
1.00012771644e-15
1.00038254821e-15
1.0008847782e-15
1.00152995663e-15
1.00153689401e-15
1.00153757103e-15
1.00153689401e-15
1.0015384252e-15
1.00153689401e-15
1.00153918246e-15
1.00153689401e-15
1.00154134302e-15
1.00153689401e-15
1.00153773704e-15
1.00153689401e-15
1.00153750027e-15
1.00153689401e-15
1.00153712508e-15
1.00153687008e-15
1.00142898839e-15
1.00127001859e-15
1.00108261403e-15
1.00089543176e-15
1.00066812093e-15
1.00041383021e-15
1.00012117021e-15
1e-15
1e-15
1e-15
1e-15
1e-15
1e-15
1e-15
1e-15
1e-15
1e-15
1e-15
1e-15
1e-15
1e-15
1e-15
1e-15
1e-15
1e-15
1e-15
1e-15
1e-15
1e-15
1e-15
1e-15
1e-15
1e-15
1e-15
1e-15
1e-15
1e-15
1e-15
1e-15
1e-15
1e-15
1e-15
1e-15
1.00002473341e-15
1.00032083002e-15
1.00064247497e-15
1.00095728698e-15
1.00128193443e-15
1.00158560003e-15
1.00185406042e-15
1.00207248742e-15
1.00225365e-15
1.00239112675e-15
1.00249635314e-15
1.00256231482e-15
1.00259870111e-15
1.00260009139e-15
1.00257767784e-15
1.00252958671e-15
1.00242363206e-15
1.00226914165e-15
1.00213543143e-15
1.00198942405e-15
1.00183412036e-15
1.0016781246e-15
1.00153856774e-15
1.00140953301e-15
1.00129348326e-15
1.00119645977e-15
1.00113294024e-15
1.00112112669e-15
1.00117471812e-15
1.0013107934e-15
1.00154125859e-15
1.00187020782e-15
1.00235066175e-15
1.003003963e-15
1.00379698736e-15
1.02783828274e-15
1.02878910732e-15
1.02783828274e-15
1.02890939782e-15
1.02783828274e-15
1.00888509525e-15
1.00362818281e-15
1.01356560346e-15
1e-15
1.01459683476e-15
1e-15
1e-15
1e-15
1e-15
1e-15
1e-15
1.00004591081e-15
1.00080157642e-15
1.00143151444e-15
1.00195664292e-15
1.00224673104e-15
1.00237872376e-15
1.00227162697e-15
1.00207156096e-15
1.00167296916e-15
1.00114265247e-15
1.00051197397e-15
1.00008039091e-15
1.00000763372e-15
1e-15
1e-15
1e-15
1e-15
1e-15
1e-15
1e-15
1e-15
1e-15
1e-15
1e-15
1e-15
1e-15
1e-15
1.00022029045e-15
1.00050699741e-15
1.00107468283e-15
1.00152847171e-15
1.00153674484e-15
1.00153643665e-15
1.00153734601e-15
1.00153689401e-15
1.00153763717e-15
1.00153689401e-15
1.00153775209e-15
1.00153689401e-15
1.00153877375e-15
1.00153622967e-15
1.00153662519e-15
1.00153424059e-15
1.00153074803e-15
1.00152330414e-15
1.00150759727e-15
1.00135076489e-15
1.00116148853e-15
1.00093828859e-15
1.00070008812e-15
1.00039624283e-15
1.00006464248e-15
1e-15
1e-15
1e-15
1e-15
1e-15
1e-15
1e-15
1e-15
1e-15
1e-15
1e-15
1e-15
1e-15
1e-15
1e-15
1e-15
1e-15
1e-15
1e-15
1e-15
1e-15
1e-15
1e-15
1e-15
1e-15
1e-15
1e-15
1e-15
1e-15
1e-15
1e-15
1e-15
1e-15
1e-15
1e-15
1e-15
1e-15
1e-15
1.000321092e-15
1.00066030686e-15
1.00104695602e-15
1.00145779126e-15
1.00182952384e-15
1.00214848025e-15
1.00240925277e-15
1.00262642032e-15
1.0027940484e-15
1.00292392586e-15
1.00300937848e-15
1.00306046911e-15
1.00307035078e-15
1.00305305e-15
1.00300616178e-15
1.00290161873e-15
1.00272509844e-15
1.00256323434e-15
1.0023924694e-15
1.00220751029e-15
1.00202033472e-15
1.00185370954e-15
1.00170895171e-15
1.00158911967e-15
1.00149487119e-15
1.00143794193e-15
1.00143618036e-15
1.00149660919e-15
1.00164224798e-15
1.00188599531e-15
1.00225147473e-15
1.00282267238e-15
1.003593997e-15
1.00451691914e-15
1.02841907617e-15
1.02783828274e-15
1.0288670218e-15
1.02783828274e-15
1.02868510613e-15
1.01016808818e-15
1.0040280112e-15
1.01298698812e-15
1e-15
1.01220663212e-15
1e-15
1e-15
1e-15
1e-15
1e-15
1e-15
1e-15
1.0007138186e-15
1.00138454875e-15
1.00196969821e-15
1.002379194e-15
1.00261060925e-15
1.002602359e-15
1.0023991474e-15
1.00200012093e-15
1.00148705821e-15
1.00082367129e-15
1.00021022285e-15
1.00001125525e-15
1e-15
1e-15
1e-15
1e-15
1e-15
1e-15
1e-15
1e-15
1e-15
1e-15
1e-15
1e-15
1e-15
1e-15
1.00025769749e-15
1.00061609186e-15
1.00119742042e-15
1.00150402417e-15
1.00151656485e-15
1.00152242804e-15
1.00152871706e-15
1.00153156416e-15
1.00153513768e-15
1.00153432321e-15
1.00153634905e-15
1.00153594023e-15
1.00153689401e-15
1.00153457169e-15
1.00150875753e-15
1.00150382731e-15
1.00149593555e-15
1.00148178822e-15
1.00142180403e-15
1.00120831125e-15
1.00098295748e-15
1.00070898746e-15
1.00036793197e-15
1.00000988515e-15
1e-15
1e-15
1e-15
1e-15
1e-15
1e-15
1e-15
1e-15
1e-15
1e-15
1e-15
1e-15
1e-15
1e-15
1e-15
1e-15
1e-15
1e-15
1e-15
1e-15
1e-15
1e-15
1e-15
1e-15
1e-15
1e-15
1e-15
1e-15
1e-15
1e-15
1e-15
1e-15
1e-15
1e-15
1e-15
1e-15
1e-15
1e-15
1.00000038918e-15
1.00031430747e-15
1.00073835242e-15
1.00125011486e-15
1.00172447654e-15
1.00215350116e-15
1.00252064197e-15
1.00281982671e-15
1.00307080062e-15
1.00326832035e-15
1.00342266747e-15
1.00352816791e-15
1.00359455452e-15
1.00361500281e-15
1.00360392364e-15
1.00355940529e-15
1.00346584754e-15
1.00327685904e-15
1.0030840461e-15
1.00289334306e-15
1.00268280831e-15
1.00246223916e-15
1.00225613023e-15
1.00207433208e-15
1.00192568155e-15
1.00181125902e-15
1.0017435756e-15
1.00174066381e-15
1.00181019829e-15
1.00197763143e-15
1.00226131288e-15
1.00270173529e-15
1.0033806932e-15
1.00425731592e-15
1.00530210479e-15
1.02783828274e-15
1.02874083265e-15
1.02783828274e-15
1.02885468735e-15
1.02783828274e-15
1.01136058007e-15
1.00435217227e-15
1.01333556662e-15
1e-15
1.01386679717e-15
1e-15
1e-15
1e-15
1e-15
1e-15
1e-15
1e-15
1.00028559531e-15
1.00117860035e-15
1.00186510281e-15
1.0023365213e-15
1.00261798702e-15
1.00266730073e-15
1.00250026668e-15
1.0021222213e-15
1.00165660062e-15
1.00107150094e-15
1.00041459181e-15
1.00001464758e-15
1e-15
1e-15
1e-15
1e-15
1e-15
1e-15
1e-15
1e-15
1e-15
1e-15
1e-15
1e-15
1e-15
1e-15
1.00026344681e-15
1.00071760499e-15
1.00127793009e-15
1.00146346523e-15
1.00147757384e-15
1.00148701257e-15
1.00149596341e-15
1.00150084515e-15
1.00150608658e-15
1.00150658694e-15
1.0015088689e-15
1.00150928378e-15
1.00153353895e-15
1.00151327174e-15
1.00145703864e-15
1.00144672051e-15
1.00142938737e-15
1.00138436447e-15
1.00123381598e-15
1.00097251524e-15
1.00067338681e-15
1.00028855047e-15
1e-15
1e-15
1e-15
1e-15
1e-15
1e-15
1e-15
1e-15
1e-15
1e-15
1e-15
1e-15
1e-15
1e-15
1e-15
1e-15
1e-15
1e-15
1e-15
1e-15
1e-15
1e-15
1e-15
1e-15
1e-15
1e-15
1e-15
1e-15
1e-15
1e-15
1e-15
1e-15
1e-15
1e-15
1e-15
1e-15
1e-15
1e-15
1e-15
1e-15
1e-15
1.00034267357e-15
1.00093522111e-15
1.00150433663e-15
1.00208450166e-15
1.00254699026e-15
1.00293452752e-15
1.00328010786e-15
1.00357149442e-15
1.00379960969e-15
1.00397959486e-15
1.00410691133e-15
1.00418991473e-15
1.00422266215e-15
1.00421822841e-15
1.00417748237e-15
1.00410391216e-15
1.00391276577e-15
1.00368530851e-15
1.00348681776e-15
1.00326629079e-15
1.00302694722e-15
1.00278827785e-15
1.00256481349e-15
1.00237337139e-15
1.00222280615e-15
1.00213060008e-15
1.00211811778e-15
1.00219747348e-15
1.00239590715e-15
1.00274032915e-15
1.00327514038e-15
1.00404413454e-15
1.00499077899e-15
1.00614268509e-15
1.02841621357e-15
1.02783828274e-15
1.02881609243e-15
1.02783828274e-15
1.02863957875e-15
1.01245107525e-15
1.00466419437e-15
1.01298655822e-15
1e-15
1.01220663212e-15
1e-15
1e-15
1e-15
1e-15
1e-15
1e-15
1e-15
1.00000178317e-15
1.00080758812e-15
1.00162363479e-15
1.00220184247e-15
1.00257505755e-15
1.00267149548e-15
1.00253828185e-15
1.00217879627e-15
1.00174466553e-15
1.00122982782e-15
1.00063457788e-15
1.00005192801e-15
1.00000105155e-15
1e-15
1e-15
1e-15
1e-15
1e-15
1e-15
1e-15
1e-15
1e-15
1e-15
1e-15
1e-15
1e-15
1.00026554762e-15
1.00083646461e-15
1.00129542685e-15
1.00140839615e-15
1.00142369146e-15
1.00143456721e-15
1.00144428989e-15
1.00145007588e-15
1.00145599756e-15
1.00145804869e-15
1.00146033747e-15
1.00146250085e-15
1.00150624067e-15
1.00147796345e-15
1.00137381852e-15
1.0013334952e-15
1.00128455994e-15
1.0011632231e-15
1.00089609987e-15
1.00053769921e-15
1.00014588817e-15
1e-15
1e-15
1e-15
1e-15
1e-15
1e-15
1e-15
1e-15
1e-15
1e-15
1e-15
1e-15
1e-15
1e-15
1e-15
1e-15
1e-15
1e-15
1e-15
1e-15
1e-15
1e-15
1e-15
1e-15
1e-15
1e-15
1e-15
1e-15
1e-15
1e-15
1e-15
1e-15
1e-15
1e-15
1e-15
1e-15
1e-15
1e-15
1e-15
1e-15
1e-15
1.00001544674e-15
1.00044626003e-15
1.00111118676e-15
1.0017634325e-15
1.00239614488e-15
1.00286754028e-15
1.0033638696e-15
1.00374233464e-15
1.00406203898e-15
1.00433150512e-15
1.00454353201e-15
1.00469342933e-15
1.00479422691e-15
1.00484064485e-15
1.00484324063e-15
1.00480738507e-15
1.00475098996e-15
1.00456898793e-15
1.00430833928e-15
1.00410127641e-15
1.00388348637e-15
1.00364388469e-15
1.00339644921e-15
1.00315287972e-15
1.00293237615e-15
1.00275219455e-15
1.00263618982e-15
1.0026145017e-15
1.00270194595e-15
1.00293024532e-15
1.00333197137e-15
1.00393777377e-15
1.00475080431e-15
1.00573600939e-15
1.00697973599e-15
1.02783828274e-15
1.02869537852e-15
1.02783828274e-15
1.02880552121e-15
1.02783828274e-15
1.01342739964e-15
1.00471405001e-15
1.0131862107e-15
1e-15
1.01321925937e-15
1e-15
1e-15
1e-15
1e-15
1e-15
1e-15
1e-15
1e-15
1.00028071189e-15
1.00133813092e-15
1.00205365251e-15
1.00252687084e-15
1.0026913377e-15
1.00259765574e-15
1.00225172462e-15
1.00183189368e-15
1.00135825777e-15
1.00085253744e-15
1.00021374976e-15
1.00000128443e-15
1e-15
1e-15
1e-15
1e-15
1e-15
1e-15
1e-15
1e-15
1e-15
1e-15
1e-15
1e-15
1e-15
1.00023816889e-15
1.00084266441e-15
1.00125513176e-15
1.00133595006e-15
1.00135279783e-15
1.00136474787e-15
1.00137526534e-15
1.00138117203e-15
1.0013867767e-15
1.00138797139e-15
1.00138871352e-15
1.0013883021e-15
1.00140822142e-15
1.00140600544e-15
1.00123765139e-15
1.001097653e-15
1.0009839009e-15
1.00071517988e-15
1.00028880372e-15
1e-15
1e-15
1e-15
1e-15
1e-15
1e-15
1e-15
1e-15
1e-15
1e-15
1e-15
1e-15
1e-15
1e-15
1e-15
1e-15
1e-15
1e-15
1e-15
1e-15
1e-15
1e-15
1e-15
1e-15
1e-15
1e-15
1e-15
1e-15
1e-15
1e-15
1e-15
1e-15
1e-15
1e-15
1e-15
1e-15
1e-15
1e-15
1e-15
1e-15
1e-15
1e-15
1e-15
1.00005079337e-15
1.00057081199e-15
1.00125864736e-15
1.00195887745e-15
1.00258678927e-15
1.00314302377e-15
1.0036979965e-15
1.00413512663e-15
1.00453889508e-15
1.00482699199e-15
1.00506196904e-15
1.00524286181e-15
1.00536484383e-15
1.00542389076e-15
1.00543354975e-15
1.00540309217e-15
1.00534950721e-15
1.0051901638e-15
1.00491133641e-15
1.00467296425e-15
1.00445484338e-15
1.0042177186e-15
1.00397613142e-15
1.00373884109e-15
1.00351983715e-15
1.00333660015e-15
1.00321429784e-15
1.00319461228e-15
1.00328696366e-15
1.00353291508e-15
1.00396309315e-15
1.00458972906e-15
1.00541207422e-15
1.00642945414e-15
1.00775468632e-15
1.02840883992e-15
1.02783828274e-15
1.02876931078e-15
1.02783828274e-15
1.02859976642e-15
1.0142560878e-15
1.0046716981e-15
1.01298479495e-15
1e-15
1.01220663212e-15
1e-15
1e-15
1e-15
1e-15
1e-15
1e-15
1e-15
1e-15
1e-15
1.00105771018e-15
1.00194827065e-15
1.00253255141e-15
1.0027767605e-15
1.0027384333e-15
1.00239702504e-15
1.00196509168e-15
1.00150432297e-15
1.00106879257e-15
1.00048843344e-15
1.00000862866e-15
1e-15
1e-15
1e-15
1e-15
1e-15
1e-15
1e-15
1e-15
1e-15
1e-15
1e-15
1e-15
1e-15
1.00016708178e-15
1.00079152287e-15
1.00115811117e-15
1.00123214433e-15
1.00125014512e-15
1.00126145988e-15
1.00127126831e-15
1.00127285625e-15
1.00127400308e-15
1.00126977009e-15
1.00126749403e-15
1.00125956354e-15
1.00124434865e-15
1.0012139572e-15
1.00092508073e-15
1.0006100851e-15
1.00032915237e-15
1e-15
1e-15
1e-15
1e-15
1e-15
1e-15
1e-15
1e-15
1e-15
1e-15
1e-15
1e-15
1e-15
1e-15
1e-15
1e-15
1e-15
1e-15
1e-15
1e-15
1e-15
1e-15
1e-15
1e-15
1e-15
1e-15
1e-15
1e-15
1e-15
1e-15
1e-15
1e-15
1e-15
1e-15
1e-15
1e-15
1e-15
1e-15
1e-15
1e-15
1e-15
1e-15
1e-15
1e-15
1e-15
1.00009138526e-15
1.00066267881e-15
1.00134075363e-15
1.00208584771e-15
1.00277670263e-15
1.00338264117e-15
1.00397362462e-15
1.00448256501e-15
1.00491708492e-15
1.00527199292e-15
1.00556473733e-15
1.00574995806e-15
1.00588608556e-15
1.00596467214e-15
1.00598348727e-15
1.00595673588e-15
1.00589890673e-15
1.00577152674e-15
1.00548186135e-15
1.00518684564e-15
1.00496098174e-15
1.00471584073e-15
1.00447497547e-15
1.00424967633e-15
1.00404767843e-15
1.00388096842e-15
1.00377079859e-15
1.00376462039e-15
1.00386080995e-15
1.00411109452e-15
1.00454063784e-15
1.00515579347e-15
1.00598515575e-15
1.00704577923e-15
1.00844753443e-15
1.02783828274e-15
1.0286525834e-15
1.02783828274e-15
1.02876149226e-15
1.02783828274e-15
1.01494639108e-15
1.00455956954e-15
1.01309299991e-15
1e-15
1.01269498276e-15
1e-15
1e-15
1e-15
1e-15
1e-15
1e-15
1e-15
1e-15
1e-15
1.00075397606e-15
1.00184041087e-15
1.00261548288e-15
1.00296300168e-15
1.00300001171e-15
1.00266105574e-15
1.00218278526e-15
1.0016985654e-15
1.00129299439e-15
1.00079836884e-15
1.00017592436e-15
1e-15
1e-15
1e-15
1e-15
1e-15
1e-15
1e-15
1e-15
1e-15
1e-15
1e-15
1e-15
1e-15
1.00003659447e-15
1.00065866544e-15
1.00097849338e-15
1.00105222897e-15
1.0010697508e-15
1.00107498763e-15
1.00108000127e-15
1.00106750383e-15
1.00105636774e-15
1.00104087795e-15
1.0010327469e-15
1.00101275292e-15
1.00095176945e-15
1.00077769286e-15
1.0003601108e-15
1e-15
1e-15
1e-15
1e-15
1e-15
1e-15
1e-15
1e-15
1e-15
1e-15
1e-15
1e-15
1e-15
1e-15
1e-15
1e-15
1e-15
1e-15
1e-15
1e-15
1e-15
1e-15
1e-15
1e-15
1e-15
1e-15
1e-15
1e-15
1e-15
1e-15
1e-15
1e-15
1e-15
1e-15
1e-15
1e-15
1e-15
1e-15
1e-15
1e-15
1e-15
1e-15
1e-15
1e-15
1e-15
1e-15
1e-15
1.0001062526e-15
1.0007117467e-15
1.00140731081e-15
1.0022016863e-15
1.00295814177e-15
1.00363322008e-15
1.00429024978e-15
1.00480155301e-15
1.0052668051e-15
1.00568022669e-15
1.00598512375e-15
1.00623562569e-15
1.00640883954e-15
1.00648048124e-15
1.00650392002e-15
1.0064857939e-15
1.00642295954e-15
1.00630890149e-15
1.0060345997e-15
1.00568829339e-15
1.00543229707e-15
1.00516920272e-15
1.00491645936e-15
1.00469109767e-15
1.0044976577e-15
1.00434492063e-15
1.00425124137e-15
1.00425905532e-15
1.004360491e-15
1.00460881912e-15
1.00502804051e-15
1.00563281126e-15
1.00648511475e-15
1.00759965357e-15
1.00907343627e-15
1.02839747835e-15
1.02783828274e-15
1.0287271126e-15
1.02783828274e-15
1.02856553257e-15
1.01550909267e-15
1.00439368116e-15
1.01298284142e-15
1e-15
1.01220633644e-15
1e-15
1e-15
1e-15
1e-15
1e-15
1e-15
1e-15
1e-15
1e-15
1.00013438387e-15
1.00166011386e-15
1.00265475927e-15
1.00320152235e-15
1.00334800313e-15
1.00304396236e-15
1.00250989795e-15
1.00196395737e-15
1.00154619425e-15
1.00110096037e-15
1.00051691668e-15
1e-15
1e-15
1e-15
1e-15
1e-15
1e-15
1e-15
1e-15
1e-15
1e-15
1e-15
1e-15
1e-15
1e-15
1.00043084851e-15
1.000686229e-15
1.00074415854e-15
1.00075288959e-15
1.00073606869e-15
1.00071501863e-15
1.00066396016e-15
1.00061553307e-15
1.00057010886e-15
1.00054666376e-15
1.0004985615e-15
1.00032938323e-15
1.00002849204e-15
1e-15
1e-15
1e-15
1e-15
1e-15
1e-15
1e-15