/*--------------------------------*- C++ -*----------------------------------*\
| =========                 |                                                 |
| \\      /  F ield         | OpenFOAM: The Open Source CFD Toolbox           |
|  \\    /   O peration     | Version:  2206                                  |
|   \\  /    A nd           | Website:  www.openfoam.com                      |
|    \\/     M anipulation  |                                                 |
\*---------------------------------------------------------------------------*/
FoamFile
{
    version     2.0;
    format      ascii;
    arch        "LSB;label=64;scalar=64";
    class       volScalarField;
    location    "3.7/water";
    object      d.gas;
}
// * * * * * * * * * * * * * * * * * * * * * * * * * * * * * * * * * * * * * //

dimensions      [0 1 0 0 0 0 0];

internalField   nonuniform List<scalar> 
23300
(
0.00498792831983
0.00498792743482
0.00498792753762
0.00498792766994
0.00498792783172
0.00498792801534
0.00498792821523
0.00498792842001
0.00498792862372
0.00498792881494
0.00498792898902
0.00498792913608
0.00498792925381
0.00498792933492
0.00498792938005
0.00498792938497
0.00498792935333
0.00498792928362
0.0049879291819
0.00498792904855
0.00498792889091
0.00498792871003
0.00498792851336
0.00498792830143
0.00498792808078
0.00498792785061
0.00498792761597
0.00498792737443
0.00498792712945
0.00498792687714
0.00498792661976
0.00498792635241
0.00498792607671
0.0049879257874
0.00498792548596
0.00498792516731
0.00498792483327
0.0049879244793
0.00498792410778
0.00498792371493
0.00498792330379
0.00498792287138
0.00498792242141
0.00498792195167
0.00498792146664
0.00498792096512
0.00498792045196
0.00498791992636
0.00498791939345
0.00498791885302
0.00498791831047
0.00498791776605
0.0049879172253
0.00498791668879
0.00498791616209
0.00498791564599
0.00498791514597
0.00498791466289
0.00498791420204
0.00498791376428
0.00498791335461
0.00498791297376
0.00498791262635
0.00498791231291
0.00498791203762
0.00498791180069
0.00498791160583
0.00498791145283
0.00498791134486
0.00498791128123
0.00498791126443
0.00498791129314
0.00498791136905
0.00498791148994
0.00498791165641
0.004987911865
0.00498791211478
0.00498791240056
0.00498791271933
0.00498791306367
0.00498791342815
0.00498791380343
0.00498791418391
0.00498791456534
0.00498791495082
0.00498791533695
0.00498791571602
0.00498791607991
0.00498791643173
0.00498791677604
0.00498791712045
0.00498791746891
0.00498791782659
0.00498791819474
0.0049879185758
0.00498791896878
0.00498791937411
0.00498791978927
0.00498792021338
0.00498792064305
0.00498792107671
0.00498792151061
0.0049879219429
0.00498792236988
0.00498792278971
0.00498792319897
0.00498792359609
0.00498792397809
0.00498792434378
0.00498792469076
0.00498792501832
0.00498792532472
0.00498792560979
0.00498792587244
0.00498792611304
0.00498792633107
0.00498792652739
0.00498792670202
0.00498792685617
0.00498792699029
0.00498792710581
0.00498792720331
0.0049879272841
0.0049879273485
0.00498792739718
0.00498792742963
0.00498792744527
0.00498792744225
0.00498792741845
0.00498792737071
0.00498792729603
0.00498792719145
0.00498792705551
0.00498792688882
0.00498792669575
0.00498792648561
0.00498792627464
0.0049879260882
0.00498792596103
0.00498792484491
0.00498806046476
0.00498805955326
0.00498805956753
0.00498805959763
0.00498805963989
0.00498805968912
0.00498805974198
0.00498805979186
0.00498805983532
0.00498805986615
0.00498805988221
0.00498805987888
0.00498805985605
0.0049880598112
0.00498805974644
0.00498805966132
0.00498805955985
0.00498805944319
0.00498805931652
0.00498805918172
0.00498805904422
0.00498805890562
0.00498805877067
0.00498805863985
0.00498805851653
0.00498805839959
0.00498805829076
0.00498805818729
0.00498805808945
0.00498805799325
0.00498805789803
0.00498805779917
0.00498805769569
0.004988057583
0.00498805746036
0.00498805732365
0.00498805717278
0.00498805700438
0.00498805681912
0.00498805661451
0.00498805639202
0.00498805614999
0.00498805589062
0.00498805561301
0.00498805532003
0.00498805501158
0.004988054691
0.0049880543586
0.00498805401799
0.00498805366986
0.004988053318
0.00498805296338
0.00498805260985
0.00498805225852
0.00498805191318
0.00498805157499
0.00498805124755
0.00498805093195
0.00498805063152
0.00498805034713
0.00498805008176
0.00498804983597
0.00498804961231
0.00498804941096
0.00498804923396
0.00498804908106
0.00498804895377
0.00498804885139
0.00498804877489
0.00498804872312
0.00498804869656
0.00498804869367
0.0049880487145
0.00498804875718
0.00498804882146
0.00498804890527
0.00498804900823
0.00498804912837
0.00498804926568
0.0049880494191
0.00498804959038
0.00498804978177
0.00498805000053
0.0049880502568
0.00498805056175
0.00498805091454
0.0049880513046
0.00498805171546
0.00498805213416
0.00498805255197
0.00498805296524
0.00498805337111
0.00498805376914
0.00498805415812
0.00498805453832
0.00498805490887
0.00498805527004
0.0049880556209
0.00498805596157
0.00498805629101
0.00498805660918
0.00498805691494
0.00498805720811
0.0049880574875
0.00498805775285
0.00498805800299
0.00498805823764
0.00498805845573
0.00498805865704
0.00498805884068
0.00498805900659
0.00498805915416
0.00498805928364
0.0049880593948
0.0049880594882
0.00498805956399
0.00498805962312
0.00498805966622
0.00498805969464
0.0049880597095
0.00498805971256
0.0049880597053
0.00498805968972
0.00498805966742
0.00498805964021
0.00498805960929
0.00498805957564
0.00498805953927
0.00498805949957
0.00498805945474
0.00498805940227
0.00498805933886
0.00498805926121
0.00498805916656
0.00498805905403
0.00498805892579
0.00498805878898
0.00498805865829
0.00498805856211
0.00498805743041
0.00498819420866
0.00498819331957
0.00498819332447
0.00498819334281
0.00498819337076
0.00498819340257
0.00498819343459
0.00498819346048
0.00498819347656
0.00498819347687
0.00498819345903
0.00498819341875
0.00498819335578
0.00498819326813
0.00498819315798
0.00498819302568
0.00498819287555
0.00498819270975
0.00498819253397
0.00498819235119
0.00498819216743
0.0049881919854
0.00498819181036
0.00498819164381
0.00498819148945
0.00498819134698
0.00498819121822
0.004988191101
0.00498819099546
0.00498819089792
0.00498819080737
0.00498819071932
0.00498819063227
0.00498819054162
0.00498819044599
0.00498819034117
0.00498819022635
0.004988190098
0.00498818995607
0.00498818979787
0.00498818962411
0.00498818943291
0.00498818922569
0.00498818900131
0.0049881887619
0.00498818850724
0.00498818823996
0.00498818796009
0.00498818767041
0.0049881873713
0.00498818706576
0.00498818675442
0.00498818644032
0.00498818612427
0.00498818580927
0.00498818549615
0.00498818518779
0.00498818488498
0.0049881845904
0.00498818430467
0.00498818403021
0.00498818376746
0.0049881835185
0.00498818328353
0.00498818306431
0.00498818286078
0.0049881826744
0.00498818250488
0.00498818235342
0.00498818221959
0.00498818210445
0.00498818200752
0.00498818192987
0.00498818187115
0.0049881818326
0.00498818181422
0.00498818181771
0.00498818184377
0.00498818189501
0.00498818197349
0.0049881820837
0.00498818223024
0.00498818242074
0.00498818266258
0.00498818296283
0.00498818331777
0.00498818371922
0.0049881841566
0.00498818461795
0.00498818509258
0.00498818557331
0.00498818605383
0.00498818653029
0.0049881869988
0.00498818745722
0.00498818790294
0.00498818833475
0.00498818875079
0.00498818915038
0.00498818953217
0.00498818989581
0.0049881902403
0.00498819056554
0.00498819087075
0.00498819115601
0.00498819142075
0.00498819166516
0.00498819188889
0.00498819209227
0.00498819227514
0.00498819243805
0.00498819258107
0.00498819270503
0.00498819281039
0.00498819289825
0.0049881929694
0.00498819302528
0.0049881930671
0.00498819309667
0.00498819311558
0.00498819312596
0.00498819312965
0.00498819312883
0.00498819312522
0.00498819312054
0.00498819311575
0.00498819311134
0.00498819310664
0.00498819310005
0.00498819308862
0.00498819306842
0.00498819303457
0.00498819298204
0.00498819290628
0.0049881928045
0.00498819267703
0.00498819252915
0.00498819237415
0.00498819223762
0.00498819104805
0.00498832767262
0.00498832679501
0.00498832680471
0.0049883268234
0.00498832684884
0.00498832687556
0.0049883268999
0.00498832691556
0.00498832691894
0.00498832690426
0.00498832686915
0.00498832680949
0.00498832672511
0.00498832661424
0.00498832647923
0.00498832632076
0.00498832614344
0.00498832594985
0.00498832574611
0.00498832553573
0.00498832532521
0.00498832511782
0.0049883249193
0.00498832473166
0.00498832455904
0.00498832440154
0.00498832426129
0.00498832413639
0.00498832402712
0.00498832392995
0.00498832384387
0.00498832376441
0.00498832368995
0.00498832361577
0.00498832354029
0.0049883234591
0.0049883233711
0.00498832327249
0.00498832316286
0.0049883230392
0.00498832290181
0.00498832274847
0.00498832258014
0.00498832239529
0.00498832219556
0.00498832198045
0.00498832175225
0.00498832151058
0.00498832125774
0.0049883209937
0.00498832072097
0.00498832043982
0.00498832015284
0.00498831986047
0.00498831956531
0.00498831926789
0.00498831897076
0.00498831867445
0.00498831838139
0.00498831809207
0.00498831780873
0.00498831753178
0.00498831726329
0.00498831700353
0.0049883167544
0.00498831651608
0.00498831629033
0.0049883160773
0.00498831587866
0.00498831569461
0.00498831552689
0.00498831537586
0.00498831524344
0.0049883151303
0.00498831503872
0.00498831496985
0.0049883149265
0.00498831491051
0.00498831492551
0.00498831497433
0.00498831506178
0.00498831519206
0.00498831537109
0.0049883156033
0.00498831589256
0.00498831623542
0.00498831662466
0.00498831705264
0.00498831751213
0.00498831799342
0.00498831848914
0.00498831899206
0.00498831949701
0.00498831999872
0.00498832049361
0.00498832097783
0.00498832144895
0.00498832190415
0.00498832234188
0.00498832276013
0.00498832315802
0.00498832353416
0.00498832388821
0.00498832421927
0.00498832452738
0.00498832481207
0.00498832507367
0.00498832531205
0.0049883255278
0.0049883257211
0.00498832589279
0.00498832604335
0.00498832617396
0.00498832628549
0.00498832637939
0.00498832645681
0.00498832651953
0.00498832656907
0.00498832660749
0.00498832663662
0.00498832665871
0.0049883266757
0.00498832668975
0.00498832670247
0.00498832671538
0.0049883267291
0.0049883267437
0.00498832675798
0.00498832676975
0.00498832677541
0.00498832677034
0.00498832674893
0.00498832670534
0.00498832663412
0.00498832653144
0.00498832639622
0.00498832623173
0.00498832604796
0.004988325864
0.0049883246509
0.00498846103204
0.00498846015341
0.00498846016815
0.00498846018977
0.00498846021644
0.00498846024286
0.00498846026541
0.0049884602779
0.0049884602767
0.00498846025607
0.00498846021374
0.00498846014562
0.0049884600516
0.00498845992999
0.00498845978322
0.00498845961209
0.00498845942138
0.00498845921386
0.00498845899589
0.00498845877124
0.0049884585467
0.00498845832586
0.00498845811478
0.00498845791577
0.00498845773325
0.0049884575676
0.00498845742117
0.00498845729227
0.00498845718133
0.00498845708495
0.0049884570022
0.00498845692863
0.00498845686264
0.00498845679946
0.00498845673744
0.00498845667205
0.00498845660204
0.00498845652344
0.00498845643561
0.00498845633531
0.00498845622258
0.0049884560949
0.00498845595293
0.00498845579484
0.00498845562181
0.00498845543313
0.00498845523098
0.00498845501461
0.004988454786
0.00498845454479
0.00498845429317
0.0049884540311
0.00498845376089
0.00498845348272
0.00498845319896
0.00498845290993
0.00498845261801
0.00498845232362
0.00498845202908
0.00498845173485
0.00498845144317
0.0049884511545
0.00498845087103
0.00498845059319
0.00498845032309
0.00498845006121
0.00498844980961
0.00498844956884
0.00498844934102
0.00498844912682
0.00498844892851
0.00498844874699
0.00498844858478
0.00498844844311
0.00498844832485
0.00498844823166
0.00498844816685
0.00498844813261
0.00498844813276
0.00498844817011
0.00498844824905
0.00498844837287
0.004988448546
0.00498844877096
0.00498844904972
0.00498844938069
0.0049884497573
0.00498845017158
0.00498845061941
0.00498845109348
0.00498845158708
0.00498845209312
0.00498845260619
0.00498845312054
0.00498845363199
0.00498845413596
0.00498845462934
0.00498845510863
0.00498845557164
0.00498845601577
0.00498845643964
0.00498845684145
0.00498845722047
0.00498845757556
0.00498845790655
0.00498845821284
0.00498845849472
0.00498845875202
0.00498845898543
0.00498845919517
0.00498845938225
0.00498845954726
0.00498845969158
0.0049884598163
0.00498845992306
0.00498846001321
0.00498846008866
0.00498846015109
0.00498846020267
0.0049884602453
0.00498846028126
0.00498846031243
0.00498846034089
0.00498846036809
0.00498846039532
0.00498846042294
0.00498846045066
0.00498846047696
0.00498846049929
0.00498846051366
0.00498846051506
0.00498846049747
0.0049884604545
0.00498846038002
0.00498846026918
0.0049884601195
0.00498845993223
0.00498845971398
0.00498845947855
0.00498845828069
0.00498859435283
0.00498859346936
0.00498859348882
0.00498859351418
0.00498859354366
0.00498859357219
0.00498859359627
0.00498859360963
0.00498859360876
0.00498859358794
0.00498859354485
0.00498859347542
0.00498859337952
0.00498859325545
0.00498859310563
0.00498859293088
0.00498859273601
0.00498859252387
0.00498859230089
0.00498859207096
0.00498859184103
0.00498859161481
0.00498859139855
0.0049885911947
0.00498859100788
0.00498859083859
0.00498859068937
0.00498859055863
0.00498859044697
0.00498859035107
0.00498859027011
0.00498859019972
0.00498859013835
0.00498859008126
0.00498859002679
0.00498858997039
0.00498858991074
0.00498858984379
0.00498858976878
0.00498858968233
0.00498858958431
0.00498858947202
0.00498858934592
0.00498858920397
0.0049885890469
0.00498858887388
0.00498858868709
0.00498858848558
0.00498858827108
0.00498858804301
0.00498858780331
0.00498858755175
0.00498858729043
0.00498858701938
0.00498858674081
0.00498858645494
0.00498858616406
0.00498858586854
0.00498858557069
0.00498858527099
0.00498858497174
0.00498858467352
0.00498858437863
0.0049885840877
0.00498858380305
0.00498858352541
0.00498858325713
0.00498858299905
0.00498858275364
0.0049885825219
0.00498858230645
0.00498858210855
0.00498858193104
0.00498858177547
0.00498858164496
0.0049885815414
0.00498858146822
0.00498858142764
0.00498858142339
0.00498858145799
0.00498858153532
0.00498858165787
0.00498858182904
0.00498858205015
0.00498858232241
0.00498858264394
0.00498858301167
0.00498858341679
0.00498858385396
0.0049885843193
0.00498858480702
0.00498858531048
0.00498858582449
0.00498858634324
0.00498858686239
0.00498858737708
0.00498858788386
0.00498858837883
0.00498858885941
0.0049885893226
0.00498858976664
0.00498859018938
0.00498859058977
0.00498859096638
0.00498859131882
0.00498859164629
0.00498859194892
0.00498859222646
0.00498859247949
0.00498859270824
0.00498859291367
0.00498859309642
0.0049885932579
0.0049885933993
0.00498859352234
0.00498859362841
0.00498859371949
0.00498859379727
0.00498859386395
0.00498859392139
0.00498859397181
0.00498859401703
0.00498859405896
0.00498859409889
0.0049885941379
0.00498859417612
0.00498859421302
0.00498859424682
0.00498859427472
0.00498859429252
0.00498859429494
0.00498859427565
0.00498859422785
0.00498859414482
0.00498859402086
0.00498859385234
0.00498859363901
0.00498859338538
0.00498859310267
0.00498859195319
0.00498872766224
0.0049887267737
0.00498872679802
0.00498872682787
0.00498872686166
0.00498872689432
0.00498872692246
0.00498872693993
0.00498872694319
0.00498872692646
0.00498872688745
0.00498872682201
0.00498872672994
0.00498872660945
0.00498872646292
0.00498872629107
0.00498872609868
0.00498872588856
0.00498872566714
0.0049887254383
0.00498872520904
0.00498872498308
0.00498872476675
0.00498872456255
0.00498872437517
0.00498872420519
0.00498872405524
0.00498872392382
0.00498872381166
0.00498872371552
0.00498872363473
0.00498872356497
0.00498872350483
0.00498872344962
0.00498872339778
0.00498872334476
0.00498872328927
0.00498872322725
0.0049887231579
0.00498872307778
0.00498872298667
0.00498872288176
0.0049887227634
0.0049887226294
0.00498872248032
0.00498872231497
0.00498872213546
0.004988721941
0.00498872173314
0.00498872151112
0.00498872127675
0.00498872102961
0.0049887207717
0.00498872050293
0.00498872022543
0.00498871993935
0.00498871964695
0.00498871934859
0.00498871904661
0.00498871874153
0.00498871843575
0.00498871812994
0.00498871782655
0.00498871752638
0.00498871723194
0.00498871694414
0.00498871666558
0.00498871639734
0.0049887161421
0.00498871590112
0.00498871567724
0.00498871547193
0.0049887152882
0.00498871512776
0.00498871499383
0.00498871488833
0.00498871481467
0.00498871477495
0.00498871477268
0.00498871481002
0.00498871489036
0.00498871501553
0.00498871518817
0.00498871540887
0.0049887156783
0.00498871599452
0.00498871635534
0.00498871675512
0.00498871718666
0.00498871764472
0.00498871812663
0.00498871862634
0.00498871913892
0.00498871965876
0.00498872018157
0.00498872070242
0.00498872121773
0.00498872172341
0.00498872221668
0.00498872269428
0.00498872315421
0.00498872359404
0.00498872401247
0.00498872440785
0.00498872477956
0.00498872512659
0.00498872544891
0.00498872574612
0.00498872601869
0.00498872626673
0.00498872649114
0.00498872669247
0.0049887268721
0.00498872703124
0.00498872717162
0.0049887272946
0.00498872740212
0.00498872749584
0.00498872757788
0.00498872765004
0.00498872771444
0.00498872777275
0.00498872782673
0.0049887278775
0.00498872792593
0.00498872797195
0.00498872801484
0.00498872805263
0.00498872808233
0.0049887280996
0.00498872809899
0.00498872807395
0.00498872801742
0.00498872792223
0.00498872778214
0.00498872759283
0.00498872735333
0.00498872706748
0.00498872674631
0.00498872566712
0.00498886097965
0.00498886008805
0.00498886011735
0.00498886015239
0.00498886019149
0.00498886022982
0.00498886026405
0.00498886028798
0.00498886029816
0.0049888602888
0.00498886025747
0.00498886019995
0.00498886011593
0.00498886000348
0.00498885986486
0.00498885970065
0.00498885951554
0.0049888593122
0.004988859097
0.00498885887373
0.00498885864934
0.00498885842752
0.00498885821455
0.00498885801293
0.00498885782736
0.00498885765843
0.00498885750886
0.0049888573772
0.00498885726428
0.00498885716696
0.00498885708472
0.00498885701336
0.00498885695161
0.0049888568949
0.0049888568418
0.00498885678782
0.00498885673178
0.00498885666964
0.00498885660065
0.00498885652134
0.00498885643149
0.00498885632822
0.00498885621183
0.00498885608001
0.00498885593347
0.00498885577034
0.00498885559252
0.00498885539979
0.00498885519355
0.00498885497291
0.00498885473956
0.00498885449296
0.00498885423504
0.00498885396561
0.00498885368677
0.00498885339862
0.00498885310343
0.00498885280154
0.00498885249535
0.00498885218543
0.00498885187428
0.00498885156265
0.00498885125313
0.00498885094666
0.0049888506459
0.00498885035193
0.00498885006753
0.00498884979394
0.00498884953403
0.0049888492892
0.00498884906246
0.00498884885537
0.00498884867106
0.00498884851127
0.00498884837925
0.00498884827685
0.00498884820739
0.0049888481728
0.00498884817632
0.00498884821976
0.00498884830605
0.0049888484365
0.00498884861318
0.00498884883616
0.00498884910578
0.00498884942006
0.00498884977702
0.0049888501725
0.0049888506018
0.00498885105715
0.0049888515348
0.00498885203129
0.00498885254218
0.00498885306209
0.00498885358686
0.00498885411162
0.00498885463278
0.00498885514619
0.00498885564897
0.00498885613772
0.00498885661028
0.00498885706404
0.00498885749754
0.00498885790892
0.00498885829739
0.00498885866177
0.00498885900187
0.00498885931712
0.00498885960787
0.00498885987409
0.00498886011658
0.00498886033579
0.00498886053298
0.00498886070932
0.00498886086654
0.0049888610059
0.00498886112929
0.00498886123825
0.00498886133482
0.00498886142065
0.00498886149775
0.00498886156762
0.00498886163187
0.00498886169142
0.00498886174696
0.00498886179823
0.00498886184435
0.0049888618832
0.00498886191169
0.00498886192536
0.0049888619187
0.00498886188506
0.00498886181723
0.00498886170787
0.00498886155049
0.00498886134059
0.00498886107722
0.0049888607647
0.00498886041552
0.00498885941798
0.00498899431997
0.00498899342902
0.0049889934633
0.00498899350383
0.00498899354909
0.00498899359416
0.00498899363584
0.00498899366805
0.00498899368726
0.00498899368759
0.00498899366661
0.00498899361991
0.00498899354705
0.0049889934459
0.00498899331855
0.00498899316539
0.00498899299094
0.0049889927977
0.00498899259191
0.00498899237722
0.00498899216048
0.00498899194524
0.00498899173777
0.00498899154044
0.004988991358
0.00498899119098
0.00498899104218
0.00498899091017
0.00498899079594
0.00498899069643
0.0049889906113
0.00498899053649
0.00498899047093
0.00498899041017
0.00498899035297
0.00498899029496
0.00498899023509
0.00498899016938
0.00498899009719
0.00498899001506
0.00498898992281
0.00498898981754
0.00498898969952
0.00498898956642
0.00498898941892
0.00498898925448
0.00498898907512
0.00498898888102
0.00498898867351
0.00498898845159
0.00498898821687
0.00498898796874
0.00498898770904
0.00498898743754
0.00498898715629
0.00498898686538
0.00498898656706
0.00498898626172
0.00498898595177
0.00498898563785
0.00498898532252
0.00498898500664
0.00498898469291
0.00498898438236
0.00498898407781
0.00498898378046
0.00498898349322
0.00498898321747
0.00498898295619
0.00498898271092
0.00498898248472
0.00498898227926
0.00498898209768
0.00498898194174
0.00498898181464
0.00498898171816
0.00498898165547
0.00498898162831
0.00498898163965
0.00498898169099
0.00498898178486
0.00498898192215
0.00498898210448
0.00498898233157
0.00498898260352
0.00498898291831
0.00498898327414
0.00498898366719
0.00498898409404
0.0049889845493
0.00498898502654
0.00498898552098
0.00498898603054
0.00498898655036
0.00498898707642
0.00498898760391
0.00498898812931
0.00498898864848
0.0049889891585
0.00498898965593
0.0049889901385
0.00498899060351
0.00498899104936
0.00498899147406
0.00498899187668
0.0049889922559
0.00498899261139
0.00498899294245
0.00498899324929
0.00498899353177
0.00498899379055
0.00498899402598
0.00498899423914
0.00498899443114
0.0049889946037
0.00498899475799
0.00498899489577
0.00498899501846
0.00498899512797
0.00498899522583
0.00498899531387
0.00498899539344
0.00498899546595
0.00498899553217
0.0049889955926
0.00498899564683
0.00498899569384
0.00498899573139
0.00498899575635
0.00498899576421
0.00498899574946
0.0049889957055
0.00498899562513
0.00498899550107
0.00498899532689
0.00498899509831
0.00498899481498
0.00498899448246
0.00498899411563
0.00498899320327
0.00498912769539
0.00498912681007
0.00498912684933
0.00498912689564
0.00498912694743
0.00498912699998
0.00498912705018
0.00498912709184
0.00498912712155
0.00498912713336
0.00498912712467
0.00498912709091
0.00498912703146
0.00498912694394
0.00498912683022
0.00498912669045
0.00498912652894
0.00498912634797
0.00498912615362
0.00498912594934
0.00498912574184
0.00498912553455
0.00498912533364
0.00498912514141
0.00498912496257
0.00498912479765
0.00498912464949
0.00498912451673
0.0049891244005
0.00498912429786
0.00498912420867
0.00498912412904
0.00498912405811
0.0049891239916
0.00498912392849
0.00498912386453
0.00498912379886
0.0049891237276
0.0049891236502
0.00498912356326
0.00498912346665
0.00498912335749
0.00498912323606
0.00498912309999
0.00498912295001
0.00498912278287
0.00498912260056
0.00498912240368
0.00498912219363
0.00498912196935
0.00498912173237
0.00498912148201
0.00498912122006
0.00498912094621
0.0049891206625
0.00498912036899
0.00498912006793
0.00498911975972
0.0049891194468
0.00498911912987
0.00498911881156
0.00498911849279
0.00498911817636
0.0049891178634
0.00498911755684
0.00498911725798
0.00498911696985
0.00498911669391
0.00498911643326
0.00498911618949
0.00498911596576
0.00498911576374
0.00498911558662
0.0049891154361
0.00498911531534
0.00498911522603
0.00498911517118
0.00498911515234
0.00498911517226
0.00498911523212
0.00498911533414
0.00498911547886
0.00498911566757
0.0049891158997
0.00498911617517
0.00498911649192
0.00498911684828
0.00498911724068
0.00498911766607
0.00498911811968
0.00498911859806
0.00498911909335
0.00498911960203
0.00498912012201
0.00498912064891
0.00498912117833
0.00498912170675
0.00498912223014
0.00498912274558
0.00498912324961
0.00498912373992
0.00498912421373
0.00498912466939
0.00498912510481
0.00498912551895
0.00498912591039
0.00498912627868
0.00498912662301
0.00498912694348
0.00498912723982
0.00498912751261
0.00498912776205
0.00498912798904
0.00498912819456
0.0049891283804
0.00498912854758
0.00498912869774
0.00498912883219
0.00498912895267
0.00498912906057
0.00498912915755
0.0049891292448
0.00498912932356
0.00498912939442
0.00498912945775
0.00498912951297
0.00498912955896
0.00498912959345
0.00498912961325
0.00498912961391
0.00498912959002
0.00498912953511
0.00498912944217
0.00498912930414
0.00498912911495
0.00498912887082
0.00498912857233
0.0049891282267
0.00498912785156
0.00498912702296
0.00498926111696
0.00498926024338
0.00498926028748
0.00498926033954
0.00498926039818
0.00498926045862
0.00498926051786
0.00498926056989
0.00498926061118
0.00498926063564
0.00498926064063
0.00498926062133
0.00498926057686
0.00498926050457
0.00498926040607
0.00498926028119
0.00498926013403
0.00498925996657
0.00498925978473
0.00498925959173
0.00498925939416
0.00498925919529
0.00498925900121
0.00498925881413
0.00498925863877
0.00498925847563
0.00498925832767
0.00498925819359
0.00498925807467
0.00498925796814
0.00498925787407
0.00498925778875
0.00498925771157
0.00498925763845
0.00498925756856
0.00498925749785
0.0049892574256
0.00498925734806
0.0049892572648
0.00498925717247
0.00498925707101
0.00498925695753
0.00498925683232
0.00498925669297
0.00498925654011
0.00498925637115
0.00498925618668
0.00498925598664
0.00498925577399
0.00498925554745
0.00498925530845
0.00498925505621
0.00498925479247
0.00498925451684
0.00498925423133
0.00498925393597
0.00498925363301
0.00498925332284
0.00498925300795
0.00498925268905
0.00498925236885
0.00498925204833
0.00498925173036
0.00498925141616
0.00498925110875
0.00498925080952
0.0049892505216
0.00498925024652
0.00498924998747
0.0049892497461
0.00498924952561
0.0049892493277
0.00498924915555
0.00498924901084
0.00498924889667
0.00498924881461
0.00498924876755
0.00498924875687
0.00498924878508
0.00498924885314
0.00498924896298
0.00498924911486
0.0049892493098
0.00498924954701
0.00498924982628
0.00498925014551
0.00498925050311
0.00498925089569
0.00498925132043
0.00498925177304
0.00498925224991
0.00498925274613
0.00498925325625
0.00498925377586
0.00498925430334
0.00498925483367
0.00498925536391
0.00498925589002
0.00498925640914
0.00498925691782
0.00498925741373
0.00498925789406
0.0049892583571
0.00498925880069
0.00498925922375
0.00498925962476
0.00498926000319
0.00498926035813
0.00498926068959
0.00498926099721
0.00498926128146
0.00498926154245
0.00498926178087
0.00498926199751
0.00498926219426
0.00498926237203
0.00498926253232
0.00498926267631
0.00498926280561
0.00498926292144
0.00498926302532
0.00498926311826
0.00498926320135
0.00498926327503
0.00498926333952
0.00498926339415
0.00498926343772
0.00498926346792
0.00498926348163
0.00498926347449
0.00498926344126
0.00498926337569
0.00498926327111
0.00498926312085
0.00498926291932
0.00498926266346
0.00498926235493
0.00498926200272
0.00498926162719
0.00498926087829
0.00498939459519
0.00498939374037
0.00498939378917
0.00498939384694
0.00498939391229
0.00498939398075
0.00498939404944
0.00498939411222
0.0049893941657
0.0049893942037
0.00498939422332
0.00498939421949
0.00498939419108
0.00498939413506
0.00498939405273
0.00498939394358
0.00498939381143
0.00498939365799
0.00498939348896
0.00498939330735
0.00498939311964
0.00498939292894
0.00498939274132
0.0049893925589
0.00498939238645
0.0049893922245
0.0049893920761
0.00498939194008
0.0049893918179
0.00498939170698
0.00498939160761
0.0049893915163
0.00498939143269
0.00498939135288
0.00498939127628
0.00498939119899
0.0049893911205
0.00498939103711
0.00498939094856
0.00498939085152
0.00498939074599
0.00498939062909
0.0049893905011
0.00498939035956
0.00498939020506
0.00498939003546
0.00498938984989
0.00498938964804
0.00498938943398
0.00498938920634
0.00498938896649
0.00498938871355
0.00498938844919
0.00498938817295
0.00498938788681
0.00498938759074
0.00498938728699
0.00498938697594
0.00498938666012
0.00498938634024
0.00498938601908
0.00498938569766
0.00498938537894
0.0049893850642
0.00498938475654
0.00498938445745
0.00498938417012
0.00498938389617
0.00498938363886
0.00498938339988
0.0049893831825
0.0049893829884
0.00498938282079
0.00498938268131
0.00498938257299
0.00498938249733
0.0049893824571
0.00498938245349
0.00498938248887
0.00498938256395
0.00498938268047
0.00498938283842
0.00498938303863
0.00498938328013
0.0049893835626
0.00498938388391
0.0049893842425
0.0049893846351
0.00498938505911
0.00498938551038
0.00498938598558
0.00498938648011
0.00498938698997
0.00498938751052
0.00498938803774
0.0049893885682
0.00498938909874
0.00498938962594
0.00498939014701
0.00498939065838
0.00498939115777
0.00498939164235
0.00498939211038
0.00498939255967
0.00498939298909
0.00498939339705
0.00498939378297
0.00498939414586
0.00498939448566
0.00498939480192
0.00498939509502
0.00498939536499
0.0049893956124
0.00498939583777
0.00498939604298
0.00498939622893
0.00498939639704
0.00498939654833
0.00498939668428
0.00498939680597
0.00498939691476
0.00498939701153
0.00498939709722
0.00498939717213
0.00498939723638
0.00498939728921
0.00498939732939
0.00498939735464
0.0049893973619
0.00498939734698
0.00498939730487
0.00498939722966
0.00498939711508
0.00498939695493
0.00498939674425
0.00498939648077
0.00498939616725
0.00498939581435
0.00498939544487
0.00498939477047
0.00498952814077
0.0049895273126
0.00498952736575
0.00498952742881
0.00498952750075
0.00498952757707
0.00498952765508
0.00498952772888
0.00498952779493
0.00498952784687
0.00498952788173
0.00498952789404
0.00498952788233
0.00498952784317
0.00498952777748
0.00498952768436
0.00498952756732
0.00498952742777
0.00498952727123
0.00498952710049
0.00498952692196
0.00498952673864
0.0049895265566
0.00498952637795
0.00498952620754
0.00498952604596
0.00498952589645
0.00498952575794
0.00498952563216
0.00498952551668
0.00498952541207
0.00498952531504
0.0049895252255
0.00498952513971
0.00498952505734
0.00498952497461
0.00498952489117
0.00498952480343
0.00498952471122
0.00498952461124
0.00498952450353
0.00498952438519