/*--------------------------------*- C++ -*----------------------------------*\
| =========                 |                                                 |
| \\      /  F ield         | OpenFOAM: The Open Source CFD Toolbox           |
|  \\    /   O peration     | Version:  2206                                  |
|   \\  /    A nd           | Website:  www.openfoam.com                      |
|    \\/     M anipulation  |                                                 |
\*---------------------------------------------------------------------------*/
FoamFile
{
    version     2.0;
    format      ascii;
    arch        "LSB;label=64;scalar=64";
    class       volScalarField;
    location    "3.7/water";
    object      epsilon.gas;
}
// * * * * * * * * * * * * * * * * * * * * * * * * * * * * * * * * * * * * * //

dimensions      [0 2 -3 0 0 0 0];

internalField   nonuniform List<scalar> 
23300
(
0.00606043938218
0.00617145230243
0.0063227628998
0.00652220251732
0.00676906172397
0.00706410483279
0.00740952360416
0.00780846568398
0.00826479646183
0.00878273760305
0.00936671789513
0.0100210258542
0.0107496525609
0.011555913973
0.012442265139
0.0134099106781
0.0144586346234
0.0155864703436
0.0167896388784
0.0180623767668
0.0193970786118
0.0207843496763
0.0222133816117
0.0236722016869
0.0251481989179
0.0266284393087
0.0281001845835
0.0295511143736
0.0309697085155
0.0323452912817
0.0336682510925
0.034929928745
0.0361227345081
0.0372399550431
0.0382758422539
0.0392253986276
0.0400844784758
0.0408495730362
0.0415179291595
0.0420873299755
0.0425562174048
0.0429234513703
0.0431884084841
0.0433506769256
0.0434100407504
0.0433681982423
0.0432278460113
0.042991397303
0.0426614838621
0.0422408939726
0.0417328090276
0.0411406330186
0.0404681794965
0.0397194856851
0.0388989860663
0.0380113286883
0.0370615385806
0.0360548393446
0.0349968038163
0.033893180054
0.0327500261619
0.0315735385991
0.0303701683522
0.029146449396
0.0279090942752
0.0266648213044
0.0254204290053
0.024182622116
0.0229580662816
0.0217532153175
0.0205743510439
0.0194274192267
0.0183180671787
0.0172515068108
0.0162325775396
0.0152656733784
0.014354881109
0.0135040364436
0.0127170288482
0.0119981238111
0.0113526646204
0.0107880684784
0.0103156459276
0.00995329291629
0.00972739185638
0.00965109796462
0.00968975057346
0.00980956113538
0.00998885054478
0.0102137558455
0.0104748761382
0.0107652313702
0.011079159233
0.0114116226671
0.0117578754417
0.0121132165907
0.0124729217542
0.0128321623381
0.0131860402657
0.0135295755787
0.0138577854658
0.0141657024425
0.0144484713727
0.0147013787464
0.0149199517293
0.0150999856295
0.0152376342948
0.0153294278706
0.0153723485143
0.0153638339263
0.0153018326564
0.015184784079
0.0150116496757
0.0147823091369
0.0144972556476
0.0141576258137
0.0137652663457
0.0133227564898
0.0128334701418
0.012301600196
0.0117322101691
0.0111312409238
0.0105055172711
0.00986268624709
0.00921111442683
0.00855968758486
0.00791753887104
0.00729368155908
0.00669659604934
0.00613379405093
0.00561143309489
0.00513402426765
0.00470428757178
0.00432316807021
0.00399001985982
0.00370295302255
0.00345939082716
0.0032570211167
0.00309566567767
0.00298122785319
0.00704029412268
0.00710990730846
0.0072352648247
0.00741276786313
0.00764077391726
0.00791915155679
0.008248904896
0.00863184140043
0.00907028564479
0.00956681186111
0.0101239938031
0.0107441477895
0.0114290760336
0.0121797990596
0.0129962950769
0.0138772506315
0.0148198506832
0.0158196251941
0.0168703843385
0.0179642597762
0.0190918725053
0.020242624473
0.0214051048543
0.0225675729982
0.0237184775484
0.0248469489261
0.0259432205632
0.0269989263933
0.0280072643222
0.0289630111076
0.0298624248717
0.030703050184
0.0314834849028
0.0322031220925
0.0328619195527
0.0334601883937
0.0339984366302
0.0344772387656
0.0348971574144
0.035258678369
0.0355621840055
0.0358079256826
0.0359960241229
0.0361264642821
0.0361991265528
0.0362142631718
0.0361723453112
0.0360736819426
0.0359185240276
0.0357071354025
0.0354398587707
0.03511715353
0.0347396398933
0.0343081246245
0.0338236373102
0.0332874517769
0.0327011180462
0.032066480348
0.0313857039964
0.0306612881078
0.0298960847555
0.0290933031984
0.028256517853
0.0273896604108
0.0264970132092
0.0255831861113
0.0246530928215
0.0237119108252
0.0227650400755
0.0218180467907
0.0208766074161
0.0199464421961
0.0190332550237
0.0181426738563
0.0172802120087
0.0164512505855
0.0156610662727
0.0149149092292
0.0142181562175
0.013576541464
0.0129964745008
0.0124853958221
0.0120520199867
0.011705970011
0.0114555449978
0.0113016038979
0.0112326934283
0.0112332726049
0.0112892101906
0.0113889732786
0.0115233524542
0.0116848698359
0.0118672456918
0.0120649986688
0.012273175896
0.0124871780688
0.0127026562983
0.0129154540493
0.0131215833247
0.0133172199327
0.0134987147701
0.0136626115033
0.0138056705368
0.013924891877
0.0140175380934
0.0140811515549
0.0141135684894
0.0141129256002
0.0140776630428
0.0140065206904
0.0138985325223
0.0137530178379
0.0135695612044
0.0133481962786
0.0130892786746
0.0127934977905
0.0124619062223
0.012095959573
0.0116975692915
0.0112691641165
0.0108137579915
0.0103350139861
0.00983729381595
0.00932567496043
0.00880591865141
0.00828437070021
0.00776778598176
0.00726307723757
0.00677700525351
0.00631584071144
0.00588503724162
0.00548895384849
0.00513065300123
0.00481177809139
0.00453247988762
0.00429130910626
0.00408489468577
0.00390701739985
0.00374620797109
0.00358086930154
0.00800329441458
0.00805522056831
0.00816077057578
0.00831783954108
0.008525372683
0.00878321085562
0.00909188425092
0.00945240110406
0.009866035252
0.0103341093822
0.0108577756418
0.011437790111
0.0120742864833
0.0127665511513
0.0135128135538
0.0143100628085
0.0151539137315
0.016038539306
0.0169566953422
0.0178998488515
0.0188584233267
0.0198221491955
0.0207805044061
0.0217232003545
0.0226406716809
0.0235245074763
0.0243677848366
0.0251652607188
0.0259134202358
0.0266103791017
0.0272556809606
0.0278500155736
0.028394913648
0.0288924402604
0.0293449290401
0.0297547568673
0.0301241807316
0.030455217892
0.0307495794518
0.0310086315601
0.0312333929875
0.031424544877
0.0315824654394
0.031707271073
0.0317988818292
0.0318566562
0.0318799301357
0.0318679455819
0.0318198796235
0.0317348777551
0.0316120965061
0.0314507378928
0.0312500889577
0.031009553437
0.0307286886664
0.0304072358559
0.0300451553437
0.0296426556754
0.0292002265499
0.0287186652386
0.0281991050625
0.0276430363629
0.0270523272638
0.0264292355838
0.0257764181476
0.0250969299008
0.0243942183012
0.0236721065481
0.0229347706125
0.0221867049561
0.0214326818756
0.0206777012977
0.019926937089
0.0191856799199
0.018459285243
0.0177531300696
0.0170725884892
0.0164230292363
0.0158098389608
0.0152384610865
0.0147144273725
0.0142433274855
0.0138306221962
0.0134811401305
0.0131979902743
0.0129808787377
0.0128254331392
0.0127242528103
0.0126691706439
0.01265231719
0.0126665391691
0.012705467815
0.0127634431233
0.0128353994225
0.0129167589222
0.0130033468068
0.0130913302495
0.0131771767914
0.0132576288089
0.0133296888969
0.0133906138083
0.0134379127801
0.0134693487166
0.0134829387961
0.0134769538495
0.0134499141446
0.013400582153
0.0133279511916
0.0132312316978
0.0131098351438
0.0129633584313
0.0127915700239
0.0125944013332
0.0123719304109
0.012124425802
0.0118523360371
0.0115563119645
0.0112372424559
0.0108963042924
0.0105350238807
0.0101553476738
0.00975971372143
0.00935111465438
0.00893313822493
0.00850997099029
0.00808635111911
0.00766746203377
0.00725876671192
0.00686579369488
0.0064938952297
0.00614800333425
0.00583240728891
0.00555056607192
0.00530495167933
0.00509689353173
0.00492635504251
0.00479150863895
0.00468784158467
0.00460555303321
0.00453867697159
0.0087763046095
0.00882609415438
0.00892588852846
0.00907528243333
0.00927393429388
0.00952175775967
0.00981893082564
0.0101658130289
0.0105628157096
0.0110102423818
0.011508113848
0.0120559824104
0.012652747048
0.0132964751795
0.0139842477342
0.0147120379148
0.015474645554
0.0162656990373
0.0170777451622
0.0179024300787
0.018730777383
0.0195535442411
0.0203616369773
0.0211465409377
0.0219007279356
0.022617987698
0.0232936555367
0.0239247047853
0.0245097114125
0.0250486960336
0.0255428845826
0.0259944133226
0.0264060273243
0.0267807908855
0.027121844135
0.0274322039938
0.0277146254023
0.0279715054487
0.0282048367675
0.028416187602
0.028606714051
0.0287771833967
0.0289280170705
0.029059335917
0.0291710199922
0.0292621029208
0.0293314033575
0.0293776765882
0.0293996264683
0.0293959213878
0.0293652221071
0.0293062064469
0.029217600885
0.0290982071925
0.0289469347508
0.0287628280667
0.0285450994383
0.0282931570123
0.0280066371367
0.027685431833
0.027329719197
0.0269399881331
0.0265170642104
0.026062128679
0.0255767365624
0.0250628265983
0.0245227282545
0.0239591594199
0.0233752194829
0.0227743722967
0.0221604234705
0.0215374876543
0.0209099505652
0.0202824232669
0.0196596945107
0.0190466806377
0.0184483789176
0.0178698225884
0.0173160376052
0.0167919890105
0.0163024997895
0.0158521087792
0.0154448293361
0.0150837700232
0.0147706187612
0.0145051236701
0.0142851662373
0.0141069021233
0.0139653269381
0.0138551104024
0.0137709802512
0.0137079327018
0.0136613276746
0.0136269161945
0.0136008343434
0.013579581829
0.0135599970269
0.0135392324018
0.0135147338663
0.0134842233382
0.0134456853023
0.0133973550809
0.0133377087461
0.0132654522038
0.0131795096356
0.0130790095427
0.0129632693859
0.0128317780331
0.0126841778068
0.0125202461882
0.0123398796381
0.012143080377
0.0119299491996
0.0117005913372
0.01145522273
0.0111941651942
0.0109178668316
0.0106269346165
0.0103221797844
0.0100046741501
0.00967581482599
0.0093373914697
0.00899164863685
0.00864133289604
0.00828971420655
0.00794057168914
0.00759813839866
0.00726700583747
0.00695199719725
0.00665802514255
0.00638995386586
0.00615248372306
0.00595007066791
0.00578688382276
0.00566679613129
0.00559339661361
0.00557000042824
0.00559948310085
0.00568025784333
0.00581859872627
0.00951053196368
0.00955870298673
0.00965501006501
0.00979931728955
0.00999146891558
0.01023134391
0.0105188544857
0.0108538909666
0.0112362292619
0.0116654093875
0.0121405993128
0.0126604498027
0.0132229546581
0.013825322928
0.014463880202
0.0151340073972
0.0158301356183
0.0165458034833
0.0172737908437
0.0180063248298
0.0187353583008
0.0194528976748
0.0201513615484
0.0208239292318
0.0214648510804
0.0220696787196
0.0226353996375
0.0231604556384
0.0236446591907
0.0240890153441
0.0244954874041
0.0248667266402
0.0252058070108
0.0255159768535
0.0258004551875
0.0260622679075
0.0263041370226
0.0265284062537
0.0267370089422
0.0269314577173
0.0271128612952
0.0272819490368
0.0274391109192
0.0275844365823
0.0277177645822
0.0278381631645
0.0279442278227
0.0280345075679
0.0281075121424
0.0281617204133
0.0281955997295
0.0282076232294
0.0281962945857
0.0281601689573
0.0280978799425
0.028008162542
0.0278898814616
0.0277420554941
0.0275638865069
0.02735478433
0.0271143951818
0.0268426254444
0.0265396675581
0.0262060203809
0.025842510006
0.025450303967
0.0250309241742
0.0245862521453
0.0241185313254
0.0236303607043
0.0231246840532
0.0226047696651
0.0220741846398
0.021536759486
0.0209965471223
0.020457773001
0.01992478007
0.0194019647732
0.0188937047751
0.0184042703113
0.0179377133307
0.0174977212739
0.0170874296326
0.016709194084
0.0163643525133
0.0160530422309
0.0157741722667
0.0155260521757
0.0153058136914
0.0151100503929
0.0149351787027
0.0147776256018
0.0146339544164
0.0145009401868
0.0143756100169
0.0142552590185
0.014137452473
0.0140200191612
0.0139010414346
0.0137788429943
0.0136519768331
0.0135192122558
0.0133795220751
0.0132320683832
0.0130761878672
0.0129113754376
0.0127372675275
0.0125536244287
0.0123603134393
0.0121572927181
0.0119445979267
0.0117223319495
0.0114906598584
0.0112496861192
0.0109995829682
0.0107405957515
0.0104730635224
0.010197449795
0.00991438402506
0.0096247122609
0.00932955514217
0.00903036886627
0.0087290039597
0.0084277547246
0.00812939268628
0.00783717824798
0.00755484870699
0.00728658586359
0.00703697344572
0.00681096091655
0.0066138553097
0.00645136491152
0.00632971883981
0.00625588732371
0.00623793384687
0.0062855466688
0.00641081260895
0.0066291823311
0.00695814866502
0.00742590821206
0.0102138703575
0.0102610327022
0.0103552650784
0.0104964238507
0.0106843084201
0.0109186514529
0.0111990902424
0.0115251101641
0.0118959666274
0.0123105875857
0.0127674689356
0.0132645673609
0.0137992049075
0.014367990805
0.0149667759634
0.0155906450556
0.0162339603927
0.0168904581525
0.0175534051173
0.0182158063643
0.0188706606231
0.0195112395702
0.0201313756803
0.0207257245425
0.0212899834152
0.021821035254
0.0223170130724
0.0227772717331
0.0232022844887
0.0235934709135
0.02395298935
0.024283507211
0.0245879822703
0.0248694605273
0.0251309132085
0.0253751058577
0.0256045114695
0.0258212518753
0.026027074152
0.0262233434149
0.0264110582941
0.0265908712622
0.0267631217674
0.026927866831
0.0270849203122
0.0272335937897
0.0273723997437
0.0274998098063
0.0276142640257
0.027714176813
0.0277979517632
0.0278639940311
0.0279107300316
0.0279366237196
0.0279401989749
0.0279200582952
0.0278749068873
0.0278035730615
0.0277050333462
0.0275784337848
0.0274231150782
0.027238633536
0.0270247847515
0.0267816224564
0.0265094787749
0.0262089788399
0.0258810553755
0.0255269567272
0.0251482533871
0.0247468369928
0.0243249162928
0.0238850044922
0.0234299019307
0.0229626689372
0.0224865923798
0.0220051412605
0.0215219144856
0.0210405764394
0.0205647826782
0.0200980910807
0.0196438600148
0.0192051302118
0.0187844958967
0.0183839716201
0.0180048751956
0.0176477509709
0.0173123618941
0.0169978389035
0.0167033238133
0.0164269083233
0.0161664495798
0.0159197003452
0.0156844152124
0.0154584261675
0.0152396945662
0.0150263423789
0.0148166696406
0.0146091609596
0.0144024860566
0.0141954951649
0.0139872121923
0.0137768250695
0.0135636750987
0.0133472442873
0.0131271422032
0.0129030914705
0.0126749135125
0.0124425139685
0.0122058695148
0.0119650158226
0.0117200384556
0.0114710666296
0.0112182714961
0.0109617390857
0.0107015972512
0.0104380353042
0.010171325408
0.00990185232619
0.00963015202988
0.00935695788157
0.00908325324554
0.0088103274694
0.00853983208345
0.00827383290292
0.00801485478045
0.00776591704104
0.00753056158183
0.0073128805776
0.00711755791785
0.00694994634301
0.00681621126692
0.00672358215014
0.00668076524631
0.00669859191521
0.00679101391899
0.00697662719602
0.00728102368871
0.00774036690793
0.00840517641428
0.00935085553731
0.0108913557286
0.0109381613962
0.0110316211025
0.0111714999573
0.0113574554257
0.0115890045211
0.0118654821271
0.0121859831054
0.0125492941217
0.012953815649
0.0133974856338
0.0138777079842
0.0143912992002
0.0149344560955
0.0155027572255
0.0160911985824
0.0166942731448
0.0173060895914
0.0179205339558
0.0185314612885
0.0191329132393
0.0197193395788
0.0202858134173
0.0208282135603
0.0213433651489
0.0218291169869
0.0222843580733
0.0227089648268
0.0231036970362
0.0234700461943
0.0238100637708
0.0241261759612
0.024421011397
0.0246972420851
0.0249574565213
0.0252040563041
0.0254391879461
0.0256646950805
0.0258820991557
0.0260925916887
0.026297045703
0.0264960298281
0.026689833671
0.0268784895013
0.0270618005473
0.0272393577473
0.0274097618448
0.0275714530287
0.02772284591
0.0278623360673
0.0279883117606
0.0280991623518
0.0281932939909
0.0282691420724
0.0283251899158
0.0283599838411
0.0283721536692
0.0283604295154
0.0283236633331
0.0282608466409
0.0281711322396
0.028053851854
0.0279085368528
0.0277349344585
0.0275330259785
0.0273030399375
0.0270454660674
0.0267610634918
0.0264508685185
0.026116195801
0.0257586377313
0.025380056181
0.0249825708706
0.0245685388003
0.0241405284906
0.0237012838745
0.0232536813014
0.0228006752035
0.0223452360568
0.0218902774819
0.0214385772175
0.0209926914037
0.020554869822
0.0201269759129
0.0197104231055
0.0193061341154
0.0189145334539
0.0185355722478
0.0181690267341
0.0178148691464
0.0174721625762
0.0171398300099
0.0168167209389
0.0165016701619
0.0161935434892
0.0158912702919
0.0155938660369
0.0153004455639
0.0150102307111
0.0147225522204
0.0144368486135
0.0141526614374
0.0138696289829
0.013587477695
0.0133060131023
0.0130251095337
0.0127447003389
0.01246476803
0.0121853360164
0.0119064615355
0.0116282314011
0.0113507602682
0.0110741927981
0.0107985873598
0.0105240213082
0.0102506319164
0.00997863871631
0.00970837275213
0.009440313223
0.00917513052081
0.00891373512849
0.0086573304896
0.00840746841699
0.00816610512875
0.00793565762605
0.00771906194381
0.00751983915453
0.00734218059096
0.00719107228001
0.00707248961528
0.00699370894504
0.0069638052185
0.00699444007066
0.00710110352723
0.0073050768559
0.00763657808626
0.00813991759246
0.00888211457501
0.00996641784312
0.01155622209
0.0115484166529
0.0115955272136
0.0116895192708
0.011830024974
0.0120165082672
0.0122482251403
0.0125241796692
0.01284307031
0.0132032338846
0.0136025874789
0.0140385800037
0.0145081551752
0.0150077375269
0.0155332413409
0.0160801116426
0.01664339324
0.0172178332163
0.0177980078846
0.018378475271
0.0189539387451
0.0195194189673
0.0200704154758
0.020603053676
0.0211141978577
0.0216015294554
0.0220635757965
0.0224996969849
0.0229100242761
0.0232953670774
0.0236570883698
0.0239969708692
0.0243170744225
0.024619605897
0.024906797604
0.0251808108034
0.0254436544837
0.0256971314336
0.0259427976911
0.0261819449888
0.0264155906678
0.0266444842085
0.026869114979
0.0270897309785
0.027306354588
0.0275188072657
0.0277267330624
0.0279291977879
0.0281245856855
0.028311281917
0.028487667362
0.0286521231267
0.0288030338557
0.0289387994633
0.0290578441345
0.029158631897
0.0292396786295
0.0292995695942
0.0293369731458
0.0293506592373
0.0293395139678
0.0293025582255
0.0292389621839
0.0291480631247
0.0290293788211
0.0288826233982
0.0287077183573
0.0285048051489
0.0282742524129
0.0280166637573
0.0277328795935
0.0274239783836
0.0270912711734
0.0267362942432
0.0263607940869
0.025966709085
0.0255561425328
0.0251313311752
0.0246946047366
0.0242483409428
0.0237949130038
0.0233366351343
0.0228757051055
0.0224141506631
0.0219537802242
0.0214961445395
0.0210425091409
0.0205938422692
0.0201508163313
0.0197138252778
0.0192833407813
0.0188602483153
0.0184444830264
0.0180358741371
0.0176341725225
0.0172390882771
0.0168503159097
0.0164675546412
0.0160905225072
0.0157189669966
0.0153526710207
0.0149914563918
0.014635183866
0.0142837518138
0.0139370926707
0.0135951690507
0.0132579687601
0.0129255004248
0.012597789079
0.0122748733165
0.0119568035037
0.0116436425529
0.0113354688242
0.0110323823695
0.0107344115714
0.0104415744192
0.0101539514291
0.00987170891143
0.0095951280093
0.00932464003244
0.00906086738308
0.00880467009553
0.00855719710009
0.00831994222184
0.00809480501039
0.00788415863573
0.00769092949527
0.00751869818834
0.0073718382313
0.00725571957438
0.00717701947976
0.00714420782562
0.00716831347249
0.00726414594608
0.00745226675951
0.00776222689804
0.00823801595593
0.00894752903039
0.00999958834238
0.0115747289891
0.0139814185716
0.0121909879762
0.0122390869784
0.0123349624426
0.012478084944
0.0126676884522
0.0129027309243
0.0131818551706
0.01350334474
0.0138650837283
0.0142645211442
0.0146986515913
0.0151640123867
0.015656706888
0.0161724501228
0.0167066423169
0.0172544618673
0.0178109796839
0.0183712827901
0.0189306071233
0.0194844653493
0.0200287696364
0.020559934887
0.0210749643635
0.0215715046546
0.0220478757353
0.0225030660438
0.0229367033219
0.0233489946411
0.0237406509734
0.0241127919807
0.0244668487957
0.0248044601363
0.0251273790951
0.0254373833125
0.0257362036167
0.0260254604818
0.0263066209781
0.0265809629883
0.0268495578613
0.0271132570086
0.0273726930811
0.0276282810213
0.027880229757
0.0281285506753
0.0283730751306
0.0286134707506
0.0288493964665
0.029079187043
0.0293011959428
0.0295137820019
0.0297153102093
0.0299041517949
0.0300786930267
0.0302373412891
0.0303785380392
0.0305007681669
0.0306025750734
0.0306825717633
0.0307394568596
0.0307720264598
0.0307791902378
0.0307599832389
0.030713581251
0.0306393116837
0.0305366673334
0.0304053154179
0.0302451087731
0.0300560920199
0.0298385091178
0.0295928055107
0.0293196308111
0.0290198356062
0.0286944678748
0.0283447629903
0.0279721324058
0.0275781454955
0.0271645094478
0.0267330424551
0.0262856452677
0.0258242675112
0.0253508743255
0.0248674109042
0.0243757705602
0.0238777640503
0.0233750945533
0.02286933514
0.022361912003
0.0218540907386
0.0213469693847
0.020841477159
0.0203386650137
0.0198404093982
0.0193474043319
0.0188602196823
0.0183793388562
0.0179051710033
0.0174380623455
0.0169783063471
0.0165261541044
0.0160818219162
0.0156454977547
0.0152173451915
0.0147975066347
0.0143861047721
0.0139832439987
0.0135890109095
0.013203475497
0.0128266922813
0.0124587028923
0.0120995395049
0.0117492305442
0.0114078081525
0.0110753185524
0.0107517646795
0.0104370955211
0.010131326153
0.00983456174905
0.009547026513
0.00926909814
0.00900134735948
0.00874458304952
0.00849990286427
0.00826875056877
0.00805298182231
0.00785494273989
0.00767756856965
0.00752451562479
0.00740034773403
0.00731081179687
0.00726325777345
0.00726729327923
0.00733582299562
0.00748673151506
0.00774567115579
0.00815081127698
0.00876120786916
0.00967215694579
0.0110446413646
0.0131637198912
0.0165551124672
0.0128253918092
0.0128751955213
0.012974371829
0.0131222045515
0.0133176640406
0.0135593727055
0.0138455755291
0.0141741102309
0.0145423871492
0.0149473791738
0.0153856336756
0.0158533044454
0.0163462108388
0.0168599163365
0.0173898284346
0.0179313073055
0.0184797826018
0.019030864313
0.0195804480108
0.0201248018001
0.0206606388105
0.0211851652821
0.0216961121413
0.0221917422557
0.0226708441948
0.0231327052623
0.0235770761277
0.0240041193142
0.0244143547424
0.024808593926
0.0251878768286
0.0255534023762
0.0259064671336
0.0262484021952
0.0265805225969
0.0269040779021
0.027220217514
0.0275299579299
0.027834164665
0.0281335350295
0.0284285938564
0.0287196877946
0.0290069897152
0.0292904984559
0.029570044566
0.0298452863483
0.030116492501
0.0303820438739
0.0306402672261
0.0308894815011
0.0311280136547
0.03135420029
0.0315663943713
0.0317629684058
0.0319423248806
0.0321029031367
0.0322431923231
0.0323617402328
0.0324571673077
0.032528176283
0.0325735663198
0.0325922426489
0.0325832301019
0.0325456820479
0.0324788926495
0.0323823044164
0.0322555185228
0.0320983002943
0.0319105868918
0.0316924900008
0.0314443001235
0.0311664856787
0.0308596930932
0.0305247415192
0.0301626180008
0.0297744672323
0.0293615814846
0.0289253854942
0.0284674217985
0.027989332083
0.0274928399427
0.0269797311656
0.0264518363461
0.0259110116974
0.0253591215628
0.0247980180664
0.0242295209799
0.0236553946458
0.023077326839
0.0224969091473
0.0219156244013
0.0213348331257
0.0207575860549
0.0201850999465
0.0196185730875
0.0190590806407
0.0185075781374
0.0179649059236
0.0174317984022
0.0169088916201
0.0163967309152
0.0158957773669
0.0154064145985
0.0149289544843
0.0144636433449
0.0140106674767
0.0135701595327
0.0131422048329
0.0127268490272
0.0123241064023
0.0119339701786
0.0115564242537
0.0111914575733
0.0108390593608
0.0104991007849
0.0101715218653
0.00985635574262
0.0095537575618
0.00926403843292
0.00898770414769
0.00872549949871
0.00847845882036
0.00824796490249
0.00803581934651
0.00784433039729
0.00767642784992
0.00753582124207
0.00742722716135
0.00735670762333
0.00733218776246
0.0073642669358
0.00746751971549
0.00766263804778
0.00798006831303
0.00846641379098
0.0091961907411
0.0102944873324
0.0119830462012
0.0146786972183
0.0192077642439
0.0134582078793
0.0135104709198
0.0136144410772
0.0137691890848
0.0139733853583
0.0142252735515
0.0145226550163
0.0148628776221
0.0152428397717
0.0156590098202
0.016107472105
0.0165839949303
0.0170841249775
0.0176032957531
0.0181369485296
0.0186806495514
0.0192302012389
0.0197817325345
0.0203317704414
0.0208772826782
0.0214156999451
0.0219449124977
0.0224632544611
0.0229694722125
0.0234626914489
0.0239423770512
0.0244082985688
0.0248604915918
0.0252992259413
0.025724968374
0.0261383507722
0.0265401311127
0.0269311597575
0.027312338924
0.027684589384
0.0280488124048
0.028405861511
0.0287565115232
0.0291014391548
0.0294412017954
0.0297762281438
0.0301068066697
0.030433085006
0.0307550661389
0.0310726144127
0.0313854580765
0.0316935503969
0.0319964017254
0.0322921580663
0.0325790238702
0.0328552439522
0.0331190877928
0.0333688473822
0.0336028351028
0.0338193909038
0.0340168865002
0.0341937363481
0.0343484044697
0.0344794168527
0.0345853693162
0.0346649402285
0.0347168985611
0.034740116239
0.0347335757779
0.0346963817431
0.0346277674847
0.0345271052692
0.0343939116941
0.0342278560928
0.0340287642304
0.0337966245864
0.0335315899353
0.0332339811251
0.0329042862032
0.0325431614198
0.0321514277472
0.0317300691131
0.0312802265167
0.0308031938939
0.0303004103849
0.0297734543858
0.0292240342381
0.0286539800417
0.0280652312069
0.0274598231329
0.0268398676938
0.0262075308847
0.0255650039712
0.0249144730366
0.0242580854693
0.0235979195043
0.0229359507196
0.0222740342873
0.0216156075942
0.0209627529913
0.0203171628749
0.0196803664343
0.0190537169096
0.0184384117112
0.0178354961836
0.0172458698765
0.0166702936861
0.0161093986939
0.0155636949756
0.0150335815956
0.0145193563327
0.0140212265043
0.0135393197908
0.0130736963763
0.0126243615558
0.0121912800325
0.0117743912223
0.0113736265815
0.0109889774575
0.0106202339492
0.0102672529875
0.00992998415377
0.00960849934396
0.00930302684938
0.00901398977782
0.00874205003158
0.00848815905002
0.00825361825014
0.00804015329702
0.00785000959789
0.00768608046766
0.00755208678647
0.00745283803212
0.00739462343856
0.00738581377068
0.00743781104505
0.00756658869667
0.00779526845895
0.00815859249795
0.00871102445283
0.00954217035619
0.0108078435404
0.0127966884443
0.0160820230888
0.0218791592715
0.0140962336182
0.0141517528579
0.0142620920044
0.0144260789669
0.0146420420431
0.0149077945865
0.0152206371016
0.0155773691021
0.0159743220537
0.0164074124431
0.016872225497
0.0173641215073
0.0178783655523
0.0184102636176
0.0189553000532
0.0195092569598
0.0200683126597
0.020629104718
0.0211887625817
0.0217449032358
0.0222956036299
0.022839349104
0.0233749762922
0.0239016099277
0.024418610867
0.0249255295973
0.0254220777712
0.0259081054795
0.0263835929601
0.0268486407281
0.0273034666762
0.0277483942321
0.0281838428165
0.0286103065843
0.0290283356432
0.0294385071224
0.0298414018371
0.0302375740378
0.0306275300992
0.0310117029401
0.0313904373569
0.0317639721999
0.0321324336578
0.0324958250359
0.0328540270266
0.0332067958584
0.0335537776808
0.0338956887519
0.0342305244394
0.0345563708525
0.0348713692847
0.0351736943422
0.0354615480987
0.0357331544812
0.035986763692
0.036220653848
0.0364331401449
0.0366225798672
0.0367873835201
0.0369260212905
0.0370370348487
0.0371190443323
0.0371707601422
0.0371909899083
0.0371786498564
0.0371327714028
0.0370525118115
0.0369371601763
0.0367861471666
0.0365990502137
0.0363756021749
0.0361156955668
0.0358193899991
0.0354869153381
0.0351186778223
0.0347152621184
0.0342774361118
0.0338061518591
0.0333025489804
0.0327679542423
0.0322038828881
0.0316120355435
0.030994295275
0.0303527185523
0.0296895238308
0.0290070719715
0.0283078423853
0.0275944008524
0.0268693642197
0.0261353602243
0.0253949885349
0.0246507839477
0.0239051826418
0.0231605120698
0.0224198962984
0.0216866904935
0.0209629639179
0.0202505245074
0.0195510133675
0.0188658786665
0.0181963759864
0.0175435742937
0.0169083650117
0.0162914726463
0.0156934674116
0.0151147781123
0.0145557064749
0.0140164416637
0.0134970762038
0.012997622315
0.0125180297495
0.0120582041984
0.0116180267266
0.0111974683041
0.0107962839741
0.010414237384
0.0100511813134
0.00970708885001
0.00938208786542
0.00907649936515
0.00879088133943
0.00852607981058
0.00828329061668
0.00806413688371
0.00787077063802
0.00770601147972
0.00757354328861
0.00747820231032
0.00742641137304
0.00742685181431
0.00749153196221
0.00763753828649
0.00789000801106
0.00828738805866
0.00889120042632
0.00980522366205
0.0112156713465
0.0134815713109
0.0173529849467
0.0245205243016
0.0147465703626
0.0148061899248
0.0149245645326
0.0151002446656
0.0153311667749
0.0156146515821
0.0159474280226
0.0163256728789
0.0167450775891
0.0172009403305
0.0176882920243
0.0182020440148
0.0187371543153
0.0192887898787
0.019852476618
0.0204242150988
0.0210005594916
0.021578646786
0.0221561855418
0.0227314018875
0.0233029622258
0.0238698762383
0.0244314031953
0.024986963136
0.0255360720251
0.0260782943154
0.0266132246181
0.0271404832072
0.0276597319141
0.0281706908256
0.0286731624236
0.0291670443881
0.0296523415315
0.0301291611842
0.0305977066911
0.0310582557361
0.0315111405375
0.0319567172662
0.0323953421481
0.0328273409741
0.0332529887064
0.0336724847579
0.0340859391651
0.0344933536398
0.034894610087
0.0352894469399
0.035677428073
0.0360600870603
0.036435534971
0.0368017779711
0.0371568326232
0.0374987450328
0.0378255936551
0.0381354822111
0.0384265413219
0.0386969273212
0.0389448295513
0.0391684736132
0.0393661314626
0.0395361267422
0.0396768460771
0.0397867454159
0.0398643618104
0.0399083202459
0.0399173455363
0.0398902693643
0.0398260420942
0.0397237398754
0.0395825762657
0.0394019093105
0.0391812528955
0.0389202837246
0.0386188523095
0.0382769897512
0.0378949182426
0.0374730575049
0.0370120345711
0.0365126895161
0.0359760839049
0.0354035048235
0.0347964704247
0.034156729958
0.0334862632486
0.032787272737
0.0320621723706
0.0313135672136
0.0305442283105
0.0297570584174
0.0289550542019
0.0281412625766
0.027318737733
0.0264904974642
0.0256594866604
0.0248285445432
0.0240003897037
0.0231773018728
0.0223643882884
0.0215636402901
0.0207771901441
0.0200068946472
0.0192543701775
0.0185210068162
0.0178079736291
0.0171162307903
0.0164465435254
0.0157994968697
0.0151755124022
0.0145748655309
0.0139977044683
0.0134440698646
0.0129139163325
0.0124071353876
0.0119235814806
0.0114631024236
0.0110255568246
0.0106105932966
0.0102179511308
0.00984748841074
0.00949921511967
0.00917333090119
0.00887026875151
0.00859074641222
0.00833582933752
0.00810701076804
0.00790631815916
0.00773646003512
0.00760103597204
0.007504845939
0.0074543588752
0.00745844179044
0.00752952746656