/*--------------------------------*- C++ -*----------------------------------*\
| =========                 |                                                 |
| \\      /  F ield         | OpenFOAM: The Open Source CFD Toolbox           |
|  \\    /   O peration     | Version:  2206                                  |
|   \\  /    A nd           | Website:  www.openfoam.com                      |
|    \\/     M anipulation  |                                                 |
\*---------------------------------------------------------------------------*/
FoamFile
{
    version     2.0;
    format      ascii;
    arch        "LSB;label=64;scalar=64";
    class       surfaceScalarField;
    location    "3.7/water";
    object      phi.gas;
}
// * * * * * * * * * * * * * * * * * * * * * * * * * * * * * * * * * * * * * //

dimensions      [0 3 -1 0 0 0 0];

oriented        oriented;

internalField   nonuniform List<scalar> 
46280
(
-7.36084336184e-09
2.71845932453e-07
-1.59366733971e-11
2.7182227821e-07
-2.11587530835e-10
2.71736332068e-07
-4.43807807011e-10
2.71631521174e-07
-7.46015733211e-10
2.71512367915e-07
-1.14238868358e-09
2.71379764064e-07
-1.6452846189e-09
2.71239169728e-07
-2.26121114907e-09
2.71093110086e-07
-2.99196522012e-09
2.70948011403e-07
-3.83867431822e-09
2.7080623231e-07
-4.79544885726e-09
2.70674480627e-07
-5.85964097994e-09
2.70554565294e-07
-7.01856270867e-09
2.7045272269e-07
-8.26733799016e-09
2.7036961193e-07
-9.58838390828e-09
2.70310303394e-07
-1.09765998975e-08
2.70273776623e-07
-1.24120277182e-08
2.70263519388e-07
-1.38912293634e-08
2.70276667009e-07
-1.53940915064e-08
2.70315130535e-07
-1.69200183638e-08
2.70374450745e-07
-1.84500397013e-08
2.70455353101e-07
-1.99866244691e-08
2.7055233509e-07
-2.15122364275e-08
2.70665542458e-07
-2.30318141013e-08
2.70789088889e-07
-2.45287952089e-08
2.70923152708e-07
-2.6009528745e-08
2.71062034398e-07
-2.74576496933e-08
2.71206401401e-07
-2.88798252238e-08
2.71351113627e-07
-3.02592250406e-08
2.71497563059e-07
-3.16020882381e-08
2.71641320404e-07
-3.28908964436e-08
2.71784534417e-07
-3.4131249692e-08
2.71923468051e-07
-3.53052119431e-08
2.72060918244e-07
-3.64179934635e-08
2.72193714909e-07
-3.74518402471e-08
2.72325120844e-07
-3.84120411425e-08
2.72452368236e-07
-3.9281682546e-08
2.72578986254e-07
-4.00665777001e-08
2.72702448038e-07
-4.07511877954e-08
2.72826371785e-07
-4.13421436871e-08
2.72948347723e-07
-4.18256070009e-08
2.73071949786e-07
-4.2209127204e-08
2.73194806383e-07
-4.24805900032e-08
2.73320361167e-07
-4.26468917516e-08
2.73446212075e-07
-4.26970707592e-08
2.73575479451e-07
-4.26413525612e-08
2.73705558716e-07
-4.24718324632e-08
2.73839396482e-07
-4.21979515647e-08
2.73974527307e-07
-4.18124166285e-08
2.74113683243e-07
-4.13251942619e-08
2.74254301198e-07
-4.07305769501e-08
2.74398787055e-07
-4.00390178925e-08
2.74544486602e-07
-3.92462720017e-08
2.74693497164e-07
-3.83631880924e-08
2.74843086261e-07
-3.73868779916e-08
2.74995048712e-07
-3.63285219528e-08
2.75146573621e-07
-3.51864857837e-08
2.75299153316e-07
-3.39722197118e-08
2.75449887957e-07
-3.26852322573e-08
2.75599964701e-07
-3.13371670165e-08
2.75746380136e-07
-2.99285398375e-08
2.7589001298e-07
-2.84710856772e-08
2.76027738497e-07
-2.69661733141e-08
2.76160126054e-07
-2.54255036024e-08
2.76283916673e-07
-2.38511310153e-08
2.76399377996e-07
-2.22545901456e-08
2.76503116253e-07
-2.06384751506e-08
2.76595125541e-07
-1.90140538093e-08
2.7667190923e-07
-1.73843812047e-08
2.76733259194e-07
-1.5760448462e-08
2.76775668095e-07
-1.41458295742e-08
2.76798875844e-07
-1.25513797621e-08
2.76799562045e-07
-1.0981424817e-08
2.76777692357e-07
-9.446986502e-09
2.76730487641e-07
-7.95352262783e-09
2.76658602494e-07
-6.5126070887e-09
2.76560380589e-07
-5.13120763419e-09
2.76437907119e-07
-3.82164422956e-09
2.76291594397e-07
-2.59213046501e-09
2.7612619471e-07
-1.45408473307e-09
2.75945818934e-07
-4.11627082626e-10
2.75760011167e-07
5.40055501123e-10
2.75579126772e-07
1.43895810071e-09
2.75419545953e-07
2.3220089653e-09
2.75295463962e-07
3.17001892766e-09
2.75218074309e-07
3.9330882513e-09
2.75188766319e-07
4.63686899898e-09
2.75207146558e-07
5.34903915127e-09
2.75261871758e-07
6.10455189449e-09
2.75336772839e-07
6.90563441468e-09
2.75415315338e-07
7.74456219672e-09
2.75487358038e-07
8.60838527167e-09
2.75544226907e-07
9.48535218593e-09
2.75582230423e-07
1.03624169693e-08
2.75597715498e-07
1.12294772349e-08
2.75590698738e-07
1.20754758807e-08
2.75560390276e-07
1.28926028825e-08
2.75508869323e-07
1.367185147e-08
2.75436934106e-07
1.4407461682e-08
2.75347702389e-07
1.5092163603e-08
2.7524272466e-07
1.5721862181e-08
2.75125464624e-07
1.62907025355e-08
2.74997657991e-07
1.67959283757e-08
2.74862654644e-07
1.72328738403e-08
2.74722014109e-07
1.75999064607e-08
2.74578695151e-07
1.78934328676e-08
2.7443387869e-07
1.81128376089e-08
2.74289993091e-07
1.82555790416e-08
2.74147754458e-07
1.83220430951e-08
2.74009017103e-07
1.83107915311e-08
2.73874021537e-07
1.82232399485e-08
2.73744063682e-07
1.80589953916e-08
2.73618952319e-07
1.78202882254e-08
2.73499540808e-07
1.7507592666e-08
2.73385351157e-07
1.71238438417e-08
2.73276831827e-07
1.66705003698e-08
2.73173242716e-07
1.61514114075e-08
2.73074780637e-07
1.55690527482e-08
2.72980615417e-07
1.49280196319e-08
2.7289083336e-07
1.4231570164e-08
2.72804671237e-07
1.34847186599e-08
2.72722287556e-07
1.26911007842e-08
2.72643196049e-07
1.18556579994e-08
2.72567863946e-07
1.09818856396e-08
2.72496337847e-07
1.00741874631e-08
2.72429651311e-07
9.13569079649e-09
2.72368612858e-07
8.17051176367e-09
2.72314970888e-07
7.18247042664e-09
2.72270293914e-07
6.17758998272e-09
2.72236802022e-07
5.16394499664e-09
2.72216252505e-07
4.15437503028e-09
2.72210374583e-07
3.16704483661e-09
2.72219764724e-07
2.22767870509e-09
2.7224402963e-07
1.37005580818e-09
2.72280901184e-07
6.37780393303e-10
2.72326366941e-07
8.623363148e-11
2.72374263547e-07
-2.14522373431e-10
2.72416618874e-07
-1.95691420951e-10
2.72444230284e-07
-8.35715235167e-09
2.72439847521e-07
2.72417320166e-07
-4.37709931032e-09
2.23021103127e-07
-8.17820996008e-10
2.23069765242e-07
-1.20420465688e-09
2.2310579237e-07
-1.63178636491e-09
2.23152881806e-07
-2.10265663753e-09
2.23212807472e-07
-2.62644895393e-09
2.23283764869e-07
-3.21018803225e-09
2.23365272083e-07
-3.8598758723e-09
2.23455393181e-07
-4.57767767677e-09
2.23553668636e-07
-5.36649496367e-09
2.23657627086e-07
-6.22490740736e-09
2.23766487483e-07
-7.15379007554e-09
2.23877297147e-07
-8.14878441342e-09
2.23988991783e-07
-9.20940654796e-09
2.24098267373e-07
-1.03290228641e-08
2.24203869541e-07
-1.15063118554e-08
2.24302311291e-07
-1.27329939496e-08
2.24392316239e-07
-1.40072890658e-08
2.24470431422e-07
-1.53197556933e-08
2.24535596831e-07
-1.66683469343e-08
2.24584664412e-07
-1.80427416022e-08
2.2461707415e-07
-1.94406465853e-08
2.24630269898e-07
-2.08509813785e-08
2.24624454289e-07
-2.22711301818e-08
2.24597886109e-07
-2.36892907042e-08
2.24551684961e-07
-2.51024332214e-08
2.24484999417e-07
-2.64980958493e-08
2.24399839324e-07
-2.78728469616e-08
2.24296126588e-07
-2.92137730899e-08
2.24176553037e-07
-3.05172559545e-08
2.24041547813e-07
-3.17703588729e-08
2.23894170067e-07
-3.29697098289e-08
2.23735041113e-07
-3.41029327562e-08
2.23567279981e-07
-3.51674169259e-08
2.23391440632e-07
-3.61519170352e-08
2.23210479421e-07
-3.70550064449e-08
2.23024725614e-07
-3.78669671693e-08
2.22836854826e-07
-3.8587771746e-08
2.22646909804e-07
-3.92094009412e-08
2.22457244248e-07
-3.97332398566e-08
2.2226761141e-07
-4.01529520685e-08
2.22080045024e-07
-4.0471211713e-08
2.21894033728e-07
-4.06833114116e-08
2.21711306828e-07
-4.07926259925e-08
2.21531136449e-07
-4.07955401645e-08
2.21355090468e-07
-4.06969222753e-08
2.21182425028e-07
-4.04948829622e-08
2.21014505602e-07
-4.01948143494e-08
2.20850308633e-07
-3.97956430099e-08
2.20690932428e-07
-3.93033725604e-08
2.20535325968e-07
-3.87178771137e-08
2.20384486012e-07
-3.80456608845e-08
2.20237353848e-07
-3.72874748006e-08
2.20094840171e-07
-3.64502685425e-08
2.19955902391e-07
-3.55356023127e-08
2.1982138893e-07
-3.45508232626e-08
2.19690296027e-07
-3.34982299188e-08
2.19563432921e-07
-3.23855136889e-08
2.19439853561e-07
-3.12156294011e-08
2.19320348375e-07
-2.99965455961e-08
2.19204044114e-07
-2.87317690854e-08
2.19091732456e-07
-2.74294509229e-08
2.18982627594e-07
-2.60935170184e-08
2.18877543278e-07
-2.47321738637e-08
2.18775796992e-07
-2.33495988475e-08
2.18678249014e-07
-2.19538878795e-08
2.18584340207e-07
-2.0549268039e-08
2.18495005784e-07
-1.91435236912e-08
2.18409834534e-07
-1.77407006197e-08
2.18329869725e-07
-1.63480437498e-08
2.18254877394e-07
-1.49691734748e-08
2.18186044362e-07
-1.3610558068e-08
2.18123345549e-07
-1.22751421814e-08
2.1806814808e-07
-1.09683530487e-08
2.18020667593e-07
-9.69214056431e-09
2.17982481823e-07
-8.45045878539e-09
2.17954060356e-07
-7.24361135575e-09
2.17937174228e-07
-6.07303590509e-09
2.1793245363e-07
-4.93569264704e-09
2.17941626863e-07
-3.8277173229e-09
2.17964974414e-07
-2.73827178603e-09
2.18003184804e-07
-1.6518546042e-09
2.18054330851e-07
-5.46030022533e-10
2.18114809247e-07
5.79581853158e-10
2.18176013771e-07
1.68370052146e-09
2.18230504653e-07
2.72041999569e-09
2.18273258357e-07
3.67454776269e-09
2.18309624011e-07
4.5569909602e-09
2.18350090253e-07
5.39457028599e-09
2.18401527403e-07
6.20373918563e-09
2.18465902502e-07
6.99435070871e-09
2.18543544298e-07
7.76980518852e-09
2.18632776196e-07
8.53172506912e-09
2.18732520214e-07
9.2785277873e-09
2.18840790953e-07
1.00088159289e-08
2.18956659683e-07
1.07191633379e-08
2.19078516454e-07
1.14070046539e-08
2.19205815896e-07
1.20681632183e-08
2.19337352781e-07
1.26995736301e-08
2.19472907022e-07
1.32967530808e-08
2.1961159199e-07
1.38564607931e-08
2.19753419864e-07
1.43741829679e-08
2.19897732746e-07
1.48467435262e-08
2.20044688337e-07
1.52698312542e-08
2.20193775663e-07
1.56405504262e-08
2.20345219906e-07
1.59550097019e-08
2.20498583814e-07
1.62107946048e-08
2.2065409126e-07
1.64046357294e-08
2.20811315552e-07
1.6534785364e-08
2.20970422308e-07
1.65987834044e-08
2.2113094558e-07
1.65957400749e-08
2.21292950926e-07
1.6524301651e-08
2.21455893967e-07
1.63845487476e-08
2.21619699431e-07
1.61759067825e-08
2.21783719157e-07
1.58994648451e-08
2.21947703685e-07
1.55560266515e-08
2.22110830711e-07
1.51479486441e-08
2.22272609575e-07
1.46774217438e-08
2.22431985731e-07
1.41481437101e-08
2.225881646e-07
1.35637304123e-08
2.22739794825e-07
1.29291741566e-08
2.22885710339e-07
1.22493565146e-08
2.230242005e-07
1.15302489539e-08
2.23153684115e-07
1.07775096829e-08
2.23272086598e-07
9.99742226118e-09
2.23377470447e-07
9.19563410571e-09
2.23467546107e-07
8.37794395219e-09
2.23540279335e-07
7.54938134909e-09
2.23593544855e-07
6.71509309133e-09
2.23625697252e-07
5.88003811864e-09
2.23635332312e-07
5.05018054679e-09
2.23621764479e-07
4.2328440031e-09
2.23584834348e-07
3.43804586124e-09
2.23525248415e-07
2.67913661306e-09
2.23444437675e-07
1.97401767272e-09
2.23344835952e-07
1.34646113348e-09
2.23229930251e-07
8.2942215931e-10
2.23104738996e-07
4.79486287549e-10
2.22976842809e-07
-4.4514057408e-09
2.22853224839e-07
2.22745081489e-07
-4.67267113569e-09
2.31483040113e-07
-9.39766138847e-10
2.31513897206e-07
-1.37078994345e-09
2.31560850701e-07
-1.84503656673e-09
2.31619388955e-07
-2.36764206957e-09
2.31693108285e-07
-2.9465449649e-09
2.31781826489e-07
-3.58829217204e-09
2.31885199426e-07
-4.29901766723e-09
2.32002416261e-07
-5.08065555211e-09
2.32132920683e-07
-5.9356409776e-09
2.32275415864e-07
-6.86159527793e-09
2.32428845536e-07
-7.858162692e-09
2.32591178265e-07
-8.91963691469e-09
2.32760583324e-07
-1.00438520694e-08
2.32934174756e-07
-1.12227968448e-08
2.33109290095e-07
-1.24534341896e-08
2.3328224604e-07
-1.37264586048e-08
2.33449725585e-07
-1.50387163938e-08
2.33607551663e-07
-1.63803908465e-08
2.33752169127e-07
-1.77486589484e-08
2.33879420189e-07
-1.91336144756e-08
2.3398609149e-07
-2.053286292e-08
2.34068649831e-07
-2.19364810468e-08
2.34124813765e-07
-2.33423119404e-08
2.34152205609e-07
-2.47402383054e-08
2.34149903784e-07
-2.61280043048e-08
2.34116976542e-07
-2.74950635967e-08
2.34053991583e-07
-2.88387866957e-08
2.3396143005e-07
-3.01481220484e-08
2.33841157511e-07
-3.14200551615e-08
2.33694747102e-07
-3.26432682837e-08
2.33524943382e-07
-3.38146749496e-08
2.33333945242e-07
-3.49232004425e-08
2.3312489567e-07
-3.59661932632e-08
2.32900166664e-07
-3.69334118206e-08
2.32662894162e-07
-3.7823119636e-08
2.32415291033e-07
-3.8626367767e-08
2.32160222811e-07
-3.93426328553e-08
2.31899554724e-07
-3.99645003407e-08
2.31635752399e-07
-4.04927462461e-08
2.3137026407e-07
-4.09215315838e-08
2.31105124671e-07
-4.12528776902e-08
2.30841371743e-07
-4.14824734949e-08
2.30580637098e-07
-4.16126736364e-08
2.30323604035e-07
-4.16397899496e-08
2.30071525747e-07
-4.15681598726e-08
2.29824855603e-07
-4.13967533427e-08
2.29584711774e-07
-4.11302122125e-08
2.29351260337e-07
-4.07676613783e-08
2.29125306516e-07
-4.0314374015e-08
2.28906888505e-07
-3.97703798947e-08
2.28696684292e-07
-3.9141453003e-08
2.2849465876e-07
-3.84284288523e-08
2.28301406203e-07
-3.76375193553e-08
2.28116856082e-07
-3.67702933791e-08
2.27941549625e-07
-3.58333486984e-08
2.2777540627e-07
-3.48289121917e-08
2.2761893316e-07
-3.37639108564e-08
2.27472051644e-07
-3.26411433114e-08
2.27335241676e-07
-3.14677913089e-08
2.27208428137e-07
-3.02471136451e-08
2.27092062339e-07
-2.89864442383e-08
2.26986065216e-07
-2.76893606569e-08
2.26890850259e-07
-2.63632099855e-08
2.26806321382e-07
-2.50117087783e-08
2.26732840937e-07
-2.36420387461e-08
2.26670278065e-07
-2.22578399832e-08
2.26618926724e-07
-2.08659121411e-08
2.26578601596e-07
-1.94695706909e-08
2.26549509828e-07
-1.80749887917e-08
2.26531390305e-07
-1.66848922911e-08
2.2652434346e-07
-1.5304566262e-08
2.26528010957e-07
-1.39358651429e-08
2.26542365457e-07
-1.25828903098e-08
2.26566924119e-07
-1.12462768451e-08
2.26601496498e-07
-9.92851126754e-09
2.26645419032e-07
-8.62843478224e-09
2.2669824834e-07
-7.34613419766e-09
2.26758989694e-07
-6.07759383389e-09
2.26826710261e-07
-4.81911866317e-09
2.26899720781e-07
-3.56237574528e-09
2.2697606906e-07
-2.29964435386e-09
2.27052637304e-07
-1.02374019843e-09
2.2712561991e-07
2.57884273807e-10
2.27190225755e-07
1.50190064427e-09
2.27242611525e-07
2.68085141096e-09
2.27282985294e-07
3.79094286708e-09
2.27313177075e-07
4.82067846181e-09
2.27337384032e-07
5.78359297857e-09
2.27362993625e-07
6.69123373725e-09
2.27393313789e-07
7.55394277067e-09
2.27430894241e-07
8.37747115388e-09
2.27476955458e-07
9.16653055334e-09
2.27532354852e-07
9.9226319089e-09
2.27597279812e-07
1.06473138274e-08
2.27671961135e-07
1.13398319068e-08
2.27756230056e-07
1.200002312e-08
2.2785011493e-07
1.26259150849e-08
2.27953344731e-07
1.32163743998e-08
2.28065886497e-07
1.37687305911e-08
2.2818743762e-07
1.4281293283e-08
2.28317929032e-07
1.47510334363e-08
2.28457025555e-07
1.51760009608e-08
2.2860460403e-07
1.55530804721e-08
2.2876027097e-07
1.58803162309e-08
2.28923817938e-07
1.61547513472e-08
2.29094760862e-07
1.63746575677e-08
2.29272772733e-07
1.65374656323e-08
2.29457247135e-07
1.66418933496e-08
2.29647707041e-07
1.6685975728e-08
2.29843393624e-07
1.66690838446e-08
2.30043649724e-07
1.65901913215e-08
2.30247535706e-07
1.64495475679e-08
2.30454209699e-07
1.62467113404e-08
2.3066256574e-07
1.59827719092e-08
2.30871496444e-07
1.56585392463e-08
2.31079583787e-07
1.52761705451e-08
2.31285397206e-07
1.48376355465e-08
2.31487183784e-07
1.4346161976e-08
2.316831418e-07
1.38047901983e-08
2.31871147694e-07
1.32176081106e-08
2.32049017581e-07
1.25883725042e-08
2.32214286654e-07
1.19215086471e-08
2.32364478376e-07
1.12208098014e-08
2.32496958427e-07
1.04902404344e-08
2.32609231238e-07
9.73282263792e-09
2.3269888026e-07
8.95140563553e-09
2.32763887275e-07
8.14797774753e-09
2.32802632192e-07
7.32466608255e-09
2.32814181635e-07
6.48372858009e-09
2.32798272347e-07
5.62894122069e-09
2.32755484549e-07
4.76625012637e-09
2.32687138519e-07
3.90532092463e-09
2.32595327929e-07
3.06041322331e-09
2.32482769629e-07
2.25169302434e-09
2.32352813769e-07
1.5066843628e-09
2.32209422841e-07
8.6559962135e-10
2.3205728447e-07
3.86868512967e-10
2.31901869367e-07
-5.10581083251e-09
2.3174512797e-07
2.31653825259e-07
-4.60197087903e-09
2.30504910444e-07
-1.00437019821e-09
2.30530400872e-07
-1.50138737794e-09
2.30590178012e-07
-2.03408690799e-09
2.30672905947e-07
-2.61465071533e-09
2.30779513809e-07
-3.25244915349e-09
2.3090935477e-07
-3.9535601835e-09
2.31061431445e-07
-4.72434531431e-09
2.31234333248e-07
-5.56630903083e-09
2.3142656642e-07
-6.48195404248e-09
2.31636078121e-07
-7.46830826852e-09
2.3186061163e-07
-8.52471883402e-09
2.32097204186e-07
-9.64457453484e-09
2.32342623294e-07
-1.08250668883e-08
2.32592856436e-07
-1.20571293945e-08
2.32843662847e-07
-1.33368814759e-08
2.33090117341e-07
-1.46540189605e-08
2.33327246447e-07
-1.60045790541e-08
2.33549637737e-07
-1.73780277372e-08
2.3375214393e-07
-1.87709987914e-08
2.33929528917e-07
-2.01733334443e-08
2.34077206442e-07
-2.15825128845e-08
2.34190871975e-07
-2.29889001818e-08
2.3426722932e-07
-2.43906618234e-08
2.34303552424e-07
-2.57784547849e-08
2.34298352753e-07
-2.71507008428e-08
2.34250826861e-07
-2.84979634228e-08
2.34161439149e-07
-2.98184818151e-08
2.3403124713e-07
-3.11024642482e-08
2.33862411016e-07
-3.23477848716e-08
2.33657427509e-07
-3.35443664953e-08
2.33419610068e-07
-3.46898980264e-08
2.33152286746e-07
-3.57744098997e-08
2.32859301015e-07
-3.67958324793e-08
2.32544221409e-07
-3.77448291658e-08
2.32210894096e-07
-3.86200231454e-08
2.31862689687e-07
-3.94131538196e-08
2.31503111961e-07
-4.01238423222e-08
2.31135083508e-07
-4.07451553876e-08
2.30761597585e-07
-4.1277826901e-08
2.30385035376e-07
-4.17163185083e-08
2.30007842175e-07
-4.20624510516e-08
2.29631867671e-07
-4.23120283775e-08
2.29259050196e-07
-4.24672443664e-08
2.28890770646e-07
-4.25237436089e-08
2.28528429155e-07
-4.24852957334e-08
2.28173142064e-07
-4.23514728548e-08
2.27826212097e-07
-4.21264384075e-08
2.27488343632e-07
-4.18091127766e-08
2.27160453004e-07
-4.14042246252e-08
2.26843081329e-07
-4.09115169533e-08
2.2653700132e-07
-4.03361737703e-08
2.26242654863e-07
-3.96786626567e-08
2.25960727665e-07
-3.89445627679e-08
2.25691610345e-07
-3.8134996344e-08
2.25435937222e-07
-3.72558894049e-08
2.25194074452e-07
-3.63089477535e-08
2.24966622149e-07
-3.53003904809e-08
2.24753930247e-07
-3.42324237154e-08
2.24556564442e-07
-3.31114893873e-08
2.24374850566e-07
-3.19401889004e-08
2.24209305661e-07
-3.07250907399e-08
2.24060209916e-07
-2.94690585565e-08
2.23928005084e-07
-2.8178660126e-08
2.23812893132e-07
-2.68568573699e-08
2.23715204531e-07
-2.55100575822e-08
2.23635021311e-07
-2.41411284637e-08
2.23572518275e-07
-2.27561300075e-08
2.23527608547e-07
-2.13576234997e-08
2.23500260846e-07
-1.99511197422e-08
2.23490164809e-07
-1.85386575023e-08
2.23497027938e-07
-1.71249974196e-08
2.23520258651e-07
-1.57114473097e-08
2.23559246271e-07
-1.43018169582e-08
2.23613057879e-07
-1.2896464476e-08
2.23680702501e-07
-1.14980073346e-08
2.23760834153e-07
-1.01055658521e-08
2.23851995448e-07
-8.72022268711e-09
2.23952311775e-07
-7.33949689631e-09
2.24059704e-07
-5.9626728839e-09
2.24171559581e-07
-4.58596170912e-09
2.24284918178e-07
-3.2087983639e-09
2.24396170853e-07
-1.83168423002e-09
2.24501421258e-07
-4.64509310581e-10
2.24596673439e-07
8.64582306213e-10
2.2467888848e-07
2.13051804411e-09
2.2474998106e-07
3.33715141833e-09
2.24810853137e-07
4.48016607441e-09
2.24862558584e-07
5.55440993403e-09
2.24910837471e-07
6.56525185234e-09
2.24960373909e-07
7.51910757478e-09
2.25014509852e-07
8.41986577391e-09
2.25075752294e-07
9.27194385797e-09
2.25146102613e-07
1.00771525912e-08
2.25226963836e-07
1.08380066358e-08
2.2531944845e-07
1.15548421897e-08
2.25424260135e-07
1.22288856625e-08
2.25541954375e-07
1.2859494244e-08
2.25672786868e-07
1.34470079345e-08
2.2581694177e-07
1.39901208698e-08
2.25974363304e-07
1.44885625272e-08
2.26144962869e-07
1.49406034953e-08
2.26328443991e-07
1.53455907512e-08
2.26524494763e-07
1.57015850731e-08
2.26732612116e-07
1.60077633003e-08
2.26952282504e-07
1.62621837203e-08
2.27182808976e-07
1.64640607226e-08
2.27423481118e-07
1.66116547136e-08
2.27673407048e-07
1.67044201735e-08
2.27931672448e-07
1.67410171863e-08
2.28197178581e-07
1.67213293543e-08
2.28468790311e-07
1.66448214043e-08
2.28745182526e-07
1.65121310608e-08
2.29024999253e-07
1.63229059971e-08
2.29306717429e-07
1.60783164429e-08
2.29588685902e-07
1.57791237272e-08
2.29869008234e-07
1.54272710984e-08
2.30145657355e-07
1.50243529377e-08
2.3041634673e-07
1.45730226636e-08
2.30678636866e-07
1.40755449877e-08
2.3092983065e-07
1.35349980331e-08
2.31167090699e-07
1.29538989577e-08
2.31387376528e-07
1.23351951575e-08
2.31587592699e-07
1.16809943822e-08
2.31764587626e-07
1.09934048e-08
2.3191534747e-07
1.02734907862e-08
2.32037061079e-07
9.52212503668e-09
2.32127347019e-07
8.73938773972e-09
2.32184350309e-07
7.92565171536e-09
2.32206944928e-07
7.08162409419e-09
2.32194787299e-07
6.20976476344e-09
2.32148416699e-07
5.314922387e-09
2.32069207381e-07
4.40583979928e-09
2.31959354055e-07
3.49592646267e-09
2.31821790236e-07
2.60431909144e-09
2.31660226007e-07
1.756497704e-09
2.31479299526e-07
9.87720956905e-10
2.31285054956e-07
3.42876120217e-10
2.31085522956e-07
-5.04608903679e-09
2.30888750756e-07
2.30804737016e-07
-4.66106377801e-09
2.31274894746e-07
-1.06862105485e-09
2.31303944219e-07
-1.62092786014e-09
2.31376616313e-07
-2.20867195253e-09
2.31480082053e-07
-2.84438764362e-09
2.31615160693e-07
-3.53867548213e-09
2.31780765355e-07
-4.29773977931e-09
2.31975428487e-07
-5.12780670101e-09
2.32197305258e-07
-6.03008876488e-09
2.32444111077e-07
-7.00690193869e-09
2.32713071414e-07
-8.05469148063e-09
2.33000931022e-07
-9.17235558639e-09
2.33303769454e-07
-1.03524884912e-08
2.33617121931e-07
-1.1591550838e-08
2.33935846214e-07
-1.28795169471e-08
2.34254318601e-07
-1.42116357507e-08
2.34566383655e-07
-1.55766636486e-08
2.34865642429e-07
-1.69698340891e-08
2.35145477437e-07
-1.8379918522e-08
2.35399407445e-07
-1.98030315682e-08
2.356211565e-07
-2.12287509686e-08
2.35805032392e-07
-2.26544697903e-08
2.35945984195e-07
-2.40707992883e-08
2.36039949588e-07
-2.54762704897e-08
2.36083838738e-07
-2.6862250522e-08
2.36075797574e-07
-2.82278809796e-08
2.36015069909e-07
-2.95647505428e-08
2.35902150319e-07
-3.08720073375e-08
2.35738515929e-07
-3.21410170286e-08
2.35526685336e-07
-3.33705806228e-08
2.35269855655e-07
-3.45517473355e-08
2.34971920755e-07
-3.56830160256e-08
2.34637074777e-07
-3.67553965736e-08
2.34269849405e-07
-3.77674310913e-08
2.33874736304e-07
-3.87105533748e-08
2.33456282038e-07
-3.95837683309e-08
2.3301875529e-07
-4.03793589365e-08
2.32566307782e-07
-4.10971043342e-08
2.32102685903e-07
-4.1730400006e-08
2.31631446069e-07
-4.22799403086e-08
2.31155698947e-07
-4.27403232748e-08
2.30678360563e-07
-4.31131577987e-08
2.30201915769e-07
-4.33942212125e-08
2.29728689681e-07
-4.35859850647e-08
2.29260628001e-07
-4.36826896518e-08
2.28799301891e-07
-4.36873976367e-08
2.28346356064e-07
-4.36003964779e-08
2.27903380979e-07
-4.34253435915e-08
2.27471475662e-07
-4.31608243083e-08
2.27051772671e-07
-4.28110200058e-08
2.26645184536e-07
-4.23752519211e-08
2.26252661057e-07
-4.18581073462e-08
2.25874988088e-07
-4.12595652e-08
2.25513012455e-07
-4.05845732982e-08
2.25167447427e-07
-3.98337071198e-08
2.24839075507e-07
-3.90122337601e-08
2.24528564643e-07
-3.81212623261e-08
2.24236647751e-07
-3.71663331506e-08
2.23963951161e-07
-3.61490155524e-08
2.23711151026e-07
-3.50750620351e-08
2.23478815442e-07
-3.39464097397e-08
2.23267538432e-07
-3.27689406249e-08
2.23077796007e-07
-3.15448447081e-08
2.22910059302e-07
-3.02800259161e-08
2.2276466459e-07
-2.89767888507e-08
2.22641907512e-07
-2.76409291006e-08
2.22541926027e-07
-2.62747097497e-08
2.224647784e-07
-2.48836723552e-08
2.22410338193e-07
-2.34698750176e-08
2.22378359082e-07
-2.20384582211e-08
2.22368380549e-07
-2.05911218328e-08
2.2237978359e-07
-1.91324737246e-08
2.22411706528e-07
-1.76637269112e-08
2.22463096044e-07
-1.61888486039e-08
2.22532631846e-07
-1.4708460201e-08
2.22618776721e-07
-1.32257916769e-08
2.22719706966e-07
-1.17407808086e-08
2.22833361842e-07
-1.02558496197e-08
2.22957373799e-07
-8.7702742946e-09
2.23089117603e-07
-7.28593216269e-09
2.23225644264e-07
-5.80232434405e-09
2.23363756788e-07
-4.32288479229e-09
2.2350002113e-07
-2.8513796402e-09
2.23631023238e-07
-1.39883265964e-09
2.2375371082e-07
2.26917740386e-11
2.23866199902e-07
1.38179174546e-09
2.23967520634e-07
2.67614967012e-09
2.24062562131e-07
3.91620781488e-09
2.24150939109e-07
5.09263353562e-09
2.24232839545e-07
6.20169696904e-09
2.24314754702e-07
7.24713051143e-09
2.24399521418e-07
8.23068434981e-09
2.24490063372e-07
9.1556832981e-09
2.24588798972e-07
1.00233841707e-08
2.24697708896e-07
1.08363487361e-08
2.24818418055e-07
1.15952079046e-08
2.2495219165e-07
1.23018278564e-08
2.25100011848e-07
1.29563023082e-08
2.25262573506e-07
1.35599055956e-08
2.25440349453e-07
1.41122870428e-08
2.2563357426e-07
1.46142389737e-08
2.25842302886e-07
1.50650734672e-08
2.26066386018e-07
1.54652233575e-08
2.26305523818e-07
1.58137869741e-08
2.26559235188e-07
1.61109761127e-08
2.26826907642e-07
1.63558170756e-08
2.27107762049e-07
1.65484541658e-08
2.27400898938e-07
1.66879967942e-08
2.27705259607e-07
1.67746823549e-08
2.28019668377e-07
1.68078599273e-08
2.28342790633e-07
1.67880141359e-08
2.28673170992e-07
1.67152136982e-08
2.29009190256e-07
1.65906369935e-08
2.29349119815e-07
1.64140697583e-08
2.29691111662e-07
1.61868343807e-08
2.30033125789e-07
1.59097313767e-08
2.30372894914e-07
1.55845870353e-08
2.30707962564e-07
1.52127115391e-08
2.31035642649e-07
1.47962908348e-08
2.31353052273e-07
1.43369294154e-08
2.31657090153e-07
1.38368439753e-08
2.31944491499e-07
1.32974909063e-08
2.32211842491e-07
1.27205695059e-08
2.32455675183e-07
1.21067757236e-08
2.32672533794e-07
1.14566825847e-08
2.32859118803e-07
1.07697401993e-08
2.33012403043e-07
1.00451838134e-08
2.33129806358e-07
9.28147003448e-09
2.33209322939e-07
8.47739370687e-09
2.33249669556e-07
7.63211990819e-09
2.33250356227e-07
6.74658065864e-09
2.33211743736e-07
5.82405062147e-09
2.33135018163e-07
4.87162504635e-09
2.33022173363e-07
3.90094350549e-09
2.32875984998e-07
2.92919800393e-09
2.32700131935e-07
1.97952509543e-09
2.32499547917e-07
1.08233397137e-09
2.32281189846e-07
2.75606676358e-10
2.32055348321e-07
-4.9027942956e-09
2.31834775834e-07
2.31753675763e-07
-4.72371190277e-09
2.31823724176e-07
-1.1317305618e-09
2.31859981172e-07
-1.73309446411e-09
2.31947565441e-07
-2.37081572399e-09
2.32073975431e-07
-3.05736187116e-09
2.32239743028e-07
-3.8037333517e-09
2.32443411236e-07
-4.61632755365e-09
2.32682916844e-07
-5.50149805456e-09
2.3295572192e-07
-6.4602084674e-09
2.33258724218e-07
-7.49454594543e-09
2.33588230462e-07
-8.60055402517e-09
2.33939860964e-07
-9.77667651912e-09
2.34308573363e-07
-1.10148370984e-08
2.34688614757e-07
-1.23108326085e-08
2.35073577805e-07
-1.36538222378e-08
2.35456474915e-07
-1.50382736944e-08
2.35829875674e-07
-1.6452150731e-08
2.36186070764e-07
-1.78899773015e-08
2.36517290387e-07
-1.93399530775e-08
2.3681592852e-07
-2.07977424074e-08
2.37074802375e-07
-2.22527287269e-08
2.37287388192e-07
-2.37022280881e-08
2.37448062403e-07
-2.51370905068e-08
2.37552289059e-07
-2.65561469038e-08
2.37596777944e-07
-2.79513820418e-08
2.37579569053e-07
-2.93225222711e-08
2.37500060097e-07
-3.06620246363e-08
2.37358963825e-07
-3.19697692754e-08
2.37158199559e-07
-3.32380934742e-08
2.36900746086e-07
-3.44665419583e-08
2.3659043844e-07
-3.56471089947e-08
2.36231776572e-07
-3.67789427497e-08
2.35829692867e-07
-3.78538774891e-08
2.35389382159e-07
-3.887094204e-08
2.34916094815e-07
-3.98222179395e-08
2.3441502978e-07
-4.07070038832e-08
2.33891178651e-07
-4.15180334469e-08
2.33349291519e-07
-4.22551864877e-08
2.32793770081e-07
-4.29121159117e-08
2.32228694616e-07
-4.34894417627e-08
2.31657751419e-07
-4.39818419353e-08
2.31084301715e-07
-4.43906921495e-08
2.30511327222e-07
-4.47116514108e-08
2.29941522917e-07
-4.49479939552e-08
2.29377255941e-07
-4.509214859e-08
2.28820598627e-07
-4.5146227014e-08
2.28273274284e-07
-4.51112215149e-08
2.27736960676e-07
-4.4990422245e-08
2.27213382448e-07
-4.47821007061e-08
2.26703863817e-07
-4.44899117352e-08
2.2620959121e-07
-4.41127346568e-08
2.25731705553e-07
-4.36545856027e-08
2.25271251331e-07
-4.31149415898e-08
2.24829252522e-07
-4.24981515808e-08
2.24406664514e-07
-4.18042413707e-08
2.2400443409e-07
-4.10378626796e-08
2.23623454419e-07
-4.01995404695e-08
2.23264607523e-07
-3.92941945381e-08
2.22928724246e-07
-3.83227898313e-08
2.22616609314e-07
-3.72904665596e-08
2.2232900794e-07
-3.61985548192e-08
2.22066614265e-07
-3.50523496762e-08
2.21830045426e-07
-3.38534535897e-08
2.21619834891e-07
-3.26072322329e-08
2.21436414344e-07
-3.13154513839e-08
2.21280094015e-07
-2.99834480335e-08
2.21151052027e-07
-2.86130323523e-08
2.21049304451e-07
-2.72094069816e-08
2.20974701626e-07
-2.57743092435e-08
2.20926891336e-07
-2.43127087636e-08
2.20905321477e-07
-2.28261701326e-08
2.20909200633e-07
-2.1319353836e-08
2.20937507078e-07
-1.97935837005e-08
2.20988951749e-07
-1.82531674449e-08
2.21061993721e-07
-1.6699158328e-08
2.2115481041e-07
-1.51355042898e-08
2.21265319218e-07
-1.35630119633e-08
2.21391158455e-07
-1.19853494895e-08
2.21529715082e-07
-1.04032906013e-08
2.21678122471e-07
-8.82069060156e-09
2.2183330668e-07
-7.23925789826e-09
2.21992032581e-07
-5.66475302677e-09
2.22151031858e-07
-4.10244279347e-09
2.22307199729e-07
-2.56283889525e-09
2.22457936494e-07
-1.05630010433e-09
2.2260149546e-07
4.02207947098e-10
2.22737509274e-07
1.78974887677e-09
2.22866782148e-07
3.11374699396e-09
2.22994430012e-07
4.38504336411e-09
2.23119148245e-07
5.58767737265e-09
2.23240807919e-07
6.72269131507e-09
2.2336566563e-07
7.79011431826e-09
2.23495982893e-07
8.79211464009e-09
2.23634245689e-07
9.72917693423e-09
2.23782617285e-07
1.06035396877e-08
2.23942912685e-07
1.14157265217e-08
2.24116637012e-07
1.21678181552e-08
2.24304989233e-07
1.28602287297e-08
2.24508892514e-07
1.34947717059e-08
2.24728994407e-07
1.40716840156e-08
2.24965700797e-07
1.45924925983e-08