/*--------------------------------*- C++ -*----------------------------------*\
| =========                 |                                                 |
| \\      /  F ield         | OpenFOAM: The Open Source CFD Toolbox           |
|  \\    /   O peration     | Version:  2206                                  |
|   \\  /    A nd           | Website:  www.openfoam.com                      |
|    \\/     M anipulation  |                                                 |
\*---------------------------------------------------------------------------*/
FoamFile
{
    version     2.0;
    format      ascii;
    arch        "LSB;label=64;scalar=64";
    class       volVectorField;
    location    "3.7/water";
    object      U.gas;
}
// * * * * * * * * * * * * * * * * * * * * * * * * * * * * * * * * * * * * * //

dimensions      [0 1 -1 0 0 0 0];

internalField   nonuniform List<vector> 
23300
(
(-0.00223454173484 0.135922966226 0)
(-0.00223937965355 0.135911139105 0)
(-6.90698477132e-05 0.135868166034 0)
(-0.000198959298989 0.135815760587 0)
(-0.000361196431853 0.135756183958 0)
(-0.000573265626525 0.135689882032 0)
(-0.000846257966822 0.135619584864 0)
(-0.00118590050099 0.135546555043 0)
(-0.00159471425493 0.135474005701 0)
(-0.00207358700271 0.135403116155 0)
(-0.00262107310684 0.135337240313 0)
(-0.00323458084343 0.135277282647 0)
(-0.00390945469118 0.135226361345 0)
(-0.00464036271214 0.135184805965 0)
(-0.00542048700488 0.135155151697 0)
(-0.00624294151245 0.135136888312 0)
(-0.00710011909761 0.135131759694 0)
(-0.00798491732836 0.135138333504 0)
(-0.00889018669263 0.135157565267 0)
(-0.00980964049633 0.135187225373 0)
(-0.0107373390555 0.135227676551 0)
(-0.0116682730517 0.135276167545 0)
(-0.0125978684865 0.135332771229 0)
(-0.0135223010534 0.135394544444 0)
(-0.014438042112 0.135461576354 0)
(-0.0153419912003 0.135531017199 0)
(-0.0162311077402 0.135603200701 0)
(-0.0171024477427 0.135675556814 0)
(-0.0179529259731 0.13574878153 0)
(-0.0187793272453 0.135820660202 0)
(-0.0195782274926 0.135892267209 0)
(-0.0203460086483 0.135961734026 0)
(-0.0210789258535 0.136030459122 0)
(-0.021773115927 0.136096857454 0)
(-0.0224247709479 0.136162560422 0)
(-0.0230301068504 0.136226184118 0)
(-0.0235855946911 0.136289493127 0)
(-0.0240878647176 0.136351224019 0)
(-0.0245339645254 0.136413185893 0)
(-0.0249211899143 0.136474173862 0)
(-0.0252473528874 0.136535974893 0)
(-0.0255105443122 0.136597403192 0)
(-0.0257093784379 0.136660180583 0)
(-0.025842271247 0.136723106037 0)
(-0.0259079886193 0.136787739726 0)
(-0.0259063070794 0.136852779358 0)
(-0.0258379311681 0.136919698241 0)
(-0.0257033272942 0.136987263653 0)
(-0.0255031474872 0.137056841622 0)
(-0.025238203306 0.137127150599 0)
(-0.0249097876894 0.137199393528 0)
(-0.0245193412915 0.137272243301 0)
(-0.0240687487179 0.137346748582 0)
(-0.0235600146714 0.13742154313 0)
(-0.0229955557755 0.137497524356 0)
(-0.0223778892688 0.13757328681 0)
(-0.0217099130628 0.137649576658 0)
(-0.0209946070254 0.137724943979 0)
(-0.0202352979192 0.137799982351 0)
(-0.0194353712081 0.137873190068 0)
(-0.0185985181521 0.13794500649 0)
(-0.0177284577455 0.138013869249 0)
(-0.0168291679081 0.138080063027 0)
(-0.0159046162068 0.138141958337 0)
(-0.0149589783661 0.138199688998 0)
(-0.0139963796382 0.138251558126 0)
(-0.0130211091078 0.13829756277 0)
(-0.0120373748628 0.138335954615 0)
(-0.011049524915 0.138366629597 0)
(-0.0100618232917 0.138387834048 0)
(-0.00907869154667 0.138399437922 0)
(-0.00810450997709 0.138399781023 0)
(-0.00714388710438 0.138388846179 0)
(-0.00620148200756 0.13836524382 0)
(-0.00528229741441 0.138329301247 0)
(-0.00439150366395 0.138280190294 0)
(-0.00353472946945 0.138218953559 0)
(-0.00271783003007 0.138145797198 0)
(-0.00194703874657 0.138063097355 0)
(-0.00122831532799 0.137972909467 0)
(-0.000566376801194 0.137880005584 0)
(3.89871984722e-05 0.137789563386 0)
(0.000600771986271 0.137709772976 0)
(0.00114172214504 0.137647731981 0)
(0.00166722275322 0.137609037154 0)
(0.00215630039361 0.137594383159 0)
(0.00260159416526 0.137603573279 0)
(0.00303143640275 0.137630935879 0)
(0.00347698299603 0.13766838642 0)
(0.00394952084385 0.137707657669 0)
(0.00444738111417 0.137743679019 0)
(0.00496428762433 0.137772113453 0)
(0.0054927417282 0.137791115212 0)
(0.00602521563642 0.137798857749 0)
(0.00655468216913 0.137795349369 0)
(0.00707471791008 0.137780195138 0)
(0.00757959533883 0.137754434661 0)
(0.00806420935702 0.137718467053 0)
(0.00852407720686 0.137673851195 0)
(0.00895524339009 0.13762136233 0)
(0.00935425782731 0.137562732312 0)
(0.00971810000324 0.137498828996 0)
(0.0100441558123 0.137431327322 0)
(0.0103301721013 0.137361007055 0)
(0.0105742368771 0.137289347576 0)
(0.0107747637247 0.137216939345 0)
(0.0109304749661 0.137144996546 0)
(0.0110404121975 0.137073877229 0)
(0.0111039210058 0.137004508552 0)
(0.0111206819401 0.136937010768 0)
(0.0110906881277 0.136872031841 0)
(0.0110142500139 0.13680947616 0)
(0.0108919253837 0.136749770404 0)
(0.0107245352706 0.136692675579 0)
(0.0105131146541 0.136638415914 0)
(0.0102589973499 0.136586621358 0)
(0.00996379464669 0.136537390319 0)
(0.00962942661869 0.136490307709 0)
(0.00925803982967 0.13644541668 0)
(0.0088520183309 0.136402335618 0)
(0.00841387339295 0.136361143778 0)
(0.00794623090265 0.136321598025 0)
(0.00745169463073 0.136283931973 0)
(0.00693282574756 0.136248168924 0)
(0.00639202219191 0.136214825655 0)
(0.00583157018595 0.136184306429 0)
(0.00525366863433 0.136157485444 0)
(0.00466072673634 0.136135146957 0)
(0.00405573262427 0.136118401011 0)
(0.00344296597588 0.136108126253 0)
(0.00282877572246 0.136105187291 0)
(0.00222257388817 0.136109882362 0)
(0.0016376839323 0.136122014815 0)
(0.00109216940581 0.136140450592 0)
(0.00060952170402 0.13616318347 0)
(0.000219789971809 0.136187131774 0)
(-3.89447966637e-05 0.136208309437 0)
(-0.00012452918758 0.136222115142 0)
(-0.0025963990024 0.136219923761 0)
(-0.00253699267818 0.136208660083 0)
(-0.00132876229063 0.24743351779 0)
(-0.00157702937871 0.247446021726 0)
(-0.000613829216056 0.247421062219 0)
(-0.000860925845903 0.24739220149 0)
(-0.00113367019717 0.247362587694 0)
(-0.00143562134026 0.247331764466 0)
(-0.00177183622795 0.247302220905 0)
(-0.0021462693996 0.247274251634 0)
(-0.00256140018454 0.247250840019 0)
(-0.00301876669442 0.247231929698 0)
(-0.00351881857692 0.247220484055 0)
(-0.00406139030731 0.247215931221 0)
(-0.00464542439843 0.247220857236 0)
(-0.00526945082756 0.247233939651 0)
(-0.00593130892867 0.247257086467 0)
(-0.00662858375415 0.247288043957 0)
(-0.00735836069082 0.247327917813 0)
(-0.0081175859154 0.247373549216 0)
(-0.0089028528733 0.247425363683 0)
(-0.00971067401194 0.247479557578 0)
(-0.0105372947343 0.247536213625 0)
(-0.0113788856998 0.247591302494 0)
(-0.0122313870604 0.247644998373 0)
(-0.0130906410094 0.247693487499 0)
(-0.0139522706261 0.247737418834 0)
(-0.0148117733346 0.247773516907 0)
(-0.015664446325 0.247803120363 0)
(-0.0165054647819 0.247823620108 0)
(-0.0173298668013 0.247837058048 0)
(-0.0181326338171 0.247841434108 0)
(-0.0189087402155 0.247839352242 0)
(-0.0196532351416 0.247829254582 0)
(-0.0203613379276 0.247814099113 0)
(-0.0210284990106 0.24779257777 0)
(-0.0216505120953 0.247767800133 0)
(-0.0222235303421 0.247738546925 0)
(-0.0227441705614 0.24770792054 0)
(-0.0232094743136 0.247674678921 0)
(-0.0236169988515 0.247641808016 0)
(-0.0239647302422 0.247607979567 0)
(-0.0242511654058 0.247575997405 0)
(-0.0244751925765 0.247544420056 0)
(-0.02463619452 0.247515833997 0)
(-0.024733766712 0.247488674262 0)
(-0.0247678361548 0.24746528496 0)
(-0.0247387832407 0.247443991872 0)
(-0.0246475123042 0.247426951042 0)
(-0.0244950866839 0.24741241797 0)
(-0.0242828174126 0.247402307835 0)
(-0.0240122011553 0.247394813583 0)
(-0.0236850222225 0.247391636534 0)
(-0.0233032168923 0.247390920225 0)
(-0.0228689876187 0.247394168667 0)
(-0.0223846720863 0.247399494326 0)
(-0.0218528536525 0.247408218821 0)
(-0.0212762363354 0.247418434824 0)
(-0.0206577482872 0.247431293119 0)
(-0.0200004221666 0.247444870759 0)
(-0.0193074898666 0.247460156538 0)
(-0.0185822674099 0.247475212125 0)
(-0.0178282383855 0.247490872718 0)
(-0.0170489417882 0.247505183045 0)
(-0.0162480438393 0.247518834666 0)
(-0.0154292275892 0.247529856833 0)
(-0.0145962524302 0.247538813505 0)
(-0.013752844185 0.24754372823 0)
(-0.012902743761 0.247545065662 0)
(-0.0120495974895 0.247540871882 0)
(-0.0111969966658 0.24753156446 0)
(-0.0103483688265 0.247515272745 0)
(-0.00950701237178 0.247492460103 0)
(-0.00867598993264 0.247461453797 0)
(-0.00785815900429 0.247422920219 0)
(-0.007056061052 0.247375577617 0)
(-0.00627193556109 0.247320542158 0)
(-0.00550757480258 0.247257220472 0)
(-0.00476427129285 0.247187540673 0)
(-0.00404255363275 0.247112024014 0)
(-0.00334193545332 0.247033910786 0)
(-0.00266032088373 0.246955396674 0)
(-0.00199324669378 0.246881597986 0)
(-0.00133271693989 0.246816728812 0)
(-0.000667214975971 0.2467671776 0)
(1.01853771538e-05 0.246735738866 0)
(0.000687067863724 0.246724289481 0)
(0.00133696515699 0.246731012338 0)
(0.00194132949808 0.246758385285 0)
(0.00249885996945 0.246805981005 0)
(0.00302100966402 0.246869150121 0)
(0.00352091537531 0.24694060892 0)
(0.00400656300364 0.247015451168 0)
(0.00448197589737 0.247088501551 0)
(0.00494867882821 0.247157375319 0)
(0.00540668390284 0.247219253226 0)
(0.00585508648526 0.24727367921 0)
(0.0062924222774 0.247319453365 0)
(0.00671687242608 0.247357342609 0)
(0.00712639024693 0.247387143443 0)
(0.00751877725755 0.247410304706 0)
(0.00789174203722 0.247427158325 0)
(0.008242939926 0.247439442244 0)
(0.00857001685603 0.247447695369 0)
(0.00887063840001 0.247453671491 0)
(0.00914253162976 0.247457894886 0)
(0.0093835087244 0.247461957529 0)
(0.0095915093246 0.247466231252 0)
(0.00976461916452 0.247472042176 0)
(0.00990111278003 0.247479535005 0)
(0.00999946711765 0.247489719705 0)
(0.0100584048047 0.247502483558 0)
(0.0100769089133 0.247518507304 0)
(0.0100542983811 0.247537423143 0)
(0.00999018672812 0.247559620119 0)
(0.00988442400018 0.247584535157 0)
(0.00973716638695 0.247612267756 0)
(0.00954898849006 0.247642036713 0)
(0.0093208496433 0.247673695106 0)
(0.00905413029632 0.247706300574 0)
(0.00875061808423 0.24773949898 0)
(0.00841253321573 0.247772233031 0)
(0.00804248888697 0.247803998948 0)
(0.00764348252518 0.247833698275 0)
(0.00721880880294 0.24786077403 0)
(0.00677199815758 0.247884212223 0)
(0.00630667576872 0.247903560879 0)
(0.00582646353995 0.247918079483 0)
(0.00533483619615 0.247927625111 0)
(0.00483508089503 0.247931919384 0)
(0.0043302868837 0.247931249637 0)
(0.00382352197445 0.247925792408 0)
(0.00331810209486 0.247916069531 0)
(0.00281806102407 0.247902299536 0)
(0.00232866299453 0.247884639023 0)
(0.00185700182255 0.24786266943 0)
(0.0014125646939 0.247835601446 0)
(0.00100800249474 0.247802096899 0)
(0.000660535999596 0.247760678935 0)
(0.000397347207082 0.247710536546 0)
(-0.00120576126259 0.24764653618 0)
(-0.00135131959988 0.247581200827 0)
(-0.00141848945192 0.22725207162 0)
(-0.00170377560121 0.227291831224 0)
(-0.0007014188107 0.227333321535 0)
(-0.000976233047739 0.22738613538 0)
(-0.00127884887174 0.227452957878 0)
(-0.00161323534976 0.227532795679 0)
(-0.00198378984516 0.227625235754 0)
(-0.00239436191551 0.227728904721 0)
(-0.00284740079875 0.227843294659 0)
(-0.00334423287511 0.227966521475 0)
(-0.00388487529188 0.22809766651 0)
(-0.00446849795518 0.228234237706 0)
(-0.00509326059492 0.228374787554 0)
(-0.00575677344164 0.228516221065 0)
(-0.00645594699186 0.228656579818 0)
(-0.00718742727834 0.228792278665 0)
(-0.00794746745547 0.228921020912 0)
(-0.00873228526745 0.229038991542 0)
(-0.00953794326942 0.229143882979 0)
(-0.0103606044021 0.229232042301 0)
(-0.0111964044323 0.22930158282 0)
(-0.0120416092094 0.229349459865 0)
(-0.0128924794186 0.229374634027 0)
(-0.0137453478712 0.229375045859 0)
(-0.0145964884676 0.229350794372 0)
(-0.0154421450782 0.229300987979 0)
(-0.0162784313273 0.229226915453 0)
(-0.0171013474103 0.229128778319 0)
(-0.0179067401546 0.229008855274 0)
(-0.0186903395102 0.228868147457 0)
(-0.0194477946174 0.228709556725 0)
(-0.0201747327674 0.228534493177 0)
(-0.0208668550299 0.228346087825 0)
(-0.0215199945179 0.228145803648 0)
(-0.0221302372577 0.227936686792 0)
(-0.0226939470495 0.227720008323 0)
(-0.0232078801046 0.227498538819 0)
(-0.0236691609033 0.227273232264 0)
(-0.0240753797204 0.227046498323 0)
(-0.0244245212854 0.22681893774 0)
(-0.0247150486271 0.226592584847 0)
(-0.0249458028155 0.226367702735 0)
(-0.0251160887528 0.226145971963 0)
(-0.0252253125221 0.225927370242 0)
(-0.025273069303 0.225713308108 0)
(-0.0252595561962 0.225503640315 0)
(-0.0251857772262 0.225299608688 0)
(-0.0250528288294 0.225100784485 0)
(-0.0248618544831 0.224908119472 0)
(-0.024614189316 0.224721107236 0)
(-0.0243114431513 0.224540585152 0)
(-0.0239553778441 0.224366006304 0)
(-0.0235479998491 0.224198123187 0)
(-0.0230914485631 0.224036379237 0)
(-0.0225880860088 0.223881469278 0)
(-0.0220403913451 0.223732851149 0)
(-0.0214510434846 0.223591183041 0)
(-0.0208228212826 0.223455952603 0)
(-0.0201586771582 0.223327795026 0)
(-0.019461640867 0.223206236125 0)
(-0.0187348818611 0.223091897397 0)
(-0.0179816157861 0.222984346405 0)
(-0.0172051550576 0.222884196769 0)
(-0.016408816088 0.222791059187 0)
(-0.015595957482 0.222705544976 0)
(-0.0147698876414 0.222627309136 0)
(-0.0139338917572 0.222556966254 0)
(-0.0130911390378 0.222494218065 0)
(-0.0122447001455 0.222439689777 0)
(-0.0113974555573 0.222393133849 0)
(-0.0105521067573 0.222355193911 0)
(-0.00971108563224 0.222325678253 0)
(-0.00887655953368 0.222305256768 0)
(-0.00805033647677 0.222293795856 0)
(-0.00723385431492 0.22229198916 0)
(-0.00642806067709 0.222299739694 0)
(-0.00563335862229 0.222317711284 0)
(-0.00484942272607 0.222345721662 0)
(-0.00407506029531 0.222384168562 0)
(-0.00330793057948 0.222432347597 0)
(-0.00254438223115 0.222489626932 0)
(-0.00177954181582 0.222553484078 0)
(-0.00100888459624 0.222620214578 0)
(-0.00023249197712 0.222683119763 0)
(0.000534220421562 0.222736558089 0)
(0.00126976401677 0.222778121825 0)
(0.00196465183442 0.222811400543 0)
(0.00261424218914 0.222843737142 0)
(0.00321915383013 0.222882260514 0)
(0.00378700096732 0.222929608146 0)
(0.00432442858279 0.222987219269 0)
(0.00483632208427 0.223054865827 0)
(0.00532585766115 0.223132437533 0)
(0.00579492431893 0.223219035382 0)
(0.00624444781286 0.223314310409 0)
(0.00667466924079 0.223417373255 0)
(0.00708531313318 0.223527965413 0)
(0.00747573124081 0.223645348756 0)
(0.00784498073644 0.22376939676 0)
(0.00819190687228 0.223899514805 0)
(0.00851518581898 0.224035674448 0)
(0.00881338489697 0.224177379151 0)
(0.00908499258487 0.224324646184 0)
(0.00932847114931 0.224477023316 0)
(0.00954228114203 0.224634518922 0)
(0.00972493122913 0.224796672338 0)
(0.00987499913493 0.224963431996 0)
(0.00999118025718 0.225134281344 0)
(0.0100723054053 0.225309064675 0)
(0.0101173888272 0.225487169602 0)
(0.0101256430846 0.225668300325 0)
(0.0100965656755 0.225851714837 0)
(0.0100299207343 0.226036954565 0)
(0.0099256500258 0.226223142449 0)
(0.00978395027226 0.226409600065 0)
(0.00960539802941 0.226595207249 0)
(0.00939089404388 0.226779003391 0)
(0.00914169113501 0.226959584757 0)
(0.00885936710509 0.2271356532 0)
(0.00854582476725 0.22730547126 0)
(0.00820322805811 0.22746736396 0)
(0.00783395840098 0.227619243577 0)
(0.00744049963526 0.227759081246 0)
(0.00702534667189 0.227884522513 0)
(0.00659085453588 0.227993350842 0)
(0.00613914414698 0.228083213183 0)
(0.00567199786876 0.228152083305 0)
(0.00519088424132 0.228198088523 0)
(0.0046970525913 0.228219939444 0)
(0.00419183409404 0.228216802329 0)
(0.00367706047526 0.228188624514 0)
(0.00315568308752 0.228135986434 0)
(0.00263244121193 0.228060288172 0)
(0.00211459786635 0.227963603652 0)
(0.00161260368233 0.227848824861 0)
(0.00114093599253 0.227719676546 0)
(0.00072015763805 0.227581011733 0)
(0.000380213540777 0.227439356088 0)
(-0.0014325360613 0.227299176404 0)
(-0.00154997828845 0.227199453374 0)
(-0.00139702687398 0.230993975278 0)
(-0.00170192496987 0.231022149039 0)
(-0.00076067640704 0.231075514357 0)
(-0.00107326897965 0.231146147451 0)
(-0.00141122392136 0.231236311047 0)
(-0.00178108388874 0.231345590629 0)
(-0.00218753854872 0.231473315435 0)
(-0.00263436416896 0.231618374754 0)
(-0.00312394864047 0.231779743551 0)
(-0.00365750843295 0.231955746993 0)
(-0.00423490105867 0.232144728583 0)
(-0.00485502608467 0.232344191226 0)
(-0.00551567834408 0.232551603309 0)
(-0.00621399828912 0.232763515596 0)
(-0.00694638101437 0.232976476471 0)
(-0.00770889615704 0.23318618169 0)
(-0.00849723763242 0.233388486016 0)
(-0.00930707439723 0.2335785947 0)
(-0.010134005633 0.233752156528 0)
(-0.0109738116247 0.233904474553 0)
(-0.0118223865715 0.234031648966 0)
(-0.0126758819211 0.234129760903 0)
(-0.0135306075379 0.234196021543 0)
(-0.0143830813229 0.234227879016 0)
(-0.0152299103989 0.234224128268 0)
(-0.0160677793869 0.234183901702 0)
(-0.0168933445091 0.234107715366 0)
(-0.0177032065899 0.23399633859 0)
(-0.0184938586262 0.233851784264 0)
(-0.0192616827684 0.233676087306 0)
(-0.020002974522 0.233472276725 0)
(-0.0207139731583 0.233243115994 0)
(-0.0213909506203 0.232992098342 0)
(-0.0220302521506 0.232722194037 0)
(-0.0226284151421 0.232436894129 0)
(-0.0231821873086 0.23213899036 0)
(-0.0236886430071 0.231831667386 0)
(-0.0241451595429 0.231517319116 0)
(-0.0245495171618 0.231198674992 0)
(-0.0248998339089 0.230877649723 0)
(-0.0251946512848 0.230556483423 0)
(-0.0254328407591 0.230236619707 0)
(-0.0256136812551 0.229919843647 0)
(-0.02573656494 0.22960718734 0)
(-0.0258008356352 0.229299977451 0)
(-0.0258063155145 0.228998998833 0)
(-0.0257540190356 0.228705461935 0)
(-0.0256450802045 0.228419801984 0)
(-0.0254804351807 0.22814287976 0)
(-0.0252611917111 0.227874984917 0)
(-0.0249887072647 0.227616842806 0)
(-0.0246644775409 0.227368656812 0)
(-0.0242902182009 0.227131066934 0)
(-0.0238677648609 0.226904233214 0)
(-0.0233991518731 0.226688743424 0)
(-0.0228865188879 0.226484740361 0)
(-0.0223321827087 0.226292777655 0)
(-0.0217385491067 0.226112990946 0)
(-0.021108175738 0.225945903059 0)
(-0.020443687906 0.225791639351 0)
(-0.0197478309086 0.225650684 0)
(-0.0190233884621 0.225523137566 0)
(-0.0182732238934 0.225409427672 0)
(-0.0175002003142 0.225309607257 0)
(-0.0167072106683 0.225224022734 0)
(-0.0158970991818 0.225152649688 0)
(-0.0150726814781 0.2250957225 0)
(-0.0142366677501 0.225053105072 0)
(-0.0133916751718 0.225024885337 0)
(-0.0125401541984 0.225010777557 0)
(-0.0116843966634 0.225010685699 0)
(-0.0108264666727 0.225024134804 0)
(-0.00996820643562 0.225050805864 0)
(-0.00911116950984 0.225089990999 0)
(-0.00825662114962 0.225141099499 0)
(-0.00740546465674 0.225203126592 0)
(-0.00655822757448 0.225275121894 0)
(-0.00571497152079 0.225355650734 0)
(-0.00487527201636 0.22544320713 0)
(-0.00403815868325 0.225535640181 0)
(-0.00320226407286 0.225630493619 0)
(-0.00236626645072 0.225724404078 0)
(-0.00153014650172 0.225813520584 0)
(-0.000697058753392 0.225893449597 0)
(0.000121450730816 0.225960750002 0)
(0.000909226892056 0.226016483177 0)
(0.00165982822966 0.226062015106 0)
(0.00237311423885 0.226099971308 0)
(0.00304621057397 0.226136915548 0)
(0.00367918304227 0.226176843849 0)
(0.00427560911178 0.226222702046 0)
(0.00483861690939 0.226276353876 0)
(0.00537072792393 0.226339228733 0)
(0.0058738328506 0.226412121824 0)
(0.0063492447653 0.226495704793 0)
(0.00679782910771 0.226590245096 0)
(0.00722006024081 0.226696034653 0)
(0.00761611532873 0.2268130658 0)
(0.007985902447 0.226941414133 0)
(0.00832912838695 0.227080900462 0)
(0.00864531460258 0.22723144595 0)
(0.00893385397106 0.227392734773 0)
(0.00919402325336 0.227564549397 0)
(0.00942503551803 0.227746441543 0)
(0.00962605218472 0.227938050221 0)
(0.0097962339169 0.228138784919 0)
(0.00993475277724 0.228348126925 0)
(0.0100408421859 0.228565327092 0)
(0.0101138084478 0.228789689745 0)
(0.0101530791985 0.229020286103 0)
(0.0101582123426 0.229256220018 0)
(0.0101290100517 0.229496359116 0)
(0.0100655034268 0.229739604476 0)
(0.00996777910682 0.229984641584 0)
(0.00983608538352 0.230230091173 0)
(0.00967100862303 0.23047429601 0)
(0.00947336985774 0.230715527281 0)
(0.00924424301092 0.230951765257 0)
(0.00898491759319 0.231180889333 0)
(0.00869688660838 0.231400489172 0)
(0.00838177198843 0.23160805414 0)
(0.00804127230073 0.231800831591 0)
(0.00767704642778 0.231976035537 0)
(0.00729062896738 0.232130773027 0)
(0.0068832997517 0.232262289354 0)
(0.00645602187433 0.232367970669 0)
(0.00600938337475 0.232445617147 0)
(0.00554367352137 0.23249349125 0)
(0.00505902983455 0.232510563281 0)
(0.00455578015644 0.232496529823 0)
(0.00403488590318 0.232451950624 0)
(0.00349856574208 0.23237817295 0)
(0.00295094566367 0.232277340992 0)
(0.00239875047236 0.232152279932 0)
(0.00185186025749 0.232006519888 0)
(0.00132381938432 0.231844361184 0)
(0.000833066379197 0.231671169713 0)
(0.000403931255552 0.231493696161 0)
(-0.00142776106395 0.231316939363 0)
(-0.00153184845759 0.231229281137 0)
(-0.00141496578976 0.230889902595 0)
(-0.00173936860999 0.230917172545 0)
(-0.000816470206341 0.230983397163 0)
(-0.001162557086 0.231076494 0)
(-0.00153396452027 0.231197337251 0)
(-0.00193771559175 0.231345060062 0)
(-0.00237891177581 0.231518429966 0)
(-0.00286132661011 0.231715819253 0)
(-0.00338721826645 0.231935338748 0)
(-0.00395765789218 0.232174574768 0)
(-0.00457226943089 0.232430771326 0)
(-0.00522963928823 0.23270048682 0)
(-0.00592718480931 0.232979872612 0)
(-0.00666158336784 0.233264351325 0)
(-0.00742871700623 0.233548990724 0)
(-0.00822409992617 0.233828250498 0)
(-0.00904287660342 0.234096444438 0)
(-0.0098801868133 0.234347557587 0)
(-0.0107311748999 0.234575775688 0)
(-0.011591252706 0.234775342709 0)
(-0.0124560768416 0.234941119417 0)
(-0.0133216920162 0.235068428085 0)
(-0.0141844566847 0.235153589454 0)
(-0.0150410747541 0.235193695581 0)
(-0.0158884795929 0.235187075163 0)
(-0.0167237899202 0.235132948385 0)
(-0.0175441917123 0.235031794734 0)
(-0.018346872928 0.234884881529 0)
(-0.0191289538255 0.234694548176 0)
(-0.0198874492872 0.234463641582 0)
(-0.0206192781303 0.234195765412 0)
(-0.021321267449 0.233894680761 0)
(-0.0219902323963 0.23356457521 0)
(-0.0226230012555 0.233209478856 0)
(-0.0232165309988 0.232833588067 0)
(-0.0237679190894 0.232440722489 0)
(-0.0242745207777 0.232034709872 0)
(-0.0247339263502 0.231618884706 0)
(-0.0251440638177 0.231196521827 0)
(-0.0255031390242 0.230770367161 0)
(-0.0258097228737 0.230343101369 0)
(-0.0260626638975 0.22991689172 0)
(-0.0262611686285 0.229493869938 0)
(-0.0264047054772 0.229075699324 0)
(-0.0264922762534 0.228663865523 0)
(-0.0265230622127 0.228259749064 0)
(-0.0264980803563 0.227864796538 0)
(-0.0264185282355 0.227479909647 0)
(-0.026285086684 0.227106112838 0)
(-0.0260985955955 0.226744132933 0)
(-0.0258601182637 0.226394831189 0)
(-0.0255708412063 0.226058821476 0)
(-0.0252321505945 0.22573687006 0)
(-0.0248455420442 0.225429528886 0)
(-0.0244126922699 0.225137506364 0)
(-0.0239353749101 0.224861319548 0)
(-0.0234155255977 0.22460163495 0)
(-0.0228551629127 0.224358940704 0)
(-0.0222564451421 0.224133857734 0)
(-0.021621594982 0.223926833004 0)
(-0.0209529467889 0.223738422046 0)
(-0.0202528742179 0.223569002962 0)
(-0.0195238276905 0.223419032193 0)
(-0.0187682642968 0.223288778861 0)
(-0.0179886759115 0.223178556021 0)
(-0.017187521521 0.223088473669 0)
(-0.0163672475082 0.223018648337 0)
(-0.0155302231391 0.22296897337 0)
(-0.0146787554525 0.222939309964 0)
(-0.0138150297333 0.222929272679 0)
(-0.0129411225165 0.222938405764 0)
(-0.0120589486514 0.222965982589 0)
(-0.0111702751931 0.223011171157 0)
(-0.01027667471 0.223072844862 0)
(-0.00937954017295 0.223149739611 0)
(-0.00848004074869 0.223240270559 0)
(-0.00757913807598 0.223342678645 0)
(-0.00667754852289 0.223454842787 0)
(-0.00577578761686 0.223574410801 0)
(-0.00487420553171 0.223698601923 0)
(-0.00397322072529 0.223824337483 0)
(-0.00307372420212 0.223948095991 0)
(-0.00217790170273 0.224066222248 0)
(-0.0012902430196 0.224175192129 0)
(-0.00041775705456 0.224272544191 0)
(0.000426361068422 0.224358750847 0)
(0.00123187507259 0.224436707634 0)
(0.00200125137939 0.224506748846 0)
(0.00273482683856 0.224571838508 0)
(0.00342863604608 0.224637564305 0)
(0.00408267977088 0.224707015635 0)
(0.00469862236862 0.224782907833 0)
(0.00527800446458 0.224867450793 0)
(0.00582221691021 0.224962336366 0)
(0.00633241891819 0.225068933252 0)
(0.00680957969454 0.225188225893 0)
(0.00725445728463 0.225320983112 0)
(0.00766764665717 0.225467680187 0)
(0.00804956311369 0.225628645612 0)
(0.00840048705098 0.225803968782 0)
(0.00872055254078 0.225993632877 0)
(0.00900979127675 0.226197415004 0)
(0.00926812582184 0.226415009291 0)
(0.00949541385073 0.226645923652 0)
(0.00969144593712 0.226889595073 0)
(0.00985599078938 0.227145285513 0)
(0.00998879662693 0.227412190028 0)
(0.0100896368986 0.227689333328 0)
(0.0101583133132 0.227975670412 0)
(0.0101947003357 0.228269984607 0)
(0.0101987474835 0.228570980651 0)
(0.0101706227354 0.228877186391 0)
(0.0101107046743 0.229187059534 0)
(0.0100192859783 0.229498914545 0)
(0.00989670304227 0.229810905845 0)
(0.00974360031926 0.230120951574 0)
(0.00956077523227 0.23042680996 0)
(0.00934917992444 0.23072599469 0)
(0.00910987572071 0.231015844569 0)
(0.00884401329031 0.231293460402 0)
(0.00855275263652 0.231555791099 0)
(0.00823720880338 0.23179960951 0)
(0.00789833976804 0.232021633941 0)
(0.007536872659 0.23221856071 0)
(0.00715319270076 0.232387233137 0)
(0.00674730691659 0.232524732061 0)
(0.00631881621817 0.232628576688 0)
(0.00586701991814 0.232696836624 0)
(0.0053910836358 0.232728307242 0)
(0.00489038806174 0.232722571763 0)
(0.0043649626721 0.232680080217 0)
(0.00381608449577 0.232602112772 0)
(0.00324690154203 0.232490763709 0)
(0.00266310116754 0.232348887617 0)
(0.00207343581537 0.232180178971 0)
(0.00149014808374 0.231989423721 0)
(0.000929492930999 0.231783122401 0)
(0.000412231982349 0.231570435638 0)
(-0.00140468195585 0.231361763295 0)
(-0.00148834826831 0.231279206389 0)
(-0.00143398397047 0.231549309461 0)
(-0.00177754503387 0.231581962696 0)
(-0.000869679025717 0.231662090877 0)
(-0.00124582987852 0.231777028742 0)
(-0.00164783962709 0.231927451861 0)
(-0.00208283247836 0.232112088296 0)
(-0.00255608991768 0.232329172666 0)
(-0.0030714827739 0.232576513589 0)
(-0.003631232337 0.232851417647 0)
(-0.00423626473244 0.233150650938 0)
(-0.00488601249105 0.233470395993 0)
(-0.00557880212948 0.233806171408 0)
(-0.00631170949099 0.234152868344 0)
(-0.00708100687528 0.234504712009 0)
(-0.00788212736401 0.234855396758 0)
(-0.00871010055079 0.235198129664 0)
(-0.00955959312909 0.235525856596 0)
(-0.0104252888669 0.235831383912 0)
(-0.0113019431507 0.236107667983 0)
(-0.0121846575578 0.236347979437 0)
(-0.0130688930228 0.236546210292 0)
(-0.0139506118902 0.236697023299 0)
(-0.0148262217162 0.236796119324 0)
(-0.0156925899281 0.236840308341 0)
(-0.0165469284298 0.236827683314 0)
(-0.017386720952 0.236757565003 0)
(-0.0182095945968 0.236630557072 0)
(-0.0190132231516 0.236448357744 0)
(-0.0197952440489 0.236213715711 0)
(-0.020553192899 0.235930147047 0)
(-0.021284501182 0.235601848664 0)
(-0.0219864799937 0.235233383822 0)
(-0.0226563918581 0.234829615782 0)
(-0.0232914630712 0.234395415559 0)
(-0.0238889949936 0.233935655909 0)
(-0.0244463709103 0.23345496697 0)
(-0.0249611720465 0.23295779965 0)
(-0.0254311560514 0.232448227992 0)
(-0.0258543596568 0.231930070342 0)
(-0.0262290442939 0.231406725183 0)
(-0.026553782551 0.230881331139 0)
(-0.0268273764184 0.230356621495 0)
(-0.0270489257235 0.229835106299 0)
(-0.0272181066288 0.229318941971 0)
(-0.0273336147011 0.228809950259 0)
(-0.0273937925939 0.228309815174 0)
(-0.0273995825889 0.227820170828 0)
(-0.0273522847126 0.227342429055 0)
(-0.0272523730386 0.226877818244 0)
(-0.0271004323481 0.226427387873 0)
(-0.0268972319402 0.225992183305 0)
(-0.0266436507929 0.22557311971 0)
(-0.0263407493261 0.225171132489 0)
(-0.025989688998 0.224787055971 0)
(-0.0255917978601 0.224421754798 0)
(-0.0251484958722 0.224076009531 0)
(-0.0246613545272 0.223750627637 0)
(-0.0241320266986 0.223446337703 0)
(-0.0235622988263 0.22316388017 0)
(-0.0229540242614 0.222903911691 0)
(-0.0223091672041 0.222667076348 0)
(-0.0216297388645 0.222453920717 0)
(-0.0209178331342 0.222264947096 0)
(-0.0201755653389 0.222100539467 0)
(-0.0194051003835 0.221961000763 0)
(-0.0186085944659 0.221846489027 0)
(-0.0177882172599 0.221757041425 0)
(-0.0169460976548 0.22169251991 0)
(-0.0160843424254 0.221652625209 0)
(-0.0152049876092 0.221636851013 0)
(-0.0143100168077 0.221644492111 0)
(-0.0134013197761 0.221674606803 0)
(-0.0124807131806 0.221726023896 0)
(-0.0115499065976 0.221797312783 0)
(-0.0106105274667 0.221886793566 0)
(-0.00966409400891 0.221992513092 0)
(-0.00871204957676 0.222112260149 0)
(-0.00775575258381 0.22224354444 0)
(-0.00679655145609 0.222383620037 0)
(-0.00583585143655 0.222529475472 0)
(-0.00487534150884 0.222677894684 0)
(-0.00391728903078 0.222825526494 0)
(-0.00296504158827 0.222969111484 0)
(-0.00202338908406 0.223105823657 0)
(-0.00109866719629 0.223233847681 0)
(-0.000198563690588 0.223352514954 0)
(0.000665415464384 0.223464672139 0)
(0.00148856124646 0.223572684561 0)
(0.00227641850154 0.223675993895 0)
(0.00302743308078 0.22377778131 0)
(0.00373707620875 0.223882593524 0)
(0.00440567313866 0.223993023133 0)
(0.00503389093375 0.22411152233 0)
(0.00562253494217 0.224240163091 0)
(0.00617243183162 0.22438066537 0)
(0.00668442009925 0.224534414331 0)
(0.00715929034831 0.224702500541 0)
(0.00759779994715 0.22488573301 0)
(0.00800062513218 0.22508467193 0)
(0.00836838834396 0.225299637528 0)
(0.00870162504344 0.225530737619 0)
(0.00900081607656 0.225777871157 0)
(0.00926636337151 0.226040753254 0)
(0.00949862520319 0.226318912964 0)
(0.00969789960983 0.226611716316 0)
(0.00986446251595 0.226918359003 0)
(0.00999855721781 0.227237887436 0)