/*--------------------------------*- C++ -*----------------------------------*\
| =========                 |                                                 |
| \\      /  F ield         | OpenFOAM: The Open Source CFD Toolbox           |
|  \\    /   O peration     | Version:  2212                                  |
|   \\  /    A nd           | Website:  www.openfoam.com                      |
|    \\/     M anipulation  |                                                 |
\*---------------------------------------------------------------------------*/
FoamFile
{
    version     2.0;
    format      ascii;
    arch        "LSB;label=64;scalar=64";
    class       surfaceScalarField;
    location    "0.17";
    object      phi;
}
// * * * * * * * * * * * * * * * * * * * * * * * * * * * * * * * * * * * * * //

dimensions      [0 3 -1 0 0 0 0];

oriented        oriented;

internalField   nonuniform List<scalar> 
65152
(
-3.6933e-12
3.6933e-12
-6.82516e-12
3.13185e-12
-7.96557e-12
1.14042e-12
-7.85625e-12
-1.09326e-13
-7.2207e-12
-6.35558e-13
-6.39906e-12
-8.21641e-13
-5.52592e-12
-8.73145e-13
-4.64883e-12
-8.77083e-13
-3.78591e-12
-8.62931e-13
-2.94656e-12
-8.39348e-13
-2.13736e-12
-8.09201e-13
-1.36402e-12
-7.73346e-13
-6.31585e-13
-7.32436e-13
5.54146e-14
-6.87002e-13
6.92966e-13
-6.37554e-13
1.27743e-12
-5.84471e-13
1.80565e-12
-5.2822e-13
2.27494e-12
-4.69287e-13
2.68311e-12
-4.08174e-13
3.0285e-12
-3.45395e-13
3.30999e-12
-2.8149e-13
3.52702e-12
-2.17027e-13
3.67967e-12
-1.52655e-13
3.7689e-12
-8.92299e-14
3.79733e-12
-2.84352e-14
3.77352e-12
2.38134e-14
3.68643e-12
8.70848e-14
3.53928e-12
1.47152e-13
3.34028e-12
1.99005e-13
3.09321e-12
2.47071e-13
2.80398e-12
2.89226e-13
2.47887e-12
3.25119e-13
2.12598e-12
3.52897e-13
1.75067e-12
3.7531e-13
1.3552e-12
3.95479e-13
9.42576e-13
4.12634e-13
5.16031e-13
4.26555e-13
7.91403e-14
4.36902e-13
-3.64112e-13
4.43265e-13
-8.09374e-13
4.45277e-13
-1.25204e-12
4.42678e-13
-1.68765e-12
4.35633e-13
-2.11496e-12
4.27322e-13
-2.52569e-12
4.10756e-13
-2.91556e-12
3.89887e-13
-3.28462e-12
3.69083e-13
-3.62543e-12
3.40824e-13
-3.93465e-12
3.09249e-13
-4.21506e-12
2.80426e-13
-4.4593e-12
2.44266e-13
-4.66621e-12
2.06935e-13
-4.83639e-12
1.70198e-13
-4.9678e-12
1.31429e-13
-5.06123e-12
9.34511e-14
-5.11688e-12
5.56772e-14
-5.13641e-12
1.95438e-14
-5.12337e-12
-1.3014e-14
-5.08459e-12
-3.87662e-14
-5.0184e-12
-6.61674e-14
-4.92479e-12
-9.3588e-14
-4.8088e-12
-1.1597e-13
-4.66834e-12
-1.40447e-13
-4.50892e-12
-1.59402e-13
-4.3431e-12
-1.658e-13
-4.18458e-12
-1.58508e-13
-4.04289e-12
-1.41671e-13
-3.92154e-12
-1.21333e-13
-3.81681e-12
-1.04716e-13
-3.73157e-12
-8.52318e-14
-3.6691e-12
-6.24538e-14
-3.6279e-12
-4.11922e-14
-3.60614e-12
-2.17417e-14
-3.6092e-12
3.06919e-15
-3.63948e-12
3.0287e-14
-3.69816e-12
5.86883e-14
-3.78571e-12
8.75494e-14
-3.90202e-12
1.1631e-13
-4.04647e-12
1.44455e-13
-4.21796e-12
1.71495e-13
-4.41491e-12
1.96951e-13
-4.63529e-12
2.20372e-13
-4.87662e-12
2.4133e-13
-5.13607e-12
2.59441e-13
-5.41044e-12
2.74361e-13
-5.69626e-12
2.85807e-13
-5.98983e-12
2.93558e-13
-6.28732e-12
2.97474e-13
-6.58484e-12
2.97505e-13
-6.87857e-12
2.93717e-13
-7.16489e-12
2.86299e-13
-7.4405e-12
2.75583e-13
-7.70253e-12
2.62006e-13
-7.94858e-12
2.46027e-13
-8.17645e-12
2.27844e-13
-8.38367e-12
2.0719e-13
-8.56807e-12
1.84372e-13
-8.71952e-12
1.51415e-13
-8.83011e-12
1.10551e-13
-8.8915e-12
6.1352e-14
-8.90026e-12
8.7293e-15
-8.85844e-12
-4.18626e-14
-8.75858e-12
-9.98976e-14
-8.59721e-12
-1.61415e-13
-8.37201e-12
-2.25251e-13
-8.08145e-12
-2.90609e-13
-7.72467e-12
-3.56821e-13
-7.30145e-12
-4.23272e-13
-6.81213e-12
-4.89381e-13
-6.2576e-12
-5.54586e-13
-5.63931e-12
-6.18345e-13
-4.95924e-12
-6.8013e-13
-4.21987e-12
-7.39436e-13
-3.42417e-12
-7.95767e-13
-2.57559e-12
-8.4865e-13
-1.67803e-12
-8.97623e-13
-7.35868e-13
-9.42239e-13
2.4611e-13
-9.82053e-13
1.26266e-12
-1.01663e-12
2.30808e-12
-1.0455e-12
3.37556e-12
-1.06756e-12
4.45558e-12
-1.0801e-12
5.52991e-12
-1.07441e-12
6.55044e-12
-1.02061e-12
7.38052e-12
-8.3016e-13
7.67231e-12
-2.91865e-13
6.71096e-12
9.61262e-13
3.69978e-12
3.01109e-12
3.69976e-12
-2.28371e-12
5.97701e-12
-2.38251e-12
3.23064e-12
5.52592e-13
-1.79469e-12
5.26437e-12
-4.8211e-12
1.07094e-11
-6.08057e-12
1.63647e-11
-6.47696e-12
2.2034e-11
-6.54245e-12
2.76484e-11
-6.49152e-12
3.31796e-11
-6.39416e-12
3.86106e-11
-6.27026e-12
4.39265e-11
-6.12517e-12
4.91137e-11
-5.96052e-12
5.41584e-11
-5.77719e-12
5.90474e-11
-5.57597e-12
6.37675e-11
-5.35769e-12
6.83063e-11
-5.1232e-12
7.26515e-11
-4.87346e-12
7.67917e-11
-4.60946e-12
8.07157e-11
-4.33226e-12
8.44133e-11
-4.04296e-12
8.78745e-11
-3.74273e-12
9.10903e-11
-3.43277e-12
9.4052e-11
-3.11434e-12
9.67515e-11
-2.78875e-12
9.91804e-11
-2.45733e-12
1.01325e-10
-2.12117e-12
1.03192e-10
-1.77987e-12
1.04775e-10
-1.43579e-12
1.06065e-10
-1.09099e-12
1.07059e-10
-7.46672e-13
1.07753e-10
-4.04323e-13
1.08142e-10
-6.39679e-14
1.08228e-10
2.66997e-13
1.0801e-10
5.93304e-13
1.07489e-10
9.16395e-13
1.06667e-10
1.23395e-12
1.05549e-10
1.5445e-12
1.0414e-10
1.84676e-12
1.02443e-10
2.13978e-12
1.00466e-10
2.42266e-12
9.82138e-11
2.69462e-12
9.56943e-11
2.95511e-12
9.2918e-11
3.20366e-12
8.98895e-11
3.43928e-12
8.66175e-11
3.66191e-12
8.31151e-11
3.87156e-12
7.93884e-11
4.06755e-12
7.54475e-11
4.25011e-12
7.13083e-11
4.41963e-12
6.69772e-11
4.57541e-12
6.24663e-11
4.71792e-12
5.77889e-11
4.84761e-12
5.29557e-11
4.96459e-12
4.79799e-11
5.06932e-12
4.28734e-11
5.16222e-12
3.76491e-11
5.24385e-12
3.23213e-11
5.3148e-12
2.69072e-11
5.37539e-12
2.1416e-11
5.42501e-12
1.58586e-11
5.46383e-12
1.02504e-11
5.49228e-12
4.59996e-12
5.51001e-12
-1.07785e-12
5.51842e-12
-6.76578e-12
5.52215e-12
-1.24485e-11
5.52423e-12
-1.81098e-11
5.51967e-12
-2.37348e-11
5.50364e-12
-2.93138e-11
5.47436e-12
-3.48315e-11
5.43249e-12
-4.02724e-11
5.37839e-12
-4.56254e-11
5.31181e-12
-5.088e-11
5.23291e-12
-5.60194e-11
5.14246e-12
-6.10294e-11
5.04034e-12
-6.58971e-11
4.92631e-12
-7.06096e-11
4.80007e-12
-7.51547e-11
4.66141e-12
-7.95204e-11
4.51014e-12
-8.3695e-11
4.34614e-12
-8.76674e-11
4.16931e-12
-9.14266e-11
3.97964e-12
-9.49625e-11
3.77719e-12
-9.82652e-11
3.56208e-12
-1.01325e-10
3.33451e-12
-1.04134e-10
3.09476e-12
-1.06684e-10
2.84321e-12
-1.08967e-10
2.58033e-12
-1.10976e-10
2.30669e-12
-1.12705e-10
2.02299e-12
-1.14149e-10
1.73002e-12
-1.15302e-10
1.42872e-12
-1.1616e-10
1.12011e-12
-1.1672e-10
8.05154e-13
-1.16976e-10
4.84757e-13
-1.16929e-10
1.59767e-13
-1.16573e-10
-1.71512e-13
-1.15912e-10
-5.10339e-13
-1.14947e-10
-8.5438e-13
-1.13683e-10
-1.20194e-12
-1.12124e-10
-1.55081e-12
-1.10267e-10
-1.89908e-12
-1.0812e-10
-2.24629e-12
-1.05691e-10
-2.59111e-12
-1.02984e-10
-2.93213e-12
-1.00007e-10
-3.26798e-12
-9.67663e-11
-3.5973e-12
-9.32708e-11
-3.91877e-12
-8.95291e-11
-4.23113e-12
-8.55506e-11
-4.53315e-12
-8.13454e-11
-4.82364e-12
-7.69242e-11
-5.10147e-12
-7.22981e-11
-5.36554e-12
-6.74791e-11
-5.61484e-12
-6.24795e-11
-5.84838e-12
-5.73119e-11
-6.06527e-12
-5.19896e-11
-6.26466e-12
-4.6526e-11
-6.4458e-12
-4.09347e-11
-6.60798e-12
-3.52299e-11
-6.75039e-12
-2.94261e-11
-6.87145e-12
-2.35405e-11
-6.96585e-12
-1.76014e-11
-7.01362e-12
-1.16777e-11
-6.94433e-12
-5.9659e-12
-6.5421e-12
-9.87724e-13
-5.27014e-12
2.1828e-12
-2.20936e-12
2.2606e-12
2.93318e-12
5.96034e-12
-1.90066e-12
7.87766e-12
-9.72117e-13
2.3021e-12
3.1502e-12
-5.91701e-12
9.05669e-12
-1.07276e-11
1.5682e-11
-1.27059e-11
2.25174e-11
-1.33124e-11
2.93658e-11
-1.33908e-11
3.61539e-11
-1.32796e-11
4.28493e-11
-1.30896e-11
4.94312e-11
-1.28522e-11
5.5882e-11
-1.2576e-11
6.21853e-11
-1.22638e-11
6.83249e-11
-1.19168e-11
7.42853e-11
-1.15364e-11
8.00513e-11
-1.11237e-11
8.56081e-11
-1.068e-11
9.09415e-11
-1.02068e-11
9.60377e-11
-9.70561e-12
1.00883e-10
-9.17795e-12
1.05466e-10
-8.62551e-12
1.09773e-10
-8.05003e-12
1.13794e-10
-7.45333e-12
1.17517e-10
-6.83724e-12
1.20932e-10
-6.20367e-12
1.24029e-10
-5.55453e-12
1.26799e-10
-4.89168e-12
1.29236e-10
-4.21694e-12
1.31333e-10
-3.53242e-12
1.33082e-10
-2.84022e-12
1.34478e-10
-2.14236e-12
1.35514e-10
-1.4407e-12
1.36187e-10
-7.36998e-13
1.36485e-10
-3.11527e-14
1.36414e-10
6.65266e-13
1.3597e-10
1.35946e-12
1.35157e-10
2.04724e-12
1.33975e-10
2.72626e-12
1.32428e-10
3.39433e-12
1.30518e-10
4.0496e-12
1.2825e-10
4.69029e-12
1.2563e-10
5.31473e-12
1.22664e-10
5.92136e-12
1.19359e-10
6.50871e-12
1.15723e-10
7.07536e-12
1.11765e-10
7.62007e-12
1.07495e-10
8.1417e-12
1.02923e-10
8.63919e-12
9.80617e-11
9.11163e-12
9.29231e-11
9.55824e-12
8.75203e-11
9.97823e-12
8.18672e-11
1.0371e-11
7.59787e-11
1.07362e-11
6.987e-11
1.10733e-11
6.35571e-11
1.13822e-11
5.70569e-11
1.16625e-11
5.03866e-11
1.19142e-11
4.35642e-11
1.21372e-11
3.66081e-11
1.23315e-11
2.95363e-11
1.24968e-11
2.23669e-11
1.26333e-11
1.51183e-11
1.27408e-11
7.80881e-12
1.28196e-11
4.57786e-13
1.28695e-11
-6.91068e-12
1.28906e-11
-1.42709e-11
1.28845e-11
-2.15996e-11
1.28483e-11
-2.88764e-11
1.27805e-11
-3.60827e-11
1.26806e-11
-4.31993e-11
1.25492e-11
-5.02073e-11
1.23864e-11
-5.70881e-11
1.21926e-11
-6.38234e-11
1.19682e-11
-7.03946e-11
1.17136e-11
-7.67836e-11
1.14293e-11
-8.2973e-11
1.11157e-11
-8.89461e-11
1.07732e-11
-9.4687e-11
1.04023e-11
-1.0018e-10
1.00036e-11
-1.05412e-10
9.57776e-12
-1.10368e-10
9.12548e-12
-1.15036e-10
8.64759e-12
-1.19404e-10
8.14503e-12
-1.23461e-10
7.61882e-12
-1.27196e-10
7.07005e-12
-1.30602e-10
6.49996e-12
-1.33668e-10
5.90986e-12
-1.36389e-10
5.30115e-12
-1.38758e-10
4.67533e-12
-1.40769e-10
4.03401e-12
-1.42418e-10
3.37886e-12
-1.43701e-10
2.71164e-12
-1.44615e-10
2.03411e-12
-1.45157e-10
1.3479e-12
-1.45328e-10
6.54776e-13
-1.45126e-10
-4.15112e-14
-1.44549e-10
-7.49201e-13
-1.43602e-10
-1.45746e-12
-1.4229e-10
-2.16604e-12
-1.40619e-10
-2.87302e-12
-1.38593e-10
-3.57631e-12
-1.36219e-10
-4.27375e-12
-1.33502e-10
-4.96331e-12
-1.3045e-10
-5.64291e-12
-1.27072e-10
-6.31045e-12
-1.23376e-10
-6.96383e-12
-1.19372e-10
-7.60102e-12
-1.15071e-10
-8.22002e-12
-1.10484e-10
-8.81887e-12
-1.05621e-10
-9.39573e-12
-1.00496e-10
-9.94877e-12
-9.51213e-11
-1.04763e-11
-8.95103e-11
-1.09766e-11
-8.36769e-11
-1.14483e-11
-7.76356e-11
-1.18898e-11
-7.14013e-11
-1.22997e-11
-6.49891e-11
-1.26769e-11
-5.84149e-11
-1.30201e-11
-5.16947e-11
-1.33283e-11
-4.4845e-11
-1.36002e-11
-3.78833e-11
-1.38332e-11
-3.08305e-11
-1.40188e-11
-2.3719e-11
-1.41252e-11
-1.66224e-11
-1.4041e-11
-9.73887e-12
-1.34258e-11
-3.58095e-12
-1.14282e-11
7.71712e-13
-6.56212e-12
1.87531e-12
1.82948e-12
7.83563e-12
-1.895e-12
9.77265e-12
-8.30342e-13
1.23744e-12
3.55136e-12
-1.02987e-11
9.75612e-12
-1.69324e-11
1.66889e-11
-1.96387e-11
2.38329e-11
-2.04564e-11
3.09885e-11
-2.05464e-11
3.80813e-11
-2.03725e-11
4.50779e-11
-2.00861e-11
5.19567e-11
-1.97309e-11
5.86993e-11
-1.93186e-11
6.52886e-11
-1.88531e-11
7.17078e-11
-1.83361e-11
7.79407e-11
-1.77693e-11
8.39715e-11
-1.71545e-11
8.97848e-11
-1.64933e-11
9.53656e-11
-1.57877e-11
1.007e-10
-1.50397e-11
1.05773e-10
-1.42515e-11
1.10573e-10
-1.34252e-11
1.15086e-10
-1.25632e-11
1.19301e-10
-1.16679e-11
1.23205e-10
-1.07419e-11
1.26789e-10
-9.78777e-12
1.30043e-10
-8.80806e-12
1.32957e-10
-7.8055e-12
1.35523e-10
-6.78282e-12
1.37733e-10
-5.74284e-12
1.39581e-10
-4.68839e-12
1.41061e-10
-3.62228e-12
1.42168e-10
-2.54728e-12
1.42897e-10
-1.46593e-12
1.43245e-10
-3.79361e-13
1.43208e-10
7.01796e-13
1.42789e-10
1.77923e-12
1.41985e-10
2.85119e-12
1.40797e-10
3.91403e-12
1.39227e-10
4.96438e-12
1.37277e-10
5.99937e-12
1.34951e-10
7.01612e-12
1.32254e-10
8.01185e-12
1.29192e-10
8.98391e-12
1.25771e-10
9.92978e-12
1.21999e-10
1.08471e-11
1.17886e-10
1.17335e-11
1.1344e-10
1.25869e-11
1.08674e-10
1.34054e-11
1.03599e-10
1.41869e-11
9.82273e-11
1.49298e-11
9.25731e-11
1.56324e-11
8.66508e-11
1.62933e-11
8.04758e-11
1.69112e-11
7.40643e-11
1.74849e-11
6.74331e-11
1.80133e-11
6.06e-11
1.84956e-11
5.35832e-11
1.89309e-11
4.64018e-11
1.93187e-11
3.90751e-11
1.96582e-11
3.16229e-11
1.99491e-11
2.40651e-11
2.0191e-11
1.64224e-11
2.03836e-11
8.71563e-12
2.05264e-11
9.66589e-13
2.06185e-11
-6.80233e-12
2.06596e-11
-1.45647e-11
2.06469e-11
-2.22963e-11
2.058e-11
-2.99747e-11
2.04588e-11
-3.75781e-11
2.02841e-11
-4.50856e-11
2.00566e-11
-5.24763e-11
1.97771e-11
-5.97298e-11
1.94461e-11
-6.68261e-11
1.90645e-11
-7.37456e-11
1.86332e-11
-8.04693e-11
1.8153e-11
-8.69788e-11
1.76252e-11
-9.32565e-11
1.70509e-11
-9.92856e-11
1.64314e-11
-1.0505e-10
1.57681e-11
-1.10535e-10
1.50626e-11
-1.15726e-10
1.43165e-11
-1.2061e-10
1.35315e-11
-1.25174e-10
1.27097e-11
-1.29409e-10
1.18529e-11
-1.33302e-10
1.09634e-11
-1.36845e-10
1.00433e-11
-1.4003e-10
9.095e-12
-1.4285e-10
8.12096e-12
-1.45299e-10
7.1237e-12
-1.47371e-10
6.10586e-12
-1.49062e-10
5.0702e-12
-1.5037e-10
4.01951e-12
-1.51292e-10
2.95656e-12
-1.51828e-10
1.88395e-12
-1.51978e-10
8.04659e-13
-1.51743e-10
-2.77193e-13
-1.51121e-10
-1.3707e-12
-1.50117e-10
-2.46126e-12
-1.48735e-10
-3.54866e-12
-1.46978e-10
-4.63017e-12
-1.44851e-10
-5.70279e-12
-1.42362e-10
-6.76354e-12
-1.39515e-10
-7.80942e-12
-1.36321e-10
-8.83748e-12
-1.32787e-10
-9.84482e-12
-1.28922e-10
-1.08286e-11
-1.24737e-10
-1.17859e-11
-1.20243e-10
-1.27142e-11
-1.15451e-10
-1.36108e-11
-1.10374e-10
-1.44732e-11
-1.05024e-10
-1.52989e-11
-9.94145e-11
-1.60856e-11
-9.35601e-11
-1.68312e-11
-8.74749e-11
-1.75335e-11
-8.1174e-11
-1.81907e-11
-7.4673e-11
-1.88009e-11
-6.79876e-11
-1.93623e-11
-6.11343e-11
-1.98735e-11
-5.41297e-11
-2.0333e-11
-4.69911e-11
-2.07389e-11
-3.97368e-11
-2.10876e-11
-3.23883e-11
-2.13673e-11
-2.49793e-11
-2.15343e-11
-1.75844e-11
-2.1436e-11
-1.04045e-11
-2.06057e-11
-3.96032e-12
-1.78725e-11
6.40639e-13
-1.11632e-11
1.87861e-12
5.91416e-13
9.71422e-12
-1.97478e-12
1.17474e-11
-8.5099e-13
1.13646e-13
3.67048e-12
-1.48202e-11
1.00814e-11
-2.33433e-11
1.72471e-11
-2.68043e-11
2.46322e-11
-2.78416e-11
3.20298e-11
-2.7944e-11
3.93623e-11
-2.7705e-11
4.6595e-11
-2.73189e-11
5.37056e-11
-2.68415e-11
6.06751e-11
-2.62882e-11
6.74858e-11
-2.56637e-11
7.41203e-11
-2.49706e-11
8.05618e-11
-2.42108e-11
8.67939e-11
-2.33866e-11
9.28009e-11
-2.25002e-11
9.85672e-11
-2.1554e-11
1.04078e-10
-2.05505e-11
1.09319e-10
-1.94925e-11
1.14277e-10
-1.83828e-11
1.18938e-10
-1.72243e-11
1.2329e-10
-1.60202e-11
1.27322e-10
-1.47735e-11
1.31022e-10
-1.34878e-11
1.3438e-10
-1.21662e-11
1.37387e-10
-1.08125e-11
1.40034e-10
-9.42998e-12
1.42313e-10
-8.02245e-12
1.44219e-10
-6.59357e-12
1.45743e-10
-5.14705e-12
1.46883e-10
-3.6866e-12
1.47633e-10
-2.21573e-12
1.4799e-10
-7.3657e-13
1.47952e-10
7.39942e-13
1.47519e-10
2.21197e-12
1.4669e-10
3.67967e-12
1.45467e-10
5.13788e-12
1.43849e-10
6.58224e-12
1.41839e-10
8.00868e-12
1.39442e-10
9.41316e-12
1.36663e-10
1.07917e-11
1.33506e-10
1.21407e-11
1.29979e-10
1.34563e-11
1.26091e-10
1.47352e-11
1.21851e-10
1.5974e-11
1.17268e-10
1.71696e-11
1.12354e-10
1.8319e-11
1.07122e-10
1.94192e-11
1.01584e-10
2.04676e-11
9.57551e-11
2.14616e-11
8.96496e-11
2.23989e-11
8.32837e-11
2.32772e-11
7.66739e-11
2.40947e-11
6.98378e-11
2.48494e-11
6.27936e-11
2.55399e-11
5.556e-11
2.61645e-11
4.81566e-11
2.67221e-11
4.06034e-11
2.72115e-11
3.29207e-11
2.76318e-11
2.51295e-11
2.79822e-11
1.7251e-11
2.82621e-11
9.307e-12
2.84704e-11
1.32001e-12
2.86055e-11
-6.68663e-12
2.86662e-11
-1.46882e-11
2.86484e-11
-2.26602e-11
2.8552e-11
-3.05791e-11
2.83778e-11
-3.84222e-11
2.81272e-11
-4.61671e-11
2.78016e-11
-5.37922e-11
2.74022e-11
-6.12763e-11
2.69302e-11
-6.85985e-11
2.63868e-11
-7.57388e-11
2.57734e-11
-8.26774e-11
2.50917e-11
-8.93955e-11
2.43433e-11
-9.5875e-11
2.35304e-11
-1.02099e-10
2.26549e-11
-1.0805e-10
2.17192e-11
-1.13713e-10
2.07256e-11
-1.19073e-10
1.96769e-11
-1.24117e-10
1.85757e-11
-1.28832e-10
1.74249e-11
-1.33207e-10
1.62275e-11
-1.3723e-10
1.49867e-11
-1.40893e-10
1.37059e-11
-1.44186e-10
1.23884e-11
-1.47103e-10
1.10376e-11
-1.49637e-10
9.65737e-12
-1.51782e-10
8.25128e-12
-1.53535e-10
6.82323e-12
-1.54893e-10
5.37713e-12
-1.55853e-10
3.91682e-12
-1.56415e-10
2.44597e-12
-1.56579e-10
9.68648e-13
-1.56345e-10
-5.11158e-13
-1.55715e-10
-2.00153e-12
-1.54689e-10
-3.48661e-12
-1.53273e-10
-4.96516e-12
-1.5147e-10
-6.43346e-12
-1.49285e-10
-7.88757e-12
-1.46725e-10
-9.32352e-12
-1.43797e-10
-1.07374e-11
-1.40509e-10
-1.21254e-11
-1.3687e-10
-1.34838e-11
-1.3289e-10
-1.48088e-11
-1.28579e-10
-1.6097e-11
-1.23949e-10
-1.73448e-11
-1.1901e-10
-1.8549e-11
-1.13777e-10
-1.97063e-11
-1.08263e-10
-2.08137e-11
-1.0248e-10
-2.18682e-11
-9.64443e-11
-2.28671e-11
-9.01701e-11
-2.38078e-11
-8.36732e-11
-2.46878e-11
-7.69694e-11
-2.55047e-11
-7.00753e-11
-2.62565e-11
-6.30077e-11
-2.69412e-11
-5.57839e-11
-2.75569e-11
-4.84218e-11
-2.81011e-11
-4.09401e-11
-2.85694e-11
-3.33613e-11
-2.89463e-11
-2.57201e-11
-2.91756e-11
-1.80941e-11
-2.90621e-11
-1.06913e-11
-2.80085e-11
-4.04977e-12
-2.45141e-11
6.85583e-13
-1.58986e-11
1.95539e-12
-6.78488e-13
1.16696e-11
-2.05826e-12
1.38057e-11
-9.0877e-13
-1.03585e-12
3.79221e-12
-1.95212e-11
1.04601e-11
-3.00112e-11
1.79161e-11
-3.42603e-11
2.56027e-11
-3.55282e-11
3.3303e-11
-3.56442e-11
4.09355e-11
-3.53375e-11
4.84637e-11
-3.48471e-11
5.58643e-11
-3.42421e-11
6.31176e-11
-3.35415e-11
7.02051e-11
-3.27512e-11
7.71089e-11
-3.18743e-11
8.38114e-11
-3.09134e-11
9.02957e-11
-2.9871e-11
9.65453e-11
-2.87498e-11
1.02544e-10
-2.75528e-11
1.08277e-10
-2.62832e-11
1.13728e-10
-2.49442e-11
1.18885e-10
-2.35392e-11
1.23732e-10
-2.20719e-11
1.28258e-10
-2.05461e-11
1.3245e-10
-1.89656e-11
1.36297e-10
-1.73346e-11
1.39788e-10
-1.56573e-11
1.42914e-10
-1.39379e-11
1.45665e-10
-1.2181e-11
1.48033e-10
-1.03909e-11
1.50012e-10
-8.57236e-12
1.51595e-10
-6.73001e-12
1.52777e-10
-4.86853e-12
1.53554e-10
-2.99242e-12
1.53922e-10
-1.10478e-12
1.53879e-10
7.8304e-13
1.53425e-10
2.66538e-12
1.52561e-10
4.54435e-12
1.51285e-10
6.41334e-12
1.49601e-10
8.26687e-12
1.4751e-10
1.00997e-11
1.45016e-10
1.19066e-11
1.42125e-10
1.36825e-11
1.38844e-10
1.54224e-11
1.35178e-10
1.71215e-11
1.31138e-10
1.87753e-11
1.26733e-10
2.03794e-11
1.21973e-10
2.19295e-11
1.16871e-10
2.34215e-11
1.11438e-10
2.48516e-11
1.0569e-10
2.62161e-11
9.96398e-11
2.75114e-11
9.33042e-11
2.87344e-11
8.66994e-11
2.9882e-11
7.98427e-11
3.09514e-11
7.27523e-11
3.19399e-11
6.5447e-11
3.28452e-11
5.79462e-11
3.36653e-11
5.027e-11
3.43982e-11
4.24392e-11
3.50423e-11
3.44748e-11
3.55962e-11
2.63985e-11
3.60586e-11
1.82321e-11
3.64285e-11
9.99812e-12
3.67044e-11
1.71962e-12
3.6884e-11
-6.57875e-12
3.69646e-11
-1.48728e-11
3.69425e-11
-2.31377e-11
3.68169e-11
-3.13488e-11
3.65889e-11
-3.94823e-11
3.62607e-11
-4.75153e-11
3.58345e-11
-5.5425e-11
3.5312e-11
-6.31896e-11
3.46948e-11
-7.07875e-11
3.39847e-11
-7.81977e-11
3.31837e-11
-8.54001e-11
3.2294e-11
-9.2375e-11
3.13182e-11
-9.91036e-11
3.0259e-11
-1.05568e-10
2.91193e-11
-1.11751e-10
2.79022e-11
-1.17637e-10
2.66112e-11
-1.23209e-10
2.52496e-11
-1.28455e-10
2.38214e-11
-1.3336e-10
2.23303e-11
-1.37913e-10
2.07804e-11
-1.42103e-10
1.91761e-11
-1.45918e-10
1.75216e-11
-1.49352e-10
1.58214e-11
-1.52394e-10
1.40803e-11
-1.5504e-10
1.23028e-11
-1.57282e-10
1.0494e-11
-1.59118e-10
8.65878e-12
-1.60543e-10
6.80223e-12
-1.61556e-10
4.92924e-12
-1.62154e-10
3.0445e-12
-1.62339e-10
1.1532e-12
-1.62109e-10
-7.40678e-13
-1.61467e-10
-2.64427e-12
-1.60413e-10
-4.53985e-12
-1.58953e-10
-6.42528e-12
-1.57091e-10
-8.29588e-12
-1.54832e-10
-1.01467e-11
-1.52183e-10
-1.19728e-11
-1.49151e-10
-1.37694e-11
-1.45745e-10
-1.55316e-11
-1.41973e-10
-1.7255e-11
-1.37847e-10
-1.89349e-11
-1.33377e-10
-2.0567e-11
-1.28575e-10
-2.2147e-11
-1.23453e-10
-2.3671e-11
-1.18025e-10
-2.5135e-11
-1.12303e-10
-2.65353e-11
-1.06303e-10
-2.78682e-11
-1.0004e-10
-2.91305e-11
-9.35286e-11
-3.0319e-11
-8.67858e-11
-3.14307e-11
-7.9828e-11
-3.24626e-11
-7.26722e-11
-3.34124e-11
-6.5336e-11
-3.42775e-11
-5.78373e-11
-3.50557e-11
-5.01946e-11
-3.57439e-11
-4.24275e-11
-3.63365e-11
-3.45594e-11
-3.68145e-11
-2.66268e-11
-3.71084e-11
-1.87112e-11
-3.69778e-11
-1.10306e-11
-3.56893e-11
-4.14544e-12
-3.13993e-11
7.54882e-13
-2.0799e-11
2.04778e-12
-1.97147e-12
1.37173e-11
-2.15981e-12
1.59655e-11
-9.60688e-13
-2.23497e-12
3.96288e-12
-2.44447e-11
1.09506e-11
-3.69989e-11
1.8769e-11
-4.20787e-11
2.68325e-11
-4.35916e-11
3.49116e-11
-4.37234e-11
4.29198e-11
-4.33458e-11
5.08185e-11
-4.27457e-11
5.85828e-11
-4.20064e-11
6.61922e-11
-4.11509e-11
7.36274e-11
-4.01864e-11
8.08695e-11
-3.91165e-11
8.79005e-11
-3.79443e-11
9.47023e-11
-3.66728e-11
1.01258e-10
-3.53054e-11
1.0755e-10
-3.38454e-11
1.13564e-10
-3.22965e-11
1.19282e-10
-3.06628e-11
1.24691e-10
-2.89482e-11
1.29776e-10
-2.7157e-11
1.34524e-10
-2.52939e-11
1.38922e-10
-2.33634e-11
1.42958e-10
-2.13704e-11
1.4662e-10
-1.932e-11
1.499e-10
-1.72173e-11
1.52787e-10
-1.50676e-11
1.55272e-10
-1.28765e-11
1.57349e-10
-1.06493e-11
1.59011e-10
-8.39191e-12
1.60252e-10
-6.10984e-12
1.61069e-10
-3.80862e-12
1.61456e-10
-1.49227e-12
1.61412e-10
8.27465e-13
1.60937e-10
3.13964e-12
1.60032e-10
5.44976e-12
1.58696e-10
7.7491e-12
1.56932e-10
1.00313e-11
1.54742e-10
1.22898e-11
1.5213e-10
1.45182e-11
1.49102e-10
1.67102e-11
1.45665e-10
1.88594e-11
1.41827e-10
2.096e-11
1.37596e-10
2.30061e-11
1.32983e-10
2.49923e-11
1.28e-10
2.69131e-11
1.22658e-10
2.87634e-11
1.16971e-10
3.05382e-11
1.10954e-10
3.22329e-11
1.04623e-10
3.38431e-11
9.79927e-11
3.53644e-11
9.10818e-11
3.67929e-11
8.39081e-11
3.81251e-11
7.64905e-11
3.93575e-11
6.88487e-11
4.0487e-11
6.10032e-11
4.15108e-11
5.29748e-11
4.24266e-11
4.47852e-11
4.3232e-11
3.64562e-11
4.39251e-11
2.80104e-11
4.45044e-11
1.94706e-11
4.49683e-11
1.08602e-11
4.53148e-11
2.20298e-12
4.55412e-11
-6.47568e-12
4.56433e-11
-1.51504e-11
4.56172e-11
-2.37951e-11
4.54616e-11
-3.23842e-11
4.5178e-11
-4.08929e-11
4.47694e-11
-4.9297e-11
4.42387e-11
-5.75731e-11
4.35881e-11
-6.56981e-11
4.28198e-11
-7.36496e-11
4.19362e-11
-8.14057e-11
4.09398e-11
-8.89454e-11
3.98337e-11
-9.62481e-11
3.86209e-11
-1.03294e-10
3.73051e-11
-1.10065e-10
3.589e-11
-1.16542e-10
3.43796e-11
-1.22709e-10
3.27782e-11
-1.2855e-10
3.10903e-11
-1.34049e-10
2.93207e-11
-1.39194e-10
2.74744e-11
-1.4397e-10
2.55564e-11
-1.48366e-10
2.35722e-11
-1.52371e-10
2.15272e-11
-1.55977e-10
1.9427e-11
-1.59174e-10
1.72775e-11
-1.61956e-10
1.50846e-11
-1.64316e-10
1.28544e-11
-1.66251e-10
1.0593e-11
-1.67755e-10
8.30684e-12
-1.68828e-10
6.00164e-12
-1.69467e-10
3.68327e-12
-1.69671e-10
1.35801e-12
-1.69442e-10
-9.70089e-13
-1.68779e-10
-3.30737e-12
-1.67685e-10
-5.63345e-12
-1.66165e-10
-7.94547e-12
-1.64223e-10
-1.02377e-11
-1.61866e-10
-1.25042e-11
-1.591e-10
-1.47391e-11
-1.55933e-10
-1.69365e-11
-1.52373e-10
-1.90908e-11
-1.48432e-10
-2.11964e-11
-1.44119e-10
-2.32479e-11
-1.39446e-10
-2.52402e-11
-1.34425e-10
-2.71681e-11
-1.29069e-10
-2.90269e-11
-1.23392e-10
-3.0812e-11
-1.17408e-10
-3.25189e-11
-1.11133e-10
-3.41434e-11
-1.04583e-10
-3.56814e-11
-9.77723e-11
-3.71293e-11
-9.07195e-11
-3.84835e-11
-8.34415e-11
-3.97407e-11
-7.59563e-11
-4.08978e-11
-6.8282e-11
-4.19519e-11
-6.04374e-11
-4.29003e-11
-5.24419e-11
-4.37395e-11
-4.43161e-11
-4.44624e-11
-3.60844e-11
-4.50462e-11
-2.77858e-11
-4.54071e-11
-1.9507e-11
-4.52567e-11
-1.14781e-11
-4.37183e-11
-4.28772e-12
-3.85898e-11
8.20586e-13
-2.59074e-11
2.15418e-12
-3.30516e-12
1.58715e-11
-2.27641e-12
1.82419e-11
-1.00679e-12
-3.5046e-12
4.1893e-12
-2.96408e-11
1.15651e-11
-4.43747e-11
1.98224e-11
-5.03361e-11
2.83424e-11
-5.21116e-11
3.68809e-11
-5.22619e-11
4.53451e-11
-5.181e-11
5.36933e-11
-5.1094e-11
6.18994e-11
-5.02125e-11
6.99416e-11
-4.91931e-11
7.77995e-11
-4.80443e-11
8.54535e-11
-4.67705e-11
9.28844e-11
-4.53751e-11
1.00073e-10
-4.38618e-11
1.07002e-10
-4.22343e-11
1.13654e-10
-4.04967e-11
1.2001e-10
-3.86532e-11
1.26056e-10
-3.67083e-11
1.31775e-10
-3.4667e-11
1.37152e-10
-3.25341e-11
1.42173e-10
-3.0315e-11
1.46825e-10
-2.80151e-11
1.51094e-10
-2.56401e-11
1.5497e-10
-2.31959e-11
1.58441e-10
-2.06885e-11
1.61498e-10
-1.81243e-11
1.64131e-10
-1.55096e-11
1.66333e-10
-1.28509e-11
1.68096e-10
-1.01551e-11
1.69415e-10
-7.42869e-12
1.70284e-10
-4.67833e-12
1.70701e-10
-1.90894e-12
1.70662e-10
8.67002e-13
1.70167e-10
3.6338e-12
1.69218e-10
6.39945e-12
1.67813e-10
9.15343e-12
1.65956e-10
1.18884e-11
1.6365e-10
1.45965e-11
1.60898e-10
1.727e-11
1.57707e-10
1.99013e-11
1.54083e-10
2.24829e-11
1.50036e-10
2.50074e-11
1.45574e-10
2.74677e-11
1.40709e-10
2.98572e-11
1.35453e-10
3.21693e-11
1.29819e-10
3.43977e-11
1.23821e-10
3.65363e-11
1.17474e-10
3.85794e-11
1.10796e-10
4.05214e-11
1.03803e-10
4.23573e-11
9.65138e-11
4.4082e-11
8.89477e-11
4.56912e-11
8.11246e-11
4.71805e-11
7.30654e-11
4.85462e-11
6.47914e-11
4.97848e-11
5.63248e-11
5.08932e-11
4.76881e-11
5.18686e-11
3.89045e-11
5.27087e-11
2.99976e-11
5.34113e-11
2.09914e-11
5.39745e-11
1.19107e-11
5.43955e-11
2.78082e-12
5.46711e-11
-6.37445e-12
5.47985e-11
-1.55252e-11
5.47679e-11
-2.46443e-11
5.45806e-11
-3.37049e-11
5.42386e-11
-4.26808e-11
5.37454e-11
-5.15468e-11
5.31046e-11
-6.0278e-11
5.23193e-11
-6.88503e-11
5.13921e-11
-7.724e-11
5.03259e-11
-8.54243e-11
4.9124e-11
-9.33807e-11
4.77901e-11
-1.01088e-10
4.63281e-11
-1.08525e-10
4.47422e-11
-1.15672e-10
4.30372e-11
-1.22511e-10
4.1218e-11
-1.29022e-10
3.92898e-11
-1.3519e-10
3.72582e-11
-1.40998e-10
3.51291e-11
-1.46432e-10
3.29084e-11
-1.51479e-10
3.06025e-11
-1.56124e-10
2.82179e-11
-1.60358e-10
2.57612e-11
-1.64171e-10
2.32392e-11
-1.67552e-10
2.06591e-11
-1.70496e-10
1.8028e-11
-1.72994e-10
1.53532e-11
-1.75044e-10
1.26424e-11
-1.7664e-10
9.90283e-12
-1.7778e-10
7.14144e-12
-1.78462e-10
4.36525e-12
-1.78685e-10
1.58165e-12
-1.7845e-10
-1.2052e-12
-1.77757e-10
-4.00067e-12
-1.76609e-10
-6.78141e-12
-1.75011e-10
-9.5438e-12
-1.72967e-10
-1.22811e-11
-1.70485e-10
-1.49863e-11
-1.67572e-10
-1.76524e-11
-1.64236e-10
-2.02726e-11
-1.60487e-10
-2.28403e-11
-1.56334e-10
-2.53489e-11
-1.5179e-10
-2.77921e-11
-1.46867e-10
-3.01639e-11
-1.41576e-10
-3.24585e-11
-1.35933e-10
-3.46701e-11
-1.29952e-10
-3.67935e-11
-1.23647e-10
-3.88234e-11
-1.17036e-10
-4.07549e-11
-1.10134e-10
-4.25835e-11
-1.02959e-10
-4.43047e-11
-9.55277e-11
-4.59145e-11
-8.78595e-11
-4.7409e-11
-7.99728e-11
-4.87846e-11
-7.18868e-11
-5.0038e-11
-6.36213e-11
-5.11659e-11
-5.51965e-11
-5.21644e-11
-4.66342e-11
-5.30249e-11
-3.79604e-11
-5.372e-11
-2.92169e-11
-5.41507e-11
-2.04967e-11
-5.3977e-11
-1.20448e-11
-5.21703e-11
-4.48272e-12
-4.61519e-11
8.82165e-13
-3.12724e-11
2.27227e-12
-4.69536e-12
1.81438e-11
-2.40206e-12
2.0644e-11
-1.04202e-12
-4.86464e-12
4.47836e-12
-3.51612e-11
1.23132e-11
-5.22096e-11
2.10897e-11
-5.91125e-11
3.01499e-11
-6.11718e-11
3.92323e-11
-6.13443e-11
4.82366e-11
-6.08143e-11
5.71178e-11
-5.99751e-11
6.58477e-11
-5.89424e-11
7.44032e-11
-5.77487e-11
8.2763e-11
-5.6404e-11
9.0906e-11
-5.49135e-11
9.8812e-11
-5.32812e-11
1.06461e-10
-5.15111e-11
1.13835e-10
-4.96076e-11
1.20913e-10
-4.75753e-11
1.27679e-10
-4.54191e-11
1.34115e-10
-4.31443e-11
1.40204e-10
-4.07562e-11
1.45931e-10
-3.82608e-11
1.5128e-10
-3.56639e-11
1.56237e-10
-3.29719e-11
1.60788e-10
-3.01914e-11
1.64921e-10
-2.73291e-11
1.68625e-10
-2.4392e-11
1.71888e-10
-2.13874e-11
1.74701e-10
-1.83227e-11
1.77055e-10
-1.52056e-11
1.78944e-10
-1.20437e-11
1.8036e-10
-8.8449e-12
1.81299e-10
-5.61681e-12
1.81755e-10
-2.36533e-12
1.81725e-10
8.97305e-13
1.81212e-10
4.14686e-12
1.80214e-10
7.39714e-12
1.78733e-10
1.06348e-11
1.7677e-10
1.38514e-11
1.74329e-10
1.70377e-11
1.71414e-10
2.01849e-11
1.68031e-10
2.32839e-11
1.64188e-10
2.63256e-11
1.59894e-10
2.93013e-11
1.5516e-10
3.22026e-11
1.49995e-10
3.50214e-11
1.44415e-10
3.77499e-11
1.38432e-10
4.03807e-11
1.32062e-10
4.29064e-11
1.25321e-10
4.53201e-11
1.18227e-10
4.76153e-11
1.10799e-10
4.97857e-11
1.03055e-10
5.18255e-11
9.50174e-11
5.37292e-11
8.67061e-11
5.54918e-11
7.81437e-11
5.71087e-11
6.93528e-11
5.85756e-11
6.03571e-11
5.9889e-11
5.11803e-11
6.10454e-11
4.18471e-11
6.20419e-11
3.23823e-11
6.28761e-11
2.28113e-11
6.35454e-11
1.31599e-11
6.40469e-11
3.45487e-12
6.43761e-11
-6.27442e-12
6.45278e-11
-1.60001e-11
6.44937e-11
-2.56928e-11
6.42732e-11
-3.53233e-11
6.3869e-11
-4.48637e-11
6.32857e-11
-5.42871e-11
6.2528e-11
-6.35672e-11
6.15994e-11
-7.26785e-11
6.05034e-11
-8.1596e-11
5.92433e-11
-9.02952e-11
5.78232e-11
-9.87525e-11
5.62474e-11
-1.06945e-10
5.45206e-11
-1.14851e-10
5.2648e-11
-1.22449e-10
5.06352e-11
-1.29719e-10
4.8488e-11
-1.36642e-10
4.62128e-11
-1.432e-10
4.38162e-11
-1.49376e-10
4.13051e-11
-1.55155e-10
3.86868e-11
-1.60521e-10
3.59688e-11
-1.65462e-10
3.31587e-11
-1.69965e-10
3.02645e-11
-1.7402e-10
2.72943e-11
-1.77618e-10
2.42566e-11
-1.8075e-10
2.11598e-11
-1.83409e-10
1.80127e-11
-1.85591e-10
1.48242e-11
-1.87291e-10
1.16029e-11
-1.88506e-10
8.35671e-12
-1.89235e-10
5.09361e-12
-1.89476e-10
1.82271e-12
-1.89229e-10
-1.45224e-12
-1.88495e-10
-4.73492e-12
-1.87277e-10
-7.99892e-12
-1.85581e-10
-1.12398e-11
-1.83412e-10
-1.44498e-11
-1.80778e-10
-1.76208e-11
-1.77686e-10
-2.07446e-11
-1.74145e-10
-2.38134e-11
-1.70166e-10
-2.68196e-11
-1.65759e-10
-2.97555e-11
-1.60937e-10
-3.26141e-11
-1.55713e-10
-3.53883e-11
-1.501e-10
-3.80713e-11
-1.44114e-10
-4.06568e-11
-1.37769e-10
-4.31386e-11
-1.31081e-10
-4.55107e-11
-1.24069e-10
-4.77676e-11
-1.16748e-10
-4.99039e-11
-1.09138e-10
-5.19147e-11
-1.01258e-10
-5.37953e-11
-9.31256e-11
-5.55412e-11
-8.47618e-11
-5.71484e-11
-7.61868e-11
-5.86131e-11
-6.74212e-11
-5.99316e-11
-5.84867e-11
-6.1099e-11
-4.94062e-11
-6.21055e-11
-4.02077e-11
-6.29186e-11
-3.09361e-11
-6.34223e-11
-2.1692e-11
-6.32212e-11
-1.27374e-11
-6.1125e-11
-4.73216e-12
-5.41572e-11
9.42588e-13
-3.69472e-11
2.41017e-12
-6.16302e-12
2.05539e-11
-2.54631e-12
2.31903e-11
-1.0725e-12
-6.33845e-12
4.83083e-12
-4.10645e-11
1.32024e-11
-6.05812e-11
2.25838e-11
-6.8494e-11
3.22734e-11
-7.08614e-11
4.19894e-11
-7.10603e-11
5.1623e-11
-7.04478e-11
6.1125e-11
-6.94772e-11
7.04654e-11
-6.82828e-11
7.96195e-11
-6.69028e-11
8.85645e-11
-6.5349e-11
9.72781e-11
-6.36272e-11
1.05739e-10
-6.1742e-11
1.13926e-10
-5.96981e-11
1.21819e-10
-5.75003e-11
1.29397e-10
-5.51539e-11
1.36643e-10
-5.26644e-11
1.43536e-10
-5.00378e-11
1.5006e-10
-4.72802e-11
1.56197e-10
-4.43981e-11
1.61932e-10
-4.13984e-11
1.67248e-10
-3.82883e-11
1.72132e-10
-3.50751e-11
1.76569e-10