/*--------------------------------*- C++ -*----------------------------------*\
| =========                 |                                                 |
| \\      /  F ield         | OpenFOAM: The Open Source CFD Toolbox           |
|  \\    /   O peration     | Version:  2206                                  |
|   \\  /    A nd           | Website:  www.openfoam.com                      |
|    \\/     M anipulation  |                                                 |
\*---------------------------------------------------------------------------*/
FoamFile
{
    version     2.0;
    format      ascii;
    arch        "LSB;label=64;scalar=64";
    class       volScalarField;
    location    "2.4/solid";
    object      T;
}
// * * * * * * * * * * * * * * * * * * * * * * * * * * * * * * * * * * * * * //

dimensions      [0 0 0 1 0 0 0];

internalField   nonuniform List<scalar> 
500
(
1092.47860212
1092.30755069
1091.96346831
1091.44487297
1090.74576759
1089.85843867
1088.7729319
1087.48885468
1086.05239934
1084.57308188
1093.45329032
1093.28764287
1092.95605819
1092.45818866
1091.79376282
1090.96360332
1089.97104471
1088.82545935
1087.55087811
1086.18933799
1094.43358437
1094.27442925
1093.95641053
1093.48026789
1092.8475057
1092.06096684
1091.1255501
1090.04901449
1088.84395749
1087.53277306
1095.40376582
1095.25045331
1094.94429184
1094.48629817
1093.87819351
1093.12260633
1092.22319052
1091.18450411
1090.01293619
1088.72664392
1096.34892821
1096.20029133
1095.90343762
1095.45924317
1094.86907749
1094.13482544
1093.25877262
1092.2431997
1091.09097822
1089.81627312
1097.25804581
1097.11301152
1096.82324971
1096.38938389
1095.81234342
1095.09332663
1094.23362986
1093.23413224
1092.09551935
1090.82873498
1098.12351491
1097.98129969
1097.69706473
1097.27120276
1096.70428107
1095.99699943
1095.15002573
1094.16340346
1093.03625351
1091.77651847
1098.94069444
1098.80080333
1098.52113031
1098.10189526
1097.5434084
1096.84604157
1096.01009089
1095.0351135
1093.91897927
1092.66611343
1099.70729962
1099.56946086
1099.29383283
1098.88051798
1098.32965719
1097.64141755
1096.8158892
1095.85236184
1094.74763412
1093.50256708
1100.42285355
1100.28694765
1100.01514712
1099.60748009
1099.06398257
1098.38470201
1097.56963481
1096.61796385
1095.52553698
1094.28880865
1101.08823874
1100.95424085
1100.68623381
1100.28420217
1099.74812142
1099.07797556
1098.27374412
1097.33464341
1096.25573822
1095.02903655
1101.70532677
1101.57326482
1101.30911807
1100.91284906
1100.38440359
1099.72374093
1098.93088193
1098.00521483
1096.94123633
1095.72558261
1102.27666493
1102.14659058
1101.8864148
1101.4960923
1100.97555879
1100.32477063
1099.54381803
1098.63235706
1097.58454566
1096.38162397
1102.80520887
1102.67717899
1102.4210925
1102.03690507
1101.52455389
1100.88400235
1100.11541881
1099.21880495
1098.18827898
1096.9991112
1103.29409537
1103.16816085
1102.91626823
1102.53837946
1102.03444001
1101.40442422
1100.64857669
1099.76730872
1098.75507269
1097.58147996
1103.7464522
1103.62265158
1103.37503146
1103.00356302
1102.50820352
1101.88893771
1101.14607202
1100.28045511
1099.28725189
1098.13033834
1104.16524377
1104.04360019
1103.80029964
1103.43532391
1102.94864357
1102.34025102
1101.61049373
1100.76066446
1099.78706206
1098.64834864
1104.55314958
1104.43366984
1104.19470275
1103.83624141
1103.35827068
1102.76078878
1102.04416323
1101.21011824
1100.25653983
1099.13736334
1104.9124722
1104.79514688
1104.56049436
1104.20851897
1103.73921968
1103.15259659
1102.44900645
1101.63053962
1100.69708904
1099.59864809
1105.24507064
1105.12987501
1104.89948752
1104.55392364
1104.09319698
1103.51730966
1102.82658748
1102.02341988
1101.11018616
1100.03533465
1105.55231428
1105.43920937
1105.21300875
1104.87373866
1104.42142744
1103.85607916
1103.17796717
1102.38967464
1101.49639511
1100.45110272
1105.83505286
1105.7239869
1105.50186914
1105.16873575
1104.72462899
1104.16955375
1103.50370787
1102.72972087
1101.85560528
1100.84326207
1106.0935971
1105.9845073
1105.76634639
1105.4391596
1105.00300242
1104.45788141
1103.80390642
1103.04361407
1102.18769254
1101.21009066
1106.3277044
1106.22051876
1106.0061702
1105.68471206
1105.25621222
1104.72068023
1104.0781288
1103.33084014
1102.4917642
1101.55060363
1106.53656628
1106.43120537
1106.22050976
1105.90453993
1105.48337531
1104.95703144
1104.32542807
1103.5904619
1102.76668796
1101.86514916
1106.71879543
1106.61517394
1106.40796026
1106.09722103
1105.68304625
1105.16545942
1104.54429373
1103.82094677
1103.01047288
1102.15326278
1106.87241113
1106.77043908
1106.56652699
1106.26074699
1105.85319892
1105.34391694
1104.73266173
1104.02028177
1103.22073267
1102.39855752
1106.99482406
1106.8944075
1106.69360895
1106.39250556
1105.99120676
1105.48976074
1104.88787488
1104.18587794
1103.3959518
1102.58178915
1107.08282167
1106.98386306
1106.78598271
1106.48926236
1106.09382033
1105.59972086
1105.00663313
1104.31439783
1103.53336527
1102.72475655
1107.13255626
1107.03495474
1106.83979061
1106.54714951
1106.15715778
1105.66989716
1105.08501417
1104.40190156
1103.62908051
1102.82537673
1107.13953751
1107.04318931
1106.8505334
1106.56165854
1106.17669804
1105.69575309
1105.11846568
1104.44383051
1103.67856485
1102.87840361
1107.09863163
1107.00343073
1106.81307018
1106.5276403
1106.14727925
1105.67210759
1105.10177657
1104.43491658
1103.67640842
1102.87918601
1107.00406937
1106.90990907
1106.72162933
1106.43931973
1106.06311989
1105.59316764
1105.02913649
1104.36934038
1103.61684561
1102.82122746
1106.84946369
1106.75623907
1106.56982902
1106.29031987
1105.91784879
1105.45256758
1104.89418338
1104.24074277
1103.49351457
1102.69904835
1106.62783783
1106.53544822
1106.35070555
1106.07369076
1105.70453499
1105.24340018
1104.69003631
1104.04226554
1103.29953075
1102.50468929
1106.33166611
1106.24001681
1106.0567517
1105.78194555
1105.41572196
1104.95825231
1104.40934587
1103.76667065
1103.027874
1102.23233544
1105.95293192
1105.86193437
1105.67997
1105.40710803
1105.04346518
1104.58922382
1104.04427097
1103.40619822
1102.67088207
1101.87347659
1105.48320798
1105.39277845
1105.21194828
1104.94078295
1104.57939443
1104.12797832
1103.58651524
1102.95259416
1102.22032082
1101.42039681
1104.91376353
1104.82382059
1104.64396327
1104.37425619
1104.01481038
1103.56583845
1103.02743233
1102.39727142
1101.6677529
1100.86420238
1104.23570161
1104.14616247
1103.96711439
1103.69862513
1103.34080985
1102.89390278
1102.35812396
1101.73134483
1101.00434543
1100.19649976
1103.44012837
1103.3509042
1103.17249038
1102.90496296
1102.54844807
1102.10320715
1101.56960233
1100.94580047
1100.22107345
1099.40744054
1102.51835456
1102.4293445
1102.25136663
1101.9845121
1101.62892715
1101.18490823
1100.65297258
1100.03169662
1099.30903961
1098.4885529
1101.46212874
1101.37321212
1101.19543306
1100.9289062
1100.57380991
1100.13048703
1099.59962389
1098.98033147
1098.259539
1097.43017404
1100.26390144
1100.17492845
1099.99705292
1099.73042223
1099.37526114
1098.93197439
1098.40143363
1097.78342281
1097.0642825
1096.22406887
1098.91712013
1098.82790209
1098.64955581
1098.38226839
1098.02632334
1097.58220336
1097.05098304
1096.43327444
1095.71550927
1094.86143206
1097.41655553
1097.32685889
1097.1475741
1096.87892594
1096.52125486
1096.07512165
1095.54180808
1094.92292595
1094.20612007
1093.33434261
1095.75865583
1095.66820587
1095.48742976
1095.21657141
1094.85598832
1094.40625865
1093.86879507
1093.24628832
1092.52927657
1091.63538591
1093.9418996
1093.85038774
1093.66752729
1093.39355882
1093.02875792
1092.57352658
1092.02909976
1091.39889996
1090.67790409
1089.77012908
1091.96706243
1091.87407002
1091.68852804
1091.41072505
1091.040732
1090.578432
1090.02417763
1089.38077954
1088.64648335
1087.73306439
1089.83733666
1089.74165855
1089.55263871
1089.27071488
1088.89573503
1088.42691686
1087.86307964
1087.20377403
1086.44398419
1085.50371222
)
;

boundaryField
{
    symmetric
    {
        type            symmetry;
    }
    emptyPatch
    {
        type            empty;
    }
    solid_to_water
    {
        type            compressible::turbulentTemperatureTwoPhaseRadCoupledMixed;
        refValue        nonuniform List<scalar> 
70
(
374.880775793
373.562933552
371.580771369
369.772944626
366.717263311
361.933634702
355.87331552
349.302816694
342.145028652
337.286306991
336.758496592
337.75863347
340.140188414
344.681577912
346.463696661
346.47043673
347.897371426
346.852759954
348.273437413
347.086693819
348.525366146
347.353672709
348.593196667
347.5442621
348.491068394
347.673398044
348.113077767
347.520454934
346.881860002
342.958533577
339.571962062
337.504338247
336.249723289
335.90646688
336.605055972
341.063275449
387.423994639
413.536733306
417.163026046
433.198497341
426.721066221
439.38363176
430.169655343
441.026144658
431.29115629
439.837561316
431.655795175
438.519912531
431.243934464
436.732625095
430.954611081
435.775406919
431.252874094
434.19817487
430.962298413
429.352356886
401.176962589
355.389110955
343.390292808
334.256633285
334.36610917
334.440735175
334.51313813
334.586670158
334.653069276
334.68567203
334.779305215
334.934186108
339.468821241
335.010373624
)
;
        refGradient     uniform 0;
        valueFraction   nonuniform List<scalar> 
70
(
0.000760463561384
0.000759989956003
0.000768351434726
0.000776394983565
0.000799965060329
0.000848983850086
0.000928175013935
0.00104762125567
0.001270743477
0.00149881286927
0.000962479870256
0.000972024478682
0.000975196329833
0.00090903135603
0.000890258820763
0.000900449355196
0.000875447632943
0.000900999673934
0.000874298270765
0.000901347363375
0.000874561682072
0.000900959570452
0.000878270890856
0.000901666698833
0.000884872324082
0.000903045307124
0.000895075683732
0.000904915315134
0.000904822468473
0.000957542145999
0.000987636769893
0.000978056697746
0.000962130698923
0.000958452477935
0.000968548688852
0.000983789122161
0.000536570400412
0.000489630705929
0.000515755224665
0.000482478387188
0.00051579164401
0.000483112558005
0.000515782193452
0.000484868616469
0.000515723883756
0.000490013138936
0.000515608981379
0.00049446295409
0.000517054855714
0.000499660090901
0.000517779250487
0.000502837463167
0.00051751703237
0.000508393882529
0.000518139488087
0.000515698962761
0.000587101656225
0.000874108153424
0.000975516850598
0.00150666720465
0.00151312445166
0.00151684045319
0.00152019210607
0.00152322941944
0.00152551053084
0.00152595472717
0.00153002546162
0.00153373543297
0.00097340734035
0.00153285792946
)
;
        source          uniform 0;
        value           nonuniform List<scalar> 
70
(
1091.93482933
1091.7632496
1091.411919
1090.88655867
1090.16863825
1089.24266829
1088.09500734
1086.71759106
1085.10877632
1083.45475557
1083.85504305
1085.46359754
1086.80574011
1088.0512308
1089.15519515
1090.15935943
1091.12587089
1091.99513564
1092.85170603
1093.61646915
1094.37703238
1095.05266477
1095.72599067
1096.32493625
1096.92011625
1097.45453741
1097.97850994
1098.45948422
1098.92003718
1099.31385892
1099.70384304
1100.10110105
1100.47865227
1100.82161263
1101.12929237
1101.41043709
1102.01463387
1102.24328577
1102.37039878
1102.50103097
1102.52889367
1102.55742756
1102.47358028
1102.37708328
1102.15786174
1101.9067186
1101.52725985
1101.09165588
1100.51733946
1099.86408868
1099.06066478
1098.15438869
1097.08464417
1095.88651046
1094.51648647
1092.99081077
1091.22981911
1089.13217025
1087.0124529
1088.70028129
1088.600035
1088.40860858
1088.12469344
1087.74810551
1087.27837814
1086.71508457
1086.05387005
1085.29333812
1084.78238032
1084.35817377
)
;
        kappaMethod     solidThermo;
        Tnbr            T.liquid;
        region          solid;
        otherPhase      gas;
    }
}


// ************************************************************************* //
