/*--------------------------------*- C++ -*----------------------------------*\
| =========                 |                                                 |
| \\      /  F ield         | OpenFOAM: The Open Source CFD Toolbox           |
|  \\    /   O peration     | Version:  2206                                  |
|   \\  /    A nd           | Website:  www.openfoam.com                      |
|    \\/     M anipulation  |                                                 |
\*---------------------------------------------------------------------------*/
FoamFile
{
    version     2.0;
    format      ascii;
    arch        "LSB;label=64;scalar=64";
    class       surfaceScalarField;
    location    "558000";
    object      phi;
}
// * * * * * * * * * * * * * * * * * * * * * * * * * * * * * * * * * * * * * //

dimensions      [0 3 -1 0 0 0 0];

oriented        oriented;

internalField   nonuniform List<scalar> 
24
(
3.01247e-10
-3.01247e-10
4.11893e-10
-1.10646e-10
3.82636e-10
2.92563e-11
3.82636e-10
5.22048e-11
-3.53452e-10
1.36788e-10
-1.95229e-10
4.85521e-11
1.17492e-10
4.31188e-10
-1.71003e-10
-1.82449e-10
-2.1965e-10
-1.46582e-10
-2.13922e-10
1.11764e-10
2.17266e-10
-1.82449e-10
-3.2903e-10
-2.17266e-10
)
;

boundaryField
{
    movingWall
    {
        type            calculated;
        value           uniform 0;
    }
    fixedWalls
    {
        type            calculated;
        value           uniform 0;
    }
    frontAndBack
    {
        type            empty;
        value           nonuniform List<scalar> 0();
    }
}


// ************************************************************************* //
