/*--------------------------------*- C++ -*----------------------------------*\
| =========                 |                                                 |
| \\      /  F ield         | OpenFOAM: The Open Source CFD Toolbox           |
|  \\    /   O peration     | Version:  2206                                  |
|   \\  /    A nd           | Website:  www.openfoam.com                      |
|    \\/     M anipulation  |                                                 |
\*---------------------------------------------------------------------------*/
FoamFile
{
    version     2.0;
    format      ascii;
    arch        "LSB;label=64;scalar=64";
    class       volVectorField;
    location    "752400";
    object      U;
}
// * * * * * * * * * * * * * * * * * * * * * * * * * * * * * * * * * * * * * //

dimensions      [0 1 -1 0 0 0 0];

internalField   nonuniform List<vector> 
16
(
(-8.76229e-08 4.62168e-08 0)
(-7.36095e-08 -5.13941e-08 0)
(8.01824e-08 -4.17311e-08 0)
(5.37224e-08 5.47672e-08 0)
(-2.5072e-08 1.18261e-07 0)
(-2.98497e-08 -1.17144e-07 0)
(-3.39e-08 -8.68813e-08 0)
(-2.51453e-08 7.92714e-08 0)
(5.54842e-08 9.71542e-08 0)
(4.0533e-08 -4.14795e-08 0)
(-7.16094e-08 -4.75004e-08 0)
(-3.32593e-08 -2.90606e-09 0)
(5.15916e-08 2.43558e-08 0)
(6.99127e-08 9.95421e-09 0)
(1.8029e-08 -1.32339e-08 0)
(1.13935e-08 -2.50471e-08 0)
)
;

boundaryField
{
    movingWall
    {
        type            noSlip;
    }
    fixedWalls
    {
        type            noSlip;
    }
    frontAndBack
    {
        type            empty;
    }
}


// ************************************************************************* //
