/*--------------------------------*- C++ -*----------------------------------*\
| =========                 |                                                 |
| \\      /  F ield         | OpenFOAM: The Open Source CFD Toolbox           |
|  \\    /   O peration     | Version:  2212                                  |
|   \\  /    A nd           | Website:  www.openfoam.com                      |
|    \\/     M anipulation  |                                                 |
\*---------------------------------------------------------------------------*/
FoamFile
{
    version     2.0;
    format      ascii;
    arch        "LSB;label=64;scalar=64";
    class       volScalarField;
    location    "920";
    object      Gh2;
}
// * * * * * * * * * * * * * * * * * * * * * * * * * * * * * * * * * * * * * //

dimensions      [1 -3 0 0 0 0 0];

internalField   nonuniform List<scalar> 
1024
(
1.2713e-05
1.27127e-05
1.2712e-05
1.27107e-05
1.27087e-05
1.27059e-05
1.27022e-05
1.26978e-05
1.26929e-05
1.26878e-05
1.2683e-05
1.26787e-05
1.26757e-05
1.26749e-05
1.26775e-05
1.26837e-05
1.26929e-05
1.27027e-05
1.27117e-05
1.27199e-05
1.27274e-05
1.27346e-05
1.27417e-05
1.27485e-05
1.27548e-05
1.27603e-05
1.27648e-05
1.27681e-05
1.27705e-05
1.2772e-05
1.27728e-05
1.27731e-05
1.27129e-05
1.27126e-05
1.27119e-05
1.27106e-05
1.27086e-05
1.27057e-05
1.27019e-05
1.26975e-05
1.26925e-05
1.26875e-05
1.26826e-05
1.26783e-05
1.26752e-05
1.26744e-05
1.2677e-05
1.26833e-05
1.26925e-05
1.27024e-05
1.27114e-05
1.27196e-05
1.27271e-05
1.27343e-05
1.27414e-05
1.27482e-05
1.27545e-05
1.27601e-05
1.27646e-05
1.2768e-05
1.27704e-05
1.27719e-05
1.27727e-05
1.27731e-05
1.27129e-05
1.27126e-05
1.27118e-05
1.27105e-05
1.27083e-05
1.27053e-05
1.27015e-05
1.26969e-05
1.26919e-05
1.26868e-05
1.26817e-05
1.26772e-05
1.2674e-05
1.26731e-05
1.26758e-05
1.26823e-05
1.26918e-05
1.27018e-05
1.27109e-05
1.27191e-05
1.27266e-05
1.27338e-05
1.27408e-05
1.27476e-05
1.2754e-05
1.27596e-05
1.27642e-05
1.27677e-05
1.27702e-05
1.27717e-05
1.27726e-05
1.27729e-05
1.27128e-05
1.27125e-05
1.27117e-05
1.27103e-05
1.2708e-05
1.27049e-05
1.27009e-05
1.26962e-05
1.26911e-05
1.26857e-05
1.26804e-05
1.26755e-05
1.26718e-05
1.26708e-05
1.26737e-05
1.26807e-05
1.26906e-05
1.27009e-05
1.27102e-05
1.27185e-05
1.2726e-05
1.27331e-05
1.274e-05
1.27468e-05
1.27532e-05
1.27589e-05
1.27636e-05
1.27673e-05
1.27699e-05
1.27715e-05
1.27724e-05
1.27728e-05
1.27128e-05
1.27124e-05
1.27116e-05
1.27101e-05
1.27078e-05
1.27045e-05
1.27004e-05
1.26955e-05
1.26901e-05
1.26844e-05
1.26785e-05
1.26728e-05
1.26684e-05
1.26671e-05
1.26704e-05
1.26782e-05
1.2689e-05
1.26999e-05
1.27095e-05
1.27179e-05
1.27255e-05
1.27324e-05
1.27392e-05
1.27459e-05
1.27523e-05
1.27581e-05
1.27629e-05
1.27667e-05
1.27694e-05
1.27712e-05
1.27721e-05
1.27725e-05
1.27128e-05
1.27124e-05
1.27116e-05
1.271e-05
1.27076e-05
1.27043e-05
1.27e-05
1.2695e-05
1.26892e-05
1.26829e-05
1.26761e-05
1.26692e-05
1.26635e-05
1.26618e-05
1.26657e-05
1.26748e-05
1.2687e-05
1.26988e-05
1.2709e-05
1.27177e-05
1.27252e-05
1.27321e-05
1.27387e-05
1.27451e-05
1.27514e-05
1.27572e-05
1.27622e-05
1.27661e-05
1.2769e-05
1.27708e-05
1.27718e-05
1.27722e-05
1.27129e-05
1.27125e-05
1.27117e-05
1.27101e-05
1.27077e-05
1.27044e-05
1.27e-05
1.26947e-05
1.26885e-05
1.26813e-05
1.26731e-05
1.26644e-05
1.2657e-05
1.26545e-05
1.26592e-05
1.26703e-05
1.26846e-05
1.26979e-05
1.2709e-05
1.27181e-05
1.27257e-05
1.27324e-05
1.27387e-05
1.27448e-05
1.27509e-05
1.27567e-05
1.27617e-05
1.27656e-05
1.27685e-05
1.27704e-05
1.27714e-05
1.27719e-05
1.27131e-05
1.27128e-05
1.2712e-05
1.27105e-05
1.27082e-05
1.27049e-05
1.27005e-05
1.2695e-05
1.26881e-05
1.26797e-05
1.26696e-05
1.26584e-05
1.26487e-05
1.26451e-05
1.26508e-05
1.26647e-05
1.26819e-05
1.26974e-05
1.27097e-05
1.27194e-05
1.27272e-05
1.27337e-05
1.27396e-05
1.27454e-05
1.27512e-05
1.27566e-05
1.27615e-05
1.27654e-05
1.27683e-05
1.27702e-05
1.27712e-05
1.27717e-05
1.27135e-05
1.27132e-05
1.27124e-05
1.27111e-05
1.2709e-05
1.27058e-05
1.27015e-05
1.26957e-05
1.2688e-05
1.2678e-05
1.26654e-05
1.2651e-05
1.26383e-05
1.26335e-05
1.26404e-05
1.26577e-05
1.26788e-05
1.26972e-05
1.27113e-05
1.2722e-05
1.273e-05
1.27364e-05
1.27419e-05
1.27472e-05
1.27524e-05
1.27574e-05
1.2762e-05
1.27657e-05
1.27685e-05
1.27703e-05
1.27713e-05
1.27717e-05
1.27135e-05
1.27133e-05
1.27127e-05
1.27116e-05
1.27097e-05
1.27068e-05
1.27025e-05
1.26963e-05
1.26875e-05
1.26754e-05
1.26595e-05
1.26412e-05
1.26252e-05
1.26191e-05
1.26279e-05
1.26493e-05
1.2675e-05
1.2697e-05
1.27136e-05
1.27256e-05
1.27343e-05
1.27407e-05
1.27458e-05
1.27504e-05
1.27549e-05
1.27593e-05
1.27633e-05
1.27667e-05
1.27692e-05
1.27709e-05
1.27718e-05
1.27723e-05
1.27116e-05
1.27116e-05
1.27113e-05
1.27105e-05
1.2709e-05
1.27063e-05
1.27019e-05
1.2695e-05
1.26846e-05
1.26697e-05
1.26498e-05
1.26271e-05
1.26079e-05
1.26013e-05
1.26126e-05
1.26388e-05
1.26696e-05
1.26959e-05
1.27156e-05
1.27299e-05
1.27397e-05
1.27463e-05
1.27511e-05
1.2755e-05
1.27588e-05
1.27624e-05
1.27657e-05
1.27685e-05
1.27707e-05
1.27722e-05
1.27731e-05
1.27735e-05
1.27037e-05
1.27038e-05
1.27039e-05
1.27037e-05
1.27025e-05
1.26999e-05
1.2695e-05
1.26868e-05
1.2674e-05
1.26555e-05
1.26315e-05
1.26051e-05
1.25842e-05
1.25786e-05
1.25935e-05
1.26244e-05
1.266e-05
1.2691e-05
1.2715e-05
1.27327e-05
1.27448e-05
1.27526e-05
1.27575e-05
1.2761e-05
1.27639e-05
1.27667e-05
1.27692e-05
1.27715e-05
1.27732e-05
1.27745e-05
1.27753e-05
1.27757e-05
1.26812e-05
1.26814e-05
1.26817e-05
1.26817e-05
1.26806e-05
1.26777e-05
1.26717e-05
1.26616e-05
1.26461e-05
1.26246e-05
1.2598e-05
1.25706e-05
1.25509e-05
1.25486e-05
1.25673e-05
1.26011e-05
1.26397e-05
1.26756e-05
1.27058e-05
1.27296e-05
1.27465e-05
1.27574e-05
1.27638e-05
1.27676e-05
1.27701e-05
1.27722e-05
1.2774e-05
1.27757e-05
1.27771e-05
1.27781e-05
1.27787e-05
1.2779e-05
1.2634e-05
1.26341e-05
1.26339e-05
1.26331e-05
1.26312e-05
1.2627e-05
1.26197e-05
1.26081e-05
1.25913e-05
1.25694e-05
1.25439e-05
1.25196e-05
1.25045e-05
1.2506e-05
1.25252e-05
1.2556e-05
1.25933e-05
1.26335e-05
1.26727e-05
1.27074e-05
1.27346e-05
1.27537e-05
1.27657e-05
1.27726e-05
1.27765e-05
1.27787e-05
1.27801e-05
1.27809e-05
1.27812e-05
1.27811e-05
1.27808e-05
1.27805e-05
1.25614e-05
1.25609e-05
1.25597e-05
1.25574e-05
1.25536e-05
1.25478e-05
1.25391e-05
1.25269e-05
1.25108e-05
1.24911e-05
1.24693e-05
1.24495e-05
1.24371e-05
1.24355e-05
1.24439e-05
1.246e-05
1.24864e-05
1.2525e-05
1.25712e-05
1.26193e-05
1.26637e-05
1.27012e-05
1.27303e-05
1.27507e-05
1.27629e-05
1.27685e-05
1.27692e-05
1.27664e-05
1.27618e-05
1.27567e-05
1.27527e-05
1.27504e-05
1.24798e-05
1.24788e-05
1.24767e-05
1.2473e-05
1.24675e-05
1.24595e-05
1.24485e-05
1.2434e-05
1.24158e-05
1.23943e-05
1.23701e-05
1.23448e-05
1.232e-05
1.22964e-05
1.22746e-05
1.22565e-05
1.22493e-05
1.22598e-05
1.22862e-05
1.23237e-05
1.23676e-05
1.24136e-05
1.24581e-05
1.24975e-05
1.25288e-05
1.25506e-05
1.25631e-05
1.25672e-05
1.25651e-05
1.25599e-05
1.25546e-05
1.25515e-05
1.24135e-05
1.24122e-05
1.24091e-05
1.24033e-05
1.23941e-05
1.23804e-05
1.23615e-05
1.23369e-05
1.23069e-05
1.22716e-05
1.22312e-05
1.21849e-05
1.21325e-05
1.20739e-05
1.20097e-05
1.19416e-05
1.18773e-05
1.18279e-05
1.17965e-05
1.17804e-05
1.17782e-05
1.17883e-05
1.18087e-05
1.18373e-05
1.18716e-05
1.19084e-05
1.19445e-05
1.19761e-05
1.20001e-05
1.20154e-05
1.2023e-05
1.20254e-05
1.2375e-05
1.23737e-05
1.23701e-05
1.23632e-05
1.23516e-05
1.23339e-05
1.2309e-05
1.22762e-05
1.22354e-05
1.21868e-05
1.21307e-05
1.20671e-05
1.1996e-05
1.19177e-05
1.18334e-05
1.17448e-05
1.16595e-05
1.1587e-05
1.15275e-05
1.14767e-05
1.14346e-05
1.14019e-05
1.13803e-05
1.1371e-05
1.13747e-05
1.13904e-05
1.14154e-05
1.14454e-05
1.1475e-05
1.1499e-05
1.15145e-05
1.15213e-05
1.2353e-05
1.23516e-05
1.23481e-05
1.2341e-05
1.23289e-05
1.23101e-05
1.22832e-05
1.22472e-05
1.22019e-05
1.21477e-05
1.20854e-05
1.20159e-05
1.19403e-05
1.18603e-05
1.17786e-05
1.16987e-05
1.16291e-05
1.15744e-05
1.15275e-05
1.1482e-05
1.14365e-05
1.13917e-05
1.135e-05
1.13141e-05
1.12865e-05
1.1269e-05
1.12619e-05
1.12641e-05
1.12725e-05
1.12832e-05
1.1292e-05
1.12967e-05
1.234e-05
1.23387e-05
1.23353e-05
1.23287e-05
1.23173e-05
1.22995e-05
1.22736e-05
1.22385e-05
1.21938e-05
1.214e-05
1.20783e-05
1.20103e-05
1.19379e-05
1.18635e-05
1.17906e-05
1.17238e-05
1.16711e-05
1.16329e-05
1.15981e-05
1.15589e-05
1.15128e-05
1.14611e-05
1.14068e-05
1.13546e-05
1.13088e-05
1.12726e-05
1.12473e-05
1.12325e-05
1.12262e-05
1.12257e-05
1.12275e-05
1.12292e-05
1.23318e-05
1.23308e-05
1.23278e-05
1.2322e-05
1.23119e-05
1.2296e-05
1.22727e-05
1.22408e-05
1.21997e-05
1.215e-05
1.20928e-05
1.20301e-05
1.19638e-05
1.18966e-05
1.18318e-05
1.17734e-05
1.17284e-05
1.16954e-05
1.1664e-05
1.16263e-05
1.15791e-05
1.15225e-05
1.14592e-05
1.13941e-05
1.13335e-05
1.12826e-05
1.12444e-05
1.12193e-05
1.12055e-05
1.11999e-05
1.11988e-05
1.11993e-05
1.23244e-05
1.23237e-05
1.23216e-05
1.2317e-05
1.23088e-05
1.22954e-05
1.22754e-05
1.22475e-05
1.22114e-05
1.21672e-05
1.21161e-05
1.20598e-05
1.2e-05
1.19389e-05
1.18791e-05
1.18235e-05
1.17779e-05
1.17415e-05
1.17067e-05
1.1667e-05
1.16189e-05
1.15612e-05
1.14951e-05
1.14243e-05
1.13549e-05
1.12932e-05
1.1244e-05
1.12095e-05
1.11889e-05
1.11791e-05
1.11762e-05
1.11762e-05
1.23125e-05
1.23125e-05
1.23117e-05
1.23091e-05
1.23035e-05
1.22931e-05
1.22767e-05
1.22531e-05
1.22217e-05
1.21828e-05
1.21372e-05
1.20861e-05
1.2031e-05
1.19734e-05
1.19151e-05
1.18579e-05
1.18066e-05
1.17628e-05
1.17221e-05
1.16791e-05
1.16302e-05
1.15736e-05
1.1509e-05
1.14385e-05
1.13668e-05
1.12996e-05
1.12431e-05
1.1201e-05
1.11742e-05
1.11605e-05
1.11556e-05
1.11551e-05
1.22896e-05
1.22907e-05
1.22921e-05
1.22925e-05
1.22901e-05
1.22833e-05
1.22703e-05
1.22501e-05
1.22222e-05
1.21866e-05
1.2144e-05
1.20954e-05
1.2042e-05
1.1985e-05
1.19254e-05
1.18643e-05
1.18062e-05
1.17552e-05
1.17094e-05
1.16641e-05
1.16158e-05
1.1562e-05
1.15016e-05
1.14354e-05
1.13664e-05
1.12993e-05
1.12397e-05
1.11928e-05
1.1161e-05
1.11435e-05
1.11367e-05
1.11357e-05
1.22495e-05
1.22521e-05
1.22563e-05
1.22603e-05
1.22615e-05
1.22578e-05
1.22472e-05
1.22285e-05
1.22014e-05
1.2166e-05
1.21233e-05
1.20743e-05
1.20201e-05
1.19618e-05
1.19003e-05
1.18358e-05
1.1773e-05
1.17179e-05
1.16699e-05
1.16248e-05
1.15792e-05
1.15302e-05
1.14761e-05
1.14169e-05
1.1354e-05
1.1291e-05
1.12325e-05
1.11838e-05
1.11487e-05
1.11281e-05
1.11194e-05
1.11178e-05
1.21868e-05
1.21913e-05
1.21985e-05
1.22055e-05
1.22091e-05
1.22066e-05
1.21958e-05
1.21758e-05
1.21465e-05
1.21088e-05
1.20639e-05
1.20131e-05
1.19577e-05
1.18987e-05
1.18368e-05
1.1772e-05
1.17088e-05
1.16539e-05
1.16075e-05
1.15653e-05
1.15243e-05
1.14816e-05
1.14355e-05
1.1385e-05
1.13307e-05
1.12748e-05
1.12207e-05
1.11732e-05
1.1137e-05
1.11142e-05
1.11038e-05
1.11014e-05
1.20983e-05
1.21048e-05
1.21139e-05
1.21215e-05
1.21241e-05
1.21192e-05
1.21049e-05
1.20809e-05
1.2048e-05
1.20075e-05
1.19609e-05
1.19097e-05
1.18552e-05
1.17983e-05
1.17396e-05
1.16787e-05
1.16198e-05
1.15694e-05
1.15275e-05
1.14906e-05
1.14557e-05
1.14203e-05
1.13828e-05
1.1342e-05
1.12977e-05
1.12508e-05
1.12037e-05
1.11603e-05
1.11251e-05
1.11015e-05
1.10897e-05
1.10867e-05
1.19822e-05
1.199e-05
1.19982e-05
1.20021e-05
1.1999e-05
1.1988e-05
1.19681e-05
1.194e-05
1.19048e-05
1.18638e-05
1.18186e-05
1.17706e-05
1.17207e-05
1.16696e-05
1.16179e-05
1.1565e-05
1.15143e-05
1.14716e-05
1.14366e-05
1.14063e-05
1.13783e-05
1.13505e-05
1.13216e-05
1.12904e-05
1.12563e-05
1.12196e-05
1.11813e-05
1.11443e-05
1.11125e-05
1.10895e-05
1.10772e-05
1.10736e-05
1.18369e-05
1.18441e-05
1.18469e-05
1.18422e-05
1.18304e-05
1.18124e-05
1.17883e-05
1.17589e-05
1.17252e-05
1.16881e-05
1.16486e-05
1.16078e-05
1.15663e-05
1.15246e-05
1.14829e-05
1.14409e-05
1.14011e-05
1.13677e-05
1.13407e-05
1.13177e-05
1.12968e-05
1.12765e-05
1.12556e-05
1.12333e-05
1.12089e-05
1.11823e-05
1.11538e-05
1.11248e-05
1.10984e-05
1.1078e-05
1.1066e-05
1.1062e-05
1.16589e-05
1.1662e-05
1.16549e-05
1.16406e-05
1.16223e-05
1.16013e-05
1.15777e-05
1.15521e-05
1.15246e-05
1.14956e-05
1.14657e-05
1.14353e-05
1.14049e-05
1.13748e-05
1.1345e-05
1.13153e-05
1.12874e-05
1.12642e-05
1.12455e-05
1.12297e-05
1.12155e-05
1.1202e-05
1.11883e-05
1.11738e-05
1.1158e-05
1.11406e-05
1.11216e-05
1.11016e-05
1.10822e-05
1.10662e-05
1.10559e-05
1.1052e-05
1.14414e-05
1.14365e-05
1.14218e-05
1.14052e-05
1.13884e-05
1.13715e-05
1.13546e-05
1.13374e-05
1.13199e-05
1.13019e-05
1.12837e-05
1.12655e-05
1.12475e-05
1.12297e-05
1.12123e-05
1.11951e-05
1.1179e-05
1.11656e-05
1.11549e-05
1.11459e-05
1.11379e-05
1.11303e-05
1.11228e-05
1.11148e-05
1.11063e-05
1.10968e-05
1.10864e-05
1.10751e-05
1.10637e-05
1.10536e-05
1.10464e-05
1.10433e-05
1.11757e-05
1.11717e-05
1.1164e-05
1.11567e-05
1.11499e-05
1.11435e-05
1.11374e-05
1.11314e-05
1.11254e-05
1.11194e-05
1.11134e-05
1.11074e-05
1.11016e-05
1.10958e-05
1.10902e-05
1.10846e-05
1.10794e-05
1.10751e-05
1.10717e-05
1.10688e-05
1.10663e-05
1.10639e-05
1.10615e-05
1.1059e-05
1.10564e-05
1.10535e-05
1.10502e-05
1.10467e-05
1.10431e-05
1.10397e-05
1.10371e-05
1.10359e-05
)
;

boundaryField
{
    movingWall
    {
        type            fixedValue;
        value           uniform 1.1032e-05;
    }
    fixedWalls
    {
        type            zeroGradient;
    }
    floor
    {
        type            zeroGradient;
    }
    frontAndBack
    {
        type            empty;
    }
}


// ************************************************************************* //
