/*--------------------------------*- C++ -*----------------------------------*\
| =========                 |                                                 |
| \\      /  F ield         | OpenFOAM: The Open Source CFD Toolbox           |
|  \\    /   O peration     | Version:  2212                                  |
|   \\  /    A nd           | Website:  www.openfoam.com                      |
|    \\/     M anipulation  |                                                 |
\*---------------------------------------------------------------------------*/
FoamFile
{
    version     2.0;
    format      ascii;
    arch        "LSB;label=64;scalar=64";
    class       volScalarField;
    location    "920";
    object      Sch4;
}
// * * * * * * * * * * * * * * * * * * * * * * * * * * * * * * * * * * * * * //

dimensions      [1 -3 0 0 0 0 0];

internalField   nonuniform List<scalar> 
1024
(
0.0357418
0.0357452
0.0357534
0.0357681
0.035791
0.0358234
0.0358657
0.0359164
0.0359729
0.0360315
0.0360891
0.0361412
0.0361811
0.0361979
0.0361807
0.0361242
0.0360348
0.0359363
0.0358434
0.0357575
0.035677
0.0355992
0.0355231
0.0354498
0.035382
0.035323
0.0352753
0.0352395
0.0352147
0.035199
0.0351903
0.0351868
0.0357421
0.0357456
0.0357539
0.0357689
0.0357924
0.0358255
0.0358684
0.0359197
0.0359765
0.0360355
0.0360935
0.0361461
0.0361867
0.0362038
0.0361863
0.0361291
0.0360391
0.03594
0.0358467
0.0357607
0.0356801
0.0356025
0.0355265
0.0354531
0.035385
0.0353256
0.0352773
0.035241
0.0352157
0.0351998
0.0351909
0.0351873
0.0357427
0.0357463
0.0357549
0.0357706
0.0357949
0.0358292
0.0358733
0.0359256
0.0359834
0.0360434
0.0361028
0.0361574
0.0362
0.0362181
0.0361996
0.0361404
0.0360482
0.0359475
0.0358532
0.0357667
0.0356862
0.0356088
0.0355331
0.0354598
0.0353912
0.0353309
0.0352815
0.0352441
0.035218
0.0352015
0.0351923
0.0351886
0.0357434
0.0357471
0.0357562
0.0357727
0.0357982
0.0358339
0.0358794
0.0359331
0.0359925
0.0360546
0.0361173
0.0361764
0.0362238
0.0362441
0.0362235
0.0361596
0.0360627
0.0359586
0.0358623
0.0357749
0.0356943
0.0356174
0.0355424
0.0354693
0.0354003
0.0353388
0.0352879
0.035249
0.0352217
0.0352043
0.0351947
0.0351907
0.0357439
0.0357478
0.0357574
0.0357746
0.0358012
0.0358381
0.0358851
0.0359406
0.0360024
0.0360684
0.0361371
0.0362047
0.0362609
0.0362853
0.0362612
0.0361889
0.036083
0.0359727
0.0358727
0.0357835
0.0357026
0.0356265
0.0355526
0.0354802
0.035411
0.0353485
0.0352959
0.0352553
0.0352265
0.0352082
0.035198
0.0351938
0.0357439
0.0357479
0.0357577
0.0357753
0.0358025
0.0358403
0.0358885
0.035946
0.0360113
0.0360835
0.0361623
0.0362436
0.0363138
0.0363451
0.036316
0.0362301
0.0361095
0.0359887
0.0358824
0.0357902
0.0357086
0.0356334
0.0355611
0.0354901
0.0354214
0.0353583
0.0353045
0.0352623
0.0352321
0.0352127
0.035202
0.0351976
0.0357425
0.0357466
0.0357563
0.0357738
0.0358008
0.0358387
0.0358876
0.0359472
0.0360174
0.0360989
0.0361926
0.0362939
0.0363844
0.0364261
0.0363908
0.0362851
0.0361425
0.0360053
0.0358892
0.0357918
0.0357087
0.0356345
0.0355644
0.0354958
0.0354286
0.035366
0.0353117
0.0352685
0.0352374
0.0352172
0.0352061
0.0352015
0.0357394
0.0357432
0.0357525
0.0357692
0.0357951
0.035832
0.0358809
0.0359428
0.0360194
0.0361135
0.0362277
0.0363567
0.0364744
0.0365305
0.0364877
0.0363554
0.0361819
0.0360214
0.0358905
0.0357853
0.0356994
0.0356259
0.0355585
0.0354933
0.0354291
0.0353684
0.035315
0.0352721
0.0352408
0.0352204
0.0352091
0.0352044
0.0357348
0.0357383
0.0357466
0.0357616
0.0357855
0.0358204
0.0358686
0.035933
0.0360177
0.0361286
0.0362702
0.0364351
0.0365869
0.0366606
0.036608
0.0364419
0.0362282
0.0360363
0.035885
0.0357681
0.0356773
0.0356039
0.0355397
0.035479
0.0354193
0.0353624
0.0353119
0.0352707
0.0352405
0.0352207
0.0352095
0.0352048
0.0357333
0.0357358
0.0357423
0.0357548
0.0357756
0.0358079
0.0358553
0.0359232
0.0360192
0.0361527
0.0363301
0.0365391
0.03673
0.036821
0.0367539
0.0365462
0.036284
0.0360526
0.0358739
0.03574
0.0356411
0.0355663
0.0355052
0.0354499
0.0353964
0.0353454
0.0352998
0.0352623
0.0352345
0.0352159
0.0352053
0.0352007
0.0357509
0.0357517
0.0357551
0.0357636
0.0357806
0.0358103
0.0358585
0.0359335
0.0360466
0.0362113
0.0364331
0.0366913
0.0369199
0.0370213
0.0369306
0.0366745
0.0363581
0.03608
0.0358654
0.0357066
0.0355936
0.0355139
0.0354545
0.035405
0.035359
0.0353158
0.0352769
0.0352447
0.0352204
0.0352038
0.0351939
0.0351896
0.0358328
0.0358313
0.0358304
0.0358338
0.0358466
0.0358754
0.0359288
0.0360182
0.0361577
0.0363613
0.0366299
0.0369315
0.0371837
0.0372782
0.0371518
0.0368459
0.0364768
0.0361463
0.0358835
0.0356856
0.0355464
0.0354534
0.0353912
0.0353457
0.0353074
0.0352727
0.0352418
0.0352159
0.0351957
0.0351814
0.0351725
0.0351684
0.0360705
0.0360678
0.0360646
0.0360656
0.0360777
0.0361104
0.0361754
0.0362864
0.0364568
0.0366957
0.0369959
0.0373137
0.0375569
0.0376192
0.0374522
0.0371131
0.0367084
0.0363226
0.0359907
0.0357253
0.0355324
0.0354051
0.0353264
0.0352776
0.0352437
0.0352166
0.0351934
0.0351737
0.035158
0.0351466
0.0351396
0.0351364
0.036574
0.0365739
0.0365761
0.0365849
0.0366073
0.0366533
0.0367348
0.0368646
0.0370522
0.0373
0.0375933
0.0378831
0.0380799
0.0381001
0.0379242
0.0376116
0.0372179
0.0367832
0.0363529
0.0359686
0.0356636
0.0354466
0.0353069
0.0352244
0.0351773
0.0351491
0.0351316
0.0351216
0.0351182
0.0351198
0.0351237
0.0351268
0.037357
0.0373629
0.0373772
0.0374032
0.0374459
0.0375124
0.0376113
0.0377513
0.0379373
0.0381677
0.0384259
0.03867
0.0388359
0.0388832
0.038816
0.0386578
0.0383808
0.0379658
0.0374616
0.0369331
0.0364412
0.0360244
0.0356988
0.0354707
0.0353326
0.0352687
0.0352605
0.0352907
0.0353423
0.0353983
0.0354438
0.0354685
0.0382458
0.0382567
0.0382813
0.0383234
0.0383878
0.0384807
0.0386089
0.0387787
0.0389925
0.039247
0.0395325
0.0398314
0.0401228
0.0403984
0.0406539
0.0408702
0.0409679
0.040871
0.0405945
0.0401909
0.0397124
0.0392068
0.0387154
0.0382796
0.0379314
0.0376886
0.0375488
0.0375024
0.037525
0.0375826
0.0376412
0.0376763
0.03897
0.0389848
0.0390211
0.0390875
0.039194
0.0393513
0.039568
0.039848
0.0401895
0.0405877
0.0410423
0.041559
0.0421436
0.0427981
0.0435179
0.04429
0.0450308
0.0456117
0.0459934
0.0462039
0.0462537
0.0461616
0.0459482
0.0456376
0.0452593
0.0448486
0.0444427
0.0440862
0.0438144
0.0436412
0.0435548
0.043527
0.039381
0.0393966
0.0394376
0.0395164
0.0396481
0.0398476
0.0401271
0.0404934
0.040947
0.0414843
0.042102
0.0428008
0.0435832
0.0444476
0.0453852
0.0463831
0.0473613
0.0482115
0.0489284
0.0495524
0.0500793
0.0504947
0.0507783
0.0509127
0.0508905
0.0507226
0.0504414
0.0500986
0.0497583
0.0494808
0.0493015
0.049223
0.0396083
0.0396237
0.0396647
0.0397449
0.0398808
0.0400903
0.0403889
0.0407866
0.0412849
0.0418782
0.0425571
0.0433128
0.0441356
0.0450101
0.0459101
0.0468008
0.0475952
0.0482452
0.0488266
0.0494069
0.0499972
0.050581
0.0511262
0.0515958
0.051956
0.0521853
0.05228
0.0522574
0.0521554
0.0520255
0.0519173
0.0518605
0.0397353
0.0397499
0.0397884
0.0398634
0.039991
0.0401892
0.040475
0.0408604
0.0413486
0.0419331
0.0426006
0.0433342
0.0441155
0.0449201
0.0457127
0.0464476
0.0470423
0.0474967
0.0479343
0.0484421
0.0490438
0.0497226
0.0504337
0.0511181
0.0517167
0.0521879
0.0525142
0.0527023
0.052778
0.0527801
0.0527517
0.0527283
0.0398094
0.0398221
0.0398556
0.0399213
0.0400339
0.0402102
0.0404669
0.0408164
0.0412629
0.041801
0.0424163
0.0430897
0.0437996
0.0445207
0.0452196
0.045855
0.0463571
0.0467449
0.047137
0.0476199
0.0482289
0.0489629
0.0497853
0.0506318
0.0514218
0.0520857
0.0525828
0.0529073
0.0530826
0.0531503
0.0531582
0.0531486
0.0398787
0.0398872
0.0399117
0.039963
0.0400548
0.040203
0.0404231
0.0407269
0.0411192
0.0415959
0.0421447
0.0427484
0.0433879
0.0440422
0.0446862
0.0452904
0.0457997
0.0462246
0.0466496
0.0471479
0.0477594
0.0484987
0.0493497
0.0502645
0.0511653
0.051969
0.0526099
0.0530586
0.0533248
0.0534476
0.0534811
0.0534785
0.0400054
0.0400059
0.0400144
0.0400425
0.0401052
0.0402189
0.040399
0.0406565
0.0409967
0.0414172
0.0419089
0.0424587
0.0430519
0.0436731
0.044306
0.0449343
0.045512
0.0460225
0.0465129
0.0470436
0.0476553
0.0483725
0.0491975
0.050103
0.0510304
0.0519018
0.0526383
0.0531865
0.053535
0.0537118
0.0537711
0.0537751
0.040266
0.040253
0.0402359
0.0402297
0.0402534
0.0403273
0.0404686
0.0406892
0.0409945
0.041383
0.0418476
0.0423776
0.0429609
0.043586
0.0442423
0.0449237
0.0455856
0.0461805
0.0467276
0.0472795
0.0478773
0.0485519
0.0493178
0.0501636
0.0510516
0.0519204
0.0526954
0.0533081
0.0537231
0.05395
0.0540359
0.0540471
0.0407379
0.0407058
0.0406546
0.0406062
0.0405874
0.040625
0.0407405
0.0409471
0.0412487
0.0416417
0.0421171
0.0426629
0.0432664
0.0439171
0.044607
0.0453362
0.046058
0.0467019
0.0472718
0.0478169
0.0483777
0.0489878
0.0496686
0.050422
0.0512274
0.052041
0.0528006
0.0534368
0.0538958
0.054165
0.054277
0.0542964
0.0414844
0.041429
0.0413419
0.041257
0.0412103
0.0412347
0.0413546
0.0415817
0.0419146
0.0423433
0.0428538
0.0434305
0.0440589
0.0447281
0.0454318
0.0461731
0.0469046
0.0475466
0.0480977
0.0486043
0.0491053
0.049633
0.0502112
0.0508502
0.0515434
0.0522643
0.0529657
0.0535847
0.0540602
0.0543592
0.0544949
0.0545234
0.042546
0.0424672
0.0423568
0.0422642
0.0422302
0.042285
0.0424492
0.0427272
0.043109
0.0435783
0.044117
0.0447073
0.0453344
0.0459881
0.0466635
0.0473655
0.0480499
0.0486408
0.049136
0.0495783
0.0500026
0.0504375
0.0509055
0.0514204
0.0519848
0.0525871
0.0531968
0.0537629
0.0542247
0.0545362
0.0546904
0.0547285
0.0439456
0.0438514
0.0437515
0.0437045
0.0437392
0.0438693
0.0441031
0.0444347
0.0448493
0.0453296
0.0458581
0.0464186
0.0469985
0.0475897
0.0481892
0.0488024
0.0493923
0.0498944
0.0503081
0.0506699
0.0510088
0.0513483
0.0517074
0.0520998
0.0525322
0.0530033
0.0534977
0.0539804
0.0543988
0.0547015
0.054865
0.0549116
0.0457042
0.0456168
0.045583
0.0456397
0.0457807
0.0459966
0.0462843
0.0466337
0.047034
0.047473
0.0479382
0.0484179
0.0489034
0.0493893
0.049874
0.0503628
0.0508273
0.0512187
0.0515375
0.0518119
0.0520643
0.0523123
0.0525705
0.0528501
0.0531586
0.053499
0.0538673
0.0542442
0.0545916
0.0548617
0.055021
0.0550732
0.047864
0.0478265
0.0479123
0.0480857
0.0483074
0.0485611
0.0488439
0.0491508
0.0494789
0.0498235
0.0501781
0.0505363
0.050893
0.0512453
0.0515925
0.0519387
0.0522647
0.0525376
0.0527581
0.0529459
0.0531161
0.0532809
0.0534501
0.0536314
0.0538308
0.0540524
0.0542969
0.0545572
0.0548117
0.055025
0.0551627
0.0552142
0.050509
0.0505687
0.0507474
0.0509493
0.0511539
0.0513575
0.0515618
0.0517679
0.051978
0.052192
0.052408
0.0526234
0.0528356
0.0530435
0.0532468
0.0534479
0.0536363
0.0537933
0.0539196
0.0540263
0.0541222
0.0542139
0.0543071
0.054406
0.0545142
0.0546344
0.0547683
0.0549146
0.0550646
0.0551996
0.0552955
0.0553366
0.0537463
0.0537951
0.0538888
0.0539779
0.0540606
0.0541382
0.0542123
0.0542842
0.0543556
0.0544271
0.0544985
0.0545692
0.0546385
0.0547061
0.0547719
0.0548368
0.0548974
0.0549478
0.0549882
0.0550223
0.0550527
0.0550816
0.0551108
0.0551416
0.0551752
0.0552123
0.0552536
0.0552992
0.0553471
0.0553921
0.0554269
0.0554438
)
;

boundaryField
{
    movingWall
    {
        type            fixedValue;
        value           uniform 0.0555;
    }
    fixedWalls
    {
        type            zeroGradient;
    }
    floor
    {
        type            zeroGradient;
    }
    frontAndBack
    {
        type            empty;
    }
}


// ************************************************************************* //
