/*--------------------------------*- C++ -*----------------------------------*\
| =========                 |                                                 |
| \\      /  F ield         | OpenFOAM: The Open Source CFD Toolbox           |
|  \\    /   O peration     | Version:  2212                                  |
|   \\  /    A nd           | Website:  www.openfoam.com                      |
|    \\/     M anipulation  |                                                 |
\*---------------------------------------------------------------------------*/
FoamFile
{
    version     2.0;
    format      ascii;
    arch        "LSB;label=64;scalar=64";
    class       volScalarField;
    location    "920";
    object      Sco2;
}
// * * * * * * * * * * * * * * * * * * * * * * * * * * * * * * * * * * * * * //

dimensions      [1 -3 0 0 0 0 0];

internalField   nonuniform List<scalar> 
1024
(
0.00570067
0.00570132
0.00570288
0.00570566
0.00571
0.00571613
0.00572409
0.00573364
0.00574426
0.00575528
0.0057661
0.00577588
0.00578336
0.00578652
0.00578327
0.00577265
0.00575586
0.00573735
0.00571989
0.00570377
0.00568863
0.005674
0.00565965
0.00564583
0.00563303
0.00562189
0.00561287
0.00560611
0.00560141
0.00559844
0.00559681
0.00559614
0.00570074
0.0057014
0.00570298
0.00570583
0.00571026
0.00571651
0.0057246
0.00573425
0.00574495
0.00575604
0.00576693
0.00577681
0.00578441
0.00578761
0.00578431
0.00577357
0.00575665
0.00573804
0.00572051
0.00570436
0.00568922
0.00567461
0.00566029
0.00564645
0.0056336
0.00562237
0.00561325
0.00560639
0.00560161
0.00559859
0.00559692
0.00559624
0.00570086
0.00570154
0.00570318
0.00570614
0.00571075
0.00571721
0.00572552
0.00573537
0.00574624
0.00575751
0.00576867
0.00577892
0.00578692
0.00579029
0.0057868
0.00577567
0.00575834
0.00573944
0.00572173
0.00570549
0.00569035
0.0056758
0.00566154
0.00564771
0.00563477
0.00562338
0.00561405
0.00560698
0.00560205
0.00559892
0.00559719
0.00559648
0.00570101
0.00570171
0.00570344
0.00570655
0.00571137
0.00571809
0.00572667
0.00573678
0.00574794
0.00575962
0.00577138
0.00578249
0.00579138
0.00579516
0.00579127
0.00577926
0.00576104
0.00574151
0.00572342
0.005707
0.00569185
0.00567741
0.00566327
0.0056495
0.00563647
0.00562486
0.00561525
0.0056079
0.00560274
0.00559945
0.00559763
0.00559689
0.00570113
0.00570187
0.00570367
0.00570692
0.00571193
0.00571889
0.00572774
0.00573818
0.00574979
0.00576219
0.00577511
0.00578779
0.00579833
0.00580287
0.00579832
0.00578471
0.00576483
0.00574412
0.00572534
0.00570859
0.00569341
0.00567911
0.00566518
0.00565155
0.00563849
0.00562669
0.00561677
0.00560909
0.00560366
0.00560018
0.00559826
0.00559748
0.00570114
0.0057019
0.00570375
0.00570706
0.00571218
0.0057193
0.00572838
0.00573918
0.00575146
0.00576504
0.00577983
0.00579509
0.00580825
0.00581407
0.00580857
0.0057924
0.00576975
0.00574707
0.00572713
0.00570981
0.0056945
0.00568038
0.00566677
0.00565341
0.00564045
0.00562855
0.00561838
0.00561041
0.00560471
0.00560105
0.00559902
0.0055982
0.0057009
0.00570166
0.00570349
0.00570678
0.00571187
0.00571899
0.00572819
0.00573941
0.0057526
0.00576791
0.0057855
0.00580453
0.00582149
0.00582926
0.00582256
0.00580266
0.00577585
0.00575011
0.00572832
0.00571007
0.00569449
0.00568056
0.00566738
0.00565446
0.0056418
0.00562999
0.00561974
0.00561159
0.0056057
0.0056019
0.00559979
0.00559893
0.00570031
0.00570103
0.00570278
0.00570591
0.00571079
0.00571773
0.00572693
0.00573857
0.00575296
0.00577063
0.0057921
0.00581631
0.00583836
0.00584881
0.00584066
0.00581575
0.00578314
0.00575301
0.00572848
0.00570876
0.00569267
0.00567889
0.00566624
0.00565397
0.00564187
0.00563044
0.00562036
0.00561226
0.00560635
0.0056025
0.00560036
0.00559949
0.00569945
0.0057001
0.00570166
0.00570449
0.00570898
0.00571554
0.00572461
0.00573671
0.00575264
0.00577347
0.00580008
0.00583103
0.00585947
0.00587317
0.00586315
0.00583184
0.00579169
0.00575567
0.00572731
0.00570541
0.00568843
0.00567468
0.00566265
0.00565124
0.00564001
0.0056293
0.00561976
0.005612
0.0056063
0.00560255
0.00560044
0.00559956
0.00569916
0.00569963
0.00570085
0.0057032
0.00570712
0.00571319
0.0057221
0.00573487
0.00575291
0.00577801
0.00581134
0.00585058
0.00588632
0.00590323
0.0058904
0.00585125
0.00580196
0.00575854
0.00572506
0.00570001
0.00568151
0.00566753
0.00565609
0.00564573
0.00563568
0.00562608
0.00561748
0.00561041
0.00560515
0.00560165
0.00559964
0.00559879
0.00570248
0.00570262
0.00570326
0.00570486
0.00570806
0.00571366
0.00572272
0.00573681
0.0057581
0.00578907
0.00583073
0.00587918
0.00592197
0.00594075
0.00592342
0.00587513
0.00581564
0.00576346
0.00572327
0.00569357
0.00567246
0.00565758
0.0056465
0.00563723
0.00562861
0.00562047
0.00561315
0.00560708
0.0056025
0.00559936
0.0055975
0.00559668
0.00571791
0.00571761
0.00571745
0.00571809
0.00572051
0.00572593
0.00573597
0.00575279
0.00577904
0.00581732
0.00586777
0.00592431
0.00597146
0.00598886
0.00596477
0.00590708
0.0058377
0.00577571
0.00572649
0.00568947
0.00566345
0.0056461
0.00563451
0.00562601
0.00561884
0.00561234
0.00560652
0.00560164
0.00559784
0.00559513
0.00559345
0.00559267
0.00576265
0.00576214
0.00576156
0.00576175
0.00576404
0.0057702
0.00578244
0.00580332
0.00583537
0.00588026
0.00593658
0.0059961
0.00604145
0.00605271
0.00602094
0.00595702
0.00588098
0.00580864
0.00574647
0.00569679
0.00566072
0.00563693
0.00562224
0.00561314
0.00560682
0.00560174
0.00559737
0.00559366
0.00559069
0.00558856
0.00558723
0.00558663
0.00585742
0.00585741
0.00585782
0.00585949
0.00586373
0.00587239
0.00588773
0.00591213
0.00594736
0.00599386
0.0060488
0.00610293
0.00613947
0.00614279
0.00610937
0.00605048
0.00597657
0.0058951
0.00581446
0.00574245
0.0056853
0.00564466
0.00561851
0.00560308
0.00559425
0.00558898
0.00558569
0.00558381
0.00558315
0.00558344
0.00558417
0.00558474
0.00600469
0.00600582
0.00600851
0.0060134
0.00602145
0.00603395
0.00605253
0.00607879
0.00611366
0.00615679
0.00620499
0.00625046
0.00628117
0.00628966
0.0062768
0.00624705
0.00619517
0.00611741
0.00602287
0.0059237
0.00583139
0.00575315
0.00569202
0.0056492
0.00562329
0.00561128
0.00560974
0.00561541
0.00562511
0.00563563
0.00564417
0.00564882
0.00617179
0.00617383
0.00617846
0.00618638
0.00619847
0.00621589
0.00623992
0.0062717
0.00631169
0.00635924
0.00641252
0.0064683
0.00652276
0.00657441
0.00662246
0.00666329
0.00668192
0.00666396
0.00661217
0.00653642
0.00644654
0.00635151
0.00625914
0.00617722
0.00611175
0.00606609
0.00603981
0.00603108
0.00603534
0.00604618
0.00605721
0.00606381
0.00630786
0.00631065
0.00631747
0.00632994
0.00634994
0.00637945
0.0064201
0.0064726
0.00653659
0.00661123
0.00669646
0.0067934
0.00690324
0.00702638
0.00716195
0.00730749
0.00744721
0.0075568
0.00762883
0.00766856
0.00767803
0.00766075
0.00762061
0.00756217
0.00749097
0.00741365
0.00733725
0.00727013
0.00721896
0.00718636
0.00717009
0.00716486
0.00638511
0.00638805
0.00639575
0.00641057
0.00643531
0.00647278
0.00652527
0.00659406
0.00667923
0.00678015
0.0068962
0.00702758
0.0071748
0.0073376
0.00751433
0.00770251
0.00788702
0.00804734
0.00818245
0.00829999
0.00839921
0.00847741
0.00853078
0.00855604
0.00855183
0.00852017
0.00846719
0.0084026
0.0083385
0.00828622
0.00825244
0.00823766
0.00642785
0.00643076
0.00643846
0.00645353
0.00647908
0.00651844
0.00657457
0.00664931
0.00674295
0.00685448
0.00698215
0.00712432
0.00727924
0.00744402
0.00761373
0.00778178
0.00793169
0.00805428
0.00816381
0.00827305
0.00838416
0.00849402
0.00859663
0.00868501
0.00875279
0.00879593
0.00881373
0.00880944
0.00879021
0.00876574
0.00874533
0.00873464
0.00645175
0.0064545
0.00646173
0.00647583
0.00649982
0.00653708
0.00659081
0.00666327
0.00675504
0.00686497
0.00699052
0.00712859
0.00727572
0.00742734
0.00757682
0.00771553
0.00782779
0.00791349
0.00799589
0.00809146
0.00820468
0.0083324
0.00846622
0.00859503
0.00870771
0.00879641
0.00885785
0.00889325
0.0089075
0.00890789
0.00890254
0.00889812
0.00646571
0.00646809
0.00647439
0.00648674
0.00650791
0.00654106
0.00658932
0.00665503
0.00673901
0.00684022
0.00695597
0.0070827
0.00721638
0.00735226
0.00748408
0.00760398
0.00769876
0.00777189
0.00784571
0.00793658
0.00805119
0.00818933
0.0083441
0.00850344
0.00865216
0.00877714
0.00887074
0.00893183
0.00896484
0.00897759
0.00897907
0.00897727
0.00647877
0.00648037
0.00648498
0.00649461
0.00651186
0.00653973
0.00658111
0.00663824
0.00671202
0.00680169
0.00690494
0.00701856
0.00713897
0.00726225
0.00738365
0.00749762
0.0075937
0.0076738
0.00775383
0.00784761
0.00796272
0.00810186
0.00826204
0.00843425
0.00860385
0.00875516
0.00887583
0.00896031
0.00901043
0.00903356
0.00903987
0.00903939
0.00650266
0.00650274
0.00650433
0.0065096
0.00652138
0.00654277
0.00657661
0.00662505
0.00668903
0.00676813
0.00686065
0.00696412
0.0070758
0.00719281
0.00731207
0.00743051
0.00753941
0.00763561
0.00772798
0.00782788
0.00794305
0.00807805
0.00823336
0.00840383
0.00857843
0.00874249
0.00888116
0.00898439
0.00905
0.0090833
0.00909447
0.00909522
0.00655173
0.00654929
0.00654606
0.00654487
0.00654933
0.0065632
0.00658976
0.00663125
0.00668867
0.00676176
0.00684919
0.00694894
0.00705876
0.00717646
0.00730009
0.00742846
0.00755319
0.00766526
0.0077683
0.00787223
0.00798478
0.00811179
0.00825597
0.00841522
0.00858241
0.00874599
0.00889191
0.00900729
0.00908543
0.00912816
0.00914433
0.00914644
0.0066406
0.00663456
0.00662492
0.00661579
0.00661223
0.00661928
0.00664099
0.00667985
0.0067366
0.00681055
0.00690002
0.00700274
0.00711636
0.00723886
0.00736879
0.00750612
0.00764208
0.00776335
0.00787069
0.00797335
0.00807897
0.00819384
0.00832202
0.00846387
0.00861551
0.00876869
0.00891172
0.0090315
0.00911795
0.00916863
0.00918971
0.00919338
0.00678117
0.00677074
0.00675434
0.00673833
0.00672954
0.0067341
0.00675665
0.00679939
0.00686202
0.00694271
0.00703879
0.00714734
0.00726564
0.00739163
0.00752411
0.0076637
0.00780145
0.00792238
0.00802617
0.00812159
0.00821594
0.00831531
0.00842418
0.00854449
0.008675
0.00881074
0.00894281
0.00905936
0.0091489
0.0092052
0.00923075
0.00923612
0.00698107
0.00696623
0.00694544
0.00692798
0.00692156
0.00693186
0.00696277
0.00701509
0.00708695
0.00717529
0.00727668
0.0073878
0.00750585
0.00762891
0.00775606
0.00788823
0.00801712
0.00812839
0.00822167
0.00830497
0.00838488
0.00846677
0.0085549
0.00865185
0.00875812
0.00887153
0.00898633
0.00909291
0.00917987
0.00923853
0.00926757
0.00927472
0.00724458
0.00722683
0.00720802
0.00719917
0.0072057
0.00723017
0.00727417
0.00733659
0.00741464
0.00750506
0.00760453
0.00771004
0.00781921
0.00793051
0.00804336
0.00815882
0.00826988
0.00836444
0.00844236
0.00851049
0.00857433
0.00863826
0.00870589
0.00877977
0.0088612
0.00894988
0.00904298
0.00913387
0.00921265
0.00926964
0.00930043
0.00930921
0.00757569
0.00755923
0.00755286
0.00756352
0.00759008
0.00763071
0.00768486
0.00775064
0.007826
0.00790865
0.0079962
0.00808651
0.0081779
0.00826937
0.00836062
0.00845264
0.0085401
0.00861381
0.00867385
0.00872552
0.00877306
0.00881977
0.0088684
0.00892105
0.00897913
0.00904324
0.00911257
0.00918354
0.00924896
0.00929982
0.00932981
0.00933964
0.00798232
0.00797526
0.00799143
0.00802406
0.00806579
0.00811355
0.00816678
0.00822456
0.00828634
0.00835121
0.00841796
0.0084854
0.00855255
0.00861886
0.00868423
0.0087494
0.00881078
0.00886216
0.0089037
0.00893905
0.00897112
0.00900215
0.00903401
0.00906816
0.00910571
0.00914742
0.00919346
0.00924248
0.00929041
0.00933056
0.00935648
0.00936619
0.00848033
0.00849156
0.00852521
0.00856321
0.00860173
0.00864006
0.00867852
0.00871733
0.00875687
0.00879716
0.00883783
0.00887837
0.00891833
0.00895745
0.00899572
0.00903359
0.00906905
0.00909862
0.00912241
0.00914251
0.00916056
0.00917784
0.00919538
0.00921401
0.00923438
0.00925701
0.00928223
0.00930978
0.00933802
0.00936343
0.00938149
0.00938923
0.00908981
0.00909901
0.00911665
0.00913342
0.00914899
0.0091636
0.00917755
0.00919109
0.00920452
0.00921799
0.00923143
0.00924474
0.00925779
0.00927051
0.0092829
0.00929512
0.00930652
0.00931601
0.00932363
0.00933004
0.00933577
0.00934122
0.00934672
0.00935252
0.00935883
0.00936582
0.00937361
0.0093822
0.0093912
0.00939969
0.00940623
0.00940941
)
;

boundaryField
{
    movingWall
    {
        type            fixedValue;
        value           uniform 0.00942;
    }
    fixedWalls
    {
        type            zeroGradient;
    }
    floor
    {
        type            zeroGradient;
    }
    frontAndBack
    {
        type            empty;
    }
}


// ************************************************************************* //
