/*--------------------------------*- C++ -*----------------------------------*\
| =========                 |                                                 |
| \\      /  F ield         | OpenFOAM: The Open Source CFD Toolbox           |
|  \\    /   O peration     | Version:  2206                                  |
|   \\  /    A nd           | Website:  www.openfoam.com                      |
|    \\/     M anipulation  |                                                 |
\*---------------------------------------------------------------------------*/
FoamFile
{
    version     2.0;
    format      ascii;
    arch        "LSB;label=64;scalar=64";
    class       volScalarField;
    location    "1.5/water";
    object      k.gas;
}
// * * * * * * * * * * * * * * * * * * * * * * * * * * * * * * * * * * * * * //

dimensions      [0 2 -2 0 0 0 0];

internalField   nonuniform List<scalar> 
23300
(
5.82562244458e-05
7.08454437103e-05
9.18139959619e-05
0.000118030251672
0.000147476895132
0.00017891520786
0.00021156644632
0.000244942747212
0.000278769870001
0.000312944194221
0.000347509466508
0.000382557271267
0.000419313724832
0.000459154645609
0.000503343942327
0.000552888244899
0.000608355564889
0.000669909373201
0.000737778900251
0.000813201152408
0.000899807203263
0.00100438205206
0.00112948992829
0.00127095640799
0.00142258468652
0.00157946689642
0.00173847886636
0.0018975674965
0.00205524925158
0.00221037400116
0.00236204887885
0.00250957644644
0.00265242983267
0.00279020276637
0.00292260020522
0.00304941144051
0.00317052931252
0.00328594440151
0.00339577400253
0.00350025280608
0.00359974907224
0.00369473754802
0.00378579726157
0.00387357086816
0.00395875391104
0.00404205133924
0.0041241632535
0.00420573689009
0.00428734383126
0.00436942660667
0.00445227561318
0.00453598675408
0.00462045351285
0.00470533512796
0.00479003642963
0.00487363565205
0.00495490340405
0.00503230705896
0.00510463808345
0.00517088955161
0.00523021684599
0.00528190188789
0.00532534304211
0.00536002893882
0.00538553176206
0.00540148599923
0.00540758624512
0.00540357155493
0.00538922726596
0.00536437372063
0.00532887073494
0.00528260952342
0.00522551920669
0.00515756241472
0.00507874616665
0.00498912679655
0.00488883593856
0.00477811260075
0.0046573683134
0.0045272672262
0.00438881623311
0.00424337652388
0.00409247873452
0.00393731621003
0.00377794781729
0.00361196680851
0.00343574694418
0.00324354705485
0.00303598159298
0.00281799029052
0.00259642379261
0.0023776638505
0.00216638878055
0.00196577647817
0.00177853873248
0.00160777555038
0.00145722456042
0.00133088532053
0.00123213432454
0.0011625041195
0.00112046959482
0.00110058308408
0.00109302768015
0.00108975128875
0.00108525189077
0.00107706387535
0.00106484558779
0.0010490766359
0.00103031438731
0.0010089779322
0.000985361111696
0.000959685347437
0.000932141398085
0.00090291370383
0.000872191893025
0.000840170194657
0.000807040315966
0.000772981388905
0.000738153294893
0.000702694961501
0.000666728576369
0.000630366482434
0.000593719129532
0.000556901147561
0.000520034440887
0.000483246717624
0.000446666519737
0.000410415906849
0.000374603115754
0.000339317356617
0.000304627800844
0.000270584641075
0.000237215898876
0.000204518717788
0.000172465250485
0.000141090782321
0.000110853308731
8.37033431377e-05
6.4767423902e-05
6.10368785339e-05
3.12473748059e-05
3.54710066114e-05
4.33046079591e-05
5.42266542612e-05
6.79752199064e-05
8.45118748011e-05
0.000103953737292
0.000126533330948
0.000152584159448
0.000182546461432
0.000216961004774
0.000256850499564
0.000302725089915
0.000354906533459
0.000413619968521
0.000478775224907
0.000549977105885
0.000626833862731
0.000709344569029
0.000798006792823
0.000892144735896
0.00099326146654
0.00110083034431
0.00121209440447
0.00132396335695
0.00143406229494
0.00154080502897
0.00164317001695
0.00174055506203
0.0018327112028
0.00191973378892
0.00200206067233
0.00208049390223
0.00215622029074
0.00223084524915
0.00230638056825
0.00238516059577
0.00246963174107
0.00256205437371
0.00266415776485
0.00277686733249
0.00290017606925
0.00303322758288
0.00317455632708
0.00332241190073
0.00347504399422
0.00363090297559
0.00378872308727
0.00394753032304
0.00410659263976
0.00426536223525
0.0044234109156
0.0045803796971
0.00473592542742
0.00488969083808
0.00503962246905
0.00518358014286
0.00532078432953
0.00545064357691
0.00557260850337
0.00568613665694
0.00579068494325
0.00588571649516
0.00597070227048
0.00604512752199
0.00610849170796
0.00616031319408
0.0062001280915
0.00622749384827
0.0062419872934
0.00624320717965
0.00623077144692
0.00620431907621
0.00616350775096
0.0061080179469
0.00603755707415
0.00595187744075
0.00585080757332
0.00573431846932
0.00560263411674
0.00545641251402
0.0052969905277
0.0051266506847
0.00494875400474
0.00476745856522
0.00458634540439
0.00440445173444
0.00421712922048
0.00402106568355
0.00381386317815
0.00359529679083
0.00336589638696
0.00312659140504
0.00287838393732
0.00262242367673
0.00236009683139
0.00209315497442
0.0018239033432
0.00155553536703
0.00129269041277
0.00104223878482
0.000814003873228
0.000621002702661
0.000474447889756
0.000379497267309
0.000327283594185
0.000303285576932
0.000293719709552
0.000289275946563
0.000285580441513
0.000281223618136
0.000275917749053
0.000269674999663
0.000262564698593
0.000254661203848
0.000246037228101
0.000236765073793
0.000226918014639
0.00021657060372
0.000205798207629
0.000194676475775
0.000183281435876
0.00017169034935
0.000159982961601
0.000148242563352
0.000136556383677
0.000125014997462
0.000113710993955
0.000102737428464
9.21864781035e-05
8.21482409923e-05
7.27088643339e-05
6.39474439885e-05
5.59322920728e-05
4.87234710638e-05
4.24197373832e-05
3.74299364736e-05
3.53117770506e-05
4.17168095862e-05
9.92570325318e-05
1.92676310073e-05
2.30147058132e-05
2.92690739229e-05
3.77976717409e-05
4.87722708925e-05
6.2537399443e-05
7.9530486135e-05
0.000100274078293
0.00012536642523
0.000155524105136
0.000191618382145
0.000234142724237
0.000283279936104
0.000339293861515
0.00040232055119
0.000472196373744
0.000547648063527
0.000626864287326
0.00070959937945
0.000795002862947
0.00088215521871
0.000970342183408
0.00105840429589
0.00114477781945
0.00122799217251
0.00130707888124
0.00138175353053
0.00145250460939
0.00152072239451
0.00158885883946
0.00166054385417
0.00174043732084
0.00183359634013
0.00194431897656
0.00207489169856
0.00222492167538
0.00239170946527
0.00257139760594
0.00276019225729
0.00295508005644
0.00315397418738
0.00335551120371
0.00355877301145
0.00376306336004
0.00396778629345
0.00417239206278
0.0043763700369
0.00457925015259
0.00478061097019
0.00498007687572
0.00517731517034
0.00537202327978
0.00556392297138
0.00575276746341
0.00593657112525
0.00611327962684
0.00628249959924
0.00644372166222
0.00659642908157
0.00674010740293
0.00687424274945
0.00699831674128
0.00711180879162
0.00721419681451
0.0073049629861
0.00738359630188
0.00744959887964
0.00750248865167
0.00754180535143
0.00756711297961
0.00757800553626
0.00757410973768
0.00755509161348
0.00752066152751
0.00747058517558
0.00740469658875
0.00732292219351
0.00722531398567
0.00711210169812
0.0069837596399
0.00684108620239
0.00668526226332
0.00651783278261
0.00634051616444
0.0061547754506
0.0059611864212
0.00575882243604
0.00554557574025
0.00531898168146
0.0050796394609
0.00482888278334
0.00456717035882
0.00429554614607
0.00401483330318
0.00372599056937
0.00343005732776
0.00312822951247
0.00282185404304
0.00251243117328
0.00220163091946
0.0018913461647
0.00158383143084
0.00128204335503
0.000990244399114
0.00071559127967
0.000474675847175
0.000291514623877
0.000173396986999
0.000111369397288
8.53807388005e-05
7.67075708232e-05
7.42135366411e-05
7.32177229417e-05
7.22515203463e-05
7.09568560718e-05
6.92773268198e-05
6.72290841631e-05
6.48467245109e-05
6.21719283481e-05
5.9250377974e-05
5.61302636547e-05
5.28613465091e-05
4.94935663738e-05
4.6075466271e-05
4.26535858191e-05
3.92726996872e-05
3.59760980959e-05
3.28058816823e-05
2.98031306698e-05
2.70074995741e-05
2.44566014046e-05
2.21862920731e-05
2.02329381075e-05
1.86387663303e-05
1.74686417982e-05
1.68897488064e-05
1.75696914046e-05
2.18202387115e-05
4.1081056592e-05
0.000167176080506
1.69507240934e-05
2.09586017674e-05
2.71940964367e-05
3.55184665475e-05
4.63076557009e-05
6.01177854594e-05
7.75676150905e-05
9.93980049854e-05
0.00012633503734
0.000159194261521
0.000198253302744
0.000243386894967
0.000294522701306
0.000351602815782
0.000414197959334
0.000481522269849
0.000552473258946
0.000625834736029
0.000700405358643
0.000775000535245
0.000848599176208
0.000920383708778
0.000989722098671
0.00105633113326
0.0011207114334
0.00118468560483
0.00125189220928
0.0013279694009
0.00141995878453
0.00153458128289
0.00167595600776
0.00184421942116
0.0020360743555
0.00224661716879
0.00247096979843
0.00270498995708
0.00294535743184
0.00318948677488
0.00343545403288
0.0036819091722
0.00392796107192
0.00417303850068
0.0044167680574
0.00465887615659
0.00489913036498
0.00513730347473
0.0053731627649
0.00560646506601
0.0058369613492
0.00606439492495
0.00628850006495
0.00650899124757
0.00672556576246
0.00693772840056
0.00714229698949
0.00733893208509
0.00752717311785
0.00770651177445
0.00787643167295
0.00803641502996
0.00818594355871
0.00832449487202
0.00845154453164
0.00856656654514
0.00866903898203
0.00875844711921
0.00883429053661
0.0088960872275
0.00894338113033
0.0089757466893
0.00899279680907
0.00899418829217
0.00897963116542
0.00894889649225
0.00890182919559
0.00883836085356
0.00875852864082
0.00866249435384
0.00855056635075
0.00842321165899
0.0082810491508
0.00812479595574
0.00795514959531
0.0077726020056
0.00757725436849
0.00736876482683
0.00714656179526
0.00691022745121
0.00665973804585
0.00639550084107
0.00611755398317
0.00582745628668
0.00552764940655
0.00521852388043
0.00490111731126
0.00457619052945
0.00424464743964
0.00390746304256
0.00356573662404
0.00322071485904
0.00287382982819
0.00252674382852
0.00218138692155
0.00183996546601
0.00150498724156
0.00117921613498
0.000865503613645
0.000582125313454
0.000348873884237
0.000182111880525
8.47823578635e-05
4.02127358391e-05
2.43647866427e-05
1.9950386064e-05
1.89807123384e-05
1.87818870967e-05
1.86420817023e-05
1.840490844e-05
1.80489253934e-05
1.75831256248e-05
1.70236509209e-05
1.63888928454e-05
1.56979699519e-05
1.4969702613e-05
1.42220565881e-05
1.34719811026e-05
1.27354474239e-05
1.20277300457e-05
1.1363749153e-05
1.07583075645e-05
1.02266853016e-05
9.78654271844e-06
9.46246896382e-06
9.29582656517e-06
9.37185821069e-06
9.93705283416e-06
1.19608393505e-05
1.88056372999e-05
5.02882142244e-05
0.000249541461716
1.77671747167e-05
2.23883810802e-05
2.9324946053e-05
3.85188996167e-05
5.04562824232e-05
6.57320782063e-05
8.49657306872e-05
0.00010874167945
0.000137512431708
0.000171365348934
0.000210539836157
0.000254982429468
0.000304411479319
0.000358329936001
0.000416023390706
0.000476562823921
0.000538870208885
0.000601816904318
0.000664366251891
0.000725740667643
0.000785652428281
0.000844625597998
0.000904493478264
0.000969060253367
0.00104459226101
0.00113933691951
0.00126145120298
0.00141602565601
0.00160330018496
0.0018193877692
0.00205847516867
0.00231466615988
0.00258288060928
0.00285912052855
0.00314041903301
0.00342462212706
0.00371015278103
0.00399583135218
0.00428077002117
0.00456430001334
0.0048459193155
0.00512524209386
0.00540196154863
0.00567581632046
0.00594657147768
0.00621400178602
0.0064778864831
0.00673800265635
0.0069941257531
0.0072460247675
0.00749346221585
0.00773619194574
0.00797397113502
0.00820422468744
0.00842622957041
0.00863942807544
0.00884330888321
0.00903736710144
0.0092210984829
0.00939399454297
0.00955554273667
0.00970522410691
0.00984251651463
0.00996689586429
0.010077842267
0.010174843648
0.0102574034055
0.0103250451352
0.0103773209087
0.0104138165855
0.0104341605337
0.0104380296096
0.0104251586372
0.0103953474651
0.0103484715295
0.0102844897629
0.0102034546938
0.0101055169329
0.00999092574755
0.00986001380623
0.00971316339892
0.00955074223949
0.00937301832754
0.00918007649412
0.00897179921253
0.00874796884786
0.00850849094082
0.00825360849907
0.00798396123145
0.00770043623916
0.00740391054579
0.00709516544747
0.00677445147609
0.0064423613776
0.00610184969995
0.00575303542723
0.0053969540096
0.00503443691514
0.00466645902055
0.00429407358282
0.00391843024572
0.00354077972067
0.00316247442944
0.00278498131471
0.00240991189302
0.00203903790406
0.00167426363839
0.00131727270476
0.000978132536374
0.000671758631977
0.000411932579204
0.000216535769265
9.58151173945e-05
3.79326507487e-05
1.66488721367e-05
1.04659558734e-05
8.96813792649e-06
8.63840828609e-06
8.54239331041e-06
8.468993841e-06
8.3781812257e-06
8.26623805141e-06
8.13658779301e-06
7.99393873876e-06
7.84313836714e-06
7.68894434982e-06
7.53602140167e-06
7.3891080853e-06
7.25330835062e-06
7.13456755143e-06
7.04073311394e-06
6.98400775204e-06
6.98638638118e-06
7.09205983846e-06
7.40407771551e-06
8.25167796926e-06
1.09488159618e-05
2.00236229319e-05
6.50220491812e-05
0.000339672174905
1.97123252762e-05
2.50373882021e-05
3.2810954185e-05
4.30082744406e-05
5.61100493204e-05
7.2607464447e-05
9.29215584987e-05
0.000117311173447
0.00014591183573
0.000178890233507
0.00021614864797
0.000257394788937
0.000302166733662
0.000349846007732
0.000399689694026
0.000450885703476
0.000502665593785
0.00055449599234
0.000606407426023
0.000659517167047
0.000716783333641
0.000783791463673
0.000868910882705
0.000981809711613
0.00113021842284
0.00131688983726
0.00153921188229
0.00179132375522
0.00206654255838
0.00235878781883
0.00266310975267
0.0029757043208
0.00329371942264
0.00361502470842
0.00393801885162
0.00426146936964
0.00458439914117
0.00490600850459
0.00522563351961
0.00554271481635
0.00585677924902
0.00616741942614
0.00647428207292
0.00677705330716
0.00707545185965
0.00736921807202
0.0076581095702
0.00794189159209
0.00822033234313
0.00849319162691
0.00876021387067
0.00902111582008
0.00927557379665
0.00952106447752
0.00975719942049
0.0099835360181
0.0101996161556
0.0104049699357
0.0105991188299
0.0107815735337
0.0109518362057
0.0111093996879
0.0112537519682
0.011384378107
0.0115007669318
0.0116024149061
0.0116888340762
0.0117595569348
0.0118141448873
0.0118521935581
0.0118733414227
0.0118772752935
0.0118637388867
0.0118325380964
0.0117835487384
0.0117167200636
0.0116320787958
0.0115297259211
0.0114098293007
0.0112726032605
0.011118278625
0.0109470596131
0.0107590836926
0.0105544015267
0.0103330111788
0.0100949561552
0.00984046402754
0.00957004684704
0.00928449891471
0.00898478679685
0.00867190364904
0.00834674147069
0.00800999000948
0.00766216880789
0.00730356914842
0.00693405125105
0.00655708154119
0.00617273822309
0.00578209165701
0.00538607558879
0.00498569586265
0.00458200444083
0.00417610164773
0.00376915714179
0.00336242371712
0.00295724284282
0.00255502008477
0.0021571289123
0.00176488531479
0.00138483925958
0.00103026470188
0.000710240052248
0.000437610481514
0.000229884955368
9.98360485326e-05
3.75634182129e-05
1.50929948138e-05
8.72096604979e-06
7.19347242758e-06
6.85159116098e-06
6.75869879135e-06
6.70966634883e-06
6.66549705842e-06
6.62053534464e-06
6.57503386929e-06
6.53015325956e-06
6.48725388642e-06
6.44799095931e-06
6.41465570562e-06
6.39083349288e-06
6.38278253441e-06
6.40241477539e-06
6.47385540101e-06
6.64900498029e-06
7.05753347899e-06
8.14657427566e-06
1.16494058366e-05
2.32998500951e-05
8.34001067302e-05
0.00043500561068
2.20798517071e-05
2.79915790039e-05
3.64067925352e-05
4.72547746677e-05
6.09220692837e-05
7.7703545679e-05
9.77955783894e-05
0.000121346408867
0.000148383023291
0.00017875655327
0.000212186850084
0.000248281658037
0.000286561561375
0.000326509990821
0.000367671406693
0.000409835734369
0.000453391624981
0.000499940502252
0.000553209552116
0.000619963835921
0.000709979396634
0.00083385924131
0.000999038949064
0.00120688462347
0.00145328719402
0.00173145830996
0.0020343381734
0.00235576864612
0.00269080689664
0.00303561901745
0.00338725575006
0.0037434289308
0.00410233453583
0.00446251662119
0.00482277505501
0.00518209560947
0.00553960765245
0.00589455286617
0.00624627072028
0.00659418300735
0.00693778640915
0.0072766398741
0.00761035904675
0.00793860523903
0.00826108088492
0.00857751877633
0.00888767684175
0.00919132598693
0.00948824251975
0.00977819406797
0.0100609342441
0.0103362062617
0.0106032970781
0.0108604591816
0.0111073224476
0.0113434914248
0.0115685484584
0.0117820568691
0.01198356581
0.0121726093041
0.01234870969
0.012511377696
0.0126601176318
0.0127944296457
0.0129138166824
0.013017788349
0.0131058688943
0.0131776019148
0.0132325587037
0.0132703432216
0.0132906003418
0.0132930206035
0.0132773478162
0.0132433828335
0.0131909893823
0.0131200950843
0.013030692859
0.0129228354587
0.0127966277704
0.0126522101909
0.0124897395984
0.0123093663333
0.0121112215713
0.0118954224628
0.0116621113773
0.0114115225461
0.0111440580117
0.0108603294294
0.0105611421245
0.0102474222242
0.00992012362426
0.0095801441701
0.00922827745816
0.00886519871332
0.00849145126222
0.00810745899739
0.00771366976345
0.0073096140297
0.00689897156484
0.00648194957323
0.00605959017152
0.00563287308669
0.00520278517249
0.00477035962871
0.00433667227054
0.00390285549051
0.0034700854601
0.00303955451894
0.00261242524193
0.00218976788916
0.00177653361674
0.00138462814678
0.0010211826474
0.000695734061344
0.000421317263002
0.000215260863105
8.9767386184e-05
3.2509121221e-05
1.3106341215e-05
7.93096650444e-06
6.74832118624e-06
6.48932980577e-06
6.41697428437e-06
6.3787376157e-06
6.34725431815e-06
6.31875259949e-06
6.29342888263e-06
6.27232638447e-06
6.25730029147e-06
6.25182462488e-06
6.26274581047e-06
6.30401363334e-06
6.40494064713e-06
6.63050875726e-06
7.15185098555e-06
8.58744398198e-06
1.3154827245e-05
2.77990948865e-05
0.000104577523276
0.000534361812149
2.44376720839e-05
3.06956421699e-05
3.93607557356e-05
5.02930199464e-05
6.37456121134e-05
7.99143444956e-05
9.88724424134e-05
0.000120556367777
0.000144790871531
0.000171310536433
0.000199793851983
0.000229908340229
0.000261398145823
0.000294253161935
0.000329047652105
0.000367566874151
0.000413806553815
0.000475078072713
0.000562153168334
0.000686871416678
0.000857463089283
0.00107521924771
0.00133544137745
0.00163077662856
0.0019538064167
0.00229815655298
0.00265870683015
0.00303142699267
0.00341313609
0.00380128092031
0.00419377018435
0.00458885157338
0.00498503155486
0.00538101581387
0.00577567340611
0.00616800689874
0.00655713733485
0.00694228878133
0.00732278240988
0.00769802498085
0.0080675037843
0.0084307748217
0.00878745766295
0.00913722384927
0.00947979185571
0.00981491529556
0.0101423770218
0.0104619761179
0.0107735203719
0.0110768128303
0.0113716471873
0.0116578046007
0.011933962812
0.0121995395653
0.0124540857646
0.012697192876
0.0129284585093
0.0131474705655
0.0133538046273
0.0135470203234
0.0137266641731
0.0138922695355
0.0140433619362
0.0141794612621
0.0143000887002
0.0144047703784
0.0144930451891
0.0145644691715
0.0146186236103
0.0146551195758
0.0146736057655
0.0146737726241
0.0146553592776
0.0146181563834
0.0145620110397
0.0144868268504
0.0143925648648
0.0142792385711
0.0141469086667
0.0139956718731
0.0138256512986
0.0136369861533
0.0134298321106
0.013204372907
0.0129608514645
0.012699610175
0.0124211304233
0.0121260471688
0.0118151317569
0.0114892431734
0.0111492696503
0.0107960756191
0.0104304692257
0.010053187071
0.00966489455907
0.00926619469288
0.00885762357381
0.00843962000197
0.0080127233867
0.0075765167669
0.00713439716839
0.00668693542241
0.00623509924832
0.00577989545464
0.00532231053738
0.00486337675333
0.00440415144894
0.00394571364701
0.00348913805491
0.00303544990576
0.00258553538211
0.00214400570768
0.00172132683394
0.00132339862033
0.000957963029625
0.000635399403141
0.000369632354603
0.000178096288922
6.9383168595e-05
2.43717611398e-05
1.06096030752e-05
7.24532234243e-06
6.52334162028e-06
6.36642572734e-06
6.31662312173e-06
6.28662495049e-06
6.26256617536e-06
6.24362532706e-06
6.23172730068e-06
6.23095299311e-06
6.24955376616e-06
6.30465983634e-06
6.43287385445e-06
6.71746356447e-06
7.38962975707e-06
9.3026420121e-06
1.51861842272e-05
3.31965587369e-05
0.000128149021223
0.000636965755093
2.63767653336e-05
3.26989602176e-05
4.12400487555e-05
5.1802691017e-05
6.4550201743e-05
7.95208654477e-05
9.66254960794e-05
0.000115675467192
0.000136420337378
0.000158597713256
0.000182012334665
0.000206677125704
0.000233097376159
0.000262831033978
0.000299484427835
0.000350062469019
0.000425754607708
0.000540126818803
0.000703879181418
0.000919971148189
0.00118393195239
0.00148786432234
0.00182372605131
0.00218465465121
0.00256515501332
0.00296087724263
0.00336833601053
0.00378467091945
0.00420747659563
0.00463468232063
0.00506447733081
0.00549525766324
0.00592559660482
0.00635421984113
0.0067799934835
0.00720190942918
0.00761907979964
0.00803072576213
0.0084361734004
0.00883484198683
0.00922623853813
0.00960994480024
0.0099856111229
0.0103529433204
0.0107116965039
0.0110616618554
0.0114026597944
0.0117345258181
0.0120571022091
0.0123702231839
0.0126737076034
0.0129673488501
0.0132500914952
0.013521514992
0.0137812319493
0.0140288698983
0.0142640580871
0.0144864153661
0.0146955477904
0.0148910445339
0.0150724805105
0.0152394160367
0.0153914020154
0.0155279818194
0.0156486980056
0.0157530955719
0.0158407295013
0.015911168733
0.0159640039619
0.0159988517522
0.0160153620506
0.0160132218472
0.0159921617491
0.0159519583923
0.015892439125
0.0158134820267
0.0157150174383
0.0155970243983
0.0154595283377
0.0153025945152
0.0151263247537
0.0149308540702
0.0147163561124
0.014483054234
0.0142312434912
0.0139613134968
0.0136737683038
0.0133692287551
0.0130484174815
0.0127121256375
0.0123611756224
0.0119963861752
0.0116185503072
0.011228423592
0.0108267230279
0.0104141282307
0.00999128320636
0.00955879771093
0.00911723772766
0.00866708450188
0.00820890518498
0.00774243700439
0.00727073821672
0.00679474846361
0.00631538434135
0.00583367820664
0.00535062449461
0.00486724643478
0.00438456482917
0.00390357949495
0.00342522009143
0.00295024777307
0.00248376279031
0.00203463487461
0.00160797772237
0.00121035573666
0.000850426325013
0.000539777058894
0.000293662495644
0.000128965142895
4.60754512813e-05
1.64080933681e-05
8.47530624118e-06
6.72540947621e-06
6.37236514716e-06
6.29142068853e-06
6.25951192205e-06
6.23939754007e-06
6.22798819494e-06
6.2296058939e-06
6.25426889606e-06
6.3230647873e-06
6.48173779277e-06
6.83760733204e-06
7.70563850775e-06
1.02430453702e-05
1.76683986624e-05
3.93674726413e-05
0.000153890705821
0.000742144026897
2.77811694242e-05
3.39814209922e-05
4.21613780193e-05
5.20456774675e-05
6.36901655741e-05
7.70222468931e-05
9.18606926646e-05
0.000107968311712
0.000125124432341
0.000143237935557
0.00016255840487
0.000184100945693
0.000210486804027
0.000247364982286
0.000305026458091
0.000398293361514
0.000541961605452
0.000743459381086
0.00100021287743
0.00130385041085
0.00164515153968
0.00201624358415
0.00241092830474
0.0028243722877
0.0032527246775
0.00369281039627
0.00414192458017
0.00459769696121
0.00505801326925
0.00552096389185
0.00598481884145
0.00644800825269
0.00690911575104
0.00736686803702
0.00782013238935
0.00826790706246
0.00870931844884
0.00914361009884
0.00957013816653
0.00998835827235
0.0103978190147
0.0107981474217
0.0111890417399
0.0115702568244
0.0119415970197
0.0123029018153
0.0126540385476
0.0129948878504
0.0133253357594
0.013645259448
0.0139545211122
0.0142529595157
0.0145398610295
0.0148148507432
0.0150775845295
0.0153277286249
0.015564948903
0.0157888998299
0.0159992223326
0.0161955394673
0.0163774588026
0.0165445716476
0.0166964579022
0.0168326874506
0.0169528265015
0.0170564403439
0.0171431005293
0.0172123883793
0.0172639024737
0.0172972623679
0.0173121158663
0.0173081423803
0.0172850593848
0.0172426247239
0.0171806414927
0.0170989584785
0.0169974727112
0.016876127533
0.0167349128938
0.0165738621914
0.0163930529974
0.0161926071578
0.0159726977272
0.0157335576856
0.0154754949183
0.0151989045202
0.0149042784491
0.0145922027119
0.0142633452602
0.0139184326112
0.0135582253441
0.0131834943084
0.0127950054026
0.0123935100073
0.0119797428519
0.0115544214883
0.0111182474042
0.0106719043262
0.010216054476
0.00975133397531
0.00927834238429
0.00879760423588
0.00830971467115
0.00781453473696
0.00731495499885
0.00681215357005
0.00630704478785
0.00580067412352
0.0052940383588
0.00478813069041
0.00428390391357
0.00378222377794
0.00328377605639
0.0027947369305
0.00232220545216
0.00187074842361
0.00144613011798
0.00105583867127
0.000709795263813
0.000421210519965
0.0002068900196
8.00374680086e-05
2.66397968778e-05
1.07840097966e-05
7.13758544726e-06
6.4147689031e-06
6.27398893653e-06
6.23766960431e-06
6.22461673922e-06
6.22811068635e-06
6.258767366e-06
6.34222889592e-06
6.535407074e-06
6.97692249436e-06
8.09652447271e-06
1.14249114476e-05
2.05901118149e-05
4.62661625468e-05
0.000181653499394
0.000849252634732
2.87450692637e-05
3.4670302305e-05
4.22875053083e-05
5.12607756561e-05
6.15654996554e-05
7.30616654449e-05
8.55350156766e-05
9.8786639869e-05
0.000112778043675
0.000127905363698
0.000145569172944
0.00016931457764
0.000206742170916
0.000271409838115
0.000381571852921
0.000552532993738
0.000787969460814
0.00108053681379
0.00141915251756
0.00179388094072
0.00219708010088
0.00262303718786
0.00306737202984
0.00352656036374
0.00399762460554
0.0044779433964
0.0049651478539
0.00545706174319
0.00595167664509
0.00644713675327
0.0069417382956
0.00743392534222
0.00792229319338
0.00840558342979
0.00888268478273
0.00935262449107
0.00981456570584
0.0102677954016
0.0107117188504
0.0111458449278
0.0115697786185
0.0119832051005
0.0123858816924
0.0127776221068
0.0131582887528
0.0135277777119
0.0138860114399
0.0142329243149
0.0145684555296
0.0148925356224
0.0152050814306
0.0155059881677
0.0157948872773
0.0160714310143
0.0163353108149
0.0165862314662
0.0168238985135
0.017048006234
0.0172582349574
0.0174542461132
0.0176356841432
0.0178021751109
0.0179533310545
0.0180887507509
0.0182080255676
0.0183107416283
0.0183964865719
0.0184648525635
0.0185154434705
0.018547878217
0.0185617978981
0.0185568689571
0.0185327897033
0.0184892927316
0.0184261502538
0.0183431751947
0.0182402249005
0.0181172007622
0.0179740506567
0.0178107682206
0.0176273960671
0.0174240275992
0.0172008141068
0.0169579712153
0.0166957891991
0.0164146392491
0.0161149780286
0.0157973430464
0.0154623432975
0.0151106423547
0.0147429418206
0.0143599644546
0.0139624433107
0.0135511137247
0.0131267108189
0.0126899676424
0.0122416152458
0.011782380869
0.0113129857912
0.0108341405891
0.010346539277
0.00985085315125
0.00934772193905
0.00883771896179
0.00832148088563
0.00779896373202
0.00727306836114
0.00674506289762
0.00621590098499
0.00568661798162
0.00515819393251
0.0046315579782
0.00410754171295
0.00358679850316
0.00307702522717
0.0025833365933
0.00210990259802
0.00166193064899
0.00124611031556
0.000871176833359
0.000548774569357
0.000294181594188
0.000124733022043
4.19609899845e-05
1.44439086887e-05
7.80628069528e-06
6.49582134377e-06
6.26172377974e-06
6.22029971585e-06
6.22236415276e-06
6.25888354171e-06
6.35815742994e-06
6.59045864154e-06
7.13533834944e-06
8.57786757226e-06
1.28839905742e-05
2.39582026344e-05
5.38800802063e-05
0.000211320739599
0.000957660654122
2.9301031956e-05
3.48442711192e-05
4.17772990529e-05
4.97240106016e-05
5.86095192219e-05
6.82692472196e-05
7.852121747e-05
8.93251474972e-05
0.000101095276305
0.000115371199677
0.000136223328026
0.000172707788474
0.000241353926601
0.000364130793907
0.00055757858641
0.000822338921011
0.00114683253388
0.00151744057098
0.00192337734389
0.00235698426368
0.00281281475897
0.00328678226239
0.00377559607286
0.00427642417749
0.00478671281224
0.0053040909752
0.00582633254623
0.00635133993114
0.00687714816137
0.00740192775111
0.00792399587149
0.00844181867424
0.00895401874414
0.0094593716194
0.0099568074366
0.0104454016537
0.010924371859
0.0113930642696
0.0118509472418
0.0122975951861
0.0127326802797
0.013155955438
0.0135672456901
0.0139664315986
0.014353441277
0.0147282349818
0.0150907980403
0.0154411266361
0.0157792214326
0.0161050746285
0.0164186654186
0.0167199517759
0.0170089019005
0.0172851962984
0.0175485635834
0.0177987503581
0.0180355062158
0.0182585700783
0.018467666516
0.0186624998891
0.0188427555865
0.0190080978562
0.0191581735277
0.0192926120297
0.0194110306622
0.0195130360984
0.0195982306741
0.0196662148745
0.0197165942054
0.0197489822138
0.0197630075101
0.0197583168613
0.0197345819023
0.0196915018191
0.0196288092865
0.0195462723373
0.0194436992618
0.019320939652
0.0191778886268
0.0190144879107
0.0188307307253
0.0186266645487
0.0184023980881
0.0181581061295
0.0178940370824
0.017610516034
0.0173079470235
0.0169868082045
0.0166476448901
0.0162910570465
0.0159176878816
0.0155282113994
0.0151233243966
0.0147037395538
0.0142701827248
0.0138233901984
0.0133641079892
0.0128930895582
0.0124110939797
0.0119188821722
0.0114172130499
0.0109068379477
0.0103884945651
0.00986290055506
0.00933074598466
0.00879266048888
0.00824933599172
0.00770079029636
0.00715011579728
0.0065985015106
0.00604697268354
0.00549652277247
0.0049480956413
0.00440254173561
0.00386068381012
0.00333152402888
0.00281830090864
0.00232494485352
0.0018562925491
0.00141845639521
0.00101932952036
0.000669326667862
0.000382375446328
0.000175945811209
6.18981215935e-05
1.94867754923e-05
8.72558366641e-06
6.61073915402e-06
6.25659186114e-06
6.21604400064e-06
6.2535849348e-06
6.36941679318e-06
6.64618359188e-06
7.31704814786e-06
9.17428482772e-06
1.46621234642e-05
2.77842998892e-05
6.22132407548e-05
0.000242790579369
0.00106674023322
2.94968201167e-05
3.45970074374e-05
4.07955705187e-05
4.76957835517e-05
5.52004447955e-05
6.31638876334e-05
7.15179894185e-05
8.05765691256e-05
9.17245934602e-05
0.000108959384112
0.000141850575302
0.000209100653154
0.000337003517839
0.000545624510915
0.000834368346597
0.00118750778866
0.00158823795698
0.0020243068892
0.00248762424521
0.00297275820847
0.00347578434348
0.00399358142224
0.00452344709115
0.00506289709876
0.00560957773222
0.00616123020934
0.00671569150775
0.00727090187523