/*--------------------------------*- C++ -*----------------------------------*\
| =========                 |                                                 |
| \\      /  F ield         | OpenFOAM: The Open Source CFD Toolbox           |
|  \\    /   O peration     | Version:  2206                                  |
|   \\  /    A nd           | Website:  www.openfoam.com                      |
|    \\/     M anipulation  |                                                 |
\*---------------------------------------------------------------------------*/
FoamFile
{
    version     2.0;
    format      ascii;
    arch        "LSB;label=64;scalar=64";
    class       volScalarField;
    location    "1.5/water";
    object      km;
}
// * * * * * * * * * * * * * * * * * * * * * * * * * * * * * * * * * * * * * //

dimensions      [0 2 -2 0 0 0 0];

internalField   nonuniform List<scalar> 
23300
(
6.4928231394e-06
7.89496653001e-06
1.02309128418e-05
1.31516637612e-05
1.64323839774e-05
1.99350382818e-05
2.35728615181e-05
2.72915069236e-05
3.10604352025e-05
3.48681242464e-05
3.87194824817e-05
4.26247705451e-05
4.67206754048e-05
5.11606053336e-05
5.60855587044e-05
6.16079307999e-05
6.77912677365e-05
7.46539135888e-05
8.2221087131e-05
9.06294019048e-05
0.000100281186732
0.000111930544389
0.000125864924152
0.000141621915503
0.000158511711715
0.000175987389429
0.000193700702571
0.000211422791123
0.00022898829671
0.000246269035742
0.000263165504833
0.000279599985649
0.00029551377054
0.000310861593713
0.00032561058499
0.000339737272624
0.000353229722696
0.000366086891572
0.000378321852973
0.000389960759534
0.000401044643988
0.000411626401914
0.00042177054553
0.000431548674742
0.000441038280551
0.000450317901195
0.000459465534113
0.000468553286995
0.000477644838847
0.000486789491384
0.000496019597724
0.000505345843535
0.000514756364153
0.000524213199662
0.000533650049727
0.000542964232765
0.000552018786049
0.000560642947308
0.000568702076612
0.000576083997591
0.000582694617165
0.000588453940493
0.000593294946088
0.000597160669763
0.0006000034568
0.000601782594996
0.000602464069975
0.000602018822694
0.000600422952521
0.000597656461887
0.000593703754531
0.000588552737395
0.000582195546592
0.000574628060003
0.000565851111408
0.000555871043328
0.000544702605871
0.00053237253644
0.000518926822756
0.000504439628858
0.000489023317951
0.000472829666269
0.000456029043627
0.000438753398585
0.00042100626956
0.000402513495369
0.000382869043269
0.000361439276888
0.000338297523234
0.000313996464653
0.000289300005565
0.000264918962518
0.000241374052766
0.000219018803403
0.000198154902117
0.00017912739724
0.000162352464464
0.000148275524353
0.000137272622421
0.000129514395813
0.000124830847455
0.000122614987844
0.0001217730737
0.000121407975303
0.000120906683282
0.000119994483948
0.000118633300257
0.000116876556771
0.000114786344397
0.000112409350474
0.000109778309442
0.00010691788808
0.000103849337288
0.000100593204167
9.71706139245e-05
9.3603204415e-05
8.99123326226e-05
8.61179545984e-05
8.22378817523e-05
7.82875910811e-05
7.42806946222e-05
7.02297076529e-05
6.61469345739e-05
6.20451455334e-05
5.79379211753e-05
5.38394887929e-05
4.97641686218e-05
4.57255587325e-05
4.1735717209e-05
3.7804582392e-05
3.39398601335e-05
3.0147141934e-05
2.64295493335e-05
2.27867639337e-05
1.92156835487e-05
1.57202415741e-05
1.23514749294e-05
9.32674059469e-06
7.21731599703e-06
6.80178470209e-06
3.48464750535e-06
3.95523165771e-06
4.82824516458e-06
6.04554247159e-06
7.57789179931e-06
9.42099099401e-06
1.15878891259e-05
1.41045063344e-05
1.70080225289e-05
2.03475151963e-05
2.41832618078e-05
2.86292239195e-05
3.37423503159e-05
3.95585744164e-05
4.61030112515e-05
5.33655632646e-05
6.13020140206e-05
6.98683614537e-05
7.90639914963e-05
8.89438006877e-05
9.94322278003e-05
0.000110697003071
0.000122680120798
0.000135074864453
0.000147537040513
0.000159802043443
0.000171693132786
0.000183096489559
0.000193945026774
0.00020421102171
0.000213905120386
0.000223076135614
0.00023181346342
0.000240249373203
0.000248562775249
0.000256977856192
0.00026575473625
0.000275166013801
0.000285463550054
0.000296840023095
0.000309398538386
0.0003231383045
0.00033796388672
0.000353711975215
0.000370187519941
0.000387195480771
0.000404563177486
0.000422149559979
0.000439846085869
0.000457571173318
0.000475263769842
0.00049287615158
0.000510368308158
0.000527701995608
0.000544837398329
0.000561545613194
0.000577588129232
0.000592878200643
0.000607349964829
0.000620942226347
0.000633594554931
0.000645246445954
0.000655838086914
0.000665310536126
0.000673606443532
0.000680670041032
0.000686447666138
0.000690887632791
0.000693940631247
0.000695559510435
0.000695699560969
0.000694318210545
0.000691375230146
0.000686832473783
0.000680654333745
0.00067280820229
0.000663266472284
0.000652010026056
0.000639035613515
0.000624368158397
0.000608080907577
0.000590322671391
0.000571347469228
0.000551529208772
0.000531330226584
0.000511148391203
0.000490876117291
0.000469996621735
0.00044814227173
0.00042504681464
0.000400685650221
0.000375117943985
0.000348447194742
0.000320784915637
0.000292259043392
0.000263023876199
0.00023327444651
0.000203267514492
0.000173358856401
0.000144065429288
0.000116152861966
9.07159305957e-05
6.92052581541e-05
5.28710439544e-05
4.22884537671e-05
3.64691234247e-05
3.37944867197e-05
3.27283299497e-05
3.22330693825e-05
3.18212532343e-05
3.13357822017e-05
3.07445825775e-05
3.00490043636e-05
2.92567696045e-05
2.83761614831e-05
2.74152800155e-05
2.638217956e-05
2.52850227982e-05
2.41321151178e-05
2.29318527314e-05
2.16926635283e-05
2.04230176938e-05
1.91315229968e-05
1.7827064099e-05
1.65189208244e-05
1.52168119974e-05
1.39308294842e-05
1.26712899186e-05
1.14485622744e-05
1.02729181855e-05
9.15439824033e-06
8.10260349226e-06
7.12635018288e-06
6.23325439477e-06
5.4300159761e-06
4.72765489399e-06
4.17177384697e-06
3.93603755216e-06
4.64966116381e-06
1.10598970551e-05
2.14830564408e-06
2.56594591821e-06
3.26308287946e-06
4.21371995143e-06
5.43698702494e-06
6.97127325745e-06
8.86532283875e-06
1.11773651359e-05
1.39740625497e-05
1.73352550881e-05
2.13580077385e-05
2.60973020028e-05
3.15734914073e-05
3.78159483125e-05
4.48397831198e-05
5.26266885956e-05
6.10346794129e-05
6.98618079176e-05
7.90806124478e-05
8.85962852677e-05
9.83063952897e-05
0.000108131448835
0.000117942365607
0.000127564992002
0.000136835525067
0.00014564609795
0.000153965064506
0.00016184690323
0.000169446579903
0.000177037363436
0.000185023780417
0.00019392512255
0.000204304938445
0.00021664219505
0.000231191707353
0.000247909733342
0.000266495493756
0.000286519150343
0.000307557929418
0.000329276003359
0.000351440773615
0.000373900238956
0.000396552024061
0.00041931848036
0.000442133145658
0.000464934718366
0.000487666266648
0.000510275388074
0.000532715105069
0.000554943551214
0.000576923645389
0.000598621665354
0.000620006602397
0.000641050954732
0.000661533415197
0.000681225084293
0.000700082214114
0.000718048105251
0.000735065213203
0.000751076234567
0.000766023923653
0.000779850529492
0.000792498053063
0.000803908326797
0.000814023656724
0.00082278710754
0.000830143204868
0.000836038235262
0.000840420913177
0.00084324265575
0.000844458221374
0.000844026012423
0.00084190881014
0.000838074334072
0.000832496467198
0.000825156704647
0.000816046834012
0.000805172631023
0.000792559670669
0.000778260772093
0.000762364852597
0.000745003427731
0.000726348550079
0.000706591559004
0.000685895309601
0.000664323814501
0.000641773817176
0.000618010636225
0.000592759881287
0.000566088512394
0.000538145227976
0.000508981169327
0.000478712641717
0.000447431327092
0.000415244004171
0.000382266439098
0.000348631843856
0.000314490256876
0.000280008803245
0.000245373519638
0.000210795261653
0.000176525152663
0.000142892511335
0.000110372168866
7.97614221243e-05
5.29093679246e-05
3.24932393819e-05
1.93265343914e-05
1.24121415176e-05
9.51515914531e-06
8.54835248873e-06
8.27032709063e-06
8.15932027165e-06
8.05163422393e-06
7.90735497982e-06
7.7201935432e-06
7.49194818222e-06
7.22647312785e-06
6.92841225677e-06
6.60285554517e-06
6.25517256716e-06
5.89090804612e-06
5.51562669433e-06
5.13473761225e-06
4.75342668346e-06
4.37668317297e-06
4.00933103043e-06
3.65606180313e-06
3.32145354306e-06
3.00992568602e-06
2.72567045229e-06
2.47268458378e-06
2.25502223606e-06
2.07739167797e-06
1.94702659735e-06
1.88257180595e-06
1.95846850722e-06
2.43231328669e-06
4.57801687698e-06
1.86264273884e-05
1.88985410935e-06
2.3365789746e-06
3.0316071584e-06
3.95945569899e-06
5.16201558947e-06
6.70125942388e-06
8.64613737464e-06
1.10792025758e-05
1.40813542928e-05
1.77434557242e-05
2.20964347597e-05
2.71262880442e-05
3.28249187072e-05
3.91858393371e-05
4.61611742059e-05
5.36633112514e-05
6.15693578514e-05
6.97437627679e-05
7.80526468971e-05
8.6364018256e-05
9.45641246877e-05
0.000102561907894
0.000110286992634
0.000117707877614
0.000124880410366
0.000132007756493
0.000139495443926
0.0001479718241
0.000158221641084
0.00017099390854
0.000186747716623
0.000205498348886
0.000226878438396
0.00025034155553
0.00027534407165
0.000301424310815
0.000328212182865
0.000355419468581
0.000382831664911
0.000410298232343
0.000437719782968
0.000465032590886
0.000492194991862
0.000519176461049
0.000545951074517
0.000572493503291
0.00059877781378
0.000624776914763
0.000650463066219
0.000675807676482
0.000700781147271
0.000725351674258
0.000749485539049
0.000773127567556
0.000795923184159
0.000817834629547
0.000838810630804
0.00085879458121
0.000877728965588
0.000895556106035
0.000912218264583
0.000927657243836
0.000941814616225
0.000954631779731
0.000966050583909
0.000976013680386
0.000984465313541
0.000991351778432
0.000996622260025
0.00100022934127
0.00100212988944
0.00100228566188
0.00100066434519
0.00099724042556
0.000991996617523
0.000984925289512
0.000976030574222
0.000965330488192
0.000952859376019
0.000938669258858
0.000922829073164
0.000905418698757
0.00088651582485
0.000866175228199
0.000844408145051
0.000821176457305
0.000796416477362
0.000770081676047
0.000742169448159
0.000712725202502
0.000681753200015
0.000649427136361
0.000616019039107
0.000581572405546
0.000546202824075
0.000509995045032
0.000473049755842
0.00043547556802
0.000397394939528
0.000358946747936
0.00032029052701
0.000281611460191
0.000243124565741
0.000205075648546
0.000167744091799
0.000131437795052
9.64743113271e-05
6.48901165052e-05
3.88911819147e-05
2.03019370627e-05
9.45159737696e-06
4.4826559883e-06
2.71578705729e-06
2.2236333168e-06
2.11552032646e-06
2.09335024995e-06
2.07776672469e-06
2.0513348502e-06
2.01166354365e-06
1.95975462911e-06
1.89740687087e-06
1.82666983166e-06
1.74967411936e-06
1.66851711305e-06
1.58520094074e-06
1.50161443997e-06
1.41953747321e-06
1.34067228563e-06
1.26668169228e-06
1.19921550225e-06
1.13997679926e-06
1.0909340935e-06
1.05482842376e-06
1.03627103809e-06
1.04476598512e-06
1.10779697685e-06
1.33344104517e-06
2.09625270385e-06
5.60364421122e-06
2.78027539598e-05
1.98075824491e-06
2.4958354393e-06
3.26897950912e-06
4.29371091025e-06
5.62419033037e-06
7.32671780495e-06
9.47031476097e-06
1.21200963567e-05
1.53264728263e-05
1.90991688953e-05
2.34648353518e-05
2.84174871508e-05
3.39257120806e-05
3.99340956004e-05
4.6363004113e-05
5.31088934253e-05
6.00516217143e-05
6.70654163368e-05
7.40347658331e-05
8.08730407346e-05
8.75482117104e-05
9.41187242112e-05
0.000100788932912
0.00010798283276
0.000116398802669
0.000126955996499
0.00014056350352
0.00015778871362
0.000178658468951
0.00020273967469
0.000229384513984
0.000257935854744
0.000287827459999
0.000318613661095
0.00034996369135
0.000381637384288
0.000413458891402
0.00044529667258
0.000477051730681
0.000508649497865
0.000540034005853
0.000571162246177
0.000602000028352
0.000632518234046
0.000662690696365
0.000692492333504
0.000721898564766
0.0007508845711
0.000779425350866
0.000807495182671
0.000835067622366
0.000862115258858
0.000888611053275
0.000914268084832
0.000939005833973
0.000962762194478
0.000985480218783
0.00100710366995
0.00102757637865
0.0010468417003
0.00106484253586
0.00108152107024
0.00109681913274
0.00111067833365
0.00112304075119
0.00113384933341
0.00114304875159
0.00115058592663
0.00115641095142
0.00116047768266
0.00116274471254
0.00116317603489
0.00116174210151
0.00115842060822
0.00115319767197
0.00114606871189
0.0011370395746
0.00112612703407
0.00111335885555
0.0010987720958
0.00108240933916
0.00106431154442
0.00104450855843
0.00102300981751
0.000999802210539
0.000974861474621
0.000948177075963
0.000919776086991
0.000889729783433
0.000858136998842
0.000825095442819
0.000790692157338
0.000754955038369
0.000717950125884
0.00068000659099
0.000641137674911
0.000601458729285
0.000561062379354
0.00052005722324
0.00047856059588
0.000436700571289
0.000394616483279
0.000352458997473
0.000310391537046
0.000268593627388
0.000227262635319
0.000186610684284
0.000146825297359
0.00010902820294
7.48814392896e-05
4.59209226138e-05
2.41401063402e-05
1.06823051496e-05
4.22915028028e-06
1.85614745722e-06
1.16677157711e-06
9.99766485275e-07
9.63001304749e-07
9.52296888049e-07
9.44116249963e-07
9.33996063661e-07
9.21521564966e-07
9.07074165749e-07
8.91178519348e-07
8.74374787883e-07
8.57193115505e-07
8.40153285323e-07
8.23783322118e-07
8.08652000331e-07
7.95421917328e-07
7.84967736121e-07
7.78649659786e-07
7.78919536828e-07
7.90703695431e-07
8.2549060677e-07
9.19987195258e-07
1.22065937004e-06
2.23186652303e-06
7.24513434136e-06
3.78441234674e-05
2.19749544735e-06
2.79100766369e-06
3.65741369517e-06
4.7939383913e-06
6.2541464437e-06
8.09276772552e-06
1.03567110495e-05
1.30748094436e-05
1.62621529989e-05
1.99372968848e-05
2.40893326253e-05
2.86856696136e-05
3.3674815077e-05
3.89878331069e-05
4.45419239943e-05
5.0246584853e-05
5.60161834165e-05
6.17912916964e-05
6.75753324841e-05
7.34928472951e-05
7.9873534777e-05
8.73399069532e-05
9.68247162544e-05
0.000109405474212
0.000125943786729
0.000146746557505
0.000171522787651
0.000199619361555
0.000230291466739
0.000262861365974
0.000296777298661
0.000331615185668
0.000367057049132
0.000402865368914
0.000438861607346
0.000474908357563
0.00051089669363
0.000546737484717
0.000582356739156
0.000617692128924
0.000652690941955
0.000687307798629
0.000721503353177
0.000755242651532
0.000788494374847
0.000821229612633
0.000853421380059
0.000885043539642
0.000916070283482
0.000946474866222
0.000976228828072
0.0010053006245
0.00103365420387
0.00106100843974
0.00108732008118
0.00111253983428
0.0011366166731
0.00115949825566
0.00118113127603
0.00120146122591
0.00122043264454
0.001237989032
0.00125407334673
0.00126862822011
0.00128159670254
0.00129292269445
0.00130255183178
0.00131043202783
0.00131651441655
0.00132075394376
0.00132311032895
0.00132354867638
0.00132204042967
0.00131856395944
0.00131310542602
0.00130565917098
0.00129622816704
0.00128482366025
0.00127146434706
0.00125617410007
0.00123897862917
0.0012199006787
0.0011989555542
0.001176148888
0.00115148045075
0.00112495507633
0.00109659810845
0.00106646658893
0.00103464900739
0.00100125304643
0.000966389350682
0.000930157289139
0.00089263369532
0.000853876443626
0.000813917969081
0.000772742688974
0.000730736811921
0.000687909032624
0.000644378592671
0.000600249514606
0.000555633847796
0.000510648784058
0.000465416902746
0.000420068505499
0.000374743153768
0.000329590284667
0.000284766468855
0.000240424691787
0.000196711525809
0.000154356748802
0.000114839442612
7.91712284916e-05
4.87836459771e-05
2.56285507364e-05
1.11307893469e-05
4.18813812819e-06
1.68281101676e-06
9.72340528919e-07
8.02024719087e-07
7.63905170796e-07
7.53548804905e-07
7.48083446523e-07
7.43160748003e-07
7.3814997451e-07
7.33079186621e-07
7.28077692974e-07
7.23297077918e-07
7.18921799778e-07
7.1520722423e-07
7.12552987527e-07
7.11656681234e-07
7.13846131875e-07
7.21810605234e-07
7.4133564643e-07
7.86876832962e-07
9.08282831168e-07
1.29874270919e-06
2.59687874013e-06
9.2926814919e-06
4.84650856948e-05
2.46131107371e-06
3.12019254071e-06
4.05808551171e-06
5.26709421057e-06
6.79028991628e-06
8.66052581071e-06
1.08996765931e-05
1.35242495642e-05
1.6537237205e-05
1.99220357485e-05
2.36474122199e-05
2.76696418291e-05
3.19352888273e-05
3.63867800043e-05
4.09733472475e-05
4.56715827752e-05
5.0524809298e-05
5.57115135233e-05
6.16470945945e-05
6.90855149447e-05
7.91163086446e-05
9.29211988658e-05
0.000111328950752
0.000134491922665
0.000161952241976
0.00019295336155
0.000226708410394
0.000262530961388
0.000299870016414
0.00033829817239
0.000377486638759
0.000417180327874
0.000457178133771
0.000497317765994
0.000537465462723
0.000577508195752
0.000617348951466
0.000656903241203
0.000696097479313
0.00073486725748
0.000773156514626
0.000810916129143
0.000848103297343
0.000884680303934
0.000920614015146
0.000955874678997
0.000990435343329
0.0010242705008
0.00105735524487
0.00108966370071
0.00112116843098
0.00115184084048
0.0011816014936
0.00121025571318
0.00123776228278
0.00126407715862
0.00128915382037
0.00131294362607
0.00133539635372
0.00135646009438
0.00137608163627
0.00139420647311
0.00141077938271
0.00142574467844
0.00143904698451
0.00145063166668
0.00146044572132
0.0014684382997
0.00147456163827
0.00147877161236
0.00148102865494
0.00148129828614
0.00147955196053
0.00147576748758
0.0014699296811
0.00146203047312
0.00145206907014
0.00144005134424
0.00142598897543
0.00140989759915
0.00139179468613
0.00137169697744
0.00134961907745
0.0013255740265
0.00129957767376
0.00127165610321
0.00124185409658
0.00121023979096
0.00117690290205
0.00114194660455
0.00110547716555
0.00106759460618
0.00102838733266
0.000987930559698
0.000946284803102
0.000903497279387
0.000859617867864
0.000814594239092
0.000768836377325
0.000722367346459
0.000675303241034
0.00062775320631
0.000579827174934
0.000531640246001
0.000483312265364
0.000434969378832
0.000386742605853
0.000338764761584
0.000291165338981
0.000244063540088
0.000198010998117
0.000154334307027
0.000113828068588
7.75550320807e-05
4.69679267276e-05
2.39985724067e-05
1.00084004779e-05
3.62467049009e-06
1.46133339905e-06
8.84280849041e-07
7.52414723949e-07
7.23537474716e-07
7.15470812954e-07
7.1120862587e-07
7.0769947789e-07
7.0452273452e-07
7.01700249373e-07
6.99348296335e-07
6.97673665705e-07
6.97063599433e-07
6.98281254641e-07
7.02881581255e-07
7.14131989571e-07
7.39276038824e-07
7.97391215192e-07
9.57426243359e-07
1.46652589171e-06
3.09818654482e-06
1.16521171322e-05
5.95341723613e-05
2.72404432104e-06
3.4214989925e-06
4.38722050247e-06
5.60559552759e-06
7.10483486061e-06
8.90675284819e-06
1.10194998873e-05
1.34359847464e-05
1.6136667027e-05
1.90919584953e-05
2.22660209495e-05
2.56217955644e-05
2.91307646417e-05
3.27918004464e-05
3.66689040451e-05
4.09610413415e-05
4.61135319645e-05
5.29412208804e-05
6.26446131069e-05
7.65432524958e-05
9.55544718558e-05
0.000119822245178
0.000148822966045
0.000181737131975
0.000217737857166
0.000256114625609
0.000296296675083
0.000337834732616
0.000380374202486
0.000423630476133
0.000467370447252
0.000511398810236
0.00055554911643
0.000599677132561
0.000643656842032
0.000687377114214
0.000730740026222
0.000773659138885
0.000816058835513
0.000857873037459
0.000899044639571
0.000939524192752
0.000979269330541
0.00101824347663
0.00105641528343
0.00109375731759
0.00113024540272
0.00116585716985
0.00120057121891
0.00123436562073
0.00126721740354
0.00129910219888
0.00132987269882
0.00135946405579
0.00138782625358
0.0014149137902
0.00144068184596
0.00146508451782
0.00148807452902
0.00150960282427
0.00152961888673
0.00154807073248
0.00156490550401
0.0015800697148
0.00159351002238
0.00160517363402
0.00161500917838
0.00162296719377
0.00162900103043
0.0016330673564
0.00163512703122
0.00163514556485
0.00163309389035
0.00162894868136
0.00162269289907
0.00161431579949
0.00160381303812
0.00159118611209
0.00157644177751
0.00155959080314
0.00154064689658
0.00151962555817
0.00149654412133
0.00147142304493
0.00144428938138
0.00141518126535
0.00138415231801
0.00135127327168
0.00131663005463
0.00128031835935
0.00124243713615
0.00120308268254
0.0011623450236
0.0011203062121
0.00107704036913
0.00103261466179
0.000987088797938
0.000940511654187
0.000892943312024
0.000844337295119
0.000795072086247
0.000745211261751
0.000694862625974
0.000644138339323
0.000593148293252
0.000542007479049
0.000490833681627
0.000439747096613
0.000388867434348
0.000338308888774
0.000288170158181
0.000238965005964
0.000191859583655
0.000147511273417
0.000106782755611
7.08306961818e-05
4.12070823053e-05
1.98557402595e-05
7.73589034458e-06
2.71742137176e-06
1.18295881881e-06
8.07836879394e-07
7.27334625168e-07
7.09838889146e-07
7.04286803101e-07
7.00942987574e-07
6.98261341137e-07
6.96150195339e-07
6.94824096329e-07
6.94737923971e-07
6.96811419436e-07
7.02954001658e-07
7.17245601908e-07
7.48967961746e-07
8.23894572161e-07
1.03714675658e-06
1.69292477045e-06
3.69958282036e-06
1.42782775497e-05
7.096504644e-05
2.94011344105e-06
3.64471304145e-06
4.59659445596e-06
5.77375590057e-06
7.19439415865e-06
8.86276982898e-06
1.07689364037e-05
1.28918652419e-05
1.52036393625e-05
1.76750106558e-05
2.02842136304e-05
2.30326851435e-05
2.59767358117e-05
2.92899937064e-05
3.33743760744e-05
3.90105685108e-05
4.74456263323e-05
6.01914924311e-05
7.84407435964e-05
0.000102523270506
0.000131940819341
0.000165813187633
0.000203243974344
0.000243468241141
0.000285873449117
0.000329974711251
0.000375383519746
0.000421781039569
0.000468899170367
0.000516507128274
0.000564403116766
0.000612408399023
0.000660364001047
0.000708127939227
0.000755573883523
0.000802589524121
0.000849075950083
0.00089494640258
0.000940125813883
0.000984549499968
0.00102816255346
0.00107091839314
0.00111277808129
0.00115370885948
0.00119368346131
0.00123267863866
0.00127067440023
0.00130765243389
0.00134359518277
0.00137848419066
0.00141229928999
0.00144501747302
0.00147652116675
0.00150676354197
0.0015357014567
0.00156329342807
0.00158949816221
0.00161427320518
0.00163757467628
0.00165935681292
0.00167957226285
0.00169817204652
0.00171510613478
0.00173032365864
0.00174377365743
0.00175540544155
0.00176516943311
0.00177301760831
0.0017789043664
0.001782786988
0.00178462647221
0.0017843879444
0.00178204138869
0.00177756191661
0.00177093028891
0.00176213291763
0.00175116203666
0.00173801530452
0.00172269554763
0.00170521002875
0.00168557008337
0.00166379074414
0.00163989134665
0.00161389676351
0.00158583985546
0.00155576401805
0.00152372539731
0.00148979315168
0.00145404778046
0.00141657741722
0.00137747367615
0.00133682776273
0.00129472801512
0.00125125859955
0.00120649938338
0.00116052606802
0.00111341038867
0.00106522026412
0.00101601872962
0.000965859389515
0.000914805415689
0.000862827509744
0.000810266407333
0.000757226775865
0.000703810722241
0.000650133251167
0.000596305136785
0.000542440361761
0.000488652636138
0.000435053327547
0.000381745984087
0.000328815378811
0.000276829769216
0.000226777438524
0.000179228164131
0.000134913389808
9.47978358223e-05
6.01728846825e-05
3.27389211555e-05
1.4378647047e-05
5.13732698389e-06
1.82950330618e-06
9.44987007227e-07
7.49868129882e-07
7.10502910276e-07
7.01478166944e-07
6.97921152084e-07
6.95679126061e-07
6.94407462605e-07
6.94587866974e-07
6.97336998787e-07
7.05005339148e-07
7.22691711439e-07
7.62358777066e-07
8.59117687382e-07
1.14196971528e-06
1.96956876587e-06
4.38715761289e-06
1.71462137088e-05
8.26826885025e-05
3.09659797913e-06
3.7875969109e-06
4.69921680554e-06
5.80076319924e-06
7.09845790871e-06
8.58420655963e-06
1.02378072594e-05
1.20328215191e-05
1.39446523418e-05
1.59631413462e-05
1.81161007066e-05
2.05166583983e-05
2.34569438641e-05
2.75665258525e-05
3.399231988e-05
4.43862521318e-05
6.03973571288e-05
8.28535452067e-05
0.000111467962712
0.000145307524992
0.00018334451333
0.000224701403397
0.000268687293745
0.000314763411183
0.000362500512139
0.000411544692773
0.000461594477029
0.000512385698967
0.000563682739316
0.000615272800051
0.00066696311106
0.000718578753739
0.000769961919408
0.000820970746625
0.000871479041333
0.000921375205651
0.000970561920755
0.00101895492272
0.00106648249459
0.00111308400218
0.00115870917093
0.00120331646468
0.00124687228209
0.00128934932868
0.00133072582351
0.00137098390087
0.00141010879711
0.00144808722943
0.00148490651632
0.00152055298826
0.00155501130651
0.00158826352009
0.00162023014122
0.00165086942664
0.00168014305601
0.00170801385998
0.00173444462651
0.00175939687086
0.00178283059863
0.00180470382324
0.0018249728316
0.00184359209817
0.00186051482536
0.00187569309879
0.00188907859369
0.00190062288197
0.00191027823234
0.00191799800116
0.00192373746674
0.00192745424335
0.00192910909179
0.00192866629332
0.00192609436912
0.0019213663371
0.00191446025581
0.00190535927363
0.00189405191283
0.00188053185454
0.00186479797163
0.00184685397662
0.00182670850254
0.00180437511411
0.00177987308046
0.00175322834639
0.00172447520159
0.00169365765187
0.00166083049485
0.00162605900658
0.00158941759284
0.00155098718414
0.0015108525055
0.00146909942548
0.0014258132603
0.00138107770792
0.00133497461043
0.00128758389564
0.00123898370088
0.00118925018387
0.00113845710777
0.00108667532799
0.00103397161989
0.000980404408712
0.000926039984133
0.000870862842896
0.000815195034135
0.000759167794183
0.000702882976647
0.000646457045279
0.000590001033394
0.000533625575033
0.000477436800702
0.000421531140843
0.000365984974059
0.00031148644369
0.000258826530948
0.000208514073259
0.000161191347629
0.000117692751021
7.91238851123e-05
4.69571348116e-05
2.306607433e-05
8.92392214437e-06
2.97035636297e-06
1.2024201935e-06
7.95829986516e-07
7.15232766511e-07
6.99535750226e-07
6.95486688077e-07
6.94031705178e-07
6.94421190215e-07
6.97838312894e-07
7.07141163047e-07
7.28673282357e-07
7.77886384535e-07
9.02687250813e-07
1.27370686666e-06
2.29518966398e-06
5.15581840235e-06
2.02393151044e-05
9.46153571413e-05
3.20399430337e-06
3.86433521767e-06
4.71322718668e-06
5.71323133347e-06
6.86160443841e-06
8.1427407628e-06
9.53275940954e-06
1.10094898428e-05
1.25686394876e-05
1.42543541492e-05
1.62227216187e-05
1.88688338449e-05
2.3039761751e-05
3.02465173293e-05
4.25235422275e-05
6.15765716246e-05
8.78153096796e-05
0.000120421161179
0.000158158883876
0.000199921041072
0.000244855824408
0.000292326446522
0.00034184466472
0.000393017651956
0.000445513532229
0.000499040151901
0.000553333513272
0.000608151103028
0.000663269121108
0.000718480783309
0.000773596254018
0.000828442176935
0.000882862050806
0.00093671567658
0.000989879253315
0.00104224441438
0.00109371793767
0.00114422039823
0.00119368555222
0.00124205869944
0.00128929584812
0.00133536194144
0.00138022996018
0.00142387916816
0.00146629425445
0.00150746365938
0.00154737876127
0.00158603226623
0.0016234174162
0.00165952648832
0.0016943502327
0.00172787698862
0.0017600657165
0.00179087770206
0.00182027858891
0.00184823550427
0.00187471565733
0.00189968500008
0.00192310792923
0.00194494673452
0.00196516181205
0.00198371150924
0.00200055261006
0.00201564041994
0.00202892941792
0.00204037349784
0.00204992672142
0.00205754365367
0.00206318016249
0.00206679379226
0.00206834455658
0.00206779529214
0.00206511238497
0.00206026603996
0.00205323087482
0.00204398604222
0.00203251564293
0.00201880868384
0.00200285934997
0.00198466692344
0.00196423614201
0.00194157740101
0.00191670754427
0.00188965058256
0.00186043884299
0.00182911366741
0.00179572592021
0.00176033547285
0.00172301016109
0.001683823901
0.00164285484524
0.00160018350296
0.00155589152967
0.00151006083447
0.0014627733021
0.00141411058582
0.00136415411583
0.00131298489755
0.00126068327183
0.00120732838653
0.00115299754563
0.00109776552229
0.00104170356664
0.000984875538088
0.000927352352078
0.000869129086588
0.000810528935073
0.000751693161649
0.000692727997473
0.000633748777657
0.000574864668664
0.000516179166291
0.000457784899438
0.000399754640082
0.000342945970891
0.000287928767761
0.000235167653918
0.000185242851291
0.000138899757615
9.71117762769e-05
6.11766325556e-05
3.27973541804e-05
1.39071252924e-05
4.67868898659e-06
1.61052205013e-06
8.70396450501e-07
7.2427247652e-07
6.98169457753e-07
6.93550715851e-07
6.93780626248e-07
6.97851107921e-07
7.08916262313e-07
7.34808830602e-07
7.95543014896e-07
9.5634005785e-07
1.43634237093e-06
2.67055229169e-06
6.00416531975e-06
2.35445837879e-05
0.000106692766542
3.26593221685e-06
3.88369535778e-06
4.65633075015e-06
5.54192128578e-06
6.53212270798e-06
7.60859308356e-06
8.75105042811e-06
9.955003912e-06
1.12666176856e-05
1.28574740993e-05
1.51812098424e-05
1.92471132185e-05
2.68973614654e-05
4.05803958025e-05
6.2139602462e-05
9.16464334163e-05
0.000127810298359
0.000169113282486
0.000214353218304
0.000262676456034
0.00031347589015
0.000366296009976
0.000420770028749
0.00047658230409
0.000533448224948
0.000591103565972
0.000649300261827
0.000707804580911
0.000766397579055
0.000824875415454
0.000883050595804
0.000940752229723
0.000997826859958
0.00105413807379
0.00110956668563
0.00116400970285
0.00121737996982
0.00126960466325
0.00132062456895
0.00137039228933
0.00141887131992
0.00146603415199
0.00151186131138
0.00155633951116
0.00159946076205
0.00164122065562
0.00168161757628
0.00172065111742
0.00175832137098
0.00179462748517
0.00182956715887
0.00186313572464
0.00189532966312
0.00192611341041
0.00195545675421
0.00198333148206
0.00200970971208
0.00203456237141
0.00205785878682
0.00207956603209
0.00209964906628
0.00211807049192
0.00213479096995
0.00214976922156
0.00216296261572
0.00217432733633
0.00218381908313
0.00219139334862
0.00219700618366
0.00220061453394
0.00220217702241
0.0022016542938
0.00219900976244
0.00219420991107
0.0021872249525
0.00217802903773
0.0021666008019
0.00215292348059
0.00213698538054
0.00211877999983
0.00209830657295
0.00207557037817
0.00205058351453
0.00202336544228
0.00199394382359
0.00196235486292
0.00192864356066
0.00189286317406
0.00185507444245
0.00181534419377
0.00177374407317
0.00173034915625
0.00168523705751
0.00163848716052
0.00159018031606
0.00154039853711
0.00148922491987
0.00143674338994
0.00138303849808
0.0013281950005
0.00127229742983
0.00121542947381
0.0011576733025
0.00109910885284
0.00103981298315
0.000979855825853
0.00091931445213
0.00085819082289
0.00079682946916