/*--------------------------------*- C++ -*----------------------------------*\
| =========                 |                                                 |
| \\      /  F ield         | OpenFOAM: The Open Source CFD Toolbox           |
|  \\    /   O peration     | Version:  2206                                  |
|   \\  /    A nd           | Website:  www.openfoam.com                      |
|    \\/     M anipulation  |                                                 |
\*---------------------------------------------------------------------------*/
FoamFile
{
    version     2.0;
    format      ascii;
    arch        "LSB;label=64;scalar=64";
    class       volVectorField;
    location    "86400";
    object      U;
}
// * * * * * * * * * * * * * * * * * * * * * * * * * * * * * * * * * * * * * //

dimensions      [0 1 -1 0 0 0 0];

internalField   nonuniform List<vector> 
16
(
(-6.68201e-09 6.14317e-09 0)
(-1.11046e-08 -4.62896e-09 0)
(4.52469e-09 -8.05376e-09 0)
(7.76058e-09 6.50021e-09 0)
(-4.21086e-09 1.75701e-08 0)
(-1.12926e-08 -7.64692e-09 0)
(-3.56389e-09 -2.4055e-08 0)
(2.28897e-09 1.24151e-08 0)
(3.83049e-09 1.82794e-08 0)
(8.5971e-09 -4.91221e-09 0)
(-4.63986e-10 -2.40597e-08 0)
(-4.27311e-09 9.9578e-09 0)
(6.89425e-09 6.67819e-09 0)
(1.3422e-08 -1.75814e-09 0)
(-3.39091e-10 -7.91668e-09 0)
(-5.66239e-09 4.23927e-09 0)
)
;

boundaryField
{
    movingWall
    {
        type            noSlip;
    }
    fixedWalls
    {
        type            noSlip;
    }
    frontAndBack
    {
        type            empty;
    }
}


// ************************************************************************* //
