/*--------------------------------*- C++ -*----------------------------------*\
| =========                 |                                                 |
| \\      /  F ield         | OpenFOAM: The Open Source CFD Toolbox           |
|  \\    /   O peration     | Version:  2206                                  |
|   \\  /    A nd           | Website:  www.openfoam.com                      |
|    \\/     M anipulation  |                                                 |
\*---------------------------------------------------------------------------*/
FoamFile
{
    version     2.0;
    format      ascii;
    arch        "LSB;label=64;scalar=64";
    class       volScalarField;
    location    "1.9/water";
    object      reactingEulerHtcModel(T.liquid);
}
// * * * * * * * * * * * * * * * * * * * * * * * * * * * * * * * * * * * * * //

dimensions      [1 0 -3 -1 0 0 0];

internalField   uniform 0;

boundaryField
{
    maxY
    {
        type            calculated;
        value           uniform 0;
    }
    symmetric
    {
        type            symmetry;
    }
    maxX
    {
        type            calculated;
        value           uniform 0;
    }
    minY
    {
        type            calculated;
        value           uniform 0;
    }
    emptyPatch
    {
        type            empty;
    }
    water_to_solid
    {
        type            calculated;
        value           nonuniform List<scalar> 
70
(
-108.462521029
-108.711545772
-109.837985703
-110.75084995
-113.163095574
-116.553285315
-120.507103623
-129.600434268
-173.288295468
-225.561606187
-243.953307144
-242.568222155
-242.330736422
-243.991992686
-247.683937736
-219.971716947
-210.217047479
-202.532336081
-209.578748719
-200.49705629
-208.65166887
-199.884426646
-208.494332888
-199.822268793
-208.177955603
-200.629530418
-208.221707709
-202.258200158
-208.778430844
-204.667768571
-209.450830121
-208.89129299
-225.148204791
-245.635732167
-248.696436369
-245.324042402
-243.480937148
-244.692172392
-249.140924547
-147.825087441
-114.709453064
-104.86089663
-111.477129179
-102.343418644
-110.306095684
-102.016410105
-109.840458462
-102.750956773
-109.639083768
-103.667897164
-109.49701545
-105.076079701
-109.348137181
-106.579874389
-109.730540184
-107.567822245
-109.441125856
-108.928113562
-115.391451075
-232.643180813
-233.565956514
-234.057026903
-234.519635886
-234.935112796
-235.227698134
-235.667029135
-236.570703929
-236.853720124
-202.08174535
-235.69540156
)
;
    }
}


// ************************************************************************* //
