/*--------------------------------*- C++ -*----------------------------------*\
| =========                 |                                                 |
| \\      /  F ield         | OpenFOAM: The Open Source CFD Toolbox           |
|  \\    /   O peration     | Version:  2206                                  |
|   \\  /    A nd           | Website:  www.openfoam.com                      |
|    \\/     M anipulation  |                                                 |
\*---------------------------------------------------------------------------*/
FoamFile
{
    version     2.0;
    format      ascii;
    arch        "LSB;label=64;scalar=64";
    class       volScalarField;
    location    "14";
    object      Gch4;
}
// * * * * * * * * * * * * * * * * * * * * * * * * * * * * * * * * * * * * * //

dimensions      [0 0 0 0 0 0 0];

internalField   nonuniform List<scalar> 
1024
(
1.56853e-10
1.65109e-10
1.90821e-10
2.37891e-10
3.11919e-10
4.20138e-10
5.71003e-10
7.73232e-10
1.03407e-09
1.35671e-09
1.73713e-09
2.16123e-09
2.60377e-09
3.03013e-09
3.39865e-09
3.65427e-09
3.70435e-09
3.53552e-09
3.22637e-09
2.83023e-09
2.39257e-09
1.95498e-09
1.55041e-09
1.1995e-09
9.10785e-10
6.8369e-10
5.1221e-10
3.88129e-10
3.03164e-10
2.50001e-10
2.22656e-10
2.16611e-10
1.84626e-10
1.94135e-10
2.23848e-10
2.78205e-10
3.63557e-10
4.88071e-10
6.61259e-10
8.92873e-10
1.19094e-09
1.55887e-09
1.99184e-09
2.47369e-09
2.97573e-09
3.45879e-09
3.87595e-09
4.16538e-09
4.22285e-09
4.03301e-09
3.68394e-09
3.23559e-09
2.73918e-09
2.24182e-09
1.78106e-09
1.38062e-09
1.05053e-09
7.90401e-10
5.93639e-10
4.51051e-10
3.53293e-10
2.92043e-10
2.6046e-10
2.53362e-10
2.65033e-10
2.7816e-10
3.19388e-10
3.94704e-10
5.12605e-10
6.83935e-10
9.21226e-10
1.2372e-09
1.64212e-09
2.13998e-09
2.72377e-09
3.37138e-09
4.04423e-09
4.69015e-09
5.24704e-09
5.63363e-09
5.71238e-09
5.46223e-09
4.9986e-09
4.40037e-09
3.73532e-09
3.06642e-09
2.44441e-09
1.90181e-09
1.4529e-09
1.09791e-09
8.28511e-10
6.32733e-10
4.98174e-10
4.1364e-10
3.69859e-10
3.5979e-10
4.38029e-10
4.58747e-10
5.24208e-10
6.43598e-10
8.29821e-10
1.09921e-09
1.47046e-09
1.96229e-09
2.58948e-09
3.35705e-09
4.25326e-09
5.24361e-09
6.26907e-09
7.25067e-09
8.09537e-09
8.68216e-09
8.80544e-09
8.43225e-09
7.73365e-09
6.82708e-09
5.8142e-09
4.7906e-09
3.83432e-09
2.99637e-09
2.30006e-09
1.7471e-09
1.32585e-09
1.01868e-09
8.06906e-10
6.73419e-10
6.03933e-10
5.87566e-10
7.92412e-10
8.28119e-10
9.41688e-10
1.14848e-09
1.46987e-09
1.93268e-09
2.56731e-09
3.40379e-09
4.46522e-09
5.7581e-09
7.26108e-09
8.91527e-09
1.06219e-08
1.22507e-08
1.36494e-08
1.46219e-08
1.4833e-08
1.42263e-08
1.30783e-08
1.15793e-08
9.89545e-09
8.18494e-09
6.57898e-09
5.16494e-09
3.98447e-09
3.04291e-09
2.32274e-09
1.79574e-09
1.43121e-09
1.20061e-09
1.07997e-09
1.05094e-09
1.53289e-09
1.59856e-09
1.80888e-09
2.19124e-09
2.78341e-09
3.63236e-09
4.7908e-09
6.31012e-09
8.22863e-09
1.05546e-08
1.32467e-08
1.61973e-08
1.92302e-08
2.21153e-08
2.45878e-08
2.63086e-08
2.66947e-08
2.5644e-08
2.36328e-08
2.09892e-08
1.80021e-08
1.49508e-08
1.20707e-08
9.52181e-09
7.38358e-09
5.67027e-09
4.35437e-09
3.38784e-09
2.71696e-09
2.29103e-09
2.06713e-09
2.0123e-09
3.15797e-09
3.28617e-09
3.69983e-09
4.45063e-09
5.60932e-09
7.26308e-09
9.50881e-09
1.24396e-08
1.61222e-08
2.05657e-08
2.56849e-08
3.12713e-08
3.69897e-08
4.24107e-08
4.70461e-08
5.0276e-08
5.10265e-08
4.91022e-08
4.53716e-08
4.04323e-08
3.48146e-08
2.90407e-08
2.35585e-08
1.86794e-08
1.45647e-08
1.12515e-08
8.69537e-09
6.81034e-09
5.49701e-09
4.66008e-09
4.2182e-09
4.1085e-09
6.96439e-09
7.23117e-09
8.09866e-09
9.67065e-09
1.20879e-08
1.55225e-08
2.01634e-08
2.61892e-08
3.37223e-08
4.27658e-08
5.31325e-08
6.43903e-08
7.58613e-08
8.66925e-08
9.59308e-08
1.02377e-07
1.03932e-07
1.002e-07
9.286e-08
8.30613e-08
7.18338e-08
6.02125e-08
4.91041e-08
3.91551e-08
3.07147e-08
2.38811e-08
1.85828e-08
1.46581e-08
1.19125e-08
1.0156e-08
9.22473e-09
8.99125e-09
1.65863e-08
1.71825e-08
1.91375e-08
2.26742e-08
2.80923e-08
3.5755e-08
4.6056e-08
5.93589e-08
7.5898e-08
9.56434e-08
1.18152e-07
1.42459e-07
1.67096e-07
1.90251e-07
2.09944e-07
2.23706e-07
2.27163e-07
2.19461e-07
2.04056e-07
1.83296e-07
1.59303e-07
1.34264e-07
1.10145e-07
8.83862e-08
6.98013e-08
5.46605e-08
4.28556e-08
3.40667e-08
2.78901e-08
2.39224e-08
2.18106e-08
2.12774e-08
4.30794e-08
4.45228e-08
4.92983e-08
5.79227e-08
7.10841e-08
8.96064e-08
1.1437e-07
1.46165e-07
1.85456e-07
2.32072e-07
2.84872e-07
3.41528e-07
3.98598e-07
4.5195e-07
4.97168e-07
5.28817e-07
5.37126e-07
5.20111e-07
4.85401e-07
4.38103e-07
3.82893e-07
3.24728e-07
2.68193e-07
2.16759e-07
1.72485e-07
1.36157e-07
1.07651e-07
8.6305e-08
7.12271e-08
6.14981e-08
5.62998e-08
5.4982e-08
1.23212e-07
1.27028e-07
1.39778e-07
1.62762e-07
1.97695e-07
2.46598e-07
3.11594e-07
3.94509e-07
4.9628e-07
6.16169e-07
7.50969e-07
8.94539e-07
1.03812e-06
1.1715e-06
1.28409e-06
1.36303e-06
1.38477e-06
1.34432e-06
1.25985e-06
1.14326e-06
1.00557e-06
8.58896e-07
7.14836e-07
5.82486e-07
4.67525e-07
3.72419e-07
2.97233e-07
2.40561e-07
2.00298e-07
1.74191e-07
1.60188e-07
1.5663e-07
3.91539e-07
4.02629e-07
4.40098e-07
5.07521e-07
6.09539e-07
7.51549e-07
9.39057e-07
1.17656e-06
1.46583e-06
1.80384e-06
2.18067e-06
2.57856e-06
2.97315e-06
3.33703e-06
3.64272e-06
3.85743e-06
3.91961e-06
3.81584e-06
3.5928e-06
3.28028e-06
2.9062e-06
2.50255e-06
2.10124e-06
1.72832e-06
1.40098e-06
1.12757e-06
9.09558e-07
7.43977e-07
6.25564e-07
5.48363e-07
5.06784e-07
4.9622e-07
1.39297e-06
1.42857e-06
1.55041e-06
1.76923e-06
2.09876e-06
2.55462e-06
3.15216e-06
3.90292e-06
4.80936e-06
5.85863e-06
7.01696e-06
8.22783e-06
9.41701e-06
1.05043e-05
1.14125e-05
1.20515e-05
1.22467e-05
1.19589e-05
1.13185e-05
1.04053e-05
9.29488e-06
8.07867e-06
6.85218e-06
5.69723e-06
4.67093e-06
3.80408e-06
3.10593e-06
2.57098e-06
2.18551e-06
1.93265e-06
1.79587e-06
1.76117e-06
5.57979e-06
5.7063e-06
6.14575e-06
6.9335e-06
8.1137e-06
9.73511e-06
1.18433e-05
1.44678e-05
1.76049e-05
2.11974e-05
2.51184e-05
2.917e-05
3.31041e-05
3.66651e-05
3.96197e-05
4.17011e-05
4.23733e-05
4.15127e-05
3.95147e-05
3.66075e-05
3.30079e-05
2.89959e-05
2.48822e-05
2.09478e-05
1.74009e-05
1.43657e-05
1.18923e-05
9.97745e-06
8.58554e-06
7.666e-06
7.1662e-06
7.03979e-06
2.52401e-05
2.57365e-05
2.74922e-05
3.06337e-05
3.53138e-05
4.16947e-05
4.99155e-05
6.00436e-05
7.20109e-05
8.55455e-05
0.000100125
0.000114988
0.00012923
0.00014197
0.000152452
0.00015984
0.000162361
0.000159607
0.000152874
0.000142847
0.00013017
0.00011575
0.000100675
8.59901e-05
7.25249e-05
6.08224e-05
5.1153e-05
4.3576e-05
3.80113e-05
3.43048e-05
3.22792e-05
3.17692e-05
0.000128825
0.000130959
0.000138675
0.000152457
0.000172864
0.00020045
0.000235621
0.000278438
0.000328362
0.000384015
0.000443056
0.000502299
0.000558183
0.000607457
0.000647565
0.000675789
0.000685935
0.00067663
0.00065244
0.000615455
0.00056756
0.000511786
0.000452126
0.000392731
0.000337156
0.000287953
0.000246621
0.00021376
0.000189331
0.000172901
0.000163865
0.000161604
0.000695401
0.000704773
0.000739523
0.000801468
0.00089256
0.00101451
0.00116816
0.00135268
0.00156458
0.00179691
0.00203904
0.00227751
0.00249825
0.00268943
0.00284281
0.00295015
0.0029904
0.00295947
0.00287349
0.00273839
0.00255879
0.00234397
0.00210799
0.00186695
0.00163591
0.00142679
0.00124761
0.00110268
0.000993377
0.000919033
0.000877858
0.000867655
0.00324339
0.00327782
0.00340905
0.00364253
0.00398346
0.00443536
0.00499789
0.00566403
0.00641708
0.00722854
0.0080584
0.0088594
0.00958549
0.0102016
0.0106875
0.0110246
0.0111551
0.0110709
0.0108201
0.0104154
0.00986332
0.00918438
0.00841696
0.00761064
0.00681668
0.00607995
0.00543446
0.00490219
0.00449424
0.00421331
0.00405655
0.0040182
0.0115622
0.0116563
0.0120266
0.0126848
0.0136404
0.0148967
0.0164446
0.0182555
0.0202743
0.0224156
0.024567
0.0266034
0.0284116
0.029915
0.0310799
0.0318804
0.032199
0.0320285
0.0314797
0.0305739
0.029309
0.0277133
0.0258592
0.0238554
0.0218269
0.0198948
0.0181615
0.0167026
0.0155651
0.0147714
0.0143248
0.0142167
0.0326064
0.032805
0.0336138
0.0350535
0.0371371
0.039861
0.0431925
0.0470548
0.0513124
0.055767
0.0601702
0.0642608
0.0678201
0.0707202
0.0729283
0.07443
0.0750408
0.0747696
0.0738249
0.0722371
0.069981
0.0670746
0.0636154
0.0597764
0.0557818
0.0518732
0.048278
0.0451844
0.0427278
0.0409889
0.0400011
0.0397635
0.0751356
0.0754694
0.0768864
0.0794196
0.0830867
0.087873
0.0937081
0.100436
0.10779
0.115395
0.122799
0.129553
0.135313
0.139914
0.143357
0.145675
0.146631
0.146273
0.14493
0.142649
0.139377
0.135106
0.129932
0.124061
0.117794
0.111492
0.105539
0.10029
0.0960362
0.0929752
0.091216
0.0907918
0.146289
0.146751
0.148814
0.152536
0.157952
0.165047
0.173707
0.183671
0.194495
0.205564
0.216177
0.225682
0.23363
0.239857
0.244441
0.247493
0.248761
0.248345
0.246696
0.243888
0.239856
0.234578
0.228134
0.220718
0.212633
0.204286
0.196171
0.188815
0.182702
0.178214
0.175594
0.174952
0.248437
0.248973
0.251552
0.256284
0.263253
0.272467
0.283773
0.296779
0.310818
0.325002
0.338379
0.350134
0.359771
0.367186
0.372562
0.376105
0.377576
0.377131
0.375312
0.372229
0.367835
0.362128
0.355197
0.34721
0.3384
0.329097
0.319772
0.311031
0.303533
0.297874
0.294493
0.293636
0.37846
0.378984
0.38183
0.387202
0.39528
0.406119
0.419513
0.434901
0.451361
0.467748
0.482922
0.495999
0.506521
0.514482
0.520177
0.523895
0.525431
0.524979
0.523127
0.520016
0.515637
0.510041
0.503375
0.495817
0.487523
0.478658
0.469507
0.460575
0.452578
0.446297
0.442407
0.441358
0.529364
0.529784
0.532617
0.538224
0.546911
0.558766
0.573484
0.590292
0.608026
0.625364
0.641109
0.654424
0.664956
0.67281
0.678366
0.681962
0.683436
0.682996
0.681225
0.678281
0.674193
0.669073
0.663151
0.656674
0.649785
0.642495
0.634814
0.626966
0.619517
0.613312
0.609249
0.608043
0.692703
0.692943
0.69555
0.701082
0.709955
0.722216
0.737388
0.754479
0.772177
0.789133
0.804237
0.816794
0.826583
0.833798
0.838854
0.842104
0.843425
0.843015
0.841413
0.838774
0.835149
0.830693
0.825703
0.820516
0.815334
0.810123
0.804672
0.79885
0.792882
0.787461
0.783594
0.782285
0.860499
0.860532
0.862829
0.86813
0.876858
0.8889
0.903571
0.919749
0.936136
0.951522
0.964996
0.97604
0.984553
0.99077
0.995095
0.997862
0.998976
0.998614
0.997239
0.994991
0.991926
0.988208
0.984156
0.98016
0.976509
0.973225
0.97004
0.96657
0.962643
0.95859
0.955302
0.953979
1.02625
1.02612
1.02816
1.03318
1.04143
1.05255
1.06572
1.07988
1.0939
1.10685
1.11803
1.1271
1.13403
1.13906
1.14254
1.14476
1.14565
1.14534
1.14423
1.14242
1.13996
1.13699
1.13382
1.13081
1.12831
1.12642
1.12497
1.12352
1.12166
1.11929
1.11692
1.11572
1.18516
1.18499
1.18693
1.19157
1.19886
1.20828
1.21906
1.23035
1.24133
1.25134
1.2599
1.2668
1.27204
1.27583
1.27844
1.2801
1.28076
1.28053
1.27968
1.27832
1.27646
1.27424
1.27187
1.26968
1.26798
1.26693
1.26647
1.26631
1.26601
1.26522
1.26397
1.26307
1.33404
1.33402
1.3359
1.33984
1.34554
1.35255
1.36032
1.3683
1.37596
1.38289
1.38879
1.39352
1.3971
1.39968
1.40146
1.40258
1.40303
1.40287
1.40229
1.40135
1.40009
1.39856
1.39695
1.39547
1.39435
1.39375
1.39369
1.39403
1.3945
1.39475
1.39453
1.39408
1.47097
1.4712
1.47274
1.4754
1.47896
1.48315
1.48769
1.49231
1.49671
1.50068
1.50405
1.50674
1.50878
1.51025
1.51125
1.51189
1.51214
1.51205
1.51172
1.51119
1.51046
1.5096
1.50867
1.50782
1.50719
1.50686
1.50688
1.50721
1.50772
1.50825
1.50859
1.50859
1.5949
1.59506
1.59567
1.5966
1.59778
1.59914
1.60061
1.60209
1.60351
1.60478
1.60586
1.60672
1.60737
1.60784
1.60816
1.60836
1.60844
1.60841
1.6083
1.60813
1.6079
1.60762
1.60733
1.60705
1.60685
1.60674
1.60675
1.60686
1.60706
1.60729
1.6075
1.60759
)
;

boundaryField
{
    movingWall
    {
        type            fixedValue;
        value           uniform 1.6535;
    }
    fixedWalls
    {
        type            zeroGradient;
    }
    frontAndBack
    {
        type            empty;
    }
}


// ************************************************************************* //
