/*--------------------------------*- C++ -*----------------------------------*\
| =========                 |                                                 |
| \\      /  F ield         | OpenFOAM: The Open Source CFD Toolbox           |
|  \\    /   O peration     | Version:  2206                                  |
|   \\  /    A nd           | Website:  www.openfoam.com                      |
|    \\/     M anipulation  |                                                 |
\*---------------------------------------------------------------------------*/
FoamFile
{
    version     2.0;
    format      ascii;
    arch        "LSB;label=64;scalar=64";
    class       volScalarField;
    location    "14";
    object      Gch4_0;
}
// * * * * * * * * * * * * * * * * * * * * * * * * * * * * * * * * * * * * * //

dimensions      [0 0 0 0 0 0 0];

internalField   nonuniform List<scalar> 
1024
(
9.46442e-11
9.98146e-11
1.15907e-10
1.45426e-10
1.91987e-10
2.60279e-10
3.55804e-10
4.84253e-10
6.50372e-10
8.56265e-10
1.09932e-09
1.37039e-09
1.65312e-09
1.92525e-09
2.16019e-09
2.3229e-09
2.35411e-09
2.24555e-09
2.04771e-09
1.79454e-09
1.51491e-09
1.23543e-09
9.77265e-10
7.53662e-10
5.70064e-10
4.25999e-10
3.17502e-10
2.39203e-10
1.85719e-10
1.52326e-10
1.35185e-10
1.31422e-10
1.12037e-10
1.18027e-10
1.36729e-10
1.7101e-10
2.24992e-10
3.03995e-10
4.14242e-10
5.6213e-10
7.52943e-10
9.88925e-10
1.26695e-09
1.57645e-09
1.89875e-09
2.20855e-09
2.47578e-09
2.66088e-09
2.69687e-09
2.57421e-09
2.34977e-09
2.06184e-09
1.74312e-09
1.42388e-09
1.12838e-09
8.71921e-10
6.60925e-10
4.95045e-10
3.69897e-10
2.79442e-10
2.17575e-10
1.78896e-10
1.58993e-10
1.54551e-10
1.62548e-10
1.70909e-10
1.97142e-10
2.45156e-10
3.2052e-10
4.30375e-10
5.83e-10
7.86821e-10
1.04866e-09
1.37118e-09
1.74975e-09
2.16978e-09
2.60591e-09
3.02411e-09
3.38424e-09
3.63382e-09
3.68363e-09
3.52044e-09
3.21947e-09
2.83158e-09
2.40043e-09
1.96688e-09
1.564e-09
1.21302e-09
9.23185e-10
6.94508e-10
5.21408e-10
3.9593e-10
3.09894e-10
2.55958e-10
2.28083e-10
2.21714e-10
2.71905e-10
2.85268e-10
3.27448e-10
4.0451e-10
5.25022e-10
6.99868e-10
9.41543e-10
1.2626e-09
1.67297e-09
2.17603e-09
2.76393e-09
3.41362e-09
4.08587e-09
4.72859e-09
5.28094e-09
5.66398e-09
5.74287e-09
5.49661e-09
5.03794e-09
4.4434e-09
3.77922e-09
3.1081e-09
2.48152e-09
1.93315e-09
1.47829e-09
1.11788e-09
8.43982e-10
6.44758e-10
5.07732e-10
4.21542e-10
3.7677e-10
3.66286e-10
4.97876e-10
5.21201e-10
5.9531e-10
7.30469e-10
9.41048e-10
1.24514e-09
1.66331e-09
2.21593e-09
2.9187e-09
3.77603e-09
4.77347e-09
5.87121e-09
7.00287e-09
8.08145e-09
9.00644e-09
9.64838e-09
9.78498e-09
9.37997e-09
8.61755e-09
7.62316e-09
6.50618e-09
5.37164e-09
4.30703e-09
3.37075e-09
2.59049e-09
1.96947e-09
1.49561e-09
1.1497e-09
9.10987e-10
7.60301e-10
6.81628e-10
6.62798e-10
9.75083e-10
1.01854e-09
1.15755e-09
1.41066e-09
1.80355e-09
2.36831e-09
3.14103e-09
4.15698e-09
5.44248e-09
7.00321e-09
8.81076e-09
1.07917e-08
1.28259e-08
1.47583e-08
1.64119e-08
1.75607e-08
1.78135e-08
1.71037e-08
1.57525e-08
1.39785e-08
1.19739e-08
9.92633e-09
7.99454e-09
6.28678e-09
4.85653e-09
3.7129e-09
2.83657e-09
2.19444e-09
1.74975e-09
1.46802e-09
1.32022e-09
1.2842e-09
2.0353e-09
2.1213e-09
2.39842e-09
2.9021e-09
3.68109e-09
4.79569e-09
6.31308e-09
8.2979e-09
1.07966e-08
1.38154e-08
1.72952e-08
2.10914e-08
2.49734e-08
2.86479e-08
3.17851e-08
3.39669e-08
3.44643e-08
3.31483e-08
3.06114e-08
2.72563e-08
2.34403e-08
1.95179e-08
1.57952e-08
1.24853e-08
9.69826e-09
7.45858e-09
5.73457e-09
4.46614e-09
3.58437e-09
3.02362e-09
2.72814e-09
2.65512e-09
4.55304e-09
4.73465e-09
5.32437e-09
6.39434e-09
8.04291e-09
1.03907e-08
1.35707e-08
1.77083e-08
2.28898e-08
2.91173e-08
3.62588e-08
4.4011e-08
5.19009e-08
5.93388e-08
6.56727e-08
7.00832e-08
7.11276e-08
6.85405e-08
6.34829e-08
5.67387e-08
4.90105e-08
4.10097e-08
3.33643e-08
2.65229e-08
2.07275e-08
1.60442e-08
1.24209e-08
9.74301e-09
7.87365e-09
6.68016e-09
6.04862e-09
5.89095e-09
1.10153e-08
1.14278e-08
1.27783e-08
1.52242e-08
1.89782e-08
2.42986e-08
3.14664e-08
4.07413e-08
5.22907e-08
6.60925e-08
8.18294e-08
9.8815e-08
1.16009e-07
1.32141e-07
1.45838e-07
1.55389e-07
1.57746e-07
1.52325e-07
1.41553e-07
1.27054e-07
1.10294e-07
9.27997e-08
7.59506e-08
6.07619e-08
4.78065e-08
3.72709e-08
2.90735e-08
2.29835e-08
1.87127e-08
1.59746e-08
1.45199e-08
1.41542e-08
2.9112e-08
3.01285e-08
3.34867e-08
3.95574e-08
4.8837e-08
6.19222e-08
7.94515e-08
1.01998e-07
1.29901e-07
1.63032e-07
2.00563e-07
2.40807e-07
2.81287e-07
3.19061e-07
3.51019e-07
3.73339e-07
3.79094e-07
3.66913e-07
3.42241e-07
3.08662e-07
2.69459e-07
2.28143e-07
1.87988e-07
1.51479e-07
1.20092e-07
9.43813e-08
7.42456e-08
5.91991e-08
4.85924e-08
4.17613e-08
3.81179e-08
3.71977e-08
8.48826e-08
8.76233e-08
9.67673e-08
1.13266e-07
1.38379e-07
1.73598e-07
2.20492e-07
2.80412e-07
3.54052e-07
4.40861e-07
5.38461e-07
6.42322e-07
7.46028e-07
8.42179e-07
9.23191e-07
9.79863e-07
9.9519e-07
9.65678e-07
9.04517e-07
8.20212e-07
7.20634e-07
6.14511e-07
5.10273e-07
4.1456e-07
3.31515e-07
2.6292e-07
2.08792e-07
1.68073e-07
1.39201e-07
1.20514e-07
1.10507e-07
1.07974e-07
2.75543e-07
2.83684e-07
3.1115e-07
3.6061e-07
4.3555e-07
5.40034e-07
6.78223e-07
8.53509e-07
1.06724e-06
1.31711e-06
1.59562e-06
1.88938e-06
2.18021e-06
2.44783e-06
2.67222e-06
2.82945e-06
2.87419e-06
2.7968e-06
2.63194e-06
2.4013e-06
2.12516e-06
1.82704e-06
1.53059e-06
1.25523e-06
1.01376e-06
8.12366e-07
6.52054e-07
5.30524e-07
4.43774e-07
3.87314e-07
3.56955e-07
3.49269e-07
1.00362e-06
1.03039e-06
1.12189e-06
1.28633e-06
1.53427e-06
1.87773e-06
2.32863e-06
2.89586e-06
3.58135e-06
4.37511e-06
5.25101e-06
6.16551e-06
7.06187e-06
7.87957e-06
8.56123e-06
9.03961e-06
9.18322e-06
8.96321e-06
8.47873e-06
7.78919e-06
6.9506e-06
6.03152e-06
5.1044e-06
4.23159e-06
3.45665e-06
2.80297e-06
2.27734e-06
1.87529e-06
1.5861e-06
1.3967e-06
1.2944e-06
1.26854e-06
4.12568e-06
4.22339e-06
4.56241e-06
5.17045e-06
6.08234e-06
7.33672e-06
8.96976e-06
1.10051e-05
1.34396e-05
1.62277e-05
1.92689e-05
2.24067e-05
2.54469e-05
2.81922e-05
3.0465e-05
3.2062e-05
3.25685e-05
3.1892e-05
3.03408e-05
2.80889e-05
2.53003e-05
2.21901e-05
1.89997e-05
1.59488e-05
1.32003e-05
1.0851e-05
8.93931e-06
7.46178e-06
6.38949e-06
5.68218e-06
5.29829e-06
5.20154e-06
1.92018e-05
1.95968e-05
2.09922e-05
2.34901e-05
2.72148e-05
3.22983e-05
3.88547e-05
4.69394e-05
5.64966e-05
6.73038e-05
7.89346e-05
9.07704e-05
0.000102085
0.000112179
0.000120465
0.000126289
0.000128241
0.000126005
0.000120623
0.000112631
0.000102527
9.1026e-05
7.8996e-05
6.72771e-05
5.65376e-05
4.72133e-05
3.95191e-05
3.34988e-05
2.90839e-05
2.61474e-05
2.45448e-05
2.41428e-05
0.000101122
0.000102877
0.000109217
0.000120544
0.000137328
0.000160036
0.000189011
0.000224307
0.000265467
0.000311328
0.000359918
0.000408573
0.000454345
0.000494588
0.000527268
0.000550197
0.000558286
0.000550441
0.000530459
0.000500018
0.000460609
0.000414686
0.000365534
0.000316595
0.000270821
0.000230331
0.000196357
0.000169382
0.000149355
0.000135903
0.000128515
0.000126673
0.000564737
0.000572729
0.000602346
0.000655152
0.000732844
0.000836912
0.000968103
0.00112569
0.0013066
0.00150478
0.00171096
0.00191352
0.00210044
0.00226183
0.00239099
0.0024811
0.00251421
0.00248697
0.00241327
0.00229802
0.00214491
0.00196168
0.00176027
0.0015545
0.00135733
0.00117898
0.00102633
0.000902996
0.000810087
0.000746968
0.000712052
0.000703436
0.00272624
0.00275671
0.00287284
0.00307947
0.00338126
0.00378135
0.00427943
0.00486908
0.00553511
0.00625172
0.00698289
0.00768645
0.00832198
0.00885951
0.00928226
0.00957456
0.00968529
0.00960754
0.00938417
0.00902609
0.00853804
0.00793762
0.00725852
0.00654482
0.00584217
0.00519054
0.00462007
0.00415011
0.00379028
0.00354274
0.00340476
0.00337116
0.0100345
0.0101208
0.0104601
0.0110632
0.0119388
0.0130895
0.0145064
0.0161625
0.0180059
0.0199567
0.0219107
0.0237533
0.0253829
0.0267328
0.0277759
0.0284902
0.028768
0.0286029
0.0280969
0.0272678
0.0261118
0.0246527
0.0229564
0.0211224
0.0192659
0.0174984
0.0159137
0.0145809
0.0135426
0.0128186
0.0124118
0.0123138
0.0291185
0.0293062
0.030071
0.0314319
0.0333999
0.0359704
0.0391102
0.0427434
0.0467388
0.0509056
0.0550084
0.058803
0.0620898
0.0647573
0.0667825
0.068155
0.0686999
0.0684252
0.0675267
0.0660297
0.0639059
0.0611686
0.0579078
0.0542875
0.0505204
0.0468357
0.0434483
0.0405355
0.0382239
0.0365887
0.0356609
0.0354393
0.068764
0.0690879
0.0704642
0.0729225
0.0764764
0.0811071
0.08674
0.0932164
0.100272
0.107538
0.114578
0.120968
0.126391
0.130705
0.133924
0.136083
0.136952
0.136574
0.135263
0.133058
0.129899
0.125772
0.120767
0.115084
0.109017
0.10292
0.0971648
0.0920945
0.0879872
0.085034
0.0833388
0.0829336
0.136628
0.137086
0.139134
0.142825
0.148184
0.155185
0.163704
0.173468
0.184029
0.194777
0.205027
0.214155
0.221748
0.227671
0.23202
0.234906
0.236075
0.235621
0.233978
0.231208
0.227233
0.22202
0.215644
0.2083
0.200294
0.192037
0.184019
0.176759
0.170732
0.166312
0.163735
0.163111
0.235845
0.236387
0.238994
0.243766
0.250773
0.260003
0.271282
0.284196
0.298064
0.311999
0.325065
0.336479
0.345786
0.352916
0.358072
0.361459
0.362832
0.362333
0.360492
0.357403
0.352998
0.347257
0.340263
0.332188
0.323283
0.313896
0.304508
0.295728
0.288211
0.282547
0.279171
0.278326
0.363922
0.364463
0.367382
0.372871
0.38109
0.392065
0.40556
0.42098
0.437383
0.453617
0.468557
0.481356
0.491597
0.499313
0.50482
0.508404
0.509849
0.509334
0.507439
0.504285
0.499837
0.494124
0.487278
0.47949
0.470938
0.461819
0.452443
0.443332
0.435204
0.428839
0.424911
0.423868
0.51414
0.514584
0.517525
0.52331
0.532222
0.544315
0.559242
0.576191
0.593968
0.611244
0.626835
0.639939
0.650248
0.657903
0.663306
0.666794
0.668188
0.667684
0.665858
0.662849
0.658657
0.653367
0.647196
0.640398
0.633144
0.625486
0.617468
0.609339
0.601676
0.595327
0.591191
0.589986
0.677995
0.678262
0.680996
0.686741
0.69589
0.708453
0.723906
0.741211
0.759024
0.775987
0.791003
0.803409
0.813028
0.820089
0.825026
0.828192
0.829446
0.828976
0.827316
0.824603
0.820862
0.81622
0.810959
0.80542
0.799838
0.794219
0.788391
0.782248
0.77603
0.770435
0.766476
0.765162
0.84726
0.847318
0.849742
0.855265
0.864287
0.876656
0.891637
0.908063
0.924601
0.940037
0.953468
0.96441
0.972798
0.978898
0.983134
0.985837
0.986898
0.986483
0.985054
0.982736
0.979559
0.975664
0.971356
0.96703
0.963
0.959332
0.955793
0.952022
0.947857
0.943634
0.940248
0.938915
1.01512
1.01501
1.01717
1.0224
1.03093
1.04236
1.05584
1.07023
1.08442
1.09743
1.10859
1.1176
1.12444
1.12938
1.1328
1.13497
1.13582
1.13547
1.13431
1.13244
1.12988
1.12677
1.12337
1.12009
1.11726
1.11506
1.11331
1.11162
1.10957
1.10705
1.1046
1.10339
1.1765
1.17635
1.17838
1.18321
1.19074
1.20043
1.21146
1.22296
1.23408
1.24415
1.25272
1.25957
1.26476
1.26848
1.27105
1.27268
1.27331
1.27304
1.27216
1.27075
1.26882
1.26648
1.26394
1.26154
1.25959
1.25829
1.25761
1.25728
1.25685
1.25595
1.25464
1.25373
1.32797
1.32796
1.32992
1.334
1.33989
1.3471
1.35506
1.36319
1.37096
1.37794
1.38384
1.38855
1.39209
1.39463
1.39638
1.39749
1.39791
1.39773
1.39712
1.39616
1.39484
1.39323
1.3915
1.38987
1.38858
1.38782
1.38761
1.38783
1.38822
1.38842
1.38817
1.38771
1.46745
1.46769
1.46928
1.47204
1.4757
1.48001
1.48467
1.48938
1.49384
1.49784
1.50122
1.5039
1.50592
1.50736
1.50835
1.50898
1.50922
1.50911
1.50877
1.50822
1.50746
1.50655
1.50556
1.50462
1.50389
1.50347
1.50341
1.50366
1.50414
1.50465
1.50497
1.50498
1.59376
1.59393
1.59455
1.59551
1.59673
1.59814
1.59964
1.60115
1.60259
1.60387
1.60495
1.6058
1.60645
1.60691
1.60722
1.60742
1.6075
1.60747
1.60736
1.60718
1.60694
1.60664
1.60633
1.60602
1.60579
1.60565
1.60563
1.60573
1.60591
1.60614
1.60635
1.60644
)
;

boundaryField
{
    movingWall
    {
        type            fixedValue;
        value           uniform 1.6535;
    }
    fixedWalls
    {
        type            zeroGradient;
    }
    frontAndBack
    {
        type            empty;
    }
}


// ************************************************************************* //
