/*--------------------------------*- C++ -*----------------------------------*\
| =========                 |                                                 |
| \\      /  F ield         | OpenFOAM: The Open Source CFD Toolbox           |
|  \\    /   O peration     | Version:  2206                                  |
|   \\  /    A nd           | Website:  www.openfoam.com                      |
|    \\/     M anipulation  |                                                 |
\*---------------------------------------------------------------------------*/
FoamFile
{
    version     2.0;
    format      ascii;
    arch        "LSB;label=64;scalar=64";
    class       volScalarField;
    location    "14";
    object      p;
}
// * * * * * * * * * * * * * * * * * * * * * * * * * * * * * * * * * * * * * //

dimensions      [0 2 -2 0 0 0 0];

internalField   nonuniform List<scalar> 
1024
(
3.44728e-12
-3.17498e-09
-9.32489e-09
-1.63319e-08
-2.14169e-08
-2.13083e-08
-1.24149e-08
9.28317e-09
4.866e-08
1.12028e-07
2.07594e-07
3.45657e-07
5.38432e-07
7.99403e-07
1.14119e-06
1.57241e-06
2.05352e-06
2.49036e-06
2.84022e-06
3.10958e-06
3.30986e-06
3.45405e-06
3.55428e-06
3.62101e-06
3.66268e-06
3.68584e-06
3.6956e-06
3.69615e-06
3.69124e-06
3.68426e-06
3.67806e-06
3.67483e-06
3.18104e-09
-1.3011e-12
-5.18279e-09
-1.07363e-08
-1.44457e-08
-1.33679e-08
-3.98373e-09
1.78153e-08
5.70338e-08
1.20065e-07
2.15128e-07
3.52492e-07
5.44325e-07
8.04061e-07
1.14427e-06
1.57355e-06
2.05251e-06
2.48738e-06
2.83562e-06
3.10371e-06
3.303e-06
3.44646e-06
3.54616e-06
3.61253e-06
3.65403e-06
3.67729e-06
3.68754e-06
3.68907e-06
3.68556e-06
3.68005e-06
3.67483e-06
3.6716e-06
9.32657e-09
5.16686e-09
-2.40856e-11
-4.65684e-09
-7.19751e-09
-5.15869e-09
4.79301e-09
2.67723e-08
6.58771e-08
1.28578e-07
2.23114e-07
3.59733e-07
5.50557e-07
8.08973e-07
1.1475e-06
1.57471e-06
2.05141e-06
2.4842e-06
2.83074e-06
3.09748e-06
3.29574e-06
3.43843e-06
3.53759e-06
3.60363e-06
3.645e-06
3.66844e-06
3.67926e-06
3.68176e-06
3.67942e-06
3.67485e-06
3.66962e-06
3.6654e-06
1.6353e-08
1.07173e-08
4.56867e-09
-9.09261e-11
-2.14719e-09
4.8305e-10
1.08862e-08
3.30782e-08
7.21646e-08
1.34657e-07
2.28819e-07
3.64891e-07
5.54974e-07
8.12423e-07
1.14973e-06
1.57546e-06
2.05055e-06
2.48187e-06
2.82722e-06
3.09302e-06
3.29057e-06
3.43274e-06
3.53154e-06
3.59738e-06
3.63874e-06
3.66239e-06
3.67366e-06
3.67676e-06
3.67491e-06
3.6703e-06
3.66411e-06
3.65839e-06
2.15263e-08
1.44617e-08
7.07281e-09
1.84666e-09
-2.5942e-10
2.57842e-09
1.32378e-08
3.56034e-08
7.47349e-08
1.37152e-07
2.31137e-07
3.66945e-07
5.56677e-07
8.13687e-07
1.15047e-06
1.57558e-06
2.05004e-06
2.48082e-06
2.82573e-06
3.0912e-06
3.28849e-06
3.43046e-06
3.52915e-06
3.59495e-06
3.63639e-06
3.66023e-06
3.67176e-06
3.67506e-06
3.67315e-06
3.66797e-06
3.66052e-06
3.65336e-06
2.16269e-08
1.34839e-08
5.00176e-09
-9.45087e-10
-3.38543e-09
-6.08612e-10
1.01376e-08
3.26347e-08
7.18862e-08
1.34406e-07
2.285e-07
3.64456e-07
5.54413e-07
8.11757e-07
1.14902e-06
1.5748e-06
2.05006e-06
2.48162e-06
2.8272e-06
3.0932e-06
3.2909e-06
3.43317e-06
3.53208e-06
3.59806e-06
3.63967e-06
3.66367e-06
3.6753e-06
3.67854e-06
3.6763e-06
3.67038e-06
3.66182e-06
3.65358e-06
1.3087e-08
4.25608e-09
-5.02119e-09
-1.16214e-08
-1.44834e-08
-1.19042e-08
-1.16933e-09
2.14582e-08
6.09549e-08
1.23843e-07
2.18472e-07
3.55197e-07
5.46243e-07
8.0508e-07
1.14433e-06
1.57267e-06
2.05086e-06
2.48519e-06
2.83307e-06
3.10089e-06
3.29998e-06
3.44327e-06
3.5429e-06
3.60938e-06
3.65133e-06
3.67552e-06
3.68716e-06
3.69021e-06
3.68754e-06
3.68096e-06
3.6716e-06
3.66267e-06
-8.19729e-09
-1.74537e-08
-2.72775e-08
-3.4397e-08
-3.76519e-08
-3.52931e-08
-2.4577e-08
-1.74391e-09
3.82108e-08
1.01862e-07
1.97652e-07
3.36057e-07
5.29458e-07
7.91487e-07
1.13493e-06
1.56861e-06
2.05281e-06
2.49279e-06
2.84535e-06
3.11688e-06
3.31879e-06
3.46414e-06
3.56522e-06
3.63268e-06
3.67523e-06
3.69971e-06
3.71138e-06
3.71423e-06
3.71117e-06
3.70406e-06
3.69415e-06
3.68478e-06
-4.74565e-08
-5.70578e-08
-6.73278e-08
-7.48814e-08
-7.84721e-08
-7.62857e-08
-6.55047e-08
-4.22852e-08
-1.52452e-09
6.34789e-08
1.61335e-07
3.02734e-07
5.00316e-07
7.67981e-07
1.11879e-06
1.56176e-06
2.05641e-06
2.50618e-06
2.86682e-06
3.14475e-06
3.35154e-06
3.50046e-06
3.60406e-06
3.67319e-06
3.71675e-06
3.74175e-06
3.75357e-06
3.75628e-06
3.75289e-06
3.74535e-06
3.73498e-06
3.72526e-06
-1.1198e-07
-1.21995e-07
-1.32761e-07
-1.40758e-07
-1.44659e-07
-1.42569e-07
-1.3156e-07
-1.07644e-07
-6.55378e-08
1.68445e-09
1.02917e-07
2.49198e-07
4.53571e-07
7.3036e-07
1.09303e-06
1.55094e-06
2.06234e-06
2.52775e-06
2.90133e-06
3.18952e-06
3.40415e-06
3.55882e-06
3.66645e-06
3.73828e-06
3.78351e-06
3.80941e-06
3.82157e-06
3.82424e-06
3.82056e-06
3.81257e-06
3.80169e-06
3.79154e-06
-2.12286e-07
-2.2289e-07
-2.34324e-07
-2.42868e-07
-2.47102e-07
-2.45025e-07
-2.33547e-07
-2.08462e-07
-1.64206e-07
-9.34954e-08
1.30108e-08
1.66886e-07
3.81784e-07
6.72667e-07
1.05361e-06
1.53442e-06
2.07148e-06
2.56086e-06
2.95429e-06
3.25828e-06
3.48499e-06
3.64855e-06
3.76246e-06
3.83849e-06
3.88636e-06
3.91373e-06
3.92653e-06
3.92927e-06
3.92529e-06
3.91675e-06
3.90518e-06
3.89441e-06
-3.63713e-07
-3.75178e-07
-3.87566e-07
-3.96854e-07
-4.01498e-07
-3.9934e-07
-3.87053e-07
-3.60107e-07
-3.12516e-07
-2.36457e-07
-1.21919e-07
4.34708e-08
2.74264e-07
5.86349e-07
9.94666e-07
1.50968e-06
2.08499e-06
2.61015e-06
3.03333e-06
3.36108e-06
3.60606e-06
3.78311e-06
3.90657e-06
3.98906e-06
4.04101e-06
4.07071e-06
4.08458e-06
4.08754e-06
4.0832e-06
4.0739e-06
4.06134e-06
4.04967e-06
-5.88994e-07
-6.01731e-07
-6.15506e-07
-6.25852e-07
-6.3104e-07
-6.28679e-07
-6.15087e-07
-5.85252e-07
-5.32563e-07
-4.48397e-07
-3.21757e-07
-1.39109e-07
1.15386e-07
4.58922e-07
9.0764e-07
1.47291e-06
2.10438e-06
2.68218e-06
3.14935e-06
3.51249e-06
3.78483e-06
3.98222e-06
4.12018e-06
4.21252e-06
4.27074e-06
4.30407e-06
4.31968e-06
4.32305e-06
4.31823e-06
4.30787e-06
4.29386e-06
4.28084e-06
-9.22608e-07
-9.37242e-07
-9.53074e-07
-9.64963e-07
-9.70908e-07
-9.68162e-07
-9.52509e-07
-9.18215e-07
-8.57739e-07
-7.61279e-07
-6.16401e-07
-4.07909e-07
-1.18165e-07
2.71808e-07
7.79751e-07
1.41828e-06
2.13141e-06
2.7861e-06
3.31807e-06
3.73381e-06
4.04723e-06
4.27544e-06
4.43555e-06
4.54302e-06
4.61097e-06
4.64997e-06
4.66833e-06
4.67242e-06
4.66696e-06
4.65504e-06
4.63887e-06
4.62384e-06
-1.41884e-06
-1.43638e-06
-1.45534e-06
-1.46955e-06
-1.47659e-06
-1.47317e-06
-1.45424e-06
-1.41297e-06
-1.34043e-06
-1.22505e-06
-1.05232e-06
-8.04705e-07
-4.62138e-07
-3.33171e-09
5.9146e-07
1.33648e-06
2.16796e-06
2.93476e-06
3.56237e-06
4.05689e-06
4.43276e-06
4.70844e-06
4.90305e-06
5.03436e-06
5.11773e-06
5.16582e-06
5.18865e-06
5.19399e-06
5.18762e-06
5.17332e-06
5.15385e-06
5.13572e-06
-2.1667e-06
-2.18885e-06
-2.21279e-06
-2.23066e-06
-2.23936e-06
-2.23471e-06
-2.21034e-06
-2.15771e-06
-2.0657e-06
-1.92018e-06
-1.70363e-06
-1.39535e-06
-9.72184e-07
-4.10182e-07
3.12607e-07
1.21243e-06
2.21506e-06
3.14539e-06
3.91505e-06
4.52922e-06
5.00213e-06
5.35319e-06
5.60361e-06
5.77406e-06
5.88311e-06
5.94649e-06
5.97698e-06
5.98461e-06
5.97691e-06
5.95886e-06
5.93406e-06
5.91093e-06
-3.24031e-06
-3.26983e-06
-3.30164e-06
-3.32522e-06
-3.33637e-06
-3.32949e-06
-3.29613e-06
-3.22512e-06
-3.10218e-06
-2.90951e-06
-2.62571e-06
-2.22637e-06
-1.68527e-06
-9.76321e-07
-7.60467e-08
1.0338e-06
2.2665e-06
3.41923e-06
4.38728e-06
5.17422e-06
5.79226e-06
6.25984e-06
6.59909e-06
6.83335e-06
6.98507e-06
7.07429e-06
7.11797e-06
7.12981e-06
7.12023e-06
7.09622e-06
7.06285e-06
7.0316e-06
-4.59273e-06
-4.6332e-06
-4.67663e-06
-4.70849e-06
-4.72294e-06
-4.71221e-06
-4.66489e-06
-4.56618e-06
-4.39769e-06
-4.13734e-06
-3.75977e-06
-3.23767e-06
-2.54358e-06
-1.65174e-06
-5.39475e-07
8.12626e-07
2.30626e-06
3.71466e-06
4.91937e-06
5.92263e-06
6.73206e-06
7.36123e-06
7.82929e-06
8.15963e-06
8.37755e-06
8.50784e-06
8.573e-06
8.59212e-06
8.58015e-06
8.54729e-06
8.50092e-06
8.4573e-06
-6.14044e-06
-6.19654e-06
-6.25647e-06
-6.29974e-06
-6.31799e-06
-6.30038e-06
-6.23143e-06
-6.09181e-06
-5.85864e-06
-5.50588e-06
-5.00572e-06
-4.33072e-06
-3.45588e-06
-2.3597e-06
-1.02328e-06
5.73091e-07
2.32312e-06
3.98565e-06
5.43594e-06
6.67755e-06
7.71259e-06
8.54555e-06
9.18671e-06
9.6536e-06
9.97013e-06
1.0164e-05
1.02637e-05
1.02955e-05
1.02809e-05
1.02353e-05
1.01698e-05
1.0108e-05
-7.87636e-06
-7.95554e-06
-8.03945e-06
-8.09856e-06
-8.12056e-06
-8.09015e-06
-7.98653e-06
-7.78527e-06
-7.45941e-06
-6.98078e-06
-6.32237e-06
-5.46105e-06
-4.37911e-06
-3.06334e-06
-1.50082e-06
3.28438e-07
2.31466e-06
4.21248e-06
5.90007e-06
7.38742e-06
8.67348e-06
9.75202e-06
1.06187e-05
1.12769e-05
1.17408e-05
1.20352e-05
1.21923e-05
1.22469e-05
1.22303e-05
1.21659e-05
1.20712e-05
1.19811e-05
-9.80751e-06
-9.92198e-06
-1.00418e-05
-1.01228e-05
-1.01465e-05
-1.00911e-05
-9.9298e-06
-9.63365e-06
-9.17415e-06
-8.52515e-06
-7.66588e-06
-6.58328e-06
-5.27172e-06
-3.72898e-06
-1.94836e-06
9.17341e-08
2.28268e-06
4.38353e-06
6.28379e-06
8.00631e-06
9.55314e-06
1.09108e-05
1.20587e-05
1.29781e-05
1.36611e-05
1.41172e-05
1.43743e-05
1.44733e-05
1.44583e-05
1.43656e-05
1.42239e-05
1.40881e-05
-1.19546e-05
-1.21251e-05
-1.23e-05
-1.24101e-05
-1.24273e-05
-1.23224e-05
-1.20634e-05
-1.1621e-05
-1.0971e-05
-1.00965e-05
-8.98972e-06
-7.65354e-06
-6.09735e-06
-4.32978e-06
-2.34803e-06
-1.26231e-07
2.23218e-06
4.49608e-06
6.57179e-06
8.50042e-06
1.02956e-05
1.19461e-05
1.34216e-05
1.46799e-05
1.56797e-05
1.63955e-05
1.6831e-05
1.70218e-05
1.70229e-05
1.68891e-05
1.66687e-05
1.64534e-05
-1.43649e-05
-1.46272e-05
-1.48861e-05
-1.50294e-05
-1.50163e-05
-1.48127e-05
-1.43889e-05
-1.37249e-05
-1.28109e-05
-1.16477e-05
-1.0248e-05
-8.63359e-06
-6.82843e-06
-4.84823e-06
-2.6893e-06
-3.1817e-07
2.16971e-06
4.55508e-06
6.76256e-06
8.85359e-06
1.08604e-05
1.27867e-05
1.46081e-05
1.62721e-05
1.77039e-05
1.88241e-05
1.9579e-05
1.99657e-05
2.0032e-05
1.98494e-05
1.94976e-05
1.91397e-05
-1.71422e-05
-1.75526e-05
-1.79317e-05
-1.80936e-05
-1.79884e-05
-1.75933e-05
-1.68989e-05
-1.59106e-05
-1.46447e-05
-1.3128e-05
-1.13973e-05
-9.49276e-06
-7.447e-06
-5.27567e-06
-2.96807e-06
-4.80021e-07
2.10239e-06
4.5711e-06
6.86701e-06
9.06986e-06
1.12326e-05
1.33831e-05
1.55223e-05
1.76153e-05
1.95803e-05
2.1288e-05
2.25926e-05
2.33911e-05
2.36659e-05
2.34725e-05
2.29246e-05
2.23208e-05
-2.0515e-05
-2.11459e-05
-2.16636e-05
-2.17675e-05
-2.14291e-05
-2.06785e-05
-1.95581e-05
-1.81159e-05
-1.64029e-05
-1.44756e-05
-1.23928e-05
-1.02046e-05
-7.94117e-06
-5.60877e-06
-3.1837e-06
-6.09263e-07
2.03781e-06
4.55853e-06
6.90597e-06
9.17325e-06
1.14305e-05
1.37308e-05
1.61114e-05
1.85858e-05
2.11169e-05
2.3579e-05
2.57431e-05
2.73388e-05
2.81658e-05
2.81541e-05
2.74024e-05
2.64354e-05
-2.49495e-05
-2.5848e-05
-2.64272e-05
-2.62427e-05
-2.5382e-05
-2.40078e-05
-2.22506e-05
-2.0209e-05
-1.79664e-05
-1.5601e-05
-1.31788e-05
-1.0741e-05
-8.30065e-06
-5.84576e-06
-3.3364e-06
-7.03666e-07
1.9837e-06
4.53312e-06
6.90547e-06
9.20176e-06
1.15031e-05
1.38821e-05
1.64097e-05
1.91623e-05
2.2196e-05
2.54816e-05
2.88014e-05
3.17266e-05
3.37452e-05
3.44403e-05
3.3706e-05
3.23475e-05
-3.12953e-05
-3.23575e-05
-3.26399e-05
-3.16194e-05
-2.9715e-05
-2.73301e-05
-2.46967e-05
-2.19428e-05
-1.91529e-05
-1.63917e-05
-1.36975e-05
-1.10792e-05
-8.52041e-06
-5.98833e-06
-3.42845e-06
-7.62684e-07
1.94565e-06
4.5078e-06
6.88868e-06
9.19329e-06
1.15088e-05
1.39206e-05
1.6524e-05
1.94566e-05
2.28835e-05
2.69475e-05
3.15926e-05
3.63828e-05
4.04965e-05
4.29235e-05
4.2941e-05
4.14738e-05
-4.1083e-05
-4.16861e-05
-4.06398e-05
-3.76954e-05
-3.39583e-05
-3.01237e-05
-2.64541e-05
-2.30115e-05
-1.97895e-05
-1.67709e-05
-1.39273e-05
-1.1222e-05
-8.61134e-06
-6.0474e-06
-3.46773e-06
-7.90093e-07
1.9245e-06
4.48875e-06
6.86899e-06
9.1719e-06
1.14879e-05
1.39102e-05
1.65571e-05
1.96102e-05
2.3341e-05
2.80894e-05
3.40838e-05
4.11346e-05
4.8371e-05
5.41427e-05
5.65698e-05
5.60898e-05
-5.68728e-05
-5.50628e-05
-5.03379e-05
-4.37188e-05
-3.72498e-05
-3.17044e-05
-2.71062e-05
-2.3227e-05
-1.98319e-05
-1.67599e-05
-1.39081e-05
-1.12072e-05
-8.6026e-06
-6.04355e-06
-3.46781e-06
-7.9395e-07
1.91643e-06
4.47554e-06
6.84947e-06
9.14497e-06
1.14543e-05
1.38758e-05
1.65439e-05
1.96756e-05
2.36265e-05
2.89215e-05
3.61413e-05
4.56081e-05
5.6916e-05
6.81522e-05
7.59935e-05
7.92229e-05
-8.37357e-05
-7.35197e-05
-6.02717e-05
-4.79461e-05
-3.83596e-05
-3.14554e-05
-2.64777e-05
-2.26341e-05
-1.93914e-05
-1.64653e-05
-1.37202e-05
-1.10897e-05
-8.53007e-06
-5.99981e-06
-3.44327e-06
-7.83339e-07
1.91577e-06
4.46454e-06
6.8275e-06
9.11015e-06
1.14045e-05
1.38102e-05
1.64684e-05
1.96124e-05
2.36431e-05
2.92112e-05
3.7232e-05
4.87407e-05
6.4414e-05
8.33689e-05
0.000102142
0.000116201
-0.000144518
-9.86689e-05
-6.64972e-05
-4.76e-05
-3.61216e-05
-2.91658e-05
-2.47447e-05
-2.14797e-05
-1.86677e-05
-1.60214e-05
-1.34474e-05
-1.09205e-05
-8.42495e-06
-5.93541e-06
-3.40601e-06
-7.65626e-07
1.91791e-06
4.45268e-06
6.80072e-06
9.06501e-06
1.13348e-05
1.37061e-05
1.63139e-05
1.93811e-05
2.32938e-05
2.87124e-05
3.67076e-05
4.89346e-05
6.76929e-05
9.56623e-05
0.000137108
0.000192254
-0.000268119
-0.000130726
-6.84309e-05
-4.41942e-05
-3.22773e-05
-2.62173e-05
-2.28352e-05
-2.03263e-05
-1.7986e-05
-1.56152e-05
-1.31998e-05
-1.07666e-05
-8.32859e-06
-5.87594e-06
-3.3713e-06
-7.48913e-07
1.92023e-06
4.44189e-06
6.77579e-06
9.0221e-06
1.12665e-05
1.35988e-05
1.61419e-05
1.90931e-05
2.27901e-05
2.78208e-05
3.52184e-05
4.69246e-05
6.67866e-05
0.000102782
0.000178545
0.000327648
)
;

boundaryField
{
    movingWall
    {
        type            zeroGradient;
    }
    fixedWalls
    {
        type            zeroGradient;
    }
    frontAndBack
    {
        type            empty;
    }
}


// ************************************************************************* //
