/*--------------------------------*- C++ -*----------------------------------*\
| =========                 |                                                 |
| \\      /  F ield         | OpenFOAM: The Open Source CFD Toolbox           |
|  \\    /   O peration     | Version:  2206                                  |
|   \\  /    A nd           | Website:  www.openfoam.com                      |
|    \\/     M anipulation  |                                                 |
\*---------------------------------------------------------------------------*/
FoamFile
{
    version     2.0;
    format      ascii;
    arch        "LSB;label=64;scalar=64";
    class       volVectorField;
    location    "14";
    object      U_0;
}
// * * * * * * * * * * * * * * * * * * * * * * * * * * * * * * * * * * * * * //

dimensions      [0 1 -1 0 0 0 0];

internalField   nonuniform List<vector> 
1024
(
(2.75826e-08 -2.76454e-08 0)
(3.65624e-08 -1.09766e-08 0)
(-1.03516e-07 2.1518e-08 0)
(-4.62088e-07 5.0784e-08 0)
(-1.06106e-06 7.12274e-08 0)
(-1.88963e-06 8.25895e-08 0)
(-2.91977e-06 8.69629e-08 0)
(-4.12433e-06 8.72214e-08 0)
(-5.48801e-06 8.54425e-08 0)
(-7.00326e-06 8.23221e-08 0)
(-8.65681e-06 7.7664e-08 0)
(-1.04155e-05 7.09523e-08 0)
(-1.22137e-05 6.1663e-08 0)
(-1.39362e-05 4.91471e-08 0)
(-1.5405e-05 3.30772e-08 0)
(-1.63455e-05 1.27808e-08 0)
(-1.63881e-05 -1.0316e-08 0)
(-1.5518e-05 -3.11687e-08 0)
(-1.40913e-05 -4.80283e-08 0)
(-1.23857e-05 -6.1379e-08 0)
(-1.05854e-05 -7.14247e-08 0)
(-8.81231e-06 -7.87565e-08 0)
(-7.13749e-06 -8.38831e-08 0)
(-5.59814e-06 -8.73274e-08 0)
(-4.21024e-06 -8.92956e-08 0)
(-2.98311e-06 -8.90974e-08 0)
(-1.93318e-06 -8.46561e-08 0)
(-1.08826e-06 -7.30985e-08 0)
(-4.7673e-07 -5.2328e-08 0)
(-1.09533e-07 -2.25841e-08 0)
(3.53212e-08 1.05657e-08 0)
(2.77844e-08 2.77726e-08 0)
(1.09787e-08 -3.66884e-08 0)
(-1.31968e-07 1.3206e-07 0)
(-6.48488e-07 4.08276e-07 0)
(-1.69831e-06 6.77956e-07 0)
(-3.35664e-06 8.82743e-07 0)
(-5.62608e-06 1.00539e-06 0)
(-8.45628e-06 1.05666e-06 0)
(-1.17847e-05 1.06051e-06 0)
(-1.55684e-05 1.03745e-06 0)
(-1.9781e-05 9.96125e-07 0)
(-2.43803e-05 9.35641e-07 0)
(-2.9271e-05 8.50906e-07 0)
(-3.42689e-05 7.3561e-07 0)
(-3.90523e-05 5.8318e-07 0)
(-4.31253e-05 3.88015e-07 0)
(-4.57258e-05 1.45547e-07 0)
(-4.58298e-05 -1.23641e-07 0)
(-4.34017e-05 -3.70816e-07 0)
(-3.94318e-05 -5.72974e-07 0)
(-3.469e-05 -7.32858e-07 0)
(-2.96874e-05 -8.54972e-07 0)
(-2.47619e-05 -9.45354e-07 0)
(-2.01109e-05 -1.01016e-06 0)
(-1.58398e-05 -1.05453e-06 0)
(-1.19971e-05 -1.07943e-06 0)
(-8.61387e-06 -1.07626e-06 0)
(-5.73567e-06 -1.02451e-06 0)
(-3.42664e-06 -9.00242e-07 0)
(-1.73782e-06 -6.92657e-07 0)
(-6.66672e-07 -4.19012e-07 0)
(-1.37558e-07 -1.37902e-07 0)
(1.06569e-08 3.53528e-08 0)
(-2.13914e-08 1.03106e-07 0)
(-4.08007e-07 6.48359e-07 0)
(-1.37751e-06 1.37711e-06 0)
(-3.12771e-06 2.08935e-06 0)
(-5.7674e-06 2.65076e-06 0)
(-9.3273e-06 3.00401e-06 0)
(-1.37607e-05 3.16272e-06 0)
(-1.89891e-05 3.18249e-06 0)
(-2.49496e-05 3.11752e-06 0)
(-3.15954e-05 2.99365e-06 0)
(-3.88545e-05 2.81028e-06 0)
(-4.65725e-05 2.55363e-06 0)
(-5.44557e-05 2.20532e-06 0)
(-6.19959e-05 1.74623e-06 0)
(-6.84088e-05 1.15916e-06 0)
(-7.24931e-05 4.31888e-07 0)
(-7.26395e-05 -3.72704e-07 0)
(-6.87978e-05 -1.11261e-06 0)
(-6.25303e-05 -1.71854e-06 0)
(-5.50489e-05 -2.19777e-06 0)
(-4.71593e-05 -2.56452e-06 0)
(-3.93927e-05 -2.83647e-06 0)
(-3.20613e-05 -3.03158e-06 0)
(-2.53333e-05 -3.16372e-06 0)
(-1.92903e-05 -3.2337e-06 0)
(-1.39851e-05 -3.21578e-06 0)
(-9.48458e-06 -3.05581e-06 0)
(-5.86936e-06 -2.69824e-06 0)
(-3.18687e-06 -2.12956e-06 0)
(-1.40619e-06 -1.40732e-06 0)
(-4.17851e-07 -6.66548e-07 0)
(-2.23057e-08 -1.08945e-07 0)
(-5.06033e-08 4.61316e-07 0)
(-6.78977e-07 1.69885e-06 0)
(-2.09495e-06 3.12806e-06 0)
(-4.50401e-06 4.49303e-06 0)
(-8.01622e-06 5.58424e-06 0)
(-1.26794e-05 6.29214e-06 0)
(-1.84602e-05 6.6265e-06 0)
(-2.52803e-05 6.68009e-06 0)
(-3.30674e-05 6.55265e-06 0)
(-4.17594e-05 6.29556e-06 0)
(-5.12569e-05 5.90963e-06 0)
(-6.13534e-05 5.36803e-06 0)
(-7.16618e-05 4.63325e-06 0)
(-8.15157e-05 3.66591e-06 0)
(-8.98874e-05 2.42982e-06 0)
(-9.52075e-05 9.01041e-07 0)
(-9.53792e-05 -7.87015e-07 0)
(-9.03435e-05 -2.34008e-06 0)
(-8.21422e-05 -3.61249e-06 0)
(-7.23576e-05 -4.61862e-06 0)
(-6.2042e-05 -5.38894e-06 0)
(-5.18885e-05 -5.96004e-06 0)
(-4.23065e-05 -6.36862e-06 0)
(-3.35183e-05 -6.64165e-06 0)
(-2.56346e-05 -6.77871e-06 0)
(-1.87248e-05 -6.72861e-06 0)
(-1.28658e-05 -6.39176e-06 0)
(-8.138e-06 -5.67566e-06 0)
(-4.5756e-06 -4.57099e-06 0)
(-2.13032e-06 -3.1878e-06 0)
(-6.91436e-07 -1.73661e-06 0)
(-5.18341e-08 -4.74791e-07 0)
(-7.12866e-08 1.0617e-06 0)
(-8.88952e-07 3.36441e-06 0)
(-2.67353e-06 5.77935e-06 0)
(-5.6324e-06 8.01163e-06 0)
(-9.85988e-06 9.79192e-06 0)
(-1.54025e-05 1.09641e-05 0)
(-2.22347e-05 1.15354e-05 0)
(-3.02846e-05 1.16397e-05 0)
(-3.94797e-05 1.14294e-05 0)
(-4.97492e-05 1.09867e-05 0)
(-6.09727e-05 1.03139e-05 0)
(-7.29026e-05 9.36665e-06 0)
(-8.50778e-05 8.08129e-06 0)
(-9.67094e-05 6.39022e-06 0)
(-0.000106582 4.23071e-06 0)
(-0.000112844 1.56304e-06 0)
(-0.000113028 -1.37905e-06 0)
(-0.000107071 -4.08592e-06 0)
(-9.73816e-05 -6.30402e-06 0)
(-8.58243e-05 -8.05768e-06 0)
(-7.36414e-05 -9.40041e-06 0)
(-6.16505e-05 -1.03952e-05 0)
(-5.03362e-05 -1.11046e-05 0)
(-3.99635e-05 -1.1573e-05 0)
(-3.06648e-05 -1.17987e-05 0)
(-2.25187e-05 -1.16999e-05 0)
(-1.56026e-05 -1.11245e-05 0)
(-9.99084e-06 -9.93925e-06 0)
(-5.70953e-06 -8.13785e-06 0)
(-2.71168e-06 -5.87728e-06 0)
(-9.02372e-07 -3.42777e-06 0)
(-7.26184e-08 -1.08526e-06 0)
(-8.3459e-08 1.89859e-06 0)
(-1.02383e-06 5.66227e-06 0)
(-3.06523e-06 9.38541e-06 0)
(-6.42284e-06 1.27245e-05 0)
(-1.11763e-05 1.53579e-05 0)
(-1.73602e-05 1.70956e-05 0)
(-2.49465e-05 1.79543e-05 0)
(-3.38668e-05 1.8119e-05 0)
(-4.40516e-05 1.78015e-05 0)
(-5.54271e-05 1.71179e-05 0)
(-6.78594e-05 1.60702e-05 0)
(-8.10715e-05 1.45915e-05 0)
(-9.45498e-05 1.25847e-05 0)
(-0.000107419 9.94603e-06 0)
(-0.000118333 6.57888e-06 0)
(-0.000125245 2.42353e-06 0)
(-0.000125435 -2.15576e-06 0)
(-0.000118838 -6.36824e-06 0)
(-0.000108113 -9.82067e-06 0)
(-9.53208e-05 -1.25505e-05 0)
(-8.18347e-05 -1.46408e-05 0)
(-6.85594e-05 -1.61887e-05 0)
(-5.6033e-05 -1.72896e-05 0)
(-4.45507e-05 -1.80106e-05 0)
(-3.42585e-05 -1.83504e-05 0)
(-2.52386e-05 -1.81935e-05 0)
(-1.75655e-05 -1.73286e-05 0)
(-1.13102e-05 -1.5572e-05 0)
(-6.5013e-06 -1.29084e-05 0)
(-3.10375e-06 -9.52883e-06 0)
(-1.03723e-06 -5.75593e-06 0)
(-8.47729e-08 -1.93388e-06 0)
(-8.95272e-08 2.95457e-06 0)
(-1.09819e-06 8.57225e-06 0)
(-3.29517e-06 1.39479e-05 0)
(-6.90927e-06 1.86624e-05 0)
(-1.20149e-05 2.2333e-05 0)
(-1.86345e-05 2.47436e-05 0)
(-2.67315e-05 2.59367e-05 0)
(-3.62348e-05 2.6165e-05 0)
(-4.70759e-05 2.5711e-05 0)
(-5.91801e-05 2.47272e-05 0)
(-7.24057e-05 2.32131e-05 0)
(-8.64564e-05 2.1073e-05 0)
(-0.000100783 1.81688e-05 0)
(-0.000114455 1.43525e-05 0)
(-0.000126041 9.48674e-06 0)
(-0.00013337 3.48736e-06 0)
(-0.000133566 -3.12076e-06 0)
(-0.000126562 -9.19845e-06 0)
(-0.000115172 -1.41809e-05 0)
(-0.00010158 -1.8122e-05 0)
(-8.72453e-05 -2.11405e-05 0)
(-7.31293e-05 -2.33756e-05 0)
(-5.98063e-05 -2.49627e-05 0)
(-4.75911e-05 -2.59976e-05 0)
(-3.66385e-05 -2.64821e-05 0)
(-2.70317e-05 -2.62642e-05 0)
(-1.88447e-05 -2.50624e-05 0)
(-1.21512e-05 -2.26256e-05 0)
(-6.9886e-06 -1.89136e-05 0)
(-3.33376e-06 -1.41439e-05 0)
(-1.11146e-06 -8.70048e-06 0)
(-9.08101e-08 -3.003e-06 0)
(-9.27523e-08 4.22212e-06 0)
(-1.14075e-06 1.20872e-05 0)
(-3.43336e-06 1.94769e-05 0)
(-7.21486e-06 2.58643e-05 0)
(-1.25622e-05 3.0785e-05 0)
(-1.94914e-05 3.39944e-05 0)
(-2.79568e-05 3.55751e-05 0)
(-3.78806e-05 3.58684e-05 0)
(-4.91915e-05 3.5243e-05 0)
(-6.18126e-05 3.38939e-05 0)
(-7.55961e-05 3.18149e-05 0)
(-9.02321e-05 2.88749e-05 0)
(-0.000105146 2.48871e-05 0)
(-0.000119368 1.96509e-05 0)
(-0.00013141 1.29816e-05 0)
(-0.000139022 4.76578e-06 0)
(-0.000139229 -4.2806e-06 0)
(-0.000131963 -1.26e-05 0)
(-0.000120128 -1.94237e-05 0)
(-0.000105992 -2.4825e-05 0)
(-9.10707e-05 -2.89643e-05 0)
(-7.63657e-05 -3.20302e-05 0)
(-6.24785e-05 -3.42059e-05 0)
(-4.97391e-05 -3.56229e-05 0)
(-3.83092e-05 -3.62886e-05 0)
(-2.82748e-05 -3.60089e-05 0)
(-1.97134e-05 -3.44161e-05 0)
(-1.27055e-05 -3.11715e-05 0)
(-7.29777e-06 -2.61955e-05 0)
(-3.47344e-06 -1.97349e-05 0)
(-1.15443e-06 -1.22556e-05 0)
(-9.40642e-08 -4.28559e-06 0)
(-9.57317e-08 5.72001e-06 0)
(-1.17832e-06 1.62606e-05 0)
(-3.55301e-06 2.6063e-05 0)
(-7.47925e-06 3.44602e-05 0)
(-1.30401e-05 4.08808e-05 0)
(-2.02496e-05 4.50429e-05 0)
(-2.90554e-05 4.70787e-05 0)
(-3.93721e-05 4.744e-05 0)
(-5.11223e-05 4.66021e-05 0)
(-6.4224e-05 4.48111e-05 0)
(-7.85219e-05 4.20534e-05 0)
(-9.36917e-05 3.81556e-05 0)
(-0.000109135 3.28731e-05 0)
(-0.000123847 2.59445e-05 0)
(-0.000136291 1.71311e-05 0)
(-0.000144151 6.28548e-06 0)
(-0.000144379 -5.65312e-06 0)
(-0.000136899 -1.66335e-05 0)
(-0.000124685 -2.56475e-05 0)
(-0.00011007 -3.27912e-05 0)
(-9.46194e-05 -3.82715e-05 0)
(-7.93742e-05 -4.2334e-05 0)
(-6.4962e-05 -4.52183e-05 0)
(-5.17292e-05 -4.70984e-05 0)
(-3.98469e-05 -4.79892e-05 0)
(-2.94073e-05 -4.76453e-05 0)
(-2.04948e-05 -4.55931e-05 0)
(-1.31981e-05 -4.13841e-05 0)
(-7.5704e-06 -3.48903e-05 0)
(-3.59695e-06 -2.63972e-05 0)
(-1.19329e-06 -1.64781e-05 0)
(-9.71629e-08 -5.80173e-06 0)
(-9.98821e-08 7.49839e-06 0)
(-1.22817e-06 2.12281e-05 0)
(-3.70577e-06 3.39177e-05 0)
(-7.808e-06 4.47272e-05 0)
(-1.36247e-05 5.29507e-05 0)
(-2.11701e-05 5.82561e-05 0)
(-3.03865e-05 6.08338e-05 0)
(-4.11807e-05 6.12696e-05 0)
(-5.34667e-05 6.01684e-05 0)
(-6.71545e-05 5.78395e-05 0)
(-8.20767e-05 5.42613e-05 0)
(-9.78898e-05 4.92105e-05 0)
(-0.000113965 4.23755e-05 0)
(-0.000129255 3.34252e-05 0)
(-0.000142171 2.20606e-05 0)
(-0.000150322 8.09478e-06 0)
(-0.000150582 -7.27254e-06 0)
(-0.000142866 -2.14125e-05 0)
(-0.000130217 -3.3037e-05 0)
(-0.000115041 -4.22668e-05 0)
(-9.89601e-05 -4.93597e-05 0)
(-8.30619e-05 -5.46259e-05 0)
(-6.80087e-05 -5.83701e-05 0)
(-5.41698e-05 -6.08158e-05 0)
(-4.17308e-05 -6.19864e-05 0)
(-3.07943e-05 -6.15733e-05 0)
(-2.1454e-05 -5.89734e-05 0)
(-1.38076e-05 -5.36057e-05 0)
(-7.91342e-06 -4.52857e-05 0)
(-3.75655e-06 -3.43506e-05 0)
(-1.24547e-06 -2.15092e-05 0)
(-1.01536e-07 -7.60368e-06 0)
(-1.0598e-07 9.63976e-06 0)
(-1.30115e-06 2.72166e-05 0)
(-3.92626e-06 4.33958e-05 0)
(-8.27582e-06 5.71257e-05 0)
(-1.44468e-05 6.75343e-05 0)
(-2.24538e-05 7.42249e-05 0)
(-3.22334e-05 7.74559e-05 0)
(-4.36826e-05 7.79741e-05 0)
(-5.67046e-05 7.65428e-05 0)
(-7.11967e-05 7.35489e-05 0)
(-8.69731e-05 6.89631e-05 0)
(-0.000103661 6.25038e-05 0)
(-0.000120589 5.37828e-05 0)
(-0.000136654 4.23909e-05 0)
(-0.000150195 2.79629e-05 0)
(-0.000158733 1.02679e-05 0)
(-0.000159042 -9.19092e-06 0)
(-0.000151023 -2.71116e-05 0)
(-0.000137805 -4.18777e-05 0)
(-0.000121881 -5.36354e-05 0)
(-0.00010495 -6.26956e-05 0)
(-8.81625e-05 -6.94395e-05 0)
(-7.22301e-05 -7.42456e-05 0)
(-5.75564e-05 -7.73948e-05 0)
(-4.43497e-05 -7.89185e-05 0)
(-3.27281e-05 -7.84303e-05 0)
(-2.27984e-05 -7.51696e-05 0)
(-1.46687e-05 -6.83956e-05 0)
(-8.40373e-06 -5.78588e-05 0)
(-3.98788e-06 -4.39628e-05 0)
(-1.32216e-06 -2.7584e-05 0)
(-1.07986e-07 -9.7771e-06 0)
(-1.1488e-07 1.22682e-05 0)
(-1.40833e-06 3.4571e-05 0)
(-4.24906e-06 5.50403e-05 0)
(-8.95729e-06 7.23631e-05 0)
(-1.56385e-05 8.546e-05 0)
(-2.43069e-05 9.38527e-05 0)
(-3.48907e-05 9.78803e-05 0)
(-4.72732e-05 9.84871e-05 0)
(-6.13418e-05 9.66304e-05 0)
(-7.69741e-05 9.27937e-05 0)
(-9.3956e-05 8.69404e-05 0)
(-0.000111871 7.87221e-05 0)
(-0.000129985 6.76645e-05 0)
(-0.000147115 5.32739e-05 0)
(-0.000161506 3.5116e-05 0)
(-0.00017057 1.29125e-05 0)
(-0.000170953 -1.14797e-05 0)
(-0.000162535 -3.39783e-05 0)
(-0.000148551 -5.25815e-05 0)
(-0.000131604 -6.74578e-05 0)
(-0.000113494 -7.89694e-05 0)
(-9.54595e-05 -8.75712e-05 0)
(-7.82841e-05 -9.37231e-05 0)
(-6.24238e-05 -9.77713e-05 0)
(-4.81218e-05 -9.97541e-05 0)
(-3.55205e-05 -9.91887e-05 0)
(-2.47457e-05 -9.51207e-05 0)
(-1.59211e-05 -8.66152e-05 0)
(-9.12018e-06 -7.33448e-05 0)
(-4.32753e-06 -5.57984e-05 0)
(-1.43508e-06 -3.50615e-05 0)
(-1.17433e-07 -1.24512e-05 0)
(-1.27873e-07 1.55725e-05 0)
(-1.566e-06 4.38185e-05 0)
(-4.72379e-06 6.96842e-05 0)
(-9.95774e-06 9.15257e-05 0)
(-1.73843e-05 0.000108001 0)
(-2.70158e-05 0.000118526 0)
(-3.87671e-05 0.000123539 0)
(-5.25002e-05 0.000124231 0)
(-6.80771e-05 0.000121803 0)
(-8.53441e-05 0.00011686 0)
(-0.000104041 0.000109359 0)
(-0.000123685 9.88785e-05 0)
(-0.000143449 8.48496e-05 0)
(-0.000162039 6.66943e-05 0)
(-0.00017758 4.39141e-05 0)
(-0.000187349 1.61829e-05 0)
(-0.000187843 -1.42323e-05 0)
(-0.000178912 -4.23549e-05 0)
(-0.000163911 -6.57319e-05 0)
(-0.000145574 -8.45461e-05 0)
(-0.000125829 -9.91983e-05 0)
(-0.000106038 -0.000110211 0)
(-8.70908e-05 -0.00011813 0)
(-6.9524e-05 -0.000123371 0)
(-5.36372e-05 -0.000125978 0)
(-3.96119e-05 -0.000125346 0)
(-2.76046e-05 -0.000120277 0)
(-1.77634e-05 -0.000109595 0)
(-1.01762e-05 -9.28793e-05 0)
(-4.82896e-06 -7.0728e-05 0)
(-1.60184e-06 -4.4493e-05 0)
(-1.31283e-07 -1.58239e-05 0)
(-1.47203e-07 1.98532e-05 0)
(-1.80101e-06 5.57989e-05 0)
(-5.43108e-06 8.86541e-05 0)
(-1.14465e-05 0.000116344 0)
(-1.99784e-05 0.000137182 0)
(-3.10347e-05 0.000150446 0)
(-4.45079e-05 0.000156699 0)
(-6.0224e-05 0.000157447 0)
(-7.80018e-05 0.000154204 0)
(-9.76339e-05 0.000147735 0)
(-0.000118784 0.000137998 0)
(-0.000140862 0.00012449 0)
(-0.000162903 0.000106553 0)
(-0.000183463 8.35412e-05 0)
(-0.000200518 5.49123e-05 0)
(-0.000211207 2.02997e-05 0)
(-0.000211871 -1.75631e-05 0)
(-0.00020232 -5.27029e-05 0)
(-0.000186019 -8.21486e-05 0)
(-0.000165833 -0.00010608 0)
(-0.000143844 -0.000124901 0)
(-0.000121582 -0.000139177 0)
(-0.000100096 -0.000149525 0)
(-8.005e-05 -0.000156435 0)
(-6.18376e-05 -0.000159945 0)
(-4.57084e-05 -0.000159289 0)
(-3.18718e-05 -0.00015296 0)
(-2.05171e-05 -0.000139471 0)
(-1.17566e-05 -0.000118285 0)
(-5.58017e-06 -9.01489e-05 0)
(-1.85176e-06 -5.67636e-05 0)
(-1.52014e-07 -2.02124e-05 0)
(-1.76625e-07 2.56063e-05 0)
(-2.15985e-06 7.18969e-05 0)
(-6.51091e-06 0.000114136 0)
(-1.37178e-05 0.000149665 0)
(-2.3931e-05 0.000176331 0)
(-3.71481e-05 0.000193216 0)
(-5.32207e-05 0.000201048 0)
(-7.19108e-05 0.000201751 0)
(-9.29579e-05 0.000197256 0)
(-0.000116055 0.000188543 0)
(-0.000140732 0.000175589 0)
(-0.00016622 0.000157825 0)
(-0.000191351 0.000134532 0)
(-0.000214478 0.000105051 0)
(-0.000233427 6.88594e-05 0)
(-0.000245243 2.55681e-05 0)
(-0.000246172 -2.15885e-05 0)
(-0.00023597 -6.55993e-05 0)
(-0.000218131 -0.000102933 0)
(-0.000195598 -0.000133734 0)
(-0.000170603 -0.000158335 0)
(-0.000144892 -0.000177263 0)
(-0.00011975 -0.000191162 0)
(-9.60515e-05 -0.000200569 0)
(-7.43582e-05 -0.000205493 0)
(-5.50452e-05 -0.000204946 0)
(-3.84205e-05 -0.000197006 0)
(-2.47489e-05 -0.000179782 0)
(-1.41876e-05 -0.000152589 0)
(-6.73624e-06 -0.000116384 0)
(-2.2363e-06 -7.33457e-05 0)
(-1.83808e-07 -2.6145e-05 0)
(-2.23366e-07 3.37027e-05 0)
(-2.73143e-06 9.45436e-05 0)
(-8.23062e-06 0.000149965 0)
(-1.73312e-05 0.000196477 0)
(-3.02087e-05 0.000231257 0)
(-4.68333e-05 0.000253103 0)
(-6.69755e-05 0.00026296 0)
(-9.0271e-05 0.000263326 0)
(-0.0001163 0.000256712 0)
(-0.000144558 0.000244416 0)
(-0.000174321 0.000226485 0)
(-0.000204518 0.000202342 0)
(-0.000233671 0.00017132 0)
(-0.000259899 0.000132896 0)
(-0.000280944 8.67101e-05 0)
(-0.000293952 3.23941e-05 0)
(-0.000295298 -2.6362e-05 0)
(-0.000284675 -8.16601e-05 0)
(-0.000265363 -0.000129464 0)
(-0.000240163 -0.000169844 0)
(-0.000211359 -0.00020289 0)
(-0.000180936 -0.000228908 0)
(-0.00015052 -0.000248414 0)
(-0.000121348 -0.000261899 0)
(-9.42934e-05 -0.000269268 0)
(-6.9986e-05 -0.000269199 0)
(-4.89353e-05 -0.000259193 0)
(-3.15584e-05 -0.000236804 0)
(-1.81046e-05 -0.000201171 0)
(-8.60022e-06 -0.000153566 0)
(-2.85627e-06 -9.68579e-05 0)
(-2.34935e-07 -3.45609e-05 0)
(-2.99134e-07 4.49433e-05 0)
(-3.64328e-06 0.000125969 0)
(-1.09669e-05 0.000199638 0)
(-2.30653e-05 0.000261278 0)
(-4.01382e-05 0.000307109 0)
(-6.20873e-05 0.000335504 0)
(-8.85134e-05 0.000347679 0)
(-0.000118792 0.000346911 0)
(-0.000152173 0.00033651 0)
(-0.000187745 0.00031826 0)
(-0.000224306 0.000292427 0)
(-0.000260287 0.000258641 0)
(-0.000293802 0.000216584 0)
(-0.000322809 0.00016622 0)
(-0.000345266 0.000107631 0)
(-0.000358922 4.05157e-05 0)
(-0.000360871 -3.12803e-05 0)
(-0.00035077 -9.96575e-05 0)
(-0.000331107 -0.000160456 0)
(-0.000303987 -0.000213683 0)
(-0.00027137 -0.000258916 0)
(-0.000235335 -0.000295833 0)
(-0.000197925 -0.000324442 0)
(-0.00016095 -0.000344885 0)
(-0.000125874 -0.000356745 0)
(-9.38523e-05 -0.00035815 0)
(-6.5826e-05 -0.000345792 0)
(-4.25383e-05 -0.0003165 0)
(-2.44373e-05 -0.000269216 0)
(-1.16204e-05 -0.000205711 0)
(-3.8631e-06 -0.000129858 0)
(-3.19415e-07 -4.638e-05 0)
(-4.11998e-07 5.92246e-05 0)
(-4.99881e-06 0.000165854 0)
(-1.50279e-05 0.000262583 0)
(-3.15512e-05 0.000343174 0)
(-5.47682e-05 0.000402569 0)
(-8.44161e-05 0.000438538 0)
(-0.000119747 0.000452594 0)
(-0.000159616 0.000448973 0)
(-0.00020262 0.000432042 0)
(-0.000247099 0.00040435 0)
(-0.000291069 0.000366743 0)
(-0.00033229 0.000319535 0)
(-0.000368549 0.000263315 0)
(-0.000398019 0.000199031 0)
(-0.000419511 0.000127485 0)
(-0.000432222 4.83884e-05 0)
(-0.00043486 -3.49138e-05 0)
(-0.000427146 -0.000115397 0)
(-0.000409988 -0.00018961 0)
(-0.000383917 -0.000257729 0)
(-0.000349787 -0.000318649 0)
(-0.000309219 -0.000370925 0)
(-0.000264459 -0.000413386 0)
(-0.000218012 -0.000445174 0)
(-0.000172286 -0.000465007 0)
(-0.000129417 -0.000470055 0)
(-9.12268e-05 -0.000455897 0)
(-5.91428e-05 -0.000418483 0)
(-3.40445e-05 -0.00035662 0)
(-1.62095e-05 -0.000272838 0)
(-5.3936e-06 -0.000172394 0)
(-4.48111e-07 -6.16294e-05 0)
(-5.71269e-07 7.63801e-05 0)
(-6.93291e-06 0.000213702 0)
(-2.08186e-05 0.000337921 0)
(-4.36113e-05 0.000440808 0)
(-7.54305e-05 0.000515645 0)
(-0.000115645 0.000559375 0)
(-0.000162815 0.000573803 0)
(-0.000214821 0.000564345 0)
(-0.000269104 0.000536805 0)
(-0.00032282 0.000495021 0)
(-0.000372959 0.000441084 0)
(-0.000416704 0.000376736 0)
(-0.000451964 0.000304129 0)
(-0.000477863 0.000225567 0)
(-0.000494894 0.00014258 0)
(-0.000504488 5.46058e-05 0)
(-0.000507714 -3.62832e-05 0)
(-0.000504516 -0.000125409 0)
(-0.000493681 -0.000211018 0)
(-0.000473436 -0.000294008 0)
(-0.000442596 -0.000372858 0)
(-0.000401327 -0.000444793 0)
(-0.000351299 -0.000506779 0)
(-0.000295386 -0.000555977 0)
(-0.000237119 -0.00058922 0)
(-0.00018018 -0.000601862 0)
(-0.000128005 -0.000587804 0)
(-8.33901e-05 -0.000541917 0)
(-4.81323e-05 -0.000463019 0)
(-2.29449e-05 -0.000354799 0)
(-7.63509e-06 -0.000224405 0)
(-6.33857e-07 -8.02887e-05 0)
(-8.08381e-07 9.72089e-05 0)
(-9.79004e-06 0.000271703 0)
(-2.9339e-05 0.000428955 0)
(-6.12403e-05 0.000558095 0)
(-0.000105329 0.000650172 0)
(-0.00016017 0.000700978 0)
(-0.000222977 0.000712674 0)
(-0.000289872 0.000692328 0)
(-0.000356432 0.000647974 0)
(-0.000418198 0.000585744 0)
(-0.000471195 0.000510052 0)
(-0.000512601 0.000424975 0)
(-0.000541406 0.000334712 0)
(-0.000558694 0.000242871 0)
(-0.000567402 0.000151263 0)
(-0.000571642 5.85249e-05 0)
(-0.0005752 -3.51865e-05 0)
(-0.000578391 -0.000128349 0)
(-0.000577804 -0.000221695 0)
(-0.000569123 -0.000317627 0)
(-0.00054843 -0.000415066 0)
(-0.000513206 -0.000510407 0)
(-0.000463102 -0.000598532 0)
(-0.000400188 -0.000673577 0)
(-0.000328664 -0.00072887 0)
(-0.000254168 -0.000756205 0)
(-0.000182813 -0.000746458 0)
(-0.000120034 -0.000692809 0)
(-6.95859e-05 -0.000594256 0)
(-3.32331e-05 -0.000456324 0)
(-1.10574e-05 -0.000288924 0)
(-9.17816e-07 -0.000103434 0)
(-1.17431e-06 0.00012306 0)
(-1.41781e-05 0.000343503 0)
(-4.23458e-05 0.000541066 0)
(-8.78765e-05 0.000701198 0)
(-0.0001498 0.000811846 0)
(-0.000224953 0.000867274 0)
(-0.000307983 0.000870371 0)
(-0.000392052 0.000830957 0)
(-0.000470092 0.000760892 0)
(-0.000536008 0.000670301 0)
(-0.000585649 0.000567302 0)
(-0.000617547 0.000459017 0)
(-0.000633179 0.000351563 0)
(-0.000636581 0.0002491 0)
(-0.000633481 0.00015279 0)
(-0.000630531 5.98468e-05 0)
(-0.000634039 -3.18178e-05 0)
(-0.000644776 -0.000123952 0)
(-0.000657559 -0.000220074 0)
(-0.000666043 -0.000324797 0)
(-0.000663623 -0.000438807 0)
(-0.000644231 -0.000559161 0)
(-0.000603658 -0.000679598 0)
(-0.000540838 -0.000790931 0)
(-0.000458718 -0.000881126 0)
(-0.000364268 -0.000935443 0)
(-0.000267266 -0.00093872 0)
(-0.000177853 -0.000880601 0)
(-0.000103917 -0.000760063 0)
(-4.98048e-05 -0.000585525 0)
(-1.65717e-05 -0.000371224 0)
(-1.37355e-06 -0.000132944 0)
(-1.77101e-06 0.000156066 0)
(-2.12371e-05 0.000434773 0)
(-6.30196e-05 0.000682368 0)
(-0.000129475 0.00087887 0)
(-0.000217553 0.00100788 0)
(-0.000320466 0.00106199 0)
(-0.000428259 0.00104611 0)
(-0.000529657 0.000975251 0)
(-0.000614676 0.000867903 0)
(-0.000676682 0.000740498 0)
(-0.000713366 0.000606023 0)
(-0.000726722 0.000474463 0)
(-0.000722167 0.000352679 0)
(-0.000707149 0.000243887 0)
(-0.000689811 0.000147437 0)
(-0.000678568 5.86484e-05 0)
(-0.000681572 -2.67033e-05 0)
(-0.000700014 -0.000113074 0)
(-0.000727694 -0.000206424 0)
(-0.000757418 -0.000313811 0)
(-0.000781008 -0.000438939 0)
(-0.000789175 -0.000581761 0)
(-0.000772632 -0.000737499 0)
(-0.000724164 -0.000895387 0)
(-0.00064141 -0.0010374 0)
(-0.000529385 -0.00113851 0)
(-0.000400856 -0.00117186 0)
(-0.000273046 -0.00111865 0)
(-0.000161995 -0.000975895 0)
(-7.82952e-05 -0.000756032 0)
(-2.61249e-05 -0.000480389 0)
(-2.16803e-06 -0.000172082 0)
(-2.81058e-06 0.000199865 0)
(-3.31769e-05 0.000554801 0)
(-9.71549e-05 0.000865369 0)
(-0.000196113 0.0011033 0)
(-0.000321938 0.00124647 0)
(-0.000460715 0.00128692 0)
(-0.000595088 0.001235 0)
(-0.000708472 0.0011156 0)
(-0.000789449 0.000957928 0)
(-0.000833954 0.000786861 0)
(-0.000844828 0.000620107 0)
(-0.000829777 0.000468714 0)
(-0.000798854 0.000337975 0)
(-0.000762359 0.000228307 0)
(-0.000729683 0.000136295 0)
(-0.000709796 5.5288e-05 0)
(-0.000711755 -2.05589e-05 0)
(-0.000737004 -9.74101e-05 0)
(-0.000779072 -0.000182786 0)
(-0.000831318 -0.000285704 0)
(-0.000885963 -0.00041334 0)
(-0.000932527 -0.000570552 0)
(-0.000957554 -0.000757874 0)
(-0.000945898 -0.00096774 0)
(-0.000884634 -0.00117928 0)
(-0.000769493 -0.00135536 0)
(-0.000610652 -0.00144945 0)
(-0.000432249 -0.00142373 0)
(-0.000263891 -0.00126593 0)
(-0.000130016 -0.000991593 0)
(-4.39031e-05 -0.000633274 0)
(-3.69248e-06 -0.000227183 0)
(-4.74011e-06 0.000260825 0)
(-5.40667e-05 0.00071863 0)
(-0.000154298 0.00110827 0)
(-0.000302266 0.00138914 0)
(-0.000478591 0.00153341 0)
(-0.000656879 0.00153719 0)
(-0.000810215 0.00142391 0)
(-0.000918663 0.00123559 0)
(-0.000974336 0.00101635 0)
(-0.000981172 0.000799657 0)
(-0.000950818 0.000605178 0)
(-0.000897774 0.000441371 0)
(-0.000835823 0.000309068 0)
(-0.000776351 0.000204378 0)
(-0.000728268 0.000120826 0)
(-0.000699761 5.02089e-05 0)
(-0.000699861 -1.41769e-05 0)
(-0.00072997 -7.90967e-05 0)
(-0.000783774 -0.000152506 0)
(-0.000856189 -0.000244269 0)
(-0.000941825 -0.000364271 0)
(-0.00103222 -0.000522764 0)
(-0.00111354 -0.00072877 0)
(-0.00116504 -0.000984734 0)
(-0.00116073 -0.0012758 0)
(-0.00107787 -0.00155794 0)
(-0.000911067 -0.00175957 0)
(-0.000682406 -0.00180732 0)
(-0.00043658 -0.00166095 0)
(-0.000223012 -0.00132952 0)
(-7.74977e-05 -0.000859604 0)
(-6.77122e-06 -0.000310402 0)
(-8.42461e-06 0.000349486 0)
(-9.02485e-05 0.000948019 0)
(-0.000246333 0.00143236 0)
(-0.000460283 0.00174619 0)
(-0.000690904 0.00186173 0)
(-0.000894298 0.00179148 0)
(-0.00103665 0.00158499 0)
(-0.00110303 0.00130961 0)
(-0.00109846 0.00102537 0)
(-0.00104105 0.000769995 0)
(-0.000952912 0.000559124 0)
(-0.000853634 0.000393955 0)
(-0.000757752 0.000268573 0)
(-0.000675019 0.000174378 0)
(-0.000611965 0.00010241 0)
(-0.000574811 4.37451e-05 0)
(-0.000571775 -8.36281e-06 0)
(-0.000603835 -6.03407e-05 0)
(-0.000664812 -0.000119551 0)
(-0.000751357 -0.000195395 0)
(-0.000861437 -0.000298732 0)
(-0.000991284 -0.000443574 0)
(-0.00113197 -0.000647604 0)
(-0.00126447 -0.000928307 0)
(-0.00135555 -0.00128901 0)
(-0.00136144 -0.00169446 0)
(-0.00124605 -0.00205531 0)
(-0.00100718 -0.00224919 0)
(-0.000689909 -0.00217657 0)
(-0.000373335 -0.00181004 0)
(-0.000136485 -0.00120041 0)
(-1.2758e-05 -0.000441114 0)
(-1.54367e-05 0.000480937 0)
(-0.000149807 0.0012666 0)
(-0.000380874 0.00184858 0)
(-0.000662223 0.00215953 0)
(-0.000918794 0.00219189 0)
(-0.00109238 0.00199837 0)
(-0.00115708 0.00167049 0)
(-0.00111987 0.00130381 0)
(-0.00100944 0.000967152 0)
(-0.00086032 0.00069226 0)
(-0.000701368 0.000482975 0)
(-0.000551763 0.000329765 0)
(-0.000422144 0.000219672 0)
(-0.000317671 0.000140525 0)
(-0.000240936 8.22151e-05 0)
(-0.000195375 3.61252e-05 0)
(-0.000187835 -3.82019e-06 0)
(-0.000218511 -4.30768e-05 0)
(-0.000281056 -8.77296e-05 0)
(-0.000373295 -0.000145685 0)
(-0.000496091 -0.000226918 0)
(-0.000650941 -0.000346192 0)
(-0.000837206 -0.000526242 0)
(-0.00104627 -0.000798436 0)
(-0.00125204 -0.0011917 0)
(-0.00140331 -0.00170034 0)
(-0.001432 -0.00224386 0)
(-0.00128626 -0.00266064 0)
(-0.000972239 -0.00276478 0)
(-0.000574445 -0.00243731 0)
(-0.000227698 -0.00168858 0)
(-2.35736e-05 -0.00064199 0)
(-2.90752e-05 0.000674751 0)
(-0.000242802 0.0016882 0)
(-0.000551482 0.00233294 0)
(-0.000855817 0.00256237 0)
(-0.00104737 0.00243463 0)
(-0.00108005 0.00207443 0)
(-0.00096717 0.00162205 0)
(-0.000756604 0.00118864 0)
(-0.000503044 0.000833535 0)
(-0.000249077 0.00056936 0)
(-1.96513e-05 0.000383021 0)
(0.000174568 0.000254578 0)
(0.000331376 0.000166424 0)
(0.000452153 0.000105268 0)
(0.000538855 6.14787e-05 0)
(0.000591034 2.77144e-05 0)
(0.000603488 -9.33839e-07 0)
(0.000576922 -2.86342e-05 0)
(0.000518034 -5.99245e-05 0)
(0.000428581 -0.000100731 0)
(0.000306071 -0.000158925 0)
(0.000145247 -0.000247276 0)
(-6.10825e-05 -0.000388119 0)
(-0.00031866 -0.000618682 0)
(-0.00062252 -0.000988554 0)
(-0.000940233 -0.00153241 0)
(-0.0011976 -0.00221474 0)
(-0.00129197 -0.00288133 0)
(-0.00114512 -0.00327409 0)
(-0.000779115 -0.00312852 0)
(-0.00035225 -0.00231742 0)
(-4.2777e-05 -0.000932674 0)
(-5.55674e-05 0.000956554 0)
(-0.000380677 0.00220075 0)
(-0.000720926 0.0027992 0)
(-0.000918781 0.00282133 0)
(-0.000878104 0.00246166 0)
(-0.000624493 0.00193331 0)
(-0.00024342 0.00140214 0)
(0.000175927 0.000961187 0)
(0.00057076 0.000637454 0)
(0.000910583 0.000416982 0)
(0.001188 0.000271901 0)
(0.00140722 0.000176901 0)
(0.00157621 0.000114033 0)
(0.00170259 7.15627e-05 0)
(0.00179206 4.17726e-05 0)
(0.00184662 1.92184e-05 0)
(0.00186264 3.94492e-07 0)
(0.00184153 -1.75449e-05 0)
(0.00179007 -3.7643e-05 0)
(0.00171004 -6.38651e-05 0)
(0.00159847 -0.000101632 0)
(0.00144848 -0.000160287 0)
(0.00124825 -0.00025756 0)
(0.000980471 -0.000426723 0)
(0.000625806 -0.00072216 0)
(0.000178039 -0.00120767 0)
(-0.00032467 -0.00191104 0)
(-0.000772399 -0.00275046 0)
(-0.000999443 -0.00347652 0)
(-0.000885038 -0.00369133 0)
(-0.000500351 -0.00301307 0)
(-7.55411e-05 -0.00132514 0)
(-9.89231e-05 0.00136997 0)
(-0.000550182 0.00274308 0)
(-0.000763 0.0030735 0)
(-0.000612018 0.00275252 0)
(-0.00013938 0.00215715 0)
(0.000499211 0.00154039 0)
(0.00115626 0.00102936 0)
(0.00174023 0.000659236 0)
(0.0022165 0.000414593 0)
(0.00258746 0.000261159 0)
(0.00287041 0.000166182 0)
(0.00308419 0.000106512 0)
(0.00324428 6.80468e-05 0)
(0.00336189 4.25058e-05 0)
(0.00344452 2.48192e-05 0)
(0.00349539 1.15815e-05 0)
(0.0035122 6.49673e-07 0)
(0.00349659 -9.65378e-06 0)
(0.00345482 -2.11291e-05 0)
(0.00338864 -3.60982e-05 0)
(0.00329532 -5.7802e-05 0)
(0.00316804 -9.20355e-05 0)
(0.00299385 -0.000150339 0)
(0.00275027 -0.000256113 0)
(0.00240203 -0.000452743 0)
(0.00190616 -0.000806207 0)
(0.00123929 -0.00138724 0)
(0.000450311 -0.00221777 0)
(-0.000284602 -0.0031711 0)
(-0.000696922 -0.00385696 0)
(-0.000615144 -0.00362538 0)
(-0.000121533 -0.00184 0)
(-0.000171509 0.00202234 0)
(-0.000616823 0.00316097 0)
(-0.000322852 0.00289609 0)
(0.000480467 0.00220452 0)
(0.00147303 0.00151254 0)
(0.00242729 0.000967601 0)
(0.00322682 0.00059186 0)
(0.00384184 0.000354138 0)
(0.0042941 0.000212265 0)
(0.00462234 0.000129789 0)
(0.00486179 8.12803e-05 0)
(0.00503798 5.16905e-05 0)
(0.00516787 3.29025e-05 0)
(0.00526245 2.05243e-05 0)
(0.00532868 1.19975e-05 0)
(0.00536973 5.64477e-06 0)
(0.00538417 4.23979e-07 0)
(0.00537348 -4.46913e-06 0)
(0.00534265 -9.90605e-06 0)
(0.00529315 -1.70096e-05 0)
(0.00522281 -2.73734e-05 0)
(0.00512594 -4.39194e-05 0)
(0.0049912 -7.26342e-05 0)
(0.00479731 -0.000126201 0)
(0.0045063 -0.00023005 0)
(0.00405842 -0.000429617 0)
(0.00338079 -0.000794742 0)
(0.00242668 -0.00141171 0)
(0.00125744 -0.00232453 0)
(0.000126065 -0.0033716 0)
(-0.000510325 -0.00390471 0)
(-0.000188278 -0.0025408 0)
(-0.00011785 0.00260962 0)
(1.43902e-05 0.00296707 0)
(0.00138837 0.00204996 0)
(0.0029071 0.00126051 0)
(0.00416618 0.000729538 0)
(0.00511977 0.000406294 0)
(0.00580043 0.000223711 0)
(0.0062675 0.000124502 0)
(0.00658531 7.14859e-05 0)
(0.00680541 4.28721e-05 0)
(0.00696214 2.67147e-05 0)
(0.00707622 1.70062e-05 0)
(0.00715993 1.08524e-05 0)
(0.00722077 6.78596e-06 0)
(0.00726339 3.97564e-06 0)
(0.0072899 1.87449e-06 0)
(0.00729948 1.45231e-07 0)
(0.00729312 -1.4791e-06 0)
(0.00727399 -3.288e-06 0)
(0.00724303 -5.66482e-06 0)
(0.00719879 -9.16255e-06 0)
(0.0071374 -1.48206e-05 0)
(0.007051 -2.4806e-05 0)
(0.00692427 -4.38254e-05 0)
(0.00672828 -8.17876e-05 0)
(0.00641194 -0.000158444 0)
(0.00589512 -0.000311917 0)
(0.00507108 -0.0006154 0)
(0.00383109 -0.00119065 0)
(0.00213813 -0.00215531 0)
(0.000391794 -0.00329791 0)
(-4.08536e-05 -0.00293762 0)
(0.00261793 0.00119712 0)
(0.0037682 0.000984419 0)
(0.00568443 0.000443737 0)
(0.00702906 0.000198225 0)
(0.00781529 9.26929e-05 0)
(0.00828811 4.21062e-05 0)
(0.00857707 1.94766e-05 0)
(0.00875545 9.69903e-06 0)
(0.00886967 5.30003e-06 0)
(0.00894676 3.16764e-06 0)
(0.0090014 2.01063e-06 0)
(0.00904132 1.3085e-06 0)
(0.00907078 8.51301e-07 0)
(0.00909228 5.4002e-07 0)
(0.00910739 3.20212e-07 0)