/*--------------------------------*- C++ -*----------------------------------*\
| =========                 |                                                 |
| \\      /  F ield         | OpenFOAM: The Open Source CFD Toolbox           |
|  \\    /   O peration     | Version:  2206                                  |
|   \\  /    A nd           | Website:  www.openfoam.com                      |
|    \\/     M anipulation  |                                                 |
\*---------------------------------------------------------------------------*/
FoamFile
{
    version     2.0;
    format      ascii;
    arch        "LSB;label=64;scalar=64";
    class       volVectorField;
    location    "223200";
    object      U;
}
// * * * * * * * * * * * * * * * * * * * * * * * * * * * * * * * * * * * * * //

dimensions      [0 1 -1 0 0 0 0];

internalField   nonuniform List<vector> 
16
(
(-5.77443e-09 2.49138e-08 0)
(6.5343e-09 -1.63244e-08 0)
(9.23358e-08 -4.24934e-08 0)
(7.28697e-08 3.41949e-08 0)
(5.14629e-09 -2.59226e-08 0)
(8.98024e-08 -8.03781e-08 0)
(1.1876e-07 -2.75106e-08 0)
(2.48467e-08 1.35086e-07 0)
(-1.10734e-08 -6.73996e-08 0)
(-6.39379e-09 -1.32373e-07 0)
(-3.4063e-08 2.39741e-08 0)
(-3.67542e-08 1.73189e-07 0)
(1.28193e-08 -1.01141e-08 0)
(-9.11313e-08 -5.73543e-08 0)
(-1.74251e-07 5.28904e-09 0)
(-6.31044e-08 6.56839e-08 0)
)
;

boundaryField
{
    movingWall
    {
        type            noSlip;
    }
    fixedWalls
    {
        type            noSlip;
    }
    frontAndBack
    {
        type            empty;
    }
}


// ************************************************************************* //
