/*--------------------------------*- C++ -*----------------------------------*\
| =========                 |                                                 |
| \\      /  F ield         | OpenFOAM: The Open Source CFD Toolbox           |
|  \\    /   O peration     | Version:  2206                                  |
|   \\  /    A nd           | Website:  www.openfoam.com                      |
|    \\/     M anipulation  |                                                 |
\*---------------------------------------------------------------------------*/
FoamFile
{
    version     2.0;
    format      ascii;
    arch        "LSB;label=64;scalar=64";
    class       volScalarField;
    location    "1.6/water";
    object      alphat.gas;
}
// * * * * * * * * * * * * * * * * * * * * * * * * * * * * * * * * * * * * * //

dimensions      [1 -1 -1 0 0 0 0];

internalField   nonuniform List<scalar> 
23300
(
1.81023293299e-07
1.63537289613e-07
1.65224112934e-07
1.78303070857e-07
1.96924151125e-07
2.18685942656e-07
2.42703101541e-07
2.68821951432e-07
2.97358485323e-07
3.29069886267e-07
3.65268125263e-07
4.0815073316e-07
4.61703886933e-07
5.33069871157e-07
6.33198242435e-07
7.78597498794e-07
9.92649923128e-07
1.30420054399e-06
1.73900110367e-06
2.29754970588e-06
2.91263550545e-06
3.39377276458e-06
3.46833564523e-06
3.21733215845e-06
2.93206240502e-06
2.71476152464e-06
2.5646607687e-06
2.46235282669e-06
2.39312758883e-06
2.34813104871e-06
2.32210106698e-06
2.31174382792e-06
2.31483672952e-06
2.32977592574e-06
2.3553262393e-06
2.39049628704e-06
2.43446236697e-06
2.48653526929e-06
2.54613565974e-06
2.61278691144e-06
2.68610475285e-06
2.76579683629e-06
2.85165689863e-06
2.94356716739e-06
3.04149496818e-06
3.14549705386e-06
3.2557181248e-06
3.37239840978e-06
3.49587865369e-06
3.62662386946e-06
3.76526860723e-06
3.91274263514e-06
4.06978375903e-06
4.23532708745e-06
4.4095841433e-06
4.59320551452e-06
4.78705898682e-06
4.99217268288e-06
5.20971885941e-06
5.44103525315e-06
5.68764105933e-06
5.95128018316e-06
6.23395251638e-06
6.53797765969e-06
6.86604462701e-06
7.2213038355e-06
7.60744358218e-06
8.02882244467e-06
8.49058351877e-06
8.99884046837e-06
9.56083562935e-06
1.01851777029e-05
1.0882009604e-05
1.16632095439e-05
1.25423559168e-05
1.35344622901e-05
1.46548924888e-05
1.59170655671e-05
1.73274642313e-05
1.8876265245e-05
2.05197608244e-05
2.2149833763e-05
2.35439990683e-05
2.43048269309e-05
2.39299620659e-05
2.24821868533e-05
2.04414918491e-05
1.8178317135e-05
1.59202125396e-05
1.37946992664e-05
1.18653919387e-05
1.01563587958e-05
8.66772889792e-06
7.38602078689e-06
6.29078122665e-06
5.35889980352e-06
4.56720171338e-06
3.89402074854e-06
3.32003221544e-06
2.82867481385e-06
2.4062625825e-06
2.04195358453e-06
1.72763573635e-06
1.45782084933e-06
1.2295684398e-06
1.0426657443e-06
8.97030087934e-07
7.88734620703e-07
7.13153419328e-07
6.63991419888e-07
6.33720506365e-07
6.14948279116e-07
6.01869515502e-07
5.90860301961e-07
5.80096555851e-07
5.68822724969e-07
5.56785654602e-07
5.43931917039e-07
5.3027704181e-07
5.15856066914e-07
5.00705640749e-07
4.84857668342e-07
4.6833750797e-07
4.51165220472e-07
4.33358621384e-07
4.14937006945e-07
3.95923576897e-07
3.76345327463e-07
3.56229676491e-07
3.35598704009e-07
3.14462654878e-07
2.92814563861e-07
2.70626135631e-07
2.47845586629e-07
2.24414349626e-07
2.00398068554e-07
1.76640207439e-07
1.57413928398e-07
1.55848868431e-07
1.59842850563e-07
1.39306437384e-07
1.39130225528e-07
1.46145570046e-07
1.59674849635e-07
1.78558395195e-07
2.02313583288e-07
2.31063798946e-07
2.65409769759e-07
3.06397573065e-07
3.5555544386e-07
4.14908203482e-07
4.86792813976e-07
5.73632455193e-07
6.8340569041e-07
8.22965767627e-07
9.97715008671e-07
1.20935123359e-06
1.45200055518e-06
1.70841377379e-06
1.94940239784e-06
2.14007347586e-06
2.25053971267e-06
2.28342299381e-06
2.2766653437e-06
2.27353997601e-06
2.29164764062e-06
2.33280718056e-06
2.39469260004e-06
2.47465362161e-06
2.57014289528e-06
2.67865022971e-06
2.79782190705e-06
2.92567771481e-06
3.06077324455e-06
3.20223278154e-06
3.34966495484e-06
3.50301042789e-06
3.6623807028e-06
3.82792648711e-06
3.99975400442e-06
4.17788689506e-06
4.3622634314e-06
4.55275494073e-06
4.7491940152e-06
4.95140437811e-06
5.15922788208e-06
5.37254828044e-06
5.59131330494e-06
5.81555907814e-06
6.04543072429e-06
6.28116642365e-06
6.5229643233e-06
6.76612699893e-06
7.01246444219e-06
7.26265120802e-06
7.51711536594e-06
7.77620913573e-06
8.04026742382e-06
8.30964202863e-06
8.58472365466e-06
8.86596062777e-06
9.15387552292e-06
9.44908402741e-06
9.75231472338e-06
1.00644329489e-05
1.03864669934e-05
1.0719639261e-05
1.10654003393e-05
1.14254672087e-05
1.18018617303e-05
1.21969458293e-05
1.26134418997e-05
1.30544190309e-05
1.35232078229e-05
1.40231786262e-05
1.45572759401e-05
1.51271352289e-05
1.57315243611e-05
1.63637384284e-05
1.70075083082e-05
1.76311081873e-05
1.8180185947e-05
1.85723655398e-05
1.87027701795e-05
1.84797546831e-05
1.79015259991e-05
1.70527951361e-05
1.60345935855e-05
1.49336237773e-05
1.38144480158e-05
1.27208983521e-05
1.16801186033e-05
1.07067818501e-05
9.80671831323e-06
8.97977201318e-06
8.22194630314e-06
7.52697125594e-06
6.88743082856e-06
6.29554225184e-06
5.74365199137e-06
5.22449426997e-06
4.73126131479e-06
4.25752300922e-06
3.79696358451e-06
3.34257780116e-06
2.8841324325e-06
2.412132066e-06
1.94972762545e-06
1.51530184799e-06
1.12904770385e-06
8.13624403085e-07
5.84002653152e-07
4.37618626615e-07
3.55929960103e-07
3.15219016256e-07
2.95885926374e-07
2.85729008492e-07
2.78668241533e-07
2.7215609861e-07
2.65275573078e-07
2.57756473358e-07
2.4955374472e-07
2.40690226e-07
2.31206260544e-07
2.21147558192e-07
2.10565126394e-07
1.99518319137e-07
1.88078107107e-07
1.76330007408e-07
1.64377175427e-07
1.52344854829e-07
1.40387278259e-07
1.28697860179e-07
1.17525919218e-07
1.07219827072e-07
9.84063204934e-08
9.28161989525e-08
9.50565598111e-08
9.48787476243e-08
1.01808354641e-07
8.17447909684e-08
8.98788286933e-08
1.04488480554e-07
1.24570930012e-07
1.50082353654e-07
1.81486696079e-07
2.19550374327e-07
2.65284011435e-07
3.19905834877e-07
3.84710800219e-07
4.60698788512e-07
5.48059422234e-07
6.48668690704e-07
7.64607796066e-07
8.96871295912e-07
1.04439734342e-06
1.20325003293e-06
1.36658782496e-06
1.52496621539e-06
1.6648144799e-06
1.785059828e-06
1.89137358295e-06
1.99642813887e-06
2.11537975881e-06
2.25942610415e-06
2.43295267571e-06
2.63514742059e-06
2.86234185767e-06
3.10973834166e-06
3.37256303196e-06
3.64672717752e-06
3.92907272838e-06
4.21734637315e-06
4.51004361161e-06
4.80621247722e-06
5.10525790223e-06
5.40677030497e-06
5.71039255243e-06
6.01573586762e-06
6.32234220397e-06
6.62968569673e-06
6.93719679619e-06
7.24429731423e-06
7.55043267067e-06
7.8550975708e-06
8.15784975925e-06
8.45831634114e-06
8.75619274571e-06
9.05124096107e-06
9.343279507e-06
9.63215205242e-06
9.91473635998e-06
1.01910433124e-05
1.04628217488e-05
1.0731015207e-05
1.09961111543e-05
1.12583519813e-05
1.15178518136e-05
1.17746631017e-05
1.20288119844e-05
1.22803212001e-05
1.25292233342e-05
1.27755730489e-05
1.30194553438e-05
1.32609955638e-05
1.3500366614e-05
1.37377981216e-05
1.39735821252e-05
1.42080789204e-05
1.44417159689e-05
1.46749807177e-05
1.49083957299e-05
1.51424696268e-05
1.53776010211e-05
1.56139126381e-05
1.5850971671e-05
1.60873498666e-05
1.63199607403e-05
1.65431303381e-05
1.67474020374e-05
1.69182370976e-05
1.70351049138e-05
1.70720585748e-05
1.70015411848e-05
1.68028824097e-05
1.64728014425e-05
1.60277715799e-05
1.54958624828e-05
1.49051256803e-05
1.42804213442e-05
1.36416995698e-05
1.30037612911e-05
1.23767328065e-05
1.17668167637e-05
1.1177087124e-05
1.06082277703e-05
1.00591837276e-05
9.52771042836e-06
9.01081477652e-06
8.50507933008e-06
8.00687270112e-06
7.51245165733e-06
7.01796183235e-06
6.51931497418e-06
6.01187942444e-06
5.49001625044e-06
4.94752635157e-06
4.37611360376e-06
3.78294342548e-06
3.17541336744e-06
2.55981905267e-06
1.9493223095e-06
1.37084063628e-06
8.72614505484e-07
5.11114074513e-07
3.02186660827e-07
2.04344132964e-07
1.64169918197e-07
1.47999884572e-07
1.40354088323e-07
1.35169796196e-07
1.30336343894e-07
1.25222143234e-07
1.19698384166e-07
1.13792459161e-07
1.07577511022e-07
1.01141430567e-07
9.45802619884e-08
8.7999041191e-08
8.15152699771e-08
7.52636508014e-08
6.94019462812e-08
6.41201407124e-08
5.9660990082e-08
5.63830845645e-08
5.50293017204e-08
5.7878199427e-08
6.76720848671e-08
6.47294645888e-08
1.20564928921e-07
6.63538568511e-08
7.61726812985e-08
9.17297070052e-08
1.12092224964e-07
1.37734342138e-07
1.69549914331e-07
2.08623294175e-07
2.56149530027e-07
3.13396842233e-07
3.81573362912e-07
4.61523180223e-07
5.53033961472e-07
6.55326075618e-07
7.67973238536e-07
8.90830702742e-07
1.02137858073e-06
1.15526786448e-06
1.29289127325e-06
1.43537354157e-06
1.58652029104e-06
1.75476903934e-06
1.95006705137e-06
2.18057221535e-06
2.45015740238e-06
2.75780499652e-06
3.09891192965e-06
3.46729029143e-06
3.85664377119e-06
4.26129620949e-06
4.67644524553e-06
5.09818366492e-06
5.52340829287e-06
5.94968294694e-06
6.37509341769e-06
6.79811704715e-06
7.21751220815e-06
7.6322331002e-06
8.041368815e-06
8.44410933388e-06
8.83973122946e-06
9.22759949808e-06
9.60717351048e-06
9.97801405889e-06
1.03397827945e-05
1.06922369692e-05
1.10352154484e-05
1.13686222871e-05
1.16924033465e-05
1.20065193977e-05
1.23109076991e-05
1.26054399077e-05
1.28878670567e-05
1.31601226348e-05
1.34234405299e-05
1.36785630553e-05
1.39259017398e-05
1.41656570389e-05
1.43978964519e-05
1.46226063903e-05
1.48397218825e-05
1.50491473051e-05
1.52507674647e-05
1.54444575674e-05
1.56300881333e-05
1.58075312209e-05
1.59766627933e-05
1.61373666673e-05
1.62895342743e-05
1.64330649e-05
1.65678598012e-05
1.66938134985e-05
1.68107938123e-05
1.691861113e-05
1.70169648778e-05
1.71053632188e-05
1.71829999543e-05
1.72485831151e-05
1.730010475e-05
1.73345653646e-05
1.73476852801e-05
1.73336958134e-05
1.72853701875e-05
1.71945454023e-05
1.70533776821e-05
1.68563146981e-05
1.66020362652e-05
1.62939429037e-05
1.59388795781e-05
1.55476924058e-05
1.51291342434e-05
1.4691125967e-05
1.4240130638e-05
1.37810466362e-05
1.33172693478e-05
1.2850845305e-05
1.23826755434e-05
1.19127380482e-05
1.14403058641e-05
1.09641461776e-05
1.04826846353e-05
9.99413107589e-06
9.49656247746e-06
8.98796753306e-06
8.46625325215e-06
7.92922388209e-06
7.37456589265e-06
6.79991006081e-06
6.20265612895e-06
5.58000102323e-06
4.93815721225e-06
4.28044359781e-06
3.61025717953e-06
2.93320410975e-06
2.25924635061e-06
1.60744748441e-06
1.01615036441e-06
5.51110134852e-07
2.66708513519e-07
1.37810390232e-07
9.07275397008e-08
7.45570319936e-08
6.83007202897e-08
6.48233711134e-08
6.19284254282e-08
5.90346069275e-08
5.60464910247e-08
5.29995910838e-08
4.99602595383e-08
4.70021088773e-08
4.4203517459e-08
4.16507187109e-08
3.94433828017e-08
3.77057815336e-08
3.66153212356e-08
3.64915164969e-08
3.81718050647e-08
4.432976368e-08
5.33941157689e-08
5.79531293122e-08
1.48744903463e-07
6.52345080458e-08
7.66792314949e-08
9.41546774614e-08
1.16726388197e-07
1.45078400375e-07
1.80130711999e-07
2.22889796832e-07
2.74170828676e-07
3.3470992306e-07
4.05208439027e-07
4.85414853115e-07
5.73634390402e-07
6.702964732e-07
7.75422420357e-07
8.89674930753e-07
1.01506358922e-06
1.1563008037e-06
1.32182615768e-06
1.52226644331e-06
1.76741981388e-06
2.06298646974e-06
2.40909826623e-06
2.80147764854e-06
3.2335205147e-06
3.69783027797e-06
4.18706211594e-06
4.69439361139e-06
5.21376195476e-06
5.73993471624e-06
6.26848258644e-06
6.79570954229e-06
7.31856700944e-06
7.83456815925e-06
8.34170661894e-06
8.83838486235e-06
9.32334959345e-06
9.79563775353e-06
1.02545298466e-05
1.06995143989e-05
1.11302577637e-05
1.15465813307e-05
1.19484385031e-05
1.23358944479e-05
1.27091023341e-05
1.3068281735e-05
1.34136941355e-05
1.3745621634e-05
1.40643417931e-05
1.43701024738e-05
1.46630894501e-05
1.49433960765e-05
1.52105128629e-05
1.54658828752e-05
1.57104113291e-05
1.5944652262e-05
1.61689225787e-05
1.63833804682e-05
1.65880750631e-05
1.67829816221e-05
1.69680220073e-05
1.71430807595e-05
1.7308013585e-05
1.7462656008e-05
1.76068273546e-05
1.77403365039e-05
1.78629839045e-05
1.79745656315e-05
1.8074873684e-05
1.81636977914e-05
1.82408225909e-05
1.83060247573e-05
1.83590632918e-05
1.839966646e-05
1.84275075742e-05
1.84421719803e-05
1.84431072171e-05
1.84295599652e-05
1.84004964776e-05
1.8354519722e-05
1.82897967799e-05
1.82040340755e-05
1.80945435053e-05
1.79584586967e-05
1.77931282722e-05
1.75966421572e-05
1.73683066187e-05
1.71088249923e-05
1.6820119345e-05
1.65049991092e-05
1.6167020288e-05
1.58099592429e-05
1.54363832049e-05
1.50484031111e-05
1.46475505638e-05
1.42347920709e-05
1.38105840043e-05
1.33749435533e-05
1.29275309404e-05
1.24677331028e-05
1.19947391055e-05
1.15076056351e-05
1.10053059093e-05
1.048676495e-05
9.95088129158e-06
9.39654357673e-06
8.82265048762e-06
8.22814557902e-06
7.61204635991e-06
6.97350292557e-06
6.31185425448e-06
5.63320508742e-06
4.93987415181e-06
4.23509232894e-06
3.52373351655e-06
2.81359401217e-06
2.11791512112e-06
1.46027550265e-06
8.83198458615e-07
4.49222030974e-07
1.96506634849e-07
8.83392550897e-08
5.21255728316e-08
4.10726982242e-08
3.74140274026e-08
3.57236651233e-08
3.45016310717e-08
3.33917798672e-08
3.23427489465e-08
3.13751199704e-08
3.05249015141e-08
2.9833847014e-08
2.93529368518e-08
2.91557672443e-08
2.93746435089e-08
3.03140295067e-08
3.29308348232e-08
3.99638662299e-08
4.57015968633e-08
6.16384865118e-08
1.78276539009e-07
6.82950499058e-08
8.16603451174e-08
1.01672029855e-07
1.27371139549e-07
1.59451563024e-07
1.98576790564e-07
2.45161687689e-07
2.99321364857e-07
3.60917277694e-07
4.29519788844e-07
5.05254212088e-07
5.89019424041e-07
6.82488398475e-07
7.89453062962e-07
9.17395956655e-07
1.07832590318e-06
1.28707151211e-06
1.55638854679e-06
1.89192380491e-06
2.29117102654e-06
2.74632350938e-06
3.24766184868e-06
3.78554523523e-06
4.35115216734e-06
4.93661113705e-06
5.53494620311e-06
6.14002088424e-06
6.74650348657e-06
7.34983520006e-06
7.9461866747e-06
8.53240480816e-06
9.10595075532e-06
9.66483569412e-06
1.02075540061e-05
1.07330195784e-05
1.12405030306e-05
1.17295756734e-05
1.22000567147e-05
1.26519691126e-05
1.30854984601e-05
1.35009595144e-05
1.38987635291e-05
1.42793916546e-05
1.46433678957e-05
1.49912380921e-05
1.53235484626e-05
1.56408300388e-05
1.59435815579e-05
1.62322579862e-05
1.65072638286e-05
1.67684355984e-05
1.70166138048e-05
1.72527228651e-05
1.74773919663e-05
1.7691032914e-05
1.78938976822e-05
1.80861239418e-05
1.8267764552e-05
1.84388106999e-05
1.85992051895e-05
1.87488545558e-05
1.88876353008e-05
1.90154015038e-05
1.9131988305e-05
1.92372176837e-05
1.93309007271e-05
1.94128423341e-05
1.94828424434e-05
1.95406993509e-05
1.95862090925e-05
1.96191660148e-05
1.96393582791e-05
1.96465628793e-05
1.96405336591e-05
1.96209865717e-05
1.95875760505e-05
1.95398677427e-05
1.94773041746e-05
1.93991729857e-05
1.93045811861e-05
1.91924533519e-05
1.90615652341e-05
1.89106324674e-05
1.87384530634e-05
1.85440864384e-05
1.83270119146e-05
1.80872097924e-05
1.78251375817e-05
1.75416272934e-05
1.72377397373e-05
1.69145036872e-05
1.6573478177e-05
1.6215887649e-05
1.58423394042e-05
1.54532418644e-05
1.50487634551e-05
1.46288525821e-05
1.4193274763e-05
1.37416482346e-05
1.32734775561e-05
1.27881897154e-05
1.2285161503e-05
1.17637411358e-05
1.12232623905e-05
1.06630565138e-05
1.00824632051e-05
9.4808465221e-06
8.85761600556e-06
8.21226347938e-06
7.54441902821e-06
6.85552019348e-06
6.15003827181e-06
5.42994796478e-06
4.69816270702e-06
3.95905565939e-06
3.21942683136e-06
2.49036176101e-06
1.79089408859e-06
1.15454099064e-06
6.363430763e-07
2.926967365e-07
1.20568449019e-07
5.54559450478e-08
3.54766470824e-08
2.99549956369e-08
2.84220262754e-08
2.78945994747e-08
2.76152712916e-08
2.74192282581e-08
2.72837216432e-08
2.72198651973e-08
2.7255884065e-08
2.74493379246e-08
2.79279131144e-08
2.90240369335e-08
3.18574388127e-08
3.90133316588e-08
4.25983522272e-08
6.9862446196e-08
2.07420497829e-07
7.3011803661e-08
8.81925386355e-08
1.10390514291e-07
1.38539451031e-07
1.73061448887e-07
2.14142821294e-07
2.61649111495e-07
3.15261530255e-07
3.7471607039e-07
4.40581171154e-07
5.14788920358e-07
6.01405280271e-07
7.08821597029e-07
8.51564086035e-07
1.04902078383e-06
1.31894874795e-06
1.66958735523e-06
2.09765224327e-06
2.59264228718e-06
3.14183017669e-06
3.7329866309e-06
4.35530924802e-06
4.99950960156e-06
5.65761642816e-06
6.32275046564e-06
6.98895848365e-06
7.651117101e-06
8.304877902e-06
8.94662624994e-06
9.57343389268e-06
1.01830031267e-05
1.07736010083e-05
1.13439911101e-05
1.18933627275e-05
1.2421265046e-05
1.2927543695e-05
1.34122861737e-05
1.38757711884e-05
1.43184275655e-05
1.47407959637e-05
1.51434988774e-05
1.55272114863e-05
1.58926395624e-05
1.62404971046e-05
1.65714904998e-05
1.68863014256e-05
1.71855749063e-05
1.74699047204e-05
1.77398252704e-05
1.79958071547e-05
1.82379072037e-05
1.84672269311e-05
1.86845141239e-05
1.88902827606e-05
1.90848865957e-05
1.92685622961e-05
1.94414603865e-05
1.96036633943e-05
1.97552014955e-05
1.98960610175e-05
2.0026193755e-05
2.01455214683e-05
2.0253942563e-05
2.03513349814e-05
2.04375617326e-05
2.05124730022e-05
2.05759108871e-05
2.06277106991e-05
2.06677045597e-05
2.06957212232e-05
2.07115875108e-05
2.07151252428e-05
2.07061487168e-05
2.06844566421e-05
2.06498234873e-05
2.06019846701e-05
2.05406212998e-05
2.04653406754e-05
2.03756605837e-05
2.02709970124e-05
2.01506666291e-05
2.001390611e-05
1.98599181644e-05
1.96879385393e-05
1.9497317605e-05
1.92875912212e-05
1.90585228677e-05
1.88101009765e-05
1.85424999732e-05
1.82560145547e-05
1.79509908244e-05
1.76278072723e-05
1.72866738147e-05
1.6928202977e-05
1.65528419561e-05
1.61605538863e-05
1.57512418039e-05
1.53246987656e-05
1.48806292959e-05
1.44186562081e-05
1.39383498874e-05
1.34392454162e-05
1.29208575295e-05
1.23826882008e-05
1.18242327079e-05
1.12449835851e-05
1.06444368834e-05
1.0022100857e-05
9.37751338701e-06
8.71027481286e-06
8.02010812923e-06
7.31065742819e-06
6.58404417885e-06
5.84221855286e-06
5.08792226508e-06
4.32515649618e-06
3.55999906976e-06
2.80212840734e-06
2.06777791623e-06
1.38536203427e-06
8.03761331708e-07
3.87455327063e-07
1.60160435342e-07
6.75894370325e-08
3.78311304474e-08
2.96914326468e-08
2.76799341203e-08
2.71939761206e-08
2.70554397954e-08
2.70044569849e-08
2.70027723192e-08
2.70711635885e-08
2.72710559406e-08
2.77438702077e-08
2.88742608987e-08
3.20017423177e-08
3.95086901681e-08
4.24751650776e-08
8.03605246635e-08
2.35799360437e-07
7.79575145616e-08
9.43928350964e-08
1.17859207137e-07
1.4705235123e-07
1.8204095115e-07
2.22638585259e-07
2.68495349232e-07
3.19622719296e-07
3.77153515152e-07
4.44235918885e-07
5.28153800987e-07
6.43428003247e-07
8.12806564252e-07
1.0610477101e-06
1.40279089546e-06
1.8364813883e-06
2.34961531818e-06
2.92649040596e-06
3.55225298248e-06
4.2140553265e-06
4.90106558654e-06
5.60416546305e-06
6.31563391664e-06
7.02889494062e-06
7.73833973773e-06
8.43920938146e-06
9.12752011874e-06
9.80000704039e-06
1.04540717009e-05
1.10877221227e-05
1.16995076216e-05
1.22884474841e-05
1.28539618868e-05
1.33958037735e-05
1.39139992782e-05
1.44087923423e-05
1.48805997763e-05
1.53299700528e-05
1.57575516014e-05
1.61640626988e-05
1.65502690938e-05
1.69169612554e-05
1.7264938179e-05
1.75949897272e-05
1.79078848113e-05
1.82043570661e-05
1.84850953458e-05
1.87507313611e-05
1.9001834075e-05
1.92389061839e-05
1.94623369844e-05
1.96731539223e-05
1.98720670962e-05
2.00595803615e-05
2.0236060076e-05
2.04017733168e-05
2.0556913816e-05
2.07016154202e-05
2.08359641033e-05
2.09600037567e-05
2.1073743706e-05
2.11771619017e-05
2.12702107353e-05
2.13528192094e-05
2.14248979358e-05
2.14863407056e-05
2.15370287692e-05
2.15768316402e-05
2.16056102698e-05
2.16232164703e-05
2.16294941556e-05
2.16242763407e-05
2.16073832488e-05
2.15786156449e-05
2.15377487666e-05
2.14845215423e-05
2.14186270644e-05
2.13397003154e-05
2.12473104831e-05
2.11409557486e-05
2.10200691534e-05
2.08840339153e-05
2.07322146187e-05
2.05639975288e-05
2.03788378863e-05
2.01762989579e-05
1.99560764782e-05
1.97179982025e-05
1.94620039177e-05
1.91881092097e-05
1.88963673875e-05
1.85868320627e-05
1.82595215789e-05
1.79144424733e-05
1.75514577456e-05
1.71706193282e-05
1.67721964338e-05
1.63558732655e-05
1.59213953162e-05
1.54684107605e-05
1.49965276392e-05
1.45053228466e-05
1.39943591792e-05
1.34631878142e-05
1.29113521299e-05
1.23383881895e-05
1.17438276824e-05
1.11272045535e-05
1.04880709794e-05
9.8260290244e-06
9.14079369535e-06
8.4323138242e-06
7.70477783715e-06
6.95952858486e-06
6.19841019463e-06
5.42401467658e-06
4.64007796091e-06
3.85217842385e-06
3.06903310829e-06
2.3050009662e-06
1.58501531216e-06
9.52948658231e-07
4.75326882122e-07
1.97460076063e-07
7.93269331976e-08
4.07752730731e-08
3.02913725571e-08
2.77583137741e-08
2.71701573816e-08
2.70167898961e-08
2.6980059706e-08
2.70287145755e-08
2.72221179531e-08
2.77207223825e-08
2.89899795864e-08
3.26756727868e-08
4.0910915963e-08
4.41456987075e-08
9.22145251214e-08
2.63389487158e-07
8.23237529399e-08
9.9276066056e-08
1.22869792761e-07
1.5158380095e-07
1.85236937695e-07
2.23568476314e-07
2.66846007355e-07
3.16671088089e-07
3.77686809503e-07
4.61113869557e-07
5.88935139556e-07
7.9259195767e-07
1.09895968004e-06
1.51411118041e-06
2.02488316953e-06
2.61165606496e-06
3.25607103421e-06
3.94283624093e-06
4.65947395467e-06
5.39571096278e-06
6.14296785952e-06
6.89400329807e-06
7.64267835096e-06
8.38379729531e-06
9.11299734509e-06
9.82666645799e-06
1.05218782509e-05
1.11963307829e-05
1.1848285922e-05
1.24765034222e-05
1.30801752031e-05
1.3658858068e-05
1.42124129385e-05
1.47409472092e-05
1.52447673167e-05
1.57243353272e-05
1.61802357408e-05
1.6613144523e-05
1.70238065922e-05
1.74130131211e-05
1.77815855608e-05
1.81303577979e-05
1.84601641285e-05
1.87718245683e-05
1.90661354666e-05
1.93438567995e-05
1.96057042979e-05
1.98523386479e-05
2.00843618251e-05
2.03023152868e-05
2.05068209817e-05
2.06988897312e-05
2.08792519419e-05
2.10484517418e-05
2.12069070784e-05
2.13549434282e-05
2.14928171312e-05
2.16207267978e-05
2.1738823675e-05
2.18472159843e-05
2.19459753153e-05
2.20351388262e-05
2.21147142766e-05
2.21846814419e-05
2.2244996462e-05
2.22955927335e-05
2.23363845785e-05
2.23672674114e-05
2.23881203693e-05
2.23988052434e-05
2.23991674462e-05
2.23890329929e-05
2.23682070813e-05
2.23364685139e-05
2.22935656081e-05
2.22392084001e-05
2.21730632298e-05
2.20947454861e-05
2.20038173664e-05
2.18997874626e-05
2.17821192892e-05
2.1650245255e-05
2.15035910583e-05
2.13416035676e-05
2.1163782218e-05
2.09697030096e-05
2.07590336308e-05
2.0531532074e-05
2.02870336388e-05
2.00254262353e-05
1.97466233257e-05
1.94505353872e-05
1.91370481786e-05
1.88060076719e-05
1.84572059533e-05
1.80904075872e-05
1.77052893293e-05
1.73014251551e-05
1.68791909323e-05
1.64380846258e-05
1.5977709452e-05
1.5497637791e-05
1.49974318815e-05
1.4476641528e-05
1.39348116856e-05
1.33714804587e-05
1.27861777718e-05
1.21784290803e-05
1.15477635912e-05
1.08937277925e-05
1.02159099111e-05
9.51397094265e-06
8.78965036751e-06
8.04567234731e-06
7.28333176376e-06
6.50444056529e-06
5.71152005573e-06
4.90814682723e-06
4.09957262217e-06
3.29386442639e-06
2.50410736603e-06
1.75281388021e-06
1.08014187085e-06
5.52080427565e-07
2.29737004478e-07
8.8656926492e-08
4.27199818237e-08
3.051767871e-08
2.76760134667e-08
2.70573967425e-08
2.69331633623e-08
2.69708294161e-08
2.71827828308e-08
2.77506030072e-08
2.92581721005e-08
3.37506295773e-08
4.29758823159e-08
4.695661875e-08
1.05021795991e-07
2.90248188294e-07
8.56042578052e-08
1.0234609956e-07
1.25065011741e-07
1.52131099849e-07
1.83413985105e-07
2.19257023308e-07
2.61469941894e-07
3.15971820093e-07
3.97884132683e-07
5.37374548422e-07
7.75281916389e-07
1.13867233616e-06
1.6221529909e-06
2.201167374e-06
2.85078253855e-06
3.55129166157e-06
4.28766079773e-06
5.04814956029e-06
5.8232738989e-06
6.60515930753e-06
7.3871620012e-06
8.16364632319e-06
8.92984731936e-06
9.68177455159e-06
1.04161376027e-05
1.11302800427e-05
1.18221192193e-05
1.24900851546e-05
1.3133061133e-05
1.37503219909e-05
1.4341476705e-05
1.49064118938e-05
1.54452437826e-05
1.59582732643e-05
1.64459509652e-05
1.6908844761e-05
1.73476163274e-05
1.77629979476e-05
1.8155776543e-05
1.85267758313e-05
1.88768443454e-05
1.92068403724e-05
1.95176222248e-05
1.98100350176e-05
2.00849025362e-05
2.03430152637e-05
2.05851232572e-05
2.08119258286e-05
2.1024068518e-05
2.12221417896e-05
2.14069359182e-05
2.15795104807e-05
2.17406574426e-05
2.18909901218e-05
2.20309990448e-05
2.2161082987e-05
2.2281570958e-05
2.23927327243e-05
2.24947884942e-05
2.25879125001e-05
2.26722386867e-05
2.27478621525e-05
2.2814843503e-05
2.28732095587e-05
2.29229570778e-05
2.29640530068e-05
2.29964375989e-05
2.30200240518e-05
2.30347007514e-05
2.30403299274e-05
2.30367486051e-05
2.30237658533e-05
2.30011620937e-05
2.29686847742e-05
2.2926046225e-05
2.28729185037e-05
2.28089313317e-05
2.27336686309e-05
2.26466701127e-05
2.25474339586e-05
2.24354268004e-05
2.23100964829e-05
2.21708919915e-05
2.20172837746e-05
2.18487858868e-05
2.16649713462e-05
2.14654817099e-05
2.1250024646e-05
2.10183642532e-05
2.07703023745e-05
2.0505658365e-05
2.02242467407e-05
1.99258593378e-05
1.96102501867e-05
1.92771277701e-05
1.89261520647e-05
1.85569302072e-05
1.81690364856e-05
1.77620743414e-05
1.73354116152e-05
1.68891350841e-05
1.64228485683e-05
1.59360500938e-05
1.54282762772e-05
1.48990550087e-05
1.43479153406e-05
1.3774373844e-05
1.31779431609e-05
1.25581387027e-05
1.19144889819e-05
1.12465561495e-05
1.05539734161e-05
9.83651314651e-06
9.09748620176e-06
8.33803789368e-06
7.55957198489e-06
6.7639317478e-06
5.9536159642e-06
5.13210987124e-06
4.30445256777e-06
3.47827148503e-06
2.66578158113e-06
1.88784086729e-06
1.18200249663e-06
6.13259784003e-07
2.54151331159e-07
9.45454835325e-08
4.34354487939e-08
3.03780057237e-08
2.7500367374e-08
2.69448952593e-08
2.69210943515e-08
2.71560949212e-08
2.78206267368e-08
2.9656339019e-08
3.51923467552e-08
4.55634998193e-08
5.05933554971e-08
1.18590305207e-07
3.16437043344e-07
8.76575976421e-08
1.03641081293e-07
1.24853906274e-07
1.49791226746e-07
1.7869474983e-07
2.13253133485e-07
2.59716214933e-07
3.35674711625e-07
4.78859305448e-07
7.41456956484e-07
1.15289766535e-06
1.69613516178e-06
2.3350467627e-06
3.03963817035e-06
3.78896779105e-06
4.56824783126e-06
5.36645102849e-06
6.17488773678e-06
6.98642150493e-06
7.79504552562e-06
8.59565451635e-06
9.38391492692e-06
1.01561826467e-05
1.09094388608e-05
1.16412343855e-05
1.23496345976e-05
1.30331670106e-05
1.36907671515e-05
1.43217278422e-05
1.49256477465e-05
1.55023861089e-05
1.60520186805e-05
1.65748022001e-05
1.70711405974e-05
1.75415600847e-05
1.79866846882e-05
1.84072194854e-05
1.88039322696e-05
1.91776414526e-05
1.95292007722e-05
1.98594893354e-05
2.01693977406e-05
2.0459819355e-05
2.07316375984e-05
2.09857183376e-05
2.12228981e-05
2.14439771136e-05
2.16497087509e-05
2.18407962693e-05
2.20178912973e-05
2.21819057204e-05
2.23339930703e-05
2.24750342365e-05
2.26057291096e-05
2.27266521493e-05
2.28382826228e-05
2.29410262831e-05
2.30352257704e-05
2.31211701952e-05
2.31990983838e-05
2.32692041305e-05
2.33316370545e-05
2.33865063854e-05
2.34338810591e-05
2.34737929072e-05
2.35062363829e-05
2.35311712749e-05
2.3548522002e-05
2.35581796924e-05
2.3560000822e-05
2.35538084239e-05
2.35393898662e-05
2.35164970985e-05
2.34848436712e-05
2.34441044413e-05
2.33939127025e-05
2.33338607852e-05
2.32634993633e-05
2.31823415841e-05
2.30898675033e-05
2.29855344825e-05
2.28687884811e-05
2.27390804579e-05
2.25958813999e-05
2.24386984052e-05
2.22670845916e-05
2.20806452544e-05
2.18790348323e-05
2.16619493966e-05
2.14291120682e-05
2.11802577365e-05
2.09151154501e-05
2.06333943705e-05
2.03347709999e-05
2.00188821734e-05
1.96853205376e-05
1.9333635821e-05
1.89633408441e-05
1.85739202908e-05
1.81648240854e-05
1.77355469465e-05
1.72854407015e-05
1.68141609202e-05
1.63215801815e-05
1.58070975115e-05
1.52702583699e-05
1.47105557738e-05
1.41274861914e-05
1.35205539585e-05
1.28892792873e-05
1.223321432e-05
1.15519748344e-05
1.08452961595e-05
1.01137114772e-05
9.36023371437e-06
8.5858401293e-06
7.79189986169e-06
6.98025759068e-06
6.15340441243e-06
5.31477612145e-06
4.46927919061e-06
3.62425165971e-06
2.79132892776e-06
1.99028173561e-06
1.25697852829e-06
6.55916011973e-07
2.68484258077e-07
9.62284528648e-08
4.28383288037e-08
2.99317400031e-08
2.73023392907e-08
2.69213618713e-08
2.71403659608e-08
2.79211181362e-08
3.01839271223e-08
3.70074803553e-08
4.86070629511e-08
5.49147662058e-08
1.3281880907e-07
3.42004024373e-07
8.86250958725e-08
1.03601650112e-07
1.23089619285e-07
1.45833080994e-07
1.73047517465e-07
2.10058075343e-07
2.74050952449e-07
4.07064003423e-07
6.74869886553e-07
1.11764901641e-06
1.70987858773e-06
2.40182880147e-06
3.15674665831e-06
3.95155755964e-06
4.77121243118e-06
5.6051073542e-06
6.44519734455e-06
7.28502049518e-06
8.11919164314e-06
8.94313782212e-06
9.75295859383e-06
1.05453453399e-05
1.1317527795e-05
1.20672284069e-05
1.27926206842e-05
1.34922856954e-05
1.41651708519e-05
1.48105467847e-05
1.54279684716e-05
1.60172356042e-05
1.65783593907e-05
1.71115294814e-05
1.76170886161e-05
1.80955071311e-05
1.85473650725e-05
1.89733328438e-05
1.93741584696e-05
1.97506518144e-05
2.01036744061e-05
2.04341251162e-05
2.07429309538e-05
2.10310333958e-05
2.12993799133e-05
2.15489112309e-05
2.17805538795e-05
2.19952083814e-05
2.21937422525e-05
2.23769788454e-05
2.25456930925e-05
2.27006088421e-05
2.28427149254e-05
2.29732879715e-05
2.30933152175e-05
2.3203593837e-05
2.33047884505e-05
2.33974617836e-05
2.34820969244e-05
2.35591082855e-05
2.3628851551e-05
2.36916268914e-05
2.37476839705e-05
2.37972223558e-05
2.38403948434e-05
2.38773070511e-05
2.39080201879e-05
2.39325503926e-05
2.39508711978e-05
2.39629126622e-05
2.39685634804e-05
2.39676698064e-05
2.39600369103e-05
2.39454276356e-05
2.39235636592e-05
2.38941238128e-05
2.3856745431e-05
2.38110233504e-05
2.37565125343e-05
2.36927293017e-05
2.36191570333e-05
2.3535251436e-05
2.34404507196e-05
2.33341853338e-05
2.32158915179e-05
2.30850224874e-05
2.29410604117e-05
2.27835228227e-05