/*--------------------------------*- C++ -*----------------------------------*\
| =========                 |                                                 |
| \\      /  F ield         | OpenFOAM: The Open Source CFD Toolbox           |
|  \\    /   O peration     | Version:  2206                                  |
|   \\  /    A nd           | Website:  www.openfoam.com                      |
|    \\/     M anipulation  |                                                 |
\*---------------------------------------------------------------------------*/
FoamFile
{
    version     2.0;
    format      ascii;
    arch        "LSB;label=64;scalar=64";
    class       volScalarField;
    location    "1.6/water";
    object      Ct2;
}
// * * * * * * * * * * * * * * * * * * * * * * * * * * * * * * * * * * * * * //

dimensions      [0 0 0 0 0 0 0];

internalField   nonuniform List<scalar> 
23300
(
8.97316047302
8.97404771072
8.97459629342
8.97490344814
8.97508955503
8.97520956157
8.97528908949
8.97534107969
8.97537231481
8.97538616182
8.97538356815
8.97536291722
8.97531935588
8.97524714138
8.97513609445
8.9749714387
8.97473452022
8.97440739701
8.97398508027
8.97349979373
8.97305740233
8.97286807125
8.97315699554
8.97372605626
8.97424999976
8.97464548178
8.97493333661
8.97514640839
8.9753084029
8.97543448037
8.97553432991
8.97561440032
8.97567914018
8.97573176214
8.97577463926
8.97580959223
8.97583802435
8.9758610521
8.97587955263
8.97589423668
8.97590566394
8.97591429149
8.97592047554
8.97592450733
8.97592660787
8.97592695608
8.97592567912
8.97592287476
8.97591859777
8.97591287549
8.97590568646
8.97589695139
8.97588660445
8.97587484811
8.97586167055
8.9758470086
8.97583076274
8.97581281819
8.97579303001
8.97577123468
8.97574723162
8.97572079241
8.97569163994
8.97565945513
8.97562385254
8.97558438329
8.9755405052
8.97549157998
8.97543683533
8.97537535391
8.97530602478
8.97522752309
8.9751382527
8.97503632599
8.97491952175
8.97478531885
8.97463097741
8.97445383392
8.97425189163
8.97402507652
8.97377756629
8.97352207848
8.97328710577
8.97312675332
8.97311365334
8.97324626387
8.97346388169
8.97371887374
8.97398167487
8.97423519163
8.97447023111
8.9746825663
8.97487103758
8.97503633996
8.9751801936
8.97530482789
8.97541262977
8.9755059507
8.975586977
8.97565768189
8.97571979463
8.97577480733
8.97582395762
8.97586818122
8.97590792284
8.97594259573
8.97597084708
8.97599244162
8.9760068719
8.97601408617
8.97601480016
8.97601032698
8.97600210838
8.97599134256
8.97597886197
8.9759651843
8.97595059322
8.97593521518
8.97591907079
8.97590211579
8.97588425751
8.97586536795
8.97584528292
8.97582380251
8.97580067961
8.97577561018
8.97574821151
8.9757179991
8.97568434597
8.97564642738
8.97560312309
8.97555285391
8.97549327416
8.97542067217
8.97532867104
8.97520504288
8.97502240158
8.97470741935
8.97410058392
8.97378006093
8.96760988159
8.96848910798
8.96935403287
8.97005599134
8.97060807107
8.97104105978
8.97138060168
8.97164575037
8.97185026775
8.97200442418
8.9721170183
8.97219851666
8.97226729437
8.97228433105
8.97224250893
8.97214839635
8.97201970849
8.97188836421
8.97180076041
8.97181010936
8.97196637879
8.97227890812
8.97269707896
8.9731326323
8.97351083575
8.97381355036
8.97405007765
8.97423441748
8.9743783947
8.974491133
8.97457958336
8.9746490905
8.97470368922
8.97474642176
8.9747795268
8.97480469459
8.97482319628
8.974836056
8.97484409569
8.9748480277
8.97484844306
8.97484586466
8.97484071656
8.97483336693
8.97482409639
8.9748131399
8.97480065698
8.97478677167
8.97477154207
8.97475499899
8.97473712125
8.97471791601
8.97469828504
8.97467747471
8.97465516803
8.97463118784
8.97460538224
8.97457762244
8.97454775781
8.97451563559
8.97448106594
8.97444384492
8.97440372069
8.97436041551
8.97431359061
8.97426286587
8.97420778182
8.97414781638
8.97408234305
8.97401064506
8.97393187092
8.9738450507
8.97374905833
8.97364264997
8.97352446939
8.97339317333
8.97324758847
8.97308709926
8.97291222337
8.97272563848
8.97253361454
8.97234793792
8.97218754543
8.97207790965
8.97204278609
8.97208604961
8.9721910093
8.97233611356
8.97250248617
8.97267578957
8.97284595153
8.97300643495
8.97315334015
8.9732847038
8.97339987123
8.97349907372
8.97358306256
8.97365289862
8.9737097708
8.97375495246
8.97378979746
8.97381589168
8.97383529988
8.97385112337
8.97386876907
8.97389976672
8.97396394704
8.9740613641
8.9741954764
8.97436686152
8.97456386885
8.97475852816
8.97491560891
8.97501291335
8.97505245348
8.97505164063
8.97502807005
8.97499290202
8.97495170941
8.97490687533
8.97485923679
8.97480893826
8.9747557979
8.97469946071
8.9746394377
8.97457511204
8.97450570749
8.97443024664
8.97434746794
8.97425570466
8.97415266861
8.97403509022
8.97389805221
8.97373366814
8.97352799959
8.97325230745
8.97283498837
8.97215770196
8.97242586476
8.97457140738
8.96869773832
8.96913278591
8.96952652415
8.96985315491
8.97013075873
8.97037416656
8.97059324754
8.97079535098
8.97098692882
8.97117597785
8.97137469672
8.97159670548
8.97181133206
8.97200185199
8.97216815044
8.97231844629
8.97246639506
8.97262895916
8.9728228132
8.97303942158
8.97327766588
8.97352138992
8.97374935134
8.97394499761
8.97410104143
8.97421889394
8.97430430271
8.97436402661
8.97440422263
8.97442990523
8.9744449002
8.97445203532
8.97445335962
8.97445036266
8.97444413009
8.97443548177
8.97442505315
8.97441336856
8.97440086673
8.97438792931
8.97437487533
8.9743619722
8.9743494243
8.97433738491
8.9743259498
8.97431517404
8.97430506993
8.97429562554
8.97428680412
8.97427856353
8.97427084832
8.97426401816
8.97425759934
8.97425095982
8.97424373602
8.97423570672
8.97422671847
8.97421665515
8.97420541135
8.97419288725
8.9741789763
8.97416356654
8.97414653213
8.97412773561
8.9741070204
8.97408421274
8.9740591143
8.97403150364
8.97400112929
8.97396771166
8.97393093839
8.97389047036
8.97384594524
8.97379699782
8.97374328778
8.97368455876
8.97362072524
8.97355201628
8.9734791747
8.97340373144
8.97332831566
8.97325692423
8.97319491176
8.97314830953
8.97312192041
8.97311689136
8.97313054114
8.97315806252
8.97319416865
8.97323402667
8.97327379938
8.97331049886
8.97334195749
8.97336668414
8.9733837003
8.97339240594
8.97339245087
8.9733836313
8.97336580109
8.97333881656
8.9733025017
8.97325665365
8.97320108408
8.97313574984
8.97306105778
8.97297847881
8.97289095973
8.97280487608
8.97272519588
8.97266047481
8.97262901714
8.97266310333
8.97281122399
8.9731195576
8.97356514395
8.97400845837
8.97430499109
8.97443509991
8.97446000899
8.97443549651
8.97439047122
8.97433664397
8.97427804165
8.97421571618
8.97414960377
8.9740791692
8.97400359206
8.97392178531
8.97383232606
8.97373331117
8.9736221135
8.97349500097
8.97334649832
8.97316809779
8.97294482525
8.97264338579
8.97218130974
8.97177760775
8.97380414913
8.97527392576
8.96917219313
8.96956800479
8.96992210319
8.97022303582
8.97048406497
8.97071517721
8.97092455851
8.97111951541
8.97130719724
8.97149681732
8.97170045581
8.97190152456
8.97210175146
8.97230105592
8.97250232531
8.97270472575
8.97290560038
8.97310948748
8.9733125437
8.97350564646
8.97367799995
8.97382073421
8.9739298386
8.97400658487
8.97405566557
8.97408292162
8.97409385598
8.97409305059
8.97408408582
8.97406968178
8.97405186551
8.97403214182
8.97401161499
8.97399109939
8.97397118586
8.97395230907
8.97393478021
8.97391882745
8.97390460583
8.97389221938
8.97388171827
8.97387311373
8.97386637298
8.97386143434
8.9738582043
8.97385657375
8.97385641656
8.97385760579
8.97386001317
8.97386352511
8.97386803873
8.97387343737
8.97387906885
8.9738844971
8.97388943187
8.97389367998
8.97389710243
8.97389959524
8.97390106994
8.97390144885
8.97390065583
8.97389861651
8.97389525279
8.97389048443
8.97388422504
8.97387638383
8.97386686269
8.97385555798
8.97384235893
8.97382715029
8.97380981311
8.97379023023
8.97376829218
8.97374390971
8.97371703027
8.97368766472
8.97365592247
8.97362205934
8.97358653355
8.97355006526
8.97351368067
8.97347871205
8.97344670239
8.97341915943
8.97339716626
8.97338089165
8.97336951901
8.97336160698
8.97335580291
8.97335044018
8.97334404016
8.97333533002
8.97332331022
8.97330716116
8.97328625355
8.97326010027
8.97322830486
8.97319052002
8.97314640947
8.97309561396
8.97303772324
8.97297225415
8.97289863251
8.97281618137
8.97272411553
8.97262153089
8.97250734935
8.97238031103
8.97223896676
8.97208302473
8.97191143783
8.97172486921
8.97152927517
8.97134411456
8.97122104983
8.97127297521
8.97165689321
8.97237095192
8.97307434716
8.97347066825
8.97359884526
8.97359644068
8.97354392475
8.97347220012
8.97339063313
8.97330107807
8.97320293235
8.97309468777
8.97297432853
8.97283938208
8.97268688862
8.97251339634
8.97231495063
8.97208656735
8.9718188105
8.97148204915
8.97103378645
8.97155215673
8.97442999118
8.97548447259
8.96967386214
8.9700579428
8.97040221178
8.97069889981
8.97095971757
8.97119342665
8.97140877224
8.97161204866
8.97180874142
8.97200749036
8.97219365481
8.9723725259
8.97255229494
8.97273498194
8.97292103448
8.97310840905
8.97329122812
8.97345999937
8.97360419493
8.97371636755
8.97379484684
8.97384319652
8.97386749117
8.97387395196
8.97386781215
8.97385313029
8.97383298445
8.97380971499
8.97378509889
8.97376047876
8.9737368474
8.97371492055
8.97369518638
8.97367795608
8.97366339776
8.97365157501
8.97364246962
8.97363600925
8.97363207935
8.97363054083
8.97363123383
8.97363398928
8.97363862886
8.97364497397
8.97365284452
8.9736620667
8.97367247144
8.97368390175
8.97369621129
8.97370926251
8.97372293806
8.97373683166
8.97375053126
8.97376375918
8.97377632282
8.97378808795
8.97379895553
8.9738088502
8.97381770923
8.97382547885
8.97383210903
8.97383755289
8.97384176404
8.97384469696
8.97384630559
8.97384654397
8.97384536566
8.97384272467
8.97383857573
8.97383287578
8.97382558559
8.97381667244
8.97380611386
8.97379390263
8.97378005361
8.97376461206
8.97374766393
8.97372934638
8.973709858
8.97368946421
8.97366849462
8.9736473244
8.97362633352
8.97360583778
8.97358599602
8.97356673725
8.97354776997
8.97352849484
8.97350826994
8.97348660327
8.97346313041
8.97343737093
8.97340890268
8.97337738009
8.97334252133
8.97330404362
8.97326168836
8.97321519993
8.97316430264
8.97310868494
8.97304798729
8.9729817834
8.97290956025
8.97283069058
8.97274439527
8.97264968416
8.97254526181
8.97242940924
8.97229974282
8.97215306293
8.97198794418
8.97180040198
8.97158575256
8.97133930384
8.97105835765
8.97074842743
8.97044099693
8.97023443862
8.97033225352
8.97092024062
8.97176884859
8.97234236378
8.97253098029
8.97251742407
8.97242731105
8.97230637333
8.97216695618
8.97201127951
8.97183918256
8.97165050489
8.97144605187
8.97122830814
8.97100201374
8.97077386632
8.97054831474
8.97031187064
8.97016506206
8.97197970918
8.97479217116
8.9756160253
8.97012769828
8.97050046925
8.97083314911
8.97111931869
8.97137041283
8.97159563727
8.9718023162
8.97199584837
8.9721807824
8.97235398325
8.97251955327
8.97268603568
8.97285556738
8.97302725927
8.97319551453
8.97334990945
8.97347866413
8.97357428248
8.97363647628
8.9736702934
8.97368263946
8.97367995196
8.97366736941
8.97364872203
8.97362678949
8.97360358335
8.9735805788
8.97355886549
8.97353923701
8.9735222449
8.97350823888
8.97349740046
8.97348977524
8.97348530274
8.97348384472
8.97348520967
8.97348917384
8.97349549752
8.97350393732
8.97351425447
8.97352622012
8.97353961835
8.9735542475
8.97356992066
8.97358646541
8.97360372356
8.97362155084
8.97363981704
8.97365840611
8.97367720461
8.9736960752
8.97371463607
8.97373263261
8.97374989638
8.97376630937
8.97378178702
8.97379626655
8.97380969905
8.97382204451
8.97383326829
8.97384333945
8.97385222913
8.97385991024
8.97386635667
8.97387154362
8.9738754471
8.97387804477
8.97387931556
8.97387924097
8.97387780495
8.97387499566
8.97387080574
8.97386523453
8.97385828875
8.97384998505
8.97384035064
8.97382942539
8.97381726125
8.97380392204
8.97378947935
8.97377400748
8.97375757308
8.97374022263
8.97372196446
8.97370275281
8.97368247907
8.97366096629
8.97363799913
8.97361331378
8.97358661773
8.9735576256
8.97352627103
8.97349252351
8.97345621923
8.97341721034
8.97337534626
8.97333049643
8.97328246751
8.97323104423
8.97317598402
8.97311699737
8.97305373684
8.97298578462
8.97291263017
8.97283364066
8.97274801442
8.97265471291
8.97255235103
8.97243903944
8.97231204244
8.97216882438
8.97200740398
8.97182337717
8.97161126111
8.97136431797
8.97107489238
8.97073632307
8.97034971824
8.96994378504
8.96961361693
8.96953945118
8.96989291962
8.97051878208
8.97092580669
8.97099884021
8.97090822131
8.97076064905
8.97059200443
8.9704137477
8.97023186398
8.97005218004
8.96988178518
8.96972964021
8.96960683715
8.96952407064
8.96948646624
8.96979441146
8.97253644009
8.9750041431
8.97570054545
8.97054989121
8.97090477412
8.97121732367
8.97148312954
8.97171355239
8.97191781472
8.97210320947
8.97227601126
8.97243847591
8.97259436942
8.97275162834
8.9729109122
8.97306794126
8.9732122957
8.9733311146
8.97341664094
8.97346985481
8.97349725124
8.97350623265
8.97350291917
8.97349187927
8.97347645413
8.97345908266
8.97344153077
8.97342506205
8.97341056417
8.97339864505
8.97338969498
8.97338393064
8.9733814246
8.97338213363
8.97338592213
8.97339258773
8.97340188192
8.97341353128
8.97342725236
8.97344276586
8.97345980441
8.97347811967
8.97349748424
8.97351769377
8.97353856543
8.97355993737
8.973581666
8.97360362471
8.97362570141
8.97364779781
8.97366982764
8.97369171511
8.97371339009
8.97373468558
8.9737553494
8.97377521732
8.97379418262
8.97381217281
8.97382913642
8.9738450354
8.97385983987
8.9738735254
8.97388607073
8.97389745695
8.97390766646
8.97391668302
8.97392449108
8.97393107634
8.97393642518
8.97394052546
8.97394336608
8.97394493785
8.97394523316
8.97394424694
8.97394197621
8.97393842107
8.97393358395
8.97392747021
8.9739200868
8.97391144191
8.97390154257
8.97389039303
8.97387799112
8.97386432584
8.97384937322
8.9738330939
8.97381542983
8.97379630403
8.97377562107
8.97375327466
8.97372915332
8.97370313573
8.97367512345
8.97364498557
8.97361259164
8.97357779209
8.97354059208
8.97350105746
8.9734590557
8.97341449374
8.97336720984
8.97331708083
8.97326389573
8.97320740949
8.97314734227
8.97308335612
8.97301503916
8.97294188507
8.97286326236
8.9727783678
8.97268615425
8.9725852173
8.97247359675
8.97234842631
8.97220862999
8.97205128221
8.97187211662
8.97166572589
8.97142517315
8.97114185981
8.97080614238
8.9704106254
8.96996145839
8.969506346
8.9691580479
8.9690505539
8.96923319101
8.96950146059
8.96959476605
8.96954586904
8.96944871408
8.96934239232
8.969239739
8.969146976
8.96906986964
8.96901634819
8.968998854
8.96903445162
8.96915312272
8.96984497319
8.97302202881
8.97514731098
8.97576187418
8.97091273586
8.9712436928
8.97153111322
8.97177230378
8.97197841093
8.97215926468
8.97232435256
8.97247799326
8.97262652036
8.97277623926
8.97292522136
8.9730641019
8.97317842868
8.97325859521
8.97330654718
8.97333095593
8.97334021988
8.9733402282
8.97333481562
8.97332655747
8.97331729887
8.97330841303
8.97330092055
8.97329554895
8.97329278241
8.97329290468
8.97329604146
8.97330219239
8.97331126011
8.97332307164
8.9733374006
8.97335398407
8.97337254068
8.9733927832
8.97341443148
8.97343721959
8.97346090299
8.97348526059
8.97351009709
8.97353524158
8.9735605469
8.97358588658
8.97361115299
8.97363625409
8.97366111154
8.97368565823
8.97370983704
8.97373359888
8.97375690081
8.97377970587
8.97380187281
8.97382322616
8.97384365643
8.97386309317
8.97388149
8.97389881492
8.97391504466
8.97393016106
8.97394414916
8.97395699582
8.97396868919
8.97397921808
8.973988572
8.97399674082
8.97400371506
8.9740094856
8.97401404413
8.97401738282
8.97401949485
8.97402037395
8.97402001494
8.9740184131
8.97401556446
8.9740114649
8.97400610999
8.97399949357
8.97399160704
8.97398243734
8.97397196584
8.9739601663
8.97394700407
8.97393243496
8.97391640564
8.97389885404
8.97387971167
8.9738589063
8.97383636646
8.97381202377
8.97378581924
8.97375769537
8.97372758605
8.97369544929
8.97366120907
8.97362476754
8.97358600569
8.97354482933
8.97350137338
8.97345545269
8.97340697379
8.97335572264
8.97330154396
8.9732442056
8.97318341971
8.97311885002
8.97305009098
8.97297664136
8.97289787197
8.97281298102
8.97272092278
8.97262030704
8.97250918876
8.97238500992
8.97224699514
8.97209201724
8.97191600353
8.9717136788
8.97147817739
8.97120070371
8.97087060603
8.97047718766
8.97001736464
8.96951858681
8.96907111951
8.96879455088
8.96874299685
8.96884090814
8.96890674264
8.96889562933
8.96885463416
8.96881036202
8.96877270511
8.96874815917
8.96874601531
8.96878267837
8.96888309636
8.96910229708
8.97008319665
8.97340604525
8.97525204668
8.97580874117
8.97120846035
8.9715131815
8.97177457479
8.97199142313
8.97217589177
8.97233889726
8.97248733955
8.97263110803
8.9727745851
8.97291273345
8.9730308115
8.97311383065
8.97316128305
8.97318460358
8.9731947193
8.9731981517
8.97319845159
8.97319761161
8.97319686875
8.97319708655
8.97319891509
8.97320283848
8.9732091898
8.97321815779
8.97322980463
8.97324408545
8.97326087338
8.97327997936
8.97330117284
8.9733241961
8.97334877964
8.97337465192
8.97340155022
8.97342922627
8.97345745267
8.97348602474
8.97351476299
8.97354351203
8.9735721403
8.97360053727
8.97362861177
8.97365628864
8.97368350674
8.97371021596
8.97373637551
8.97376195186
8.97378691759
8.97381124995
8.97383492947
8.97385794129
8.97388018516
8.9739015276
8.97392188819
8.97394121664
8.97395948082
8.97397665939
8.97399273721
8.97400770271
8.9740215463
8.97403425943
8.97404583417
8.97405626277
8.97406553773
8.9740736515
8.97408059674
8.97408636606
8.97409095232
8.97409434834
8.97409654719
8.97409754184
8.97409732534
8.97409589027
8.97409322882
8.9740893319
8.974084189
8.97407778692
8.97407010939
8.97406113563
8.97405083993
8.97403919053
8.97402614978
8.97401167388
8.97399571409
8.97397821756
8.97395912957
8.97393839551
8.97391596357
8.97389178677
8.97386582327
8.97383803537
8.97380839041
8.97377684863
8.97374335394
8.97370786126
8.97367030581
8.97363056865
8.97358853943
8.97354396116
8.97349707325
8.97344762218
8.97339546098
8.97334037645
8.97328215203
8.97322053433
8.97315518081
8.97308567945
8.97301153218
8.97293211041
8.97284660722
8.9727539596
8.97265274045
8.97254087208
8.97241700325
8.97227967199
8.97212575904
8.97195131751
8.97175116796
8.97151850576
8.9712444429
8.97091775778
8.97052585019
8.97006030442
8.96953643172
8.96903308551
8.96868142776
8.96855320418
8.96860071999
8.96866588266
8.96867602112
8.96866138892
8.96864596459
8.96864170598
8.96866133535
8.96872623819
8.96886884818
8.96916817905
8.97038263001
8.97370877332
8.97533312958
8.97584601639
8.97143528516
8.97171533176
8.97195461805
8.97215317377
8.97232119986
8.9724705228
8.97261284628
8.97275206487
8.97288077412
8.97298011187
8.97303846175
8.97306603284
8.97307864839
8.97308496848
8.97308910456
8.97309327453
8.97309865634
8.97310585914
8.97311521318
8.97312690564
8.97314103734
8.97315763421
8.97317665341
8.97319798543
8.97322146591
8.97324688632
8.97327401004
8.97330258331
8.97333234824
8.97336304998
8.97339444544
8.97342630695
8.97345842745
8.97349062129
8.97352272664
8.97355460413
8.97358613707
8.97361722877
8.9736478014
8.97367779285
8.97370715494
8.9737358505
8.9737638516
8.97379113719
8.97381769172
8.97384350366
8.97386856469
8.9738928689
8.97391641183
8.97393919338
8.97396115308
8.97398217814
8.97400220322
8.97402118832
8.97403910865
8.97405594823
8.97407169621
8.97408634443
8.97409988624
8.97411231555
8.97412362657
8.97413381338
8.97414287
8.97415079012
8.9741575673
8.9741631947
8.97416766539
8.97417097194
8.97417310677
8.97417406167
8.97417382803
8.97417239624
8.97416975584
8.97416589467
8.97416079893
8.97415445211
8.97414683498
8.97413792454
8.97412769411
8.97411611265
8.97410314529
8.97408875332
8.97407289537
8.97405552804
8.97403660755
8.97401609088
8.97399393745
8.97397010973
8.97394457385
8.97391729856
8.97388825297
8.97385740433
8.9738247175
8.97379014558
8.97375362018
8.97371506953
8.97367443014
8.97363154425
8.97358629234
8.97353842128
8.97348798713
8.97343484856
8.97337878074
8.97331957548
8.97325693659
8.97319057209
8.97312006419
8.97304490015
8.97296444603
8.97287788497
8.97278413721
8.97268171306
8.97256856702
8.97244433158
8.9723067452
8.97215277777
8.97197853319
8.97177887514
8.97154699069
8.97127384591
8.97094770358
8.97055448027
8.97008185362
8.9695363322
8.96898791801
8.96858440561
8.96842991388
8.96848695569
8.96857362723
8.96859869894
8.96859854845
8.96860410191
8.96863617178
8.96872249877
8.96890301197
8.9692809177
8.97069399529
8.97395115699
8.97539821985
8.97587643602
8.97160079002
8.97186032535
8.9720826319
8.97226702945
8.97242622766
8.9725718709
8.97271029759
8.97283397467
8.97292184645
8.97296709989
8.97298868335
8.97300166559
8.97301054897
8.97301807534
8.97302649818
8.97303713655
8.97305057363
8.97306695953
8.97308622998
8.97310821821
8.97313271213
8.97315947227
8.97318824349
8.97321875757
8.97325074176
8.97328392277
8.97331803559
8.97335282681
8.97338806108
8.97342352216
8.97345901662
8.97349437303
8.97352944355
8.97356410188
8.97359824343
8.97363178248
8.9736646514
8.97369679756
8.97372818196
8.9737587764
8.97378856194
8.97381752649
8.97384566347
8.97387297002
8.97389944598
8.97392509295
8.97394991379
8.97397391235
8.97399709299
8.97401946489
8.97404100307
8.9740616039
8.9740812091
8.97409978343
8.97411730545
8.97413376167
8.97414914327
8.97416344381
8.9741766582
8.97418878166
8.97419980961
8.97420973712
8.97421855905
8.97422626967
8.97423286298
8.97423833227
8.9742426705
8.97424586986
8.97424792211
8.97424881805
8.97424854787
8.97424710048
8.97424446379
8.97424062394
8.9742355655
8.97422927064
8.9742217193
8.97421288847
8.9742027525
8.97419128264
8.97417844767
8.9741642139
8.97414854613
8.97413140799
8.97411276309
8.97409257554
8.97407081095
8.97404743651
8.97402242127
8.97399573513
8.97396734792
8.97393722747
8.97390533732
8.97387163468
8.97383607011
8.97379858314
8.97375908932
8.97371748806
8.97367370173
8.97362757118
8.97357894093
8.97352758275
8.97347332902
8.9734161977
8.9733558689
8.97329211464
8.97322455736
8.97315281508
8.97307638395
8.97299460708
8.97290664168
8.9728113867
8.97270729258
8.972592866
8.97246751619
8.97232884843
8.97217386912
8.97199866624
8.97179807131
8.97156517828
8.97129071455
8.97096235973
8.97056462477
8.97008184021
8.96951340579
8.96892204783
8.96847360376
8.96831254028
8.96840707819
8.96852498328
8.96856492014
8.96858393478
8.96862784461
8.96873580088
8.96895635907
8.969417048
8.97099910657
8.97414864326
8.97545179393
8.97590171017
8.97171281656
8.97195795059
8.97217061242
8.97234938065
8.97250561319
8.97264868272
8.97277420084
8.97286064476
8.9729041784
8.97293081474
8.97295259154
8.97296861356
8.97298103554
8.97299325618
8.97300755279
8.9730250024
8.97304590995
8.97307015939
8.97309744187
8.97312737241
8.97315955342
8.97319359705
8.97322913921
8.9732658403
8.97330338994
8.97334150498
8.97337993252
8.97341844733
8.97345685347
8.97349498104
8.97353268651
8.97356984924
8.97360637095
8.97364217227
8.97367719181
8.97371138281
8.97374471205
8.97377715686
8.97380870391
8.97383934676
8.9738690847
8.97389792087
8.9739258613
8.97395291351
8.97397908592
8.97400438712
8.97402882578
8.97405241056
8.97407515036
8.97409706023
8.97411814637
8.97413830889
8.97415749216
8.97417566268
8.97419280015
8.97420889194
8.9742239301
8.97423790897
8.97425082428
8.97426267202
8.97427344834
8.9742831489
8.9742917691
8.97429930355
8.97430574648
8.97431109118
8.97431533054
8.97431845636
8.97432045993
8.97432133134
8.97432105999
8.97431963384
8.97431703987
8.9743132633
8.974308288
8.97430209572
8.97429466649
8.97428597798
8.97427600598
8.97426472401
8.97425210397
8.97423811602
8.97422272939
8.97420591241
8.97418763341
8.97416786072
8.97414656338
8.97412371087
8.97409927328
8.97407322044
8.97404552133
8.97401614266
8.9739850478
8.9739521951
8.97391753642
8.97388101503
8.97384256576
8.97380211373
8.97375956064
8.97371478778
8.97366768892
8.97361811308
8.97356586608
8.97351074179
8.97345234093
8.97339084093
8.9733258289
8.97325697022
8.97318384648
8.97310593273
8.97302258744
8.97293292587
8.97283576423
8.9727294183
8.97261359131
8.97248670361
8.97234638864
8.97218964639
8.97201252749
8.97180977783
8.97157432116
8.97129654256
8.97096341865
8.97055796798
8.97006131125
8.96946658804
8.96883094112
8.96834131021
8.9681902553
8.96834413202
8.96849793501
8.96856023187
8.96862275482
8.96875554616
8.96902059248
8.96956859404
8.97129060414
8.97431205295
8.97549667066
8.97592296744
8.97179194363
8.97202633588
8.97223280275
8.97240886688
8.97256405361
8.97269940376
8.9727951594
8.97284532671
8.97288356546
8.97292126017
8.97294956429
8.97296922553
8.9729855451
8.97300251087
8.97302223856
8.97304554394
8.97307250187
8.97310280722
8.97313599641
8.9731715591
8.97320900108
8.97324786572
8.97328774701
8.97332828708
8.97336917739
8.97341015209
8.97345098697
8.97349149288
8.97353151426
8.9735709232
8.97360961792
8.97364751771
8.97368456152
8.97372070379
8.97375591318
8.9737901692
8.9738234611
8.97385578521
8.97388714394
8.97391754378
8.97394699453
8.97397550772
8.97400309609
8.97402977249
8.97405554949
8.97408043882
8.97410445146
8.97412759768
8.97414988742
8.97417134001
8.97419198951
8.97421173732
8.97423052906
8.97424833097
8.97426512264
8.97428089142
8.97429562953
8.97430933165
8.97432199401
8.97433361305
8.97434418548
8.97435370734
8.97436217447
8.9743695817
8.97437592347
8.97438119308
8.97438538332
8.97438848575
8.97439049132
8.97439138963
8.97439116956
8.97438981847
8.97438732281
8.97438366731
8.97437883557
8.97437280932
8.97436556894
8.97435709287
8.97434735824
8.97433634038
8.97432401351
8.9743103505
8.97429532356
8.97427890408
8.97426106327
8.97424177196
8.9742210011
8.9741987213
8.97417490296
8.97414951552
8.97412252712
8.97409390347
8.97406360727
8.9740315969
8.97399782566
8.97396224047
8.97392478082
8.97388537654
8.97384394858
8.97380040695
8.9737546415
8.97370651833
8.97365589587
8.97360262656
8.97354646605
8.97348718942
8.97342441276
8.97335801619
8.97328774066
8.97321309272
8.9731335668
8.97304844339
8.97295686048
8.97285758293
8.97274913406
8.972631371
8.97250240822
8.97235986489
8.97220066812
8.97202077584
8.97181478603
8.97157536789
8.97129244853
8.97095214359
8.9705357864
8.97002114522
8.96939538717
8.96871197876
8.96818536455
8.96806737794
8.96830512567
8.96850143708
8.96861263187
8.96877843175
8.96909397274
8.96973186258
8.97156541864
8.97444905437
8.97553473645
8.97594099024
8.97184663094
8.9720722899
8.97227477482
8.97245024304
8.97260315814
8.97271923991
8.97278312788
8.97283383839
8.97289288305
8.9729405701
8.97297198757
8.97299440763
8.97301436222
8.97303563914
8.9730600122
8.97308803769
8.97311961591
8.97315432372
8.97319161667
8.97323092935
8.97327173356
8.97331355624
8.97335599048
8.97339869002
8.97344136788
8.97348378664
8.97352575495
8.97356711849
8.9736077569
8.9736475763
8.97368650694
8.97372449741
8.9737615129
8.97379753085
8.97383253972
8.97386653568
8.9738995218
8.97393150559
8.97396249841
8.9739925137
8.97402156657
8.97404967257
8.97407684741
8.9741031061
8.97412846278
8.97415293023
8.9741765199
8.97419924196
8.97422110573
8.97424212335
8.97426236111
8.97428173128
8.97430017149
8.9743176473
8.97433413748
8.97434962884
8.97436411354
8.97437758638
8.97439004394
8.97440148306
8.97441190087
8.97442129378
8.97442965797
8.9744369885
8.97444327999
8.97444852573
8.97445271849
8.97445584963
8.97445790986
8.97445888842
8.97445877383
8.97445755303
8.97445521213
8.97445173557
8.97444710687
8.97444130781
8.97443431915
8.97442612002
8.97441668854
8.97440600137
8.97439403437
8.97438076225
8.97436615917
8.97435019844
8.97433285306
8.97431409535
8.97429389733
8.97427223018
8.97424906441
8.97422436913
8.97419811186
8.97417025768
8.97414076886
8.97410960382
8.97407671672
8.97404205637
8.9740055656
8.97396718018
8.97392682773
8.97388442566
8.97383988084
8.97379308736
8.97374392205
8.9736922323
8.97363783862
8.97358057005
8.97352016642
8.97345633771
8.97338869149
8.97331679914
8.9732405427
8.97315923057
8.97307217549
8.97297839412
8.97287653119
8.97276609641
8.9726461602
8.97251478077
8.97236954493
8.97220729831
8.97202387059
8.97181365594
8.97156898559
8.97127920223
8.97092936967
8.97049884962
8.96996168035
8.96929889415
8.96856257639
8.96800610578
8.96795857229
8.96831229432
8.96857402254
8.96880096178
8.96917650573
8.9699040273
8.97182256369
8.97456519009
8.97556731036
8.97595634111
8.9718809896
8.97209961557
8.97230000912
8.97247610419
8.97262164934
8.97271094519
8.97277088663
8.97285097446
8.97292686141
8.97297778312
8.97301076681
8.97303580054
8.97305921882
8.97308432678
8.97311255557
8.97314426131
8.97317923698
8.97321700546
8.97325699904
8.97329864696
8.97334142792
8.97338488418
8.97342863085
8.97347234821
8.97351577894
8.97355871668
8.97360100132
8.97364250878
8.97368314718
8.97372284875
8.97376156719
8.97379927165
8.97383594507
8.97387157984
8.97390617675
8.97393974195
8.97397228633
8.97400382339
8.97403436887
8.97406393929
8.97409255179
8.97412022316
8.97414696978
8.97417280693
8.97419774893
8.97422180862
8.9742449976
8.97426732611
8.97428880431
8.97430942985
8.97432926839
8.97434829354
8.9743664198
8.97438360946
8.97439983937
8.9744150954
8.97442936954
8.97444265668
8.97445495371
8.97446625777
8.97447656642
8.97448587638
8.97449418417
8.97450148503
8.97450777374
8.97451304361
8.97451728736
8.97452049618
8.97452266057
8.97452376947
8.97452381107
8.97452277198
8.97452063801
8.9745173934
8.97451302154
8.97450750429
8.97450082268
8.97449295628
8.97448388394
8.97447358322
8.97446203109
8.97444920344
8.9744350757
8.97441962241
8.97440281769
8.97438463476
8.97436504627
8.97434402379
8.97432153789
8.97429755749
8.97427204986
8.97424497976
8.97421630933
8.97418599723
8.97415399837
8.97412026301
8.97408473638
8.97404735767
8.9740080594
8.97396676612
8.97392339317
8.97387784464
8.97383001128
8.97377976835
8.97372697307
8.97367144903
8.97361298679
8.97355136132
8.97348628707
8.97341739153
8.97334424573
8.97326614046
8.97318294712
8.97309379729
8.97299765433
8.97289324248
8.97278057226
8.9726581509
8.97252400951
8.9723756447
8.97220979364
8.97202211929
8.97180675155
8.97155559192
8.97125725647
8.97089552434
8.97044739763
8.96988256176
8.9691753332
8.96837960821
8.96780785302
8.9678971451
8.96841660129
8.96880798891