/*--------------------------------*- C++ -*----------------------------------*\
| =========                 |                                                 |
| \\      /  F ield         | OpenFOAM: The Open Source CFD Toolbox           |
|  \\    /   O peration     | Version:  2206                                  |
|   \\  /    A nd           | Website:  www.openfoam.com                      |
|    \\/     M anipulation  |                                                 |
\*---------------------------------------------------------------------------*/
FoamFile
{
    version     2.0;
    format      ascii;
    arch        "LSB;label=64;scalar=64";
    class       volScalarField;
    location    "1.6/water";
    object      epsilon.gas;
}
// * * * * * * * * * * * * * * * * * * * * * * * * * * * * * * * * * * * * * //

dimensions      [0 2 -3 0 0 0 0];

internalField   nonuniform List<scalar> 
23300
(
6.24822096344e-05
0.000105877952776
0.000179706378537
0.000278676309927
0.000397818120884
0.000531459558977
0.000673468050771
0.000817556125177
0.00095752674378
0.00108733640059
0.00120095619356
0.00129122124857
0.00134997206738
0.00137673580698
0.00137019469729
0.00133005947673
0.00125934615955
0.00116682580896
0.00106829274343
0.000985260059677
0.000944476165852
0.000986979903205
0.00119286566226
0.00161631853294
0.00225713500633
0.00310480139385
0.004150220702
0.00539117193875
0.00682932792739
0.00846510058436
0.0102939107104
0.0123039255501
0.0144753966317
0.0167810600864
0.0191877696342
0.0216585606881
0.0241551809967
0.0266401848814
0.029078831939
0.0314401140205
0.0336974985511
0.0358289022177
0.0378166478991
0.0396469072936
0.041309371075
0.042796548319
0.0441033868152
0.0452265270694
0.046163834936
0.0469134135243
0.0474725255102
0.047835147642
0.0479985858701
0.047986633025
0.0478081650152
0.0474693163727
0.0469761751333
0.0463351086375
0.0455529608175
0.0446368141907
0.0435941167455
0.0424324827293
0.0411598624505
0.0397843800518
0.0383145284652
0.0367590303505
0.0351270513898
0.0334280834291
0.0316721789489
0.0298698641422
0.0280324042513
0.0261717616124
0.0243009064028
0.0224338356643
0.020585932053
0.0187740268499
0.0170167509507
0.0153345685252
0.0137500913993
0.0122882745292
0.010977432164
0.00985160402996
0.00895695372072
0.00836451588735
0.00816690205726
0.00832465526687
0.00872253688246
0.00928727496137
0.00997333416424
0.0107471880256
0.0115793718814
0.0124408664521
0.0133021883425
0.0141336828914
0.014906664058
0.015594546802
0.0161739902476
0.01662554598
0.0169342485922
0.0170901208312
0.0170892986038
0.0169357521039
0.0166437769946
0.0162399490042
0.0157613479448
0.0152386500706
0.0146873177408
0.0141483972993
0.0136267800234
0.0130989015328
0.0125315814664
0.0119039779038
0.0112185322059
0.0104957090569
0.00976112771523
0.00903583620914
0.00833327729754
0.00766042769571
0.00702005154914
0.00641257422185
0.00583731627533
0.00529315949922
0.00477889258583
0.00429336860914
0.00383558938519
0.00340473326649
0.00300016246935
0.00262139901341
0.00226808876763
0.00193994930215
0.00163672019537
0.0013581170426
0.00110379915999
0.00087335841749
0.000666386396139
0.000482779491655
0.000323642072996
0.000193581993536
0.0001054356018
8.37342911987e-05
2.17925344951e-05
2.68417338872e-05
3.54921200094e-05
4.77636160861e-05
6.39887201573e-05
8.45774734613e-05
0.000109973900993
0.000140651260653
0.000177134683638
0.000220054016774
0.000270301474972
0.000329396679452
0.00040101789607
0.000481657424181
0.000568537651927
0.000659435244731
0.000753581073573
0.000853451020102
0.000966715284693
0.00110753073375
0.0013019573277
0.00158164628637
0.00198159881288
0.00252753980088
0.00321407065487
0.00402453092757
0.00494201394425
0.00594999478304
0.0070305396884
0.00816396192531
0.00933009725432
0.0105099173762
0.0116867012052
0.0128464875635
0.0139781365877
0.0150731734248
0.0161256431467
0.0171318735574
0.0180902055135
0.0190005776935
0.0198641001333
0.0206825732947
0.0214581069384
0.0221927736187
0.022888404964
0.0235464244859
0.0241677928612
0.0247529485324
0.0253018237032
0.0258138652596
0.0262882643887
0.026724543641
0.0271306232195
0.0274904549766
0.0277973376523
0.0280475484603
0.0282386302856
0.0283687217462
0.0284362889376
0.0284399764288
0.028378573161
0.0282509769109
0.0280562161106
0.0277934463694
0.027461991902
0.0270613595268
0.026591296811
0.0260518285097
0.0254433433304
0.0247666724298
0.0240232338161
0.0232151937738
0.0223457234448
0.0214193113561
0.0204422080856
0.0194229588374
0.0183730727554
0.0173077516074
0.016246682027
0.0152147816778
0.0142428484142
0.0133678553141
0.0126322688622
0.01207995904
0.0117412384611
0.011601455311
0.0116089167551
0.011709104845
0.0118551561036
0.0120081284154
0.0121360293776
0.0122131309455
0.0122197672646
0.0121422354679
0.0119725625974
0.0117079764256
0.0113501201464
0.0109041116998
0.0103776726174
0.00978046806976
0.00912376022515
0.0084203106982
0.00768445831178
0.00693237341521
0.00618320367875
0.00546363793282
0.00480741574813
0.00420880374705
0.00367170557528
0.00320442788219
0.00281626512197
0.00251195858621
0.00228488019238
0.0021156504537
0.00197884834553
0.00185385305108
0.00173054602944
0.00160684506855
0.00148393286156
0.00136343494682
0.00124654593688
0.00113398826577
0.00102616765683
0.000923315678181
0.000825582537226
0.000733088819962
0.000645951340022
0.000564291426629
0.000488232146342
0.000417888801443
0.000353357214653
0.000294701471442
0.000241938660648
0.000195013029781
0.000153753301062
0.000117833371391
8.69605516336e-05
6.31675339562e-05
7.17260864523e-05
0.000352838982951
1.38522215491e-05
1.70962775595e-05
2.22014907362e-05
2.91562430536e-05
3.82839446069e-05
5.00823112827e-05
6.52097173636e-05
8.45350085708e-05
0.000109228304139
0.000140957489828
0.0001823025793
0.000237203998206
0.000307377049528
0.000394075621695
0.000498913566988
0.000624094088626
0.000773485748626
0.000954822026963
0.00118228028293
0.00145953239422
0.00180830688646
0.00224751189077
0.00278916957485
0.00343465959768
0.00417196905984
0.00497947261439
0.0058313045401
0.00670220113695
0.00757084146539
0.00842134143643
0.00924328912085
0.0100308960304
0.0107818740755
0.0114963483009
0.0121760203576
0.0128235673966
0.0134422721598
0.0140357538896
0.0146077770872
0.0151620548146
0.0157020892995
0.0162310147157
0.0167515028656
0.0172656914274
0.0177751802735
0.0182810417016
0.0187838830422
0.0192839088071
0.0197810282859
0.0202749659268
0.0207654251205
0.021253226506
0.0217302492652
0.0221882131749
0.0226214618407
0.0230258156647
0.0233979050014
0.0237347818987
0.0240337307537
0.0242921571744
0.024507554783
0.0246774805374
0.0247995691541
0.0248715365159
0.0248912118246
0.0248565551704
0.0247657027518
0.024617000396
0.0244090689954
0.0241408669366
0.0238117954333
0.0234218179864
0.0229716434189
0.022462950246
0.0218987019629
0.0212835282088
0.0206242022103
0.0199301566293
0.0192140067452
0.0184919314987
0.0177837235987
0.0171121012986
0.0165006935274
0.0159698496527
0.0155297538503
0.0151731387578
0.014879657416
0.0146232447822
0.0143774106265
0.0141191246003
0.0138302622857
0.0134977207256
0.0131132525431
0.0126729584311
0.0121766261762
0.0116269599556
0.0110288068836
0.0103884488017
0.0097130453087
0.00901024188975
0.00828794326799
0.00755419569883
0.00681714612927
0.00608505538489
0.00536640382749
0.00466998460493
0.00400410215439
0.00337659215286
0.00279568093592
0.00226768143109
0.00179872897224
0.0013952918221
0.0010635442143
0.000808801289172
0.000631517884842
0.000520694168282
0.000455222081309
0.00041371303366
0.000381955497001
0.000353286927642
0.00032544861431
0.000297994358832
0.000271043453568
0.000244826682488
0.000219558890123
0.000195418578887
0.000172553956959
0.000151090911205
0.000131137725236
0.000112786401718
9.61117070605e-05
8.11687312411e-05
6.79888313399e-05
5.65716801954e-05
4.68704589065e-05
3.87875399885e-05
3.24413352095e-05
3.16570629722e-05
9.43311986791e-05
0.000885934271562
1.31481021046e-05
1.68798956814e-05
2.2593272311e-05
3.03431690497e-05
4.06212587609e-05
5.41208800572e-05
7.1743964967e-05
9.46619936137e-05
0.000124444981377
0.00016336863535
0.000214949511654
0.000280900500957
0.000364278523605
0.00046895462598
0.000600901802187
0.00076544968838
0.000966655798557
0.00121777721717
0.00153241805188
0.00192292150451
0.00239930309009
0.00296362702573
0.00360738783188
0.00431279110076
0.00505668569667
0.00581551242115
0.00656950548292
0.00730465793506
0.00801268658293
0.00868995644407
0.00933617413034
0.00995319459216
0.0105441029082
0.0111125477439
0.0116623219279
0.0121971042951
0.0127203402517
0.0132351761698
0.0137444426697
0.0142506301492
0.0147558833421
0.0152619810637
0.0157703405669
0.0162820140414
0.0167977144332
0.0173178338599
0.0178424912039
0.0183715727492
0.0189048038063
0.0194418076502
0.0199821683628
0.0205216027454
0.021053450316
0.0215724188751
0.0220742213854
0.0225552300761
0.0230122313213
0.0234422452524
0.0238424331249
0.0242100336442
0.0245423507474
0.0248367423478
0.0250906415846
0.0253015676233
0.0254671621879
0.0255852125425
0.0256536988977
0.0256708291856
0.0256351000829
0.0255453493214
0.0254008389391
0.0252013367547
0.0249472359425
0.024639680929
0.0242807359191
0.0238735581947
0.0234225963878
0.0229337515517
0.0224144805922
0.0218737278077
0.0213215978373
0.0207685994085
0.0202243712647
0.0196958841184
0.0191854970494
0.0186896961081
0.018199675055
0.0177034425358
0.0171956979423
0.0166669007115
0.0161109587543
0.0155238989604
0.014904132201
0.0142520802531
0.0135698304047
0.012860689926
0.0121287975132
0.0113787866315
0.0106155465515
0.00984405951763
0.00906931130214
0.00829623876268
0.00752970636548
0.0067744906645
0.00603527413515
0.00531661356716
0.00462284431502
0.00395812414602
0.00332634798409
0.00273776506322
0.0021975313144
0.0017104587839
0.00128189353833
0.000917558478355
0.000622991009571
0.000402227574135
0.000254797813293
0.000170285568422
0.000128235603535
0.00010809048276
9.68253815862e-05
8.84856343062e-05
8.09502954045e-05
7.36463637114e-05
6.65077886227e-05
5.9599145856e-05
5.30025571561e-05
4.6790828033e-05
4.10241016906e-05
3.57512748069e-05
3.10116745285e-05
2.68365396344e-05
2.32509418509e-05
2.02767249597e-05
1.79388737776e-05
1.63069068145e-05
1.59320184276e-05
2.34609127631e-05
0.000149246643223
0.00166594103139
1.48043119409e-05
1.95549832123e-05
2.68235769661e-05
3.67748617981e-05
5.0155874102e-05
6.7939901643e-05
9.14120254996e-05
0.00012210586885
0.000161993844885
0.000214092398273
0.000279451434773
0.000359912064179
0.000460319003732
0.000586247875909
0.000745497344582
0.000948696199298
0.00120949392734
0.00154329775429
0.001962323769
0.00246967888975
0.00305638884368
0.00370393507819
0.0043902621779
0.00509497755516
0.00580168853044
0.00649848830436
0.00717783525535
0.00783600515816
0.00847223882734
0.00908780156691
0.00968516869081
0.0102673857064
0.0108376350543
0.0113989549039
0.0119540993711
0.0125054736913
0.0130551394363
0.0136048330844
0.0141560082337
0.0147098589939
0.0152673511337
0.0158292289582
0.0163960329461
0.0169680976824
0.0175455665433
0.0181283908952
0.0187163510491
0.0193090643399
0.0199060112326
0.0205065226295
0.0211097213958
0.0217090183593
0.0222997674528
0.0228779387435
0.0234399770585
0.0239826471387
0.0245029265657
0.0249979146652
0.0254647934919
0.0259007953054
0.0263032087061
0.0266693788467
0.0269967367241
0.0272828159204
0.0275252939716
0.0277220185932
0.0278710568942
0.0279707289026
0.0280196637264
0.0280168403281
0.0279616507363
0.0278539476757
0.0276941126381
0.0274831046961
0.0272225213782
0.026914626545
0.0265623669174
0.0261693221552
0.025739597521
0.025277598066
0.0247876988715
0.0242737878251
0.023738774218
0.0231841596877
0.0226098589159
0.0220143342936
0.0213949989456
0.0207487142946
0.0200722801198
0.0193659507997
0.0186336342905
0.0178761986822
0.0170961585236
0.0162963494662
0.0154800827309
0.0146508533509
0.013812268141
0.0129679211673
0.0121213535672
0.0112760260041
0.0104353173206
0.00960252148058
0.00878084906716
0.00797342056252
0.00718326158469
0.00641329338987
0.00566633799725
0.0049451739758
0.00425264521098
0.00359183915744
0.00297362553175
0.00240223365858
0.0018823884732
0.00141935520686
0.00101876873506
0.000686203007462
0.000426336532112
0.000241294145597
0.000126851028443
6.79515702016e-05
4.25595976453e-05
3.25205394264e-05
2.80951161699e-05
2.53955623442e-05
2.31672093702e-05
2.10850919777e-05
1.90985204842e-05
1.72227302588e-05
1.54828032552e-05
1.39016285494e-05
1.2498891187e-05
1.12928879602e-05
1.03043181145e-05
9.56373279157e-06
9.12948529567e-06
9.16806168063e-06
1.06116489007e-05
2.39686404159e-05
0.000233756282658
0.00264678193872
1.77845106817e-05
2.40111888454e-05
3.35409128566e-05
4.6651583385e-05
6.43195911771e-05
8.77113830159e-05
0.000118141561597
0.000157063050625
0.000206177665668
0.000266606460057
0.000340656880918
0.000433124143632
0.000550424344698
0.000702327743394
0.000902962931234
0.00117009790014
0.00152085414217
0.00196425213819
0.00249554392228
0.00309757389172
0.00374795953802
0.00442589861008
0.00511531325064
0.00580512313209
0.00648834552568
0.00716108670407
0.00782179065589
0.00847062092438
0.00910890660717
0.00973864128746
0.0103620915581
0.0109815043692
0.0115989310463
0.0122161253081
0.0128345194364
0.0134552300323
0.0140791021767
0.0147067481573
0.015338599599
0.0159749358208
0.0166159171601
0.0172615908537
0.0179119045555
0.0185666959888
0.0192256967805
0.0198885183589
0.0205546600951
0.0212235049507
0.0218943358056
0.0225663163697
0.0232369070516
0.0239003887117
0.0245527914897
0.0251906207291
0.0258106787045
0.0264099447128
0.026985514639
0.0275345472644
0.0280542526775
0.0285418770735
0.0289947210827
0.0294101470805
0.0297856141317
0.0301186974571
0.0304071321499
0.0306488389918
0.0308419724535
0.0309849492017
0.0310764968962
0.0311156815923
0.0311019524633
0.0310351614728
0.0309155945602
0.0307439703313
0.0305214394871
0.0302495389375
0.029930130987
0.0295652827663
0.0291571204259
0.0287076280404
0.0282184505978
0.0276907122195
0.0271249517102
0.0265212067537
0.0258792926454
0.0251991581651
0.0244812004345
0.0237264160755
0.0229363322964
0.0221129452317
0.0212578272831
0.0203777707406
0.0194795685883
0.0185667658143
0.0176437052232
0.0167140878603
0.0157814630501
0.0148490328175
0.0139197879947
0.0129965243538
0.0120818965996
0.0111784461784
0.0102886206364
0.0094147802197
0.00855920321221
0.00772408476224
0.00691154234912
0.00612362640081
0.0053623524947
0.00462978318562
0.00393145185846
0.00327623965896
0.00266800374376
0.00211128691455
0.00161124868704
0.00117350909837
0.000803836845177
0.000507498730634
0.000287912156212
0.00014391109732
6.48518554146e-05
2.96708981778e-05
1.6645281811e-05
1.22417312897e-05
1.05989479005e-05
9.72491273686e-06
9.05393495293e-06
8.45380518635e-06
7.90484517907e-06
7.41197972946e-06
6.9848246597e-06
6.63567559485e-06
6.38344140561e-06
6.26357468792e-06
6.35458260768e-06
6.89946179142e-06
9.24766017723e-06
2.91546270656e-05
0.000347520071316
0.00379237009382
2.17805817982e-05
2.97806350844e-05
4.18597624123e-05
5.83048197986e-05
8.00917210742e-05
0.000108241040726
0.000143784034464
0.00018790824908
0.000241841264978
0.000307866552405
0.000391050971723
0.000499039816194
0.000644294247719
0.000844997311847
0.00112237487055
0.0014927476878
0.00195879841068
0.00250832906129
0.00312103541249
0.00377605216257
0.00445613212127
0.00514885904488
0.00584622318927
0.00654357966848
0.00723862362342
0.00793060849537
0.00861982460162
0.00930721622327
0.00999408639457
0.0106818487104
0.0113718497722
0.0120652402454
0.0127629139845
0.0134654806483
0.0141732860972
0.0148864405477
0.0156048718267
0.0163283645411
0.0170566095264
0.0177892271385
0.0185257960527
0.019265853225
0.020008902248
0.0207543962037
0.0215017360319
0.0222502498185
0.022999194821
0.0237477400272
0.024494958233
0.0252397666274
0.0259784025218
0.0267064573737
0.0274202239469
0.0281164053365
0.0287919488635
0.0294439291016
0.0300694989179
0.0306658482381
0.0312302050415
0.0317598281824
0.0322520325759
0.0327041994966
0.0331138143989
0.0334784861942
0.0337959910485
0.0340642952287
0.0342816000841
0.034446363919
0.034557343313
0.0346136085162
0.0346145743542
0.034560000776
0.0344500028059
0.0342850234931
0.0340658081434
0.033793334421
0.0334687379561
0.0330931945867
0.0326678081083
0.0321934819604
0.0316708434421
0.0311002212939
0.0304817519556
0.0298155927458
0.029102242451
0.0283428427079
0.0275393824117
0.0266947029041
0.025812351732
0.024896315396
0.023950742079
0.0229799444199
0.0219869873583
0.0209791185704
0.0199638489911
0.0189440938437
0.0179239218162
0.0169063938142
0.0158944456979
0.0148906776416
0.0138975223862
0.0129172763246
0.0119521173142
0.0110041225046
0.0100752796586
0.00916749236673
0.00828258610222
0.00742230873987
0.00658833455913
0.00578226767198
0.00500564775809
0.00426843235304
0.00357526647685
0.00293004998161
0.00233727297368
0.0018019978867
0.00132977372261
0.000926402460942
0.000597430813133
0.000347079567433
0.000176041545488
7.70400036305e-05
3.0942590777e-05
1.37113675975e-05
8.2572356501e-06
6.64567291445e-06
6.10349731329e-06
5.82962928433e-06
5.62708977728e-06
5.45730339085e-06
5.31889949148e-06
5.22125716308e-06
5.18409106525e-06
5.24897161727e-06
5.5150668803e-06
6.31219313846e-06
9.50781688106e-06
3.78404551851e-05
0.000490558381377
0.00507713650334
2.63469548814e-05
3.60801261273e-05
5.04631827956e-05
6.96188825664e-05
9.43084647647e-05
0.000125269117906
0.000163411165197
0.00020989023383
0.000267327244748
0.000341144439093
0.000440763052336
0.000582226645427
0.000788323721353
0.00108219457647
0.00147568668727
0.00196346902441
0.00252867982233
0.00315172507498
0.00381525119808
0.00450576299526
0.00521371334507
0.0059329370865
0.00665985539235
0.00739268116396
0.00813078128686
0.00887421460805
0.00962343031597
0.0103790511535
0.0111417224772
0.0119119899787
0.012690224905
0.0134765717225
0.0142709403236
0.0150730108235
0.0158822716151
0.0166980534128
0.0175195826488
0.0183460157122
0.019176483119
0.0200101057262
0.0208460183012
0.0216833631607
0.0225212944
0.0233589552263
0.0241954726043
0.0250299300021
0.0258613622517
0.0266887255409
0.0275108782792
0.0283265171311
0.0291318366632
0.0299227939805
0.0306958715432
0.0314478742026
0.032175808418
0.0328767832716
0.0335479721895
0.0341865772408
0.0347898360379
0.035355017077
0.0358794480304
0.036360525956
0.036795755867
0.037182767836
0.037519359572
0.0378035151565
0.0380334467332
0.0382076100549
0.038324740093
0.0383838576365
0.0383842921236
0.0383256716324
0.0382079242028
0.0380312419916
0.037796052234
0.0375029492826
0.0371526345744
0.0367458264458
0.036283194939
0.0357652966962
0.0351925751447
0.0345654084208
0.0338842598022
0.033149883135
0.0323635804865
0.0315274057273
0.0306442792849
0.0297179432664
0.0287528017386
0.0277536691752
0.0267255278184
0.0256732675541
0.0246014509526
0.0235144550501
0.0224153646783
0.0213088765828
0.0202037064328
0.0191013921129
0.0180055711032
0.0169187618722
0.0158434348015
0.0147819290591
0.013736420049
0.0127089690798
0.011701518601
0.0107159085895
0.00975388692948
0.00881711536399
0.00790718646833
0.00702566452839
0.00617419817302
0.00535481275362
0.0045783355452
0.00384798865301
0.00316748126855
0.00254109224364
0.00197368784463
0.00147066021767
0.00103773784645
0.000680562137241
0.000403807570982
0.000209320980959
9.22410839848e-05
3.56270328782e-05
1.4112446431e-05
7.42504222496e-06
5.60160202237e-06
5.11389021339e-06
4.95027629903e-06
4.86484607038e-06
4.81028203478e-06
4.78794113501e-06
4.81918465376e-06
4.95413267541e-06
5.31888390836e-06
6.35707529016e-06
1.05949005328e-05
4.98065965643e-05
0.000662996108054
0.00648100539486
3.098605353e-05
4.21132414437e-05
5.81043745699e-05
7.88167203022e-05
0.000104800222185
0.000136711048815
0.000175633773472
0.000224442524656
0.000289070430334
0.000381212229365
0.000521466549447
0.000737757338717
0.00105342252351
0.00147306170909
0.00198342098218
0.00256529687548
0.00320131575599
0.00387781457359
0.00458466378596
0.00531470577823
0.00606317744249
0.00682714165458
0.00760496242801
0.00839584481402
0.00919948498524
0.0100158148293
0.0108448391622
0.0116865185505
0.0125406987703
0.0134070547037
0.014285069095
0.0151740191182
0.0160729955926
0.0169809224714
0.0178966021559
0.018818749112
0.0197460403823
0.0206771431261
0.0216107530416
0.0225456031112
0.0234804822318
0.0244142227216
0.0253457012003
0.0262738109811
0.027197454056
0.0281155087351
0.0290268213455
0.0299301718267
0.0308242565751
0.0317076321341
0.0325768733702
0.0334280279253
0.0342576359851
0.0350625289035
0.0358397230661
0.0365863301153
0.0372995254349
0.0379765141529
0.0386145404298
0.0392108820337
0.0397628792841
0.0402679430696
0.0407235927631
0.0411274699772
0.0414773793888
0.0417713031324
0.0420074397733
0.0421842146778
0.042300312208
0.042354676832
0.042346532781
0.0422753698427
0.0421409442714
0.0419432437618
0.0416824658369
0.04135896206
0.0409732001946
0.0405257035559
0.0400170251254
0.0394477240739
0.0388184048829
0.0381297862364
0.0373828445428
0.0365789745343
0.0357201735275
0.0348091625708
0.0338494410368
0.0328452181333
0.0318012693466
0.03072271963
0.0296148256485
0.028482756926
0.0273314393046
0.0261654206918
0.0249887536948
0.0238051848257
0.0226178031402
0.0214277717973
0.0202460063203
0.0190731061203
0.0179118655586
0.0167649234572
0.0156345505
0.014522981411
0.0134322443616
0.0123642489185
0.0113207810553
0.010303512457
0.00931400794203
0.00835372373071
0.00742401129003
0.00652610136037
0.00566668617757
0.004852836086
0.00408749801036
0.00337420729329
0.00271708371231
0.00212082850163
0.00159067598706
0.00113223911502
0.000751153624838
0.000452329181598
0.000238341004782
0.000105974301647
4.02332629745e-05
1.50208140865e-05
7.31093739101e-06
5.30006139103e-06
4.81506900546e-06
4.68847521806e-06
4.64794370824e-06
4.64895782864e-06
4.70875065034e-06
4.88778825176e-06
5.34833579867e-06
6.68558951562e-06
1.22521732514e-05
6.52109191706e-05
0.000864896998641
0.00798544191853
3.51303889862e-05
4.71041775186e-05
6.38382285098e-05
8.49811900971e-05
0.000110950248134
0.000142765993645
0.000183129000083
0.000238344985277
0.000322363953643
0.000461078852148
0.000688779558834
0.00102885068541
0.00147743831211
0.00201344577475
0.00261586450427
0.00326939902481
0.00396359707306
0.00469126872691
0.00544742798875
0.00622864985595
0.00703265087828
0.00785795492691
0.00870361635119
0.0095689822989
0.0104535181285
0.0113566769467
0.0122778236165
0.0132161797256
0.0141708022601
0.0151405661512
0.0161241742411
0.0171201653438
0.0181269483707
0.0191428281716
0.0201660532274
0.0211948457999
0.0222274482764
0.0232621432831
0.0242972864486
0.0253313077473
0.0263627257026
0.0273901290835
0.0284121750952
0.029427557363
0.0304349964446
0.031433204292
0.0324208765048
0.0333966582149
0.0343591324335
0.0353067684769
0.0362367765643
0.0371451506439
0.0380284012864
0.0388833367914
0.0397069557619
0.0404963577369
0.041248714053
0.0419612325189
0.0426311667358
0.0432558077178
0.0438325118114
0.044358705066
0.0448319195743
0.0452498031762
0.0456101583869
0.0459109525853
0.0461503550663
0.0463267434563
0.0464387345176
0.0464851823635
0.0464651984159
0.0463781370156
0.0462236005548
0.0460014098521
0.0457115940542
0.0453543493126
0.0449300224624
0.0444390744479
0.0438820823363
0.0432597395279
0.0425729111958
0.0418227012357
0.0410105729635
0.0401384626981
0.0392089043094
0.038225091376
0.0371908936421
0.0361107786756
0.0349896873504
0.0338328503329
0.0326456100073
0.0314332386731
0.0302008021746
0.0289530451337
0.0276943366752
0.0264286386451
0.025159456693
0.0238898745861
0.0226231149928
0.0213599315627
0.0201084095834
0.0188717587479
0.0176517893562
0.0164513401961
0.0152725000625
0.0141173787531
0.0129878714549
0.0118857378331
0.010812614504
0.00977000243917
0.00875928363086
0.0077817533602
0.00683872855582
0.00594107397297
0.00509155034262
0.00429317735622
0.00354940907191
0.00286422435079
0.00224215854786
0.00168827477086
0.00120803999042
0.000807019976161
0.000490220822766
0.000260665953173
0.000116231761791
4.33969524121e-05
1.55252659636e-05
7.22150131192e-06
5.15251522493e-06
4.69054683739e-06
4.59446149895e-06
4.5963651569e-06
4.67418022203e-06
4.89560912054e-06
5.47036218559e-06
7.19160763255e-06
1.44276156654e-05
8.43818277724e-05
0.00109611161173
0.00957164315774
3.83906645109e-05
5.0653635414e-05
6.737422975e-05
8.80977853414e-05
0.000113564580348
0.000145900137242
0.00019113903998
0.000264414422529
0.000396653242563
0.000630841760314
0.000993722272955
0.0014735639074
0.00204013776757
0.00266919475416
0.00334635702446
0.00406360360855
0.00481629639647
0.00560152737175
0.00641731686582
0.00726222280937
0.00813513352537
0.00903511860739
0.00996131563401
0.010912829509
0.011888665628
0.0128876781039
0.0139085512149
0.0149497858639
0.0160097112251
0.0170864918277
0.0181781572655
0.019282622475
0.0203977302261
0.0215212786243
0.0226510685055
0.0237849284539
0.0249207564834
0.0260565325503
0.0271903460933
0.0283203903553
0.0294449728579
0.0305624917778
0.0316714321405
0.0327703299099
0.0338577619146
0.034932308267
0.0359925471135
0.0370370228917
0.0380642415037
0.0390726220881
0.040060199436
0.0410228303861
0.041956946447
0.0428593066827
0.0437268804428
0.0445567528889
0.0453460950213
0.0460921246229
0.0467921137321
0.0474433755588
0.0480432900612
0.048589303517
0.0490789625937
0.049509919489
0.0498799689249
0.0501870543162
0.0504293036095
0.0506050327261
0.050712776511
0.0507512858541
0.0507195502108
0.0506167853506
0.0504424450962
0.0501961989082
0.0498779342333
0.0494877287825
0.0490258525677
0.0484927491306
0.0478890561865
0.047215617844
0.0464735445987
0.0456642696977
0.044789645556
0.0438520182773
0.042854308875
0.0418000357068
0.0406933082173
0.0395387454762
0.0383413691229
0.0371064483884
0.0358393556754
0.034545414467
0.033229787649
0.0318973799853
0.0305527874741
0.0292002587785
0.0278436950012
0.0264866661526
0.0251324236985
0.0237838364024
0.0224439181805
0.0211141764072
0.0197987611812
0.0185045550473
0.0172322813835
0.0159848428437
0.014764182596
0.0135721859445
0.0124106488882
0.0112811802743
0.0101852525304
0.0091242213141
0.00809943025652
0.00711461433407
0.00617920762825
0.00529534427232
0.00446574871418
0.00369368097045
0.00298294331134
0.00233789085037
0.00176340636886
0.00126479303887
0.000847506372263
0.00051655951346
0.000275230586844
0.000122087826408
4.45590830412e-05
1.5343459346e-05
6.97937763418e-06
5.01367463757e-06
4.61641606696e-06
4.57301458534e-06
4.66155869412e-06
4.9301730246e-06
5.6468872589e-06
7.85684258819e-06
1.715344218e-05
0.000107735341359
0.0013561729065
0.0112200339162
4.05924093049e-05
5.275467672e-05
6.90436582026e-05
8.9071424428e-05
0.000114224366547
0.000149316941193
0.00020848681405
0.000325177833287
0.000553019072385
0.000930200449686
0.00144125179076
0.00204400937062
0.00270744163826
0.00341590691145
0.00416270225801
0.00494527695497
0.00576273716221
0.00661470023251
0.00750082926539
0.00842065724819
0.00937353352282
0.0103585976909
0.0113747710837
0.0124207428655
0.013494973213
0.0145956940757
0.0157209308829
0.0168685180371
0.0180361338656
0.0192213237985
0.0204215429864
0.0216341831026
0.0228566192129
0.0240862360332
0.0253204735209
0.0265568459015
0.0277929787164
0.0290266139647
0.0302556331304
0.031478045109
0.0326919938253
0.0338957299376
0.035087605767
0.0362660358626
0.0374294866003
0.0385764364205
0.0397053731927
0.0408147656817
0.0419030679095
0.0429686772061
0.0440106133234
0.0450245594803
0.0460068515995
0.0469541941173
0.047863529112
0.048731934963
0.0495565941229
0.0503347485353
0.0510637035242
0.0517408083372
0.0523634781294
0.0529291876701
0.0534355024982
0.0538800790193
0.0542606995031
0.0545752743436
0.0548218772302
0.0549987463357
0.0551043165353
0.0551372166577
0.0550962960516
0.0549806158058
0.0547894683114
0.0545223626014
0.0541790389063
0.0537594528746
0.0532637928251
0.0526924738343
0.0520461708556
0.0513258363475
0.0505327596865
0.0496686111971
0.0487355179812
0.0477361088092
0.0466735656375
0.0455516201707
0.0443745349263
0.0431470221929
0.0418741520048
0.0405612194091
0.0392136264414
0.0378367533975
0.0364358664172
0.0350160313133
0.0335820684775
0.0321385149557
0.0306896200806
0.0292393393016
0.0277913470772
0.0263490502287
0.0249156103959
0.0234938888455
0.0220867495396
0.0206966112569
0.0193237572723
0.0179785622088
0.0166611409238
0.0153735947207
0.0141181126345
0.012896397226
0.0117100804955
0.0105605457124
0.00944898134291
0.0083763108415
0.00735275713562
0.00638159231873
0.00546521015587
0.00460633399186
0.00380812390522
0.00307423782097
0.00240886372048
0.00181670650184
0.00130289852855
0.000872759324561
0.000531249002116
0.00028176143909
0.000123258045238
4.35964571273e-05
1.44653916103e-05
6.58243552316e-06
4.87089821221e-06
4.58881816219e-06
4.65842130753e-06
4.97857500476e-06
5.87306964003e-06
8.69774315082e-06
2.05020835907e-05
0.000135738376614
0.00164423557455
0.0129103220969
4.20280272136e-05
5.38300622846e-05
6.9393472408e-05
8.86329847055e-05
0.000114551579753
0.000157933779534
0.000249578187697
0.000451111064385
0.000823107950794
0.00135872573821
0.00200167933906
0.00270795257846
0.00345689046131
0.00424130676294
0.00506001244322
0.00591396116417
0.00680450214213
0.00773267065838
0.00869896593825
0.00970332170154
0.0107451552152
0.0118234223765
0.0129366788812
0.0140831243844
0.0152606541274
0.016466896606
0.0176992647009
0.0189549919026
0.0202311840819
0.0215248530494
0.0228329675441
0.0241524827474
0.0254803889745
0.0268137348491
0.0281496703274
0.0294854594072
0.0308185129217
0.0321463867947
0.0334668014243
0.0347776239786
0.0360768741352
0.0373626919106
0.0386333322115
0.0398871223367
0.0411224512103
0.0423377261376
0.0435313705066
0.0447017964333
0.045847420145
0.0469666335164
0.0480595799052
0.0491217908981
0.0501495251328
0.0511394447305
0.0520884763625
0.0529937067303
0.0538523484184
0.054661688007
0.055419084353
0.0561219409235
0.0567677228809
0.0573539438454
0.0578781934828
0.0583381320505
0.0587315232907
0.0590562328146
0.0593102630303
0.0594917526178
0.0595990108974
0.0596305161078
0.0595849470936
0.0594611788603
0.0592583106852
0.0589756593374
0.0586127853862
0.0581694878935