/*--------------------------------*- C++ -*----------------------------------*\
| =========                 |                                                 |
| \\      /  F ield         | OpenFOAM: The Open Source CFD Toolbox           |
|  \\    /   O peration     | Version:  2206                                  |
|   \\  /    A nd           | Website:  www.openfoam.com                      |
|    \\/     M anipulation  |                                                 |
\*---------------------------------------------------------------------------*/
FoamFile
{
    version     2.0;
    format      ascii;
    arch        "LSB;label=64;scalar=64";
    class       volScalarField;
    location    "1.6/water";
    object      reactingEulerHtcModel(T.liquid);
}
// * * * * * * * * * * * * * * * * * * * * * * * * * * * * * * * * * * * * * //

dimensions      [1 0 -3 -1 0 0 0];

internalField   uniform 0;

boundaryField
{
    maxY
    {
        type            calculated;
        value           uniform 0;
    }
    symmetric
    {
        type            symmetry;
    }
    maxX
    {
        type            calculated;
        value           uniform 0;
    }
    minY
    {
        type            calculated;
        value           uniform 0;
    }
    emptyPatch
    {
        type            empty;
    }
    water_to_solid
    {
        type            calculated;
        value           nonuniform List<scalar> 
70
(
-129.954615676
-130.445392257
-130.047821884
-130.887012901
-130.764939771
-131.281186388
-131.24316014
-131.631513878
-163.332736018
-220.883527871
-246.76573383
-245.841810842
-244.761833609
-243.427979807
-242.521090016
-243.125126779
-247.020058764
-242.125815176
-192.558487136
-192.971532083
-183.714678319
-191.211683228
-179.365123603
-190.780221932
-177.27518001
-189.55846971
-177.905496766
-189.455920666
-177.649973636
-188.851659337
-178.907761125
-188.820244543
-182.875020994
-189.368238806
-186.40542828
-190.274983245
-191.859768622
-221.340512383
-245.854316785
-249.178794545
-246.070214983
-244.389850678
-245.399975725
-249.498846524
-166.249180474
-105.317376807
-107.921165644
-100.303705707
-105.807919306
-99.3976620773
-105.081501168
-100.047709038
-104.76343355
-101.24681972
-104.566119538
-102.568263716
-104.421727234
-103.950071621
-105.186908799
-233.193640796
-234.161005585
-234.602618747
-235.009379101
-235.380274499
-235.727582927
-236.166429358
-236.992265639
-236.225991513
-138.354602597
-215.584635802
)
;
    }
}


// ************************************************************************* //
