/*--------------------------------*- C++ -*----------------------------------*\
| =========                 |                                                 |
| \\      /  F ield         | OpenFOAM: The Open Source CFD Toolbox           |
|  \\    /   O peration     | Version:  2206                                  |
|   \\  /    A nd           | Website:  www.openfoam.com                      |
|    \\/     M anipulation  |                                                 |
\*---------------------------------------------------------------------------*/
FoamFile
{
    version     2.0;
    format      ascii;
    arch        "LSB;label=64;scalar=64";
    class       volVectorField;
    location    "1.6/water";
    object      U.gas;
}
// * * * * * * * * * * * * * * * * * * * * * * * * * * * * * * * * * * * * * //

dimensions      [0 1 -1 0 0 0 0];

internalField   nonuniform List<vector> 
23300
(
(0.000544347275489 0.135897317631 0)
(0.00156849027881 0.13589214783 0)
(0.00255404690109 0.135914066794 0)
(0.00352240819255 0.13595998225 0)
(0.00440665099648 0.136018444523 0)
(0.00518940715712 0.136081533899 0)
(0.00586658134808 0.13614770267 0)
(0.0064355174886 0.13621343813 0)
(0.0068980642829 0.136279759976 0)
(0.00725628972568 0.136344293461 0)
(0.00751337867906 0.136409323436 0)
(0.00766992197943 0.136475588521 0)
(0.00772192081615 0.136547814292 0)
(0.00766658922606 0.13662313277 0)
(0.00750520948268 0.136701175714 0)
(0.00724581900462 0.136775963079 0)
(0.0069040756643 0.136843380091 0)
(0.00650274479323 0.136896627788 0)
(0.0060635730428 0.136936314515 0)
(0.00560348214334 0.136958883218 0)
(0.00510354544366 0.136972119592 0)
(0.00450302270161 0.136991541661 0)
(0.00375197278315 0.13703101414 0)
(0.00286189775439 0.137092964031 0)
(0.0018758142117 0.137169468108 0)
(0.000787685698969 0.137243020163 0)
(-0.000435927020554 0.13731196381 0)
(-0.00180383972025 0.137376181523 0)
(-0.00330970802124 0.137438027591 0)
(-0.00494014367891 0.137494940021 0)
(-0.00667834293317 0.137546171751 0)
(-0.00850486552566 0.137587499451 0)
(-0.010399115322 0.137618077804 0)
(-0.0123396926722 0.13763488848 0)
(-0.0143058259334 0.137638885739 0)
(-0.0162772038964 0.137629044999 0)
(-0.0182350380938 0.137607977198 0)
(-0.0201613677961 0.137575948304 0)
(-0.0220399560766 0.137536294505 0)
(-0.0238553645526 0.137489682567 0)
(-0.0255939099458 0.137439439776 0)
(-0.0272426866173 0.137386108079 0)
(-0.0287906280988 0.137332655533 0)
(-0.0302274810204 0.137279296658 0)
(-0.0315448976592 0.137228531358 0)
(-0.0327353348869 0.137180210538 0)
(-0.033793122201 0.137136373542 0)
(-0.0347132819608 0.137096550497 0)
(-0.0354925470344 0.137062382625 0)
(-0.0361280872787 0.137033190745 0)
(-0.0366163511984 0.137010071898 0)
(-0.0369490715008 0.13699318119 0)
(-0.0371245164272 0.136982214818 0)
(-0.0371514149624 0.136974061509 0)
(-0.0370351041665 0.136970573021 0)
(-0.0367748567327 0.136971219859 0)
(-0.0363717006761 0.136976999919 0)
(-0.0358272506869 0.136986885215 0)
(-0.0351443642574 0.137001453247 0)
(-0.0343262340208 0.137019445461 0)
(-0.0333770736964 0.137041199797 0)
(-0.0323013736644 0.137065335975 0)
(-0.0311045576813 0.13709203068 0)
(-0.0297923585375 0.137119823013 0)
(-0.0283714276191 0.137148760189 0)
(-0.0268488126731 0.137177309834 0)
(-0.0252325282214 0.137205399092 0)
(-0.0235311152094 0.137231418384 0)
(-0.0217541763841 0.137255169761 0)
(-0.0199119938411 0.13727494744 0)
(-0.0180160288574 0.137290407444 0)
(-0.0160785420967 0.137299711588 0)
(-0.0141130132408 0.137302323894 0)
(-0.0121336685591 0.137296210509 0)
(-0.0101557444423 0.13728057594 0)
(-0.00819482730414 0.13725314226 0)
(-0.00626697208363 0.137212895387 0)
(-0.00438801906483 0.137157594437 0)
(-0.00257399697249 0.137086820156 0)
(-0.000840766855445 0.13700022824 0)
(0.000797088015018 0.136901635038 0)
(0.00233858385009 0.136798513224 0)
(0.00382034513794 0.13670475073 0)
(0.00525322125903 0.136634191756 0)
(0.00659574825512 0.136601163882 0)
(0.00785884645182 0.136608790933 0)
(0.00911675508784 0.136651038327 0)
(0.0104548976421 0.136711624287 0)
(0.011914669202 0.136769651728 0)
(0.0134794041439 0.136811307985 0)
(0.0151170108818 0.136831621728 0)
(0.016795227535 0.136830038972 0)
(0.0184842736849 0.136810398557 0)
(0.0201566945777 0.136777142668 0)
(0.0217862427202 0.136736439416 0)
(0.0233475325418 0.136693209352 0)
(0.0248155156169 0.136652958233 0)
(0.0261658543345 0.136619490441 0)
(0.0273746924218 0.136597128033 0)
(0.0284192370555 0.136588803388 0)
(0.0292775280966 0.136598309752 0)
(0.0299292248746 0.136628391392 0)
(0.0303558515904 0.136682588389 0)
(0.0305426117192 0.136762834304 0)
(0.0304800543324 0.136870431461 0)
(0.0301666318505 0.137001497792 0)
(0.0296095236983 0.137144925257 0)
(0.0288280377761 0.137286438102 0)
(0.0278519116458 0.137413346149 0)
(0.0267172000429 0.137509825875 0)
(0.0254634636287 0.137566618086 0)
(0.02413065491 0.137583515232 0)
(0.0227565250747 0.137568833847 0)
(0.0213785299883 0.137533261278 0)
(0.0200304999523 0.137487280565 0)
(0.0187361028848 0.137437213802 0)
(0.0175066485485 0.137386769945 0)
(0.0163458642213 0.137338187106 0)
(0.0152522546253 0.1372937676 0)
(0.0142210935746 0.137254051169 0)
(0.0132458092981 0.137219252633 0)
(0.0123199605595 0.137188767085 0)
(0.0114372696103 0.137162305378 0)
(0.0105924140542 0.137139085083 0)
(0.00978053652157 0.137118763777 0)
(0.00899778514241 0.137100665451 0)
(0.00824068097777 0.137084534294 0)
(0.00750663147435 0.137069841423 0)
(0.00679327483431 0.137056423695 0)
(0.0060989890165 0.137043918474 0)
(0.00542218606416 0.137032317033 0)
(0.00476173452894 0.13702156385 0)
(0.00411606842634 0.137012056206 0)
(0.00348330077028 0.137004426861 0)
(0.00285990263251 0.136999870833 0)
(0.0022404073178 0.136999440336 0)
(0.00161784249583 0.137001452437 0)
(0.000994890477788 0.136989070457 0)
(0.000431683483745 0.136913931132 0)
(8.92778196166e-05 0.1367329308 0)
(0.000521608483876 0.245247626078 0)
(0.00153512872114 0.245239032298 0)
(0.0025122338294 0.245326822442 0)
(0.00343908221049 0.245478696081 0)
(0.00427604854409 0.245667888386 0)
(0.00500922532359 0.245876894205 0)
(0.00562922045112 0.246099426244 0)
(0.00612835769767 0.246328875949 0)
(0.00650144848609 0.246564866431 0)
(0.00674437455524 0.246803918619 0)
(0.00685561335639 0.247049562995 0)
(0.00683443699479 0.247304717435 0)
(0.00668197241173 0.24756935198 0)
(0.00640740624546 0.247834420641 0)
(0.00602619880817 0.248095943702 0)
(0.00555567533752 0.248342465364 0)
(0.00501262338113 0.248561895068 0)
(0.00441163081808 0.248740175534 0)
(0.00374007643835 0.248890150537 0)
(0.00295664563729 0.249018990975 0)
(0.00201867796766 0.249145330034 0)
(0.000894906412497 0.249308273618 0)
(-0.00040819125304 0.249540417801 0)
(-0.00185519856206 0.249834166007 0)
(-0.00342882059278 0.250152944526 0)
(-0.00513225251948 0.250460183369 0)
(-0.00696387759616 0.25074511708 0)
(-0.00890674195616 0.251001080669 0)
(-0.0109334750283 0.251224304317 0)
(-0.0130129034703 0.251406349941 0)
(-0.0151145664182 0.251542808792 0)
(-0.0172109523328 0.251627654315 0)
(-0.0192788943996 0.251660689511 0)
(-0.0212995481222 0.251640780775 0)
(-0.023258185309 0.251572329066 0)
(-0.0251431156169 0.251458172568 0)
(-0.0269451066747 0.251305636748 0)
(-0.0286563465013 0.251119528478 0)
(-0.0302702442157 0.250908058428 0)
(-0.0317807945316 0.250676180467 0)
(-0.0331827827669 0.250431504807 0)
(-0.0344713961816 0.250178046672 0)
(-0.035642607774 0.249922087895 0)
(-0.0366928363708 0.249666293591 0)
(-0.0376193475826 0.249415438375 0)
(-0.0384198765492 0.249170843376 0)
(-0.039092999016 0.248935901963 0)
(-0.0396377155175 0.248710803369 0)
(-0.0400537508989 0.248497808829 0)
(-0.0403412146383 0.24829621387 0)
(-0.0404979541847 0.24810816781 0)
(-0.0405239439316 0.247932661748 0)
(-0.0404251706923 0.247768851904 0)
(-0.0402034527348 0.247614175862 0)
(-0.0398591083602 0.247469965068 0)
(-0.0393952590632 0.247335140041 0)
(-0.0388150725928 0.247210442851 0)
(-0.0381216763581 0.247094388699 0)
(-0.0373185574339 0.246987305067 0)
(-0.0364093660216 0.246887481564 0)
(-0.0353982006299 0.24679500226 0)
(-0.0342894040231 0.246708061019 0)
(-0.0330878044776 0.246626613594 0)
(-0.0317985377659 0.246548840761 0)
(-0.0304272618772 0.246474652061 0)
(-0.0289800103487 0.246402280087 0)
(-0.0274633914014 0.246331664843 0)
(-0.025884470465 0.246261163135 0)
(-0.0242509523199 0.246190837695 0)
(-0.0225710778319 0.246119266452 0)
(-0.0208537772135 0.246046752805 0)
(-0.0191085425021 0.245972218561 0)
(-0.0173454944223 0.245896339624 0)
(-0.0155751282598 0.245818500591 0)
(-0.0138081493122 0.245739844346 0)
(-0.0120548681996 0.245660262907 0)
(-0.0103244980496 0.245581351923 0)
(-0.00862378125458 0.245503453315 0)
(-0.00695519225806 0.245428591984 0)
(-0.00531401193157 0.245357734128 0)
(-0.00368441547576 0.245293875212 0)
(-0.00203514083705 0.245239113384 0)
(-0.000323346142547 0.24519480152 0)
(0.0014571386361 0.245153805185 0)
(0.00323870902486 0.245117907991 0)
(0.00494204504253 0.245092265361 0)
(0.00653930582849 0.245079794613 0)
(0.00804691835596 0.245083734691 0)
(0.00949770022937 0.245100249144 0)
(0.0109191297881 0.245122049441 0)
(0.0123256202017 0.245147245281 0)
(0.013721700728 0.245175150168 0)
(0.0151055949521 0.245208854221 0)
(0.0164712330765 0.245251239885 0)
(0.0178094817142 0.245306632134 0)
(0.0191092871584 0.245377825414 0)
(0.0203583172128 0.24546839854 0)
(0.0215437336722 0.245580354405 0)
(0.0226527272589 0.24571683308 0)
(0.0236733341575 0.245880079597 0)
(0.0245949950454 0.246074029371 0)
(0.025409366514 0.24630205524 0)
(0.0261107635287 0.246568876721 0)
(0.0266969233211 0.246877559741 0)
(0.027168789355 0.24723013925 0)
(0.0275261069169 0.247622336782 0)
(0.0277653768838 0.248043192998 0)
(0.0278776981886 0.248471472955 0)
(0.0278416384087 0.248885974679 0)
(0.0276288317197 0.249268494713 0)
(0.0272185847551 0.249601532295 0)
(0.0266070199088 0.249866190367 0)
(0.0258098629222 0.250045438252 0)
(0.0248620121074 0.250131175253 0)
(0.0238092154599 0.250135212119 0)
(0.0226961505527 0.250081495986 0)
(0.0215596673128 0.249993737344 0)
(0.020426501185 0.249889657294 0)
(0.0193117742808 0.249782239698 0)
(0.0182222118263 0.2496786514 0)
(0.0171602835602 0.24958290884 0)
(0.0161263721677 0.249496054527 0)
(0.0151194598155 0.249418341156 0)
(0.0141379268377 0.249348916848 0)
(0.0131797111643 0.249287165856 0)
(0.0122426960689 0.249231964622 0)
(0.0113246360466 0.249182639108 0)
(0.0104234077795 0.249138233857 0)
(0.00953680885357 0.249098304873 0)
(0.00866269377307 0.249062336465 0)
(0.00779864565739 0.249030472933 0)
(0.00694196971784 0.249003185466 0)
(0.00608918697715 0.248982012167 0)
(0.00523584916656 0.248969429222 0)
(0.00437606328031 0.248968998739 0)
(0.00350323900161 0.248982853296 0)
(0.00261231410472 0.249001647317 0)
(0.00171078112227 0.248970908501 0)
(0.000859942433147 0.248753022497 0)
(0.000230118009732 0.248144315934 0)
(0.000476275931757 0.222372803757 0)
(0.00138862787212 0.222383267521 0)
(0.00225375664953 0.222550880609 0)
(0.00307222082087 0.222812601848 0)
(0.00380924903788 0.223134180928 0)
(0.00445138160289 0.223496334748 0)
(0.00498677228686 0.223889359554 0)
(0.00540419555493 0.224307057471 0)
(0.00569424724038 0.224745959351 0)
(0.00585052717022 0.225202687357 0)
(0.00586966788037 0.225683199006 0)
(0.0057502090358 0.22617966201 0)
(0.00549640075724 0.226673931405 0)
(0.00512102789393 0.227154548947 0)
(0.00463684776897 0.227615005911 0)
(0.00404142678128 0.228051167095 0)
(0.00331792220919 0.228452705158 0)
(0.00245851317931 0.228817610199 0)
(0.00144532599615 0.229163361627 0)
(0.000236054140721 0.22951465348 0)
(-0.00119232519863 0.229908056685 0)
(-0.00284358430317 0.23037170279 0)
(-0.00469740797841 0.230918161208 0)
(-0.00669624082417 0.231516903354 0)
(-0.00878605614474 0.232111781626 0)
(-0.0109320010644 0.23266109507 0)
(-0.0131052666575 0.23314252849 0)
(-0.0152764210205 0.233542899849 0)
(-0.0174175330688 0.233853831991 0)
(-0.0195054121834 0.234069323092 0)
(-0.0215233203485 0.234187485363 0)
(-0.0234602886744 0.234209249555 0)
(-0.0253100368575 0.234139272142 0)
(-0.0270693206699 0.233983905267 0)
(-0.0287370256014 0.233751860826 0)
(-0.0303129706228 0.233452279811 0)
(-0.0317974963161 0.233095544201 0)
(-0.0331906688891 0.232691509175 0)
(-0.0344922852502 0.232250416519 0)
(-0.0357014304855 0.231781285859 0)
(-0.0368168157299 0.231292949246 0)
(-0.0378365557811 0.230792640932 0)
(-0.0387586568244 0.230287152205 0)
(-0.0395808382147 0.229781608387 0)
(-0.0403010190501 0.22928069083 0)
(-0.040917098877 0.228787554561 0)
(-0.0414273924882 0.228305050318 0)
(-0.0418303745992 0.227834738433 0)
(-0.0421251461498 0.227378047984 0)
(-0.0423086247936 0.226935319987 0)
(-0.0423782396249 0.226508166318 0)
(-0.042336672769 0.226095416611 0)
(-0.0421865625235 0.225696491551 0)
(-0.0419274631768 0.225311966059 0)
(-0.0415600511927 0.224941365334 0)
(-0.0410859933676 0.224584006232 0)
(-0.0405073448997 0.224239644519 0)
(-0.039826330024 0.223907707586 0)
(-0.0390456078453 0.223587969057 0)
(-0.038168093355 0.223279906467 0)
(-0.0371971698873 0.222983334297 0)
(-0.0361365228617 0.222697835223 0)
(-0.0349903174315 0.222423339236 0)
(-0.0337630529517 0.222159615071 0)
(-0.0324597104402 0.221906803454 0)
(-0.0310856263048 0.221664962854 0)
(-0.0296466109561 0.221434568238 0)
(-0.028148828508 0.221216107447 0)
(-0.0265988752022 0.221010555742 0)
(-0.0250036426373 0.220819015176 0)
(-0.0233703306275 0.220643166748 0)
(-0.0217062420046 0.220484934976 0)
(-0.0200186638899 0.220346899205 0)
(-0.0183144976033 0.220231934562 0)
(-0.0165998872002 0.220143515297 0)
(-0.0148795253542 0.220085215363 0)
(-0.0131558616773 0.220060740324 0)
(-0.0114279296073 0.220073042391 0)
(-0.0096900638656 0.220123749429 0)
(-0.00793040945436 0.220211426615 0)
(-0.00613014616562 0.220329774253 0)
(-0.00426538129205 0.220464297628 0)
(-0.00231719729368 0.220589517936 0)
(-0.00029227461071 0.220669779855 0)
(0.00174726662626 0.220680069798 0)
(0.00371053512761 0.220624749813 0)
(0.00555171253234 0.220529626107 0)
(0.00727107497955 0.220415618277 0)
(0.00887713393893 0.220309860243 0)
(0.010380281657 0.220237654461 0)
(0.0117939311573 0.220207244885 0)
(0.0131317800658 0.220225780405 0)
(0.014404091374 0.220296502297 0)
(0.0156173559494 0.220419482893 0)
(0.0167752117245 0.220593340956 0)
(0.0178786902294 0.220815269369 0)
(0.0189264252393 0.221081868526 0)
(0.0199152568485 0.221389453677 0)
(0.0208406716758 0.221734927956 0)
(0.0216975970516 0.222115872828 0)
(0.022481015199 0.222531090202 0)
(0.0231868217827 0.22298025783 0)
(0.0238123649413 0.22346394564 0)
(0.0243570680099 0.223982736409 0)
(0.0248220556816 0.224536589309 0)
(0.0252097984815 0.225123814768 0)
(0.0255166754334 0.225742042487 0)
(0.0257362517121 0.226384789451 0)
(0.0258705128188 0.22703718744 0)
(0.0259185580159 0.227687562053 0)
(0.0258672165851 0.228324037599 0)
(0.0256945925944 0.228920199477 0)
(0.0253696754906 0.229442234123 0)
(0.0248657433888 0.229858610693 0)
(0.0241805744087 0.230147143858 0)
(0.0233392976029 0.230298810203 0)
(0.0223850813539 0.230328979206 0)
(0.0213655753547 0.230276605989 0)
(0.0203177909503 0.230180681123 0)
(0.0192634575224 0.230065506164 0)
(0.0182134183944 0.229944794799 0)
(0.0171731235114 0.229826335796 0)
(0.0161456175653 0.229714170199 0)
(0.0151327825383 0.229610029228 0)
(0.0141353998891 0.229514558941 0)
(0.0131535202259 0.229427726394 0)
(0.0121864915789 0.22934925982 0)
(0.0112332913655 0.229278764018 0)
(0.0102924294277 0.229216041768 0)
(0.00936213207124 0.229161220658 0)
(0.00844007693947 0.229115127134 0)
(0.0075234055301 0.229079563734 0)
(0.0066082947568 0.229057794691 0)
(0.00568988622886 0.229054711977 0)
(0.00476215797154 0.229076022019 0)
(0.00381899082336 0.229123138426 0)
(0.0028550257254 0.229174028916 0)
(0.00187834660585 0.229136243763 0)
(0.000958570400555 0.228780559642 0)
(0.000263848709859 0.227667512674 0)
(0.000366252106596 0.224796972193 0)
(0.00106684022762 0.224842035279 0)
(0.00172415609507 0.225079526833 0)
(0.00233478248099 0.225435030427 0)
(0.00287346359842 0.225869199869 0)
(0.00332795486893 0.226363550475 0)
(0.00368617872802 0.226909299276 0)
(0.00393515536104 0.227500720042 0)
(0.00406297368911 0.22813302379 0)
(0.00406222930247 0.228808825458 0)
(0.003924450351 0.229523486887 0)
(0.00364301056799 0.230244569559 0)
(0.00321934058339 0.23095696413 0)
(0.00265100837915 0.231654707198 0)
(0.00193566130685 0.232335953038 0)
(0.00106612162686 0.232999155292 0)
(2.07690996719e-05 0.233648583877 0)
(-0.00121505455397 0.23430387987 0)
(-0.00265674182827 0.234975340988 0)
(-0.00432961257096 0.235678547893 0)
(-0.0062317282419 0.236435323085 0)
(-0.00832121124325 0.23723513227 0)
(-0.0105340989146 0.238049431145 0)
(-0.0127989711951 0.238835255872 0)
(-0.0150558998105 0.239548280013 0)
(-0.0172649203818 0.240155945061 0)
(-0.0194025776685 0.24064132419 0)
(-0.0214548796284 0.240997807443 0)
(-0.0234134230836 0.241225623861 0)
(-0.0252734838169 0.241328134984 0)
(-0.0270335266413 0.241311500313 0)
(-0.0286943323698 0.241183072069 0)
(-0.0302585552776 0.240952021439 0)
(-0.0317297195992 0.24062801313 0)
(-0.0331118579097 0.240221882008 0)
(-0.0344087001748 0.239744322884 0)
(-0.0356235832618 0.239206583858 0)
(-0.0367588829608 0.238619194031 0)
(-0.0378161915341 0.237992683026 0)
(-0.0387959853024 0.237336390437 0)
(-0.0396980264803 0.236659253738 0)
(-0.040521186562 0.23596875866 0)
(-0.041263951267 0.235271815718 0)
(-0.0419242801329 0.234573860817 0)
(-0.0425001015026 0.233879785301 0)
(-0.0429891370247 0.233193154085 0)
(-0.0433893378472 0.23251713506 0)
(-0.0436986755413 0.231853799937 0)
(-0.0439155730309 0.231205030866 0)
(-0.0440352581223 0.230571829894 0)
(-0.0440548199813 0.229955358371 0)
(-0.0439778647883 0.229356235586 0)
(-0.0438053487832 0.228774671047 0)
(-0.043535629771 0.228210915819 0)
(-0.0431693127965 0.227665342902 0)
(-0.0427071598549 0.227138014496 0)
(-0.0421503707511 0.22662923523 0)
(-0.041500395691 0.226139084178 0)
(-0.0407591488615 0.225667879558 0)
(-0.039928840615 0.225215776932 0)
(-0.0390121485226 0.224783174361 0)
(-0.0380120636084 0.224370370739 0)
(-0.0369320268887 0.223977914724 0)
(-0.035775792977 0.223606319156 0)
(-0.0345475343482 0.223256361048 0)
(-0.0332517156592 0.22292884778 0)
(-0.0318931629723 0.222624875788 0)
(-0.0304769357951 0.222345641917 0)
(-0.0290083502188 0.222092663058 0)
(-0.0274928254466 0.221867618026 0)
(-0.0259358387414 0.221672519803 0)
(-0.0243427077126 0.221509557469 0)
(-0.0227184335276 0.221381187281 0)
(-0.0210673582044 0.221289909761 0)
(-0.0193928364874 0.221238201066 0)
(-0.0176967076166 0.221228105198 0)
(-0.0159787727386 0.221260864802 0)
(-0.0142361296793 0.221336153531 0)
(-0.012462684797 0.221451239222 0)
(-0.0106489557634 0.221599724888 0)
(-0.00878310644674 0.221770284719 0)
(-0.0068544076615 0.221945463279 0)
(-0.00486077304851 0.222101980894 0)
(-0.00281906850102 0.222214588013 0)
(-0.000771633105832 0.222263777976 0)
(0.00123141904817 0.222251546193 0)
(0.0031346184188 0.222198137062 0)
(0.00491461512869 0.222122566258 0)
(0.00658949534141 0.22204211445 0)
(0.00815317406765 0.221974419751 0)
(0.00960418996489 0.221939247405 0)
(0.0109579446678 0.221951249771 0)
(0.0122215330526 0.222017336695 0)
(0.0134042398629 0.222143119845 0)
(0.0145136235103 0.222330499462 0)
(0.0155551450077 0.22257864216 0)
(0.0165324228664 0.222885267703 0)
(0.0174473492768 0.223247171594 0)
(0.0183002310349 0.2236607912 0)
(0.0190903964509 0.224122725156 0)
(0.0198166038393 0.2246301253 0)
(0.0204777212851 0.225180752682 0)
(0.0210730899499 0.225772916683 0)
(0.0216029297144 0.226405090155 0)
(0.0220681807837 0.227075482763 0)
(0.0224699309053 0.22778156566 0)
(0.0228085438071 0.228519528057 0)
(0.0230776252631 0.229287629323 0)
(0.0232746599524 0.230080797472 0)
(0.0234088925834 0.230881403439 0)
(0.0234779005493 0.231676134729 0)
(0.0234680972709 0.232455338376 0)
(0.0233673099273 0.233202225761 0)
(0.0231593200992 0.233894000014 0)
(0.0228170899181 0.234494521368 0)
(0.0223101505244 0.234961493443 0)
(0.0216301237843 0.235267218129 0)
(0.0208034564149 0.235411675383 0)
(0.0198767540396 0.235425884186 0)
(0.0188973209526 0.235359623068 0)
(0.0178992481067 0.235254851831 0)
(0.0168997135873 0.235134487038 0)
(0.0159054861371 0.235009727634 0)
(0.0149199489222 0.2348867826 0)
(0.0139452089442 0.234769239274 0)
(0.0129825813819 0.234659153315 0)
(0.0120324807819 0.234557728169 0)
(0.0110946826382 0.23446574017 0)
(0.0101682465626 0.234383948574 0)
(0.00925173280826 0.234313491679 0)
(0.00834298564374 0.234256368349 0)
(0.00743917316402 0.234215962655 0)
(0.00653639194177 0.234197592188 0)
(0.00562962879447 0.234208624644 0)
(0.00471271011726 0.23425678071 0)
(0.00377889432694 0.23434206409 0)
(0.00282219035302 0.234429682041 0)
(0.00185474618035 0.234390480254 0)
(0.000952094954636 0.233885904157 0)
(0.000266099907359 0.232266748213 0)
(0.000243391129837 0.223373053172 0)
(0.000704427820263 0.223455108212 0)
(0.00112232091018 0.223761491527 0)
(0.0014883907777 0.224203089006 0)
(0.00178583042994 0.224738663887 0)
(0.00200361288699 0.225351888329 0)
(0.00212920844611 0.226036305544 0)
(0.00214838263041 0.226787981609 0)
(0.00204848891608 0.227607558044 0)
(0.00182213795979 0.228493562818 0)
(0.00146597546217 0.229414535717 0)
(0.000972601087266 0.230343634106 0)
(0.000330403026372 0.231286341529 0)
(-0.000475001899629 0.232243258593 0)
(-0.0014613914241 0.233217236524 0)
(-0.00264955910628 0.234207283017 0)
(-0.00406568068128 0.235220716965 0)
(-0.00571962573743 0.236269028288 0)
(-0.00759412939279 0.237343710276 0)
(-0.00965174846106 0.238424636681 0)
(-0.0118370744763 0.239485181101 0)
(-0.0140844739906 0.240492107268 0)
(-0.0163305690691 0.241410690054 0)
(-0.0185252951409 0.242210655492 0)
(-0.0206372759949 0.242871180806 0)
(-0.0226511805214 0.243381831831 0)
(-0.0245617187914 0.243741086027 0)
(-0.0263683308507 0.243952772028 0)
(-0.0280728518218 0.244024027243 0)
(-0.0296782611862 0.243963326504 0)
(-0.0311885772518 0.243780223064 0)
(-0.0326083097538 0.243484549876 0)
(-0.033942446476 0.243086765395 0)
(-0.0351958264463 0.24259736351 0)
(-0.0363731223967 0.242027238732 0)
(-0.037478262568 0.241387050087 0)
(-0.0385145365926 0.240687537129 0)
(-0.0394841504103 0.239938858127 0)
(-0.04038849622 0.239150895843 0)
(-0.0412278601485 0.238332629389 0)
(-0.0420018379621 0.237492483677 0)
(-0.0427091510597 0.236637789476 0)
(-0.0433481296323 0.235775202958 0)
(-0.0439165573461 0.23491026657 0)
(-0.0444121423738 0.234047881601 0)
(-0.04483233973 0.233191947208 0)
(-0.0451747682574 0.232345847787 0)
(-0.0454369573047 0.231512139457 0)
(-0.0456166186865 0.230693016776 0)
(-0.0457084269931 0.229890592408 0)
(-0.0457091643658 0.229105733479 0)
(-0.0456223721201 0.228339402544 0)
(-0.0454486837847 0.227592900319 0)
(-0.0451857837627 0.226866957366 0)
(-0.0448337591778 0.226162437511 0)
(-0.0443928089124 0.225480044912 0)
(-0.0438635486978 0.224820585281 0)
(-0.0432468576958 0.22418474803 0)
(-0.042544075016 0.223573333052 0)
(-0.041756843722 0.222987069718 0)
(-0.0408872626781 0.222426809661 0)
(-0.0399377429625 0.221893378489 0)
(-0.0389111231235 0.221387734427 0)
(-0.0378105387864 0.220910850487 0)
(-0.0366395037892 0.220463842508 0)
(-0.0354017874162 0.220047879301 0)
(-0.0341014596673 0.21966428246 0)
(-0.0327427642307 0.219314458569 0)
(-0.0313301203415 0.21899996885 0)
(-0.029867973959 0.21872246989 0)
(-0.0283607421418 0.21848374086 0)
(-0.0268126159912 0.218285605003 0)
(-0.0252274244516 0.218129883259 0)
(-0.0236083585149 0.218018243697 0)
(-0.0219577370977 0.217952020135 0)
(-0.0202766481276 0.217931905007 0)
(-0.0185646658585 0.217957545281 0)
(-0.0168195445556 0.218026987963 0)
(-0.0150372077704 0.218136003189 0)
(-0.0132121390803 0.218277322459 0)
(-0.0113388556239 0.218439962626 0)
(-0.00941484831366 0.218609033666 0)
(-0.0074453214537 0.218766790556 0)
(-0.00544786879213 0.218895778347 0)
(-0.00345266617333 0.218984457625 0)
(-0.00149680016566 0.21903169408 0)
(0.000384166487949 0.219045002408 0)
(0.00216798220068 0.219048387766 0)
(0.00384677745029 0.219056999877 0)
(0.0054236306241 0.219080300316 0)
(0.00690099078741 0.219133714262 0)
(0.0082757899639 0.219226460462 0)
(0.00955498840024 0.219370806947 0)
(0.0107479840248 0.219572677775 0)
(0.011859890216 0.219833772184 0)
(0.0128972969265 0.220155647837 0)
(0.0138653358236 0.220537471404 0)
(0.0147676059054 0.22097678646 0)
(0.0156065328103 0.221470654477 0)
(0.0163836669247 0.222016121368 0)
(0.0170998165784 0.222610296493 0)
(0.0177556185391 0.223250602664 0)
(0.0183517430109 0.223934764633 0)
(0.0188891975725 0.224660685565 0)
(0.0193691389225 0.225426215597 0)
(0.01979271957 0.226228950388 0)
(0.0201606584834 0.227066299038 0)
(0.0204732476861 0.227934777214 0)
(0.0207228140941 0.228833506556 0)
(0.0209087212828 0.22975457002 0)
(0.0210438548131 0.230680431695 0)
(0.0211239149682 0.231600833434 0)
(0.0211360339936 0.232505567523 0)
(0.0210731004469 0.233377438579 0)
(0.0209238511278 0.23419432724 0)
(0.0206705961146 0.234927441042 0)
(0.0202856058348 0.235536775846 0)
(0.0197406152565 0.235977536383 0)
(0.0190325405044 0.236227314827 0)
(0.0181954109391 0.236305855642 0)
(0.0172807977282 0.236266536047 0)
(0.0163331521744 0.236165841486 0)
(0.0153790652569 0.236039776519 0)
(0.0144299275854 0.23590535358 0)
(0.0134896066367 0.235770741594 0)
(0.0125597959116 0.23564067282 0)
(0.0116412534352 0.235518289723 0)
(0.0107341056788 0.235405921335 0)
(0.00983769057189 0.235305635565 0)
(0.00895075253434 0.235219817801 0)
(0.00807124287777 0.235151829686 0)
(0.0071963840665 0.235106749996 0)
(0.00632229724565 0.235092061794 0)
(0.00544397639938 0.235117699266 0)
(0.00455522153904 0.235193509938 0)
(0.00364881487072 0.235318192507 0)
(0.00271949768399 0.235444588056 0)
(0.00178399781409 0.23540234578 0)
(0.000919939619144 0.234732920145 0)
(0.000260338160356 0.232633008218 0)
(0.000113322727592 0.223082957576 0)
(0.000318628943204 0.22321100648 0)
(0.000477392097468 0.223588329779 0)
(0.000576982406833 0.224112521701 0)
(0.000609737693536 0.224742600322 0)
(0.000566438796363 0.225465274342 0)
(0.000437280849359 0.226276577865 0)
(0.000211950872927 0.227177544837 0)
(-0.000114913779508 0.228169698017 0)
(-0.00054783347847 0.22922943772 0)
(-0.00110392377578 0.23033520178 0)
(-0.00180942418056 0.231493683171 0)
(-0.00269655046237 0.232714962909 0)
(-0.00379910906146 0.234002272821 0)
(-0.005141896649 0.235354566432 0)
(-0.00673213468509 0.236761449849 0)
(-0.00855188813801 0.238198914196 0)
(-0.0105565030049 0.239631263184 0)
(-0.0126834632297 0.241014709964 0)
(-0.0148670054335 0.242307146218 0)
(-0.0170501958842 0.243475047713 0)
(-0.0191898237455 0.244495459926 0)
(-0.0212565942048 0.24535475646 0)
(-0.0232326424556 0.246046121918 0)
(-0.0251096984616 0.246568168626 0)
(-0.0268862473361 0.246924253312 0)
(-0.0285648008654 0.247121306443 0)
(-0.0301493489997 0.247168373662 0)
(-0.0316444968654 0.247075513722 0)
(-0.0330548001866 0.246853135997 0)
(-0.0343849592915 0.246511739694 0)
(-0.0356394603757 0.246061805245 0)
(-0.0368227631285 0.245513800973 0)
(-0.0379388433391 0.2448781414 0)
(-0.0389913413446 0.244165169811 0)
(-0.039983105968 0.243385053003 0)
(-0.0409164024731 0.242547711159 0)
(-0.0417925313989 0.24166266932 0)
(-0.0426121359948 0.240738976452 0)
(-0.0433749190766 0.239785062534 0)
(-0.044080042952 0.23880869531 0)
(-0.0447259204713 0.237816883606 0)
(-0.045310659091 0.236815897533 0)
(-0.0458318777883 0.235811228074 0)
(-0.0462871422624 0.234807663568 0)
(-0.0466737732529 0.233809289533 0)
(-0.0469892435729 0.232819596703 0)
(-0.0472309807873 0.231841495602 0)
(-0.0473950264938 0.2308773991 0)
(-0.0474768255655 0.229930080547 0)
(-0.0474753111063 0.229000519248 0)
(-0.0473916791224 0.22808977098 0)
(-0.0472255109628 0.22719992152 0)
(-0.0469752734207 0.226332258272 0)
(-0.0466405757855 0.225488088068 0)
(-0.0462212131556 0.224668677036 0)
(-0.0457173964586 0.223875278101 0)
(-0.0451296016347 0.223109117432 0)
(-0.0444587521802 0.222371420936 0)
(-0.0437060733834 0.221663412787 0)
(-0.0428732318283 0.220986330541 0)
(-0.0419622020358 0.220341433129 0)
(-0.0409753694067 0.219730002431 0)
(-0.0399154086221 0.21915336007 0)
(-0.0387853526128 0.218612855365 0)
(-0.037588477266 0.218109889769 0)
(-0.036328336142 0.217645890489 0)
(-0.03500864224 0.217222338305 0)
(-0.0336332646584 0.216840722325 0)
(-0.0322060941248 0.216502560584 0)
(-0.0307309942303 0.216209323813 0)
(-0.0292116342919 0.215962427435 0)
(-0.0276513860279 0.21576309902 0)
(-0.0260531113565 0.215612304259 0)
(-0.0244190109464 0.215510516275 0)
(-0.0227503916661 0.215457524894 0)
(-0.0210475465443 0.215452063466 0)
(-0.0193096599986 0.215491473182 0)
(-0.0175350269294 0.215571212425 0)
(-0.0157216146574 0.215684504288 0)
(-0.0138684025516 0.215822062079 0)
(-0.0119774658193 0.215972396168 0)
(-0.0100567167425 0.216122869303 0)
(-0.00812184939343 0.216261996435 0)
(-0.00619607577332 0.216382338364 0)
(-0.00430633432185 0.21648277133 0)
(-0.00247708366038 0.21656967579 0)
(-0.000728458131331 0.216653666055 0)
(0.00093127999594 0.216749069331 0)
(0.00250020507227 0.216870553711 0)
(0.00397516176408 0.217024162212 0)
(0.00536357136776 0.217218333729 0)
(0.00666580531347 0.217461109084 0)
(0.00787768701111 0.217755155048 0)
(0.00900860540645 0.218106148122 0)
(0.0100655651182 0.218515704147 0)
(0.0110510852554 0.218981586998 0)
(0.0119693778567 0.219503223926 0)
(0.0128237418326 0.220078901668 0)
(0.0136164657833 0.220705892678 0)
(0.0143492689383 0.221381552309 0)
(0.0150237139463 0.222103457656 0)
(0.0156411765675 0.222869269461 0)
(0.0162031385547 0.223676762257 0)
(0.0167110541238 0.22452370657 0)
(0.0171663560179 0.225407839301 0)
(0.0175702225285 0.22632674196 0)
(0.017923915552 0.227277935355 0)
(0.0182252071285 0.228257875044 0)
(0.0184685676423 0.229266483865 0)
(0.0186586018646 0.230291931264 0)
(0.0188055868663 0.231318895042 0)
(0.0189037332506 0.232341689315 0)
(0.0189427860677 0.233348458746 0)
(0.0189175578041 0.234323337914 0)