/*--------------------------------*- C++ -*----------------------------------*\
| =========                 |                                                 |
| \\      /  F ield         | OpenFOAM: The Open Source CFD Toolbox           |
|  \\    /   O peration     | Version:  2212                                  |
|   \\  /    A nd           | Website:  www.openfoam.com                      |
|    \\/     M anipulation  |                                                 |
\*---------------------------------------------------------------------------*/
FoamFile
{
    version     2.0;
    format      ascii;
    arch        "LSB;label=64;scalar=64";
    class       volScalarField;
    location    "600";
    object      p;
}
// * * * * * * * * * * * * * * * * * * * * * * * * * * * * * * * * * * * * * //

dimensions      [0 2 -2 0 0 0 0];

internalField   nonuniform List<scalar> 
1024
(
0
-3.50902e-06
-7.83025e-06
-1.09012e-05
-1.21696e-05
-1.22346e-05
-1.12623e-05
-7.88819e-06
1.13753e-06
2.08738e-05
5.78989e-05
0.000119221
0.00020699
0.000306381
0.000377912
0.000358556
0.000242911
0.00011446
-1.28977e-05
-0.000112344
-0.000188214
-0.000246065
-0.000290527
-0.000324909
-0.00035138
-0.000371384
-0.000385973
-0.000395746
-0.000400756
-0.00040095
-0.000397375
-0.000393223
-0.0928149
-0.0928186
-0.0928228
-0.0928259
-0.092828
-0.0928294
-0.09283
-0.0928283
-0.0928212
-0.0928037
-0.0927692
-0.0927107
-0.0926264
-0.0925306
-0.0924622
-0.0924827
-0.0925958
-0.0927207
-0.0928452
-0.0929426
-0.093017
-0.0930737
-0.093117
-0.0931501
-0.093175
-0.0931931
-0.0932054
-0.0932128
-0.0932161
-0.0932155
-0.0932117
-0.0932072
-0.199438
-0.199443
-0.199448
-0.199453
-0.199457
-0.199461
-0.199465
-0.199467
-0.199465
-0.199452
-0.199422
-0.199369
-0.199291
-0.199201
-0.199138
-0.199161
-0.199269
-0.199388
-0.199507
-0.1996
-0.199671
-0.199725
-0.199766
-0.199797
-0.199819
-0.199834
-0.199842
-0.199846
-0.199846
-0.199844
-0.199838
-0.199832
-0.32193
-0.321937
-0.321944
-0.321951
-0.321958
-0.321968
-0.321978
-0.321987
-0.321991
-0.321986
-0.321964
-0.321919
-0.321849
-0.321768
-0.321711
-0.321738
-0.32184
-0.321949
-0.32206
-0.322147
-0.322213
-0.322262
-0.3223
-0.322327
-0.322345
-0.322355
-0.322358
-0.322357
-0.322352
-0.322347
-0.322339
-0.322331
-0.462658
-0.462668
-0.462678
-0.462688
-0.462702
-0.462719
-0.462738
-0.462757
-0.462771
-0.462775
-0.462764
-0.462729
-0.46267
-0.462598
-0.462549
-0.46258
-0.462675
-0.462773
-0.462873
-0.462951
-0.46301
-0.463053
-0.463085
-0.463108
-0.463121
-0.463125
-0.463122
-0.463115
-0.463105
-0.463095
-0.463085
-0.463075
-0.624349
-0.62436
-0.624373
-0.624389
-0.624411
-0.624437
-0.624468
-0.624498
-0.624524
-0.62454
-0.62454
-0.624517
-0.624469
-0.624405
-0.624364
-0.6244
-0.624487
-0.624574
-0.624662
-0.62473
-0.62478
-0.624817
-0.624842
-0.624859
-0.624866
-0.624865
-0.624856
-0.624842
-0.624826
-0.624812
-0.624799
-0.624789
-0.810134
-0.810146
-0.810162
-0.810184
-0.810213
-0.81025
-0.810291
-0.810333
-0.810371
-0.810398
-0.81041
-0.810397
-0.810357
-0.810302
-0.810269
-0.810309
-0.810389
-0.810467
-0.810544
-0.810602
-0.810643
-0.810672
-0.81069
-0.810701
-0.810703
-0.810696
-0.810682
-0.810662
-0.810642
-0.810624
-0.81061
-0.8106
-1.02361
-1.02362
-1.02364
-1.02366
-1.0237
-1.02374
-1.02379
-1.02384
-1.02389
-1.02393
-1.02395
-1.02394
-1.02391
-1.02386
-1.02384
-1.02388
-1.02395
-1.02403
-1.02409
-1.02414
-1.02418
-1.0242
-1.02421
-1.02422
-1.02421
-1.0242
-1.02418
-1.02416
-1.02414
-1.02412
-1.0241
-1.02409
-1.26889
-1.2689
-1.26892
-1.26895
-1.26898
-1.26903
-1.26909
-1.26914
-1.26919
-1.26923
-1.26926
-1.26926
-1.26923
-1.26919
-1.26917
-1.26922
-1.26929
-1.26936
-1.26942
-1.26946
-1.26949
-1.2695
-1.26951
-1.26951
-1.2695
-1.26949
-1.26947
-1.26945
-1.26942
-1.2694
-1.26939
-1.26938
-1.5507
-1.55071
-1.55073
-1.55075
-1.55079
-1.55083
-1.55089
-1.55094
-1.55099
-1.55103
-1.55106
-1.55106
-1.55103
-1.551
-1.55099
-1.55104
-1.55111
-1.55117
-1.55123
-1.55127
-1.55129
-1.5513
-1.55131
-1.55131
-1.5513
-1.55128
-1.55126
-1.55124
-1.55121
-1.5512
-1.55119
-1.55118
-1.87445
-1.87446
-1.87447
-1.87449
-1.87452
-1.87456
-1.87461
-1.87466
-1.87471
-1.87474
-1.87477
-1.87477
-1.87474
-1.87472
-1.87473
-1.87477
-1.87484
-1.8749
-1.87495
-1.87499
-1.87501
-1.87502
-1.87502
-1.87502
-1.87501
-1.87499
-1.87497
-1.87495
-1.87493
-1.87491
-1.8749
-1.8749
-2.24636
-2.24636
-2.24637
-2.24639
-2.24641
-2.24645
-2.24648
-2.24652
-2.24656
-2.24659
-2.24661
-2.24661
-2.24659
-2.24657
-2.24659
-2.24664
-2.2467
-2.24675
-2.24681
-2.24685
-2.24687
-2.24688
-2.24688
-2.24687
-2.24686
-2.24684
-2.24682
-2.24679
-2.24677
-2.24675
-2.24675
-2.24675
-2.67357
-2.67357
-2.67358
-2.67359
-2.67361
-2.67363
-2.67366
-2.67369
-2.67372
-2.67374
-2.67375
-2.67374
-2.67373
-2.67372
-2.67374
-2.67379
-2.67384
-2.67389
-2.67394
-2.67399
-2.67402
-2.67403
-2.67403
-2.67401
-2.67399
-2.67396
-2.67393
-2.67389
-2.67387
-2.67385
-2.67385
-2.67385
-3.16429
-3.16429
-3.1643
-3.1643
-3.16432
-3.16433
-3.16435
-3.16438
-3.1644
-3.16441
-3.16441
-3.1644
-3.16438
-3.16438
-3.1644
-3.16443
-3.16447
-3.16452
-3.16457
-3.16461
-3.16464
-3.16465
-3.16464
-3.16461
-3.16457
-3.16452
-3.16447
-3.16442
-3.16439
-3.16438
-3.16438
-3.16438
-3.72797
-3.72797
-3.72797
-3.72798
-3.72799
-3.728
-3.72802
-3.72803
-3.72805
-3.72805
-3.72805
-3.72802
-3.728
-3.72799
-3.72801
-3.72803
-3.72805
-3.72807
-3.72809
-3.7281
-3.72811
-3.72809
-3.72806
-3.72799
-3.72792
-3.72785
-3.7278
-3.72776
-3.72773
-3.72773
-3.72773
-3.72773
-4.37544
-4.37544
-4.37544
-4.37544
-4.37545
-4.37547
-4.37549
-4.37551
-4.37552
-4.37553
-4.37552
-4.3755
-4.37547
-4.37545
-4.37545
-4.37545
-4.37544
-4.37542
-4.37539
-4.37533
-4.37525
-4.37515
-4.37504
-4.37493
-4.37483
-4.37476
-4.37471
-4.3747
-4.3747
-4.37471
-4.37471
-4.37472
-5.06765
-5.06765
-5.06765
-5.06765
-5.06767
-5.06769
-5.06773
-5.06776
-5.06779
-5.06782
-5.06783
-5.06782
-5.0678
-5.06778
-5.06777
-5.06777
-5.06774
-5.0677
-5.06762
-5.06751
-5.06737
-5.0672
-5.06703
-5.06687
-5.06673
-5.06665
-5.0666
-5.06659
-5.06659
-5.0666
-5.06661
-5.06661
-5.71495
-5.71495
-5.71495
-5.71495
-5.71498
-5.71501
-5.71506
-5.71513
-5.7152
-5.71527
-5.71533
-5.71537
-5.71539
-5.71538
-5.71537
-5.71535
-5.71533
-5.71528
-5.71521
-5.7151
-5.71496
-5.71479
-5.71462
-5.71446
-5.71431
-5.7142
-5.71413
-5.7141
-5.71409
-5.71409
-5.7141
-5.71411
-6.27837
-6.27836
-6.27836
-6.27837
-6.27839
-6.27844
-6.2785
-6.27859
-6.27869
-6.27879
-6.27891
-6.27903
-6.27911
-6.27913
-6.27913
-6.27912
-6.2791
-6.27906
-6.279
-6.2789
-6.27879
-6.27865
-6.2785
-6.27835
-6.27821
-6.2781
-6.27801
-6.27796
-6.27794
-6.27793
-6.27794
-6.27795
-6.76881
-6.7688
-6.7688
-6.7688
-6.76883
-6.76887
-6.76894
-6.76903
-6.76914
-6.76927
-6.76941
-6.76957
-6.76972
-6.76982
-6.76985
-6.76985
-6.76986
-6.76983
-6.76977
-6.76969
-6.76959
-6.76948
-6.76936
-6.76923
-6.7691
-6.76899
-6.76889
-6.76883
-6.76879
-6.76878
-6.76879
-6.7688
-7.19576
-7.19575
-7.19575
-7.19575
-7.19577
-7.1958
-7.19586
-7.19595
-7.19605
-7.19619
-7.19634
-7.19652
-7.19671
-7.19688
-7.19697
-7.19702
-7.19704
-7.19703
-7.19698
-7.1969
-7.1968
-7.1967
-7.19659
-7.19648
-7.19637
-7.19626
-7.19616
-7.19609
-7.19604
-7.19603
-7.19603
-7.19604
-7.56746
-7.56746
-7.56745
-7.56745
-7.56746
-7.56749
-7.56753
-7.5676
-7.56768
-7.5678
-7.56796
-7.56815
-7.56838
-7.56859
-7.56875
-7.56884
-7.56889
-7.56889
-7.56885
-7.56877
-7.56867
-7.56856
-7.56845
-7.56834
-7.56824
-7.56813
-7.56803
-7.56795
-7.5679
-7.56787
-7.56787
-7.56788
-7.89108
-7.89108
-7.89107
-7.89107
-7.89108
-7.89109
-7.89111
-7.89114
-7.8912
-7.89129
-7.89144
-7.89164
-7.89189
-7.89215
-7.89236
-7.89251
-7.89259
-7.8926
-7.89256
-7.89248
-7.89238
-7.89226
-7.89213
-7.89201
-7.89189
-7.89178
-7.89167
-7.89158
-7.89151
-7.89148
-7.89148
-7.89149
-8.17282
-8.17282
-8.17282
-8.17282
-8.17282
-8.17281
-8.1728
-8.1728
-8.17282
-8.17289
-8.17303
-8.17324
-8.17351
-8.17381
-8.17407
-8.17427
-8.17437
-8.1744
-8.17437
-8.17429
-8.17418
-8.17404
-8.1739
-8.17375
-8.1736
-8.17346
-8.17333
-8.17322
-8.17313
-8.17309
-8.17308
-8.17308
-8.41809
-8.41809
-8.4181
-8.4181
-8.41809
-8.41806
-8.41803
-8.418
-8.41798
-8.41803
-8.41816
-8.41838
-8.41868
-8.41901
-8.41932
-8.41955
-8.41968
-8.41973
-8.4197
-8.41962
-8.4195
-8.41935
-8.41918
-8.419
-8.41881
-8.41863
-8.41846
-8.41831
-8.41819
-8.41812
-8.4181
-8.4181
-8.63161
-8.63162
-8.63162
-8.63162
-8.6316
-8.63156
-8.6315
-8.63144
-8.6314
-8.63143
-8.63155
-8.63179
-8.63211
-8.63248
-8.63282
-8.63308
-8.63324
-8.63329
-8.63327
-8.63319
-8.63306
-8.6329
-8.63271
-8.6325
-8.63227
-8.63203
-8.6318
-8.63159
-8.63142
-8.6313
-8.63126
-8.63125
-8.81749
-8.81751
-8.81751
-8.81751
-8.81748
-8.81742
-8.81734
-8.81725
-8.81719
-8.81721
-8.81733
-8.81758
-8.81793
-8.81832
-8.81869
-8.81898
-8.81916
-8.81922
-8.8192
-8.81912
-8.81899
-8.81881
-8.8186
-8.81836
-8.81808
-8.81779
-8.81748
-8.8172
-8.81695
-8.81676
-8.81666
-8.81663
-8.97935
-8.97937
-8.97937
-8.97935
-8.9793
-8.97922
-8.97911
-8.97901
-8.97894
-8.97895
-8.97908
-8.97934
-8.97971
-8.98012
-8.98051
-8.98082
-8.98101
-8.98108
-8.98106
-8.98098
-8.98085
-8.98066
-8.98044
-8.98016
-8.97985
-8.9795
-8.97912
-8.97874
-8.97839
-8.9781
-8.9779
-8.9778
-9.12034
-9.12034
-9.12032
-9.12027
-9.12019
-9.12009
-9.11996
-9.11984
-9.11976
-9.11977
-9.11991
-9.12018
-9.12055
-9.12098
-9.12139
-9.12171
-9.12191
-9.12199
-9.12198
-9.12189
-9.12176
-9.12157
-9.12133
-9.12103
-9.12069
-9.12029
-9.11985
-9.11938
-9.11889
-9.11844
-9.11809
-9.11786
-9.24322
-9.24316
-9.24307
-9.24297
-9.24286
-9.24274
-9.24259
-9.24246
-9.24237
-9.24238
-9.24252
-9.2428
-9.24318
-9.24362
-9.24404
-9.24437
-9.24458
-9.24466
-9.24465
-9.24457
-9.24443
-9.24423
-9.24399
-9.24368
-9.24332
-9.24289
-9.2424
-9.24184
-9.24122
-9.24055
-9.23993
-9.23938
-9.35053
-9.35015
-9.34992
-9.34977
-9.34964
-9.3495
-9.34935
-9.34921
-9.34912
-9.34913
-9.34927
-9.34955
-9.34995
-9.35039
-9.35081
-9.35115
-9.35137
-9.35145
-9.35144
-9.35136
-9.35122
-9.35103
-9.35078
-9.35047
-9.3501
-9.34966
-9.34914
-9.34852
-9.34778
-9.34688
-9.34578
-9.34453
-9.44452
-9.4433
-9.44285
-9.44271
-9.44258
-9.44244
-9.44229
-9.44215
-9.44206
-9.44207
-9.44221
-9.4425
-9.44289
-9.44334
-9.44377
-9.44412
-9.44433
-9.44442
-9.44441
-9.44434
-9.4442
-9.444
-9.44375
-9.44345
-9.44307
-9.44263
-9.4421
-9.44146
-9.44065
-9.43956
-9.43796
-9.4357
)
;

boundaryField
{
    movingWall
    {
        type            calculated;
        value           nonuniform List<scalar> 
32
(
-9.48779
-9.48657
-9.48612
-9.48597
-9.48585
-9.48571
-9.48556
-9.48542
-9.48533
-9.48533
-9.48548
-9.48576
-9.48616
-9.48661
-9.48704
-9.48738
-9.4876
-9.48769
-9.48768
-9.4876
-9.48747
-9.48727
-9.48703
-9.48672
-9.48634
-9.4859
-9.48537
-9.48473
-9.48392
-9.48283
-9.48123
-9.47897
)
;
    }
    fixedWalls
    {
        type            calculated;
        value           nonuniform List<scalar> 
64
(
6.93889e-18
-0.0928149
-0.199438
-0.32193
-0.462658
-0.624349
-0.810134
-1.02361
-1.26889
-1.5507
-1.87445
-2.24636
-2.67357
-3.16429
-3.72797
-4.37544
-5.06765
-5.71495
-6.27837
-6.76881
-7.19576
-7.56746
-7.89108
-8.17282
-8.41809
-8.63161
-8.81749
-8.97935
-9.12034
-9.24322
-9.35053
-9.44452
-0.000393223
-0.0932072
-0.199832
-0.322331
-0.463075
-0.624789
-0.8106
-1.02409
-1.26938
-1.55118
-1.8749
-2.24675
-2.67385
-3.16438
-3.72773
-4.37472
-5.06661
-5.71411
-6.27795
-6.7688
-7.19604
-7.56788
-7.89149
-8.17308
-8.4181
-8.63125
-8.81663
-8.9778
-9.11786
-9.23938
-9.34453
-9.4357
)
;
    }
    floor
    {
        type            calculated;
        value           nonuniform List<scalar> 
32
(
0.0431956
0.0431921
0.0431879
0.0431849
0.0431839
0.0431841
0.0431853
0.043189
0.0431983
0.0432184
0.0432558
0.0433175
0.0434057
0.0435056
0.0435776
0.0435584
0.0434424
0.0433134
0.0431856
0.0430859
0.0430097
0.0429517
0.042907
0.0428724
0.0428458
0.0428255
0.0428106
0.0428006
0.0427953
0.0427949
0.0427984
0.0428025
)
;
    }
    frontAndBack
    {
        type            empty;
    }
}


// ************************************************************************* //
