/*--------------------------------*- C++ -*----------------------------------*\
| =========                 |                                                 |
| \\      /  F ield         | OpenFOAM: The Open Source CFD Toolbox           |
|  \\    /   O peration     | Version:  2212                                  |
|   \\  /    A nd           | Website:  www.openfoam.com                      |
|    \\/     M anipulation  |                                                 |
\*---------------------------------------------------------------------------*/
FoamFile
{
    version     2.0;
    format      ascii;
    arch        "LSB;label=64;scalar=64";
    class       volScalarField;
    location    "600";
    object      p_rgh;
}
// * * * * * * * * * * * * * * * * * * * * * * * * * * * * * * * * * * * * * //

dimensions      [0 2 -2 0 0 0 0];

internalField   nonuniform List<scalar> 
1024
(
0.0431956
0.0431921
0.0431879
0.0431849
0.0431839
0.0431841
0.0431853
0.043189
0.0431983
0.0432184
0.0432558
0.0433175
0.0434057
0.0435056
0.0435776
0.0435584
0.0434424
0.0433134
0.0431856
0.0430859
0.0430097
0.0429517
0.042907
0.0428724
0.0428458
0.0428255
0.0428106
0.0428006
0.0427953
0.0427949
0.0427984
0.0428025
0.0432045
0.0432011
0.0431978
0.0431961
0.0431962
0.0431974
0.0431996
0.0432041
0.0432142
0.0432349
0.0432729
0.0433353
0.0434243
0.043525
0.0435973
0.0435784
0.0434622
0.0433324
0.0432035
0.0431028
0.0430258
0.0429671
0.0429219
0.042887
0.04286
0.0428395
0.0428244
0.0428141
0.0428082
0.0428068
0.0428094
0.0428135
0.0432228
0.0432188
0.0432165
0.0432173
0.0432204
0.0432243
0.0432289
0.0432356
0.0432478
0.0432709
0.0433114
0.0433766
0.043469
0.0435725
0.0436467
0.0436282
0.0435107
0.0433782
0.0432465
0.0431434
0.0430643
0.0430038
0.0429571
0.0429206
0.042892
0.0428696
0.0428524
0.0428395
0.0428307
0.0428266
0.0428281
0.0428328
0.0432488
0.043244
0.0432432
0.0432484
0.0432568
0.043266
0.0432751
0.0432859
0.0433023
0.0433297
0.043375
0.0434454
0.043543
0.0436498
0.0437254
0.043707
0.0435893
0.0434542
0.0433194
0.0432131
0.0431312
0.0430679
0.0430182
0.0429785
0.0429459
0.0429189
0.0428959
0.0428763
0.0428608
0.0428515
0.0428506
0.0428557
0.0432763
0.0432712
0.0432737
0.043286
0.0433033
0.0433211
0.0433376
0.043355
0.0433776
0.0434113
0.0434628
0.0435388
0.0436385
0.043745
0.0438187
0.0437993
0.0436862
0.043553
0.043419
0.0433116
0.0432281
0.043162
0.0431086
0.0430637
0.0430243
0.0429882
0.0429541
0.0429221
0.0428943
0.0428753
0.0428694
0.0428736
0.0432926
0.0432886
0.0432971
0.0433206
0.0433515
0.0433824
0.0434103
0.0434371
0.0434676
0.0435078
0.0435635
0.0436405
0.0437348
0.0438346
0.0439019
0.0438804
0.043779
0.0436564
0.0435312
0.0434286
0.0433473
0.0432816
0.0432251
0.043174
0.0431245
0.0430742
0.0430223
0.0429701
0.0429225
0.042888
0.0428734
0.0428752
0.0432801
0.0432788
0.0432966
0.0433363
0.0433868
0.0434366
0.0434803
0.0435192
0.0435579
0.0436018
0.043656
0.0437249
0.0438069
0.0438955
0.0439542
0.0439313
0.0438462
0.043742
0.0436343
0.0435442
0.0434714
0.0434108
0.043355
0.0432987
0.0432372
0.0431679
0.0430908
0.0430096
0.042934
0.0428777
0.0428511
0.0428489
0.0432212
0.043224
0.0432541
0.0433152
0.0433921
0.0434675
0.0435319
0.0435848
0.04363
0.0436727
0.0437181
0.0437718
0.0438397
0.0439183
0.0439708
0.0439481
0.0438787
0.0437947
0.0437091
0.0436373
0.0435788
0.0435288
0.043479
0.0434208
0.0433475
0.0432559
0.0431472
0.0430288
0.0429176
0.0428349
0.0427939
0.042787
0.0431057
0.0431132
0.0431574
0.0432438
0.0433534
0.043461
0.0435508
0.0436187
0.0436681
0.0437048
0.0437371
0.0437754
0.043834
0.0439095
0.0439608
0.0439394
0.043881
0.0438124
0.0437476
0.043695
0.0436535
0.0436177
0.0435782
0.0435219
0.0434391
0.0433242
0.0431794
0.0430183
0.0428669
0.0427557
0.0427005
0.0426889
0.0429338
0.042946
0.0430039
0.0431173
0.043264
0.0434092
0.043528
0.0436118
0.0436633
0.0436919
0.043712
0.0437419
0.0438013
0.0438831
0.0439376
0.0439176
0.0438629
0.0438029
0.0437527
0.0437159
0.0436903
0.0436694
0.0436415
0.0435896
0.0434993
0.0433615
0.0431787
0.0429722
0.0427804
0.0426434
0.0425766
0.0425614
0.0427146
0.0427306
0.0428002
0.0429391
0.0431241
0.0433099
0.0434603
0.0435604
0.0436137
0.0436354
0.0436493
0.0436816
0.0437544
0.0438528
0.0439129
0.0438922
0.043834
0.043776
0.043732
0.0437055
0.0436924
0.0436849
0.0436677
0.0436199
0.0435217
0.0433599
0.0431386
0.0428885
0.0426621
0.0425067
0.0424336
0.0424163
0.0424591
0.042478
0.0425561
0.0427162
0.0429369
0.0431636
0.0433466
0.0434639
0.0435201
0.0435389
0.043555
0.0436035
0.0437052
0.043831
0.0438966
0.0438706
0.0438044
0.043739
0.0436909
0.0436665
0.0436621
0.043667
0.0436592
0.0436116
0.0435007
0.0433105
0.0430507
0.0427655
0.0425191
0.0423601
0.042289
0.0422717
0.0421747
0.0421955
0.0422784
0.0424531
0.0427037
0.0429688
0.0431846
0.0433199
0.0433815
0.0434029
0.0434321
0.0435138
0.0436648
0.0438291
0.0438979
0.0438623
0.0437842
0.0437026
0.0436357
0.0435938
0.0435878
0.0436041
0.0436064
0.0435503
0.0434161
0.0431893
0.0428945
0.0426079
0.0423794
0.0422378
0.042175
0.0421589
0.0418608
0.0418829
0.0419667
0.0421474
0.0424183
0.0427169
0.0429654
0.0431209
0.0431915
0.0432225
0.0432786
0.043417
0.0436435
0.0438577
0.0439287
0.0438829
0.0437919
0.0436876
0.0435865
0.0435029
0.0434554
0.0434484
0.0434474
0.0433615
0.0432027
0.0429821
0.0427274
0.0424871
0.0423019
0.0421902
0.0421409
0.0421272
0.0415127
0.0415349
0.0416141
0.0417875
0.0420636
0.0423858
0.0426671
0.0428484
0.0429334
0.0429817
0.0430831
0.0433109
0.0436459
0.0439241
0.0440046
0.0439591
0.0438663
0.0437478
0.0436144
0.0434759
0.0433466
0.0432388
0.0431578
0.0430953
0.0429878
0.042833
0.0426538
0.0424841
0.0423551
0.0422794
0.0422467
0.0422371
0.0411356
0.041157
0.0412274
0.0413796
0.0416282
0.0419424
0.0422529
0.0424688
0.0425771
0.0426477
0.042812
0.0431741
0.0436617
0.0440294
0.044147
0.0441367
0.0440859
0.0440091
0.0439099
0.0437941
0.0436691
0.0435393
0.0434064
0.0432707
0.0431318
0.0429912
0.0428709
0.042755
0.042667
0.0426187
0.0426016
0.0425988
0.0408077
0.0408237
0.0408776
0.040998
0.0412021
0.041474
0.0417609
0.0419918
0.0421284
0.0422105
0.0424185
0.0429536
0.0436644
0.0441774
0.0443955
0.0444895
0.0445572
0.0446111
0.0446543
0.0446994
0.0447515
0.0448056
0.0448462
0.0448492
0.0447874
0.0446375
0.0443909
0.0441158
0.0438589
0.0436619
0.0435467
0.043504
0.0406993
0.040695
0.0407106
0.0407777
0.0409175
0.0411238
0.0413587
0.0415645
0.0416947
0.0417551
0.041877
0.0424532
0.0435029
0.0443018
0.044682
0.044894
0.0450456
0.0451572
0.045248
0.0453418
0.0454488
0.0455701
0.0456977
0.0458175
0.0459121
0.0459656
0.0459678
0.0459143
0.0458113
0.0456789
0.0455549
0.0454799
0.0409568
0.0409054
0.04084
0.0408095
0.0408479
0.0409589
0.0411154
0.0412713
0.0413805
0.0414276
0.0414826
0.0417956
0.0426315
0.0440333
0.0447239
0.0450466
0.0452469
0.0453634
0.0454399
0.0455064
0.0455767
0.0456564
0.0457469
0.0458446
0.0459403
0.0460234
0.0460844
0.0461184
0.0461273
0.046116
0.046093
0.0460725
0.0416466
0.0415301
0.0413428
0.0411595
0.0410418
0.0410129
0.0410578
0.0411372
0.0412077
0.041241
0.0412744
0.0414762
0.0420946
0.0431673
0.0441586
0.0448874
0.0452573
0.0454203
0.0455155
0.0455794
0.045629
0.0456728
0.0457189
0.0457731
0.0458365
0.0459033
0.0459649
0.046013
0.0460451
0.0460625
0.0460685
0.0460668
0.0426546
0.0424917
0.042193
0.0418392
0.0415239
0.041307
0.0411985
0.0411697
0.0411765
0.0411835
0.0412034
0.0413539
0.0418344
0.0426926
0.0436566
0.0444682
0.0449931
0.0452978
0.0454823
0.0455976
0.0456693
0.0457153
0.0457475
0.0457747
0.0458085
0.0458524
0.0459015
0.0459468
0.0459816
0.0460039
0.0460153
0.0460175
0.0436932
0.0435292
0.0431897
0.0427221
0.0422275
0.041809
0.0415209
0.0413589
0.0412815
0.0412464
0.0412476
0.0413665
0.0417549
0.0424597
0.0433221
0.0441319
0.0447117
0.0450817
0.0453348
0.0455164
0.0456477
0.0457404
0.0458026
0.0458368
0.0458624
0.0458937
0.0459339
0.0459765
0.0460124
0.0460366
0.0460493
0.0460522
0.0445125
0.044376
0.0440649
0.0435766
0.0429825
0.0424082
0.0419584
0.0416659
0.0415017
0.041419
0.0413974
0.041491
0.0418117
0.0423981
0.04315
0.0439059
0.0444844
0.044879
0.0451684
0.0453944
0.0455757
0.0457188
0.0458281
0.0459069
0.0459631
0.046006
0.046049
0.0460968
0.0461385
0.0461667
0.0461807
0.046184
0.0450273
0.0449234
0.0446627
0.0442163
0.0436131
0.0429676
0.0424179
0.0420342
0.0418046
0.0416841
0.041642
0.0417144
0.0419814
0.042471
0.0431159
0.0437924
0.0443346
0.0447243
0.0450244
0.0452722
0.0454856
0.0456694
0.0458261
0.0459579
0.0460656
0.0461539
0.0462282
0.0462935
0.0463514
0.0463902
0.0464076
0.046412
0.0453156
0.0452202
0.044992
0.0446011
0.0440499
0.0434138
0.0428394
0.0424199
0.0421625
0.0420243
0.0419723
0.0420285
0.0422493
0.0426536
0.0431937
0.0437752
0.0442586
0.0446198
0.044911
0.0451637
0.0453942
0.0456073
0.0458053
0.0459891
0.0461582
0.0463099
0.0464418
0.0465513
0.0466405
0.0467025
0.0467294
0.0467375
0.0454784
0.0453744
0.0451435
0.0447835
0.044315
0.0437796
0.0432368
0.0428175
0.0425669
0.0424347
0.0423845
0.0424284
0.0426044
0.0429245
0.043355
0.0438283
0.0442357
0.0445527
0.0448223
0.0450687
0.0453059
0.0455393
0.0457717
0.0460041
0.0462356
0.0464601
0.0466681
0.0468488
0.0469933
0.0471002
0.0471516
0.0471706
0.0455766
0.0454583
0.0452232
0.0448949
0.0445037
0.0440808
0.0436528
0.0432598
0.0430337
0.0429252
0.042883
0.0429114
0.0430341
0.0432592
0.0435684
0.0439214
0.0442411
0.0445062
0.044748
0.0449828
0.0452211
0.0454685
0.0457287
0.046004
0.0462945
0.0465934
0.0468878
0.0471601
0.0473924
0.0475721
0.0476772
0.0477234
0.04562
0.0454995
0.0452825
0.0450079
0.0447084
0.044403
0.0440957
0.0437884
0.0435919
0.0435101
0.0434688
0.0434654
0.043514
0.0436252
0.0437997
0.0440255
0.0442545
0.0444673
0.0446808
0.0449029
0.0451403
0.0453976
0.0456794
0.0459899
0.0463308
0.0466983
0.0470806
0.0474587
0.0478084
0.048102
0.0483031
0.0484068
0.0455923
0.0454937
0.0453344
0.045152
0.0449677
0.0447887
0.0446045
0.0443979
0.0442533
0.0441829
0.0441188
0.0440548
0.0440027
0.0439824
0.0440167
0.0441186
0.0442637
0.0444299
0.0446189
0.0448301
0.0450661
0.0453301
0.0456274
0.0459635
0.0463427
0.0467652
0.0472258
0.0477123
0.0482038
0.0486635
0.04902
0.0492541
0.0454449
0.04543
0.0453877
0.0453321
0.0452743
0.0452174
0.0451427
0.0450514
0.0449644
0.0448809
0.0447653
0.0446138
0.0444436
0.0442889
0.0441934
0.0441885
0.0442651
0.0443946
0.044565
0.0447681
0.0450026
0.0452705
0.0455771
0.0459289
0.0463323
0.0467917
0.0473104
0.0478901
0.0485293
0.0492072
0.0498452
0.0504046
0.0449911
0.0453253
0.0454745
0.0455382
0.0455759
0.0456103
0.045633
0.0456282
0.0455803
0.0454749
0.0452977
0.045055
0.0447749
0.0445074
0.0443121
0.0442304
0.0442601
0.0443656
0.044524
0.0447216
0.0449545
0.0452236
0.045534
0.0458925
0.0463067
0.0467838
0.0473341
0.0479744
0.0487338
0.0496542
0.0507723
0.0520423
0.0440072
0.0452093
0.0456225
0.0457262
0.0457983
0.0458701
0.0459326
0.0459655
0.0459356
0.0458165
0.0455973
0.0452943
0.0449467
0.0446149
0.0443665
0.0442465
0.0442539
0.0443483
0.044501
0.0446959
0.0449274
0.0451959
0.0455064
0.0458657
0.0462814
0.0467622
0.0473223
0.0479899
0.0488235
0.0499383
0.0515597
0.053837
)
;

boundaryField
{
    movingWall
    {
        type            fixedFluxPressure;
        gradient        uniform 0;
        value           nonuniform List<scalar> 
32
(
0.0440072
0.0452093
0.0456225
0.0457262
0.0457983
0.0458701
0.0459326
0.0459655
0.0459356
0.0458165
0.0455973
0.0452943
0.0449467
0.0446149
0.0443665
0.0442465
0.0442539
0.0443483
0.044501
0.0446959
0.0449274
0.0451959
0.0455064
0.0458657
0.0462814
0.0467622
0.0473223
0.0479899
0.0488235
0.0499383
0.0515597
0.053837
)
;
    }
    fixedWalls
    {
        type            fixedFluxPressure;
        gradient        uniform 0;
        value           nonuniform List<scalar> 
64
(
0.0431956
0.0432045
0.0432228
0.0432488
0.0432763
0.0432926
0.0432801
0.0432212
0.0431057
0.0429338
0.0427146
0.0424591
0.0421747
0.0418608
0.0415127
0.0411356
0.0408077
0.0406993
0.0409568
0.0416466
0.0426546
0.0436932
0.0445125
0.0450273
0.0453156
0.0454784
0.0455766
0.04562
0.0455923
0.0454449
0.0449911
0.0440072
0.0428025
0.0428135
0.0428328
0.0428557
0.0428736
0.0428752
0.0428489
0.042787
0.0426889
0.0425614
0.0424163
0.0422717
0.0421589
0.0421272
0.0422371
0.0425988
0.043504
0.0454799
0.0460725
0.0460668
0.0460175
0.0460522
0.046184
0.046412
0.0467375
0.0471706
0.0477234
0.0484068
0.0492541
0.0504046
0.0520423
0.053837
)
;
    }
    floor
    {
        type            fixedFluxPressure;
        gradient        uniform 0;
        value           nonuniform List<scalar> 
32
(
0.0431956
0.0431921
0.0431879
0.0431849
0.0431839
0.0431841
0.0431853
0.043189
0.0431983
0.0432184
0.0432558
0.0433175
0.0434057
0.0435056
0.0435776
0.0435584
0.0434424
0.0433134
0.0431856
0.0430859
0.0430097
0.0429517
0.042907
0.0428724
0.0428458
0.0428255
0.0428106
0.0428006
0.0427953
0.0427949
0.0427984
0.0428025
)
;
    }
    frontAndBack
    {
        type            empty;
    }
}


// ************************************************************************* //
