/*--------------------------------*- C++ -*----------------------------------*\
| =========                 |                                                 |
| \\      /  F ield         | OpenFOAM: The Open Source CFD Toolbox           |
|  \\    /   O peration     | Version:  2212                                  |
|   \\  /    A nd           | Website:  www.openfoam.com                      |
|    \\/     M anipulation  |                                                 |
\*---------------------------------------------------------------------------*/
FoamFile
{
    version     2.0;
    format      ascii;
    arch        "LSB;label=64;scalar=64";
    class       volScalarField;
    location    "600";
    object      Sco2;
}
// * * * * * * * * * * * * * * * * * * * * * * * * * * * * * * * * * * * * * //

dimensions      [1 -3 0 0 0 0 0];

internalField   nonuniform List<scalar> 
1024
(
0.00544489
0.00544598
0.00544857
0.0054532
0.0054604
0.00547052
0.00548355
0.00549908
0.00551636
0.00553457
0.00555313
0.00557157
0.00558909
0.00560386
0.00561202
0.00560708
0.00558373
0.00555218
0.00552087
0.00549202
0.00546612
0.005443
0.00542228
0.00540359
0.00538683
0.00537216
0.00535994
0.00535042
0.00534358
0.00533915
0.00533667
0.00533565
0.00544522
0.00544632
0.00544898
0.00545376
0.00546118
0.00547157
0.00548489
0.00550068
0.00551817
0.00553656
0.0055553
0.00557396
0.00559178
0.00560687
0.00561525
0.00561025
0.00558643
0.00555446
0.00552284
0.00549377
0.0054677
0.00544447
0.00542365
0.00540487
0.00538799
0.00537317
0.00536075
0.00535102
0.005344
0.00533944
0.00533689
0.00533583
0.00544593
0.00544708
0.00544991
0.00545499
0.00546286
0.0054738
0.0054877
0.005504
0.00552191
0.00554069
0.0055599
0.00557921
0.0055979
0.00561398
0.00562313
0.00561802
0.00559289
0.00555965
0.00552715
0.00549747
0.00547098
0.00544744
0.00542639
0.0054074
0.00539027
0.00537513
0.00536233
0.00535221
0.00534485
0.00534004
0.00533735
0.00533624
0.00544709
0.00544834
0.00545141
0.00545694
0.00546546
0.0054772
0.00549192
0.00550896
0.00552751
0.00554699
0.00556712
0.00558778
0.00560831
0.00562657
0.00563745
0.00563219
0.00560444
0.00556855
0.00553423
0.00550331
0.00547598
0.00545183
0.00543032
0.00541095
0.00539343
0.00537784
0.00536453
0.00535389
0.00534608
0.00534095
0.00533807
0.0053369
0.00544873
0.0054501
0.00545347
0.00545955
0.00546887
0.00548157
0.00549727
0.00551525
0.00553472
0.00555532
0.00557707
0.00560013
0.00562399
0.00564617
0.00566017
0.00565473
0.00562256
0.00558211
0.00554459
0.0055115
0.00548266
0.00545746
0.00543517
0.00541518
0.0053971
0.00538095
0.00536705
0.00535584
0.00534755
0.00534208
0.00533902
0.00533777
0.00545079
0.00545227
0.00545595
0.00546261
0.00547276
0.00548647
0.00550326
0.00552235
0.00554309
0.0055654
0.00558973
0.00561663
0.00564579
0.00567419
0.00569309
0.00568734
0.00564858
0.00560123
0.00555877
0.00552224
0.005491
0.00546408
0.00544054
0.00541962
0.0054008
0.005384
0.00536951
0.00535777
0.00534906
0.00534331
0.00534008
0.00533877
0.00545311
0.00545468
0.00545863
0.00546579
0.00547669
0.00549135
0.00550923
0.00552959
0.005552
0.00557675
0.00560482
0.0056373
0.00567414
0.00571152
0.00573734
0.00573092
0.00568327
0.00562653
0.00557715
0.00553568
0.0055009
0.00547143
0.00544604
0.00542378
0.005404
0.0053865
0.00537148
0.00535935
0.00535035
0.00534442
0.00534111
0.00533976
0.00545547
0.0054571
0.00546122
0.00546871
0.00548016
0.00549559
0.00551449
0.00553625
0.00556071
0.00558866
0.00562171
0.00566165
0.00570884
0.00575831
0.00579308
0.00578521
0.00572643
0.00565797
0.00559971
0.00555172
0.00551217
0.00547919
0.00545126
0.00542722
0.00540626
0.00538804
0.00537262
0.00536028
0.00535121
0.00534525
0.00534192
0.00534057
0.00545761
0.00545926
0.00546343
0.00547105
0.00548276
0.00549867
0.0055184
0.00554156
0.00556834
0.0056001
0.00563926
0.00568861
0.00574909
0.00581414
0.00585974
0.00584904
0.00577687
0.00569459
0.00562569
0.00556971
0.00552421
0.00548684
0.00545574
0.00542954
0.00540725
0.00538835
0.0053727
0.00536039
0.00535144
0.00534561
0.00534235
0.00534102
0.00545927
0.00546091
0.00546503
0.00547255
0.00548419
0.0055002
0.00552045
0.00554481
0.00557393
0.00560988
0.00565614
0.00571694
0.00579424
0.00587906
0.00593714
0.0059214
0.0058331
0.00573481
0.00565357
0.00558828
0.00553584
0.00549341
0.00545875
0.00543024
0.00540666
0.00538723
0.00537159
0.00535955
0.00535093
0.00534534
0.00534222
0.00534093
0.00546017
0.00546178
0.00546576
0.00547299
0.00548425
0.00549996
0.00552025
0.0055454
0.0055766
0.00561689
0.00567127
0.00574621
0.00584515
0.00595514
0.00602708
0.00600314
0.00589495
0.00577781
0.00568198
0.00560576
0.00554537
0.00549738
0.00545908
0.00542846
0.00540394
0.00538439
0.0053691
0.00535761
0.0053495
0.00534427
0.00534132
0.00534007
0.00546001
0.00546159
0.00546539
0.0054722
0.0054828
0.00549778
0.00551757
0.00554294
0.00557584
0.00562066
0.00568475
0.00577792
0.00590556
0.00604773
0.0061346
0.00609893
0.00596684
0.00582716
0.00571291
0.00562245
0.00555185
0.00549721
0.00545512
0.00542285
0.00539811
0.00537915
0.00536479
0.00535422
0.00534685
0.00534207
0.00533932
0.00533812
0.00545841
0.00545994
0.00546353
0.00546983
0.00547957
0.00549346
0.00551227
0.00553734
0.00557171
0.00562179
0.00569844
0.00581625
0.00598248
0.00616532
0.00626865
0.00621988
0.00606332
0.00589872
0.00575986
0.00564744
0.00555997
0.00549424
0.00544624
0.00541198
0.00538765
0.00537022
0.00535762
0.00534856
0.00534224
0.00533805
0.00533556
0.00533445
0.00545508
0.00545662
0.00546004
0.00546583
0.0054746
0.00548712
0.00550452
0.00552894
0.00556493
0.00562189
0.00571568
0.00586722
0.00608465
0.00631827
0.00644325
0.0063887
0.00621858
0.00603414
0.00586492
0.00571707
0.0055962
0.00550425
0.00543955
0.00539766
0.00537209
0.00535653
0.0053465
0.0053395
0.00533452
0.00533118
0.00532925
0.00532843
0.00544855
0.00545008
0.00545336
0.00545866
0.00546646
0.00547756
0.00549346
0.00551728
0.00555563
0.00562186
0.00573856
0.00593463
0.00621781
0.00651604
0.00667955
0.00664768
0.00650015
0.0063216
0.0061298
0.00593779
0.00576092
0.00561179
0.00549768
0.00541967
0.00537149
0.00534438
0.00533088
0.00532558
0.00532517
0.00532736
0.0053302
0.00533207
0.00543921
0.00544075
0.00544387
0.00544864
0.00545535
0.00546478
0.00547874
0.00550134
0.00554133
0.00561692
0.00575935
0.00600824
0.00637188
0.00675736
0.00699991
0.00705484
0.00700764
0.0069078
0.00675668
0.00657035
0.00636708
0.00616555
0.00598135
0.00582532
0.00570318
0.00561568
0.00556158
0.00553425
0.0055267
0.0055305
0.00553766
0.00554254
0.00542454
0.00542633
0.00542985
0.00543493
0.00544147
0.00544982
0.0054615
0.00548067
0.00551747
0.00559372
0.00575005
0.00603996
0.00647915
0.00696883
0.00734099
0.00755768
0.00769339
0.00777201
0.00778746
0.00775276
0.00767595
0.00756638
0.0074338
0.00728798
0.00713883
0.00699566
0.00686696
0.00675923
0.00667798
0.00662448
0.00659536
0.00658418
0.00540422
0.00540565
0.00540872
0.00541353
0.00542
0.00542808
0.00543842
0.00545392
0.00548275
0.00554468
0.00568037
0.00595293
0.00640122
0.00694512
0.00742764
0.00777772
0.00803327
0.00821755
0.00834936
0.00845204
0.00853168
0.00858678
0.00861331
0.00860776
0.0085688
0.00849893
0.00840452
0.00829746
0.00819252
0.00810507
0.00804625
0.008019
0.00540304
0.00540211
0.0054009
0.00540049
0.00540198
0.00540606
0.00541316
0.0054247
0.00544578
0.0054903
0.00558867
0.00579248
0.0061515
0.00664739
0.00717655
0.00761466
0.00792384
0.00811538
0.00823856
0.00834032
0.0084415
0.00854593
0.00864824
0.00873965
0.0088113
0.00885667
0.00887293
0.00886198
0.00883122
0.00879274
0.00875988
0.00874205
0.00545155
0.00544682
0.00543784
0.00542638
0.00541521
0.00540709
0.00540392
0.00540703
0.00541929
0.00544953
0.00551891
0.00566657
0.0059374
0.00633851
0.00682138
0.00729151
0.00765466
0.00787764
0.00801083
0.00811291
0.00821597
0.00833189
0.00845854
0.00858632
0.00870339
0.00879994
0.00887056
0.00891445
0.00893491
0.00893855
0.00893395
0.00892918
0.00555717
0.0055491
0.00553226
0.00550793
0.00547968
0.00545248
0.00543094
0.00541829
0.00541711
0.00543324
0.0054811
0.00558961
0.00579652
0.00612
0.00653928
0.00699057
0.00737489
0.00763469
0.00780099
0.00792654
0.00804625
0.00817828
0.00832628
0.00848296
0.00863444
0.00876607
0.00886788
0.00893683
0.00897624
0.00899352
0.00899763
0.00899684
0.00570521
0.00569509
0.00567246
0.00563703
0.00559189
0.00554343
0.00549916
0.00546531
0.00544604
0.00544631
0.0054765
0.0055581
0.00572237
0.00599146
0.0063585
0.0067793
0.00716458
0.00744837
0.00764555
0.00779807
0.00793667
0.00808054
0.00823797
0.00840725
0.0085779
0.00873467
0.00886342
0.00895618
0.00901307
0.00904086
0.00904983
0.00905042
0.00587982
0.00586837
0.0058413
0.00579647
0.00573595
0.00566684
0.00559927
0.00554278
0.00550388
0.00548806
0.00550381
0.00556807
0.0057076
0.00594591
0.00628166
0.00667811
0.00705546
0.00735012
0.00756751
0.00774041
0.00789403
0.00804586
0.00820594
0.00837668
0.00855214
0.00871995
0.00886513
0.00897579
0.00904785
0.00908565
0.00909936
0.00910109
0.00607539
0.0060624
0.00603068
0.00597668
0.00590162
0.00581308
0.00572353
0.00564576
0.00558906
0.00556013
0.00556706
0.00562457
0.00575682
0.00598651
0.00631106
0.00669295
0.00705868
0.00735211
0.00757606
0.00775745
0.00791684
0.00806944
0.00822545
0.00838945
0.00855906
0.00872573
0.00887637
0.00899757
0.0090812
0.00912792
0.00914636
0.00914935
0.00629434
0.00627917
0.00624236
0.00617998
0.00609298
0.00598887
0.00588131
0.00578609
0.00571622
0.00568045
0.00568718
0.00574999
0.0058904
0.00612685
0.00645074
0.00682107
0.00716987
0.00745059
0.00766768
0.00784489
0.0079995
0.00814445
0.00828922
0.00843939
0.00859531
0.00875187
0.00889861
0.00902264
0.00911331
0.00916725
0.00919023
0.00919463
0.00654149
0.00652386
0.00648347
0.00641766
0.00632733
0.00621833
0.00610282
0.00599825
0.00592288
0.00588846
0.00590344
0.00597983
0.00613494
0.00637995
0.00669931
0.0070507
0.00737327
0.00763042
0.00782935
0.00799182
0.00813265
0.00826275
0.00839043
0.00852134
0.00865761
0.00879709
0.00893241
0.0090522
0.00914479
0.00920353
0.00923056
0.00923651
0.0068214
0.00680198
0.00676312
0.00670483
0.00662684
0.00653091
0.00642468
0.00632422
0.00625313
0.00622667
0.00625268
0.00634099
0.00650361
0.00674429
0.00704341
0.00736141
0.00764645
0.00787073
0.00804327
0.00818368
0.00830458
0.00841499
0.00852184
0.00863024
0.00874313
0.00886058
0.00897833
0.00908748
0.00917667
0.00923704
0.00926713
0.00927471
0.00713951
0.00712035
0.00709177
0.00705556
0.00700741
0.00694299
0.00686421
0.00678323
0.0067253
0.00670842
0.00674046
0.00682932
0.00698234
0.00719832
0.0074578
0.0077273
0.00796482
0.0081496
0.00829076
0.00840499
0.00850267
0.00859099
0.00867545
0.00876025
0.00884838
0.00894117
0.00903696
0.00912991
0.00921032
0.00926849
0.00929999
0.00930905
0.00750507
0.0074901
0.00748218
0.00747946
0.00747061
0.00744612
0.00740397
0.00735201
0.00731185
0.00730186
0.00733132
0.00740686
0.00753283
0.00770629
0.0079111
0.00812138
0.00830503
0.00844681
0.0085544
0.00864094
0.00871444
0.0087803
0.00884262
0.00890454
0.00896858
0.00903643
0.00910813
0.00918075
0.00924736
0.00929902
0.00932947
0.00933948
0.00793399
0.00792991
0.00794955
0.00797871
0.00800171
0.00800929
0.0079986
0.00797398
0.00795074
0.00794461
0.00796538
0.00801873
0.00810755
0.00822925
0.00837246
0.00851917
0.00864689
0.00874506
0.00881917
0.00887845
0.00892848
0.00897296
0.00901465
0.00905566
0.00909778
0.00914244
0.00919033
0.00924058
0.00928935
0.00933004
0.00935625
0.00936607
0.00845016
0.00846414
0.00850199
0.00854079
0.00857186
0.00859073
0.0085955
0.00858815
0.00857747
0.00857384
0.00858476
0.00861443
0.00866476
0.00873427
0.00881644
0.00890085
0.00897434
0.00903071
0.0090731
0.00910688
0.00913523
0.00916029
0.00918359
0.00920631
0.00922947
0.00925394
0.00928033
0.00930864
0.00933739
0.00936312
0.00938135
0.00938916
0.00907928
0.00908952
0.0091089
0.00912651
0.0091405
0.00914978
0.00915373
0.00915285
0.00914996
0.00914867
0.00915182
0.00916099
0.00917688
0.00919902
0.00922533
0.00925242
0.00927602
0.00929411
0.00930768
0.00931847
0.00932751
0.00933546
0.00934282
0.00934996
0.00935718
0.00936478
0.00937296
0.0093818
0.00939098
0.00939958
0.00940618
0.00940939
)
;

boundaryField
{
    movingWall
    {
        type            fixedValue;
        value           uniform 0.00942;
    }
    fixedWalls
    {
        type            zeroGradient;
    }
    floor
    {
        type            zeroGradient;
    }
    frontAndBack
    {
        type            empty;
    }
}


// ************************************************************************* //
