/*--------------------------------*- C++ -*----------------------------------*\
| =========                 |                                                 |
| \\      /  F ield         | OpenFOAM: The Open Source CFD Toolbox           |
|  \\    /   O peration     | Version:  2212                                  |
|   \\  /    A nd           | Website:  www.openfoam.com                      |
|    \\/     M anipulation  |                                                 |
\*---------------------------------------------------------------------------*/
FoamFile
{
    version     2.0;
    format      ascii;
    arch        "LSB;label=64;scalar=64";
    class       volScalarField;
    location    "600";
    object      SIC;
}
// * * * * * * * * * * * * * * * * * * * * * * * * * * * * * * * * * * * * * //

dimensions      [1 -3 0 0 0 0 0];

internalField   nonuniform List<scalar> 
1024
(
0.0911243
0.0911253
0.091128
0.0911326
0.0911399
0.09115
0.0911631
0.0911788
0.0911962
0.0912145
0.0912332
0.0912518
0.0912695
0.0912844
0.0912926
0.0912876
0.0912641
0.0912323
0.0912009
0.0911719
0.0911459
0.0911226
0.0911018
0.0910831
0.0910663
0.0910515
0.0910393
0.0910297
0.0910229
0.0910184
0.091016
0.0910149
0.0911246
0.0911257
0.0911284
0.0911332
0.0911406
0.0911511
0.0911645
0.0911804
0.091198
0.0912165
0.0912354
0.0912543
0.0912722
0.0912875
0.0912959
0.0912908
0.0912668
0.0912346
0.0912029
0.0911736
0.0911475
0.0911241
0.0911032
0.0910844
0.0910674
0.0910526
0.0910401
0.0910303
0.0910233
0.0910187
0.0910162
0.0910151
0.0911253
0.0911265
0.0911293
0.0911344
0.0911423
0.0911533
0.0911673
0.0911837
0.0912017
0.0912207
0.0912401
0.0912596
0.0912784
0.0912946
0.0913038
0.0912986
0.0912733
0.0912398
0.0912072
0.0911774
0.0911507
0.0911271
0.091106
0.0910869
0.0910697
0.0910545
0.0910417
0.0910315
0.0910242
0.0910193
0.0910166
0.0910155
0.0911265
0.0911277
0.0911308
0.0911364
0.0911449
0.0911567
0.0911715
0.0911887
0.0912074
0.091227
0.0912474
0.0912682
0.0912889
0.0913073
0.0913183
0.0913129
0.0912849
0.0912488
0.0912143
0.0911832
0.0911558
0.0911315
0.0911099
0.0910905
0.0910729
0.0910572
0.0910439
0.0910332
0.0910254
0.0910202
0.0910174
0.0910162
0.0911281
0.0911295
0.0911329
0.091139
0.0911484
0.0911611
0.0911769
0.091195
0.0912147
0.0912355
0.0912574
0.0912807
0.0913048
0.0913271
0.0913412
0.0913355
0.0913031
0.0912624
0.0912247
0.0911914
0.0911625
0.0911372
0.0911148
0.0910947
0.0910766
0.0910604
0.0910464
0.0910352
0.0910269
0.0910214
0.0910183
0.0910171
0.0911302
0.0911317
0.0911354
0.0911421
0.0911523
0.0911661
0.091183
0.0912022
0.0912231
0.0912457
0.0912702
0.0912974
0.0913269
0.0913555
0.0913743
0.0913683
0.0913292
0.0912816
0.0912389
0.0912022
0.0911708
0.0911438
0.0911202
0.0910992
0.0910803
0.0910634
0.0910489
0.0910371
0.0910284
0.0910226
0.0910194
0.0910181
0.0911325
0.0911341
0.0911381
0.0911453
0.0911562
0.091171
0.091189
0.0912095
0.0912321
0.0912572
0.0912856
0.0913184
0.0913556
0.0913932
0.0914189
0.0914121
0.091364
0.0913069
0.0912573
0.0912157
0.0911807
0.0911512
0.0911257
0.0911033
0.0910835
0.0910659
0.0910509
0.0910387
0.0910297
0.0910237
0.0910204
0.0910191
0.0911349
0.0911365
0.0911407
0.0911482
0.0911597
0.0911753
0.0911943
0.0912163
0.091241
0.0912693
0.0913027
0.0913431
0.0913908
0.0914406
0.0914751
0.0914666
0.0914072
0.0913384
0.0912799
0.0912317
0.091192
0.0911589
0.0911309
0.0911068
0.0910858
0.0910675
0.091052
0.0910396
0.0910305
0.0910246
0.0910212
0.0910199
0.091137
0.0911387
0.0911429
0.0911506
0.0911624
0.0911784
0.0911983
0.0912217
0.0912488
0.091281
0.0913207
0.0913706
0.0914317
0.0914971
0.0915423
0.0915307
0.0914578
0.091375
0.0913059
0.0912497
0.091204
0.0911666
0.0911354
0.0911091
0.0910867
0.0910678
0.0910521
0.0910397
0.0910308
0.0910249
0.0910217
0.0910203
0.0911387
0.0911404
0.0911445
0.0911521
0.0911638
0.09118
0.0912004
0.0912251
0.0912546
0.091291
0.091338
0.0913997
0.0914778
0.091563
0.0916204
0.0916034
0.0915141
0.0914153
0.0913337
0.0912682
0.0912156
0.0911731
0.0911383
0.0911098
0.0910861
0.0910666
0.091051
0.0910389
0.0910303
0.0910247
0.0910215
0.0910202
0.0911396
0.0911413
0.0911453
0.0911526
0.0911639
0.0911798
0.0912003
0.0912258
0.0912575
0.0912985
0.0913538
0.0914299
0.09153
0.0916403
0.0917111
0.0916854
0.091576
0.0914583
0.0913621
0.0912857
0.0912251
0.091177
0.0911386
0.0911079
0.0910834
0.0910638
0.0910485
0.0910369
0.0910288
0.0910236
0.0910206
0.0910194
0.0911395
0.0911411
0.0911449
0.0911518
0.0911625
0.0911777
0.0911977
0.0912235
0.091257
0.0913028
0.0913682
0.0914629
0.091592
0.0917343
0.0918194
0.0917816
0.0916482
0.0915079
0.0913932
0.0913024
0.0912316
0.0911768
0.0911346
0.0911022
0.0910775
0.0910585
0.0910441
0.0910335
0.0910261
0.0910214
0.0910186
0.0910174
0.0911379
0.0911395
0.0911431
0.0911495
0.0911593
0.0911734
0.0911926
0.0912182
0.0912533
0.0913046
0.091383
0.091503
0.091671
0.0918537
0.0919545
0.0919031
0.0917453
0.0915802
0.0914407
0.0913278
0.0912399
0.0911739
0.0911257
0.0910913
0.0910669
0.0910495
0.0910369
0.0910278
0.0910215
0.0910173
0.0910148
0.0910137
0.0911347
0.0911362
0.0911397
0.0911455
0.0911544
0.0911672
0.091185
0.0912101
0.0912471
0.0913057
0.0914019
0.0915563
0.0917758
0.0920087
0.0921304
0.0920732
0.0919023
0.0917175
0.0915475
0.0913988
0.0912771
0.0911844
0.0911192
0.0910771
0.0910513
0.0910357
0.0910257
0.0910187
0.0910137
0.0910104
0.0910085
0.0910076
0.0911282
0.0911298
0.0911331
0.0911385
0.0911464
0.0911578
0.0911742
0.0911989
0.0912386
0.091307
0.0914268
0.0916266
0.091912
0.0922088
0.0923686
0.0923346
0.0921872
0.0920087
0.0918163
0.0916232
0.0914451
0.0912947
0.0911795
0.0911005
0.0910516
0.091024
0.0910103
0.091005
0.0910047
0.0910069
0.0910099
0.0910118
0.0911189
0.0911205
0.0911236
0.0911285
0.0911354
0.0911451
0.0911597
0.0911833
0.0912249
0.0913033
0.0914498
0.0917031
0.0920691
0.0924525
0.0926914
0.0927453
0.0926993
0.0926004
0.0924496
0.0922632
0.0920595
0.0918571
0.0916719
0.0915146
0.0913913
0.0913026
0.0912475
0.0912194
0.0912114
0.0912149
0.0912219
0.0912267
0.0911045
0.0911063
0.0911098
0.091115
0.0911216
0.0911302
0.0911424
0.0911625
0.0912011
0.0912804
0.0914412
0.091736
0.0921773
0.0926645
0.0930332
0.0932489
0.0933854
0.0934649
0.0934813
0.0934477
0.093372
0.0932633
0.0931313
0.0929856
0.0928362
0.0926925
0.092563
0.0924543
0.092372
0.0923177
0.092288
0.0922766
0.0910842
0.0910857
0.0910888
0.0910938
0.0911004
0.0911087
0.0911194
0.0911356
0.0911657
0.0912299
0.0913691
0.0916455
0.0920951
0.0926362
0.0931148
0.0934626
0.0937168
0.0938999
0.0940312
0.0941341
0.0942144
0.0942706
0.0942984
0.0942942
0.0942564
0.0941876
0.0940939
0.0939873
0.0938826
0.0937953
0.0937364
0.0937092
0.0910816
0.0910808
0.0910799
0.0910799
0.0910818
0.0910863
0.0910939
0.091106
0.0911278
0.0911736
0.0912738
0.0914794
0.0918385
0.0923316
0.0928573
0.0932929
0.0936002
0.0937903
0.0939127
0.0940141
0.0941155
0.0942206
0.0943237
0.0944161
0.0944888
0.0945352
0.0945526
0.0945426
0.0945127
0.0944749
0.0944425
0.0944248
0.0911275
0.091123
0.0911143
0.0911034
0.091093
0.0910857
0.0910833
0.0910871
0.0911
0.0911309
0.0912009
0.0913486
0.0916181
0.0920159
0.0924956
0.0929639
0.0933263
0.0935491
0.0936826
0.0937852
0.093889
0.0940058
0.0941335
0.0942623
0.0943803
0.0944776
0.0945488
0.0945931
0.094614
0.0946179
0.0946135
0.0946089
0.0912307
0.0912228
0.0912062
0.0911823
0.0911548
0.0911285
0.091108
0.0910963
0.0910959
0.0911125
0.0911603
0.0912679
0.0914724
0.0917922
0.0922082
0.0926584
0.0930431
0.0933041
0.0934716
0.0935984
0.0937192
0.0938522
0.0940012
0.0941589
0.0943114
0.0944438
0.0945462
0.0946156
0.0946553
0.0946728
0.0946769
0.0946762
0.0913776
0.0913675
0.091345
0.0913097
0.0912651
0.0912173
0.091174
0.0911411
0.0911227
0.0911233
0.0911532
0.0912333
0.0913945
0.0916596
0.0920238
0.0924441
0.092831
0.0931168
0.0933159
0.09347
0.0936099
0.0937548
0.0939132
0.0940834
0.0942549
0.0944124
0.0945418
0.094635
0.0946922
0.0947201
0.0947292
0.0947298
0.0915523
0.0915408
0.0915137
0.0914688
0.0914084
0.0913396
0.0912727
0.0912169
0.0911786
0.091163
0.0911781
0.0912405
0.0913766
0.0916109
0.0919442
0.0923413
0.0927212
0.0930186
0.0932382
0.0934128
0.0935678
0.0937207
0.0938817
0.0940532
0.0942294
0.0943979
0.0945436
0.0946547
0.0947271
0.094765
0.0947788
0.0947806
0.0917486
0.0917356
0.0917037
0.0916495
0.0915742
0.0914855
0.0913961
0.0913186
0.0912621
0.091233
0.091239
0.0912942
0.0914228
0.0916487
0.0919716
0.0923553
0.0927246
0.0930212
0.0932475
0.0934306
0.0935913
0.0937449
0.0939017
0.0940664
0.0942366
0.0944039
0.094555
0.0946766
0.0947605
0.0948074
0.0948259
0.0948289
0.0919686
0.0919534
0.0919163
0.0918535
0.0917659
0.0916612
0.0915533
0.0914578
0.0913877
0.0913513
0.0913567
0.091417
0.0915537
0.0917868
0.0921101
0.0924834
0.0928364
0.0931206
0.0933401
0.0935189
0.0936747
0.0938205
0.0939659
0.0941167
0.0942732
0.0944302
0.0945774
0.0947018
0.0947927
0.0948468
0.0948698
0.0948743
0.0922168
0.0921991
0.0921584
0.092092
0.0920007
0.0918907
0.0917742
0.0916689
0.0915928
0.0915574
0.0915708
0.0916447
0.0917965
0.092039
0.0923587
0.0927138
0.0930409
0.0933016
0.0935028
0.0936667
0.0938085
0.0939394
0.0940676
0.094199
0.0943357
0.0944756
0.0946113
0.0947314
0.0948243
0.0948831
0.0949102
0.0949162
0.0924976
0.0924781
0.0924389
0.0923799
0.0923009
0.0922036
0.092096
0.0919943
0.0919222
0.0918946
0.091919
0.092005
0.092165
0.092404
0.0927042
0.0930261
0.0933155
0.0935431
0.0937177
0.0938594
0.0939812
0.0940922
0.0941995
0.0943083
0.0944215
0.0945393
0.0946574
0.0947668
0.0948562
0.0949167
0.0949469
0.0949545
0.0928165
0.0927973
0.0927684
0.0927315
0.0926824
0.0926166
0.0925363
0.0924539
0.0923947
0.0923767
0.0924073
0.0924944
0.0926455
0.0928605
0.0931213
0.0933943
0.0936356
0.0938233
0.0939662
0.0940815
0.0941799
0.0942687
0.0943535
0.0944387
0.0945271
0.0946201
0.0947161
0.0948093
0.0948899
0.0949482
0.0949798
0.0949889
0.0931827
0.0931677
0.0931596
0.0931564
0.0931468
0.0931211
0.0930776
0.0930243
0.092983
0.092972
0.0930003
0.0930745
0.0931992
0.0933721
0.0935781
0.0937912
0.0939779
0.0941219
0.0942309
0.0943183
0.0943923
0.0944586
0.0945212
0.0945833
0.0946475
0.0947156
0.0947875
0.0948603
0.094927
0.0949788
0.0950093
0.0950194
0.0936122
0.0936081
0.0936277
0.0936566
0.0936792
0.093686
0.0936743
0.0936486
0.0936245
0.0936175
0.0936375
0.09369
0.093778
0.0938994
0.0940434
0.094192
0.0943218
0.0944216
0.0944967
0.0945566
0.094607
0.0946518
0.0946936
0.0947348
0.094777
0.0948218
0.0948699
0.0949202
0.0949691
0.0950099
0.0950362
0.095046
0.094129
0.094143
0.0941809
0.0942196
0.0942505
0.0942689
0.0942732
0.0942652
0.0942539
0.0942498
0.0942602
0.0942894
0.0943393
0.0944086
0.0944912
0.0945767
0.0946514
0.0947087
0.0947517
0.0947858
0.0948144
0.0948396
0.094863
0.0948858
0.094909
0.0949336
0.09496
0.0949884
0.0950172
0.095043
0.0950613
0.0950691
0.0947589
0.0947691
0.0947885
0.0948061
0.0948201
0.0948292
0.094833
0.0948319
0.0948288
0.0948274
0.0948304
0.0948394
0.0948551
0.0948772
0.0949037
0.0949311
0.0949551
0.0949735
0.0949872
0.0949981
0.0950072
0.0950152
0.0950226
0.0950298
0.095037
0.0950447
0.0950529
0.0950617
0.0950709
0.0950795
0.0950862
0.0950894
)
;

boundaryField
{
    movingWall
    {
        type            fixedValue;
        value           uniform 0.0951;
    }
    fixedWalls
    {
        type            zeroGradient;
    }
    floor
    {
        type            zeroGradient;
    }
    frontAndBack
    {
        type            empty;
    }
}


// ************************************************************************* //
