/*--------------------------------*- C++ -*----------------------------------*\
| =========                 |                                                 |
| \\      /  F ield         | OpenFOAM: The Open Source CFD Toolbox           |
|  \\    /   O peration     | Version:  2212                                  |
|   \\  /    A nd           | Website:  www.openfoam.com                      |
|    \\/     M anipulation  |                                                 |
\*---------------------------------------------------------------------------*/
FoamFile
{
    version     2.0;
    format      ascii;
    arch        "LSB;label=64;scalar=64";
    class       volScalarField;
    location    "600";
    object      Xch;
}
// * * * * * * * * * * * * * * * * * * * * * * * * * * * * * * * * * * * * * //

dimensions      [1 -3 0 0 0 0 0];

internalField   nonuniform List<scalar> 
1024
(
0.0199115
0.0199117
0.0199121
0.0199128
0.019914
0.0199156
0.0199177
0.0199201
0.0199229
0.0199258
0.0199287
0.0199316
0.0199343
0.0199366
0.0199378
0.0199368
0.019933
0.0199278
0.0199227
0.019918
0.0199137
0.01991
0.0199066
0.0199035
0.0199007
0.0198983
0.0198963
0.0198947
0.0198936
0.0198928
0.0198924
0.0198923
0.0199116
0.0199117
0.0199122
0.0199129
0.0199141
0.0199158
0.0199179
0.0199204
0.0199232
0.0199261
0.019929
0.019932
0.0199347
0.0199371
0.0199383
0.0199373
0.0199334
0.0199282
0.019923
0.0199183
0.019914
0.0199102
0.0199068
0.0199037
0.0199009
0.0198985
0.0198964
0.0198948
0.0198936
0.0198929
0.0198925
0.0198923
0.0199117
0.0199119
0.0199123
0.0199131
0.0199144
0.0199161
0.0199183
0.0199209
0.0199238
0.0199267
0.0199298
0.0199328
0.0199357
0.0199382
0.0199395
0.0199385
0.0199344
0.019929
0.0199237
0.0199188
0.0199145
0.0199107
0.0199072
0.0199041
0.0199013
0.0198988
0.0198967
0.019895
0.0198938
0.019893
0.0198925
0.0198924
0.0199119
0.0199121
0.0199126
0.0199134
0.0199148
0.0199167
0.019919
0.0199217
0.0199247
0.0199277
0.0199309
0.0199342
0.0199374
0.0199402
0.0199418
0.0199408
0.0199362
0.0199304
0.0199248
0.0199198
0.0199153
0.0199113
0.0199078
0.0199047
0.0199018
0.0198992
0.019897
0.0198953
0.019894
0.0198931
0.0198927
0.0198925
0.0199121
0.0199123
0.0199129
0.0199138
0.0199153
0.0199174
0.0199199
0.0199227
0.0199258
0.0199291
0.0199325
0.0199361
0.0199399
0.0199433
0.0199454
0.0199443
0.019939
0.0199325
0.0199264
0.019921
0.0199163
0.0199122
0.0199086
0.0199053
0.0199024
0.0198997
0.0198974
0.0198956
0.0198942
0.0198933
0.0198928
0.0198926
0.0199125
0.0199127
0.0199133
0.0199143
0.019916
0.0199181
0.0199208
0.0199238
0.0199271
0.0199307
0.0199345
0.0199388
0.0199433
0.0199477
0.0199506
0.0199494
0.0199431
0.0199354
0.0199286
0.0199227
0.0199176
0.0199132
0.0199094
0.019906
0.0199029
0.0199002
0.0198978
0.0198959
0.0198944
0.0198935
0.019893
0.0198928
0.0199128
0.0199131
0.0199137
0.0199148
0.0199166
0.0199189
0.0199218
0.019925
0.0199286
0.0199325
0.019937
0.0199421
0.0199479
0.0199537
0.0199575
0.0199562
0.0199484
0.0199393
0.0199314
0.0199247
0.0199191
0.0199143
0.0199102
0.0199066
0.0199034
0.0199005
0.0198981
0.0198961
0.0198946
0.0198937
0.0198931
0.0198929
0.0199132
0.0199135
0.0199141
0.0199153
0.0199171
0.0199196
0.0199226
0.0199261
0.01993
0.0199344
0.0199397
0.019946
0.0199534
0.0199611
0.0199663
0.0199647
0.0199551
0.0199441
0.0199348
0.0199271
0.0199207
0.0199154
0.0199109
0.0199071
0.0199037
0.0199007
0.0198982
0.0198962
0.0198948
0.0198938
0.0198932
0.019893
0.0199135
0.0199138
0.0199145
0.0199157
0.0199176
0.0199201
0.0199233
0.019927
0.0199312
0.0199363
0.0199425
0.0199503
0.0199599
0.01997
0.0199768
0.0199746
0.0199629
0.0199497
0.0199387
0.0199297
0.0199225
0.0199165
0.0199115
0.0199073
0.0199038
0.0199007
0.0198982
0.0198962
0.0198948
0.0198938
0.0198933
0.0198931
0.0199138
0.0199141
0.0199147
0.0199159
0.0199178
0.0199204
0.0199236
0.0199275
0.0199322
0.0199379
0.0199453
0.0199549
0.0199671
0.0199803
0.0199889
0.0199858
0.0199714
0.0199557
0.0199428
0.0199324
0.019924
0.0199173
0.0199118
0.0199073
0.0199035
0.0199004
0.019898
0.019896
0.0198946
0.0198937
0.0198932
0.019893
0.019914
0.0199142
0.0199149
0.019916
0.0199178
0.0199203
0.0199236
0.0199276
0.0199326
0.0199391
0.0199478
0.0199597
0.0199753
0.0199923
0.020003
0.0199984
0.0199808
0.0199621
0.0199468
0.0199348
0.0199252
0.0199177
0.0199116
0.0199068
0.019903
0.0198999
0.0198975
0.0198956
0.0198944
0.0198935
0.019893
0.0198928
0.0199139
0.0199142
0.0199148
0.0199159
0.0199176
0.01992
0.0199232
0.0199273
0.0199326
0.0199398
0.01995
0.0199648
0.0199849
0.020007
0.0200197
0.0200131
0.0199916
0.0199693
0.0199512
0.019937
0.0199259
0.0199173
0.0199107
0.0199057
0.0199019
0.0198989
0.0198967
0.019895
0.0198939
0.0198931
0.0198926
0.0198925
0.0199137
0.0199139
0.0199145
0.0199155
0.0199171
0.0199193
0.0199224
0.0199264
0.019932
0.01994
0.0199523
0.0199711
0.0199973
0.0200255
0.0200406
0.0200317
0.0200063
0.0199801
0.0199582
0.0199405
0.0199268
0.0199165
0.0199091
0.0199038
0.0199
0.0198974
0.0198954
0.019894
0.019893
0.0198924
0.019892
0.0198918
0.0199132
0.0199134
0.019914
0.0199149
0.0199163
0.0199184
0.0199212
0.0199251
0.019931
0.0199402
0.0199552
0.0199794
0.0200136
0.0200496
0.0200678
0.0200579
0.0200303
0.020001
0.0199743
0.0199511
0.0199322
0.0199178
0.0199078
0.0199013
0.0198974
0.019895
0.0198935
0.0198924
0.0198917
0.0198911
0.0198908
0.0198907
0.0199122
0.0199124
0.0199129
0.0199138
0.0199151
0.0199169
0.0199195
0.0199233
0.0199296
0.0199403
0.0199591
0.0199904
0.0200349
0.0200809
0.0201048
0.0200984
0.0200744
0.020046
0.0200158
0.0199856
0.0199579
0.0199347
0.0199169
0.0199047
0.0198972
0.019893
0.0198909
0.0198901
0.01989
0.0198904
0.0198908
0.0198911
0.0199107
0.0199109
0.0199114
0.0199122
0.0199133
0.0199148
0.0199171
0.0199208
0.0199274
0.0199397
0.0199627
0.0200024
0.0200596
0.020119
0.0201553
0.0201624
0.0201542
0.020138
0.0201139
0.0200846
0.0200528
0.0200214
0.0199927
0.0199684
0.0199494
0.0199357
0.0199272
0.0199229
0.0199217
0.0199222
0.0199233
0.019924
0.0199083
0.0199086
0.0199092
0.01991
0.0199111
0.0199125
0.0199144
0.0199175
0.0199236
0.0199361
0.0199614
0.0200076
0.0200767
0.0201525
0.0202092
0.0202416
0.0202616
0.0202728
0.0202742
0.0202681
0.0202556
0.0202382
0.0202175
0.0201948
0.0201717
0.0201496
0.0201297
0.020113
0.0201004
0.0200921
0.0200875
0.0200858
0.019905
0.0199053
0.0199058
0.0199066
0.0199077
0.019909
0.0199107
0.0199132
0.019918
0.0199281
0.01995
0.0199935
0.0200642
0.0201488
0.020223
0.0202764
0.0203149
0.0203421
0.020361
0.0203753
0.0203862
0.0203934
0.0203966
0.0203951
0.0203888
0.020378
0.0203635
0.0203473
0.0203314
0.0203182
0.0203093
0.0203051
0.0199047
0.0199045
0.0199044
0.0199044
0.0199047
0.0199054
0.0199066
0.0199085
0.0199119
0.0199192
0.019935
0.0199674
0.0200241
0.0201016
0.0201839
0.0202515
0.0202989
0.0203275
0.0203453
0.0203593
0.020373
0.0203871
0.0204009
0.0204133
0.0204231
0.0204293
0.0204315
0.0204298
0.0204254
0.0204198
0.0204151
0.0204125
0.0199122
0.0199115
0.0199101
0.0199083
0.0199065
0.0199053
0.0199049
0.0199055
0.0199075
0.0199124
0.0199234
0.0199469
0.0199896
0.0200524
0.0201279
0.0202011
0.0202575
0.0202918
0.0203117
0.0203263
0.0203406
0.0203563
0.0203734
0.0203907
0.0204066
0.0204198
0.0204295
0.0204356
0.0204386
0.0204393
0.0204388
0.0204382
0.019929
0.0199277
0.019925
0.0199211
0.0199167
0.0199124
0.019909
0.019907
0.0199069
0.0199095
0.0199171
0.0199342
0.0199667
0.0200174
0.0200831
0.0201538
0.0202139
0.0202544
0.0202799
0.0202986
0.0203157
0.0203342
0.0203546
0.020376
0.0203967
0.0204146
0.0204284
0.0204379
0.0204434
0.0204459
0.0204466
0.0204466
0.0199525
0.0199509
0.0199473
0.0199417
0.0199345
0.0199268
0.0199198
0.0199144
0.0199113
0.0199114
0.0199161
0.0199289
0.0199546
0.0199967
0.0200542
0.0201202
0.0201806
0.020225
0.0202555
0.0202786
0.0202989
0.0203194
0.0203415
0.0203649
0.0203883
0.0204097
0.0204273
0.0204399
0.0204477
0.0204516
0.020453
0.0204531
0.01998
0.0199782
0.0199739
0.0199668
0.0199573
0.0199463
0.0199356
0.0199267
0.0199205
0.0199179
0.0199203
0.0199302
0.0199519
0.019989
0.0200415
0.0201035
0.0201627
0.0202087
0.0202423
0.0202686
0.0202914
0.0203134
0.0203361
0.02036
0.0203842
0.0204072
0.0204271
0.0204422
0.020452
0.0204572
0.0204592
0.0204595
0.0200102
0.0200082
0.0200033
0.0199948
0.0199831
0.0199693
0.0199552
0.0199429
0.0199339
0.0199292
0.0199301
0.0199388
0.0199591
0.0199946
0.020045
0.0201045
0.0201617
0.0202074
0.020242
0.0202696
0.0202933
0.0203156
0.020338
0.020361
0.0203846
0.0204076
0.0204282
0.0204448
0.0204561
0.0204625
0.0204651
0.0204656
0.0200435
0.0200411
0.0200355
0.0200259
0.0200124
0.0199962
0.0199795
0.0199646
0.0199536
0.0199477
0.0199485
0.0199578
0.0199791
0.0200152
0.0200651
0.0201226
0.0201768
0.0202204
0.0202538
0.0202808
0.0203039
0.0203252
0.020346
0.0203673
0.0203891
0.0204108
0.0204309
0.0204479
0.0204602
0.0204675
0.0204707
0.0204714
0.0200805
0.0200778
0.0200716
0.0200615
0.0200476
0.0200308
0.0200129
0.0199967
0.0199849
0.0199792
0.0199811
0.0199923
0.0200156
0.0200527
0.0201015
0.0201557
0.0202057
0.0202454
0.020276
0.0203007
0.0203218
0.0203409
0.0203594
0.0203781
0.0203973
0.0204166
0.0204353
0.0204516
0.0204642
0.0204722
0.0204759
0.0204767
0.0201219
0.020119
0.020113
0.0201041
0.0200921
0.0200773
0.0200609
0.0200453
0.0200342
0.0200298
0.0200333
0.0200462
0.0200704
0.0201066
0.020152
0.0202008
0.0202448
0.0202794
0.0203058
0.0203271
0.0203453
0.0203616
0.0203772
0.0203927
0.0204086
0.020425
0.0204413
0.0204562
0.0204683
0.0204765
0.0204805
0.0204816
0.0201686
0.0201658
0.0201614
0.0201557
0.0201482
0.0201381
0.0201259
0.0201133
0.0201042
0.0201013
0.0201057
0.0201186
0.0201413
0.0201736
0.0202129
0.0202541
0.0202906
0.020319
0.0203406
0.020358
0.0203726
0.0203857
0.0203981
0.0204103
0.0204228
0.0204357
0.020449
0.0204617
0.0204727
0.0204805
0.0204848
0.020486
0.0202221
0.0202198
0.0202185
0.0202178
0.0202161
0.0202121
0.0202054
0.0201972
0.0201908
0.020189
0.0201931
0.020204
0.0202226
0.0202485
0.0202794
0.0203114
0.0203396
0.0203613
0.0203778
0.020391
0.020402
0.0204118
0.0204209
0.0204299
0.020439
0.0204485
0.0204585
0.0204684
0.0204775
0.0204844
0.0204885
0.0204899
0.0202845
0.0202839
0.0202866
0.0202907
0.0202938
0.0202945
0.0202926
0.0202886
0.0202849
0.0202837
0.0202865
0.0202943
0.0203073
0.0203254
0.020347
0.0203693
0.0203888
0.0204039
0.0204152
0.0204242
0.0204318
0.0204384
0.0204445
0.0204505
0.0204565
0.0204628
0.0204694
0.0204763
0.020483
0.0204884
0.0204919
0.0204933
0.0203595
0.0203615
0.0203669
0.0203725
0.0203769
0.0203794
0.0203799
0.0203786
0.0203768
0.0203761
0.0203776
0.0203819
0.0203893
0.0203996
0.0204119
0.0204247
0.020436
0.0204446
0.0204511
0.0204562
0.0204605
0.0204643
0.0204677
0.020471
0.0204743
0.0204778
0.0204814
0.0204853
0.0204892
0.0204927
0.0204951
0.0204962
0.0204507
0.0204522
0.020455
0.0204575
0.0204595
0.0204608
0.0204613
0.0204611
0.0204606
0.0204603
0.0204608
0.0204621
0.0204644
0.0204677
0.0204716
0.0204757
0.0204794
0.0204821
0.0204842
0.0204858
0.0204872
0.0204884
0.0204895
0.0204905
0.0204916
0.0204926
0.0204938
0.020495
0.0204962
0.0204974
0.0204983
0.0204987
)
;

boundaryField
{
    movingWall
    {
        type            fixedValue;
        value           uniform 0.0205;
    }
    fixedWalls
    {
        type            zeroGradient;
    }
    floor
    {
        type            zeroGradient;
    }
    frontAndBack
    {
        type            empty;
    }
}


// ************************************************************************* //
