/*--------------------------------*- C++ -*----------------------------------*\
| =========                 |                                                 |
| \\      /  F ield         | OpenFOAM: The Open Source CFD Toolbox           |
|  \\    /   O peration     | Version:  2212                                  |
|   \\  /    A nd           | Website:  www.openfoam.com                      |
|    \\/     M anipulation  |                                                 |
\*---------------------------------------------------------------------------*/
FoamFile
{
    version     2.0;
    format      ascii;
    arch        "LSB;label=64;scalar=64";
    class       volScalarField;
    location    "600";
    object      Xli;
}
// * * * * * * * * * * * * * * * * * * * * * * * * * * * * * * * * * * * * * //

dimensions      [1 -3 0 0 0 0 0];

internalField   nonuniform List<scalar> 
1024
(
0.0423197
0.0423201
0.042321
0.0423226
0.0423251
0.0423286
0.0423331
0.0423385
0.0423444
0.0423507
0.0423571
0.0423634
0.0423693
0.0423742
0.0423768
0.0423748
0.0423664
0.0423552
0.042344
0.0423338
0.0423246
0.0423163
0.0423089
0.0423022
0.0422962
0.042291
0.0422866
0.0422832
0.0422807
0.0422791
0.0422782
0.0422778
0.0423198
0.0423202
0.0423211
0.0423228
0.0423254
0.042329
0.0423336
0.042339
0.0423451
0.0423514
0.0423578
0.0423642
0.0423702
0.0423753
0.0423779
0.0423759
0.0423673
0.0423559
0.0423447
0.0423344
0.0423251
0.0423168
0.0423094
0.0423027
0.0422966
0.0422913
0.0422869
0.0422834
0.0422808
0.0422792
0.0422783
0.0422779
0.0423201
0.0423205
0.0423215
0.0423232
0.0423259
0.0423297
0.0423345
0.0423402
0.0423464
0.0423528
0.0423594
0.042366
0.0423723
0.0423777
0.0423806
0.0423785
0.0423695
0.0423577
0.0423462
0.0423357
0.0423262
0.0423179
0.0423104
0.0423036
0.0422974
0.042292
0.0422874
0.0422838
0.0422811
0.0422794
0.0422784
0.042278
0.0423205
0.0423209
0.042322
0.0423239
0.0423268
0.0423309
0.042336
0.0423419
0.0423483
0.042355
0.0423619
0.042369
0.0423759
0.0423821
0.0423856
0.0423834
0.0423734
0.0423607
0.0423486
0.0423376
0.0423279
0.0423194
0.0423117
0.0423048
0.0422985
0.042293
0.0422882
0.0422844
0.0422816
0.0422797
0.0422787
0.0422783
0.042321
0.0423215
0.0423227
0.0423248
0.042328
0.0423324
0.0423379
0.0423441
0.0423508
0.0423579
0.0423654
0.0423733
0.0423814
0.0423888
0.0423934
0.0423911
0.0423796
0.0423653
0.0423521
0.0423404
0.0423302
0.0423213
0.0423133
0.0423062
0.0422998
0.042294
0.0422891
0.042285
0.0422821
0.0422801
0.042279
0.0422786
0.0423218
0.0423223
0.0423235
0.0423259
0.0423294
0.0423341
0.04234
0.0423466
0.0423537
0.0423614
0.0423698
0.042379
0.042389
0.0423985
0.0424047
0.0424022
0.0423884
0.0423717
0.0423568
0.042344
0.0423329
0.0423234
0.0423151
0.0423077
0.042301
0.0422951
0.0422899
0.0422857
0.0422826
0.0422805
0.0422794
0.0422789
0.0423226
0.0423231
0.0423245
0.042327
0.0423307
0.0423358
0.042342
0.0423491
0.0423568
0.0423654
0.0423751
0.0423862
0.0423988
0.0424114
0.0424199
0.042417
0.0424001
0.0423802
0.0423629
0.0423484
0.0423362
0.0423258
0.0423169
0.042309
0.042302
0.0422959
0.0422905
0.0422862
0.042283
0.0422809
0.0422797
0.0422792
0.0423234
0.0423239
0.0423254
0.042328
0.042332
0.0423373
0.0423439
0.0423514
0.0423599
0.0423696
0.042381
0.0423947
0.0424109
0.0424276
0.042439
0.0424355
0.0424146
0.0423906
0.0423703
0.0423536
0.0423398
0.0423282
0.0423185
0.04231
0.0423027
0.0422963
0.0422908
0.0422865
0.0422833
0.0422812
0.04228
0.0422795
0.0423241
0.0423247
0.0423262
0.0423288
0.0423329
0.0423384
0.0423453
0.0423533
0.0423626
0.0423736
0.0423872
0.0424042
0.0424249
0.0424469
0.0424618
0.042457
0.0424314
0.0424027
0.0423788
0.0423593
0.0423435
0.0423305
0.0423197
0.0423106
0.0423028
0.0422962
0.0422908
0.0422864
0.0422833
0.0422812
0.0422801
0.0422796
0.0423247
0.0423253
0.0423267
0.0423293
0.0423334
0.042339
0.042346
0.0423545
0.0423646
0.0423771
0.0423932
0.0424141
0.0424406
0.0424693
0.0424882
0.0424814
0.0424501
0.0424158
0.0423877
0.0423651
0.042347
0.0423323
0.0423204
0.0423105
0.0423024
0.0422956
0.0422902
0.042286
0.042283
0.0422811
0.0422799
0.0422795
0.042325
0.0423256
0.042327
0.0423295
0.0423334
0.0423389
0.042346
0.0423548
0.0423657
0.0423797
0.0423986
0.0424245
0.0424584
0.0424955
0.0425187
0.0425087
0.0424704
0.0424297
0.0423966
0.0423703
0.0423496
0.0423331
0.04232
0.0423095
0.0423011
0.0422944
0.0422892
0.0422852
0.0422824
0.0422806
0.0422795
0.0422791
0.042325
0.0423256
0.0423269
0.0423293
0.042333
0.0423382
0.0423451
0.042354
0.0423655
0.0423812
0.0424035
0.0424357
0.0424795
0.0425274
0.0425552
0.0425407
0.042494
0.0424455
0.0424062
0.0423751
0.042351
0.0423324
0.042318
0.0423071
0.0422987
0.0422923
0.0422874
0.0422838
0.0422813
0.0422796
0.0422787
0.0422783
0.0423245
0.042325
0.0423263
0.0423285
0.0423319
0.0423367
0.0423433
0.0423522
0.0423642
0.0423818
0.0424085
0.0424493
0.0425063
0.0425677
0.0426006
0.0425812
0.0425259
0.042469
0.0424212
0.0423828
0.0423529
0.0423306
0.0423144
0.0423029
0.0422947
0.0422889
0.0422847
0.0422816
0.0422795
0.042278
0.0422772
0.0422768
0.0423233
0.0423239
0.0423251
0.0423271
0.0423302
0.0423346
0.0423407
0.0423494
0.042362
0.0423821
0.0424149
0.0424674
0.0425419
0.0426202
0.0426598
0.0426381
0.0425782
0.0425145
0.0424564
0.0424058
0.0423647
0.0423335
0.0423116
0.0422976
0.042289
0.0422839
0.0422806
0.0422782
0.0422765
0.0422754
0.0422747
0.0422744
0.0423211
0.0423216
0.0423228
0.0423247
0.0423274
0.0423313
0.042337
0.0423454
0.042359
0.0423824
0.0424233
0.0424913
0.0425882
0.0426881
0.0427403
0.0427262
0.0426741
0.0426124
0.0425465
0.0424809
0.0424207
0.0423701
0.0423314
0.0423049
0.0422886
0.0422795
0.0422749
0.0422731
0.042273
0.0422737
0.0422747
0.0422753
0.0423179
0.0423184
0.0423195
0.0423212
0.0423236
0.0423269
0.0423319
0.04234
0.0423543
0.042381
0.0424311
0.0425175
0.0426418
0.0427711
0.04285
0.0428656
0.0428476
0.0428124
0.0427601
0.0426963
0.0426271
0.0425587
0.0424963
0.0424435
0.0424021
0.0423724
0.0423539
0.0423445
0.0423418
0.0423429
0.0423453
0.0423469
0.0423128
0.0423135
0.0423147
0.0423165
0.0423188
0.0423218
0.042326
0.0423328
0.042346
0.0423731
0.0424281
0.0425288
0.0426791
0.0428441
0.0429673
0.0430378
0.0430814
0.0431057
0.0431088
0.0430954
0.0430682
0.0430305
0.0429854
0.042936
0.0428858
0.0428376
0.0427943
0.042758
0.0427306
0.0427125
0.0427027
0.0426989
0.0423056
0.0423062
0.0423073
0.042309
0.0423113
0.0423142
0.0423179
0.0423235
0.0423338
0.0423558
0.0424035
0.0424981
0.0426518
0.0428359
0.0429974
0.0431136
0.0431974
0.0432564
0.0432975
0.0433287
0.0433523
0.0433682
0.043375
0.0433718
0.0433581
0.0433345
0.0433031
0.0432678
0.0432332
0.0432044
0.043185
0.0431761
0.0423048
0.0423045
0.0423042
0.0423041
0.0423048
0.0423063
0.042309
0.0423131
0.0423206
0.0423363
0.0423707
0.0424414
0.0425646
0.0427334
0.0429122
0.0430594
0.0431624
0.0432248
0.0432633
0.0432939
0.0433237
0.0433543
0.0433844
0.0434114
0.0434327
0.0434462
0.0434509
0.0434474
0.0434377
0.0434256
0.0434152
0.0434096
0.0423212
0.0423196
0.0423165
0.0423126
0.0423089
0.0423062
0.0423053
0.0423065
0.0423109
0.0423216
0.0423457
0.0423966
0.0424895
0.0426263
0.0427904
0.0429498
0.0430725
0.0431471
0.0431905
0.0432222
0.0432531
0.0432874
0.0433247
0.0433623
0.0433968
0.0434254
0.0434466
0.0434599
0.0434664
0.0434679
0.0434668
0.0434655
0.0423578
0.0423549
0.0423491
0.0423407
0.0423309
0.0423216
0.0423142
0.04231
0.0423097
0.0423153
0.0423318
0.042369
0.0424398
0.0425502
0.042693
0.0428467
0.0429775
0.0430656
0.0431212
0.0431618
0.0431991
0.0432392
0.0432836
0.0433302
0.0433752
0.0434141
0.0434443
0.0434649
0.0434768
0.0434822
0.0434838
0.0434837
0.042409
0.0424055
0.0423976
0.0423853
0.0423697
0.0423529
0.0423376
0.042326
0.0423193
0.0423194
0.0423297
0.0423574
0.0424134
0.0425051
0.0426302
0.0427737
0.0429051
0.0430017
0.0430681
0.0431183
0.0431625
0.0432072
0.0432551
0.043306
0.043357
0.0434036
0.0434418
0.0434693
0.0434863
0.0434948
0.0434977
0.0434981
0.0424687
0.0424648
0.0424555
0.0424401
0.0424193
0.0423955
0.0423722
0.0423527
0.0423392
0.0423336
0.0423387
0.0423603
0.0424075
0.0424883
0.0426024
0.0427375
0.0428661
0.0429663
0.0430395
0.0430967
0.0431463
0.0431941
0.0432435
0.0432954
0.0433481
0.0433982
0.0434413
0.0434741
0.0434956
0.0435069
0.0435112
0.0435119
0.0425345
0.0425301
0.0425193
0.042501
0.0424755
0.0424453
0.0424147
0.042388
0.0423684
0.0423582
0.0423601
0.0423791
0.0424233
0.0425005
0.0426101
0.0427396
0.0428639
0.0429634
0.0430386
0.0430987
0.0431504
0.0431989
0.0432475
0.0432977
0.043349
0.043399
0.0434439
0.0434798
0.0435046
0.0435185
0.0435241
0.0435252
0.0426068
0.0426017
0.0425894
0.0425685
0.0425392
0.0425041
0.0424676
0.0424352
0.0424112
0.0423985
0.0424001
0.0424204
0.0424667
0.0425454
0.0426539
0.0427789
0.0428969
0.0429917
0.0430644
0.043123
0.0431734
0.0432197
0.0432651
0.0433114
0.0433588
0.0434059
0.0434498
0.0434866
0.0435134
0.0435294
0.0435363
0.0435377
0.0426873
0.0426814
0.042668
0.042646
0.0426158
0.0425792
0.0425404
0.042505
0.0424793
0.042467
0.0424711
0.0424955
0.0425461
0.0426268
0.0427331
0.042851
0.0429596
0.0430461
0.0431126
0.0431663
0.0432122
0.043254
0.0432942
0.0433348
0.0433765
0.0434186
0.0434591
0.0434947
0.0435221
0.0435395
0.0435475
0.0435493
0.0427774
0.042771
0.0427581
0.0427387
0.0427125
0.0426803
0.0426447
0.0426109
0.0425867
0.042577
0.0425846
0.0426127
0.0426653
0.0427441
0.042843
0.0429492
0.0430448
0.04312
0.0431775
0.0432239
0.0432634
0.0432989
0.0433327
0.0433665
0.0434012
0.0434368
0.0434722
0.0435047
0.043531
0.0435488
0.0435577
0.04356
0.0428791
0.0428728
0.0428633
0.042851
0.0428346
0.0428127
0.0427861
0.0427588
0.042739
0.0427326
0.0427422
0.0427703
0.0428196
0.04289
0.0429754
0.043065
0.0431444
0.0432062
0.0432532
0.043291
0.0433229
0.0433514
0.0433782
0.0434048
0.043432
0.0434602
0.0434891
0.0435168
0.0435405
0.0435576
0.0435668
0.0435695
0.0429953
0.0429905
0.0429876
0.0429861
0.0429824
0.0429736
0.042959
0.0429413
0.0429274
0.0429234
0.0429323
0.0429561
0.0429966
0.0430529
0.0431201
0.0431897
0.043251
0.0432983
0.0433342
0.0433628
0.0433868
0.0434081
0.043428
0.0434474
0.0434673
0.043488
0.0435096
0.0435313
0.043551
0.0435661
0.043575
0.043578
0.0431312
0.0431298
0.0431358
0.0431447
0.0431514
0.043153
0.0431488
0.0431401
0.043132
0.0431294
0.0431356
0.0431524
0.0431808
0.0432202
0.0432671
0.0433156
0.0433581
0.0433909
0.0434156
0.0434352
0.0434516
0.043466
0.0434793
0.0434922
0.0435053
0.043519
0.0435335
0.0435485
0.0435629
0.0435748
0.0435825
0.0435853
0.0432943
0.0432987
0.0433105
0.0433226
0.0433321
0.0433377
0.0433387
0.0433359
0.043332
0.0433305
0.0433337
0.043343
0.0433591
0.0433815
0.0434084
0.0434363
0.0434607
0.0434795
0.0434936
0.0435048
0.0435141
0.0435222
0.0435297
0.0435369
0.0435441
0.0435516
0.0435596
0.0435681
0.0435766
0.0435841
0.0435894
0.0435917
0.0434927
0.0434959
0.043502
0.0435075
0.0435118
0.0435147
0.0435158
0.0435153
0.0435142
0.0435137
0.0435146
0.0435175
0.0435226
0.0435297
0.0435383
0.0435472
0.0435551
0.0435611
0.0435656
0.0435692
0.0435722
0.0435747
0.0435771
0.0435794
0.0435816
0.043584
0.0435864
0.0435891
0.0435918
0.0435943
0.0435962
0.0435972
)
;

boundaryField
{
    movingWall
    {
        type            fixedValue;
        value           uniform 0.0436;
    }
    fixedWalls
    {
        type            zeroGradient;
    }
    floor
    {
        type            zeroGradient;
    }
    frontAndBack
    {
        type            empty;
    }
}


// ************************************************************************* //
