/*--------------------------------*- C++ -*----------------------------------*\
| =========                 |                                                 |
| \\      /  F ield         | OpenFOAM: The Open Source CFD Toolbox           |
|  \\    /   O peration     | Version:  2212                                  |
|   \\  /    A nd           | Website:  www.openfoam.com                      |
|    \\/     M anipulation  |                                                 |
\*---------------------------------------------------------------------------*/
FoamFile
{
    version     2.0;
    format      ascii;
    arch        "LSB;label=64;scalar=64";
    class       volVectorField;
    location    "0.44";
    object      U;
}
// * * * * * * * * * * * * * * * * * * * * * * * * * * * * * * * * * * * * * //

dimensions      [0 1 -1 0 0 0 0];

internalField   nonuniform List<vector> 
32768
(
(-3.24294e-07 1.78281e-06 0)
(-9.45927e-06 7.34828e-06 0)
(-2.65455e-05 1.07607e-05 0)
(-4.59985e-05 1.17842e-05 0)
(-6.46031e-05 1.14664e-05 0)
(-8.12295e-05 1.07771e-05 0)
(-9.6041e-05 1.01915e-05 0)
(-0.000109608 9.81181e-06 0)
(-0.000122429 9.58164e-06 0)
(-0.000134808 9.42048e-06 0)
(-0.000146882 9.27216e-06 0)
(-0.000158693 9.10839e-06 0)
(-0.000170238 8.91878e-06 0)
(-0.000181494 8.70153e-06 0)
(-0.000192436 8.45796e-06 0)
(-0.000203036 8.19007e-06 0)
(-0.000213269 7.89971e-06 0)
(-0.00022311 7.58835e-06 0)
(-0.000232535 7.25713e-06 0)
(-0.00024152 6.90699e-06 0)
(-0.000250045 6.53872e-06 0)
(-0.000258085 6.15306e-06 0)
(-0.000265622 5.75064e-06 0)
(-0.000272633 5.33204e-06 0)
(-0.000279097 4.89773e-06 0)
(-0.000284996 4.44813e-06 0)
(-0.00029031 3.98372e-06 0)
(-0.000295018 3.50496e-06 0)
(-0.000299102 3.01239e-06 0)
(-0.000302544 2.50665e-06 0)
(-0.000305326 1.98857e-06 0)
(-0.00030743 1.45936e-06 0)
(-0.000308842 9.20965e-07 0)
(-0.000309549 3.76289e-07 0)
(-0.000309536 -1.72246e-07 0)
(-0.000308796 -7.2586e-07 0)
(-0.000307327 -1.28116e-06 0)
(-0.000305126 -1.83539e-06 0)
(-0.00030219 -2.38716e-06 0)
(-0.000298521 -2.93553e-06 0)
(-0.000294119 -3.47947e-06 0)
(-0.000288988 -4.01784e-06 0)
(-0.000283133 -4.54944e-06 0)
(-0.000276559 -5.07291e-06 0)
(-0.000269275 -5.58674e-06 0)
(-0.000261294 -6.08938e-06 0)
(-0.000252629 -6.57926e-06 0)
(-0.000243295 -7.05471e-06 0)
(-0.000233311 -7.51409e-06 0)
(-0.000222699 -7.95584e-06 0)
(-0.000211483 -8.37828e-06 0)
(-0.000199689 -8.77972e-06 0)
(-0.000187347 -9.15855e-06 0)
(-0.000174487 -9.51326e-06 0)
(-0.000161144 -9.84243e-06 0)
(-0.000147354 -1.01447e-05 0)
(-0.000133156 -1.0419e-05 0)
(-0.000118589 -1.06642e-05 0)
(-0.000103697 -1.08792e-05 0)
(-8.8522e-05 -1.10632e-05 0)
(-7.31102e-05 -1.12147e-05 0)
(-5.751e-05 -1.13319e-05 0)
(-4.1773e-05 -1.14119e-05 0)
(-2.59538e-05 -1.14515e-05 0)
(-1.01085e-05 -1.14492e-05 0)
(5.71822e-06 -1.14061e-05 0)
(2.14485e-05 -1.13269e-05 0)
(3.70517e-05 -1.12162e-05 0)
(5.24833e-05 -1.10755e-05 0)
(6.77e-05 -1.09053e-05 0)
(8.26607e-05 -1.0706e-05 0)
(9.73253e-05 -1.04779e-05 0)
(0.000111654 -1.02216e-05 0)
(0.000125609 -9.93785e-06 0)
(0.000139154 -9.62771e-06 0)
(0.000152252 -9.29242e-06 0)
(0.00016487 -8.93318e-06 0)
(0.000176978 -8.55123e-06 0)
(0.000188545 -8.14795e-06 0)
(0.000199544 -7.72493e-06 0)
(0.000209952 -7.28385e-06 0)
(0.000219744 -6.82629e-06 0)
(0.000228902 -6.35384e-06 0)
(0.000237407 -5.86806e-06 0)
(0.000245245 -5.37057e-06 0)
(0.000252402 -4.86296e-06 0)
(0.000258867 -4.34648e-06 0)
(0.00026463 -3.82211e-06 0)
(0.000269685 -3.2908e-06 0)
(0.000274024 -2.75347e-06 0)
(0.000277643 -2.2111e-06 0)
(0.000280538 -1.66455e-06 0)
(0.000282708 -1.11499e-06 0)
(0.000284154 -5.64603e-07 0)
(0.000284877 -1.75371e-08 0)
(0.000284883 5.2166e-07 0)
(0.000284183 1.05269e-06 0)
(0.000282796 1.57344e-06 0)
(0.000280739 2.08231e-06 0)
(0.000278029 2.57841e-06 0)
(0.000274683 3.06108e-06 0)
(0.000270723 3.52986e-06 0)
(0.000266165 3.98451e-06 0)
(0.00026103 4.42485e-06 0)
(0.000255335 4.85062e-06 0)
(0.000249101 5.26138e-06 0)
(0.000242347 5.65651e-06 0)
(0.000235093 6.03532e-06 0)
(0.000227359 6.39715e-06 0)
(0.000219167 6.7413e-06 0)
(0.000210538 7.06696e-06 0)
(0.000201495 7.37321e-06 0)
(0.00019206 7.65889e-06 0)
(0.000182257 7.92248e-06 0)
(0.000172113 8.16208e-06 0)
(0.000161654 8.37565e-06 0)
(0.000150905 8.5618e-06 0)
(0.000139888 8.72232e-06 0)
(0.000128607 8.8677e-06 0)
(0.000117018 9.02663e-06 0)
(0.000104981 9.25637e-06 0)
(9.21888e-05 9.63959e-06 0)
(7.81286e-05 1.02355e-05 0)
(6.22132e-05 1.09432e-05 0)
(4.42635e-05 1.12823e-05 0)
(2.54098e-05 1.02715e-05 0)
(8.88008e-06 6.88242e-06 0)
(2.07575e-07 1.48667e-06 0)
(-1.14272e-06 1.72516e-05 0)
(-1.68833e-05 4.87763e-05 0)
(-4.19629e-05 6.47706e-05 0)
(-6.86296e-05 6.64364e-05 0)
(-9.23556e-05 6.07368e-05 0)
(-0.000111935 5.36394e-05 0)
(-0.00012802 4.80069e-05 0)
(-0.000141755 4.43466e-05 0)
(-0.000154088 4.21506e-05 0)
(-0.000165612 4.07698e-05 0)
(-0.000176632 3.97394e-05 0)
(-0.000187282 3.88033e-05 0)
(-0.000197606 3.78443e-05 0)
(-0.000207612 3.68176e-05 0)
(-0.00021729 3.571e-05 0)
(-0.000226624 3.452e-05 0)
(-0.0002356 3.32495e-05 0)
(-0.000244198 3.19011e-05 0)
(-0.000252402 3.04771e-05 0)
(-0.000260194 2.89791e-05 0)
(-0.000267557 2.74089e-05 0)
(-0.000274475 2.57678e-05 0)
(-0.000280929 2.40572e-05 0)
(-0.000286903 2.22784e-05 0)
(-0.00029238 2.04323e-05 0)
(-0.000297344 1.85199e-05 0)
(-0.000301778 1.65421e-05 0)
(-0.000305667 1.45002e-05 0)
(-0.000308994 1.23951e-05 0)
(-0.000311746 1.02282e-05 0)
(-0.000313906 8.0016e-06 0)
(-0.000315459 5.71805e-06 0)
(-0.000316393 3.38215e-06 0)
(-0.000316692 1.0016e-06 0)
(-0.000316338 -1.41124e-06 0)
(-0.000315333 -3.84546e-06 0)
(-0.000313668 -6.29278e-06 0)
(-0.000311336 -8.74821e-06 0)
(-0.000308331 -1.1208e-05 0)
(-0.000304647 -1.36679e-05 0)
(-0.000300282 -1.61229e-05 0)
(-0.000295233 -1.85674e-05 0)
(-0.000289502 -2.09956e-05 0)
(-0.000283088 -2.34001e-05 0)
(-0.000275998 -2.57729e-05 0)
(-0.000268237 -2.81058e-05 0)
(-0.000259815 -3.03907e-05 0)
(-0.000250744 -3.26185e-05 0)
(-0.000241039 -3.47801e-05 0)
(-0.000230719 -3.68668e-05 0)
(-0.000219804 -3.88696e-05 0)
(-0.000208318 -4.07793e-05 0)
(-0.000196287 -4.2587e-05 0)
(-0.000183741 -4.42841e-05 0)
(-0.000170713 -4.58628e-05 0)
(-0.000157238 -4.73153e-05 0)
(-0.000143353 -4.86343e-05 0)
(-0.000129099 -4.98136e-05 0)
(-0.000114518 -5.0847e-05 0)
(-9.96536e-05 -5.17282e-05 0)
(-8.45531e-05 -5.24497e-05 0)
(-6.92647e-05 -5.30023e-05 0)
(-5.3839e-05 -5.33758e-05 0)
(-3.83276e-05 -5.35621e-05 0)
(-2.27817e-05 -5.35591e-05 0)
(-7.24875e-06 -5.33713e-05 0)
(8.22914e-06 -5.30128e-05 0)
(2.35879e-05 -5.25006e-05 0)
(3.87974e-05 -5.1844e-05 0)
(5.38145e-05 -5.10474e-05 0)
(6.85983e-05 -5.01133e-05 0)
(8.31096e-05 -4.90448e-05 0)
(9.73104e-05 -4.78447e-05 0)
(0.000111164 -4.65176e-05 0)
(0.000124635 -4.50689e-05 0)
(0.00013769 -4.35044e-05 0)
(0.000150297 -4.18308e-05 0)
(0.000162425 -4.00553e-05 0)
(0.000174048 -3.81854e-05 0)
(0.000185142 -3.62289e-05 0)
(0.000195683 -3.41938e-05 0)
(0.000205651 -3.20881e-05 0)
(0.000215027 -2.99201e-05 0)
(0.000223796 -2.76977e-05 0)
(0.000231945 -2.54284e-05 0)
(0.000239462 -2.31195e-05 0)
(0.000246338 -2.07778e-05 0)
(0.000252564 -1.8409e-05 0)
(0.000258137 -1.60184e-05 0)
(0.000263051 -1.36109e-05 0)
(0.000267306 -1.11918e-05 0)
(0.000270902 -8.76574e-06 0)
(0.00027384 -6.33843e-06 0)
(0.000276123 -3.91705e-06 0)
(0.000277756 -1.51194e-06 0)
(0.000278749 8.6355e-07 0)
(0.000279095 3.19424e-06 0)
(0.000278816 5.46687e-06 0)
(0.00027793 7.67665e-06 0)
(0.000276454 9.82282e-06 0)
(0.000274401 1.19052e-05 0)
(0.000271789 1.39237e-05 0)
(0.000268632 1.58789e-05 0)
(0.000264946 1.77705e-05 0)
(0.000260748 1.95983e-05 0)
(0.000256052 2.13615e-05 0)
(0.000250875 2.30592e-05 0)
(0.000245232 2.46901e-05 0)
(0.000239139 2.6253e-05 0)
(0.000232614 2.77466e-05 0)
(0.000225671 2.91688e-05 0)
(0.000218327 3.05179e-05 0)
(0.000210598 3.17913e-05 0)
(0.000202502 3.29863e-05 0)
(0.000194054 3.41005e-05 0)
(0.000185268 3.51352e-05 0)
(0.000176154 3.6103e-05 0)
(0.000166706 3.7049e-05 0)
(0.000156876 3.80916e-05 0)
(0.000146531 3.94907e-05 0)
(0.00013536 4.17197e-05 0)
(0.000122762 4.54439e-05 0)
(0.000107768 5.11927e-05 0)
(8.92055e-05 5.84705e-05 0)
(6.63909e-05 6.43845e-05 0)
(4.05215e-05 6.28898e-05 0)
(1.61472e-05 4.70574e-05 0)
(1.02402e-06 1.62064e-05 0)
(-1.04344e-06 3.40772e-05 0)
(-1.54536e-05 8.85302e-05 0)
(-3.71331e-05 0.000112362 0)
(-5.88077e-05 0.000110457 0)
(-7.642e-05 9.62257e-05 0)
(-8.92005e-05 8.05723e-05 0)
(-9.8107e-05 6.85359e-05 0)
(-0.000104472 6.08148e-05 0)
(-0.00010936 5.62725e-05 0)
(-0.000113438 5.35599e-05 0)
(-0.00011706 5.17155e-05 0)
(-0.000120395 5.01994e-05 0)
(-0.000123517 4.87543e-05 0)
(-0.000126456 4.72729e-05 0)
(-0.000129224 4.57158e-05 0)
(-0.000131825 4.40711e-05 0)
(-0.000134259 4.23363e-05 0)
(-0.000136528 4.05121e-05 0)
(-0.000138629 3.85999e-05 0)
(-0.000140562 3.66007e-05 0)
(-0.000142326 3.45157e-05 0)
(-0.000143918 3.23459e-05 0)
(-0.000145338 3.00927e-05 0)
(-0.000146582 2.77577e-05 0)
(-0.000147651 2.53419e-05 0)
(-0.00014854 2.28465e-05 0)
(-0.00014925 2.02734e-05 0)
(-0.000149778 1.76243e-05 0)
(-0.000150124 1.49012e-05 0)
(-0.000150287 1.21068e-05 0)
(-0.000150267 9.24422e-06 0)
(-0.000150066 6.31673e-06 0)
(-0.000149686 3.32833e-06 0)
(-0.000149124 2.85427e-07 0)
(-0.000148392 -2.80121e-06 0)
(-0.000147478 -5.92202e-06 0)
(-0.000146373 -9.07181e-06 0)
(-0.00014507 -1.22474e-05 0)
(-0.000143563 -1.54446e-05 0)
(-0.000141845 -1.86561e-05 0)
(-0.00013991 -2.18752e-05 0)
(-0.000137756 -2.50938e-05 0)
(-0.00013538 -2.83027e-05 0)
(-0.000132777 -3.14913e-05 0)
(-0.000129946 -3.46485e-05 0)
(-0.000126889 -3.77627e-05 0)
(-0.000123604 -4.0822e-05 0)
(-0.000120092 -4.38137e-05 0)
(-0.000116357 -4.6725e-05 0)
(-0.000112403 -4.95428e-05 0)
(-0.000108235 -5.2254e-05 0)
(-0.00010386 -5.48454e-05 0)
(-9.92839e-05 -5.73037e-05 0)
(-9.45179e-05 -5.96164e-05 0)
(-8.95723e-05 -6.17709e-05 0)
(-8.44587e-05 -6.37557e-05 0)
(-7.91903e-05 -6.55596e-05 0)
(-7.37831e-05 -6.71727e-05 0)
(-6.82533e-05 -6.85855e-05 0)
(-6.2618e-05 -6.97888e-05 0)
(-5.68946e-05 -7.07734e-05 0)
(-5.11001e-05 -7.15298e-05 0)
(-4.52506e-05 -7.20493e-05 0)
(-3.93596e-05 -7.23269e-05 0)
(-3.34385e-05 -7.23645e-05 0)
(-2.74971e-05 -7.21703e-05 0)
(-2.1545e-05 -7.17562e-05 0)
(-1.55936e-05 -7.11361e-05 0)
(-9.65486e-06 -7.03213e-05 0)
(-3.7428e-06 -6.93175e-05 0)
(2.12966e-06 -6.81282e-05 0)
(7.94687e-06 -6.6758e-05 0)
(1.3696e-05 -6.5212e-05 0)
(1.93652e-05 -6.34966e-05 0)
(2.49439e-05 -6.16195e-05 0)
(3.04206e-05 -5.95891e-05 0)
(3.57837e-05 -5.74147e-05 0)
(4.10233e-05 -5.51058e-05 0)
(4.61313e-05 -5.26727e-05 0)
(5.1099e-05 -5.01261e-05 0)
(5.59182e-05 -4.74768e-05 0)
(6.05803e-05 -4.47356e-05 0)
(6.50787e-05 -4.19132e-05 0)
(6.94081e-05 -3.90201e-05 0)
(7.35629e-05 -3.60666e-05 0)
(7.75374e-05 -3.30626e-05 0)
(8.13274e-05 -3.00174e-05 0)
(8.49293e-05 -2.69395e-05 0)
(8.83402e-05 -2.38371e-05 0)
(9.15569e-05 -2.07182e-05 0)
(9.45786e-05 -1.75909e-05 0)
(9.74064e-05 -1.44626e-05 0)
(0.000100042 -1.13441e-05 0)
(0.000102489 -8.24365e-06 0)
(0.000104751 -5.17037e-06 0)
(0.000106835 -2.13247e-06 0)
(0.000108753 8.56764e-07 0)
(0.000110487 3.78376e-06 0)
(0.000112031 6.64016e-06 0)
(0.000113388 9.42293e-06 0)
(0.000114557 1.21316e-05 0)
(0.000115537 1.47656e-05 0)
(0.000116331 1.73249e-05 0)
(0.000116938 1.98086e-05 0)
(0.000117359 2.2216e-05 0)
(0.000117597 2.45466e-05 0)
(0.00011765 2.67997e-05 0)
(0.000117521 2.8974e-05 0)
(0.000117211 3.10684e-05 0)
(0.000116719 3.30817e-05 0)
(0.000116047 3.50127e-05 0)
(0.000115194 3.68597e-05 0)
(0.000114161 3.86209e-05 0)
(0.000112948 4.0295e-05 0)
(0.000111553 4.18836e-05 0)
(0.000109971 4.3398e-05 0)
(0.000108192 4.48774e-05 0)
(0.000106184 4.64296e-05 0)
(0.000103875 4.83147e-05 0)
(0.000101093 5.10801e-05 0)
(9.74796e-05 5.57051e-05 0)
(9.23578e-05 6.35699e-05 0)
(8.46446e-05 7.58535e-05 0)
(7.29782e-05 9.18823e-05 0)
(5.63691e-05 0.000106565 0)
(3.55738e-05 0.000108857 0)
(1.46632e-05 8.53937e-05 0)
(9.17508e-07 3.21926e-05 0)
(-9.09967e-07 4.8576e-05 0)
(-1.39237e-05 0.000122592 0)
(-3.30598e-05 0.000151776 0)
(-5.13658e-05 0.000144692 0)
(-6.51218e-05 0.000121085 0)
(-7.38195e-05 9.65417e-05 0)
(-7.85739e-05 7.80385e-05 0)
(-8.07944e-05 6.63142e-05 0)
(-8.15763e-05 5.95323e-05 0)
(-8.15973e-05 5.56188e-05 0)
(-8.12194e-05 5.31102e-05 0)
(-8.06178e-05 5.11843e-05 0)
(-7.98734e-05 4.94452e-05 0)
(-7.9025e-05 4.77238e-05 0)
(-7.80933e-05 4.59555e-05 0)
(-7.70914e-05 4.41176e-05 0)
(-7.60295e-05 4.22031e-05 0)
(-7.49157e-05 4.02104e-05 0)
(-7.37582e-05 3.81394e-05 0)
(-7.25651e-05 3.59906e-05 0)
(-7.13438e-05 3.37646e-05 0)
(-7.01007e-05 3.1462e-05 0)
(-6.88405e-05 2.90841e-05 0)
(-6.75696e-05 2.66316e-05 0)
(-6.62955e-05 2.41053e-05 0)
(-6.50236e-05 2.15067e-05 0)
(-6.37594e-05 1.88379e-05 0)
(-6.25083e-05 1.6101e-05 0)
(-6.12753e-05 1.32989e-05 0)
(-6.00656e-05 1.04349e-05 0)
(-5.8885e-05 7.51225e-06 0)
(-5.77403e-05 4.53654e-06 0)
(-5.66368e-05 1.51157e-06 0)
(-5.55772e-05 -1.55819e-06 0)
(-5.45686e-05 -4.67091e-06 0)
(-5.36045e-05 -7.826e-06 0)
(-5.26852e-05 -1.10206e-05 0)
(-5.18129e-05 -1.42498e-05 0)
(-5.0983e-05 -1.75074e-05 0)
(-5.01925e-05 -2.07872e-05 0)
(-4.94431e-05 -2.40803e-05 0)
(-4.87335e-05 -2.73783e-05 0)
(-4.80604e-05 -3.06714e-05 0)
(-4.74212e-05 -3.39491e-05 0)
(-4.68135e-05 -3.72006e-05 0)
(-4.62351e-05 -4.04134e-05 0)
(-4.5683e-05 -4.35747e-05 0)
(-4.51538e-05 -4.66716e-05 0)
(-4.46447e-05 -4.96907e-05 0)
(-4.41534e-05 -5.26179e-05 0)
(-4.36768e-05 -5.54391e-05 0)
(-4.32123e-05 -5.81396e-05 0)
(-4.27576e-05 -6.07052e-05 0)
(-4.23106e-05 -6.31218e-05 0)
(-4.18697e-05 -6.53754e-05 0)
(-4.14338e-05 -6.74526e-05 0)
(-4.10019e-05 -6.93412e-05 0)
(-4.05734e-05 -7.10291e-05 0)
(-4.01484e-05 -7.2506e-05 0)
(-3.97267e-05 -7.37629e-05 0)
(-3.93074e-05 -7.47929e-05 0)
(-3.8888e-05 -7.55904e-05 0)
(-3.84631e-05 -7.61527e-05 0)
(-3.8024e-05 -7.64807e-05 0)
(-3.75587e-05 -7.65796e-05 0)
(-3.7055e-05 -7.64584e-05 0)
(-3.65016e-05 -7.61266e-05 0)
(-3.58892e-05 -7.55929e-05 0)
(-3.52112e-05 -7.48629e-05 0)
(-3.44627e-05 -7.39407e-05 0)
(-3.364e-05 -7.28293e-05 0)
(-3.27398e-05 -7.15327e-05 0)
(-3.17592e-05 -7.00561e-05 0)
(-3.06958e-05 -6.84057e-05 0)
(-2.95472e-05 -6.65893e-05 0)
(-2.83116e-05 -6.46154e-05 0)
(-2.6988e-05 -6.24932e-05 0)
(-2.55754e-05 -6.02317e-05 0)
(-2.40733e-05 -5.78411e-05 0)
(-2.24819e-05 -5.53317e-05 0)
(-2.0802e-05 -5.27141e-05 0)
(-1.90348e-05 -4.99986e-05 0)
(-1.71821e-05 -4.71952e-05 0)
(-1.52457e-05 -4.43141e-05 0)
(-1.32286e-05 -4.13655e-05 0)
(-1.11341e-05 -3.83587e-05 0)
(-8.96583e-06 -3.5303e-05 0)
(-6.7276e-06 -3.22073e-05 0)
(-4.42357e-06 -2.90803e-05 0)
(-2.05814e-06 -2.5931e-05 0)
(3.66895e-07 -2.27682e-05 0)
(2.84379e-06 -1.96022e-05 0)
(5.36871e-06 -1.64444e-05 0)
(7.94299e-06 -1.33063e-05 0)
(1.05643e-05 -1.01984e-05 0)
(1.32288e-05 -7.12922e-06 0)
(1.59302e-05 -4.10359e-06 0)
(1.86707e-05 -1.12505e-06 0)
(2.14471e-05 1.79986e-06 0)
(2.42473e-05 4.66499e-06 0)
(2.7063e-05 7.46822e-06 0)
(2.98883e-05 1.02068e-05 0)
(3.2717e-05 1.28788e-05 0)
(3.55418e-05 1.54842e-05 0)
(3.83571e-05 1.80223e-05 0)
(4.11565e-05 2.04928e-05 0)
(4.39312e-05 2.28952e-05 0)
(4.6674e-05 2.52283e-05 0)
(4.93786e-05 2.74916e-05 0)
(5.20376e-05 2.96839e-05 0)
(5.46431e-05 3.18049e-05 0)
(5.71866e-05 3.38533e-05 0)
(5.9659e-05 3.58282e-05 0)
(6.20513e-05 3.77301e-05 0)
(6.43537e-05 3.95647e-05 0)
(6.6553e-05 4.13536e-05 0)
(6.86289e-05 4.31616e-05 0)
(7.05428e-05 4.51584e-05 0)
(7.22134e-05 4.77438e-05 0)
(7.34642e-05 5.17516e-05 0)
(7.39296e-05 5.86708e-05 0)
(7.29231e-05 7.06211e-05 0)
(6.93326e-05 8.9501e-05 0)
(6.17223e-05 0.00011461 0)
(4.89482e-05 0.000138897 0)
(3.15073e-05 0.00014658 0)
(1.31326e-05 0.000117975 0)
(7.83606e-07 4.58101e-05 0)
(-9.32732e-07 6.22985e-05 0)
(-1.38472e-05 0.000154588 0)
(-3.2583e-05 0.000188014 0)
(-5.01421e-05 0.000174924 0)
(-6.28699e-05 0.000141457 0)
(-7.03634e-05 0.000107816 0)
(-7.38301e-05 8.28076e-05 0)
(-7.47386e-05 6.71207e-05 0)
(-7.42146e-05 5.81678e-05 0)
(-7.29488e-05 5.31303e-05 0)
(-7.13078e-05 5.00376e-05 0)
(-6.94688e-05 4.7786e-05 0)
(-6.75144e-05 4.58433e-05 0)
(-6.54841e-05 4.39805e-05 0)
(-6.34e-05 4.2108e-05 0)
(-6.12786e-05 4.01934e-05 0)
(-5.91324e-05 3.82257e-05 0)
(-5.69721e-05 3.6201e-05 0)
(-5.48084e-05 3.41181e-05 0)
(-5.26516e-05 3.19762e-05 0)
(-5.05113e-05 2.97752e-05 0)
(-4.83963e-05 2.75151e-05 0)
(-4.63153e-05 2.51967e-05 0)
(-4.42776e-05 2.28197e-05 0)
(-4.22917e-05 2.03841e-05 0)
(-4.03641e-05 1.78908e-05 0)
(-3.85024e-05 1.53415e-05 0)
(-3.67137e-05 1.27378e-05 0)
(-3.50044e-05 1.00823e-05 0)
(-3.33817e-05 7.37756e-06 0)
(-3.18479e-05 4.62651e-06 0)
(-3.0408e-05 1.83213e-06 0)
(-2.90681e-05 -1.00275e-06 0)
(-2.78322e-05 -3.87492e-06 0)
(-2.67009e-05 -6.78689e-06 0)
(-2.56759e-05 -9.73734e-06 0)
(-2.47607e-05 -1.27238e-05 0)
(-2.39589e-05 -1.57418e-05 0)
(-2.32732e-05 -1.87859e-05 0)
(-2.2701e-05 -2.18505e-05 0)
(-2.22431e-05 -2.49294e-05 0)
(-2.19026e-05 -2.80153e-05 0)
(-2.16779e-05 -3.10991e-05 0)
(-2.15669e-05 -3.41721e-05 0)
(-2.15664e-05 -3.72233e-05 0)
(-2.16736e-05 -4.0242e-05 0)
(-2.18857e-05 -4.32165e-05 0)
(-2.21987e-05 -4.61348e-05 0)
(-2.26083e-05 -4.89836e-05 0)
(-2.311e-05 -5.17495e-05 0)
(-2.36979e-05 -5.44188e-05 0)
(-2.43668e-05 -5.69772e-05 0)
(-2.51127e-05 -5.94108e-05 0)
(-2.59295e-05 -6.17055e-05 0)
(-2.68118e-05 -6.38473e-05 0)
(-2.77542e-05 -6.5823e-05 0)
(-2.87508e-05 -6.76198e-05 0)
(-2.97964e-05 -6.92254e-05 0)
(-3.0886e-05 -7.063e-05 0)
(-3.20136e-05 -7.18262e-05 0)
(-3.31719e-05 -7.28097e-05 0)
(-3.43519e-05 -7.35802e-05 0)
(-3.5542e-05 -7.41413e-05 0)
(-3.67271e-05 -7.45e-05 0)
(-3.78895e-05 -7.46651e-05 0)
(-3.90106e-05 -7.46454e-05 0)
(-4.00727e-05 -7.44475e-05 0)
(-4.10603e-05 -7.40752e-05 0)
(-4.19593e-05 -7.35294e-05 0)
(-4.2758e-05 -7.28105e-05 0)
(-4.34463e-05 -7.19194e-05 0)
(-4.40152e-05 -7.08584e-05 0)
(-4.44565e-05 -6.96314e-05 0)
(-4.47631e-05 -6.82436e-05 0)
(-4.49286e-05 -6.6701e-05 0)
(-4.49474e-05 -6.50105e-05 0)
(-4.48144e-05 -6.31796e-05 0)
(-4.45256e-05 -6.12162e-05 0)
(-4.40782e-05 -5.91285e-05 0)
(-4.34697e-05 -5.69252e-05 0)
(-4.26986e-05 -5.46149e-05 0)
(-4.17647e-05 -5.22063e-05 0)
(-4.06685e-05 -4.9708e-05 0)
(-3.94112e-05 -4.71285e-05 0)
(-3.79948e-05 -4.44762e-05 0)
(-3.64225e-05 -4.17592e-05 0)
(-3.46978e-05 -3.89853e-05 0)
(-3.28253e-05 -3.6162e-05 0)
(-3.08098e-05 -3.32969e-05 0)
(-2.86567e-05 -3.03983e-05 0)
(-2.63718e-05 -2.7475e-05 0)
(-2.39612e-05 -2.45387e-05 0)
(-2.14311e-05 -2.15984e-05 0)
(-1.87867e-05 -1.86671e-05 0)
(-1.60334e-05 -1.57559e-05 0)
(-1.31771e-05 -1.28755e-05 0)
(-1.02235e-05 -1.00317e-05 0)
(-7.17663e-06 -7.22732e-06 0)
(-4.04002e-06 -4.46466e-06 0)
(-8.16066e-07 -1.74569e-06 0)
(2.48498e-06 9.27803e-07 0)
(5.85047e-06 3.55388e-06 0)
(9.27637e-06 6.12948e-06 0)
(1.27551e-05 8.6561e-06 0)
(1.6277e-05 1.11332e-05 0)
(1.9834e-05 1.35599e-05 0)
(2.34147e-05 1.59368e-05 0)
(2.7009e-05 1.82636e-05 0)
(3.06084e-05 2.05402e-05 0)
(3.42021e-05 2.27661e-05 0)
(3.77797e-05 2.49407e-05 0)
(4.13303e-05 2.70637e-05 0)
(4.48422e-05 2.91354e-05 0)
(4.83034e-05 3.1158e-05 0)
(5.17026e-05 3.31411e-05 0)
(5.5024e-05 3.5116e-05 0)
(5.82449e-05 3.71715e-05 0)
(6.13257e-05 3.95375e-05 0)
(6.41842e-05 4.27516e-05 0)
(6.66427e-05 4.79322e-05 0)
(6.83317e-05 5.70825e-05 0)
(6.85534e-05 7.30799e-05 0)
(6.61669e-05 9.85909e-05 0)
(5.96795e-05 0.000132976 0)
(4.78586e-05 0.000167337 0)
(3.11013e-05 0.000181212 0)
(1.30809e-05 0.000148546 0)
(8.07533e-07 5.867e-05 0)
(-9.84368e-07 7.64303e-05 0)
(-1.44019e-05 0.000187294 0)
(-3.37531e-05 0.000224761 0)
(-5.17809e-05 0.00020523 0)
(-6.47296e-05 0.000161478 0)
(-7.22211e-05 0.000118443 0)
(-7.55357e-05 8.67663e-05 0)
(-7.62102e-05 6.70486e-05 0)
(-7.54166e-05 5.5911e-05 0)
(-7.38709e-05 4.97611e-05 0)
(-7.19521e-05 4.61057e-05 0)
(-6.98422e-05 4.35525e-05 0)
(-6.76255e-05 4.14307e-05 0)
(-6.53422e-05 3.94513e-05 0)
(-6.30144e-05 3.75003e-05 0)
(-6.06579e-05 3.55359e-05 0)
(-5.82856e-05 3.35433e-05 0)
(-5.59093e-05 3.1517e-05 0)
(-5.35407e-05 2.9454e-05 0)
(-5.11909e-05 2.7353e-05 0)
(-4.887e-05 2.5213e-05 0)
(-4.65857e-05 2.3033e-05 0)
(-4.43471e-05 2.0812e-05 0)
(-4.21654e-05 1.8549e-05 0)
(-4.00491e-05 1.62439e-05 0)
(-3.80039e-05 1.38966e-05 0)
(-3.60373e-05 1.15073e-05 0)
(-3.41565e-05 9.07661e-06 0)
(-3.2367e-05 6.60515e-06 0)
(-3.06744e-05 4.0943e-06 0)
(-2.90832e-05 1.54781e-06 0)
(-2.75977e-05 -1.03494e-06 0)
(-2.62176e-05 -3.65209e-06 0)
(-2.4947e-05 -6.30286e-06 0)
(-2.37905e-05 -8.98777e-06 0)
(-2.27478e-05 -1.17047e-05 0)
(-2.1823e-05 -1.44514e-05 0)
(-2.10199e-05 -1.72243e-05 0)
(-2.03382e-05 -2.00195e-05 0)
(-1.97785e-05 -2.28314e-05 0)
(-1.93445e-05 -2.56567e-05 0)
(-1.90337e-05 -2.84895e-05 0)
(-1.88447e-05 -3.13227e-05 0)
(-1.87755e-05 -3.41487e-05 0)
(-1.8823e-05 -3.69589e-05 0)
(-1.89862e-05 -3.97434e-05 0)
(-1.92611e-05 -4.24914e-05 0)
(-1.96419e-05 -4.51919e-05 0)
(-2.01233e-05 -4.78331e-05 0)
(-2.07015e-05 -5.04003e-05 0)
(-2.13705e-05 -5.28813e-05 0)
(-2.21246e-05 -5.52638e-05 0)
(-2.29588e-05 -5.75333e-05 0)
(-2.38668e-05 -5.9675e-05 0)
(-2.48435e-05 -6.16758e-05 0)
(-2.58835e-05 -6.35225e-05 0)
(-2.69793e-05 -6.52022e-05 0)
(-2.81253e-05 -6.67037e-05 0)
(-2.93169e-05 -6.80177e-05 0)
(-3.05473e-05 -6.91381e-05 0)
(-3.18086e-05 -7.00636e-05 0)
(-3.30919e-05 -7.07981e-05 0)
(-3.43858e-05 -7.13508e-05 0)
(-3.5676e-05 -7.1734e-05 0)
(-3.69457e-05 -7.19599e-05 0)
(-3.81769e-05 -7.20383e-05 0)
(-3.93519e-05 -7.19739e-05 0)
(-4.04541e-05 -7.1767e-05 0)
(-4.14684e-05 -7.14149e-05 0)
(-4.23819e-05 -7.09141e-05 0)
(-4.31838e-05 -7.02627e-05 0)
(-4.38649e-05 -6.94604e-05 0)
(-4.44162e-05 -6.85092e-05 0)
(-4.48299e-05 -6.74123e-05 0)
(-4.50993e-05 -6.6174e-05 0)
(-4.52183e-05 -6.47993e-05 0)
(-4.51821e-05 -6.32938e-05 0)
(-4.49865e-05 -6.16636e-05 0)
(-4.46283e-05 -5.99153e-05 0)
(-4.41048e-05 -5.80552e-05 0)
(-4.34144e-05 -5.60904e-05 0)
(-4.25564e-05 -5.40276e-05 0)
(-4.15307e-05 -5.18737e-05 0)
(-4.03383e-05 -4.96356e-05 0)
(-3.89811e-05 -4.73199e-05 0)
(-3.74614e-05 -4.49331e-05 0)
(-3.57825e-05 -4.24812e-05 0)
(-3.39484e-05 -3.99705e-05 0)
(-3.1964e-05 -3.74074e-05 0)
(-2.98343e-05 -3.47991e-05 0)
(-2.7565e-05 -3.21541e-05 0)
(-2.51615e-05 -2.94827e-05 0)
(-2.26293e-05 -2.67961e-05 0)
(-1.99738e-05 -2.41065e-05 0)
(-1.72003e-05 -2.14255e-05 0)
(-1.43139e-05 -1.87629e-05 0)
(-1.132e-05 -1.61258e-05 0)
(-8.22354e-06 -1.35183e-05 0)
(-5.02984e-06 -1.09428e-05 0)
(-1.7437e-06 -8.40019e-06 0)
(1.62897e-06 -5.89206e-06 0)
(5.07766e-06 -3.41574e-06 0)
(8.5958e-06 -9.70709e-07 0)
(1.21755e-05 1.44269e-06 0)
(1.5804e-05 3.82551e-06 0)
(1.94754e-05 6.1781e-06 0)
(2.31805e-05 8.50071e-06 0)
(2.6907e-05 1.0795e-05 0)
(3.06457e-05 1.306e-05 0)
(3.43853e-05 1.52959e-05 0)
(3.81145e-05 1.7503e-05 0)
(4.18222e-05 1.96814e-05 0)
(4.54958e-05 2.18319e-05 0)
(4.91229e-05 2.39588e-05 0)
(5.26918e-05 2.60753e-05 0)
(5.61867e-05 2.82213e-05 0)
(5.95851e-05 3.05096e-05 0)
(6.2847e-05 3.32303e-05 0)
(6.58893e-05 3.70604e-05 0)
(6.85296e-05 4.34095e-05 0)
(7.03865e-05 5.48096e-05 0)
(7.07372e-05 7.49238e-05 0)
(6.83971e-05 0.000107227 0)
(6.1809e-05 0.000151174 0)
(4.96721e-05 0.000196013 0)
(3.2364e-05 0.000216485 0)
(1.36675e-05 0.000179912 0)
(8.60291e-07 7.19689e-05 0)
(-1.04271e-06 9.12915e-05 0)
(-1.51785e-05 0.000221574 0)
(-3.55298e-05 0.000263185 0)
(-5.44721e-05 0.000236848 0)
(-6.80689e-05 0.00018231 0)
(-7.59327e-05 0.000129451 0)
(-7.94137e-05 9.08162e-05 0)
(-8.01288e-05 6.69053e-05 0)
(-7.93099e-05 5.35069e-05 0)
(-7.77099e-05 4.6217e-05 0)
(-7.5727e-05 4.19948e-05 0)
(-7.35526e-05 3.91457e-05 0)
(-7.12747e-05 3.6854e-05 0)
(-6.8935e-05 3.47687e-05 0)
(-6.65552e-05 3.27508e-05 0)
(-6.41507e-05 3.07485e-05 0)
(-6.17351e-05 2.87428e-05 0)
(-5.93203e-05 2.67257e-05 0)
(-5.69178e-05 2.46934e-05 0)
(-5.45379e-05 2.26434e-05 0)
(-5.21906e-05 2.05745e-05 0)
(-4.98858e-05 1.84846e-05 0)
(-4.76328e-05 1.63707e-05 0)
(-4.54403e-05 1.42315e-05 0)
(-4.33159e-05 1.20664e-05 0)
(-4.12668e-05 9.87407e-06 0)
(-3.93e-05 7.65272e-06 0)
(-3.74226e-05 5.40197e-06 0)
(-3.56403e-05 3.12119e-06 0)
(-3.39538e-05 8.10724e-07 0)
(-3.23685e-05 -1.5292e-06 0)
(-3.0891e-05 -3.8984e-06 0)
(-2.95204e-05 -6.2967e-06 0)
(-2.82604e-05 -8.72572e-06 0)
(-2.71123e-05 -1.11841e-05 0)
(-2.60746e-05 -1.36699e-05 0)
(-2.51509e-05 -1.6183e-05 0)
(-2.43429e-05 -1.8719e-05 0)
(-2.36498e-05 -2.12741e-05 0)
(-2.30715e-05 -2.38466e-05 0)
(-2.26091e-05 -2.64324e-05 0)
(-2.22601e-05 -2.90265e-05 0)
(-2.20227e-05 -3.16253e-05 0)
(-2.18947e-05 -3.42219e-05 0)
(-2.18717e-05 -3.681e-05 0)
(-2.19491e-05 -3.9381e-05 0)
(-2.21237e-05 -4.19235e-05 0)
(-2.23916e-05 -4.44279e-05 0)
(-2.27427e-05 -4.68826e-05 0)
(-2.31726e-05 -4.92751e-05 0)
(-2.36814e-05 -5.15924e-05 0)
(-2.42603e-05 -5.38221e-05 0)
(-2.49005e-05 -5.59492e-05 0)
(-2.55989e-05 -5.796e-05 0)
(-2.63521e-05 -5.98412e-05 0)
(-2.71541e-05 -6.15789e-05 0)
(-2.79997e-05 -6.31603e-05 0)
(-2.88849e-05 -6.45747e-05 0)
(-2.98055e-05 -6.58125e-05 0)
(-3.07565e-05 -6.68693e-05 0)
(-3.17317e-05 -6.77464e-05 0)
(-3.27236e-05 -6.84515e-05 0)
(-3.37227e-05 -6.89987e-05 0)
(-3.47169e-05 -6.94054e-05 0)
(-3.56913e-05 -6.96881e-05 0)
(-3.66299e-05 -6.98577e-05 0)
(-3.75166e-05 -6.9918e-05 0)
(-3.83362e-05 -6.98665e-05 0)
(-3.90744e-05 -6.96967e-05 0)
(-3.9719e-05 -6.94017e-05 0)
(-4.02601e-05 -6.89764e-05 0)
(-4.0689e-05 -6.84178e-05 0)
(-4.09984e-05 -6.77255e-05 0)
(-4.11817e-05 -6.69011e-05 0)
(-4.1233e-05 -6.59471e-05 0)
(-4.11476e-05 -6.48672e-05 0)
(-4.09212e-05 -6.36654e-05 0)
(-4.05502e-05 -6.23461e-05 0)
(-4.00315e-05 -6.09141e-05 0)
(-3.93627e-05 -5.93743e-05 0)
(-3.85422e-05 -5.77321e-05 0)
(-3.75694e-05 -5.59927e-05 0)
(-3.64442e-05 -5.41617e-05 0)
(-3.5167e-05 -5.22441e-05 0)
(-3.37388e-05 -5.02452e-05 0)
(-3.21615e-05 -4.81698e-05 0)
(-3.04374e-05 -4.60227e-05 0)
(-2.85699e-05 -4.3809e-05 0)
(-2.65626e-05 -4.1534e-05 0)
(-2.44196e-05 -3.92041e-05 0)
(-2.21451e-05 -3.68277e-05 0)
(-1.97431e-05 -3.44148e-05 0)
(-1.72176e-05 -3.19772e-05 0)
(-1.45725e-05 -2.95271e-05 0)
(-1.18119e-05 -2.7076e-05 0)
(-8.93995e-06 -2.46338e-05 0)
(-5.96104e-06 -2.22069e-05 0)
(-2.87986e-06 -1.97988e-05 0)
(2.98597e-07 -1.74106e-05 0)
(3.56687e-06 -1.5044e-05 0)
(6.91901e-06 -1.2697e-05 0)
(1.03465e-05 -1.03683e-05 0)
(1.38401e-05 -8.05437e-06 0)
(1.73947e-05 -5.75515e-06 0)
(2.10022e-05 -3.46828e-06 0)
(2.46513e-05 -1.19122e-06 0)
(2.83316e-05 1.0763e-06 0)
(3.20318e-05 3.33591e-06 0)
(3.57408e-05 5.58843e-06 0)
(3.94498e-05 7.83467e-06 0)
(4.31474e-05 1.00749e-05 0)
(4.68216e-05 1.23098e-05 0)
(5.0461e-05 1.45405e-05 0)
(5.40541e-05 1.67729e-05 0)
(5.75873e-05 1.90235e-05 0)
(6.10447e-05 2.13415e-05 0)
(6.44042e-05 2.38641e-05 0)
(6.76253e-05 2.69439e-05 0)
(7.0621e-05 3.14037e-05 0)
(7.32005e-05 3.89577e-05 0)
(7.49643e-05 5.26906e-05 0)
(7.51543e-05 7.70874e-05 0)
(7.25279e-05 0.000116469 0)
(6.5451e-05 0.0001704 0)
(5.25579e-05 0.000226195 0)
(3.42427e-05 0.000253591 0)
(1.44783e-05 0.000212954 0)
(9.19495e-07 8.60304e-05 0)
(-1.10569e-06 0.000107011 0)
(-1.60822e-05 0.000257801 0)
(-3.76363e-05 0.000303779 0)
(-5.7703e-05 0.000270262 0)
(-7.2121e-05 0.000204357 0)
(-8.04804e-05 0.000141148 0)
(-8.42064e-05 9.51836e-05 0)
(-8.50073e-05 6.68585e-05 0)
(-8.4187e-05 5.10859e-05 0)
(-8.25438e-05 4.2607e-05 0)
(-8.05013e-05 3.78024e-05 0)
(-7.82625e-05 3.46571e-05 0)
(-7.59197e-05 3.22017e-05 0)
(-7.35167e-05 3.0018e-05 0)
(-7.10781e-05 2.79404e-05 0)
(-6.86205e-05 2.59066e-05 0)
(-6.61574e-05 2.38938e-05 0)
(-6.37003e-05 2.18923e-05 0)
(-6.12601e-05 1.98977e-05 0)
(-5.88463e-05 1.79062e-05 0)
(-5.64699e-05 1.5915e-05 0)
(-5.4142e-05 1.39217e-05 0)
(-5.18703e-05 1.19232e-05 0)
(-4.96616e-05 9.91618e-06 0)
(-4.75249e-05 7.89811e-06 0)
(-4.54687e-05 5.86607e-06 0)
(-4.34989e-05 3.81826e-06 0)
(-4.16211e-05 1.75267e-06 0)
(-3.98396e-05 -3.33344e-07 0)
(-3.81585e-05 -2.44125e-06 0)
(-3.65824e-05 -4.57328e-06 0)
(-3.51139e-05 -6.73004e-06 0)
(-3.37551e-05 -8.9127e-06 0)
(-3.25072e-05 -1.11225e-05 0)
(-3.13677e-05 -1.3359e-05 0)
(-3.0339e-05 -1.5623e-05 0)
(-2.94205e-05 -1.79136e-05 0)
(-2.86083e-05 -2.02273e-05 0)
(-2.79057e-05 -2.25615e-05 0)
(-2.73104e-05 -2.49145e-05 0)
(-2.68181e-05 -2.72844e-05 0)
(-2.64278e-05 -2.96666e-05 0)
(-2.6136e-05 -3.2059e-05 0)
(-2.59389e-05 -3.44573e-05 0)
(-2.58328e-05 -3.6856e-05 0)
(-2.5809e-05 -3.9246e-05 0)
(-2.58639e-05 -4.16189e-05 0)
(-2.59936e-05 -4.39645e-05 0)
(-2.61891e-05 -4.6271e-05 0)
(-2.64451e-05 -4.85278e-05 0)
(-2.67576e-05 -5.07207e-05 0)
(-2.71183e-05 -5.28353e-05 0)
(-2.75217e-05 -5.48584e-05 0)
(-2.79654e-05 -5.67764e-05 0)
(-2.84446e-05 -5.85732e-05 0)
(-2.89553e-05 -6.02351e-05 0)
(-2.94938e-05 -6.1749e-05 0)
(-3.00561e-05 -6.31027e-05 0)
(-3.064e-05 -6.42871e-05 0)
(-3.12443e-05 -6.52992e-05 0)
(-3.18644e-05 -6.61422e-05 0)
(-3.24948e-05 -6.68281e-05 0)
(-3.31287e-05 -6.73756e-05 0)
(-3.37565e-05 -6.78073e-05 0)
(-3.4365e-05 -6.81438e-05 0)
(-3.49391e-05 -6.83984e-05 0)
(-3.54641e-05 -6.85744e-05 0)
(-3.59262e-05 -6.86666e-05 0)
(-3.63127e-05 -6.86644e-05 0)
(-3.66134e-05 -6.85571e-05 0)
(-3.68196e-05 -6.83363e-05 0)
(-3.69245e-05 -6.79967e-05 0)
(-3.69226e-05 -6.7536e-05 0)
(-3.68091e-05 -6.69541e-05 0)
(-3.65795e-05 -6.62523e-05 0)
(-3.62301e-05 -6.54328e-05 0)
(-3.5757e-05 -6.44984e-05 0)
(-3.51577e-05 -6.34525e-05 0)
(-3.44298e-05 -6.22988e-05 0)
(-3.35712e-05 -6.10411e-05 0)
(-3.25807e-05 -5.96836e-05 0)
(-3.14572e-05 -5.82307e-05 0)
(-3.02003e-05 -5.66861e-05 0)
(-2.88096e-05 -5.50539e-05 0)
(-2.72857e-05 -5.33379e-05 0)
(-2.56298e-05 -5.15419e-05 0)
(-2.38435e-05 -4.96695e-05 0)
(-2.19288e-05 -4.77245e-05 0)
(-1.98879e-05 -4.57117e-05 0)
(-1.77235e-05 -4.36373e-05 0)
(-1.54381e-05 -4.15097e-05 0)
(-1.3034e-05 -3.93394e-05 0)
(-1.05133e-05 -3.71384e-05 0)
(-7.87773e-06 -3.49189e-05 0)
(-5.13078e-06 -3.26888e-05 0)
(-2.27497e-06 -3.0462e-05 0)
(6.87646e-07 -2.82403e-05 0)
(3.75191e-06 -2.60287e-05 0)
(6.90741e-06 -2.38261e-05 0)
(1.01504e-05 -2.16321e-05 0)
(1.34782e-05 -1.94426e-05 0)
(1.68814e-05 -1.72552e-05 0)
(2.03512e-05 -1.50663e-05 0)
(2.38779e-05 -1.28735e-05 0)
(2.74528e-05 -1.06742e-05 0)
(3.10669e-05 -8.46686e-06 0)
(3.47117e-05 -6.24977e-06 0)