/*--------------------------------*- C++ -*----------------------------------*\
| =========                 |                                                 |
| \\      /  F ield         | OpenFOAM: The Open Source CFD Toolbox           |
|  \\    /   O peration     | Version:  2212                                  |
|   \\  /    A nd           | Website:  www.openfoam.com                      |
|    \\/     M anipulation  |                                                 |
\*---------------------------------------------------------------------------*/
FoamFile
{
    version     2.0;
    format      ascii;
    arch        "LSB;label=64;scalar=64";
    class       volScalarField;
    location    "1200";
    object      Gco2;
}
// * * * * * * * * * * * * * * * * * * * * * * * * * * * * * * * * * * * * * //

dimensions      [1 -3 0 0 0 0 0];

internalField   nonuniform List<scalar> 
1024
(
0.0582209
0.0581947
0.0581306
0.0580149
0.0578338
0.0575771
0.0572427
0.0568408
0.0563946
0.0559373
0.0555073
0.0551424
0.054869
0.0547059
0.0546702
0.0547836
0.055072
0.0555104
0.0560441
0.0566539
0.0573263
0.0580414
0.0587659
0.0594561
0.0600702
0.060581
0.0609785
0.0612685
0.0614659
0.0615893
0.061657
0.0616846
0.0582145
0.0581877
0.0581224
0.0580044
0.0578196
0.0575581
0.0572184
0.0568114
0.0563607
0.0558996
0.0554673
0.0551021
0.05483
0.0546687
0.0546345
0.0547491
0.0550381
0.0554766
0.0560099
0.0566186
0.0572897
0.0580044
0.0587303
0.0594239
0.0600431
0.0605596
0.0609626
0.061257
0.0614575
0.0615828
0.0616515
0.0616794
0.0581991
0.0581715
0.0581039
0.0579815
0.0577899
0.0575191
0.0571683
0.0567491
0.0562856
0.055812
0.0553697
0.0550011
0.0547313
0.0545754
0.0545474
0.0546675
0.0549611
0.0554032
0.0559379
0.0565457
0.0572145
0.0579279
0.0586556
0.0593555
0.0599849
0.0605132
0.0609274
0.061231
0.0614381
0.0615675
0.0616383
0.0616671
0.0581723
0.0581437
0.0580732
0.0579451
0.0577441
0.0574597
0.0570911
0.05665
0.0561605
0.0556589
0.0551928
0.0548135
0.0545466
0.054402
0.0543884
0.0545231
0.0548308
0.0552851
0.0558273
0.0564369
0.0571035
0.0578145
0.0585438
0.0592518
0.059895
0.0604403
0.0608713
0.0611888
0.061406
0.0615418
0.061616
0.0616462
0.0581315
0.058102
0.0580285
0.057894
0.0576816
0.0573794
0.056985
0.0565088
0.0559749
0.055423
0.0549128
0.054511
0.0542457
0.0541198
0.0541329
0.0542972
0.0546355
0.055118
0.05568
0.0562988
0.0569662
0.0576747
0.0584045
0.0591203
0.059779
0.0603444
0.0607961
0.0611313
0.0613614
0.0615055
0.0615842
0.0616161
0.0580732
0.058043
0.0579669
0.0578259
0.0576006
0.0572761
0.0568465
0.056319
0.0557171
0.0550873
0.0545078
0.054067
0.0537995
0.0537
0.053755
0.0539693
0.0543631
0.0548994
0.0555017
0.0561436
0.0568191
0.0575275
0.0582569
0.0589785
0.0596511
0.0602365
0.0607094
0.0610634
0.0613078
0.061461
0.0615447
0.0615785
0.0579917
0.0579613
0.0578831
0.0577358
0.0574965
0.0571449
0.0566693
0.0560717
0.0553753
0.0546376
0.0539619
0.053463
0.0531865
0.0531194
0.0532326
0.0535217
0.054004
0.0546297
0.0553028
0.0559894
0.0566862
0.0574004
0.05813
0.0588541
0.0595358
0.060136
0.0606263
0.0609963
0.061253
0.0614144
0.0615025
0.0615381
0.0578768
0.0578465
0.0577669
0.0576135
0.0573585
0.0569747
0.0564416
0.0557543
0.0549368
0.054063
0.0532669
0.0526916
0.052398
0.0523669
0.0525526
0.0529425
0.0535532
0.0543151
0.0550999
0.0558611
0.0565986
0.0573287
0.0580606
0.0587833
0.0594659
0.060071
0.0605688
0.0609467
0.06121
0.0613761
0.0614669
0.0615037
0.0577105
0.0576805
0.0575996
0.0574397
0.0571669
0.0567449
0.0561424
0.0553464
0.0543842
0.0533518
0.052418
0.0517544
0.0514378
0.0514436
0.0517114
0.0522263
0.05301
0.0539654
0.0549144
0.0557894
0.056593
0.0573529
0.0580908
0.0588071
0.059479
0.0600738
0.0605634
0.0609358
0.0611958
0.0613603
0.0614507
0.0614875
0.0574621
0.0574323
0.0573495
0.0571814
0.0568868
0.0564192
0.0557348
0.0548126
0.0536873
0.0524835
0.0514063
0.0506532
0.0503123
0.0503524
0.0507036
0.0513607
0.052363
0.0535794
0.0547598
0.0558005
0.0567039
0.0575115
0.0582602
0.0589635
0.0596094
0.060174
0.0606351
0.0609843
0.0612278
0.0613824
0.0614679
0.0615032
0.0570844
0.0570541
0.0569674
0.0567869
0.0564634
0.0559392
0.0551587
0.0540951
0.0527965
0.0514214
0.0502096
0.0493772
0.049013
0.0490752
0.0494936
0.0502921
0.0515469
0.0530943
0.0545906
0.0558723
0.0569289
0.0578154
0.0585858
0.0592708
0.0598745
0.0603868
0.0607969
0.0611032
0.0613152
0.0614492
0.0615233
0.0615539
0.0565131
0.0564808
0.0563861
0.0561854
0.0558208
0.0552239
0.0543302
0.0531138
0.0516436
0.0501128
0.0487889
0.0478923
0.0474955
0.0475416
0.0479741
0.0488669
0.0503563
0.0522709
0.0541733
0.0558141
0.0571275
0.0581651
0.058998
0.0596789
0.0602358
0.0606806
0.0610197
0.0612623
0.0614226
0.0615182
0.0615672
0.0615856
0.0556786
0.0556419
0.055533
0.055301
0.0548785
0.0541884
0.0531633
0.0517886
0.0501604
0.0485029
0.0470952
0.0461374
0.0456658
0.0456075
0.0459339
0.0467786
0.0483534
0.0505362
0.0528574
0.0549795
0.0567248
0.0580815
0.0591109
0.0598803
0.060441
0.0608335
0.0610902
0.0612389
0.0613074
0.0613243
0.0613165
0.0613056
0.0545328
0.0544889
0.0543586
0.0540816
0.0535812
0.0527748
0.0516015
0.0500695
0.0483068
0.0465574
0.0450851
0.0440378
0.0433996
0.0430869
0.0430989
0.0436016
0.0448665
0.0468995
0.0493211
0.0517816
0.0540241
0.055911
0.0573997
0.0585145
0.0592753
0.0597289
0.0599424
0.0599831
0.0599181
0.05981
0.0597098
0.0596515
0.0530994
0.053045
0.0528849
0.0525482
0.05195
0.0510082
0.049679
0.0480047
0.0461443
0.0443397
0.0428048
0.0416138
0.0407034
0.0399853
0.0394549
0.0392287
0.0395548
0.0406003
0.0422208
0.0441824
0.0462617
0.0482739
0.0500965
0.051658
0.0528809
0.053734
0.0542432
0.0544607
0.054471
0.0543738
0.0542584
0.0541853
0.0516124
0.0515522
0.0513769
0.0510124
0.0503734
0.0493838
0.0480124
0.0463097
0.0444219
0.0425535
0.0408808
0.0394658
0.0382528
0.0371486
0.0360909
0.035051
0.0341103
0.0334829
0.0332944
0.0335269
0.0341256
0.0350212
0.0361365
0.0373778
0.0386478
0.0398478
0.040886
0.0416859
0.042217
0.0425072
0.0426256
0.0426516
0.0504314
0.0503727
0.050205
0.0498602
0.0492594
0.0483318
0.0470448
0.0454352
0.043623
0.0417871
0.0401005
0.038656
0.0374424
0.036384
0.0353775
0.0342713
0.0329202
0.031361
0.0298125
0.0284223
0.0272909
0.026486
0.0260492
0.0259934
0.0262946
0.0268825
0.0276402
0.0284325
0.0291301
0.0296444
0.0299485
0.030072
0.0496944
0.0496397
0.0494883
0.0491829
0.0486547
0.0478388
0.0466991
0.0452567
0.0436061
0.0419049
0.0403283
0.0390078
0.0379919
0.0372533
0.036703
0.0361584
0.0353241
0.0339834
0.0322756
0.0304018
0.028532
0.0267999
0.0253101
0.0241392
0.0233307
0.0228887
0.0227732
0.0229019
0.0231631
0.0234409
0.0236489
0.0237502
0.0492994
0.0492484
0.0491131
0.0488471
0.0483936
0.047695
0.0467139
0.0454579
0.0439986
0.0424699
0.0410375
0.0398514
0.0390013
0.0385028
0.0382944
0.0382028
0.0378804
0.0369508
0.0354299
0.0334838
0.0312954
0.0290499
0.0269251
0.0250709
0.0235863
0.0225122
0.0218322
0.0214848
0.021378
0.0214075
0.0214787
0.0215277
0.0491311
0.049083
0.0489608
0.0487283
0.0483402
0.0477482
0.0469166
0.0458438
0.0445812
0.0432371
0.0419578
0.0408903
0.0401413
0.0397512
0.0396798
0.0397718
0.0396812
0.0390135
0.037719
0.0358848
0.0336351
0.03113
0.0285711
0.0261761
0.0241261
0.0225338
0.0214265
0.020757
0.0204285
0.0203228
0.0203261
0.0203518
0.0491094
0.0490646
0.0489541
0.0487497
0.0484161
0.0479147
0.0472149
0.046311
0.0452385
0.0440815
0.0429595
0.0420004
0.0413049
0.0409187
0.0408114
0.0408438
0.0407081
0.0400847
0.0389173
0.03723
0.0350817
0.0325723
0.0298631
0.0271717
0.0247223
0.0226986
0.021197
0.020216
0.0196753
0.0194491
0.0194004
0.019413
0.0491472
0.0491095
0.049016
0.0488426
0.0485603
0.0481386
0.0475534
0.0467993
0.0459012
0.0449207
0.0439466
0.0430756
0.0423862
0.0419141
0.0416311
0.0414162
0.0410372
0.0402907
0.039136
0.0375569
0.0355598
0.0331879
0.030544
0.0277966
0.0251604
0.0228555
0.0210421
0.0197814
0.0190324
0.0186805
0.0185762
0.0185758
0.0491099
0.0490892
0.0490297
0.0489062
0.0486893
0.048351
0.0478719
0.0472479
0.0464959
0.0456563
0.0447857
0.0439463
0.043189
0.042537
0.0419666
0.0413846
0.0406584
0.0397088
0.0385093
0.037011
0.0351786
0.0330099
0.0305585
0.0279376
0.0253173
0.0229039
0.0208934
0.0194111
0.0184728
0.0179947
0.0178298
0.0178143
0.0488012
0.0488133
0.048817
0.0487793
0.0486606
0.0484257
0.0480519
0.0475325
0.0468758
0.046103
0.0452451
0.0443383
0.0434168
0.0425009
0.041581
0.040599
0.0395227
0.0383765
0.0371367
0.0357254
0.0340776
0.0321553
0.0299687
0.0275856
0.0251301
0.0227702
0.020695
0.0190713
0.0179787
0.0173818
0.0171532
0.0171202
0.047994
0.0480571
0.0481557
0.0482409
0.0482529
0.048137
0.0478559
0.0473938
0.0467505
0.0459378
0.0449775
0.0439006
0.0427428
0.0415331
0.0402817
0.0389631
0.037622
0.0363503
0.035117
0.0338209
0.0323796
0.0307334
0.0288606
0.0267885
0.0245962
0.0224115
0.0203977
0.0187286
0.0175329
0.0168343
0.016542
0.0164888
0.0464884
0.0466164
0.0468246
0.0470381
0.0471721
0.047147
0.0469057
0.0464226
0.0456976
0.0447491
0.0436097
0.042323
0.0409366
0.0394918
0.0380136
0.036498
0.0350328
0.033739
0.032576
0.0314292
0.0302101
0.0288513
0.0273137
0.0255947
0.0237331
0.0218131
0.019964
0.0183476
0.0171153
0.0163439
0.0159932
0.0159174
0.0441562
0.0443503
0.0446412
0.0449203
0.0450885
0.0450582
0.0447627
0.0441782
0.0433164
0.0422119
0.0409145
0.0394821
0.0379718
0.03643
0.0348866
0.0333467
0.0319104
0.0306988
0.0296654
0.0286954
0.0277041
0.0266268
0.0254192
0.0240619
0.0225646
0.0209715
0.0193701
0.0178956
0.0167015
0.0159001
0.0155036
0.0154042
0.0409401
0.041178
0.041463
0.0416667
0.0417154
0.0415507
0.0411202
0.0404132
0.0394502
0.0382741
0.0369411
0.035512
0.0340424
0.0325748
0.031136
0.0297321
0.0284552
0.0274096
0.0265491
0.0257713
0.0250023
0.0241867
0.0232837
0.0222686
0.0211344
0.0198962
0.0186014
0.0173457
0.016265
0.0154875
0.0150684
0.0149477
0.0368082
0.0370309
0.0371614
0.0371228
0.0369236
0.0365587
0.0360009
0.0352447
0.0343025
0.0332082
0.0320084
0.0307537
0.029489
0.0282476
0.02705
0.0259007
0.0248731
0.0240474
0.023384
0.0228007
0.0222396
0.0216576
0.021022
0.0203101
0.0195097
0.0186198
0.0176579
0.0166783
0.0157813
0.0150881
0.0146807
0.0145466
0.0316855
0.0317847
0.0316175
0.0312789
0.0308577
0.030372
0.0298022
0.0291336
0.0283612
0.0275003
0.0265794
0.0256325
0.0246907
0.0237767
0.0229044
0.0220767
0.0213447
0.0207634
0.0203033
0.0199069
0.0195334
0.0191532
0.0187436
0.0182878
0.0177748
0.0171987
0.0165614
0.0158852
0.0152282
0.0146813
0.0143299
0.0141981
0.0253901
0.0252522
0.0248455
0.0244058
0.02398
0.0235664
0.0231453
0.0226963
0.0222054
0.0216737
0.0211135
0.020543
0.0199795
0.0194362
0.018921
0.0184353
0.0180086
0.0176719
0.0174078
0.0171831
0.0169745
0.0167651
0.0165421
0.0162956
0.0160191
0.0157077
0.0153592
0.0149793
0.0145921
0.0142461
0.0140018
0.0138973
0.0176778
0.0175621
0.0173439
0.0171436
0.0169656
0.0168038
0.0166496
0.0164935
0.0163279
0.0161513
0.0159667
0.0157795
0.0155953
0.0154182
0.0152507
0.0150934
0.0149556
0.0148472
0.0147625
0.0146909
0.0146249
0.0145592
0.0144897
0.0144133
0.0143279
0.0142319
0.0141244
0.014006
0.0138825
0.0137669
0.0136785
0.0136357
)
;

boundaryField
{
    movingWall
    {
        type            fixedValue;
        value           uniform 0.0135;
    }
    fixedWalls
    {
        type            zeroGradient;
    }
    floor
    {
        type            zeroGradient;
    }
    frontAndBack
    {
        type            empty;
    }
}


// ************************************************************************* //
