/*--------------------------------*- C++ -*----------------------------------*\
| =========                 |                                                 |
| \\      /  F ield         | OpenFOAM: The Open Source CFD Toolbox           |
|  \\    /   O peration     | Version:  2212                                  |
|   \\  /    A nd           | Website:  www.openfoam.com                      |
|    \\/     M anipulation  |                                                 |
\*---------------------------------------------------------------------------*/
FoamFile
{
    version     2.0;
    format      ascii;
    arch        "LSB;label=64;scalar=64";
    class       volScalarField;
    location    "1200";
    object      Gh2;
}
// * * * * * * * * * * * * * * * * * * * * * * * * * * * * * * * * * * * * * //

dimensions      [1 -3 0 0 0 0 0];

internalField   nonuniform List<scalar> 
1024
(
1.28007e-05
1.27995e-05
1.27966e-05
1.27914e-05
1.27831e-05
1.27715e-05
1.27563e-05
1.27381e-05
1.2718e-05
1.26974e-05
1.26781e-05
1.26619e-05
1.26498e-05
1.26429e-05
1.2642e-05
1.2648e-05
1.26621e-05
1.26828e-05
1.27076e-05
1.27357e-05
1.27667e-05
1.27998e-05
1.28334e-05
1.28655e-05
1.28942e-05
1.29181e-05
1.29368e-05
1.29504e-05
1.29597e-05
1.29655e-05
1.29686e-05
1.29699e-05
1.28004e-05
1.27992e-05
1.27962e-05
1.27909e-05
1.27825e-05
1.27706e-05
1.27552e-05
1.27368e-05
1.27165e-05
1.26957e-05
1.26764e-05
1.26601e-05
1.26481e-05
1.26413e-05
1.26404e-05
1.26465e-05
1.26606e-05
1.26813e-05
1.27061e-05
1.27341e-05
1.27651e-05
1.27981e-05
1.28318e-05
1.2864e-05
1.2893e-05
1.29171e-05
1.2936e-05
1.29498e-05
1.29593e-05
1.29652e-05
1.29684e-05
1.29697e-05
1.27997e-05
1.27985e-05
1.27954e-05
1.27899e-05
1.27812e-05
1.27689e-05
1.2753e-05
1.2734e-05
1.27131e-05
1.26919e-05
1.26721e-05
1.26557e-05
1.26438e-05
1.26373e-05
1.26367e-05
1.2643e-05
1.26573e-05
1.26782e-05
1.27029e-05
1.27309e-05
1.27617e-05
1.27946e-05
1.28284e-05
1.28609e-05
1.28903e-05
1.2915e-05
1.29344e-05
1.29486e-05
1.29584e-05
1.29644e-05
1.29678e-05
1.29691e-05
1.27985e-05
1.27972e-05
1.2794e-05
1.27882e-05
1.27791e-05
1.27662e-05
1.27495e-05
1.27296e-05
1.27076e-05
1.26851e-05
1.26643e-05
1.26474e-05
1.26358e-05
1.26298e-05
1.26298e-05
1.26369e-05
1.26518e-05
1.26731e-05
1.26982e-05
1.27262e-05
1.27568e-05
1.27895e-05
1.28233e-05
1.28562e-05
1.28861e-05
1.29116e-05
1.29318e-05
1.29467e-05
1.29569e-05
1.29633e-05
1.29667e-05
1.29682e-05
1.27967e-05
1.27954e-05
1.2792e-05
1.27859e-05
1.27763e-05
1.27626e-05
1.27448e-05
1.27234e-05
1.26994e-05
1.26746e-05
1.26519e-05
1.26342e-05
1.26226e-05
1.26176e-05
1.26189e-05
1.26273e-05
1.26436e-05
1.26662e-05
1.2692e-05
1.27203e-05
1.27508e-05
1.27833e-05
1.2817e-05
1.28502e-05
1.28808e-05
1.29072e-05
1.29283e-05
1.2944e-05
1.29548e-05
1.29616e-05
1.29653e-05
1.29668e-05
1.27941e-05
1.27927e-05
1.27893e-05
1.27829e-05
1.27727e-05
1.2758e-05
1.27387e-05
1.27149e-05
1.26879e-05
1.26598e-05
1.26341e-05
1.26147e-05
1.26032e-05
1.25995e-05
1.26028e-05
1.26136e-05
1.26324e-05
1.26572e-05
1.26847e-05
1.27139e-05
1.27446e-05
1.27769e-05
1.28105e-05
1.28438e-05
1.2875e-05
1.29023e-05
1.29244e-05
1.29409e-05
1.29524e-05
1.29596e-05
1.29635e-05
1.29651e-05
1.27904e-05
1.2789e-05
1.27855e-05
1.27789e-05
1.2768e-05
1.27522e-05
1.27308e-05
1.2704e-05
1.26728e-05
1.264e-05
1.26101e-05
1.25883e-05
1.25766e-05
1.25745e-05
1.25807e-05
1.2595e-05
1.26178e-05
1.26465e-05
1.2677e-05
1.27078e-05
1.27393e-05
1.27717e-05
1.2805e-05
1.28383e-05
1.28699e-05
1.28978e-05
1.29206e-05
1.29379e-05
1.29499e-05
1.29574e-05
1.29616e-05
1.29632e-05
1.27853e-05
1.27839e-05
1.27803e-05
1.27734e-05
1.27619e-05
1.27446e-05
1.27207e-05
1.26899e-05
1.26534e-05
1.26147e-05
1.25796e-05
1.25547e-05
1.25425e-05
1.25424e-05
1.25521e-05
1.25711e-05
1.25997e-05
1.26344e-05
1.26695e-05
1.27034e-05
1.27363e-05
1.27692e-05
1.28024e-05
1.28355e-05
1.28669e-05
1.28949e-05
1.29181e-05
1.29357e-05
1.2948e-05
1.29558e-05
1.296e-05
1.29617e-05
1.27778e-05
1.27764e-05
1.27728e-05
1.27656e-05
1.27533e-05
1.27344e-05
1.27074e-05
1.26718e-05
1.2629e-05
1.25834e-05
1.25424e-05
1.25139e-05
1.25012e-05
1.25032e-05
1.25171e-05
1.2542e-05
1.25784e-05
1.26215e-05
1.26635e-05
1.2702e-05
1.27375e-05
1.27713e-05
1.28045e-05
1.28371e-05
1.28679e-05
1.28954e-05
1.29181e-05
1.29354e-05
1.29475e-05
1.29552e-05
1.29594e-05
1.29611e-05
1.27666e-05
1.27653e-05
1.27616e-05
1.2754e-05
1.27408e-05
1.27199e-05
1.26893e-05
1.26482e-05
1.25982e-05
1.25452e-05
1.24983e-05
1.24663e-05
1.24531e-05
1.24572e-05
1.24753e-05
1.2507e-05
1.25533e-05
1.26077e-05
1.26595e-05
1.27048e-05
1.27443e-05
1.27799e-05
1.28133e-05
1.2845e-05
1.28745e-05
1.29004e-05
1.29217e-05
1.29379e-05
1.29492e-05
1.29564e-05
1.29604e-05
1.29621e-05
1.27496e-05
1.27483e-05
1.27444e-05
1.27363e-05
1.27218e-05
1.26984e-05
1.26636e-05
1.26164e-05
1.25589e-05
1.24986e-05
1.24462e-05
1.24113e-05
1.23978e-05
1.24037e-05
1.24254e-05
1.24638e-05
1.25214e-05
1.25902e-05
1.26555e-05
1.2711e-05
1.27567e-05
1.27954e-05
1.28294e-05
1.28601e-05
1.28874e-05
1.29108e-05
1.29297e-05
1.29438e-05
1.29537e-05
1.296e-05
1.29634e-05
1.29649e-05
1.27239e-05
1.27225e-05
1.27182e-05
1.27093e-05
1.2693e-05
1.26664e-05
1.26267e-05
1.25728e-05
1.25081e-05
1.24413e-05
1.23845e-05
1.23476e-05
1.23334e-05
1.23393e-05
1.23623e-05
1.24054e-05
1.24735e-05
1.25584e-05
1.26413e-05
1.2712e-05
1.27686e-05
1.28136e-05
1.285e-05
1.28801e-05
1.29051e-05
1.29252e-05
1.29407e-05
1.2952e-05
1.29595e-05
1.2964e-05
1.29664e-05
1.29673e-05
1.26863e-05
1.26847e-05
1.26798e-05
1.26695e-05
1.26508e-05
1.26201e-05
1.25747e-05
1.25141e-05
1.24428e-05
1.23709e-05
1.23112e-05
1.22723e-05
1.22556e-05
1.22575e-05
1.22765e-05
1.2318e-05
1.23903e-05
1.24871e-05
1.25883e-05
1.268e-05
1.27551e-05
1.28136e-05
1.28582e-05
1.28918e-05
1.29166e-05
1.29341e-05
1.29458e-05
1.29528e-05
1.29562e-05
1.29573e-05
1.29571e-05
1.29568e-05
1.26347e-05
1.26327e-05
1.2627e-05
1.26147e-05
1.25926e-05
1.2557e-05
1.25052e-05
1.2438e-05
1.23612e-05
1.22859e-05
1.22239e-05
1.21817e-05
1.21581e-05
1.21494e-05
1.21551e-05
1.21823e-05
1.2242e-05
1.23333e-05
1.24395e-05
1.25462e-05
1.2643e-05
1.27242e-05
1.27883e-05
1.28364e-05
1.28694e-05
1.28893e-05
1.28988e-05
1.29009e-05
1.28984e-05
1.2894e-05
1.28898e-05
1.28874e-05
1.25701e-05
1.25678e-05
1.25607e-05
1.25459e-05
1.25196e-05
1.24781e-05
1.24198e-05
1.23466e-05
1.22659e-05
1.21885e-05
1.21241e-05
1.20757e-05
1.20402e-05
1.20138e-05
1.19962e-05
1.19927e-05
1.20132e-05
1.20635e-05
1.21368e-05
1.22232e-05
1.23136e-05
1.24005e-05
1.24788e-05
1.25457e-05
1.25981e-05
1.26346e-05
1.26564e-05
1.26658e-05
1.26663e-05
1.26622e-05
1.26572e-05
1.26541e-05
1.2503e-05
1.25004e-05
1.24927e-05
1.24767e-05
1.24486e-05
1.24051e-05
1.2345e-05
1.22705e-05
1.21885e-05
1.21081e-05
1.20372e-05
1.19784e-05
1.19291e-05
1.18855e-05
1.18451e-05
1.18071e-05
1.17748e-05
1.17559e-05
1.17544e-05
1.17693e-05
1.17983e-05
1.18387e-05
1.18875e-05
1.19409e-05
1.19949e-05
1.20456e-05
1.20893e-05
1.21229e-05
1.2145e-05
1.21571e-05
1.2162e-05
1.21631e-05
1.2449e-05
1.24464e-05
1.24391e-05
1.2424e-05
1.23976e-05
1.23568e-05
1.23001e-05
1.22294e-05
1.215e-05
1.20701e-05
1.19973e-05
1.19358e-05
1.1885e-05
1.18419e-05
1.18025e-05
1.17612e-05
1.17122e-05
1.1656e-05
1.16002e-05
1.15501e-05
1.15096e-05
1.14813e-05
1.1467e-05
1.14672e-05
1.14812e-05
1.15061e-05
1.15375e-05
1.157e-05
1.15985e-05
1.16194e-05
1.16317e-05
1.16367e-05
1.24145e-05
1.24121e-05
1.24056e-05
1.23922e-05
1.23689e-05
1.23328e-05
1.22824e-05
1.22185e-05
1.21455e-05
1.20704e-05
1.20011e-05
1.19434e-05
1.18993e-05
1.1868e-05
1.18462e-05
1.18268e-05
1.17985e-05
1.17517e-05
1.1691e-05
1.16237e-05
1.15563e-05
1.14935e-05
1.14394e-05
1.13967e-05
1.13671e-05
1.13509e-05
1.13468e-05
1.13517e-05
1.13617e-05
1.13722e-05
1.13801e-05
1.1384e-05
1.23952e-05
1.2393e-05
1.23871e-05
1.23755e-05
1.23554e-05
1.23244e-05
1.22808e-05
1.22247e-05
1.21596e-05
1.20913e-05
1.20272e-05
1.19741e-05
1.19358e-05
1.19134e-05
1.19044e-05
1.19026e-05
1.18941e-05
1.18632e-05
1.18099e-05
1.17402e-05
1.16612e-05
1.15799e-05
1.15028e-05
1.14354e-05
1.13814e-05
1.1342e-05
1.13168e-05
1.13035e-05
1.1299e-05
1.12995e-05
1.13017e-05
1.13033e-05
1.23861e-05
1.2384e-05
1.23787e-05
1.23685e-05
1.23514e-05
1.2325e-05
1.22878e-05
1.22396e-05
1.21828e-05
1.21221e-05
1.20641e-05
1.20153e-05
1.19806e-05
1.1962e-05
1.1958e-05
1.1963e-05
1.19632e-05
1.19422e-05
1.18971e-05
1.18314e-05
1.17498e-05
1.16586e-05
1.15654e-05
1.14782e-05
1.14036e-05
1.13456e-05
1.13051e-05
1.12804e-05
1.12679e-05
1.12635e-05
1.12631e-05
1.12638e-05
1.23837e-05
1.23818e-05
1.2377e-05
1.2368e-05
1.23532e-05
1.23309e-05
1.22994e-05
1.22586e-05
1.221e-05
1.21573e-05
1.21059e-05
1.20616e-05
1.20289e-05
1.20102e-05
1.20046e-05
1.20069e-05
1.20049e-05
1.19851e-05
1.19444e-05
1.18838e-05
1.18056e-05
1.17138e-05
1.16147e-05
1.15164e-05
1.14271e-05
1.13535e-05
1.12989e-05
1.1263e-05
1.1243e-05
1.12344e-05
1.12322e-05
1.12324e-05
1.23845e-05
1.23828e-05
1.23787e-05
1.2371e-05
1.23584e-05
1.23396e-05
1.23132e-05
1.2279e-05
1.22381e-05
1.21932e-05
1.21483e-05
1.2108e-05
1.20759e-05
1.20539e-05
1.20413e-05
1.20336e-05
1.20217e-05
1.19965e-05
1.19557e-05
1.18985e-05
1.18255e-05
1.17384e-05
1.16414e-05
1.15408e-05
1.14446e-05
1.13607e-05
1.12948e-05
1.1249e-05
1.12216e-05
1.12085e-05
1.12044e-05
1.12041e-05
1.2383e-05
1.23819e-05
1.23792e-05
1.23735e-05
1.23636e-05
1.23483e-05
1.23265e-05
1.22982e-05
1.22639e-05
1.22255e-05
1.21857e-05
1.21474e-05
1.21133e-05
1.20845e-05
1.20608e-05
1.20386e-05
1.20126e-05
1.19788e-05
1.19356e-05
1.18809e-05
1.18136e-05
1.17337e-05
1.16435e-05
1.15473e-05
1.14515e-05
1.13636e-05
1.12906e-05
1.12369e-05
1.12028e-05
1.11853e-05
1.1179e-05
1.11782e-05
1.23714e-05
1.23716e-05
1.23713e-05
1.2369e-05
1.2363e-05
1.2352e-05
1.23348e-05
1.23112e-05
1.22815e-05
1.22468e-05
1.22086e-05
1.21688e-05
1.2129e-05
1.20905e-05
1.20533e-05
1.20153e-05
1.19752e-05
1.19331e-05
1.18877e-05
1.18357e-05
1.17749e-05
1.17039e-05
1.16232e-05
1.15356e-05
1.14457e-05
1.13597e-05
1.12844e-05
1.12256e-05
1.11861e-05
1.11644e-05
1.11559e-05
1.11546e-05
1.23408e-05
1.23431e-05
1.23464e-05
1.23489e-05
1.23481e-05
1.23419e-05
1.23287e-05
1.2308e-05
1.22797e-05
1.22445e-05
1.22035e-05
1.21581e-05
1.21101e-05
1.20608e-05
1.20109e-05
1.19597e-05
1.19088e-05
1.18613e-05
1.18155e-05
1.17675e-05
1.1714e-05
1.16531e-05
1.15839e-05
1.15076e-05
1.14272e-05
1.13475e-05
1.12744e-05
1.12141e-05
1.1171e-05
1.11458e-05
1.11351e-05
1.1133e-05
1.22836e-05
1.22884e-05
1.22959e-05
1.23034e-05
1.23074e-05
1.2305e-05
1.22938e-05
1.22729e-05
1.22423e-05
1.22029e-05
1.2156e-05
1.21035e-05
1.20474e-05
1.19896e-05
1.19312e-05
1.18723e-05
1.18163e-05
1.17674e-05
1.17238e-05
1.16811e-05
1.16357e-05
1.15852e-05
1.15283e-05
1.1465e-05
1.13967e-05
1.13266e-05
1.12595e-05
1.12011e-05
1.11568e-05
1.1129e-05
1.11164e-05
1.11135e-05
1.21949e-05
1.22022e-05
1.22129e-05
1.2223e-05
1.22285e-05
1.22262e-05
1.22133e-05
1.21891e-05
1.21541e-05
1.21095e-05
1.20574e-05
1.20002e-05
1.194e-05
1.1879e-05
1.18183e-05
1.17585e-05
1.17033e-05
1.16573e-05
1.16183e-05
1.15819e-05
1.15449e-05
1.15048e-05
1.14601e-05
1.141e-05
1.1355e-05
1.12969e-05
1.12387e-05
1.11855e-05
1.11426e-05
1.11139e-05
1.10997e-05
1.1096e-05
1.20725e-05
1.20815e-05
1.20921e-05
1.20994e-05
1.21006e-05
1.20934e-05
1.20758e-05
1.20474e-05
1.20091e-05
1.19625e-05
1.19098e-05
1.18533e-05
1.17954e-05
1.17377e-05
1.16813e-05
1.16267e-05
1.15775e-05
1.15376e-05
1.1505e-05
1.14758e-05
1.1447e-05
1.14166e-05
1.13831e-05
1.13456e-05
1.13039e-05
1.12587e-05
1.12117e-05
1.11663e-05
1.11276e-05
1.10998e-05
1.10848e-05
1.10805e-05
1.19154e-05
1.19238e-05
1.19286e-05
1.19268e-05
1.19188e-05
1.19042e-05
1.18822e-05
1.18524e-05
1.18154e-05
1.17725e-05
1.17254e-05
1.16762e-05
1.16266e-05
1.1578e-05
1.15311e-05
1.14864e-05
1.14468e-05
1.14152e-05
1.139e-05
1.1368e-05
1.13469e-05
1.13252e-05
1.13016e-05
1.12753e-05
1.12459e-05
1.12133e-05
1.11784e-05
1.1143e-05
1.11108e-05
1.10861e-05
1.10717e-05
1.10669e-05
1.17209e-05
1.17246e-05
1.17182e-05
1.17051e-05
1.16888e-05
1.16699e-05
1.16477e-05
1.16217e-05
1.15916e-05
1.1558e-05
1.1522e-05
1.1485e-05
1.14482e-05
1.14125e-05
1.13784e-05
1.13462e-05
1.13179e-05
1.12956e-05
1.12781e-05
1.12631e-05
1.12491e-05
1.12349e-05
1.12196e-05
1.12028e-05
1.11839e-05
1.11628e-05
1.11396e-05
1.11152e-05
1.10917e-05
1.10722e-05
1.10598e-05
1.10551e-05
1.14821e-05
1.14769e-05
1.14614e-05
1.14446e-05
1.14283e-05
1.14124e-05
1.13961e-05
1.13787e-05
1.13596e-05
1.13389e-05
1.13171e-05
1.12949e-05
1.12729e-05
1.12516e-05
1.12315e-05
1.12126e-05
1.11961e-05
1.11832e-05
1.11731e-05
1.11646e-05
1.11568e-05
1.11489e-05
1.11406e-05
1.11315e-05
1.11213e-05
1.11099e-05
1.10972e-05
1.10835e-05
1.10696e-05
1.10573e-05
1.10487e-05
1.10451e-05
1.119e-05
1.11857e-05
1.11774e-05
1.11697e-05
1.11629e-05
1.11567e-05
1.11508e-05
1.11447e-05
1.11383e-05
1.11315e-05
1.11243e-05
1.1117e-05
1.11098e-05
1.11029e-05
1.10963e-05
1.10902e-05
1.10849e-05
1.10807e-05
1.10775e-05
1.10748e-05
1.10723e-05
1.10698e-05
1.10672e-05
1.10644e-05
1.10613e-05
1.10577e-05
1.10538e-05
1.10495e-05
1.10451e-05
1.1041e-05
1.10379e-05
1.10364e-05
)
;

boundaryField
{
    movingWall
    {
        type            fixedValue;
        value           uniform 1.1032e-05;
    }
    fixedWalls
    {
        type            zeroGradient;
    }
    floor
    {
        type            zeroGradient;
    }
    frontAndBack
    {
        type            empty;
    }
}


// ************************************************************************* //
