/*--------------------------------*- C++ -*----------------------------------*\
| =========                 |                                                 |
| \\      /  F ield         | OpenFOAM: The Open Source CFD Toolbox           |
|  \\    /   O peration     | Version:  2212                                  |
|   \\  /    A nd           | Website:  www.openfoam.com                      |
|    \\/     M anipulation  |                                                 |
\*---------------------------------------------------------------------------*/
FoamFile
{
    version     2.0;
    format      ascii;
    arch        "LSB;label=64;scalar=64";
    class       volScalarField;
    location    "1200";
    object      T;
}
// * * * * * * * * * * * * * * * * * * * * * * * * * * * * * * * * * * * * * //

dimensions      [0 0 0 1 0 0 0];

internalField   nonuniform List<scalar> 
1024
(
309.996
309.996
309.996
309.995
309.994
309.993
309.992
309.991
309.989
309.988
309.987
309.987
309.988
309.989
309.99
309.991
309.991
309.992
309.993
309.993
309.994
309.995
309.995
309.996
309.996
309.996
309.997
309.997
309.997
309.998
309.998
309.998
309.988
309.987
309.987
309.985
309.983
309.979
309.975
309.971
309.966
309.962
309.959
309.96
309.962
309.965
309.968
309.97
309.973
309.975
309.977
309.979
309.981
309.983
309.985
309.986
309.988
309.989
309.99
309.991
309.992
309.992
309.993
309.993
309.979
309.978
309.977
309.974
309.969
309.964
309.957
309.949
309.941
309.933
309.929
309.93
309.934
309.939
309.943
309.948
309.952
309.956
309.96
309.964
309.967
309.97
309.973
309.975
309.978
309.98
309.983
309.984
309.986
309.986
309.987
309.987
309.969
309.968
309.966
309.962
309.955
309.947
309.937
309.926
309.915
309.905
309.899
309.9
309.905
309.911
309.917
309.923
309.929
309.935
309.941
309.946
309.951
309.955
309.959
309.963
309.967
309.971
309.974
309.977
309.979
309.98
309.981
309.981
309.959
309.958
309.955
309.95
309.941
309.93
309.918
309.904
309.891
309.88
309.873
309.874
309.879
309.885
309.892
309.899
309.905
309.913
309.92
309.927
309.933
309.939
309.945
309.95
309.955
309.96
309.965
309.968
309.971
309.973
309.974
309.974
309.949
309.948
309.945
309.939
309.929
309.916
309.901
309.886
309.872
309.861
309.854
309.854
309.858
309.864
309.87
309.876
309.883
309.891
309.899
309.907
309.915
309.922
309.929
309.936
309.942
309.949
309.955
309.96
309.963
309.966
309.967
309.967
309.94
309.939
309.936
309.929
309.918
309.904
309.888
309.872
309.859
309.848
309.842
309.841
309.844
309.848
309.853
309.859
309.866
309.873
309.881
309.89
309.898
309.906
309.914
309.922
309.93
309.937
309.945
309.951
309.956
309.959
309.96
309.961
309.931
309.93
309.927
309.92
309.91
309.896
309.88
309.864
309.851
309.841
309.835
309.834
309.836
309.839
309.843
309.848
309.854
309.86
309.867
309.875
309.884
309.892
309.901
309.909
309.918
309.927
309.935
309.943
309.948
309.952
309.953
309.954
309.922
309.922
309.919
309.913
309.904
309.89
309.875
309.86
309.846
309.836
309.831
309.83
309.832
309.835
309.839
309.843
309.848
309.853
309.859
309.865
309.873
309.881
309.89
309.899
309.908
309.918
309.927
309.936
309.942
309.946
309.947
309.948
309.914
309.914
309.912
309.907
309.898
309.886
309.872
309.857
309.843
309.833
309.829
309.828
309.83
309.833
309.837
309.842
309.847
309.852
309.856
309.861
309.867
309.875
309.883
309.892
309.902
309.912
309.922
309.93
309.937
309.94
309.942
309.942
309.906
309.906
309.904
309.9
309.893
309.882
309.869
309.853
309.839
309.83
309.827
309.828
309.83
309.833
309.837
309.842
309.848
309.854
309.858
309.862
309.867
309.873
309.881
309.89
309.9
309.91
309.919
309.927
309.933
309.936
309.937
309.938
309.898
309.898
309.896
309.893
309.887
309.877
309.863
309.848
309.835
309.828
309.826
309.827
309.829
309.833
309.837
309.842
309.849
309.857
309.863
309.866
309.871
309.876
309.883
309.892
309.901
309.911
309.919
309.926
309.93
309.932
309.933
309.933
309.889
309.888
309.887
309.884
309.878
309.868
309.855
309.841
309.83
309.824
309.824
309.825
309.828
309.831
309.835
309.84
309.848
309.857
309.866
309.873
309.878
309.884
309.89
309.898
309.905
309.913
309.919
309.924
309.927
309.928
309.929
309.929
309.878
309.878
309.876
309.873
309.866
309.856
309.843
309.831
309.823
309.82
309.82
309.821
309.823
309.826
309.829
309.834
309.841
309.851
309.861
309.872
309.882
309.89
309.896
309.902
309.908
309.914
309.918
309.921
309.922
309.923
309.922
309.922
309.866
309.865
309.863
309.859
309.851
309.84
309.828
309.819
309.813
309.811
309.811
309.812
309.813
309.815
309.817
309.821
309.826
309.833
309.841
309.85
309.86
309.871
309.882
309.892
309.899
309.904
309.907
309.909
309.909
309.908
309.907
309.907
309.855
309.854
309.852
309.848
309.84
309.83
309.819
309.81
309.805
309.802
309.801
309.8
309.8
309.8
309.802
309.805
309.808
309.812
309.817
309.821
309.825
309.829
309.833
309.838
309.844
309.851
309.858
309.864
309.868
309.869
309.869
309.868
309.848
309.847
309.845
309.841
309.834
309.824
309.814
309.806
309.8
309.796
309.794
309.792
309.791
309.79
309.791
309.793
309.797
309.801
309.805
309.809
309.813
309.816
309.818
309.82
309.822
309.823
309.824
309.825
309.826
309.827
309.827
309.827
309.843
309.843
309.841
309.837
309.831
309.822
309.813
309.804
309.798
309.793
309.79
309.787
309.785
309.784
309.783
309.784
309.787
309.792
309.797
309.802
309.807
309.812
309.815
309.818
309.82
309.822
309.823
309.823
309.823
309.823
309.822
309.822
309.841
309.84
309.839
309.836
309.83
309.822
309.813
309.804
309.797
309.792
309.788
309.785
309.782
309.78
309.778
309.778
309.779
309.783
309.789
309.795
309.801
309.807
309.812
309.816
309.819
309.821
309.823
309.824
309.824
309.824
309.824
309.824
309.84
309.839
309.838
309.835
309.83
309.823
309.815
309.806
309.798
309.792
309.788
309.784
309.781
309.779
309.776
309.775
309.775
309.778
309.783
309.788
309.795
309.802
309.808
309.813
309.817
309.82
309.822
309.824
309.825
309.825
309.825
309.826
309.839
309.838
309.837
309.834
309.83
309.824
309.816
309.808
309.8
309.794
309.789
309.785
309.782
309.779
309.777
309.775
309.775
309.777
309.78
309.785
309.791
309.798
309.804
309.81
309.815
309.819
309.822
309.823
309.824
309.825
309.826
309.826
309.839
309.838
309.837
309.834
309.831
309.825
309.818
309.81
309.803
309.796
309.791
309.787
309.783
309.78
309.778
309.777
309.778
309.779
309.782
309.785
309.79
309.796
309.802
309.808
309.813
309.818
309.821
309.823
309.824
309.825
309.825
309.826
309.839
309.838
309.837
309.835
309.831
309.826
309.82
309.813
309.805
309.799
309.794
309.789
309.786
309.783
309.781
309.781
309.781
309.783
309.785
309.788
309.792
309.796
309.801
309.807
309.812
309.817
309.82
309.822
309.824
309.824
309.825
309.825
309.839
309.839
309.837
309.835
309.832
309.827
309.821
309.815
309.808
309.802
309.797
309.793
309.79
309.787
309.786
309.785
309.786
309.787
309.789
309.792
309.795
309.799
309.803
309.807
309.812
309.816
309.819
309.822
309.823
309.824
309.825
309.825
309.84
309.839
309.838
309.836
309.832
309.828
309.823
309.817
309.811
309.805
309.801
309.797
309.794
309.792
309.791
309.79
309.791
309.793
309.794
309.797
309.799
309.802
309.805
309.809
309.812
309.816
309.819
309.821
309.823
309.824
309.824
309.825
309.84
309.839
309.838
309.836
309.833
309.829
309.824
309.819
309.814
309.809
309.805
309.802
309.799
309.797
309.796
309.796
309.797
309.799
309.8
309.802
309.804
309.806
309.808
309.811
309.814
309.816
309.819
309.821
309.823
309.824
309.824
309.824
309.84
309.839
309.838
309.836
309.833
309.83
309.825
309.821
309.817
309.813
309.81
309.807
309.805
309.804
309.803
309.803
309.804
309.805
309.806
309.807
309.809
309.81
309.812
309.813
309.815
309.817
309.819
309.821
309.822
309.823
309.824
309.824
309.84
309.839
309.838
309.836
309.834
309.831
309.827
309.824
309.82
309.817
309.815
309.813
309.811
309.81
309.81
309.81
309.81
309.811
309.811
309.812
309.813
309.814
309.815
309.816
309.817
309.819
309.82
309.821
309.822
309.823
309.824
309.824
309.84
309.84
309.838
309.837
309.835
309.832
309.829
309.827
309.824
309.822
309.82
309.819
309.817
309.817
309.816
309.816
309.816
309.816
309.816
309.817
309.817
309.817
309.818
309.819
309.819
309.82
309.821
309.822
309.822
309.823
309.823
309.824
309.84
309.84
309.839
309.838
309.836
309.834
309.832
309.831
309.829
309.827
309.826
309.824
309.823
309.822
309.821
309.821
309.82
309.82
309.82
309.82
309.82
309.82
309.82
309.821
309.821
309.821
309.822
309.822
309.822
309.823
309.823
309.824
309.841
309.84
309.84
309.839
309.838
309.837
309.836
309.834
309.833
309.832
309.83
309.829
309.828
309.826
309.825
309.824
309.823
309.823
309.822
309.822
309.822
309.822
309.822
309.822
309.822
309.822
309.822
309.822
309.823
309.823
309.823
309.823
309.841
309.841
309.84
309.84
309.839
309.839
309.838
309.837
309.835
309.834
309.833
309.831
309.83
309.828
309.827
309.825
309.824
309.824
309.823
309.823
309.823
309.822
309.822
309.822
309.822
309.822
309.823
309.823
309.823
309.823
309.823
309.823
)
;

boundaryField
{
    movingWall
    {
        type            zeroGradient;
    }
    fixedWalls
    {
        type            zeroGradient;
    }
    floor
    {
        type            fixedValue;
        value           uniform 310;
    }
    frontAndBack
    {
        type            empty;
    }
}


// ************************************************************************* //
