/*--------------------------------*- C++ -*----------------------------------*\
| =========                 |                                                 |
| \\      /  F ield         | OpenFOAM: The Open Source CFD Toolbox           |
|  \\    /   O peration     | Version:  2212                                  |
|   \\  /    A nd           | Website:  www.openfoam.com                      |
|    \\/     M anipulation  |                                                 |
\*---------------------------------------------------------------------------*/
FoamFile
{
    version     2.0;
    format      ascii;
    arch        "LSB;label=64;scalar=64";
    class       surfaceScalarField;
    location    "0.31";
    object      phi;
}
// * * * * * * * * * * * * * * * * * * * * * * * * * * * * * * * * * * * * * //

dimensions      [0 3 -1 0 0 0 0];

oriented        oriented;

internalField   nonuniform List<scalar> 
65152
(
-1.79829e-12
1.79829e-12
-5.53291e-12
3.73464e-12
-9.5778e-12
4.04489e-12
-1.31936e-11
3.6158e-12
-1.63005e-11
3.10694e-12
-1.90547e-11
2.75415e-12
-2.1611e-11
2.55638e-12
-2.40616e-11
2.45059e-12
-2.64471e-11
2.38553e-12
-2.87806e-11
2.33346e-12
-3.10631e-11
2.28247e-12
-3.32913e-11
2.22828e-12
-3.54611e-11
2.16974e-12
-3.75677e-11
2.10666e-12
-3.96068e-11
2.0391e-12
-4.15739e-11
1.96711e-12
-4.34647e-11
1.89079e-12
-4.5275e-11
1.81023e-12
-4.70003e-11
1.7253e-12
-4.86366e-11
1.63637e-12
-5.01799e-11
1.54324e-12
-5.1626e-11
1.44607e-12
-5.29706e-11
1.3446e-12
-5.42097e-11
1.23913e-12
-5.53394e-11
1.12965e-12
-5.63556e-11
1.01627e-12
-5.72545e-11
8.98834e-13
-5.80319e-11
7.77416e-13
-5.8684e-11
6.52072e-13
-5.92069e-11
5.22842e-13
-5.95966e-11
3.89756e-13
-5.98494e-11
2.52711e-13
-5.99619e-11
1.12475e-13
-5.99311e-11
-3.08365e-14
-5.97546e-11
-1.76539e-13
-5.94312e-11
-3.23378e-13
-5.89604e-11
-4.70796e-13
-5.8342e-11
-6.18432e-13
-5.7576e-11
-7.66119e-13
-5.6662e-11
-9.13988e-13
-5.56008e-11
-1.06127e-12
-5.43931e-11
-1.20776e-12
-5.30399e-11
-1.35318e-12
-5.15428e-11
-1.49711e-12
-4.99038e-11
-1.63907e-12
-4.81251e-11
-1.77875e-12
-4.62099e-11
-1.91523e-12
-4.41617e-11
-2.04823e-12
-4.19846e-11
-2.17719e-12
-3.96832e-11
-2.30146e-12
-3.72625e-11
-2.42068e-12
-3.47285e-11
-2.5341e-12
-3.20872e-11
-2.64132e-12
-2.93454e-11
-2.74187e-12
-2.65104e-11
-2.83502e-12
-2.359e-11
-2.92046e-12
-2.05923e-11
-2.99777e-12
-1.75258e-11
-3.06655e-12
-1.43994e-11
-3.12644e-12
-1.12223e-11
-3.17716e-12
-8.00393e-12
-3.21839e-12
-4.75438e-12
-3.24959e-12
-1.48476e-12
-3.26967e-12
1.79247e-12
-3.27728e-12
5.06458e-12
-3.27216e-12
8.32012e-12
-3.25559e-12
1.15491e-11
-3.22907e-12
1.47427e-11
-3.19357e-12
1.7892e-11
-3.1494e-12
2.09887e-11
-3.09672e-12
2.40242e-11
-3.0356e-12
2.69903e-11
-2.96613e-12
2.98788e-11
-2.88852e-12
3.26818e-11
-2.80312e-12
3.53921e-11
-2.71029e-12
3.80024e-11
-2.61034e-12
4.05061e-11
-2.5038e-12
4.28972e-11
-2.39116e-12
4.517e-11
-2.27281e-12
4.73192e-11
-2.14924e-12
4.93401e-11
-2.02102e-12
5.12287e-11
-1.88866e-12
5.29813e-11
-1.75263e-12
5.45947e-11
-1.61344e-12
5.60662e-11
-1.47161e-12
5.73938e-11
-1.32766e-12
5.85756e-11
-1.18183e-12
5.961e-11
-1.03444e-12
6.04959e-11
-8.86022e-13
6.12326e-11
-7.36791e-13
6.18195e-11
-5.86955e-13
6.22562e-11
-4.36722e-13
6.25424e-11
-2.863e-13
6.26784e-11
-1.36085e-13
6.26657e-11
1.2704e-14
6.2505e-11
1.60559e-13
6.2201e-11
3.04029e-13
6.17578e-11
4.43116e-13
6.11795e-11
5.78172e-13
6.04703e-11
7.09187e-13
5.96339e-11
8.36298e-13
5.86747e-11
9.59148e-13
5.75966e-11
1.07798e-12
5.64037e-11
1.19292e-12
5.50996e-11
1.30398e-12
5.36884e-11
1.4111e-12
5.2174e-11
1.51439e-12
5.05605e-11
1.61344e-12
4.88519e-11
1.70846e-12
4.70524e-11
1.79943e-12
4.51662e-11
1.88614e-12
4.31974e-11
1.96878e-12
4.11501e-11
2.0472e-12
3.90288e-11
2.12122e-12
3.6838e-11
2.19077e-12
3.45819e-11
2.256e-12
3.22653e-11
2.31649e-12
2.98927e-11
2.37256e-12
2.74672e-11
2.42543e-12
2.49878e-11
2.47933e-12
2.24414e-11
2.54628e-12
1.9787e-11
2.6544e-12
1.6931e-11
2.85593e-12
1.37149e-11
3.21598e-12
9.97616e-12
3.73868e-12
5.78779e-12
4.18829e-12
1.89896e-12
3.88874e-12
1.89894e-12
-2.00822e-12
3.80652e-12
-5.90701e-12
7.63344e-12
-9.69854e-12
7.83643e-12
-1.25554e-11
6.47272e-12
-1.45078e-11
5.05928e-12
-1.58672e-11
4.11362e-12
-1.69092e-11
3.59833e-12
-1.77974e-11
3.33883e-12
-1.86104e-11
3.19848e-12
-1.938e-11
3.10315e-12
-2.01179e-11
3.02031e-12
-2.08272e-11
2.93764e-12
-2.1509e-11
2.85154e-12
-2.21631e-11
2.76075e-12
-2.2789e-11
2.66503e-12
-2.33862e-11
2.56429e-12
-2.39539e-11
2.45849e-12
-2.44915e-11
2.34783e-12
-2.49986e-11
2.23237e-12
-2.54738e-11
2.11164e-12
-2.59164e-11
1.98576e-12
-2.63249e-11
1.85457e-12
-2.6699e-11
1.71869e-12
-2.70373e-11
1.57747e-12
-2.73386e-11
1.43088e-12
-2.76011e-11
1.2788e-12
-2.78239e-11
1.12156e-12
-2.80056e-11
9.59169e-13
-2.8145e-11
7.91455e-13
-2.82407e-11
6.18456e-13
-2.82914e-11
4.40424e-13
-2.82965e-11
2.57773e-13
-2.82546e-11
7.05218e-14
-2.81634e-11
-1.22055e-13
-2.80226e-11
-3.17401e-13
-2.78308e-11
-5.15151e-13
-2.75861e-11
-7.15522e-13
-2.72865e-11
-9.18157e-13
-2.69301e-11
-1.12257e-12
-2.65161e-11
-1.32797e-12
-2.60427e-11
-1.5347e-12
-2.55085e-11
-1.742e-12
-2.49127e-11
-1.94907e-12
-2.42546e-11
-2.15527e-12
-2.35339e-11
-2.3598e-12
-2.27511e-11
-2.56159e-12
-2.1906e-11
-2.76045e-12
-2.0999e-11
-2.95526e-12
-2.00315e-11
-3.14477e-12
-1.90045e-11
-3.32852e-12
-1.79198e-11
-3.50544e-12
-1.67793e-11
-3.67458e-12
-1.55857e-11
-3.83503e-12
-1.43419e-11
-3.98567e-12
-1.3051e-11
-4.12606e-12
-1.17164e-11
-4.25506e-12
-1.03423e-11
-4.37197e-12
-8.93278e-12
-4.47609e-12
-7.49246e-12
-4.56682e-12
-6.026e-12
-4.64368e-12
-4.5385e-12
-4.70594e-12
-3.03528e-12
-4.75287e-12
-1.52227e-12
-4.78275e-12
-5.30003e-15
-4.79431e-12
1.51015e-12
-4.78767e-12
3.01889e-12
-4.7644e-12
4.5162e-12
-4.72644e-12
5.99748e-12
-4.6749e-12
7.45846e-12
-4.61045e-12
8.89498e-12
-4.53331e-12
1.0303e-11
-4.44366e-12
1.16785e-11
-4.34176e-12
1.3018e-11
-4.22803e-12
1.43177e-11
-4.10289e-12
1.55742e-11
-3.9669e-12
1.6785e-11
-3.82112e-12
1.79471e-11
-3.66605e-12
1.90581e-11
-3.50215e-12
2.01155e-11
-3.33028e-12
2.11175e-11
-3.15134e-12
2.20626e-11
-2.96616e-12
2.29494e-11
-2.77561e-12
2.37771e-11
-2.58034e-12
2.45447e-11
-2.38117e-12
2.52518e-11
-2.17881e-12
2.58982e-11
-1.97407e-12
2.64841e-11
-1.7678e-12
2.70098e-11
-1.56029e-12
2.74755e-11
-1.35175e-12
2.78815e-11
-1.14287e-12
2.82287e-11
-9.34262e-13
2.85182e-11
-7.26335e-13
2.87515e-11
-5.19652e-13
2.89304e-11
-3.15104e-13
2.90555e-11
-1.1244e-13
2.91281e-11
8.7834e-14
2.91507e-11
2.81387e-13
2.91236e-11
4.70154e-13
2.90481e-11
6.53571e-13
2.89258e-11
8.31319e-13
2.87586e-11
1.00345e-12
2.85475e-11
1.1702e-12
2.82935e-11
1.33186e-12
2.79984e-11
1.4879e-12
2.76633e-11
1.63905e-12
2.72895e-11
1.7848e-12
2.68782e-11
1.92564e-12
2.64302e-11
2.06127e-12
2.5947e-11
2.1916e-12
2.54283e-11
2.31803e-12
2.48759e-11
2.43848e-12
2.42908e-11
2.55379e-12
2.36728e-11
2.6651e-12
2.30231e-11
2.77083e-12
2.23421e-11
2.87161e-12
2.16304e-11
2.96761e-12
2.08883e-11
3.05854e-12
2.0115e-11
3.14577e-12
1.93071e-11
3.23318e-12
1.84533e-11
3.33304e-12
1.75215e-11
3.47805e-12
1.64324e-11
3.74335e-12
1.50201e-11
4.26822e-12
1.30035e-11
5.23243e-12
1.00608e-11
6.68135e-12
6.1502e-12
8.09876e-12
2.10646e-12
7.93237e-12
4.00538e-12
-1.77548e-12
5.58201e-12
-4.92703e-12
1.0785e-11
-7.64176e-12
1.05512e-11
-9.26035e-12
8.09133e-12
-9.907e-12
5.70594e-12
-9.93709e-12
4.14371e-12
-9.64577e-12
3.30702e-12
-9.20682e-12
2.89989e-12
-8.70363e-12
2.69529e-12
-8.17237e-12
2.5719e-12
-7.62794e-12
2.47589e-12
-7.07701e-12
2.38672e-12
-6.52312e-12
2.29765e-12
-5.96929e-12
2.20693e-12
-5.41747e-12
2.11321e-12
-4.87009e-12
2.01692e-12
-4.32961e-12
1.918e-12
-3.79768e-12
1.8159e-12
-3.27576e-12
1.71046e-12
-2.76588e-12
1.60176e-12
-2.26977e-12
1.48964e-12
-1.78929e-12
1.37409e-12
-1.32526e-12
1.25465e-12
-8.79259e-13
1.13146e-12
-4.52727e-13
1.00433e-12
-4.70713e-14
8.73131e-13
3.3663e-13
7.3784e-13
6.97682e-13
5.98098e-13
1.03476e-12
4.54353e-13
1.34678e-12
3.06415e-13
1.63249e-12
1.5468e-13
1.89101e-12
-7.81845e-16
2.12084e-12
-1.59343e-13
2.32046e-12
-3.21705e-13
2.49063e-12
-4.87617e-13
2.63245e-12
-6.57007e-13
2.74667e-12
-8.29795e-13
2.83422e-12
-1.00575e-12
2.89598e-12
-1.18437e-12
2.93372e-12
-1.36577e-12
2.94803e-12
-1.54906e-12
2.93965e-12
-1.73367e-12
2.9103e-12
-1.91978e-12
2.86079e-12
-2.10582e-12
2.79222e-12
-2.29128e-12
2.7062e-12
-2.47562e-12
2.60356e-12
-2.65787e-12
2.48552e-12
-2.83728e-12
2.3535e-12
-3.01281e-12
2.20796e-12
-3.18303e-12
2.05085e-12
-3.34839e-12
1.88256e-12
-3.50635e-12
1.70466e-12
-3.6572e-12
1.51814e-12
-3.79921e-12
1.32315e-12
-3.93113e-12
1.12131e-12
-4.05329e-12
9.12942e-13
-4.16366e-12
6.98654e-13
-4.26186e-12
4.78887e-13
-4.34712e-12
2.53913e-13
-4.41876e-12
2.4498e-14
-4.47659e-12
-2.09181e-13
-4.51926e-12
-4.45392e-13
-4.5466e-12
-6.81933e-13
-4.55783e-12
-9.16479e-13
-4.55319e-12
-1.14694e-12
-4.534e-12
-1.37189e-12
-4.50156e-12
-1.59015e-12
-4.45671e-12
-1.80085e-12
-4.39982e-12
-2.00313e-12
-4.33109e-12
-2.19611e-12
-4.25075e-12
-2.37884e-12
-4.1591e-12
-2.55042e-12
-4.05652e-12
-2.70984e-12
-3.94353e-12
-2.8561e-12
-3.82072e-12
-2.98852e-12
-3.68876e-12
-3.10596e-12
-3.54869e-12
-3.20736e-12
-3.40082e-12
-3.29188e-12
-3.24583e-12
-3.3588e-12
-3.08449e-12
-3.4074e-12
-2.91765e-12
-3.43699e-12
-2.74609e-12
-3.44703e-12
-2.57038e-12
-3.43658e-12
-2.3917e-12
-3.40524e-12
-2.21024e-12
-3.35269e-12
-2.0267e-12
-3.27864e-12
-1.84192e-12
-3.18292e-12
-1.65609e-12
-3.06468e-12
-1.47008e-12
-2.92361e-12
-1.28402e-12
-2.75943e-12
-1.09853e-12
-2.57163e-12
-9.14225e-13
-2.35974e-12
-7.31628e-13
-2.12345e-12
-5.51485e-13
-1.86159e-12
-3.74385e-13
-1.57277e-12
-2.01072e-13
-1.25965e-12
-3.182e-14
-9.22707e-13
1.3312e-13
-5.63613e-13
2.94387e-13
-1.83581e-13
4.51199e-13
2.16395e-13
6.03383e-13
6.34947e-13
7.51557e-13
1.07193e-12
8.94789e-13
1.52589e-12
1.03384e-12
1.99565e-12
1.1692e-12
2.47909e-12
1.30127e-12
2.97634e-12
1.4283e-12
3.48444e-12
1.55309e-12
4.0022e-12
1.67374e-12
4.52946e-12
1.79068e-12
5.06262e-12
1.90523e-12
5.59984e-12
2.01647e-12
6.14101e-12
2.12384e-12
6.68207e-12
2.22967e-12
7.22153e-12
2.33205e-12
7.75877e-12
2.43028e-12
8.28937e-12
2.52785e-12
8.80977e-12
2.62526e-12
9.314e-12
2.72886e-12
9.78706e-12
2.85989e-12
1.01927e-11
3.07229e-12
1.04466e-11
3.48934e-12
1.03732e-11
4.34151e-12
9.6725e-12
5.93308e-12
7.97892e-12
8.37484e-12
5.15666e-12
1.09209e-11
1.87052e-12
1.12184e-11
5.87588e-12
-1.71457e-12
7.2966e-12
-4.65097e-12
1.37214e-11
-7.02874e-12
1.2929e-11
-8.24754e-12
9.31014e-12
-8.47236e-12
5.93077e-12
-8.0769e-12
3.74827e-12
-7.36329e-12
2.59341e-12
-6.50625e-12
2.04286e-12
-5.58982e-12
1.77888e-12
-4.64895e-12
1.63103e-12
-3.70127e-12
1.52821e-12
-2.75445e-12
1.43991e-12
-1.81106e-12
1.35427e-12
-8.76707e-13
1.27258e-12
4.75152e-14
1.18899e-12
9.56708e-13
1.10773e-12
1.84829e-12
1.02642e-12
2.71957e-12
9.44622e-13
3.56847e-12
8.61549e-13
4.39181e-12
7.78416e-13
5.1873e-12
6.94151e-13
5.95199e-12
6.09389e-13
6.68436e-12
5.22277e-13
7.38234e-12
4.33462e-13
8.04339e-12
3.43269e-13
8.66629e-12
2.50224e-13
9.24727e-12
1.56836e-13
9.7868e-12
5.8554e-14
1.02825e-11
-4.14195e-14
1.07326e-11
-1.43695e-13
1.11354e-11
-2.48082e-13
1.14894e-11
-3.54882e-13
1.17942e-11
-4.6417e-13
1.20488e-11
-5.7631e-13
1.22526e-11
-6.91479e-13
1.24053e-11
-8.09756e-13
1.25067e-11
-9.31237e-13
1.25569e-11
-1.05598e-12
1.25563e-11
-1.1838e-12
1.25042e-11
-1.31376e-12
1.24016e-11
-1.44649e-12
1.22494e-11
-1.58149e-12
1.20481e-11
-1.71853e-12
1.17981e-11
-1.85588e-12
1.1501e-11
-1.99423e-12
1.11579e-11
-2.13264e-12
1.07706e-11
-2.27053e-12
1.03409e-11
-2.40763e-12
9.86998e-12
-2.542e-12
9.3596e-12
-2.67271e-12
8.81109e-12
-2.79994e-12
8.22742e-12
-2.92274e-12
7.61035e-12
-3.04019e-12
6.96304e-12
-3.15196e-12
6.28721e-12
-3.25536e-12
5.58381e-12
-3.34994e-12
4.85625e-12
-3.43616e-12
4.10698e-12
-3.51265e-12
3.3386e-12
-3.5788e-12
2.55405e-12
-3.63427e-12
1.75544e-12
-3.67805e-12
9.45869e-13
-3.70975e-12
1.2895e-13
-3.72974e-12
-6.90644e-13
-3.7383e-12
-1.50812e-12
-3.73577e-12
-2.31885e-12
-3.72333e-12
-3.11872e-12
-3.70175e-12
-3.90419e-12
-3.67131e-12
-4.67202e-12
-3.63205e-12
-5.41924e-12
-3.58394e-12
-6.14295e-12
-3.5271e-12
-6.84031e-12
-3.46181e-12
-7.50854e-12
-3.38836e-12
-8.14522e-12
-3.30691e-12
-8.74783e-12
-3.21818e-12
-9.31391e-12
-3.12275e-12
-9.84155e-12
-3.02112e-12
-1.03288e-11
-2.91366e-12
-1.07732e-11
-2.80148e-12
-1.11744e-11
-2.68333e-12
-1.15307e-11
-2.56149e-12
-1.18406e-11
-2.43628e-12
-1.21023e-11
-2.30871e-12
-1.23165e-11
-2.17758e-12
-1.24813e-11
-2.04552e-12
-1.25976e-11
-1.91049e-12
-1.26641e-11
-1.77546e-12
-1.26813e-11
-1.639e-12
-1.26489e-11
-1.50255e-12
-1.25676e-11
-1.36542e-12
-1.24374e-11
-1.22885e-12
-1.22587e-11
-1.09303e-12
-1.20319e-11
-9.5851e-13
-1.17576e-11
-8.25866e-13
-1.14363e-11
-6.95794e-13
-1.10687e-11
-5.68708e-13
-1.06559e-11
-4.44665e-13
-1.01992e-11
-3.23728e-13
-9.69909e-12
-2.0579e-13
-9.1572e-12
-9.07778e-14
-8.57593e-12
2.20249e-14
-7.95746e-12
1.32996e-13
-7.30196e-12
2.39206e-13
-6.61179e-12
3.43583e-13
-5.8891e-12
4.46416e-13
-5.13652e-12
5.48605e-13
-4.35558e-12
6.47272e-13
-3.54914e-12
7.46557e-13
-2.71933e-12
8.43838e-13
-1.86765e-12
9.38912e-13
-9.98193e-13
1.03568e-12
-1.13625e-13
1.13181e-12
7.83834e-13
1.22629e-12
1.69266e-12
1.32075e-12
2.60744e-12
1.41717e-12
3.52635e-12
1.51127e-12
4.44681e-12
1.6073e-12
5.36248e-12
1.7095e-12
6.26774e-12
1.82351e-12
7.14518e-12
1.98235e-12
7.96022e-12
2.25716e-12
8.62744e-12
2.82202e-12
8.96909e-12
3.99977e-12
8.68187e-12
6.2202e-12
7.38016e-12
9.67647e-12
4.88757e-12
1.34134e-11
1.81192e-12
1.4294e-11
7.68778e-12
-1.77052e-12
9.06713e-12
-4.76636e-12
1.67173e-11
-7.15606e-12
1.53187e-11
-8.33565e-12
1.04897e-11
-8.489e-12
6.08413e-12
-8.00691e-12
3.26618e-12
-7.20038e-12
1.7869e-12
-6.24709e-12
1.08957e-12
-5.23422e-12
7.66026e-13
-4.20121e-12
5.98028e-13
-3.16099e-12
4.87999e-13
-2.12216e-12
4.01081e-13
-1.09125e-12
3.23368e-13
-6.97143e-14
2.51052e-13
9.36073e-13
1.83205e-13
1.9235e-12
1.20307e-13
2.89249e-12
5.74357e-14
3.83854e-12
-1.43438e-15
4.75976e-12
-5.96621e-14
5.65219e-12
-1.14018e-13
6.51301e-12
-1.6667e-13
7.34038e-12
-2.17994e-13
8.13107e-12
-2.68421e-13
8.88278e-12
-3.18251e-13
9.5938e-12
-3.67768e-13
1.02614e-11
-4.17344e-13
1.08853e-11
-4.67159e-13
1.14617e-11
-5.17777e-13
1.19894e-11
-5.69232e-13
1.24674e-11
-6.21683e-13
1.28946e-11
-6.75296e-13
1.327e-11
-7.30274e-13
1.35926e-11
-7.86834e-13
1.38615e-11
-8.45299e-13
1.40763e-11
-9.06299e-13
1.42362e-11
-9.69694e-13
1.43408e-11
-1.03589e-12
1.43897e-11
-1.10489e-12
1.43824e-11
-1.17659e-12
1.43196e-11
-1.25097e-12
1.42013e-11
-1.32827e-12
1.40276e-11
-1.40785e-12
1.37992e-11
-1.49018e-12
1.3518e-11
-1.57474e-12
1.31839e-11
-1.66017e-12
1.27987e-11
-1.74742e-12
1.23637e-11
-1.8356e-12
1.18809e-11
-1.9249e-12
1.13516e-11
-2.01279e-12
1.07781e-11
-2.09925e-12
1.01625e-11
-2.18443e-12
9.50684e-12
-2.26709e-12
8.81332e-12
-2.34673e-12
8.0841e-12
-2.4228e-12
7.3223e-12
-2.49362e-12
6.53128e-12
-2.55898e-12
5.71289e-12
-2.61783e-12
4.86934e-12
-2.66916e-12
4.00382e-12
-2.71334e-12
3.11905e-12
-2.74956e-12
2.21847e-12
-2.77753e-12
1.30597e-12
-2.79731e-12
3.85589e-13
-2.80942e-12
-5.3811e-13
-2.81466e-12
-1.46023e-12
-2.81371e-12
-2.37575e-12
-2.80788e-12
-3.28017e-12
-2.79739e-12
-4.16927e-12
-2.78227e-12
-5.03907e-12
-2.7623e-12
-5.88604e-12
-2.73704e-12
-6.70706e-12
-2.70615e-12
-7.49841e-12
-2.67052e-12
-8.25619e-12
-2.63065e-12
-8.97997e-12
-2.5832e-12
-9.66607e-12
-2.53215e-12
-1.03116e-11
-2.47729e-12
-1.09127e-11
-2.42006e-12
-1.14706e-11
-2.35583e-12
-1.19808e-11
-2.29138e-12
-1.2443e-11
-2.22121e-12
-1.28534e-11
-2.15115e-12
-1.32131e-11
-2.07672e-12
-1.35208e-11
-2.00102e-12
-1.37739e-11
-1.92453e-12
-1.39739e-11
-1.84563e-12
-1.41187e-11
-1.76578e-12
-1.42098e-11
-1.68446e-12
-1.42459e-11
-1.60292e-12
-1.42278e-11
-1.52073e-12
-1.41553e-11
-1.43802e-12
-1.40291e-11
-1.35519e-12
-1.38498e-11
-1.27235e-12
-1.36183e-11
-1.19011e-12
-1.33353e-11
-1.10893e-12
-1.30016e-11
-1.02962e-12
-1.26181e-11
-9.52327e-13
-1.21857e-11
-8.7713e-13
-1.17055e-11
-8.03999e-13
-1.11787e-11
-7.32721e-13
-1.06065e-11
-6.62992e-13
-9.99015e-12
-5.94444e-13
-9.33043e-12
-5.268e-13
-8.63136e-12
-4.59953e-13
-7.89454e-12
-3.93331e-13
-7.12172e-12
-3.26483e-13
-6.31416e-12
-2.59051e-13
-5.4761e-12
-1.90872e-13
-4.6082e-12
-1.21431e-13
-3.71389e-12
-5.05592e-14
-2.79723e-12
2.21594e-14
-1.86065e-12
9.90051e-14
-9.03973e-13
1.75045e-13
6.43437e-14
2.57879e-13
1.04655e-12
3.3845e-13
2.03846e-12
4.25174e-13
3.03588e-12
5.13757e-13
4.03418e-12
6.08906e-13
5.03224e-12
7.11336e-13
6.01672e-12
8.38935e-13
6.9765e-12
1.02248e-12
7.87446e-12
1.3591e-12
8.62065e-12
2.07574e-12
9.03811e-12
3.58222e-12
8.80552e-12
6.4527e-12
7.52958e-12
1.09523e-11
5.0147e-12
1.59282e-11
1.87121e-12
1.74373e-11
9.55897e-12
-1.85778e-12
1.09249e-11
-4.99471e-12
1.98542e-11
-7.49501e-12
1.7819e-11
-8.73121e-12
1.17259e-11
-8.89571e-12
6.24864e-12
-8.40184e-12
2.77233e-12
-7.56743e-12
9.52497e-13
-6.58366e-12
1.05803e-13
-5.53607e-12
-2.81555e-13
-4.46672e-12
-4.71304e-13
-3.39322e-12
-5.855e-13
-2.32278e-12
-6.69348e-13
-1.26046e-12
-7.38941e-13
-2.10263e-13
-7.99141e-13
8.25933e-13
-8.52986e-13
1.84521e-12
-8.98966e-13
2.84179e-12
-9.39138e-13
3.81399e-12
-9.73637e-13
4.75729e-12
-1.00295e-12
5.67051e-12
-1.02724e-12
6.55087e-12
-1.04704e-12
7.39574e-12
-1.06286e-12
8.20255e-12
-1.07523e-12
8.96893e-12
-1.08464e-12
9.69272e-12
-1.09156e-12
1.03718e-11
-1.09647e-12
1.10045e-11
-1.09984e-12
1.15888e-11
-1.10211e-12
1.21233e-11
-1.1037e-12
1.26066e-11
-1.105e-12
1.30376e-11
-1.10636e-12
1.34155e-11
-1.10817e-12
1.37394e-11
-1.11077e-12
1.40086e-11
-1.11456e-12
1.42227e-11
-1.12039e-12
1.43811e-11
-1.12813e-12
1.44836e-11
-1.13848e-12
1.45298e-11
-1.1511e-12
1.45198e-11
-1.16666e-12
1.44538e-11
-1.18498e-12
1.43321e-11
-1.20666e-12
1.41549e-11
-1.23073e-12
1.39246e-11
-1.25985e-12
1.36397e-11
-1.28989e-12
1.33025e-11
-1.32307e-12
1.29155e-11
-1.36052e-12
1.24794e-11
-1.39948e-12
1.19941e-11
-1.43966e-12
1.14632e-11
-1.48192e-12
1.08893e-11
-1.52549e-12
1.02758e-11
-1.571e-12
9.6219e-12
-1.61321e-12
8.93029e-12
-1.65517e-12
8.20382e-12
-1.69638e-12
7.44579e-12
-1.73564e-12
6.65834e-12
-1.77159e-12
5.84397e-12
-1.80351e-12
5.00603e-12
-1.83127e-12
4.14702e-12
-1.85438e-12
3.26987e-12
-1.87246e-12
2.37772e-12
-1.88544e-12
1.47408e-12
-1.89372e-12
5.62746e-13
-1.89815e-12
-3.5209e-13
-1.89988e-12
-1.26584e-12
-1.90002e-12
-2.17443e-12
-1.89935e-12
-3.07321e-12
-1.89867e-12
-3.95761e-12
-1.89794e-12
-4.82251e-12
-1.89746e-12
-5.6639e-12
-1.89571e-12
-6.48225e-12
-1.88787e-12
-7.27181e-12
-1.88102e-12
-8.02955e-12
-1.87297e-12
-8.75249e-12
-1.86032e-12
-9.43748e-12
-1.84724e-12
-1.00836e-11
-1.8312e-12
-1.06866e-11
-1.81716e-12
-1.1246e-11
-1.79651e-12
-1.17598e-11
-1.7777e-12
-1.22244e-11
-1.75658e-12
-1.26407e-11
-1.73494e-12
-1.30052e-11
-1.71237e-12
-1.33177e-11
-1.6886e-12
-1.35767e-11
-1.66557e-12
-1.37832e-11
-1.63918e-12
-1.39352e-11
-1.61386e-12
-1.40315e-11
-1.58826e-12
-1.4074e-11
-1.56055e-12
-1.40615e-11
-1.5333e-12
-1.39949e-11
-1.5047e-12
-1.38744e-11
-1.47578e-12
-1.37002e-11
-1.44661e-12
-1.3473e-11
-1.41743e-12
-1.31933e-11
-1.38875e-12
-1.28618e-11
-1.36119e-12
-1.24793e-11
-1.33493e-12
-1.20466e-11
-1.30988e-12
-1.15648e-11
-1.2859e-12
-1.1035e-11
-1.26262e-12
-1.04585e-11
-1.23955e-12
-9.83685e-12
-1.21618e-12
-9.17172e-12
-1.19202e-12
-8.46521e-12
-1.16655e-12
-7.71938e-12
-1.13925e-12
-6.93636e-12
-1.10959e-12
-6.11841e-12
-1.07709e-12
-5.2681e-12
-1.04127e-12
-4.38794e-12
-1.00167e-12
-3.48074e-12
-9.57853e-13
-2.54932e-12
-9.09353e-13
-1.59468e-12
-8.55724e-13
-6.22766e-13
-7.9696e-13
3.67378e-13
-7.32358e-13
1.36778e-12
-6.6205e-13
2.3785e-12
-5.85634e-13
3.39446e-12
-5.02304e-13
4.41383e-12
-4.10557e-13
5.42992e-12
-3.04848e-13
6.43879e-12
-1.70025e-13
7.42079e-12
4.03879e-14
8.33266e-12
4.47137e-13
9.09004e-12
1.31826e-12
9.50228e-12
3.1699e-12
9.24501e-12
6.70988e-12
7.8968e-12
1.23004e-11
5.25737e-12
1.85675e-11
1.96267e-12
2.0732e-11
1.15216e-11
-1.96138e-12
1.28863e-11
-5.27337e-12
2.31662e-11
-7.91835e-12
2.0464e-11
-9.23903e-12
1.30466e-11
-9.43368e-12
6.4433e-12
-8.92921e-12
2.26787e-12
-8.06992e-12
9.32235e-14
-7.04688e-12
-9.17222e-13
-5.96414e-12
-1.36429e-12
-4.85948e-12
-1.57595e-12
-3.75018e-12
-1.69479e-12
-2.64438e-12
-1.77514e-12
-1.54728e-12
-1.83604e-12
-4.62441e-13
-1.88397e-12
6.04297e-13
-1.91972e-12
1.65194e-12
-1.9466e-12
2.67668e-12
-1.96388e-12
3.67524e-12
-1.97219e-12
4.64441e-12
-1.97212e-12
5.58142e-12
-1.96425e-12
6.48353e-12
-1.94915e-12
7.34814e-12
-1.92747e-12
8.17273e-12
-1.89983e-12
8.95496e-12
-1.86688e-12
9.69264e-12
-1.82925e-12
1.03837e-11
-1.78759e-12
1.10264e-11
-1.74254e-12
1.1619e-11
-1.69471e-12
1.216e-11
-1.64472e-12
1.26482e-11
-1.59316e-12
1.30824e-11
-1.54061e-12
1.34618e-11
-1.48761e-12
1.37857e-11
-1.43472e-12
1.40535e-11
-1.38233e-12
1.42649e-11
-1.33189e-12
1.44198e-11
-1.28301e-12
1.45177e-11
-1.2365e-12
1.45595e-11
-1.19291e-12
1.45448e-11
-1.15203e-12
1.44738e-11
-1.11401e-12
1.43469e-11
-1.07978e-12
1.41658e-11
-1.04969e-12
1.39296e-11
-1.02373e-12
1.3641e-11
-1.00133e-12
1.3302e-11
-9.84086e-13
1.2912e-11
-9.70538e-13
1.24733e-11
-9.6085e-13
1.19896e-11
-9.55979e-13
1.14638e-11
-9.562e-13
1.08928e-11
-9.546e-13
1.0283e-11
-9.61194e-13
9.63466e-12
-9.64934e-13
8.95073e-12
-9.71302e-13
8.23414e-12
-9.79838e-13
7.49009e-12
-9.91651e-13
6.71837e-12
-9.99912e-13
5.91892e-12
-1.00412e-12
5.09626e-12
-1.00866e-12
4.25345e-12
-1.01163e-12
3.39335e-12
-1.01241e-12
2.51904e-12
-1.01119e-12
1.63403e-12
-1.00876e-12
7.41924e-13
-1.0061e-12
-1.5275e-13
-1.00526e-12
-1.04706e-12
-1.00577e-12
-1.93729e-12
-1.00918e-12
-2.81886e-12
-1.01716e-12
-3.68697e-12
-1.02989e-12
-4.53814e-12
-1.04635e-12
-5.36581e-12
-1.06809e-12
-6.17019e-12
-1.08356e-12
-6.94754e-12
-1.10374e-12
-7.69251e-12
-1.12807e-12
-8.4068e-12
-1.1461e-12
-9.08218e-12
-1.17193e-12
-9.72183e-12
-1.19162e-12
-1.03196e-11
-1.2195e-12
-1.08757e-11
-1.24043e-12
-1.13868e-11
-1.26667e-12
-1.18503e-11
-1.29316e-12
-1.22658e-11
-1.31953e-12
-1.26325e-11
-1.34579e-12
-1.29475e-11
-1.3736e-12
-1.32127e-11
-1.40049e-12
-1.34238e-11
-1.42819e-12
-1.35811e-11
-1.45667e-12
-1.36855e-11
-1.48386e-12
-1.37342e-11
-1.51198e-12
-1.37296e-11
-1.53795e-12
-1.36705e-11
-1.56393e-12
-1.35572e-11
-1.58917e-12
-1.33897e-11
-1.61416e-12
-1.31686e-11
-1.63867e-12
-1.28939e-11
-1.66345e-12
-1.25663e-11
-1.68893e-12
-1.21863e-11
-1.71503e-12
-1.17547e-11
-1.74153e-12
-1.12726e-11
-1.76809e-12
-1.07411e-11
-1.79417e-12
-1.01617e-11
-1.81911e-12
-9.53576e-12
-1.84219e-12
-8.86514e-12
-1.86272e-12
-8.15175e-12
-1.88003e-12
-7.39767e-12
-1.89342e-12
-6.60509e-12
-1.90226e-12
-5.77636e-12
-1.9059e-12
-4.91398e-12
-1.90374e-12
-4.02054e-12
-1.8952e-12
-3.09875e-12
-1.87973e-12
-2.15138e-12
-1.85681e-12
-1.18123e-12
-1.82597e-12
-1.91503e-13
-1.78678e-12
8.14828e-13
-1.73878e-12
1.83464e-12
-1.68195e-12
2.86436e-12
-1.61545e-12
3.9002e-12
-1.53824e-12
4.9388e-12
-1.44926e-12
5.97615e-12
-1.34229e-12
7.00341e-12
-1.19738e-12
8.00382e-12
-9.60114e-13
8.93837e-12
-4.8751e-13
9.7027e-12
5.5383e-13
1.01042e-11
2.76833e-12
9.79973e-12
7.01424e-12
8.35198e-12
1.37481e-11
5.55233e-12
2.13671e-11
2.07109e-12
2.42131e-11
1.35927e-11
-2.08189e-12
1.49682e-11
-5.59769e-12
2.6682e-11
-8.41161e-12
2.32779e-11
-9.82323e-12
1.44583e-11
-1.00481e-11
6.66818e-12
-9.53217e-12
1.75196e-12
-8.63252e-12
-8.0642e-13
-7.56773e-12
-1.982e-12
-6.43584e-12
-2.49616e-12
-5.28099e-12
-2.73079e-12
-4.12203e-12
-2.85373e-12
-2.96769e-12
-2.92947e-12
-1.82369e-12
-2.98004e-12
-6.94381e-13
-3.01327e-12
4.17933e-13
-3.03202e-12
1.50835e-12
-3.03701e-12
2.57365e-12
-3.02917e-12
3.61063e-12
-3.00916e-12
4.61617e-12
-2.97765e-12
5.58727e-12
-2.93535e-12
6.52111e-12
-2.88299e-12
7.41499e-12
-2.82135e-12
8.26637e-12
-2.75121e-12
9.07286e-12
-2.67337e-12
9.83227e-12
-2.58866e-12
1.05426e-11
-2.49789e-12
1.12019e-11
-2.40188e-12
1.18086e-11
-2.30145e-12
1.23613e-11
-2.19741e-12
1.28587e-11
-2.09056e-12
1.32997e-11
-1.9817e-12
1.36837e-11
-1.87159e-12
1.40099e-11
-1.76094e-12
1.42779e-11
-1.65043e-12
1.44877e-11
-1.54164e-12
1.46391e-11
-1.43452e-12
1.47324e-11
-1.3298e-12
1.47677e-11
-1.22822e-12
1.47458e-11
-1.13017e-12
1.46667e-11
-1.03499e-12
1.45315e-11
-9.4459e-13
1.43415e-11
-8.59795e-13
1.40989e-11
-7.81147e-13
1.38023e-11
-7.04757e-13
1.34558e-11
-6.37627e-13
1.30592e-11
-5.74063e-13
1.26156e-11
-5.17269e-13
1.21257e-11
-4.66066e-13
1.15903e-11
-4.2086e-13
1.10199e-11
-3.84265e-13
1.04051e-11
-3.46451e-13
9.76002e-12
-3.19913e-13
9.0777e-12
-2.89035e-13
8.36397e-12
-2.66157e-13
7.62085e-12
-2.48586e-13
6.85375e-12
-2.32861e-13
6.0609e-12
-2.11323e-13
5.24648e-12
-1.9429e-13
4.41287e-12
-1.7807e-13
3.56249e-12
-1.62087e-13
2.69848e-12
-1.47236e-13
1.82649e-12
-1.36819e-13
9.44906e-13
-1.24579e-13
5.78841e-14
-1.18293e-13
-8.27969e-13
-1.19977e-13
-1.70622e-12
-1.30986e-13
-2.57882e-12
-1.44617e-13
-3.43812e-12
-1.70648e-13
-4.27877e-12
-2.05772e-13
-5.09996e-12
-2.46966e-13
-5.89847e-12
-2.85114e-13
-6.66441e-12
-3.37858e-13
-7.41066e-12
-3.81894e-13
-8.11533e-12
-4.41502e-13
-8.79434e-12
-4.92985e-13
-9.43109e-12
-5.54937e-13
-1.00293e-11
-6.21415e-13
-1.05857e-11
-6.84065e-13
-1.11e-11
-7.52386e-13
-1.15668e-11
-8.26472e-13
-1.19876e-11
-8.98828e-13
-1.23614e-11
-9.72056e-13
-1.26832e-11
-1.0519e-12
-1.29549e-11
-1.12887e-12
-1.31737e-11
-1.20951e-12
-1.33403e-11
-1.2901e-12
-1.34536e-11
-1.37063e-12
-1.35133e-11
-1.45242e-12
-1.35166e-11
-1.53467e-12
-1.34662e-11
-1.61446e-12
-1.33604e-11
-1.69502e-12
-1.32002e-11
-1.77453e-12
-1.29847e-11
-1.8542e-12
-1.27144e-11
-1.93386e-12
-1.23891e-11
-2.01426e-12
-1.20097e-11
-2.09458e-12
-1.15768e-11
-2.17452e-12
-1.10914e-11
-2.25356e-12
-1.05547e-11
-2.33093e-12
-9.96816e-12
-2.40576e-12
-9.33327e-12
-2.47717e-12
-8.65182e-12
-2.54426e-12
-7.92573e-12
-2.6062e-12
-7.15712e-12
-2.66213e-12
-6.34822e-12
-2.71125e-12
-5.50144e-12
-2.75277e-12
-4.61932e-12
-2.78596e-12
-3.70451e-12
-2.8101e-12
-2.75982e-12
-2.82452e-12
-1.78813e-12
-2.82859e-12
-7.92474e-13
-2.82172e-12
2.24013e-13
-2.80336e-12
1.25786e-12
-2.77273e-12
2.30627e-12
-2.73045e-12
3.36558e-12
-2.67485e-12
4.43309e-12
-2.60584e-12
5.50397e-12
-2.52023e-12
6.57279e-12
-2.41121e-12
7.631e-12
-2.25569e-12
8.66064e-12
-1.98985e-12
9.61715e-12
-1.44411e-12
1.04035e-11
-2.32562e-13
1.07964e-11
2.37531e-12
1.04403e-11
7.37018e-12
8.87717e-12
1.53112e-11
5.89311e-12
2.4351e-11
2.19611e-12
2.791e-11
1.57888e-11
-2.22018e-12
1.71884e-11
-5.96872e-12
3.04306e-11
-8.97336e-12
2.62826e-11
-1.04898e-11
1.59748e-11
-1.07394e-11
6.91779e-12
-1.02022e-11
1.21478e-12
-9.25775e-12
-1.75089e-12
-8.1328e-12
-3.10693e-12
-6.93608e-12
-3.69287e-12
-5.71519e-12
-3.95167e-12
-4.49066e-12
-4.07825e-12
-3.27238e-12
-4.14773e-12
-2.0657e-12
-4.18671e-12
-8.75145e-13
-4.20381e-12
2.95041e-13
-4.2022e-12
1.44162e-12
-4.18358e-12
2.56088e-12
-4.14843e-12
3.64937e-12
-4.09764e-12
4.70378e-12
-4.03206e-12
5.72097e-12
-3.95254e-12
6.69799e-12
-3.86001e-12
7.63202e-12
-3.75538e-12
8.52043e-12
-3.63963e-12
9.36079e-12
-3.51373e-12
1.01508e-11
-3.3787e-12
1.08885e-11
-3.23555e-12
1.15719e-11
-3.0853e-12
1.21994e-11
-2.92898e-12
1.27696e-11
-2.76763e-12
1.32813e-11
-2.60225e-12
1.37335e-11
-2.43387e-12
1.41253e-11
-2.26348e-12
1.44564e-11
-2.09204e-12
1.47262e-11
-1.92024e-12
1.49351e-11
-1.75056e-12
1.50831e-11
-1.58253e-12
1.51707e-11
-1.41746e-12
1.51987e-11
-1.25623e-12
1.51679e-11
-1.09948e-12
1.50786e-11
-9.45719e-13
1.4934e-11
-7.99998e-13
1.47313e-11
-6.5719e-13
1.44728e-11
-5.22675e-13
1.41638e-11
-3.95808e-13
1.38032e-11
-2.77057e-13
1.33926e-11
-1.63549e-13
1.29346e-11
-5.92716e-14
1.2432e-11
3.64779e-14
1.18875e-11
1.23594e-13
1.13004e-11
2.02781e-13
1.0679e-11
2.74961e-13
1.0019e-11
3.39993e-13
9.33077e-12
3.99154e-13
8.6124e-12
4.52166e-13
7.86405e-12
4.99719e-13
7.0881e-12
5.4304e-13
6.29335e-12
5.83378e-13
5.47849e-12
6.20523e-13
4.64542e-12
6.54953e-13
3.79642e-12
6.86863e-13
2.93334e-12
7.1579e-13
2.056e-12
7.40477e-13
1.17197e-12
7.59393e-13
2.84292e-13
7.69335e-13
-6.03336e-13
7.67596e-13
-1.48725e-12
7.52871e-13
-2.35742e-12
7.25498e-13
-3.21397e-12
6.85841e-13
-4.05547e-12
6.35668e-13
-4.87946e-12
5.76964e-13
-5.67601e-12
5.11371e-13
-6.45247e-12
4.38534e-13
-7.19452e-12
3.60093e-13
-7.91123e-12
2.75136e-13
-8.58932e-12
1.8504e-13
-9.23333e-12
8.89976e-14
-9.8418e-12
-1.30149e-14
-1.04055e-11
-1.20457e-13
-1.0927e-11
-2.30907e-13
-1.14079e-11
-3.45701e-13
-1.18409e-11
-4.65857e-13
-1.22232e-11
-5.89882e-13
-1.25582e-11
-7.16949e-13
-1.28398e-11
-8.47347e-13
-1.30726e-11
-9.7688e-13
-1.32518e-11
-1.1109e-12
-1.33763e-11
-1.24627e-12
-1.34468e-11
-1.38202e-12
-1.34628e-11
-1.51873e-12
-1.34223e-11
-1.65507e-12
-1.33262e-11
-1.79122e-12
-1.31731e-11
-1.92773e-12
-1.29629e-11
-2.06442e-12
-1.26955e-11
-2.20139e-12
-1.2371e-11
-2.33882e-12
-1.19899e-11
-2.47584e-12
-1.15527e-11
-2.61176e-12
-1.10605e-11
-2.74582e-12
-1.05145e-11
-2.87703e-12
-9.91608e-12
-3.00431e-12
-9.26677e-12
-3.12656e-12
-8.5684e-12
-3.24273e-12
-7.82293e-12
-3.35175e-12
-7.03251e-12
-3.45264e-12
-6.19945e-12
-3.5444e-12
-5.3262e-12
-3.62611e-12
-4.41539e-12
-3.69686e-12
-3.46978e-12
-3.75581e-12
-2.49224e-12
-3.80214e-12
-1.48582e-12
-3.83511e-12
-4.53643e-13
-3.85399e-12
6.01006e-13
-3.85811e-12
1.67531e-12
-3.84713e-12
2.76525e-12
-3.82048e-12
3.86671e-12
-3.77641e-12
4.97699e-12
-3.71622e-12
6.09128e-12
-3.63462e-12
7.20401e-12
-3.52403e-12
8.30681e-12
-3.35858e-12
9.37852e-12
-3.06165e-12
1.03718e-11
-2.43751e-12
1.11783e-11
-1.03911e-12
1.15718e-11
1.98167e-12
1.11655e-11
7.77646e-12
9.48083e-12
1.69958e-11
6.28559e-12
2.75462e-11
2.34099e-12
3.18545e-11
1.81298e-11
-2.37808e-12
1.95665e-11
-6.39023e-12
3.44428e-11
-9.6075e-12
2.94999e-11
-1.12382e-11
1.76055e-11
-1.15175e-11
7.19709e-12
-1.09486e-11
6.45885e-13
-9.9431e-12
-2.75636e-12
-8.74263e-12
-4.30739e-12
-7.46494e-12
-4.97054e-12
-6.16196e-12
-5.25463e-12
-4.85579e-12
-5.38441e-12
-3.55657e-12
-5.44693e-12
-2.27128e-12
-5.47199e-12
-1.00433e-12
-5.47075e-12
2.4036e-13
-5.44688e-12
1.45848e-12
-5.40168e-12
2.6463e-12
-5.33624e-12
3.80023e-12