/*--------------------------------*- C++ -*----------------------------------*\
| =========                 |                                                 |
| \\      /  F ield         | OpenFOAM: The Open Source CFD Toolbox           |
|  \\    /   O peration     | Version:  2212                                  |
|   \\  /    A nd           | Website:  www.openfoam.com                      |
|    \\/     M anipulation  |                                                 |
\*---------------------------------------------------------------------------*/
FoamFile
{
    version     2.0;
    format      ascii;
    arch        "LSB;label=64;scalar=64";
    class       volScalarField;
    location    "230";
    object      p_rgh;
}
// * * * * * * * * * * * * * * * * * * * * * * * * * * * * * * * * * * * * * //

dimensions      [0 2 -2 0 0 0 0];

internalField   nonuniform List<scalar> 
1024
(
0.0431981
0.043192
0.0431863
0.0431841
0.0431844
0.043185
0.0431859
0.0431898
0.0432023
0.0432306
0.0432846
0.0433775
0.0435244
0.043734
0.043984
0.0441981
0.0442648
0.0441864
0.0439835
0.0438711
0.0438583
0.043898
0.0439466
0.0439698
0.0439528
0.0439019
0.0438373
0.0437797
0.0437383
0.0437166
0.0437137
0.0437213
0.0432206
0.0432148
0.043211
0.0432116
0.0432144
0.0432172
0.0432201
0.043226
0.0432404
0.0432706
0.0433267
0.0434216
0.0435709
0.0437834
0.044036
0.0442515
0.0443178
0.044236
0.0440247
0.0439085
0.0438957
0.043938
0.0439899
0.0440155
0.043999
0.0439467
0.0438792
0.043819
0.0437752
0.0437507
0.0437455
0.0437525
0.043265
0.0432588
0.0432591
0.043267
0.0432774
0.0432866
0.0432948
0.0433057
0.0433251
0.0433608
0.0434225
0.0435236
0.0436797
0.0438997
0.0441582
0.0443769
0.0444428
0.0443549
0.044123
0.0439942
0.0439827
0.0440342
0.0440953
0.0441267
0.0441111
0.0440535
0.0439754
0.0439017
0.043843
0.0438046
0.0437903
0.0437951
0.0433244
0.0433189
0.0433274
0.0433498
0.0433753
0.0433973
0.0434159
0.0434361
0.0434648
0.04351
0.0435817
0.0436928
0.0438588
0.0440863
0.0443497
0.0445699
0.044635
0.0445443
0.0442917
0.0441421
0.0441349
0.0442003
0.0442712
0.0443082
0.0442927
0.0442265
0.0441291
0.0440261
0.0439332
0.0438634
0.0438283
0.0438264
0.0433798
0.043378
0.0434025
0.0434499
0.0435012
0.0435449
0.0435811
0.0436164
0.0436589
0.0437168
0.0437998
0.0439198
0.0440914
0.0443163
0.0445764
0.0447933
0.044859
0.0447772
0.0445323
0.044366
0.0443672
0.044439
0.04451
0.0445456
0.0445264
0.0444491
0.0443264
0.0441782
0.0440298
0.0439081
0.0438382
0.0438237
0.0433981
0.0434043
0.0434553
0.0435415
0.0436326
0.0437104
0.0437735
0.04383
0.0438888
0.0439583
0.0440468
0.044165
0.044326
0.0445342
0.0447811
0.0449915
0.045064
0.0450076
0.0448216
0.0446699
0.0446769
0.0447309
0.0447849
0.0448079
0.0447794
0.0446888
0.0445367
0.0443317
0.0441097
0.0439179
0.0438016
0.0437706
0.0433398
0.0433584
0.0434462
0.043587
0.0437351
0.0438615
0.0439617
0.0440437
0.0441173
0.0441906
0.0442715
0.0443703
0.0445019
0.0446833
0.0449136
0.0451206
0.0452096
0.0451965
0.0450977
0.0450046
0.0449998
0.0450258
0.0450526
0.0450558
0.0450141
0.0449082
0.0447236
0.0444557
0.0441498
0.0438779
0.0437106
0.0436623
0.0431735
0.0432068
0.0433395
0.0435498
0.0437726
0.0439628
0.044109
0.044218
0.0443003
0.0443654
0.044423
0.0444878
0.0445814
0.0447368
0.044957
0.0451686
0.0452811
0.0453165
0.0452995
0.0452678
0.04526
0.0452643
0.0452683
0.0452541
0.0451998
0.0450781
0.044858
0.044526
0.0441346
0.043783
0.0435686
0.0435056
0.0428888
0.0429366
0.0431168
0.043407
0.0437199
0.0439873
0.0441862
0.0443211
0.0444047
0.0444504
0.0444749
0.0445013
0.0445624
0.0447024
0.0449254
0.0451508
0.0452878
0.0453624
0.0454031
0.0454143
0.0454144
0.0454132
0.0454086
0.0453866
0.0453235
0.045185
0.0449268
0.0445315
0.0440592
0.0436373
0.0433861
0.0433132
0.0424981
0.0425577
0.0427817
0.0431549
0.0435681
0.043923
0.0441793
0.0443384
0.0444174
0.0444387
0.0444291
0.0444229
0.0444637
0.0446022
0.0448431
0.0450906
0.0452504
0.0453528
0.0454219
0.0454571
0.0454722
0.04548
0.0454803
0.0454597
0.0453904
0.045232
0.0449316
0.0444733
0.0439283
0.0434515
0.0431772
0.0430991
0.042029
0.0420961
0.0423543
0.0428051
0.0433217
0.0437707
0.0440881
0.0442706
0.0443435
0.0443412
0.0443025
0.0442727
0.0443044
0.0444546
0.044729
0.0450065
0.0451895
0.0453086
0.0453877
0.0454378
0.0454704
0.0454944
0.045507
0.045492
0.0454165
0.0452313
0.0448823
0.0443597
0.0437517
0.0432373
0.0429531
0.0428739
0.0415128
0.0415827
0.0418615
0.042376
0.0429919
0.0435382
0.0439206
0.0441289
0.0441976
0.0441755
0.0441131
0.0440654
0.0440947
0.0442697
0.044596
0.044911
0.0451159
0.0452421
0.0453282
0.0453918
0.0454424
0.0454845
0.0455117
0.0455026
0.0454163
0.0451969
0.0447917
0.0442023
0.043541
0.0430053
0.0427216
0.0426439
0.0409766
0.041045
0.0413289
0.0418859
0.0425896
0.0432345
0.0436888
0.0439297
0.0440001
0.0439624
0.0438783
0.0438123
0.043841
0.0440587
0.0444594
0.0448162
0.045031
0.045162
0.0452592
0.0453394
0.0454087
0.0454683
0.0455086
0.0455027
0.0454008
0.045139
0.0446679
0.0440092
0.043304
0.0427606
0.0424845
0.0424104
0.0404446
0.0405078
0.0407764
0.0413458
0.042118
0.0428626
0.0434019
0.0436908
0.0437746
0.0437281
0.0436221
0.0435306
0.0435539
0.0438474
0.0443482
0.0447334
0.0449392
0.0450736
0.0451887
0.0452918
0.0453823
0.0454584
0.045508
0.0454993
0.0453749
0.0450607
0.044513
0.0437819
0.043042
0.0425029
0.0422414
0.0421719
0.0399434
0.0399993
0.0402395
0.040767
0.0415449
0.0423915
0.0430404
0.0434089
0.0435322
0.0434916
0.0433678
0.0432433
0.0432546
0.0436904
0.0443068
0.0446807
0.0448512
0.044983
0.0451245
0.0452605
0.045378
0.0454701
0.0455234
0.0455027
0.045335
0.0449428
0.0442984
0.0434904
0.0427351
0.0422327
0.0419959
0.0419326
0.0395167
0.039563
0.0397623
0.0402142
0.0409197
0.0417472
0.0424845
0.0429925
0.0432195
0.0432226
0.0430928
0.0429249
0.0429989
0.043684
0.0443836
0.0447109
0.0447904
0.0449023
0.0450746
0.045253
0.0454046
0.0455093
0.0455478
0.045467
0.0451845
0.0446141
0.043843
0.0430618
0.0424065
0.041984
0.0417869
0.0417324
0.0392767
0.0393081
0.0394554
0.0398085
0.0403916
0.0411218
0.0418397
0.0424022
0.042731
0.0428225
0.0427262
0.0425895
0.0429177
0.0438802
0.0446948
0.044887
0.0447952
0.0448504
0.0450148
0.0451961
0.0453554
0.0454456
0.0452661
0.0449139
0.0444629
0.0439165
0.0433008
0.0427041
0.0422223
0.0419156
0.0417705
0.0417266
0.0393985
0.0393922
0.039458
0.0396848
0.0401117
0.040693
0.0413146
0.0418522
0.0422136
0.0423646
0.0423374
0.0423559
0.0430534
0.0443986
0.0452283
0.0451505
0.0448722
0.0447509
0.0447355
0.0447075
0.0446031
0.044436
0.0442564
0.0440547
0.043791
0.0434589
0.0430814
0.0427085
0.0424059
0.0422122
0.042119
0.0420874
0.0401428
0.040033
0.0399213
0.0399337
0.0401371
0.0405132
0.0409794
0.0414305
0.0417757
0.0419669
0.0420452
0.0423119
0.0434439
0.0451152
0.045791
0.045434
0.044954
0.044547
0.044233
0.0439904
0.043825
0.043744
0.0437283
0.0437243
0.0436945
0.0436122
0.0434706
0.0432943
0.0431401
0.0430528
0.0430356
0.0430364
0.0418215
0.0415495
0.0411342
0.0407756
0.040617
0.0406839
0.0409174
0.0412222
0.041508
0.0417233
0.0419395
0.0425402
0.0440304
0.0458529
0.0462697
0.0458587
0.0453609
0.0449438
0.0447263
0.0447449
0.044963
0.0453059
0.0457043
0.0461019
0.0464453
0.0466823
0.0467807
0.0467422
0.046575
0.0463003
0.0459975
0.0458109
0.0441026
0.0437472
0.0430856
0.0423172
0.0416856
0.0413208
0.0412194
0.0413027
0.0414769
0.0416906
0.0420465
0.0429643
0.0446662
0.0464284
0.0467778
0.0465714
0.0464001
0.0463968
0.0465512
0.046795
0.0470754
0.0473687
0.0476706
0.0479727
0.0482521
0.0484783
0.0486244
0.0486789
0.0486445
0.0485346
0.0483813
0.0482613
0.0460264
0.045734
0.0450759
0.0441286
0.0431282
0.0423304
0.0418507
0.0416663
0.0416916
0.0418805
0.0423491
0.0434632
0.0452576
0.046773
0.0472367
0.0472016
0.0471819
0.0472783
0.047435
0.0475777
0.0476985
0.0478125
0.0479488
0.0481172
0.0483086
0.0484989
0.0486654
0.0487885
0.0488589
0.0488815
0.0488663
0.0488375
0.0471174
0.0469298
0.0464345
0.0455797
0.0444751
0.0434118
0.0426352
0.0422159
0.0421073
0.042273
0.0428238
0.0439938
0.0455972
0.0468881
0.0474824
0.0475817
0.04757
0.0476203
0.0477054
0.0477927
0.0478366
0.047863
0.0479163
0.048013
0.0481527
0.0483178
0.0484889
0.0486407
0.048753
0.0488189
0.0488437
0.0488449
0.0476963
0.0475516
0.0471814
0.0464824
0.0454616
0.0443374
0.0434156
0.0428588
0.0426726
0.04284
0.0434425
0.0445689
0.0459291
0.0469921
0.047543
0.0477244
0.0477351
0.047709
0.0477181
0.0477753
0.0478196
0.0478384
0.0478844
0.0479707
0.0480978
0.0482567
0.0484312
0.0485991
0.0487377
0.048828
0.0488682
0.0488788
0.0480281
0.0478876
0.0475528
0.0469702
0.0461284
0.0451
0.0441532
0.0435563
0.0433588
0.043552
0.0441688
0.0451771
0.0462751
0.0471107
0.047573
0.0477578
0.0477748
0.047721
0.0476705
0.0476642
0.0476907
0.0477455
0.0478401
0.0479738
0.0481446
0.0483368
0.0485301
0.0487178
0.0488837
0.049
0.0490549
0.0490726
0.0482497
0.0481038
0.0477796
0.0472616
0.046568
0.0457461
0.0449111
0.0443139
0.0441512
0.044376
0.044961
0.0457982
0.0466328
0.0472508
0.0476022
0.0477477
0.0477526
0.0476848
0.0476046
0.0475572
0.0475665
0.0476419
0.0477839
0.0479819
0.0482208
0.0484817
0.0487391
0.0489799
0.0491829
0.0493355
0.0494149
0.0494458
0.0484038
0.0482514
0.0479425
0.0474957
0.0469422
0.0463196
0.0456797
0.0451533
0.0450352
0.0452715
0.0457722
0.0464048
0.0469864
0.0474025
0.047635
0.0477209
0.0476984
0.0476154
0.0475203
0.0474562
0.0474608
0.0475513
0.047729
0.0479828
0.0482936
0.0486379
0.0489875
0.0493137
0.049589
0.0498048
0.0499317
0.0499889
0.0484878
0.048343
0.0480742
0.0477232
0.0473212
0.0468932
0.0464533
0.0460576
0.0459809
0.0461889
0.0465547
0.0469667
0.0473143
0.0475483
0.0476661
0.0476867
0.0476291
0.0475278
0.0474231
0.0473539
0.0473622
0.0474682
0.0476754
0.0479739
0.0483465
0.0487694
0.0492147
0.0496498
0.0500399
0.0503594
0.050576
0.0506873
0.0484891
0.048374
0.0481824
0.0479594
0.0477234
0.0474819
0.0472284
0.0469757
0.0469353
0.0470665
0.0472632
0.0474558
0.0475958
0.0476727
0.0476888
0.0476483
0.0475569
0.0474382
0.0473257
0.0472566
0.0472715
0.0473911
0.0476209
0.0479523
0.0483707
0.048856
0.0493849
0.0499312
0.0504641
0.0509462
0.0513119
0.051551
0.0483613
0.0483349
0.0482781
0.0482071
0.0481302
0.0480468
0.0479452
0.0478404
0.04781
0.0478331
0.0478554
0.047851
0.0478174
0.0477665
0.0476999
0.0476098
0.0474916
0.0473598
0.0472419
0.0471748
0.0471957
0.0473252
0.047569
0.0479201
0.0483662
0.048891
0.0494789
0.0501185
0.0507991
0.0514989
0.0521444
0.0527033
0.0479182
0.0482459
0.0483929
0.0484557
0.0484915
0.0485212
0.0485391
0.0485285
0.0484892
0.0484143
0.0482908
0.0481339
0.0479709
0.0478265
0.0477011
0.0475776
0.0474427
0.0473034
0.0471828
0.0471169
0.0471412
0.0472752
0.047525
0.0478839
0.0483404
0.0488818
0.0494994
0.0501974
0.0509969
0.0519384
0.0530633
0.0543325
0.046938
0.0481392
0.0485554
0.048664
0.048741
0.0488172
0.0488806
0.0489069
0.0488615
0.0487303
0.048524
0.0482802
0.0480459
0.0478521
0.0476976
0.047559
0.0474169
0.0472749
0.0471539
0.0470881
0.047113
0.0472479
0.0474979
0.0478568
0.0483131
0.0488558
0.0494812
0.0502046
0.0510771
0.052212
0.0538399
0.0561173
)
;

boundaryField
{
    movingWall
    {
        type            fixedFluxPressure;
        gradient        uniform 0;
        value           nonuniform List<scalar> 
32
(
0.046938
0.0481392
0.0485554
0.048664
0.048741
0.0488172
0.0488806
0.0489069
0.0488615
0.0487303
0.048524
0.0482802
0.0480459
0.0478521
0.0476976
0.047559
0.0474169
0.0472749
0.0471539
0.0470881
0.047113
0.0472479
0.0474979
0.0478568
0.0483131
0.0488558
0.0494812
0.0502046
0.0510771
0.052212
0.0538399
0.0561173
)
;
    }
    fixedWalls
    {
        type            fixedFluxPressure;
        gradient        uniform 0;
        value           nonuniform List<scalar> 
64
(
0.0431981
0.0432206
0.043265
0.0433244
0.0433798
0.0433981
0.0433398
0.0431735
0.0428888
0.0424981
0.042029
0.0415128
0.0409766
0.0404446
0.0399434
0.0395167
0.0392767
0.0393985
0.0401428
0.0418215
0.0441026
0.0460264
0.0471174
0.0476963
0.0480281
0.0482497
0.0484038
0.0484878
0.0484891
0.0483613
0.0479182
0.046938
0.0437213
0.0437525
0.0437951
0.0438264
0.0438237
0.0437706
0.0436623
0.0435056
0.0433132
0.0430991
0.0428739
0.0426439
0.0424104
0.0421719
0.0419326
0.0417324
0.0417266
0.0420874
0.0430364
0.0458109
0.0482613
0.0488375
0.0488449
0.0488788
0.0490726
0.0494458
0.0499889
0.0506873
0.051551
0.0527033
0.0543325
0.0561173
)
;
    }
    floor
    {
        type            fixedFluxPressure;
        gradient        uniform 0;
        value           nonuniform List<scalar> 
32
(
0.0431981
0.043192
0.0431863
0.0431841
0.0431844
0.043185
0.0431859
0.0431898
0.0432023
0.0432306
0.0432846
0.0433775
0.0435244
0.043734
0.043984
0.0441981
0.0442648
0.0441864
0.0439835
0.0438711
0.0438583
0.043898
0.0439466
0.0439698
0.0439528
0.0439019
0.0438373
0.0437797
0.0437383
0.0437166
0.0437137
0.0437213
)
;
    }
    frontAndBack
    {
        type            empty;
    }
}


// ************************************************************************* //
