/*--------------------------------*- C++ -*----------------------------------*\
| =========                 |                                                 |
| \\      /  F ield         | OpenFOAM: The Open Source CFD Toolbox           |
|  \\    /   O peration     | Version:  2212                                  |
|   \\  /    A nd           | Website:  www.openfoam.com                      |
|    \\/     M anipulation  |                                                 |
\*---------------------------------------------------------------------------*/
FoamFile
{
    version     2.0;
    format      ascii;
    arch        "LSB;label=64;scalar=64";
    class       volScalarField;
    location    "230";
    object      T;
}
// * * * * * * * * * * * * * * * * * * * * * * * * * * * * * * * * * * * * * //

dimensions      [0 0 0 1 0 0 0];

internalField   nonuniform List<scalar> 
1024
(
309.971
309.97
309.967
309.964
309.959
309.954
309.949
309.945
309.94
309.935
309.93
309.924
309.918
309.91
309.903
309.898
309.897
309.905
309.926
309.935
309.935
309.927
309.918
309.912
309.912
309.917
309.927
309.936
309.945
309.953
309.959
309.961
309.908
309.905
309.898
309.886
309.871
309.856
309.841
309.826
309.812
309.796
309.78
309.762
309.743
309.719
309.697
309.682
309.681
309.705
309.768
309.798
309.796
309.772
309.744
309.726
309.725
309.742
309.769
309.799
309.829
309.855
309.873
309.88
309.841
309.836
309.822
309.8
309.773
309.746
309.719
309.694
309.668
309.641
309.613
309.582
309.548
309.51
309.476
309.454
309.453
309.49
309.592
309.644
309.64
309.601
309.556
309.529
309.527
309.552
309.596
309.648
309.702
309.75
309.782
309.794
309.771
309.763
309.742
309.707
309.667
309.626
309.587
309.55
309.513
309.475
309.435
309.392
309.347
309.3
309.262
309.239
309.24
309.281
309.405
309.477
309.47
309.419
309.366
309.334
309.332
309.363
309.42
309.493
309.572
309.643
309.69
309.708
309.701
309.69
309.66
309.612
309.556
309.502
309.451
309.403
309.355
309.308
309.26
309.21
309.161
309.117
309.083
309.064
309.066
309.103
309.22
309.3
309.289
309.237
309.188
309.159
309.159
309.193
309.258
309.348
309.45
309.542
309.603
309.626
309.633
309.62
309.58
309.519
309.449
309.382
309.321
309.264
309.209
309.157
309.107
309.06
309.017
308.984
308.96
308.946
308.946
308.973
309.056
309.122
309.111
309.073
309.038
309.017
309.021
309.056
309.125
309.226
309.344
309.452
309.523
309.547
309.571
309.555
309.507
309.434
309.353
309.275
309.206
309.144
309.089
309.039
308.994
308.957
308.927
308.907
308.892
308.882
308.878
308.89
308.934
308.971
308.966
308.945
308.925
308.915
308.924
308.958
309.027
309.133
309.26
309.376
309.45
309.476
309.513
309.496
309.444
309.362
309.272
309.187
309.114
309.052
309.001
308.959
308.925
308.901
308.885
308.875
308.866
308.857
308.848
308.847
308.861
308.875
308.873
308.863
308.853
308.851
308.862
308.897
308.964
309.07
309.197
309.314
309.387
309.41
309.461
309.444
309.39
309.304
309.208
309.12
309.047
308.989
308.945
308.914
308.892
308.88
308.874
308.869
308.863
308.852
308.839
308.83
308.828
308.829
308.825
308.82
308.816
308.817
308.83
308.863
308.927
309.029
309.153
309.264
309.331
309.351
309.414
309.398
309.346
309.26
309.161
309.072
309.002
308.95
308.916
308.894
308.883
308.879
308.878
308.875
308.868
308.854
308.84
308.827
308.819
308.813
308.808
308.803
308.8
308.802
308.815
308.847
308.909
309.006
309.121
309.223
309.281
309.299
309.371
309.358
309.31
309.226
309.129
309.041
308.974
308.929
308.903
308.891
308.887
308.887
308.888
308.885
308.875
308.858
308.842
308.829
308.819
308.811
308.804
308.798
308.795
308.797
308.809
308.841
308.901
308.992
309.098
309.188
309.237
309.251
309.332
309.321
309.279
309.202
309.108
309.022
308.959
308.92
308.901
308.894
308.895
308.899
308.901
308.896
308.88
308.861
308.844
308.832
308.821
308.812
308.804
308.798
308.794
308.795
308.808
308.84
308.898
308.983
309.079
309.157
309.198
309.209
309.297
309.289
309.253
309.184
309.096
309.013
308.953
308.918
308.903
308.901
308.906
308.912
308.915
308.906
308.884
308.861
308.846
308.834
308.823
308.813
308.805
308.798
308.793
308.795
308.808
308.84
308.897
308.977
309.062
309.128
309.162
309.171
309.266
309.259
309.232
309.172
309.091
309.012
308.954
308.921
308.908
308.909
308.917
308.925
308.929
308.915
308.884
308.86
308.846
308.834
308.822
308.812
308.803
308.796
308.792
308.794
308.807
308.84
308.896
308.971
309.047
309.102
309.129
309.136
309.238
309.233
309.212
309.166
309.096
309.021
308.962
308.928
308.915
308.917
308.926
308.938
308.943
308.919
308.881
308.858
308.846
308.833
308.82
308.809
308.799
308.792
308.788
308.791
308.806
308.841
308.897
308.968
309.035
309.079
309.1
309.105
309.214
309.211
309.196
309.162
309.108
309.044
308.987
308.948
308.929
308.928
308.938
308.953
308.954
308.916
308.874
308.854
308.845
308.833
308.818
308.804
308.793
308.786
308.784
308.791
308.813
308.857
308.917
308.977
309.027
309.06
309.075
309.078
309.194
309.192
309.183
309.159
309.12
309.071
309.022
308.983
308.96
308.953
308.96
308.972
308.959
308.908
308.863
308.849
308.845
308.836
308.821
308.808
308.797
308.792
308.806
308.831
308.864
308.904
308.949
308.991
309.025
309.046
309.056
309.058
309.172
309.172
309.169
309.155
309.129
309.093
309.054
309.019
308.995
308.985
308.987
308.99
308.958
308.892
308.848
308.845
308.851
308.849
308.845
308.844
308.85
308.862
308.878
308.897
308.921
308.949
308.978
309.004
309.024
309.036
309.041
309.042
309.129
309.135
309.141
309.14
309.128
309.105
309.077
309.049
309.027
309.014
309.01
308.999
308.947
308.87
308.835
308.844
308.859
308.871
308.882
308.894
308.906
308.917
308.928
308.941
308.955
308.97
308.985
308.998
309.007
309.011
309.011
309.01
309.049
309.062
309.082
309.099
309.105
309.099
309.084
309.065
309.047
309.034
309.022
308.994
308.927
308.846
308.824
308.834
308.848
308.86
308.865
308.863
308.855
308.846
308.838
308.833
308.83
308.83
308.832
308.836
308.844
308.856
308.87
308.878
308.948
308.964
308.994
309.028
309.056
309.07
309.071
309.064
309.052
309.04
309.021
308.979
308.903
308.826
308.806
308.807
308.805
308.797
308.783
308.768
308.755
308.746
308.74
308.737
308.736
308.736
308.736
308.738
308.741
308.746
308.752
308.757
308.868
308.881
308.909
308.949
308.991
309.024
309.043
309.048
309.045
309.034
309.01
308.959
308.88
308.813
308.789
308.782
308.773
308.76
308.744
308.732
308.724
308.72
308.719
308.72
308.721
308.723
308.724
308.725
308.725
308.726
308.726
308.726
308.827
308.834
308.855
308.89
308.934
308.977
309.009
309.025
309.028
309.019
308.992
308.939
308.868
308.809
308.779
308.767
308.757
308.746
308.733
308.722
308.716
308.714
308.716
308.718
308.72
308.723
308.724
308.725
308.726
308.726
308.725
308.724
308.807
308.813
308.827
308.855
308.895
308.94
308.976
308.999
309.006
308.997
308.969
308.918
308.856
308.807
308.777
308.761
308.751
308.742
308.733
308.723
308.717
308.715
308.716
308.719
308.721
308.724
308.726
308.727
308.728
308.728
308.727
308.726
308.798
308.803
308.816
308.838
308.87
308.911
308.948
308.973
308.981
308.972
308.943
308.896
308.845
308.804
308.777
308.76
308.749
308.742
308.735
308.728
308.723
308.721
308.72
308.721
308.723
308.725
308.727
308.729
308.73
308.73
308.73
308.729
308.793
308.798
308.81
308.829
308.855
308.888
308.921
308.946
308.953
308.943
308.915
308.875
308.833
308.8
308.776
308.761
308.75
308.743
308.738
308.733
308.729
308.727
308.726
308.726
308.727
308.728
308.729
308.73
308.731
308.732
308.731
308.731
308.789
308.795
308.806
308.822
308.843
308.868
308.895
308.917
308.923
308.912
308.887
308.854
308.822
308.795
308.776
308.762
308.753
308.746
308.741
308.737
308.735
308.732
308.731
308.73
308.73
308.731
308.731
308.732
308.733
308.733
308.733
308.732
308.787
308.792
308.801
308.815
308.831
308.849
308.869
308.887
308.891
308.881
308.861
308.835
308.811
308.791
308.775
308.764
308.755
308.749
308.745
308.742
308.739
308.737
308.736
308.735
308.734
308.734
308.734
308.734
308.734
308.734
308.734
308.733
308.784
308.788
308.796
308.806
308.817
308.829
308.843
308.856
308.859
308.851
308.837
308.819
308.802
308.787
308.775
308.765
308.758
308.753
308.749
308.746
308.743
308.742
308.74
308.739
308.738
308.737
308.736
308.736
308.736
308.735
308.735
308.734
308.782
308.785
308.79
308.796
308.803
308.81
308.819
308.827
308.829
308.826
308.817
308.806
308.795
308.784
308.775
308.767
308.761
308.756
308.752
308.749
308.747
308.745
308.743
308.742
308.74
308.739
308.738
308.738
308.737
308.736
308.736
308.735
308.779
308.781
308.784
308.787
308.79
308.795
308.799
308.804
308.807
308.807
308.803
308.797
308.79
308.783
308.775
308.768
308.762
308.758
308.754
308.751
308.749
308.747
308.745
308.744
308.742
308.741
308.74
308.739
308.738
308.738
308.737
308.736
308.778
308.778
308.779
308.781
308.783
308.785
308.788
308.792
308.795
308.796
308.796
308.793
308.788
308.782
308.775
308.769
308.763
308.759
308.755
308.752
308.75
308.748
308.746
308.745
308.743
308.742
308.741
308.74
308.739
308.738
308.737
308.737
)
;

boundaryField
{
    movingWall
    {
        type            zeroGradient;
    }
    fixedWalls
    {
        type            zeroGradient;
    }
    floor
    {
        type            fixedValue;
        value           uniform 310;
    }
    frontAndBack
    {
        type            empty;
    }
}


// ************************************************************************* //
