/*--------------------------------*- C++ -*----------------------------------*\
| =========                 |                                                 |
| \\      /  F ield         | OpenFOAM: The Open Source CFD Toolbox           |
|  \\    /   O peration     | Version:  2212                                  |
|   \\  /    A nd           | Website:  www.openfoam.com                      |
|    \\/     M anipulation  |                                                 |
\*---------------------------------------------------------------------------*/
FoamFile
{
    version     2.0;
    format      ascii;
    arch        "LSB;label=64;scalar=64";
    class       volVectorField;
    location    "230";
    object      U;
}
// * * * * * * * * * * * * * * * * * * * * * * * * * * * * * * * * * * * * * //

dimensions      [0 1 -1 0 0 0 0];

internalField   nonuniform List<vector> 
1024
(
(1.51494e-05 -2.16121e-05 0)
(-0.000136859 2.91421e-05 0)
(-0.000542462 6.40064e-05 0)
(-0.0010758 5.80622e-05 0)
(-0.00161134 4.35042e-05 0)
(-0.0021326 3.87757e-05 0)
(-0.00268986 4.24957e-05 0)
(-0.00332237 4.76828e-05 0)
(-0.00403177 5.03381e-05 0)
(-0.00479133 4.97623e-05 0)
(-0.00555549 4.61484e-05 0)
(-0.00624892 3.87264e-05 0)
(-0.00672309 2.44516e-05 0)
(-0.00673446 -4.23929e-07 0)
(-0.0058939 -3.62439e-05 0)
(-0.00398936 -6.31331e-05 0)
(-0.00144542 -6.80517e-05 0)
(0.00114 -6.47015e-05 0)
(0.00206482 2.21571e-05 0)
(0.00122067 5.90994e-05 0)
(0.000271901 4.24492e-05 0)
(-4.23722e-05 4.82653e-06 0)
(0.000404906 -4.58027e-05 0)
(0.00139834 -9.1472e-05 0)
(0.00253252 -0.000101398 0)
(0.00338315 -6.25738e-05 0)
(0.00368273 4.42143e-06 0)
(0.00343579 8.03414e-05 0)
(0.00269587 0.000153602 0)
(0.00164315 0.00020077 0)
(0.00063228 0.000167475 0)
(5.05979e-05 4.48934e-05 0)
(-5.30444e-05 0.000143329 0)
(-0.00070144 0.000563783 0)
(-0.00192789 0.000805985 0)
(-0.00347184 0.000787838 0)
(-0.00506643 0.000679252 0)
(-0.00666184 0.00060676 0)
(-0.00832377 0.000581992 0)
(-0.0101009 0.000567942 0)
(-0.0119736 0.000537243 0)
(-0.0138621 0.000481572 0)
(-0.0156364 0.000398852 0)
(-0.0170916 0.000281526 0)
(-0.0178787 0.000113951 0)
(-0.0174973 -0.000123812 0)
(-0.0151492 -0.000407247 0)
(-0.0105035 -0.000620505 0)
(-0.00439012 -0.00069822 0)
(0.00182166 -0.000579516 0)
(0.00436451 4.00535e-05 0)
(0.00290625 0.000379471 0)
(0.00112748 0.000273232 0)
(0.000744379 -5.64003e-05 0)
(0.00196323 -0.000456566 0)
(0.00417054 -0.000757545 0)
(0.00651943 -0.000794417 0)
(0.0082434 -0.00050617 0)
(0.00886883 1.22249e-05 0)
(0.00831649 0.000646646 0)
(0.0066652 0.00129398 0)
(0.00427157 0.00172506 0)
(0.00185476 0.00157744 0)
(0.000225445 0.000678538 0)
(-0.000151615 0.000765817 0)
(-0.00144853 0.0019997 0)
(-0.00359091 0.00255913 0)
(-0.0061697 0.00248778 0)
(-0.00883155 0.00219304 0)
(-0.0114945 0.00195 0)
(-0.014185 0.0017945 0)
(-0.0169119 0.00165937 0)
(-0.0196195 0.00148982 0)
(-0.0221856 0.00126581 0)
(-0.024421 0.000979852 0)
(-0.0260397 0.000615746 0)
(-0.0265917 0.000143289 0)
(-0.025454 -0.000475174 0)
(-0.0217672 -0.00116099 0)
(-0.015315 -0.00167213 0)
(-0.0070948 -0.0018654 0)
(0.0010001 -0.00156233 0)
(0.00501457 -7.77251e-05 0)
(0.00389068 0.000789425 0)
(0.0022685 0.000540491 0)
(0.00230629 -0.000269677 0)
(0.00406907 -0.00119474 0)
(0.00673777 -0.00183315 0)
(0.00942527 -0.00187812 0)
(0.0113839 -0.00121063 0)
(0.0121082 2.8333e-05 0)
(0.0113547 0.00160947 0)
(0.00919502 0.0032655 0)
(0.00603482 0.00445182 0)
(0.00274247 0.00431293 0)
(0.000362235 0.00213027 0)
(-0.000259789 0.00206146 0)
(-0.00223294 0.0046953 0)
(-0.00528184 0.00565698 0)
(-0.00882968 0.0054234 0)
(-0.0124401 0.00478721 0)
(-0.0159922 0.00420213 0)
(-0.0194557 0.00373836 0)
(-0.0227886 0.00331085 0)
(-0.0259052 0.00284293 0)
(-0.0286651 0.00230106 0)
(-0.0308618 0.0016683 0)
(-0.0321891 0.000916063 0)
(-0.0321821 -5.45873e-06 0)
(-0.0301604 -0.00113373 0)
(-0.0254968 -0.00231466 0)
(-0.0181041 -0.00317339 0)
(-0.00910377 -0.00345708 0)
(-0.000880563 -0.00294274 0)
(0.00416061 -0.000457735 0)
(0.00416337 0.00109076 0)
(0.0035333 0.000665886 0)
(0.00431395 -0.000690275 0)
(0.00631071 -0.00215401 0)
(0.00884017 -0.00311122 0)
(0.0112525 -0.00313585 0)
(0.0129808 -0.00202495 0)
(0.0135689 0.000106248 0)
(0.0126431 0.00294498 0)
(0.0102329 0.00597086 0)
(0.00673093 0.00821971 0)
(0.0030646 0.00817099 0)
(0.000397243 0.00425142 0)
(-0.000345461 0.00415789 0)
(-0.00284937 0.008839 0)
(-0.00660571 0.0102573 0)
(-0.0108884 0.00969299 0)
(-0.0151765 0.00849109 0)
(-0.0193026 0.0073253 0)
(-0.0231867 0.00631842 0)
(-0.0267509 0.00538519 0)
(-0.0298979 0.00443626 0)
(-0.0324956 0.00342372 0)
(-0.034357 0.00231538 0)
(-0.0352012 0.00106375 0)
(-0.0345893 -0.0004039 0)
(-0.0319182 -0.00209603 0)
(-0.0267407 -0.00379584 0)
(-0.019054 -0.00498629 0)
(-0.0101784 -0.00525083 0)
(-0.00290439 -0.00449403 0)
(0.00227402 -0.00119281 0)
(0.00388525 0.00102595 0)
(0.00472307 0.000437326 0)
(0.00627419 -0.00134011 0)
(0.00825243 -0.00317866 0)
(0.0103294 -0.0043402 0)
(0.0121642 -0.00429427 0)
(0.0133968 -0.0027188 0)
(0.0136499 0.000377719 0)
(0.0125277 0.00465392 0)
(0.0100127 0.00927022 0)
(0.00647514 0.0127306 0)
(0.00285844 0.0127078 0)
(0.000337382 0.00669227 0)
(-0.000368528 0.00698746 0)
(-0.00309575 0.0143365 0)
(-0.00720131 0.0162966 0)
(-0.0118599 0.0152358 0)
(-0.0164737 0.0132146 0)
(-0.020826 0.0111985 0)
(-0.0248021 0.0093966 0)
(-0.0283095 0.00774181 0)
(-0.0312597 0.00614009 0)
(-0.0335498 0.00452766 0)
(-0.0350355 0.00284943 0)
(-0.0354835 0.00103059 0)
(-0.0344918 -0.00102316 0)
(-0.0315781 -0.00330214 0)
(-0.0262545 -0.00553827 0)
(-0.0186112 -0.00701882 0)
(-0.0102625 -0.00710249 0)
(-0.00416144 -0.00598255 0)
(0.000258941 -0.0023171 0)
(0.00340207 0.000348472 0)
(0.00564425 -0.0003065 0)
(0.00772738 -0.00221485 0)
(0.00955432 -0.00417751 0)
(0.011117 -0.00537953 0)
(0.0123247 -0.0051813 0)
(0.0129887 -0.00311057 0)
(0.0128084 0.000991601 0)
(0.011468 0.00678094 0)
(0.00893606 0.0130596 0)
(0.00557633 0.0176847 0)
(0.00231385 0.0174439 0)
(0.000227509 0.00907444 0)
(-0.000315873 0.0102414 0)
(-0.00290609 0.0207847 0)
(-0.00695787 0.0234764 0)
(-0.0116134 0.0218356 0)
(-0.0162151 0.0187766 0)
(-0.0204999 0.0156626 0)
(-0.0243333 0.0128419 0)
(-0.0276287 0.0102859 0)
(-0.0303243 0.00790152 0)
(-0.0323583 0.00560488 0)
(-0.0336329 0.0033061 0)
(-0.0339521 0.000888729 0)
(-0.0329209 -0.00177255 0)
(-0.0300502 -0.00469238 0)
(-0.0247409 -0.00752546 0)
(-0.0172068 -0.00925837 0)
(-0.00941046 -0.00897991 0)
(-0.00428242 -0.00737435 0)
(-0.000686995 -0.00367519 0)
(0.00317372 -0.00101993 0)
(0.00620262 -0.00151698 0)
(0.00848684 -0.00327034 0)
(0.0100953 -0.00511435 0)
(0.0112063 -0.0061844 0)
(0.0118771 -0.00572388 0)
(0.0120335 -0.00309335 0)
(0.0114356 0.00206007 0)
(0.00989721 0.00936123 0)
(0.00741713 0.0172244 0)
(0.00437633 0.0227691 0)
(0.00164778 0.0219269 0)
(0.000116413 0.0110938 0)
(-0.000214223 0.0134714 0)
(-0.00238161 0.0275747 0)
(-0.00604023 0.031327 0)
(-0.0103796 0.0291666 0)
(-0.014709 0.0249453 0)
(-0.018725 0.0205559 0)
(-0.0222863 0.0165596 0)
(-0.0253295 0.0129916 0)
(-0.0278301 0.00975986 0)
(-0.0297654 0.00674837 0)
(-0.0310631 0.00381171 0)
(-0.031519 0.000767375 0)
(-0.03068 -0.00256651 0)
(-0.0279414 -0.00625156 0)
(-0.022637 -0.00979764 0)
(-0.015149 -0.0117534 0)
(-0.00777364 -0.0109276 0)
(-0.00326918 -0.0087252 0)
(-0.000148732 -0.00513835 0)
(0.00352905 -0.0027604 0)
(0.00658697 -0.00298698 0)
(0.00871301 -0.00440145 0)
(0.010025 -0.0059521 0)
(0.0107507 -0.00674603 0)
(0.011002 -0.00590706 0)
(0.0107592 -0.00262537 0)
(0.00983039 0.00363479 0)
(0.00815393 0.0123895 0)
(0.00578974 0.0216256 0)
(0.00315285 0.0276817 0)
(0.00102794 0.0258018 0)
(3.35995e-05 0.012585 0)
(-0.000106379 0.016256 0)
(-0.00170804 0.0340487 0)
(-0.00475518 0.0393032 0)
(-0.00857174 0.0368572 0)
(-0.0124683 0.0314814 0)
(-0.0161074 0.0257397 0)
(-0.0193493 0.0205019 0)
(-0.022162 0.0158956 0)
(-0.024559 0.0118218 0)
(-0.026541 0.00810639 0)
(-0.0280255 0.0045178 0)
(-0.0287492 0.000779258 0)
(-0.0281506 -0.0033689 0)
(-0.0254994 -0.00801472 0)
(-0.0201253 -0.0124326 0)
(-0.0126409 -0.0145743 0)
(-0.00559569 -0.013025 0)
(-0.00142146 -0.0101366 0)
(0.00145971 -0.0065925 0)
(0.00448874 -0.0045213 0)
(0.00704122 -0.00444979 0)
(0.00872785 -0.0054514 0)
(0.00965112 -0.00661731 0)
(0.0100145 -0.00704157 0)
(0.00992787 -0.00572874 0)
(0.00937745 -0.00170219 0)
(0.00821482 0.00571329 0)
(0.0064717 0.0158157 0)
(0.00427977 0.0261063 0)
(0.0020856 0.0321657 0)
(0.000546042 0.0288607 0)
(-1.39778e-05 0.0135272 0)
(-2.31842e-05 0.0183303 0)
(-0.00105714 0.0396512 0)
(-0.00340245 0.0468827 0)
(-0.00659451 0.0445511 0)
(-0.00998702 0.0381739 0)
(-0.0132132 0.0311093 0)
(-0.0161325 0.0246512 0)
(-0.0187407 0.0190552 0)
(-0.0210801 0.0141962 0)
(-0.0231555 0.00980394 0)
(-0.0248499 0.00552616 0)
(-0.0258205 0.00097272 0)
(-0.0253895 -0.00419627 0)
(-0.0227359 -0.0100504 0)
(-0.0172334 -0.0155168 0)
(-0.00981788 -0.0177673 0)
(-0.00313446 -0.0153193 0)
(0.000883069 -0.0115783 0)
(0.00344848 -0.00808931 0)
(0.0058281 -0.00607728 0)
(0.00767646 -0.00568867 0)
(0.00878623 -0.00625827 0)
(0.0092557 -0.00700348 0)
(0.00925134 -0.00701031 0)
(0.00886492 -0.00516111 0)
(0.00804888 -0.000300103 0)
(0.00673384 0.00827437 0)
(0.0049878 0.0195621 0)
(0.00301184 0.0305088 0)
(0.00125964 0.0360402 0)
(0.000224724 0.0310553 0)
(-3.36479e-05 0.0140025 0)
(2.67799e-05 0.0196202 0)
(-0.00052954 0.0440214 0)
(-0.00218447 0.0536344 0)
(-0.0047288 0.0519418 0)
(-0.00760635 0.0448542 0)
(-0.0104253 0.0365863 0)
(-0.0130298 0.0289859 0)
(-0.0154268 0.0224872 0)
(-0.0176728 0.016919 0)
(-0.0197695 0.0118734 0)
(-0.0215724 0.00684812 0)
(-0.0226794 0.00132977 0)
(-0.0223076 -0.00509792 0)
(-0.0195638 -0.0124434 0)
(-0.0139353 -0.0191158 0)
(-0.0067817 -0.0213112 0)
(-0.000561479 -0.0177477 0)
(0.00313682 -0.01319 0)
(0.00547971 -0.00951937 0)
(0.00727278 -0.00733973 0)
(0.00844523 -0.00657488 0)
(0.0089769 -0.0066908 0)
(0.00898549 -0.00699377 0)
(0.00861346 -0.00655585 0)
(0.00793806 -0.00412898 0)
(0.00688237 0.00166091 0)
(0.00547693 0.011308 0)
(0.00377579 0.0235431 0)
(0.00203822 0.0346975 0)
(0.000690237 0.0392244 0)
(4.67716e-05 0.0324767 0)
(-3.38293e-05 0.0141409 0)
(4.7702e-05 0.0201872 0)
(-0.000151921 0.0469988 0)
(-0.00118272 0.0592372 0)
(-0.00309967 0.0587754 0)
(-0.00548126 0.0513886 0)
(-0.00791655 0.0421008 0)
(-0.0102107 0.0334472 0)
(-0.0123542 0.0261205 0)
(-0.0144032 0.0199047 0)
(-0.0163661 0.0142251 0)
(-0.0181093 0.0084048 0)
(-0.0192147 0.00178848 0)
(-0.0187974 -0.00613452 0)
(-0.0158903 -0.0152832 0)
(-0.0102398 -0.0232376 0)
(-0.00363317 -0.025069 0)
(0.00189634 -0.020256 0)
(0.00518428 -0.0149541 0)
(0.00729016 -0.0108523 0)
(0.00858514 -0.0082919 0)
(0.00920359 -0.00705549 0)
(0.00924782 -0.00667003 0)
(0.00885495 -0.00649478 0)
(0.00815258 -0.00558108 0)
(0.00720181 -0.00255735 0)
(0.0059614 0.00413214 0)
(0.00448385 0.0147655 0)
(0.00285509 0.0276728 0)
(0.00135333 0.0385855 0)
(0.000342109 0.0417447 0)
(-3.50346e-05 0.0332957 0)
(-2.86064e-05 0.0140864 0)
(5.24471e-05 0.0201577 0)
(0.000100712 0.0485009 0)
(-0.000386622 0.0634305 0)
(-0.00169836 0.0648204 0)
(-0.00360876 0.0576621 0)
(-0.00569641 0.0475865 0)
(-0.00769582 0.0379354 0)
(-0.00954398 0.0297896 0)
(-0.011278 0.0229409 0)
(-0.0129275 0.0166488 0)
(-0.0144198 0.0100382 0)
(-0.0153754 0.00226097 0)
(-0.0147968 -0.00736904 0)
(-0.0116837 -0.0186497 0)
(-0.00626126 -0.0277689 0)
(-0.000500312 -0.0287573 0)
(0.00396456 -0.0228857 0)
(0.00690781 -0.0167414 0)
(0.00865955 -0.012046 0)
(0.00953689 -0.00894356 0)
(0.00975091 -0.00714008 0)
(0.0094524 -0.00618915 0)
(0.00877714 -0.0054771 0)
(0.00783083 -0.00402938 0)
(0.00664332 -0.000335951 0)
(0.00523697 0.0072026 0)
(0.00370304 0.0186626 0)
(0.00215824 0.0319161 0)
(0.000873437 0.0421592 0)
(0.000130955 0.0437094 0)
(-7.26147e-05 0.0337123 0)
(-2.44251e-05 0.0139213 0)
(6.05525e-05 0.019592 0)
(0.000295123 0.048593 0)
(0.000291547 0.0657915 0)
(-0.000392202 0.0697534 0)
(-0.00182791 0.0635514 0)
(-0.0036269 0.0530086 0)
(-0.00541092 0.04237 0)
(-0.00700519 0.0333048 0)
(-0.00838704 0.0257448 0)
(-0.00959918 0.0188424 0)
(-0.0106596 0.0115095 0)
(-0.0112812 0.00260845 0)
(-0.0103228 -0.00892491 0)
(-0.00706502 -0.0225765 0)
(-0.0022699 -0.0323733 0)
(0.00219646 -0.0321921 0)
(0.00555142 -0.0254192 0)
(0.0079327 -0.0184402 0)
(0.00924802 -0.01306 0)
(0.00979619 -0.0093326 0)
(0.00977822 -0.00690888 0)
(0.00932933 -0.00534065 0)
(0.00854937 -0.00401567 0)
(0.00748816 -0.00191371 0)
(0.00613423 0.00268397 0)
(0.0045995 0.0109841 0)
(0.0029978 0.0230537 0)
(0.00150662 0.0362803 0)
(0.000411883 0.0454213 0)
(-8.41709e-05 0.0451375 0)
(-0.000127564 0.0337923 0)
(-2.65176e-05 0.0136533 0)
(7.51706e-05 0.0183744 0)
(0.000503513 0.0470047 0)
(0.000938332 0.0658588 0)
(0.000961732 0.0727024 0)
(0.000267366 0.0689277 0)
(-0.00113938 0.0585515 0)
(-0.00284836 0.046882 0)
(-0.00445354 0.0365511 0)
(-0.00571318 0.0279591 0)
(-0.00660276 0.0203004 0)
(-0.00720529 0.0123211 0)
(-0.00729071 0.00254148 0)
(-0.00555364 -0.0111809 0)
(-0.00242314 -0.0268926 0)
(0.00128913 -0.0364177 0)
(0.00395069 -0.0351062 0)
(0.0060689 -0.0275765 0)
(0.00758567 -0.0198737 0)
(0.00840438 -0.0138706 0)
(0.00873734 -0.00956298 0)
(0.00869887 -0.00654869 0)
(0.00835318 -0.00434036 0)
(0.00773638 -0.00225409 0)
(0.00674622 0.000808855 0)
(0.00535563 0.00624579 0)
(0.00361242 0.0153785 0)
(0.00175113 0.0280079 0)
(0.000259405 0.040849 0)
(-0.00048004 0.0481479 0)
(-0.000542404 0.0456332 0)
(-0.000298972 0.0331483 0)
(-4.56011e-05 0.013076 0)
(9.47962e-05 0.0161985 0)
(0.00074865 0.0429308 0)
(0.00167713 0.0624714 0)
(0.0024881 0.0720284 0)
(0.00275754 0.0716146 0)
(0.00224895 0.0638501 0)
(0.00106341 0.0526907 0)
(-0.000465534 0.0409876 0)
(-0.00187861 0.0304378 0)
(-0.00284216 0.0212578 0)
(-0.0033168 0.0120301 0)
(-0.00285158 0.00069152 0)
(-0.000967534 -0.0148127 0)
(0.00155797 -0.0308678 0)
(0.00352307 -0.0390991 0)
(0.00409245 -0.0368565 0)
(0.00434667 -0.0288166 0)
(0.00464744 -0.0207471 0)
(0.00489876 -0.0144764 0)
(0.00513132 -0.0098913 0)
(0.00528417 -0.00655195 0)
(0.00533318 -0.00400769 0)
(0.00513119 -0.00118669 0)
(0.0037568 0.00314316 0)
(0.00174848 0.0103528 0)
(-0.000405388 0.0217603 0)
(-0.00196349 0.03471 0)
(-0.00258419 0.0445882 0)
(-0.00233442 0.0482205 0)
(-0.00155276 0.0433009 0)
(-0.000699039 0.0302352 0)
(-9.5271e-05 0.0114647 0)
(0.00011402 0.0129834 0)
(0.000985835 0.0360501 0)
(0.00240356 0.0549206 0)
(0.00400356 0.06644 0)
(0.00531187 0.0694437 0)
(0.00596837 0.065167 0)
(0.00584714 0.0562877 0)
(0.00506302 0.0453832 0)
(0.00392245 0.0342081 0)
(0.00282924 0.0234386 0)
(0.00210002 0.0123802 0)
(0.00228309 -0.000762082 0)
(0.00307687 -0.0169365 0)
(0.00414347 -0.0325997 0)
(0.00354376 -0.0396231 0)
(0.001021 -0.0360592 0)
(-0.00154483 -0.0279418 0)
(-0.00299249 -0.0202545 0)
(-0.00355033 -0.0145808 0)
(-0.00363492 -0.0105532 0)
(-0.0037538 -0.00751514 0)
(-0.00396903 -0.00427568 0)
(-0.00582195 0.00154666 0)
(-0.00725307 0.00919497 0)
(-0.00846728 0.0179365 0)
(-0.0089244 0.0274777 0)
(-0.00841039 0.036355 0)
(-0.00703871 0.0418634 0)
(-0.0050938 0.0417803 0)
(-0.00300326 0.0350875 0)
(-0.00124458 0.022893 0)
(-0.000156781 0.00793758 0)
(0.000118132 0.00932627 0)
(0.00113586 0.0275717 0)
(0.00295459 0.0445324 0)
(0.00524553 0.056973 0)
(0.00750023 0.0628016 0)
(0.00927109 0.0620291 0)
(0.0102749 0.0561935 0)
(0.0104417 0.0472537 0)
(0.00990602 0.0368166 0)
(0.00895084 0.0257551 0)
(0.00790388 0.0138985 0)
(0.00704816 -6.73547e-05 0)
(0.00615789 -0.0165566 0)
(0.00491301 -0.0313913 0)
(0.000265049 -0.0361423 0)
(-0.00657796 -0.0311436 0)
(-0.0123301 -0.0241232 0)
(-0.0160735 -0.0178971 0)
(-0.0185263 -0.0130323 0)
(-0.0203076 -0.00887805 0)
(-0.0217927 -0.00469551 0)
(-0.0230055 -0.000128298 0)
(-0.0232728 0.00484909 0)
(-0.0222633 0.0105729 0)
(-0.0204489 0.0169698 0)
(-0.0178247 0.0233161 0)
(-0.0145181 0.0282943 0)
(-0.0108229 0.0301616 0)
(-0.0071224 0.0276437 0)
(-0.0038451 0.0207733 0)
(-0.00142955 0.0114917 0)
(-0.000149837 0.00295083 0)
(0.000106963 0.00588372 0)
(0.00115828 0.018919 0)
(0.00320692 0.0330161 0)
(0.00599633 0.0453505 0)
(0.00900246 0.053242 0)
(0.011703 0.0556486 0)
(0.0136904 0.0530698 0)
(0.0147417 0.0467573 0)
(0.0148337 0.0380179 0)
(0.0140948 0.0277813 0)
(0.0127122 0.016249 0)
(0.0109271 0.00255578 0)
(0.00824867 -0.0135128 0)
(0.00399913 -0.0265993 0)
(-0.00598177 -0.028804 0)
(-0.0157911 -0.0241864 0)
(-0.0243266 -0.0187599 0)
(-0.0309353 -0.0134437 0)
(-0.0358899 -0.00905607 0)
(-0.0394107 -0.00561769 0)
(-0.0411889 -0.00281806 0)
(-0.0409151 -0.000185588 0)
(-0.038571 0.00273343 0)
(-0.0348233 0.0060411 0)
(-0.0297987 0.00948626 0)
(-0.0238583 0.0125176 0)
(-0.0175214 0.0143486 0)
(-0.0114572 0.0140616 0)
(-0.00631921 0.0111629 0)
(-0.00263307 0.00633594 0)
(-0.00062948 0.00174855 0)
(1.06894e-05 -0.000392434 0)
(8.9623e-05 0.00302204 0)
(0.00106323 0.0112002 0)
(0.00311465 0.0219662 0)
(0.00611228 0.0333534 0)
(0.00956206 0.0425276 0)
(0.0128901 0.0476041 0)
(0.0155959 0.0481371 0)
(0.0173429 0.0446637 0)
(0.017987 0.0381202 0)
(0.0175318 0.0293985 0)
(0.0160365 0.0189349 0)
(0.0135615 0.00634084 0)
(0.00973739 -0.00840932 0)
(0.00169342 -0.01921 0)
(-0.0113494 -0.01984 0)
(-0.0224447 -0.0165151 0)
(-0.032724 -0.0122941 0)
(-0.0407751 -0.00798553 0)
(-0.0461934 -0.00481982 0)
(-0.049255 -0.00322737 0)
(-0.0500817 -0.00311663 0)
(-0.0488099 -0.00407646 0)
(-0.0455849 -0.00565267 0)
(-0.0405884 -0.00742223 0)
(-0.0341163 -0.00911395 0)
(-0.0267118 -0.0104322 0)
(-0.0191079 -0.0110802 0)
(-0.0120473 -0.0106955 0)
(-0.0062144 -0.00893633 0)
(-0.00219869 -0.0059409 0)
(-0.000278029 -0.00279855 0)
(8.45254e-05 -0.0006137 0)
(6.6528e-05 0.000878123 0)
(0.00086575 0.0050586 0)
(0.00267995 0.0125402 0)
(0.00554357 0.0224188 0)
(0.00906538 0.0321712 0)
(0.012658 0.0393213 0)
(0.0157674 0.0425715 0)
(0.0179969 0.04177 0)
(0.0191388 0.0374683 0)
(0.0191268 0.0304664 0)
(0.0179511 0.0213336 0)
(0.015539 0.0101202 0)
(0.0112528 -0.00251359 0)
(0.000591392 -0.0109446 0)
(-0.0119451 -0.0115458 0)
(-0.0223266 -0.0096864 0)
(-0.0317256 -0.00684948 0)
(-0.0386524 -0.00407956 0)
(-0.0427342 -0.0025645 0)
(-0.0446513 -0.00265836 0)
(-0.0448618 -0.00433039 0)
(-0.0436419 -0.00731702 0)
(-0.0411392 -0.0112631 0)
(-0.0374574 -0.0158128 0)
(-0.0327468 -0.020529 0)
(-0.0272471 -0.0247687 0)
(-0.0212853 -0.027609 0)
(-0.0152493 -0.0279239 0)
(-0.00956732 -0.0246781 0)
(-0.00475519 -0.0176522 0)
(-0.00148103 -0.00877748 0)
(-9.19184e-05 -0.00181868 0)
(4.60566e-05 -0.000546374 0)
(0.000610141 0.000771474 0)
(0.00197417 0.00549221 0)
(0.00434065 0.0136023 0)
(0.00753266 0.0232972 0)
(0.0110266 0.0318338 0)
(0.014259 0.0371834 0)
(0.0168241 0.0385657 0)
(0.0185017 0.0361799 0)
(0.0191997 0.0307215 0)
(0.0188772 0.0228545 0)
(0.0173805 0.0131474 0)
(0.0138462 0.00395777 0)
(0.00427225 -0.00324386 0)
(-0.00665182 -0.00524448 0)
(-0.0149458 -0.00465892 0)
(-0.0219467 -0.00293902 0)
(-0.0268012 -0.00117937 0)
(-0.0296869 -0.000499341 0)
(-0.0315157 -0.00146846 0)
(-0.0320692 -0.0041683 0)
(-0.0317836 -0.00834695 0)
(-0.0308423 -0.0136965 0)
(-0.0292782 -0.0199427 0)
(-0.0270827 -0.0266988 0)
(-0.0242105 -0.0333039 0)
(-0.0206176 -0.038723 0)
(-0.0163321 -0.0415127 0)
(-0.0115255 -0.0400065 0)
(-0.00662857 -0.0327093 0)
(-0.00251404 -0.0199354 0)
(-0.00021716 -0.00583995 0)
(3.35523e-05 -0.00134478 0)
(0.000351633 -0.00166423 0)
(0.00113359 0.00114035 0)
(0.00268163 0.0075459 0)
(0.00515452 0.0165917 0)
(0.00824499 0.0257053 0)
(0.0114185 0.032349 0)
(0.0142769 0.0352169 0)
(0.0166079 0.0342112 0)
(0.0183008 0.0299314 0)
(0.0192649 0.0231136 0)
(0.0192491 0.0147063 0)
(0.0175096 0.00714839 0)
(0.0129128 0.0026497 0)
(0.00459795 -0.000105266 0)
(-0.00356287 -0.00120244 0)
(-0.0085726 -0.000694229 0)
(-0.0114248 0.000327571 0)
(-0.0136249 0.000606259 0)
(-0.0151973 -0.000662139 0)
(-0.0160746 -0.00372467 0)
(-0.0165432 -0.00820795 0)
(-0.0169798 -0.0138842 0)
(-0.0173413 -0.0206471 0)
(-0.0175278 -0.0282921 0)
(-0.0173097 -0.036358 0)
(-0.0163624 -0.0439662 0)
(-0.0143958 -0.0495714 0)
(-0.0112957 -0.0511039 0)
(-0.00727542 -0.0457211 0)
(-0.00318545 -0.031424 0)
(-0.000351632 -0.0106911 0)
(2.15123e-05 -0.00169628 0)
(7.94068e-05 -0.00259708 0)
(0.00019265 -0.000733694 0)
(0.000688921 0.00433452 0)
(0.00214114 0.0122443 0)
(0.00467561 0.0210487 0)
(0.00777448 0.0280938 0)
(0.0109829 0.0317084 0)
(0.0141034 0.0315217 0)
(0.016999 0.0280527 0)
(0.0194622 0.0221 0)
(0.0210403 0.0148451 0)
(0.0209487 0.00851257 0)
(0.0187333 0.00465574 0)
(0.0148236 0.00281705 0)
(0.0103971 0.00149994 0)
(0.00595915 0.000890972 0)
(0.0030425 0.00125081 0)
(0.00156154 0.00144593 0)
(0.000986891 0.000237815 0)
(0.000312959 -0.00273949 0)
(-0.000653423 -0.00706098 0)
(-0.0020858 -0.0124723 0)
(-0.00386028 -0.0189998 0)
(-0.00588196 -0.0266131 0)
(-0.00790759 -0.0351512 0)
(-0.00953496 -0.0441647 0)
(-0.0101817 -0.0521684 0)
(-0.00939739 -0.0571295 0)
(-0.00698438 -0.0550693 0)
(-0.00358906 -0.041576 0)
(-0.000491613 -0.015881 0)
(-1.32554e-05 -0.00160515 0)
(-0.000334085 -0.00220802 0)
(-0.000968731 -0.000345738 0)
(-0.00151473 0.00377558 0)
(-0.00119504 0.00988349 0)
(0.000630776 0.0174153 0)
(0.00380614 0.024231 0)
(0.00752552 0.027998 0)
(0.0115511 0.0281691 0)
(0.0157525 0.0252442 0)
(0.0197376 0.0200823 0)
(0.0228181 0.0139444 0)
(0.0242177 0.00872593 0)
(0.0238412 0.00554808 0)
(0.0223902 0.0038964 0)
(0.0204333 0.00268164 0)
(0.018131 0.00202577 0)
(0.0163922 0.0019 0)
(0.0155881 0.00162497 0)
(0.0154638 0.000300089 0)
(0.015097 -0.00228993 0)
(0.0139323 -0.00594119 0)
(0.0119574 -0.0105999 0)
(0.00932161 -0.0163113 0)
(0.00615169 -0.0231144 0)
(0.00263307 -0.0310902 0)
(-0.00115067 -0.0406255 0)
(-0.00430896 -0.0501142 0)
(-0.00616685 -0.0582202 0)
(-0.00590651 -0.0602011 0)
(-0.00377121 -0.0494608 0)
(-0.000646282 -0.0210339 0)
(-0.00010782 -0.000941 0)
(-0.00105537 -0.000518097 0)
(-0.0025474 0.00162259 0)
(-0.00395573 0.0049237 0)
(-0.00446162 0.00930358 0)
(-0.00332701 0.0146977 0)
(-0.000245741 0.0203306 0)
(0.00429391 0.0240459 0)
(0.00934008 0.0242897 0)
(0.0148661 0.0217719 0)
(0.0202704 0.0174123 0)
(0.0246754 0.0123841 0)
(0.0273953 0.00817772 0)
(0.0285683 0.00556831 0)
(0.0289545 0.00411993 0)
(0.0289896 0.00306835 0)
(0.0286656 0.00242204 0)
(0.0284048 0.00211927 0)
(0.0284752 0.00163264 0)
(0.0286986 0.000376562 0)
(0.0283764 -0.00183615 0)
(0.0270753 -0.00491092 0)
(0.0247591 -0.00884333 0)
(0.0215321 -0.0137009 0)
(0.0175359 -0.019558 0)
(0.0129566 -0.0265104 0)
(0.00792402 -0.0347426 0)
(0.00279434 -0.0443341 0)
(-0.0017564 -0.0548797 0)
(-0.00408158 -0.0610806 0)
(-0.00376295 -0.0546391 0)
(-0.000844485 -0.0259422 0)
(-0.00026749 0.000631164 0)
(-0.00211687 0.00264486 0)
(-0.00451612 0.00475782 0)
(-0.00660497 0.00689219 0)
(-0.00756278 0.00945832 0)
(-0.00674505 0.0127707 0)
(-0.00377817 0.0166274 0)
(0.00147397 0.0197891 0)
(0.00778554 0.0200224 0)
(0.0145933 0.0179062 0)
(0.0212731 0.0143934 0)
(0.0268574 0.0104406 0)
(0.0308052 0.00713818 0)
(0.0333952 0.00501604 0)
(0.0353633 0.00377465 0)
(0.0371019 0.00287415 0)
(0.0384483 0.00228148 0)
(0.0395152 0.00193692 0)
(0.0404547 0.00143276 0)
(0.0410864 0.000359628 0)
(0.0409042 -0.00141595 0)
(0.0395721 -0.00386066 0)
(0.0370476 -0.00698904 0)
(0.0333857 -0.0108804 0)
(0.0286898 -0.0156492 0)
(0.0231204 -0.0214616 0)
(0.0168857 -0.0285769 0)
(0.0103051 -0.0372998 0)
(0.00385386 -0.0478151 0)
(-0.00136501 -0.0578653 0)
(-0.0034823 -0.0569071 0)
(-0.00110711 -0.0305089 0)
(-0.00058139 0.00330075 0)
(-0.00357257 0.00700369 0)
(-0.00667277 0.00851194 0)
(-0.00903748 0.0090694 0)
(-0.00999655 0.0097545 0)
(-0.00908813 0.0111234 0)
(-0.00598096 0.0132197 0)
(-0.00019597 0.0153538 0)
(0.00746873 0.0154957 0)
(0.0154761 0.0138661 0)
(0.0233274 0.0112228 0)
(0.0300649 0.00826937 0)
(0.0352722 0.00576631 0)
(0.0392526 0.00408653 0)
(0.0426552 0.00305717 0)
(0.0458369 0.00231445 0)
(0.0484975 0.0018163 0)
(0.0505741 0.00150429 0)
(0.0521868 0.00107362 0)
(0.0531699 0.000233993 0)
(0.0531428 -0.00110192 0)
(0.0518205 -0.00291841 0)
(0.0491647 -0.00523493 0)
(0.0452023 -0.00812372 0)
(0.0399968 -0.0117066 0)
(0.0336591 -0.016185 0)
(0.0263672 -0.0218964 0)
(0.0184025 -0.029372 0)
(0.0102153 -0.0392786 0)
(0.00270554 -0.0509189 0)
(-0.00258261 -0.0561063 0)
(-0.00138262 -0.03471 0)
(-0.00103789 0.00726342 0)
(-0.00517815 0.0119938 0)
(-0.00825089 0.0119922 0)
(-0.00999186 0.0106915 0)
(-0.0101749 0.00964401 0)
(-0.00862261 0.00937402 0)
(-0.00506701 0.00991132 0)
(0.00143792 0.0109074 0)
(0.00997022 0.0108881 0)
(0.0190241 0.00980323 0)
(0.0279563 0.00799239 0)
(0.035858 0.00593787 0)
(0.0423266 0.00415324 0)
(0.0475672 0.00290803 0)
(0.0521014 0.00212227 0)
(0.0562593 0.00156894 0)
(0.0596889 0.00120585 0)
(0.062292 0.00097349 0)
(0.0642161 0.000657685 0)
(0.0653271 6.26026e-05 0)
(0.0652956 -0.000850551 0)
(0.0639031 -0.00207512 0)
(0.0611259 -0.00362644 0)
(0.0569838 -0.0055572 0)
(0.0515127 -0.00796968 0)
(0.0447615 -0.0110588 0)
(0.0368065 -0.0151923 0)
(0.0277975 -0.02103 0)
(0.0180711 -0.0296003 0)
(0.00838538 -0.0414813 0)
(-0.000266359 -0.0518233 0)
(-0.00141143 -0.0382985 0)
(-0.00168606 0.0129956 0)
(-0.00618157 0.0164442 0)
(-0.00723041 0.0138362 0)
(-0.00643105 0.0108202 0)
(-0.00442213 0.00854997 0)
(-0.00125506 0.00714306 0)
(0.00353347 0.00657095 0)
(0.0102981 0.00663609 0)
(0.0189641 0.00649403 0)
(0.0285183 0.00587169 0)
(0.0380725 0.00479479 0)
(0.0467043 0.0035418 0)
(0.0539078 0.00243149 0)
(0.059733 0.00164416 0)
(0.0645917 0.00114975 0)
(0.0688265 0.000819193 0)
(0.0721863 0.000614673 0)
(0.0746574 0.00048305 0)
(0.0764027 0.000292757 0)
(0.077315 -6.37584e-05 0)
(0.0770449 -0.000596741 0)
(0.0754913 -0.00130135 0)
(0.0726445 -0.0021855 0)
(0.0685296 -0.00327944 0)
(0.0631709 -0.00465129 0)
(0.0565661 -0.00644999 0)
(0.0486663 -0.00899454 0)
(0.0393856 -0.0129356 0)
(0.0287127 -0.0194698 0)
(0.0169493 -0.0301164 0)
(0.00462433 -0.04336 0)
(-0.00010744 -0.0395214 0)
(-0.00117468 0.0184587 0)
(-0.00308988 0.0180812 0)
(0.00267362 0.0121643 0)
(0.00884884 0.00856264 0)
(0.0145682 0.00613266 0)
(0.0200694 0.00447321 0)
(0.0258092 0.00349774 0)
(0.0323304 0.00307742 0)
(0.0400462 0.00282757 0)
(0.0485539 0.00249762 0)
(0.0570762 0.00199849 0)
(0.0647338 0.0014259 0)
(0.0709763 0.000925427 0)
(0.0757885 0.000582772 0)
(0.0795431 0.000381918 0)
(0.0826121 0.000260277 0)
(0.0849474 0.000192827 0)
(0.0866241 0.000147378 0)
(0.0877392 6.45995e-05 0)
(0.0881441 -9.20486e-05 0)
(0.0875857 -0.000325071 0)
(0.0859992 -0.000626898 0)
(0.0833905 -0.000999371 0)
(0.0797942 -0.00145468 0)
(0.0752337 -0.00202577 0)
(0.0696794 -0.00279602 0)
(0.0629882 -0.00396926 0)
(0.054825 -0.00601917 0)
(0.0445937 -0.00995285 0)
(0.031491 -0.0175181 0)
(0.0154178 -0.0296152 0)
(0.00629606 -0.0333204 0)
(0.0208672 0.0114719 0)
(0.0273326 0.00935756 0)
(0.0402708 0.00542216 0)
(0.0505187 0.00323382 0)
(0.0578792 0.00197061 0)
(0.0634823 0.00118352 0)
(0.0680584 0.00072179 0)
(0.0722113 0.000489976 0)
(0.0764458 0.000370964 0)
(0.0808069 0.000288793 0)
(0.0849734 0.000204039 0)
(0.0885 0.000121127 0)
(0.0911349 5.87852e-05 0)
(0.0929556 2.56332e-05 0)
(0.0942421 1.30573e-05 0)
(0.0952348 8.23513e-06 0)
(0.0959807 7.64504e-06 0)
(0.0965203 5.81805e-06 0)
(0.0968309 -6.18354e-06 0)
(0.0967802 -3.03606e-05 0)
(0.0962533 -6.51882e-05 0)
(0.0952196 -0.000108097 0)
(0.0936928 -0.000159061 0)
(0.0916995 -0.00021975 0)
(0.0892533 -0.000295729 0)
(0.0863176 -0.000403361 0)
(0.0827338 -0.000587891 0)
(0.0780773 -0.000966499 0)
(0.0713639 -0.00182642 0)
(0.0605206 -0.00392135 0)
(0.0430839 -0.00912248 0)
(0.0285338 -0.0144668 0)
)
;

boundaryField
{
    movingWall
    {
        type            fixedValue;
        value           uniform (0.1 0 0);
    }
    fixedWalls
    {
        type            noSlip;
    }
    floor
    {
        type            noSlip;
    }
    frontAndBack
    {
        type            empty;
    }
}


// ************************************************************************* //
