/*--------------------------------*- C++ -*----------------------------------*\
| =========                 |                                                 |
| \\      /  F ield         | OpenFOAM: The Open Source CFD Toolbox           |
|  \\    /   O peration     | Version:  2212                                  |
|   \\  /    A nd           | Website:  www.openfoam.com                      |
|    \\/     M anipulation  |                                                 |
\*---------------------------------------------------------------------------*/
FoamFile
{
    version     2.0;
    format      ascii;
    arch        "LSB;label=64;scalar=64";
    class       volScalarField;
    location    "230";
    object      Xch;
}
// * * * * * * * * * * * * * * * * * * * * * * * * * * * * * * * * * * * * * //

dimensions      [1 -3 0 0 0 0 0];

internalField   nonuniform List<scalar> 
1024
(
0.0201427
0.0201428
0.020143
0.0201434
0.020144
0.0201447
0.0201456
0.0201466
0.0201475
0.0201483
0.0201491
0.0201497
0.02015
0.0201501
0.0201497
0.0201485
0.0201463
0.0201437
0.0201411
0.0201388
0.0201368
0.0201354
0.0201342
0.0201333
0.0201325
0.0201317
0.0201311
0.0201305
0.0201301
0.0201298
0.0201296
0.0201296
0.0201427
0.0201428
0.020143
0.0201434
0.020144
0.0201448
0.0201457
0.0201467
0.0201476
0.0201485
0.0201492
0.0201498
0.0201502
0.0201503
0.0201499
0.0201487
0.0201465
0.0201439
0.0201412
0.0201388
0.0201369
0.0201355
0.0201343
0.0201334
0.0201325
0.0201318
0.0201311
0.0201306
0.0201301
0.0201298
0.0201297
0.0201296
0.0201428
0.0201429
0.0201431
0.0201436
0.0201442
0.020145
0.020146
0.020147
0.0201479
0.0201487
0.0201495
0.0201501
0.0201505
0.0201507
0.0201503
0.0201491
0.0201469
0.0201442
0.0201414
0.020139
0.0201371
0.0201357
0.0201345
0.0201335
0.0201327
0.0201319
0.0201312
0.0201307
0.0201302
0.0201299
0.0201297
0.0201296
0.0201429
0.020143
0.0201433
0.0201438
0.0201445
0.0201454
0.0201463
0.0201473
0.0201483
0.0201491
0.0201499
0.0201506
0.0201511
0.0201514
0.0201511
0.0201499
0.0201476
0.0201447
0.0201419
0.0201394
0.0201375
0.020136
0.0201348
0.0201338
0.0201329
0.0201321
0.0201314
0.0201308
0.0201303
0.0201299
0.0201297
0.0201296
0.020143
0.0201431
0.0201435
0.020144
0.0201448
0.0201457
0.0201468
0.0201478
0.0201488
0.0201497
0.0201506
0.0201514
0.0201521
0.0201525
0.0201524
0.0201513
0.0201488
0.0201457
0.0201425
0.02014
0.020138
0.0201365
0.0201353
0.0201342
0.0201332
0.0201323
0.0201316
0.0201309
0.0201304
0.02013
0.0201298
0.0201297
0.0201432
0.0201433
0.0201437
0.0201443
0.0201451
0.0201461
0.0201472
0.0201483
0.0201494
0.0201504
0.0201514
0.0201524
0.0201534
0.0201541
0.0201544
0.0201534
0.0201506
0.020147
0.0201436
0.0201408
0.0201388
0.0201372
0.0201359
0.0201347
0.0201336
0.0201326
0.0201317
0.020131
0.0201304
0.02013
0.0201298
0.0201297
0.0201434
0.0201435
0.0201439
0.0201445
0.0201454
0.0201465
0.0201477
0.0201489
0.02015
0.0201512
0.0201524
0.0201537
0.020155
0.0201563
0.020157
0.0201562
0.020153
0.020149
0.0201451
0.0201421
0.0201399
0.0201381
0.0201366
0.0201352
0.020134
0.0201329
0.0201319
0.0201311
0.0201305
0.0201301
0.0201299
0.0201298
0.0201436
0.0201437
0.0201441
0.0201448
0.0201457
0.0201468
0.0201481
0.0201493
0.0201506
0.0201519
0.0201534
0.020155
0.0201569
0.0201587
0.02016
0.0201596
0.0201561
0.0201515
0.0201471
0.0201437
0.0201412
0.0201392
0.0201374
0.0201358
0.0201344
0.0201331
0.020132
0.0201312
0.0201305
0.0201301
0.0201299
0.0201298
0.0201437
0.0201439
0.0201443
0.0201449
0.0201459
0.020147
0.0201483
0.0201497
0.0201511
0.0201526
0.0201543
0.0201563
0.0201586
0.0201612
0.0201633
0.0201634
0.0201596
0.0201544
0.0201496
0.0201458
0.0201428
0.0201404
0.0201382
0.0201363
0.0201347
0.0201332
0.0201321
0.0201312
0.0201306
0.0201301
0.0201299
0.0201298
0.0201438
0.020144
0.0201444
0.020145
0.0201459
0.0201471
0.0201484
0.0201498
0.0201513
0.020153
0.0201549
0.0201571
0.02016
0.0201633
0.0201665
0.0201673
0.0201633
0.0201576
0.0201523
0.0201479
0.0201445
0.0201415
0.020139
0.0201368
0.0201349
0.0201333
0.0201321
0.0201312
0.0201305
0.0201301
0.0201299
0.0201298
0.0201439
0.020144
0.0201444
0.020145
0.0201459
0.020147
0.0201483
0.0201497
0.0201511
0.0201528
0.0201547
0.0201572
0.0201605
0.0201648
0.0201694
0.0201711
0.0201669
0.0201606
0.0201548
0.0201499
0.0201459
0.0201425
0.0201395
0.0201371
0.020135
0.0201333
0.0201321
0.0201311
0.0201305
0.0201301
0.0201298
0.0201298
0.0201439
0.020144
0.0201443
0.0201449
0.0201457
0.0201467
0.0201479
0.0201491
0.0201504
0.0201519
0.0201538
0.0201563
0.02016
0.0201656
0.0201722
0.020175
0.0201703
0.0201631
0.0201566
0.0201512
0.0201467
0.0201429
0.0201397
0.020137
0.0201349
0.0201332
0.0201319
0.020131
0.0201304
0.02013
0.0201298
0.0201297
0.0201438
0.0201439
0.0201442
0.0201446
0.0201453
0.0201461
0.0201471
0.0201481
0.0201491
0.0201503
0.0201519
0.0201544
0.0201587
0.0201661
0.0201754
0.0201792
0.0201734
0.0201648
0.0201574
0.0201514
0.0201466
0.0201426
0.0201392
0.0201365
0.0201344
0.0201328
0.0201316
0.0201308
0.0201302
0.0201298
0.0201296
0.0201295
0.0201435
0.0201436
0.0201438
0.0201442
0.0201447
0.0201453
0.020146
0.0201466
0.0201473
0.020148
0.0201492
0.0201517
0.0201571
0.020167
0.0201797
0.0201841
0.0201761
0.0201652
0.0201565
0.0201499
0.0201449
0.0201409
0.0201378
0.0201354
0.0201335
0.0201322
0.0201312
0.0201304
0.0201299
0.0201296
0.0201294
0.0201293
0.020143
0.0201431
0.0201433
0.0201437
0.020144
0.0201444
0.0201447
0.0201448
0.020145
0.0201452
0.0201462
0.020149
0.0201559
0.0201699
0.0201864
0.0201899
0.0201781
0.0201639
0.0201534
0.0201462
0.0201413
0.0201377
0.0201351
0.0201333
0.020132
0.0201311
0.0201304
0.0201299
0.0201295
0.0201292
0.0201291
0.020129
0.020142
0.0201421
0.0201423
0.0201425
0.0201427
0.0201428
0.0201428
0.0201427
0.0201424
0.0201424
0.0201433
0.0201468
0.0201566
0.0201764
0.0201965
0.0201967
0.020179
0.0201607
0.0201482
0.0201405
0.0201358
0.0201329
0.0201312
0.0201302
0.0201297
0.0201293
0.0201291
0.0201288
0.0201286
0.0201284
0.0201283
0.0201282
0.020141
0.0201411
0.0201414
0.0201416
0.0201418
0.0201418
0.0201417
0.0201413
0.0201408
0.0201406
0.0201414
0.0201462
0.0201607
0.0201881
0.0202097
0.020204
0.0201799
0.0201582
0.0201445
0.0201364
0.0201317
0.020129
0.0201278
0.0201276
0.0201278
0.0201281
0.0201281
0.020128
0.0201278
0.0201276
0.0201274
0.0201274
0.020139
0.0201391
0.0201394
0.0201398
0.0201402
0.0201405
0.0201405
0.0201402
0.0201396
0.0201392
0.0201403
0.0201474
0.0201687
0.0202034
0.0202241
0.0202135
0.0201877
0.0201665
0.020153
0.0201441
0.0201379
0.0201332
0.0201299
0.0201274
0.0201256
0.0201247
0.0201246
0.0201251
0.0201263
0.0201277
0.0201289
0.0201295
0.0201388
0.0201386
0.0201384
0.0201381
0.020138
0.0201381
0.0201382
0.020138
0.0201377
0.0201377
0.02014
0.0201507
0.0201795
0.0202193
0.020239
0.0202299
0.0202109
0.0201965
0.0201876
0.020182
0.0201783
0.0201755
0.0201731
0.0201709
0.0201693
0.0201686
0.0201688
0.02017
0.0201719
0.020174
0.0201755
0.0201763
0.0201462
0.0201455
0.020144
0.0201422
0.0201403
0.0201388
0.0201377
0.0201371
0.0201367
0.0201373
0.0201416
0.0201568
0.0201917
0.0202337
0.0202548
0.0202534
0.020248
0.0202491
0.0202557
0.0202655
0.0202765
0.0202869
0.0202957
0.0203023
0.0203066
0.0203087
0.0203085
0.0203062
0.0203024
0.0202981
0.0202944
0.0202924
0.0201613
0.0201602
0.0201578
0.0201543
0.0201501
0.0201461
0.0201427
0.0201403
0.0201392
0.0201401
0.0201463
0.0201651
0.0202027
0.0202449
0.0202689
0.0202763
0.0202833
0.0202985
0.0203198
0.0203432
0.0203658
0.0203858
0.0204024
0.0204151
0.020424
0.0204289
0.0204298
0.0204268
0.0204209
0.0204134
0.0204068
0.0204031
0.0201796
0.0201784
0.0201757
0.0201711
0.0201652
0.0201587
0.0201527
0.0201482
0.0201456
0.0201465
0.020154
0.0201746
0.0202113
0.0202516
0.0202786
0.0202925
0.0203051
0.0203249
0.0203506
0.0203772
0.0204008
0.02042
0.0204348
0.0204461
0.0204546
0.0204606
0.0204644
0.0204657
0.0204647
0.0204619
0.0204584
0.0204561
0.0201981
0.0201969
0.020194
0.0201889
0.0201818
0.0201735
0.0201654
0.0201589
0.0201552
0.0201559
0.0201643
0.020185
0.0202187
0.0202558
0.0202846
0.0203032
0.0203182
0.0203366
0.0203595
0.0203834
0.0204043
0.0204206
0.0204331
0.0204431
0.0204515
0.0204589
0.0204651
0.0204696
0.0204723
0.0204731
0.0204727
0.020472
0.0202163
0.0202151
0.0202119
0.0202063
0.0201984
0.0201889
0.0201794
0.0201716
0.0201673
0.0201682
0.0201773
0.0201977
0.0202285
0.0202623
0.020291
0.0203124
0.0203288
0.0203448
0.0203631
0.0203825
0.0204001
0.0204145
0.0204263
0.0204365
0.020446
0.0204551
0.0204632
0.0204698
0.0204743
0.0204767
0.0204775
0.0204774
0.0202353
0.0202339
0.0202305
0.0202245
0.020216
0.0202058
0.0201955
0.0201871
0.0201827
0.0201843
0.0201943
0.0202145
0.0202429
0.0202738
0.0203013
0.0203237
0.0203408
0.0203549
0.0203692
0.0203843
0.0203987
0.0204115
0.0204227
0.020433
0.020443
0.0204529
0.0204622
0.0204702
0.020476
0.0204795
0.0204809
0.0204811
0.0202562
0.0202546
0.020251
0.0202449
0.0202366
0.0202267
0.0202164
0.020208
0.0202042
0.0202068
0.0202178
0.0202376
0.0202639
0.0202917
0.0203172
0.0203391
0.0203561
0.0203688
0.0203802
0.0203918
0.0204034
0.0204143
0.0204244
0.0204341
0.0204437
0.0204533
0.0204627
0.0204712
0.0204778
0.0204821
0.020484
0.0204844
0.0202796
0.0202779
0.0202745
0.0202693
0.0202624
0.0202539
0.0202449
0.0202374
0.0202345
0.0202382
0.0202495
0.0202683
0.020292
0.0203165
0.0203392
0.0203591
0.0203749
0.0203863
0.0203956
0.0204045
0.0204135
0.0204224
0.020431
0.0204394
0.0204478
0.0204564
0.0204651
0.0204732
0.02048
0.0204846
0.0204869
0.0204875
0.0203064
0.0203047
0.0203022
0.020299
0.0202947
0.0202892
0.0202827
0.020277
0.0202752
0.0202792
0.0202898
0.0203064
0.0203265
0.0203471
0.0203661
0.0203832
0.0203968
0.0204066
0.020414
0.0204208
0.0204276
0.0204344
0.0204412
0.020448
0.0204548
0.0204619
0.0204691
0.0204762
0.0204825
0.0204871
0.0204896
0.0204903
0.0203372
0.0203359
0.0203352
0.0203349
0.020334
0.0203319
0.0203285
0.020325
0.0203242
0.0203277
0.0203364
0.0203496
0.0203654
0.0203814
0.0203963
0.0204097
0.0204206
0.0204283
0.0204339
0.0204389
0.0204438
0.0204487
0.0204537
0.0204587
0.0204638
0.0204691
0.0204746
0.0204803
0.0204855
0.0204896
0.0204921
0.0204929
0.0203736
0.0203732
0.0203749
0.0203773
0.0203791
0.0203797
0.020379
0.0203774
0.0203772
0.0203797
0.0203857
0.0203948
0.0204059
0.0204171
0.0204275
0.020437
0.0204447
0.0204502
0.0204541
0.0204574
0.0204607
0.0204639
0.0204672
0.0204705
0.0204739
0.0204775
0.0204812
0.0204851
0.020489
0.0204923
0.0204944
0.0204952
0.0204175
0.0204186
0.0204218
0.0204251
0.0204277
0.0204293
0.0204297
0.0204293
0.0204293
0.0204307
0.020434
0.0204392
0.0204455
0.020452
0.020458
0.0204635
0.020468
0.0204712
0.0204735
0.0204754
0.0204772
0.020479
0.0204808
0.0204826
0.0204845
0.0204865
0.0204885
0.0204908
0.020493
0.0204951
0.0204966
0.0204972
0.020471
0.0204719
0.0204735
0.020475
0.0204761
0.0204769
0.0204773
0.0204773
0.0204773
0.0204777
0.0204787
0.0204803
0.0204824
0.0204845
0.0204864
0.0204882
0.0204896
0.0204907
0.0204914
0.020492
0.0204926
0.0204931
0.0204937
0.0204943
0.0204949
0.0204955
0.0204961
0.0204968
0.0204975
0.0204982
0.0204988
0.020499
)
;

boundaryField
{
    movingWall
    {
        type            fixedValue;
        value           uniform 0.0205;
    }
    fixedWalls
    {
        type            zeroGradient;
    }
    floor
    {
        type            zeroGradient;
    }
    frontAndBack
    {
        type            empty;
    }
}


// ************************************************************************* //
