/*--------------------------------*- C++ -*----------------------------------*\
| =========                 |                                                 |
| \\      /  F ield         | OpenFOAM: The Open Source CFD Toolbox           |
|  \\    /   O peration     | Version:  2206                                  |
|   \\  /    A nd           | Website:  www.openfoam.com                      |
|    \\/     M anipulation  |                                                 |
\*---------------------------------------------------------------------------*/
FoamFile
{
    version     2.0;
    format      ascii;
    arch        "LSB;label=64;scalar=64";
    class       volScalarField;
    location    "4.8/water";
    object      alpha.gas_0;
}
// * * * * * * * * * * * * * * * * * * * * * * * * * * * * * * * * * * * * * //

dimensions      [0 0 0 0 0 0 0];

internalField   nonuniform List<scalar> 
23300
(
1e-15
1e-15
1e-15
1e-15
1e-15
1e-15
1e-15
1e-15
1e-15
1e-15
1e-15
1e-15
1e-15
1e-15
1e-15
1e-15
1e-15
1e-15
1e-15
1e-15
1e-15
1e-15
1e-15
1e-15
1e-15
1e-15
1e-15
1e-15
1e-15
1e-15
1e-15
1e-15
1e-15
1e-15
1e-15
1e-15
1e-15
1e-15
1e-15
1e-15
1e-15
1e-15
1e-15
1e-15
1e-15
1e-15
1e-15
1e-15
1e-15
1e-15
1e-15
1e-15
1e-15
1e-15
1e-15
1e-15
1e-15
1e-15
1e-15
1e-15
1e-15
1e-15
1e-15
1e-15
1e-15
1e-15
1e-15
1e-15
1e-15
1e-15
1e-15
1e-15
1e-15
1e-15
1e-15
1e-15
1e-15
1e-15
1e-15
1e-15
1e-15
1e-15
1e-15
1e-15
1e-15
1e-15
1e-15
1e-15
1e-15
1e-15
1e-15
1e-15
1e-15
1e-15
1e-15
1e-15
1e-15
1e-15
1e-15
1e-15
1e-15
1e-15
1e-15
1e-15
1e-15
1e-15
1e-15
1e-15
1e-15
1e-15
1e-15
1e-15
1e-15
1e-15
1e-15
1e-15
1e-15
1e-15
1e-15
1e-15
1e-15
1e-15
1e-15
1e-15
1e-15
1e-15
1e-15
1e-15
1e-15
1e-15
1e-15
1e-15
1e-15
1e-15
1e-15
1e-15
1e-15
1e-15
1e-15
1e-15
1e-15
1e-15
1e-15
1e-15
1e-15
1e-15
1e-15
1e-15
1e-15
1e-15
1e-15
1e-15
1e-15
1e-15
1e-15
1e-15
1e-15
1e-15
1e-15
1e-15
1e-15
1e-15
1e-15
1e-15
1e-15
1e-15
1e-15
1e-15
1e-15
1e-15
1e-15
1e-15
1e-15
1e-15
1e-15
1e-15
1e-15
1e-15
1e-15
1e-15
1e-15
1e-15
1e-15
1e-15
1e-15
1e-15
1e-15
1e-15
1e-15
1e-15
1e-15
1e-15
1e-15
1e-15
1e-15
1e-15
1e-15
1e-15
1e-15
1e-15
1e-15
1e-15
1e-15
1e-15
1e-15
1e-15
1e-15
1e-15
1e-15
1e-15
1e-15
1e-15
1e-15
1e-15
1e-15
1e-15
1e-15
1e-15
1e-15
1e-15
1e-15
1e-15
1e-15
1e-15
1e-15
1e-15
1e-15
1e-15
1e-15
1e-15
1e-15
1e-15
1e-15
1e-15
1e-15
1e-15
1e-15
1e-15
1e-15
1e-15
1e-15
1e-15
1e-15
1e-15
1e-15
1e-15
1e-15
1e-15
1e-15
1e-15
1e-15
1e-15
1e-15
1e-15
1e-15
1e-15
1e-15
1e-15
1e-15
1e-15
1e-15
1e-15
1e-15
1e-15
1e-15
1e-15
1e-15
1e-15
1e-15
1e-15
1e-15
1e-15
1e-15
1e-15
1e-15
1e-15
1e-15
1e-15
1e-15
1e-15
1e-15
1e-15
1e-15
1e-15
1e-15
1e-15
1e-15
1e-15
1e-15
1e-15
1e-15
1e-15
1e-15
1e-15
1e-15
1e-15
1e-15
1e-15
1e-15
1e-15
1e-15
1e-15
1e-15
1e-15
1e-15
1e-15
1e-15
1e-15
1e-15
1e-15
1e-15
1e-15
1e-15
1e-15
1e-15
1e-15
1e-15
1e-15
1e-15
1e-15
1e-15
1e-15
1e-15
1e-15
1e-15
1e-15
1e-15
1e-15
1e-15
1e-15
1e-15
1e-15
1e-15
1e-15
1e-15
1e-15
1e-15
1e-15
1e-15
1e-15
1e-15
1e-15
1e-15
1e-15
1e-15
1e-15
1e-15
1e-15
1e-15
1e-15
1e-15
1e-15
1e-15
1e-15
1e-15
1e-15
1e-15
1e-15
1e-15
1e-15
1e-15
1e-15
1e-15
1e-15
1e-15
1e-15
1e-15
1e-15
1e-15
1e-15
1e-15
1e-15
1e-15
1e-15
1e-15
1e-15
1e-15
1e-15
1e-15
1e-15
1e-15
1e-15
1e-15
1e-15
1e-15
1e-15
1e-15
1e-15
1e-15
1e-15
1e-15
1e-15
1e-15
1e-15
1e-15
1e-15
1e-15
1e-15
1e-15
1e-15
1e-15
1e-15
1e-15
1e-15
1e-15
1e-15
1e-15
1e-15
1e-15
1e-15
1e-15
1e-15
1e-15
1e-15
1e-15
1e-15
1e-15
1e-15
1e-15
1e-15
1e-15
1e-15
1e-15
1e-15
1e-15
1e-15
1e-15
1e-15
1e-15
1e-15
1e-15
1e-15
1e-15
1e-15
1e-15
1e-15
1e-15
1e-15
1e-15
1e-15
1e-15
1e-15
1e-15
1e-15
1e-15
1e-15
1e-15
1e-15
1e-15
1e-15
1e-15
1e-15
1e-15
1e-15
1e-15
1e-15
1e-15
1e-15
1e-15
1e-15
1e-15
1e-15
1e-15
1e-15
1e-15
1e-15
1e-15
1e-15
1e-15
1e-15
1e-15
1e-15
1e-15
1e-15
1e-15
1e-15
1e-15
1e-15
1e-15
1e-15
1e-15
1e-15
1e-15
1e-15
1e-15
1e-15
1e-15
1e-15
1e-15
1e-15
1e-15
1e-15
1e-15
1e-15
1e-15
1e-15
1e-15
1e-15
1e-15
1e-15
1e-15
1e-15
1e-15
1e-15
1e-15
1e-15
1e-15
1e-15
1e-15
1e-15
1e-15
1e-15
1e-15
1e-15
1e-15
1e-15
1e-15
1e-15
1e-15
1e-15
1e-15
1e-15
1e-15
1e-15
1e-15
1e-15
1e-15
1e-15
1e-15
1e-15
1e-15
1e-15
1e-15
1e-15
1e-15
1e-15
1e-15
1e-15
1e-15
1e-15
1e-15
1e-15
1e-15
1e-15
1e-15
1e-15
1e-15
1e-15
1e-15
1e-15
1e-15
1e-15
1e-15
1e-15
1e-15
1e-15
1e-15
1e-15
1e-15
1e-15
1.01220663212e-15
1e-15
1e-15
1e-15
1e-15
1e-15
1e-15
1e-15
1e-15
1e-15
1e-15
1e-15
1e-15
1e-15
1e-15
1e-15
1e-15
1e-15
1e-15
1e-15
1e-15
1e-15
1e-15
1e-15
1e-15
1e-15
1e-15
1e-15
1e-15
1e-15
1e-15
1e-15
1e-15
1e-15
1e-15
1e-15
1e-15
1e-15
1e-15
1e-15
1e-15
1e-15
1e-15
1e-15
1e-15
1e-15
1e-15
1e-15
1e-15
1e-15
1e-15
1e-15
1e-15
1e-15
1e-15
1e-15
1e-15
1e-15
1e-15
1e-15
1e-15
1e-15
1e-15
1e-15
1e-15
1e-15
1e-15
1e-15
1e-15
1e-15
1e-15
1e-15
1e-15
1e-15
1e-15
1e-15
1e-15
1e-15
1e-15
1e-15
1e-15
1e-15
1e-15
1e-15
1e-15
1e-15
1e-15
1e-15
1e-15
1e-15
1e-15
1e-15
1e-15
1e-15
1e-15
1e-15
1e-15
1e-15
1e-15
1e-15
1e-15
1e-15
1e-15
1e-15
1e-15
1e-15
1e-15
1e-15
1e-15
1e-15
1e-15
1e-15
1e-15
1e-15
1e-15
1e-15
1e-15
1e-15
1e-15
1e-15
1e-15
1e-15
1e-15
1e-15
1e-15
1e-15
1e-15
1e-15
1e-15
1e-15
1e-15
1e-15
1e-15
1.02783828274e-15
1.0283693577e-15
1e-15
1e-15
1e-15
1.01466344948e-15
1e-15
1.01554018741e-15
1e-15
1e-15
1e-15
1e-15
1e-15
1e-15
1e-15
1e-15
1e-15
1e-15
1e-15
1e-15
1e-15
1e-15
1e-15
1e-15
1e-15
1e-15
1e-15
1e-15
1e-15
1e-15
1e-15
1e-15
1e-15
1e-15
1e-15
1e-15
1e-15
1e-15
1e-15
1e-15
1e-15
1e-15
1e-15
1e-15
1e-15
1e-15
1e-15
1e-15
1e-15
1e-15
1e-15
1e-15
1e-15
1e-15
1e-15
1e-15
1e-15
1e-15
1e-15
1e-15
1e-15
1e-15
1e-15
1e-15
1e-15
1e-15
1e-15
1e-15
1e-15
1e-15
1e-15
1e-15
1e-15
1e-15
1e-15
1e-15
1e-15
1e-15
1e-15
1e-15
1e-15
1e-15
1e-15
1e-15
1e-15
1e-15
1e-15
1e-15
1e-15
1e-15
1e-15
1e-15
1e-15
1e-15
1e-15
1e-15
1e-15
1e-15
1e-15
1e-15
1e-15
1e-15
1e-15
1e-15
1e-15
1e-15
1e-15
1e-15
1e-15
1e-15
1e-15
1e-15
1e-15
1e-15
1e-15
1e-15
1e-15
1e-15
1e-15
1e-15
1e-15
1e-15
1e-15
1e-15
1e-15
1e-15
1e-15
1e-15
1e-15
1e-15
1e-15
1e-15
1e-15
1e-15
1e-15
1e-15
1e-15
1e-15
1e-15
1.01749430947e-15
1.02888832819e-15
1.02783828274e-15
1e-15
1e-15
1e-15
1.01298708452e-15
1e-15
1.01220663212e-15
1e-15
1e-15
1e-15
1e-15
1e-15
1e-15
1.00000163169e-15
1.00000531504e-15
1.00005898255e-15
1.00013316179e-15
1.0002005374e-15
1.00023558192e-15
1.00025516176e-15
1.00025231409e-15
1.00023564658e-15
1.00018884022e-15
1.0001214249e-15
1.00003322189e-15
1.00000502005e-15
1.00000087378e-15
1e-15
1e-15
1e-15
1e-15
1e-15
1e-15
1e-15
1e-15
1e-15
1e-15
1e-15
1e-15
1e-15
1e-15
1e-15
1.00000065349e-15
1.0000036665e-15
1.00002427306e-15
1.00008668873e-15
1.00012155445e-15
1.00015456306e-15
1.00018464262e-15
1.00021605343e-15
1.00022857623e-15
1.00024566664e-15
1.00024694365e-15
1.00025274447e-15
1.0002447178e-15
1.0002405882e-15
1.00022260426e-15
1.00020745383e-15
1.00017678998e-15
1.00014923571e-15
1.00010375644e-15
1.00005848293e-15
1.00000284446e-15
1.00000093444e-15
1e-15
1e-15
1e-15
1e-15
1e-15
1e-15
1e-15
1e-15
1e-15
1e-15
1e-15
1e-15
1e-15
1e-15
1e-15
1e-15
1e-15
1e-15
1e-15
1e-15
1e-15
1e-15
1e-15
1e-15
1e-15
1e-15
1e-15
1e-15
1e-15
1e-15
1.00000139613e-15
1.00004416501e-15
1.00011739961e-15
1.00018168181e-15
1.00022332167e-15
1.0002560093e-15
1.00027964976e-15
1.00030115964e-15
1.00031541745e-15
1.0003280054e-15
1.00033398455e-15
1.00033868945e-15
1.00033729504e-15
1.00033524498e-15
1.00032772737e-15
1.00031962647e-15
1.00030620357e-15
1.00030167884e-15
1.00332387432e-15
1.01192117284e-15
1.01173036269e-15
1.01192658037e-15
1.01173036269e-15
1.01191826449e-15
1.01173036269e-15
1.01190032252e-15
1.01172347096e-15
1.01179038698e-15
1.00683075351e-15
1.00000803651e-15
1e-15
1e-15
1e-15
1e-15
1e-15
1e-15
1e-15
1e-15
1.00000030896e-15
1.00000374878e-15
1.0000894696e-15
1.0002717083e-15
1.00041702219e-15
1.00054661066e-15
1.02871845236e-15
1.02783828274e-15
1.02882155094e-15
1.02202669472e-15
1.00078282489e-15
1.00029237327e-15
1.01462615983e-15
1e-15
1.01522549013e-15
1e-15
1e-15
1e-15
1e-15
1e-15
1e-15
1.0000006396e-15
1.00000795236e-15
1.00013554409e-15
1.00029454047e-15
1.00043719277e-15
1.00053801021e-15
1.00058644503e-15
1.00059507623e-15
1.00055399264e-15
1.00047004156e-15
1.0003344417e-15
1.00017827955e-15
1.00003297437e-15
1e-15
1e-15
1e-15
1e-15
1e-15
1e-15
1e-15
1e-15
1e-15
1e-15
1e-15
1e-15
1e-15
1e-15
1e-15
1e-15
1e-15
1.00009720457e-15
1.00024485557e-15
1.00038590513e-15
1.00087435704e-15
1.00099244921e-15
1.00052262855e-15
1.00057993551e-15
1.00060899388e-15
1.00063069786e-15
1.00063651913e-15
1.00063641999e-15
1.00062401818e-15
1.00060425732e-15
1.00057314955e-15
1.00053945032e-15
1.00049779613e-15
1.00043381069e-15
1.00035199754e-15
1.00025247023e-15
1.00012360579e-15
1e-15
1e-15
1e-15
1e-15
1e-15
1e-15
1e-15
1e-15
1e-15
1e-15
1e-15
1e-15
1e-15
1e-15
1e-15
1e-15
1e-15
1e-15
1e-15
1e-15
1e-15
1e-15
1e-15
1e-15
1e-15
1e-15
1e-15
1e-15
1e-15
1e-15
1e-15
1.00000747049e-15
1.00018136062e-15
1.00033388352e-15
1.00045446787e-15
1.00054961817e-15
1.00062913513e-15
1.00069190549e-15
1.00074530382e-15
1.0007859059e-15
1.00081857121e-15
1.00083945294e-15
1.00085340099e-15
1.00085639638e-15
1.0008540092e-15
1.00084196168e-15
1.00082506551e-15
1.00080932968e-15
1.00069961499e-15
1.01198637878e-15
1.01173036269e-15
1.01207021954e-15
1.01173036269e-15
1.01206623116e-15
1.01173036269e-15
1.01205150057e-15
1.01173036269e-15
1.01203259833e-15
1.01173036269e-15
1.01198775142e-15
1.00159882501e-15
1e-15
1e-15
1e-15
1e-15
1e-15
1e-15
1e-15
1e-15
1e-15
1.00011860823e-15
1.00043709285e-15
1.00079878155e-15
1.00111412439e-15
1.0014128906e-15
1.02783828274e-15
1.02885485893e-15
1.02783828274e-15
1.02848658781e-15
1.00223618723e-15
1.00100399866e-15
1.01298708452e-15
1e-15
1.01220663212e-15
1e-15
1e-15
1e-15
1e-15
1e-15
1e-15
1.00000168079e-15
1.00000816213e-15
1.00017210499e-15
1.00045387272e-15
1.00067600413e-15
1.00084730456e-15
1.00093013378e-15
1.00095802396e-15
1.00089885958e-15
1.00078460778e-15
1.00059094546e-15
1.00036181761e-15
1.00013867262e-15
1.00003010393e-15
1.00000279344e-15
1e-15
1e-15
1e-15
1e-15
1e-15
1e-15
1e-15
1e-15
1e-15
1e-15
1e-15
1e-15
1e-15
1.0000240916e-15
1.00012993962e-15
1.0003356863e-15
1.00050776982e-15
1.00083693735e-15
1.00153850945e-15
1.00153157809e-15
1.00114564679e-15
1.00092603312e-15
1.00096872448e-15
1.00099121276e-15
1.00099773825e-15
1.00098713283e-15
1.00096407011e-15
1.00092419242e-15
1.00087998297e-15
1.00081822291e-15
1.00071712965e-15
1.00059332663e-15
1.00045272229e-15
1.00028726128e-15
1.00011911924e-15
1e-15
1e-15
1e-15
1e-15
1e-15
1e-15
1e-15
1e-15
1e-15
1e-15
1e-15
1e-15
1e-15
1e-15
1e-15
1e-15
1e-15
1e-15
1e-15
1e-15
1e-15
1e-15
1e-15
1e-15
1e-15
1e-15
1e-15
1e-15
1e-15
1e-15
1e-15
1.00003684273e-15
1.00028236547e-15
1.00052509024e-15
1.00069849632e-15
1.0008400876e-15
1.00097213551e-15
1.00108399697e-15
1.00117825897e-15
1.00125377387e-15
1.00131414821e-15
1.00135737543e-15
1.00138712417e-15
1.00140129378e-15
1.00140320952e-15
1.00139252732e-15
1.00137007671e-15
1.00124475599e-15
1.0107125123e-15
1.01173036269e-15
1.01207021954e-15
1.01173036269e-15
1.01206759073e-15
1.01173036269e-15
1.01205678308e-15
1.01173036269e-15
1.01204086376e-15
1.01173036269e-15
1.01202332826e-15
1.01173036269e-15
1.0118930659e-15
1.00057075318e-15
1.00000095909e-15
1e-15
1e-15
1e-15
1e-15
1.00001415673e-15
1.00008084151e-15
1.00015078982e-15
1.00044606701e-15
1.00091370785e-15
1.00142913851e-15
1.00192285517e-15
1.00248637379e-15
1.02875656367e-15
1.02783828274e-15
1.02875177881e-15
1.02783828274e-15
1.00388488036e-15
1.00177685598e-15
1.01404875296e-15
1e-15
1.01461644691e-15
1e-15
1e-15
1e-15
1e-15
1e-15
1e-15
1e-15
1.00000374755e-15
1.00028732829e-15
1.00070727395e-15
1.00100777259e-15
1.0012438755e-15
1.00136277869e-15
1.00140996081e-15
1.00133891654e-15
1.00119759548e-15
1.00095320971e-15
1.00064776415e-15
1.00031144861e-15
1.0001035795e-15
1.00000390331e-15
1e-15
1e-15
1e-15
1e-15
1e-15
1e-15
1e-15
1e-15
1e-15
1e-15
1e-15
1e-15
1e-15
1.00012993384e-15
1.0003433542e-15
1.00056126628e-15
1.00082242459e-15
1.00149807244e-15
1.00153157809e-15
1.00153844847e-15
1.00153156961e-15
1.00117217609e-15
1.00120883838e-15
1.00122185364e-15
1.00121473521e-15
1.00117572499e-15
1.00111809425e-15
1.00103990348e-15
1.0009403306e-15
1.00081831092e-15
1.00069648479e-15
1.00055922457e-15
1.0004073602e-15
1.00022792762e-15
1.00004202367e-15
1e-15
1e-15
1e-15
1e-15
1e-15
1e-15
1e-15
1e-15
1e-15
1e-15
1e-15
1e-15
1e-15
1e-15
1e-15
1e-15
1e-15
1e-15
1e-15
1e-15
1e-15
1e-15
1e-15
1e-15
1e-15
1e-15
1e-15
1e-15
1e-15
1e-15
1e-15
1.00001981806e-15
1.00027950376e-15
1.00055226322e-15
1.00080698184e-15
1.00102346314e-15
1.00122384766e-15
1.00139604549e-15
1.00154066543e-15
1.00165925066e-15
1.00175473922e-15
1.00182704815e-15
1.00187895783e-15
1.00191017252e-15
1.00192245929e-15
1.00191692857e-15
1.00190750134e-15
1.00468098185e-15
1.01173036269e-15
1.01205665301e-15
1.01173036269e-15
1.0120586509e-15
1.01173036269e-15
1.01205258398e-15
1.01173036269e-15
1.01204102874e-15
1.01173036269e-15
1.01202582706e-15
1.01173036269e-15
1.01200829406e-15
1.01173036269e-15
1.00408012035e-15
1.00011615081e-15
1.00003678938e-15
1.00001767774e-15
1.00002033038e-15
1.00005210559e-15
1.00014212473e-15
1.00026997078e-15
1.0004388323e-15
1.00086403543e-15
1.0014399145e-15
1.00208879811e-15
1.00276364174e-15
1.00325427087e-15
1.02783828274e-15
1.02878673511e-15
1.02783828274e-15
1.02843667613e-15
1.00550628083e-15
1.00244009629e-15
1.01298708452e-15
1e-15
1.01220663212e-15
1e-15
1e-15
1e-15
1e-15
1e-15
1e-15
1e-15
1.00012725571e-15
1.00062712718e-15
1.0011260716e-15
1.00149994767e-15
1.00179372847e-15
1.0019479423e-15
1.00201018921e-15
1.00192866911e-15
1.00175758598e-15
1.00146494393e-15
1.00109386463e-15
1.00062842541e-15
1.000258327e-15
1.00002751387e-15
1e-15
1e-15
1e-15
1e-15
1e-15
1e-15
1e-15
1e-15
1e-15
1e-15
1e-15
1e-15
1.00004968463e-15
1.00027913917e-15
1.00049100263e-15
1.00069491349e-15
1.00105108786e-15
1.0015312145e-15
1.00153538688e-15
1.00153157809e-15
1.00153726884e-15
1.00129223855e-15
1.0013102104e-15
1.001307707e-15
1.00128421968e-15
1.00122870911e-15
1.00115818132e-15
1.00104031891e-15
1.00090265957e-15
1.00074921379e-15
1.00059216932e-15
1.0004307381e-15
1.00024995551e-15
1.00005417277e-15
1e-15
1e-15
1e-15
1e-15
1e-15
1e-15
1e-15
1e-15
1e-15
1e-15
1e-15
1e-15
1e-15
1e-15
1e-15
1e-15
1e-15
1e-15
1e-15
1e-15
1e-15
1e-15
1e-15
1e-15
1e-15
1e-15
1e-15
1e-15
1e-15
1e-15
1e-15
1e-15
1e-15
1.00024966579e-15
1.00053170834e-15
1.00082473099e-15
1.00112636559e-15
1.00140031695e-15
1.00163469382e-15
1.00183224594e-15
1.00199702144e-15
1.0021311597e-15
1.0022361595e-15
1.00231402962e-15
1.00236596341e-15
1.00239285642e-15
1.00239562739e-15
1.00232321746e-15
1.01173036269e-15
1.01204344735e-15
1.01173036269e-15
1.0120505779e-15
1.01173036269e-15
1.01204894814e-15
1.01173036269e-15
1.01204130874e-15
1.01173036269e-15
1.01202881191e-15
1.01173036269e-15
1.01201434537e-15
1.01173036269e-15
1.01199982009e-15
1.01173015017e-15
1.00092046779e-15
1.00020021882e-15
1.00016585265e-15
1.0001741787e-15
1.00022920854e-15
1.00034857507e-15
1.00054125492e-15
1.00080959494e-15
1.00130147283e-15
1.00194558474e-15
1.00272576556e-15
1.00357977848e-15
1.02575602597e-15
1.02873548542e-15
1.02783828274e-15
1.02868056114e-15
1.02783828274e-15
1.00702423746e-15
1.00293864599e-15
1.01363438699e-15
1e-15
1.01402019345e-15
1e-15
1e-15
1e-15
1e-15
1e-15
1e-15
1e-15
1.00041498217e-15
1.00114428183e-15
1.00165492758e-15
1.00210164526e-15
1.00245302228e-15
1.00264477421e-15
1.00272165507e-15
1.00263004127e-15
1.00242463039e-15
1.00207844243e-15
1.00164649922e-15
1.00110017064e-15
1.0005583127e-15
1.00013004151e-15
1.00000123286e-15
1e-15
1e-15
1e-15
1e-15
1e-15
1e-15
1e-15
1e-15
1e-15
1e-15
1e-15
1.00015902835e-15
1.00034034986e-15
1.00053327358e-15
1.00077892712e-15
1.00119931492e-15
1.00153248095e-15
1.0015312145e-15
1.00153459158e-15
1.00153157809e-15
1.00143560003e-15
1.00139544191e-15
1.00139055934e-15
1.00134187682e-15
1.00125210287e-15
1.00113922494e-15
1.00100293519e-15
1.00082501378e-15
1.00061857909e-15
1.00040163822e-15
1.00017467875e-15
1e-15
1e-15
1e-15
1e-15
1e-15
1e-15
1e-15
1e-15
1e-15
1e-15
1e-15
1e-15
1e-15
1e-15
1e-15
1e-15
1e-15
1e-15
1e-15
1e-15
1e-15
1e-15
1e-15
1e-15
1e-15
1e-15
1e-15
1e-15
1e-15
1e-15
1e-15
1e-15
1e-15
1e-15
1e-15
1.00019191034e-15
1.00049091917e-15
1.00084832845e-15
1.00122813396e-15
1.00156858125e-15
1.00185907354e-15
1.00210617523e-15
1.00231524877e-15
1.00248754192e-15
1.0026253052e-15
1.0027300133e-15
1.00280371537e-15
1.00284677792e-15
1.00286395021e-15
1.00689077796e-15
1.01201801057e-15
1.01173036269e-15
1.01203315422e-15
1.01173036269e-15
1.01203756148e-15
1.01173036269e-15
1.01203391109e-15
1.01173036269e-15
1.01202549272e-15
1.01173036269e-15
1.01201352846e-15
1.01173036269e-15
1.01199868372e-15
1.01173036269e-15
1.01198952773e-15
1.00166900094e-15
1.00041538895e-15
1.00038474545e-15
1.00039872158e-15
1.00046751329e-15
1.00061347191e-15
1.0008553533e-15
1.00119192337e-15
1.0017036798e-15
1.00241062274e-15
1.00333868728e-15
1.00436344768e-15
1.02843000329e-15
1.02783828274e-15
1.02871930131e-15
1.02783828274e-15
1.02837505959e-15
1.00839546556e-15
1.00323265319e-15
1.01298632271e-15
1e-15
1.01220663212e-15
1e-15
1e-15
1e-15
1e-15
1e-15
1e-15
1e-15
1.0004275896e-15
1.00128513549e-15
1.0020857684e-15
1.00261033949e-15
1.00304403927e-15
1.00329091138e-15
1.00339662233e-15
1.00330305043e-15
1.00306632398e-15
1.00266198273e-15
1.00216502701e-15
1.00158033217e-15
1.00096752207e-15
1.00036313435e-15
1.00000261883e-15
1e-15
1e-15
1e-15
1e-15
1e-15
1e-15
1e-15
1e-15
1e-15
1e-15
1e-15
1.00016402339e-15
1.00032982585e-15
1.00055327758e-15
1.00089233833e-15
1.00135998541e-15
1.00152970071e-15
1.00152803426e-15
1.0015312145e-15
1.00153231939e-15
1.0015290695e-15
1.00142867073e-15
1.0013910037e-15
1.00132448527e-15
1.00122127656e-15
1.0010870165e-15
1.00091860482e-15
1.00071161183e-15
1.00044600983e-15
1.00015435681e-15
1e-15
1e-15
1e-15
1e-15
1e-15
1e-15
1e-15
1e-15
1e-15
1e-15
1e-15
1e-15
1e-15
1e-15
1e-15
1e-15
1e-15
1e-15
1e-15
1e-15
1e-15
1e-15
1e-15
1e-15
1e-15
1e-15
1e-15
1e-15
1e-15
1e-15
1e-15
1e-15
1e-15
1e-15
1e-15
1e-15
1.00013782682e-15
1.00048896784e-15
1.00092423301e-15
1.00138358181e-15
1.00178139832e-15
1.00212261443e-15
1.00241669668e-15
1.00266831552e-15
1.00287790557e-15
1.00304788387e-15
1.00317944661e-15
1.00327499348e-15
1.00333747839e-15
1.00331925164e-15
1.01195737171e-15
1.01173036269e-15
1.01201770718e-15
1.01173036269e-15
1.01202691963e-15
1.01173036269e-15
1.01202759255e-15
1.01173036269e-15
1.01202238379e-15
1.01173036269e-15
1.0120127507e-15
1.01173036269e-15
1.01200180677e-15
1.01173036269e-15
1.01198999783e-15
1.01173036269e-15
1.0085567323e-15
1.00085112365e-15
1.00064165632e-15
1.00066101874e-15
1.00073948949e-15
1.000899879e-15
1.00115857342e-15
1.00153669101e-15
1.00207488513e-15
1.0028840522e-15
1.00397012424e-15
1.00514416409e-15
1.02783828274e-15
1.02867776983e-15
1.02783828274e-15
1.02861368636e-15
1.02783828274e-15
1.00962623946e-15
1.00350770787e-15
1.01335461506e-15
1e-15
1.01345565037e-15
1e-15
1e-15
1e-15
1e-15
1e-15
1e-15
1e-15
1.00029506721e-15
1.00122509165e-15
1.0021391569e-15
1.0028796392e-15
1.00343755078e-15
1.00376761477e-15
1.00392450287e-15
1.00384530006e-15
1.00359036559e-15
1.00313389892e-15
1.00257338786e-15
1.00195297079e-15
1.00134723752e-15
1.00071133523e-15
1.00016323234e-15
1.000001369e-15
1e-15
1e-15
1e-15
1e-15
1e-15
1e-15
1e-15
1e-15
1e-15
1e-15
1.00014233467e-15
1.00030579531e-15
1.00061142712e-15
1.00107407431e-15
1.00147214286e-15
1.00150922753e-15
1.00150917092e-15
1.00151730237e-15
1.00152756424e-15
1.00152319111e-15
1.00139831463e-15
1.00134333481e-15
1.00125633225e-15
1.00113043345e-15
1.00097314394e-15
1.00077186062e-15
1.0005178322e-15
1.00019144536e-15
1e-15
1e-15
1e-15
1e-15
1e-15
1e-15
1e-15
1e-15
1e-15
1e-15
1e-15
1e-15
1e-15
1e-15
1e-15
1e-15
1e-15
1e-15
1e-15
1e-15
1e-15
1e-15
1e-15
1e-15
1e-15
1e-15
1e-15
1e-15
1e-15
1e-15
1e-15
1e-15
1e-15
1e-15
1e-15
1e-15
1e-15
1.00013138632e-15
1.0005198959e-15
1.00107487687e-15
1.00160058283e-15
1.00204762653e-15
1.00243966258e-15
1.00278212693e-15
1.00307739188e-15
1.00332521674e-15
1.00352823597e-15
1.00368736142e-15
1.00380570416e-15
1.00387593767e-15
1.00743425364e-15
1.01173036269e-15
1.01199530116e-15
1.01173036269e-15
1.01200652737e-15
1.01173036269e-15
1.01201374151e-15
1.01173036269e-15
1.01201232962e-15
1.01173036269e-15
1.01200642348e-15
1.01173036269e-15
1.01199731401e-15
1.01173036269e-15
1.01198567265e-15
1.01173036269e-15
1.01198106923e-15
1.01173034663e-15
1.00162540762e-15
1.00089081832e-15
1.00091326417e-15
1.00099578778e-15
1.0011590699e-15
1.00143632324e-15
1.00186353952e-15
1.00247266376e-15
1.00342296045e-15
1.00465224601e-15
1.0059547128e-15
1.02843134047e-15
1.02783828274e-15
1.02865652693e-15
1.02783828274e-15
1.02832088809e-15
1.01070277609e-15
1.00350437847e-15
1.01298279559e-15
1e-15
1.01220663212e-15
1e-15
1e-15
1e-15
1e-15
1e-15
1e-15
1e-15
1e-15
1.00103695674e-15
1.00210101295e-15
1.0029887945e-15
1.00368644483e-15
1.00411702177e-15
1.00433925484e-15
1.00428947193e-15
1.00403096168e-15
1.00353440476e-15
1.00291684072e-15
1.0022484963e-15
1.00164315737e-15
1.00104887425e-15
1.00045049137e-15
1.00000307512e-15
1e-15
1e-15
1e-15
1e-15
1e-15
1e-15
1e-15
1e-15
1e-15
1e-15
1.00009272971e-15
1.00027517987e-15
1.00068935028e-15
1.0011806466e-15
1.00146329578e-15
1.0014791305e-15
1.00147896923e-15
1.001487326e-15
1.00149019433e-15
1.00149406437e-15
1.00132739707e-15
1.00120983151e-15
1.00110480116e-15
1.00095259075e-15
1.00075609424e-15
1.00048373057e-15
1.0001581694e-15
1e-15
1e-15
1e-15
1e-15
1e-15
1e-15
1e-15
1e-15
1e-15
1e-15
1e-15
1e-15
1e-15
1e-15
1e-15
1e-15
1e-15
1e-15
1e-15
1e-15
1e-15
1e-15
1e-15
1e-15
1e-15
1e-15
1e-15
1e-15
1e-15
1e-15
1e-15
1e-15
1e-15
1e-15
1e-15
1e-15
1e-15
1e-15
1.00015887732e-15
1.00059620192e-15
1.00123074858e-15
1.0018235928e-15
1.00232890412e-15
1.00277969271e-15
1.00317646924e-15
1.00351986537e-15
1.00380912841e-15
1.0040478752e-15
1.00423658452e-15
1.00437831432e-15
1.00449111351e-15
1.01173036269e-15
1.01197578769e-15
1.01173036269e-15
1.01198969232e-15
1.01173036269e-15
1.01200025246e-15
1.01173036269e-15
1.01200318508e-15
1.01173036269e-15
1.01200016812e-15
1.01173036269e-15
1.01199336877e-15
1.01173036269e-15
1.011985376e-15
1.01173036269e-15
1.01197651216e-15
1.01173036269e-15
1.01197276189e-15
1.00246067374e-15
1.00111434927e-15
1.00113394319e-15
1.00122282674e-15
1.00140369472e-15
1.00173016385e-15
1.0022268837e-15
1.00294675805e-15
1.00403975274e-15
1.00537444705e-15
1.00679786773e-15
1.02783828274e-15
1.02862135905e-15
1.02783828274e-15
1.02855357679e-15
1.02783828274e-15
1.0116286876e-15
1.00342369783e-15
1.01317609908e-15
1e-15
1.01295987046e-15
1e-15
1e-15
1e-15
1e-15
1e-15
1e-15
1e-15
1e-15
1.00078176306e-15
1.00201862898e-15
1.00306486447e-15
1.003904263e-15
1.00444591396e-15
1.00474068359e-15
1.0047318723e-15
1.00448006266e-15
1.00395242333e-15
1.00327962772e-15
1.0025461558e-15
1.00190321836e-15
1.00132009974e-15
1.0007673344e-15
1.00018707088e-15
1e-15
1e-15
1e-15
1e-15
1e-15
1e-15
1e-15
1e-15
1e-15
1e-15
1.00001682976e-15
1.00022513909e-15
1.00067733983e-15
1.00115511768e-15
1.00141463485e-15
1.00143090337e-15
1.00143155811e-15
1.0014376175e-15
1.0014303826e-15
1.00139905422e-15
1.00116257872e-15
1.00096632582e-15
1.00083471223e-15
1.0006164144e-15
1.00031145939e-15
1.00001627613e-15
1e-15
1e-15
1e-15
1e-15
1e-15
1e-15
1e-15
1e-15
1e-15
1e-15
1e-15
1e-15
1e-15
1e-15
1e-15
1e-15
1e-15
1e-15
1e-15
1e-15
1e-15
1e-15
1e-15
1e-15
1e-15
1e-15
1e-15
1e-15
1e-15
1e-15
1e-15
1e-15
1e-15
1e-15
1e-15
1e-15
1e-15
1e-15
1e-15
1.00016992784e-15
1.00067185414e-15
1.0013768935e-15
1.00200022384e-15
1.00258042093e-15
1.00310653122e-15
1.00356242844e-15
1.00395742715e-15
1.00429157875e-15
1.00456917896e-15
1.00478973095e-15
1.00495850829e-15
1.00564251923e-15
1.01194234218e-15
1.01173036269e-15
1.0119651703e-15
1.01173036269e-15
1.01197645321e-15
1.01173036269e-15
1.01198701577e-15
1.01173036269e-15
1.01198755405e-15
1.01173036269e-15
1.0119840248e-15
1.01173036269e-15
1.01197778124e-15
1.01173036269e-15
1.01196889891e-15
1.01173036269e-15
1.0119668295e-15
1.01173036269e-15
1.00330552027e-15
1.0013543879e-15
1.00136380034e-15
1.0014664622e-15
1.00168945736e-15
1.00209079278e-15
1.00266455029e-15
1.00350029698e-15
1.00469378237e-15
1.00609409943e-15
1.00764285076e-15
1.02842635339e-15
1.02783828274e-15
1.02859905576e-15
1.02783828274e-15
1.0282748183e-15
1.01239607022e-15
1.00322902753e-15
1.01297816203e-15
1e-15
1.01220663212e-15
1e-15
1e-15
1e-15
1e-15
1e-15
1e-15
1e-15
1e-15
1.00054137181e-15
1.00200784301e-15
1.00317860969e-15
1.00417361076e-15
1.00484012713e-15
1.00521797359e-15
1.00525784411e-15
1.00501934778e-15
1.0044651982e-15
1.00373288469e-15
1.00291072792e-15
1.00218607412e-15
1.00155991028e-15
1.00103668276e-15
1.00048397549e-15
1e-15
1e-15
1e-15
1e-15
1e-15
1e-15
1e-15
1e-15
1e-15
1e-15
1e-15
1.00014309662e-15
1.00061301855e-15
1.00105464607e-15
1.00128169213e-15
1.00131032188e-15
1.00130994319e-15
1.00130924278e-15
1.00128829546e-15
1.00118094572e-15
1.00088509934e-15
1.00057356551e-15
1.00030313314e-15
1.00004470895e-15
1e-15
1e-15
1e-15
1e-15
1e-15
1e-15
1e-15
1e-15
1e-15
1e-15
1e-15
1e-15
1e-15
1e-15
1e-15
1e-15
1e-15
1e-15
1e-15
1e-15
1e-15
1e-15
1e-15
1e-15
1e-15
1e-15
1e-15
1e-15
1e-15
1e-15
1e-15
1e-15
1e-15
1e-15
1e-15
1e-15
1e-15
1e-15
1e-15
1e-15
1e-15
1.00020704591e-15
1.00072410411e-15
1.00140591702e-15
1.00218194812e-15
1.00283600622e-15
1.00340446125e-15
1.0039240008e-15
1.00437701855e-15
1.00475583816e-15
1.00507244236e-15
1.00532642854e-15
1.00551357049e-15
1.01184132557e-15
1.01173036269e-15
1.0119443891e-15
1.01173036269e-15
1.01195856824e-15
1.01173036269e-15
1.01196934181e-15
1.01173036269e-15
1.01197628208e-15
1.01173036269e-15
1.01197492492e-15
1.01173036269e-15
1.01197059179e-15
1.01173036269e-15
1.01196569857e-15
1.01173036269e-15
1.01195932546e-15
1.01173036269e-15
1.01195824767e-15
1.00390911135e-15
1.00165707137e-15
1.00166425629e-15
1.00178610287e-15
1.00206422331e-15
1.00253522202e-15
1.00317095802e-15
1.00408845247e-15
1.00532481438e-15
1.00676982842e-15
1.00844783165e-15
1.02783828274e-15
1.02856883744e-15
1.02783828274e-15
1.02850046309e-15
1.02783828274e-15
1.01302856582e-15
1.00292238386e-15
1.01306763243e-15
1e-15
1.01256634343e-15
1e-15
1e-15
1e-15
1e-15
1e-15
1e-15
1e-15
1e-15
1.00027868715e-15
1.0019815177e-15
1.00336408764e-15
1.00453405219e-15
1.00534260347e-15
1.00581742526e-15
1.00591322007e-15
1.00569174023e-15
1.00511241048e-15
1.00431584474e-15
1.00338308976e-15
1.00253226573e-15
1.00181146816e-15
1.00125984696e-15
1.00075118311e-15
1.00023010788e-15
1e-15
1e-15
1e-15
1e-15
1e-15
1e-15
1e-15
1e-15
1e-15
1e-15
1e-15
1.0004784537e-15
1.00085866994e-15
1.00102652989e-15
1.00105584081e-15
1.00104650653e-15
1.00103745738e-15
1.0010059123e-15
1.0008123047e-15
1.00044603579e-15
1.00004841434e-15
1e-15
1e-15
1e-15
1e-15
1e-15
1e-15
1e-15
1e-15
1e-15
1e-15
1e-15
1e-15
1e-15
1e-15
1e-15
1e-15
1e-15
1e-15
1e-15
1e-15
1e-15
1e-15
1e-15
1e-15
1e-15
1e-15
1e-15
1e-15
1e-15
1e-15
1e-15
1e-15
1e-15
1e-15
1e-15
1e-15
1e-15
1e-15
1e-15
1e-15
1e-15
1e-15
1e-15
1.00027452637e-15
1.00070967877e-15
1.00148752925e-15
1.00233859951e-15
1.00301638219e-15
1.00374185127e-15
1.00430524023e-15
1.00478327398e-15
1.00521056733e-15
1.00557059059e-15
1.00585520051e-15
1.00613139458e-15
1.01173036269e-15
1.01191683124e-15
1.01173036269e-15
1.01193316308e-15
1.01173036269e-15
1.01194453271e-15
1.01173036269e-15
1.01195591775e-15
1.01173036269e-15
1.01195965674e-15
1.01173036269e-15
1.01195866177e-15
1.01173036269e-15
1.01195490772e-15
1.01173036269e-15
1.01194895101e-15
1.01173036269e-15
1.01194895051e-15
1.01173036269e-15
1.01096327354e-15
1.00228536014e-15
1.00207244297e-15
1.00220928075e-15
1.00252734907e-15
1.00303049086e-15
1.00370209983e-15
1.0046523878e-15
1.00589552609e-15
1.00738805481e-15
1.00918924201e-15
1.0284179315e-15
1.02783828274e-15
1.02854684102e-15
1.02783828274e-15
1.02823621973e-15
1.01354122883e-15
1.00253075951e-15
1.01297395407e-15
1e-15
1.01220621986e-15
1e-15
1e-15
1e-15
1e-15
1e-15
1e-15
1e-15
1e-15
1e-15
1.0018882818e-15
1.00362969133e-15
1.00495358013e-15
1.00592953667e-15
1.00652232511e-15
1.00668501732e-15
1.00648369863e-15
1.00587837401e-15
1.00501863088e-15
1.0039716457e-15
1.00296509392e-15
1.00210384735e-15
1.00147072549e-15
1.00094850923e-15
1.00046818718e-15
1e-15
1e-15
1e-15
1e-15
1e-15
1e-15
1e-15
1e-15
1e-15
1e-15
1e-15
1.00021317059e-15
1.00055024218e-15
1.00063951366e-15
1.00061961736e-15
1.00057518464e-15
1.00053503379e-15
1.00047145128e-15
1.00021528029e-15
1e-15
1e-15
1e-15
1e-15
1e-15
1e-15
1e-15
1e-15
1e-15
1e-15
1e-15
1e-15
1e-15
1e-15
1e-15
1e-15
1e-15
1e-15
1e-15
1e-15
1e-15
1e-15
1e-15
1e-15
1e-15
1e-15
1e-15
1e-15
1e-15
1e-15
1e-15
1e-15
1e-15
1e-15
1e-15
1e-15
1e-15
1e-15
1e-15
1e-15
1e-15
1e-15
1e-15
1e-15
1e-15
1.00029978626e-15
1.00076681545e-15
1.00164919573e-15
1.0024787664e-15
1.00326607565e-15
1.00406187568e-15
1.00464995504e-15
1.00524837168e-15
1.00570248739e-15
1.00607923825e-15
1.00640000958e-15
1.00681041323e-15
1.01188943346e-15
1.01173036269e-15
1.01191162164e-15
1.01173036269e-15
1.01192577199e-15
1.01173036269e-15
1.01193550181e-15
1.01173036269e-15
1.01194642506e-15
1.01173036269e-15
1.01194741638e-15
1.01173036269e-15
1.01194524723e-15
1.01173036269e-15
1.01194276823e-15
1.01173036269e-15
1.01193913822e-15
1.01173036269e-15
1.0119405772e-15
1.01173036269e-15
1.00307707533e-15
1.00255863591e-15
1.00269797028e-15
1.0030217876e-15
1.00351996573e-15
1.004208341e-15
1.00516019736e-15
1.0064113245e-15
1.00796786247e-15
1.00987811561e-15
1.02783828274e-15
1.02852029009e-15
1.02783828274e-15
1.02845368944e-15
1.02783828274e-15
1.01396435438e-15
1.00209099453e-15
1.01300711912e-15
1e-15
1.01230133144e-15
1e-15
1e-15
1e-15
1e-15
1e-15
1e-15
1e-15
1e-15
1e-15
1.00163480118e-15
1.00364540703e-15
1.00533068969e-15
1.00652392744e-15
1.00726792492e-15
1.00751572509e-15
1.00734068745e-15
1.00670738544e-15
1.00578939019e-15
1.00464833927e-15
1.00349013268e-15
1.00245657801e-15
1.00169417532e-15
1.00110656536e-15