/*--------------------------------*- C++ -*----------------------------------*\
| =========                 |                                                 |
| \\      /  F ield         | OpenFOAM: The Open Source CFD Toolbox           |
|  \\    /   O peration     | Version:  2206                                  |
|   \\  /    A nd           | Website:  www.openfoam.com                      |
|    \\/     M anipulation  |                                                 |
\*---------------------------------------------------------------------------*/
FoamFile
{
    version     2.0;
    format      ascii;
    arch        "LSB;label=64;scalar=64";
    class       volScalarField;
    location    "4.8/water";
    object      Ct2;
}
// * * * * * * * * * * * * * * * * * * * * * * * * * * * * * * * * * * * * * //

dimensions      [0 0 0 0 0 0 0];

internalField   nonuniform List<scalar> 
23300
(
8.96861428193
8.96874509433
8.96889274038
8.9690711562
8.96927678526
8.96950565633
8.9697540046
8.97001845369
8.970295514
8.97058187226
8.9708739928
8.97116854469
8.97146208458
8.97175152998
8.97203387619
8.97230663971
8.97256756768
8.97281500781
8.97304759567
8.97326454405
8.97346531827
8.97364986313
8.97381828703
8.97397105136
8.9741086812
8.97423193651
8.97434155722
8.97443842642
8.9745233491
8.97459721058
8.97466078289
8.97471487875
8.97476017891
8.97479738136
8.97482704408
8.97484973002
8.97486586089
8.97487585854
8.97488000616
8.97487858591
8.97487174353
8.97485962052
8.97484227692
8.97481978328
8.9747920785
8.97475910844
8.97472069716
8.97467668129
8.97462677763
8.97457071774
8.97450811277
8.97443859061
8.97436165836
8.97427684465
8.97418356036
8.97408124968
8.97396925084
8.97384696095
8.97371369993
8.97356889636
8.97341195979
8.97324249807
8.97306020661
8.97286513361
8.97265760501
8.97243857184
8.97220962078
8.97197349312
8.97173432607
8.97149859393
8.97127599147
8.97108143423
8.97093719097
8.97087251096
8.97089716665
8.97098961642
8.9711286908
8.97129907448
8.97148965329
8.97169236443
8.97190104586
8.9721110956
8.97231890384
8.97252181743
8.97271778573
8.9729054073
8.97308366327
8.97325198073
8.97341001724
8.97355772642
8.97369518258
8.97382264596
8.9739404212
8.97404892129
8.97414855366
8.97423978184
8.97432303352
8.97439875887
8.97446735564
8.97452922324
8.97458470068
8.97463411568
8.97467773184
8.97471579193
8.97474847016
8.97477590623
8.97479815145
8.97481524351
8.9748271858
8.97483392468
8.97483531585
8.97483114804
8.97482110497
8.97480477981
8.97478163275
8.97475099635
8.97471202764
8.97466370462
8.97460477358
8.97453374043
8.97444881972
8.97434793353
8.97422868166
8.97408837786
8.97392408188
8.97373272603
8.97351127003
8.97325698021
8.97296775429
8.97264256177
8.97228187707
8.97188811748
8.97146590792
8.97102215049
8.97056577658
8.97010733569
8.96965874759
8.96923421389
8.9688528212
8.96855763287
8.96407574891
8.96417372411
8.9643392475
8.96456061672
8.96482964067
8.96513945533
8.96548374093
8.96585678691
8.96625289074
8.96666667138
8.96709259952
8.96752546768
8.96796002785
8.96839151637
8.96881534369
8.96922758772
8.96962468339
8.97000383597
8.97036268503
8.97069962944
8.97101347003
8.97130366559
8.97156997429
8.97181266868
8.97203219579
8.97222937344
8.97240507981
8.97256044311
8.97269656162
8.97281469049
8.97291598787
8.97300169933
8.97307292489
8.97313080195
8.97317628965
8.97321035195
8.97323375663
8.9732472595
8.9732514149
8.97324676062
8.97323363619
8.97321236724
8.97318313192
8.97314612261
8.97310134647
8.97304881164
8.97298835685
8.97291983437
8.97284293773
8.97275738313
8.97266273636
8.97255859539
8.97244441777
8.97231970747
8.97218384453
8.97203628051
8.9718763732
8.97170359645
8.9715173843
8.97131736309
8.97110321109
8.97087492328
8.97063269561
8.97037723843
8.97010970386
8.96983207963
8.96954720321
8.96925930252
8.96897417771
8.96869996484
8.96844746632
8.96823078833
8.96806654949
8.96797077042
8.96795047271
8.96799999471
8.96810794931
8.96826232448
8.96845196218
8.96866732624
8.96890029107
8.9691442311
8.96939363014
8.96964412004
8.96989213517
8.97013496382
8.97037045616
8.97059708354
8.97081369186
8.9710195655
8.97121422074
8.97139747291
8.97156926424
8.9717297324
8.97187906704
8.97201757811
8.97214557586
8.97226343757
8.97237150654
8.97247015603
8.972559703
8.97264046796
8.97271269961
8.9727766289
8.97283240019
8.97288011708
8.97291977601
8.97295131516
8.97297462984
8.97298953901
8.97299572761
8.9729927747
8.97298009614
8.97295696352
8.97292244371
8.97287540879
8.97281447374
8.97273800206
8.97264404917
8.97253037684
8.972394421
8.97223334215
8.97204405274
8.97182334782
8.97156804236
8.97127523443
8.97094259719
8.97056879782
8.97015392515
8.96969997674
8.96921123887
8.96869453892
8.96815915539
8.96761631996
8.9670781076
8.96655561338
8.96605600649
8.96557736491
8.96509791277
8.96455355805
8.96641555009
8.96646097638
8.96655534098
8.96669236055
8.96686703251
8.96707483307
8.96731145837
8.96757276858
8.96785461337
8.96815290277
8.96846349506
8.96878234842
8.96910546143
8.96942906005
8.96974956009
8.9700637441
8.97036871255
8.97066202208
8.97094160804
8.97120587795
8.97145360726
8.97168399859
8.97189656315
8.97209116148
8.97226788361
8.97242708364
8.97256926639
8.97269512176
8.97280541988
8.97290104679
8.97298290711
8.97305196137
8.97310913578
8.97315536269
8.97319149843
8.97321836903
8.97323669727
8.97324715495
8.97325029869
8.97324662831
8.97323652969
8.97322033731
8.97319825991
8.9731704812
8.97313708649
8.97309812436
8.97305355581
8.9730033169
8.97294726793
8.97288525519
8.97281706049
8.97274246303
8.97266119041
8.97257298222
8.97247754417
8.9723746157
8.97226392937
8.97214528539
8.97201851921
8.97188358653
8.97174054229
8.97158964001
8.97143132563
8.97126635552
8.97109580945
8.97092123365
8.97074467968
8.97056887878
8.97039730385
8.97023434662
8.97008531282
8.96995639006
8.96985413527
8.96978436398
8.96975045853
8.96975237404
8.96978727236
8.96985099474
8.96993885525
8.97004620705
8.9701686622
8.97030228966
8.97044361152
8.97058966271
8.97073791562
8.97088629366
8.97103307876
8.97117691179
8.97131670339
8.97145163392
8.97158107476
8.97170459168
8.97182187761
8.97193275965
8.97203714212
8.97213501649
8.97222641338
8.97231141461
8.97239011259
8.97246262375
8.97252905378
8.97258951131
8.97264407747
8.97269281873
8.97273575926
8.97277289258
8.97280415755
8.97282942555
8.97284851542
8.97286118332
8.97286709432
8.97286582337
8.97285682754
8.97283944439
8.97281286423
8.97277612754
8.97272810105
8.97266748095
8.97259278268
8.9725023642
8.97239444786
8.97226718677
8.972118745
8.97194743494
8.97175188144
8.97153124792
8.97128548692
8.97101563225
8.97072407665
8.97041482179
8.97009361583
8.96976792978
8.96944666841
8.96913956027
8.96885615662
8.96860443297
8.96838896354
8.96820851378
8.96805106148
8.96790943073
8.96706771386
8.9671058827
8.9671820402
8.96729382874
8.96743819954
8.96761177353
8.96781103426
8.96803238439
8.96827218676
8.96852679869
8.96879260216
8.96906605435
8.96934372793
8.96962237188
8.96989895302
8.97017070801
8.97043517122
8.9706902045
8.97093400344
8.97116510264
8.97138236237
8.97158495589
8.971772344
8.97194425323
8.97210064568
8.97224169463
8.97236775348
8.97247933128
8.97257706154
8.97266167781
8.97273398237
8.97279482247
8.97284506043
8.97288555309
8.97291712642
8.97294056151
8.97295657653
8.97296582117
8.97296886674
8.97296620868
8.97295826346
8.97294537821
8.97292777463
8.97290562215
8.97287903053
8.97284805794
8.97281271166
8.97277295926
8.97272872918
8.97267992201
8.97262641103
8.97256805384
8.97250469357
8.97243617195
8.97236233232
8.97228303547
8.97219816608
8.97210765291
8.97201148051
8.97190971554
8.97180252551
8.97169021271
8.97157324104
8.97145227804
8.97132822948
8.97120228822
8.97107597313
8.97095117723
8.97083019456
8.97071573473
8.97061087628
8.97051894365
8.97044323321
8.97038656557
8.97035074821
8.97033643563
8.97034294992
8.9703686227
8.97041128975
8.97046851211
8.97053779024
8.97061670975
8.97070302419
8.97079470736
8.97088996766
8.97098725331
8.97108523697
8.97118280299
8.97127902312
8.97137313969
8.97146454128
8.97155274683
8.9716373839
8.97171817499
8.97179491876
8.97186747873
8.97193576735
8.97199973695
8.97205936637
8.97211465383
8.97216560565
8.97221223046
8.97225452947
8.9722924915
8.97232608459
8.97235525218
8.97237990708
8.97239989464
8.9724149873
8.97242489893
8.97242927148
8.97242766473
8.97241954379
8.97240426962
8.97238108881
8.97234912847
8.97230739399
8.97225477648
8.97219006967
8.97211200404
8.97201929973
8.97191074614
8.97178530989
8.97164227617
8.97148142152
8.97130321559
8.97110904035
8.97090141119
8.97068417293
8.97046263763
8.97024361899
8.97003531481
8.96984698649
8.96968840254
8.96956905297
8.96949721988
8.96947909283
8.9695180866
8.96961065016
8.96976007569
8.96774003731
8.96777181462
8.96783457506
8.96792691958
8.96804678878
8.96819166112
8.96835874884
8.96854508373
8.968747601
8.96896319358
8.96918876901
8.96942129777
8.96965786009
8.96989568953
8.97013221067
8.970365071
8.97059216504
8.97081164942
8.97102195172
8.97122176938
8.97141006599
8.9715860588
8.97174920747
8.97189919552
8.97203591539
8.97215944703
8.97227004061
8.97236809276
8.97245412661
8.97252876537
8.97259270974
8.97264671025
8.97269154424
8.97272799024
8.97275680857
8.97277872167
8.97279440149
8.97280445817
8.97280943515
8.97280980584
8.9728059753
8.97279828509
8.97278695468
8.97277213509
8.97275393177
8.97273240649
8.97270758278
8.97267945148
8.97264797601
8.97261309824
8.97257474348
8.97253282657
8.97248725709
8.97243794614
8.97238481261
8.97232779144
8.97226684179
8.97220195774
8.97213317939
8.97206060674
8.9719844144
8.97190486909
8.97182234769
8.97173735751
8.97165055581
8.97156276954
8.97147501123
8.9713884903
8.97130461299
8.97122496656
8.97115127572
8.97108532208
8.97102881363
8.97098321603
8.97094951536
8.97092821044
8.97091934649
8.97092232898
8.97093618875
8.97095976426
8.97099176636
8.97103087077
8.97107578143
8.97112527295
8.9711782171
8.97123359552
8.97129050435
8.9713481522
8.97140585524
8.97146302962
8.9715191833
8.9715739069
8.97162686488
8.97167778636
8.97172645646
8.97177270773
8.9718164121
8.9718574731
8.97189581864
8.97193139405
8.97196415556
8.97199406407
8.9720210793
8.97204515423
8.9720662301
8.97208423213
8.97209906644
8.97211058015
8.97211853258
8.97212263206
8.97212252657
8.97211779511
8.97210793996
8.97209238058
8.9720704504
8.97204139804
8.9720043953
8.97195855444
8.97190295824
8.9718367062
8.97175898081
8.97166913674
8.97156681545
8.97145208492
8.97132560179
8.97118878905
8.97104401772
8.97089477555
8.97074580049
8.97060315075
8.97047417894
8.9703673743
8.97029203876
8.97025777325
8.97027378191
8.97034806209
8.97048663271
8.97069296033
8.97096601666
8.97130501381
8.96827503934
8.96830192602
8.96835498648
8.96843317973
8.96853492657
8.96865823144
8.96880081727
8.96896020474
8.9691337914
8.96931891529
8.96951291337
8.96971317392
8.96991717998
8.97012255049
8.97032707006
8.97052871608
8.9707256748
8.97091635366
8.97109938541
8.97127362816
8.97143816132
8.97159227765
8.97173547484
8.97186744327
8.97198805521
8.97209734964
8.97219551887
8.97228288985
8.97235990716
8.97242711047
8.97248511399
8.97253458169
8.9725762059
8.97261068393
8.97263869979
8.97266090623
8.97267791271
8.97269027505
8.97269849047
8.97270299451
8.97270416167
8.97270231261
8.97269766828
8.97269035396
8.97268045991
8.97266804177
8.97265312537
8.97263571175
8.97261578144
8.97259329978
8.97256822092
8.97254049308
8.97251006241
8.97247687858
8.97244089896
8.97240209489
8.97236045682
8.97231600165
8.97226877934
8.97221888164
8.97216645025
8.97211168697
8.97205486291
8.97199632886
8.9719365238
8.97187598291
8.9718153415
8.97175533546
8.97169679388
8.97164062344
8.97158777911
8.97153922088
8.9714958533
8.97145845344
8.97142759828
8.9714035679
8.97138649828
8.97137633107
8.97137266104
8.97137495022
8.97138258685
8.97139490154
8.97141120643
8.97143082258
8.97145309969
8.97147742884
8.97150325059
8.9715300585
8.97155740066
8.97158487861
8.97161214561
8.97163890332
8.97166489848
8.97168991861
8.97171378788
8.97173636245
8.97175752606
8.97177718526
8.97179526496
8.97181170382
8.97182644979
8.97183945564
8.97185067479
8.97186005712
8.9718675454
8.9718730722
8.97187655789
8.97187787118
8.97187678666
8.97187303509
8.9718662962
8.97185619309
8.97184228792
8.97182408012
8.9718010082
8.97177245714
8.97173777326
8.97169628941
8.97164736289
8.97159042945
8.97152507562
8.97145113145
8.97136878413
8.97127871075
8.97118222586
8.97108143588
8.97097938844
8.97088020121
8.97078914974
8.97071269137
8.97065839763
8.97063476538
8.97065087444
8.97071586268
8.97083820304
8.97102480753
8.97128005962
8.97160495164
8.97199580703
8.97244490565
8.96873079776
8.96875391957
8.96879961245
8.9688669988
8.96895478288
8.96906130517
8.96918464416
8.96932268407
8.9694731843
8.96963384126
8.96980234397
8.96997642558
8.97015390385
8.97033271871
8.97051095781
8.97068687886
8.97085892159
8.97102571645
8.9711860865
8.9713390462
8.97148379756
8.97161972337
8.97174638089
8.97186349212
8.97197093608
8.97206873652
8.97215705167
8.97223615837
8.97230643798
8.97236835649
8.97242244689
8.97246928699
8.97250948092
8.97254363818
8.97257235795
8.97259621296
8.9726157393
8.97263142702
8.972643716
8.97265299286
8.9726595918
8.97266379427
8.97266583258
8.97266581211
8.97266379687
8.97265983133
8.97265393683
8.97264611617
8.97263635719
8.97262463703
8.97261092527
8.97259518801
8.9725773907
8.9725575022
8.97253549761
8.97251136245
8.9724850959
8.9724567153
8.97242625994
8.97239379603
8.97235942106
8.97232326899
8.97228551476
8.97224637898
8.97220613127
8.97216509292
8.97212363695
8.97208218587
8.97204120541
8.97200119401
8.97196266649
8.97192613219
8.97189206732
8.97186088459
8.97183290627
8.97180832103
8.97178717058
8.97176951463
8.97175531554
8.97174433429
8.9717362909
8.97173088156
8.97172777704
8.97172663789
8.97172712749
8.97172892009
8.9717317075
8.97173520305
8.9717391447
8.97174329605
8.97174744725
8.97175141422
8.97175503815
8.97175818368
8.97176073749
8.9717626059
8.97176371281
8.971763997
8.97176340968
8.97176191149
8.97175946983
8.97175605581
8.97175164139
8.97174619657
8.97173968694
8.97173207178
8.9717233032
8.9717132892
8.97170184231
8.97168873844
8.97167371149
8.97165645043
8.97163659814
8.97161375329
8.97158747633
8.97155730167
8.97152275755
8.97148339638
8.97143883735
8.97138882413
8.97133329878
8.97127249342
8.97120703836
8.97113808466
8.97106743532
8.97099767739
8.97093230305
8.97087580529
8.97083372978
8.9708126622
8.97082012577
8.97086436079
8.97095395164
8.97109726334
8.97130164948
8.97157241712
8.97191160311
8.97231674491
8.97277963029
8.9732855407
8.96912072058
8.96914091321
8.96918095476
8.96924001675
8.96931698124
8.96941040946
8.96951862631
8.96963978059
8.96977190573
8.96991297837
8.97006097008
8.97021389549
8.97036984989
8.97052704262
8.97068381917
8.97083867898
8.9709902843
8.97113746512
8.97127921928
8.97141470917
8.97154325774
8.97166434132
8.97177758441
8.97188275081
8.97197973774
8.972068565
8.97214936708
8.97222237913
8.97228792567
8.97234640302
8.97239826496
8.97244400322
8.97248413244
8.9725191719
8.97254963287
8.97257600454
8.97259874595
8.97261827765
8.97263497859
8.97264918314
8.97266118224
8.97267122
8.97267951289
8.972686177
8.97269124932
8.97269475857
8.97269671731
8.97269712507
8.97269597103
8.97269323703
8.97268889986
8.97268293418
8.9726753145
8.97266601792
8.9726550259
8.97264232695
8.97262791847
8.97261180932
8.9725940219
8.97257459471
8.97255358449
8.97253106871
8.97250714748
8.97248194547
8.97245561303
8.97242832663
8.97240028818
8.97237172284
8.97234287518
8.97231400313
8.97228536988
8.9722572333
8.97222983388
8.97220338151
8.97217804284
8.9721539375
8.97213109945
8.97210949662
8.97208918595
8.97207017698
8.97205234581
8.97203555733
8.97201967684
8.9720045583
8.97199005211
8.97197600908
8.97196228559
8.97194874532
8.9719352624
8.97192172237
8.97190802375
8.971894078
8.97187981019
8.97186515818
8.97185007259
8.97183451552
8.97181845997
8.97180188815
8.97178479047
8.97176716356
8.97174900887
8.97173033059
8.97171113395
8.97169142333
8.97167120088
8.9716504655
8.97162921338
8.97160740698
8.97158491258
8.97156156761
8.97153717656
8.97151151023
8.97148430735
8.9714552794
8.97142411999
8.97139052043
8.9713541931
8.97131490483
8.97127252178
8.97122706792
8.97117879774
8.9711282837
8.97107651665
8.97102501637
8.97097594628
8.97093222446
8.9708976197
8.97087681909
8.97087545005
8.97090003753
8.97095787217
8.97105676111
8.97120462482
8.97140889444
8.97167565499
8.9720084873
8.97240701566
8.97286531971
8.97337044748
8.97390123952
8.96945985601
8.96947774415
8.96951340705
8.96956599836
8.96963451387
8.96971766244
8.96981394044
8.96992168787
8.97003914425
8.97016450368
8.97029596295
8.9704317665
8.97057024055
8.97070982235
8.97084907886
8.97098672005
8.9711216047
8.97125274167
8.97137928779
8.97150054238
8.97161594224
8.9717250536
8.97182756708
8.97192328889
8.97201213607
8.97209412653
8.97216937305
8.97223807092
8.97230048939
8.9723569565
8.97240784805
8.97245357113
8.97249455237
8.97253122268
8.97256400733
8.97259331414
8.9726195272
8.97264299964
8.97266405124
8.97268296561
8.97269999072
8.97271533984
8.97272920193
8.97274171484
8.97275289588
8.97276275712
8.97277130055
8.97277852013
8.97278440309
8.97278893201
8.97279208622
8.9727938438
8.97279418278
8.97279308292
8.97279052674
8.97278650104
8.97278099793
8.97277401617
8.97276556217
8.97275565122
8.97274430843
8.97273156971
8.97271748263
8.97270210682
8.97268551445
8.97266778982
8.97264902893
8.97262933782
8.97260883074
8.97258762692
8.97256584708
8.97254360843
8.97252101991
8.9724981764
8.9724751545
8.97245200676
8.97242876635
8.97240540894
8.97238188388
8.97235824313
8.97233454471
8.97231073712
8.97228675879
8.97226256362
8.9722381004
8.97221332086
8.97218817651
8.97216262247
8.97213661878
8.97211013092
8.97208313142
8.97205559981
8.97202752353
8.97199889759
8.97196972501
8.97194001614
8.97190978872
8.97187906688
8.97184788087
8.97181626578
8.97178426095
8.97175190851
8.97171925266
8.97168633828
8.9716532105
8.97161991421
8.97158649616
8.97155298475
8.97151930966
8.97148538031
8.97145108212
8.97141627784
8.97138081134
8.97134451477
8.97130722057
8.97126877931
8.97122908532
8.97118811145
8.97114595453
8.97110289271
8.97105945502
8.971016503
8.97097532208
8.97093771971
8.97090612394
8.9708836751
8.97087429974
8.97088275435
8.97091462296
8.97097625036
8.97107458783
8.97121692315
8.97141045663
8.97166167277
8.97197543983
8.97235376091
8.97279412907
8.97328758254
8.97381680164
8.97435469075
8.96975919786
8.96977525894
8.96980751317
8.96985505262
8.96991694502
8.96999199669
8.97007882222
8.97017589901
8.97028162021
8.9703943479
8.97051245862
8.97063438485
8.97075864617
8.9708838742
8.97100882766
8.97113240126
8.97125362809
8.97137167707
8.97148584847
8.97159556575
8.97170036928
8.97179990692
8.97189392881
8.97198227832
8.97206488809
8.97214177096
8.97221301566
8.97227877644
8.97233926705
8.97239474838
8.97244552057
8.97249190961
8.97253425878
8.97257291612
8.972608227
8.97264052431
8.97267012351
8.97269731646
8.97272236933
8.97274551986
8.97276697751
8.97278692279
8.97280551655
8.97282293207
8.97283917172
8.97285422978
8.97286809842
8.97288076539
8.97289221455
8.97290242725
8.97291138302
8.97291906087
8.97292543981
8.97293049997
8.97293422304
8.97293659312
8.97293759715
8.97293722552
8.97293547253
8.9729323368
8.97292782169
8.97292193549
8.97291469183
8.97290610948
8.97289621264
8.97288503029
8.97287259614
8.97285894747
8.97284412457
8.97282816898
8.97281112241
8.9727930244
8.97277391084
8.97275381155
8.97273274894
8.97271073628
8.97268777577
8.97266386275
8.9726389557
8.97261299915
8.97258601356
8.97255810902
8.97252927572
8.97249947428
8.97246871086
8.97243697803
8.97240427718
8.97237060988
8.9723359815
8.9723004017
8.97226388511
8.97222645142
8.97218812642
8.97214894169
8.97210893529
8.97206815138
8.97202664063
8.9719844596
8.97194167093
8.97189834251
8.97185454742
8.97181036297
8.97176587057
8.97172115491
8.97167630405
8.97163140942
8.97158656751
8.97154187933
8.97149734442
8.97145294785
8.97140866078
8.97136444223
8.97132024489
8.9712760241
8.97123175162
8.97118743508
8.97114314472
8.97109904845
8.97105545666
8.97101287713
8.97097208051
8.97093417509
8.97090068903
8.97087365606
8.97085569924
8.97085010512
8.97086087876
8.97089276762
8.97095123998
8.97104240074
8.97117282269
8.97134926546
8.97157824332
8.97186538715
8.97221452084
8.97262634532
8.97309661825
8.97361382682
8.97415670154
8.9746924614
8.97002764274
8.97004224482
8.9700718372
8.9701154201
8.97017210323
8.97024075494
8.9703200689
8.97040861924
8.9705049131
8.97060744249
8.97071472799
8.97082535759
8.97093801458
8.97105149839
8.97116473565
8.97127678453
8.97138683341
8.97149419438
8.97159829595
8.97169867218
8.97179495481
8.97188686246
8.97197419501
8.97205682455
8.97213469213
8.97220779986
8.97227620847
8.97234002911
8.97239941993
8.97245457672
8.97250572785
8.972553124
8.97259703218
8.97263772578
8.97267547905
8.97271055891
8.97274322106
8.97277370444
8.97280222932
8.97282899459
8.97285417746
8.97287793313
8.972900386
8.97292172059
8.97294197888
8.97296112587
8.97297914404
8.97299601423
8.9730117162
8.97302622925
8.97303953214
8.97305160384
8.9730624235
8.9730719711
8.97308022745
8.97308717462
8.97309279601
8.97309707654
8.97310000277
8.97310156292
8.97310174708
8.97310054696
8.97309795619
8.97309396985
8.97308858477
8.97308179887
8.9730736114
8.97306402202
8.97305303104
8.97304063831
8.9730268433
8.97301164392
8.97299503659
8.97297701501
8.97295757041
8.97293669046
8.97291435977
8.97289055773
8.97286526181
8.9728384308
8.97281000342
8.97277995209
8.97274843318
8.97271544456
8.97268096535
8.97264501943
8.97260761815
8.97256877929
8.97252852712
8.97248688755
8.97244389225
8.97239957786
8.97235398686
8.97230716763
8.97225917524
8.97221007132
8.97215992471
8.97210881121
8.972056814
8.97200402331
8.97195053667
8.97189645848
8.97184190027
8.97178698043
8.97173182487
8.97167656756
8.97162135115
8.97156633816
8.97151161128
8.97145722863
8.97140324591
8.97134971741
8.97129670321
8.97124427949
8.97119255352
8.97114168389
8.97109190769
8.97104357505
8.97099719246
8.97095347468
8.97091340542
8.97087830528
8.97084990482
8.97083041882
8.97082261658
8.97082988096
8.97085624748
8.97090641257
8.97098569788
8.97109995484
8.97125538907
8.97145827745
8.97171453853
8.97202909726
8.97240495126
8.97284179799
8.97333403607
8.97386800803
8.97441877431
8.97494789815
8.97027236409
8.97028579076
8.97031329634
8.9703537668
8.97040633206
8.97046989546
8.97054320053
8.97062488784
8.97071354824
8.97080777471
8.97090620506
8.97100755792
8.97111065777
8.97121445124
8.97131801408
8.97142055063
8.97152138836
8.97161996736
8.97171582997
8.97180860719
8.97189800913
8.9719838131
8.97206585762
8.97214403378
8.97221828282
8.97228859001
8.97235498399
8.97241753127
8.97247633533
8.97253153015
8.97258327784
8.97263176111
8.97267717941
8.97271974114
8.97275965946
8.97279714545
8.97283240462
8.97286563203
8.97289701018
8.97292670641
8.97295487222
8.97298164313
8.97300712984
8.97303145658
8.97305476158
8.97307698993
8.97309811091
8.97311809743
8.97313692479
8.97315456994
8.97317101062
8.97318622552
8.97320019393
8.97321289591
8.9732243121
8.97323442377
8.97324321272
8.97325066116
8.97325675176
8.97326146736
8.97326479113
8.97326670612
8.97326719555
8.9732662422
8.97326382884
8.97325993747
8.97325454984
8.97324764665
8.97323920812
8.97322921319
8.97321764017
8.97320446592
8.97318966661
8.97317321694
8.97315509094
8.97313526134
8.97311370017
8.97309037806
8.97306526404
8.97303832346
8.97300952456
8.97297879179
8.9729460792
8.97291150666
8.97287510333
8.97283687388
8.97279682209
8.97275497075
8.97271133587
8.9726659459
8.97261883229
8.97257003089
8.97251958457
8.97246754245
8.97241396104
8.97235890449
8.97230244547
8.97224466527
8.9721856546
8.97212551356
8.9720643524
8.97200229145
8.97193946193
8.9718760061
8.9718120785
8.97174784707
8.97168349532
8.97161923135
8.97155522735
8.97149160865
8.97142850986
8.97136607512
8.97130446634
8.97124387418
8.97118453392
8.9711267459
8.97107090263
8.9710175223
8.97096729014
8.97092110699
8.97088014513
8.97084590954
8.97082030248
8.97080568744
8.97080494771
8.9708215327
8.97085948427
8.97092343309
8.97101855349
8.97115046212
8.97132504162
8.97154816264
8.97182526418
8.97216072807
8.97255694024
8.97301286049
8.97352182953
8.97406832653
8.97462386807
8.9751442838
8.97049926746
8.97051173476
8.97053759079
8.9705755901
8.97062486588
8.97068433641
8.9707527731
8.97082885983
8.97091124909
8.97099861356
8.97108968849
8.97118330518
8.97127841278
8.97137408986
8.97146954694
8.97156412065
8.97165726404
8.97174853177
8.97183756663
8.97192408336
8.97200785761
8.97208871312
8.9721665159
8.9722411662
8.97231259764
8.97238077288
8.97244568536
8.97250735639
8.97256583679
8.97262120327
8.9726735582
8.97272302456
8.97276974362
8.97281386885
8.97285556253
8.97289498986
8.97293231557
8.97296769936
8.97300129332
8.97303323927
8.97306366718
8.97309269365
8.97312042125
8.973146948
8.97317245565
8.97319689721
8.97322022897
8.97324241844
8.97326343731
8.97328326042
8.97330186461
8.97331922849
8.97333533177
8.97335015513
8.97336367984
8.97337588757
8.97338676018
8.97339627939
8.97340442682
8.97341118346
8.97341652992
8.97342044579
8.97342291003
8.9734239002
8.97342339307
8.97342136376
8.97341778643
8.97341263349
8.97340587639
8.97339748485
8.97338742777
8.97337567251
8.97336218589
8.97334693354
8.9733298809
8.9733109926
8.97329023339
8.97326756733
8.9732429583
8.97321636955
8.97318775986
8.97315709449
8.97312430104
8.97308932721
8.97305218724
8.97301298708
8.97297172808
8.97292838651
8.97288299489
8.97283556201
8.97278610481
8.97273465157
8.97268123372
8.97262588953
8.97256866571
8.97250961715
8.9724488085
8.97238631456
8.97232222146
8.97225662713
8.97218964247
8.9721213918
8.97205201411
8.97198166386
8.97191051264
8.97183875085
8.97176659117
8.97169427739
8.97162206633
8.97155014177
8.97147870853
8.97140799193
8.97133824659
8.9712697681
8.97120290921
8.97113810034
8.97107587611
8.9710169077
8.97096204196
8.97091234661
8.97086916143
8.97083415326
8.97080937303
8.97079731068
8.97080094385
8.97082377383
8.97086984197
8.9709437176
8.97105044712
8.97119545098
8.97138435079
8.97162270052
8.97191558025
8.97226698262
8.97267886815
8.97314967081
8.97367189054
8.97422831281
8.97478692816
8.97529775639
8.97071332647
8.97072499431
8.97074952153
8.97078551919
8.97083211112
8.97088821527
8.9709526146
8.97102402005
8.97110112964
8.97118268098
8.97126749352
8.97135449902
8.97144276014
8.97153147685
8.97161998396
8.97170773977
8.97179431183
8.97187935775
8.97196260872
8.97204385092
8.97212291332
8.97219965451
8.97227395732
8.97234572219
8.97241486796
8.97248133007
8.97254506455
8.97260604803
8.97266428163
8.97271978993
8.97277262262
8.97282285129
8.97287056826
8.97291588173
8.9729589127
8.97299978972
8.97303864529
8.97307561155
8.97311081712
8.9731443844
8.97317642731
8.97320704996
8.97323634552
8.97326438002
8.97329134875
8.97331727251
8.97334207765
8.97336572677
8.97338818762
8.97340943292
8.97342943871
8.97344818376
8.97346564849
8.97348181469
8.97349666492
8.97351018212
8.9735223494
8.97353314948
8.97354256476
8.97355057667
8.97355716591
8.97356231178
8.97356599256
8.97356818475
8.97356886364
8.97356800254
8.9735655735
8.97356154647
8.97355589022
8.97354857155
8.97353955627
8.9735288085
8.97351629168
8.97350196796
8.97348579921
8.97346774637
8.97344777039
8.97342583149
8.97340188992
8.97337590466
8.97334783468
8.97331763483
8.97328525735
8.97325065086
8.97321374472
8.97317447873
8.97313296256
8.97308920327
8.97304320056
8.97299493714
8.97294443433
8.97289169287
8.9728367277
8.97277956221
8.97272022489
8.97265875371
8.97259519695
8.97252961386
8.97246207635
8.97239266999
8.9723214956
8.97224867032
8.97217432941
8.97209862762
8.97202174135
8.97194387091
8.9718652441
8.97178612638
8.97170685323
8.97162765473
8.97154879527
8.97147057
8.97139331456
8.97131741724
8.9712433353
8.97117161547
8.97110291981
8.97103805668
8.97097801771
8.97092401975
8.97087755174
8.97084042418
8.97081481952
8.97080333951
8.97080904573
8.97083548732
8.97088671009
8.97096723866
8.97108202283
8.97123633561
8.97143560632
8.97168516267
8.97198983858
8.97235337111
8.97277744556
8.97326012754
8.97379322121
8.97435790698
8.97491861087
8.97541953936
8.97091885538
8.97092983417
8.97095325003
8.97098756357
8.97103187996
8.97108510644
8.97114602621
8.97121336611
8.9712858597
8.97136230061
8.97144158456
8.97152273701
8.97160492782
8.97168747197
8.97176982177
8.97185154952
8.97193232854
8.97201190962
8.97209010171
8.97216675128
8.97224172941
8.97231491876
8.97238620931
8.97245549356
8.97252266953
8.97258764163
8.97265032727
8.97271065951
8.97276859322
8.9728241062
8.97287720228
8.97292790957
8.9729762799
8.9730223848
8.97306631241
8.97310816257
8.97314804286
8.9731860643
8.97322233775
8.97325697108
8.97329006664
8.97332172022
8.97335202026
8.97338103133
8.97340885449
8.97343565373
8.97346133743
8.97348585739
8.9735091752
8.97353126085
8.97355208936
8.97357163954
8.97358989266
8.97360683179
8.97362244115
8.97363670547
8.97364960974
8.97366113855
8.9736712761
8.9736800055
8.97368730902
8.97369316732
8.97369755992
8.97370046439
8.97370185694
8.97370171164
8.97370000116
8.97369669596
8.97369176518
8.97368517586
8.97367689389
8.97366688333
8.97365510736
8.97364152763
8.97362610521
8.97360879997
8.97358957136
8.97356837778
8.97354517718
8.97351992627
8.97349258067
8.97346309399
8.97343141831
8.97339749748
8.97336128832
8.97332270589
8.97328168679
8.97323820506
8.97319236469
8.97314413757
8.9730934969
8.97304044597
8.97298498295
8.97292710181
8.97286681394
8.97280413731
8.97273909795
8.97267173399
8.97260209664
8.97253025158
8.97245628119
8.97238028628
8.97230238836
8.97222273174
8.9721414863
8.97205885003
8.97197505264
8.97189036254
8.97180517936
8.97171977524
8.97163446053
8.97154958705
8.97146555771
8.97138283904
8.97130197796
8.9712236221
8.97114854507
8.97107767611
8.97101213497
8.97095327095
8.97090270593
8.97086237904
8.97083459147
8.97082204753
8.97082788869
8.97085571504
8.97090958909
8.97099401445
8.97111388141
8.97127436771
8.97148077878
8.97173830059
8.97205162003
8.972424329