/*--------------------------------*- C++ -*----------------------------------*\
| =========                 |                                                 |
| \\      /  F ield         | OpenFOAM: The Open Source CFD Toolbox           |
|  \\    /   O peration     | Version:  2206                                  |
|   \\  /    A nd           | Website:  www.openfoam.com                      |
|    \\/     M anipulation  |                                                 |
\*---------------------------------------------------------------------------*/
FoamFile
{
    version     2.0;
    format      ascii;
    arch        "LSB;label=64;scalar=64";
    class       volScalarField;
    location    "4.8/water";
    object      d.gas;
}
// * * * * * * * * * * * * * * * * * * * * * * * * * * * * * * * * * * * * * //

dimensions      [0 1 0 0 0 0 0];

internalField   nonuniform List<scalar> 
23300
(
0.00498782897554
0.00498782827783
0.00498782840689
0.00498782858698
0.00498782881821
0.00498782909231
0.00498782940672
0.0049878297489
0.00498783011592
0.00498783049371
0.00498783087986
0.00498783126018
0.0049878316337
0.00498783198735
0.00498783232253
0.00498783262821
0.00498783290882
0.00498783315577
0.00498783337658
0.00498783356482
0.00498783373057
0.00498783386879
0.00498783399111
0.00498783409284
0.00498783418602
0.00498783426534
0.0049878343423
0.00498783441028
0.0049878344797
0.0049878345424
0.00498783460765
0.00498783466598
0.0049878347258
0.0049878347769
0.0049878348273
0.00498783486668
0.00498783490315
0.00498783492681
0.0049878349462
0.00498783495219
0.00498783495387
0.00498783494318
0.0049878349299
0.00498783490689
0.0049878348842
0.00498783485561
0.00498783483145
0.00498783480631
0.00498783479062
0.00498783477962
0.00498783478363
0.00498783479841
0.00498783483399
0.00498783488652
0.00498783496561
0.00498783506762
0.00498783520163
0.0049878353641
0.00498783556341
0.00498783579592
0.00498783606915
0.00498783637907
0.00498783673203
0.00498783712319
0.00498783755724
0.00498783802787
0.00498783853742
0.00498783907726
0.00498783964655
0.00498784023375
0.00498784083513
0.00498784143927
0.00498784204935
0.00498784266273
0.00498784327991
0.00498784388736
0.00498784448308
0.00498784506697
0.00498784565034
0.00498784623702
0.0049878468372
0.0049878474521
0.00498784808874
0.00498784874545
0.00498784942649
0.00498785012796
0.00498785085212
0.00498785159362
0.00498785235343
0.00498785312537
0.00498785390964
0.00498785469972
0.00498785549541
0.00498785629018
0.00498785708372
0.00498785786969
0.00498785864784
0.00498785941219
0.00498786016264
0.00498786089369
0.0049878616055
0.00498786229314
0.00498786295708
0.00498786359302
0.00498786420185
0.00498786477999
0.00498786532875
0.00498786584528
0.00498786633132
0.00498786678477
0.0049878672078
0.004987867599
0.00498786796094
0.00498786829291
0.00498786859785
0.00498786887565
0.00498786912951
0.00498786935979
0.0049878695697
0.00498786975975
0.0049878699328
0.00498787008899
0.00498787023021
0.00498787035554
0.00498787046512
0.00498787055626
0.00498787062674
0.00498787067175
0.00498787068695
0.00498787066637
0.00498787060537
0.00498787049971
0.0049878703483
0.0049878701531
0.00498786992142
0.00498786966635
0.00498786940862
0.00498786917781
0.00498786901175
0.00498786790878
0.0049879612724
0.00498796055892
0.00498796062108
0.00498796072214
0.00498796085878
0.00498796102449
0.00498796121642
0.00498796142654
0.00498796165188
0.00498796188398
0.00498796212074
0.00498796235435
0.00498796258432
0.00498796280433
0.00498796301598
0.00498796321478
0.00498796340458
0.00498796358264
0.00498796375468
0.00498796391919
0.0049879640831
0.00498796424527
0.00498796441297
0.00498796458458
0.00498796476683
0.00498796495694
0.00498796516051
0.0049879653732
0.00498796559931
0.004987965833
0.00498796607743
0.00498796632573
0.00498796658041
0.00498796683424
0.00498796708968
0.00498796733975
0.00498796758735
0.00498796782622
0.00498796805998
0.00498796828328
0.00498796850052
0.00498796870739
0.00498796890909
0.00498796910214
0.00498796929208
0.00498796947606
0.00498796965988
0.00498796984117
0.00498797002576
0.00498797021157
0.00498797040424
0.00498797060182
0.00498797080959
0.00498797102556
0.00498797125453
0.00498797149436
0.00498797174927
0.00498797201686
0.00498797230074
0.0049879725982
0.00498797291223
0.00498797323986
0.00498797358349
0.00498797393991
0.0049879743111
0.00498797469379
0.00498797508986
0.00498797549654
0.00498797591667
0.00498797634985
0.00498797680309
0.00498797728354
0.00498797780841
0.00498797838759
0.00498797902328
0.00498797970159
0.00498798040748
0.00498798112534
0.00498798184904
0.0049879825722
0.00498798329444
0.00498798401271
0.00498798472831
0.00498798543908
0.00498798614664
0.00498798684892
0.00498798754741
0.00498798823991
0.00498798892767
0.00498798960829
0.00498799028271
0.00498799094835
0.00498799160584
0.00498799225244
0.00498799288849
0.00498799351115
0.00498799412055
0.00498799471378
0.00498799529086
0.00498799584892
0.00498799638794
0.00498799690518
0.00498799740068
0.00498799787196
0.00498799831922
0.00498799874032
0.00498799913573
0.00498799950391
0.00498799984568
0.00498800015987
0.00498800044762
0.00498800070831
0.00498800094349
0.00498800115312
0.00498800133923
0.00498800150239
0.00498800164505
0.00498800176835
0.0049880018751
0.00498800196689
0.00498800204667
0.00498800211614
0.00498800217798
0.00498800223344
0.0049880022842
0.00498800233027
0.00498800237147
0.00498800240573
0.00498800243044
0.0049880024413
0.00498800243377
0.00498800240268
0.00498800234389
0.0049880022547
0.00498800213555
0.00498800199107
0.00498800183179
0.00498800167641
0.00498800155822
0.00498800042995
0.00498809483921
0.0049880941462
0.00498809420328
0.00498809429941
0.00498809443077
0.00498809459028
0.00498809477433
0.0049880949749
0.00498809518825
0.00498809540605
0.00498809562546
0.00498809583903
0.00498809604562
0.00498809623952
0.00498809642193
0.00498809658926
0.00498809674519
0.00498809688817
0.00498809702393
0.00498809715236
0.00498809728049
0.00498809740868
0.00498809754427
0.00498809768713
0.00498809784393
0.00498809801324
0.00498809820039
0.00498809840222
0.00498809862246
0.00498809885625
0.00498809910589
0.00498809936528
0.00498809963585
0.0049880999109
0.00498810019162
0.00498810047139
0.00498810075173
0.00498810102661
0.00498810129815
0.00498810156117
0.00498810181851
0.00498810206602
0.00498810230748
0.00498810253953
0.00498810276615
0.00498810298448
0.0049881031988
0.00498810340671
0.00498810361255
0.00498810381422
0.00498810401599
0.00498810421591
0.00498810441803
0.00498810462046
0.00498810482696
0.00498810503564
0.00498810524997
0.00498810546805
0.0049881056931
0.00498810592327
0.00498810616165
0.00498810640661
0.00498810666129
0.00498810692445
0.00498810719962
0.00498810748631
0.00498810778886
0.0049881081082
0.00498810845044
0.00498810881918
0.00498810922405
0.00498810967315
0.00498811017998
0.00498811075073
0.00498811138503
0.00498811207345
0.00498811280773
0.0049881135735
0.00498811436215
0.00498811516397
0.00498811597444
0.00498811678711
0.00498811759976
0.00498811840772
0.00498811920998
0.00498812000287
0.00498812078609
0.00498812155659
0.00498812231447
0.00498812305712
0.00498812378487
0.00498812449534
0.004988125189
0.00498812586363
0.00498812651969
0.00498812715509
0.00498812777026
0.00498812836318
0.00498812893425
0.00498812948153
0.00498813000543
0.00498813050412
0.00498813097807
0.00498813142565
0.00498813184743
0.00498813224206
0.00498813261032
0.00498813295136
0.00498813326627
0.00498813355452
0.00498813381746
0.00498813405504
0.00498813426903
0.00498813445995
0.00498813463001
0.0049881347803
0.0049881349135
0.00498813503126
0.00498813513662
0.0049881352316
0.00498813531932
0.00498813540178
0.00498813548166
0.00498813556022
0.00498813563883
0.00498813571705
0.00498813579395
0.00498813586651
0.00498813593087
0.0049881359813
0.00498813601157
0.00498813601471
0.00498813598462
0.00498813591659
0.00498813580906
0.00498813566477
0.00498813549257
0.00498813531018
0.00498813514858
0.00498813393782
0.0049882281204
0.00498822744069
0.004988227504
0.00498822760343
0.00498822773687
0.00498822789738
0.00498822808131
0.00498822828049
0.00498822849112
0.00498822870483
0.00498822891863
0.00498822912507
0.00498822932293
0.00498822950659
0.00498822967723
0.00498822983147
0.00498822997309
0.00498823010086
0.00498823022076
0.00498823033308
0.00498823044519
0.00498823055797
0.0049882306791
0.004988230809
0.00498823095464
0.00498823111512
0.00498823129598
0.00498823149447
0.00498823171441
0.0049882319512
0.00498823220711
0.00498823247612
0.00498823275945
0.00498823305036
0.00498823334969
0.00498823365067
0.00498823395431
0.00498823425433
0.00498823455228
0.00498823484262
0.00498823512758
0.0049882354026
0.00498823567091
0.00498823592888
0.00498823617983
0.00498823642049
0.0049882366545
0.00498823687909
0.00498823709804
0.00498823730893
0.00498823751556
0.00498823771575
0.00498823791323
0.00498823810602
0.00498823829774
0.00498823848659
0.0049882386761
0.00498823886469
0.00498823905591
0.0049882392485
0.00498823944617
0.00498823964813
0.00498823985847
0.00498824007709
0.00498824030872
0.00498824055423
0.00498824081931
0.00498824110619
0.00498824142206
0.00498824177107
0.00498824216243
0.00498824260232
0.00498824310055
0.00498824366107
0.00498824428309
0.00498824495842
0.00498824568379
0.00498824644939
0.00498824724782
0.00498824806931
0.00498824890837
0.00498824975722
0.00498825061204
0.00498825146656
0.00498825231821
0.00498825316191
0.004988253996
0.00498825481636
0.00498825562206
0.00498825640973
0.004988257179
0.00498825792708
0.00498825865402
0.00498825935745
0.00498826003771
0.00498826069276
0.00498826132311
0.00498826192698
0.00498826250498
0.00498826305553
0.00498826357935
0.00498826407504
0.00498826454343
0.00498826498335
0.00498826539574
0.0049882657797
0.00498826613639
0.0049882664654
0.00498826676819
0.00498826704459
0.00498826729631
0.00498826752364
0.00498826772866
0.00498826791218
0.00498826807668
0.00498826822353
0.00498826835562
0.00498826847478
0.00498826858418
0.00498826868594
0.00498826878319
0.00498826887786
0.00498826897243
0.00498826906791
0.00498826916524
0.00498826926352
0.00498826936118
0.00498826945458
0.00498826953912
0.00498826960835
0.00498826965525
0.00498826967204
0.00498826965172
0.00498826958853
0.00498826947969
0.00498826932635
0.00498826913525
0.00498826892071
0.00498826870721
0.00498826744887
0.00498836126996
0.00498836059294
0.00498836066211
0.00498836076648
0.00498836090439
0.00498836106895
0.00498836125662
0.0049883614591
0.00498836167256
0.00498836188854
0.00498836210403
0.00498836231153
0.00498836250978
0.00498836269313
0.00498836286274
0.00498836301527
0.00498836315451
0.00498836327931
0.00498836339574
0.00498836350428
0.00498836361242
0.00498836372128
0.00498836383873
0.00498836396546
0.00498836410866
0.00498836426766
0.0049883644482
0.00498836464775
0.00498836487025
0.00498836511125
0.00498836537305
0.0049883656497
0.00498836594238
0.00498836624431
0.00498836655619
0.00498836687113
0.00498836718991
0.00498836750605
0.00498836782079
0.00498836812834
0.00498836843057
0.00498836872253
0.00498836900716
0.00498836928074
0.00498836954619
0.00498836979995
0.00498837004531
0.00498837027923
0.0049883705052
0.00498837072062
0.00498837092908
0.00498837112831
0.00498837132195
0.00498837150806
0.00498837169029
0.00498837186701
0.00498837204198
0.00498837221391
0.00498837238674
0.00498837255964
0.00498837273685
0.00498837291816
0.00498837310826
0.0049883733077
0.00498837352185
0.00498837375214
0.0049883740048
0.00498837428235
0.00498837459203
0.00498837493761
0.00498837532729
0.00498837576548
0.0049883762598
0.00498837681223
0.00498837742471
0.00498837808853
0.00498837880025
0.00498837955502
0.00498838034729
0.00498838116822
0.00498838201267
0.00498838287266
0.00498838374391
0.00498838461949
0.00498838549607
0.00498838636773
0.004988387232
0.00498838808394
0.00498838892188
0.00498838974173
0.00498839054253
0.00498839132093
0.00498839207655
0.00498839280666
0.00498839351133
0.00498839418832
0.00498839483805
0.00498839545868
0.00498839605087
0.00498839661312
0.00498839714629
0.00498839764916
0.00498839812276
0.00498839856616
0.00498839898056
0.00498839936534
0.00498839972191
0.00498840005017
0.00498840035187
0.00498840062713
0.00498840087788
0.00498840110469
0.00498840130983
0.00498840149435
0.00498840166089
0.00498840181097
0.00498840194758
0.00498840207264
0.00498840218933
0.00498840229973
0.00498840240686
0.00498840251249
0.00498840261885
0.00498840272665
0.00498840283648
0.00498840294705
0.00498840305638
0.00498840316043
0.0049884032542
0.00498840333087
0.00498840338303
0.00498840340242
0.00498840338142
0.00498840331342
0.00498840319442
0.00498840302391
0.00498840280633
0.00498840255239
0.00498840228082
0.00498840101637
0.00498849434034
0.00498849366344
0.00498849373805
0.00498849384795
0.00498849399157
0.00498849416208
0.00498849435602
0.00498849456495
0.00498849478507
0.00498849500782
0.00498849523011
0.00498849544438
0.00498849564929
0.00498849583909
0.00498849601491
0.0049884961733
0.00498849631803
0.00498849644791
0.00498849656902
0.0049884966818
0.00498849679384
0.00498849690628
0.00498849702709
0.00498849715705
0.00498849730346
0.00498849746575
0.00498849764979
0.00498849785312
0.00498849807981
0.00498849832549
0.00498849859252
0.00498849887502
0.0049884991742
0.0049884994833
0.00498849980298
0.00498850012632
0.00498850045401
0.00498850077948
0.00498850110383
0.00498850142113
0.00498850173307
0.0049885020343
0.00498850232771
0.0049885026096
0.00498850288269
0.00498850314325
0.00498850339437
0.00498850363287
0.00498850386208
0.00498850407931
0.00498850428808
0.00498850448611
0.00498850467704
0.00498850485901
0.00498850503578
0.0049885052059
0.00498850537331
0.004988505537
0.00498850570118
0.00498850586537
0.00498850603414
0.00498850620761
0.00498850639087
0.00498850658474
0.00498850679488
0.00498850702292
0.00498850727518
0.00498850755412
0.00498850786672
0.00498850821615
0.00498850860971
0.00498850905055
0.00498850954493
0.00498851009377
0.0049885106998
0.00498851135731
0.00498851206089
0.00498851280526
0.00498851358909
0.00498851440442
0.00498851524675
0.00498851610836
0.00498851698507
0.00498851786979
0.00498851875895
0.00498851964624
0.00498852052878
0.00498852140113
0.00498852226116
0.00498852310427
0.00498852392905
0.00498852473169
0.00498852551142
0.00498852626515
0.00498852699264
0.00498852769142
0.00498852836169
0.00498852900148
0.00498852961136
0.0049885301898
0.00498853073763
0.00498853125371
0.00498853173913
0.00498853219308
0.00498853261687
0.00498853301003
0.00498853337414
0.0049885337093
0.00498853401746
0.00498853429891
0.00498853455575
0.0049885347887
0.00498853500018
0.00498853519134
0.00498853536492
0.00498853552253
0.00498853566716
0.00498853580074
0.00498853592639
0.00498853604609
0.0049885361627
0.0049885362778
0.00498853639338
0.00498853650987
0.00498853662757
0.0049885367449
0.00498853685962
0.00498853696744
0.00498853706316
0.00498853713974
0.00498853718954
0.00498853720401
0.00498853717499
0.00498853709516
0.00498853695942
0.00498853676584
0.00498853651706
0.00498853622138
0.00498853589448
0.00498853466221
0.00498862734847
0.00498862667197
0.00498862675226
0.00498862686852
0.00498862701929
0.00498862719767
0.00498862740028
0.00498862761865
0.0049886278489
0.00498862808234
0.00498862831584
0.00498862854167
0.00498862875839
0.00498862896012
0.00498862914783
0.00498862931797
0.00498862947419
0.00498862961518
0.00498862974696
0.0049886298699
0.00498862999153
0.00498863011297
0.0049886302422
0.00498863037996
0.00498863053359
0.00498863070256
0.00498863089275
0.00498863110178
0.00498863133376
0.0049886315844
0.00498863185614
0.00498863214318
0.00498863244679
0.00498863276029
0.00498863308441
0.00498863341225
0.00498863374453
0.00498863407467
0.00498863440374
0.00498863472579
0.00498863504244
0.00498863534806
0.00498863564545
0.00498863593102
0.00498863620752
0.00498863647112
0.00498863672481
0.00498863696535
0.00498863719598
0.00498863741401
0.0049886376229
0.00498863782043
0.00498863801026
0.00498863819063
0.0049886383654
0.00498863853326
0.00498863869834
0.0049886388598
0.00498863902208
0.00498863918488
0.00498863935302
0.0049886395268
0.00498863971149
0.00498863990804
0.00498864012221
0.00498864035562
0.00498864061452
0.00498864090111
0.00498864122203
0.00498864157985
0.00498864198115
0.00498864242811
0.00498864292613
0.00498864347545
0.00498864407851
0.00498864473237
0.00498864543324
0.0049886461725
0.0049886469494
0.00498864775905
0.00498864859757
0.00498864945766
0.00498865033544
0.00498865122392
0.00498865211954
0.00498865301589
0.00498865390992
0.00498865479594
0.00498865567155
0.00498865653185
0.0049886573751
0.00498865819717
0.00498865899698
0.00498865977115
0.00498866051915
0.00498866123827
0.00498866192851
0.00498866258772
0.00498866321632
0.00498866381269
0.00498866437761
0.00498866490987
0.00498866541058
0.00498866587894
0.00498866631631
0.00498866672227
0.00498866709845
0.0049886674451
0.00498866776429
0.00498866805642
0.00498866832367
0.00498866856683
0.00498866878838
0.00498866898954
0.00498866917307
0.00498866934057
0.00498866949502
0.00498866963827
0.00498866977335
0.0049886699021
0.0049886700272
0.00498867015003
0.00498867027235
0.00498867039435
0.00498867051609
0.00498867063577
0.00498867075098
0.00498867085727
0.00498867094934
0.00498867102007
0.00498867106168
0.00498867106542
0.00498867102281
0.00498867092594
0.00498867076897
0.00498867054903
0.0049886702678
0.0049886699327
0.00498866955894
0.00498866838648
0.00498876030587
0.0049887596318
0.00498875971813
0.00498875984162
0.00498876000083
0.00498876018887
0.0049887604024
0.00498876063281
0.00498876087622
0.00498876112381
0.0049887613723
0.00498876161377
0.00498876184664
0.0049887620648
0.00498876226908
0.00498876245571
0.00498876262819
0.00498876278505
0.00498876293218
0.00498876306981
0.0049887632054
0.00498876333995
0.00498876348138
0.00498876363037
0.00498876379424
0.00498876397239
0.00498876417075
0.00498876438694
0.00498876462511
0.00498876488104
0.00498876515728
0.0049887654481
0.00498876575492
0.00498876607116
0.00498876639766
0.00498876672763
0.00498876706188
0.0049887673939
0.00498876772481
0.00498876804867
0.00498876836708
0.00498876867476
0.00498876897386
0.00498876926055
0.0049887695383
0.0049887698032
0.00498877005817
0.00498877029992
0.00498877053169
0.00498877075075
0.00498877096059
0.004988771159
0.00498877134971
0.00498877153102
0.00498877170689
0.00498877187611
0.00498877204295
0.00498877220669
0.00498877237191
0.00498877253846
0.00498877271126
0.00498877289074
0.00498877308222
0.00498877328671
0.00498877350992
0.0049887737534
0.00498877402321
0.0049887743213
0.00498877465392
0.00498877502312
0.00498877543486
0.00498877589065
0.00498877639522
0.00498877694838
0.0049887775525
0.00498877820473
0.00498877890471
0.00498877964431
0.00498878041897
0.00498878122478
0.00498878206027
0.00498878291866
0.00498878379637
0.00498878468665
0.00498878558607
0.00498878648824
0.00498878739011
0.00498878828589
0.00498878917305
0.0049887900465
0.00498879090432
0.00498879174216
0.0049887925587
0.00498879335033
0.00498879411633
0.00498879485376
0.00498879556244
0.00498879624005
0.00498879688687
0.00498879750114
0.00498879808356
0.00498879863285
0.00498879915005
0.00498879963436
0.00498880008709
0.00498880050785
0.00498880089826
0.0049888012586
0.00498880159108
0.0049888018961
0.00498880217589
0.00498880243124
0.00498880266466
0.00498880287735
0.00498880307206
0.00498880325032
0.00498880341505
0.00498880356801
0.00498880371207
0.00498880384894
0.0049888039811
0.00498880410972
0.00498880423634
0.00498880436095
0.00498880448341
0.00498880460175
0.00498880471344
0.00498880481396
0.00498880489797
0.00498880495834
0.0049888049873
0.004988804976
0.00498880491582
0.00498880479857
0.00498880461801
0.00498880437094
0.00498880405889
0.00498880368972
0.0049888032802
0.00498880218375
0.0049888932208
0.00498889255249
0.00498889264518
0.00498889277666
0.00498889294553
0.00498889314482
0.0049888933712
0.00498889361604
0.00498889387532
0.00498889414006
0.00498889440684
0.00498889466751
0.00498889492026
0.00498889515873
0.00498889538351
0.0049888955906
0.00498889578329
0.00498889595991
0.00498889612616
0.00498889628211
0.0049888964351
0.00498889658597
0.00498889674257
0.00498889690545
0.0049888970819
0.00498889727125
0.00498889747943
0.00498889770404
0.00498889794932
0.00498889821109
0.00498889849202
0.00498889878652
0.00498889909615
0.00498889941449
0.00498889974254
0.00498890007367
0.00498890040882
0.0049889007416
0.00498890107323
0.00498890139785
0.00498890171711
0.00498890202583
0.00498890232568
0.00498890261296
0.0049889028916
0.00498890315768
0.00498890341409
0.00498890365756
0.00498890389128
0.00498890411255
0.00498890432486
0.00498890452603
0.00498890471983
0.00498890490461
0.00498890508441
0.0049889052581
0.00498890543001
0.00498890559954
0.00498890577135
0.00498890594536
0.00498890612657
0.00498890631544
0.00498890651731
0.00498890673315
0.00498890696863
0.00498890722513
0.00498890750855
0.00498890782054
0.004988908167
0.00498890854954
0.00498890897363
0.00498890944023
0.00498890995362
0.00498891051328
0.00498891112146
0.0049889117755
0.00498891247532
0.00498891321615
0.00498891399365
0.00498891479987
0.00498891563415
0.00498891649176
0.00498891736971
0.00498891826145
0.00498891916375
0.00498892007031
0.00498892097814
0.00498892188143
0.00498892277762
0.00498892366152
0.0049889245311
0.00498892538187
0.00498892621237
0.00498892701881
0.00498892780033
0.0049889285538
0.0049889292789
0.00498892997316
0.00498893063675
0.00498893126777
0.00498893186682
0.00498893243255
0.00498893296593
0.00498893346608
0.0049889339343
0.00498893437015
0.00498893477517
0.00498893514967
0.00498893549595
0.00498893581441
0.00498893610724
0.00498893637523
0.00498893662084
0.00498893684524
0.0049889370511
0.00498893723989
0.00498893741441
0.0049889375763
0.00498893772828
0.00498893787187
0.00498893800938
0.00498893814177
0.00498893827038
0.00498893839501
0.00498893851535
0.00498893862932
0.00498893873429
0.00498893882576
0.0049889388984
0.00498893894517
0.00498893895838
0.00498893892928
0.00498893884927
0.00498893871017
0.00498893850575
0.00498893823292
0.00498893789379
0.00498893749756
0.00498893706383
0.00498893605036
0.00498902609944
0.00498902544121
0.00498902554062
0.00498902568081
0.00498902586036
0.00498902607231
0.00498902631335
0.00498902657468
0.00498902685227
0.00498902713691
0.00498902742496
0.004989027708
0.00498902798396
0.00498902824614
0.00498902849488
0.00498902872586
0.00498902894214
0.00498902914178
0.00498902933029
0.00498902950756
0.00498902968074
0.00498902985055
0.00498903002472
0.00498903020368
0.00498903039466
0.00498903059693
0.00498903081642
0.00498903105074
0.00498903130419
0.00498903157268
0.00498903185901
0.00498903215774
0.00498903247061
0.00498903279139
0.00498903312126
0.00498903345377
0.00498903379004
0.00498903412382
0.00498903445646
0.00498903478222
0.00498903510283
0.00498903541321
0.00498903571444
0.00498903600309
0.00498903628346
0.00498903655174
0.0049890368108
0.00498903705738
0.00498903729465
0.00498903751993
0.00498903773669
0.00498903794279
0.00498903814201
0.00498903833275
0.00498903851908
0.00498903869994
0.0049890388797
0.00498903905783
0.00498903923902
0.00498903942326
0.00498903961556
0.00498903981639
0.00498904003108
0.00498904026054
0.00498904051034
0.00498904078172
0.00498904108039
0.00498904140774
0.00498904176935
0.00498904216646
0.00498904260412
0.0049890430829
0.00498904360672
0.00498904417479
0.0049890447893
0.00498904544762
0.00498904614996
0.00498904689191
0.00498904767182
0.00498904848268
0.00498904931975
0.00498905017809
0.00498905105693
0.00498905195038
0.00498905285541
0.00498905376575
0.00498905467853
0.00498905558795
0.00498905649149
0.0049890573839
0.00498905826312
0.00498905912454
0.00498905996664
0.00498906078551
0.00498906158015
0.00498906234734
0.00498906308664
0.00498906379545
0.00498906447382
0.00498906511978
0.00498906573382
0.00498906631451
0.00498906686275
0.0049890673776
0.0049890678603
0.00498906831037
0.00498906872926
0.0049890691172
0.00498906947661
0.00498906980785
0.00498907011309
0.00498907039306
0.00498907065016
0.00498907088549
0.00498907110163
0.00498907129996
0.00498907148314
0.00498907165267
0.00498907181111
0.0049890719598
0.00498907210086
0.00498907223507
0.00498907236358
0.00498907248601
0.00498907260194
0.00498907270919
0.00498907280512
0.00498907288524
0.00498907294433
0.00498907297552
0.0049890729713
0.00498907292315
0.0049890728227
0.00498907266202
0.00498907243518
0.00498907213962
0.00498907177842
0.00498907136271
0.00498907091543
0.00498906998565
0.00498915894682
0.00498915830388
0.0049891584103
0.00498915855978
0.00498915875097
0.00498915897684
0.0049891592341
0.0049891595139
0.00498915981204
0.00498916011907
0.00498916043115
0.0049891607395
0.00498916104172
0.00498916133074
0.00498916160656
0.0049891618645
0.00498916210735
0.00498916233286
0.00498916254636
0.00498916274748
0.00498916294325
0.00498916313421
0.004989163328
0.00498916352495
0.00498916373222
0.00498916394905
0.00498916418137
0.00498916442682
0.00498916468979
0.00498916496629
0.00498916525927
0.00498916556347
0.0049891658808
0.00498916620525
0.0049891665382
0.00498916687338
0.0049891672121
0.00498916754827
0.00498916788336
0.00498916821176
0.00498916853529
0.00498916884896
0.00498916915383
0.00498916944594
0.00498916972966
0.00498917000191
0.00498917026553
0.00498917051723
0.00498917076016
0.00498917099162
0.00498917121509
0.00498917142842
0.00498917163541
0.00498917183448
0.00498917202971
0.00498917222008
0.00498917241
0.00498917259896
0.0049891727917
0.0049891729882
0.0049891731935
0.00498917340806
0.00498917363716
0.00498917388164
0.00498917414699
0.0049891744343
0.00498917474909
0.00498917509253
0.00498917546993
0.0049891758822
0.0049891763341
0.00498917682582
0.00498917736103
0.00498917793874
0.00498917856106
0.00498917922538
0.00498917993208
0.00498918067697
0.00498918145891
0.00498918227222
0.00498918311496
0.00498918397765
0.00498918485829
0.00498918575412
0.00498918666183
0.00498918757563
0.00498918849265
0.0049891894072
0.00498919031678
0.00498919121615
0.00498919210323
0.00498919297336
0.00498919382497
0.00498919465406
0.00498919545958
0.00498919623819
0.00498919698938
0.00498919771045
0.0049891984014
0.00498919906013
0.00498919968709
0.00498920028075
0.00498920084197
0.00498920136973
0.00498920186523
0.00498920232791
0.00498920275922
0.00498920315918
0.00498920353027
0.00498920387289
0.00498920418915
0.00498920447973
0.00498920474696
0.00498920499184
0.00498920521686
0.00498920542327
0.0049892056136
0.0049892057892
0.00498920595248
0.0049892061046
0.00498920624749
0.00498920638176
0.00498920650839
0.00498920662688
0.00498920673668
0.00498920683559
0.00498920692096
0.00498920698839
0.00498920703284
0.00498920704764
0.00498920702559
0.0049892069585
0.0049892068384
0.00498920665778
0.00498920641126
0.00498920609701
0.00498920571934
0.00498920529148
0.00498920483981
0.00498920399081
0.00498929176739
0.00498929114567
0.00498929125938
0.00498929141869
0.00498929162227
0.00498929186318
0.00498929213814
0.00498929243814
0.0049892927589
0.00498929309073
0.00498929342946
0.00498929376591
0.0049892940973
0.0049892944161
0.00498929472192
0.00498929500968
0.00498929528182
0.00498929553581
0.00498929577672
0.00498929600398
0.00498929622447
0.00498929643858
0.00498929665387
0.00498929687059
0.00498929709589
0.00498929732896
0.0049892975758
0.00498929783408
0.0049892981083
0.00498929839458
0.00498929869607
0.00498929900764
0.00498929933145
0.00498929966165
0.00498929999983
0.00498930033993
0.0049893006834
0.00498930102432
0.00498930136429
0.00498930169778
0.00498930202667
0.00498930234596
0.00498930265771
0.00498930295642
0.00498930324578
0.0049893035244
0.00498930379499
0.00498930405424
0.00498930430525
0.00498930454531
0.00498930477786
0.00498930500076
0.00498930521778
0.00498930542735
0.00498930563358
0.00498930583545
0.0049893060374
0.00498930623893
0.00498930644479
0.00498930665498
0.00498930687454
0.00498930710388
0.00498930734828
0.0049893076085
0.00498930788992
0.00498930819352
0.00498930852466
0.00498930888429
0.00498930927751
0.00498930970495
0.00498931017112
0.00498931067595
0.00498931122289
0.00498931181077
0.00498931244163
0.00498931311289
0.00498931382504
0.00498931457408
0.00498931535907
0.00498931617496
0.00498931701966
0.00498931788757
0.00498931877345
0.00498931967165
0.00498932058246
0.0049893214991
0.00498932241961
0.00498932333831
0.0049893242527
0.00498932515759
0.00498932605089
0.00498932692793
0.00498932778709
0.00498932862432
0.00498932943854
0.00498933022633
0.00498933098713
0.00498933171817
0.00498933241937
0.00498933308858
0.00498933372619
0.0049893343306
0.00498933490263
0.00498933544119
0.00498933594744
0.00498933642077
0.00498933686263
0.00498933727277
0.00498933765363
0.00498933800578
0.00498933833128
0.00498933863071
0.00498933890634
0.00498933915906
0.00498933939126
0.00498933960406
0.00498933979989
0.00498933997992
0.0049893401464
0.00498934030035
0.00498934044352
0.00498934057635
0.00498934069971
0.00498934081296
0.0049893409155
0.00498934100509
0.00498934107916
0.00498934113342
0.00498934116305
0.00498934116166
0.00498934112242
0.00498934103758
0.00498934089965
0.0049893407017
0.004989340439
0.00498934011061
0.0049893397221
0.00498933928876
0.00498933884015
0.00498933806725
0.00498942456555
0.00498942397165
0.00498942409281
0.00498942426229
0.00498942447895
0.00498942473584
0.00498942502974
0.0049894253516
0.00498942569697
0.00498942605585
0.00498942642376
0.00498942679104
0.00498942715443
0.00498942750589
0.00498942784455
0.00498942816485
0.00498942846891
0.00498942875381
0.00498942902443
0.00498942927996
0.00498942952718
0.00498942976635
0.004989430005
0.00498943024332
0.00498943048847
0.00498943073967
0.00498943100299
0.00498943127616
0.00498943156383
0.00498943186224
0.00498943217471
0.0049894324963
0.00498943282934
0.00498943316819
0.00498943351463
0.00498943386276
0.00498943421419
0.00498943456313
0.00498943491129
0.00498943525324
0.00498943559092
0.00498943591939
0.0049894362409