/*--------------------------------*- C++ -*----------------------------------*\
| =========                 |                                                 |
| \\      /  F ield         | OpenFOAM: The Open Source CFD Toolbox           |
|  \\    /   O peration     | Version:  2206                                  |
|   \\  /    A nd           | Website:  www.openfoam.com                      |
|    \\/     M anipulation  |                                                 |
\*---------------------------------------------------------------------------*/
FoamFile
{
    version     2.0;
    format      ascii;
    arch        "LSB;label=64;scalar=64";
    class       volScalarField;
    location    "4.8/water";
    object      k.gas;
}
// * * * * * * * * * * * * * * * * * * * * * * * * * * * * * * * * * * * * * //

dimensions      [0 2 -2 0 0 0 0];

internalField   nonuniform List<scalar> 
23300
(
0.0136482957535
0.0136504366844
0.0136544545301
0.0136602424099
0.0136676663181
0.0136765810751
0.0136868202561
0.013698192123
0.0137104724271
0.0137234053641
0.0137366997417
0.0137500349171
0.0137630616025
0.01377541484
0.0137867221263
0.0137966261744
0.0138048025224
0.0138109931503
0.0138150324665
0.0138168880103
0.0138166874001
0.0138147550483
0.0138116253561
0.013808058365
0.0138050217083
0.0138036701865
0.0138052874463
0.0138112293785
0.0138228366644
0.0138413639703
0.0138678940275
0.0139032866824
0.0139481263164
0.0140027140651
0.014067059936
0.0141409161638
0.014223800842
0.0143150516207
0.0144138573873
0.0145193098507
0.0146304246928
0.0147461765903
0.0148655555007
0.014987561876
0.0151112008358
0.0152355074825
0.0153595427887
0.0154824081705
0.0156032357536
0.0157211995734
0.015835505453
0.0159454021752
0.0160501733567
0.0161491498698
0.0162417044836
0.0163272655685
0.0164053142044
0.0164753983367
0.0165371312487
0.016590204719
0.016634387247
0.0166695345457
0.0166955859437
0.0167125710066
0.0167206033137
0.0167198831054
0.0167106888085
0.0166933767147
0.0166683713796
0.0166361636323
0.0165973005526
0.0165523807698
0.0165020311267
0.0164467992933
0.0163866018314
0.0163205836753
0.0162480083161
0.0161683474784
0.016081218407
0.015986345068
0.0158835330247
0.0157726621333
0.0156536787313
0.0155265969697
0.0153914941114
0.0152485125468
0.015097853951
0.0149397798828
0.0147746039408
0.0146026906863
0.0144244459394
0.0142403142865
0.0140507680597
0.0138563040559
0.0136574321272
0.0134546720357
0.0132485427426
0.0130395602927
0.0128282286735
0.0126150392848
0.012400463815
0.0121849554022
0.0119689434582
0.0117528360155
0.0115370155121
0.0113218403203
0.0111076377941
0.0108947486261
0.0106835418272
0.0104743784501
0.0102676171582
0.010063623256
0.00986277209334
0.00966545567433
0.00947208382063
0.00928308738269
0.00909891577715
0.00892003539107
0.00874692231414
0.00858005537235
0.00841990436936
0.00826691925155
0.0081215165548
0.00798406848478
0.00785489193168
0.00773424184239
0.00762230645878
0.00751920746068
0.00742500241332
0.00733969123542
0.00726322403125
0.00719551074894
0.00713642965093
0.0070858334258
0.00704354922054
0.00700937033206
0.00698303699157
0.00696420728271
0.00695242397221
0.00694710480809
0.0136462071098
0.013648204764
0.0136521177689
0.0136578535919
0.0136652920445
0.013674284427
0.0136846485784
0.0136961667744
0.013708580176
0.0137215886603
0.0137348475666
0.0137479718004
0.0137605377917
0.0137720951851
0.0137821777083
0.0137903260418
0.0137961105391
0.0137991667904
0.0137992293089
0.0137961757213
0.013790063306
0.0137811694352
0.0137700145401
0.0137573796024
0.0137442957679
0.0137320216589
0.0137219886798
0.0137157367675
0.0137148259352
0.0137207528417
0.0137348604224
0.0137582714364
0.0137918305587
0.0138360812352
0.0138912545129
0.0139572899086
0.0140338599047
0.0141204155831
0.0142162241709
0.0143204176068
0.0144320254791
0.0145500149573
0.0146732682155
0.0148006447967
0.0149310076257
0.0150632400876
0.0151962482747
0.0153289718483
0.0154603822056
0.0155894906374
0.0157153457713
0.0158370416341
0.0159537163508
0.0160645613426
0.0161688219814
0.0162658080354
0.0163548959659
0.0164355398543
0.0165072742235
0.0165697240115
0.0166226062598
0.016665737401
0.016699032123
0.0167225065652
0.0167362733124
0.0167405399781
0.0167356000993
0.0167218269106
0.0166996590345
0.0166695861894
0.0166321218722
0.0165877654703
0.016536934344
0.0164798600356
0.0164165043312
0.0163465267929
0.0162694804359
0.0161849431004
0.0160925503276
0.0159920066939
0.0158830859586
0.0157656336696
0.0156395659283
0.0155048720622
0.0153616129917
0.0152099228566
0.0150500057148
0.0148821352345
0.0147066492465
0.0145239472986
0.0143344830831
0.0141387600389
0.0139373220898
0.013730747933
0.0135196409891
0.0133046233848
0.0130863262178
0.0128653842428
0.0126424273725
0.0124180767679
0.0121929381217
0.0119675994723
0.0117426264598
0.0115185619098
0.0112959231292
0.0110752035827
0.0108568736048
0.0106413810714
0.0104291645015
0.0102206443181
0.010016223746
0.00981629223473
0.00962122617444
0.00943139080877
0.00924713885066
0.00906880933683
0.00889672292208
0.00873117700727
0.00857243791502
0.00842073376924
0.00827624656286
0.00813910737393
0.00800939401601
0.00788713443492
0.00777231447024
0.0076648911373
0.00756480825284
0.00747201335022
0.00738647205944
0.00730817890632
0.00723716244432
0.00717348536001
0.00711723929724
0.00706853520286
0.00702748810076
0.00699419463809
0.0069686997076
0.00695094673805
0.00694070016447
0.00693740616858
0.0136613831691
0.0136634553534
0.013667578963
0.0136736798874
0.0136816450168
0.0136913222816
0.0137025169961
0.0137149902299
0.0137284546012
0.0137425742066
0.0137569628228
0.0137711885497
0.0137847780712
0.0137972298573
0.0138080284598
0.0138166697561
0.0138226876114
0.0138256916565
0.0138254040481
0.0138217041268
0.0138146656363
0.0138045946906
0.013792050489
0.0137778577489
0.0137630925124
0.0137490541276
0.0137372080874
0.013729119142
0.0137263640452
0.0137304492929
0.0137427251411
0.0137643221441
0.0137960977992
0.01383861497
0.0138921327758
0.0139566261411
0.0140318097951
0.0141171808418
0.0142120551608
0.0143156132852
0.0144269333779
0.0145450297572
0.0146687976409
0.0147970778721
0.0149287161712
0.0150625777495
0.0151975496937
0.0153325504275
0.0154665289108
0.0155984719478
0.0157274028704
0.0158523887978
0.0159725404418
0.0160870203763
0.0161950445764
0.0162958918227
0.0163889067054
0.0164735094965
0.0165491996097
0.0166155646323
0.0166722826801
0.0167191288981
0.0167559749503
0.0167827913509
0.0167996425884
0.0168066840303
0.0168041514341
0.0167923509481
0.0167716406203
0.0167424096295
0.0167050459473
0.0166598980279
0.0166072247792
0.0165471479742
0.0164796539511
0.0164046462146
0.0163218915314
0.016231130601
0.0161321136309
0.0160246255319
0.0159084996475
0.0157836291042
0.0156499716898
0.0155075552959
0.0153564784145
0.0151969121046
0.0150290974437
0.0148533448028
0.0146700287631
0.0144795850588
0.0142825033045
0.0140793220073
0.0138706196847
0.0136570086868
0.0134391256419
0.0132176250914
0.0129931703106
0.0127664277
0.0125380588242
0.0123087162133
0.0120790371389
0.0118496411675
0.0116211259325
0.0113940666236
0.0111690140008
0.0109464962252
0.0107270198891
0.010511062446
0.0102990705933
0.0100914705211
0.00988866753106
0.00969104764916
0.00949897696574
0.00931280182136
0.00913284612337
0.00895940868756
0.00879275754175
0.00863312410018
0.00848069510466
0.00833560560351
0.00819793202134
0.00806768890821
0.0079448290634
0.00782924997492
0.00772080551998
0.00761932382542
0.0075246284734
0.00743656184784
0.00735500702401
0.00727990678989
0.00721127751851
0.00714921790583
0.00709391203428
0.00704562720381
0.00700470528971
0.00697154507067
0.0069465694166
0.00693016644342
0.00692258227982
0.00692373601636
0.0136844011649
0.0136868178291
0.0136916254124
0.0136987517806
0.0137080772827
0.0137194352011
0.0137326088057
0.0137473303662
0.0137632778143
0.0137800757697
0.0137972954798
0.0138144614661
0.0138310586848
0.0138465487767
0.0138603879311
0.0138720552507
0.0138810822155
0.0138870917824
0.0138898351421
0.0138892339702
0.0138854134118
0.0138787333834
0.0138698015409
0.0138594769506
0.0138488482049
0.0138391991625
0.0138319491127
0.0138285865411
0.0138305869788
0.0138393386785
0.0138560672235
0.0138817827019
0.0139172364877
0.0139629070222
0.0140189956121
0.0140854473266
0.0141619742152
0.0142480946773
0.0143431660626
0.0144464258451
0.0145570204422
0.0146740392581
0.0147964685107
0.0149231968748
0.0150531192293
0.0151851497577
0.0153182235281
0.0154513049932
0.01558338694
0.0157134972395
0.0158406974464
0.015964089515
0.0160828153695
0.0161960644445
0.0163030747275
0.0164031412317
0.0164956182943
0.0165799284364
0.0166555650774
0.0167221006811
0.0167791885365
0.0168265686836
0.0168640671082
0.0168915977788
0.0169091575556
0.0169168227058
0.0169147378239
0.0169031050558
0.0168821650335
0.016852176891
0.0168133901528
0.0167660175237
0.0167102059513
0.0166460192681
0.0165734329574
0.0164924644454
0.0164030530561
0.0163050890229
0.0161984616691
0.0160830798591
0.0159588858264
0.0158258685241
0.0156840705688
0.015533595339
0.0153746085785
0.0152073410129
0.0150320861734
0.0148491998076
0.0146590949158
0.0144622387191
0.0142591455776
0.0140503721745
0.0138365090764
0.0136181749764
0.013396007841
0.0131706591518
0.0129427855587
0.0127130439202
0.0124820841587
0.0122505456311
0.0120190516057
0.011788207244
0.0115585959118
0.0113307789086
0.0111052937429
0.0108826557193
0.0106633582546
0.0104478653398
0.0102366023338
0.0100299739595
0.00982836394938
0.00963213633665
0.00944163456958
0.00925718141672
0.00907907625437
0.00890759244634
0.0087429719701
0.00858541996949
0.00843509721111
0.00829211338308
0.00815652021426
0.00802830762531
0.00790740256768
0.00779367339525
0.00768693912882
0.00758698506514
0.00749358293171
0.00740651534953
0.00732560199583
0.00725072658226
0.00718186258682
0.00711909754887
0.0070626551851
0.00701291569392
0.00697043324581
0.00693594821497
0.0069103873364
0.00689483897931
0.00689047876844
0.00689839883291
0.0137200790442
0.0137230476932
0.0137289488344
0.0137376980812
0.013749157413
0.0137631345669
0.0137793800338
0.0137975869179
0.0138173887495
0.0138383622048
0.0138600292517
0.0138818668188
0.0139033173255
0.0139238087511
0.0139427761296
0.0139596930322
0.0139741028974
0.013985658307
0.0139941556381
0.0139995727729
0.0140020950863
0.0140021377945
0.0140003488566
0.0139976026823
0.013994969861
0.0139936774504
0.0139950478341
0.0140004357661
0.0140111540225
0.0140284102976
0.0140532450646
0.0140864920355
0.0141287467298
0.0141803610737
0.0142414445879
0.0143118870327
0.0143913804344
0.0144794549122
0.0145755064761
0.014678832694
0.0147886561244
0.0149041532699
0.0150244455366
0.0151485004177
0.0152752933393
0.0154038189118
0.015533091402
0.0156621523843
0.0157900691821
0.0159159411108
0.0160388976777
0.0161581047534
0.0162727635541
0.0163821173944
0.0164854518294
0.0165821020599
0.0166714540515
0.0167529521602
0.0168261005597
0.0168904702142
0.0169456995311
0.016991499454
0.0170276519506
0.0170540117787
0.0170705012697
0.0170771072581
0.0170738706525
0.0170608772264
0.0170382410606
0.0170060893391
0.0169645418054
0.0169136951831
0.0168536085558
0.0167843003219
0.016705749514
0.0166179375951
0.0165209891287
0.0164149212587
0.0162997603976
0.0161755526909
0.016042372088
0.0159003301225
0.0157495808952
0.01559032745
0.0154228230389
0.0152473738681
0.0150643370283
0.0148741202313
0.0146771771247
0.0144740047216
0.0142651368162
0.0140511398539
0.0138326052767
0.0136101446926
0.0133843820361
0.0131559488619
0.0129254770823
0.0126935950198
0.012460921254
0.0122280618322
0.0119956055346
0.0117641224447
0.0115341607749
0.0113062468647
0.0110808835891
0.010858551719
0.010639709706
0.0104247872461
0.0102141736261
0.0100082384502
0.00980733160949
0.00961178477143
0.0094219107963
0.00923800400259
0.00906033803701
0.0088891639657
0.00872470580216
0.00856715596223
0.00841666852766
0.00827335292853
0.00813726678265
0.00800841074467
0.00788672487758
0.00777208936504
0.00766432930295
0.00756322568284
0.00746853180486
0.00737999603536
0.00729738948934
0.00722053874798
0.00714936239228
0.00708391196596
0.00702441780192
0.00697134218556
0.00692544265707
0.00688784931511
0.00686015903576
0.00684454843554
0.00684390479581
0.00686195882631
0.0137700303419
0.0137737592742
0.013781167283
0.0137921479582
0.0138065329151
0.0138240909263
0.0138445254019
0.0138674755047
0.0138925154968
0.0139191599451
0.0139468687748
0.01397506058
0.0140031271737
0.0140304578643
0.0140564646194
0.0140806163574
0.0141024713395
0.0141217154774
0.0141381933834
0.0141519399858
0.0141631980051
0.0141724302472
0.0141803118075
0.0141877139371
0.01419566611
0.0142053122418
0.014217849867
0.014234472228
0.0142563031499
0.0142843462363
0.0143194364271
0.0143622138346
0.0144131037578
0.0144723197432
0.0145398697162
0.0146155801625
0.0146991167725
0.0147900167432
0.014887711693
0.014991557805
0.0151008536354
0.0152148637939
0.0153328679228
0.0154539264074
0.0155771085475
0.0157015021855
0.0158262133943
0.015950373492
0.0160731369193
0.0161936869464
0.0163112333258
0.016425017867
0.0165343127003
0.0166384262052
0.0167367021365
0.0168285259241
0.0169133244909
0.0169905725768
0.0170597927318
0.0171205610101
0.0171725063262
0.0172153146153
0.0172487265221
0.0172725389653
0.0172866000363
0.0172908069231
0.0172850970811
0.0172694419696
0.0172438346055
0.0172082805189
0.0171627849975
0.0171073470522
0.0170419540724
0.0169665861023
0.0168812203804
0.0167858404461
0.0166805456254
0.0165655622526
0.0164410382195
0.0163071522063
0.0161641125239
0.016012161542
0.0158515761432
0.0156826714497
0.0155058002756
0.0153213550564
0.0151297652962
0.0149314973799
0.0147270501019
0.0145169526791
0.014301758839
0.014082043633
0.0138583967954
0.0136314190951
0.0134017156978
0.0131698927125
0.0129365511377
0.0127022840665
0.0124676715965
0.0122332789702
0.0119996526576
0.0117673195658
0.0115367843806
0.0113085298727
0.0110830154761
0.010860678579
0.0106419340835
0.0104271691461
0.0102167301898
0.0100109454457
0.0098101252769
0.00961456400702
0.00942453979765
0.00924031546207
0.0090621370706
0.00889023288361
0.00872480984321
0.00856604994307
0.00841410424173
0.0082690868433
0.00813106735795
0.00800006439117
0.00787603943331
0.00775889392679
0.00764846951335
0.00754455407023
0.00744689358008
0.00735521172074
0.00726923687126
0.00718873781644
0.00711356828702
0.00704372276671
0.00697940695682
0.00692113067148
0.0068698357064
0.00682708025115
0.00679531408126
0.0067783007581
0.00678178294757
0.00681455780422
0.0138356643614
0.0138403655924
0.0138497003137
0.0138635310372
0.0138816462424
0.0139037603139
0.0139295121568
0.0139584682734
0.0139901245955
0.0140239148067
0.0140592191337
0.0140953821681
0.0141317319722
0.0141676089237
0.0142023945616
0.0142355482851
0.0142666400543
0.0142953866796
0.0143216780892
0.0143456017388
0.0143674507259
0.0143877256525
0.0144071162926
0.0144264763817
0.014446779196
0.0144690711449
0.0144944125964
0.0145238260466
0.0145582406485
0.0145984535765
0.0146450945542
0.0146986120599
0.0147592636345
0.0148271264665
0.0149021077812
0.0149839703165
0.0150723516247
0.015166793212
0.0152667589863
0.0153716602815
0.0154808678747
0.0155937285268
0.0157096721251
0.0158278797474
0.0159475185618
0.0160677715171
0.0161878385031
0.0163069430713
0.0164243295538
0.0165392680557
0.0166510513576
0.0167589998081
0.0168624587718
0.0169608037384
0.0170534384194
0.0171398000104
0.0172193577538
0.0172916180692
0.0173561231904
0.0174124557037
0.0174602367057
0.0174991291682
0.0175288349676
0.0175490964602
0.0175596917725
0.0175604341228
0.0175511650918
0.0175317518593
0.0175020792679
0.0174620468685
0.0174115629722
0.0173505460025
0.0172789253356
0.0171966500334
0.0171036950942
0.0170000701883
0.0168858212828
0.0167612101181
0.0166265935688
0.0164822683687
0.016328569151
0.0161658653563
0.0159945570031
0.0158150745773
0.0156278757811
0.0154334457284
0.015232293175
0.015024949893
0.014811966084
0.0145939088166
0.0143713567134
0.0141448977217
0.0139151235059
0.0136826270353
0.0134479971733
0.0132118165181
0.0129746565646
0.0127370760903
0.0124996171234
0.0122628040398
0.0120271404617
0.0117931091428
0.0115611698473
0.0113317600348
0.0111052936974
0.0108821627616
0.0106627366885
0.0104473588067
0.0102363303322
0.0100299359696
0.0098284445509
0.00963211119792
0.00944117764843
0.00925587359295
0.00907641593615
0.00890300844501
0.00873583901717
0.00857507675026
0.00842086648902
0.00827332295475
0.00813252280443
0.00799849693455
0.00787122228191
0.00775061582549
0.00763653092377
0.00752875887638
0.00742703627594
0.00733106072536
0.00724051553097
0.00715510580666
0.00707460774963
0.0069989360709
0.00692823748203
0.00686302651877
0.00680439284784
0.00675433434067
0.00671631458923
0.00669622752671
0.00670411608477
0.00675732999816
0.0139177743824
0.0139236659379
0.0139353584226
0.0139526733619
0.0139753419651
0.0140030063984
0.0140352206705
0.0140714565643
0.0141111087201
0.0141535072399
0.0141979312113
0.0142436317799
0.0142898565817
0.014335883489
0.0143810531115
0.0144248074958
0.0144667223683
0.0145065404457
0.0145441919047
0.014579810753
0.0146137330793
0.0146464884835
0.0146787717021
0.0147114092877
0.0147453099021
0.0147814165305
0.0148206498975
0.0148638632111
0.0149117961773
0.0149650478271
0.0150240528123
0.0150890786355
0.0151602249087
0.0152374404546
0.0153205372915
0.0154092172444
0.015503090085
0.0156017000962
0.0157045409087
0.0158110768767
0.015920752075
0.0160330065816
0.0161472834764
0.0162630362131
0.0163795063795
0.0164959620638
0.0166116918411
0.0167260081882
0.0168382426459
0.0169477496223
0.0170539022701
0.0171560966044
0.0172537480625
0.017346295836
0.0174331999843
0.0175139458031
0.0175880412748
0.0176550212314
0.0177144448538
0.0177658993406
0.0178089971317
0.0178433787921
0.0178687096657
0.0178846817732
0.0178910097585
0.0178874318622
0.017873705431
0.0178496076431
0.0178149317442
0.0177694893932
0.0177131101367
0.0176456482636
0.0175669877987
0.0174770540861
0.0173758208697
0.0172633192833
0.0171396370229
0.0170049186848
0.0168595981267
0.0167041876629
0.0165391328544
0.0163649201362
0.0161820653574
0.0159911106568
0.015792618022
0.0155871673303
0.0153753506606
0.0151577706888
0.014935035534
0.0147077572862
0.014476547019
0.0142420133254
0.0140047575661
0.0137653725668
0.0135244382989
0.0132825209214
0.0130401690548
0.0127979132849
0.0125562631227
0.0123157070304
0.0120767101121
0.0118397146921
0.0116051387529
0.0113733770707
0.0111448003957
0.0109197571199
0.0106985731288
0.0104815508787
0.0102689466739
0.0100610019133
0.00985794395169
0.0096599885409
0.00946734053613
0.00928019566194
0.00909874027201
0.00892315150622
0.00875359507827
0.00859022277867
0.00843316731409
0.00828253643963
0.00813840462447
0.00800080439683
0.00786971652155
0.00774506161419
0.00762669334686
0.00751439623051
0.00740788880829
0.00730683525451
0.0072108666608
0.0071196154523
0.00703276634571
0.00695013172263
0.00687176481136
0.00679813795236
0.00673043792687
0.00667108131794
0.00662465411114
0.00659968896739
0.00661213472221
0.00669233296111
0.0140166290493
0.0140239376473
0.0140384354892
0.0140598919323
0.0140879647891
0.0141222038804
0.0141620549497
0.0142068695226
0.0142559146355
0.0143083906645
0.014363450727
0.0144202301441
0.0144778768457
0.0145355904265
0.0145926582753
0.014648495822
0.0147026775611
0.014754966443
0.01480532762
0.0148539360794
0.0149011646869
0.0149475653295
0.0149938310725
0.0150407556767
0.0150891796635
0.0151399421443
0.0151938274425
0.0152515265625
0.0153136002355
0.0153804623008
0.0154523664896
0.0155294133492
0.0156115571936
0.0156986288105
0.0157903524581
0.0158863734641
0.0159862753054
0.0160896039205
0.0161958791648
0.016304612432
0.0164153113025
0.0165274908883
0.0166406733031
0.0167545222218
0.0168683634319
0.016981550564
0.0170934578108
0.0172034821341
0.0173110371857
0.0174155561907
0.0175164868332
0.0176132946358
0.0177054586369
0.0177924750385
0.0178738534326
0.0179491204728
0.0180178164147
0.0180794986053
0.0181337381408
0.0181801230302
0.0182182548378
0.0182477514743
0.0182682438191
0.0182793782688
0.0182808135663
0.0182722235467
0.0182532947972
0.0182237305385
0.0181832503361
0.0181315966784
0.0180685384292
0.0179938815693
0.0179074768358
0.0178092331175
0.0176991249948
0.0175772018361
0.0174435873165
0.0172984771307
0.0171421299072
0.0169751233076
0.0167981508814
0.0166117998828
0.0164166911623
0.0162134685579
0.0160027925928
0.0157853355945
0.0155617736303
0.015332783462
0.0150990364011
0.0148611965438
0.0146199157381
0.0143758325595
0.0141295680979
0.0138817254896
0.0136328864264
0.0133836111812
0.013134435791
0.0128858725264
0.0126384077048
0.0123925025636
0.0121485916729
0.0119070841907
0.0116683628591
0.0114327856327
0.0112006852498
0.0109723712481
0.010748130183
0.0105282296685
0.010312883283
0.0101022909523
0.00989663986417
0.00969610716304
0.00950086100155
0.00931106265266
0.00912686661572
0.00894842108694
0.00877586603346
0.00860933090057
0.00844892954688
0.00829475427481
0.00814686713411
0.00800529052816
0.00786999619086
0.00774089502434
0.007617827894
0.00750056033288
0.00738878206929
0.00728211457497
0.00718012835664
0.00708237423594
0.00698843352667
0.00689799785519
0.00681099783888
0.00672782025476
0.00664969304577
0.00657940389495
0.00652270493786
0.00649117484374
0.00650826021966
0.00662238306485
0.0141320072079
0.014140972026
0.0141587467247
0.0141850358288
0.0142194056141
0.0142612905212
0.0143100014882
0.0143647409587
0.0144246183293
0.0144886746122
0.0145559090438
0.0146253159244
0.0146959219574
0.0147668310107
0.0148372638235
0.0149065993345
0.0149744036652
0.0150404546421
0.0151047478935
0.0151674950766
0.0152291014035
0.0152901366489
0.0153512883654
0.0154133150696
0.0154769889535
0.0155430480951
0.0156121466776
0.0156848231585
0.0157614718005
0.0158423357154
0.0159275029634
0.0160169220046
0.0161104152656
0.0162077066901
0.0163084412604
0.0164122134659
0.0165185834118
0.016627099188
0.0167373052696
0.0168487567417
0.0169610198552
0.017073679039
0.0171863312296
0.017298843832
0.017410635122
0.0175211430843
0.0176298224239
0.0177361479521
0.0178396081552
0.0179397074497
0.0180359601098
0.0181278929505
0.0182150401491
0.0182969463263
0.0183731620186
0.0184432468755
0.0185067655294
0.0185632907316
0.0186123994907
0.0186536761158
0.0186867086397
0.0187110919056
0.0187264244773
0.0187323121258
0.018728365684
0.0187142055814
0.0186894614248
0.0186537785601
0.0186068204541
0.0185482784201
0.0184778777233
0.0183953908542
0.0183006466193
0.0181935445493
0.0180740625291
0.0179422662054
0.0177983084417
0.0176424284832
0.017474940123
0.0172962229207
0.0171069229902
0.0169079612964
0.0167000472635
0.0164839111661
0.0162603011249
0.0160299757821
0.015793692308
0.0155522016525
0.0153062412396
0.0150565325542
0.0148037757108
0.0145486485086
0.0142918023689
0.014033862344
0.0137754241007
0.0135170546252
0.0132592900258
0.013002636734
0.0127475699602
0.0124945352598
0.0122439475409
0.0119961929268
0.011751628265
0.0115105832521
0.0112733604012
0.0110402373747
0.0108114673498
0.0105872908768
0.0103678837099
0.0101534075929
0.009944011728
0.00973983600105
0.00954101243499
0.00934766759595
0.00915992292263
0.00897789535958
0.00880169554698
0.0086314255752
0.00846717389153
0.00830900918191
0.00815697137215
0.00801106170101
0.00787123085781
0.00773736755839
0.00760928754968
0.00748672588389
0.00736933333057
0.00725668017099
0.00714826934737
0.00704356379656
0.00694203412399
0.00684323995744
0.00674696979874
0.00665349162649
0.00656402329516
0.00648166149084
0.00641330862703
0.00637386122504
0.00639568828374
0.00655062112543
0.0142632525798
0.0142741299156
0.0142956862309
0.0143275468052
0.0143691655808
0.0144198356376
0.0144787029152
0.0145447878064
0.0146170081827
0.014694212205
0.0147752136903
0.0148588378284
0.0149439662967
0.0150295882356
0.0151148434848
0.0151990644446
0.0152818021334
0.0153628447945
0.0154422153531
0.0155201595092
0.0155971123802
0.0156736594531
0.0157504812816
0.0158283010316
0.0159078245487
0.0159896935512
0.0160744397121
0.016162459442
0.0162539933944
0.0163491283944
0.0164478018631
0.016549824835
0.0166549012555
0.0167626597514
0.0168726752727
0.0169844983268
0.0170976701946
0.0172117436596
0.0173262887685
0.0174409042695
0.0175552148252
0.0176688745652
0.0177815563053
0.0178932044462
0.0180034705135
0.0181118606702
0.0182178972675
0.0183211223062
0.0184210894792
0.0185173651076
0.0186095207564
0.0186971351277
0.0187797880269
0.0188570630011
0.0189285422088
0.0189938093837
0.0190524452821
0.0191040307846
0.0191481428253
0.0191843576719
0.0192122474498
0.0192313838534
0.0192413355921
0.019241673011
0.0192319670209
0.0192117953407
0.0191807436888
0.0191384145149
0.0190844312726
0.0190184503293
0.0189401686125
0.0188493383304
0.0187457765665
0.0186293800404
0.018500132445
0.0183581139878
0.0182035010683
0.0180365662249
0.0178576681175
0.0176672420146
0.0174657832156
0.0172538994113
0.0170328188957
0.0168033083009
0.0165661932829
0.0163223116271
0.0160724952635
0.0158175660635
0.0155583274184
0.0152955609877
0.0150300206001
0.014762431051
0.0144934838081
0.0142238371168
0.0139541130746
0.0136848986652
0.0134167438416
0.0131501631628
0.0128856346158
0.0126236016516
0.0123644725915
0.0121086229593
0.0118563954016
0.0116081022885
0.011364026135
0.0111244224394
0.0108895203666
0.0106595321646
0.0104346143046
0.0102148932849
0.0100004826809
0.00979148688352
0.00958800278428
0.00939012233099
0.00919793296083
0.00901151829694
0.00883095635723
0.00865631728027
0.00848765815671
0.00832501677601
0.00816840241721
0.008017785587
0.00787308563112
0.00773415848158
0.00760078440081
0.00747265841392
0.00734938417763
0.00723047447628
0.00711536042062
0.00700341456713
0.00689399507165
0.00678652640111
0.00668064644121
0.00657648424858
0.00647520752366
0.00638015737418
0.00629932662599
0.00625106491536
0.00627782554546
0.00648001507348
0.0144093202412
0.0144223891521
0.0144482760753
0.0144865106073
0.0145364107585
0.0145970982711
0.0146675195373
0.0147464754176
0.0148326533467
0.0149246704795
0.0150211196427
0.0151206253105
0.0152218977687
0.0153237908176
0.0154253484497
0.0155258466195
0.0156248153252
0.0157220501111
0.0158175997346
0.0159117432708
0.0160049453856
0.0160978071987
0.0161910027676
0.0162852215556
0.0163811064446
0.0164792084138
0.0165799447023
0.0166835801403
0.016790214213
0.0168997912493
0.0170121123785
0.0171268653384
0.0172436487843
0.0173620077555
0.0174814570706
0.0176015111875
0.0177216985257
0.0178415807397
0.0179607561493
0.0180788690064
0.0181956046052
0.018310692531
0.0184238996636
0.0185350378848
0.0186442155758
0.0187509739647
0.0188548869565
0.018955552667
0.0190525801739
0.019145588076
0.0192341955188
0.0193180233049
0.0193966870833
0.0194697997138
0.0195369657157
0.019597784247
0.0196518443707
0.0196987284174
0.0197380079724
0.019769247692
0.0197920021727
0.019805820527
0.0198102445119
0.0198048143776
0.0197890688225
0.0197625527838
0.0197248198911
0.0196754428716
0.0196140190265
0.0195401835355
0.0194536177712
0.0193540646534
0.0192413380389
0.0191153373254
0.0189760541287
0.0188235817221
0.0186581146334
0.0184799494271
0.018289475276
0.0180871660704
0.017873564081
0.0176492676912
0.0174149024867
0.0171717506524
0.0169207562861
0.0166628312998
0.0163988715488
0.016129761592
0.0158563675175
0.0155795309075
0.0153000619823
0.0150187379348
0.0147362980265
0.0144534434584
0.0141708341746
0.013889089885
0.0136087880798
0.0133304657822
0.0130546184214
0.0127817020633
0.0125121329561
0.0122462901193
0.0119845154833
0.0117271168192
0.011474368498
0.0112265148497
0.0109837716744
0.0107463303945
0.0105143435367
0.0102879066214
0.010067101499
0.00985200002556
0.00964266583333
0.00943915700118
0.00924152656835
0.00904982328
0.00886408979944
0.00868436040751
0.00851065578233
0.00834297668033
0.00818129463968
0.00802554158228
0.00787559717959
0.00773127614419
0.00759231517241
0.00745836206704
0.00732896763097
0.00720358340882
0.00708156735052
0.00696220283622
0.00684473886249
0.0067284686369
0.00661288067797
0.00649795751403
0.00638478987146
0.00627690450767
0.00618329917424
0.00612579742637
0.00615780415293
0.00641297927274
0.0145688084636
0.0145843771385
0.0146152005948
0.0146606938565
0.0147200116079
0.0147920699255
0.0148755757208
0.0149690667565
0.015070955351
0.0151795837866
0.0152932830534
0.0154104411804
0.0155295676474
0.0156493584931
0.0157687463116
0.0158869411271
0.0160034472436
0.0161180661921
0.0162308732329
0.0163421824128
0.0164524898197
0.0165624141893
0.0166726253684
0.0167837821742
0.0168964688701
0.0170111517975
0.0171281418505
0.0172475823581
0.0173694434142
0.0174935398644
0.0176195501751
0.0177470524203
0.0178755530039
0.0180045253613
0.018133434738
0.0182617684607
0.0183890492033
0.0185148526965
0.0186388085928
0.0187606070057
0.0188799899767
0.0189967503666
0.0191107172228
0.0192217481129
0.0193302081185
0.0194357217785
0.0195379260243
0.0196364730881
0.0197310203948
0.0198212299633
0.0199067590201
0.0199872608311
0.0200623773666
0.020131741628
0.0201949718726
0.0202516748493
0.0203014410974
0.0203438488174
0.0203784601209
0.0204048256012
0.0204224816986
0.0204309562792
0.0204297674865
0.0204184308119
0.0203964599383
0.0203633758665
0.0203187102659
0.0202620171057
0.0201928787571
0.0201109200821
0.0200158167688
0.0199073107528
0.0197852189148
0.0196494471881
0.0194999963159
0.0193369709983
0.0191605792392
0.0189711337866
0.0187690435568
0.0185548073201
0.0183289987067
0.0180922555292
0.0178452598102
0.017588732049
0.0173236658534
0.0170514266709
0.0167729303864
0.0164891128227
0.0162008997887
0.0159091892021
0.0156148475674
0.0153187071032
0.0150215600201
0.0147241579667
0.0144272082148
0.0141313743838
0.0138372740755
0.0135454804353
0.013256520764
0.0129708786482
0.012688993354
0.0124112624075
0.0121380416978
0.0118696485038
0.0116063623566
0.0113484286552
0.0110960604946
0.0108494431194
0.0106087387263
0.0103740189097
0.0101453393743
0.00992274371302
0.00970626526402
0.00949592991881
0.0092917567557
0.00909375888427
0.00890194171174
0.0087163006809
0.00853681607919
0.00836344676726
0.00819612094537
0.00803472582146
0.00787909499044
0.00772899559933
0.00758411488994