/*--------------------------------*- C++ -*----------------------------------*\
| =========                 |                                                 |
| \\      /  F ield         | OpenFOAM: The Open Source CFD Toolbox           |
|  \\    /   O peration     | Version:  2206                                  |
|   \\  /    A nd           | Website:  www.openfoam.com                      |
|    \\/     M anipulation  |                                                 |
\*---------------------------------------------------------------------------*/
FoamFile
{
    version     2.0;
    format      ascii;
    arch        "LSB;label=64;scalar=64";
    class       volVectorField;
    location    "4.8/water";
    object      U.gas;
}
// * * * * * * * * * * * * * * * * * * * * * * * * * * * * * * * * * * * * * //

dimensions      [0 1 -1 0 0 0 0];

internalField   nonuniform List<vector> 
23300
(
(-0.00174823801579 0.135984770203 0)
(-0.00162003080884 0.135977917757 0)
(0.000288815481845 0.135944607235 0)
(0.000340251147651 0.13590305863 0)
(0.000362450184777 0.135855035273 0)
(0.000344345980294 0.13579955453 0)
(0.0002762179962 0.135739078664 0)
(0.000151566521891 0.135673291731 0)
(-3.40192473242e-05 0.135605517035 0)
(-0.000283563370481 0.135535574862 0)
(-0.000598454672038 0.135467316401 0)
(-0.000978373588 0.135400649366 0)
(-0.00142148675529 0.13533962768 0)
(-0.00192420944513 0.135284041033 0)
(-0.00248173413693 0.135237783005 0)
(-0.00308788144338 0.13520019871 0)
(-0.00373580773429 0.135174684458 0)
(-0.00441793398517 0.135159860849 0)
(-0.00512666079587 0.135158423604 0)
(-0.00585429935026 0.13516814687 0)
(-0.00659365746077 0.135191012933 0)
(-0.00733790905824 0.135224020166 0)
(-0.00808099030502 0.13526860162 0)
(-0.00881738913364 0.135321207124 0)
(-0.00954235181773 0.135382991385 0)
(-0.0102516181812 0.135450150592 0)
(-0.010941483584 0.135523846391 0)
(-0.0116085280428 0.135600298245 0)
(-0.0122495960835 0.135680898477 0)
(-0.0128615797977 0.135762084987 0)
(-0.013441386851 0.135845604144 0)
(-0.0139858263955 0.13592820888 0)
(-0.0144916130034 0.136012021759 0)
(-0.0149553711346 0.136094117421 0)
(-0.0153736851527 0.136176939338 0)
(-0.0157431932333 0.136257832637 0)
(-0.0160606557834 0.136339461296 0)
(-0.0163230866401 0.136419360015 0)
(-0.0165278030859 0.136500298853 0)
(-0.0166725271114 0.136579920276 0)
(-0.0167550896846 0.136660980591 0)
(-0.0167737868465 0.136741132584 0)
(-0.0167279218261 0.13682301989 0)
(-0.0166174297624 0.136904292842 0)
(-0.0164424693816 0.13698745014 0)
(-0.0162036143938 0.137070080223 0)
(-0.0159019170076 0.137154456873 0)
(-0.0155389146822 0.137238080398 0)
(-0.0151165773934 0.137322969783 0)
(-0.0146372879126 0.137406530068 0)
(-0.0141037949661 0.137490508279 0)
(-0.0135191845997 0.13757220808 0)
(-0.0128868414275 0.137653091723 0)
(-0.0122104177207 0.137730354011 0)
(-0.0114938028387 0.137805167128 0)
(-0.0107410980907 0.137874616223 0)
(-0.00995659479873 0.137939593876 0)
(-0.00914476825539 0.137997092477 0)
(-0.00831027000137 0.138047768727 0)
(-0.0074579583796 0.138088582447 0)
(-0.00659291166229 0.138120059809 0)
(-0.00572051312771 0.138139265613 0)
(-0.00484648660329 0.138146804163 0)
(-0.00397703918623 0.138140111427 0)
(-0.00311889787381 0.138120239389 0)
(-0.00227947871187 0.13808546263 0)
(-0.00146684201343 0.138037914498 0)
(-0.000689698505566 0.137977533119 0)
(4.32241232321e-05 0.137908657352 0)
(0.000724763776054 0.137834360691 0)
(0.00135451092908 0.137762981164 0)
(0.00194989814334 0.137702068961 0)
(0.00253309720202 0.13766188607 0)
(0.00310157130348 0.137646709003 0)
(0.00363441950822 0.137660213228 0)
(0.00413101427897 0.137699916919 0)
(0.00462618577137 0.137760568111 0)
(0.00515359904402 0.13783086153 0)
(0.00572326211773 0.13790352411 0)
(0.00633326043434 0.137970849254 0)
(0.00697706787635 0.138029683222 0)
(0.00764689879524 0.138075872009 0)
(0.00833466498675 0.138108982136 0)
(0.00903279163124 0.138127060764 0)
(0.00973411405713 0.13813128348 0)
(0.010432236999 0.138121015417 0)
(0.0111212189946 0.138098326156 0)
(0.0117958210711 0.13806331227 0)
(0.0124511597147 0.138018448612 0)
(0.0130829282748 0.13796415797 0)
(0.0136870743866 0.137902987644 0)
(0.0142600161929 0.137835418039 0)
(0.0147983600921 0.137763857106 0)
(0.0152991127069 0.137688679994 0)
(0.0157594391861 0.137612036735 0)
(0.0161768675538 0.137534114485 0)
(0.0165490838369 0.137456754193 0)
(0.0168741244362 0.137379927084 0)
(0.0171502017948 0.137305158266 0)
(0.0173758813629 0.137232209317 0)
(0.0175499323869 0.137162307327 0)
(0.0176714880365 0.137095026409 0)
(0.017739917815 0.137031322669 0)
(0.0177549718472 0.136970607806 0)
(0.0177166628651 0.136913590607 0)
(0.0176253050033 0.136859543307 0)
(0.0174813975479 0.136809003513 0)
(0.0172857551748 0.136761249242 0)
(0.0170394140852 0.136716680544 0)
(0.0167436688363 0.136674441794 0)
(0.0163999771024 0.136634759572 0)
(0.0160101063223 0.136596756223 0)
(0.0155760560674 0.136560566202 0)
(0.0151001017436 0.136525319517 0)
(0.014584708378 0.136491088865 0)
(0.0140325524108 0.136457047595 0)
(0.0134464296334 0.136423253456 0)
(0.0128292499445 0.136388980182 0)
(0.0121839323771 0.136354344281 0)
(0.0115133694671 0.136318810212 0)
(0.0108203094075 0.136282665961 0)
(0.0101073016531 0.136245701036 0)
(0.0093765942761 0.136208531774 0)
(0.00863011933322 0.136171442267 0)
(0.00786950207136 0.136135542439 0)
(0.00709623272175 0.136101737678 0)
(0.00631197188515 0.136071671185 0)
(0.00551910515487 0.136046759238 0)
(0.00472148183021 0.136028854487 0)
(0.00392534550377 0.136019303776 0)
(0.00314025923195 0.136019334634 0)
(0.00237989888712 0.136029205698 0)
(0.00166246479521 0.136048459401 0)
(0.00101073339373 0.136075356092 0)
(0.000451886532123 0.13610718252 0)
(1.77350210693e-05 0.136140082409 0)
(-0.000254726562585 0.136169455184 0)
(-0.00032868648203 0.136190418635 0)
(-0.00266609013431 0.136195068713 0)
(-0.00251018486416 0.136177848383 0)
(-0.00102989396368 0.247270695362 0)
(-0.00113997436428 0.24728338472 0)
(-0.000267154537562 0.247264646241 0)
(-0.000373015625077 0.247243457606 0)
(-0.000502283716951 0.247222060776 0)
(-0.000657876738047 0.247198542652 0)
(-0.000843770722122 0.247175237346 0)
(-0.00106358390623 0.247150604239 0)
(-0.00131989016211 0.247127918663 0)
(-0.00161445733658 0.247105556642 0)
(-0.00194816352913 0.24708724872 0)
(-0.0023210892129 0.247071278181 0)
(-0.00273253403674 0.247061513265 0)
(-0.00318107431851 0.247055987586 0)
(-0.00366469975393 0.247058350612 0)
(-0.00418084690861 0.247066119885 0)
(-0.00472656854085 0.247082443614 0)
(-0.00529855859396 0.247104111608 0)
(-0.00589329672518 0.247133646809 0)
(-0.00650705895296 0.247167069037 0)
(-0.00713601366775 0.247206357485 0)
(-0.00777621618572 0.247246925571 0)
(-0.00842366167875 0.247290472926 0)
(-0.00907426950841 0.247332130521 0)
(-0.00972390345468 0.247373680836 0)
(-0.0103683532334 0.247410346716 0)
(-0.0110033386036 0.24744433211 0)
(-0.0116244983138 0.247471257389 0)
(-0.0122273946843 0.247493958546 0)
(-0.0128075249913 0.247508604085 0)
(-0.0133603503612 0.247518693365 0)
(-0.0138813438095 0.247520925223 0)
(-0.0143660538205 0.247519338168 0)
(-0.0148101844463 0.247511022477 0)
(-0.0152096844167 0.247500345536 0)
(-0.0155608329589 0.247484608175 0)
(-0.0158603256319 0.247468287028 0)
(-0.016105332862 0.24744873086 0)
(-0.0162935628939 0.247430342829 0)
(-0.016423290282 0.247410404948 0)
(-0.016493224018 0.247393110007 0)
(-0.0165025636526 0.247375632891 0)
(-0.0164512995781 0.247361923652 0)
(-0.016340015644 0.247349015793 0)
(-0.0161697071789 0.247340485093 0)
(-0.0159417356976 0.247333167927 0)
(-0.0156579110441 0.247330293962 0)
(-0.0153203939951 0.247328563992 0)
(-0.0149317217123 0.247330859036 0)
(-0.0144947095572 0.247333769054 0)
(-0.0140124857014 0.24733983673 0)
(-0.0134883882943 0.24734556653 0)
(-0.0129260040118 0.247353178937 0)
(-0.0123290610208 0.247359116015 0)
(-0.011701467467 0.247365300124 0)
(-0.0110472013039 0.24736813978 0)
(-0.0103703427281 0.24736930139 0)
(-0.00967496199368 0.247365207536 0)
(-0.00896514309222 0.247357346385 0)
(-0.00824487260546 0.247342246764 0)
(-0.00751805120474 0.247321361368 0)
(-0.00678838476299 0.247291496984 0)
(-0.00605937692891 0.247254318587 0)
(-0.00533420941383 0.247207209865 0)
(-0.00461567800356 0.247152450044 0)
(-0.00390599684274 0.247088475619 0)
(-0.00320655967296 0.247018784965 0)
(-0.00251746972874 0.246943564556 0)
(-0.00183680273585 0.246868351029 0)
(-0.00115938740776 0.246795893304 0)
(-0.000475271231596 0.246734277385 0)
(0.000229849979808 0.246687869023 0)
(0.000960781331197 0.246662386293 0)
(0.00169969366718 0.246656901837 0)
(0.00241749146543 0.246673454136 0)
(0.0030941689271 0.24671241812 0)
(0.00372980192863 0.246775298833 0)
(0.00433817920766 0.246853649622 0)
(0.00493266717378 0.246941984148 0)
(0.00552162342299 0.247032172935 0)
(0.0061094996118 0.247120994999 0)
(0.00669827187841 0.24720309667 0)
(0.00728826533802 0.24727769843 0)
(0.00787881097278 0.24734165662 0)
(0.00846850242463 0.247395895634 0)
(0.0090554980545 0.247438762403 0)
(0.00963755881782 0.247472228287 0)
(0.010212230048 0.247495555564 0)
(0.0107768119625 0.247511262624 0)
(0.0113285064349 0.247519101542 0)
(0.0118643696611 0.247521778052 0)
(0.0123814467624 0.247519236071 0)
(0.0128767207634 0.247514125152 0)
(0.0133472393413 0.24750638603 0)
(0.0137900627544 0.247498460653 0)
(0.0142023820984 0.247490171924 0)
(0.0145814667792 0.247483672307 0)
(0.0149247728439 0.247478609954 0)
(0.0152298887212 0.247476813897 0)
(0.0154946323353 0.247477738848 0)
(0.0157169951192 0.247482886174 0)
(0.0158952279501 0.247491519982 0)
(0.0160277830603 0.247504825238 0)
(0.0161133889756 0.247521888751 0)
(0.016150998446 0.247543597714 0)
(0.0161399205483 0.247568884023 0)
(0.0160798159979 0.247598396694 0)
(0.0159705074719 0.247631044594 0)
(0.0158118610312 0.247667289266 0)
(0.0156041081414 0.247705877388 0)
(0.0153478284189 0.247747026946 0)
(0.015043946794 0.247789416046 0)
(0.0146936894247 0.247833084838 0)
(0.0142986451351 0.247876661193 0)
(0.0138607354307 0.247920025775 0)
(0.0133822730646 0.247961772132 0)
(0.0128659306871 0.248001641058 0)
(0.0123147855166 0.248038212931 0)
(0.0117322708441 0.248071120566 0)
(0.0111221869997 0.248098977223 0)
(0.0104886121555 0.248121382742 0)
(0.00983585685964 0.248137097454 0)
(0.00916831750297 0.248145858189 0)
(0.00849037520357 0.248146803485 0)
(0.00780622048747 0.248140095738 0)
(0.00711976528673 0.248125567795 0)
(0.006434550013 0.248104095038 0)
(0.00575381633301 0.248076377677 0)
(0.00508065314276 0.248043964744 0)
(0.00441835481319 0.248008089268 0)
(0.0037708448163 0.247970312595 0)
(0.00314322800338 0.247931466184 0)
(0.00254225375401 0.247892072463 0)
(0.00197672956031 0.247851630558 0)
(0.00145775426648 0.247809086164 0)
(0.000999092301922 0.247762678611 0)
(0.000618234110402 0.247710636436 0)
(0.000342436197669 0.247652195823 0)
(-0.00123077098595 0.24758292294 0)
(-0.00134834141679 0.247494145029 0)
(-0.00109467577959 0.226767203044 0)
(-0.00122037233052 0.226800433758 0)
(-0.000301020937352 0.226833862191 0)
(-0.000413302372691 0.226878131572 0)
(-0.000552091087321 0.226935001611 0)
(-0.000720788878485 0.227003501042 0)
(-0.000923182538217 0.227083238202 0)
(-0.00116278429023 0.227172657483 0)
(-0.00144205326744 0.227271348003 0)
(-0.00176251493057 0.227377339791 0)
(-0.00212459533118 0.227490029234 0)
(-0.00252773853161 0.227607038114 0)
(-0.00297048932683 0.227727442908 0)
(-0.00345055903559 0.227848463561 0)
(-0.00396500247985 0.227968818692 0)
(-0.00451031062926 0.22808536781 0)
(-0.00508261291762 0.228196542044 0)
(-0.00567776863589 0.228298960776 0)
(-0.00629154129129 0.228390942336 0)
(-0.00691966049926 0.228469078412 0)
(-0.00755793539898 0.228531843162 0)
(-0.00820227677738 0.228576092505 0)
(-0.00884874680805 0.228600780071 0)
(-0.00949354321828 0.22860335214 0)
(-0.01013299533 0.228583560332 0)
(-0.0107635233066 0.228539722512 0)
(-0.0113816021776 0.228472607902 0)
(-0.0119837140867 0.228381549352 0)
(-0.0125663071242 0.228268374957 0)
(-0.0131257690457 0.228133373573 0)
(-0.0136584153722 0.227979259121 0)
(-0.0141605082933 0.227807022608 0)
(-0.014628293248 0.22761993191 0)
(-0.0150580664652 0.22741931928 0)
(-0.0154462533239 0.227208624842 0)
(-0.0157894967587 0.22698917423 0)
(-0.0160847457482 0.226764263445 0)
(-0.0163293282266 0.226534963794 0)
(-0.0165210242146 0.226304227737 0)
(-0.0166581008703 0.226072747429 0)
(-0.0167390780801 0.225843057633 0)
(-0.0167628265255 0.225615487743 0)
(-0.0167291455855 0.225392240898 0)
(-0.0166386413349 0.225173348536 0)
(-0.0164922249666 0.224960547527 0)
(-0.0162909931128 0.224753499132 0)
(-0.016036462532 0.224553664712 0)
(-0.0157304783024 0.224360526088 0)
(-0.0153752313262 0.224175336365 0)
(-0.0149731631964 0.223997466242 0)
(-0.0145269935432 0.223828019431 0)
(-0.0140396189718 0.223666315894 0)
(-0.0135141438023 0.223513362344 0)
(-0.0129537737507 0.223368477672 0)
(-0.0123618457456 0.223232614207 0)
(-0.011741716349 0.223105129529 0)
(-0.0110967851515 0.222986958688 0)
(-0.0104303797552 0.222877530234 0)
(-0.0097457699163 0.222777793239 0)
(-0.00904605076184 0.222687274067 0)
(-0.00833414407989 0.222606964978 0)
(-0.00761268079665 0.22253651206 0)
(-0.00688398269528 0.222476972978 0)
(-0.00614993277828 0.222428121905 0)
(-0.00541191117082 0.222391077664 0)
(-0.00467061545928 0.222365689465 0)
(-0.00392589333282 0.22235300897 0)
(-0.00317643947439 0.222352669432 0)
(-0.00241946246715 0.222365094659 0)
(-0.00165032891013 0.222388651216 0)
(-0.000862768680136 0.222421298193 0)
(-5.09555854206e-05 0.22245721467 0)
(0.000782445506435 0.222488775752 0)
(0.00161780155866 0.222508894609 0)
(0.00243281693288 0.22251520058 0)
(0.00321670564535 0.222511175059 0)
(0.0039631606596 0.222506849918 0)
(0.00467288577767 0.22250828415 0)
(0.00535340175004 0.222519312368 0)
(0.00601126782839 0.222540794618 0)
(0.00665132805396 0.222573565256 0)
(0.00727682426222 0.222616885824 0)
(0.00788967394701 0.222670754606 0)
(0.00849084734357 0.222734091385 0)
(0.00908053663923 0.222806766323 0)
(0.00965839895755 0.222887736055 0)
(0.0102236061275 0.222976935654 0)
(0.0107750090122 0.223073452712 0)
(0.0113111306966 0.223177324355 0)
(0.0118302986122 0.223287775356 0)
(0.012330616385 0.223404930517 0)
(0.012810083947 0.223528127258 0)
(0.013266562503 0.223657546457 0)
(0.0136978880807 0.223792603807 0)
(0.0141018341059 0.223933500119 0)
(0.0144762193416 0.224079694431 0)
(0.0148188694117 0.224231374041 0)
(0.0151277174245 0.22438800963 0)
(0.0154007634858 0.224549745048 0)
(0.015636166639 0.224716034872 0)
(0.0158322021309 0.224886954543 0)
(0.0159873438814 0.225061919585 0)
(0.016100219734 0.225240917355 0)
(0.016169686595 0.225423308586 0)
(0.016194789268 0.225608983682 0)
(0.0161748671223 0.225797243223 0)
(0.0161096142768 0.22598786245 0)
(0.0159988718995 0.226180088749 0)
(0.0158424717682 0.226373603726 0)
(0.0156406125336 0.226567537961 0)
(0.0153938403867 0.226761402649 0)
(0.0151030286573 0.226954187506 0)
(0.0147693477108 0.227145206999 0)
(0.014394319977 0.227333270957 0)
(0.0139797898057 0.227517454851 0)
(0.0135279674922 0.22769633625 0)
(0.0130413859552 0.227868691295 0)
(0.0125229164394 0.228032799154 0)
(0.0119756914822 0.228187074282 0)
(0.0114030707982 0.228329451591 0)
(0.0108085108272 0.228457976286 0)
(0.0101954701392 0.228570294818 0)
(0.00956723135896 0.228664232121 0)
(0.00892677926517 0.228737412923 0)
(0.0082766425731 0.228787840091 0)
(0.00761885177158 0.228813636694 0)
(0.00695494000513 0.228813587641 0)
(0.00628613656838 0.228786934184 0)
(0.00561366669341 0.228733790581 0)
(0.00493926576861 0.228654900281 0)
(0.00426576530549 0.228551861469 0)
(0.00359778815767 0.228426827014 0)
(0.00294234944206 0.228282592466 0)
(0.00230937804075 0.228122366544 0)
(0.00171202551084 0.227949915853 0)
(0.00116708250726 0.22776962572 0)
(0.000696694611729 0.227586906685 0)
(0.000331806724906 0.227408831408 0)
(-0.00148835533141 0.22723997306 0)
(-0.00157849358044 0.22710329083 0)
(-0.00106971150179 0.230375899179 0)
(-0.00120435340469 0.230400367814 0)
(-0.000332472790165 0.230442847547 0)
(-0.000469563975798 0.230500310838 0)
(-0.000630899140545 0.230573973815 0)
(-0.000822605473523 0.230663589177 0)
(-0.00104896061745 0.230768349243 0)
(-0.00131355158714 0.230887345672 0)
(-0.00161886602462 0.231019506249 0)
(-0.00196630742578 0.23116351936 0)
(-0.00235616175175 0.231317927421 0)
(-0.00278767141996 0.231480887223 0)
(-0.00325906310343 0.231650369154 0)
(-0.00376768000621 0.231823886524 0)
(-0.00431012992711 0.231998734083 0)
(-0.00488242667897 0.232171775472 0)
(-0.00548018626269 0.232339688377 0)
(-0.00609876991736 0.23249883724 0)
(-0.00673346034934 0.232645522499 0)
(-0.00737957663758 0.232775932278 0)
(-0.00803259065045 0.232886396448 0)
(-0.00868819360666 0.232973386096 0)
(-0.00934234177947 0.233033766743 0)
(-0.00999127069759 0.233064806983 0)
(-0.0106314758999 0.233064411555 0)
(-0.0112596832406 0.233031092123 0)
(-0.0118727846226 0.232964156979 0)
(-0.012467785713 0.232863607775 0)
(-0.0130417286954 0.232730268329 0)
(-0.0135916508654 0.23256558804 0)
(-0.014114535057 0.232371716303 0)
(-0.0146073114041 0.2321512278 0)
(-0.0150668621707 0.231907173048 0)
(-0.0154900747378 0.231642760205 0)
(-0.01587389767 0.231361425402 0)
(-0.0162154213336 0.231066511943 0)
(-0.0165119556582 0.230761392048 0)
(-0.0167611010764 0.23044916417 0)
(-0.016960819075 0.230132837744 0)
(-0.0171094642704 0.229815053352 0)
(-0.0172055944898 0.229498321688 0)
(-0.0172478703694 0.229184697382 0)
(-0.0172357382909 0.228876245382 0)
(-0.0171697625799 0.228574693898 0)
(-0.0170508007661 0.22828156347 0)
(-0.0168796380672 0.227998043094 0)
(-0.016657430363 0.227725309381 0)
(-0.0163856126718 0.227464248342 0)
(-0.016065925127 0.227215777491 0)
(-0.0157003135462 0.226980558627 0)
(-0.0152909653621 0.226759317498 0)
(-0.0148402040537 0.226552550509 0)
(-0.0143505288339 0.226360836673 0)
(-0.0138245035413 0.226184540562 0)
(-0.0132647960046 0.226024113458 0)
(-0.0126740631159 0.225879797538 0)
(-0.0120549857089 0.225751912988 0)
(-0.0114101522016 0.225640565707 0)
(-0.0107420869202 0.225545919113 0)
(-0.0100531359052 0.225467909102 0)
(-0.00934548742902 0.225406499164 0)
(-0.00862106297526 0.225361402268 0)
(-0.00788152777444 0.225332318444 0)
(-0.0071281844175 0.225318660224 0)
(-0.0063619629578 0.225319765813 0)
(-0.00558330384726 0.225334609881 0)
(-0.00479211256471 0.225361972583 0)
(-0.00398763006497 0.225400098447 0)
(-0.00316840759334 0.225446781536 0)
(-0.00233239551514 0.225498923214 0)
(-0.00147760727742 0.225552538337 0)
(-0.000603785713858 0.22560243833 0)
(0.000285104775805 0.225642973858 0)
(0.0011733175509 0.22567009911 0)
(0.00204266775622 0.225684169302 0)
(0.00288903226882 0.225685189023 0)
(0.00370962830971 0.225676819508 0)
(0.00449867778765 0.225666150245 0)
(0.00525625631497 0.22565720888 0)
(0.00598524511208 0.225653229162 0)
(0.00668825044146 0.225656630341 0)
(0.00736738947321 0.225669098948 0)
(0.00802419975118 0.225691937398 0)
(0.00865973378057 0.225726007528 0)
(0.00927457452384 0.225771995886 0)
(0.00986895640951 0.225830301932 0)
(0.0104427608428 0.225901250866 0)
(0.0109956198435 0.225984958785 0)
(0.011526891069 0.22608151583 0)
(0.0120357532535 0.22619084344 0)
(0.0125211729104 0.226312859266 0)
(0.012981998131 0.226447335988 0)
(0.0134169229847 0.226594053224 0)
(0.013824581254 0.226752661939 0)
(0.0142035107274 0.226922825776 0)
(0.0145522461363 0.227104093458 0)
(0.0148692837618 0.227296029604 0)
(0.0151531716115 0.227498094936 0)
(0.0154024732627 0.227709766321 0)
(0.0156158530672 0.227930425017 0)
(0.0157920385127 0.228159465531 0)
(0.0159298992094 0.228396191376 0)
(0.0160284078704 0.22863991324 0)
(0.0160867135734 0.22888985292 0)
(0.0161041025619 0.229145231264 0)
(0.0160801011152 0.229405179841 0)
(0.0160145856804 0.229668825512 0)
(0.0159075379652 0.229935243509 0)
(0.0157588374977 0.230203469272 0)
(0.0155687073185 0.230472390709 0)
(0.0153377027541 0.23074082536 0)
(0.0150666577868 0.231007445168 0)
(0.0147566563025 0.231270818225 0)
(0.0144090825377 0.231529336948 0)
(0.0140255834567 0.231781251161 0)
(0.0136081012986 0.232024602848 0)
(0.0131588163944 0.232257256277 0)
(0.0126801461871 0.232476848471 0)
(0.0121746507463 0.232680831681 0)
(0.011644982381 0.232866459725 0)
(0.0110937436984 0.233030868428 0)
(0.0105233905582 0.233171124847 0)
(0.0099360646549 0.233284370441 0)
(0.00933349893772 0.233367946454 0)
(0.00871690370589 0.233419593955 0)
(0.00808698308001 0.233437621048 0)
(0.00744400120323 0.233421094981 0)
(0.0067880374652 0.233369959077 0)
(0.0061193331781 0.233285113123 0)
(0.00543882990786 0.233168385438 0)
(0.00474875625602 0.233022445373 0)
(0.00405330669864 0.232850635422 0)
(0.00335922086514 0.232656802484 0)
(0.00267627349921 0.232445160404 0)
(0.0020175027971 0.232220285299 0)
(0.00139932721787 0.231987295681 0)
(0.000842364810043 0.231752268782 0)
(0.000372391445004 0.231522722732 0)
(-0.00150729986658 0.231304234674 0)
(-0.00158865150297 0.231174149085 0)
(-0.00107688298236 0.230070770997 0)
(-0.00121985147933 0.230093994641 0)
(-0.000359109964786 0.230146407664 0)
(-0.000516175835445 0.230221948468 0)
(-0.000697624720613 0.230320469456 0)
(-0.000910140846835 0.230441247208 0)
(-0.00115861118367 0.230583030188 0)
(-0.00144671350034 0.230744468017 0)
(-0.00177688137658 0.23092384346 0)
(-0.00215048391889 0.231119245574 0)
(-0.00256765372805 0.23132840705 0)
(-0.00302740150575 0.231548718483 0)
(-0.00352768453615 0.231777170287 0)
(-0.00406550593539 0.232010345603 0)
(-0.00463707205528 0.23224441781 0)
(-0.00523795786116 0.232475200094 0)
(-0.00586330390453 0.232698168954 0)
(-0.00650800052914 0.232908601693 0)
(-0.0071668711381 0.233101609648 0)
(-0.00783483095333 0.233272362693 0)
(-0.0085070134541 0.233416119719 0)
(-0.00917887492017 0.233528514134 0)
(-0.00984624407376 0.233605565275 0)
(-0.0105053605286 0.233643985255 0)
(-0.0111528469574 0.23364114575 0)
(-0.0117856863415 0.233595356582 0)
(-0.0124011350939 0.233505759463 0)
(-0.0129966622049 0.233372535854 0)
(-0.0135698403562 0.233196709445 0)
(-0.0141182872255 0.23298026187 0)
(-0.0146395825604 0.232725853822 0)
(-0.0151312508985 0.23243686365 0)
(-0.0155907382509 0.232117067066 0)
(-0.0160154497408 0.231770638295 0)
(-0.0164027864688 0.231401842277 0)
(-0.0167502165811 0.231015042094 0)
(-0.0170553440905 0.230614444829 0)
(-0.0173159756911 0.230204137948 0)
(-0.0175301910769 0.229787905458 0)
(-0.0176963782598 0.229369294916 0)
(-0.0178132036192 0.228951492418 0)
(-0.0178790355565 0.22853726403 0)
(-0.0178927199881 0.228129288079 0)
(-0.0178547568951 0.227729996611 0)
(-0.0177659774926 0.227341375016 0)
(-0.0176268134069 0.22696520421 0)
(-0.0174380266125 0.226603046059 0)
(-0.0172006128255 0.226256299429 0)
(-0.0169158379992 0.22592619996 0)
(-0.0165851366718 0.225613855355 0)
(-0.016210159322 0.225320249256 0)
(-0.0157926634953 0.225046257434 0)
(-0.015334565075 0.224792652446 0)
(-0.014837825051 0.224560103248 0)
(-0.0143045014519 0.22434917741 0)
(-0.0137366345215 0.224160328401 0)
(-0.0131362961245 0.223993892698 0)
(-0.0125054769662 0.223850067839 0)
(-0.0118461321947 0.223728903289 0)
(-0.0111600750379 0.223630273112 0)
(-0.0104490186156 0.223553860395 0)
(-0.0097144804491 0.223499126492 0)
(-0.00895782060459 0.223465290081 0)
(-0.00818015824424 0.22345129346 0)
(-0.00738240312728 0.223455774974 0)
(-0.00656518267559 0.223477025246 0)
(-0.00572887070646 0.223512945386 0)
(-0.00487355048966 0.223560978881 0)
(-0.00399912567234 0.223618046332 0)
(-0.00310552856563 0.223680460634 0)
(-0.0021933262225 0.223743917113 0)
(-0.00126469578818 0.223803645976 0)
(-0.000324688305462 0.223854999032 0)
(0.000617030302866 0.223894298677 0)
(0.00154350697879 0.223922348139 0)
(0.00244566654568 0.223940213599 0)
(0.00332728817195 0.223947299066 0)
(0.00418437600229 0.223947976798 0)
(0.00501054698945 0.223947782565 0)
(0.00580581456283 0.223950196962 0)
(0.00657069162014 0.223958419004 0)
(0.00730589881684 0.223975130349 0)
(0.00801210251208 0.224002541023 0)
(0.00868988100802 0.224042470087 0)
(0.00933964915253 0.224096358803 0)
(0.00996170114111 0.224165343945 0)
(0.0105561586558 0.224250265944 0)
(0.0111230265911 0.224351731391 0)
(0.0116621409446 0.224470112771 0)
(0.0121732324726 0.224605600893 0)
(0.0126558769995 0.224758199368 0)
(0.0131095663841 0.224927769943 0)
(0.0135336618535 0.225114024831 0)
(0.0139274704896 0.225316566527 0)
(0.014290201774 0.225534879465 0)
(0.014621047758 0.225768365249 0)
(0.0149191423637 0.226016333393 0)
(0.0151836426191 0.226278031582 0)
(0.0154136893467 0.226552634799 0)
(0.0156084868478 0.2268392706 0)
(0.0157672637968 0.227137005926 0)
(0.0158893493769 0.22744486734 0)
(0.01597413379 0.227761825498 0)
(0.0160211399586 0.228086811174 0)
(0.0160299834563 0.228418697808 0)
(0.016000480093 0.228756314843 0)
(0.0159327992838 0.229098434626 0)
(0.0158271664128 0.229443817082 0)
(0.0156835858834 0.229791137721 0)
(0.0155023715303 0.230138944644 0)
(0.0152841571916 0.23048565645 0)
(0.0150298016877 0.230829559256 0)
(0.0147403537338 0.231168774273 0)
(0.0144170968833 0.231501250865 0)
(0.0140615025335 0.231824734672 0)
(0.0136752532249 0.232136763674 0)
(0.0132601730544 0.23243464596 0)
(0.0128182162823 0.232715471542 0)
(0.0123513619163 0.232976117384 0)
(0.0118615581428 0.233213296776 0)
(0.0113505793526 0.233423616235 0)
(0.0108199386974 0.233603685808 0)
(0.0102707386758 0.233750245013 0)
(0.00970360701584 0.233860337075 0)
(0.00911861977091 0.233931486023 0)
(0.00851536014477 0.23396189017 0)
(0.00789302184194 0.233950579446 0)
(0.00725069131765 0.23389753731 0)
(0.00658770176413 0.233803743344 0)
(0.00590415898952 0.233671145077 0)
(0.00520149795675 0.233502547962 0)
(0.00448312697745 0.233301460726 0)
(0.00375498340061 0.233071935926 0)
(0.00302602468561 0.232818483922 0)
(0.00230846871902 0.2325461588 0)
(0.00161783843284 0.232260938775 0)
(0.000973035492044 0.231970536303 0)
(0.000396511063211 0.231685614151 0)
(-0.00150494819594 0.231418096927 0)
(-0.00156912138782 0.231287004921 0)
(-0.00108454059242 0.230509699258 0)
(-0.00123639663073 0.230537558159 0)
(-0.000385508638212 0.230601338204 0)
(-0.000560183070241 0.230694962318 0)
(-0.000760047833524 0.230818106598 0)
(-0.000991986777131 0.230969577579 0)
(-0.00126110787979 0.231147718919 0)
(-0.00157129689516 0.231350626936 0)
(-0.00192507906864 0.231576003097 0)
(-0.00232371849877 0.231821209425 0)
(-0.00276724666123 0.232083197125 0)
(-0.00325453114826 0.232358462446 0)
(-0.00378328695051 0.232643059897 0)
(-0.00435023663583 0.232932545954 0)
(-0.00495124394788 0.23322205877 0)
(-0.00558150812865 0.233506319456 0)
(-0.00623576203706 0.233779747907 0)
(-0.0069084885826 0.234036551485 0)
(-0.00759411294931 0.234270854245 0)
(-0.00828719804882 0.234476872253 0)
(-0.00898257975783 0.23464903696 0)
(-0.00967550388733 0.234782232858 0)
(-0.0103616774062 0.234871892269 0)
(-0.0110373275399 0.234914254484 0)
(-0.0116991640144 0.234906401639 0)
(-0.0123443620176 0.234846488079 0)
(-0.0129704542732 0.234733685329 0)
(-0.0135752639447 0.234568336499 0)
(-0.0141567689976 0.234351792332 0)
(-0.0147130309137 0.234086470206 0)
(-0.0152420852989 0.233775594799 0)
(-0.015741910899 0.233423179267 0)
(-0.0162103845576 0.233033716988 0)
(-0.0166453066443 0.232612129315 0)
(-0.0170444229156 0.232163468035 0)
(-0.0174054864263 0.231692875847 0)
(-0.0177263191374 0.231205344935 0)
(-0.018004872468 0.230705714521 0)
(-0.0182392950382 0.230198503419 0)
(-0.0184279667056 0.22968794584 0)
(-0.0185698120727 0.229177905193 0)
(-0.0186628691162 0.228671626619 0)
(-0.0187051699745 0.228172373911 0)
(-0.0186971840846 0.227683122739 0)
(-0.0186397679617 0.227206324349 0)
(-0.0185330287432 0.226744191713 0)
(-0.0183773700601 0.226298679118 0)
(-0.018173379246 0.225871535357 0)
(-0.0179218838904 0.22546432265 0)
(-0.0176238501406 0.225078435511 0)
(-0.0172804424357 0.224715120739 0)
(-0.0168929124782 0.224375478085 0)
(-0.0164626631141 0.224060477326 0)
(-0.0159911345383 0.223770943486 0)
(-0.015479869443 0.223507567882 0)
(-0.0149304000957 0.223270882055 0)
(-0.0143443121531 0.223061260978 0)
(-0.0137231367254 0.222878889455 0)
(-0.0130684118757 0.222723757342 0)
(-0.0123815843269 0.222595622421 0)
(-0.0116640690236 0.222493999223 0)
(-0.0109171648942 0.222418121699 0)
(-0.0101421133489 0.22236692898 0)
(-0.00934003081829 0.222339030621 0)
(-0.00851196698184 0.222332692432 0)
(-0.00765885816271 0.222345803817 0)
(-0.00678159763423 0.222375864823 0)
(-0.00588104280302 0.222419955213 0)
(-0.00495817487404 0.222474732183 0)
(-0.00401430339331 0.222536433376 0)
(-0.00305152611661 0.222600972655 0)
(-0.00207330191546 0.222664158735 0)
(-0.00108505165696 0.222722143746 0)
(-9.40076302301e-05 0.22277210496 0)
(0.000887964736895 0.22281298126 0)
(0.00184717512132 0.222847875011 0)
(0.00278191443135 0.222876913796 0)
(0.00369590446263 0.222899061363 0)
(0.00458366308516 0.222919119612 0)
(0.00543958641172 0.222941497941 0)
(0.00626277984119 0.222969249319 0)
(0.00705276021602 0.223005301865 0)
(0.0078093124365 0.223052232237 0)
(0.00853240223791 0.223112276276 0)
(0.00922205571306 0.223187309852 0)
(0.00987836887003 0.223278888504 0)
(0.0105014280195 0.223388233908 0)
(0.0110913351247 0.22351628909 0)
(0.0116481363156 0.223663706438 0)
(0.0121718621357 0.223830901551 0)
(0.0126624643523 0.224018043114 0)
(0.0131198678834 0.224225104057 0)
(0.013543913341 0.224451853145 0)
(0.0139344177645 0.224697902363 0)
(0.0142911223797 0.224962700002 0)
(0.0146137599349 0.22524557317 0)
(0.0149020070165 0.225545721344 0)
(0.015155555412 0.225862252628 0)
(0.0153740676195 0.226194176488 0)
(0.0155572494248 0.226540432934 0)
(0.0157048071853 0.226899883406 0)
(0.015816519265 0.227271332556 0)
(0.0158921939776 0.227653516884 0)
(0.0159317379811 0.228045119675 0)
(0.0159351139538 0.228444757687 0)
(0.0159024520685 0.228850990906 0)
(0.0158342553158 0.22926231161 0)
(0.0157310458723 0.22967719561 0)
(0.015592978163 0.230094044153 0)
(0.015420470539 0.230511101686 0)