/*--------------------------------*- C++ -*----------------------------------*\
| =========                 |                                                 |
| \\      /  F ield         | OpenFOAM: The Open Source CFD Toolbox           |
|  \\    /   O peration     | Version:  2206                                  |
|   \\  /    A nd           | Website:  www.openfoam.com                      |
|    \\/     M anipulation  |                                                 |
\*---------------------------------------------------------------------------*/
FoamFile
{
    version     2.0;
    format      ascii;
    arch        "LSB;label=64;scalar=64";
    class       volVectorField;
    location    "630000";
    object      U;
}
// * * * * * * * * * * * * * * * * * * * * * * * * * * * * * * * * * * * * * //

dimensions      [0 1 -1 0 0 0 0];

internalField   nonuniform List<vector> 
16
(
(1.38662e-07 -1.13837e-07 0)
(2.84109e-07 5.60955e-10 0)
(9.98201e-08 7.87631e-08 0)
(-2.41859e-08 3.25089e-08 0)
(5.8966e-08 -3.09135e-07 0)
(8.43047e-08 3.69361e-08 0)
(-1.8839e-08 2.32575e-07 0)
(-2.11954e-08 4.04029e-08 0)
(-7.04332e-08 -2.57096e-07 0)
(-1.7471e-07 8.0853e-08 0)
(-6.73865e-08 1.84446e-07 0)
(2.13487e-08 -5.42799e-09 0)
(-1.28553e-07 -6.95169e-08 0)
(-1.92752e-07 3.49668e-08 0)
(-1.63354e-08 3.55499e-08 0)
(2.67219e-08 -5.52958e-09 0)
)
;

boundaryField
{
    movingWall
    {
        type            noSlip;
    }
    fixedWalls
    {
        type            noSlip;
    }
    frontAndBack
    {
        type            empty;
    }
}


// ************************************************************************* //
