/*--------------------------------*- C++ -*----------------------------------*\
| =========                 |                                                 |
| \\      /  F ield         | OpenFOAM: The Open Source CFD Toolbox           |
|  \\    /   O peration     | Version:  2212                                  |
|   \\  /    A nd           | Website:  www.openfoam.com                      |
|    \\/     M anipulation  |                                                 |
\*---------------------------------------------------------------------------*/
FoamFile
{
    version     2.0;
    format      ascii;
    arch        "LSB;label=64;scalar=64";
    class       surfaceScalarField;
    location    "0.26";
    object      phi;
}
// * * * * * * * * * * * * * * * * * * * * * * * * * * * * * * * * * * * * * //

dimensions      [0 3 -1 0 0 0 0];

oriented        oriented;

internalField   nonuniform List<scalar> 
65152
(
-2.71736e-12
2.7173e-12
-7.38186e-12
4.66444e-12
-1.184e-11
4.45806e-12
-1.55205e-11
3.68045e-12
-1.85833e-11
3.06272e-12
-2.12988e-11
2.71542e-12
-2.38444e-11
2.54555e-12
-2.63032e-11
2.45875e-12
-2.87052e-11
2.40195e-12
-3.10577e-11
2.35242e-12
-3.33601e-11
2.30239e-12
-3.56094e-11
2.24925e-12
-3.78018e-11
2.19231e-12
-3.99333e-11
2.13144e-12
-4.20002e-11
2.06684e-12
-4.39984e-11
1.99816e-12
-4.59242e-11
1.92569e-12
-4.77736e-11
1.84939e-12
-4.95412e-11
1.76757e-12
-5.12247e-11
1.68339e-12
-5.28193e-11
1.59454e-12
-5.43216e-11
1.50225e-12
-5.57255e-11
1.40382e-12
-5.70271e-11
1.3016e-12
-5.82222e-11
1.19504e-12
-5.93073e-11
1.08512e-12
-6.02776e-11
9.7017e-13
-6.11282e-11
8.50575e-13
-6.18547e-11
7.26509e-13
-6.24526e-11
5.97836e-13
-6.29171e-11
4.64473e-13
-6.32413e-11
3.24148e-13
-6.34232e-11
1.81871e-13
-6.34595e-11
3.62513e-14
-6.33462e-11
-1.13251e-13
-6.30809e-11
-2.65358e-13
-6.26625e-11
-4.18459e-13
-6.20904e-11
-5.72132e-13
-6.13643e-11
-7.26176e-13
-6.04813e-11
-8.83025e-13
-5.94431e-11
-1.03831e-12
-5.825e-11
-1.19318e-12
-5.69026e-11
-1.34745e-12
-5.54018e-11
-1.50088e-12
-5.37492e-11
-1.65267e-12
-5.1945e-11
-1.80431e-12
-4.99938e-11
-1.9513e-12
-4.78983e-11
-2.09564e-12
-4.56619e-11
-2.23649e-12
-4.32902e-11
-2.37175e-12
-4.07875e-11
-2.50279e-12
-3.81605e-11
-2.62713e-12
-3.54152e-11
-2.7454e-12
-3.25578e-11
-2.85743e-12
-2.95974e-11
-2.96053e-12
-2.65419e-11
-3.05554e-12
-2.33999e-11
-3.14207e-12
-2.01806e-11
-3.21936e-12
-1.6894e-11
-3.28674e-12
-1.35499e-11
-3.34411e-12
-1.01588e-11
-3.39121e-12
-6.7313e-12
-3.42757e-12
-3.27977e-12
-3.45159e-12
1.8142e-13
-3.46125e-12
3.63744e-12
-3.45607e-12
7.07505e-12
-3.43767e-12
1.04834e-11
-3.40844e-12
1.38529e-11
-3.36952e-12
1.71741e-11
-3.32125e-12
2.0438e-11
-3.26388e-12
2.36352e-11
-3.19724e-12
2.67566e-11
-3.1214e-12
2.97933e-11
-3.03671e-12
3.27373e-11
-2.94402e-12
3.55808e-11
-2.84348e-12
3.83152e-11
-2.73446e-12
4.09336e-11
-2.6184e-12
4.34305e-11
-2.49683e-12
4.58e-11
-2.36952e-12
4.80369e-11
-2.23688e-12
5.01365e-11
-2.0995e-12
5.20948e-11
-1.95822e-12
5.39083e-11
-1.81347e-12
5.55743e-11
-1.66589e-12
5.70905e-11
-1.51615e-12
5.84555e-11
-1.36491e-12
5.9667e-11
-1.21142e-12
6.07234e-11
-1.05626e-12
6.16253e-11
-9.01866e-13
6.23729e-11
-7.47405e-13
6.29658e-11
-5.92791e-13
6.34042e-11
-4.38246e-13
6.36883e-11
-2.83946e-13
6.38186e-11
-1.30156e-13
6.37969e-11
2.18434e-14
6.36263e-11
1.70725e-13
6.33089e-11
3.17582e-13
6.28527e-11
4.56351e-13
6.22628e-11
5.90142e-13
6.15439e-11
7.1901e-13
6.06996e-11
8.44474e-13
5.9736e-11
9.63788e-13
5.86578e-11
1.07845e-12
5.74689e-11
1.18908e-12
5.61736e-11
1.29553e-12
5.47762e-11
1.39761e-12
5.32796e-11
1.49673e-12
5.16895e-11
1.59038e-12
5.00094e-11
1.68036e-12
4.82435e-11
1.76607e-12
4.63961e-11
1.84769e-12
4.44699e-11
1.92641e-12
4.24696e-11
2.0006e-12
4.0399e-11
2.07078e-12
3.82627e-11
2.13663e-12
3.6063e-11
2.19992e-12
3.38048e-11
2.25847e-12
3.14918e-11
2.31335e-12
2.91269e-11
2.36513e-12
2.67109e-11
2.41637e-12
2.42362e-11
2.47494e-12
2.16726e-11
2.56395e-12
1.89359e-11
2.73696e-12
1.5846e-11
3.0902e-12
1.21246e-11
3.72171e-12
7.59867e-12
4.52623e-12
2.82637e-12
4.77265e-12
2.82644e-12
-2.54878e-12
5.26601e-12
-6.57878e-12
8.69436e-12
-9.70258e-12
7.58178e-12
-1.14356e-11
5.41337e-12
-1.21676e-11
3.79469e-12
-1.2367e-11
2.91473e-12
-1.23283e-11
2.50677e-12
-1.21927e-11
2.32308e-12
-1.2019e-11
2.22811e-12
-1.1829e-11
2.16236e-12
-1.16309e-11
2.10425e-12
-1.14288e-11
2.047e-12
-1.12251e-11
1.98857e-12
-1.1022e-11
1.92828e-12
-1.08208e-11
1.86557e-12
-1.06233e-11
1.80053e-12
-1.0431e-11
1.73336e-12
-1.02452e-11
1.66353e-12
-1.00693e-11
1.5916e-12
-9.90125e-12
1.51528e-12
-9.74285e-12
1.43607e-12
-9.59288e-12
1.35221e-12
-9.45611e-12
1.267e-12
-9.33157e-12
1.177e-12
-9.21897e-12
1.0824e-12
-9.1162e-12
9.82298e-13
-9.02422e-12
8.7815e-13
-8.94266e-12
7.6897e-13
-8.87084e-12
6.54641e-13
-8.80784e-12
5.34798e-13
-8.75316e-12
4.09753e-13
-8.71064e-12
2.81596e-13
-8.67531e-12
1.46495e-13
-8.64649e-12
7.38647e-15
-8.62211e-12
-1.37669e-13
-8.60175e-12
-2.85774e-13
-8.58272e-12
-4.37541e-13
-8.56162e-12
-5.93294e-13
-8.53543e-12
-7.52431e-13
-8.50664e-12
-9.11891e-13
-8.46894e-12
-1.07609e-12
-8.419e-12
-1.24322e-12
-8.3547e-12
-1.41185e-12
-8.27424e-12
-1.58145e-12
-8.1756e-12
-1.75142e-12
-8.06104e-12
-1.91898e-12
-7.92521e-12
-2.08725e-12
-7.76695e-12
-2.25401e-12
-7.58731e-12
-2.41624e-12
-7.38355e-12
-2.57563e-12
-7.15608e-12
-2.73037e-12
-6.90404e-12
-2.87929e-12
-6.62771e-12
-3.02183e-12
-6.32982e-12
-3.15543e-12
-6.00849e-12
-3.28195e-12
-5.66568e-12
-3.39846e-12
-5.30292e-12
-3.50492e-12
-4.92202e-12
-3.60036e-12
-4.52488e-12
-3.68396e-12
-4.11301e-12
-3.75607e-12
-3.68897e-12
-3.81532e-12
-3.25569e-12
-3.86093e-12
-2.81653e-12
-3.89082e-12
-2.375e-12
-3.90286e-12
-1.93371e-12
-3.89741e-12
-1.49472e-12
-3.87673e-12
-1.05986e-12
-3.84335e-12
-6.31307e-13
-3.79813e-12
-2.1069e-13
-3.74191e-12
2.0025e-13
-3.67486e-12
6.00104e-13
-3.59712e-12
9.8757e-13
-3.50889e-12
1.36177e-12
-3.41092e-12
1.72115e-12
-3.30342e-12
2.06401e-12
-3.18634e-12
2.3921e-12
-3.06254e-12
2.70553e-12
-2.93181e-12
3.0024e-12
-2.79367e-12
3.28209e-12
-2.64917e-12
3.54481e-12
-2.49955e-12
3.79103e-12
-2.34565e-12
4.02181e-12
-2.18893e-12
4.23753e-12
-2.02911e-12
4.43919e-12
-1.86746e-12
4.62758e-12
-1.70443e-12
4.80392e-12
-1.54113e-12
4.97189e-12
-1.37926e-12
5.13371e-12
-1.21796e-12
5.2881e-12
-1.0561e-12
5.436e-12
-8.95149e-13
5.57938e-12
-7.3601e-13
5.72012e-12
-5.78808e-13
5.86039e-12
-4.24036e-13
6.00281e-12
-2.72389e-13
6.14944e-12
-1.24583e-13
6.29875e-12
2.16131e-14
6.45887e-12
1.57677e-13
6.62513e-12
2.90309e-13
6.79768e-12
4.17806e-13
6.9781e-12
5.38817e-13
7.16869e-12
6.54118e-13
7.36816e-12
7.64558e-13
7.57656e-12
8.70292e-13
7.79474e-12
9.71152e-13
8.02266e-12
1.06788e-12
8.2597e-12
1.16083e-12
8.50801e-12
1.24869e-12
8.76422e-12
1.33445e-12
9.02844e-12
1.41642e-12
9.29899e-12
1.49581e-12
9.57472e-12
1.57227e-12
9.85654e-12
1.64491e-12
1.01415e-11
1.71593e-12
1.04279e-11
1.78478e-12
1.07133e-11
1.85156e-12
1.09981e-11
1.91542e-12
1.12784e-11
1.97858e-12
1.15521e-11
2.04001e-12
1.18157e-11
2.10189e-12
1.20604e-11
2.17203e-12
1.22649e-11
2.2708e-12
1.23704e-11
2.45885e-12
1.22336e-11
2.87408e-12
1.15559e-11
3.7683e-12
9.85824e-12
5.4197e-12
6.73179e-12
7.65305e-12
2.63865e-12
8.86617e-12
5.46517e-12
-2.26272e-12
7.52865e-12
-5.38172e-12
1.18133e-11
-7.2723e-12
9.47228e-12
-7.64981e-12
5.7908e-12
-6.98972e-12
3.13453e-12
-5.78847e-12
1.71341e-12
-4.35307e-12
1.0713e-12
-2.83325e-12
8.03188e-13
-1.28882e-12
6.83612e-13
2.53691e-13
6.19771e-13
1.78436e-12
5.73504e-13
3.29584e-12
5.35443e-13
4.78268e-12
5.01657e-13
6.24045e-12
4.70432e-13
7.66438e-12
4.41574e-13
9.05006e-12
4.14775e-13
1.03936e-11
3.8972e-13
1.1691e-11
3.66074e-13
1.2939e-11
3.43551e-13
1.41328e-11
3.21386e-13
1.52695e-11
2.99357e-13
1.63446e-11
2.77016e-13
1.73572e-11
2.54334e-13
1.83037e-11
2.30506e-13
1.9181e-11
2.05046e-13
1.99859e-11
1.77385e-13
2.07167e-11
1.47251e-13
2.13711e-11
1.14553e-13
2.19462e-11
7.95032e-14
2.24409e-11
4.00329e-14
2.28522e-11
-1.53361e-15
2.31802e-11
-4.6494e-14
2.34224e-11
-9.57137e-14
2.35785e-11
-1.48787e-13
2.36473e-11
-2.06509e-13
2.36302e-11
-2.68646e-13
2.3528e-11
-3.35467e-13
2.33418e-11
-4.07088e-13
2.3072e-11
-4.82706e-13
2.27241e-11
-5.64099e-13
2.22974e-11
-6.49457e-13
2.17921e-11
-7.37962e-13
2.12131e-11
-8.32921e-13
2.05611e-11
-9.29633e-13
1.98385e-11
-1.02887e-12
1.90502e-11
-1.13078e-12
1.81974e-11
-1.2345e-12
1.72828e-11
-1.33958e-12
1.63111e-11
-1.44459e-12
1.52818e-11
-1.54649e-12
1.42022e-11
-1.65085e-12
1.30727e-11
-1.74988e-12
1.18993e-11
-1.84852e-12
1.06858e-11
-1.94212e-12
9.43213e-12
-2.02833e-12
8.14568e-12
-2.11211e-12
6.82819e-12
-2.18752e-12
5.48348e-12
-2.25574e-12
4.11526e-12
-2.31582e-12
2.72607e-12
-2.36697e-12
1.32111e-12
-2.41044e-12
-9.70509e-14
-2.44286e-12
-1.52319e-12
-2.46475e-12
-2.9517e-12
-2.47442e-12
-4.37649e-12
-2.47269e-12
-5.79189e-12
-2.46138e-12
-7.19324e-12
-2.44205e-12
-8.57597e-12
-2.41545e-12
-9.93609e-12
-2.38182e-12
-1.12697e-11
-2.34128e-12
-1.25729e-11
-2.29397e-12
-1.38416e-11
-2.24021e-12
-1.50722e-11
-2.18034e-12
-1.62608e-11
-2.11478e-12
-1.74033e-11
-2.04388e-12
-1.84975e-11
-1.96831e-12
-1.9539e-11
-1.89033e-12
-2.05238e-11
-1.8088e-12
-2.14488e-11
-1.72413e-12
-2.23115e-11
-1.63679e-12
-2.31091e-11
-1.548e-12
-2.38394e-11
-1.45857e-12
-2.45001e-11
-1.36835e-12
-2.50875e-11
-1.27992e-12
-2.56002e-11
-1.19169e-12
-2.6037e-11
-1.10416e-12
-2.63971e-11
-1.01903e-12
-2.668e-11
-9.34927e-13
-2.68822e-11
-8.53746e-13
-2.7003e-11
-7.74223e-13
-2.70417e-11
-6.97131e-13
-2.69973e-11
-6.23046e-13
-2.68692e-11
-5.51922e-13
-2.66571e-11
-4.84361e-13
-2.63608e-11
-4.20615e-13
-2.59774e-11
-3.61599e-13
-2.55124e-11
-3.07105e-13
-2.49652e-11
-2.56684e-13
-2.43371e-11
-2.10123e-13
-2.36307e-11
-1.6736e-13
-2.28482e-11
-1.28081e-13
-2.19917e-11
-9.17779e-14
-2.10631e-11
-5.80363e-14
-2.00653e-11
-2.64434e-14
-1.90006e-11
3.51129e-15
-1.78717e-11
3.21571e-14
-1.66799e-11
5.71116e-14
-1.54325e-11
8.7332e-14
-1.41282e-11
1.12461e-13
-1.27751e-11
1.42953e-13
-1.13743e-11
1.71796e-13
-9.92974e-12
2.00671e-13
-8.44647e-12
2.32991e-13
-6.92847e-12
2.67108e-13
-5.37959e-12
3.03033e-13
-3.80256e-12
3.38738e-13
-2.20591e-12
3.82291e-13
-5.92273e-13
4.26742e-13
1.03082e-12
4.79169e-13
2.65279e-12
5.50433e-13
4.24746e-12
6.765e-13
5.75406e-12
9.52626e-13
7.02329e-12
1.60521e-12
7.7434e-12
3.04854e-12
7.40792e-12
5.75553e-12
5.52219e-12
9.53915e-12
2.34892e-12
1.20398e-11
7.81416e-12
-2.23491e-12
9.7635e-12
-5.17901e-12
1.47573e-11
-6.77705e-12
1.10702e-11
-6.81519e-12
5.82887e-12
-5.8034e-12
2.12267e-12
-4.24838e-12
1.58323e-13
-2.4569e-12
-7.20261e-13
-5.82344e-13
-1.07143e-12
1.31156e-12
-1.21036e-12
3.20112e-12
-1.26986e-12
5.07306e-12
-1.2985e-12
6.92052e-12
-1.31209e-12
8.7377e-12
-1.31559e-12
1.05188e-11
-1.31072e-12
1.22585e-11
-1.2982e-12
1.39517e-11
-1.27856e-12
1.55937e-11
-1.25229e-12
1.71797e-11
-1.21994e-12
1.87052e-11
-1.18204e-12
2.01657e-11
-1.13924e-12
2.15572e-11
-1.09211e-12
2.28754e-11
-1.04125e-12
2.41169e-11
-9.87255e-13
2.52782e-11
-9.30793e-13
2.63557e-11
-8.72528e-13
2.73461e-11
-8.13102e-13
2.82464e-11
-7.53071e-13
2.90539e-11
-6.92944e-13
2.97666e-11
-6.33218e-13
3.0381e-11
-5.74448e-13
3.08963e-11
-5.16886e-13
3.13108e-11
-4.61003e-13
3.16224e-11
-4.07298e-13
3.18305e-11
-3.56888e-13
3.19342e-11
-3.10255e-13
3.1933e-11
-2.67556e-13
3.1827e-11
-2.29473e-13
3.16169e-11
-1.97016e-13
3.13047e-11
-1.70522e-13
3.08871e-11
-1.46599e-13
3.03672e-11
-1.29607e-13
2.97484e-11
-1.19199e-13
2.90316e-11
-1.16188e-13
2.82155e-11
-1.13598e-13
2.73051e-11
-1.186e-13
2.63029e-11
-1.28655e-13
2.5212e-11
-1.43663e-13
2.4038e-11
-1.657e-13
2.27821e-11
-1.88738e-13
2.14472e-11
-2.11659e-13
2.00348e-11
-2.38573e-13
1.85535e-11
-2.68653e-13
1.70058e-11
-3.00973e-13
1.5401e-11
-3.37379e-13
1.3741e-11
-3.68436e-13
1.20243e-11
-3.95467e-13
1.02612e-11
-4.24484e-13
8.45709e-12
-4.51731e-13
6.61774e-12
-4.76542e-13
4.75046e-12
-4.99777e-13
2.85803e-12
-5.18073e-13
9.45947e-13
-5.30851e-13
-9.78982e-13
-5.39883e-13
-2.90805e-12
-5.45429e-13
-4.83367e-12
-5.47122e-13
-6.74787e-12
-5.4724e-13
-8.64337e-12
-5.46602e-13
-1.05137e-11
-5.45212e-13
-1.23526e-11
-5.42914e-13
-1.41543e-11
-5.39584e-13
-1.59131e-11
-5.35236e-13
-1.76233e-11
-5.30011e-13
-1.92796e-11
-5.24132e-13
-2.08765e-11
-5.17861e-13
-2.24088e-11
-5.1151e-13
-2.38717e-11
-5.05466e-13
-2.52618e-11
-5.00213e-13
-2.65739e-11
-4.967e-13
-2.78017e-11
-4.96242e-13
-2.89467e-11
-4.91713e-13
-3.00045e-11
-4.90201e-13
-3.09706e-11
-4.92414e-13
-3.18389e-11
-4.99976e-13
-3.26139e-11
-5.04782e-13
-3.32877e-11
-5.17784e-13
-3.38643e-11
-5.27405e-13
-3.43377e-11
-5.45512e-13
-3.47093e-11
-5.63281e-13
-3.4977e-11
-5.85884e-13
-3.51423e-11
-6.0874e-13
-3.52037e-11
-6.35605e-13
-3.51613e-11
-6.65244e-13
-3.50153e-11
-6.97777e-13
-3.47662e-11
-7.33273e-13
-3.44143e-11
-7.72368e-13
-3.39606e-11
-8.15092e-13
-3.34067e-11
-8.60756e-13
-3.27541e-11
-9.09089e-13
-3.20044e-11
-9.5963e-13
-3.11597e-11
-1.01184e-12
-3.02224e-11
-1.06515e-12
-2.91951e-11
-1.1189e-12
-2.80805e-11
-1.17244e-12
-2.68816e-11
-1.2251e-12
-2.56016e-11
-1.27622e-12
-2.4244e-11
-1.32519e-12
-2.28152e-11
-1.37143e-12
-2.13139e-11
-1.41371e-12
-1.97492e-11
-1.45204e-12
-1.81206e-11
-1.48529e-12
-1.64352e-11
-1.5134e-12
-1.46984e-11
-1.53581e-12
-1.29133e-11
-1.55175e-12
-1.1085e-11
-1.56088e-12
-9.21879e-12
-1.56287e-12
-7.32235e-12
-1.55736e-12
-5.39655e-12
-1.54317e-12
-3.45023e-12
-1.51923e-12
-1.49022e-12
-1.48048e-12
4.71399e-13
-1.41083e-12
2.41047e-12
-1.26221e-12
4.26292e-12
-8.99476e-13
5.87753e-12
-9.05094e-15
6.94036e-12
1.98605e-12
6.93416e-12
5.76206e-12
5.32907e-12
1.11446e-11
2.32437e-12
1.50449e-11
1.01386e-11
-2.31882e-12
1.20823e-11
-5.34429e-12
1.77827e-11
-6.9633e-12
1.26892e-11
-6.95878e-12
5.82428e-12
-5.86926e-12
1.03309e-12
-4.21515e-12
-1.49586e-12
-2.33113e-12
-2.60434e-12
-3.63801e-13
-3.03883e-12
1.62429e-12
-3.19852e-12
3.6064e-12
-3.25203e-12
5.56993e-12
-3.26209e-12
7.50708e-12
-3.24931e-12
9.41159e-12
-3.22016e-12
1.12776e-11
-3.17684e-12
1.30998e-11
-3.12037e-12
1.48726e-11
-3.05146e-12
1.65911e-11
-2.97082e-12
1.82502e-11
-2.87915e-12
1.98453e-11
-2.7772e-12
2.13718e-11
-2.66576e-12
2.28253e-11
-2.54564e-12
2.42016e-11
-2.41765e-12
2.54969e-11
-2.28263e-12
2.67075e-11
-2.14144e-12
2.78299e-11
-1.99497e-12
2.88609e-11
-1.84406e-12
2.97973e-11
-1.68955e-12
3.06366e-11
-1.53227e-12
3.13764e-11
-1.37302e-12
3.20145e-11
-1.21256e-12
3.25492e-11
-1.05163e-12
3.29791e-11
-8.90948e-13
3.3303e-11
-7.31209e-13
3.35195e-11
-5.73408e-13
3.36287e-11
-4.19504e-13
3.36298e-11
-2.68713e-13
3.3523e-11
-1.22659e-13
3.3307e-11
1.89237e-14
3.29816e-11
1.54835e-13
3.25502e-11
2.84805e-13
3.20125e-11
4.08053e-13
3.13692e-11
5.24091e-13
3.06202e-11
6.32707e-13
2.97724e-11
7.34188e-13
2.88258e-11
8.27893e-13
2.77833e-11
9.1379e-13
2.66477e-11
9.91885e-13
2.54196e-11
1.06228e-12
2.41051e-11
1.12576e-12
2.27107e-11
1.18265e-12
2.12393e-11
1.2328e-12
1.96941e-11
1.27637e-12
1.80793e-11
1.31381e-12
1.63962e-11
1.34566e-12
1.46544e-11
1.37325e-12
1.28619e-11
1.39696e-12
1.10207e-11
1.41663e-12
9.13611e-12
1.43281e-12
7.21348e-12
1.44602e-12
5.25695e-12
1.45667e-12
3.2735e-12
1.46531e-12
1.27071e-12
1.47187e-12
-7.44425e-13
1.47519e-12
-2.76499e-12
1.47507e-12
-4.78197e-12
1.46981e-12
-6.78754e-12
1.45827e-12
-8.77432e-12
1.44014e-12
-1.07353e-11
1.41573e-12
-1.26639e-11
1.38561e-12
-1.45537e-11
1.35016e-12
-1.63985e-11
1.30957e-12
-1.81924e-11
1.2639e-12
-1.99297e-11
1.21312e-12
-2.16048e-11
1.1572e-12
-2.32123e-11
1.09607e-12
-2.47474e-11
1.02966e-12
-2.62055e-11
9.57886e-13
-2.75829e-11
8.80692e-13
-2.88773e-11
7.98184e-13
-3.00798e-11
7.10906e-13
-3.11883e-11
6.18362e-13
-3.2201e-11
5.20355e-13
-3.31179e-11
4.16985e-13
-3.39315e-11
3.08931e-13
-3.46451e-11
1.95869e-13
-3.52509e-11
7.85458e-14
-3.57518e-11
-4.45064e-14
-3.61449e-11
-1.70016e-13
-3.64318e-11
-2.98878e-13
-3.66095e-11
-4.30912e-13
-3.66788e-11
-5.66119e-13
-3.66405e-11
-7.03417e-13
-3.64948e-11
-8.43256e-13
-3.62425e-11
-9.85407e-13
-3.58838e-11
-1.13089e-12
-3.54199e-11
-1.27888e-12
-3.48517e-11
-1.4287e-12
-3.41808e-11
-1.57987e-12
-3.34086e-11
-1.73158e-12
-3.25373e-11
-1.88298e-12
-3.15691e-11
-2.03315e-12
-3.05066e-11
-2.18114e-12
-2.93528e-11
-2.32603e-12
-2.81108e-11
-2.4669e-12
-2.6784e-11
-2.60282e-12
-2.53761e-11
-2.73289e-12
-2.3891e-11
-2.85622e-12
-2.23326e-11
-2.9719e-12
-2.07052e-11
-3.07916e-12
-1.90131e-11
-3.17717e-12
-1.7261e-11
-3.26524e-12
-1.54538e-11
-3.34268e-12
-1.35965e-11
-3.4088e-12
-1.1694e-11
-3.46301e-12
-9.75186e-12
-3.50473e-12
-7.77554e-12
-3.53336e-12
-5.77037e-12
-3.548e-12
-3.74265e-12
-3.54662e-12
-1.69996e-12
-3.52283e-12
3.45564e-13
-3.45602e-12
2.36717e-12
-3.28347e-12
4.30109e-12
-2.83305e-12
5.99703e-12
-1.70466e-12
7.11509e-12
8.68306e-13
7.13893e-12
5.73854e-12
5.50632e-12
1.27775e-11
2.41148e-12
1.814e-11
1.25502e-11
-2.43195e-12
1.45141e-11
-5.6046e-12
2.09553e-11
-7.30939e-12
1.43939e-11
-7.321e-12
5.83583e-12
-6.19041e-12
-9.75685e-14
-4.48592e-12
-3.20042e-12
-2.535e-12
-4.55532e-12
-4.959e-13
-5.07799e-12
1.563e-12
-5.25747e-12
3.61471e-12
-5.30381e-12
5.64626e-12
-5.2937e-12
7.64955e-12
-5.25265e-12
9.61806e-12
-5.18873e-12
1.15458e-11
-5.10468e-12
1.34272e-11
-5.00178e-12
1.52566e-11
-4.88097e-12
1.70289e-11
-4.74312e-12
1.87388e-11
-4.58915e-12
2.03816e-11
-4.42e-12
2.19524e-11
-4.23667e-12
2.34469e-11
-4.04017e-12
2.48608e-11
-3.83156e-12
2.61901e-11
-3.61193e-12
2.74309e-11
-3.38238e-12
2.858e-11
-3.14403e-12
2.96339e-11
-2.89802e-12
3.05898e-11
-2.64545e-12
3.14449e-11
-2.38745e-12
3.2197e-11
-2.12514e-12
3.2844e-11
-1.8596e-12
3.33843e-11
-1.59192e-12
3.38165e-11
-1.32314e-12
3.41395e-11
-1.05421e-12
3.43524e-11
-7.86329e-13
3.44549e-11
-5.22097e-13
3.44468e-11
-2.60637e-13
3.43277e-11
-3.48509e-15
3.40977e-11
2.48882e-13
3.37574e-11
4.95127e-13
3.33077e-11
7.34462e-13
3.27497e-11
9.65975e-13
3.20849e-11
1.18885e-12
3.13152e-11
1.40242e-12
3.04431e-11
1.60619e-12
2.94713e-11
1.79966e-12
2.84026e-11
1.98249e-12
2.724e-11
2.15444e-12
2.59868e-11
2.31539e-12
2.46471e-11
2.46535e-12
2.32254e-11
2.60435e-12
2.17257e-11
2.7324e-12
2.01524e-11
2.84964e-12
1.85098e-11
2.95629e-12
1.68027e-11
3.05268e-12
1.50367e-11
3.13925e-12
1.32172e-11
3.21636e-12
1.13494e-11
3.28432e-12
9.43869e-12
3.34349e-12
7.4904e-12
3.39425e-12
5.51013e-12
3.43687e-12
3.50403e-12
3.47135e-12
1.47857e-12
3.49726e-12
-5.60054e-13
3.51376e-12
-2.60386e-12
3.51882e-12
-4.64509e-12
3.51099e-12
-6.67601e-12
3.48914e-12
-8.68901e-12
3.4531e-12
-1.06769e-11
3.40359e-12
-1.26329e-11
3.34156e-12
-1.45505e-11
3.26774e-12
-1.64235e-11
3.18256e-12
-1.82459e-11
3.08631e-12
-2.0012e-11
2.97918e-12
-2.17162e-11
2.86138e-12
-2.33532e-11
2.73309e-12
-2.4918e-11
2.59451e-12
-2.6406e-11
2.44589e-12
-2.78127e-11
2.28748e-12
-2.91341e-11
2.11961e-12
-3.03658e-11
1.94264e-12
-3.15042e-11
1.75687e-12
-3.25464e-11
1.56261e-12
-3.34896e-11
1.3603e-12
-3.4331e-11
1.15044e-12
-3.50686e-11
9.3353e-13
-3.57001e-11
7.10128e-13
-3.62252e-11
4.80797e-13
-3.66415e-11
2.46433e-13
-3.69476e-11
7.37139e-15
-3.7143e-11
-2.35409e-13
-3.72288e-11
-4.80124e-13
-3.72042e-11
-7.27879e-13
-3.70696e-11
-9.77737e-13
-3.68251e-11
-1.22969e-12
-3.64716e-11
-1.48424e-12
-3.60096e-11
-1.7407e-12
-3.54402e-11
-1.99792e-12
-3.47647e-11
-2.25515e-12
-3.39848e-11
-2.51127e-12
-3.31025e-11
-2.76508e-12
-3.21202e-11
-3.01534e-12
-3.10403e-11
-3.26079e-12
-2.98659e-11
-3.50023e-12
-2.86001e-11
-3.73245e-12
-2.72464e-11
-3.95626e-12
-2.58086e-11
-4.17052e-12
-2.42905e-11
-4.37409e-12
-2.26962e-11
-4.56589e-12
-2.10303e-11
-4.74488e-12
-1.92971e-11
-4.91007e-12
-1.75015e-11
-5.06053e-12
-1.56486e-11
-5.19538e-12
-1.37433e-11
-5.31379e-12
-1.1791e-11
-5.41499e-12
-9.79717e-12
-5.49824e-12
-7.76743e-12
-5.56278e-12
-5.7076e-12
-5.6075e-12
-3.62405e-12
-5.62984e-12
-1.5247e-12
-5.62183e-12
5.77548e-13
-5.55793e-12
2.65421e-12
-5.35979e-12
4.64018e-12
-4.81869e-12
6.37227e-12
-3.43641e-12
7.52693e-12
-2.86039e-13
7.51668e-12
5.74909e-12
5.78225e-12
1.45123e-11
2.52971e-12
2.13929e-11
1.50799e-11
-2.56425e-12
1.70783e-11
-5.91228e-12
2.43033e-11
-7.71957e-12
1.62011e-11
-7.75953e-12
5.87573e-12
-6.59366e-12
-1.2635e-12
-4.81818e-12
-4.97596e-12
-2.7823e-12
-6.59126e-12
-6.55008e-13
-7.20535e-12
1.4935e-12
-7.40603e-12
3.6336e-12
-7.44397e-12
5.75159e-12
-7.41175e-12
7.83899e-12
-7.34011e-12
9.88903e-12
-7.23882e-12
1.18955e-11
-7.11123e-12
1.38526e-11
-6.95888e-12
1.57544e-11
-6.78291e-12
1.75957e-11
-6.58441e-12
1.9371e-11
-6.36449e-12
2.10752e-11
-6.12431e-12
2.27036e-11
-5.86508e-12
2.42514e-11
-5.58807e-12
2.57144e-11
-5.2946e-12
2.70884e-11
-4.98599e-12
2.83696e-11
-4.66362e-12
2.95545e-11
-4.3289e-12
3.06397e-11
-3.98324e-12
3.16222e-11
-3.62807e-12
3.24996e-11
-3.26482e-12
3.32694e-11
-2.89494e-12
3.39296e-11
-2.51983e-12
3.44785e-11
-2.14093e-12
3.4915e-11
-1.75961e-12
3.52379e-11
-1.37717e-12
3.54462e-11
-9.94577e-13
3.55405e-11
-6.16419e-13
3.55203e-11
-2.40496e-13
3.53856e-11
1.31223e-13
3.5137e-11
4.9745e-13
3.47752e-11
8.56919e-13
3.43012e-11
1.20842e-12
3.37165e-11
1.55067e-12
3.30228e-11
1.88249e-12
3.22224e-11
2.20281e-12
3.13178e-11
2.51073e-12
3.0312e-11
2.80547e-12
2.92081e-11
3.0864e-12
2.80095e-11
3.353e-12
2.67199e-11
3.60487e-12
2.53435e-11
3.8417e-12
2.38845e-11
4.06329e-12
2.23474e-11
4.2695e-12
2.07366e-11
4.4603e-12
1.90571e-11
4.63574e-12
1.73138e-11
4.79595e-12
1.55118e-11
4.94115e-12
1.36566e-11
5.07158e-12
1.17533e-11
5.18753e-12
9.80743e-12
5.28928e-12
7.8245e-12
5.37711e-12
5.81014e-12
5.45116e-12
3.77023e-12
5.51121e-12
1.71091e-12
5.55652e-12
-3.61112e-13
5.58574e-12
-2.43869e-12
5.59635e-12
-4.51425e-12
5.5865e-12
-6.58002e-12
5.55486e-12
-8.62835e-12
5.5014e-12
-1.0652e-11
5.42718e-12
-1.2644e-11
5.33359e-12
-1.4598e-11
5.22172e-12
-1.65078e-11
5.09227e-12
-1.83672e-11
4.94576e-12
-2.01706e-11
4.7826e-12
-2.19124e-11
4.60321e-12
-2.35873e-11
4.40801e-12
-2.51902e-11
4.19744e-12
-2.67163e-11
3.97201e-12
-2.8161e-11
3.73222e-12
-2.952e-11
3.47866e-12
-3.07892e-11
3.21192e-12
-3.19649e-11
2.93263e-12
-3.30437e-11
2.64148e-12
-3.40224e-11
2.33918e-12
-3.48984e-11
2.02653e-12
-3.56691e-11
1.70437e-12
-3.63325e-11
1.37358e-12
-3.68867e-11
1.03514e-12
-3.73302e-11
6.90078e-13
-3.76621e-11
3.39447e-13
-3.78812e-11
-1.61953e-14
-3.79866e-11
-3.74554e-13
-3.79783e-11
-7.36024e-13
-3.78569e-11
-1.0989e-12
-3.76221e-11
-1.46429e-12
-3.7274e-11
-1.83223e-12
-3.68131e-11
-2.20134e-12
-3.62407e-11
-2.57017e-12
-3.5558e-11
-2.93766e-12
-3.47667e-11
-3.30236e-12
-3.38689e-11
-3.66272e-12
-3.28669e-11
-4.01717e-12
-3.17633e-11
-4.36416e-12
-3.05611e-11
-4.70217e-12
-2.92637e-11
-5.02971e-12
-2.78744e-11
-5.34531e-12
-2.63971e-11
-5.64756e-12
-2.48359e-11
-5.93507e-12
-2.3195e-11
-6.20654e-12
-2.14789e-11
-6.46067e-12
-1.96925e-11
-6.69628e-12
-1.78405e-11
-6.91221e-12
-1.59282e-11
-7.10738e-12
-1.3961e-11
-7.28078e-12
-1.19442e-11
-7.43147e-12
-9.88353e-12
-7.55856e-12
-7.7849e-12
-7.66109e-12
-5.65435e-12
-7.73772e-12
-3.49858e-12
-7.78528e-12
-1.32597e-12
-7.7941e-12
8.49711e-13
-7.73328e-12
3.00072e-12
-7.51046e-12
5.05341e-12
-6.87105e-12
6.84072e-12
-5.2234e-12
8.00819e-12
-1.4532e-12
7.96183e-12
5.79576e-12
6.10817e-12
1.63663e-11
2.6679e-12
2.48335e-11
1.77479e-11
-2.71993e-12
1.97982e-11
-6.27314e-12
2.78564e-11
-8.20287e-12
1.81308e-11
-8.25005e-12
5.92285e-12
-7.03717e-12
-2.47643e-12
-5.17361e-12
-6.83958e-12
-3.03187e-12
-8.73306e-12
-7.91463e-13
-9.44581e-12
1.47139e-12
-9.66894e-12
3.72482e-12
-9.69746e-12
5.95404e-12
-9.64103e-12
8.15001e-12
-9.53613e-12
1.03055e-11
-9.39441e-12
1.24141e-11
-9.21987e-12
1.44696e-11
-9.01437e-12
1.64659e-11
-8.77929e-12
1.83973e-11
-8.5159e-12
2.02583e-11
-8.22555e-12
2.20436e-11
-7.90964e-12
2.37481e-11
-7.56962e-12
2.5367e-11
-7.20701e-12
2.68958e-11
-6.82339e-12
2.83301e-11
-6.42039e-12
2.96661e-11
-5.99968e-12
3.09002e-11
-5.56295e-12
3.20288e-11
-5.11194e-12
3.30491e-11
-4.6484e-12
3.39584e-11
-4.1741e-12
3.47542e-11
-3.69082e-12
3.54347e-11
-3.20033e-12
3.59982e-11
-2.70442e-12
3.64434e-11
-2.20481e-12
3.67693e-11
-1.70312e-12
3.69755e-11
-1.20083e-12
3.70619e-11
-7.02768e-13
3.70289e-11
-2.07573e-13
3.68765e-11
2.83634e-13
3.66057e-11
7.68247e-13
3.62175e-11
1.24512e-12
3.57132e-11
1.7127e-12
3.50945e-11
2.16937e-12
3.43634e-11
2.61351e-12
3.35225e-11
3.04367e-12
3.25746e-11
3.45857e-12
3.1523e-11
3.85709e-12
3.03711e-11
4.2383e-12
2.91226e-11
4.6014e-12
2.77817e-11
4.94572e-12
2.63526e-11
5.27073e-12
2.48399e-11
5.57599e-12
2.32481e-11
5.86119e-12
2.15823e-11
6.12613e-12
1.98472e-11
6.37071e-12
1.80482e-11
6.59493e-12
1.61904e-11
6.7989e-12
1.42791e-11
6.98277e-12
1.23198e-11
7.14675e-12
1.0318e-11
7.2911e-12
8.27899e-12
7.41602e-12
6.20853e-12
7.52156e-12
4.11237e-12
7.60732e-12
1.99664e-12
7.67219e-12
-1.32047e-13
7.71438e-12
-2.26661e-12
7.73086e-12
-4.39932e-12
7.71918e-12
-6.52235e-12
7.67785e-12
-8.62793e-12
7.60695e-12
-1.07087e-11
7.50792e-12
-1.27577e-11
7.3826e-12
-1.47685e-11
7.23247e-12
-1.67348e-11
7.05855e-12
-1.86506e-11
6.86155e-12
-2.051e-11
6.6421e-12
-2.23076e-11
6.40081e-12
-2.40379e-11
6.1383e-12
-2.56956e-11
5.85525e-12
-2.7276e-11
5.55237e-12
-2.87741e-11
5.23042e-12
-3.01856e-11
4.89021e-12
-3.15062e-11
4.53261e-12
-3.2732e-11
4.15852e-12
-3.38593e-11
3.76892e-12
-3.48849e-11
3.36483e-12
-3.58055e-11
2.94733e-12
-3.66186e-11
2.51759e-12
-3.73217e-11
2.07681e-12
-3.79127e-11
1.62632e-12
-3.839e-11
1.16749e-12
-3.87522e-11
7.01774e-13
-3.89987e-11
2.30514e-13
-3.91251e-11
-2.47984e-13
-3.91361e-11
-7.2486e-13
-3.90285e-11
-1.20627e-12
-3.88029e-11
-1.68978e-12
-3.84581e-11
-2.17684e-12
-3.79954e-11
-2.66387e-12
-3.74157e-11
-3.14966e-12
-3.67204e-11
-3.63277e-12
-3.59112e-11
-4.11138e-12
-3.49901e-11
-4.58358e-12
-3.39596e-11
-5.04749e-12
-3.28223e-11
-5.50121e-12
-3.15813e-11
-5.94291e-12
-3.024e-11
-6.37079e-12
-2.8802e-11
-6.7831e-12
-2.72712e-11
-7.17813e-12
-2.56518e-11
-7.55424e-12
-2.39482e-11
-7.90985e-12
-2.21652e-11
-8.24343e-12
-2.03076e-11
-8.55355e-12
-1.83807e-11
-8.83884e-12
-1.63898e-11
-9.098e-12
-1.43404e-11
-9.32984e-12
-1.22384e-11
-9.53321e-12
-1.00896e-11
-9.70706e-12
-7.90009e-12
-9.85025e-12
-5.67632e-12
-9.96116e-12
-3.42526e-12
-1.0036e-11
-1.15572e-12
-1.00633e-11
1.11785e-12
-1.00065e-11
3.36317e-12
-9.75544e-12
5.50504e-12
-9.01259e-12
7.36266e-12
-7.0807e-12
8.56252e-12
-2.65275e-12
8.46969e-12
5.88889e-12
6.48337e-12
1.83529e-11
2.82753e-12
2.84897e-11
2.05755e-11
-2.89728e-12
2.26954e-11
-6.68186e-12
3.16409e-11
-8.74389e-12
2.01928e-11
-8.80837e-12
5.98728e-12
-7.52846e-12
-3.75639e-12
-5.55284e-12
-8.81525e-12
-3.27845e-12
-1.10075e-11
-8.97747e-13
-1.18266e-11
1.50669e-12
-1.20734e-11
3.90062e-12
-1.20914e-11
6.26794e-12
-1.20084e-11
8.59885e-12
-1.18671e-11
1.08857e-11
-1.16813e-11
1.31215e-11
-1.14558e-11
1.52998e-11
-1.11927e-11
1.74142e-11
-1.08937e-11
1.94587e-11
-1.05604e-11
2.14273e-11
-1.01943e-11
2.33146e-11
-9.79696e-12
2.51152e-11
-9.37023e-12
2.6824e-11
-8.91587e-12
2.84363e-11
-8.43575e-12
2.99477e-11
-7.93181e-12
3.1354e-11
-7.40602e-12
3.26514e-11
-6.86041e-12
3.38365e-11
-6.29707e-12
3.49062e-11
-5.71809e-12
3.58576e-11
-5.12559e-12
3.66885e-11
-4.52174e-12
3.73968e-11
-3.90867e-12
3.79809e-11
-3.28854e-12
3.84396e-11
-2.66348e-12
3.87719e-11
-2.03549e-12
3.89768e-11
-1.40574e-12
3.90559e-11
-7.818e-13
3.90085e-11
-1.60203e-13
3.8836e-11
4.56128e-13
3.85391e-11
1.06508e-12
3.81193e-11
1.66495e-12
3.7578e-11
2.25391e-12
3.69174e-11
2.82997e-12
3.61398e-11
3.39113e-12
3.52479e-11
3.9355e-12
3.4245e-11
4.4614e-12
3.31347e-11
4.96738e-12
3.19208e-11
5.45217e-12
3.06074e-11
5.91471e-12
2.91991e-11
6.35406e-12
2.77003e-11
6.76948e-12
2.61159e-11
7.16032e-12
2.44509e-11
7.52612e-12
2.27104e-11
7.86652e-12
2.08998e-11
8.18132e-12
1.90242e-11
8.47042e-12
1.70892e-11
8.73385e-12
1.51002e-11
8.97173e-12
1.30626e-11
9.18425e-12
1.0982e-11
9.37163e-12
8.86392e-12
9.53409e-12
6.71384e-12
9.67159e-12
4.53753e-12
9.78358e-12
2.34109e-12
9.86858e-12
1.31315e-13
9.92412e-12
-2.08453e-12
9.94666e-12
-4.29865e-12
9.93327e-12
-6.50293e-12
9.8821e-12
-8.68934e-12
9.79334e-12
-1.08503e-11
9.66889e-12
-1.29789e-11
9.51115e-12
-1.50685e-11
9.32204e-12
-1.71128e-11
9.10288e-12
-1.91058e-11
8.8546e-12
-2.10417e-11
8.578e-12
-2.29147e-11
8.27388e-12
-2.47194e-11
7.94302e-12
-2.64504e-11
7.5863e-12
-2.81026e-11
7.20463e-12
-2.96711e-11
6.79897e-12
-3.11512e-11
6.37037e-12
-3.25384e-11
5.91993e-12
-3.38286e-11
5.44882e-12
-3.50178e-11
4.95828e-12
-3.61025e-11
4.4496e-12
-3.70792e-11
3.92417e-12
-3.79449e-11
3.38345e-12
-3.86969e-11
2.82898e-12
-3.93329e-11
2.26242e-12
-3.98507e-11
1.68549e-12
-4.02487e-11
1.09993e-12
-4.05253e-11
5.07352e-13
-4.06816e-11
-9.15635e-14
-4.07125e-11
-6.93766e-13
-4.06191e-11
-1.29943e-12
-4.04007e-11
-1.90804e-12
-4.00576e-11
-2.51971e-12
-3.959e-11
-3.13131e-12
-3.89988e-11
-3.74068e-12
-3.82853e-11
-4.34603e-12
-3.74513e-11
-4.94515e-12
-3.64989e-11
-5.53577e-12
-3.54306e-11
-6.11562e-12
-3.42491e-11
-6.68248e-12
-3.29576e-11
-7.23417e-12
-3.15596e-11
-7.76858e-12
-3.00588e-11
-8.28363e-12
-2.84594e-11
-8.77732e-12
-2.67656e-11
-9.24772e-12
-2.49823e-11
-9.69296e-12
-2.31142e-11
-1.01113e-11
-2.11665e-11
-1.05009e-11
-1.91447e-11
-1.08604e-11
-1.70543e-11
-1.1188e-11
-1.49013e-11
-1.14825e-11
-1.26917e-11
-1.17425e-11
-1.04318e-11
-1.19667e-11
-8.1279e-12
-1.21538e-11
-5.78691e-12
-1.23018e-11
-3.4163e-12
-1.24063e-11
-1.02569e-12
-1.24536e-11
1.36891e-12
-1.24008e-11
3.73354e-12
-1.21197e-11
5.98563e-12
-1.12644e-11
7.9313e-12
-9.02605e-12
9.17132e-12
-3.89247e-12
9.06096e-12
5.99954e-12
6.91795e-12
2.04962e-11
3.01391e-12
3.23941e-11
2.35895e-11
-3.09987e-12
2.57953e-11
-7.14649e-12
3.56875e-11
-9.35075e-12
2.2397e-11
-9.43236e-12
6.06884e-12
-8.06753e-12
-5.12127e-12
-5.95515e-12
-1.09277e-11
-3.52031e-12
-1.34424e-11
-9.70259e-13
-1.43767e-11
1.60503e-12
-1.46488e-11
4.16852e-12
-1.4655e-11
6.70255e-12
-1.45425e-11
9.19644e-12
-1.4361e-11
1.16419e-11
-1.41268e-11
1.40317e-11
-1.38455e-11
1.63586e-11
-1.35197e-11
1.86161e-11
-1.31513e-11
2.07976e-11
-1.2742e-11
2.2897e-11
-1.22937e-11
2.49083e-11
-1.18083e-11
2.6826e-11
-1.12879e-11
2.86445e-11
-1.07345e-11
3.03591e-11
-1.01503e-11