/*--------------------------------*- C++ -*----------------------------------*\
| =========                 |                                                 |
| \\      /  F ield         | OpenFOAM: The Open Source CFD Toolbox           |
|  \\    /   O peration     | Version:  2206                                  |
|   \\  /    A nd           | Website:  www.openfoam.com                      |
|    \\/     M anipulation  |                                                 |
\*---------------------------------------------------------------------------*/
FoamFile
{
    version     2.0;
    format      ascii;
    arch        "LSB;label=64;scalar=64";
    class       volScalarField;
    location    "4.4/solid";
    object      T;
}
// * * * * * * * * * * * * * * * * * * * * * * * * * * * * * * * * * * * * * //

dimensions      [0 0 0 1 0 0 0];

internalField   nonuniform List<scalar> 
500
(
1072.57673271
1072.40793925
1072.06884893
1071.55610334
1070.86428194
1069.98703762
1068.91746183
1067.6465028
1066.19039869
1064.7213523
1073.39513844
1073.23187615
1072.9048595
1072.41322617
1071.75629909
1070.93497248
1069.95416904
1068.8260181
1067.57381675
1066.24123773
1074.27534672
1074.11899929
1073.80656326
1073.33874895
1072.71714554
1071.94497471
1071.02812392
1069.975935
1068.80051552
1067.51672281
1075.19275196
1075.0426587
1074.74298492
1074.29486624
1073.70025644
1072.96220072
1072.08507719
1071.07439436
1069.9352769
1068.67244173
1076.13065634
1075.98549865
1075.69566935
1075.26218237
1074.68663015
1073.97123578
1073.118836
1072.13247022
1071.01369553
1069.76210551
1077.07531698
1076.93385662
1076.65130255
1076.22839694
1075.66624701
1074.96630433
1074.13030416
1073.15987205
1072.05468674
1070.81096443
1078.0166519
1077.87797532
1077.60086661
1077.18581283
1076.6335161
1075.94486224
1075.12088716
1074.16246098
1073.06823627
1071.83140588
1078.94758017
1078.8111031
1078.53829762
1078.12945809
1077.58499697
1076.90542191
1076.09134731
1075.1432824
1074.05934178
1072.82982495
1079.86309126
1079.72848587
1079.45935699
1079.05586749
1078.51823782
1077.84673392
1077.04172668
1076.10361805
1075.03035293
1073.80912826
1080.75950591
1080.62662098
1080.36088985
1079.96239136
1079.43122516
1078.76750725
1077.97147441
1077.04358971
1075.9819628
1074.77056469
1081.63396125
1081.50275771
1081.24036333
1080.84680676
1080.32211599
1079.66631583
1078.87956726
1077.96248875
1076.91368324
1075.71386838
1082.48406869
1082.35457259
1082.09557901
1081.70709001
1081.18909579
1080.54156984
1079.76463356
1078.859137
1077.82460078
1076.63856779
1083.30769443
1083.17996401
1082.92449573
1082.54128069
1082.03029396
1081.3914835
1080.6249477
1079.7318095
1078.71300532
1077.54413974
1084.10282519
1083.97692893
1083.72512796
1083.34741224
1082.84375578
1082.21409567
1081.45850255
1080.57834115
1079.5763415
1078.42894977
1084.86748963
1084.74349259
1084.49549199
1084.12348239
1083.62744508
1083.00731519
1082.26312634
1081.39643138
1080.41207864
1079.28998378
1085.59971318
1085.47766919
1085.23357825
1084.86744255
1084.37925539
1083.76895523
1083.03652078
1082.18356427
1081.21708163
1080.12259058
1086.29749082
1086.17743862
1085.93733554
1085.5771929
1085.09701861
1084.49675929
1083.77632983
1082.93728232
1081.98875511
1080.92443533
1086.95876839
1086.84073004
1086.6046592
1086.25057672
1085.77850627
1085.18840621
1084.48012157
1083.65499531
1082.72398103
1081.69226271
1087.58142746
1087.46540819
1087.23337995
1086.88537282
1086.42142605
1085.84151242
1085.14540717
1084.33410858
1083.41984271
1082.42487758
1088.1632714
1088.04926066
1087.8212536
1087.4792888
1087.02342039
1086.45363854
1085.76965927
1084.97203535
1084.07320719
1083.12064554
1088.70201068
1088.5899838
1088.36594825
1088.0299504
1087.5820586
1087.02228314
1086.35029473
1085.56615093
1084.68094697
1083.75968302
1089.19524685
1089.08516677
1088.86502829
1088.53488493
1088.09481855
1087.54486249
1086.88466256
1086.11382457
1085.24160944
1084.33068718
1089.64045638
1089.53227516
1089.31593763
1088.99150388
1088.55906851
1088.01868979
1087.3700048
1086.61220656
1085.75266699
1084.85023851
1090.03497554
1089.92863578
1089.7159841
1089.39708643
1088.97204881
1088.44095436
1087.80344375
1087.05833814
1086.21114566
1085.31711009
1090.37598748
1090.27142368
1090.06232656
1089.74876726
1089.33086205
1088.80871946
1088.18199957
1087.4492083
1086.61404967
1085.72746701
1090.66051224
1090.55765205
1090.3519645
1090.04352524
1089.63245939
1089.11890009
1088.50253735
1087.78160303
1086.95801239
1086.07872434
1090.88540017
1090.78416563
1090.58173151
1090.27817745
1089.87363611
1089.36826415
1088.76179174
1088.05222605
1087.23976085
1086.36672868
1091.0473296
1090.94763818
1090.74829238
1090.44937568
1090.05102791
1089.55342966
1088.95636448
1088.25766711
1087.45584427
1086.58887047
1091.14280935
1091.04457458
1090.84814428
1090.55360595
1090.16110632
1089.67084941
1089.08268091
1088.39431155
1087.60264364
1086.74080385
1091.16818753
1091.07131912
1090.87762389
1090.58719376
1090.20018275
1089.7168187
1089.13701974
1088.45842531
1087.67640182
1086.81959952
1091.11966794
1091.02407169
1090.83292303
1090.54631829
1090.1644189
1089.68747747
1089.11549646
1088.44609487
1087.67311817
1086.82003731
1090.99333452
1090.89891291
1090.71011525
1090.42704134
1090.04985846
1089.57884115
1089.01408058
1088.35322426
1087.58867691
1086.7391803
1090.78518197
1090.6918359
1090.50519011
1090.22534613
1089.85247409
1089.38686486
1088.82869506
1088.17567192
1087.41876372
1086.57123621
1090.49114936
1090.39878081
1090.21408973
1089.93717725
1089.56821288
1089.10749773
1088.5552921
1087.90940248
1087.15935248
1086.3128268
1090.10715355
1090.01566837
1089.83274279
1089.5584755
1089.19303182
1088.73671652
1088.18987189
1087.55046652
1086.80667779
1085.95976185
1089.62912107
1089.53843123
1089.35709451
1089.08520599
1088.7229246
1088.27055385
1087.72851831
1087.09502187
1086.35699928
1085.508678
1089.05301999
1088.96304444
1088.78313446
1088.5133817
1088.15393858
1087.70510526
1087.16739013
1086.53931555
1085.80673995
1084.95531631
1088.37489428
1088.28555809
1088.10692565
1087.83908633
1087.48218754
1087.03652483
1086.50268813
1085.87960422
1085.15234941
1084.2968858
1087.59090441
1087.50213641
1087.32464027
1087.05850533
1086.70387678
1086.26104575
1085.73067894
1085.11219126
1084.39026775
1083.5291912
1086.6973775
1086.60910637
1086.43260563
1086.16796801
1085.81534134
1085.375015
1084.84772672
1084.23345819
1083.51705363
1082.64909759
1085.69086991
1085.60301879
1085.42736208
1085.16400057
1084.81309142
1084.37492715
1083.85030674
1083.23983308
1082.52923166
1081.65268524
1084.56824559
1084.480725
1084.30573644
1084.04339482
1083.69387542
1083.25748174
1082.73506418
1082.12787684
1081.42349046
1080.53733709
1083.32677316
1083.23947215
1083.06493364
1082.80329433
1082.45475909
1082.01965435
1081.49887333
1080.89430984
1080.19650259
1079.30772705
1081.96424514
1081.87702061
1081.70265009
1081.44130068
1081.09322075
1080.65877697
1080.13890334
1079.53607882
1078.84459129
1077.96746493
1080.47912309
1080.3917887
1080.21721653
1079.95561084
1079.60727614
1079.17263976
1078.65268725
1078.05042331
1077.36422084
1076.50617252
1078.87071088
1078.78302975
1078.60778162
1078.34520592
1077.99566211
1077.55964416
1077.03819515
1076.43478653
1075.75204809
1074.9150412
1077.1393476
1077.05103573
1076.87453965
1076.61011438
1076.25813331
1075.81910057
1075.29405204
1074.68680107
1074.00427154
1073.18787776
1075.28655503
1075.19729318
1075.01892975
1074.75170629
1074.39590279
1073.95183485
1073.42024314
1072.80486155
1072.11628071
1071.31546718
1073.31494862
1073.22432881
1073.04349602
1072.77271327
1072.41203064
1071.96121826
1071.42004582
1070.79100185
1070.08560128
1069.28189662
1071.22802368
1071.13497176
1070.9509653
1070.67638896
1070.31109162
1069.85422016
1069.30405587
1068.66089071
1067.93466611
1067.10709603
)
;

boundaryField
{
    symmetric
    {
        type            symmetry;
    }
    emptyPatch
    {
        type            empty;
    }
    solid_to_water
    {
        type            compressible::turbulentTemperatureTwoPhaseRadCoupledMixed;
        refValue        nonuniform List<scalar> 
70
(
422.340667896
421.292860327
419.714996357
417.940285002
414.680940273
408.225507825
393.460195874
364.209521715
342.725595149
337.57414019
342.066953758
343.541661422
343.555981505
343.867921923
343.523988608
343.776541739
343.410482743
343.645562797
343.340865231
343.412384323
343.238955493
342.799797549
341.018518335
339.176457808
337.716765612
336.554455941
335.779594742
335.651517675
336.588113163
341.556200292
377.468229144
395.206517776
394.988435381
408.40735589
401.706039404
412.844307548
404.835017441
414.537181439
406.017827397
414.040899455
406.156909886
413.174730852
406.289961717
412.022966214
406.528933809
411.384103519
406.6318878
410.178467288
407.091393652
408.473326307
403.843168017
387.960941826
357.123271622
344.57883244
340.167272561
338.135298289
337.368102347
337.524208421
339.181344134
334.451067921
334.551438015
334.619260671
334.685824389
334.750381937
334.792003165
334.807314617
334.865351458
335.169649022
342.400565054
336.075093499
)
;
        refGradient     uniform 0;
        valueFraction   nonuniform List<scalar> 
70
(
0.000520152234738
0.000517812182533
0.000518254105735
0.000520071297139
0.000528044391264
0.000549605137621
0.000615880601428
0.000860231270125
0.00131948301051
0.00148985923488
0.000931536588539
0.000926124919622
0.000933185044507
0.000928043074293
0.0009352585238
0.000929547891715
0.000937147148481
0.000932336096319
0.000939261952289
0.000938055191682
0.000941114745388
0.00094382139767
0.000964006903856
0.000973464869411
0.000966618431009
0.000952705261527
0.000940145944659
0.000939178568318
0.000954242611149
0.000964322732216
0.000574852831016
0.000535142766738
0.000574473227373
0.000530903884391
0.000574603955339
0.000532685571205
0.000572914532597
0.000534130356581
0.000572997993531
0.000539790117898
0.000574932351951
0.000545077494436
0.000575343364155
0.000550430969245
0.000575194728005
0.000554986140336
0.000577454993416
0.000562975655969
0.000577581360268
0.000569637895815
0.000578574749773
0.000620106820143
0.000820260643148
0.000948775598369
0.000972152863681
0.000962509199455
0.000956078925695
0.000958134120665
0.000967415190529
0.00148897842479
0.00149481492351
0.001498228308
0.00150139014257
0.00150411925787
0.00150541696379
0.00150538628166
0.0015073257352
0.00151591761859
0.00094965278292
0.00149847430895
)
;
        source          uniform 0;
        value           nonuniform List<scalar> 
70
(
1072.23955403
1072.07181513
1071.73179143
1071.21719507
1070.51879156
1069.62432454
1068.50258847
1067.04314331
1065.23764942
1063.63904086
1064.04920941
1065.57278824
1066.84213195
1068.00074814
1069.08397633
1070.13621088
1071.14999083
1072.15120856
1073.12443776
1074.08600892
1075.02618813
1075.9478014
1076.83644093
1077.71200484
1078.57604821
1079.41717624
1080.22701759
1080.99502236
1081.7171256
1082.41000137
1083.35291567
1083.96052457
1084.4531218
1084.95635273
1085.33372062
1085.7188596
1085.97566172
1086.22880413
1086.35026038
1086.45553027
1086.42833982
1086.37129116
1086.17955974
1085.94105579
1085.56869551
1085.13398967
1084.5633527
1083.91687052
1083.13815074
1082.26455093
1081.26008845
1080.1079992
1078.71836281
1077.2766492
1075.79590212
1074.21153681
1072.49014259
1070.61834762
1068.58150344
1070.1321647
1070.03510138
1069.84895815
1069.57256666
1069.20590866
1068.74882984
1068.19950133
1067.55583548
1066.82499445
1066.42384317
1066.01662734
)
;
        kappaMethod     solidThermo;
        Tnbr            T.liquid;
        region          solid;
        otherPhase      gas;
    }
}


// ************************************************************************* //
