/*--------------------------------*- C++ -*----------------------------------*\
| =========                 |                                                 |
| \\      /  F ield         | OpenFOAM: The Open Source CFD Toolbox           |
|  \\    /   O peration     | Version:  2212                                  |
|   \\  /    A nd           | Website:  www.openfoam.com                      |
|    \\/     M anipulation  |                                                 |
\*---------------------------------------------------------------------------*/
FoamFile
{
    version     2.0;
    format      ascii;
    arch        "LSB;label=64;scalar=64";
    class       volScalarField;
    location    "1540";
    object      Xch;
}
// * * * * * * * * * * * * * * * * * * * * * * * * * * * * * * * * * * * * * //

dimensions      [1 -3 0 0 0 0 0];

internalField   nonuniform List<scalar> 
1024
(
0.0198987
0.0198989
0.0198996
0.0199008
0.0199027
0.0199055
0.0199093
0.0199141
0.0199198
0.0199259
0.0199321
0.0199378
0.0199428
0.019947
0.0199505
0.0199535
0.019955
0.0199534
0.0199484
0.0199406
0.0199308
0.0199198
0.0199089
0.0198987
0.01989
0.019883
0.0198777
0.0198739
0.0198713
0.0198698
0.0198689
0.0198686
0.0198988
0.019899
0.0198997
0.0199009
0.0199029
0.0199058
0.0199096
0.0199145
0.0199202
0.0199263
0.0199325
0.0199383
0.0199432
0.0199474
0.0199509
0.019954
0.0199555
0.0199539
0.019949
0.0199411
0.0199313
0.0199204
0.0199093
0.0198991
0.0198903
0.0198832
0.0198778
0.019874
0.0198714
0.0198699
0.019869
0.0198686
0.019899
0.0198993
0.0199
0.0199013
0.0199033
0.0199062
0.0199102
0.0199152
0.019921
0.0199274
0.0199337
0.0199395
0.0199444
0.0199486
0.0199521
0.0199552
0.0199568
0.0199552
0.0199502
0.0199424
0.0199325
0.0199215
0.0199103
0.0199
0.019891
0.0198838
0.0198783
0.0198743
0.0198717
0.0198701
0.0198692
0.0198689
0.0198995
0.0198998
0.0199005
0.0199018
0.0199039
0.019907
0.0199112
0.0199164
0.0199226
0.0199292
0.0199357
0.0199417
0.0199466
0.0199507
0.0199542
0.0199574
0.0199592
0.0199576
0.0199525
0.0199444
0.0199344
0.0199232
0.0199119
0.0199013
0.0198921
0.0198846
0.019879
0.0198749
0.0198722
0.0198705
0.0198696
0.0198692
0.0199002
0.0199005
0.0199013
0.0199027
0.0199049
0.0199082
0.0199127
0.0199183
0.0199249
0.0199321
0.0199391
0.0199453
0.0199503
0.0199543
0.0199578
0.0199611
0.019963
0.0199613
0.0199559
0.0199475
0.0199371
0.0199256
0.019914
0.0199031
0.0198936
0.0198858
0.0198799
0.0198757
0.0198729
0.0198711
0.0198702
0.0198698
0.0199014
0.0199017
0.0199025
0.0199039
0.0199063
0.0199099
0.0199147
0.0199209
0.0199283
0.0199363
0.019944
0.0199507
0.0199558
0.0199599
0.0199634
0.0199669
0.0199689
0.019967
0.0199608
0.0199516
0.0199406
0.0199286
0.0199165
0.0199052
0.0198954
0.0198873
0.0198811
0.0198767
0.0198738
0.019872
0.019871
0.0198707
0.019903
0.0199033
0.0199041
0.0199057
0.0199083
0.0199122
0.0199176
0.0199246
0.0199329
0.0199421
0.019951
0.0199584
0.0199639
0.0199679
0.0199716
0.0199754
0.0199775
0.019975
0.0199677
0.0199571
0.0199449
0.019932
0.0199194
0.0199076
0.0198973
0.019889
0.0198826
0.019878
0.019875
0.0198732
0.0198722
0.0198718
0.0199054
0.0199057
0.0199065
0.0199082
0.019911
0.0199153
0.0199214
0.0199294
0.0199392
0.0199499
0.0199602
0.0199687
0.0199748
0.0199792
0.0199832
0.0199874
0.0199895
0.019986
0.0199768
0.0199642
0.0199502
0.019936
0.0199224
0.01991
0.0198993
0.0198907
0.0198842
0.0198796
0.0198766
0.0198748
0.0198738
0.0198735
0.0199087
0.0199091
0.01991
0.0199117
0.0199148
0.0199196
0.0199266
0.0199359
0.0199474
0.01996
0.0199721
0.019982
0.0199891
0.0199943
0.019999
0.0200038
0.0200058
0.0200007
0.019989
0.0199733
0.0199567
0.0199406
0.0199257
0.0199125
0.0199014
0.0198927
0.0198862
0.0198817
0.0198788
0.0198771
0.0198763
0.0198759
0.0199136
0.0199139
0.0199148
0.0199168
0.0199202
0.0199256
0.0199337
0.0199445
0.019958
0.0199728
0.0199871
0.0199988
0.0200073
0.0200137
0.0200197
0.0200254
0.0200272
0.0200201
0.0200052
0.0199858
0.0199657
0.0199468
0.0199301
0.0199158
0.0199043
0.0198955
0.0198892
0.019885
0.0198824
0.019881
0.0198804
0.0198802
0.0199205
0.0199208
0.0199219
0.019924
0.0199278
0.0199341
0.0199433
0.019956
0.0199717
0.0199889
0.0200055
0.0200193
0.0200298
0.0200382
0.0200462
0.0200533
0.0200551
0.0200464
0.0200284
0.0200051
0.0199807
0.0199581
0.0199386
0.0199227
0.0199105
0.0199015
0.0198955
0.0198917
0.0198897
0.0198888
0.0198885
0.0198884
0.0199301
0.0199305
0.0199317
0.0199341
0.0199385
0.0199457
0.0199565
0.0199711
0.0199892
0.0200091
0.0200281
0.0200443
0.0200574
0.0200686
0.0200793
0.0200887
0.0200918
0.0200833
0.0200643
0.0200386
0.0200104
0.0199834
0.0199599
0.0199409
0.0199268
0.019917
0.0199108
0.0199075
0.019906
0.0199057
0.0199059
0.0199061
0.0199431
0.0199435
0.0199449
0.0199478
0.0199529
0.0199614
0.0199739
0.0199908
0.0200115
0.0200339
0.0200554
0.0200743
0.0200904
0.0201052
0.0201196
0.0201327
0.0201396
0.0201356
0.0201207
0.0200975
0.0200694
0.0200399
0.0200122
0.0199884
0.01997
0.019957
0.0199489
0.0199447
0.0199432
0.0199431
0.0199435
0.0199439
0.0199592
0.0199597
0.0199613
0.0199647
0.0199707
0.0199805
0.0199947
0.0200138
0.0200367
0.0200614
0.0200854
0.0201072
0.020127
0.020146
0.020165
0.0201831
0.020197
0.0202023
0.0201983
0.0201856
0.0201659
0.0201414
0.0201147
0.0200885
0.0200653
0.0200465
0.020033
0.0200245
0.0200201
0.0200184
0.0200181
0.0200183
0.0199771
0.0199777
0.0199794
0.0199831
0.0199898
0.0200004
0.0200158
0.0200362
0.0200606
0.0200872
0.0201137
0.0201386
0.0201619
0.0201844
0.0202069
0.0202291
0.0202491
0.0202645
0.0202741
0.0202776
0.0202746
0.0202652
0.0202503
0.0202314
0.0202105
0.02019
0.0201721
0.0201581
0.0201485
0.020143
0.0201404
0.0201396
0.0199948
0.0199954
0.0199971
0.0200008
0.0200074
0.020018
0.0200335
0.020054
0.0200789
0.0201064
0.0201344
0.0201612
0.0201861
0.0202092
0.0202308
0.0202512
0.0202701
0.0202882
0.0203057
0.0203217
0.0203348
0.0203435
0.020347
0.020345
0.0203382
0.0203277
0.0203153
0.0203032
0.0202932
0.020286
0.0202819
0.0202803
0.0200091
0.0200096
0.0200112
0.0200146
0.0200206
0.0200302
0.0200444
0.0200635
0.0200871
0.0201137
0.0201413
0.0201678
0.0201915
0.0202117
0.020228
0.0202406
0.0202508
0.020263
0.0202796
0.0202997
0.0203211
0.0203414
0.0203586
0.0203715
0.0203797
0.0203832
0.0203829
0.02038
0.0203759
0.0203721
0.0203694
0.0203682
0.0200185
0.020019
0.0200204
0.0200233
0.0200284
0.0200367
0.020049
0.0200658
0.020087
0.0201114
0.0201371
0.0201619
0.0201836
0.0202007
0.0202121
0.0202179
0.0202204
0.0202259
0.020239
0.0202595
0.0202849
0.0203121
0.0203378
0.0203598
0.0203768
0.0203887
0.0203959
0.0203993
0.0204002
0.0203997
0.0203988
0.0203983
0.020024
0.0200244
0.0200257
0.0200281
0.0200325
0.0200394
0.0200498
0.0200642
0.0200826
0.0201042
0.0201275
0.0201502
0.02017
0.0201851
0.0201941
0.0201968
0.0201958
0.020198
0.0202082
0.0202274
0.0202542
0.0202855
0.0203176
0.020347
0.0203713
0.0203893
0.0204014
0.0204084
0.0204118
0.0204128
0.0204128
0.0204125
0.020027
0.0200274
0.0200284
0.0200305
0.0200342
0.02004
0.0200487
0.0200608
0.0200765
0.0200952
0.0201156
0.020136
0.0201541
0.020168
0.0201763
0.0201789
0.0201783
0.0201805
0.0201898
0.0202077
0.0202336
0.0202657
0.0203007
0.0203349
0.0203648
0.0203884
0.0204052
0.0204156
0.0204212
0.0204235
0.0204239
0.0204238
0.0200288
0.0200291
0.02003
0.0200317
0.0200347
0.0200395
0.0200467
0.0200568
0.02007
0.0200859
0.0201035
0.0201215
0.0201379
0.0201512
0.0201601
0.0201646
0.0201669
0.0201717
0.0201821
0.0201996
0.0202243
0.0202554
0.0202905
0.0203264
0.0203596
0.0203873
0.020408
0.0204217
0.0204295
0.020433
0.020434
0.020434
0.020031
0.0200312
0.0200317
0.0200329
0.0200352
0.020039
0.0200448
0.0200531
0.020064
0.0200774
0.0200925
0.0201083
0.0201235
0.0201368
0.0201474
0.0201554
0.0201623
0.020171
0.0201835
0.0202013
0.020225
0.0202542
0.0202877
0.0203229
0.0203569
0.0203868
0.0204104
0.0204268
0.0204368
0.0204416
0.0204432
0.0204433
0.0200357
0.0200356
0.0200356
0.020036
0.0200372
0.0200398
0.0200442
0.0200509
0.02006
0.0200714
0.0200847
0.0200992
0.020114
0.0201283
0.0201415
0.0201538
0.0201659
0.0201788
0.0201935
0.0202116
0.0202338
0.0202607
0.0202915
0.0203245
0.0203574
0.0203876
0.0204128
0.0204314
0.0204432
0.0204493
0.0204515
0.0204518
0.0200451
0.0200446
0.0200437
0.020043
0.0200428
0.020044
0.020047
0.0200523
0.0200602
0.0200706
0.0200833
0.0200977
0.0201133
0.0201295
0.0201459
0.0201625
0.0201792
0.0201954
0.0202116
0.0202294
0.0202498
0.0202737
0.020301
0.0203307
0.0203612
0.0203902
0.0204156
0.0204355
0.0204489
0.0204562
0.0204591
0.0204596
0.0200611
0.0200601
0.0200582
0.0200562
0.0200546
0.0200545
0.0200564
0.0200611
0.0200687
0.0200793
0.0200925
0.020108
0.0201253
0.0201437
0.0201628
0.0201827
0.0202025
0.0202204
0.020237
0.0202537
0.0202718
0.0202924
0.0203157
0.0203414
0.0203684
0.020395
0.0204194
0.0204396
0.0204539
0.0204624
0.020466
0.0204667
0.0200853
0.0200836
0.0200808
0.0200777
0.0200754
0.0200748
0.0200766
0.0200817
0.0200901
0.0201017
0.0201163
0.0201332
0.0201519
0.0201718
0.0201924
0.0202138
0.0202345
0.0202526
0.0202684
0.0202833
0.0202988
0.0203158
0.0203349
0.0203561
0.020379
0.0204023
0.0204246
0.020444
0.0204587
0.0204679
0.0204721
0.0204731
0.0201183
0.020116
0.0201127
0.0201097
0.0201079
0.0201083
0.0201114
0.0201178
0.0201276
0.0201405
0.020156
0.0201736
0.0201926
0.0202124
0.0202328
0.0202535
0.0202733
0.02029
0.020304
0.0203167
0.0203294
0.0203429
0.0203578
0.0203746
0.0203929
0.0204123
0.0204316
0.0204492
0.0204634
0.0204729
0.0204776
0.0204788
0.0201607
0.020158
0.0201552
0.0201538
0.0201544
0.0201572
0.0201625
0.0201706
0.0201814
0.0201946
0.0202098
0.0202265
0.0202442
0.0202623
0.0202806
0.0202989
0.0203161
0.0203303
0.020342
0.0203522
0.0203621
0.0203723
0.0203835
0.020396
0.0204099
0.0204249
0.0204405
0.0204555
0.0204684
0.0204775
0.0204825
0.020484
0.020213
0.0202106
0.0202099
0.0202117
0.0202157
0.0202214
0.0202285
0.0202374
0.0202479
0.02026
0.0202733
0.0202875
0.0203023
0.0203172
0.020332
0.0203467
0.0203603
0.0203715
0.0203804
0.0203881
0.0203953
0.0204026
0.0204105
0.0204193
0.0204291
0.02044
0.0204515
0.0204633
0.0204739
0.0204821
0.0204868
0.0204884
0.0202766
0.0202757
0.0202785
0.0202838
0.0202903
0.0202974
0.0203048
0.0203128
0.0203215
0.0203309
0.020341
0.0203515
0.0203623
0.0203731
0.0203838
0.0203942
0.0204038
0.0204116
0.0204178
0.020423
0.0204278
0.0204326
0.0204377
0.0204434
0.0204496
0.0204567
0.0204644
0.0204724
0.0204802
0.0204867
0.0204908
0.0204923
0.0203541
0.020356
0.0203614
0.0203675
0.0203736
0.0203794
0.0203849
0.0203904
0.0203959
0.0204018
0.0204079
0.0204142
0.0204206
0.0204269
0.0204332
0.0204392
0.0204448
0.0204493
0.0204528
0.0204558
0.0204585
0.0204612
0.0204639
0.020467
0.0204704
0.0204742
0.0204784
0.0204829
0.0204875
0.0204916
0.0204944
0.0204957
0.0204488
0.0204502
0.0204531
0.0204557
0.0204582
0.0204604
0.0204625
0.0204644
0.0204663
0.0204682
0.0204702
0.0204723
0.0204744
0.0204764
0.0204785
0.0204804
0.0204822
0.0204837
0.0204848
0.0204857
0.0204866
0.0204874
0.0204883
0.0204892
0.0204903
0.0204915
0.0204928
0.0204942
0.0204956
0.020497
0.020498
0.0204985
)
;

boundaryField
{
    movingWall
    {
        type            fixedValue;
        value           uniform 0.0205;
    }
    fixedWalls
    {
        type            zeroGradient;
    }
    floor
    {
        type            zeroGradient;
    }
    frontAndBack
    {
        type            empty;
    }
}


// ************************************************************************* //
