/*--------------------------------*- C++ -*----------------------------------*\
| =========                 |                                                 |
| \\      /  F ield         | OpenFOAM: The Open Source CFD Toolbox           |
|  \\    /   O peration     | Version:  2212                                  |
|   \\  /    A nd           | Website:  www.openfoam.com                      |
|    \\/     M anipulation  |                                                 |
\*---------------------------------------------------------------------------*/
FoamFile
{
    version     2.0;
    format      ascii;
    arch        "LSB;label=64;scalar=64";
    class       volScalarField::Internal;
    location    "140";
    object      dGco2;
}
// * * * * * * * * * * * * * * * * * * * * * * * * * * * * * * * * * * * * * //

dimensions      [1 -3 -1 0 0 0 0];

value           nonuniform List<scalar> 
1024
(
0.000195839
0.000195834
0.000195853
0.000195895
0.000195957
0.000196035
0.000196121
0.000196211
0.000196301
0.00019639
0.000196481
0.000196578
0.000196681
0.000196793
0.000196909
0.000197024
0.000197101
0.000197113
0.000197067
0.00019698
0.000196863
0.000196724
0.000196567
0.000196394
0.000196206
0.000196016
0.00019584
0.000195692
0.00019558
0.000195506
0.000195464
0.000195446
0.000195823
0.00019583
0.000195854
0.0001959
0.000195964
0.000196043
0.00019613
0.000196221
0.000196312
0.000196403
0.000196495
0.000196593
0.000196699
0.000196813
0.000196932
0.000197049
0.000197128
0.000197141
0.000197095
0.000197007
0.00019689
0.000196751
0.000196594
0.000196421
0.000196233
0.000196041
0.000195861
0.000195709
0.000195593
0.000195515
0.000195471
0.000195452
0.000195816
0.000195828
0.000195857
0.000195906
0.000195973
0.000196054
0.000196144
0.000196239
0.000196336
0.000196433
0.000196531
0.000196634
0.000196745
0.000196866
0.000196993
0.000197117
0.000197198
0.000197209
0.000197159
0.000197068
0.000196948
0.000196808
0.00019665
0.000196477
0.000196289
0.000196094
0.000195907
0.000195745
0.00019562
0.000195536
0.000195487
0.000195467
0.000195813
0.000195827
0.000195858
0.00019591
0.000195981
0.000196066
0.000196161
0.000196265
0.000196374
0.000196486
0.000196597
0.000196712
0.000196837
0.000196972
0.000197114
0.000197251
0.000197332
0.000197334
0.000197272
0.00019717
0.000197041
0.000196895
0.000196735
0.000196561
0.000196372
0.000196173
0.000195977
0.000195803
0.000195664
0.000195569
0.000195515
0.000195492
0.000195811
0.000195825
0.000195857
0.00019591
0.000195984
0.000196074
0.000196178
0.000196295
0.000196424
0.00019656
0.000196697
0.000196838
0.000196989
0.000197152
0.000197322
0.000197479
0.000197558
0.000197538
0.000197449
0.000197322
0.000197174
0.000197014
0.000196845
0.000196667
0.000196476
0.000196273
0.000196067
0.000195877
0.000195723
0.000195615
0.000195553
0.000195527
0.000195806
0.00019582
0.000195852
0.000195905
0.00019598
0.000196075
0.00019619
0.000196326
0.000196482
0.000196653
0.000196832
0.000197016
0.000197213
0.000197425
0.000197642
0.000197832
0.000197904
0.000197844
0.000197707
0.000197535
0.000197352
0.000197165
0.000196979
0.00019679
0.000196592
0.000196382
0.000196166
0.000195962
0.000195791
0.000195669
0.000195599
0.000195571
0.000195797
0.000195811
0.000195842
0.000195894
0.00019597
0.000196069
0.000196195
0.000196351
0.000196538
0.000196755
0.000196992
0.000197244
0.000197515
0.000197805
0.000198097
0.000198339
0.000198395
0.00019827
0.000198056
0.000197816
0.000197576
0.000197347
0.00019713
0.000196921
0.00019671
0.000196491
0.000196264
0.000196046
0.000195861
0.000195727
0.00019565
0.000195619
0.000195784
0.000195798
0.000195827
0.000195878
0.000195952
0.000196053
0.000196188
0.000196363
0.000196584
0.000196854
0.000197167
0.000197513
0.000197891
0.000198298
0.000198702
0.000199014
0.000199042
0.000198816
0.000198493
0.000198155
0.000197838
0.00019755
0.000197291
0.000197052
0.000196821
0.000196588
0.000196349
0.000196119
0.000195923
0.000195782
0.0001957
0.000195668
0.000195765
0.000195778
0.000195807
0.000195854
0.000195926
0.000196027
0.000196167
0.000196358
0.000196613
0.000196942
0.000197345
0.000197811
0.000198335
0.000198903
0.000199458
0.000199855
0.000199825
0.000199453
0.000198982
0.000198522
0.00019811
0.000197752
0.000197442
0.000197168
0.000196913
0.000196662
0.000196411
0.000196174
0.000195972
0.000195828
0.000195745
0.000195713
0.000195739
0.000195752
0.000195779
0.000195823
0.000195891
0.000195989
0.00019613
0.000196333
0.000196621
0.000197013
0.000197518
0.00019813
0.000198839
0.000199615
0.000200356
0.000200833
0.000200684
0.000200099
0.000199444
0.000198846
0.000198336
0.000197911
0.000197554
0.000197248
0.00019697
0.000196705
0.000196446
0.000196205
0.000196005
0.000195864
0.000195783
0.000195751
0.000195703
0.000195716
0.000195741
0.000195783
0.000195845
0.000195938
0.000196077
0.000196289
0.000196607
0.000197064
0.000197683
0.000198465
0.000199398
0.000200425
0.000201373
0.000201885
0.000201506
0.000200617
0.000199746
0.000199018
0.000198433
0.000197963
0.000197581
0.00019726
0.000196973
0.000196702
0.000196442
0.000196205
0.000196013
0.000195879
0.000195803
0.000195773
0.000195655
0.000195667
0.000195692
0.00019573
0.000195787
0.000195873
0.000196008
0.000196225
0.000196571
0.000197094
0.000197836
0.000198812
0.000200009
0.000201325
0.000202474
0.000202921
0.00020213
0.000200809
0.000199711
0.000198896
0.000198292
0.000197833
0.000197471
0.000197171
0.000196903
0.00019665
0.000196409
0.000196193
0.000196018
0.000195895
0.000195824
0.000195794
0.000195592
0.000195604
0.000195627
0.000195664
0.000195716
0.000195795
0.000195922
0.00019614
0.000196508
0.000197097
0.000197971
0.000199166
0.000200664
0.0002023
0.000203622
0.000203848
0.000202388
0.000200477
0.000199165
0.000198348
0.000197819
0.000197452
0.000197174
0.000196941
0.000196721
0.000196503
0.000196292
0.000196102
0.00019595
0.000195845
0.000195784
0.000195758
0.000195516
0.000195527
0.00019555
0.000195584
0.000195632
0.000195702
0.000195818
0.000196029
0.000196411
0.000197059
0.00019807
0.000199507
0.000201346
0.000203332
0.000204792
0.000204625
0.00020221
0.000199527
0.000198045
0.000197341
0.00019699
0.000196804
0.000196689
0.000196591
0.00019648
0.000196345
0.000196197
0.000196054
0.000195933
0.000195844
0.000195788
0.000195761
0.00019543
0.000195441
0.000195461
0.000195491
0.000195531
0.000195588
0.000195682
0.00019587
0.000196247
0.000196939
0.000198083
0.000199781
0.000202004
0.000204394
0.000206015
0.000205381
0.000201808
0.000198176
0.000196551
0.000196043
0.00019592
0.000195933
0.00019599
0.000196044
0.000196059
0.000196022
0.000195942
0.000195846
0.000195756
0.000195684
0.000195635
0.00019561
0.000195331
0.00019534
0.000195356
0.000195376
0.000195396
0.000195419
0.000195464
0.000195596
0.00019593
0.000196628
0.000197878
0.000199832
0.000202483
0.000205403
0.0002074
0.00020654
0.000201874
0.000197124
0.000195264
0.000194943
0.000195047
0.000195219
0.000195368
0.000195484
0.000195569
0.000195627
0.000195656
0.000195658
0.000195635
0.000195597
0.000195558
0.000195535
0.00019517
0.000195177
0.000195185
0.000195185
0.000195167
0.000195127
0.000195087
0.000195115
0.000195344
0.000195965
0.000197217
0.000199323
0.000202367
0.00020599
0.000208904
0.000208697
0.000203632
0.000197563
0.000194939
0.000194491
0.000194763
0.000195185
0.00019554
0.000195763
0.000195843
0.000195801
0.000195672
0.000195499
0.000195333
0.000195213
0.000195148
0.000195125
0.000194967
0.000194971
0.000194968
0.000194946
0.000194887
0.000194782
0.000194647
0.000194543
0.000194595
0.000195001
0.00019603
0.000197991
0.000201142
0.000205418
0.000209819
0.000211767
0.00020813
0.000201217
0.000196741
0.000194803
0.000194075
0.000193889
0.000193882
0.000193904
0.000193922
0.000193973
0.000194125
0.000194428
0.000194877
0.000195379
0.000195792
0.000196006
0.000194774
0.000194775
0.000194767
0.000194731
0.00019465
0.00019451
0.000194317
0.000194118
0.000194006
0.00019415
0.000194807
0.00019632
0.000199095
0.00020343
0.000208981
0.000213828
0.000214085
0.00020908
0.00020385
0.000200452
0.00019838
0.00019725
0.000196784
0.000196831
0.000197331
0.000198251
0.000199545
0.000201079
0.000202637
0.000203961
0.000204846
0.000205237
0.000194616
0.000194616
0.000194605
0.000194566
0.000194482
0.000194335
0.000194128
0.000193889
0.000193687
0.000193649
0.000193986
0.000195019
0.00019719
0.000200975
0.000206561
0.000213132
0.000217651
0.000217397
0.000214738
0.000212468
0.000211069
0.000210549
0.000210794
0.000211623
0.000212875
0.000214374
0.000215945
0.0002174
0.000218561
0.000219325
0.000219721
0.000219856
0.0001945
0.000194498
0.000194486
0.00019445
0.000194373
0.00019424
0.000194047
0.000193814
0.000193591
0.000193475
0.000193637
0.000194357
0.000196057
0.00019923
0.0002042
0.000210752
0.000217171
0.000220866
0.000221977
0.000222403
0.000223032
0.00022409
0.000225548
0.000227196
0.000228832
0.000230236
0.000231242
0.000231779
0.000231877
0.000231682
0.000231415
0.00023125
0.000194432
0.000194426
0.00019441
0.000194376
0.000194309
0.000194197
0.000194034
0.000193835
0.000193638
0.00019353
0.000193661
0.000194278
0.000195766
0.00019858
0.000203007
0.000208917
0.000215251
0.000220283
0.000223529
0.00022585
0.000227911
0.000229954
0.000231995
0.000233895
0.000235536
0.000236803
0.000237631
0.000238018
0.000238028
0.000237789
0.000237484
0.000237288
0.000194457
0.000194438
0.000194403
0.000194354
0.000194287
0.000194191
0.000194061
0.00019391
0.000193778
0.000193755
0.000193995
0.000194728
0.000196275
0.000199006
0.000203131
0.00020847
0.000214135
0.00021898
0.00022267
0.000225611
0.000228175
0.000230531
0.000232721
0.000234721
0.000236493
0.000237982
0.000239128
0.000239889
0.000240269
0.000240334
0.000240221
0.000240098
0.000194733
0.000194674
0.000194574
0.000194461
0.000194351
0.000194246
0.000194142
0.000194055
0.000194041
0.000194207
0.000194721
0.00019579
0.000197646
0.000200524
0.000204521
0.000209426
0.000214434
0.000218678
0.000222042
0.000224849
0.000227346
0.000229662
0.000231856
0.000233956
0.000235954
0.000237785
0.000239338
0.000240509
0.000241249
0.000241589
0.000241646
0.000241591
0.000195567
0.000195426
0.000195183
0.00019491
0.000194673
0.000194504
0.000194417
0.00019444
0.000194647
0.000195162
0.000196139
0.000197728
0.000200043
0.000203174
0.00020712
0.000211655
0.000216082
0.000219721
0.000222583
0.000224992
0.000227177
0.000229259
0.000231311
0.000233374
0.000235454
0.000237483
0.000239325
0.000240824
0.000241868
0.000242442
0.000242639
0.000242635
0.000197362
0.000197094
0.000196626
0.000196092
0.000195638
0.000195361
0.000195315
0.000195546
0.000196129
0.000197164
0.000198743
0.000200916
0.000203679
0.000207005
0.00021084
0.000214987
0.000218868
0.000221961
0.00022434
0.000226319
0.000228126
0.000229889
0.000231684
0.000233554
0.000235512
0.000237511
0.000239431
0.000241103
0.000242363
0.000243132
0.000243455
0.000243497
0.000200474
0.00020006
0.000199355
0.000198557
0.000197895
0.000197556
0.00019764
0.000198199
0.000199271
0.00020088
0.00020302
0.000205642
0.000208659
0.000211983
0.000215547
0.000219217
0.00022254
0.000225125
0.00022707
0.000228657
0.000230096
0.000231515
0.000232989
0.000234562
0.000236252
0.000238035
0.000239829
0.000241489
0.000242836
0.000243733
0.000244163
0.000244252
0.000205105
0.000204584
0.000203774
0.00020291
0.000202239
0.000202003
0.000202326
0.000203242
0.00020473
0.000206733
0.000209163
0.00021191
0.00021486
0.000217913
0.000221018
0.000224101
0.00022683
0.000228919
0.000230466
0.000231702
0.000232805
0.000233891
0.000235027
0.000236257
0.000237601
0.000239056
0.000240578
0.000242064
0.000243356
0.00024429
0.000244789
0.000244922
0.000211315
0.000210808
0.000210195
0.000209627
0.00020925
0.000209281
0.000209842
0.000210955
0.000212572
0.000214595
0.000216907
0.000219389
0.000221936
0.00022447
0.000226957
0.000229365
0.000231467
0.000233061
0.000234229
0.000235146
0.00023595
0.000236733
0.000237551
0.000238439
0.000239419
0.000240499
0.000241665
0.000242861
0.00024397
0.000244838
0.000245351
0.000245515
0.000219153
0.000218871
0.000218788
0.000218777
0.00021883
0.000219111
0.000219743
0.000220766
0.000222144
0.000223795
0.000225618
0.000227517
0.000229416
0.000231262
0.000233036
0.000234727
0.000236191
0.000237297
0.000238102
0.000238726
0.000239265
0.000239781
0.000240316
0.000240897
0.000241538
0.000242251
0.000243039
0.000243879
0.000244707
0.000245409
0.000245867
0.000246037
0.000228831
0.000228974
0.000229403
0.00022976
0.000230039
0.000230363
0.000230839
0.000231518
0.000232396
0.000233424
0.000234543
0.000235691
0.000236826
0.000237917
0.000238954
0.000239935
0.00024078
0.000241418
0.00024188
0.000242237
0.00024254
0.000242827
0.000243121
0.000243439
0.000243789
0.000244179
0.000244614
0.00024509
0.000245583
0.000246032
0.000246357
0.000246497
0.000240696
0.000240857
0.000241135
0.000241345
0.000241495
0.000241634
0.000241806
0.000242036
0.000242329
0.000242669
0.000243038
0.000243415
0.000243785
0.00024414
0.000244475
0.000244791
0.000245064
0.000245269
0.000245418
0.000245532
0.000245628
0.000245719
0.000245811
0.00024591
0.000246019
0.000246139
0.000246274
0.000246423
0.000246581
0.000246731
0.00024685
0.000246908
)
;


// ************************************************************************* //
