/*--------------------------------*- C++ -*----------------------------------*\
| =========                 |                                                 |
| \\      /  F ield         | OpenFOAM: The Open Source CFD Toolbox           |
|  \\    /   O peration     | Version:  2212                                  |
|   \\  /    A nd           | Website:  www.openfoam.com                      |
|    \\/     M anipulation  |                                                 |
\*---------------------------------------------------------------------------*/
FoamFile
{
    version     2.0;
    format      ascii;
    arch        "LSB;label=64;scalar=64";
    class       volScalarField;
    location    "140";
    object      Gh2;
}
// * * * * * * * * * * * * * * * * * * * * * * * * * * * * * * * * * * * * * //

dimensions      [1 -3 0 0 0 0 0];

internalField   nonuniform List<scalar> 
1024
(
1.17173e-05
1.17171e-05
1.17167e-05
1.17161e-05
1.17153e-05
1.17142e-05
1.17131e-05
1.17119e-05
1.17107e-05
1.17095e-05
1.17083e-05
1.17069e-05
1.17054e-05
1.17038e-05
1.17022e-05
1.17005e-05
1.16994e-05
1.16991e-05
1.16997e-05
1.17009e-05
1.17024e-05
1.17043e-05
1.17065e-05
1.17089e-05
1.17115e-05
1.17141e-05
1.17166e-05
1.17186e-05
1.17201e-05
1.17212e-05
1.17218e-05
1.1722e-05
1.17173e-05
1.17171e-05
1.17167e-05
1.1716e-05
1.17152e-05
1.17141e-05
1.1713e-05
1.17118e-05
1.17106e-05
1.17094e-05
1.17081e-05
1.17067e-05
1.17052e-05
1.17036e-05
1.17019e-05
1.17002e-05
1.1699e-05
1.16987e-05
1.16993e-05
1.17005e-05
1.17021e-05
1.1704e-05
1.17061e-05
1.17085e-05
1.17111e-05
1.17138e-05
1.17163e-05
1.17184e-05
1.172e-05
1.1721e-05
1.17217e-05
1.17219e-05
1.17172e-05
1.1717e-05
1.17166e-05
1.1716e-05
1.17151e-05
1.1714e-05
1.17128e-05
1.17116e-05
1.17103e-05
1.1709e-05
1.17076e-05
1.17062e-05
1.17046e-05
1.17029e-05
1.17011e-05
1.16993e-05
1.1698e-05
1.16978e-05
1.16984e-05
1.16997e-05
1.17013e-05
1.17032e-05
1.17054e-05
1.17077e-05
1.17103e-05
1.1713e-05
1.17156e-05
1.17179e-05
1.17196e-05
1.17208e-05
1.17214e-05
1.17217e-05
1.17172e-05
1.1717e-05
1.17166e-05
1.17159e-05
1.1715e-05
1.17139e-05
1.17126e-05
1.17113e-05
1.17098e-05
1.17083e-05
1.17068e-05
1.17052e-05
1.17034e-05
1.17015e-05
1.16994e-05
1.16975e-05
1.16962e-05
1.16961e-05
1.16969e-05
1.16983e-05
1.17e-05
1.1702e-05
1.17042e-05
1.17066e-05
1.17092e-05
1.17119e-05
1.17147e-05
1.17171e-05
1.1719e-05
1.17203e-05
1.17211e-05
1.17214e-05
1.17172e-05
1.1717e-05
1.17166e-05
1.17159e-05
1.1715e-05
1.17138e-05
1.17125e-05
1.17109e-05
1.17092e-05
1.17074e-05
1.17055e-05
1.17036e-05
1.17014e-05
1.16991e-05
1.16966e-05
1.16944e-05
1.16932e-05
1.16934e-05
1.16945e-05
1.16962e-05
1.16982e-05
1.17004e-05
1.17027e-05
1.17051e-05
1.17078e-05
1.17106e-05
1.17134e-05
1.1716e-05
1.17182e-05
1.17197e-05
1.17205e-05
1.17209e-05
1.17173e-05
1.17171e-05
1.17167e-05
1.1716e-05
1.1715e-05
1.17138e-05
1.17124e-05
1.17106e-05
1.17086e-05
1.17063e-05
1.17038e-05
1.17012e-05
1.16985e-05
1.16954e-05
1.16923e-05
1.16896e-05
1.16885e-05
1.16892e-05
1.1691e-05
1.16933e-05
1.16958e-05
1.16983e-05
1.17009e-05
1.17035e-05
1.17062e-05
1.17091e-05
1.1712e-05
1.17149e-05
1.17172e-05
1.17189e-05
1.17199e-05
1.17203e-05
1.17174e-05
1.17172e-05
1.17168e-05
1.17161e-05
1.17152e-05
1.1714e-05
1.17124e-05
1.17104e-05
1.17079e-05
1.1705e-05
1.17018e-05
1.16983e-05
1.16944e-05
1.16903e-05
1.16861e-05
1.16827e-05
1.16817e-05
1.16834e-05
1.16862e-05
1.16895e-05
1.16927e-05
1.16958e-05
1.16988e-05
1.17017e-05
1.17046e-05
1.17076e-05
1.17107e-05
1.17137e-05
1.17163e-05
1.17181e-05
1.17192e-05
1.17196e-05
1.17176e-05
1.17174e-05
1.1717e-05
1.17164e-05
1.17155e-05
1.17142e-05
1.17126e-05
1.17103e-05
1.17074e-05
1.17038e-05
1.16996e-05
1.16947e-05
1.16894e-05
1.16836e-05
1.16779e-05
1.16734e-05
1.16729e-05
1.16759e-05
1.16802e-05
1.16848e-05
1.16892e-05
1.16931e-05
1.16966e-05
1.16999e-05
1.1703e-05
1.17063e-05
1.17095e-05
1.17127e-05
1.17154e-05
1.17174e-05
1.17185e-05
1.1719e-05
1.17178e-05
1.17177e-05
1.17173e-05
1.17167e-05
1.17159e-05
1.17147e-05
1.17129e-05
1.17105e-05
1.17072e-05
1.17028e-05
1.16973e-05
1.16908e-05
1.16834e-05
1.16754e-05
1.16675e-05
1.16618e-05
1.16621e-05
1.16671e-05
1.16735e-05
1.16798e-05
1.16854e-05
1.16903e-05
1.16946e-05
1.16983e-05
1.17018e-05
1.17052e-05
1.17087e-05
1.1712e-05
1.17148e-05
1.17168e-05
1.17179e-05
1.17184e-05
1.17182e-05
1.17181e-05
1.17177e-05
1.17172e-05
1.17164e-05
1.17152e-05
1.17135e-05
1.1711e-05
1.17072e-05
1.1702e-05
1.16951e-05
1.16866e-05
1.16766e-05
1.16656e-05
1.16551e-05
1.16483e-05
1.16502e-05
1.16582e-05
1.16672e-05
1.16754e-05
1.16823e-05
1.16882e-05
1.16931e-05
1.16972e-05
1.1701e-05
1.17047e-05
1.17082e-05
1.17116e-05
1.17143e-05
1.17163e-05
1.17174e-05
1.17178e-05
1.17188e-05
1.17186e-05
1.17183e-05
1.17178e-05
1.17171e-05
1.1716e-05
1.17143e-05
1.17117e-05
1.17076e-05
1.17014e-05
1.1693e-05
1.16821e-05
1.16689e-05
1.16544e-05
1.1641e-05
1.16337e-05
1.16389e-05
1.1651e-05
1.1663e-05
1.1673e-05
1.1681e-05
1.16875e-05
1.16927e-05
1.16971e-05
1.1701e-05
1.17047e-05
1.17083e-05
1.17116e-05
1.17142e-05
1.17161e-05
1.17171e-05
1.17175e-05
1.17195e-05
1.17194e-05
1.17191e-05
1.17186e-05
1.1718e-05
1.1717e-05
1.17154e-05
1.17127e-05
1.17082e-05
1.17012e-05
1.1691e-05
1.16773e-05
1.16605e-05
1.1642e-05
1.16258e-05
1.16194e-05
1.16303e-05
1.16484e-05
1.16635e-05
1.16747e-05
1.1683e-05
1.16893e-05
1.16943e-05
1.16984e-05
1.1702e-05
1.17055e-05
1.17088e-05
1.17118e-05
1.17142e-05
1.17159e-05
1.17168e-05
1.17172e-05
1.17205e-05
1.17203e-05
1.172e-05
1.17196e-05
1.1719e-05
1.17181e-05
1.17167e-05
1.1714e-05
1.17092e-05
1.17013e-05
1.16892e-05
1.16725e-05
1.16514e-05
1.16284e-05
1.16098e-05
1.16066e-05
1.16268e-05
1.16531e-05
1.16711e-05
1.16823e-05
1.16896e-05
1.16946e-05
1.16984e-05
1.17016e-05
1.17046e-05
1.17075e-05
1.17104e-05
1.1713e-05
1.17151e-05
1.17165e-05
1.17174e-05
1.17178e-05
1.17216e-05
1.17215e-05
1.17212e-05
1.17208e-05
1.17203e-05
1.17196e-05
1.17183e-05
1.17157e-05
1.17108e-05
1.1702e-05
1.16879e-05
1.16677e-05
1.16419e-05
1.1614e-05
1.15937e-05
1.15961e-05
1.16296e-05
1.16665e-05
1.16867e-05
1.16963e-05
1.17011e-05
1.17036e-05
1.17052e-05
1.17065e-05
1.1708e-05
1.17098e-05
1.17118e-05
1.17137e-05
1.17154e-05
1.17166e-05
1.17174e-05
1.17178e-05
1.1723e-05
1.17229e-05
1.17226e-05
1.17223e-05
1.17219e-05
1.17213e-05
1.17204e-05
1.17181e-05
1.17132e-05
1.17037e-05
1.16877e-05
1.16638e-05
1.16325e-05
1.15991e-05
1.15768e-05
1.15862e-05
1.16359e-05
1.16856e-05
1.17076e-05
1.17144e-05
1.1716e-05
1.17158e-05
1.17149e-05
1.1714e-05
1.17137e-05
1.17142e-05
1.17152e-05
1.17165e-05
1.17178e-05
1.17188e-05
1.17195e-05
1.17198e-05
1.17246e-05
1.17245e-05
1.17243e-05
1.17241e-05
1.1724e-05
1.17239e-05
1.17236e-05
1.17221e-05
1.17177e-05
1.1708e-05
1.16904e-05
1.16628e-05
1.16256e-05
1.1585e-05
1.15579e-05
1.15709e-05
1.16359e-05
1.17008e-05
1.17257e-05
1.17298e-05
1.17283e-05
1.17258e-05
1.17237e-05
1.1722e-05
1.17207e-05
1.17198e-05
1.17194e-05
1.17193e-05
1.17196e-05
1.17201e-05
1.17207e-05
1.1721e-05
1.17271e-05
1.1727e-05
1.1727e-05
1.1727e-05
1.17275e-05
1.17282e-05
1.17291e-05
1.17289e-05
1.17258e-05
1.1717e-05
1.16993e-05
1.16695e-05
1.16267e-05
1.15765e-05
1.15371e-05
1.15417e-05
1.16129e-05
1.16957e-05
1.17304e-05
1.17359e-05
1.17319e-05
1.1726e-05
1.17211e-05
1.17179e-05
1.17168e-05
1.17173e-05
1.1719e-05
1.17213e-05
1.17236e-05
1.17253e-05
1.17262e-05
1.17265e-05
1.17302e-05
1.17301e-05
1.17302e-05
1.17306e-05
1.17315e-05
1.17332e-05
1.17353e-05
1.17369e-05
1.17362e-05
1.17303e-05
1.17155e-05
1.16876e-05
1.16433e-05
1.15839e-05
1.15239e-05
1.14993e-05
1.15519e-05
1.16471e-05
1.17069e-05
1.17323e-05
1.17416e-05
1.17437e-05
1.17435e-05
1.17431e-05
1.17429e-05
1.17423e-05
1.17404e-05
1.17364e-05
1.17305e-05
1.17238e-05
1.17183e-05
1.17154e-05
1.1733e-05
1.1733e-05
1.17331e-05
1.17337e-05
1.17349e-05
1.1737e-05
1.17399e-05
1.17428e-05
1.17444e-05
1.17422e-05
1.17326e-05
1.17109e-05
1.16716e-05
1.1611e-05
1.15346e-05
1.14697e-05
1.14696e-05
1.15404e-05
1.16118e-05
1.16575e-05
1.16852e-05
1.17002e-05
1.17062e-05
1.17055e-05
1.16986e-05
1.16861e-05
1.16685e-05
1.16476e-05
1.16264e-05
1.16084e-05
1.15963e-05
1.1591e-05
1.17352e-05
1.17352e-05
1.17354e-05
1.1736e-05
1.17373e-05
1.17395e-05
1.17425e-05
1.1746e-05
1.17489e-05
1.17493e-05
1.17443e-05
1.17293e-05
1.16985e-05
1.16452e-05
1.15676e-05
1.14778e-05
1.14185e-05
1.14253e-05
1.14633e-05
1.14948e-05
1.1514e-05
1.15211e-05
1.15177e-05
1.15063e-05
1.14892e-05
1.14686e-05
1.14469e-05
1.14268e-05
1.14107e-05
1.14e-05
1.13945e-05
1.13926e-05
1.17369e-05
1.17369e-05
1.17371e-05
1.17377e-05
1.17388e-05
1.17408e-05
1.17436e-05
1.1747e-05
1.17502e-05
1.17517e-05
1.17493e-05
1.17389e-05
1.17147e-05
1.16701e-05
1.16008e-05
1.15104e-05
1.14233e-05
1.13751e-05
1.13622e-05
1.13578e-05
1.135e-05
1.13361e-05
1.13165e-05
1.12943e-05
1.12721e-05
1.12529e-05
1.12391e-05
1.12316e-05
1.12301e-05
1.12325e-05
1.1236e-05
1.12381e-05
1.17378e-05
1.17379e-05
1.17381e-05
1.17387e-05
1.17397e-05
1.17413e-05
1.17437e-05
1.17466e-05
1.17494e-05
1.17509e-05
1.1749e-05
1.17402e-05
1.17192e-05
1.16799e-05
1.16183e-05
1.15365e-05
1.14496e-05
1.13817e-05
1.13388e-05
1.13085e-05
1.12815e-05
1.12545e-05
1.12275e-05
1.12022e-05
1.11805e-05
1.11637e-05
1.11528e-05
1.11477e-05
1.11476e-05
1.11507e-05
1.11547e-05
1.11573e-05
1.17375e-05
1.17377e-05
1.17382e-05
1.1739e-05
1.17399e-05
1.17414e-05
1.17433e-05
1.17455e-05
1.17474e-05
1.17478e-05
1.17444e-05
1.17342e-05
1.17127e-05
1.16747e-05
1.16177e-05
1.1544e-05
1.1466e-05
1.13998e-05
1.135e-05
1.13107e-05
1.12767e-05
1.12456e-05
1.12167e-05
1.11905e-05
1.11674e-05
1.1148e-05
1.11332e-05
1.11233e-05
1.11184e-05
1.11175e-05
1.11189e-05
1.11205e-05
1.17337e-05
1.17345e-05
1.17359e-05
1.17375e-05
1.1739e-05
1.17405e-05
1.17421e-05
1.17434e-05
1.17437e-05
1.17415e-05
1.17345e-05
1.17198e-05
1.16943e-05
1.16547e-05
1.15997e-05
1.15323e-05
1.14633e-05
1.14051e-05
1.13592e-05
1.13213e-05
1.12879e-05
1.12572e-05
1.12283e-05
1.12008e-05
1.11747e-05
1.1151e-05
1.11308e-05
1.11157e-05
1.11061e-05
1.11016e-05
1.11008e-05
1.11015e-05
1.17224e-05
1.17243e-05
1.17276e-05
1.17314e-05
1.17346e-05
1.1737e-05
1.17382e-05
1.1738e-05
1.17353e-05
1.17284e-05
1.17152e-05
1.16936e-05
1.1662e-05
1.16192e-05
1.15653e-05
1.15032e-05
1.14424e-05
1.13924e-05
1.13532e-05
1.13204e-05
1.1291e-05
1.12632e-05
1.1236e-05
1.12089e-05
1.11817e-05
1.11553e-05
1.11314e-05
1.1112e-05
1.10984e-05
1.10909e-05
1.10883e-05
1.10883e-05
1.16982e-05
1.17018e-05
1.17082e-05
1.17154e-05
1.17216e-05
1.17254e-05
1.17261e-05
1.1723e-05
1.17152e-05
1.17013e-05
1.168e-05
1.16506e-05
1.16131e-05
1.15679e-05
1.15157e-05
1.14591e-05
1.1406e-05
1.13635e-05
1.13309e-05
1.13038e-05
1.12793e-05
1.12557e-05
1.12318e-05
1.12071e-05
1.11814e-05
1.11553e-05
1.11303e-05
1.11086e-05
1.10923e-05
1.10823e-05
1.10781e-05
1.10775e-05
1.16564e-05
1.16619e-05
1.16715e-05
1.16822e-05
1.16912e-05
1.16958e-05
1.16947e-05
1.16873e-05
1.16729e-05
1.16513e-05
1.16224e-05
1.1587e-05
1.15462e-05
1.15012e-05
1.14528e-05
1.14029e-05
1.13575e-05
1.13221e-05
1.12954e-05
1.12737e-05
1.12541e-05
1.1235e-05
1.12153e-05
1.11945e-05
1.11722e-05
1.11488e-05
1.11254e-05
1.11038e-05
1.10864e-05
1.10748e-05
1.10692e-05
1.1068e-05
1.15942e-05
1.16012e-05
1.16121e-05
1.16238e-05
1.16328e-05
1.1636e-05
1.16318e-05
1.16195e-05
1.15995e-05
1.15726e-05
1.15399e-05
1.15029e-05
1.14631e-05
1.14218e-05
1.13797e-05
1.13379e-05
1.13007e-05
1.12722e-05
1.12509e-05
1.1234e-05
1.12189e-05
1.12043e-05
1.1189e-05
1.11727e-05
1.11549e-05
1.11358e-05
1.11159e-05
1.10966e-05
1.10799e-05
1.10678e-05
1.10613e-05
1.10596e-05
1.15109e-05
1.15178e-05
1.1526e-05
1.15337e-05
1.15388e-05
1.15384e-05
1.15309e-05
1.1516e-05
1.14943e-05
1.14672e-05
1.14361e-05
1.14027e-05
1.13683e-05
1.13341e-05
1.13005e-05
1.12679e-05
1.12393e-05
1.12175e-05
1.12015e-05
1.11889e-05
1.11779e-05
1.11673e-05
1.11563e-05
1.11445e-05
1.11315e-05
1.11173e-05
1.1102e-05
1.10865e-05
1.10721e-05
1.10609e-05
1.10543e-05
1.10521e-05
1.1406e-05
1.14098e-05
1.14109e-05
1.14111e-05
1.14104e-05
1.14067e-05
1.13983e-05
1.13846e-05
1.13661e-05
1.13439e-05
1.13194e-05
1.12939e-05
1.12683e-05
1.12434e-05
1.12195e-05
1.11966e-05
1.11767e-05
1.11616e-05
1.11506e-05
1.1142e-05
1.11346e-05
1.11276e-05
1.11204e-05
1.11126e-05
1.11041e-05
1.10947e-05
1.10844e-05
1.10735e-05
1.10627e-05
1.10537e-05
1.10478e-05
1.10456e-05
1.12765e-05
1.12746e-05
1.12689e-05
1.12641e-05
1.12604e-05
1.12561e-05
1.12498e-05
1.12407e-05
1.12289e-05
1.12151e-05
1.12001e-05
1.11846e-05
1.11694e-05
1.11547e-05
1.11407e-05
1.11274e-05
1.11159e-05
1.11072e-05
1.11009e-05
1.1096e-05
1.10918e-05
1.10879e-05
1.1084e-05
1.10797e-05
1.10751e-05
1.10699e-05
1.10642e-05
1.1058e-05
1.10516e-05
1.10458e-05
1.10416e-05
1.10398e-05
1.11179e-05
1.11158e-05
1.11121e-05
1.11093e-05
1.11073e-05
1.11054e-05
1.11031e-05
1.11e-05
1.10961e-05
1.10915e-05
1.10866e-05
1.10815e-05
1.10766e-05
1.10718e-05
1.10672e-05
1.1063e-05
1.10593e-05
1.10565e-05
1.10544e-05
1.10529e-05
1.10515e-05
1.10503e-05
1.10491e-05
1.10477e-05
1.10463e-05
1.10447e-05
1.10429e-05
1.1041e-05
1.10389e-05
1.1037e-05
1.10355e-05
1.10347e-05
)
;

boundaryField
{
    movingWall
    {
        type            fixedValue;
        value           uniform 1.1032e-05;
    }
    fixedWalls
    {
        type            zeroGradient;
    }
    floor
    {
        type            zeroGradient;
    }
    frontAndBack
    {
        type            empty;
    }
}


// ************************************************************************* //
