/*--------------------------------*- C++ -*----------------------------------*\
| =========                 |                                                 |
| \\      /  F ield         | OpenFOAM: The Open Source CFD Toolbox           |
|  \\    /   O peration     | Version:  2212                                  |
|   \\  /    A nd           | Website:  www.openfoam.com                      |
|    \\/     M anipulation  |                                                 |
\*---------------------------------------------------------------------------*/
FoamFile
{
    version     2.0;
    format      ascii;
    arch        "LSB;label=64;scalar=64";
    class       volScalarField;
    location    "140";
    object      p;
}
// * * * * * * * * * * * * * * * * * * * * * * * * * * * * * * * * * * * * * //

dimensions      [0 2 -2 0 0 0 0];

internalField   nonuniform List<scalar> 
1024
(
0
-1.15508e-05
-6.09557e-06
2.95943e-05
0.000100531
0.000210924
0.00035757
0.000515415
0.000635775
0.000669703
0.000584728
0.000443213
0.000232428
-5.13408e-05
-0.000426106
-0.00090328
-0.00141442
-0.00182459
-0.00209141
-0.00224316
-0.00231679
-0.00234157
-0.00233795
-0.00232001
-0.00229725
-0.00227585
-0.00225939
-0.00224902
-0.00224308
-0.00223824
-0.00223262
-0.00222781
-0.0928364
-0.0928534
-0.0928584
-0.092838
-0.0927842
-0.0926904
-0.0925595
-0.0924146
-0.092303
-0.0922685
-0.0923401
-0.092471
-0.0926743
-0.0929523
-0.0933218
-0.0937925
-0.094296
-0.0946993
-0.09496
-0.0951062
-0.0951748
-0.0951949
-0.0951871
-0.0951654
-0.0951393
-0.0951147
-0.0950953
-0.0950819
-0.0950734
-0.0950672
-0.0950608
-0.0950552
-0.199564
-0.199589
-0.19961
-0.199613
-0.199586
-0.199517
-0.199411
-0.199286
-0.199187
-0.199152
-0.199203
-0.199315
-0.199503
-0.199769
-0.200128
-0.200587
-0.201076
-0.201465
-0.201713
-0.201847
-0.201905
-0.201915
-0.201898
-0.201867
-0.201832
-0.2018
-0.201772
-0.201752
-0.201738
-0.201728
-0.201718
-0.20171
-0.322295
-0.322327
-0.322366
-0.322394
-0.322393
-0.322353
-0.322273
-0.32217
-0.322084
-0.32205
-0.322079
-0.322167
-0.322335
-0.322585
-0.322929
-0.323371
-0.323839
-0.324207
-0.324436
-0.324551
-0.324591
-0.324584
-0.324551
-0.324504
-0.324454
-0.324406
-0.324364
-0.324331
-0.324306
-0.324289
-0.324274
-0.324261
-0.463428
-0.463462
-0.463512
-0.463559
-0.463582
-0.463564
-0.463508
-0.463425
-0.463351
-0.463318
-0.46333
-0.463397
-0.463544
-0.463776
-0.464104
-0.464527
-0.464973
-0.465315
-0.465518
-0.465608
-0.465623
-0.465593
-0.465537
-0.465467
-0.465394
-0.465323
-0.46526
-0.465206
-0.465165
-0.465136
-0.465113
-0.465095
-0.625681
-0.625712
-0.625764
-0.625819
-0.625854
-0.625852
-0.625813
-0.625747
-0.625682
-0.625651
-0.625653
-0.625706
-0.625835
-0.626051
-0.626365
-0.626774
-0.627201
-0.627519
-0.627693
-0.627754
-0.627741
-0.627683
-0.627599
-0.627502
-0.6274
-0.627301
-0.627209
-0.627131
-0.627069
-0.627024
-0.62699
-0.626966
-0.81215
-0.812174
-0.812219
-0.812272
-0.812311
-0.812317
-0.812289
-0.812236
-0.812179
-0.81215
-0.812149
-0.812194
-0.812311
-0.812515
-0.812819
-0.813217
-0.813633
-0.813934
-0.814084
-0.814117
-0.814076
-0.813991
-0.813879
-0.813754
-0.813623
-0.813495
-0.813375
-0.81327
-0.813186
-0.813124
-0.81308
-0.813053
-1.02639
-1.0264
-1.02644
-1.02648
-1.02652
-1.02653
-1.02651
-1.02646
-1.02641
-1.02639
-1.02639
-1.02643
-1.02654
-1.02673
-1.02703
-1.02743
-1.02784
-1.02813
-1.02826
-1.02828
-1.02821
-1.0281
-1.02797
-1.02782
-1.02767
-1.02752
-1.02738
-1.02725
-1.02715
-1.02707
-1.02702
-1.027
-1.27248
-1.27249
-1.27251
-1.27255
-1.27258
-1.27259
-1.27258
-1.27254
-1.2725
-1.27248
-1.27248
-1.27252
-1.27263
-1.27282
-1.27311
-1.27351
-1.27392
-1.27421
-1.27433
-1.27433
-1.27426
-1.27413
-1.27399
-1.27383
-1.27366
-1.2735
-1.27335
-1.27322
-1.27311
-1.27303
-1.27298
-1.27295
-1.55515
-1.55515
-1.55517
-1.5552
-1.55522
-1.55523
-1.55522
-1.55519
-1.55516
-1.55514
-1.55515
-1.5552
-1.55531
-1.5555
-1.55579
-1.55619
-1.5566
-1.5569
-1.55702
-1.55701
-1.55693
-1.5568
-1.55665
-1.55649
-1.55633
-1.55618
-1.55603
-1.5559
-1.5558
-1.55572
-1.55567
-1.55565
-1.87981
-1.87981
-1.87982
-1.87984
-1.87987
-1.87988
-1.87987
-1.87985
-1.87982
-1.87981
-1.87983
-1.87989
-1.88
-1.8802
-1.8805
-1.8809
-1.88132
-1.88162
-1.88174
-1.88173
-1.88165
-1.88152
-1.88139
-1.88124
-1.8811
-1.88095
-1.88082
-1.88071
-1.88062
-1.88055
-1.88051
-1.88049
-2.2527
-2.2527
-2.25271
-2.25272
-2.25275
-2.25276
-2.25275
-2.25274
-2.25273
-2.25273
-2.25276
-2.25283
-2.25296
-2.25317
-2.25348
-2.25389
-2.25432
-2.25462
-2.25474
-2.25473
-2.25465
-2.25454
-2.25442
-2.25429
-2.25417
-2.25405
-2.25394
-2.25385
-2.25377
-2.25372
-2.25369
-2.25367
-2.68098
-2.68098
-2.68098
-2.68099
-2.68101
-2.68102
-2.68102
-2.68102
-2.68103
-2.68105
-2.6811
-2.6812
-2.68134
-2.68157
-2.68189
-2.68231
-2.68276
-2.68307
-2.68319
-2.68318
-2.68311
-2.68301
-2.68291
-2.6828
-2.6827
-2.68261
-2.68252
-2.68244
-2.68238
-2.68233
-2.68231
-2.6823
-3.1729
-3.1729
-3.1729
-3.1729
-3.1729
-3.17291
-3.17292
-3.17293
-3.17296
-3.17301
-3.17309
-3.17321
-3.17338
-3.17363
-3.17397
-3.1744
-3.17485
-3.17517
-3.1753
-3.17529
-3.17522
-3.17514
-3.17506
-3.17498
-3.1749
-3.17482
-3.17475
-3.17467
-3.17461
-3.17457
-3.17455
-3.17455
-3.73796
-3.73796
-3.73796
-3.73795
-3.73795
-3.73795
-3.73796
-3.73798
-3.73803
-3.7381
-3.7382
-3.73834
-3.73853
-3.73879
-3.73914
-3.73958
-3.74004
-3.74036
-3.74049
-3.74049
-3.74044
-3.74038
-3.74031
-3.74024
-3.74016
-3.74008
-3.73999
-3.7399
-3.73983
-3.73979
-3.73978
-3.73978
-4.38711
-4.38711
-4.38711
-4.3871
-4.3871
-4.3871
-4.38711
-4.38713
-4.38718
-4.38725
-4.38736
-4.38749
-4.38768
-4.38794
-4.38827
-4.3887
-4.38914
-4.38946
-4.38961
-4.38963
-4.38959
-4.38952
-4.38944
-4.38934
-4.38923
-4.38909
-4.38896
-4.38885
-4.38876
-4.38872
-4.38872
-4.38872
-5.08132
-5.08132
-5.08132
-5.08132
-5.08131
-5.08131
-5.08132
-5.08135
-5.08139
-5.08145
-5.08153
-5.08164
-5.08178
-5.08198
-5.08225
-5.08259
-5.08297
-5.08327
-5.08344
-5.08347
-5.08341
-5.0833
-5.08315
-5.08296
-5.08276
-5.08255
-5.08236
-5.08222
-5.08213
-5.08209
-5.08209
-5.0821
-5.73074
-5.73074
-5.73074
-5.73074
-5.73075
-5.73075
-5.73076
-5.73078
-5.73081
-5.73085
-5.7309
-5.73096
-5.73103
-5.73113
-5.73128
-5.73148
-5.73173
-5.73194
-5.73207
-5.73207
-5.73196
-5.73177
-5.73151
-5.73122
-5.73092
-5.73066
-5.73045
-5.73031
-5.73023
-5.73021
-5.73022
-5.73023
-6.29617
-6.29617
-6.29617
-6.29618
-6.29619
-6.2962
-6.29622
-6.29623
-6.29626
-6.29628
-6.29631
-6.29632
-6.29633
-6.29633
-6.29635
-6.29639
-6.29647
-6.29653
-6.29656
-6.2965
-6.29633
-6.29606
-6.29572
-6.29537
-6.29503
-6.29477
-6.29459
-6.29449
-6.29446
-6.29447
-6.29448
-6.29449
-6.78839
-6.78839
-6.78839
-6.7884
-6.78843
-6.78845
-6.78848
-6.78851
-6.78853
-6.78855
-6.78856
-6.78855
-6.78851
-6.78844
-6.78836
-6.78828
-6.7882
-6.78813
-6.78805
-6.78791
-6.7877
-6.7874
-6.78704
-6.78666
-6.78633
-6.7861
-6.78599
-6.78596
-6.78597
-6.786
-6.78602
-6.78602
-7.21684
-7.21684
-7.21684
-7.21686
-7.21689
-7.21693
-7.21697
-7.21701
-7.21705
-7.21708
-7.21708
-7.21706
-7.21701
-7.2169
-7.21677
-7.21661
-7.21644
-7.21629
-7.21616
-7.216
-7.21581
-7.21555
-7.21526
-7.21495
-7.21467
-7.21448
-7.21438
-7.21436
-7.21438
-7.21441
-7.21444
-7.21445
-7.58977
-7.58977
-7.58977
-7.58979
-7.58982
-7.58987
-7.58993
-7.58999
-7.59004
-7.59008
-7.5901
-7.59009
-7.59003
-7.58992
-7.58976
-7.58956
-7.58936
-7.58918
-7.58904
-7.58891
-7.58877
-7.58862
-7.58843
-7.58822
-7.58801
-7.58784
-7.5877
-7.58762
-7.58759
-7.58759
-7.5876
-7.58762
-7.91439
-7.91438
-7.91438
-7.91439
-7.91442
-7.91447
-7.91454
-7.91462
-7.91469
-7.91475
-7.91479
-7.9148
-7.91476
-7.91466
-7.91449
-7.91428
-7.91406
-7.91387
-7.91373
-7.91362
-7.91354
-7.91345
-7.91334
-7.9132
-7.91304
-7.91286
-7.9127
-7.91258
-7.9125
-7.91247
-7.91247
-7.91249
-8.19695
-8.19694
-8.19694
-8.19695
-8.19697
-8.19702
-8.19709
-8.19718
-8.19727
-8.19736
-8.19742
-8.19745
-8.19743
-8.19735
-8.1972
-8.19699
-8.19676
-8.19656
-8.19642
-8.19633
-8.19627
-8.19622
-8.19615
-8.19605
-8.19592
-8.19576
-8.19558
-8.19542
-8.1953
-8.19524
-8.19523
-8.19525
-8.44292
-8.44292
-8.44291
-8.44291
-8.44292
-8.44295
-8.44302
-8.44312
-8.44323
-8.44335
-8.44344
-8.4435
-8.4435
-8.44343
-8.4433
-8.4431
-8.44287
-8.44267
-8.44253
-8.44244
-8.44239
-8.44234
-8.44229
-8.4422
-8.44208
-8.44193
-8.44175
-8.44156
-8.4414
-8.4413
-8.44127
-8.44128
-8.65705
-8.65705
-8.65704
-8.65703
-8.65702
-8.65703
-8.65709
-8.65719
-8.65732
-8.65747
-8.6576
-8.65768
-8.6577
-8.65765
-8.65753
-8.65735
-8.65713
-8.65693
-8.65679
-8.6567
-8.65664
-8.6566
-8.65654
-8.65644
-8.65631
-8.65614
-8.65594
-8.65572
-8.65551
-8.65536
-8.6553
-8.65529
-8.84346
-8.84346
-8.84345
-8.84342
-8.84339
-8.84338
-8.84342
-8.84353
-8.84368
-8.84386
-8.84401
-8.84412
-8.84417
-8.84414
-8.84403
-8.84385
-8.84364
-8.84345
-8.84331
-8.84322
-8.84316
-8.84311
-8.84303
-8.84292
-8.84276
-8.84255
-8.8423
-8.84203
-8.84177
-8.84155
-8.84142
-8.84138
-9.00576
-9.00576
-9.00573
-9.00568
-9.00562
-9.00559
-9.00562
-9.00574
-9.00591
-9.00611
-9.0063
-9.00643
-9.00649
-9.00647
-9.00638
-9.00621
-9.006
-9.00582
-9.00568
-9.00559
-9.00553
-9.00546
-9.00538
-9.00524
-9.00505
-9.00479
-9.00448
-9.00413
-9.00378
-9.00346
-9.00324
-9.00314
-9.14709
-9.14707
-9.14702
-9.14693
-9.14684
-9.14679
-9.14682
-9.14695
-9.14714
-9.14737
-9.14757
-9.14772
-9.1478
-9.14779
-9.1477
-9.14754
-9.14734
-9.14716
-9.14702
-9.14693
-9.14687
-9.1468
-9.1467
-9.14655
-9.14632
-9.14602
-9.14564
-9.1452
-9.14472
-9.14425
-9.14389
-9.14366
-9.27024
-9.27016
-9.27004
-9.2699
-9.26978
-9.26971
-9.26975
-9.26989
-9.2701
-9.27034
-9.27056
-9.27072
-9.27081
-9.27081
-9.27073
-9.27057
-9.27038
-9.2702
-9.27007
-9.26998
-9.26991
-9.26984
-9.26973
-9.26956
-9.26932
-9.26898
-9.26855
-9.26802
-9.2674
-9.26673
-9.26609
-9.26554
-9.3778
-9.37741
-9.37713
-9.37693
-9.37679
-9.37672
-9.37677
-9.37692
-9.37714
-9.37739
-9.37762
-9.3778
-9.37789
-9.3779
-9.37782
-9.37767
-9.37748
-9.37731
-9.37718
-9.37709
-9.37702
-9.37695
-9.37684
-9.37666
-9.37641
-9.37605
-9.37559
-9.375
-9.37427
-9.37336
-9.37225
-9.37099
-9.47205
-9.47081
-9.4703
-9.4701
-9.46995
-9.46989
-9.46994
-9.4701
-9.47033
-9.47059
-9.47083
-9.47101
-9.47111
-9.47113
-9.47106
-9.47091
-9.47072
-9.47055
-9.47042
-9.47033
-9.47027
-9.47019
-9.47008
-9.46991
-9.46965
-9.46929
-9.46882
-9.46821
-9.4674
-9.4663
-9.46469
-9.46243
)
;

boundaryField
{
    movingWall
    {
        type            calculated;
        value           nonuniform List<scalar> 
32
(
-9.51544
-9.5142
-9.51369
-9.51348
-9.51334
-9.51327
-9.51332
-9.51348
-9.51372
-9.51398
-9.51422
-9.5144
-9.5145
-9.51452
-9.51445
-9.5143
-9.51412
-9.51394
-9.51381
-9.51373
-9.51366
-9.51359
-9.51348
-9.5133
-9.51305
-9.51269
-9.51222
-9.5116
-9.5108
-9.5097
-9.50809
-9.50583
)
;
    }
    fixedWalls
    {
        type            calculated;
        value           nonuniform List<scalar> 
64
(
6.93889e-18
-0.0928364
-0.199564
-0.322295
-0.463428
-0.625681
-0.81215
-1.02639
-1.27248
-1.55515
-1.87981
-2.2527
-2.68098
-3.1729
-3.73796
-4.38711
-5.08132
-5.73074
-6.29617
-6.78839
-7.21684
-7.58977
-7.91439
-8.19695
-8.44292
-8.65705
-8.84346
-9.00576
-9.14709
-9.27024
-9.3778
-9.47205
-0.00222781
-0.0950552
-0.20171
-0.324261
-0.465095
-0.626966
-0.813053
-1.027
-1.27295
-1.55565
-1.88049
-2.25367
-2.6823
-3.17455
-3.73978
-4.38872
-5.0821
-5.73023
-6.29449
-6.78602
-7.21445
-7.58762
-7.91249
-8.19525
-8.44128
-8.65529
-8.84138
-9.00314
-9.14366
-9.26554
-9.37099
-9.46243
)
;
    }
    floor
    {
        type            calculated;
        value           nonuniform List<scalar> 
32
(
0.0432028
0.0431924
0.0431996
0.0432376
0.0433111
0.043424
0.0435734
0.0437338
0.0438556
0.0438893
0.043802
0.0436586
0.0434464
0.0431616
0.0427858
0.0423073
0.0417948
0.0413834
0.0411155
0.0409628
0.0408883
0.0408627
0.0408656
0.0408828
0.0409049
0.0409256
0.0409414
0.0409512
0.0409565
0.0409609
0.0409663
0.040971
)
;
    }
    frontAndBack
    {
        type            empty;
    }
}


// ************************************************************************* //
