/*--------------------------------*- C++ -*----------------------------------*\
| =========                 |                                                 |
| \\      /  F ield         | OpenFOAM: The Open Source CFD Toolbox           |
|  \\    /   O peration     | Version:  2212                                  |
|   \\  /    A nd           | Website:  www.openfoam.com                      |
|    \\/     M anipulation  |                                                 |
\*---------------------------------------------------------------------------*/
FoamFile
{
    version     2.0;
    format      ascii;
    arch        "LSB;label=64;scalar=64";
    class       volScalarField;
    location    "140";
    object      SIC;
}
// * * * * * * * * * * * * * * * * * * * * * * * * * * * * * * * * * * * * * //

dimensions      [1 -3 0 0 0 0 0];

internalField   nonuniform List<scalar> 
1024
(
0.0931425
0.0931426
0.0931435
0.0931451
0.0931474
0.0931503
0.0931536
0.093157
0.0931605
0.0931638
0.0931673
0.093171
0.093175
0.0931793
0.0931839
0.0931883
0.0931913
0.0931918
0.0931901
0.0931868
0.0931824
0.0931771
0.0931711
0.0931645
0.0931573
0.09315
0.0931433
0.0931377
0.0931334
0.0931306
0.093129
0.0931283
0.0931422
0.0931426
0.0931435
0.0931452
0.0931477
0.0931506
0.0931539
0.0931574
0.0931609
0.0931643
0.0931679
0.0931716
0.0931757
0.0931801
0.0931847
0.0931893
0.0931924
0.0931929
0.0931912
0.0931879
0.0931834
0.0931781
0.0931721
0.0931655
0.0931583
0.093151
0.0931441
0.0931383
0.0931339
0.0931309
0.0931292
0.0931285
0.0931421
0.0931425
0.0931436
0.0931454
0.093148
0.0931511
0.0931545
0.0931581
0.0931618
0.0931655
0.0931692
0.0931732
0.0931775
0.0931821
0.0931871
0.0931919
0.0931951
0.0931955
0.0931937
0.0931902
0.0931856
0.0931803
0.0931743
0.0931676
0.0931605
0.093153
0.0931459
0.0931397
0.0931349
0.0931317
0.0931299
0.0931291
0.093142
0.0931425
0.0931437
0.0931456
0.0931483
0.0931515
0.0931551
0.0931591
0.0931632
0.0931675
0.0931717
0.0931762
0.093181
0.0931862
0.0931917
0.093197
0.0932002
0.0932003
0.093198
0.0931941
0.0931892
0.0931836
0.0931775
0.0931708
0.0931636
0.093156
0.0931486
0.0931419
0.0931366
0.093133
0.0931309
0.09313
0.0931419
0.0931424
0.0931436
0.0931456
0.0931484
0.0931518
0.0931558
0.0931602
0.0931651
0.0931703
0.0931756
0.093181
0.0931868
0.0931931
0.0931997
0.0932058
0.0932088
0.0932081
0.0932048
0.0931999
0.0931943
0.0931882
0.0931817
0.0931749
0.0931676
0.0931598
0.093152
0.0931447
0.0931389
0.0931347
0.0931324
0.0931314
0.0931417
0.0931422
0.0931434
0.0931454
0.0931483
0.0931519
0.0931562
0.0931614
0.0931673
0.0931739
0.0931807
0.0931878
0.0931954
0.0932036
0.093212
0.0932193
0.0932221
0.0932199
0.0932146
0.0932081
0.0932011
0.093194
0.0931869
0.0931796
0.0931721
0.093164
0.0931558
0.093148
0.0931415
0.0931368
0.0931341
0.093133
0.0931413
0.0931419
0.093143
0.093145
0.0931479
0.0931516
0.0931564
0.0931623
0.0931695
0.0931778
0.0931869
0.0931966
0.093207
0.0932182
0.0932295
0.0932388
0.093241
0.0932362
0.0932281
0.0932189
0.0932097
0.093201
0.0931927
0.0931847
0.0931766
0.0931682
0.0931595
0.0931512
0.0931441
0.093139
0.0931361
0.0931349
0.0931408
0.0931414
0.0931425
0.0931444
0.0931472
0.093151
0.0931562
0.0931628
0.0931712
0.0931816
0.0931936
0.0932069
0.0932215
0.0932372
0.0932527
0.0932647
0.0932658
0.0932572
0.0932448
0.093232
0.0932198
0.0932088
0.0931989
0.0931897
0.0931809
0.0931719
0.0931628
0.093154
0.0931465
0.0931411
0.093138
0.0931368
0.0931401
0.0931406
0.0931417
0.0931435
0.0931462
0.09315
0.0931554
0.0931626
0.0931723
0.0931849
0.0932004
0.0932183
0.0932385
0.0932604
0.0932818
0.093297
0.0932958
0.0932816
0.0932636
0.0932461
0.0932303
0.0932166
0.0932047
0.0931942
0.0931844
0.0931748
0.0931652
0.0931561
0.0931484
0.0931429
0.0931397
0.0931385
0.0931391
0.0931396
0.0931406
0.0931423
0.0931449
0.0931486
0.093154
0.0931617
0.0931727
0.0931877
0.0932071
0.0932306
0.0932579
0.0932878
0.0933162
0.0933344
0.0933287
0.0933064
0.0932814
0.0932586
0.0932391
0.0932228
0.0932091
0.0931973
0.0931867
0.0931765
0.0931665
0.0931573
0.0931497
0.0931443
0.0931412
0.0931399
0.0931378
0.0931382
0.0931392
0.0931408
0.0931431
0.0931466
0.0931519
0.09316
0.0931722
0.0931897
0.0932134
0.0932435
0.0932794
0.0933189
0.0933552
0.0933747
0.0933601
0.0933263
0.0932932
0.0932654
0.093243
0.0932249
0.0932102
0.0931979
0.0931868
0.0931764
0.0931664
0.0931574
0.09315
0.0931448
0.0931419
0.0931408
0.0931359
0.0931364
0.0931373
0.0931388
0.0931409
0.0931442
0.0931493
0.0931576
0.0931708
0.0931908
0.0932193
0.0932569
0.0933029
0.0933535
0.0933974
0.0934143
0.0933839
0.0933337
0.093292
0.0932609
0.0932378
0.0932201
0.0932062
0.0931946
0.0931843
0.0931745
0.0931652
0.0931569
0.0931502
0.0931455
0.0931428
0.0931416
0.0931335
0.093134
0.0931349
0.0931362
0.0931382
0.0931412
0.093146
0.0931543
0.0931684
0.0931911
0.0932247
0.0932707
0.0933283
0.093391
0.0934413
0.0934494
0.0933934
0.0933209
0.0932712
0.0932401
0.0932199
0.0932057
0.093195
0.0931859
0.0931774
0.093169
0.0931608
0.0931535
0.0931477
0.0931436
0.0931413
0.0931403
0.0931306
0.093131
0.0931319
0.0931332
0.093135
0.0931377
0.0931421
0.0931501
0.0931648
0.0931898
0.0932288
0.0932841
0.0933548
0.0934308
0.093486
0.0934785
0.0933858
0.0932842
0.0932284
0.0932017
0.0931883
0.0931811
0.0931765
0.0931726
0.0931682
0.0931629
0.0931571
0.0931516
0.0931469
0.0931435
0.0931414
0.0931403
0.0931273
0.0931277
0.0931285
0.0931296
0.0931311
0.0931333
0.0931369
0.0931442
0.0931588
0.0931856
0.0932298
0.0932954
0.0933808
0.093472
0.0935327
0.0935063
0.0933689
0.0932317
0.093171
0.093152
0.0931474
0.0931479
0.09315
0.093152
0.0931524
0.0931509
0.0931477
0.093144
0.0931405
0.0931377
0.0931358
0.0931348
0.0931235
0.0931238
0.0931244
0.0931252
0.093126
0.0931269
0.0931287
0.093134
0.0931471
0.0931744
0.0932229
0.0932985
0.0934004
0.0935115
0.0935856
0.0935492
0.0933692
0.09319
0.0931211
0.0931096
0.0931136
0.0931201
0.0931256
0.0931299
0.0931331
0.0931352
0.0931363
0.0931363
0.0931355
0.093134
0.0931326
0.0931317
0.0931173
0.0931176
0.0931179
0.0931179
0.0931173
0.0931159
0.0931146
0.093116
0.0931253
0.0931499
0.0931989
0.0932806
0.0933978
0.0935357
0.0936439
0.0936305
0.0934335
0.0932042
0.0931077
0.0930922
0.093103
0.0931191
0.0931326
0.093141
0.093144
0.0931425
0.0931376
0.093131
0.0931247
0.0931201
0.0931176
0.0931167
0.0931095
0.0931097
0.0931096
0.0931088
0.0931066
0.0931028
0.0930978
0.0930943
0.0930969
0.0931135
0.0931543
0.093231
0.0933529
0.0935165
0.0936817
0.0937491
0.0936033
0.0933394
0.0931729
0.0931019
0.0930759
0.0930698
0.0930699
0.0930708
0.0930714
0.093073
0.0930783
0.0930893
0.0931059
0.0931246
0.0931401
0.0931481
0.0931021
0.0931022
0.0931019
0.0931006
0.0930975
0.0930923
0.0930851
0.0930779
0.0930742
0.0930807
0.0931072
0.093167
0.0932753
0.0934425
0.0936536
0.0938327
0.0938328
0.0936365
0.0934379
0.0933103
0.093233
0.093191
0.0931739
0.0931759
0.093195
0.0932299
0.0932791
0.0933375
0.0933969
0.0934474
0.0934812
0.0934961
0.0930961
0.0930961
0.0930957
0.0930942
0.093091
0.0930855
0.0930777
0.0930689
0.0930616
0.0930609
0.0930749
0.0931161
0.0932014
0.0933485
0.0935632
0.0938117
0.0939763
0.0939581
0.093853
0.0937656
0.0937122
0.0936926
0.0937023
0.0937344
0.0937827
0.0938405
0.0939013
0.0939577
0.0940029
0.0940327
0.0940482
0.0940535
0.0930916
0.0930915
0.0930911
0.0930897
0.0930868
0.0930818
0.0930745
0.0930658
0.0930576
0.0930536
0.0930607
0.0930895
0.0931565
0.0932802
0.0934723
0.093723
0.0939645
0.094099
0.0941364
0.0941502
0.0941731
0.0942132
0.0942691
0.0943325
0.0943957
0.09445
0.0944892
0.0945104
0.0945146
0.0945075
0.0944974
0.0944912
0.0930889
0.0930887
0.0930881
0.0930868
0.0930843
0.0930801
0.0930739
0.0930664
0.0930591
0.0930553
0.0930609
0.0930855
0.0931439
0.0932536
0.0934249
0.093652
0.0938931
0.0940819
0.0942023
0.0942885
0.094366
0.0944436
0.0945214
0.0945942
0.094657
0.0947055
0.0947372
0.0947519
0.0947522
0.094743
0.0947313
0.0947238
0.0930898
0.0930891
0.0930878
0.0930859
0.0930834
0.0930798
0.0930748
0.0930691
0.0930642
0.0930636
0.0930732
0.093102
0.0931623
0.0932684
0.0934278
0.0936332
0.0938498
0.0940335
0.0941724
0.0942831
0.0943799
0.0944692
0.0945525
0.0946285
0.0946958
0.0947523
0.0947957
0.0948244
0.0948387
0.0948411
0.0948366
0.0948319
0.0931003
0.093098
0.0930942
0.0930899
0.0930858
0.0930818
0.0930778
0.0930746
0.0930741
0.0930807
0.0931006
0.0931421
0.0932139
0.0933252
0.0934793
0.0936679
0.0938597
0.0940214
0.0941489
0.094255
0.0943496
0.0944373
0.0945205
0.0946001
0.0946758
0.0947451
0.094804
0.0948483
0.0948763
0.0948891
0.0948912
0.0948891
0.0931321
0.0931267
0.0931174
0.093107
0.093098
0.0930916
0.0930883
0.0930892
0.0930972
0.093117
0.0931546
0.0932158
0.0933049
0.0934255
0.0935772
0.0937514
0.093921
0.09406
0.0941688
0.0942602
0.094343
0.094422
0.0944998
0.094578
0.0946568
0.0947336
0.0948035
0.0948603
0.0948999
0.0949217
0.0949291
0.0949289
0.0932005
0.0931903
0.0931725
0.0931521
0.0931348
0.0931242
0.0931225
0.0931314
0.0931537
0.0931933
0.0932539
0.0933372
0.0934433
0.093571
0.0937182
0.0938773
0.0940259
0.0941442
0.0942348
0.0943101
0.0943787
0.0944456
0.0945136
0.0945846
0.0946588
0.0947346
0.0948075
0.0948709
0.0949187
0.0949479
0.0949601
0.0949618
0.0933193
0.0933035
0.0932766
0.0932461
0.0932209
0.093208
0.0932112
0.0932326
0.0932736
0.0933351
0.093417
0.0935174
0.093633
0.0937604
0.093897
0.0940376
0.0941649
0.0942638
0.094338
0.0943984
0.0944531
0.094507
0.0945629
0.0946226
0.0946868
0.0947544
0.0948225
0.0948855
0.0949367
0.0949708
0.0949871
0.0949905
0.093496
0.0934761
0.0934452
0.0934122
0.0933866
0.0933776
0.09339
0.093425
0.0934819
0.0935585
0.0936514
0.0937565
0.0938694
0.0939863
0.0941052
0.0942232
0.0943277
0.0944076
0.0944667
0.0945138
0.0945557
0.094597
0.0946402
0.0946869
0.0947379
0.0947931
0.0948509
0.0949074
0.0949565
0.094992
0.0950109
0.0950159
0.093733
0.0937137
0.0936903
0.0936686
0.0936542
0.0936554
0.0936768
0.0937194
0.0937811
0.0938585
0.0939469
0.0940417
0.0941392
0.0942361
0.0943313
0.0944235
0.0945039
0.0945649
0.0946095
0.0946445
0.0946751
0.0947049
0.094736
0.0947697
0.0948069
0.0948479
0.0948922
0.0949377
0.0949798
0.0950128
0.0950323
0.0950385
0.0940322
0.0940214
0.0940182
0.0940178
0.0940198
0.0940306
0.0940547
0.0940938
0.0941464
0.0942095
0.0942792
0.0943518
0.0944244
0.094495
0.0945629
0.0946276
0.0946836
0.0947259
0.0947567
0.0947805
0.094801
0.0948207
0.094841
0.0948631
0.0948874
0.0949145
0.0949444
0.0949764
0.0950078
0.0950345
0.0950519
0.0950584
0.0944016
0.094407
0.0944234
0.094437
0.0944477
0.09446
0.0944782
0.0945042
0.0945377
0.094577
0.0946197
0.0946636
0.094707
0.0947487
0.0947884
0.0948259
0.0948582
0.0948826
0.0949003
0.0949139
0.0949255
0.0949364
0.0949476
0.0949597
0.094973
0.0949878
0.0950043
0.0950224
0.0950411
0.0950582
0.0950706
0.0950759
0.0948544
0.0948606
0.0948712
0.0948792
0.0948849
0.0948902
0.0948968
0.0949056
0.0949167
0.0949298
0.0949438
0.0949583
0.0949724
0.094986
0.0949988
0.0950109
0.0950213
0.0950292
0.0950348
0.0950392
0.0950429
0.0950463
0.0950498
0.0950536
0.0950577
0.0950623
0.0950674
0.0950731
0.0950791
0.0950848
0.0950893
0.0950915
)
;

boundaryField
{
    movingWall
    {
        type            fixedValue;
        value           uniform 0.0951;
    }
    fixedWalls
    {
        type            zeroGradient;
    }
    floor
    {
        type            zeroGradient;
    }
    frontAndBack
    {
        type            empty;
    }
}


// ************************************************************************* //
