/*--------------------------------*- C++ -*----------------------------------*\
| =========                 |                                                 |
| \\      /  F ield         | OpenFOAM: The Open Source CFD Toolbox           |
|  \\    /   O peration     | Version:  2212                                  |
|   \\  /    A nd           | Website:  www.openfoam.com                      |
|    \\/     M anipulation  |                                                 |
\*---------------------------------------------------------------------------*/
FoamFile
{
    version     2.0;
    format      ascii;
    arch        "LSB;label=64;scalar=64";
    class       volScalarField;
    location    "140";
    object      Xpr;
}
// * * * * * * * * * * * * * * * * * * * * * * * * * * * * * * * * * * * * * //

dimensions      [1 -3 0 0 0 0 0];

internalField   nonuniform List<scalar> 
1024
(
0.0832047
0.0832047
0.083205
0.0832057
0.0832069
0.0832083
0.0832099
0.0832117
0.0832134
0.0832151
0.083217
0.0832189
0.083221
0.0832234
0.0832258
0.0832282
0.0832299
0.0832302
0.0832294
0.0832277
0.0832254
0.0832226
0.0832195
0.083216
0.0832123
0.0832084
0.0832049
0.0832019
0.0831996
0.0831981
0.0831973
0.0831969
0.0832045
0.0832046
0.083205
0.0832058
0.083207
0.0832084
0.0832101
0.0832118
0.0832136
0.0832154
0.0832172
0.0832192
0.0832214
0.0832237
0.0832262
0.0832287
0.0832304
0.0832307
0.0832299
0.0832282
0.0832259
0.0832231
0.08322
0.0832166
0.0832128
0.0832089
0.0832053
0.0832022
0.0831999
0.0831983
0.0831974
0.0831971
0.0832043
0.0832045
0.083205
0.0832059
0.0832071
0.0832086
0.0832103
0.0832122
0.083214
0.0832159
0.0832179
0.08322
0.0832222
0.0832247
0.0832274
0.08323
0.0832318
0.0832321
0.0832312
0.0832294
0.0832271
0.0832243
0.0832211
0.0832177
0.0832139
0.08321
0.0832062
0.083203
0.0832005
0.0831987
0.0831978
0.0831974
0.0832042
0.0832044
0.083205
0.0832059
0.0832072
0.0832088
0.0832106
0.0832126
0.0832147
0.0832169
0.0832191
0.0832214
0.083224
0.0832268
0.0832297
0.0832326
0.0832344
0.0832345
0.0832334
0.0832314
0.0832289
0.083226
0.0832228
0.0832193
0.0832156
0.0832116
0.0832076
0.0832041
0.0832013
0.0831994
0.0831983
0.0831979
0.0832041
0.0832043
0.0832049
0.0832059
0.0832072
0.0832089
0.0832109
0.0832131
0.0832156
0.0832182
0.0832209
0.0832238
0.0832269
0.0832303
0.0832338
0.0832371
0.0832388
0.0832386
0.0832369
0.0832344
0.0832315
0.0832284
0.083225
0.0832215
0.0832176
0.0832136
0.0832094
0.0832056
0.0832025
0.0832003
0.0831991
0.0831986
0.0832039
0.0832042
0.0832048
0.0832058
0.0832071
0.0832089
0.083211
0.0832136
0.0832165
0.0832199
0.0832234
0.0832272
0.0832312
0.0832356
0.0832401
0.0832441
0.0832457
0.0832446
0.083242
0.0832386
0.083235
0.0832313
0.0832276
0.0832239
0.0832199
0.0832157
0.0832114
0.0832073
0.0832039
0.0832014
0.0832
0.0831995
0.0832037
0.083204
0.0832045
0.0832055
0.0832069
0.0832087
0.083211
0.0832139
0.0832175
0.0832217
0.0832264
0.0832315
0.083237
0.083243
0.0832491
0.0832541
0.0832554
0.0832531
0.0832489
0.0832442
0.0832395
0.0832349
0.0832306
0.0832265
0.0832223
0.0832179
0.0832134
0.083209
0.0832053
0.0832026
0.083201
0.0832004
0.0832034
0.0832037
0.0832042
0.0832051
0.0832064
0.0832083
0.0832107
0.083214
0.0832182
0.0832234
0.0832297
0.0832366
0.0832444
0.0832527
0.0832611
0.0832676
0.0832683
0.083264
0.0832576
0.083251
0.0832447
0.083239
0.0832338
0.0832291
0.0832245
0.0832198
0.083215
0.0832104
0.0832065
0.0832037
0.083202
0.0832014
0.083203
0.0832032
0.0832037
0.0832046
0.0832059
0.0832077
0.0832102
0.0832137
0.0832186
0.0832249
0.083233
0.0832424
0.083253
0.0832647
0.0832761
0.0832844
0.083284
0.0832767
0.0832674
0.0832582
0.0832501
0.083243
0.0832368
0.0832314
0.0832263
0.0832213
0.0832163
0.0832115
0.0832075
0.0832046
0.0832029
0.0832023
0.0832024
0.0832026
0.0832031
0.0832039
0.0832051
0.0832068
0.0832094
0.0832131
0.0832185
0.0832261
0.0832362
0.0832485
0.083263
0.0832789
0.0832941
0.083304
0.0833012
0.0832896
0.0832766
0.0832647
0.0832546
0.0832461
0.083239
0.0832329
0.0832274
0.0832221
0.0832169
0.0832121
0.0832081
0.0832053
0.0832037
0.083203
0.0832016
0.0832019
0.0832023
0.0832031
0.0832041
0.0832057
0.0832082
0.0832121
0.0832181
0.083227
0.0832393
0.0832551
0.0832741
0.0832951
0.0833146
0.0833251
0.0833177
0.0833
0.0832827
0.0832681
0.0832565
0.0832471
0.0832395
0.0832331
0.0832274
0.083222
0.0832168
0.0832121
0.0832083
0.0832056
0.0832041
0.0832035
0.0832006
0.0832008
0.0832013
0.0832019
0.0832029
0.0832044
0.0832067
0.0832106
0.0832171
0.0832273
0.0832421
0.0832619
0.0832863
0.0833133
0.0833368
0.083346
0.0833302
0.0833039
0.083282
0.0832657
0.0832536
0.0832444
0.0832372
0.0832313
0.083226
0.083221
0.0832162
0.0832119
0.0832084
0.0832059
0.0832045
0.0832039
0.0831992
0.0831995
0.0831999
0.0832005
0.0832014
0.0832027
0.0832048
0.0832087
0.0832157
0.0832272
0.0832447
0.083269
0.0832996
0.083333
0.0833599
0.0833645
0.0833352
0.0832971
0.0832709
0.0832546
0.0832441
0.0832367
0.0832312
0.0832266
0.0832223
0.083218
0.0832138
0.08321
0.083207
0.0832049
0.0832037
0.0832032
0.0831976
0.0831978
0.0831982
0.0831988
0.0831995
0.0832006
0.0832025
0.0832063
0.0832135
0.0832263
0.0832466
0.0832759
0.0833134
0.0833539
0.0833833
0.0833797
0.0833311
0.0832777
0.0832483
0.0832343
0.0832273
0.0832237
0.0832214
0.0832195
0.0832174
0.0832147
0.0832118
0.083209
0.0832066
0.0832048
0.0832037
0.0832031
0.0831956
0.0831958
0.0831962
0.0831967
0.0831973
0.0831981
0.0831995
0.0832028
0.08321
0.0832237
0.0832469
0.0832816
0.083327
0.0833754
0.0834077
0.0833942
0.0833221
0.0832499
0.083218
0.083208
0.0832057
0.0832061
0.0832074
0.0832086
0.083209
0.0832084
0.0832068
0.0832049
0.0832031
0.0832017
0.0832007
0.0832002
0.0831933
0.0831934
0.0831937
0.083194
0.0831942
0.0831943
0.0831948
0.083197
0.0832034
0.0832175
0.0832431
0.0832831
0.0833371
0.0833959
0.0834353
0.0834164
0.083322
0.0832279
0.0831918
0.0831857
0.083188
0.0831915
0.0831946
0.083197
0.0831989
0.0832001
0.0832008
0.0832009
0.0832004
0.0831997
0.0831989
0.0831985
0.0831897
0.0831898
0.0831899
0.0831898
0.0831892
0.0831881
0.0831869
0.0831872
0.0831916
0.0832044
0.0832302
0.0832734
0.0833354
0.0834082
0.0834655
0.0834587
0.0833555
0.0832353
0.0831848
0.0831768
0.0831826
0.0831912
0.0831984
0.0832029
0.0832046
0.0832039
0.0832014
0.083198
0.0831947
0.0831923
0.083191
0.0831905
0.0831853
0.0831853
0.0831852
0.0831847
0.0831833
0.0831809
0.0831779
0.0831756
0.0831766
0.0831851
0.0832066
0.0832471
0.0833114
0.0833976
0.0834846
0.0835203
0.083444
0.0833059
0.083219
0.0831821
0.0831686
0.0831656
0.0831658
0.0831663
0.0831667
0.0831676
0.0831704
0.0831761
0.0831847
0.0831944
0.0832024
0.0832066
0.0831812
0.0831812
0.083181
0.0831802
0.0831784
0.0831753
0.0831712
0.0831669
0.0831647
0.0831679
0.0831818
0.0832133
0.0832703
0.0833583
0.0834692
0.0835633
0.0835635
0.0834606
0.083357
0.0832906
0.0832505
0.0832287
0.0832199
0.083221
0.083231
0.0832492
0.0832747
0.083305
0.0833358
0.083362
0.0833795
0.0833873
0.0831779
0.0831779
0.0831776
0.0831768
0.0831749
0.0831718
0.0831674
0.0831623
0.0831582
0.0831576
0.0831649
0.0831865
0.0832314
0.0833086
0.0834212
0.0835516
0.0836377
0.0836278
0.0835726
0.0835269
0.083499
0.0834888
0.0834937
0.0835102
0.0835352
0.0835651
0.0835965
0.0836257
0.0836491
0.0836646
0.0836727
0.0836755
0.0831755
0.0831755
0.0831752
0.0831744
0.0831727
0.0831699
0.0831658
0.0831609
0.0831563
0.083154
0.0831576
0.0831727
0.0832078
0.0832725
0.0833731
0.0835043
0.0836308
0.0837007
0.0837195
0.083726
0.0837373
0.0837575
0.083786
0.0838183
0.0838506
0.0838784
0.0838984
0.0839093
0.0839116
0.0839081
0.083903
0.0838999
0.0831741
0.083174
0.0831737
0.0831729
0.0831715
0.0831691
0.0831656
0.0831615
0.0831574
0.0831552
0.083158
0.0831707
0.0832012
0.0832584
0.0833477
0.0834664
0.0835926
0.0836912
0.0837534
0.0837975
0.0838368
0.083876
0.0839154
0.0839521
0.0839837
0.0840081
0.084024
0.0840314
0.0840316
0.084027
0.0840212
0.0840174
0.0831747
0.0831743
0.0831735
0.0831725
0.0831711
0.083169
0.0831663
0.0831631
0.0831603
0.0831598
0.0831646
0.0831795
0.0832108
0.0832658
0.0833487
0.0834557
0.0835689
0.083665
0.0837373
0.0837943
0.0838437
0.083889
0.083931
0.0839691
0.0840028
0.0840309
0.0840525
0.0840669
0.0840741
0.0840753
0.0840733
0.084071
0.0831801
0.0831789
0.0831769
0.0831746
0.0831724
0.0831702
0.083168
0.0831661
0.0831657
0.0831689
0.0831791
0.0832004
0.0832375
0.083295
0.0833748
0.0834728
0.0835728
0.0836574
0.083724
0.083779
0.0838275
0.0838722
0.0839142
0.0839542
0.0839921
0.0840267
0.084056
0.0840781
0.084092
0.0840985
0.0840997
0.0840987
0.0831965
0.0831937
0.0831889
0.0831835
0.0831788
0.0831754
0.0831735
0.0831739
0.0831778
0.0831879
0.0832071
0.0832385
0.0832843
0.0833465
0.0834249
0.0835151
0.0836033
0.0836759
0.0837328
0.0837804
0.0838231
0.0838635
0.083903
0.0839424
0.0839819
0.0840204
0.0840552
0.0840835
0.0841032
0.0841141
0.0841179
0.0841179
0.0832316
0.0832264
0.0832172
0.0832067
0.0831977
0.0831922
0.0831912
0.0831957
0.083207
0.0832272
0.0832582
0.0833009
0.0833554
0.0834211
0.0834969
0.0835791
0.0836563
0.0837179
0.0837653
0.0838046
0.0838401
0.0838745
0.0839092
0.083945
0.0839824
0.0840204
0.0840568
0.0840884
0.0841122
0.0841267
0.0841328
0.0841337
0.0832925
0.0832843
0.0832705
0.0832549
0.0832419
0.0832352
0.0832368
0.0832476
0.0832685
0.0833
0.0833419
0.0833933
0.0834526
0.083518
0.0835883
0.0836608
0.0837267
0.0837781
0.0838169
0.0838484
0.0838769
0.0839046
0.0839332
0.0839635
0.0839959
0.0840299
0.0840639
0.0840953
0.0841208
0.0841377
0.0841458
0.0841475
0.0833828
0.0833726
0.0833568
0.0833399
0.0833267
0.083322
0.0833283
0.0833461
0.0833751
0.0834142
0.0834618
0.0835156
0.0835734
0.0836334
0.0836945
0.0837553
0.0838093
0.0838508
0.0838816
0.0839062
0.083928
0.0839493
0.0839715
0.0839952
0.084021
0.0840488
0.0840777
0.0841059
0.0841303
0.0841479
0.0841572
0.0841598
0.0835038
0.0834939
0.0834819
0.0834708
0.0834634
0.0834639
0.0834748
0.0834965
0.083528
0.0835675
0.0836127
0.0836612
0.0837111
0.0837608
0.0838097
0.0838571
0.0838986
0.0839302
0.0839535
0.0839717
0.0839877
0.0840031
0.0840191
0.0840363
0.0840551
0.0840758
0.084098
0.0841207
0.0841416
0.0841579
0.0841675
0.0841706
0.0836564
0.0836509
0.0836492
0.0836489
0.0836499
0.0836553
0.0836676
0.0836875
0.0837144
0.0837466
0.0837822
0.0838193
0.0838565
0.0838926
0.0839275
0.0839607
0.0839896
0.0840116
0.0840276
0.08404
0.0840507
0.0840609
0.0840713
0.0840826
0.084095
0.0841086
0.0841236
0.0841396
0.0841552
0.0841684
0.084177
0.0841802
0.0838446
0.0838473
0.0838556
0.0838626
0.0838679
0.0838742
0.0838835
0.0838967
0.0839138
0.0839338
0.0839557
0.0839781
0.0840003
0.0840217
0.084042
0.0840613
0.084078
0.0840906
0.0840998
0.0841069
0.0841129
0.0841186
0.0841244
0.0841305
0.0841373
0.0841448
0.0841531
0.0841621
0.0841714
0.0841799
0.0841859
0.0841885
0.0840751
0.0840782
0.0840836
0.0840877
0.0840906
0.0840933
0.0840966
0.0841011
0.0841068
0.0841134
0.0841206
0.084128
0.0841352
0.0841422
0.0841488
0.084155
0.0841603
0.0841644
0.0841674
0.0841696
0.0841716
0.0841733
0.0841752
0.0841771
0.0841792
0.0841815
0.0841841
0.0841869
0.0841899
0.0841927
0.0841949
0.084196
)
;

boundaryField
{
    movingWall
    {
        type            fixedValue;
        value           uniform 0.0842;
    }
    fixedWalls
    {
        type            zeroGradient;
    }
    floor
    {
        type            zeroGradient;
    }
    frontAndBack
    {
        type            empty;
    }
}


// ************************************************************************* //
