/*--------------------------------*- C++ -*----------------------------------*\
| =========                 |                                                 |
| \\      /  F ield         | OpenFOAM: The Open Source CFD Toolbox           |
|  \\    /   O peration     | Version:  2206                                  |
|   \\  /    A nd           | Website:  www.openfoam.com                      |
|    \\/     M anipulation  |                                                 |
\*---------------------------------------------------------------------------*/
FoamFile
{
    version     2.0;
    format      ascii;
    arch        "LSB;label=64;scalar=64";
    class       surfaceScalarField;
    location    "475200";
    object      phi;
}
// * * * * * * * * * * * * * * * * * * * * * * * * * * * * * * * * * * * * * //

dimensions      [0 3 -1 0 0 0 0];

oriented        oriented;

internalField   nonuniform List<scalar> 
24
(
-1.05624e-10
1.05624e-10
6.7395e-11
-1.73019e-10
2.11492e-10
-1.44097e-10
2.11491e-10
1.23353e-10
-1.77292e-11
2.01455e-10
-2.5112e-10
9.42751e-11
-3.69169e-11
3.05767e-10
8.13882e-11
-9.91174e-11
-3.87859e-12
-1.65854e-10
-1.30671e-10
8.98759e-11
1.75095e-10
-9.91174e-11
-2.64971e-10
-1.75095e-10
)
;

boundaryField
{
    movingWall
    {
        type            calculated;
        value           uniform 0;
    }
    fixedWalls
    {
        type            calculated;
        value           uniform 0;
    }
    frontAndBack
    {
        type            empty;
        value           nonuniform List<scalar> 0();
    }
}


// ************************************************************************* //
