/*--------------------------------*- C++ -*----------------------------------*\
| =========                 |                                                 |
| \\      /  F ield         | OpenFOAM: The Open Source CFD Toolbox           |
|  \\    /   O peration     | Version:  2212                                  |
|   \\  /    A nd           | Website:  www.openfoam.com                      |
|    \\/     M anipulation  |                                                 |
\*---------------------------------------------------------------------------*/
FoamFile
{
    version     2.0;
    format      ascii;
    arch        "LSB;label=64;scalar=64";
    class       volScalarField::Internal;
    location    "1900";
    object      dGco2;
}
// * * * * * * * * * * * * * * * * * * * * * * * * * * * * * * * * * * * * * //

dimensions      [1 -3 -1 0 0 0 0];

value           nonuniform List<scalar> 
1024
(
0.000165354
0.000165405
0.000165534
0.000165773
0.00016616
0.000166742
0.00016757
0.000168687
0.000170123
0.000171873
0.000173891
0.000176085
0.00017833
0.000180501
0.00018249
0.000184212
0.000185452
0.000186033
0.000186018
0.000185522
0.000184645
0.000183505
0.000182231
0.000180955
0.000179792
0.000178817
0.000178059
0.000177508
0.000177136
0.000176905
0.000176779
0.000176728
0.000165369
0.000165422
0.000165553
0.000165793
0.000166184
0.000166772
0.000167607
0.000168734
0.00017018
0.00017194
0.000173967
0.000176166
0.000178414
0.000180584
0.000182573
0.000184295
0.000185538
0.000186124
0.000186114
0.000185619
0.000184742
0.000183597
0.000182315
0.00018103
0.000179856
0.00017887
0.000178102
0.000177545
0.000177168
0.000176935
0.000176808
0.000176756
0.000165409
0.000165463
0.000165597
0.000165842
0.000166241
0.000166842
0.000167694
0.000168842
0.000170312
0.000172095
0.000174139
0.00017635
0.000178602
0.000180773
0.000182761
0.000184488
0.000185742
0.000186345
0.000186348
0.000185857
0.00018497
0.000183807
0.000182503
0.000181193
0.000179995
0.000178987
0.0001782
0.000177629
0.000177244
0.000177006
0.000176877
0.000176825
0.000165483
0.000165539
0.000165676
0.00016593
0.000166343
0.000166964
0.000167844
0.000169028
0.000170535
0.000172355
0.000174429
0.000176658
0.000178917
0.000181088
0.000183079
0.00018482
0.000186105
0.000186748
0.000186778
0.00018629
0.000185377
0.000184169
0.000182816
0.000181459
0.00018022
0.000179177
0.000178363
0.000177774
0.000177378
0.000177135
0.000177004
0.000176951
0.000165599
0.000165658
0.000165801
0.000166067
0.0001665
0.000167151
0.000168072
0.000169306
0.000170868
0.00017274
0.000174854
0.000177106
0.000179375
0.000181549
0.000183552
0.000185326
0.000186675
0.000187391
0.000187472
0.000186987
0.000186024
0.00018473
0.000183286
0.00018185
0.000180547
0.000179456
0.000178608
0.000177998
0.000177591
0.000177343
0.000177211
0.000177159
0.000165769
0.00016583
0.000165982
0.000166264
0.000166723
0.000167413
0.000168389
0.000169689
0.000171322
0.00017326
0.000175425
0.000177707
0.000179988
0.000182173
0.000184205
0.000186043
0.000187502
0.000188342
0.000188503
0.000188023
0.000186981
0.000185555
0.000183966
0.000182404
0.000181007
0.000179851
0.000178963
0.00017833
0.000177914
0.000177665
0.000177536
0.000177486
0.000166
0.000166065
0.000166226
0.000166527
0.000167019
0.000167759
0.000168801
0.000170181
0.000171901
0.000173917
0.000176142
0.00017846
0.000180762
0.000182972
0.000185058
0.000187005
0.000188633
0.000189654
0.000189935
0.000189469
0.000188332
0.00018673
0.000184939
0.000183196
0.000181663
0.00018042
0.000179483
0.000178828
0.000178407
0.000178161
0.000178038
0.000177993
0.000166298
0.000166367
0.000166539
0.000166861
0.000167391
0.000168187
0.000169306
0.000170779
0.000172596
0.000174701
0.000176993
0.000179355
0.000181691
0.000183947
0.000186121
0.000188226
0.000190087
0.000191352
0.000191802
0.000191388
0.00019017
0.000188379
0.000186343
0.000184362
0.000182646
0.000181284
0.000180283
0.000179602
0.000179177
0.000178941
0.000178828
0.00017879
0.000166663
0.000166735
0.000166918
0.000167263
0.000167832
0.00016869
0.000169891
0.000171462
0.000173383
0.000175583
0.00017795
0.000180367
0.000182752
0.000185079
0.000187374
0.00018968
0.000191823
0.000193392
0.000194085
0.000193807
0.000192594
0.000190672
0.000188403
0.000186156
0.000184205
0.000182677
0.000181581
0.000180859
0.000180426
0.000180197
0.000180097
0.000180067
0.000167087
0.000167163
0.000167356
0.000167723
0.00016833
0.000169247
0.000170529
0.000172198
0.000174223
0.00017652
0.000178967
0.000181449
0.000183898
0.000186311
0.000188742
0.000191259
0.000193703
0.000195625
0.000196669
0.000196691
0.000195674
0.000193802
0.000191425
0.000188958
0.000186751
0.000185005
0.00018376
0.000182956
0.000182488
0.000182251
0.000182155
0.000182131
0.000167556
0.000167634
0.000167836
0.000168221
0.000168861
0.000169829
0.000171182
0.000172939
0.00017506
0.000177449
0.000179976
0.000182523
0.000185032
0.000187519
0.000190055
0.000192737
0.000195442
0.00019775
0.000199286
0.000199853
0.000199349
0.000197861
0.000195673
0.00019319
0.000190814
0.000188833
0.000187374
0.000186413
0.000185849
0.000185561
0.000185443
0.000185413
0.000168048
0.000168127
0.000168334
0.00016873
0.000169393
0.000170397
0.000171802
0.000173624
0.00017582
0.000178283
0.000180871
0.000183462
0.000185994
0.000188487
0.000191025
0.000193737
0.000196587
0.000199272
0.000201441
0.000202828
0.000203219
0.000202568
0.000201036
0.000198943
0.000196679
0.000194595
0.000192923
0.000191741
0.000191001
0.000190596
0.000190413
0.000190355
0.00016853
0.00016861
0.000168818
0.000169217
0.000169886
0.000170902
0.000172327
0.000174178
0.000176409
0.000178903
0.000181507
0.000184079
0.000186544
0.000188908
0.000191257
0.000193764
0.000196547
0.000199523
0.000202388
0.000204789
0.000206386
0.000206993
0.000206619
0.000205445
0.000203775
0.000201952
0.000200278
0.000198949
0.000198025
0.000197466
0.000197182
0.00019708
0.000168959
0.000169039
0.000169244
0.000169636
0.00017029
0.000171286
0.000172686
0.000174509
0.000176708
0.000179161
0.000181697
0.000184148
0.000186403
0.000188439
0.000190337
0.000192326
0.000194742
0.000197818
0.000201309
0.000204757
0.000207687
0.00020977
0.000210873
0.000211043
0.000210459
0.000209391
0.000208139
0.000206962
0.000206028
0.000205396
0.000205041
0.000204899
0.000169278
0.000169356
0.000169553
0.000169925
0.000170542
0.000171478
0.000172794
0.000174513
0.00017659
0.000178899
0.000181253
0.000183452
0.000185336
0.000186838
0.000188021
0.000189172
0.000190882
0.000193774
0.0001977
0.000202104
0.00020635
0.000209946
0.000212615
0.000214283
0.000215034
0.000215056
0.0002146
0.00021393
0.000213265
0.000212742
0.000212415
0.000212271
0.000169404
0.000169479
0.000169664
0.000170005
0.000170561
0.000171396
0.000172566
0.000174093
0.00017594
0.000177988
0.000180044
0.000181878
0.00018328
0.000184127
0.000184448
0.000184557
0.000185271
0.00018763
0.000191687
0.000196862
0.000202378
0.000207528
0.00021183
0.000215056
0.000217195
0.000218382
0.00021884
0.000218825
0.000218578
0.000218288
0.000218066
0.000217955
0.000169245
0.000169317
0.000169489
0.000169796
0.000170282
0.000170997
0.000171987
0.000173272
0.000174823
0.000176538
0.000178236
0.00017968
0.000180632
0.000180919
0.00018052
0.000179711
0.0001794
0.000180922
0.000184627
0.000190115
0.000196615
0.000203245
0.000209244
0.000214137
0.000217743
0.000220123
0.000221481
0.000222096
0.000222248
0.00022218
0.00022206
0.000221982
0.000168829
0.000168899
0.00016906
0.00016934
0.000169768
0.000170381
0.000171212
0.000172275
0.000173548
0.000174948
0.000176319
0.000177443
0.000178088
0.000178061
0.000177304
0.000176037
0.000175142
0.000175979
0.000179061
0.000184274
0.000191078
0.000198636
0.000206007
0.000212441
0.000217508
0.00022111
0.000223391
0.000224633
0.000225163
0.000225288
0.000225247
0.00022519
0.000168262
0.00016833
0.000168483
0.000168743
0.000169131
0.000169669
0.000170378
0.000171268
0.000172317
0.000173459
0.000174564
0.00017545
0.000175909
0.000175764
0.000174949
0.000173647
0.000172679
0.000173274
0.000175936
0.000180713
0.000187314
0.000195111
0.000203207
0.00021071
0.000216966
0.000221672
0.000224847
0.000226724
0.000227647
0.000227973
0.000228009
0.000227969
0.000167637
0.0001677
0.000167843
0.000168083
0.000168436
0.000168918
0.000169537
0.000170294
0.000171169
0.000172105
0.000172999
0.000173704
0.000174055
0.000173915
0.000173239
0.000172214
0.000171574
0.000172323
0.000174867
0.000179313
0.000185529
0.000193104
0.000201335
0.000209371
0.000216429
0.000222019
0.000225994
0.000228491
0.000229822
0.000230368
0.000230491
0.000230468
0.000167096
0.000167147
0.000167266
0.00016747
0.000167776
0.000168196
0.000168734
0.000169383
0.00017012
0.000170893
0.000171622
0.000172202
0.00017252
0.000172494
0.000172132
0.000171641
0.000171636
0.000172824
0.000175472
0.000179709
0.000185516
0.000192638
0.000200579
0.000208648
0.000216086
0.000222281
0.000226916
0.000229986
0.000231729
0.000232512
0.000232734
0.000232734
0.000166873
0.000166898
0.000166965
0.000167093
0.000167306
0.000167626
0.000168059
0.000168597
0.000169213
0.000169863
0.00017049
0.000171032
0.000171436
0.000171683
0.000171832
0.000172103
0.00017294
0.000174721
0.000177573
0.000181644
0.000187006
0.000193556
0.000200957
0.000208676
0.000216087
0.000222571
0.000227681
0.000231249
0.000233392
0.000234429
0.000234765
0.00023479
0.000167286
0.000167264
0.000167235
0.000167226
0.000167277
0.000167428
0.000167703
0.000168105
0.000168614
0.0001692
0.000169832
0.000170491
0.000171172
0.000171901
0.000172758
0.000173941
0.000175688
0.000178064
0.000181104
0.000184977
0.000189831
0.000195692
0.000202376
0.000209496
0.000216553
0.000223009
0.00022837
0.000232325
0.000234839
0.000236135
0.0002366
0.000236657
0.000168677
0.000168585
0.000168415
0.000168208
0.000168028
0.000167947
0.000168022
0.000168284
0.000168736
0.000169369
0.000170174
0.000171157
0.00017233
0.000173723
0.000175394
0.000177486
0.000180035
0.000182872
0.000185988
0.000189587
0.000193866
0.000198944
0.000204773
0.00021111
0.000217576
0.000223724
0.000229091
0.00023328
0.000236101
0.000237651
0.000238255
0.000238351
0.00017134
0.000171155
0.000170815
0.000170388
0.000169971
0.00016967
0.000169582
0.000169778
0.000170293
0.000171133
0.000172294
0.000173772
0.00017556
0.000177655
0.000180068
0.000182878
0.000185971
0.000189039
0.000192072
0.000195306
0.000198964
0.000203215
0.000208107
0.000213525
0.000219217
0.000224833
0.000229964
0.000234194
0.000237222
0.000238995
0.000239743
0.000239886
0.000175465
0.000175176
0.000174679
0.000174095
0.000173557
0.000173187
0.0001731
0.000173398
0.000174136
0.000175318
0.000176922
0.000178915
0.000181252
0.000183886
0.000186786
0.000189982
0.000193278
0.00019632
0.000199113
0.000201908
0.00020493
0.000208364
0.000212307
0.00021674
0.000221525
0.000226423
0.000231101
0.000235166
0.000238257
0.000240192
0.000241077
0.000241273
0.000181148
0.00018076
0.000180189
0.000179632
0.000179227
0.000179064
0.000179225
0.000179811
0.000180874
0.000182405
0.000184366
0.000186698
0.000189328
0.000192185
0.000195214
0.00019842
0.000201584
0.000204369
0.000206799
0.000209112
0.000211518
0.000214186
0.000217232
0.00022069
0.00022451
0.000228555
0.000232593
0.000236289
0.000239272
0.000241272
0.000242265
0.000242517
0.000188442
0.000187997
0.000187532
0.000187286
0.000187325
0.000187636
0.000188232
0.000189181
0.000190519
0.000192241
0.000194314
0.000196679
0.000199258
0.000201981
0.000204787
0.000207673
0.000210438
0.000212798
0.000214787
0.00021661
0.000218443
0.000220428
0.000222672
0.000225231
0.000228106
0.00023124
0.0002345
0.000237645
0.00024034
0.000242276
0.00024332
0.000243624
0.000197453
0.000197054
0.00019696
0.000197302
0.000197963
0.000198818
0.000199822
0.000201012
0.000202422
0.000204076
0.000205964
0.000208044
0.000210259
0.000212549
0.000214866
0.000217202
0.000219397
0.000221235
0.000222749
0.000224098
0.000225417
0.000226814
0.000228374
0.000230152
0.00023217
0.000234417
0.000236836
0.000239289
0.000241525
0.000243249
0.000244262
0.000244597
0.000208428
0.00020828
0.000208794
0.000209745
0.000210865
0.000212015
0.000213151
0.000214307
0.000215527
0.000216859
0.000218315
0.000219881
0.00022152
0.000223194
0.000224869
0.000226535
0.000228083
0.000229364
0.000230404
0.000231313
0.000232183
0.000233086
0.000234082
0.000235212
0.000236499
0.00023795
0.000239553
0.000241246
0.000242884
0.000244243
0.000245114
0.000245442
0.000221836
0.000222164
0.000223121
0.000224196
0.000225248
0.000226222
0.000227104
0.000227927
0.000228734
0.000229572
0.00023046
0.0002314
0.000232374
0.000233363
0.000234346
0.000235317
0.000236213
0.000236951
0.000237544
0.000238057
0.00023854
0.000239034
0.000239573
0.000240181
0.000240872
0.000241655
0.000242531
0.000243483
0.000244448
0.000245307
0.000245912
0.000246171
0.000238242
0.000238497
0.000238988
0.000239458
0.000239885
0.000240265
0.000240596
0.000240892
0.000241171
0.000241452
0.000241745
0.000242052
0.00024237
0.000242691
0.000243009
0.000243323
0.000243611
0.000243848
0.000244038
0.000244201
0.000244353
0.000244508
0.000244675
0.000244863
0.000245076
0.000245318
0.000245588
0.000245885
0.000246193
0.000246479
0.000246698
0.000246804
)
;


// ************************************************************************* //
