/*--------------------------------*- C++ -*----------------------------------*\
| =========                 |                                                 |
| \\      /  F ield         | OpenFOAM: The Open Source CFD Toolbox           |
|  \\    /   O peration     | Version:  2212                                  |
|   \\  /    A nd           | Website:  www.openfoam.com                      |
|    \\/     M anipulation  |                                                 |
\*---------------------------------------------------------------------------*/
FoamFile
{
    version     2.0;
    format      ascii;
    arch        "LSB;label=64;scalar=64";
    class       volScalarField;
    location    "1900";
    object      Sco2;
}
// * * * * * * * * * * * * * * * * * * * * * * * * * * * * * * * * * * * * * //

dimensions      [1 -3 0 0 0 0 0];

internalField   nonuniform List<scalar> 
1024
(
0.00630288
0.00630484
0.00630976
0.00631884
0.00633359
0.00635579
0.00638734
0.00642994
0.00648466
0.00655137
0.00662829
0.00671191
0.00679751
0.00688024
0.00695609
0.00702171
0.00706895
0.00709113
0.00709056
0.00707163
0.00703823
0.00699476
0.00694618
0.00689754
0.00685322
0.00681606
0.00678715
0.00676617
0.00675199
0.00674319
0.00673838
0.00673643
0.00630347
0.00630548
0.00631045
0.00631962
0.00633451
0.00635692
0.00638876
0.00643172
0.00648684
0.00655394
0.00663118
0.00671501
0.00680069
0.00688342
0.00695924
0.00702488
0.00707224
0.00709459
0.00709419
0.00707534
0.00704189
0.00699826
0.00694941
0.00690042
0.00685568
0.00681809
0.00678882
0.00676757
0.00675321
0.00674431
0.00673946
0.0067375
0.006305
0.00630706
0.00631214
0.0063215
0.0063367
0.00635959
0.00639208
0.00643585
0.00649186
0.00655982
0.00663776
0.00672202
0.00680788
0.0068906
0.00696641
0.00703221
0.00708003
0.00710302
0.00710311
0.00708439
0.00705059
0.00700626
0.00695656
0.00690664
0.00686098
0.00682253
0.00679254
0.00677078
0.0067561
0.00674703
0.00674211
0.00674012
0.00630779
0.00630992
0.00631517
0.00632485
0.00634058
0.00636425
0.00639781
0.00644291
0.00650039
0.00656975
0.00664881
0.00673375
0.00681986
0.00690261
0.00697853
0.00704487
0.00709387
0.00711835
0.00711951
0.00710092
0.00706612
0.00702007
0.00696848
0.00691678
0.00686954
0.00682978
0.00679877
0.00677631
0.00676121
0.00675193
0.00674694
0.00674494
0.00631224
0.00631446
0.00631994
0.00633007
0.00634656
0.00637138
0.0064065
0.00645351
0.00651308
0.00658441
0.006665
0.00675086
0.00683731
0.00692019
0.00699655
0.00706416
0.00711557
0.00714289
0.00714597
0.0071275
0.00709076
0.00704147
0.00698642
0.00693167
0.006882
0.0068404
0.00680811
0.00678484
0.00676932
0.00675987
0.00675485
0.00675286
0.0063187
0.00632104
0.00632683
0.00633755
0.00635505
0.00638139
0.00641857
0.00646811
0.00653039
0.00660424
0.00668675
0.00677374
0.0068607
0.006944
0.00702142
0.0070915
0.00714711
0.00717912
0.00718527
0.00716696
0.00712725
0.00707289
0.00701233
0.0069528
0.00689953
0.00685546
0.00682162
0.00679751
0.00678165
0.00677215
0.00676721
0.00676531
0.00632752
0.00632998
0.00633614
0.0063476
0.00636634
0.00639455
0.00643428
0.00648689
0.00655245
0.0066293
0.00671409
0.00680245
0.00689021
0.00697446
0.00705395
0.00712815
0.00719022
0.00722915
0.00723984
0.00722211
0.00717874
0.00711768
0.00704941
0.00698296
0.00692456
0.00687716
0.00684144
0.00681648
0.00680042
0.00679107
0.00678638
0.00678466
0.00633888
0.00634148
0.00634805
0.00636034
0.00638051
0.00641089
0.00645354
0.00650967
0.00657894
0.00665916
0.00674652
0.00683658
0.0069256
0.00701162
0.00709447
0.00717471
0.00724563
0.00729387
0.00731103
0.00729522
0.0072488
0.00718054
0.00710293
0.00702743
0.00696203
0.0069101
0.00687192
0.00684597
0.0068298
0.00682077
0.00681649
0.00681505
0.00635278
0.00635553
0.00636251
0.00637567
0.00639736
0.00643005
0.00647583
0.00653571
0.00660893
0.00669277
0.00678299
0.00687515
0.00696606
0.00705477
0.00714225
0.00723012
0.00731183
0.00737163
0.00739806
0.00738745
0.00734119
0.00726796
0.00718147
0.00709579
0.00702142
0.00696321
0.00692143
0.00689388
0.00687739
0.00686866
0.00686484
0.00686371
0.00636895
0.00637182
0.00637919
0.00639318
0.00641633
0.00645128
0.00650015
0.00656375
0.00664094
0.00672849
0.00682178
0.0069164
0.00700973
0.00710171
0.00719437
0.00729034
0.00738349
0.00745676
0.00749654
0.00749737
0.00745861
0.00738723
0.00729665
0.00720262
0.00711848
0.00705191
0.00700449
0.00697383
0.00695599
0.00694697
0.0069433
0.00694237
0.00638683
0.0063898
0.00639748
0.00641215
0.00643655
0.00647346
0.00652504
0.00659199
0.00667284
0.00676391
0.00686022
0.00695733
0.00705298
0.00714775
0.00724441
0.00734666
0.00744978
0.00753772
0.00759629
0.00761792
0.0075987
0.00754197
0.00745858
0.00736394
0.00727335
0.00719785
0.00714223
0.00710559
0.00708409
0.00707314
0.00706864
0.00706747
0.00640556
0.00640859
0.00641646
0.00643159
0.00645682
0.0064951
0.00654865
0.00661813
0.00670183
0.00679569
0.00689436
0.0069931
0.00708962
0.00718466
0.0072814
0.00738477
0.0074934
0.00759574
0.00767842
0.0077313
0.00774619
0.0077214
0.00766301
0.00758322
0.0074969
0.00741747
0.00735376
0.0073087
0.00728049
0.00726505
0.00725805
0.00725587
0.00642393
0.00642698
0.00643491
0.00645015
0.00647562
0.00651436
0.00656867
0.00663925
0.00672426
0.00681933
0.00691858
0.00701664
0.00711059
0.0072007
0.00729023
0.00738579
0.00749187
0.00760532
0.00771453
0.00780604
0.00786692
0.00789007
0.00787579
0.00783107
0.00776739
0.0076979
0.0076341
0.00758343
0.00754822
0.00752691
0.0075161
0.0075122
0.00644031
0.00644334
0.00645115
0.00646609
0.00649104
0.00652899
0.00658234
0.00665184
0.00673566
0.00682916
0.00692583
0.00701925
0.00710521
0.00718283
0.00725516
0.00733098
0.00742309
0.00754033
0.00767338
0.00780483
0.0079165
0.0079959
0.00803797
0.00804443
0.00802217
0.00798148
0.00793373
0.00788887
0.00785328
0.00782919
0.00781567
0.00781025
0.00645247
0.00645543
0.00646294
0.00647713
0.00650064
0.00653631
0.00658649
0.00665202
0.00673115
0.00681917
0.00690893
0.00699274
0.00706455
0.00712179
0.00716688
0.00721075
0.00727595
0.00738618
0.00753584
0.0077037
0.00786555
0.00800261
0.00810434
0.00816794
0.00819655
0.00819739
0.00818003
0.00815448
0.00812912
0.00810921
0.00809671
0.00809124
0.00645726
0.00646013
0.00646717
0.00648018
0.00650136
0.00653318
0.00657777
0.006636
0.00670641
0.00678447
0.00686284
0.00693272
0.00698618
0.00701846
0.00703072
0.00703486
0.00706207
0.00715199
0.00730663
0.0075039
0.00771413
0.00791045
0.00807442
0.00819741
0.00827894
0.00832419
0.00834165
0.00834106
0.00833166
0.00832059
0.00831212
0.00830792
0.00645121
0.00645396
0.00646051
0.0064722
0.00649073
0.00651799
0.00655571
0.0066047
0.00666384
0.0067292
0.0067939
0.00684894
0.00688524
0.0068962
0.00688098
0.00685012
0.00683828
0.00689632
0.00703751
0.0072467
0.00749447
0.00774719
0.00797588
0.00816237
0.00829984
0.00839052
0.00844232
0.00846574
0.00847155
0.00846894
0.00846437
0.00846142
0.00643534
0.006438
0.00644415
0.00645481
0.00647115
0.00649452
0.00652616
0.00656668
0.00661522
0.0066686
0.00672083
0.0067637
0.00678826
0.00678724
0.00675837
0.00671009
0.00667597
0.00670788
0.00682535
0.00702407
0.00728343
0.0075715
0.00785249
0.00809771
0.00829086
0.00842817
0.00851512
0.00856244
0.00858264
0.00858741
0.00858584
0.00858367
0.00641372
0.0064163
0.00642216
0.00643206
0.00644684
0.00646736
0.0064944
0.0065283
0.00656831
0.00661182
0.00665396
0.00668772
0.00670523
0.00669971
0.00666862
0.00661901
0.00658211
0.00660479
0.00670623
0.00688835
0.00713996
0.00743716
0.00774576
0.00803176
0.0082702
0.00844959
0.0085706
0.00864217
0.00867735
0.00868978
0.00869115
0.00868961
0.00638989
0.0063923
0.00639776
0.00640691
0.00642038
0.00643872
0.00646232
0.0064912
0.00652456
0.00656023
0.00659428
0.00662115
0.00663456
0.00662919
0.00660345
0.00656438
0.00653998
0.00656853
0.00666548
0.00683496
0.00707192
0.00736063
0.0076744
0.00798069
0.00824973
0.0084628
0.00861433
0.00870951
0.00876024
0.00878105
0.00878573
0.00878488
0.00636928
0.00637124
0.00637578
0.00638355
0.0063952
0.0064112
0.00643171
0.00645648
0.00648454
0.00651401
0.00654182
0.00656392
0.00657604
0.00657505
0.00656125
0.00654254
0.00654234
0.00658764
0.00668855
0.00685007
0.00707141
0.00734289
0.00764558
0.00795314
0.00823667
0.00847281
0.00864946
0.00876649
0.00883292
0.0088628
0.00887126
0.00887124
0.00636079
0.00636175
0.00636427
0.00636915
0.00637731
0.00638949
0.006406
0.0064265
0.00644997
0.00647475
0.00649866
0.00651932
0.00653472
0.00654414
0.00654981
0.00656013
0.00659204
0.00665992
0.00676866
0.00692381
0.0071282
0.00737789
0.00765997
0.00795423
0.00823669
0.00848387
0.00867862
0.00881462
0.00889634
0.00893585
0.00894865
0.00894962
0.00637651
0.00637569
0.00637458
0.00637425
0.0063762
0.00638193
0.00639242
0.00640774
0.00642715
0.00644948
0.00647358
0.00649868
0.00652465
0.00655244
0.00658511
0.00663021
0.00669678
0.00678736
0.00690324
0.00705088
0.00723589
0.00745929
0.00771406
0.00798548
0.00825447
0.00850054
0.00870492
0.00885566
0.00895147
0.0090009
0.00901859
0.00902078
0.00642955
0.00642603
0.00641955
0.00641168
0.00640483
0.00640171
0.00640456
0.00641456
0.00643181
0.00645592
0.00648663
0.00652407
0.00656881
0.0066219
0.0066856
0.00676533
0.0068625
0.00697064
0.00708942
0.0072266
0.00738969
0.00758326
0.00780542
0.00804698
0.00829346
0.00852782
0.00873239
0.00889204
0.00899958
0.00905865
0.00908168
0.00908535
0.00653104
0.00652401
0.00651104
0.00649477
0.00647888
0.0064674
0.00646404
0.00647152
0.00649116
0.00652315
0.0065674
0.00662374
0.00669193
0.00677176
0.00686375
0.00697086
0.00708874
0.00720569
0.0073213
0.00744458
0.007584
0.00774606
0.00793252
0.00813905
0.00835602
0.00857008
0.00876565
0.00892691
0.00904231
0.0091099
0.00913843
0.00914387
0.00668829
0.00667727
0.00665831
0.00663606
0.00661555
0.00660147
0.00659815
0.00660951
0.00663765
0.00668268
0.00674383
0.00681981
0.00690888
0.00700928
0.00711982
0.00724166
0.00736728
0.00748323
0.0075897
0.00769623
0.00781144
0.0079423
0.00809261
0.00826159
0.008444
0.00863069
0.008809
0.00896395
0.00908176
0.00915553
0.00918924
0.00919672
0.0069049
0.00689012
0.00686837
0.00684712
0.00683167
0.00682546
0.0068316
0.00685395
0.00689448
0.00695283
0.00702756
0.00711645
0.00721671
0.00732561
0.00744108
0.00756329
0.00768387
0.00779004
0.00788266
0.00797084
0.00806254
0.00816424
0.00828033
0.00841216
0.00855777
0.00871197
0.00886587
0.00900677
0.00912047
0.00919671
0.00923452
0.00924414
0.00718295
0.00716597
0.00714824
0.00713889
0.00714035
0.00715223
0.00717495
0.00721113
0.00726211
0.00732776
0.00740679
0.0074969
0.00759524
0.007699
0.00780599
0.007916
0.00802137
0.00811135
0.00818715
0.00825664
0.0083265
0.00840217
0.0084877
0.00858525
0.00869485
0.00881431
0.00893857
0.00905842
0.00916118
0.00923496
0.00927476
0.00928633
0.00752642
0.00751123
0.00750763
0.00752065
0.00754585
0.00757845
0.00761672
0.00766207
0.00771581
0.00777888
0.00785083
0.00793013
0.00801455
0.00810185
0.00819017
0.00827922
0.00836287
0.00843294
0.00849063
0.00854206
0.00859234
0.0086456
0.00870505
0.00877282
0.00884973
0.00893538
0.00902762
0.0091211
0.00920635
0.00927206
0.00931065
0.00932341
0.00794476
0.0079391
0.0079587
0.00799494
0.00803765
0.00808149
0.0081248
0.00816885
0.00821535
0.00826612
0.00832164
0.00838131
0.0084438
0.00850762
0.00857143
0.00863497
0.00869395
0.00874279
0.00878243
0.00881709
0.00885024
0.00888468
0.00892263
0.00896569
0.00901475
0.00907007
0.00913116
0.00919569
0.00925813
0.00930993
0.00934316
0.00935563
0.00845584
0.00846832
0.00850481
0.00854581
0.0085859
0.00862304
0.00865665
0.00868803
0.00871879
0.0087507
0.00878456
0.00882038
0.00885753
0.00889522
0.00893267
0.00896971
0.00900386
0.00903197
0.0090546
0.00907414
0.00909256
0.0091114
0.00913194
0.00915509
0.00918144
0.0092113
0.00924469
0.00928096
0.00931776
0.00935051
0.00937357
0.00938343
0.00908119
0.0090909
0.00910962
0.00912753
0.00914383
0.00915832
0.00917094
0.00918221
0.00919284
0.00920354
0.00921471
0.00922643
0.00923853
0.00925077
0.0092629
0.00927486
0.00928585
0.00929488
0.00930212
0.00930833
0.00931414
0.00932004
0.00932642
0.00933358
0.0093417
0.0093509
0.0093612
0.00937251
0.00938425
0.00939519
0.00940352
0.00940756
)
;

boundaryField
{
    movingWall
    {
        type            fixedValue;
        value           uniform 0.00942;
    }
    fixedWalls
    {
        type            zeroGradient;
    }
    floor
    {
        type            zeroGradient;
    }
    frontAndBack
    {
        type            empty;
    }
}


// ************************************************************************* //
