/*--------------------------------*- C++ -*----------------------------------*\
| =========                 |                                                 |
| \\      /  F ield         | OpenFOAM: The Open Source CFD Toolbox           |
|  \\    /   O peration     | Version:  2212                                  |
|   \\  /    A nd           | Website:  www.openfoam.com                      |
|    \\/     M anipulation  |                                                 |
\*---------------------------------------------------------------------------*/
FoamFile
{
    version     2.0;
    format      ascii;
    arch        "LSB;label=64;scalar=64";
    class       volScalarField;
    location    "1900";
    object      Xch;
}
// * * * * * * * * * * * * * * * * * * * * * * * * * * * * * * * * * * * * * //

dimensions      [1 -3 0 0 0 0 0];

internalField   nonuniform List<scalar> 
1024
(
0.0200663
0.0200666
0.0200674
0.0200688
0.0200712
0.0200747
0.0200797
0.0200864
0.0200951
0.0201055
0.0201175
0.0201305
0.0201435
0.020156
0.0201672
0.0201767
0.0201834
0.0201864
0.0201861
0.0201831
0.0201781
0.0201715
0.0201643
0.020157
0.0201503
0.0201448
0.0201404
0.0201373
0.0201351
0.0201338
0.0201331
0.0201328
0.0200664
0.0200667
0.0200675
0.020069
0.0200713
0.0200749
0.0200799
0.0200867
0.0200954
0.0201059
0.020118
0.0201309
0.020144
0.0201565
0.0201676
0.0201771
0.0201838
0.0201868
0.0201866
0.0201836
0.0201786
0.0201721
0.0201647
0.0201574
0.0201507
0.0201451
0.0201407
0.0201375
0.0201353
0.020134
0.0201332
0.0201329
0.0200666
0.020067
0.0200678
0.0200693
0.0200717
0.0200753
0.0200804
0.0200874
0.0200962
0.0201069
0.020119
0.020132
0.0201451
0.0201575
0.0201687
0.0201782
0.0201849
0.020188
0.0201878
0.0201849
0.0201798
0.0201732
0.0201658
0.0201583
0.0201515
0.0201457
0.0201412
0.0201379
0.0201357
0.0201344
0.0201336
0.0201333
0.0200671
0.0200674
0.0200682
0.0200698
0.0200723
0.020076
0.0200813
0.0200885
0.0200975
0.0201084
0.0201207
0.0201338
0.0201469
0.0201593
0.0201704
0.02018
0.0201869
0.0201902
0.0201902
0.0201873
0.020182
0.0201752
0.0201675
0.0201598
0.0201527
0.0201468
0.0201421
0.0201387
0.0201365
0.0201351
0.0201343
0.020134
0.0200678
0.0200681
0.020069
0.0200706
0.0200732
0.0200772
0.0200827
0.0200901
0.0200995
0.0201107
0.0201232
0.0201364
0.0201495
0.0201619
0.020173
0.0201828
0.02019
0.0201937
0.0201939
0.0201911
0.0201856
0.0201782
0.0201701
0.0201619
0.0201545
0.0201483
0.0201435
0.02014
0.0201377
0.0201362
0.0201355
0.0201352
0.0200688
0.0200692
0.0200701
0.0200718
0.0200746
0.0200787
0.0200846
0.0200924
0.0201022
0.0201137
0.0201265
0.0201398
0.020153
0.0201653
0.0201766
0.0201867
0.0201945
0.0201989
0.0201995
0.0201967
0.0201908
0.0201827
0.0201738
0.020165
0.0201571
0.0201505
0.0201455
0.0201418
0.0201395
0.020138
0.0201373
0.020137
0.0200702
0.0200706
0.0200716
0.0200734
0.0200763
0.0200808
0.0200871
0.0200953
0.0201056
0.0201176
0.0201306
0.0201441
0.0201573
0.0201698
0.0201813
0.0201919
0.0202006
0.020206
0.0202073
0.0202045
0.0201981
0.0201891
0.0201791
0.0201693
0.0201607
0.0201536
0.0201483
0.0201446
0.0201422
0.0201408
0.0201401
0.0201399
0.020072
0.0200724
0.0200734
0.0200754
0.0200786
0.0200833
0.0200901
0.0200989
0.0201097
0.0201221
0.0201355
0.0201492
0.0201625
0.0201752
0.0201871
0.0201985
0.0202085
0.0202151
0.0202174
0.0202149
0.020208
0.0201981
0.0201867
0.0201757
0.0201661
0.0201584
0.0201528
0.0201489
0.0201465
0.0201452
0.0201445
0.0201443
0.0200742
0.0200746
0.0200757
0.0200778
0.0200812
0.0200863
0.0200935
0.0201029
0.0201143
0.0201272
0.020141
0.0201549
0.0201685
0.0201814
0.0201939
0.0202064
0.0202178
0.0202261
0.0202297
0.020228
0.0202212
0.0202105
0.0201979
0.0201855
0.0201746
0.0201661
0.02016
0.0201559
0.0201535
0.0201522
0.0201516
0.0201514
0.0200767
0.0200772
0.0200783
0.0200805
0.0200842
0.0200897
0.0200973
0.0201072
0.0201192
0.0201326
0.0201468
0.020161
0.0201748
0.0201881
0.0202013
0.0202149
0.0202279
0.0202381
0.0202435
0.0202435
0.0202378
0.0202275
0.0202144
0.0202008
0.0201886
0.0201789
0.020172
0.0201675
0.0201649
0.0201636
0.0201631
0.0201629
0.0200795
0.02008
0.0200812
0.0200835
0.0200873
0.0200931
0.0201011
0.0201115
0.020124
0.020138
0.0201526
0.020167
0.020181
0.0201947
0.0202083
0.0202227
0.020237
0.0202492
0.0202574
0.0202604
0.0202576
0.0202494
0.0202375
0.0202239
0.0202109
0.0202
0.020192
0.0201867
0.0201836
0.020182
0.0201813
0.0201812
0.0200825
0.020083
0.0200842
0.0200866
0.0200905
0.0200965
0.0201048
0.0201155
0.0201284
0.0201427
0.0201576
0.0201722
0.0201862
0.0201998
0.0202133
0.0202277
0.0202427
0.020257
0.0202685
0.020276
0.0202781
0.0202747
0.0202664
0.0202551
0.0202429
0.0202315
0.0202224
0.020216
0.020212
0.0202098
0.0202088
0.0202084
0.0200854
0.0200858
0.0200871
0.0200895
0.0200934
0.0200994
0.0201079
0.0201187
0.0201318
0.0201462
0.0201611
0.0201755
0.0201891
0.0202018
0.0202141
0.0202272
0.0202417
0.0202575
0.0202728
0.0202858
0.0202945
0.0202979
0.0202961
0.02029
0.0202811
0.0202714
0.0202624
0.0202553
0.0202503
0.0202473
0.0202458
0.0202453
0.0200879
0.0200884
0.0200896
0.0200919
0.0200958
0.0201017
0.0201099
0.0201206
0.0201334
0.0201476
0.020162
0.0201757
0.020188
0.0201988
0.0202085
0.0202185
0.0202309
0.0202471
0.0202658
0.0202844
0.0203004
0.0203118
0.020318
0.0203192
0.0203164
0.0203109
0.0203044
0.0202983
0.0202934
0.0202901
0.0202882
0.0202875
0.0200898
0.0200903
0.0200915
0.0200937
0.0200973
0.0201028
0.0201106
0.0201206
0.0201327
0.020146
0.0201594
0.0201716
0.0201817
0.0201894
0.0201951
0.0202004
0.0202087
0.0202239
0.020245
0.0202687
0.0202917
0.0203113
0.0203259
0.0203351
0.0203395
0.02034
0.0203379
0.0203347
0.0203314
0.0203287
0.0203271
0.0203263
0.0200906
0.020091
0.0200921
0.0200941
0.0200974
0.0201023
0.0201092
0.0201181
0.0201289
0.0201407
0.0201524
0.0201625
0.02017
0.020174
0.0201748
0.0201742
0.020177
0.0201892
0.020211
0.0202391
0.020269
0.0202969
0.0203201
0.0203377
0.0203494
0.0203561
0.0203589
0.0203592
0.0203582
0.0203568
0.0203558
0.0203553
0.0200897
0.0200901
0.0200911
0.0200929
0.0200958
0.0201
0.0201058
0.0201133
0.0201224
0.0201323
0.020142
0.02015
0.020155
0.0201559
0.0201527
0.020147
0.0201441
0.0201517
0.0201716
0.0202014
0.0202368
0.0202727
0.0203051
0.0203315
0.020351
0.0203639
0.0203714
0.020375
0.0203761
0.0203759
0.0203754
0.0203751
0.0200872
0.0200876
0.0200886
0.0200902
0.0200928
0.0200964
0.0201013
0.0201075
0.020115
0.0201231
0.0201309
0.0201372
0.0201405
0.0201398
0.0201347
0.0201266
0.0201205
0.0201243
0.0201407
0.020169
0.0202061
0.0202471
0.0202869
0.0203216
0.0203488
0.0203681
0.0203804
0.0203873
0.0203903
0.0203912
0.0203911
0.0203909
0.0200838
0.0200842
0.0200851
0.0200867
0.020089
0.0200922
0.0200964
0.0201016
0.0201078
0.0201144
0.0201208
0.0201258
0.0201282
0.0201269
0.0201216
0.0201134
0.0201069
0.0201093
0.0201234
0.0201493
0.0201852
0.0202276
0.0202714
0.0203117
0.0203452
0.0203704
0.0203873
0.0203975
0.0204025
0.0204045
0.0204048
0.0204046
0.0200801
0.0200804
0.0200813
0.0200827
0.0200848
0.0200877
0.0200914
0.0200959
0.020101
0.0201065
0.0201117
0.0201157
0.0201176
0.0201164
0.020112
0.0201054
0.0201008
0.0201041
0.0201175
0.0201415
0.0201753
0.0202164
0.0202609
0.0203041
0.0203419
0.0203717
0.0203928
0.0204061
0.0204133
0.0204163
0.0204171
0.0204171
0.0200767
0.020077
0.0200778
0.020079
0.0200809
0.0200834
0.0200866
0.0200905
0.0200948
0.0200994
0.0201037
0.020107
0.0201087
0.0201082
0.0201057
0.0201021
0.0201011
0.0201068
0.0201207
0.0201436
0.0201751
0.0202137
0.0202566
0.0203
0.0203397
0.0203726
0.0203972
0.0204135
0.0204228
0.020427
0.0204283
0.0204284
0.0200751
0.0200753
0.0200757
0.0200765
0.0200779
0.0200799
0.0200825
0.0200857
0.0200894
0.0200933
0.0200969
0.0201
0.0201022
0.0201033
0.0201036
0.0201044
0.0201081
0.020117
0.0201321
0.0201539
0.020183
0.0202185
0.0202584
0.0202999
0.0203394
0.0203738
0.0204009
0.0204197
0.020431
0.0204366
0.0204385
0.0204387
0.0200769
0.0200769
0.0200768
0.0200769
0.0200773
0.0200784
0.0200801
0.0200826
0.0200857
0.0200891
0.0200928
0.0200965
0.0201002
0.0201039
0.0201082
0.020114
0.0201227
0.020135
0.0201511
0.0201719
0.0201981
0.0202298
0.0202658
0.020304
0.0203416
0.0203759
0.0204042
0.020425
0.0204382
0.0204451
0.0204476
0.020448
0.0200841
0.0200836
0.0200828
0.0200818
0.020081
0.0200808
0.0200815
0.0200831
0.0200859
0.0200895
0.020094
0.0200995
0.0201058
0.0201131
0.0201219
0.0201327
0.0201459
0.0201608
0.0201773
0.0201965
0.0202196
0.020247
0.0202784
0.0203124
0.0203468
0.0203794
0.0204077
0.0204297
0.0204445
0.0204527
0.0204559
0.0204565
0.0200981
0.0200971
0.0200954
0.0200932
0.0200911
0.0200897
0.0200895
0.0200908
0.0200938
0.0200985
0.0201049
0.0201129
0.0201225
0.0201337
0.0201464
0.0201612
0.0201775
0.0201937
0.0202098
0.0202271
0.0202468
0.0202697
0.020296
0.020325
0.0203553
0.020385
0.0204121
0.0204343
0.0204501
0.0204594
0.0204633
0.0204641
0.02012
0.0201185
0.0201159
0.0201128
0.0201101
0.0201083
0.020108
0.0201098
0.0201139
0.0201204
0.0201291
0.0201399
0.0201524
0.0201665
0.0201819
0.0201989
0.0202163
0.0202324
0.0202473
0.0202622
0.0202784
0.0202969
0.0203181
0.0203418
0.0203673
0.0203932
0.0204178
0.0204391
0.0204553
0.0204654
0.02047
0.0204711
0.0201502
0.0201481
0.0201451
0.0201422
0.0201402
0.0201394
0.0201404
0.0201437
0.0201495
0.0201578
0.0201684
0.020181
0.0201951
0.0202104
0.0202265
0.0202436
0.0202604
0.0202751
0.0202881
0.0203004
0.0203133
0.0203276
0.020344
0.0203625
0.0203828
0.0204042
0.0204254
0.0204448
0.0204604
0.0204708
0.0204759
0.0204773
0.020189
0.0201866
0.0201842
0.0201829
0.0201832
0.0201849
0.0201882
0.0201934
0.0202006
0.0202099
0.0202211
0.0202338
0.0202476
0.0202621
0.0202771
0.0202925
0.0203072
0.0203197
0.0203303
0.0203401
0.0203499
0.0203605
0.0203725
0.0203862
0.0204015
0.0204181
0.0204352
0.0204517
0.0204657
0.0204758
0.0204812
0.0204828
0.0202369
0.0202347
0.0202343
0.0202361
0.0202397
0.0202443
0.0202497
0.0202561
0.0202637
0.0202726
0.0202827
0.0202939
0.0203057
0.020318
0.0203303
0.0203428
0.0203545
0.0203643
0.0203723
0.0203795
0.0203866
0.020394
0.0204024
0.0204119
0.0204226
0.0204345
0.0204472
0.0204601
0.0204717
0.0204806
0.0204859
0.0204876
0.0202951
0.0202943
0.020297
0.0203021
0.0203081
0.0203142
0.0203203
0.0203265
0.020333
0.0203402
0.020348
0.0203564
0.0203652
0.0203741
0.0203831
0.020392
0.0204002
0.020407
0.0204126
0.0204174
0.020422
0.0204269
0.0204322
0.0204382
0.0204451
0.0204528
0.0204612
0.0204701
0.0204786
0.0204856
0.0204901
0.0204918
0.0203662
0.0203679
0.020373
0.0203787
0.0203843
0.0203895
0.0203942
0.0203986
0.0204029
0.0204074
0.0204121
0.0204172
0.0204224
0.0204277
0.0204329
0.0204381
0.0204429
0.0204468
0.02045
0.0204527
0.0204553
0.0204579
0.0204608
0.020464
0.0204677
0.0204719
0.0204765
0.0204815
0.0204865
0.0204909
0.020494
0.0204954
0.020453
0.0204544
0.020457
0.0204594
0.0204617
0.0204637
0.0204655
0.0204671
0.0204686
0.0204701
0.0204716
0.0204733
0.020475
0.0204767
0.0204784
0.0204801
0.0204816
0.0204829
0.0204839
0.0204848
0.0204856
0.0204864
0.0204873
0.0204883
0.0204894
0.0204907
0.0204921
0.0204937
0.0204953
0.0204968
0.0204979
0.0204984
)
;

boundaryField
{
    movingWall
    {
        type            fixedValue;
        value           uniform 0.0205;
    }
    fixedWalls
    {
        type            zeroGradient;
    }
    floor
    {
        type            zeroGradient;
    }
    frontAndBack
    {
        type            empty;
    }
}


// ************************************************************************* //
