/*--------------------------------*- C++ -*----------------------------------*\
| =========                 |                                                 |
| \\      /  F ield         | OpenFOAM: The Open Source CFD Toolbox           |
|  \\    /   O peration     | Version:  2212                                  |
|   \\  /    A nd           | Website:  www.openfoam.com                      |
|    \\/     M anipulation  |                                                 |
\*---------------------------------------------------------------------------*/
FoamFile
{
    version     2.0;
    format      ascii;
    arch        "LSB;label=64;scalar=64";
    class       volScalarField;
    location    "1900";
    object      Xli;
}
// * * * * * * * * * * * * * * * * * * * * * * * * * * * * * * * * * * * * * //

dimensions      [1 -3 0 0 0 0 0];

internalField   nonuniform List<scalar> 
1024
(
0.0426564
0.0426571
0.0426588
0.042662
0.0426671
0.0426747
0.0426856
0.0427003
0.0427191
0.0427418
0.042768
0.0427961
0.0428245
0.0428516
0.0428759
0.0428966
0.0429111
0.0429177
0.042917
0.0429106
0.0428996
0.0428854
0.0428696
0.0428538
0.0428393
0.0428272
0.0428177
0.0428108
0.0428062
0.0428033
0.0428017
0.0428011
0.0426567
0.0426573
0.0426591
0.0426622
0.0426674
0.0426751
0.0426861
0.0427009
0.0427198
0.0427427
0.0427689
0.0427971
0.0428255
0.0428526
0.0428769
0.0428976
0.0429122
0.0429187
0.0429181
0.0429117
0.0429007
0.0428865
0.0428706
0.0428547
0.0428401
0.0428278
0.0428182
0.0428113
0.0428066
0.0428037
0.0428021
0.0428014
0.0426572
0.0426579
0.0426596
0.0426629
0.0426681
0.042676
0.0426872
0.0427023
0.0427215
0.0427447
0.0427711
0.0427994
0.0428279
0.0428549
0.0428792
0.0428999
0.0429146
0.0429213
0.0429209
0.0429145
0.0429035
0.042889
0.0428729
0.0428567
0.0428418
0.0428292
0.0428194
0.0428123
0.0428075
0.0428045
0.0428029
0.0428023
0.0426581
0.0426589
0.0426607
0.042664
0.0426695
0.0426776
0.0426892
0.0427047
0.0427244
0.042748
0.0427748
0.0428033
0.0428318
0.0428587
0.042883
0.0429038
0.0429189
0.0429261
0.0429259
0.0429197
0.0429083
0.0428933
0.0428766
0.0428598
0.0428445
0.0428315
0.0428214
0.0428141
0.0428091
0.0428061
0.0428045
0.0428038
0.0426597
0.0426604
0.0426623
0.0426658
0.0426715
0.0426801
0.0426922
0.0427083
0.0427287
0.042753
0.0427802
0.0428089
0.0428374
0.0428643
0.0428887
0.0429098
0.0429256
0.0429337
0.0429341
0.0429279
0.0429159
0.0429
0.0428822
0.0428645
0.0428484
0.0428349
0.0428244
0.0428168
0.0428117
0.0428086
0.042807
0.0428063
0.0426619
0.0426627
0.0426647
0.0426684
0.0426744
0.0426835
0.0426963
0.0427133
0.0427345
0.0427596
0.0427874
0.0428164
0.042845
0.0428719
0.0428965
0.0429183
0.0429353
0.0429449
0.0429463
0.0429401
0.0429272
0.0429097
0.0428903
0.0428711
0.0428539
0.0428396
0.0428287
0.0428208
0.0428156
0.0428125
0.0428109
0.0428103
0.0426649
0.0426658
0.0426679
0.0426718
0.0426783
0.042688
0.0427016
0.0427196
0.0427419
0.042768
0.0427964
0.0428258
0.0428545
0.0428816
0.0429067
0.0429297
0.0429487
0.0429603
0.0429631
0.0429571
0.0429432
0.0429236
0.0429018
0.0428805
0.0428618
0.0428465
0.0428349
0.0428268
0.0428216
0.0428186
0.0428171
0.0428165
0.0426688
0.0426697
0.042672
0.0426762
0.0426831
0.0426936
0.0427082
0.0427273
0.0427508
0.0427779
0.0428071
0.0428369
0.0428658
0.0428933
0.0429193
0.0429441
0.0429658
0.0429803
0.0429851
0.0429797
0.0429648
0.0429431
0.0429184
0.0428944
0.0428735
0.0428568
0.0428446
0.0428362
0.042831
0.042828
0.0428267
0.0428262
0.0426736
0.0426745
0.0426769
0.0426815
0.0426889
0.0427001
0.0427157
0.0427361
0.0427609
0.042789
0.0428191
0.0428493
0.0428787
0.0429069
0.0429342
0.0429612
0.0429861
0.0430042
0.0430119
0.0430082
0.0429934
0.0429702
0.0429429
0.0429157
0.0428921
0.0428736
0.0428602
0.0428514
0.0428461
0.0428433
0.0428421
0.0428417
0.0426792
0.0426801
0.0426827
0.0426874
0.0426954
0.0427073
0.0427239
0.0427455
0.0427715
0.0428008
0.0428317
0.0428626
0.0428925
0.0429215
0.0429502
0.0429796
0.043008
0.0430301
0.043042
0.0430419
0.0430296
0.0430072
0.0429787
0.0429491
0.0429226
0.0429015
0.0428865
0.0428767
0.042871
0.0428682
0.042867
0.0428667
0.0426853
0.0426863
0.0426889
0.0426939
0.0427022
0.0427148
0.0427323
0.0427549
0.0427821
0.0428124
0.0428441
0.0428756
0.0429061
0.0429357
0.0429655
0.0429966
0.0430279
0.0430545
0.0430722
0.0430787
0.0430726
0.0430549
0.0430289
0.0429994
0.042971
0.0429474
0.0429299
0.0429183
0.0429116
0.0429081
0.0429067
0.0429063
0.0426917
0.0426927
0.0426954
0.0427005
0.0427091
0.0427221
0.0427402
0.0427636
0.0427916
0.0428227
0.0428551
0.0428869
0.0429174
0.0429468
0.0429764
0.0430076
0.0430403
0.0430712
0.0430964
0.0431127
0.0431173
0.0431098
0.0430919
0.0430673
0.0430406
0.043016
0.0429962
0.0429822
0.0429734
0.0429686
0.0429664
0.0429657
0.0426979
0.042699
0.0427017
0.0427068
0.0427155
0.0427286
0.0427469
0.0427706
0.0427989
0.0428303
0.0428627
0.0428941
0.0429236
0.0429512
0.0429781
0.0430065
0.0430381
0.0430724
0.0431058
0.043134
0.0431529
0.0431604
0.0431564
0.0431431
0.0431238
0.0431027
0.0430832
0.0430676
0.0430569
0.0430503
0.043047
0.0430458
0.0427035
0.0427045
0.0427072
0.0427122
0.0427207
0.0427335
0.0427514
0.0427747
0.0428025
0.0428333
0.0428647
0.0428945
0.0429212
0.0429446
0.0429658
0.0429877
0.0430146
0.0430499
0.0430905
0.043131
0.0431657
0.0431905
0.043204
0.0432067
0.0432005
0.0431887
0.0431745
0.0431612
0.0431505
0.0431433
0.0431393
0.0431376
0.0427077
0.0427087
0.0427112
0.042716
0.0427239
0.0427359
0.0427527
0.0427746
0.0428009
0.0428299
0.042859
0.0428856
0.0429076
0.0429243
0.0429366
0.0429481
0.0429664
0.0429993
0.0430451
0.0430969
0.0431469
0.0431894
0.0432212
0.0432413
0.0432509
0.043252
0.0432474
0.0432403
0.0432331
0.0432274
0.0432238
0.0432222
0.0427093
0.0427103
0.0427127
0.042717
0.0427242
0.0427349
0.0427498
0.0427692
0.0427926
0.0428183
0.0428437
0.0428658
0.042882
0.0428907
0.0428924
0.0428912
0.0428974
0.0429239
0.0429713
0.0430323
0.0430974
0.043158
0.0432087
0.0432469
0.0432724
0.0432869
0.043293
0.0432936
0.0432914
0.0432885
0.0432863
0.0432851
0.0427073
0.0427082
0.0427104
0.0427144
0.0427206
0.0427298
0.0427424
0.0427588
0.0427785
0.0428
0.0428211
0.0428385
0.0428493
0.0428513
0.0428444
0.042832
0.0428258
0.0428423
0.0428856
0.0429505
0.0430273
0.0431055
0.043176
0.0432334
0.0432758
0.0433039
0.0433202
0.043328
0.0433304
0.0433301
0.043329
0.0433283
0.0427019
0.0427028
0.0427049
0.0427085
0.042714
0.0427219
0.0427325
0.0427461
0.0427623
0.04278
0.0427971
0.0428107
0.042818
0.0428164
0.0428053
0.0427876
0.0427743
0.0427825
0.0428183
0.04288
0.0429606
0.0430498
0.0431364
0.0432118
0.043271
0.0433131
0.0433399
0.0433547
0.0433614
0.0433632
0.0433631
0.0433626
0.0426946
0.0426955
0.0426975
0.0427008
0.0427058
0.0427127
0.0427219
0.0427333
0.0427467
0.0427611
0.042775
0.0427859
0.0427911
0.0427883
0.0427768
0.0427588
0.0427448
0.04275
0.0427807
0.0428371
0.0429152
0.0430074
0.0431026
0.0431904
0.0432632
0.043318
0.0433549
0.0433769
0.043388
0.0433921
0.0433929
0.0433925
0.0426864
0.0426872
0.0426891
0.0426922
0.0426968
0.042703
0.042711
0.0427208
0.042732
0.042744
0.0427552
0.042764
0.042768
0.0427655
0.0427559
0.0427416
0.0427316
0.0427386
0.0427678
0.0428201
0.0428936
0.0429831
0.0430799
0.0431739
0.043256
0.0433208
0.0433668
0.0433958
0.0434114
0.043418
0.0434197
0.0434196
0.0426792
0.0426798
0.0426814
0.0426841
0.0426881
0.0426936
0.0427006
0.042709
0.0427185
0.0427285
0.0427377
0.042745
0.0427487
0.0427477
0.0427421
0.0427344
0.0427322
0.0427445
0.0427748
0.0428245
0.0428931
0.0429772
0.0430705
0.0431648
0.0432513
0.0433229
0.0433764
0.0434118
0.043432
0.0434412
0.0434441
0.0434442
0.0426756
0.042676
0.042677
0.0426788
0.0426817
0.042686
0.0426917
0.0426988
0.0427068
0.0427151
0.0427231
0.0427299
0.0427346
0.042737
0.0427377
0.0427393
0.0427473
0.0427668
0.0427995
0.0428471
0.0429103
0.0429875
0.0430744
0.0431646
0.0432506
0.0433255
0.0433843
0.0434253
0.04345
0.043462
0.0434661
0.0434666
0.0426796
0.0426794
0.0426793
0.0426795
0.0426805
0.0426828
0.0426866
0.042692
0.0426986
0.0427062
0.0427141
0.0427221
0.0427301
0.0427383
0.0427476
0.0427602
0.0427792
0.0428059
0.0428409
0.0428861
0.0429432
0.0430121
0.0430905
0.0431736
0.0432555
0.04333
0.0433915
0.0434368
0.0434656
0.0434806
0.0434861
0.0434869
0.0426952
0.0426941
0.0426923
0.0426902
0.0426885
0.042688
0.0426894
0.0426931
0.042699
0.042707
0.0427168
0.0427286
0.0427423
0.0427584
0.0427773
0.0428009
0.0428296
0.0428619
0.0428979
0.0429398
0.04299
0.0430497
0.0431179
0.0431918
0.0432668
0.0433377
0.0433992
0.0434471
0.0434793
0.043497
0.0435041
0.0435053
0.0427257
0.0427236
0.0427197
0.042715
0.0427105
0.0427074
0.0427068
0.0427097
0.0427162
0.0427264
0.0427404
0.0427578
0.0427788
0.042803
0.0428308
0.042863
0.0428984
0.0429336
0.0429686
0.0430063
0.0430491
0.0430989
0.0431561
0.0432192
0.0432852
0.0433499
0.0434087
0.043457
0.0434914
0.0435116
0.0435202
0.043522
0.0427733
0.04277
0.0427643
0.0427577
0.0427517
0.0427477
0.0427471
0.042751
0.04276
0.0427742
0.0427931
0.0428166
0.0428439
0.0428745
0.0429081
0.0429449
0.0429829
0.0430179
0.0430502
0.0430827
0.043118
0.0431582
0.0432042
0.0432558
0.0433112
0.0433676
0.0434212
0.0434676
0.0435027
0.0435246
0.0435347
0.043537
0.042839
0.0428345
0.042828
0.0428217
0.0428172
0.0428155
0.0428177
0.0428248
0.0428375
0.0428556
0.0428786
0.0429059
0.0429366
0.0429699
0.043005
0.0430421
0.0430787
0.0431108
0.0431389
0.0431658
0.0431939
0.043225
0.0432605
0.0433008
0.043345
0.0433916
0.0434378
0.0434799
0.0435138
0.0435364
0.0435476
0.0435505
0.0429234
0.0429182
0.0429129
0.0429102
0.0429107
0.0429145
0.0429217
0.0429329
0.0429487
0.0429689
0.0429932
0.0430208
0.0430508
0.0430825
0.0431151
0.0431486
0.0431806
0.0432079
0.0432309
0.043252
0.0432734
0.0432965
0.0433227
0.0433524
0.0433857
0.0434218
0.0434591
0.0434949
0.0435254
0.0435473
0.0435591
0.0435625
0.0430275
0.0430229
0.0430219
0.0430259
0.0430336
0.0430436
0.0430554
0.0430693
0.0430859
0.0431052
0.0431272
0.0431515
0.0431773
0.043204
0.0432309
0.043258
0.0432834
0.0433047
0.0433222
0.0433379
0.0433532
0.0433695
0.0433876
0.0434083
0.0434316
0.0434575
0.0434852
0.0435131
0.0435385
0.0435579
0.0435692
0.043573
0.0431542
0.0431525
0.0431585
0.0431695
0.0431825
0.0431958
0.0432091
0.0432226
0.0432368
0.0432523
0.0432693
0.0432876
0.0433067
0.0433261
0.0433456
0.0433649
0.0433829
0.0433977
0.0434098
0.0434203
0.0434304
0.0434409
0.0434525
0.0434656
0.0434805
0.0434972
0.0435156
0.0435349
0.0435534
0.0435687
0.0435784
0.0435821
0.0433088
0.0433126
0.0433236
0.0433361
0.0433482
0.0433595
0.0433698
0.0433793
0.0433887
0.0433985
0.0434089
0.0434198
0.0434311
0.0434427
0.0434541
0.0434654
0.0434757
0.0434843
0.0434912
0.0434971
0.0435027
0.0435085
0.0435147
0.0435218
0.0435298
0.0435388
0.0435488
0.0435597
0.0435706
0.0435803
0.043587
0.0435899
0.0434978
0.0435007
0.0435063
0.0435118
0.0435167
0.0435211
0.043525
0.0435284
0.0435316
0.0435349
0.0435383
0.0435419
0.0435456
0.0435493
0.043553
0.0435567
0.04356
0.0435628
0.043565
0.0435669
0.0435686
0.0435704
0.0435724
0.0435745
0.043577
0.0435798
0.0435829
0.0435863
0.0435898
0.043593
0.0435954
0.0435966
)
;

boundaryField
{
    movingWall
    {
        type            fixedValue;
        value           uniform 0.0436;
    }
    fixedWalls
    {
        type            zeroGradient;
    }
    floor
    {
        type            zeroGradient;
    }
    frontAndBack
    {
        type            empty;
    }
}


// ************************************************************************* //
