/*--------------------------------*- C++ -*----------------------------------*\
| =========                 |                                                 |
| \\      /  F ield         | OpenFOAM: The Open Source CFD Toolbox           |
|  \\    /   O peration     | Version:  2212                                  |
|   \\  /    A nd           | Website:  www.openfoam.com                      |
|    \\/     M anipulation  |                                                 |
\*---------------------------------------------------------------------------*/
FoamFile
{
    version     2.0;
    format      ascii;
    arch        "LSB;label=64;scalar=64";
    class       volScalarField;
    location    "1250";
    object      Gh2;
}
// * * * * * * * * * * * * * * * * * * * * * * * * * * * * * * * * * * * * * //

dimensions      [1 -3 0 0 0 0 0];

internalField   nonuniform List<scalar> 
1024
(
1.27251e-05
1.2724e-05
1.27215e-05
1.27169e-05
1.27096e-05
1.26993e-05
1.26858e-05
1.26695e-05
1.26513e-05
1.26325e-05
1.26144e-05
1.25986e-05
1.25865e-05
1.25795e-05
1.25791e-05
1.25869e-05
1.26035e-05
1.26258e-05
1.26507e-05
1.26776e-05
1.27062e-05
1.2736e-05
1.27656e-05
1.27933e-05
1.28176e-05
1.28377e-05
1.28532e-05
1.28645e-05
1.28721e-05
1.28769e-05
1.28795e-05
1.28806e-05
1.2725e-05
1.27239e-05
1.27213e-05
1.27166e-05
1.27092e-05
1.26987e-05
1.26851e-05
1.26687e-05
1.26503e-05
1.26314e-05
1.26132e-05
1.25974e-05
1.25854e-05
1.25784e-05
1.25781e-05
1.2586e-05
1.26026e-05
1.26249e-05
1.26497e-05
1.26766e-05
1.27051e-05
1.27348e-05
1.27644e-05
1.27922e-05
1.28167e-05
1.2837e-05
1.28527e-05
1.28641e-05
1.28718e-05
1.28767e-05
1.28793e-05
1.28804e-05
1.27246e-05
1.27235e-05
1.27209e-05
1.2716e-05
1.27084e-05
1.26977e-05
1.26837e-05
1.2667e-05
1.26484e-05
1.26291e-05
1.26106e-05
1.25945e-05
1.25825e-05
1.25757e-05
1.25757e-05
1.25839e-05
1.26007e-05
1.2623e-05
1.26478e-05
1.26744e-05
1.27028e-05
1.27324e-05
1.2762e-05
1.279e-05
1.28148e-05
1.28354e-05
1.28515e-05
1.28632e-05
1.28711e-05
1.28761e-05
1.28788e-05
1.28799e-05
1.27241e-05
1.2723e-05
1.27202e-05
1.27152e-05
1.27074e-05
1.26963e-05
1.26819e-05
1.26647e-05
1.26455e-05
1.26255e-05
1.26061e-05
1.25893e-05
1.25771e-05
1.25708e-05
1.25715e-05
1.25805e-05
1.25978e-05
1.26202e-05
1.26449e-05
1.26713e-05
1.26994e-05
1.27287e-05
1.27583e-05
1.27865e-05
1.28118e-05
1.2833e-05
1.28496e-05
1.28617e-05
1.287e-05
1.28751e-05
1.2878e-05
1.28791e-05
1.27233e-05
1.27222e-05
1.27193e-05
1.27142e-05
1.27062e-05
1.26948e-05
1.26799e-05
1.2662e-05
1.26418e-05
1.26203e-05
1.25991e-05
1.25809e-05
1.25684e-05
1.25628e-05
1.25649e-05
1.25754e-05
1.25939e-05
1.26169e-05
1.26416e-05
1.26677e-05
1.26953e-05
1.27242e-05
1.27536e-05
1.2782e-05
1.28078e-05
1.28297e-05
1.28469e-05
1.28597e-05
1.28683e-05
1.28738e-05
1.28768e-05
1.2878e-05
1.27222e-05
1.27211e-05
1.27183e-05
1.27131e-05
1.27049e-05
1.26933e-05
1.26779e-05
1.2659e-05
1.26371e-05
1.26134e-05
1.25895e-05
1.2569e-05
1.25558e-05
1.25513e-05
1.25557e-05
1.25688e-05
1.25894e-05
1.26134e-05
1.26383e-05
1.26642e-05
1.26912e-05
1.27196e-05
1.27487e-05
1.27771e-05
1.28033e-05
1.28258e-05
1.28438e-05
1.28572e-05
1.28663e-05
1.28721e-05
1.28752e-05
1.28765e-05
1.27208e-05
1.27197e-05
1.2717e-05
1.27119e-05
1.27037e-05
1.26918e-05
1.26758e-05
1.26556e-05
1.26315e-05
1.26045e-05
1.25768e-05
1.25533e-05
1.25391e-05
1.25361e-05
1.25439e-05
1.2561e-05
1.25847e-05
1.26106e-05
1.26362e-05
1.26619e-05
1.26884e-05
1.2716e-05
1.27445e-05
1.27727e-05
1.27991e-05
1.28221e-05
1.28407e-05
1.28546e-05
1.28642e-05
1.28702e-05
1.28735e-05
1.28748e-05
1.27186e-05
1.27176e-05
1.2715e-05
1.27101e-05
1.2702e-05
1.269e-05
1.26733e-05
1.26514e-05
1.26244e-05
1.25932e-05
1.25608e-05
1.25338e-05
1.25187e-05
1.25179e-05
1.25302e-05
1.25528e-05
1.25811e-05
1.26097e-05
1.26365e-05
1.26623e-05
1.26883e-05
1.2715e-05
1.27426e-05
1.27703e-05
1.27964e-05
1.28195e-05
1.28383e-05
1.28525e-05
1.28624e-05
1.28686e-05
1.2872e-05
1.28734e-05
1.27148e-05
1.27139e-05
1.27115e-05
1.27068e-05
1.2699e-05
1.26868e-05
1.26693e-05
1.26454e-05
1.26148e-05
1.25786e-05
1.25412e-05
1.25108e-05
1.24955e-05
1.24981e-05
1.25163e-05
1.25458e-05
1.258e-05
1.26121e-05
1.26407e-05
1.2667e-05
1.26925e-05
1.27184e-05
1.27448e-05
1.27714e-05
1.27968e-05
1.28193e-05
1.28378e-05
1.28518e-05
1.28616e-05
1.28678e-05
1.28712e-05
1.28726e-05
1.27073e-05
1.27065e-05
1.27044e-05
1.27e-05
1.26923e-05
1.26799e-05
1.26612e-05
1.26348e-05
1.26001e-05
1.25587e-05
1.25168e-05
1.24843e-05
1.24705e-05
1.24783e-05
1.25042e-05
1.25418e-05
1.25828e-05
1.26194e-05
1.26502e-05
1.26775e-05
1.27029e-05
1.27278e-05
1.27529e-05
1.27779e-05
1.28017e-05
1.28228e-05
1.28402e-05
1.28534e-05
1.28627e-05
1.28686e-05
1.28719e-05
1.28732e-05
1.26927e-05
1.26921e-05
1.26901e-05
1.26858e-05
1.2678e-05
1.26648e-05
1.26445e-05
1.26151e-05
1.25761e-05
1.25304e-05
1.24857e-05
1.24539e-05
1.24446e-05
1.246e-05
1.24948e-05
1.25411e-05
1.25895e-05
1.26312e-05
1.26652e-05
1.26942e-05
1.272e-05
1.27443e-05
1.27679e-05
1.27908e-05
1.28122e-05
1.28311e-05
1.28465e-05
1.28582e-05
1.28664e-05
1.28717e-05
1.28746e-05
1.28759e-05
1.2666e-05
1.26653e-05
1.26633e-05
1.26587e-05
1.26502e-05
1.26357e-05
1.26131e-05
1.25805e-05
1.25382e-05
1.24903e-05
1.24463e-05
1.24191e-05
1.24176e-05
1.24423e-05
1.24859e-05
1.254e-05
1.2595e-05
1.26424e-05
1.2681e-05
1.27134e-05
1.27412e-05
1.27661e-05
1.27888e-05
1.28096e-05
1.28281e-05
1.28439e-05
1.28566e-05
1.2866e-05
1.28726e-05
1.28767e-05
1.2879e-05
1.28799e-05
1.26221e-05
1.26212e-05
1.26187e-05
1.26134e-05
1.26035e-05
1.25871e-05
1.2562e-05
1.2527e-05
1.24833e-05
1.24367e-05
1.23979e-05
1.23792e-05
1.23873e-05
1.24198e-05
1.24682e-05
1.25251e-05
1.25832e-05
1.26356e-05
1.26804e-05
1.27192e-05
1.27527e-05
1.27817e-05
1.28064e-05
1.28269e-05
1.28435e-05
1.28564e-05
1.28658e-05
1.2872e-05
1.28758e-05
1.28777e-05
1.28784e-05
1.28786e-05
1.25594e-05
1.25583e-05
1.25551e-05
1.25486e-05
1.25371e-05
1.25187e-05
1.24916e-05
1.24556e-05
1.24133e-05
1.23715e-05
1.2341e-05
1.23313e-05
1.23452e-05
1.23773e-05
1.24197e-05
1.24678e-05
1.25184e-05
1.25685e-05
1.26167e-05
1.26628e-05
1.27061e-05
1.27455e-05
1.27793e-05
1.28062e-05
1.28257e-05
1.28384e-05
1.28452e-05
1.28475e-05
1.28468e-05
1.28447e-05
1.28425e-05
1.28412e-05
1.24834e-05
1.24819e-05
1.2478e-05
1.24704e-05
1.24573e-05
1.2437e-05
1.24085e-05
1.23724e-05
1.23327e-05
1.22965e-05
1.22723e-05
1.22647e-05
1.22717e-05
1.22867e-05
1.2304e-05
1.2322e-05
1.2342e-05
1.23669e-05
1.2398e-05
1.24356e-05
1.24781e-05
1.25238e-05
1.25691e-05
1.26101e-05
1.26431e-05
1.26673e-05
1.26821e-05
1.26884e-05
1.26886e-05
1.26856e-05
1.26821e-05
1.26799e-05
1.24062e-05
1.24045e-05
1.23998e-05
1.23907e-05
1.23754e-05
1.23524e-05
1.23212e-05
1.22837e-05
1.2244e-05
1.22082e-05
1.21801e-05
1.21594e-05
1.21415e-05
1.21209e-05
1.20939e-05
1.20595e-05
1.20215e-05
1.19898e-05
1.19706e-05
1.1965e-05
1.19736e-05
1.19954e-05
1.20281e-05
1.20685e-05
1.21125e-05
1.21564e-05
1.21956e-05
1.22265e-05
1.22473e-05
1.2259e-05
1.2264e-05
1.22652e-05
1.23517e-05
1.235e-05
1.23456e-05
1.23367e-05
1.23216e-05
1.22987e-05
1.22672e-05
1.2228e-05
1.21841e-05
1.21393e-05
1.20962e-05
1.20543e-05
1.20099e-05
1.19583e-05
1.18969e-05
1.18242e-05
1.17454e-05
1.16727e-05
1.16116e-05
1.1562e-05
1.15253e-05
1.15025e-05
1.14946e-05
1.15019e-05
1.15232e-05
1.15553e-05
1.15935e-05
1.16322e-05
1.16657e-05
1.16903e-05
1.17048e-05
1.17107e-05
1.23203e-05
1.23188e-05
1.23147e-05
1.23067e-05
1.22928e-05
1.22715e-05
1.22416e-05
1.22033e-05
1.21581e-05
1.21092e-05
1.20591e-05
1.20086e-05
1.1956e-05
1.18986e-05
1.18352e-05
1.17658e-05
1.1696e-05
1.1633e-05
1.15755e-05
1.15205e-05
1.14682e-05
1.14204e-05
1.13796e-05
1.13486e-05
1.13293e-05
1.13223e-05
1.13264e-05
1.13389e-05
1.13553e-05
1.13708e-05
1.13819e-05
1.13872e-05
1.23038e-05
1.23024e-05
1.22987e-05
1.22915e-05
1.22792e-05
1.22602e-05
1.22332e-05
1.21978e-05
1.2155e-05
1.21072e-05
1.20571e-05
1.20066e-05
1.19562e-05
1.19049e-05
1.18525e-05
1.17999e-05
1.17511e-05
1.17075e-05
1.16623e-05
1.1611e-05
1.15535e-05
1.14929e-05
1.14335e-05
1.13801e-05
1.13365e-05
1.13045e-05
1.12844e-05
1.12747e-05
1.12729e-05
1.12754e-05
1.1279e-05
1.12813e-05
1.22961e-05
1.22948e-05
1.22915e-05
1.22851e-05
1.22743e-05
1.22577e-05
1.22341e-05
1.22027e-05
1.2164e-05
1.21201e-05
1.20734e-05
1.20267e-05
1.19814e-05
1.19379e-05
1.18964e-05
1.18574e-05
1.18228e-05
1.179e-05
1.17514e-05
1.17017e-05
1.164e-05
1.15688e-05
1.14937e-05
1.14218e-05
1.13591e-05
1.13099e-05
1.12753e-05
1.12541e-05
1.12435e-05
1.124e-05
1.124e-05
1.12408e-05
1.22931e-05
1.22919e-05
1.2289e-05
1.22835e-05
1.22742e-05
1.22599e-05
1.22395e-05
1.22123e-05
1.21785e-05
1.21395e-05
1.20977e-05
1.20557e-05
1.20154e-05
1.19777e-05
1.19428e-05
1.19103e-05
1.18803e-05
1.18492e-05
1.18114e-05
1.17622e-05
1.16998e-05
1.16253e-05
1.15428e-05
1.14594e-05
1.13826e-05
1.13185e-05
1.12707e-05
1.12393e-05
1.12217e-05
1.12141e-05
1.12123e-05
1.12125e-05
1.22903e-05
1.22895e-05
1.22873e-05
1.22829e-05
1.22753e-05
1.22634e-05
1.22462e-05
1.2223e-05
1.21938e-05
1.21599e-05
1.21228e-05
1.20849e-05
1.20478e-05
1.20126e-05
1.19791e-05
1.19463e-05
1.19133e-05
1.18781e-05
1.18374e-05
1.17875e-05
1.17263e-05
1.16532e-05
1.15707e-05
1.14839e-05
1.14e-05
1.13262e-05
1.1268e-05
1.12273e-05
1.1203e-05
1.11913e-05
1.11876e-05
1.11874e-05
1.22821e-05
1.22819e-05
1.2281e-05
1.22786e-05
1.22734e-05
1.22642e-05
1.22502e-05
1.22306e-05
1.22053e-05
1.21751e-05
1.21412e-05
1.21052e-05
1.20686e-05
1.2032e-05
1.19954e-05
1.19573e-05
1.19172e-05
1.18756e-05
1.18313e-05
1.1781e-05
1.1722e-05
1.16531e-05
1.15751e-05
1.14913e-05
1.14072e-05
1.13295e-05
1.12647e-05
1.12169e-05
1.11864e-05
1.11707e-05
1.11651e-05
1.11644e-05
1.22621e-05
1.2263e-05
1.22642e-05
1.22645e-05
1.22625e-05
1.22566e-05
1.22456e-05
1.22286e-05
1.22055e-05
1.21767e-05
1.21431e-05
1.2106e-05
1.20667e-05
1.20258e-05
1.19832e-05
1.19377e-05
1.18899e-05
1.18428e-05
1.17963e-05
1.17471e-05
1.16922e-05
1.16295e-05
1.15588e-05
1.14818e-05
1.14025e-05
1.13264e-05
1.12594e-05
1.1207e-05
1.11716e-05
1.11521e-05
1.11445e-05
1.11433e-05
1.22242e-05
1.22266e-05
1.22305e-05
1.22342e-05
1.22356e-05
1.22326e-05
1.22235e-05
1.22072e-05
1.21836e-05
1.21531e-05
1.21169e-05
1.20761e-05
1.20321e-05
1.19857e-05
1.19372e-05
1.18855e-05
1.18323e-05
1.17826e-05
1.17364e-05
1.16903e-05
1.16411e-05
1.15865e-05
1.15251e-05
1.14575e-05
1.13864e-05
1.13156e-05
1.12506e-05
1.11967e-05
1.11581e-05
1.11354e-05
1.11258e-05
1.11239e-05
1.21634e-05
1.21677e-05
1.21744e-05
1.21809e-05
1.21844e-05
1.21823e-05
1.21727e-05
1.21544e-05
1.21276e-05
1.20932e-05
1.20526e-05
1.20075e-05
1.19594e-05
1.19091e-05
1.18572e-05
1.18028e-05
1.17486e-05
1.16998e-05
1.16566e-05
1.16155e-05
1.15733e-05
1.15276e-05
1.14766e-05
1.14202e-05
1.13594e-05
1.12971e-05
1.12373e-05
1.11851e-05
1.11453e-05
1.11204e-05
1.11089e-05
1.11064e-05
1.20771e-05
1.20832e-05
1.20916e-05
1.20985e-05
1.21007e-05
1.2096e-05
1.20826e-05
1.206e-05
1.20288e-05
1.19905e-05
1.19469e-05
1.18996e-05
1.18503e-05
1.17998e-05
1.17486e-05
1.16962e-05
1.16452e-05
1.16008e-05
1.15628e-05
1.1528e-05
1.14935e-05
1.14568e-05
1.14165e-05
1.13716e-05
1.13225e-05
1.12706e-05
1.12187e-05
1.1171e-05
1.11325e-05
1.11067e-05
1.10938e-05
1.10905e-05
1.19636e-05
1.19709e-05
1.19783e-05
1.19813e-05
1.19778e-05
1.19668e-05
1.19478e-05
1.19207e-05
1.18867e-05
1.18474e-05
1.18043e-05
1.1759e-05
1.17127e-05
1.16664e-05
1.16203e-05
1.1574e-05
1.15299e-05
1.14924e-05
1.14612e-05
1.14333e-05
1.14063e-05
1.13784e-05
1.1348e-05
1.13143e-05
1.12769e-05
1.12364e-05
1.11944e-05
1.11537e-05
1.11189e-05
1.10939e-05
1.10804e-05
1.10764e-05
1.18214e-05
1.18281e-05
1.18302e-05
1.18248e-05
1.18126e-05
1.17947e-05
1.17712e-05
1.17428e-05
1.17101e-05
1.16741e-05
1.16361e-05
1.15972e-05
1.15582e-05
1.15198e-05
1.14822e-05
1.1445e-05
1.14103e-05
1.13811e-05
1.13572e-05
1.13364e-05
1.13166e-05
1.12966e-05
1.12751e-05
1.12513e-05
1.12249e-05
1.11957e-05
1.11644e-05
1.11326e-05
1.11037e-05
1.10815e-05
1.10684e-05
1.10641e-05
1.1647e-05
1.16498e-05
1.16423e-05
1.16276e-05
1.16091e-05
1.15882e-05
1.15652e-05
1.15403e-05
1.15135e-05
1.14854e-05
1.14564e-05
1.14273e-05
1.13986e-05
1.13706e-05
1.13435e-05
1.1317e-05
1.12926e-05
1.12722e-05
1.12558e-05
1.12416e-05
1.12285e-05
1.12153e-05
1.12014e-05
1.11861e-05
1.11691e-05
1.11502e-05
1.11294e-05
1.11075e-05
1.10863e-05
1.10688e-05
1.10575e-05
1.10533e-05
1.14338e-05
1.14288e-05
1.14141e-05
1.13974e-05
1.13805e-05
1.13638e-05
1.13472e-05
1.13304e-05
1.13133e-05
1.12959e-05
1.12783e-05
1.12607e-05
1.12436e-05
1.1227e-05
1.12111e-05
1.11957e-05
1.11815e-05
1.11698e-05
1.11604e-05
1.11524e-05
1.11451e-05
1.11378e-05
1.11302e-05
1.11219e-05
1.11127e-05
1.11025e-05
1.10911e-05
1.10787e-05
1.10663e-05
1.10552e-05
1.10474e-05
1.10441e-05
1.11731e-05
1.11691e-05
1.11615e-05
1.11541e-05
1.11473e-05
1.1141e-05
1.11349e-05
1.11291e-05
1.11233e-05
1.11175e-05
1.11116e-05
1.11059e-05
1.11003e-05
1.10949e-05
1.10897e-05
1.10847e-05
1.10802e-05
1.10764e-05
1.10734e-05
1.10709e-05
1.10685e-05
1.10663e-05
1.10639e-05
1.10613e-05
1.10585e-05
1.10553e-05
1.10518e-05
1.10479e-05
1.1044e-05
1.10403e-05
1.10374e-05
1.10361e-05
)
;

boundaryField
{
    movingWall
    {
        type            fixedValue;
        value           uniform 1.1032e-05;
    }
    fixedWalls
    {
        type            zeroGradient;
    }
    floor
    {
        type            zeroGradient;
    }
    frontAndBack
    {
        type            empty;
    }
}


// ************************************************************************* //
