/*--------------------------------*- C++ -*----------------------------------*\
| =========                 |                                                 |
| \\      /  F ield         | OpenFOAM: The Open Source CFD Toolbox           |
|  \\    /   O peration     | Version:  2212                                  |
|   \\  /    A nd           | Website:  www.openfoam.com                      |
|    \\/     M anipulation  |                                                 |
\*---------------------------------------------------------------------------*/
FoamFile
{
    version     2.0;
    format      ascii;
    arch        "LSB;label=64;scalar=64";
    class       volScalarField;
    location    "1250";
    object      p;
}
// * * * * * * * * * * * * * * * * * * * * * * * * * * * * * * * * * * * * * //

dimensions      [0 2 -2 0 0 0 0];

internalField   nonuniform List<scalar> 
1024
(
0
-2.46728e-06
-4.90808e-06
-5.19558e-06
-1.74078e-06
6.92883e-06
2.28928e-05
4.91777e-05
8.89311e-05
0.0001409
0.000189086
0.000210059
0.000189554
0.000125486
3.88941e-05
-5.23415e-05
-0.000126681
-0.000173057
-0.000198007
-0.000210096
-0.000214888
-0.000215836
-0.000215073
-0.000213905
-0.000213008
-0.000212544
-0.000212273
-0.000211792
-0.000210852
-0.000209554
-0.000208293
-0.000207585
-0.0928108
-0.0928134
-0.0928156
-0.0928158
-0.0928129
-0.0928053
-0.092791
-0.0927667
-0.0927293
-0.0926798
-0.0926341
-0.0926136
-0.0926324
-0.0926945
-0.0927793
-0.092869
-0.0929423
-0.0929879
-0.0930122
-0.0930238
-0.0930283
-0.0930289
-0.0930279
-0.0930264
-0.0930253
-0.0930245
-0.093024
-0.0930234
-0.0930225
-0.0930213
-0.0930202
-0.0930195
-0.199426
-0.199429
-0.199431
-0.199432
-0.19943
-0.199425
-0.199413
-0.199392
-0.199358
-0.199312
-0.19927
-0.19925
-0.199266
-0.199326
-0.199408
-0.199495
-0.199566
-0.19961
-0.199633
-0.199643
-0.199647
-0.199647
-0.199645
-0.199643
-0.199641
-0.19964
-0.199639
-0.199638
-0.199637
-0.199636
-0.199635
-0.199633
-0.321901
-0.321905
-0.321909
-0.321911
-0.321911
-0.321908
-0.321901
-0.321884
-0.321853
-0.321811
-0.321772
-0.321754
-0.321768
-0.321824
-0.321902
-0.321985
-0.322052
-0.322094
-0.322115
-0.322123
-0.322125
-0.322124
-0.322121
-0.322117
-0.322114
-0.322112
-0.32211
-0.322109
-0.322108
-0.322106
-0.322105
-0.322103
-0.462601
-0.462605
-0.462609
-0.462612
-0.462616
-0.462617
-0.462613
-0.462601
-0.462576
-0.462538
-0.462502
-0.462485
-0.462497
-0.46255
-0.462623
-0.4627
-0.462763
-0.462801
-0.462818
-0.462824
-0.462824
-0.46282
-0.462815
-0.462809
-0.462805
-0.462801
-0.462798
-0.462795
-0.462794
-0.462792
-0.462789
-0.462787
-0.624236
-0.62424
-0.624244
-0.62425
-0.624256
-0.624261
-0.624262
-0.624255
-0.624234
-0.624201
-0.624169
-0.624153
-0.624166
-0.624214
-0.624282
-0.624353
-0.624409
-0.624442
-0.624455
-0.624457
-0.624453
-0.624446
-0.624438
-0.62443
-0.624422
-0.624416
-0.624412
-0.624408
-0.624405
-0.624403
-0.6244
-0.624397
-0.80992
-0.809923
-0.809928
-0.809934
-0.809942
-0.809951
-0.809956
-0.809954
-0.809937
-0.809909
-0.809882
-0.809868
-0.809882
-0.809928
-0.80999
-0.810054
-0.810104
-0.810131
-0.810139
-0.810136
-0.810128
-0.810117
-0.810105
-0.810093
-0.810083
-0.810074
-0.810067
-0.810061
-0.810057
-0.810054
-0.81005
-0.810047
-1.02323
-1.02323
-1.02323
-1.02324
-1.02325
-1.02326
-1.02327
-1.02327
-1.02325
-1.02323
-1.02321
-1.0232
-1.02322
-1.02326
-1.02332
-1.02338
-1.02342
-1.02344
-1.02345
-1.02344
-1.02343
-1.02341
-1.02339
-1.02338
-1.02336
-1.02335
-1.02334
-1.02333
-1.02333
-1.02332
-1.02332
-1.02332
-1.26825
-1.26825
-1.26825
-1.26826
-1.26827
-1.26828
-1.26829
-1.26829
-1.26828
-1.26827
-1.26826
-1.26825
-1.26828
-1.26832
-1.26837
-1.26843
-1.26847
-1.26848
-1.26848
-1.26847
-1.26845
-1.26843
-1.26841
-1.26839
-1.26837
-1.26836
-1.26834
-1.26833
-1.26833
-1.26832
-1.26832
-1.26831
-1.5497
-1.5497
-1.5497
-1.54971
-1.54971
-1.54972
-1.54973
-1.54974
-1.54974
-1.54973
-1.54973
-1.54974
-1.54977
-1.54981
-1.54987
-1.54991
-1.54995
-1.54996
-1.54996
-1.54994
-1.54992
-1.5499
-1.54987
-1.54985
-1.54983
-1.54981
-1.54979
-1.54978
-1.54977
-1.54977
-1.54976
-1.54976
-1.873
-1.873
-1.873
-1.873
-1.873
-1.87301
-1.87302
-1.87302
-1.87303
-1.87303
-1.87304
-1.87307
-1.8731
-1.87315
-1.8732
-1.87325
-1.87328
-1.87329
-1.87329
-1.87327
-1.87324
-1.87322
-1.87319
-1.87317
-1.87314
-1.87312
-1.8731
-1.87309
-1.87308
-1.87307
-1.87307
-1.87307
-2.24436
-2.24436
-2.24436
-2.24436
-2.24436
-2.24437
-2.24437
-2.24438
-2.24439
-2.2444
-2.24443
-2.24446
-2.24451
-2.24456
-2.24461
-2.24465
-2.24469
-2.2447
-2.24469
-2.24466
-2.24464
-2.24461
-2.24458
-2.24455
-2.24452
-2.2445
-2.24448
-2.24447
-2.24446
-2.24446
-2.24445
-2.24445
-2.67096
-2.67095
-2.67095
-2.67095
-2.67095
-2.67095
-2.67096
-2.67096
-2.67098
-2.671
-2.67103
-2.67107
-2.67112
-2.67118
-2.67123
-2.67127
-2.6713
-2.67131
-2.6713
-2.67127
-2.67124
-2.67121
-2.67117
-2.67114
-2.67111
-2.67108
-2.67107
-2.67105
-2.67105
-2.67104
-2.67104
-2.67105
-3.16099
-3.16099
-3.16099
-3.16099
-3.16099
-3.16099
-3.16099
-3.161
-3.16101
-3.16104
-3.16107
-3.16112
-3.16117
-3.16122
-3.16127
-3.16132
-3.16134
-3.16135
-3.16133
-3.16129
-3.16125
-3.1612
-3.16116
-3.16112
-3.16109
-3.16107
-3.16105
-3.16104
-3.16104
-3.16104
-3.16104
-3.16104
-3.72393
-3.72393
-3.72393
-3.72393
-3.72393
-3.72393
-3.72394
-3.72394
-3.72396
-3.72398
-3.72401
-3.72405
-3.7241
-3.72415
-3.7242
-3.72425
-3.72426
-3.72425
-3.72421
-3.72416
-3.72409
-3.72403
-3.72397
-3.72392
-3.72389
-3.72387
-3.72387
-3.72387
-3.72387
-3.72388
-3.72388
-3.72388
-4.37057
-4.37057
-4.37057
-4.37057
-4.37058
-4.37058
-4.37059
-4.3706
-4.37063
-4.37066
-4.3707
-4.37074
-4.37079
-4.37085
-4.3709
-4.37095
-4.37097
-4.37095
-4.37091
-4.37083
-4.37074
-4.37065
-4.37057
-4.3705
-4.37046
-4.37044
-4.37044
-4.37044
-4.37044
-4.37045
-4.37045
-4.37045
-5.06207
-5.06207
-5.06207
-5.06207
-5.06208
-5.06208
-5.06209
-5.0621
-5.06212
-5.06215
-5.06219
-5.06224
-5.0623
-5.06236
-5.06243
-5.06249
-5.06253
-5.06253
-5.0625
-5.06244
-5.06235
-5.06225
-5.06216
-5.06207
-5.06201
-5.06196
-5.06194
-5.06194
-5.06194
-5.06195
-5.06195
-5.06196
-5.70886
-5.70886
-5.70886
-5.70886
-5.70887
-5.70887
-5.70889
-5.7089
-5.70892
-5.70895
-5.70899
-5.70904
-5.7091
-5.70917
-5.70924
-5.70932
-5.70937
-5.70939
-5.70938
-5.70934
-5.70927
-5.70919
-5.7091
-5.70901
-5.70893
-5.70887
-5.70883
-5.70881
-5.70881
-5.70881
-5.70882
-5.70883
-6.27193
-6.27193
-6.27194
-6.27194
-6.27194
-6.27195
-6.27196
-6.27198
-6.272
-6.27203
-6.27207
-6.27212
-6.27218
-6.27225
-6.27233
-6.27241
-6.27248
-6.2725
-6.2725
-6.27248
-6.27243
-6.27237
-6.2723
-6.27222
-6.27214
-6.27207
-6.27201
-6.27198
-6.27197
-6.27197
-6.27198
-6.27199
-6.76211
-6.76211
-6.76211
-6.76212
-6.76212
-6.76213
-6.76214
-6.76216
-6.76218
-6.76221
-6.76225
-6.7623
-6.76236
-6.76243
-6.76251
-6.7626
-6.76266
-6.7627
-6.7627
-6.76268
-6.76265
-6.76261
-6.76255
-6.76249
-6.76241
-6.76234
-6.76228
-6.76224
-6.76222
-6.76221
-6.76222
-6.76223
-7.18883
-7.18883
-7.18883
-7.18883
-7.18883
-7.18884
-7.18885
-7.18886
-7.18889
-7.18892
-7.18895
-7.189
-7.18907
-7.18914
-7.18922
-7.18931
-7.18938
-7.18941
-7.18942
-7.1894
-7.18938
-7.18934
-7.1893
-7.18924
-7.18917
-7.1891
-7.18904
-7.18899
-7.18896
-7.18895
-7.18895
-7.18896
-7.56029
-7.56029
-7.56029
-7.56029
-7.56029
-7.5603
-7.56031
-7.56032
-7.56034
-7.56037
-7.56041
-7.56046
-7.56052
-7.5606
-7.56068
-7.56077
-7.56085
-7.56088
-7.56088
-7.56087
-7.56084
-7.5608
-7.56076
-7.5607
-7.56064
-7.56057
-7.56049
-7.56043
-7.56039
-7.56038
-7.56038
-7.56039
-7.88367
-7.88367
-7.88366
-7.88366
-7.88366
-7.88367
-7.88367
-7.88368
-7.8837
-7.88372
-7.88376
-7.88381
-7.88388
-7.88396
-7.88405
-7.88415
-7.88422
-7.88426
-7.88426
-7.88424
-7.88421
-7.88416
-7.88411
-7.88404
-7.88397
-7.88389
-7.8838
-7.88373
-7.88367
-7.88365
-7.88365
-7.88366
-8.16518
-8.16518
-8.16518
-8.16517
-8.16517
-8.16517
-8.16517
-8.16517
-8.16519
-8.16521
-8.16525
-8.16531
-8.16538
-8.16546
-8.16556
-8.16566
-8.16573
-8.16577
-8.16578
-8.16575
-8.16571
-8.16566
-8.16559
-8.1655
-8.16541
-8.1653
-8.1652
-8.1651
-8.16502
-8.16497
-8.16496
-8.16497
-8.41025
-8.41025
-8.41025
-8.41024
-8.41023
-8.41022
-8.41022
-8.41022
-8.41023
-8.41025
-8.41029
-8.41035
-8.41043
-8.41052
-8.41062
-8.41072
-8.4108
-8.41084
-8.41085
-8.41082
-8.41078
-8.41071
-8.41062
-8.41051
-8.41038
-8.41024
-8.41009
-8.40996
-8.40984
-8.40977
-8.40975
-8.40975
-8.6236
-8.6236
-8.6236
-8.62359
-8.62357
-8.62356
-8.62354
-8.62353
-8.62354
-8.62357
-8.62361
-8.62368
-8.62376
-8.62385
-8.62396
-8.62407
-8.62415
-8.62419
-8.62419
-8.62417
-8.62412
-8.62404
-8.62393
-8.62379
-8.62362
-8.62343
-8.62323
-8.62304
-8.62287
-8.62274
-8.62269
-8.62269
-8.80934
-8.80934
-8.80933
-8.80932
-8.80929
-8.80927
-8.80924
-8.80923
-8.80924
-8.80927
-8.80932
-8.80939
-8.80947
-8.80957
-8.80968
-8.80979
-8.80987
-8.80992
-8.80992
-8.8099
-8.80984
-8.80975
-8.80962
-8.80946
-8.80924
-8.809
-8.80873
-8.80845
-8.80821
-8.80801
-8.80791
-8.80787
-8.97106
-8.97106
-8.97104
-8.97101
-8.97097
-8.97093
-8.9709
-8.97089
-8.97089
-8.97093
-8.97098
-8.97105
-8.97114
-8.97125
-8.97136
-8.97147
-8.97156
-8.9716
-8.97161
-8.97158
-8.97152
-8.97142
-8.97128
-8.97108
-8.97083
-8.97053
-8.97019
-8.96982
-8.96947
-8.96917
-8.96896
-8.96886
-9.11189
-9.11188
-9.11184
-9.11178
-9.11172
-9.11167
-9.11163
-9.11161
-9.11162
-9.11166
-9.11172
-9.11179
-9.11189
-9.112
-9.11211
-9.11222
-9.11231
-9.11236
-9.11236
-9.11233
-9.11227
-9.11216
-9.11201
-9.11179
-9.11151
-9.11116
-9.11075
-9.11028
-9.1098
-9.10934
-9.10898
-9.10875
-9.23461
-9.23453
-9.23443
-9.23433
-9.23424
-9.23418
-9.23414
-9.23412
-9.23413
-9.23417
-9.23423
-9.23432
-9.23441
-9.23452
-9.23464
-9.23475
-9.23484
-9.23489
-9.2349
-9.23486
-9.2348
-9.23469
-9.23452
-9.2343
-9.23399
-9.23361
-9.23314
-9.2326
-9.23197
-9.2313
-9.23067
-9.23012
-9.34177
-9.34138
-9.34113
-9.34098
-9.34088
-9.34081
-9.34077
-9.34076
-9.34078
-9.34082
-9.34089
-9.34097
-9.34107
-9.34119
-9.34131
-9.34142
-9.34151
-9.34156
-9.34157
-9.34154
-9.34147
-9.34135
-9.34119
-9.34095
-9.34064
-9.34024
-9.33975
-9.33914
-9.3384
-9.33749
-9.33639
-9.33513
-9.43565
-9.43441
-9.43394
-9.43379
-9.4337
-9.43363
-9.4336
-9.4336
-9.43362
-9.43367
-9.43374
-9.43383
-9.43393
-9.43404
-9.43416
-9.43428
-9.43437
-9.43442
-9.43443
-9.4344
-9.43433
-9.43422
-9.43405
-9.43382
-9.4335
-9.4331
-9.4326
-9.43196
-9.43115
-9.43005
-9.42845
-9.42619
)
;

boundaryField
{
    movingWall
    {
        type            calculated;
        value           nonuniform List<scalar> 
32
(
-9.47887
-9.47763
-9.47716
-9.47701
-9.47692
-9.47685
-9.47682
-9.47681
-9.47684
-9.47689
-9.47696
-9.47705
-9.47715
-9.47726
-9.47738
-9.4775
-9.47759
-9.47764
-9.47765
-9.47762
-9.47755
-9.47744
-9.47727
-9.47704
-9.47672
-9.47632
-9.47582
-9.47518
-9.47437
-9.47327
-9.47167
-9.46941
)
;
    }
    fixedWalls
    {
        type            calculated;
        value           nonuniform List<scalar> 
64
(
6.93889e-18
-0.0928108
-0.199426
-0.321901
-0.462601
-0.624236
-0.80992
-1.02323
-1.26825
-1.5497
-1.873
-2.24436
-2.67096
-3.16099
-3.72393
-4.37057
-5.06207
-5.70886
-6.27193
-6.76211
-7.18883
-7.56029
-7.88367
-8.16518
-8.41025
-8.6236
-8.80934
-8.97106
-9.11189
-9.23461
-9.34177
-9.43565
-0.000207585
-0.0930195
-0.199633
-0.322103
-0.462787
-0.624397
-0.810047
-1.02332
-1.26831
-1.54976
-1.87307
-2.24445
-2.67105
-3.16104
-3.72388
-4.37045
-5.06196
-5.70883
-6.27199
-6.76223
-7.18896
-7.56039
-7.88366
-8.16497
-8.40975
-8.62269
-8.80787
-8.96886
-9.10875
-9.23012
-9.33513
-9.42619
)
;
    }
    floor
    {
        type            calculated;
        value           nonuniform List<scalar> 
32
(
0.0431946
0.0431922
0.0431898
0.0431895
0.0431931
0.0432019
0.043218
0.0432444
0.0432844
0.0433366
0.0433849
0.043406
0.0433854
0.0433211
0.0432344
0.043143
0.0430685
0.043022
0.042997
0.0429848
0.04298
0.042979
0.0429797
0.0429808
0.0429816
0.042982
0.0429823
0.0429827
0.0429836
0.0429849
0.0429862
0.0429869
)
;
    }
    frontAndBack
    {
        type            empty;
    }
}


// ************************************************************************* //
