/*--------------------------------*- C++ -*----------------------------------*\
| =========                 |                                                 |
| \\      /  F ield         | OpenFOAM: The Open Source CFD Toolbox           |
|  \\    /   O peration     | Version:  2212                                  |
|   \\  /    A nd           | Website:  www.openfoam.com                      |
|    \\/     M anipulation  |                                                 |
\*---------------------------------------------------------------------------*/
FoamFile
{
    version     2.0;
    format      ascii;
    arch        "LSB;label=64;scalar=64";
    class       volScalarField;
    location    "1250";
    object      Saa;
}
// * * * * * * * * * * * * * * * * * * * * * * * * * * * * * * * * * * * * * //

dimensions      [1 -3 0 0 0 0 0];

internalField   nonuniform List<scalar> 
1024
(
0.005466
0.00546604
0.00546611
0.00546624
0.00546645
0.00546673
0.00546711
0.00546756
0.00546806
0.00546858
0.00546907
0.00546949
0.00546981
0.00546998
0.00546997
0.00546973
0.00546924
0.00546859
0.00546786
0.00546708
0.00546623
0.00546535
0.00546446
0.00546363
0.00546289
0.00546228
0.0054618
0.00546146
0.00546123
0.00546108
0.005461
0.00546097
0.00546601
0.00546604
0.00546612
0.00546625
0.00546646
0.00546675
0.00546713
0.00546759
0.00546809
0.00546861
0.0054691
0.00546952
0.00546984
0.00547001
0.00547
0.00546975
0.00546926
0.00546861
0.00546789
0.00546711
0.00546627
0.00546538
0.0054645
0.00546366
0.00546291
0.0054623
0.00546182
0.00546147
0.00546123
0.00546109
0.00546101
0.00546097
0.00546602
0.00546605
0.00546613
0.00546627
0.00546648
0.00546678
0.00546717
0.00546763
0.00546814
0.00546867
0.00546917
0.0054696
0.00546991
0.00547007
0.00547005
0.0054698
0.00546931
0.00546866
0.00546794
0.00546716
0.00546633
0.00546545
0.00546457
0.00546372
0.00546297
0.00546234
0.00546186
0.0054615
0.00546125
0.0054611
0.00546102
0.00546099
0.00546604
0.00546607
0.00546615
0.00546629
0.00546651
0.00546682
0.00546721
0.00546769
0.00546822
0.00546876
0.00546928
0.00546973
0.00547004
0.0054702
0.00547015
0.00546988
0.00546937
0.00546872
0.00546801
0.00546725
0.00546642
0.00546556
0.00546467
0.00546382
0.00546306
0.00546242
0.00546191
0.00546154
0.00546129
0.00546113
0.00546104
0.00546101
0.00546606
0.00546609
0.00546617
0.00546631
0.00546654
0.00546686
0.00546727
0.00546776
0.00546831
0.00546889
0.00546946
0.00546994
0.00547026
0.00547039
0.00547031
0.00546999
0.00546946
0.0054688
0.00546809
0.00546734
0.00546653
0.00546568
0.00546481
0.00546395
0.00546318
0.00546252
0.00546199
0.0054616
0.00546134
0.00546117
0.00546108
0.00546104
0.00546609
0.00546612
0.0054662
0.00546634
0.00546657
0.0054669
0.00546732
0.00546784
0.00546843
0.00546907
0.00546971
0.00547024
0.00547057
0.00547066
0.00547052
0.00547013
0.00546954
0.00546886
0.00546816
0.00546742
0.00546664
0.00546581
0.00546495
0.0054641
0.00546331
0.00546263
0.00546208
0.00546168
0.0054614
0.00546122
0.00546113
0.00546109
0.00546613
0.00546616
0.00546624
0.00546638
0.0054666
0.00546693
0.00546737
0.00546793
0.00546858
0.0054693
0.00547003
0.00547063
0.00547098
0.00547102
0.00547077
0.00547028
0.00546961
0.00546889
0.00546817
0.00546745
0.00546669
0.00546589
0.00546506
0.00546422
0.00546343
0.00546274
0.00546217
0.00546175
0.00546146
0.00546128
0.00546118
0.00546114
0.00546619
0.00546622
0.00546629
0.00546642
0.00546665
0.00546698
0.00546744
0.00546803
0.00546876
0.00546959
0.00547043
0.00547111
0.00547147
0.00547143
0.00547106
0.00547042
0.00546963
0.00546884
0.00546811
0.00546739
0.00546666
0.0054659
0.00546509
0.00546428
0.0054635
0.00546281
0.00546224
0.00546181
0.00546151
0.00546132
0.00546122
0.00546118
0.0054663
0.00546632
0.00546639
0.00546651
0.00546673
0.00546706
0.00546754
0.00546819
0.00546901
0.00546996
0.00547092
0.00547167
0.00547201
0.00547187
0.00547131
0.00547048
0.00546954
0.00546868
0.00546791
0.00546719
0.00546649
0.00546576
0.005465
0.00546422
0.00546347
0.0054628
0.00546225
0.00546182
0.00546153
0.00546134
0.00546124
0.00546119
0.0054665
0.00546652
0.00546658
0.0054667
0.00546691
0.00546725
0.00546776
0.00546847
0.00546939
0.00547047
0.00547153
0.00547231
0.00547258
0.00547226
0.00547149
0.00547043
0.00546932
0.00546834
0.00546753
0.00546681
0.00546613
0.00546544
0.00546473
0.00546401
0.00546331
0.00546268
0.00546216
0.00546176
0.00546149
0.00546131
0.00546121
0.00546116
0.00546691
0.00546693
0.00546698
0.0054671
0.00546731
0.00546767
0.00546821
0.005469
0.00547002
0.0054712
0.00547231
0.00547303
0.00547313
0.00547259
0.00547155
0.00547025
0.00546895
0.00546785
0.00546697
0.00546623
0.00546555
0.00546489
0.00546424
0.00546359
0.00546297
0.00546241
0.00546196
0.00546161
0.00546136
0.0054612
0.00546111
0.00546107
0.00546766
0.00546768
0.00546773
0.00546786
0.00546808
0.00546847
0.00546907
0.00546993
0.00547102
0.00547223
0.00547327
0.00547383
0.00547368
0.00547285
0.00547156
0.00547005
0.00546857
0.00546734
0.00546636
0.00546554
0.00546482
0.00546417
0.00546356
0.00546298
0.00546245
0.005462
0.00546162
0.00546134
0.00546114
0.00546101
0.00546094
0.00546091
0.00546889
0.00546891
0.00546898
0.00546912
0.00546937
0.0054698
0.00547046
0.00547135
0.00547245
0.00547358
0.00547444
0.00547472
0.00547427
0.00547321
0.00547178
0.00547018
0.00546862
0.00546726
0.00546612
0.00546515
0.0054643
0.00546356
0.00546292
0.00546237
0.00546191
0.00546155
0.00546127
0.00546108
0.00546096
0.00546089
0.00546085
0.00546084
0.00547063
0.00547066
0.00547074
0.00547091
0.0054712
0.00547166
0.00547234
0.00547323
0.00547424
0.00547518
0.00547577
0.00547577
0.00547515
0.00547408
0.0054728
0.00547142
0.00547003
0.00546871
0.00546746
0.00546629
0.0054652
0.0054642
0.00546335
0.00546266
0.00546215
0.00546181
0.00546162
0.00546154
0.00546153
0.00546157
0.00546161
0.00546164
0.00547273
0.00547276
0.00547286
0.00547304
0.00547336
0.00547385
0.00547453
0.00547537
0.00547625
0.00547699
0.00547737
0.00547729
0.00547685
0.00547623
0.00547559
0.00547496
0.00547431
0.00547357
0.0054727
0.00547171
0.00547061
0.00546945
0.00546832
0.00546729
0.00546647
0.00546586
0.00546549
0.00546532
0.00546531
0.00546538
0.00546546
0.00546551
0.00547483
0.00547487
0.00547497
0.00547518
0.00547553
0.00547606
0.00547676
0.00547759
0.00547843
0.00547913
0.00547962
0.00547991
0.00548014
0.00548046
0.00548094
0.0054816
0.00548234
0.00548292
0.00548322
0.0054832
0.00548287
0.00548225
0.00548139
0.00548037
0.00547929
0.00547822
0.00547728
0.00547654
0.00547604
0.00547577
0.00547565
0.00547562
0.00547636
0.00547639
0.00547649
0.00547669
0.00547703
0.00547755
0.00547826
0.00547914
0.0054801
0.00548106
0.00548196
0.00548282
0.00548377
0.00548489
0.00548625
0.00548785
0.00548955
0.00549104
0.00549222
0.00549312
0.00549373
0.00549404
0.00549405
0.00549375
0.00549318
0.00549239
0.0054915
0.00549061
0.00548984
0.00548928
0.00548896
0.00548883
0.00547731
0.00547734
0.00547743
0.00547761
0.00547792
0.0054784
0.00547909
0.00547998
0.00548101
0.00548212
0.00548325
0.00548439
0.0054856
0.00548692
0.00548839
0.00548995
0.00549145
0.00549268
0.00549368
0.00549455
0.00549534
0.00549603
0.0054966
0.00549702
0.00549727
0.00549732
0.00549718
0.00549691
0.00549657
0.00549626
0.00549604
0.00549593
0.00547789
0.00547791
0.00547799
0.00547815
0.00547842
0.00547886
0.0054795
0.00548033
0.00548134
0.00548247
0.00548366
0.00548485
0.00548606
0.0054873
0.00548856
0.00548979
0.00549084
0.00549166
0.00549238
0.00549313
0.00549393
0.00549476
0.00549556
0.00549629
0.00549689
0.00549734
0.00549764
0.0054978
0.00549785
0.00549783
0.00549778
0.00549776
0.00547823
0.00547825
0.00547832
0.00547846
0.0054787
0.00547909
0.00547965
0.00548041
0.00548134
0.00548241
0.00548356
0.00548471
0.00548583
0.00548692
0.00548796
0.0054889
0.00548967
0.00549027
0.00549088
0.00549162
0.00549251
0.00549352
0.00549457
0.00549556
0.00549642
0.00549709
0.00549757
0.00549788
0.00549806
0.00549814
0.00549816
0.00549817
0.00547843
0.00547845
0.00547851
0.00547863
0.00547884
0.00547918
0.00547967
0.00548033
0.00548117
0.00548214
0.00548319
0.00548426
0.00548529
0.00548626
0.00548715
0.00548794
0.0054886
0.00548917
0.00548979
0.00549054
0.00549147
0.00549257
0.00549375
0.00549492
0.00549599
0.00549686
0.00549751
0.00549795
0.0054982
0.00549833
0.00549838
0.00549839
0.00547858
0.0054786
0.00547865
0.00547875
0.00547892
0.0054792
0.00547962
0.0054802
0.00548093
0.0054818
0.00548274
0.00548372
0.00548467
0.00548557
0.00548641
0.00548718
0.00548788
0.00548852
0.0054892
0.00548999
0.00549094
0.00549204
0.00549325
0.00549448
0.00549566
0.00549667
0.00549745
0.00549801
0.00549834
0.00549852
0.00549859
0.00549861
0.0054788
0.00547881
0.00547883
0.0054789
0.00547903
0.00547925
0.0054796
0.00548009
0.00548073
0.0054815
0.00548236
0.00548327
0.00548419
0.00548508
0.00548595
0.00548679
0.0054876
0.00548836
0.00548911
0.00548993
0.00549087
0.00549192
0.00549308
0.0054943
0.00549548
0.00549655
0.00549743
0.00549807
0.00549848
0.0054987
0.00549879
0.00549881
0.00547921
0.00547919
0.00547918
0.00547919
0.00547926
0.00547943
0.00547971
0.00548014
0.00548071
0.00548142
0.00548224
0.00548313
0.00548406
0.005485
0.00548594
0.00548689
0.00548782
0.00548868
0.00548949
0.0054903
0.00549119
0.00549216
0.00549323
0.00549435
0.00549548
0.00549653
0.00549744
0.00549814
0.0054986
0.00549887
0.00549898
0.00549901
0.0054799
0.00547986
0.00547981
0.00547976
0.00547977
0.00547987
0.00548011
0.0054805
0.00548106
0.00548176
0.00548259
0.0054835
0.00548447
0.00548548
0.00548649
0.00548753
0.00548854
0.00548945
0.00549025
0.00549103
0.00549183
0.00549269
0.00549363
0.00549462
0.00549564
0.00549663
0.00549751
0.00549822
0.00549872
0.00549902
0.00549915
0.00549919
0.00548098
0.00548091
0.0054808
0.00548071
0.00548067
0.00548076
0.00548099
0.0054814
0.00548198
0.00548272
0.00548358
0.00548453
0.00548553
0.00548656
0.00548761
0.00548867
0.00548969
0.00549058
0.00549134
0.00549203
0.00549273
0.00549346
0.00549424
0.00549508
0.00549595
0.00549683
0.00549764
0.00549833
0.00549884
0.00549916
0.00549931
0.00549936
0.00548248
0.00548238
0.00548224
0.00548214
0.00548212
0.00548224
0.00548253
0.00548299
0.00548362
0.00548439
0.00548527
0.00548621
0.0054872
0.0054882
0.00548921
0.00549021
0.00549116
0.00549197
0.00549264
0.00549323
0.00549381
0.00549439
0.00549502
0.00549569
0.0054964
0.00549713
0.00549784
0.00549847
0.00549896
0.00549929
0.00549946
0.0054995
0.00548443
0.0054843
0.00548418
0.00548414
0.00548422
0.00548444
0.00548481
0.00548533
0.00548598
0.00548673
0.00548757
0.00548844
0.00548934
0.00549024
0.00549113
0.00549201
0.00549283
0.00549351
0.00549406
0.00549454
0.00549499
0.00549544
0.00549592
0.00549643
0.00549697
0.00549754
0.00549812
0.00549865
0.0054991
0.00549941
0.00549958
0.00549963
0.00548684
0.00548673
0.0054867
0.0054868
0.00548702
0.00548734
0.00548777
0.00548829
0.0054889
0.00548957
0.00549028
0.00549102
0.00549176
0.0054925
0.00549322
0.00549392
0.00549456
0.00549509
0.00549551
0.00549588
0.00549621
0.00549654
0.00549687
0.00549724
0.00549762
0.00549804
0.00549847
0.00549889
0.00549926
0.00549953
0.00549969
0.00549975
0.00548977
0.00548973
0.00548985
0.00549011
0.00549043
0.0054908
0.0054912
0.00549165
0.00549214
0.00549265
0.00549319
0.00549373
0.00549427
0.0054948
0.00549532
0.00549582
0.00549627
0.00549664
0.00549693
0.00549718
0.0054974
0.00549762
0.00549784
0.00549807
0.00549832
0.00549859
0.00549888
0.00549917
0.00549944
0.00549966
0.00549979
0.00549984
0.00549334
0.00549342
0.00549367
0.00549395
0.00549424
0.00549453
0.00549482
0.00549511
0.00549542
0.00549574
0.00549606
0.00549638
0.0054967
0.00549702
0.00549732
0.00549761
0.00549787
0.00549808
0.00549825
0.00549839
0.00549852
0.00549864
0.00549876
0.00549889
0.00549902
0.00549917
0.00549933
0.00549949
0.00549965
0.00549979
0.00549988
0.00549991
0.00549767
0.00549773
0.00549786
0.00549798
0.0054981
0.00549821
0.00549831
0.00549842
0.00549852
0.00549862
0.00549873
0.00549884
0.00549894
0.00549904
0.00549914
0.00549924
0.00549932
0.00549939
0.00549944
0.00549949
0.00549953
0.00549956
0.0054996
0.00549964
0.00549968
0.00549973
0.00549978
0.00549983
0.00549988
0.00549993
0.00549996
0.00549997
)
;

boundaryField
{
    movingWall
    {
        type            fixedValue;
        value           uniform 0.0055;
    }
    fixedWalls
    {
        type            zeroGradient;
    }
    floor
    {
        type            zeroGradient;
    }
    frontAndBack
    {
        type            empty;
    }
}


// ************************************************************************* //
