/*--------------------------------*- C++ -*----------------------------------*\
| =========                 |                                                 |
| \\      /  F ield         | OpenFOAM: The Open Source CFD Toolbox           |
|  \\    /   O peration     | Version:  2212                                  |
|   \\  /    A nd           | Website:  www.openfoam.com                      |
|    \\/     M anipulation  |                                                 |
\*---------------------------------------------------------------------------*/
FoamFile
{
    version     2.0;
    format      ascii;
    arch        "LSB;label=64;scalar=64";
    class       volScalarField;
    location    "1250";
    object      Sco2;
}
// * * * * * * * * * * * * * * * * * * * * * * * * * * * * * * * * * * * * * //

dimensions      [1 -3 0 0 0 0 0];

internalField   nonuniform List<scalar> 
1024
(
0.00569826
0.00570025
0.00570511
0.00571389
0.00572766
0.00574727
0.00577296
0.00580405
0.00583892
0.00587518
0.00591013
0.00594087
0.00596457
0.00597866
0.00598028
0.00596635
0.0059358
0.00589446
0.00584822
0.00579838
0.00574556
0.005691
0.00563706
0.0055867
0.00554257
0.00550631
0.00547831
0.005458
0.00544422
0.00543563
0.00543092
0.005429
0.00569854
0.00570056
0.0057055
0.00571443
0.00572844
0.00574835
0.00577436
0.00580574
0.00584083
0.00587727
0.00591239
0.00594322
0.00596688
0.00598086
0.00598232
0.00596824
0.00593761
0.00589628
0.00585011
0.00580038
0.00574768
0.00569318
0.00563917
0.00558862
0.00554419
0.00550759
0.00547928
0.00545872
0.00544477
0.00543606
0.0054313
0.00542935
0.00569917
0.00570125
0.00570633
0.00571553
0.00572994
0.00575038
0.00577698
0.00580896
0.00584465
0.00588176
0.00591763
0.00594902
0.00597275
0.00598636
0.00598721
0.00597253
0.0059415
0.00590006
0.005854
0.00580452
0.0057521
0.00569777
0.00564367
0.00559274
0.00554772
0.00551043
0.00548146
0.00546036
0.00544603
0.00543709
0.0054322
0.0054302
0.00570023
0.00570237
0.00570761
0.0057171
0.00573199
0.00575308
0.00578049
0.00581342
0.0058503
0.00588897
0.00592672
0.0059596
0.00598369
0.00599654
0.00599596
0.00597974
0.00594763
0.00590573
0.00585971
0.00581059
0.00575865
0.00570467
0.00565056
0.00559915
0.00555328
0.00551495
0.00548498
0.00546306
0.00544814
0.00543883
0.00543374
0.00543167
0.00570175
0.00570392
0.00570927
0.00571901
0.00573433
0.00575609
0.00578447
0.00581881
0.00585775
0.00589931
0.00594057
0.00597633
0.00600132
0.0060129
0.00600964
0.00599039
0.00595595
0.00591291
0.00586667
0.00581792
0.00576666
0.00571327
0.00565933
0.00560749
0.00556064
0.00552105
0.00548981
0.00546683
0.00545113
0.00544133
0.00543598
0.00543381
0.00570377
0.00570594
0.00571131
0.00572115
0.00573674
0.00575908
0.00578858
0.00582488
0.005867
0.00591317
0.00595995
0.00600029
0.00602691
0.00603663
0.00602906
0.00600468
0.00596611
0.0059208
0.00587377
0.00582525
0.00577478
0.00572227
0.00566881
0.00561676
0.00556904
0.00552818
0.00549559
0.00547143
0.00545486
0.0054445
0.00543885
0.00543656
0.00570654
0.00570863
0.00571388
0.00572361
0.00573924
0.00576203
0.00579278
0.00583169
0.0058783
0.005931
0.0059854
0.00603201
0.00606096
0.00606809
0.00605426
0.00602222
0.00597717
0.00592802
0.00587935
0.00583069
0.00578099
0.00572958
0.00567699
0.00562518
0.005577
0.00553517
0.00550144
0.00547623
0.00545885
0.00544797
0.00544203
0.00543963
0.00571075
0.00571269
0.00571766
0.00572706
0.00574249
0.00576559
0.00579776
0.00583996
0.00589244
0.00595357
0.00601738
0.00607141
0.00610282
0.00610624
0.00608395
0.00604146
0.00598734
0.00593251
0.0058811
0.00583171
0.00578259
0.00573243
0.00568114
0.00563021
0.00558229
0.00554021
0.00550595
0.00548015
0.00546228
0.00545105
0.00544492
0.00544243
0.00571812
0.00571985
0.00572441
0.00573332
0.00574842
0.00577182
0.00580568
0.00585194
0.00591161
0.00598269
0.00605685
0.00611821
0.00615092
0.0061486
0.00611529
0.0060596
0.00599393
0.00593158
0.00587621
0.00582534
0.00577646
0.0057276
0.00567804
0.00562879
0.00558219
0.00554099
0.00550723
0.00548169
0.00546392
0.00545271
0.00544655
0.00544404
0.00573231
0.00573378
0.00573791
0.00574633
0.00576122
0.00578523
0.0058214
0.00587268
0.00594063
0.00602222
0.00610605
0.00617255
0.00620337
0.00619193
0.00614467
0.00607341
0.00599421
0.0059227
0.00586208
0.00580878
0.00575959
0.00571192
0.00566452
0.00561788
0.00557392
0.0055351
0.00550327
0.00547915
0.00546231
0.00545162
0.00544569
0.00544325
0.0057599
0.00576119
0.00576504
0.00577331
0.00578856
0.00581406
0.00585364
0.00591099
0.00598753
0.00607839
0.00616866
0.00623539
0.00625889
0.00623393
0.00617009
0.00608205
0.00598834
0.00590623
0.00583871
0.00578141
0.0057307
0.00568364
0.00563855
0.00559541
0.00555554
0.00552077
0.00549248
0.0054711
0.00545617
0.00544663
0.0054413
0.00543907
0.00581049
0.00581183
0.00581588
0.00582477
0.00584145
0.00586976
0.00591404
0.005978
0.0060619
0.00615822
0.00624864
0.0063081
0.00631788
0.0062761
0.00619578
0.00609296
0.00598599
0.00589219
0.00581514
0.0057506
0.00569524
0.00564642
0.00560245
0.0055628
0.00552787
0.00549849
0.00547521
0.00545796
0.00544614
0.00543874
0.0054347
0.00543307
0.00589378
0.0058955
0.00590048
0.00591104
0.00593047
0.00596285
0.00601248
0.00608215
0.00616997
0.00626538
0.00634764
0.00639239
0.00638509
0.00632911
0.0062399
0.00613173
0.0060187
0.00591507
0.00582547
0.00574785
0.00568074
0.00562308
0.00557447
0.0055345
0.00550267
0.00547843
0.00546113
0.00544984
0.00544338
0.00544035
0.00543937
0.00543927
0.00601301
0.00601538
0.00602182
0.00603484
0.00605783
0.00609474
0.00614914
0.0062221
0.00630916
0.00639725
0.00646545
0.00649412
0.00647653
0.00642166
0.00634448
0.00625415
0.00615647
0.00605811
0.00596263
0.00587048
0.00578396
0.00570505
0.00563751
0.00558406
0.00554566
0.00552111
0.0055084
0.00550473
0.00550691
0.00551171
0.00551645
0.00551927
0.00615859
0.00616161
0.00616958
0.00618522
0.00621198
0.00625349
0.00631224
0.00638726
0.00647148
0.00655069
0.00660812
0.00663342
0.00662923
0.00660777
0.00658039
0.00655073
0.00651569
0.00646975
0.00640999
0.0063365
0.00625214
0.0061609
0.00607016
0.0059878
0.00592139
0.00587288
0.00584345
0.00583112
0.00583112
0.00583743
0.00584465
0.00584916
0.00630726
0.00631095
0.0063207
0.00633971
0.0063717
0.00641992
0.0064855
0.0065653
0.00665085
0.00673039
0.00679527
0.00684544
0.00688928
0.00693786
0.00699883
0.00707521
0.00715918
0.00723032
0.00727582
0.00729259
0.00727966
0.00723884
0.00717458
0.00709345
0.0070044
0.00691504
0.00683495
0.0067718
0.00672902
0.00670504
0.00669482
0.00669229
0.00641064
0.00641418
0.00642372
0.0064425
0.00647428
0.00652247
0.00658871
0.00667134
0.00676477
0.00686105
0.00695435
0.00704523
0.00714087
0.00725039
0.00738034
0.00753451
0.00770335
0.00786178
0.0079978
0.00811021
0.00819583
0.00825135
0.0082742
0.00826375
0.00822251
0.00815728
0.00807811
0.00799739
0.00792713
0.00787555
0.00784503
0.00783259
0.00646741
0.0064707
0.00647945
0.00649662
0.00652573
0.00657029
0.00663266
0.00671273
0.00680709
0.00690972
0.00701493
0.00712089
0.00723077
0.00734991
0.00748187
0.0076277
0.00777767
0.00791785
0.00805029
0.00817981
0.00830484
0.00842019
0.00851898
0.00859462
0.0086425
0.00866134
0.00865393
0.00862724
0.00859143
0.0085573
0.00853285
0.00852117
0.00649452
0.0064976
0.0065056
0.00652096
0.00654678
0.00658632
0.00664222
0.0067153
0.00680357
0.00690226
0.00700552
0.00710917
0.00721252
0.00731721
0.00742436
0.00753351
0.00763788
0.00773639
0.00784293
0.00796661
0.0081062
0.00825425
0.00839937
0.0085297
0.00863605
0.00871345
0.00876155
0.00878399
0.00878755
0.00878071
0.00877165
0.00876598
0.00650434
0.00650723
0.0065145
0.00652816
0.00655078
0.00658519
0.00663391
0.00669818
0.00677691
0.00686634
0.00696095
0.00705543
0.00714665
0.00723389
0.00731727
0.00739688
0.00747049
0.00754475
0.00763601
0.00775546
0.00790441
0.0080767
0.00825904
0.00843426
0.00858702
0.00870711
0.00879124
0.00884216
0.0088668
0.00887409
0.00887298
0.00887045
0.00650569
0.00650824
0.00651458
0.00652642
0.00654591
0.00657543
0.00661721
0.0066725
0.00674074
0.00681908
0.00690276
0.0069866
0.0070667
0.00714143
0.00721092
0.0072769
0.007341
0.00741141
0.00750018
0.00761726
0.00776649
0.0079456
0.00814472
0.00834705
0.00853416
0.00869038
0.0088071
0.00888366
0.00892589
0.00894344
0.00894702
0.00894585
0.00650814
0.00650992
0.00651463
0.00652386
0.00653962
0.00656406
0.00659913
0.00664598
0.00670434
0.00677214
0.00684578
0.00692102
0.00699444
0.00706448
0.00713179
0.00719958
0.00727106
0.00735093
0.00744559
0.00756315
0.00770867
0.00788321
0.00808148
0.00829113
0.00849501
0.00867493
0.00881739
0.00891687
0.00897612
0.00900396
0.00901213
0.00901208
0.00652401
0.00652429
0.00652601
0.00653097
0.00654145
0.00655983
0.00658812
0.0066275
0.006678
0.00673829
0.0068059
0.0068778
0.00695139
0.0070255
0.00710103
0.00718186
0.00727014
0.00736448
0.0074669
0.00758469
0.00772386
0.00788777
0.00807454
0.00827646
0.00848035
0.00866959
0.00882817
0.00894561
0.00902017
0.00905822
0.00907129
0.00907245
0.00656781
0.00656561
0.00656258
0.00656114
0.00656443
0.00657569
0.00659756
0.00663163
0.00667829
0.00673667
0.00680498
0.00688082
0.006962
0.00704733
0.00713747
0.00723602
0.00734236
0.00744928
0.00755638
0.00767103
0.00780003
0.00794846
0.00811732
0.0083024
0.00849425
0.00867968
0.00884356
0.00897235
0.00905932
0.00910693
0.00912513
0.0091277
0.00665365
0.00664794
0.00663865
0.00662947
0.00662502
0.00662988
0.00664778
0.00668096
0.00672985
0.0067934
0.00686948
0.00695545
0.00704881
0.00714796
0.00725293
0.00736661
0.00748547
0.00759852
0.00770462
0.00781157
0.00792665
0.0080558
0.008202
0.00836401
0.00853597
0.00870797
0.00886713
0.00899957
0.00909482
0.00915062
0.00917395
0.00917815
0.0067925
0.00678256
0.00676681
0.00675118
0.00674201
0.006745
0.00676463
0.00680329
0.00686066
0.00693462
0.00702205
0.00711951
0.00722397
0.00733341
0.00744736
0.00756796
0.00768986
0.00780073
0.00789971
0.0079948
0.00809326
0.00820104
0.0083221
0.00845728
0.00860385
0.00875535
0.00890166
0.00903
0.00912821
0.00918988
0.00921794
0.00922396
0.00699112
0.00697693
0.00695718
0.00694069
0.00693458
0.00694403
0.00697281
0.00702232
0.00709082
0.00717503
0.00727104
0.00737498
0.00748366
0.007595
0.00770834
0.00782534
0.00794012
0.00804105
0.0081279
0.00820825
0.00828878
0.0083749
0.00847059
0.00857785
0.00869615
0.00882214
0.00894902
0.00906619
0.00916142
0.00922554
0.00925732
0.00926524
0.00725322
0.00723624
0.00721878
0.00721138
0.00721881
0.00724299
0.00728548
0.00734598
0.00742184
0.00750968
0.00760577
0.00770663
0.00780945
0.00791251
0.0080152
0.00811887
0.0082182
0.00830344
0.00837488
0.00843911
0.00850176
0.00856728
0.00863919
0.00871973
0.00880961
0.00890774
0.00901046
0.00911033
0.00919656
0.0092588
0.00929243
0.00930208
0.00758263
0.00756693
0.00756195
0.00757421
0.00760187
0.00764252
0.00769563
0.00776009
0.00783393
0.00791488
0.00800028
0.00808758
0.00817477
0.0082606
0.00834467
0.00842806
0.00850652
0.00857275
0.00862728
0.00867527
0.00872103
0.00876794
0.00881875
0.0088754
0.00893898
0.00900964
0.00908604
0.00916399
0.00923559
0.0092911
0.00932381
0.00933457
0.00798738
0.0079809
0.00799814
0.00803205
0.00807471
0.00812263
0.00817524
0.00823214
0.00829289
0.00835665
0.00842206
0.00848765
0.00855218
0.0086149
0.00867559
0.00873499
0.00879019
0.0088363
0.00887381
0.00890634
0.00893681
0.00896752
0.00900035
0.0090367
0.00907753
0.00912333
0.00917399
0.00922781
0.00928026
0.00932407
0.0093523
0.00936288
0.00848343
0.00849494
0.00852915
0.00856787
0.00860698
0.00864548
0.00868365
0.00872197
0.00876094
0.0088006
0.00884054
0.00888009
0.00891865
0.00895583
0.00899152
0.00902615
0.00905809
0.00908461
0.00910604
0.00912444
0.00914146
0.00915839
0.00917629
0.00919598
0.00921801
0.00924279
0.0092705
0.00930075
0.00933166
0.00935937
0.009379
0.00938741
0.00909086
0.00910012
0.0091179
0.00913489
0.00915066
0.00916535
0.00917922
0.00919261
0.00920586
0.00921912
0.00923234
0.00924534
0.00925796
0.00927007
0.00928165
0.00929284
0.00930312
0.00931163
0.00931849
0.00932434
0.00932973
0.00933505
0.00934063
0.00934674
0.00935354
0.00936118
0.00936974
0.00937916
0.00938902
0.00939827
0.00940538
0.00940883
)
;

boundaryField
{
    movingWall
    {
        type            fixedValue;
        value           uniform 0.00942;
    }
    fixedWalls
    {
        type            zeroGradient;
    }
    floor
    {
        type            zeroGradient;
    }
    frontAndBack
    {
        type            empty;
    }
}


// ************************************************************************* //
