/*--------------------------------*- C++ -*----------------------------------*\
| =========                 |                                                 |
| \\      /  F ield         | OpenFOAM: The Open Source CFD Toolbox           |
|  \\    /   O peration     | Version:  2212                                  |
|   \\  /    A nd           | Website:  www.openfoam.com                      |
|    \\/     M anipulation  |                                                 |
\*---------------------------------------------------------------------------*/
FoamFile
{
    version     2.0;
    format      ascii;
    arch        "LSB;label=64;scalar=64";
    class       volVectorField;
    location    "1250";
    object      U;
}
// * * * * * * * * * * * * * * * * * * * * * * * * * * * * * * * * * * * * * //

dimensions      [0 1 -1 0 0 0 0];

internalField   nonuniform List<vector> 
1024
(
(8.50325e-06 -8.76299e-06 0)
(-5.19167e-05 1.40392e-05 0)
(-0.000242051 3.61208e-05 0)
(-0.000547418 4.51226e-05 0)
(-0.000919779 4.52349e-05 0)
(-0.00131243 4.1591e-05 0)
(-0.00168369 3.55789e-05 0)
(-0.00197543 2.53072e-05 0)
(-0.00207787 6.2851e-06 0)
(-0.00180169 -2.68626e-05 0)
(-0.000994589 -5.61398e-05 0)
(0.00036906 -5.76465e-05 0)
(0.00157103 -3.99373e-05 0)
(0.00242613 -1.64064e-05 0)
(0.00282679 -1.79848e-06 0)
(0.00285451 5.9961e-06 0)
(0.00262666 9.51371e-06 0)
(0.00228957 1.07855e-05 0)
(0.00194163 1.10342e-05 0)
(0.00161782 1.07338e-05 0)
(0.00133079 1.01429e-05 0)
(0.0010843 9.29516e-06 0)
(0.000878499 8.22127e-06 0)
(0.000709526 7.20578e-06 0)
(0.000568209 6.76228e-06 0)
(0.000441728 7.42844e-06 0)
(0.000319616 9.09566e-06 0)
(0.000201353 1.04798e-05 0)
(9.8278e-05 9.61305e-06 0)
(2.61735e-05 5.20808e-06 0)
(-6.00149e-06 -1.52065e-06 0)
(-5.65665e-06 -5.69862e-06 0)
(-1.69773e-05 5.36945e-05 0)
(-0.000261762 0.00024422 0)
(-0.000797693 0.000409929 0)
(-0.00159654 0.000484714 0)
(-0.00254848 0.00047683 0)
(-0.00353115 0.000415589 0)
(-0.004417 0.000315803 0)
(-0.00503994 0.000171091 0)
(-0.00513982 -4.0215e-05 0)
(-0.00431542 -0.00032183 0)
(-0.00229147 -0.000582558 0)
(0.00116407 -0.000607685 0)
(0.00415643 -0.000427542 0)
(0.0064171 -0.000222407 0)
(0.00764027 -6.78752e-05 0)
(0.00791788 2.80189e-05 0)
(0.00748315 8.06018e-05 0)
(0.00668689 0.000108029 0)
(0.00579375 0.00012201 0)
(0.00491938 0.000127853 0)
(0.00411443 0.000128696 0)
(0.00340035 0.000125688 0)
(0.00278445 0.000119903 0)
(0.00226135 0.000114287 0)
(0.00181167 0.00011342 0)
(0.00140771 0.000120774 0)
(0.00102815 0.00013361 0)
(0.000674243 0.000140446 0)
(0.000371711 0.000126884 0)
(0.000153117 8.67843e-05 0)
(3.43095e-05 3.19739e-05 0)
(-1.73868e-06 -6.60117e-06 0)
(-4.77833e-05 0.00027486 0)
(-0.000489306 0.000808148 0)
(-0.00133216 0.00120567 0)
(-0.00252051 0.00137176 0)
(-0.00389423 0.00132253 0)
(-0.00527134 0.00111867 0)
(-0.00644994 0.000799516 0)
(-0.00717889 0.000363795 0)
(-0.00710036 -0.000222162 0)
(-0.00573625 -0.000942554 0)
(-0.00284942 -0.00161611 0)
(0.00200149 -0.0016819 0)
(0.00615313 -0.00120008 0)
(0.00951813 -0.000675013 0)
(0.0115874 -0.000253756 0)
(0.0123363 2.90551e-05 0)
(0.0119622 0.000195952 0)
(0.010948 0.000291341 0)
(0.0096875 0.000347278 0)
(0.00838031 0.000377859 0)
(0.00712576 0.000392074 0)
(0.00597322 0.000393875 0)
(0.00494554 0.000386882 0)
(0.00404406 0.000379072 0)
(0.00324952 0.000382044 0)
(0.0025309 0.000403474 0)
(0.00186486 0.000435075 0)
(0.00125516 0.00044785 0)
(0.000734466 0.000407596 0)
(0.000343854 0.00030139 0)
(0.000106822 0.000155231 0)
(6.37598e-06 2.8479e-05 0)
(-6.71948e-05 0.000671895 0)
(-0.000640365 0.00174303 0)
(-0.00168457 0.00245161 0)
(-0.00311192 0.00270949 0)
(-0.00471944 0.00255981 0)
(-0.00628099 0.00210509 0)
(-0.00754249 0.00142097 0)
(-0.0081992 0.000524923 0)
(-0.00783341 -0.000613581 0)
(-0.00601465 -0.00192844 0)
(-0.00260887 -0.00313267 0)
(0.0027779 -0.00323193 0)
(0.00743817 -0.00235822 0)
(0.0115103 -0.00141824 0)
(0.0143296 -0.000620725 0)
(0.0157213 -4.26742e-05 0)
(0.0156657 0.000321297 0)
(0.0147058 0.000542049 0)
(0.0133129 0.000683247 0)
(0.0117557 0.000771833 0)
(0.0101821 0.000825201 0)
(0.00867411 0.000851818 0)
(0.00727649 0.000859318 0)
(0.00600582 0.000862345 0)
(0.0048542 0.000881218 0)
(0.00379956 0.00092841 0)
(0.00282488 0.000988156 0)
(0.00193742 0.00100896 0)
(0.0011728 0.000929726 0)
(0.000579931 0.000724266 0)
(0.000197376 0.000428364 0)
(1.60178e-05 0.000125723 0)
(-6.85936e-05 0.00119893 0)
(-0.000658726 0.00296207 0)
(-0.00173527 0.00404572 0)
(-0.00320368 0.00438844 0)
(-0.00484257 0.00407676 0)
(-0.00639894 0.00326627 0)
(-0.00758688 0.00208167 0)
(-0.00807332 0.000576561 0)
(-0.00740687 -0.00125153 0)
(-0.00529609 -0.00324695 0)
(-0.00165606 -0.00497307 0)
(0.00339848 -0.00505968 0)
(0.00806031 -0.00380826 0)
(0.0123868 -0.00243025 0)
(0.0157035 -0.00120359 0)
(0.0177327 -0.000248056 0)
(0.0182001 0.000397196 0)
(0.0175392 0.000809197 0)
(0.0162601 0.00108979 0)
(0.0146743 0.00128349 0)
(0.0129653 0.00141795 0)
(0.0112428 0.00150717 0)
(0.00957388 0.00156347 0)
(0.00799491 0.00160818 0)
(0.00651747 0.00166969 0)
(0.00513811 0.00176465 0)
(0.00385405 0.00186922 0)
(0.00267986 0.0019071 0)
(0.00165563 0.00178238 0)
(0.000841457 0.00144202 0)
(0.00029738 0.00091807 0)
(2.64859e-05 0.000312582 0)
(-5.16159e-05 0.00175097 0)
(-0.000534499 0.00426548 0)
(-0.00145519 0.00577681 0)
(-0.00275258 0.00622633 0)
(-0.00422851 0.00573005 0)
(-0.00562814 0.00449603 0)
(-0.00665136 0.00270998 0)
(-0.00695195 0.000482364 0)
(-0.00606331 -0.00212756 0)
(-0.00386463 -0.00482957 0)
(-0.00031159 -0.00695289 0)
(0.0039317 -0.00696564 0)
(0.00820276 -0.00542754 0)
(0.012348 -0.00364202 0)
(0.0157937 -0.00199186 0)
(0.0182549 -0.000628503 0)
(0.0193021 0.000363091 0)
(0.0190894 0.0010303 0)
(0.018119 0.00150691 0)
(0.0167125 0.00186036 0)
(0.0150672 0.00213031 0)
(0.0133066 0.00233672 0)
(0.011513 0.00249622 0)
(0.00974069 0.00263516 0)
(0.0080225 0.00278711 0)
(0.00637759 0.0029704 0)
(0.00482286 0.00315202 0)
(0.00338625 0.00322838 0)
(0.00211787 0.00305858 0)
(0.00109268 0.00254358 0)
(0.000393769 0.0016922 0)
(3.6772e-05 0.000617674 0)
(-2.34011e-05 0.00219088 0)
(-0.000309874 0.00537582 0)
(-0.000923089 0.00734003 0)
(-0.00186486 0.00796514 0)
(-0.00300683 0.00733849 0)
(-0.00412933 0.00569081 0)
(-0.00494027 0.00326823 0)
(-0.00508698 0.000257153 0)
(-0.00410105 -0.00318546 0)
(-0.00200082 -0.00656626 0)
(0.0011169 -0.00890108 0)
(0.00443942 -0.00881035 0)
(0.00804813 -0.00708184 0)
(0.0116642 -0.00494776 0)
(0.0148594 -0.0029226 0)
(0.0174178 -0.00117949 0)
(0.0189131 0.000184752 0)
(0.019166 0.00115112 0)
(0.018601 0.00187011 0)
(0.017517 0.00243449 0)
(0.0161011 0.00289744 0)
(0.0144722 0.00328479 0)
(0.0127162 0.00361628 0)
(0.010898 0.00392055 0)
(0.00906711 0.00423199 0)
(0.00726339 0.00456597 0)
(0.00552493 0.004876 0)
(0.00389851 0.00502512 0)
(0.00245032 0.00481518 0)
(0.00127139 0.00408156 0)
(0.000461871 0.00279029 0)
(4.41748e-05 0.00105791 0)
(4.75516e-06 0.0023988 0)
(-6.31786e-05 0.00601673 0)
(-0.000300585 0.00839151 0)
(-0.000769041 0.0092832 0)
(-0.00143947 0.00866468 0)
(-0.00217254 0.00672258 0)
(-0.00271818 0.00372606 0)
(-0.00271588 -6.16306e-05 0)
(-0.00176598 -0.00433957 0)
(8.88553e-05 -0.00831762 0)
(0.00242532 -0.0106336 0)
(0.00489885 -0.0104887 0)
(0.00767021 -0.00863116 0)
(0.0105146 -0.00621924 0)
(0.0131555 -0.00389437 0)
(0.0154766 -0.00184502 0)
(0.0171154 -0.000149248 0)
(0.0177653 0.00113509 0)
(0.0176038 0.00212475 0)
(0.0169005 0.00293758 0)
(0.015815 0.00364313 0)
(0.0144457 0.00427325 0)
(0.012869 0.00484918 0)
(0.0111511 0.00539854 0)
(0.00935082 0.00595151 0)
(0.00752349 0.00651335 0)
(0.00572731 0.00701469 0)
(0.00403127 0.00727325 0)
(0.00252123 0.00702073 0)
(0.00130015 0.00601549 0)
(0.000469624 0.00417367 0)
(4.47215e-05 0.00161445 0)
(2.18081e-05 0.00233723 0)
(0.000124589 0.00603736 0)
(0.000221224 0.00865974 0)
(0.000229141 0.00985872 0)
(0.000105871 0.00944521 0)
(-0.000130407 0.00742428 0)
(-0.000323185 0.0040351 0)
(-0.000120154 -0.000460997 0)
(0.000720125 -0.00553176 0)
(0.00205737 -0.00974928 0)
(0.00358411 -0.0120412 0)
(0.00520684 -0.0118726 0)
(0.00701437 -0.00991811 0)
(0.00892017 -0.00731087 0)
(0.0107978 -0.00478612 0)
(0.012628 -0.00253644 0)
(0.0141437 -0.000596749 0)
(0.0150446 0.000978508 0)
(0.0151998 0.00223969 0)
(0.014856 0.00331529 0)
(0.0141352 0.00429451 0)
(0.0131001 0.00521579 0)
(0.0118055 0.00610002 0)
(0.0103095 0.00697005 0)
(0.00867276 0.00784558 0)
(0.00696161 0.0087109 0)
(0.00525359 0.00945732 0)
(0.00364173 0.00983924 0)
(0.00223031 0.00950968 0)
(0.00112189 0.00815985 0)
(0.000394226 0.0056797 0)
(3.56204e-05 0.00221057 0)
(2.77864e-05 0.00204371 0)
(0.00022606 0.0054623 0)
(0.000544577 0.00807212 0)
(0.000914604 0.0094461 0)
(0.00125408 0.00925665 0)
(0.00152433 0.00735978 0)
(0.00178868 0.00384785 0)
(0.00226242 -0.00100091 0)
(0.00289624 -0.00631512 0)
(0.00368517 -0.0107055 0)
(0.00446801 -0.0129959 0)
(0.00517079 -0.0127738 0)
(0.00591341 -0.01075 0)
(0.00676442 -0.00805356 0)
(0.00774691 -0.0054626 0)
(0.00892045 -0.00315431 0)
(0.0101261 -0.00109285 0)
(0.0111532 0.000706755 0)
(0.0115172 0.00220915 0)
(0.0114756 0.00353025 0)
(0.0111173 0.00478643 0)
(0.0104555 0.00602344 0)
(0.00951299 0.00726014 0)
(0.00833259 0.00850959 0)
(0.00697286 0.0097714 0)
(0.00551027 0.0109911 0)
(0.00404375 0.0119951 0)
(0.00269017 0.0124545 0)
(0.00156177 0.0119528 0)
(0.000736743 0.010163 0)
(0.000239514 0.00701449 0)
(1.78642e-05 0.00271226 0)
(2.51163e-05 0.00160942 0)
(0.000242735 0.00445237 0)
(0.000647269 0.00677942 0)
(0.00120202 0.00814246 0)
(0.00182701 0.0081164 0)
(0.00245691 0.00642774 0)
(0.00308808 0.00304551 0)
(0.00376109 -0.00175364 0)
(0.00431602 -0.00698264 0)
(0.00468975 -0.0112295 0)
(0.00475691 -0.0133263 0)
(0.00447978 -0.0129585 0)
(0.00409995 -0.0109021 0)
(0.00384072 -0.00825544 0)
(0.00386842 -0.0057718 0)
(0.00428133 -0.00358314 0)
(0.00502471 -0.00157676 0)
(0.00609217 0.000369931 0)
(0.00661517 0.00204359 0)
(0.00683944 0.0035489 0)
(0.0068542 0.00504771 0)
(0.0066033 0.00659272 0)
(0.00607234 0.00819796 0)
(0.00528796 0.00985738 0)
(0.00431002 0.0115326 0)
(0.0032311 0.013101 0)
(0.00217454 0.0142913 0)
(0.00127226 0.0146853 0)
(0.00061551 0.013848 0)
(0.000221991 0.0115338 0)
(4.35695e-05 0.00780297 0)
(-3.3319e-06 0.00296132 0)
(1.69951e-05 0.00116214 0)
(0.000197373 0.00330149 0)
(0.000567507 0.00514326 0)
(0.00112739 0.00628734 0)
(0.00182706 0.00628259 0)
(0.00260697 0.00476963 0)
(0.00343001 0.00163301 0)
(0.00417722 -0.00283631 0)
(0.00464529 -0.00754894 0)
(0.00462184 -0.0112177 0)
(0.00397745 -0.0128126 0)
(0.00269765 -0.0121617 0)
(0.00122425 -0.0101389 0)
(-9.67448e-05 -0.00772063 0)
(-0.000987469 -0.00555235 0)
(-0.00137813 -0.00369258 0)
(-0.00123853 -0.00196271 0)
(-0.000519793 -0.000107093 0)
(0.000421692 0.00172529 0)
(0.000947392 0.00332195 0)
(0.00140327 0.00498269 0)
(0.00163045 0.00679565 0)
(0.00159027 0.00875992 0)
(0.00130469 0.0108263 0)
(0.000849997 0.0128793 0)
(0.000340769 0.0146828 0)
(-8.75286e-05 0.0158464 0)
(-0.000331476 0.0158977 0)
(-0.000380225 0.0145527 0)
(-0.000283976 0.0117643 0)
(-0.000135963 0.00774173 0)
(-2.01564e-05 0.00285636 0)
(1.12309e-05 0.000773247 0)
(0.000131426 0.00223132 0)
(0.000397723 0.00350566 0)
(0.00083322 0.00426977 0)
(0.00142579 0.00410877 0)
(0.00213858 0.0026504 0)
(0.00289061 -0.000219935 0)
(0.00348038 -0.00399667 0)
(0.00365109 -0.00773614 0)
(0.00306377 -0.0103719 0)
(0.00161743 -0.0111203 0)
(-0.000703601 -0.0100487 0)
(-0.00310601 -0.00821585 0)
(-0.00522294 -0.00638398 0)
(-0.00691501 -0.00475422 0)
(-0.00810221 -0.00333741 0)
(-0.00863409 -0.00201468 0)
(-0.00831246 -0.000563254 0)
(-0.00717957 0.00108169 0)
(-0.00625461 0.00268128 0)
(-0.00528568 0.0043994 0)
(-0.00442663 0.00641616 0)
(-0.00376854 0.00868105 0)
(-0.0033036 0.0110385 0)
(-0.00295458 0.0132385 0)
(-0.00262165 0.0149462 0)
(-0.00222395 0.015763 0)
(-0.00173377 0.0153479 0)
(-0.00118709 0.0135806 0)
(-0.000663019 0.0105932 0)
(-0.000258286 0.00672323 0)
(-2.86876e-05 0.00238316 0)
(1.75621e-06 0.000580705 0)
(6.22028e-05 0.00162953 0)
(0.000202683 0.00248605 0)
(0.000445604 0.00289719 0)
(0.000794161 0.00253786 0)
(0.00122793 0.00112999 0)
(0.00160838 -0.00132041 0)
(0.00170088 -0.00422665 0)
(0.00117303 -0.00672895 0)
(-0.000402446 -0.00804354 0)
(-0.00290746 -0.00774473 0)
(-0.00585061 -0.0066554 0)
(-0.00882098 -0.00541892 0)
(-0.0115967 -0.00425449 0)
(-0.0140459 -0.00325712 0)
(-0.016007 -0.00247279 0)
(-0.0172045 -0.00182622 0)
(-0.0172698 -0.00109871 0)
(-0.0162312 -8.25501e-05 0)
(-0.0145762 0.00126027 0)
(-0.0128739 0.00287915 0)
(-0.0110574 0.00483495 0)
(-0.00931809 0.00705812 0)
(-0.00772343 0.00934463 0)
(-0.00625963 0.0113804 0)
(-0.00490055 0.0128156 0)
(-0.00365271 0.0132806 0)
(-0.00252909 0.0125559 0)
(-0.00156075 0.0106822 0)
(-0.000796347 0.00795178 0)
(-0.000285069 0.00479228 0)
(-2.87819e-05 0.00159793 0)
(5.84212e-06 0.00031624 0)
(-5.897e-06 0.000952453 0)
(-4.07753e-05 0.0014719 0)
(-0.000102752 0.00162411 0)
(-0.000200844 0.00113017 0)
(-0.00040962 -0.000153942 0)
(-0.000879344 -0.00195221 0)
(-0.0018633 -0.00350356 0)
(-0.003651 -0.00408334 0)
(-0.00618652 -0.00379802 0)
(-0.00925595 -0.00305911 0)
(-0.0125856 -0.00223804 0)
(-0.01593 -0.00156285 0)
(-0.0191385 -0.00107982 0)
(-0.0220774 -0.00079565 0)
(-0.0245494 -0.000745246 0)
(-0.0262727 -0.000938593 0)
(-0.0267393 -0.00121526 0)
(-0.0259306 -0.00129606 0)
(-0.0240387 -0.000982238 0)
(-0.0212939 -0.000112277 0)
(-0.0180699 0.00134271 0)
(-0.0146165 0.00330416 0)
(-0.0112235 0.00545215 0)
(-0.00819934 0.00715675 0)
(-0.00558222 0.00836002 0)
(-0.00350957 0.00877845 0)
(-0.0020057 0.00824402 0)
(-0.00101029 0.00684707 0)
(-0.000415656 0.00491375 0)
(-0.000114019 0.00283692 0)
(-5.37418e-06 0.000898986 0)
(-3.15644e-05 0.000899816 0)
(-0.000286817 0.00252217 0)
(-0.000797844 0.00385891 0)
(-0.00158432 0.00467257 0)
(-0.00264837 0.00485334 0)
(-0.00403892 0.00454604 0)
(-0.00585038 0.00409973 0)
(-0.00811958 0.00377885 0)
(-0.0107601 0.00361168 0)
(-0.013645 0.00355433 0)
(-0.0166035 0.00347717 0)
(-0.0195215 0.00328254 0)
(-0.022383 0.00297479 0)
(-0.0251696 0.00254311 0)
(-0.0278127 0.00193614 0)
(-0.0301332 0.00106023 0)
(-0.0317551 -0.000219623 0)
(-0.0322407 -0.00179986 0)
(-0.0316588 -0.0034518 0)
(-0.0301299 -0.00502503 0)
(-0.0277129 -0.00632403 0)
(-0.024499 -0.00712943 0)
(-0.0206405 -0.00723364 0)
(-0.0163901 -0.0064357 0)
(-0.0120791 -0.00457413 0)
(-0.00815684 -0.00203675 0)
(-0.00489808 0.000656091 0)
(-0.00249986 0.00280242 0)
(-0.00100507 0.00380809 0)
(-0.000270776 0.00357394 0)
(-1.37809e-05 0.00253789 0)
(1.51821e-05 0.000993025 0)
(-2.29393e-05 0.00215912 0)
(-0.000263029 0.00576253 0)
(-0.000759346 0.00861508 0)
(-0.00154678 0.0104839 0)
(-0.00262132 0.0113303 0)
(-0.00397348 0.0113612 0)
(-0.00558892 0.0109321 0)
(-0.00744586 0.010347 0)
(-0.0095235 0.00974429 0)
(-0.0118021 0.00913584 0)
(-0.0142497 0.00848438 0)
(-0.0168303 0.00776258 0)
(-0.0194989 0.00694098 0)
(-0.0221949 0.00596779 0)
(-0.024829 0.00475934 0)
(-0.0272354 0.00318786 0)
(-0.0291247 0.00105234 0)
(-0.0300252 -0.00158149 0)
(-0.0299433 -0.00439393 0)
(-0.0292251 -0.00734145 0)
(-0.0278384 -0.0103197 0)
(-0.0257776 -0.0131546 0)
(-0.023066 -0.0155666 0)
(-0.0197864 -0.0171799 0)
(-0.0160935 -0.0175752 0)
(-0.012224 -0.0164052 0)
(-0.00848423 -0.0135566 0)
(-0.00520671 -0.00936408 0)
(-0.00269011 -0.00477606 0)
(-0.00107755 -0.00109818 0)
(-0.000279127 0.000704708 0)
(-1.02357e-05 0.00070226 0)
(-9.65423e-06 0.00283773 0)
(-0.000132587 0.00762091 0)
(-0.000417513 0.0115172 0)
(-0.000916339 0.0142454 0)
(-0.00165503 0.0157177 0)
(-0.00263633 0.0161141 0)
(-0.00383701 0.0158107 0)
(-0.00521939 0.0151779 0)
(-0.0067517 0.0144204 0)
(-0.00841499 0.0135825 0)
(-0.0101934 0.012638 0)
(-0.0120666 0.0115625 0)
(-0.0140046 0.0103373 0)
(-0.0159712 0.00892571 0)
(-0.0179213 0.00724957 0)
(-0.0197658 0.00516033 0)
(-0.0213409 0.00239359 0)
(-0.0224437 -0.000955661 0)
(-0.0228496 -0.00443625 0)
(-0.0230354 -0.00811074 0)
(-0.0228965 -0.0120969 0)
(-0.0223135 -0.0163421 0)
(-0.0211584 -0.0205972 0)
(-0.0193477 -0.0244105 0)
(-0.0168875 -0.0271596 0)
(-0.0138904 -0.0281606 0)
(-0.0105726 -0.0268078 0)
(-0.00723823 -0.0228468 0)
(-0.00425022 -0.0167464 0)
(-0.0019672 -0.00993947 0)
(-0.000597288 -0.00427593 0)
(-3.66112e-05 -0.000779364 0)
(3.74598e-06 0.00304162 0)
(-8.80729e-06 0.00831612 0)
(-8.56961e-05 0.0128128 0)
(-0.000286708 0.0161869 0)
(-0.000667023 0.0182358 0)
(-0.00125555 0.0190227 0)
(-0.00203636 0.0188727 0)
(-0.00295847 0.0181975 0)
(-0.00396875 0.0172866 0)
(-0.0050309 0.0162477 0)
(-0.00612283 0.01508 0)
(-0.00722598 0.0137621 0)
(-0.00831805 0.0122787 0)
(-0.00937554 0.0106046 0)
(-0.0103767 0.00868054 0)
(-0.0112833 0.00638513 0)
(-0.0120173 0.00347269 0)
(-0.0126774 -2.11396e-05 0)
(-0.0134569 -0.00356744 0)
(-0.0142892 -0.00724895 0)
(-0.0152003 -0.0114462 0)
(-0.0159935 -0.0163038 0)
(-0.0164285 -0.0217249 0)
(-0.0162598 -0.0273244 0)
(-0.0153263 -0.0323866 0)
(-0.0135858 -0.0359971 0)
(-0.0111361 -0.0371154 0)
(-0.0082218 -0.0348441 0)
(-0.00521935 -0.0288581 0)
(-0.00261071 -0.0200273 0)
(-0.000855203 -0.0106079 0)
(-6.19659e-05 -0.002869 0)
(1.12407e-05 0.00293204 0)
(7.57509e-05 0.00820219 0)
(0.000154751 0.0129128 0)
(0.000193758 0.0166848 0)
(0.000124858 0.0192192 0)
(-0.000106171 0.0204299 0)
(-0.0005018 0.0204908 0)
(-0.00100947 0.0198122 0)
(-0.00155485 0.0187631 0)
(-0.00207559 0.0175365 0)
(-0.00253611 0.016179 0)
(-0.00292037 0.0146819 0)
(-0.00322 0.0130304 0)
(-0.00343137 0.0112011 0)
(-0.00355729 0.00913704 0)
(-0.00359518 0.00672599 0)
(-0.00352925 0.0038218 0)
(-0.0034001 0.000556442 0)
(-0.00434974 -0.00260066 0)
(-0.00546571 -0.00582266 0)
(-0.00692556 -0.00960773 0)
(-0.00860795 -0.0143175 0)
(-0.0102662 -0.0200851 0)
(-0.0115502 -0.026746 0)
(-0.0121454 -0.0336012 0)
(-0.0118412 -0.0396706 0)
(-0.0105708 -0.0435923 0)
(-0.00845699 -0.0439016 0)
(-0.00580955 -0.0394041 0)
(-0.00314039 -0.0299657 0)
(-0.00110546 -0.0174932 0)
(-9.09479e-05 -0.00531445 0)
(1.42299e-05 0.00269007 0)
(0.000120339 0.0077045 0)
(0.000294547 0.0123912 0)
(0.00049426 0.0163524 0)
(0.00065256 0.0192117 0)
(0.000712947 0.0207613 0)
(0.000658191 0.0210622 0)
(0.000527767 0.0204365 0)
(0.000404669 0.0192778 0)
(0.000373637 0.0178688 0)
(0.000485895 0.016332 0)
(0.000754408 0.0146899 0)
(0.00116736 0.0129325 0)
(0.00169778 0.0110332 0)
(0.0023022 0.00892682 0)
(0.00293663 0.00647533 0)
(0.00344492 0.0036427 0)
(0.00368635 0.000815783 0)
(0.00288105 -0.00180629 0)
(0.00174158 -0.00444355 0)
(0.000207926 -0.0075923 0)
(-0.00177022 -0.0117335 0)
(-0.00399694 -0.0171055 0)
(-0.00624642 -0.0240469 0)
(-0.00808718 -0.0319301 0)
(-0.00915582 -0.0399268 0)
(-0.00917911 -0.0464959 0)
(-0.00809879 -0.0497594 0)
(-0.00608075 -0.0477228 0)
(-0.00357664 -0.0390334 0)
(-0.0013592 -0.0245235 0)
(-0.000123063 -0.00800991 0)
(1.35319e-05 0.00242733 0)
(0.000128833 0.00709671 0)
(0.000339435 0.0116285 0)
(0.000620827 0.0156277 0)
(0.000920615 0.0186668 0)
(0.00119222 0.0204432 0)
(0.00142057 0.020915 0)
(0.00164068 0.0203279 0)
(0.00193159 0.0190758 0)
(0.00237884 0.0175065 0)
(0.00303416 0.0158168 0)
(0.00390159 0.0140725 0)
(0.00494724 0.0122731 0)
(0.00611144 0.010387 0)
(0.00730644 0.00834246 0)
(0.00842539 0.00600196 0)
(0.00914516 0.00343208 0)
(0.0092188 0.00104267 0)
(0.00836573 -0.00119546 0)
(0.00711531 -0.00348121 0)
(0.00556825 -0.00608685 0)
(0.0037035 -0.00938346 0)
(0.00157723 -0.0138254 0)
(-0.0010453 -0.0204904 0)
(-0.00364655 -0.0285628 0)
(-0.005842 -0.0377284 0)
(-0.00713763 -0.0464247 0)
(-0.00723507 -0.0525826 0)
(-0.00607344 -0.0535732 0)
(-0.00394786 -0.0467922 0)
(-0.00164591 -0.0314285 0)
(-0.00016383 -0.010897 0)
(9.37564e-06 0.00221416 0)
(9.98238e-05 0.00656808 0)
(0.000282158 0.0109015 0)
(0.000559706 0.0148319 0)
(0.000914058 0.0179082 0)
(0.00132583 0.0197689 0)
(0.00179515 0.0203004 0)
(0.00235738 0.0196962 0)
(0.00307659 0.0183485 0)
(0.00401546 0.0166492 0)
(0.00520413 0.0148514 0)
(0.00662809 0.0130583 0)
(0.00823309 0.0112796 0)
(0.00993366 0.00947882 0)
(0.0116054 0.00758166 0)
(0.0130839 0.00546533 0)
(0.0139416 0.00325567 0)
(0.0139489 0.00130501 0)
(0.0130812 -0.00052502 0)
(0.0117324 -0.00245421 0)
(0.0100502 -0.00472403 0)
(0.00811513 -0.0076534 0)
(0.00601555 -0.0115907 0)
(0.00364706 -0.0170306 0)
(0.000926673 -0.0244107 0)
(-0.00200209 -0.0339794 0)
(-0.00444378 -0.0440568 0)
(-0.00581943 -0.0527082 0)
(-0.00574474 -0.0569287 0)
(-0.00424326 -0.0529745 0)
(-0.00199798 -0.0380336 0)
(-0.000223853 -0.0139965 0)
(-4.22574e-07 0.00210081 0)
(1.5092e-05 0.00625932 0)
(8.3102e-05 0.0104158 0)
(0.000259242 0.0141934 0)
(0.000589327 0.0171496 0)
(0.0010954 0.0189184 0)
(0.00179512 0.0193642 0)
(0.00272081 0.0186611 0)
(0.00390619 0.0172084 0)
(0.00536642 0.0154208 0)
(0.00708987 0.0135776 0)
(0.00903695 0.0117996 0)
(0.0111392 0.0101007 0)
(0.013298 0.0084406 0)
(0.0153679 0.00674564 0)
(0.0171494 0.00490892 0)
(0.018173 0.00306962 0)
(0.0182565 0.0015059 0)
(0.0175701 6.13954e-05 0)
(0.016253 -0.00150661 0)
(0.0145707 -0.00341482 0)
(0.0126002 -0.0059689 0)
(0.010412 -0.00951585 0)
(0.00800381 -0.0144343 0)
(0.00532326 -0.0209682 0)
(0.00232572 -0.0293588 0)
(-0.000987766 -0.0399667 0)
(-0.00367321 -0.0504626 0)
(-0.00494278 -0.0577964 0)
(-0.00438576 -0.0573318 0)
(-0.00243399 -0.0441291 0)
(-0.000321896 -0.0173781 0)
(-2.01998e-05 0.00215939 0)
(-0.000161783 0.0063387 0)
(-0.000326872 0.0103553 0)
(-0.000362875 0.0138457 0)
(-0.000119769 0.0164771 0)
(0.000483395 0.0179684 0)
(0.00145622 0.0181732 0)
(0.0028032 0.0172901 0)
(0.00451187 0.0157336 0)
(0.00652939 0.013914 0)
(0.0087928 0.0120986 0)
(0.0112402 0.0104015 0)
(0.0137997 0.00883283 0)
(0.0163749 0.00734966 0)
(0.0188183 0.00588223 0)
(0.020924 0.00433638 0)
(0.0222154 0.00283815 0)
(0.022541 0.00159984 0)
(0.0221437 0.000483475 0)
(0.0210667 -0.000749647 0)
(0.0195921 -0.00231783 0)
(0.0177581 -0.00449478 0)
(0.0155903 -0.00759863 0)
(0.013078 -0.0119559 0)
(0.0101941 -0.0178247 0)
(0.00693493 -0.0253974 0)
(0.00329667 -0.0348149 0)
(-0.000548303 -0.0460931 0)
(-0.00340924 -0.0561459 0)
(-0.00421314 -0.0595708 0)
(-0.00293257 -0.0494 0)
(-0.000485874 -0.0211245 0)
(-6.64708e-05 0.00249429 0)
(-0.000514346 0.00698664 0)
(-0.00105917 0.0108741 0)
(-0.00138994 0.0138784 0)
(-0.00123452 0.0159006 0)
(-0.000493799 0.0168806 0)
(0.000866012 0.016727 0)
(0.00273507 0.0156183 0)
(0.00504002 0.0139871 0)
(0.00765629 0.0122047 0)
(0.0104772 0.01049 0)
(0.0134317 0.00893075 0)
(0.0164573 0.0075282 0)
(0.0194729 0.006239 0)
(0.0223456 0.00500031 0)
(0.024886 0.00372902 0)
(0.0266094 0.00252848 0)
(0.0273578 0.00156032 0)
(0.027372 0.000710455 0)
(0.0267191 -0.00023939 0)
(0.0256168 -0.00150189 0)
(0.024062 -0.00330282 0)
(0.0220235 -0.00591741 0)
(0.019448 -0.00963337 0)
(0.0162904 -0.0147086 0)
(0.0125555 -0.0213693 0)
(0.00831157 -0.0298305 0)
(0.00370968 -0.0402133 0)
(-0.000794193 -0.0519077 0)
(-0.00344928 -0.0593384 0)
(-0.00338869 -0.053402 0)
(-0.000744429 -0.0252607 0)
(-0.000177564 0.00330832 0)
(-0.00119028 0.00841475 0)
(-0.00224978 0.0120069 0)
(-0.00286231 0.0141998 0)
(-0.00268057 0.0153277 0)
(-0.00164736 0.015597 0)
(0.00024525 0.0149929 0)
(0.00280671 0.0136574 0)
(0.00580506 0.0120163 0)
(0.00909032 0.0103457 0)
(0.0125337 0.00879302 0)
(0.0160704 0.00741236 0)
(0.0196542 0.00619577 0)
(0.0232232 0.00510304 0)
(0.0266625 0.0040808 0)
(0.0298056 0.0030583 0)
(0.0321313 0.00211565 0)
(0.0334411 0.00137348 0)
(0.0339679 0.000737315 0)
(0.0338455 1.95693e-05 0)
(0.0331671 -0.000964979 0)
(0.031931 -0.00239308 0)
(0.0300553 -0.00448703 0)
(0.0274398 -0.00749094 0)
(0.0240021 -0.0116509 0)
(0.0197249 -0.0172253 0)
(0.0146861 -0.0245197 0)
(0.00907437 -0.0338912 0)
(0.00325863 -0.0453454 0)
(-0.00163717 -0.0562415 0)
(-0.00354636 -0.055576 0)
(-0.00109332 -0.0296798 0)
(-0.000422608 0.00494112 0)
(-0.00236091 0.0107921 0)
(-0.0039247 0.0136008 0)
(-0.00458545 0.0145397 0)
(-0.00406408 0.0145335 0)
(-0.0024347 0.0139887 0)
(0.000290585 0.0128975 0)
(0.00374903 0.0113998 0)
(0.00759267 0.00984108 0)
(0.0116862 0.00835038 0)
(0.0159007 0.00700531 0)
(0.0201785 0.00583051 0)
(0.0244807 0.00481254 0)
(0.0287525 0.00391733 0)
(0.0328871 0.00310221 0)
(0.0367296 0.0023114 0)
(0.0397005 0.00160278 0)
(0.0415635 0.00105822 0)
(0.0425674 0.000599034 0)
(0.0428951 7.71525e-05 0)
(0.0425847 -0.000648699 0)
(0.0416048 -0.00171121 0)
(0.0398511 -0.00327638 0)
(0.0371913 -0.00553579 0)
(0.0335035 -0.00870463 0)
(0.0287213 -0.0130497 0)
(0.022875 -0.018945 0)
(0.0161252 -0.0269348 0)
(0.00884566 -0.0375839 0)
(0.00189875 -0.049942 0)
(-0.00291988 -0.0552747 0)
(-0.00143856 -0.0341581 0)
(-0.000871206 0.00790344 0)
(-0.00402602 0.0139981 0)
(-0.00563153 0.0151017 0)
(-0.00564031 0.0143642 0)
(-0.00410012 0.0131543 0)
(-0.00129831 0.0118187 0)
(0.00275665 0.0103068 0)
(0.00729746 0.00882566 0)
(0.0121976 0.00744595 0)
(0.0172839 0.00619511 0)
(0.0224306 0.00509898 0)
(0.0275695 0.00416091 0)
(0.0326493 0.00336481 0)
(0.0376063 0.00268301 0)
(0.0423332 0.00208241 0)
(0.0466816 0.00152282 0)
(0.0500482 0.00103966 0)
(0.0522152 0.00067726 0)
(0.05347 0.000374005 0)
(0.0540231 2.52213e-05 0)
(0.0538927 -0.000460851 0)
(0.0530257 -0.00117653 0)
(0.0513153 -0.00223531 0)
(0.0486149 -0.00377135 0)
(0.0447719 -0.00594938 0)
(0.0396592 -0.00900568 0)
(0.033208 -0.0133271 0)
(0.0254587 -0.0195672 0)
(0.0166786 -0.0286832 0)
(0.00760334 -0.0410791 0)
(-0.000667395 -0.0516193 0)
(-0.00148752 -0.0381557 0)
(-0.00161689 0.0130088 0)
(-0.00550111 0.0172117 0)
(-0.00545858 0.0153815 0)
(-0.00318621 0.0128668 0)
(0.000706511 0.010629 0)
(0.00555235 0.0087899 0)
(0.011075 0.00723917 0)
(0.0169193 0.00594275 0)
(0.0229352 0.00483955 0)
(0.0289599 0.00389859 0)
(0.0348667 0.00310903 0)
(0.0405731 0.00245755 0)
(0.0460189 0.00192476 0)
(0.0511444 0.00148687 0)
(0.0558632 0.001118 0)
(0.0600586 0.000791534 0)
(0.063214 0.000521976 0)
(0.0652052 0.000324005 0)
(0.0663389 0.000156696 0)
(0.066827 -3.85215e-05 0)
(0.0666438 -0.000312902 0)
(0.0657616 -0.00072218 0)
(0.0640701 -0.00133289 0)
(0.06142 -0.002224 0)
(0.0576457 -0.00349978 0)
(0.0525738 -0.00533097 0)
(0.0460213 -0.0080419 0)
(0.0378124 -0.0122674 0)
(0.0278918 -0.0191502 0)
(0.0165654 -0.0301047 0)
(0.00442506 -0.0434908 0)
(-0.00016597 -0.0396237 0)
(-0.0012315 0.0182776 0)
(-0.00300026 0.0181626 0)
(0.00336978 0.012633 0)
(0.0105077 0.00930469 0)
(0.0175805 0.00697041 0)
(0.0245022 0.00523409 0)
(0.0313187 0.00394862 0)
(0.0379198 0.00300171 0)
(0.0442343 0.00228297 0)
(0.0501821 0.00172808 0)
(0.0556964 0.00130079 0)
(0.0607423 0.000974513 0)
(0.065309 0.000726425 0)
(0.0693931 0.000536049 0)
(0.0729741 0.000385152 0)
(0.0760057 0.000259189 0)
(0.0781769 0.000159678 0)
(0.0794743 8.70302e-05 0)
(0.0801456 2.22328e-05 0)
(0.080327 -5.45503e-05 0)
(0.0800078 -0.000167335 0)
(0.0791435 -0.00034093 0)
(0.0776268 -0.000604023 0)
(0.0753224 -0.00099059 0)
(0.0720798 -0.00154884 0)
(0.0677196 -0.0023694 0)
(0.0619898 -0.00365335 0)
(0.054495 -0.00585789 0)
(0.0446315 -0.00995442 0)
(0.0316413 -0.0176409 0)
(0.0155132 -0.0297843 0)
(0.00631776 -0.0334584 0)
(0.0207924 0.0113518 0)
(0.0271718 0.00927868 0)
(0.0402277 0.00541612 0)
(0.0508558 0.00328609 0)
(0.0588529 0.00205126 0)
(0.0652066 0.00127007 0)
(0.0704458 0.000781075 0)
(0.0748224 0.000484382 0)
(0.0785136 0.000303511 0)
(0.0816383 0.000191901 0)
(0.0842812 0.000122784 0)
(0.0865147 7.98266e-05 0)
(0.0884024 5.27418e-05 0)
(0.0899931 3.49752e-05 0)
(0.0913128 2.21962e-05 0)
(0.0923648 1.21452e-05 0)
(0.0930628 4.47053e-06 0)
(0.0934296 -1.47909e-06 0)
(0.0935588 -8.22782e-06 0)
(0.0934853 -1.67335e-05 0)
(0.0932011 -3.14385e-05 0)
(0.0926591 -5.60647e-05 0)
(0.0917867 -9.46593e-05 0)
(0.0905024 -0.000152046 0)
(0.0887169 -0.00023567 0)
(0.0863123 -0.000362086 0)
(0.0830796 -0.000574524 0)
(0.0785798 -0.000985411 0)
(0.0718533 -0.00187481 0)
(0.0608877 -0.00398903 0)
(0.0432893 -0.00919595 0)
(0.0285959 -0.0145332 0)
)
;

boundaryField
{
    movingWall
    {
        type            fixedValue;
        value           uniform (0.1 0 0);
    }
    fixedWalls
    {
        type            noSlip;
    }
    floor
    {
        type            noSlip;
    }
    frontAndBack
    {
        type            empty;
    }
}


// ************************************************************************* //
