/*--------------------------------*- C++ -*----------------------------------*\
| =========                 |                                                 |
| \\      /  F ield         | OpenFOAM: The Open Source CFD Toolbox           |
|  \\    /   O peration     | Version:  2212                                  |
|   \\  /    A nd           | Website:  www.openfoam.com                      |
|    \\/     M anipulation  |                                                 |
\*---------------------------------------------------------------------------*/
FoamFile
{
    version     2.0;
    format      ascii;
    arch        "LSB;label=64;scalar=64";
    class       volScalarField;
    location    "1250";
    object      Xch;
}
// * * * * * * * * * * * * * * * * * * * * * * * * * * * * * * * * * * * * * //

dimensions      [1 -3 0 0 0 0 0];

internalField   nonuniform List<scalar> 
1024
(
0.0199345
0.0199349
0.0199357
0.0199372
0.0199397
0.0199431
0.0199475
0.0199529
0.019959
0.0199652
0.0199712
0.0199765
0.0199805
0.0199828
0.019983
0.0199804
0.0199749
0.0199675
0.0199593
0.0199504
0.0199409
0.019931
0.0199213
0.0199121
0.019904
0.0198974
0.0198923
0.0198885
0.019886
0.0198844
0.0198836
0.0198832
0.0199346
0.0199349
0.0199358
0.0199373
0.0199398
0.0199433
0.0199478
0.0199532
0.0199593
0.0199656
0.0199716
0.0199769
0.0199809
0.0199832
0.0199833
0.0199807
0.0199752
0.0199678
0.0199596
0.0199507
0.0199413
0.0199314
0.0199216
0.0199124
0.0199043
0.0198976
0.0198924
0.0198887
0.0198861
0.0198845
0.0198836
0.0198833
0.0199347
0.019935
0.0199359
0.0199375
0.01994
0.0199436
0.0199482
0.0199538
0.01996
0.0199663
0.0199725
0.0199778
0.0199818
0.0199841
0.0199841
0.0199814
0.0199758
0.0199684
0.0199602
0.0199514
0.019942
0.0199322
0.0199224
0.0199132
0.019905
0.0198981
0.0198928
0.019889
0.0198863
0.0198847
0.0198838
0.0198834
0.0199349
0.0199352
0.0199361
0.0199378
0.0199404
0.0199441
0.0199488
0.0199545
0.0199609
0.0199675
0.019974
0.0199796
0.0199836
0.0199857
0.0199855
0.0199825
0.0199768
0.0199694
0.0199612
0.0199524
0.0199432
0.0199334
0.0199237
0.0199143
0.019906
0.019899
0.0198935
0.0198895
0.0198867
0.019885
0.0198841
0.0198837
0.0199351
0.0199355
0.0199364
0.0199381
0.0199408
0.0199446
0.0199495
0.0199554
0.0199621
0.0199693
0.0199763
0.0199824
0.0199865
0.0199884
0.0199877
0.0199842
0.0199781
0.0199705
0.0199623
0.0199537
0.0199445
0.0199349
0.0199252
0.0199158
0.0199073
0.0199001
0.0198943
0.0198901
0.0198873
0.0198855
0.0198845
0.0198841
0.0199355
0.0199358
0.0199368
0.0199385
0.0199412
0.0199451
0.0199502
0.0199565
0.0199637
0.0199716
0.0199795
0.0199863
0.0199907
0.0199922
0.0199908
0.0199864
0.0199796
0.0199717
0.0199634
0.0199548
0.0199459
0.0199365
0.0199269
0.0199174
0.0199088
0.0199013
0.0198954
0.019891
0.0198879
0.019886
0.019885
0.0198846
0.0199359
0.0199363
0.0199372
0.0199389
0.0199416
0.0199456
0.0199509
0.0199576
0.0199656
0.0199745
0.0199837
0.0199915
0.0199963
0.0199973
0.0199947
0.019989
0.0199812
0.0199726
0.0199641
0.0199556
0.0199468
0.0199377
0.0199282
0.0199189
0.0199102
0.0199026
0.0198964
0.0198918
0.0198886
0.0198866
0.0198856
0.0198851
0.0199367
0.019937
0.0199379
0.0199395
0.0199422
0.0199462
0.0199517
0.019959
0.0199679
0.0199783
0.019989
0.019998
0.0200031
0.0200033
0.0199993
0.0199918
0.0199824
0.0199729
0.019964
0.0199555
0.0199469
0.019938
0.0199289
0.0199197
0.0199111
0.0199034
0.0198972
0.0198925
0.0198892
0.0198872
0.0198861
0.0198856
0.0199379
0.0199382
0.019939
0.0199406
0.0199432
0.0199472
0.019953
0.019961
0.0199711
0.0199831
0.0199956
0.0200057
0.0200108
0.02001
0.0200039
0.0199941
0.0199828
0.0199721
0.0199627
0.0199539
0.0199455
0.0199369
0.0199281
0.0199193
0.0199109
0.0199035
0.0198974
0.0198927
0.0198895
0.0198874
0.0198863
0.0198859
0.0199404
0.0199407
0.0199414
0.0199428
0.0199454
0.0199495
0.0199557
0.0199645
0.019976
0.0199898
0.0200037
0.0200145
0.0200191
0.0200165
0.020008
0.0199955
0.0199819
0.0199698
0.0199595
0.0199505
0.0199421
0.0199338
0.0199255
0.0199172
0.0199093
0.0199023
0.0198966
0.0198922
0.0198891
0.0198872
0.0198861
0.0198857
0.0199452
0.0199455
0.0199461
0.0199475
0.0199501
0.0199545
0.0199613
0.019971
0.019984
0.0199992
0.020014
0.0200246
0.0200278
0.0200227
0.0200112
0.0199958
0.0199798
0.0199659
0.0199546
0.019945
0.0199364
0.0199284
0.0199205
0.0199129
0.0199058
0.0198996
0.0198945
0.0198906
0.0198879
0.0198862
0.0198852
0.0198848
0.0199541
0.0199543
0.019955
0.0199565
0.0199594
0.0199642
0.0199717
0.0199825
0.0199965
0.0200125
0.0200271
0.0200362
0.0200368
0.0200286
0.0200142
0.0199963
0.019978
0.0199623
0.0199494
0.0199387
0.0199294
0.0199212
0.0199136
0.0199067
0.0199006
0.0198954
0.0198912
0.0198881
0.0198859
0.0198845
0.0198838
0.0198835
0.0199687
0.0199689
0.0199698
0.0199716
0.0199748
0.0199803
0.0199886
0.0200003
0.0200148
0.0200303
0.0200432
0.0200495
0.0200469
0.0200362
0.0200202
0.0200013
0.019982
0.0199646
0.0199497
0.0199368
0.0199257
0.019916
0.0199079
0.019901
0.0198955
0.0198913
0.0198882
0.0198861
0.0198849
0.0198842
0.019884
0.0198839
0.0199894
0.0199898
0.0199909
0.0199931
0.0199969
0.020003
0.020012
0.020024
0.020038
0.020052
0.0200622
0.0200655
0.020061
0.0200504
0.0200363
0.0200204
0.0200036
0.019987
0.019971
0.0199557
0.0199413
0.0199282
0.0199169
0.019908
0.0199015
0.0198973
0.0198951
0.0198943
0.0198945
0.0198952
0.019896
0.0198964
0.0200147
0.0200152
0.0200164
0.020019
0.0200233
0.0200301
0.0200396
0.0200516
0.0200649
0.0200769
0.0200851
0.0200877
0.0200855
0.0200805
0.0200748
0.0200689
0.0200623
0.0200541
0.0200438
0.0200313
0.0200172
0.020002
0.0199869
0.0199733
0.0199623
0.0199543
0.0199494
0.0199473
0.0199472
0.0199482
0.0199493
0.0199501
0.0200403
0.0200409
0.0200424
0.0200454
0.0200505
0.0200582
0.0200686
0.0200811
0.0200943
0.0201063
0.0201157
0.0201227
0.0201287
0.0201356
0.0201446
0.0201562
0.0201689
0.0201794
0.0201859
0.0201878
0.020185
0.0201778
0.0201669
0.0201535
0.0201388
0.0201242
0.0201112
0.0201009
0.020094
0.0200901
0.0200884
0.020088
0.0200584
0.0200589
0.0200604
0.0200633
0.0200684
0.020076
0.0200865
0.0200996
0.0201142
0.0201292
0.0201435
0.0201575
0.0201724
0.0201895
0.02021
0.0202343
0.0202605
0.0202848
0.0203053
0.0203218
0.0203341
0.0203418
0.0203445
0.0203421
0.020335
0.0203244
0.0203116
0.0202987
0.0202876
0.0202794
0.0202746
0.0202726
0.0200687
0.0200692
0.0200706
0.0200733
0.0200779
0.020085
0.0200949
0.0201077
0.0201228
0.0201391
0.0201558
0.0201726
0.0201901
0.0202092
0.0202303
0.0202534
0.0202767
0.0202978
0.0203171
0.0203355
0.020353
0.0203691
0.0203828
0.0203932
0.0203997
0.0204021
0.0204007
0.0203966
0.0203911
0.0203859
0.0203822
0.0203804
0.0200742
0.0200746
0.0200759
0.0200783
0.0200824
0.0200887
0.0200977
0.0201095
0.0201237
0.0201396
0.0201563
0.0201731
0.0201899
0.020207
0.0202244
0.0202419
0.0202582
0.0202728
0.0202879
0.0203051
0.0203244
0.0203448
0.0203648
0.0203827
0.0203974
0.0204081
0.0204149
0.0204181
0.0204187
0.0204179
0.0204167
0.0204159
0.0200767
0.0200771
0.0200782
0.0200803
0.0200839
0.0200895
0.0200973
0.0201078
0.0201206
0.0201353
0.0201508
0.0201663
0.0201814
0.0201958
0.0202096
0.0202226
0.0202341
0.0202451
0.020258
0.0202747
0.0202955
0.0203194
0.0203446
0.0203688
0.0203898
0.0204064
0.020418
0.0204251
0.0204287
0.0204298
0.0204298
0.0204295
0.0200776
0.020078
0.020079
0.0200808
0.0200839
0.0200887
0.0200955
0.0201045
0.0201158
0.0201287
0.0201426
0.0201566
0.02017
0.0201825
0.0201941
0.0202049
0.0202149
0.0202253
0.020238
0.0202545
0.0202754
0.0203004
0.0203281
0.0203562
0.020382
0.0204035
0.0204196
0.0204301
0.020436
0.0204386
0.0204392
0.0204391
0.0200785
0.0200788
0.0200795
0.020081
0.0200835
0.0200875
0.0200932
0.0201009
0.0201106
0.0201219
0.0201342
0.0201468
0.0201591
0.0201708
0.020182
0.0201929
0.0202039
0.0202157
0.0202293
0.020246
0.0202666
0.0202911
0.0203188
0.0203479
0.0203761
0.0204009
0.0204205
0.0204342
0.0204424
0.0204463
0.0204475
0.0204476
0.0200812
0.0200813
0.0200816
0.0200824
0.0200841
0.0200872
0.0200918
0.0200984
0.0201068
0.0201168
0.0201281
0.02014
0.0201522
0.0201644
0.0201766
0.0201893
0.0202027
0.0202166
0.0202314
0.0202483
0.020268
0.0202912
0.0203174
0.0203455
0.0203738
0.0203998
0.0204216
0.0204377
0.0204479
0.0204532
0.0204551
0.0204553
0.0200879
0.0200876
0.0200872
0.0200871
0.0200878
0.0200897
0.0200934
0.020099
0.0201067
0.0201163
0.0201275
0.0201398
0.0201529
0.0201665
0.0201807
0.0201959
0.0202119
0.0202276
0.0202432
0.0202597
0.0202781
0.0202991
0.0203229
0.0203487
0.0203753
0.0204009
0.0204234
0.0204411
0.0204529
0.0204595
0.020462
0.0204625
0.0201006
0.0200998
0.0200985
0.0200972
0.0200968
0.0200977
0.0201008
0.0201062
0.020114
0.0201242
0.0201363
0.0201499
0.0201645
0.02018
0.0201962
0.0202135
0.0202312
0.0202479
0.0202633
0.0202788
0.0202953
0.0203136
0.0203342
0.0203569
0.0203808
0.0204045
0.0204264
0.0204445
0.0204575
0.0204651
0.0204684
0.020469
0.0201209
0.0201195
0.0201173
0.0201151
0.0201139
0.0201146
0.0201178
0.0201239
0.0201328
0.0201443
0.0201578
0.0201729
0.0201889
0.0202057
0.0202231
0.0202412
0.0202594
0.0202757
0.0202902
0.0203039
0.0203181
0.0203334
0.0203505
0.0203695
0.0203898
0.0204108
0.0204309
0.0204484
0.0204618
0.0204702
0.020474
0.0204749
0.0201498
0.0201478
0.020145
0.0201427
0.0201419
0.0201435
0.0201479
0.0201555
0.0201659
0.0201787
0.0201933
0.0202091
0.0202256
0.0202424
0.0202595
0.0202771
0.0202941
0.020309
0.0203217
0.0203333
0.0203449
0.0203572
0.0203707
0.0203858
0.0204023
0.0204197
0.0204372
0.0204532
0.0204661
0.0204748
0.0204791
0.0204802
0.0201879
0.0201854
0.0201829
0.0201819
0.0201831
0.0201868
0.0201931
0.0202022
0.0202135
0.0202267
0.0202411
0.0202562
0.0202717
0.0202872
0.0203026
0.0203181
0.0203328
0.0203454
0.0203558
0.0203652
0.0203742
0.0203836
0.0203937
0.0204051
0.0204176
0.0204312
0.0204453
0.020459
0.0204707
0.0204791
0.0204837
0.020485
0.0202355
0.0202332
0.0202325
0.0202344
0.0202384
0.0202444
0.0202523
0.0202618
0.0202727
0.0202848
0.0202975
0.0203105
0.0203235
0.0203363
0.0203489
0.0203613
0.020373
0.0203827
0.0203907
0.0203977
0.0204043
0.020411
0.0204183
0.0204262
0.0204351
0.0204449
0.0204554
0.0204661
0.0204758
0.0204833
0.0204877
0.0204892
0.0202939
0.020293
0.0202955
0.0203004
0.0203066
0.0203136
0.0203213
0.0203297
0.0203386
0.020348
0.0203577
0.0203674
0.0203771
0.0203864
0.0203955
0.0204043
0.0204125
0.0204193
0.0204248
0.0204295
0.020434
0.0204384
0.020443
0.0204482
0.0204539
0.0204602
0.0204672
0.0204746
0.0204817
0.0204876
0.0204914
0.0204928
0.0203654
0.020367
0.020372
0.0203776
0.0203832
0.0203888
0.0203944
0.0204
0.0204057
0.0204115
0.0204174
0.0204233
0.020429
0.0204346
0.0204399
0.020445
0.0204498
0.0204537
0.0204568
0.0204595
0.020462
0.0204644
0.020467
0.0204698
0.0204728
0.0204763
0.0204801
0.0204843
0.0204885
0.0204922
0.0204948
0.0204959
0.0204527
0.0204541
0.0204566
0.0204591
0.0204614
0.0204635
0.0204655
0.0204675
0.0204694
0.0204713
0.0204733
0.0204752
0.0204771
0.0204789
0.0204806
0.0204823
0.0204838
0.0204851
0.0204861
0.0204869
0.0204877
0.0204885
0.0204893
0.0204901
0.0204911
0.0204922
0.0204933
0.0204946
0.020496
0.0204972
0.0204982
0.0204986
)
;

boundaryField
{
    movingWall
    {
        type            fixedValue;
        value           uniform 0.0205;
    }
    fixedWalls
    {
        type            zeroGradient;
    }
    floor
    {
        type            zeroGradient;
    }
    frontAndBack
    {
        type            empty;
    }
}


// ************************************************************************* //
