/*--------------------------------*- C++ -*----------------------------------*\
| =========                 |                                                 |
| \\      /  F ield         | OpenFOAM: The Open Source CFD Toolbox           |
|  \\    /   O peration     | Version:  2212                                  |
|   \\  /    A nd           | Website:  www.openfoam.com                      |
|    \\/     M anipulation  |                                                 |
\*---------------------------------------------------------------------------*/
FoamFile
{
    version     2.0;
    format      ascii;
    arch        "LSB;label=64;scalar=64";
    class       surfaceScalarField;
    location    "1950";
    object      phi;
}
// * * * * * * * * * * * * * * * * * * * * * * * * * * * * * * * * * * * * * //

dimensions      [0 3 -1 0 0 0 0];

oriented        oriented;

internalField   nonuniform List<scalar> 
1984
(
3.21065e-10
-3.38117e-10
1.96097e-10
1.25003e-10
-1.14812e-09
1.34421e-09
-4.0432e-09
2.89511e-09
-8.31158e-09
4.26842e-09
-1.34355e-08
5.12396e-09
-1.89184e-08
5.4829e-09
-2.46734e-08
5.75503e-09
-3.11929e-08
6.51951e-09
-3.93803e-08
8.18733e-09
-5.02103e-08
1.08301e-08
-6.44793e-08
1.42689e-08
-8.26132e-08
1.81339e-08
-1.04256e-07
2.16428e-08
-1.27053e-07
2.27966e-08
-1.43837e-07
1.67843e-08
-1.39231e-07
-4.6056e-09
-1.04146e-07
-3.50848e-08
-4.16015e-08
-6.25448e-08
3.35663e-08
-7.51678e-08
9.65313e-08
-6.29649e-08
1.28374e-07
-3.18425e-08
1.30201e-07
-1.82698e-09
1.14688e-07
1.55131e-08
9.2484e-08
2.22037e-08
6.91605e-08
2.33236e-08
4.72617e-08
2.18987e-08
2.82251e-08
1.90366e-08
1.33447e-08
1.48805e-08
3.81145e-09
9.53323e-09
-1.76359e-11
3.82911e-09
-1.76237e-11
-1.17282e-10
-2.20819e-10
-2.16878e-09
2.17651e-09
-7.89101e-09
7.06649e-09
-1.81749e-08
1.31791e-08
-3.27938e-08
1.88873e-08
-5.05952e-08
2.29255e-08
-7.03451e-08
2.52327e-08
-9.18015e-08
2.72115e-08
-1.16288e-07
3.10059e-08
-1.46325e-07
3.8224e-08
-1.84657e-07
4.91626e-08
-2.3336e-07
6.29718e-08
-2.93005e-07
7.77787e-08
-3.61155e-07
8.97932e-08
-4.2866e-07
9.03015e-08
-4.72702e-07
6.08263e-08
-4.49565e-07
-2.77428e-08
-3.38353e-07
-1.46296e-07
-1.51681e-07
-2.49217e-07
7.20421e-08
-2.98891e-07
2.61695e-07
-2.52617e-07
3.63919e-07
-1.34067e-07
3.82184e-07
-2.00919e-08
3.4705e-07
5.0647e-08
2.87126e-07
8.21277e-08
2.19693e-07
9.07565e-08
1.54262e-07
8.73295e-08
9.66316e-08
7.66672e-08
5.10143e-08
6.04978e-08
2.01181e-08
4.04295e-08
4.09559e-09
1.98516e-08
4.07801e-09
-1.48976e-09
1.26896e-09
-7.74745e-09
8.43423e-09
-2.09364e-08
2.02555e-08
-4.23162e-08
3.4559e-08
-7.16473e-08
4.82184e-08
-1.07354e-07
5.86323e-08
-1.47703e-07
6.55812e-08
-1.92424e-07
7.19328e-08
-2.43628e-07
8.22101e-08
-3.05257e-07
9.98531e-08
-3.81487e-07
1.25392e-07
-4.7503e-07
1.56515e-07
-5.8539e-07
1.88139e-07
-7.05998e-07
2.10401e-07
-8.18287e-07
2.0259e-07
-8.82058e-07
1.24597e-07
-8.27186e-07
-8.26142e-08
-6.29116e-07
-3.44366e-07
-3.16147e-07
-5.62186e-07
5.71064e-08
-6.72145e-07
3.82246e-07
-5.77757e-07
5.71907e-07
-3.23728e-07
6.2607e-07
-7.42553e-08
5.86093e-07
9.06247e-08
4.96849e-07
1.71371e-07
3.88303e-07
1.99302e-07
2.78877e-07
1.96756e-07
1.80327e-07
1.75217e-07
1.0047e-07
1.40354e-07
4.36978e-08
9.72019e-08
1.08281e-08
5.27214e-08
1.49062e-08
-3.83386e-09
5.10281e-09
-1.70253e-08
2.16257e-08
-4.19861e-08
4.52164e-08
-7.99861e-08
7.2559e-08
-1.305e-07
9.87324e-08
-1.91506e-07
1.19638e-07
-2.6097e-07
1.35046e-07
-3.38784e-07
1.49746e-07
-4.27729e-07
1.71155e-07
-5.32635e-07
2.04759e-07
-6.58204e-07
2.50961e-07
-8.06513e-07
3.04825e-07
-9.74273e-07
3.55899e-07
-1.1487e-06
3.84829e-07
-1.30029e-06
3.54176e-07
-1.37186e-06
1.96169e-07
-1.27245e-06
-1.82026e-07
-9.84268e-07
-6.32545e-07
-5.56465e-07
-9.89989e-07
-5.48158e-08
-1.17379e-06
4.01929e-07
-1.0345e-06
6.98934e-07
-6.20734e-07
8.14632e-07
-1.89953e-07
7.91709e-07
1.13547e-07
6.88905e-07
2.74176e-07
5.49708e-07
3.38499e-07
4.02508e-07
3.43956e-07
2.66009e-07
3.11716e-07
1.5242e-07
2.53944e-07
6.87606e-08
1.80861e-07
1.78718e-08
1.0361e-07
3.27781e-08
-7.31699e-09
1.24198e-08
-3.08792e-08
4.51879e-08
-7.32832e-08
8.76204e-08
-1.35396e-07
1.34672e-07
-2.15904e-07
1.7924e-07
-3.12048e-07
2.15782e-07
-4.21513e-07
2.44511e-07
-5.44378e-07
2.72612e-07
-6.8372e-07
3.10497e-07
-8.4427e-07
3.65309e-07
-1.02981e-06
4.365e-07
-1.24011e-06
5.15121e-07
-1.46741e-06
5.83208e-07
-1.69157e-06
6.08987e-07
-1.87253e-06
5.35131e-07
-1.93893e-06
2.62567e-07
-1.78783e-06
-3.33121e-07
-1.41738e-06
-1.00299e-06
-8.96531e-07
-1.51084e-06
-3.08142e-07
-1.76218e-06
2.56248e-07
-1.59889e-06
6.78727e-07
-1.04321e-06
8.8674e-07
-3.97966e-07
9.09761e-07
9.05265e-08
8.15666e-07
3.68271e-07
6.63906e-07
4.90258e-07
4.93376e-07
5.14486e-07
3.30162e-07
4.7493e-07
1.91394e-07
3.92712e-07
8.72809e-08
2.84974e-07
2.29006e-08
1.67991e-07
5.56787e-08
-1.2236e-08
2.46558e-08
-5.04416e-08
8.33936e-08
-1.17324e-07
1.54503e-07
-2.1285e-07
2.30198e-07
-3.34236e-07
3.00627e-07
-4.77449e-07
3.58995e-07
-6.39576e-07
4.06637e-07
-8.20526e-07
4.53562e-07
-1.02287e-06
5.12846e-07
-1.24994e-06
5.92374e-07
-1.503e-06
6.89557e-07
-1.7781e-06
7.90221e-07
-2.06229e-06
8.67401e-07
-2.32856e-06
8.75257e-07
-2.52885e-06
7.35417e-07
-2.5826e-06
3.16326e-07
-2.38479e-06
-5.30939e-07
-1.95271e-06
-1.43507e-06
-1.36981e-06
-2.09374e-06
-7.32897e-07
-2.3991e-06
-1.02012e-07
-2.22977e-06
4.41767e-07
-1.58699e-06
7.74707e-07
-7.30906e-07
8.79928e-07
-1.46947e-08
8.22358e-07
4.25842e-07
6.83559e-07
6.29057e-07
5.12967e-07
6.85079e-07
3.44203e-07
6.43694e-07
1.99087e-07
5.37828e-07
9.02142e-08
3.93847e-07
2.34117e-08
2.34793e-07
7.90904e-08
-1.88407e-08
4.34965e-08
-7.65516e-08
1.41105e-07
-1.75752e-07
2.53703e-07
-3.14911e-07
3.69357e-07
-4.88987e-07
4.74703e-07
-6.91912e-07
5.6192e-07
-9.19476e-07
6.34201e-07
-1.17059e-06
7.0468e-07
-1.44627e-06
7.88524e-07
-1.74723e-06
8.9333e-07
-2.07123e-06
1.01356e-06
-2.41021e-06
1.12921e-06
-2.74669e-06
1.20388e-06
-3.04898e-06
1.17754e-06
-3.26497e-06
9.51406e-07
-3.31095e-06
3.62307e-07
-3.08639e-06
-7.55502e-07
-2.62307e-06
-1.89838e-06
-2.01034e-06
-2.70647e-06
-1.34433e-06
-3.06511e-06
-6.88243e-07
-2.88586e-06
-7.18079e-08
-2.20343e-06
4.07161e-07
-1.20987e-06
6.39234e-07
-2.46768e-07
6.59786e-07
4.0529e-07
5.68902e-07
7.19941e-07
4.30392e-07
8.23589e-07
2.86496e-07
7.87589e-07
1.62662e-07
6.61661e-07
7.17708e-08
4.84738e-07
1.79615e-08
2.88602e-07
9.70518e-08
-2.70264e-08
7.05229e-08
-1.08708e-07
2.22787e-07
-2.47325e-07
3.9232e-07
-4.39301e-07
5.61332e-07
-6.76594e-07
7.11997e-07
-9.5026e-07
8.35585e-07
-1.25382e-06
9.37762e-07
-1.58416e-06
1.03502e-06
-1.93983e-06
1.14419e-06
-2.31845e-06
1.27195e-06
-2.71435e-06
1.40946e-06
-3.11618e-06
1.53103e-06
-3.5037e-06
1.59139e-06
-3.84353e-06
1.51737e-06
-4.08334e-06
1.19123e-06
-4.14098e-06
4.19942e-07
-3.92058e-06
-9.75902e-07
-3.45943e-06
-2.35953e-06
-2.84663e-06
-3.31928e-06
-2.17143e-06
-3.7403e-06
-1.49257e-06
-3.56472e-06
-8.42824e-07
-2.85318e-06
-2.62958e-07
-1.78974e-06
1.44148e-07
-6.53875e-07
3.07645e-07
2.41793e-07
3.09004e-07
7.18582e-07
2.41727e-07
8.90866e-07
1.57964e-07
8.71352e-07
8.52857e-08
7.3434e-07
3.48605e-08
5.35164e-07
7.77932e-09
3.15684e-07
1.04831e-07
-3.60026e-08
1.06526e-07
-1.43971e-07
3.30755e-07
-3.25883e-07
5.74231e-07
-5.76025e-07
8.11474e-07
-8.83032e-07
1.019e-06
-1.23441e-06
1.18696e-06
-1.62049e-06
1.32384e-06
-2.03527e-06
1.44981e-06
-2.47453e-06
1.58345e-06
-2.93313e-06
1.73055e-06
-3.403e-06
1.87933e-06
-3.87099e-06
1.99903e-06
-4.31618e-06
2.03659e-06
-4.70579e-06
1.90698e-06
-4.98924e-06
1.47468e-06
-5.08713e-06
5.1783e-07
-4.90369e-06
-1.15934e-06
-4.47577e-06
-2.78746e-06
-3.89033e-06
-3.90472e-06
-3.22614e-06
-4.40449e-06
-2.53274e-06
-4.25813e-06
-1.84108e-06
-3.54483e-06
-1.18402e-06
-2.4468e-06
-6.20144e-07
-1.21775e-06
-2.45665e-07
-1.32685e-07
-7.99962e-08
5.52913e-07
-2.43433e-08
8.35213e-07
-1.22248e-08
8.59234e-07
-1.07038e-08
7.32819e-07
-7.98916e-09
5.32449e-07
-3.20313e-09
3.10898e-07
1.01628e-07
-4.42374e-08
1.50763e-07
-1.76806e-07
4.63324e-07
-4.00154e-07
7.97579e-07
-7.07348e-07
1.11867e-06
-1.08424e-06
1.39589e-06
-1.51462e-06
1.61735e-06
-1.98502e-06
1.79424e-06
-2.48612e-06
1.9509e-06
-3.01105e-06
2.10837e-06
-3.55282e-06
2.27233e-06
-4.1022e-06
2.42871e-06
-4.64569e-06
2.54253e-06
-5.16282e-06
2.55371e-06
-5.62189e-06
2.36605e-06
-5.97343e-06
1.82621e-06
-6.13936e-06
6.83765e-07
-6.0204e-06
-1.2783e-06
-5.65334e-06
-3.15452e-06
-5.12207e-06
-4.43599e-06
-4.49004e-06
-5.03652e-06
-3.79177e-06
-4.9564e-06
-3.04958e-06
-4.28703e-06
-2.29376e-06
-3.20262e-06
-1.57499e-06
-1.93652e-06
-9.61256e-07
-7.46414e-07
-5.53192e-07
1.44849e-07
-3.20794e-07
6.02815e-07
-1.83942e-07
7.22382e-07
-9.82148e-08
6.47091e-07
-4.32002e-08
4.77434e-07
-1.12049e-08
2.78902e-07
9.04229e-08
-4.98281e-08
2.00591e-07
-2.00307e-07
6.13803e-07
-4.56059e-07
1.05333e-06
-8.11143e-07
1.47375e-06
-1.25036e-06
1.83511e-06
-1.75443e-06
2.12142e-06
-2.30586e-06
2.34568e-06
-2.89175e-06
2.5368e-06
-3.5029e-06
2.71952e-06
-4.13121e-06
2.90064e-06
-4.76717e-06
3.06467e-06
-5.39742e-06
3.17277e-06
-6.00169e-06
3.15798e-06
-6.54817e-06
2.91253e-06
-6.98669e-06
2.26473e-06
-7.24007e-06
9.37142e-07
-7.20644e-06
-1.31193e-06
-6.92604e-06
-3.43491e-06
-6.47632e-06
-4.8857e-06
-5.89883e-06
-5.61401e-06
-5.20672e-06
-5.64851e-06
-4.40857e-06
-5.08517e-06
-3.52914e-06
-4.08205e-06
-2.62118e-06
-2.84449e-06
-1.76845e-06
-1.59915e-06
-1.06872e-06
-5.54875e-07
-6.01672e-07
1.35766e-07
-3.21872e-07
4.42582e-07
-1.554e-07
4.80619e-07
-6.05406e-08
3.82575e-07
-1.35393e-08
2.31901e-07
7.68836e-08
-5.10017e-08
2.51593e-07
-2.07794e-07
7.70595e-07
-4.79472e-07
1.32501e-06
-8.64466e-07
1.85875e-06
-1.34959e-06
2.32023e-06
-1.91409e-06
2.68591e-06
-2.53655e-06
2.96814e-06
-3.20007e-06
3.20032e-06
-3.89296e-06
3.41241e-06
-4.60617e-06
3.61385e-06
-5.33003e-06
3.78853e-06
-6.05094e-06
3.89368e-06
-6.74783e-06
3.85487e-06
-7.38749e-06
3.5522e-06
-7.9188e-06
2.79604e-06
-8.26828e-06
1.28662e-06
-8.33591e-06
-1.24431e-06
-8.16774e-06
-3.60308e-06
-7.82967e-06
-5.22377e-06
-7.33518e-06
-6.10851e-06
-6.6714e-06
-6.31228e-06
-5.83099e-06
-5.92558e-06
-4.83512e-06
-5.07792e-06
-3.74508e-06
-3.93453e-06
-2.65963e-06
-2.6846e-06
-1.69305e-06
-1.52145e-06
-9.49983e-07
-6.07301e-07
-4.72904e-07
-3.44974e-08
-2.04601e-07
2.12316e-07
-6.94634e-08
2.47438e-07
-1.26665e-08
1.75104e-07
6.42171e-08
-4.6341e-08
2.97934e-07
-1.9345e-07
9.17704e-07
-4.57099e-07
1.58866e-06
-8.44146e-07
2.24579e-06
-1.34787e-06
2.82395e-06
-1.94881e-06
3.28686e-06
-2.6221e-06
3.64143e-06
-3.34582e-06
3.92404e-06
-4.10459e-06
4.17117e-06
-4.88778e-06
4.39705e-06
-5.68518e-06
4.58592e-06
-6.48258e-06
4.69108e-06
-7.25783e-06
4.63012e-06
-7.97687e-06
4.27124e-06
-8.59013e-06
3.4093e-06
-9.0331e-06
1.72959e-06
-9.21301e-06
-1.0644e-06
-9.18285e-06
-3.63323e-06
-8.99332e-06
-5.41331e-06
-8.62611e-06
-6.47572e-06
-8.03934e-06
-6.89905e-06
-7.20747e-06
-6.75746e-06
-6.14605e-06
-6.13933e-06
-4.92135e-06
-5.15923e-06
-3.64472e-06
-3.96123e-06
-2.45186e-06
-2.71432e-06
-1.46488e-06
-1.59428e-06
-7.56402e-07
-7.42977e-07
-3.29596e-07
-2.1449e-07
-1.10238e-07
2.80797e-08
-1.96912e-08
8.45566e-08
4.4526e-08
-3.478e-08
3.32714e-07
-1.5226e-07
1.03518e-06
-3.76055e-07
1.81245e-06
-7.25378e-07
2.59512e-06
-1.2057e-06
3.30428e-06
-1.8037e-06
3.88485e-06
-2.49239e-06
4.33012e-06
-3.24304e-06
4.6747e-06
-4.03395e-06
4.96208e-06
-4.85111e-06
5.21421e-06
-5.68335e-06
5.41816e-06
-6.51655e-06
5.52428e-06
-7.32924e-06
5.44281e-06
-8.0897e-06
5.03171e-06
-8.75496e-06
4.07455e-06
-9.27525e-06
2.24988e-06
-9.56995e-06
-7.69692e-07
-9.70157e-06
-3.50162e-06
-9.70747e-06
-5.40741e-06
-9.53648e-06
-6.6467e-06
-9.11452e-06
-7.32101e-06
-8.39167e-06
-7.4803e-06
-7.36806e-06
-7.16294e-06
-6.10225e-06
-6.42504e-06
-4.7053e-06
-5.35818e-06
-3.32353e-06
-4.09609e-06
-2.10824e-06
-2.80957e-06
-1.17205e-06
-1.67917e-06
-5.47207e-07
-8.39329e-07
-1.95383e-07
-3.23745e-07
-3.79461e-08
-7.28798e-08
6.57985e-09
-1.59148e-08
3.48629e-07
-8.09801e-08
1.10025e-06
-2.25373e-07
1.95685e-06
-4.83321e-07
2.85306e-06
-8.78611e-07
3.69957e-06
-1.41184e-06
4.41808e-06
-2.05847e-06
4.97674e-06
-2.78158e-06
5.39781e-06
-3.54852e-06
5.72902e-06
-4.3381e-06
6.00378e-06
-5.13723e-06
6.2173e-06
-5.93393e-06
6.32098e-06
-6.71171e-06
6.22058e-06
-7.44742e-06
5.76742e-06
-8.11247e-06
4.73961e-06
-8.67801e-06
2.81541e-06
-9.07666e-06
-3.71037e-07
-9.3857e-06
-3.19258e-06
-9.64154e-06
-5.15157e-06
-9.76187e-06
-6.52638e-06
-9.63479e-06
-7.44809e-06
-9.17358e-06
-7.94152e-06
-8.34603e-06
-7.99049e-06
-7.18565e-06
-7.58542e-06
-5.7878e-06
-6.75603e-06
-4.29634e-06
-5.58755e-06
-2.8804e-06
-4.2255e-06
-1.69722e-06
-2.86235e-06
-8.42601e-07
-1.69395e-06
-3.20427e-07
-8.45919e-07
-6.68555e-08
-3.26452e-07
-6.02756e-08
8.63146e-09
3.39997e-07
1.48214e-08
1.09406e-06
-1.2754e-08
1.98442e-06
-1.1717e-07
2.95748e-06
-3.42546e-07
3.92495e-06
-7.15395e-07
4.79093e-06
-1.22786e-06
5.4892e-06
-1.83764e-06
6.0076e-06
-2.49706e-06
6.38843e-06
-3.17088e-06
6.67761e-06
-3.83948e-06
6.88589e-06
-4.49291e-06
6.97442e-06
-5.12461e-06
6.85228e-06
-5.72907e-06
6.37188e-06
-6.30537e-06
5.31591e-06
-6.86321e-06
3.37325e-06
-7.36408e-06
1.29836e-07
-7.85385e-06
-2.70281e-06
-8.41015e-06
-4.59527e-06
-8.93362e-06
-6.00291e-06
-9.27084e-06
-7.11086e-06
-9.27779e-06
-7.93456e-06
-8.86176e-06
-8.40652e-06
-8.00571e-06
-8.44147e-06
-6.77108e-06
-7.99066e-06
-5.28893e-06
-7.0697e-06
-3.74109e-06
-5.77335e-06
-2.32833e-06
-4.2751e-06
-1.21822e-06
-2.80406e-06
-4.8688e-07
-1.57726e-06
-1.07565e-07
-7.05767e-07
-1.6784e-07
3.02609e-08
3.09736e-07
1.04016e-07
1.0203e-06
1.96835e-07
1.8916e-06
2.6979e-07
2.88452e-06
2.72953e-07
3.92178e-06
1.61371e-07
4.90251e-06
-8.33067e-08
5.73388e-06
-4.39002e-07
6.36329e-06
-8.56701e-07
6.80613e-06
-1.28436e-06
7.10527e-06
-1.68598e-06
7.28751e-06
-2.04577e-06
7.33421e-06
-2.36302e-06
7.16954e-06
-2.64711e-06
6.65597e-06
-2.91137e-06
5.58017e-06
-3.20144e-06
3.66332e-06
-3.6253e-06
5.53695e-07
-4.18325e-06
-2.14486e-06
-4.92112e-06
-3.8574e-06
-5.78076e-06
-5.14328e-06
-6.61603e-06
-6.27559e-06
-7.24132e-06
-7.30927e-06
-7.48548e-06
-8.16236e-06
-7.25002e-06
-8.67693e-06
-6.52763e-06
-8.71305e-06
-5.40263e-06
-8.1947e-06
-4.03658e-06
-7.1394e-06
-2.6438e-06
-5.66789e-06
-1.44575e-06
-4.00211e-06
-5.98264e-07
-2.42475e-06
-1.36198e-07
-1.16783e-06
-3.04039e-07
3.9701e-08
2.70035e-07
1.48383e-07
9.11623e-07
3.11064e-07
1.72892e-06
4.97038e-07
2.69855e-06
6.63148e-07
3.75567e-06
7.64441e-07
4.80122e-06
7.69889e-07
5.72843e-06
6.75137e-07
6.45804e-06
5.13228e-07
6.96804e-06
3.36687e-07
7.28181e-06
1.92784e-07
7.43142e-06
1.07495e-07
7.4195e-06
8.29447e-08
7.19409e-06
1.02882e-07
6.63603e-06
1.32544e-07
5.55051e-06
1.55294e-07
3.64057e-06
-5.28142e-08
7.61803e-07
-5.58515e-07
-1.63916e-06
-1.22985e-06
-3.18606e-06
-2.08533e-06
-4.2878e-06
-3.07625e-06
-5.28468e-06
-4.06968e-06
-6.31584e-06
-4.84662e-06
-7.38542e-06
-5.23539e-06
-8.28816e-06
-5.14547e-06
-8.80297e-06
-4.58606e-06
-8.75411e-06
-3.6581e-06
-8.06735e-06
-2.54002e-06
-6.78597e-06
-1.45876e-06
-5.08337e-06
-6.25322e-07
-3.25818e-06
-1.4585e-07
-1.6473e-06
-4.49889e-07
4.1199e-08
2.28836e-07
1.60996e-07
7.91826e-07
3.53533e-07
1.53638e-06
5.97239e-07
2.45484e-06
8.56147e-07
3.49677e-06
1.08812e-06
4.56925e-06
1.25823e-06
5.55832e-06
1.35242e-06
6.36385e-06
1.38797e-06
6.93249e-06
1.40712e-06
7.26265e-06
1.45759e-06
7.38095e-06
1.57185e-06
7.30523e-06
1.75487e-06
7.01107e-06
1.98088e-06
6.41002e-06
2.19537e-06
5.33602e-06
2.29835e-06
3.53759e-06
2.11604e-06
9.44113e-07
1.65706e-06
-1.18018e-06
1.06118e-06
-2.59018e-06
3.37112e-07
-3.56373e-06
-5.5988e-07
-4.38768e-06
-1.61513e-06
-5.26059e-06
-2.64135e-06
-6.3592e-06
-3.43189e-06
-7.49762e-06
-3.82174e-06
-8.41312e-06
-3.74506e-06
-8.83079e-06
-3.23199e-06
-8.58043e-06
-2.40465e-06
-7.61331e-06
-1.4661e-06
-6.02193e-06
-6.57565e-07
-4.06671e-06
-1.58061e-07
-2.14681e-06
-6.07949e-07
3.74021e-08
1.91434e-07
1.51107e-07
6.7812e-07
3.42976e-07
1.34452e-06
6.01089e-07
2.19673e-06
8.98768e-07
3.19909e-06
1.20052e-06
4.2675e-06
1.47356e-06
5.28528e-06
1.70043e-06
6.13699e-06
1.88826e-06
6.74466e-06
2.06681e-06
7.0841e-06
2.27455e-06
7.17321e-06
2.53968e-06
7.0401e-06
2.86454e-06
6.68621e-06
3.21746e-06
6.0571e-06
3.52726e-06
5.02622e-06
3.6638e-06
3.40105e-06
3.46926e-06
1.13864e-06
3.01314e-06
-7.24054e-07
2.41867e-06
-1.99571e-06
1.75743e-06
-2.90249e-06
1.00712e-06
-3.63737e-06
1.0709e-07
-4.36056e-06
-9.3225e-07
-5.31986e-06
-1.91898e-06
-6.51088e-06
-2.63067e-06
-7.70142e-06
-2.93432e-06
-8.52715e-06
-2.7883e-06
-8.72644e-06
-2.24791e-06
-8.1537e-06
-1.47012e-06
-6.79971e-06
-6.97643e-07
-4.83919e-06
-1.73853e-07
-2.6706e-06
-7.81802e-07
3.04466e-08
1.60988e-07
1.26724e-07
5.81842e-07
2.9623e-07
1.17501e-06
5.36169e-07
1.95679e-06
8.30773e-07
2.90448e-06
1.1548e-06
3.94348e-06
1.48269e-06
4.95738e-06
1.79886e-06
5.82082e-06
2.10461e-06
6.43891e-06
2.41707e-06
6.77164e-06
2.75969e-06
6.83059e-06
3.14826e-06
6.65153e-06
3.57731e-06
6.25716e-06
4.0101e-06
5.62431e-06
4.36978e-06
4.66654e-06
4.52368e-06
3.24715e-06
4.34408e-06
1.31824e-06
3.90559e-06
-2.85566e-07
3.31676e-06
-1.40687e-06
2.6476e-06
-2.23334e-06
1.93794e-06
-2.92771e-06
1.19802e-06
-3.62063e-06
3.23514e-07
-4.44536e-06
-6.59065e-07
-5.52831e-06
-1.55473e-06
-6.80575e-06
-2.14484e-06
-7.93704e-06
-2.31895e-06
-8.55233e-06
-2.06039e-06
-8.41226e-06
-1.46404e-06
-7.39607e-06
-7.46166e-07
-5.55706e-06
-1.95396e-07
-3.22137e-06
-9.77199e-07
2.14912e-08
1.39496e-07
9.25326e-08
5.10801e-07
2.24022e-07
1.04352e-06
4.21663e-07
1.75915e-06
6.82189e-07
2.64396e-06
9.93849e-07
3.63182e-06
1.3421e-06
4.60914e-06
1.71661e-06
5.4463e-06
2.11493e-06
6.04059e-06
2.541e-06
6.34558e-06
2.99995e-06
6.37164e-06
3.49079e-06
6.16069e-06
3.99766e-06
5.7503e-06
4.48047e-06
5.14149e-06
4.86508e-06
4.28193e-06
5.03332e-06
3.07891e-06
4.88925e-06
1.46231e-06
4.49755e-06
1.06133e-07
3.94723e-06
-8.56551e-07
3.3045e-06
-1.59061e-06
2.61841e-06
-2.24162e-06
1.91821e-06
-2.92044e-06
1.19187e-06
-3.71902e-06
3.62542e-07
-4.69898e-06
-5.5244e-07
-5.89077e-06
-1.34172e-06
-7.14777e-06
-1.79381e-06
-8.10023e-06
-1.81545e-06
-8.39063e-06
-1.42745e-06
-7.78406e-06
-7.95077e-07
-6.18944e-06
-2.2341e-07
-3.79303e-06
-1.20061e-06
1.03934e-08
1.29103e-07
4.8721e-08
4.72474e-07
1.28981e-07
9.63261e-07
2.66223e-07
1.62191e-06
4.72672e-07
2.43751e-06
7.52021e-07
3.35247e-06
1.1014e-06
4.25976e-06
1.51608e-06
5.03163e-06
1.98935e-06
5.56732e-06
2.51063e-06
5.8243e-06
3.06581e-06
5.81647e-06
3.63713e-06
5.58937e-06
4.19922e-06
5.1882e-06
4.71129e-06
4.62942e-06
5.10728e-06
3.88594e-06
5.29057e-06
2.89562e-06
5.19595e-06
1.55693e-06
4.87516e-06
4.26916e-07
4.39503e-06
-3.76422e-07
3.82233e-06
-1.0179e-06
3.19691e-06
-1.6162e-06
2.54683e-06
-2.27036e-06
1.87987e-06
-3.05206e-06
1.1754e-06
-3.99451e-06
3.70284e-07
-5.08565e-06
-4.92012e-07
-6.28547e-06
-1.17962e-06
-7.41262e-06
-1.48204e-06
-8.08821e-06
-1.33476e-06
-7.93134e-06
-8.3102e-07
-6.69318e-06
-2.58246e-07
-4.36581e-06
-1.45885e-06
-4.54037e-09
1.33643e-07
-1.02775e-08
4.78211e-07
3.0367e-09
9.49947e-07
6.73565e-08
1.55759e-06
2.13958e-07
2.29091e-06
4.58726e-07
3.1077e-06
8.0545e-07
3.91303e-06
1.25317e-06
4.58391e-06
1.7891e-06
5.03138e-06
2.38692e-06
5.22648e-06
3.01521e-06
5.18817e-06
3.6433e-06
4.96128e-06
4.24002e-06
4.59148e-06
4.76711e-06
4.10233e-06
5.17006e-06
3.48299e-06
5.3752e-06
2.69049e-06
5.3355e-06
1.59663e-06
5.10146e-06
6.60954e-07
4.72884e-06
-3.8005e-09
4.26775e-06
-5.56816e-07
3.74407e-06
-1.09251e-06
3.17685e-06
-1.70315e-06
2.5714e-06
-2.44661e-06
1.91879e-06
-3.3419e-06
1.19901e-06
-4.36587e-06
3.79088e-07
-5.46555e-06
-4.53083e-07
-6.58045e-06
-1.03381e-06
-7.50748e-06
-1.16172e-06
-7.80343e-06
-8.38717e-07
-7.01618e-06
-2.99871e-07
-4.90465e-06
-1.75873e-06
-2.65999e-08
1.60243e-07
-9.09365e-08
5.42547e-07
-1.57275e-07
1.01629e-06
-1.70969e-07
1.57128e-06
-8.09581e-08
2.2009e-06
1.41159e-07
2.88558e-06
4.95048e-07
3.55914e-06
9.76217e-07
4.10274e-06
1.5651e-06
4.4425e-06
2.21991e-06
4.57167e-06
2.89724e-06
4.51085e-06
3.55975e-06
4.29877e-06
4.17558e-06
3.97565e-06
4.71241e-06
3.56549e-06
5.12929e-06
3.06611e-06
5.37465e-06
2.44513e-06
5.41271e-06
1.55857e-06
5.29327e-06
7.80402e-07
5.05007e-06
2.39397e-07
4.71534e-06
-2.22085e-07
4.31502e-06
-6.92198e-07
3.85331e-06
-1.24144e-06
3.32396e-06
-1.91726e-06
2.71529e-06
-2.73323e-06
2.01739e-06
-3.66796e-06
1.22875e-06
-4.67692e-06
3.57513e-07
-5.70921e-06
-4.49996e-07
-6.69997e-06
-8.86279e-07
-7.36715e-06
-8.0119e-07
-7.10127e-06
-3.45374e-07
-5.36047e-06
-2.1041e-06
-6.31433e-08
2.23387e-07
-2.05058e-07
6.84462e-07
-3.54921e-07
1.16615e-06
-4.34662e-07
1.65102e-06
-3.83917e-07
2.15015e-06
-1.68072e-07
2.66974e-06
2.07788e-07
3.18328e-06
7.29238e-07
3.58129e-06
1.36271e-06
3.80903e-06
2.05639e-06
3.87799e-06
2.76303e-06
3.8042e-06
3.44554e-06
3.61626e-06
4.07597e-06
3.34523e-06
4.63013e-06
3.01133e-06
5.0803e-06
2.61594e-06
5.39218e-06
2.13325e-06
5.52939e-06
1.42136e-06
5.52545e-06
7.84347e-07
5.41363e-06
3.51211e-07
5.21615e-06
-2.4604e-08
4.94597e-06
-4.22014e-07
4.59538e-06
-8.90852e-07
4.14803e-06
-1.4699e-06
3.586e-06
-2.17121e-06
2.89943e-06
-2.9814e-06
2.09409e-06
-3.87157e-06
1.1954e-06
-4.81052e-06
2.59603e-07
-5.76418e-06
-4.83887e-07
-6.62366e-06
-6.95873e-07
-6.88928e-06
-3.84854e-07
-5.67149e-06
-2.48895e-06
-1.23885e-07
3.47272e-07
-3.60644e-07
9.21221e-07
-5.82098e-07
1.3876e-06
-6.94686e-07
1.76361e-06
-6.46067e-07
2.10153e-06
-4.13352e-07
2.43702e-06
2.12985e-09
2.7678e-06
5.7016e-07
3.01326e-06
1.24112e-06
3.13807e-06
1.96203e-06
3.15708e-06
2.68943e-06
3.0768e-06
3.39128e-06
2.9144e-06
4.0455e-06
2.69101e-06
4.63507e-06
2.42176e-06
5.14151e-06
2.1095e-06
5.53964e-06
1.73512e-06
5.7826e-06
1.1784e-06
5.8881e-06
6.78846e-07
5.89565e-06
3.43662e-07
5.81749e-06
5.35566e-08
5.65549e-06
-2.60015e-07
5.399e-06
-6.34366e-07
5.02502e-06
-1.09592e-06
4.50987e-06
-1.65605e-06
3.83906e-06
-2.31059e-06
3.01562e-06
-3.04814e-06
2.06511e-06
-3.86001e-06
1.04394e-06
-4.74301e-06
7.85598e-08
-5.65828e-06
-4.89662e-07
-6.32106e-06
-3.98319e-07
-5.76283e-06
-2.88727e-06
-2.15998e-07
5.6327e-07
-5.45251e-07
1.25047e-06
-7.93447e-07
1.6358e-06
-8.79271e-07
1.84943e-06
-7.80012e-07
2.00227e-06
-4.93031e-07
2.15004e-06
-1.93205e-08
2.29409e-06
6.04064e-07
2.38987e-06
1.3102e-06
2.43193e-06
2.05662e-06
2.41066e-06
2.80796e-06
2.32546e-06
3.53771e-06
2.18466e-06
4.22761e-06
2.00111e-06
4.86359e-06
1.78578e-06
5.4305e-06
1.54259e-06
5.90525e-06
1.26038e-06
6.22963e-06
8.5401e-07
6.41281e-06
4.95665e-07
6.49856e-06
2.5792e-07
6.50011e-06
5.2e-08
6.41361e-06
-1.73508e-07
6.22409e-06
-4.44846e-07
5.90766e-06
-7.79487e-07
5.43844e-06
-1.18683e-06
4.7966e-06
-1.66875e-06
3.97615e-06
-2.22769e-06
2.9918e-06
-2.87566e-06
1.88715e-06
-3.63835e-06
7.61361e-07
-4.5325e-06
-1.34211e-07
-5.42549e-06
-3.55346e-07
-5.5417e-06
-3.24262e-06
-3.30954e-07
8.94224e-07
-7.04459e-07
1.62398e-06
-8.76167e-07
1.80751e-06
-8.34498e-07
1.80777e-06
-6.07681e-07
1.77546e-06
-2.06819e-07
1.74918e-06
3.54231e-07
1.73304e-06
1.02705e-06
1.71706e-06
1.76467e-06
1.69432e-06
2.53423e-06
1.64109e-06
3.30598e-06
1.55371e-06
4.05611e-06
1.43453e-06
4.76663e-06
1.29059e-06
5.42281e-06
1.1296e-06
6.00972e-06
9.55673e-07
6.50565e-06
7.64451e-07
6.85183e-06
5.07833e-07
7.05848e-06
2.89011e-07
7.17144e-06
1.44961e-07
7.20512e-06
1.83231e-08
7.15405e-06
-1.22433e-07
7.00244e-06
-2.93242e-07
6.72866e-06
-5.05708e-07
6.30772e-06
-7.65892e-07
5.71643e-06
-1.07746e-06
4.93827e-06
-1.44952e-06
3.96901e-06
-1.90641e-06
2.82693e-06
-2.49627e-06
1.57817e-06
-3.28374e-06
4.07933e-07
-4.25525e-06
-2.15532e-07
-4.91823e-06
-3.45815e-06
-4.44145e-07
1.33837e-06
-6.87131e-07
1.86696e-06
-5.76428e-07
1.6968e-06
-2.53638e-07
1.48498e-06
2.03745e-07
1.31807e-06
7.66317e-07
1.18661e-06
1.41024e-06
1.08912e-06
2.11434e-06
1.01296e-06
2.85693e-06
9.51725e-07
3.61139e-06
8.86634e-07
4.3531e-06
8.11997e-07
5.06076e-06
7.26876e-07
5.71726e-06
6.34085e-07
6.30914e-06
5.37717e-07
6.8247e-06
4.40116e-07
7.249e-06
3.4015e-07
7.53867e-06
2.18168e-07
7.70936e-06
1.18317e-07
7.80232e-06
5.19992e-08
7.82863e-06
-7.97855e-09
7.7828e-06
-7.66118e-08
7.65182e-06
-1.62254e-07
7.41698e-06
-2.70869e-07
7.05628e-06
-4.05192e-07
6.54677e-06
-5.67956e-07
5.86523e-06
-7.67977e-07
4.98822e-06
-1.0294e-06
3.89579e-06
-1.40384e-06
2.59217e-06
-1.98012e-06
1.19042e-06
-2.85349e-06
1.16844e-07
-3.84466e-06
-3.34131e-06
-3.73129e-07
1.7115e-06
2.14932e-08
1.47234e-06
7.24821e-07
9.93476e-07
1.4239e-06
7.85895e-07
2.10653e-06
6.35449e-07
2.78073e-06
5.124e-07
3.44721e-06
4.22643e-07
4.1027e-06
3.5747e-07
4.74464e-06
3.09787e-07
5.36154e-06
2.69733e-07
5.94046e-06
2.33076e-07
6.46933e-06
1.98004e-07
6.93898e-06
1.64435e-07
7.34372e-06
1.32978e-07
7.68014e-06
1.03694e-07
7.94423e-06
7.60584e-08
8.11642e-06
4.59774e-08
8.21249e-06
2.22484e-08
8.25887e-06
5.6233e-09
8.26116e-06
-1.02701e-08
8.21429e-06
-2.97423e-08
8.10778e-06
-5.57457e-08
7.92671e-06
-8.97936e-08
7.65404e-06
-1.3253e-07
7.27114e-06
-1.85051e-07
6.75504e-06
-2.51875e-07
6.07221e-06
-3.46571e-07
5.17002e-06
-5.01651e-07
3.97285e-06
-7.82955e-07
2.42164e-06
-1.30228e-06
7.47562e-07
-2.17058e-06
-2.59375e-06
1.7115e-06
3.18384e-06
4.17732e-06
4.96321e-06
5.59866e-06
6.11106e-06
6.5337e-06
6.89117e-06
7.20096e-06
7.47069e-06
7.70377e-06
7.90177e-06
8.06621e-06
8.19919e-06
8.30288e-06
8.37894e-06
8.42492e-06
8.44717e-06
8.45279e-06
8.44252e-06
8.41278e-06
8.35703e-06
8.26724e-06
8.13471e-06
7.94966e-06
7.69778e-06
7.35121e-06
6.84956e-06
6.0666e-06
4.76433e-06
2.59375e-06
)
;

boundaryField
{
    movingWall
    {
        type            calculated;
        value           uniform 0;
    }
    fixedWalls
    {
        type            calculated;
        value           uniform 0;
    }
    floor
    {
        type            calculated;
        value           uniform 0;
    }
    frontAndBack
    {
        type            empty;
        value           nonuniform List<scalar> 0();
    }
}


// ************************************************************************* //
