/*--------------------------------*- C++ -*----------------------------------*\
| =========                 |                                                 |
| \\      /  F ield         | OpenFOAM: The Open Source CFD Toolbox           |
|  \\    /   O peration     | Version:  2212                                  |
|   \\  /    A nd           | Website:  www.openfoam.com                      |
|    \\/     M anipulation  |                                                 |
\*---------------------------------------------------------------------------*/
FoamFile
{
    version     2.0;
    format      ascii;
    arch        "LSB;label=64;scalar=64";
    class       volScalarField;
    location    "1950";
    object      Sco2;
}
// * * * * * * * * * * * * * * * * * * * * * * * * * * * * * * * * * * * * * //

dimensions      [1 -3 0 0 0 0 0];

internalField   nonuniform List<scalar> 
1024
(
0.0063406
0.0063426
0.00634752
0.0063566
0.00637135
0.00639359
0.00642524
0.00646809
0.00652325
0.00659065
0.00666849
0.00675313
0.00683966
0.00692311
0.00699952
0.00706591
0.00711468
0.00713932
0.00714191
0.0071267
0.0070973
0.0070578
0.00701302
0.00696787
0.00692657
0.00689187
0.00686487
0.00684527
0.00683203
0.00682381
0.00681933
0.0068175
0.00634123
0.00634325
0.00634822
0.00635738
0.00637227
0.00639472
0.00642666
0.00646986
0.00652543
0.00659322
0.00667139
0.00675624
0.00684285
0.00692627
0.00700263
0.00706903
0.0071179
0.00714272
0.00714547
0.00713037
0.00710095
0.00706131
0.00701626
0.00697075
0.00692905
0.00689395
0.00686659
0.00684674
0.00683334
0.00682503
0.00682051
0.00681868
0.00634278
0.00634484
0.00634992
0.00635927
0.00637447
0.00639739
0.00642998
0.00647399
0.00653045
0.00659912
0.00667799
0.00676327
0.00685002
0.00693339
0.00700968
0.00707619
0.00712548
0.00715094
0.00715426
0.00713939
0.00710974
0.00706944
0.00702354
0.00697711
0.00693449
0.00689855
0.0068705
0.00685016
0.00683645
0.00682799
0.0068234
0.00682155
0.00634561
0.00634774
0.00635298
0.00636265
0.00637837
0.00640208
0.00643575
0.00648109
0.00653904
0.00660912
0.0066891
0.00677502
0.00686193
0.00694521
0.00702149
0.00708843
0.00713884
0.00716584
0.00717038
0.00715593
0.00712558
0.00708371
0.00703594
0.00698769
0.00694346
0.0069062
0.00687715
0.00685612
0.00684201
0.00683336
0.0068287
0.00682684
0.0063501
0.00635232
0.0063578
0.00636793
0.00638442
0.00640927
0.00644451
0.00649179
0.00655184
0.00662389
0.00670536
0.00679209
0.00687919
0.00696239
0.00703889
0.00710692
0.00715965
0.00718957
0.00719639
0.0071826
0.00715088
0.00710611
0.00705495
0.0070036
0.00695684
0.00691766
0.00688729
0.00686545
0.00685091
0.00684209
0.00683742
0.00683558
0.00635664
0.00635898
0.00636477
0.00637551
0.00639302
0.00641941
0.00645674
0.00650656
0.00656932
0.00664385
0.00672714
0.00681479
0.00690211
0.00698538
0.00706262
0.00713283
0.00718963
0.00722445
0.00723493
0.00722221
0.00718845
0.00713929
0.00708283
0.00702665
0.00697611
0.00693429
0.00690226
0.00687949
0.00686457
0.00685569
0.00685109
0.00684934
0.00636556
0.00636803
0.0063742
0.00638569
0.00640447
0.00643277
0.00647267
0.00652557
0.00659159
0.006669
0.00675433
0.006843
0.00693065
0.00701439
0.00709321
0.00716715
0.00723024
0.00727229
0.0072882
0.00727735
0.00724136
0.00718663
0.00712303
0.00706001
0.0070041
0.00695867
0.0069245
0.0069007
0.00688546
0.00687664
0.00687225
0.00687066
0.00637703
0.00637965
0.00638625
0.00639859
0.00641883
0.00644933
0.00649217
0.00654857
0.00661819
0.00669874
0.00678625
0.00687606
0.00696433
0.00704914
0.00713067
0.00721009
0.00728181
0.00733356
0.00735706
0.0073498
0.00731266
0.00725252
0.0071808
0.00710919
0.00704612
0.00699576
0.00695873
0.0069336
0.006918
0.00690934
0.00690526
0.00690391
0.00639101
0.00639378
0.0064008
0.00641404
0.00643583
0.00646866
0.00651461
0.00657467
0.00664803
0.0067318
0.00682157
0.0069127
0.00700199
0.00708859
0.00717388
0.00726019
0.00734232
0.00740594
0.00743983
0.00743958
0.00740489
0.00734225
0.00726379
0.00718324
0.0071115
0.00705455
0.00701341
0.00698619
0.00696986
0.0069612
0.00695741
0.00695629
0.00640714
0.00641004
0.00641746
0.00643153
0.0064548
0.00648987
0.00653882
0.00660241
0.00667935
0.00676623
0.00685825
0.00695085
0.00704145
0.00713021
0.00721956
0.00731293
0.0074058
0.00748283
0.00753081
0.0075435
0.00751857
0.00746066
0.00738111
0.0072946
0.00721452
0.00714951
0.00710236
0.00707146
0.00705325
0.00704387
0.00703996
0.0070389
0.00642475
0.00642774
0.00643548
0.00645022
0.0064747
0.00651163
0.00656312
0.00662972
0.00670977
0.00679938
0.00689339
0.00698728
0.0070789
0.00716908
0.00726104
0.00735927
0.00746086
0.00755181
0.00761839
0.00765237
0.00764835
0.0076075
0.00753835
0.00745457
0.0073708
0.00729851
0.00724368
0.00720667
0.0071844
0.00717269
0.00716765
0.0071662
0.00644284
0.00644589
0.00645381
0.00646896
0.00649418
0.0065323
0.00658545
0.0066541
0.00673629
0.00682775
0.00692294
0.00701713
0.00710816
0.00719706
0.00728744
0.007385
0.00749027
0.00759395
0.00768323
0.00774734
0.00777694
0.00776859
0.00772628
0.00766029
0.00758417
0.00751104
0.00745027
0.00740594
0.00737737
0.00736123
0.00735361
0.00735109
0.00646008
0.00646315
0.00647109
0.00648628
0.00651159
0.00654991
0.00660342
0.00667257
0.00675527
0.00684691
0.00694148
0.00703364
0.00712064
0.00720305
0.00728449
0.00737231
0.0074729
0.0075855
0.00769899
0.00779927
0.00787238
0.00790992
0.00791074
0.00788032
0.00782882
0.0077685
0.00771069
0.00766323
0.00762933
0.00760827
0.0075973
0.00759321
0.00647477
0.00647781
0.00648559
0.00650039
0.00652499
0.00656223
0.00661433
0.00668178
0.00676249
0.00685163
0.00694256
0.00702893
0.00710673
0.00717538
0.00723827
0.00730483
0.00738973
0.00750421
0.00763935
0.00777699
0.00789784
0.00798825
0.00804216
0.00806042
0.00804916
0.00801792
0.00797758
0.00793789
0.00790544
0.00788298
0.00787013
0.00786489
0.00648462
0.00648759
0.00649504
0.00650902
0.00653202
0.00656672
0.00661526
0.00667823
0.00675366
0.00683665
0.00691999
0.00699608
0.00705912
0.00710683
0.00714201
0.00717614
0.00723347
0.00733982
0.00749012
0.0076625
0.00783158
0.00797724
0.00808788
0.00816003
0.00819652
0.00820437
0.00819295
0.00817207
0.00815002
0.00813218
0.00812077
0.00811569
0.00648657
0.00648943
0.00649641
0.00650917
0.00652977
0.0065605
0.00660326
0.00665871
0.00672518
0.00679802
0.00686988
0.0069321
0.00697701
0.00700025
0.00700332
0.00699859
0.00701849
0.00710401
0.00725802
0.0074584
0.00767467
0.00787857
0.00805031
0.00818029
0.00826767
0.00831761
0.00833875
0.00834098
0.00833362
0.00832388
0.00831616
0.00831225
0.00647747
0.00648022
0.00648671
0.00649818
0.00651619
0.00654242
0.00657841
0.00662476
0.00668017
0.00674068
0.0067994
0.00684754
0.00687632
0.00687958
0.00685688
0.00681912
0.00680163
0.00685532
0.00699454
0.00720474
0.00745657
0.00771543
0.00795111
0.00814416
0.00828706
0.00838181
0.00843643
0.00846171
0.00846867
0.00846672
0.00846249
0.00845965
0.00645882
0.00646149
0.00646762
0.00647811
0.00649405
0.00651659
0.00654678
0.00658504
0.00663037
0.00667953
0.00672664
0.00676365
0.00678195
0.00677469
0.00674008
0.00668684
0.00664881
0.00667718
0.00679233
0.00699054
0.00725177
0.00754377
0.00783007
0.0080808
0.00827881
0.00841988
0.00850946
0.00855845
0.0085796
0.00858485
0.00858348
0.00858135
0.00643486
0.00643746
0.00644331
0.00645312
0.00646762
0.00648753
0.00651346
0.00654555
0.00658294
0.00662299
0.00666088
0.00668981
0.00670217
0.00669161
0.00665603
0.00660273
0.00656297
0.00658294
0.00668227
0.00686341
0.00711567
0.00741514
0.00772741
0.00801758
0.00825992
0.00844246
0.00856575
0.00863879
0.00867481
0.00868765
0.00868918
0.00868767
0.00640914
0.00641156
0.00641702
0.00642612
0.00643941
0.00645733
0.00648012
0.00650763
0.00653894
0.00657186
0.00660249
0.00662544
0.00663465
0.00662514
0.0065957
0.00655365
0.00652688
0.00655321
0.00664833
0.00681681
0.00705395
0.00734402
0.00766023
0.00796952
0.00824152
0.00845707
0.00861043
0.00870682
0.00875826
0.00877941
0.00878422
0.0087834
0.00638724
0.0063892
0.00639371
0.00640143
0.00641292
0.0064286
0.00644851
0.00647225
0.00649876
0.0065261
0.0065512
0.00657012
0.00657877
0.00657427
0.00655727
0.00653594
0.00653362
0.00657702
0.00667634
0.00683689
0.00705821
0.00733071
0.00763513
0.00794476
0.00823041
0.0084684
0.00864644
0.00876442
0.00883141
0.00886156
0.00887014
0.00887013
0.0063782
0.00637915
0.00638161
0.00638638
0.00639433
0.00640618
0.00642216
0.00644184
0.00646409
0.00648717
0.0065089
0.00652694
0.00653937
0.00654571
0.00654853
0.00655647
0.00658647
0.00665271
0.00676009
0.00691433
0.00711853
0.00736885
0.00765219
0.00794799
0.00823199
0.00848052
0.00867633
0.00881305
0.0088952
0.00893493
0.00894781
0.0089488
0.0063941
0.00639326
0.00639207
0.00639157
0.00639325
0.00639856
0.00640847
0.00642299
0.00644131
0.00646217
0.00648438
0.00650715
0.00653046
0.00655549
0.0065856
0.00662856
0.00669344
0.00678264
0.00689738
0.0070442
0.0072289
0.00745262
0.00770824
0.0079808
0.00825094
0.008498
0.00870317
0.00885447
0.00895061
0.00900021
0.00901796
0.00902017
0.00644775
0.00644422
0.0064377
0.00642968
0.00642254
0.00641894
0.0064211
0.00643019
0.00644628
0.00646891
0.00649774
0.00653294
0.00657516
0.00662573
0.00668716
0.00676504
0.00686077
0.00696774
0.00708557
0.00722203
0.00738474
0.0075784
0.00780108
0.00804342
0.00829075
0.00852587
0.00873103
0.00889111
0.00899892
0.00905813
0.00908121
0.00908489
0.00654981
0.00654283
0.00652992
0.00651363
0.00649756
0.00648566
0.00648155
0.00648797
0.00650623
0.00653652
0.00657871
0.00663271
0.00669844
0.00677595
0.00686594
0.00697147
0.00708812
0.0072041
0.00731893
0.00744157
0.00758059
0.00774257
0.00792929
0.00813632
0.00835388
0.00856852
0.00876456
0.00892616
0.00904178
0.00910949
0.00913807
0.00914352
0.00670715
0.00669626
0.00667753
0.00665549
0.00663503
0.00662072
0.00661669
0.00662684
0.00665333
0.00669634
0.00675518
0.00682869
0.00691533
0.00701356
0.00712234
0.00724283
0.00736741
0.00748254
0.00758835
0.00769434
0.00780915
0.00793984
0.00809022
0.00825948
0.00844229
0.0086294
0.00880808
0.00896332
0.00908133
0.00915521
0.00918897
0.00919645
0.00692308
0.00690852
0.00688716
0.00686635
0.00685122
0.006845
0.00685053
0.00687157
0.00691026
0.00696636
0.00703861
0.00712497
0.00722288
0.00732979
0.0074437
0.00756473
0.00768442
0.00778991
0.00788199
0.00796971
0.00806104
0.00816253
0.00827859
0.00841054
0.0085564
0.00871089
0.00886508
0.00900622
0.0091201
0.00919645
0.00923431
0.00924395
0.00719958
0.00718288
0.00716562
0.00715681
0.00715872
0.00717072
0.00719292
0.0072278
0.00727694
0.00734036
0.00741696
0.00750468
0.00760086
0.00770284
0.00780847
0.00791747
0.0080221
0.00811152
0.00818689
0.008256
0.00832556
0.00840102
0.00848646
0.00858404
0.00869377
0.00881343
0.0089379
0.00905794
0.00916086
0.00923475
0.0092746
0.00928618
0.00754067
0.00752575
0.00752255
0.00753601
0.00756157
0.00759425
0.00763208
0.00767632
0.00772847
0.00778958
0.00785944
0.00793668
0.00801929
0.0081051
0.0081923
0.00828053
0.00836359
0.00843323
0.00849058
0.00854172
0.00859177
0.00864484
0.0087042
0.00877195
0.00884892
0.00893469
0.00902707
0.0091207
0.00920608
0.00927188
0.00931052
0.00932331
0.0079559
0.0079504
0.00797015
0.00800655
0.00804941
0.00809323
0.00813621
0.00817947
0.00822479
0.00827411
0.00832806
0.0083862
0.00844734
0.00851005
0.00857304
0.00863597
0.00869453
0.00874306
0.00878246
0.00881693
0.00884992
0.00888422
0.00892209
0.00896512
0.0090142
0.00906959
0.00913076
0.00919539
0.00925792
0.0093098
0.00934307
0.00935557
0.00846311
0.00847556
0.00851194
0.00855289
0.00859296
0.00863004
0.00866345
0.00869438
0.00872447
0.00875552
0.00878845
0.00882334
0.00885968
0.0088967
0.00893365
0.00897032
0.00900421
0.00903215
0.00905464
0.00907407
0.00909239
0.00911116
0.00913164
0.00915477
0.00918113
0.00921101
0.00924445
0.00928077
0.00931763
0.00935043
0.00937352
0.00938339
0.00908374
0.00909339
0.00911201
0.00912987
0.00914614
0.00916061
0.00917315
0.00918429
0.0091947
0.00920512
0.00921599
0.00922741
0.00923924
0.00925126
0.00926322
0.00927506
0.00928597
0.00929494
0.00930213
0.00930831
0.00931409
0.00931996
0.00932633
0.00933348
0.0093416
0.0093508
0.00936112
0.00937244
0.0093842
0.00939516
0.00940351
0.00940754
)
;

boundaryField
{
    movingWall
    {
        type            fixedValue;
        value           uniform 0.00942;
    }
    fixedWalls
    {
        type            zeroGradient;
    }
    floor
    {
        type            zeroGradient;
    }
    frontAndBack
    {
        type            empty;
    }
}


// ************************************************************************* //
