/*--------------------------------*- C++ -*----------------------------------*\
| =========                 |                                                 |
| \\      /  F ield         | OpenFOAM: The Open Source CFD Toolbox           |
|  \\    /   O peration     | Version:  2212                                  |
|   \\  /    A nd           | Website:  www.openfoam.com                      |
|    \\/     M anipulation  |                                                 |
\*---------------------------------------------------------------------------*/
FoamFile
{
    version     2.0;
    format      ascii;
    arch        "LSB;label=64;scalar=64";
    class       volScalarField;
    location    "1950";
    object      SIC;
}
// * * * * * * * * * * * * * * * * * * * * * * * * * * * * * * * * * * * * * //

dimensions      [1 -3 0 0 0 0 0];

internalField   nonuniform List<scalar> 
1024
(
0.0920208
0.0920227
0.0920276
0.0920367
0.0920515
0.0920737
0.0921053
0.0921482
0.0922033
0.0922708
0.0923486
0.0924332
0.0925198
0.0926032
0.0926796
0.092746
0.0927948
0.0928194
0.092822
0.0928068
0.0927774
0.092738
0.0926932
0.092648
0.0926067
0.0925721
0.0925451
0.0925255
0.0925122
0.092504
0.0924995
0.0924977
0.0920214
0.0920234
0.0920283
0.0920375
0.0920524
0.0920748
0.0921068
0.09215
0.0922055
0.0922733
0.0923515
0.0924363
0.0925229
0.0926064
0.0926827
0.0927491
0.092798
0.0928228
0.0928256
0.0928105
0.0927811
0.0927415
0.0926964
0.0926509
0.0926092
0.0925741
0.0925468
0.0925269
0.0925135
0.0925052
0.0925007
0.0924989
0.0920229
0.0920249
0.09203
0.0920394
0.0920546
0.0920775
0.0921101
0.0921541
0.0922106
0.0922792
0.0923581
0.0924434
0.0925301
0.0926135
0.0926898
0.0927563
0.0928056
0.0928311
0.0928344
0.0928195
0.0927899
0.0927496
0.0927037
0.0926573
0.0926147
0.0925787
0.0925507
0.0925304
0.0925167
0.0925082
0.0925036
0.0925018
0.0920257
0.0920278
0.0920331
0.0920427
0.0920585
0.0920822
0.0921158
0.0921612
0.0922191
0.0922892
0.0923692
0.0924551
0.092542
0.0926253
0.0927016
0.0927685
0.0928189
0.0928459
0.0928505
0.0928361
0.0928057
0.0927639
0.0927161
0.0926679
0.0926236
0.0925864
0.0925573
0.0925363
0.0925222
0.0925136
0.0925089
0.0925071
0.0920302
0.0920324
0.0920379
0.092048
0.0920645
0.0920894
0.0921246
0.0921719
0.0922319
0.092304
0.0923855
0.0924722
0.0925593
0.0926425
0.092719
0.092787
0.0928397
0.0928697
0.0928765
0.0928627
0.092831
0.0927863
0.0927351
0.0926838
0.092637
0.0925979
0.0925675
0.0925457
0.0925311
0.0925223
0.0925176
0.0925158
0.0920367
0.0920391
0.0920449
0.0920556
0.0920731
0.0920995
0.0921368
0.0921867
0.0922494
0.0923239
0.0924072
0.0924949
0.0925822
0.0926655
0.0927427
0.0928129
0.0928697
0.0929045
0.092915
0.0929023
0.0928686
0.0928194
0.092763
0.0927068
0.0926563
0.0926145
0.0925825
0.0925597
0.0925448
0.0925359
0.0925313
0.0925295
0.0920457
0.0920481
0.0920543
0.0920658
0.0920846
0.0921129
0.0921528
0.0922057
0.0922717
0.0923491
0.0924344
0.0925231
0.0926107
0.0926945
0.0927733
0.0928472
0.0929103
0.0929524
0.0929683
0.0929575
0.0929215
0.0928668
0.0928032
0.0927402
0.0926843
0.0926389
0.0926047
0.0925809
0.0925657
0.0925569
0.0925525
0.0925509
0.0920571
0.0920598
0.0920664
0.0920787
0.0920989
0.0921294
0.0921723
0.0922287
0.0922983
0.0923788
0.0924663
0.0925561
0.0926444
0.0927292
0.0928107
0.0928902
0.0929619
0.0930136
0.0930372
0.0930299
0.0929928
0.0929327
0.092861
0.0927894
0.0927263
0.092676
0.0926389
0.0926138
0.0925982
0.0925896
0.0925855
0.0925841
0.0920711
0.0920739
0.0920809
0.0920941
0.0921159
0.0921488
0.0921947
0.0922548
0.0923281
0.0924119
0.0925017
0.0925928
0.0926821
0.0927687
0.0928539
0.0929403
0.0930224
0.093086
0.0931199
0.0931197
0.093085
0.0930224
0.092944
0.0928635
0.0927917
0.0927348
0.0926936
0.0926664
0.0926501
0.0926414
0.0926376
0.0926365
0.0920872
0.0920901
0.0920976
0.0921116
0.0921349
0.09217
0.0922189
0.0922825
0.0923594
0.0924463
0.0925383
0.0926309
0.0927215
0.0928103
0.0928996
0.092993
0.0930858
0.0931629
0.0932109
0.0932236
0.0931987
0.0931408
0.0930613
0.0929748
0.0928948
0.0928297
0.0927826
0.0927517
0.0927335
0.0927241
0.0927202
0.0927191
0.0921049
0.0921078
0.0921156
0.0921303
0.0921548
0.0921917
0.0922432
0.0923098
0.0923899
0.0924795
0.0925735
0.0926673
0.0927589
0.0928491
0.0929411
0.0930393
0.0931409
0.0932318
0.0932984
0.0933324
0.0933284
0.0932876
0.0932185
0.0931348
0.093051
0.0929788
0.0929239
0.0928869
0.0928646
0.0928529
0.0928479
0.0928464
0.0921229
0.092126
0.0921339
0.0921491
0.0921743
0.0922124
0.0922655
0.0923342
0.0924164
0.0925078
0.092603
0.0926972
0.0927882
0.0928771
0.0929674
0.093065
0.0931702
0.0932739
0.0933632
0.0934274
0.093457
0.0934487
0.0934064
0.0933405
0.0932644
0.0931913
0.0931305
0.0930862
0.0930576
0.0930415
0.0930338
0.0930313
0.0921402
0.0921433
0.0921512
0.0921664
0.0921917
0.09223
0.0922835
0.0923526
0.0924353
0.092527
0.0926215
0.0927137
0.0928006
0.092883
0.0929645
0.0930523
0.0931528
0.0932654
0.0933789
0.0934792
0.0935524
0.0935899
0.0935908
0.0935604
0.093509
0.0934487
0.0933909
0.0933434
0.0933095
0.0932885
0.0932775
0.0932734
0.0921549
0.0921579
0.0921657
0.0921805
0.0922051
0.0922423
0.0922944
0.0923618
0.0924426
0.0925317
0.0926226
0.0927089
0.0927867
0.0928553
0.0929182
0.0929847
0.0930696
0.0931841
0.0933193
0.0934569
0.0935778
0.0936682
0.0937222
0.0937405
0.0937292
0.093698
0.0936577
0.093618
0.0935856
0.0935631
0.0935502
0.093545
0.0921647
0.0921677
0.0921751
0.0921891
0.0922121
0.0922468
0.0922953
0.0923583
0.0924337
0.0925167
0.0926
0.0926761
0.0927391
0.0927868
0.0928219
0.092856
0.0929134
0.0930197
0.09317
0.0933424
0.0935115
0.0936572
0.0937678
0.09384
0.0938765
0.0938844
0.093873
0.0938521
0.0938301
0.0938122
0.0938008
0.0937957
0.0921667
0.0921695
0.0921765
0.0921892
0.0922099
0.0922406
0.0922833
0.0923388
0.0924052
0.092478
0.0925499
0.0926121
0.092657
0.0926802
0.0926832
0.0926785
0.0926984
0.0927839
0.0929379
0.0931383
0.0933546
0.0935585
0.0937303
0.0938603
0.0939476
0.0939976
0.0940187
0.094021
0.0940136
0.0940039
0.0939962
0.0939923
0.0921576
0.0921603
0.0921668
0.0921783
0.0921963
0.0922225
0.0922585
0.0923048
0.0923602
0.0924207
0.0924794
0.0925275
0.0925563
0.0925595
0.0925368
0.092499
0.0924815
0.0925352
0.0926745
0.0928847
0.0931365
0.0933954
0.0936311
0.0938241
0.093967
0.0940618
0.0941164
0.0941417
0.0941487
0.0941467
0.0941425
0.0941396
0.0921389
0.0921416
0.0921477
0.0921582
0.0921741
0.0921967
0.0922268
0.0922651
0.0923104
0.0923596
0.0924066
0.0924436
0.0924619
0.0924546
0.09242
0.0923668
0.0923287
0.0923571
0.0924723
0.0926705
0.0929317
0.0932237
0.09351
0.0937608
0.0939588
0.0940999
0.0941895
0.0942384
0.0942596
0.0942649
0.0942635
0.0942613
0.0921149
0.0921175
0.0921234
0.0921332
0.0921477
0.0921676
0.0921935
0.0922256
0.092263
0.092303
0.0923409
0.0923698
0.0923821
0.0923716
0.092336
0.0922827
0.0922429
0.0922629
0.0923622
0.0925434
0.0927956
0.0930951
0.0934074
0.0936976
0.0939399
0.0941225
0.0942457
0.0943188
0.0943548
0.0943677
0.0943692
0.0943677
0.0920892
0.0920916
0.0920971
0.0921062
0.0921195
0.0921374
0.0921602
0.0921877
0.092219
0.0922519
0.0922825
0.0923054
0.0923146
0.0923051
0.0922757
0.0922336
0.0922068
0.0922332
0.0923283
0.0924968
0.0927339
0.093024
0.0933402
0.0936495
0.0939215
0.0941371
0.0942904
0.0943868
0.0944383
0.0944594
0.0944642
0.0944634
0.0920673
0.0920693
0.0920738
0.0920815
0.092093
0.0921087
0.0921286
0.0921523
0.0921788
0.0922061
0.0922312
0.0922501
0.0922588
0.0922543
0.0922372
0.0922159
0.0922136
0.092257
0.0923563
0.0925169
0.0927382
0.0930107
0.0933151
0.0936248
0.0939104
0.0941484
0.0943264
0.0944444
0.0945114
0.0945416
0.0945501
0.0945501
0.0920583
0.0920592
0.0920617
0.0920664
0.0920744
0.0920862
0.0921022
0.0921219
0.0921441
0.0921672
0.0921889
0.092207
0.0922194
0.0922257
0.0922285
0.0922364
0.0922664
0.0923327
0.0924401
0.0925943
0.0927985
0.0930488
0.0933322
0.093628
0.093912
0.0941605
0.0943563
0.094493
0.0945752
0.0946149
0.0946278
0.0946288
0.0920742
0.0920733
0.0920721
0.0920716
0.0920733
0.0920786
0.0920885
0.092103
0.0921214
0.0921422
0.0921644
0.0921872
0.0922105
0.0922355
0.0922656
0.0923086
0.0923734
0.0924626
0.0925774
0.0927242
0.0929089
0.0931326
0.0933882
0.0936608
0.0939309
0.094178
0.0943832
0.0945345
0.0946306
0.0946802
0.094698
0.0947002
0.0921278
0.0921243
0.0921178
0.0921097
0.0921026
0.092099
0.0921012
0.0921102
0.0921263
0.092149
0.0921778
0.092213
0.0922552
0.0923057
0.0923672
0.092445
0.0925408
0.0926477
0.0927656
0.092902
0.0930647
0.0932584
0.0934811
0.0937234
0.0939707
0.0942059
0.094411
0.0945711
0.0946789
0.0947381
0.0947612
0.0947649
0.0922299
0.0922229
0.09221
0.0921937
0.0921776
0.0921657
0.0921616
0.092168
0.0921863
0.0922166
0.0922587
0.0923127
0.0923785
0.092456
0.092546
0.0926515
0.0927681
0.0928841
0.0929989
0.0931216
0.0932606
0.0934226
0.0936093
0.0938163
0.0940339
0.0942485
0.0944446
0.0946062
0.0947218
0.0947895
0.0948181
0.0948235
0.0923872
0.0923763
0.0923576
0.0923355
0.0923151
0.0923008
0.0922967
0.0923069
0.0923334
0.0923764
0.0924352
0.0925087
0.0925954
0.0926936
0.0928024
0.0929228
0.0930474
0.0931625
0.0932684
0.0933743
0.0934891
0.0936198
0.0937702
0.0939395
0.0941223
0.0943094
0.0944881
0.0946433
0.0947613
0.0948352
0.094869
0.0948765
0.0926031
0.0925886
0.0925672
0.0925464
0.0925313
0.0925251
0.0925306
0.0925516
0.0925903
0.0926464
0.0927187
0.092805
0.0929029
0.0930098
0.0931237
0.0932447
0.0933644
0.0934699
0.093562
0.0936497
0.093741
0.0938425
0.0939586
0.0940905
0.0942364
0.0943909
0.0945451
0.0946862
0.0948001
0.0948764
0.0949143
0.0949239
0.0928796
0.0928629
0.0928457
0.0928369
0.0928388
0.0928508
0.092873
0.0929078
0.092957
0.0930204
0.093097
0.0931847
0.0932809
0.0933829
0.0934885
0.0935975
0.0937021
0.0937915
0.0938669
0.093936
0.0940056
0.094081
0.0941665
0.094264
0.0943738
0.0944934
0.0946179
0.0947379
0.0948409
0.0949147
0.0949546
0.0949662
0.0932207
0.0932058
0.0932026
0.093216
0.0932416
0.0932743
0.0933121
0.0933564
0.0934085
0.0934696
0.0935395
0.0936167
0.0936993
0.0937851
0.0938723
0.0939605
0.0940436
0.0941132
0.0941706
0.0942217
0.0942718
0.0943248
0.0943842
0.0944519
0.0945289
0.0946147
0.0947071
0.0948007
0.0948861
0.0949519
0.0949905
0.0950033
0.0936359
0.0936304
0.0936502
0.0936866
0.0937294
0.0937733
0.0938162
0.0938595
0.0939048
0.0939541
0.0940081
0.0940662
0.0941274
0.0941901
0.094253
0.094316
0.0943745
0.0944231
0.0944625
0.0944969
0.0945299
0.0945642
0.0946021
0.0946451
0.0946942
0.0947496
0.0948108
0.0948754
0.0949379
0.0949898
0.0950231
0.0950356
0.0941431
0.0941556
0.094192
0.0942329
0.094273
0.0943101
0.0943435
0.0943744
0.0944045
0.0944355
0.0944685
0.0945034
0.0945397
0.0945767
0.0946137
0.0946503
0.0946842
0.0947121
0.0947346
0.0947541
0.0947724
0.0947912
0.0948116
0.0948348
0.0948611
0.094891
0.0949245
0.0949608
0.0949976
0.0950304
0.0950535
0.0950634
0.0947637
0.0947734
0.094792
0.0948099
0.0948261
0.0948406
0.0948532
0.0948643
0.0948747
0.0948851
0.094896
0.0949074
0.0949192
0.0949313
0.0949432
0.0949551
0.094966
0.0949749
0.0949821
0.0949883
0.0949941
0.095
0.0950063
0.0950135
0.0950216
0.0950308
0.0950411
0.0950524
0.0950642
0.0950752
0.0950835
0.0950875
)
;

boundaryField
{
    movingWall
    {
        type            fixedValue;
        value           uniform 0.0951;
    }
    fixedWalls
    {
        type            zeroGradient;
    }
    floor
    {
        type            zeroGradient;
    }
    frontAndBack
    {
        type            empty;
    }
}


// ************************************************************************* //
