/*--------------------------------*- C++ -*----------------------------------*\
| =========                 |                                                 |
| \\      /  F ield         | OpenFOAM: The Open Source CFD Toolbox           |
|  \\    /   O peration     | Version:  2206                                  |
|   \\  /    A nd           | Website:  www.openfoam.com                      |
|    \\/     M anipulation  |                                                 |
\*---------------------------------------------------------------------------*/
FoamFile
{
    version     2.0;
    format      ascii;
    arch        "LSB;label=64;scalar=64";
    class       volVectorField;
    location    "86400";
    object      U;
}
// * * * * * * * * * * * * * * * * * * * * * * * * * * * * * * * * * * * * * //

dimensions      [0 1 -1 0 0 0 0];

internalField   nonuniform List<vector> 
16
(
(-3.28618e-10 -1.86839e-08 0)
(5.59632e-08 -1.55254e-08 0)
(1.0588e-07 -1.49603e-09 0)
(4.18221e-08 3.49061e-08 0)
(-2.1081e-08 -3.67228e-08 0)
(3.36672e-08 -8.95792e-08 0)
(7.28414e-08 1.28535e-08 0)
(8.88899e-09 1.13629e-07 0)
(3.9078e-09 -3.27233e-08 0)
(-2.59344e-08 -1.09056e-07 0)
(-5.66455e-08 2.54794e-08 0)
(-2.23977e-08 1.15141e-07 0)
(1.77405e-08 -1.31264e-08 0)
(-6.49041e-08 -3.15393e-08 0)
(-1.19852e-07 1.10808e-08 0)
(-3.00581e-08 3.50946e-08 0)
)
;

boundaryField
{
    movingWall
    {
        type            noSlip;
    }
    fixedWalls
    {
        type            noSlip;
    }
    frontAndBack
    {
        type            empty;
    }
}


// ************************************************************************* //
