/*--------------------------------*- C++ -*----------------------------------*\
| =========                 |                                                 |
| \\      /  F ield         | OpenFOAM: The Open Source CFD Toolbox           |
|  \\    /   O peration     | Version:  2206                                  |
|   \\  /    A nd           | Website:  www.openfoam.com                      |
|    \\/     M anipulation  |                                                 |
\*---------------------------------------------------------------------------*/
FoamFile
{
    version     2.0;
    format      ascii;
    arch        "LSB;label=64;scalar=64";
    class       surfaceScalarField;
    location    "428400";
    object      phi;
}
// * * * * * * * * * * * * * * * * * * * * * * * * * * * * * * * * * * * * * //

dimensions      [0 3 -1 0 0 0 0];

oriented        oriented;

internalField   nonuniform List<scalar> 
24
(
3.45625e-10
-3.45625e-10
6.81401e-10
-3.35776e-10
4.23615e-10
2.57787e-10
4.23615e-10
1.7457e-10
-5.20195e-10
3.13837e-10
-4.75042e-10
2.10709e-10
3.60915e-10
6.34323e-10
-2.06178e-10
-3.14017e-10
-4.12846e-10
-2.68375e-10
-2.42474e-10
1.90543e-10
3.91849e-10
-3.14017e-10
-5.82392e-10
-3.91849e-10
)
;

boundaryField
{
    movingWall
    {
        type            calculated;
        value           uniform 0;
    }
    fixedWalls
    {
        type            calculated;
        value           uniform 0;
    }
    frontAndBack
    {
        type            empty;
        value           nonuniform List<scalar> 0();
    }
}


// ************************************************************************* //
