/*--------------------------------*- C++ -*----------------------------------*\
| =========                 |                                                 |
| \\      /  F ield         | OpenFOAM: The Open Source CFD Toolbox           |
|  \\    /   O peration     | Version:  2206                                  |
|   \\  /    A nd           | Website:  www.openfoam.com                      |
|    \\/     M anipulation  |                                                 |
\*---------------------------------------------------------------------------*/
FoamFile
{
    version     2.0;
    format      ascii;
    arch        "LSB;label=64;scalar=64";
    class       volScalarField;
    location    "0.02";
    object      f_Bilger;
}
// * * * * * * * * * * * * * * * * * * * * * * * * * * * * * * * * * * * * * //

dimensions      [0 0 0 0 0 0 0];

internalField   nonuniform List<scalar> 
4000
(
0.995383
0.979438
0.955831
0.923025
0.88046
0.828724
0.769455
0.705043
0.638194
0.571494
0.507531
0.447899
0.393487
0.344698
0.301564
0.26386
0.231202
0.203123
0.179123
0.15871
0.141417
0.126818
0.114532
0.104221
0.0955902
0.0883839
0.082382
0.0773954
0.0732624
0.0698453
0.0670269
0.0647078
0.0628041
0.0612449
0.0599706
0.0589313
0.0580853
0.0573979
0.0568403
0.0563886
0.0560231
0.0557277
0.0554889
0.0552959
0.0551397
0.0550129
0.0549096
0.0548248
0.0547545
0.0546954
0.0546446
0.0545996
0.0545583
0.0545188
0.0544793
0.0544379
0.0543929
0.0543424
0.0542843
0.0542167
0.0541364
0.0540408
0.0539267
0.0537903
0.0536276
0.0534337
0.0532035
0.052933
0.0526118
0.052235
0.0517966
0.051289
0.0506978
0.0500132
0.0492246
0.0483207
0.0472896
0.0461195
0.0447986
0.0433158
0.0416612
0.0398268
0.0378057
0.0355955
0.0331973
0.0306182
0.0278715
0.0249785
0.0219699
0.0188875
0.015786
0.0127344
0.00986235
0.00727458
0.00505523
0.00326196
0.00191273
0.000980506
0.000398414
7.43409e-05
0.995926
0.981913
0.961272
0.93261
0.89521
0.849188
0.795502
0.735852
0.672427
0.607568
0.544029
0.483537
0.427305
0.37606
0.330122
0.289492
0.253948
0.223129
0.196597
0.173889
0.154546
0.138136
0.12426
0.112564
0.10273
0.0944826
0.0875825
0.0818225
0.077025
0.0730377
0.0697309
0.0669942
0.0647339
0.0628709
0.0613381
0.0600793
0.0590473
0.0582025
0.0575119
0.0569481
0.0564883
0.0561135
0.0558081
0.0555592
0.0553561
0.0551899
0.0550535
0.0549408
0.0548469
0.0547676
0.0546995
0.0546393
0.0545844
0.0545325
0.0544814
0.0544289
0.0543729
0.0543112
0.0542415
0.0541614
0.0540675
0.0539571
0.0538265
0.0536719
0.0534888
0.0532717
0.0530168
0.05272
0.0523719
0.051968
0.0514939
0.0509392
0.0502988
0.0495615
0.048716
0.0477505
0.0466532
0.0454122
0.044016
0.0424541
0.040718
0.0388004
0.0366971
0.0344074
0.0319323
0.0292862
0.0264864
0.0235602
0.0205445
0.0174875
0.0144501
0.0115068
0.00878662
0.00638914
0.00438169
0.00279741
0.00162906
0.000832704
0.000338335
6.31115e-05
0.996324
0.983673
0.965045
0.939198
0.905452
0.863807
0.814947
0.760159
0.701162
0.63992
0.578882
0.51968
0.463588
0.411503
0.363962
0.321194
0.283186
0.249748
0.220578
0.195306
0.173538
0.154877
0.138945
0.125389
0.11389
0.104162
0.0959525
0.0890405
0.0832335
0.0783647
0.0742908
0.0708883
0.0680519
0.0656915
0.0637307
0.0621043
0.0607574
0.0596436
0.0587236
0.0579646
0.057339
0.0568237
0.0563993
0.0560498
0.0557616
0.0555235
0.0553262
0.0551619
0.0550239
0.0549069
0.0548062
0.0547173
0.0546369
0.0545618
0.0544891
0.0544159
0.0543396
0.0542575
0.0541671
0.0540645
0.0539468
0.0538106
0.0536519
0.0534661
0.0532508
0.0530023
0.0527125
0.0523726
0.0519748
0.0515095
0.0509719
0.0503525
0.0496417
0.0488289
0.0479031
0.0468533
0.045668
0.044336
0.0428483
0.0411965
0.0393747
0.0373797
0.0352127
0.0328751
0.0303757
0.0277171
0.0249292
0.0220434
0.0191004
0.016151
0.0132563
0.0104868
0.00795789
0.00575559
0.00392955
0.00249941
0.00145085
0.000739348
0.000299318
5.55704e-05
0.99659
0.984844
0.967552
0.94358
0.912298
0.873682
0.828297
0.777224
0.721904
0.664084
0.605871
0.548733
0.493875
0.442207
0.394347
0.350649
0.311239
0.276069
0.244962
0.217655
0.193835
0.173169
0.155319
0.139963
0.126796
0.11554
0.105943
0.0977812
0.0908545
0.0849885
0.0800304
0.0758476
0.072325
0.0693636
0.0668779
0.0647947
0.0630515
0.0615948
0.060379
0.0593654
0.0585212
0.0578186
0.057234
0.0567476
0.0563426
0.0560048
0.0557225
0.0554853
0.0552849
0.0551138
0.0549664
0.0548363
0.0547191
0.0546106
0.054507
0.0544045
0.0542998
0.05419
0.0540706
0.0539383
0.0537893
0.0536198
0.0534278
0.0532067
0.0529524
0.0526566
0.0523119
0.0519142
0.0514557
0.0509285
0.050324
0.0496335
0.0488475
0.047956
0.0469491
0.0458169
0.04455
0.0431401
0.0415795
0.0398621
0.0379844
0.0359458
0.0337501
0.031405
0.0289219
0.026313
0.0235847
0.0207812
0.0179448
0.0151237
0.0123749
0.00976246
0.00738866
0.00533091
0.00363145
0.00230499
0.00133536
0.000679139
0.00027427
5.07392e-05
0.996748
0.985547
0.969071
0.946269
0.916569
0.879965
0.836986
0.788609
0.736114
0.681133
0.625482
0.570479
0.517224
0.466579
0.419169
0.375389
0.335442
0.299365
0.267074
0.23839
0.213077
0.190863
0.171463
0.154591
0.13997
0.127341
0.116463
0.107117
0.0991061
0.0922544
0.0864059
0.081423
0.0771853
0.0735874
0.0705375
0.0679561
0.0657746
0.0639338
0.0623824
0.0610764
0.059978
0.0590551
0.0582799
0.0576289
0.057082
0.056622
0.0562342
0.0559061
0.0556268
0.0553873
0.0551801
0.0549978
0.0548334
0.0546822
0.0545393
0.0543999
0.0542601
0.0541159
0.0539615
0.053795
0.0536102
0.0534043
0.0531723
0.0529071
0.0526028
0.052255
0.0518572
0.0514026
0.0508839
0.0502931
0.0496221
0.0488626
0.0480059
0.0470431
0.0459653
0.0447639
0.0434306
0.0419586
0.0403429
0.0385797
0.036668
0.0346096
0.0324106
0.0300814
0.0276375
0.025094
0.0224611
0.0197539
0.0170292
0.0143329
0.0117173
0.00924069
0.00699334
0.00504742
0.00344034
0.00218503
0.00126645
0.000644123
0.00025995
4.80136e-05
0.996844
0.985976
0.970012
0.947963
0.91931
0.884073
0.842775
0.79634
0.745956
0.693196
0.63966
0.586545
0.534858
0.485401
0.438767
0.395358
0.355402
0.318987
0.286079
0.256563
0.230259
0.206947
0.186389
0.168335
0.152539
0.138766
0.126791
0.116406
0.107424
0.0996706
0.0929922
0.0872515
0.0823251
0.078104
0.0744928
0.0714079
0.068776
0.0665335
0.0646263
0.0630067
0.0616333
0.0604697
0.0594847
0.0586512
0.0579456
0.0573478
0.0568404
0.0564083
0.0560385
0.0557198
0.0554429
0.0551991
0.0549792
0.0547777
0.0545886
0.0544065
0.0542268
0.0540424
0.0538495
0.0536433
0.0534194
0.0531716
0.0528943
0.0525829
0.0522315
0.0518338
0.0513836
0.0508742
0.0502985
0.0496493
0.0489186
0.0480986
0.0471811
0.0461583
0.0450225
0.0437665
0.042384
0.0408698
0.0392206
0.0374345
0.0355113
0.0334542
0.0312696
0.0289686
0.0265667
0.0240827
0.0215351
0.0189305
0.0163027
0.0137132
0.0112093
0.00884391
0.00669734
0.0048387
0.00330213
0.00209984
0.00121855
0.000620242
0.000250272
4.61485e-05
0.996903
0.986241
0.970604
0.949055
0.921118
0.886844
0.846759
0.80176
0.752975
0.701947
0.650115
0.598583
0.548286
0.499966
0.454184
0.411328
0.371632
0.335202
0.302041
0.272067
0.245143
0.221088
0.199699
0.180762
0.164057
0.149371
0.136498
0.125245
0.115434
0.106897
0.0994793
0.0930429
0.0874679
0.0826502
0.0784952
0.0749179
0.0718414
0.0692072
0.0669527
0.065025
0.0633787
0.0619741
0.0607766
0.0597559
0.0588858
0.0581437
0.0575095
0.0569663
0.0564988
0.0560941
0.0557413
0.0554304
0.0551503
0.0548944
0.0546556
0.0544264
0.0542021
0.0539746
0.0537397
0.0534921
0.0532254
0.0529347
0.0526143
0.0522585
0.0518613
0.0514169
0.0509187
0.0503603
0.0497348
0.0490352
0.0482542
0.0473847
0.0464195
0.0453519
0.0441753
0.042884
0.0414737
0.0399421
0.0382787
0.0364857
0.0345639
0.0325175
0.0303539
0.0280847
0.0257258
0.023296
0.0208086
0.0182791
0.0157297
0.013226
0.0108122
0.00853634
0.00647051
0.00468093
0.0031994
0.00203795
0.00118347
0.000601577
0.000242092
4.44901e-05
0.996942
0.986422
0.971013
0.949824
0.922415
0.888864
0.8497
0.805802
0.758258
0.708593
0.658122
0.607886
0.558761
0.511444
0.466462
0.424187
0.38485
0.348564
0.315349
0.285148
0.257848
0.2333
0.211328
0.191742
0.174347
0.158952
0.145364
0.133398
0.122873
0.113637
0.105551
0.0984858
0.0923413
0.0870043
0.0823755
0.0783679
0.0749059
0.0719131
0.0693312
0.0671077
0.065195
0.0635516
0.0621408
0.0609303
0.0598919
0.0590006
0.0582346
0.0575748
0.0570041
0.0565078
0.0560734
0.0556901
0.0553445
0.0550308
0.0547374
0.05446
0.0541879
0.0539161
0.0536384
0.0533486
0.0530406
0.052709
0.0523478
0.051951
0.0515127
0.0510266
0.0504867
0.049887
0.0492193
0.0484772
0.047654
0.0467429
0.0457375
0.0446314
0.0434185
0.0420929
0.0406489
0.0390806
0.0373922
0.0355819
0.0336537
0.0316126
0.0294671
0.0272294
0.0249169
0.0225527
0.020162
0.0177381
0.0152844
0.0128583
0.0105174
0.00830896
0.00630257
0.00456146
0.00311761
0.00198403
0.00115108
0.000585734
0.000235992
4.3368e-05
0.996973
0.986561
0.97133
0.950425
0.923437
0.890463
0.852036
0.80902
0.762469
0.713895
0.66452
0.615337
0.567178
0.520705
0.476421
0.434681
0.395709
0.359623
0.32645
0.296148
0.268623
0.243746
0.221361
0.2013
0.183385
0.167428
0.153237
0.140653
0.129524
0.119727
0.111119
0.103574
0.0969591
0.0911716
0.0861177
0.0817125
0.0778793
0.0745489
0.0716597
0.069157
0.0669918
0.0651209
0.0635057
0.0621122
0.0609102
0.059873
0.058977
0.0582015
0.0575279
0.0569398
0.0564233
0.0559669
0.0555571
0.0551815
0.054833
0.0545056
0.0541862
0.05387
0.05355
0.0532198
0.0528729
0.0525027
0.052103
0.0516676
0.0511902
0.0506644
0.0500836
0.0494407
0.0487308
0.0479472
0.0470835
0.0461334
0.0450909
0.0439502
0.0427061
0.0413538
0.0398895
0.0383104
0.0366156
0.0348055
0.0328847
0.0308588
0.0287365
0.0265299
0.0242552
0.0219337
0.0195885
0.0172291
0.0148506
0.0124936
0.010223
0.00808103
0.0061337
0.00444416
0.00304236
0.00194042
0.00112851
0.000575052
0.000231865
4.2617e-05
0.997
0.98668
0.971601
0.950938
0.924305
0.891814
0.854
0.811713
0.765977
0.718291
0.669807
0.621481
0.574112
0.528336
0.484636
0.443355
0.404714
0.368828
0.335731
0.305392
0.277729
0.252626
0.229945
0.209522
0.191178
0.174745
0.160075
0.147041
0.135489
0.125252
0.116201
0.108215
0.101181
0.0949981
0.0895717
0.0848177
0.0806598
0.0770291
0.0738637
0.0711079
0.0687121
0.0666316
0.0648267
0.063262
0.061906
0.0607305
0.0597106
0.058824
0.058051
0.0573739
0.0567775
0.0562496
0.0557751
0.0553403
0.054938
0.0545612
0.0541954
0.0538357
0.0534745
0.0531045
0.052719
0.0523112
0.0518745
0.0514025
0.0508889
0.0503271
0.0497109
0.049034
0.0482902
0.0474734
0.0465775
0.0455969
0.0445259
0.0433594
0.0420928
0.0407222
0.0392444
0.0376575
0.0359607
0.0341549
0.0322443
0.0302353
0.0281365
0.0259596
0.02372
0.0214386
0.0191391
0.0168338
0.0145164
0.0122143
0.00999804
0.00790878
0.00600856
0.00435837
0.00298731
0.00190771
0.00111075
0.000566495
0.000228517
4.19981e-05
0.997024
0.98679
0.971846
0.951395
0.925071
0.892996
0.855704
0.814029
0.768971
0.722016
0.674261
0.626634
0.579907
0.5347
0.49148
0.450581
0.41222
0.376512
0.343497
0.313148
0.285395
0.26013
0.237215
0.216486
0.197803
0.181046
0.166061
0.152669
0.140732
0.130114
0.120689
0.112339
0.104954
0.0984344
0.0926894
0.0876351
0.0831958
0.079303
0.0758946
0.0729148
0.0703131
0.0680444
0.0660681
0.0643476
0.0628505
0.0615476
0.0604128
0.0594228
0.0585567
0.057796
0.0571242
0.0565291
0.0559908
0.0555002
0.0550466
0.054623
0.0542134
0.0538126
0.0534126
0.0530057
0.0525847
0.0521426
0.0516725
0.051168
0.0506224
0.0500294
0.0493828
0.0486763
0.0479038
0.0470595
0.0461377
0.0451328
0.0440398
0.0428539
0.041571
0.0401877
0.0387013
0.0371103
0.0354143
0.0336145
0.0317148
0.0297222
0.0276449
0.0254946
0.0232862
0.0210395
0.0187793
0.0165182
0.0142502
0.0119932
0.00982072
0.0077727
0.00590947
0.0042902
0.0029434
0.0018815
0.00109648
0.000559613
0.000225827
4.15e-05
0.997047
0.986889
0.972067
0.951803
0.925749
0.894034
0.857188
0.816031
0.771541
0.72519
0.678034
0.630977
0.584774
0.540027
0.497197
0.456609
0.418477
0.382919
0.349976
0.319627
0.291808
0.266405
0.243282
0.222351
0.203467
0.186458
0.17118
0.157487
0.145242
0.134316
0.124584
0.115934
0.108257
0.101458
0.0954445
0.090136
0.0854571
0.0813395
0.0777216
0.0745473
0.071766
0.069332
0.0672041
0.0653452
0.063722
0.0623045
0.0610658
0.0599818
0.0590307
0.0581931
0.0574523
0.0567947
0.0561993
0.0556566
0.0551552
0.0546881
0.0542379
0.0537993
0.0533638
0.0529232
0.0524702
0.0519973
0.0514976
0.0509645
0.0503912
0.0497714
0.0490989
0.0483675
0.0475713
0.0467045
0.0457616
0.0447376
0.0436274
0.0424268
0.041132
0.0397399
0.0382481
0.0366554
0.0349618
0.0331685
0.0312793
0.0293015
0.0272433
0.025116
0.022934
0.0207167
0.0184881
0.0162642
0.0140355
0.0118158
0.00967826
0.00766308
0.00582954
0.00423517
0.00290795
0.00186037
0.001085
0.000554106
0.000223686
4.11057e-05
0.997068
0.986978
0.972263
0.952162
0.92634
0.894932
0.858463
0.81774
0.773722
0.727871
0.681206
0.634614
0.588835
0.544462
0.501945
0.461607
0.423661
0.388225
0.355342
0.324998
0.29712
0.271608
0.248388
0.227305
0.208222
0.190997
0.175487
0.161554
0.149063
0.137887
0.127907
0.119012
0.111097
0.104066
0.0978304
0.09231
0.0874303
0.0831235
0.0793281
0.0759882
0.0730531
0.0704768
0.0682178
0.0662386
0.0645052
0.0629872
0.0616569
0.0604895
0.0594627
0.0585563
0.0577537
0.0570392
0.0563951
0.0558047
0.0552599
0.0547535
0.0542666
0.0537939
0.0533265
0.0528559
0.0523745
0.0518746
0.0513491
0.0507913
0.0501943
0.0495518
0.0488575
0.0481054
0.0472896
0.0464046
0.045445
0.0444058
0.0432824
0.0420706
0.040767
0.0393687
0.0378737
0.0362808
0.0345901
0.0328032
0.0309237
0.0289588
0.026917
0.024809
0.0226493
0.0204563
0.0182539
0.0160596
0.0138627
0.0116729
0.00956354
0.00757477
0.0057652
0.00419091
0.00287947
0.00184342
0.00107584
0.000549736
0.000222
4.07977e-05
0.997086
0.987056
0.972432
0.95247
0.926845
0.895694
0.859539
0.819174
0.775546
0.730101
0.683835
0.637619
0.592183
0.548109
0.505844
0.465707
0.427909
0.39257
0.359736
0.32939
0.301464
0.275904
0.252582
0.231372
0.212139
0.194746
0.179055
0.164931
0.152244
0.140869
0.130691
0.121598
0.11349
0.106271
0.0998542
0.09416
0.0891148
0.0846514
0.0807085
0.0772303
0.0741662
0.0714701
0.0691002
0.0670186
0.0651912
0.0635869
0.0621777
0.0609383
0.0598458
0.0588795
0.0580235
0.0572597
0.0565711
0.0559395
0.0553567
0.0548158
0.0542967
0.0537941
0.0532988
0.0528022
0.0522961
0.051773
0.0512255
0.0506466
0.0500297
0.0493682
0.0486559
0.0478868
0.0470552
0.0461555
0.0451825
0.0441314
0.0429978
0.0417776
0.0404676
0.039065
0.037568
0.0359757
0.0342882
0.0325071
0.030636
0.0286823
0.0266542
0.0245624
0.0224209
0.0202479
0.0180669
0.0158963
0.0137248
0.0115588
0.00947202
0.00750434
0.00571398
0.00415573
0.00285691
0.00183009
0.0010687
0.000546363
0.000220711
4.05638e-05
0.997101
0.98712
0.972572
0.952724
0.927259
0.896317
0.860417
0.820341
0.777031
0.731912
0.685966
0.640051
0.594888
0.551053
0.508988
0.469009
0.431329
0.396067
0.36327
0.33292
0.304987
0.279373
0.255972
0.234661
0.215312
0.197788
0.181956
0.167683
0.154841
0.14331
0.132974
0.123725
0.115462
0.108093
0.101532
0.0956976
0.0905188
0.0859283
0.0818653
0.0782741
0.0751042
0.0723093
0.0698477
0.0676813
0.0657755
0.0640991
0.0626237
0.0613236
0.0601757
0.0591587
0.0582575
0.0574517
0.0567249
0.056058
0.0554429
0.0548725
0.0543259
0.0537979
0.0532789
0.0527601
0.0522332
0.0516906
0.0511246
0.0505283
0.0498949
0.0492178
0.0484909
0.0477081
0.0468638
0.0459524
0.0449689
0.0439086
0.0427671
0.0415406
0.0402259
0.0388204
0.0373224
0.035731
0.0340465
0.0322706
0.0304067
0.0284623
0.0264455
0.0243669
0.0222403
0.0200835
0.0179196
0.0157676
0.013616
0.0114695
0.00940029
0.00744917
0.00567396
0.0041284
0.00283954
0.00181991
0.00106326
0.000543808
0.000219744
4.03906e-05
0.997113
0.987172
0.972683
0.952926
0.927587
0.896811
0.861111
0.821263
0.778202
0.733339
0.687643
0.641965
0.597016
0.553368
0.511459
0.471605
0.434018
0.398818
0.366053
0.335717
0.307763
0.282107
0.258646
0.237259
0.21782
0.200197
0.184256
0.169868
0.156908
0.145256
0.134798
0.125428
0.117045
0.109559
0.102883
0.0969394
0.0916552
0.0869643
0.082806
0.0791249
0.0758704
0.0729965
0.0704612
0.0682263
0.0662571
0.0645222
0.062993
0.0616435
0.0604502
0.0593917
0.0584538
0.0576125
0.0568543
0.0561583
0.0555164
0.0549218
0.0543525
0.0538034
0.0532649
0.0527279
0.0521841
0.0516254
0.0510444
0.050434
0.0497873
0.0490978
0.0483592
0.0475656
0.0467112
0.0457908
0.0447992
0.0437318
0.0425844
0.0413533
0.0400352
0.0386277
0.0371292
0.0355389
0.0338571
0.0320856
0.0302276
0.0282907
0.026283
0.024215
0.0221002
0.0199562
0.0178059
0.0156683
0.0135319
0.0114011
0.00934538
0.00740703
0.00564355
0.00410778
0.00282651
0.00181236
0.00105936
0.000542015
0.000219069
4.02695e-05
0.997122
0.987211
0.972768
0.953078
0.927835
0.897184
0.861635
0.821959
0.779087
0.734418
0.688912
0.643413
0.598626
0.55512
0.513331
0.473573
0.436056
0.400903
0.368163
0.337838
0.309872
0.284187
0.260682
0.239239
0.219734
0.202037
0.186016
0.171543
0.158494
0.146752
0.136202
0.12674
0.118268
0.110693
0.103931
0.0979038
0.0925393
0.0877717
0.0835405
0.0797905
0.076471
0.0735361
0.0709438
0.0686558
0.0666375
0.064857
0.0632858
0.0618976
0.0606687
0.0595777
0.0586102
0.0577414
0.0569584
0.0562393
0.0555763
0.0549624
0.0543751
0.0538094
0.0532555
0.0527041
0.0521468
0.0515756
0.0509829
0.0503615
0.0497044
0.0490053
0.0482578
0.0474559
0.0465939
0.0456666
0.044669
0.0435964
0.0424446
0.04121
0.0398896
0.0384808
0.0369821
0.0353929
0.0337134
0.0319453
0.030092
0.0281611
0.0261604
0.0241005
0.0219949
0.0198607
0.0177207
0.0155941
0.0134692
0.0113502
0.00930462
0.00737587
0.00562121
0.00409279
0.00281722
0.00180699
0.00105644
0.000540649
0.000218565
4.0181e-05
0.997128
0.987238
0.972826
0.953183
0.928008
0.897444
0.862004
0.82245
0.779712
0.735182
0.689813
0.644443
0.599773
0.556371
0.514668
0.47498
0.437516
0.402399
0.369682
0.33936
0.311385
0.28568
0.262145
0.240664
0.221113
0.203363
0.187285
0.172753
0.159642
0.147835
0.13722
0.127694
0.119157
0.111519
0.104695
0.0986081
0.093186
0.0883632
0.0840794
0.0802795
0.0769129
0.0739337
0.0712999
0.0689733
0.0669189
0.0651051
0.063503
0.0620864
0.0608314
0.0597164
0.058727
0.0578378
0.0570364
0.0563003
0.0556215
0.0549934
0.0543927
0.0538147
0.0532493
0.0526873
0.0521201
0.0515396
0.0509383
0.0503088
0.0496442
0.048938
0.048184
0.0473761
0.0465087
0.0455765
0.0445745
0.0434982
0.0423434
0.0411065
0.0397844
0.0383748
0.0368761
0.0352877
0.03361
0.0318445
0.0299947
0.0280681
0.0260726
0.0240186
0.0219195
0.0197925
0.01766
0.0155413
0.0134246
0.011314
0.00927576
0.00735393
0.00560566
0.00408233
0.0028105
0.00180308
0.00105444
0.000539742
0.000218231
4.01233e-05
0.997132
0.987254
0.972861
0.953247
0.928113
0.897605
0.862232
0.822756
0.780105
0.735664
0.690383
0.645096
0.600503
0.557167
0.515521
0.475878
0.438449
0.403357
0.370654
0.340336
0.312357
0.28664
0.263086
0.241581
0.222001
0.204219
0.188106
0.173535
0.160384
0.148536
0.137881
0.128312
0.119734
0.112056
0.105193
0.0990671
0.0936079
0.0887495
0.0844318
0.0805995
0.0772024
0.0741945
0.0715338
0.0691819
0.0671041
0.0652685
0.0636462
0.0622109
0.0609387
0.0598081
0.0588043
0.0579018
0.0570882
0.0563408
0.0556517
0.0550141
0.0544047
0.0538185
0.0532455
0.0526765
0.0521028
0.0515162
0.0509092
0.0502744
0.0496049
0.0488942
0.0481359
0.0473241
0.0464532
0.0455178
0.044513
0.0434343
0.0422776
0.0410392
0.0397161
0.038306
0.0368074
0.0352196
0.033543
0.0317793
0.0299318
0.028008
0.0260159
0.0239658
0.021871
0.0197485
0.017621
0.0155073
0.0133959
0.0112907
0.00925719
0.00733977
0.00559544
0.00407537
0.00280618
0.00180061
0.00105317
0.000539167
0.000218022
4.00873e-05
0.997134
0.987261
0.972876
0.953275
0.928159
0.897676
0.862334
0.822894
0.780285
0.735887
0.690649
0.645403
0.600847
0.557544
0.515925
0.476306
0.438894
0.403815
0.371119
0.340804
0.312823
0.287102
0.26354
0.242024
0.22243
0.204633
0.188502
0.173914
0.160744
0.148877
0.138201
0.128613
0.120016
0.112318
0.105435
0.0992911
0.093814
0.0889384
0.0846041
0.0807562
0.0773443
0.0743224
0.0716485
0.0692844
0.0671951
0.0653488
0.0637166
0.0622722
0.0609916
0.0598533
0.0588423
0.0579333
0.0571137
0.0563607
0.0556665
0.0550243
0.0544105
0.0538203
0.0532436
0.0526711
0.0520942
0.0515046
0.0508948
0.0502573
0.0495854
0.0488724
0.048112
0.0472983
0.0464257
0.0454888
0.0444826
0.0434028
0.0422451
0.041006
0.0396824
0.0382721
0.0367736
0.0351861
0.0335101
0.0317473
0.0299008
0.0279785
0.025988
0.0239398
0.0218471
0.0197269
0.0176017
0.0154905
0.0133816
0.011279
0.00924774
0.00733246
0.00559014
0.00407178
0.00280392
0.00179929
0.00105247
0.000538847
0.000217904
4.00665e-05
0.997133
0.987259
0.972872
0.953269
0.928151
0.897665
0.862321
0.822879
0.780268
0.73587
0.690632
0.645385
0.600829
0.557526
0.515908
0.476289
0.438878
0.403799
0.371104
0.340789
0.31281
0.287088
0.263527
0.242012
0.222419
0.204622
0.188493
0.173905
0.160736
0.148869
0.138194
0.128607
0.12001
0.112312
0.10543
0.0992865
0.0938099
0.0889346
0.0846008
0.0807532
0.0773416
0.07432
0.0716463
0.0692824
0.0671934
0.0653473
0.0637153
0.0622711
0.0609906
0.0598524
0.0588415
0.0579325
0.057113
0.0563601
0.055666
0.0550238
0.05441
0.0538199
0.0532432
0.0526707
0.0520938
0.0515042
0.0508944
0.0502569
0.049585
0.048872
0.0481116
0.0472979
0.0464252
0.0454883
0.0444822
0.0434023
0.0422446
0.0410054
0.0396819
0.0382716
0.036773
0.0351855
0.0335095
0.0317466
0.0299002
0.0279778
0.0259873
0.0239391
0.0218464
0.0197262
0.017601
0.0154898
0.0133809
0.0112782
0.00924705
0.00733181
0.00558958
0.00407132
0.00280356
0.00179905
0.00105232
0.000538766
0.00021787
4.00601e-05
0.997131
0.98725
0.972852
0.953233
0.928092
0.897577
0.862198
0.822717
0.780062
0.735619
0.690336
0.645048
0.600454
0.557118
0.515472
0.47583
0.438401
0.40331
0.37061
0.340294
0.312316
0.286602
0.26305
0.241547
0.221969
0.204189
0.188077
0.173508
0.160359
0.148513
0.137859
0.128293
0.119717
0.11204
0.105178
0.0990535
0.0935956
0.0887384
0.0844217
0.0805905
0.0771944
0.0741873
0.0715273
0.0691762
0.067099
0.065264
0.0636422
0.0622074
0.0609356
0.0598054
0.0588018
0.0578996
0.0570862
0.056339
0.0556501
0.0550126
0.0544033
0.0538172
0.0532443
0.0526754
0.0521017
0.0515151
0.0509081
0.0502733
0.0496037
0.048893
0.0481346
0.0473228
0.0464518
0.0455164
0.0445116
0.0434329
0.0422761
0.0410376
0.0397145
0.0383044
0.0368057
0.0352179
0.0335413
0.0317776
0.02993
0.0280062
0.026014
0.0239639
0.0218691
0.0197466
0.0176191
0.0155054
0.013394
0.0112888
0.00925538
0.00733808
0.00559398
0.00407424
0.00280533
0.00180002
0.0010528
0.000538969
0.000217939
4.00711e-05
0.997127
0.987233
0.972816
0.953167
0.927984
0.897412
0.861963
0.822401
0.779657
0.735121
0.689748
0.644374
0.599702
0.556298
0.514595
0.474906
0.437443
0.402327
0.369612
0.339292
0.31132
0.285618
0.262086
0.240608
0.22106
0.203313
0.187239
0.172709
0.159601
0.147797
0.137185
0.127662
0.119127
0.111492
0.10467
0.0985856
0.0931656
0.0883448
0.0840628
0.0802646
0.0768996
0.0739218
0.0712893
0.0689638
0.0669105
0.0650977
0.0634964
0.0620806
0.0608262
0.0597119
0.058723
0.0578343
0.0570332
0.0562974
0.055619
0.054991
0.0543906
0.0538127
0.0532473
0.0526854
0.0521183
0.0515378
0.0509364
0.0503069
0.0496423
0.0489361
0.048182
0.047374
0.0465065
0.0455743
0.0445722
0.0434958
0.0423409
0.0411039
0.0397818
0.0383721
0.0368734
0.035285
0.0336072
0.0318418
0.0299919
0.0280653
0.0260698
0.0240159
0.0219168
0.0197898
0.0176575
0.0155388
0.0134222
0.0113116
0.00927363
0.007352
0.00560398
0.00408086
0.00280943
0.00180235
0.00105399
0.000539505
0.000218132
4.01043e-05
0.997121
0.987207
0.97276
0.953064
0.927815
0.897155
0.861597
0.821911
0.779029
0.734352
0.688839
0.643333
0.598541
0.555031
0.513239
0.47348
0.435963
0.400811
0.368071
0.337748
0.309784
0.284102
0.260601
0.239163
0.219662
0.201968
0.185951
0.171482
0.158438
0.146699
0.136154
0.126696
0.118227
0.110655
0.103897
0.0978727
0.0925112
0.0877463
0.0835177
0.0797699
0.0764526
0.0735197
0.0709292
0.0686429
0.066626
0.0648468
0.0632768
0.0618896
0.0606617
0.0595715
0.0586047
0.0577366
0.0569541
0.0562355
0.0555728
0.0549592
0.0543722
0.0538066
0.0532528
0.0527015
0.0521443
0.0515731
0.0509804
0.0503589
0.0497018
0.0490026
0.048255
0.047453
0.0465909
0.0456635
0.0446658
0.0435931
0.0424412
0.0412065
0.039886
0.0384772
0.0369785
0.0353892
0.0337097
0.0319417
0.0300884
0.0281575
0.026157
0.0240972
0.0219916
0.0198576
0.0177179
0.0155915
0.0134668
0.0113479
0.00930274
0.00737436
0.00562007
0.00409202
0.00281648
0.00180642
0.00105611
0.000540475
0.000218487
4.01656e-05
0.997112
0.98717
0.972678
0.952917
0.927573
0.896789
0.861079
0.821221
0.778148
0.733274
0.687567
0.641879
0.596921
0.553266
0.511352
0.471495
0.433905
0.398704
0.365939
0.335605
0.307654
0.282001
0.258544
0.237162
0.217728
0.200109
0.184174
0.169792
0.156837
0.14519
0.134737
0.125371
0.116993
0.109512
0.10284
0.0969002
0.0916197
0.0869323
0.0827772
0.0790991
0.0758473
0.0729759
0.0704429
0.06821
0.0662428
0.0645095
0.0629818
0.0616336
0.0604415
0.059384
0.058447
0.0576065
0.056849
0.0561535
0.0555121
0.0549178
0.0543488
0.0538
0.0532616
0.0527247
0.0521809
0.0516222
0.0510412
0.0504307
0.049784
0.0490943
0.0483556
0.0475619
0.0467074
0.0457869
0.0447952
0.0437277
0.0425801
0.0413489
0.0400307
0.0386232
0.0371247
0.0355344
0.0338527
0.0320812
0.0302233
0.0282866
0.0262791
0.0242113
0.0220967
0.019953
0.017803
0.0156658
0.0135297
0.0113993
0.00934396
0.00740603
0.00564291
0.00410737
0.00282644
0.00181235
0.00105929
0.000541956
0.000219038
4.02618e-05
0.9971
0.987118
0.972567
0.952716
0.927245
0.896296
0.860386
0.820299
0.776975
0.731843
0.685884
0.639956
0.594782
0.550937
0.508864
0.468881
0.431197
0.395933
0.363136
0.332786
0.304856
0.279246
0.255849
0.234544
0.2152
0.197683
0.181857
0.16759
0.154755
0.14323
0.1329
0.123657
0.1154
0.108037
0.10148
0.0956509
0.0904765
0.0858902
0.0818311
0.0782435
0.0750769
0.072285
0.0698261
0.0676621
0.0657586
0.0640841
0.0626105
0.061312
0.0601654
0.0591496
0.0582496
0.0574447
0.0567187
0.0560523
0.0554377
0.0548678
0.0543215
0.0537937
0.0532749
0.0527563
0.0522295
0.0516868
0.0511208
0.0505244
0.0498909
0.0492137
0.0484867
0.0477037
0.0468592
0.0459477
0.044964
0.0439036
0.042762
0.0415354
0.0402206
0.038815
0.037317
0.0357257
0.0340413
0.0322656
0.0304018
0.0284576
0.0264411
0.0243628
0.0222365
0.0200801
0.0179167
0.0157651
0.0136139
0.0114678
0.0093991
0.0074484
0.00567345
0.00412812
0.00283937
0.00181985
0.00106325
0.000543805
0.000219737
4.03875e-05
0.997085
0.987053
0.972426
0.952459
0.926827
0.895667
0.859501
0.819123
0.77548
0.730019
0.683738
0.637507
0.592057
0.547972
0.505698
0.465554
0.427751
0.39241
0.359576
0.329231
0.301308
0.275753
0.252437
0.231233
0.212008
0.194622
0.178939
0.164823
0.152143
0.140776
0.130605
0.12152
0.113418
0.106205
0.099795
0.0941066
0.0890666
0.0846081
0.0806697
0.0771956
0.0741353
0.0714426
0.0690758
0.0669971
0.0651722
0.0635701
0.0621629
0.0609253
0.0598343
0.0588694
0.0580147
0.0572519
0.056564
0.055933
0.0553508
0.0548105
0.0542917
0.0537894
0.0532943
0.0527978
0.0522918
0.0517687
0.0512211
0.0506422
0.0500251
0.0493635
0.048651
0.0478818
0.0470499
0.04615
0.0451768
0.0441256
0.0429918
0.0417715
0.0404614
0.0390588
0.0375618
0.0359695
0.0342822
0.0325013
0.0306304
0.028677
0.0266492
0.0245578
0.0224167
0.0202442
0.0180637
0.0158935
0.0137225
0.011557
0.00947075
0.00750351
0.00571343
0.00415534
0.00285666
0.00182995
0.0010686
0.000546298
0.000220676
4.05556e-05
0.997067
0.986974
0.972254
0.952147
0.926317
0.894897
0.858415
0.817675
0.77364
0.727769
0.681086
0.634476
0.588682
0.544296
0.501769
0.461424
0.423473
0.388035
0.355154
0.324812
0.296938
0.271432
0.248219
0.227144
0.208071
0.190855
0.175355
0.161431
0.148949
0.137782
0.127811
0.118924
0.111017
0.103993
0.097765
0.0922511
0.0873772
0.0830759
0.0792856
0.0759503
0.0730194
0.0704469
0.0681914
0.0662152
0.0644846
0.0629691
0.061641
0.0604755
0.0594505
0.0585457
0.0577448
0.0570321
0.0563861
0.0557972
0.0552534
0.0547477
0.0542612
0.0537888
0.0533216
0.0528512
0.0523698
0.0518699
0.0513444
0.0507864
0.0501892
0.0495465
0.048852
0.0480997
0.0472837
0.0463984
0.0454386
0.0443991
0.0432755
0.0420637
0.04076
0.0393616
0.0378665
0.0362737
0.0345832
0.0327964
0.0309171
0.0289526
0.0269111
0.0248036
0.0226443
0.0204518
0.01825
0.0160563
0.0138599
0.0116706
0.00956185
0.00757358
0.00576435
0.00419031
0.00287903
0.00184312
0.00107564
0.000549614
0.00022194
4.07837e-05
0.997046
0.986883
0.972053
0.95178
0.925713
0.893983
0.857119
0.815941
0.771429
0.725057
0.677879
0.630803
0.584583
0.539823
0.496982
0.456387
0.418253
0.382695
0.349755
0.319412
0.2916
0.266204
0.243091
0.22217
0.203297
0.1863
0.171033
0.157351
0.145118
0.134202
0.12448
0.115839
0.108172
0.10138
0.0953746
0.0900731
0.0854007
0.0812892
0.0776767
0.0745074
0.0717305
0.0693006
0.0671763
0.0653207
0.0637005
0.0622856
0.0610492
0.0599672
0.059018
0.0581819
0.0574425
0.056786
0.0561913
0.0556494
0.0551486
0.0546821
0.0542324
0.0537941
0.0533587
0.0529183
0.0524652
0.0519923
0.0514925
0.0509592
0.0503858
0.0497658
0.0490929
0.0483613
0.0475647
0.0466977
0.0457545
0.0447302
0.0436198
0.042419
0.041124
0.0397318
0.0382399
0.0366473
0.0349537
0.0331606
0.0312717
0.0292942
0.0272363
0.0251094
0.022928
0.0207113
0.0184832
0.01626
0.0140318
0.0118127
0.00967589
0.00766131
0.00582822
0.0042342
0.00290726
0.00185989
0.00108469
0.000553921
0.000223597
4.10858e-05
0.997022
0.986781
0.971827
0.951363
0.925022
0.892927
0.855611
0.81391
0.768826
0.721843
0.674064
0.626414
0.57967
0.534449
0.491221
0.450317
0.411955
0.376251
0.343243
0.312903
0.28516
0.259908
0.237005
0.216288
0.197618
0.180875
0.165903
0.152525
0.1406
0.129994
0.12058
0.11224
0.104864
0.098354
0.0926171
0.0875704
0.083138
0.0792515
0.0758488
0.0728742
0.0702772
0.0680127
0.0660401
0.064323
0.0628289
0.0615286
0.0603962
0.0594082
0.0585439
0.0577847
0.0571143
0.0565203
0.0559829
0.0554931
0.0550401
0.054617
0.0542078
0.0538073
0.0534074
0.0530007
0.0525796
0.0521374
0.0516673
0.0511625
0.0506167
0.0500235
0.0493765
0.0486697
0.0478969
0.0470522
0.04613
0.0451248
0.0440314
0.0428452
0.0415621
0.0401786
0.0386921
0.037101
0.0354051
0.0336054
0.0317059
0.0297135
0.0276366
0.0254867
0.0232788
0.0210328
0.0187732
0.0165127
0.0142453
0.0119891
0.00981738
0.00777011
0.00590747
0.00428871
0.00294231
0.00188074
0.00109599
0.00055933
0.000225695
4.14716e-05
0.996997
0.986668
0.971576
0.950895
0.92424