/*--------------------------------*- C++ -*----------------------------------*\
| =========                 |                                                 |
| \\      /  F ield         | OpenFOAM: The Open Source CFD Toolbox           |
|  \\    /   O peration     | Version:  2212                                  |
|   \\  /    A nd           | Website:  www.openfoam.com                      |
|    \\/     M anipulation  |                                                 |
\*---------------------------------------------------------------------------*/
FoamFile
{
    version     2.0;
    format      ascii;
    arch        "LSB;label=64;scalar=64";
    class       volVectorField;
    location    "0.01";
    object      U;
}
// * * * * * * * * * * * * * * * * * * * * * * * * * * * * * * * * * * * * * //

dimensions      [0 1 -1 0 0 0 0];

internalField   nonuniform List<vector> 
32768
(
(3.17568e-05 -6.52402e-05 0)
(0.000102571 -7.12703e-05 0)
(0.000174817 -7.13633e-05 0)
(0.000247424 -7.11284e-05 0)
(0.000319732 -7.07838e-05 0)
(0.000391631 -7.03368e-05 0)
(0.000463024 -6.97894e-05 0)
(0.000533808 -6.91415e-05 0)
(0.000603881 -6.83918e-05 0)
(0.000673139 -6.75385e-05 0)
(0.000741475 -6.65792e-05 0)
(0.000808779 -6.55113e-05 0)
(0.000874941 -6.43317e-05 0)
(0.000939843 -6.30373e-05 0)
(0.00100337 -6.16249e-05 0)
(0.0010654 -6.0091e-05 0)
(0.0011258 -5.84321e-05 0)
(0.00118445 -5.66448e-05 0)
(0.00124121 -5.47256e-05 0)
(0.00129595 -5.26712e-05 0)
(0.00134853 -5.04784e-05 0)
(0.0013988 -4.8144e-05 0)
(0.00144662 -4.56657e-05 0)
(0.00149185 -4.30407e-05 0)
(0.00153433 -4.02674e-05 0)
(0.0015739 -3.73441e-05 0)
(0.00161042 -3.42701e-05 0)
(0.00164373 -3.1045e-05 0)
(0.00167368 -2.76695e-05 0)
(0.00170012 -2.41448e-05 0)
(0.00172288 -2.04733e-05 0)
(0.00174183 -1.6658e-05 0)
(0.00175682 -1.27034e-05 0)
(0.00176771 -8.61461e-06 0)
(0.00177437 -4.39829e-06 0)
(0.00177668 -6.13302e-08 0)
(0.00177452 4.38335e-06 0)
(0.00176775 8.9296e-06 0)
(0.00175629 1.3564e-05 0)
(0.00174008 1.82729e-05 0)
(0.00171903 2.30408e-05 0)
(0.00169309 2.78515e-05 0)
(0.00166224 3.26872e-05 0)
(0.00162645 3.75291e-05 0)
(0.00158573 4.23568e-05 0)
(0.00154011 4.71491e-05 0)
(0.00148963 5.18836e-05 0)
(0.00143435 5.65374e-05 0)
(0.00137439 6.10865e-05 0)
(0.00130985 6.55068e-05 0)
(0.00124088 6.97737e-05 0)
(0.00116765 7.38628e-05 0)
(0.00109035 7.77497e-05 0)
(0.0010092 8.14108e-05 0)
(0.000924437 8.48227e-05 0)
(0.000836337 8.79637e-05 0)
(0.000745181 9.08128e-05 0)
(0.000651277 9.33509e-05 0)
(0.000554951 9.55604e-05 0)
(0.000456547 9.74261e-05 0)
(0.000356421 9.89347e-05 0)
(0.000254943 0.000100075 0)
(0.000152495 0.00010084 0)
(4.94816e-05 0.000101222 0)
(-5.37977e-05 0.00010122 0)
(-0.000156796 0.000100833 0)
(-0.00025924 0.000100063 0)
(-0.000360709 9.89171e-05 0)
(-0.000460825 9.74031e-05 0)
(-0.000559215 9.5532e-05 0)
(-0.000655524 9.3317e-05 0)
(-0.000749408 9.07735e-05 0)
(-0.000840541 8.79191e-05 0)
(-0.000928614 8.47729e-05 0)
(-0.00101334 8.13558e-05 0)
(-0.00109446 7.76899e-05 0)
(-0.00117172 7.37984e-05 0)
(-0.00124492 6.9705e-05 0)
(-0.00131385 6.54342e-05 0)
(-0.00137834 6.10104e-05 0)
(-0.00143826 5.64582e-05 0)
(-0.00149348 5.18019e-05 0)
(-0.00154391 4.70653e-05 0)
(-0.00158948 4.22713e-05 0)
(-0.00163015 3.74426e-05 0)
(-0.00166588 3.26001e-05 0)
(-0.00169667 2.77643e-05 0)
(-0.00172255 2.29539e-05 0)
(-0.00174354 1.81869e-05 0)
(-0.0017597 1.34794e-05 0)
(-0.00177109 8.84712e-06 0)
(-0.0017778 4.30398e-06 0)
(-0.0017799 -1.3775e-07 0)
(-0.00177752 -4.47523e-06 0)
(-0.0017708 -8.69268e-06 0)
(-0.00175984 -1.27821e-05 0)
(-0.00174479 -1.67371e-05 0)
(-0.00172577 -2.05528e-05 0)
(-0.00170293 -2.42246e-05 0)
(-0.00167643 -2.77497e-05 0)
(-0.0016464 -3.11255e-05 0)
(-0.00161302 -3.43511e-05 0)
(-0.00157642 -3.74255e-05 0)
(-0.00153676 -4.03492e-05 0)
(-0.0014942 -4.31229e-05 0)
(-0.00144888 -4.57483e-05 0)
(-0.00140097 -4.8227e-05 0)
(-0.0013506 -5.05615e-05 0)
(-0.00129793 -5.27546e-05 0)
(-0.00124309 -5.48092e-05 0)
(-0.00118623 -5.67284e-05 0)
(-0.00112748 -5.85158e-05 0)
(-0.00106697 -6.01747e-05 0)
(-0.00100484 -6.17087e-05 0)
(-0.000941212 -6.31211e-05 0)
(-0.000876203 -6.44156e-05 0)
(-0.000809934 -6.55952e-05 0)
(-0.000742522 -6.66634e-05 0)
(-0.000674078 -6.76231e-05 0)
(-0.000604712 -6.84771e-05 0)
(-0.000534531 -6.92278e-05 0)
(-0.00046364 -6.98773e-05 0)
(-0.000392141 -7.04268e-05 0)
(-0.000320124 -7.08774e-05 0)
(-0.000247705 -7.12308e-05 0)
(-0.000175042 -7.14733e-05 0)
(-0.000102691 -7.13822e-05 0)
(-3.18414e-05 -6.53053e-05 0)
(3.14681e-05 -0.000199519 0)
(0.000105856 -0.000220541 0)
(0.000180198 -0.00022085 0)
(0.000255143 -0.000220084 0)
(0.000329767 -0.000218994 0)
(0.000403958 -0.000217605 0)
(0.000477624 -0.000215915 0)
(0.00055067 -0.000213919 0)
(0.000622992 -0.000211612 0)
(0.000694487 -0.000208987 0)
(0.000765046 -0.000206037 0)
(0.000834558 -0.000202752 0)
(0.00090291 -0.000199124 0)
(0.000969984 -0.000195141 0)
(0.00103566 -0.000190794 0)
(0.00109981 -0.000186072 0)
(0.00116231 -0.000180965 0)
(0.00122302 -0.00017546 0)
(0.00128181 -0.000169548 0)
(0.00133855 -0.000163217 0)
(0.00139307 -0.000156458 0)
(0.00144524 -0.00014926 0)
(0.00149491 -0.000141615 0)
(0.00154192 -0.000133515 0)
(0.00158612 -0.000124955 0)
(0.00162735 -0.000115929 0)
(0.00166544 -0.000106433 0)
(0.00170024 -9.64674e-05 0)
(0.00173159 -8.60331e-05 0)
(0.00175932 -7.5133e-05 0)
(0.00178328 -6.37748e-05 0)
(0.00180331 -5.1967e-05 0)
(0.00181926 -3.97236e-05 0)
(0.00183097 -2.70598e-05 0)
(0.00183832 -1.3997e-05 0)
(0.00184117 -5.56768e-07 0)
(0.00183938 1.3228e-05 0)
(0.00183283 2.73308e-05 0)
(0.00182142 4.17102e-05 0)
(0.00180506 5.63247e-05 0)
(0.00178368 7.11268e-05 0)
(0.00175722 8.60667e-05 0)
(0.00172563 0.000101089 0)
(0.0016889 0.000116134 0)
(0.00164702 0.00013114 0)
(0.00160002 0.000146041 0)
(0.00154794 0.000160766 0)
(0.00149085 0.000175245 0)
(0.00142884 0.000189402 0)
(0.00136204 0.000203162 0)
(0.00129058 0.000216447 0)
(0.00121465 0.000229183 0)
(0.00113445 0.000241291 0)
(0.00105019 0.000252699 0)
(0.000962142 0.000263332 0)
(0.000870571 0.000273123 0)
(0.000775782 0.000282006 0)
(0.000678097 0.00028992 0)
(0.000577859 0.000296812 0)
(0.000475428 0.000302632 0)
(0.000371181 0.000307339 0)
(0.000265509 0.000310898 0)
(0.000158813 0.000313285 0)
(5.15213e-05 0.000314481 0)
(-5.60521e-05 0.000314477 0)
(-0.000163324 0.00031327 0)
(-0.000270009 0.000310873 0)
(-0.000375663 0.000307302 0)
(-0.000479886 0.000302584 0)
(-0.000582286 0.000296753 0)
(-0.000682488 0.00028985 0)
(-0.000780131 0.000281923 0)
(-0.000874872 0.000273029 0)
(-0.000966388 0.000263226 0)
(-0.00105438 0.000252582 0)
(-0.00113857 0.000241163 0)
(-0.00121871 0.000229044 0)
(-0.00129456 0.000216299 0)
(-0.00136594 0.000203004 0)
(-0.00143266 0.000189236 0)
(-0.00149459 0.000175071 0)
(-0.00155159 0.000160586 0)
(-0.00160358 0.000145854 0)
(-0.00165049 0.000130948 0)
(-0.00169227 0.000115938 0)
(-0.00172891 0.000100889 0)
(-0.00176039 8.5864e-05 0)
(-0.00178676 7.09219e-05 0)
(-0.00180804 5.61184e-05 0)
(-0.00182429 4.1503e-05 0)
(-0.0018356 2.71232e-05 0)
(-0.00184205 1.30202e-05 0)
(-0.00184374 -7.64217e-07 0)
(-0.00184079 -1.42037e-05 0)
(-0.00183335 -2.7267e-05 0)
(-0.00182153 -3.99319e-05 0)
(-0.00180549 -5.2177e-05 0)
(-0.00178537 -6.39871e-05 0)
(-0.00176131 -7.53478e-05 0)
(-0.00173349 -8.62507e-05 0)
(-0.00170206 -9.66879e-05 0)
(-0.00166717 -0.000106657 0)
(-0.00162899 -0.000116155 0)
(-0.00158768 -0.000125185 0)
(-0.00154341 -0.000133748 0)
(-0.00149632 -0.00014185 0)
(-0.00144657 -0.000149497 0)
(-0.00139433 -0.000156698 0)
(-0.00133973 -0.000163459 0)
(-0.00128293 -0.000169792 0)
(-0.00122407 -0.000175706 0)
(-0.00116329 -0.000181212 0)
(-0.00110072 -0.000186321 0)
(-0.00103651 -0.000191044 0)
(-0.000970767 -0.000195391 0)
(-0.000903631 -0.000199374 0)
(-0.000835218 -0.000203003 0)
(-0.000765646 -0.000206289 0)
(-0.000695028 -0.000209239 0)
(-0.000623476 -0.000211865 0)
(-0.000551097 -0.000214172 0)
(-0.000477996 -0.000216168 0)
(-0.000404274 -0.000217859 0)
(-0.000330019 -0.000219249 0)
(-0.000255329 -0.000220342 0)
(-0.000180382 -0.00022111 0)
(-0.000105981 -0.000220791 0)
(-3.1589e-05 -0.000199677 0)
(3.18369e-05 -0.000335298 0)
(0.000107018 -0.000370908 0)
(0.000182062 -0.000371379 0)
(0.000257766 -0.000370056 0)
(0.000333176 -0.00036822 0)
(0.000408168 -0.000365898 0)
(0.000482653 -0.000363084 0)
(0.000556533 -0.000359766 0)
(0.000629708 -0.000355933 0)
(0.000702076 -0.000351572 0)
(0.000773531 -0.00034667 0)
(0.000843963 -0.000341211 0)
(0.000913262 -0.000335179 0)
(0.000981309 -0.000328556 0)
(0.00104799 -0.000321324 0)
(0.00111317 -0.000313466 0)
(0.00117673 -0.000304961 0)
(0.00123853 -0.000295791 0)
(0.00129844 -0.000285937 0)
(0.00135631 -0.000275379 0)
(0.00141201 -0.000264101 0)
(0.00146538 -0.000252085 0)
(0.00151627 -0.000239316 0)
(0.00156451 -0.000225778 0)
(0.00160996 -0.000211463 0)
(0.00165245 -0.000196358 0)
(0.00169181 -0.000180459 0)
(0.00172788 -0.000163762 0)
(0.00176049 -0.000146269 0)
(0.00178946 -0.000127984 0)
(0.00181465 -0.000108916 0)
(0.00183587 -8.90819e-05 0)
(0.00185297 -6.85012e-05 0)
(0.00186579 -4.72001e-05 0)
(0.00187417 -2.52121e-05 0)
(0.001878 -2.57617e-06 0)
(0.00187711 2.06546e-05 0)
(0.00187136 4.44356e-05 0)
(0.00186064 6.87007e-05 0)
(0.00184485 9.33794e-05 0)
(0.00182391 0.000118393 0)
(0.00179775 0.000143657 0)
(0.00176631 0.000169077 0)
(0.00172956 0.000194555 0)
(0.00168749 0.000219982 0)
(0.00164011 0.000245247 0)
(0.00158746 0.00027023 0)
(0.0015296 0.000294809 0)
(0.00146662 0.000318857 0)
(0.00139864 0.000342243 0)
(0.0013258 0.000364836 0)
(0.00124828 0.000386504 0)
(0.00116628 0.000407115 0)
(0.00108003 0.000426541 0)
(0.000989793 0.000444657 0)
(0.000895855 0.000461344 0)
(0.000798527 0.000476488 0)
(0.000698148 0.000489986 0)
(0.000595074 0.000501741 0)
(0.000489687 0.00051167 0)
(0.000382382 0.000519701 0)
(0.000273569 0.000525776 0)
(0.000163674 0.000529848 0)
(5.31495e-05 0.000531888 0)
(-5.76739e-05 0.000531876 0)
(-0.000168179 0.000529811 0)
(-0.000278063 0.000525714 0)
(-0.000386857 0.000519614 0)
(-0.000494138 0.000511556 0)
(-0.000599495 0.000501601 0)
(-0.000702532 0.000489819 0)
(-0.000802869 0.000476296 0)
(-0.000900148 0.000461126 0)
(-0.000994032 0.000444414 0)
(-0.00108421 0.000426274 0)
(-0.00117039 0.000406824 0)
(-0.00125232 0.000386191 0)
(-0.00132977 0.000364502 0)
(-0.00140253 0.000341891 0)
(-0.00147043 0.000318487 0)
(-0.00153332 0.000294423 0)
(-0.00159109 0.00026983 0)
(-0.00164365 0.000244834 0)
(-0.00169094 0.000219559 0)
(-0.00173291 0.000194123 0)
(-0.00176956 0.000168638 0)
(-0.00180091 0.000143213 0)
(-0.00182697 0.000117946 0)
(-0.00184781 9.29304e-05 0)
(-0.00186349 6.82509e-05 0)
(-0.00187411 4.39863e-05 0)
(-0.00187976 2.02065e-05 0)
(-0.00188054 -3.02155e-06 0)
(-0.00187661 -2.56524e-05 0)
(-0.00186813 -4.76359e-05 0)
(-0.00185521 -6.89332e-05 0)
(-0.00183801 -8.95106e-05 0)
(-0.0018167 -0.000109342 0)
(-0.00179142 -0.000128407 0)
(-0.00176236 -0.00014669 0)
(-0.00172966 -0.000164182 0)
(-0.00169351 -0.000180876 0)
(-0.00165406 -0.000196773 0)
(-0.00161149 -0.000211876 0)
(-0.00156596 -0.00022619 0)
(-0.00151764 -0.000239725 0)
(-0.00146668 -0.000252492 0)
(-0.00141324 -0.000264507 0)
(-0.00135747 -0.000275783 0)
(-0.00129952 -0.000286338 0)
(-0.00123954 -0.00029619 0)
(-0.00117767 -0.000305358 0)
(-0.00111405 -0.000313861 0)
(-0.00104881 -0.000321717 0)
(-0.000982067 -0.000328947 0)
(-0.000913959 -0.000335568 0)
(-0.000844601 -0.000341598 0)
(-0.00077411 -0.000347055 0)
(-0.000702598 -0.000351955 0)
(-0.000630174 -0.000356314 0)
(-0.000556944 -0.000360145 0)
(-0.00048301 -0.000363461 0)
(-0.00040847 -0.000366273 0)
(-0.000333413 -0.000368591 0)
(-0.000257939 -0.000370424 0)
(-0.000182237 -0.000371742 0)
(-0.000107134 -0.000371252 0)
(-3.1966e-05 -0.000335548 0)
(3.23122e-05 -0.000473124 0)
(0.000108611 -0.00052348 0)
(0.000184765 -0.000524187 0)
(0.000261601 -0.000522357 0)
(0.000338161 -0.00051981 0)
(0.000414322 -0.000516592 0)
(0.000489999 -0.000512691 0)
(0.000565098 -0.000508091 0)
(0.000639522 -0.000502778 0)
(0.000713172 -0.000496731 0)
(0.000785944 -0.000489931 0)
(0.000857732 -0.000482355 0)
(0.000928427 -0.00047398 0)
(0.000997915 -0.000464779 0)
(0.00106608 -0.000454727 0)
(0.00113279 -0.000443797 0)
(0.00119792 -0.00043196 0)
(0.00126135 -0.000419187 0)
(0.00132293 -0.000405452 0)
(0.00138252 -0.000390725 0)
(0.00143998 -0.000374981 0)
(0.00149514 -0.000358192 0)
(0.00154786 -0.000340336 0)
(0.00159798 -0.00032139 0)
(0.00164532 -0.000301336 0)
(0.00168972 -0.000280159 0)
(0.00173101 -0.000257847 0)
(0.00176901 -0.000234393 0)
(0.00180354 -0.000209797 0)
(0.00183442 -0.000184063 0)
(0.00186149 -0.000157201 0)
(0.00188455 -0.000129232 0)
(0.00190343 -0.000100181 0)
(0.00191796 -7.00836e-05 0)
(0.00192798 -3.89843e-05 0)
(0.00193331 -6.93839e-06 0)
(0.00193381 2.59842e-05 0)
(0.00192934 5.97249e-05 0)
(0.00191972 9.4188e-05 0)
(0.00190486 0.000129274 0)
(0.00188465 0.000164872 0)
(0.001859 0.000200863 0)
(0.00182784 0.000237115 0)
(0.00179112 0.000273484 0)
(0.00174881 0.000309817 0)
(0.00170092 0.000345953 0)
(0.00164746 0.000381721 0)
(0.00158849 0.000416941 0)
(0.00152408 0.000451431 0)
(0.00145435 0.000485001 0)
(0.00137945 0.000517458 0)
(0.00129954 0.000548611 0)
(0.00121483 0.000578268 0)
(0.00112557 0.000606238 0)
(0.00103202 0.000632339 0)
(0.000934485 0.000656395 0)
(0.000833294 0.000678239 0)
(0.000728808 0.000697717 0)
(0.000621409 0.000714689 0)
(0.000511504 0.000729029 0)
(0.000399522 0.000740631 0)
(0.000285905 0.000749409 0)
(0.000171113 0.000755295 0)
(5.56383e-05 0.000758243 0)
(-6.0162e-05 0.000758225 0)
(-0.000175616 0.00075524 0)
(-0.000290397 0.000749316 0)
(-0.000403996 0.0007405 0)
(-0.000515954 0.000728859 0)
(-0.000625828 0.000714479 0)
(-0.00073319 0.000697469 0)
(-0.000837633 0.000677952 0)
(-0.000938774 0.00065607 0)
(-0.00103625 0.000631978 0)
(-0.00112974 0.000605841 0)
(-0.00121894 0.000577836 0)
(-0.00130358 0.000548148 0)
(-0.00138341 0.000516965 0)
(-0.00145823 0.000484479 0)
(-0.00152788 0.000450884 0)
(-0.0015922 0.000416371 0)
(-0.00165108 0.000381129 0)
(-0.00170445 0.000345344 0)
(-0.00175225 0.000309193 0)
(-0.00179445 0.000272847 0)
(-0.00183108 0.000236469 0)
(-0.00186214 0.00020021 0)
(-0.00188769 0.000164215 0)
(-0.00190779 0.000128614 0)
(-0.00192255 9.3529e-05 0)
(-0.00193206 5.90686e-05 0)
(-0.00193644 2.53331e-05 0)
(-0.00193583 -7.58311e-06 0)
(-0.00193039 -3.96235e-05 0)
(-0.00192028 -7.07173e-05 0)
(-0.00190565 -0.000100809 0)
(-0.00188667 -0.000129854 0)
(-0.00186351 -0.000157818 0)
(-0.00183636 -0.000184673 0)
(-0.00180538 -0.000210402 0)
(-0.00177076 -0.000234992 0)
(-0.00173268 -0.00025844 0)
(-0.00169131 -0.000280746 0)
(-0.00164683 -0.000301917 0)
(-0.00159941 -0.000321965 0)
(-0.00154921 -0.000340905 0)
(-0.00149642 -0.000358755 0)
(-0.00144118 -0.000375538 0)
(-0.00138365 -0.000391277 0)
(-0.00132399 -0.000405998 0)
(-0.00126234 -0.000419728 0)
(-0.00119885 -0.000432495 0)
(-0.00113365 -0.000444327 0)
(-0.00106688 -0.000455253 0)
(-0.000998655 -0.0004653 0)
(-0.000929108 -0.000474496 0)
(-0.000858353 -0.000482867 0)
(-0.000786507 -0.000490439 0)
(-0.000713678 -0.000497235 0)
(-0.000639973 -0.000503278 0)
(-0.000565494 -0.000508588 0)
(-0.000490341 -0.000513184 0)
(-0.000414609 -0.000517082 0)
(-0.000338382 -0.000520297 0)
(-0.000261759 -0.00052284 0)
(-0.000184926 -0.000524666 0)
(-0.000108712 -0.000523931 0)
(-3.24414e-05 -0.000473451 0)
(3.29312e-05 -0.000613293 0)
(0.00011069 -0.000678621 0)
(0.000188308 -0.00067959 0)
(0.000266639 -0.000677282 0)
(0.000344712 -0.000674067 0)
(0.000422413 -0.000670002 0)
(0.000499661 -0.000665071 0)
(0.000576366 -0.000659257 0)
(0.000652437 -0.000652538 0)
(0.000727779 -0.000644887 0)
(0.000802294 -0.000636278 0)
(0.000875878 -0.000626681 0)
(0.000948427 -0.000616063 0)
(0.00101983 -0.000604391 0)
(0.00108997 -0.000591628 0)
(0.00115872 -0.000577737 0)
(0.00122596 -0.00056268 0)
(0.00129156 -0.000546418 0)
(0.00135538 -0.000528913 0)
(0.00141728 -0.000510124 0)
(0.0014771 -0.000490016 0)
(0.00153469 -0.00046855 0)
(0.00158989 -0.000445693 0)
(0.00164254 -0.000421414 0)
(0.00169245 -0.000395683 0)
(0.00173946 -0.000368478 0)
(0.00178337 -0.00033978 0)
(0.00182401 -0.000309574 0)
(0.00186118 -0.000277857 0)
(0.00189468 -0.000244628 0)
(0.00192434 -0.000209898 0)
(0.00194994 -0.000173688 0)
(0.00197129 -0.000136026 0)
(0.00198821 -9.69557e-05 0)
(0.00200049 -5.65301e-05 0)
(0.00200796 -1.48163e-05 0)
(0.00201046 2.81036e-05 0)
(0.0020078 7.21491e-05 0)
(0.00199977 0.000117201 0)
(0.00198626 0.000163131 0)
(0.00196713 0.000209797 0)
(0.00194228 0.000257042 0)
(0.0019116 0.000304694 0)
(0.00187501 0.000352565 0)
(0.00183248 0.000400452 0)
(0.00178397 0.000448142 0)
(0.00172949 0.000495405 0)
(0.00166908 0.000542004 0)
(0.0016028 0.00058769 0)
(0.00153076 0.00063221 0)
(0.00145308 0.000675302 0)
(0.00136996 0.000716707 0)
(0.00128159 0.000756162 0)
(0.00118823 0.000793409 0)
(0.00109017 0.000828198 0)
(0.000987712 0.000860287 0)
(0.000881227 0.000889447 0)
(0.0007711 0.000915466 0)
(0.000657749 0.00093815 0)
(0.000541621 0.000957328 0)
(0.000423187 0.00097285 0)
(0.000302938 0.000984598 0)
(0.000181382 0.000992477 0)
(5.90678e-05 0.000996425 0)
(-6.36107e-05 0.000996401 0)
(-0.000185904 0.000992404 0)
(-0.000307448 0.000984474 0)
(-0.000427678 0.000972676 0)
(-0.000546087 0.000957101 0)
(-0.000662183 0.000937872 0)
(-0.000775496 0.000915137 0)
(-0.000885579 0.000889066 0)
(-0.000992013 0.000859856 0)
(-0.00109441 0.000827719 0)
(-0.00119242 0.000792883 0)
(-0.00128571 0.000755591 0)
(-0.001374 0.000716094 0)
(-0.00145704 0.00067465 0)
(-0.00153463 0.000631521 0)
(-0.00160659 0.000586968 0)
(-0.00167278 0.000541252 0)
(-0.0017331 0.000494627 0)
(-0.00178748 0.000447341 0)
(-0.00183589 0.000399632 0)
(-0.00187833 0.000351728 0)
(-0.00191481 0.000303845 0)
(-0.00194539 0.000256184 0)
(-0.00197014 0.000208933 0)
(-0.00198916 0.000162264 0)
(-0.00200257 0.000116334 0)
(-0.00201049 7.12847e-05 0)
(-0.00201305 2.72437e-05 0)
(-0.00201044 -1.5668e-05 0)
(-0.00200287 -5.73724e-05 0)
(-0.00199049 -9.77889e-05 0)
(-0.00197347 -0.00013685 0)
(-0.00195202 -0.000174502 0)
(-0.00192633 -0.000210703 0)
(-0.00189658 -0.000245423 0)
(-0.00186298 -0.000278642 0)
(-0.00182573 -0.00031035 0)
(-0.00178501 -0.000340545 0)
(-0.00174101 -0.000369234 0)
(-0.00169392 -0.000396429 0)
(-0.00164393 -0.00042215 0)
(-0.00159121 -0.000446419 0)
(-0.00153593 -0.000469266 0)
(-0.00147827 -0.000490722 0)
(-0.00141838 -0.000510821 0)
(-0.00135641 -0.0005296 0)
(-0.00129253 -0.000547097 0)
(-0.00122686 -0.00056335 0)
(-0.00115956 -0.000578399 0)
(-0.00109074 -0.000592281 0)
(-0.00102054 -0.000605037 0)
(-0.000949083 -0.000616702 0)
(-0.000876476 -0.000627313 0)
(-0.000802835 -0.000636905 0)
(-0.000728265 -0.000645508 0)
(-0.000652868 -0.000653153 0)
(-0.000576743 -0.000659869 0)
(-0.000499985 -0.000665679 0)
(-0.000422684 -0.000670606 0)
(-0.000344918 -0.000674669 0)
(-0.000266782 -0.000677882 0)
(-0.000188458 -0.000680186 0)
(-0.000110779 -0.000679183 0)
(-3.30603e-05 -0.000613677 0)
(3.36871e-05 -0.000756417 0)
(0.00011323 -0.000837035 0)
(0.00019264 -0.000838299 0)
(0.0002728 -0.000835553 0)
(0.000352729 -0.00083172 0)
(0.000432318 -0.000826872 0)
(0.000511493 -0.00082099 0)
(0.000590172 -0.00081405 0)
(0.00066827 -0.000806023 0)
(0.000745699 -0.000796879 0)
(0.000822366 -0.000786581 0)
(0.000898173 -0.000775091 0)
(0.00097302 -0.000762367 0)
(0.0010468 -0.000748366 0)
(0.0011194 -0.000733041 0)
(0.0011907 -0.000716343 0)
(0.00126058 -0.000698221 0)
(0.0013289 -0.000678626 0)
(0.00139554 -0.000657505 0)
(0.00146034 -0.000634806 0)
(0.00152315 -0.000610478 0)
(0.00158381 -0.000584473 0)
(0.00164216 -0.000556741 0)
(0.00169803 -0.000527239 0)
(0.00175122 -0.000495927 0)
(0.00180156 -0.000462769 0)
(0.00184885 -0.000427734 0)
(0.00189288 -0.000390801 0)
(0.00193346 -0.000351954 0)
(0.00197037 -0.000311189 0)
(0.0020034 -0.000268511 0)
(0.00203232 -0.000223938 0)
(0.00205692 -0.000177498 0)
(0.00207698 -0.000129239 0)
(0.00209228 -7.92206e-05 0)
(0.00210261 -2.75239e-05 0)
(0.00210778 2.5757e-05 0)
(0.00210757 8.05625e-05 0)
(0.00210173 0.000136713 0)
(0.0020901 0.000194053 0)
(0.00207252 0.000252414 0)
(0.00204885 0.000311603 0)
(0.00201894 0.000371404 0)
(0.00198269 0.000431584 0)
(0.00194003 0.000491887 0)
(0.00189088 0.00055204 0)
(0.00183524 0.000611752 0)
(0.00177312 0.000670719 0)
(0.00170455 0.000728619 0)
(0.00162964 0.000785125 0)
(0.00154851 0.000839898 0)
(0.00146132 0.000892597 0)
(0.0013683 0.000942879 0)
(0.0012697 0.000990406 0)
(0.00116583 0.00103485 0)
(0.00105704 0.00107588 0)
(0.000943706 0.00111321 0)
(0.000826264 0.00114654 0)
(0.000705177 0.00117562 0)
(0.000580947 0.00120022 0)
(0.0004541 0.00122015 0)
(0.000325192 0.00123524 0)
(0.0001948 0.00124536 0)
(6.35453e-05 0.00125043 0)
(-6.8126e-05 0.0012504 0)
(-0.000199358 0.00124527 0)
(-0.000329738 0.00123508 0)
(-0.000458626 0.00121993 0)
(-0.000585446 0.00119994 0)
(-0.000709643 0.00117527 0)
(-0.000830689 0.00114613 0)
(-0.000948085 0.00111273 0)
(-0.00106136 0.00107534 0)
(-0.0011701 0.00103425 0)
(-0.0012739 0.000989747 0)
(-0.00137243 0.000942165 0)
(-0.00146537 0.000891831 0)
(-0.00155247 0.000839083 0)
(-0.00163352 0.000784266 0)
(-0.00170834 0.000727719 0)
(-0.00177681 0.000669782 0)
(-0.00183884 0.000610784 0)
(-0.00189438 0.000551043 0)
(-0.00194342 0.000490867 0)
(-0.00198598 0.000430545 0)
(-0.00202212 0.00037035 0)
(-0.00205192 0.000310539 0)
(-0.00207549 0.000251343 0)
(-0.00209296 0.000192979 0)
(-0.00210449 0.000135638 0)
(-0.00211022 7.94899e-05 0)
(-0.00211032 2.46874e-05 0)
(-0.00210504 -2.85795e-05 0)
(-0.00209462 -8.02635e-05 0)
(-0.00207922 -0.000130269 0)
(-0.00205906 -0.000178517 0)
(-0.00203436 -0.000224943 0)
(-0.00200534 -0.000269504 0)
(-0.00197222 -0.000312168 0)
(-0.00193522 -0.00035292 0)
(-0.00189456 -0.000391752 0)
(-0.00185044 -0.000428671 0)
(-0.00180306 -0.000463692 0)
(-0.00175265 -0.000496836 0)
(-0.00169937 -0.000528134 0)
(-0.00164343 -0.000557622 0)
(-0.00158501 -0.000585339 0)
(-0.00152428 -0.000611332 0)
(-0.0014614 -0.000635646 0)
(-0.00139653 -0.000658332 0)
(-0.00132983 -0.000679441 0)
(-0.00126144 -0.000699024 0)
(-0.0011915 -0.000717134 0)
(-0.00112014 -0.000733821 0)
(-0.00104748 -0.000749136 0)
(-0.000973645 -0.000763128 0)
(-0.000898742 -0.000775842 0)
(-0.00082288 -0.000787324 0)
(-0.000746159 -0.000797615 0)
(-0.000668678 -0.000806753 0)
(-0.000590527 -0.000814774 0)
(-0.000511797 -0.00082171 0)
(-0.000432571 -0.000827588 0)
(-0.00035292 -0.000832434 0)
(-0.00027293 -0.000836266 0)
(-0.000192781 -0.000839009 0)
(-0.000113312 -0.000837701 0)
(-3.38169e-05 -0.000756838 0)
(3.45685e-05 -0.000903059 0)
(0.000116191 -0.000999346 0)
(0.000197689 -0.00100095 0)
(0.000279985 -0.000997816 0)
(0.00036208 -0.000993431 0)
(0.000443877 -0.000987882 0)
(0.000525309 -0.000981145 0)
(0.000606304 -0.000973192 0)
(0.000686785 -0.000963986 0)
(0.000766672 -0.000953489 0)
(0.000845878 -0.000941656 0)
(0.000924315 -0.000928439 0)
(0.00100189 -0.000913787 0)
(0.00107849 -0.000897643 0)
(0.00115403 -0.000879949 0)
(0.00122838 -0.000860643 0)
(0.00130141 -0.000839662 0)
(0.00137302 -0.00081694 0)
(0.00144304 -0.000792409 0)
(0.00151135 -0.000766003 0)
(0.00157779 -0.000737655 0)
(0.00164219 -0.000707298 0)
(0.00170439 -0.000674869 0)
(0.00176419 -0.000640306 0)
(0.00182142 -0.000603553 0)
(0.00187587 -0.000564559 0)
(0.00192734 -0.000523279 0)
(0.0019756 -0.000479674 0)
(0.00202043 -0.000433719 0)
(0.00206161 -0.000385395 0)
(0.00209888 -0.000334698 0)
(0.002132 -0.000281637 0)
(0.00216073 -0.000226237 0)
(0.0021848 -0.00016854 0)
(0.00220396 -0.000108604 0)
(0.00221795 -4.65112e-05 0)
(0.00222667 1.76348e-05 0)
(0.00222976 8.36634e-05 0)
(0.00222681 0.000151486 0)
(0.00221772 0.000220915 0)
(0.00220229 0.000291739 0)
(0.00218032 0.000363725 0)
(0.00215162 0.000436614 0)
(0.00211604 0.00051012 0)
(0.00207346 0.00058393 0)
(0.00202377 0.000657708 0)
(0.00196692 0.000731092 0)
(0.00190288 0.000803701 0)
(0.00183168 0.000875134 0)
(0.00175338 0.000944973 0)
(0.0016681 0.00101279 0)
(0.00157599 0.00107815 0)
(0.00147728 0.00114061 0)
(0.00137223 0.00119974 0)
(0.00126118 0.00125511 0)
(0.00114449 0.0013063 0)
(0.00102259 0.00135291 0)
(0.000895977 0.00139459 0)
(0.00076516 0.00143099 0)
(0.000630712 0.0014618 0)
(0.000493239 0.00148678 0)
(0.000353379 0.0015057 0)
(0.000211797 0.0015184 0)
(6.92161e-05 0.00152477 0)
(-7.38527e-05 0.00152473 0)
(-0.000216409 0.00151829 0)
(-0.000357978 0.00150551 0)
(-0.000497817 0.00148651 0)
(-0.000635261 0.00146146 0)
(-0.000769672 0.00143056 0)
(-0.000900445 0.00139409 0)
(-0.00102701 0.00135233 0)
(-0.00114885 0.00130564 0)
(-0.00126547 0.00125438 0)
(-0.00137645 0.00119894 0)
(-0.00148142 0.00113975 0)
(-0.00158005 0.00107722 0)
(-0.00167207 0.0010118 0)
(-0.00175726 0.000943934 0)
(-0.00183547 0.000874047 0)
(-0.00190657 0.000802572 0)
(-0.0019705 0.000729925 0)
(-0.00202725 0.000656509 0)
(-0.00207682 0.000582704 0)
(-0.0021193 0.000508872 0)
(-0.00215477 0.00043535 0)
(-0.00218335 0.00036245 0)
(-0.00220522 0.000290457 0)
(-0.00222053 0.000219631 0)
(-0.00222951 0.000150206 0)
(-0.00223236 8.23916e-05 0)
(-0.00222916 1.63772e-05 0)
(-0.00222032 -4.77627e-05 0)
(-0.00220623 -0.000109845 0)
(-0.00218697 -0.000169766 0)
(-0.0021628 -0.000227449 0)
(-0.00213398 -0.000282832 0)
(-0.00210076 -0.000335876 0)
(-0.00206339 -0.000386556 0)
(-0.00202213 -0.000434862 0)
(-0.00197721 -0.000480799 0)
(-0.00192887 -0.000524385 0)
(-0.00187732 -0.000565647 0)
(-0.00182279 -0.000604622 0)
(-0.00176548 -0.000641356 0)
(-0.0017056 -0.0006759 0)
(-0.00164334 -0.000708311 0)
(-0.00157887 -0.000738651 0)
(-0.00151236 -0.000766982 0)
(-0.00144399 -0.000793371 0)
(-0.00137389 -0.000817886 0)
(-0.00130223 -0.000840593 0)
(-0.00122913 -0.000861559 0)
(-0.00115473 -0.000880851 0)
(-0.00107914 -0.000898531 0)
(-0.00100247 -0.000914663 0)
(-0.000924849 -0.000929304 0)
(-0.000846359 -0.000942511 0)
(-0.000767101 -0.000954335 0)
(-0.000687165 -0.000964824 0)
(-0.000606634 -0.000974024 0)
(-0.000525591 -0.000981972 0)
(-0.00044411 -0.000988705 0)
(-0.000362255 -0.000994252 0)
(-0.000280101 -0.000998636 0)
(-0.000197822 -0.00100177 0)
(-0.000116267 -0.00100011 0)
(-3.46991e-05 -0.000903506 0)
(3.556e-05 -0.00105373 0)
(0.000119521 -0.00116611 0)
(0.000203368 -0.00116812 0)
(0.000288066 -0.00116465 0)
(0.000372603 -0.00115979 0)
(0.000456891 -0.00115364 0)
(0.000540876 -0.00114617 0)
(0.000624495 -0.00113735 0)
(0.000707682 -0.00112712 0)
(0.000790366 -0.00111545 0)
(0.000872473 -0.00110227 0)
(0.000953921 -0.00108753 0)
(0.00103462 -0.00107117 0)
(0.00111449 -0.00105312 0)
(0.00119341 -0.00103331 0)
(0.00127129 -0.00101165 0)
(0.001348 -0.000988071 0)
(0.00142343 -0.000962488 0)
(0.00149743 -0.000934817 0)
(0.00156987 -0.000904971 0)
(0.00164058 -0.000872865 0)
(0.00170941 -0.000838412 0)
(0.00177617 -0.000801527 0)
(0.00184069 -0.00076213 0)
(0.00190275 -0.000720142 0)
(0.00196214 -0.000675491 0)
(0.00201865 -0.000628111 0)
(0.00207204 -0.000577945 0)
(0.00212206 -0.000524947 0)
(0.00216845 -0.000469081 0)
(0.00221095 -0.000410326 0)
(0.00224928 -0.000348678 0)
(0.00228316 -0.000284149 0)
(0.00231229 -0.000216772 0)
(0.00233638 -0.000146601 0)
(0.00235513 -7.37115e-05 0)
(0.00236818 1.78683e-06 0)
(0.00237533 7.96591e-05 0)
(0.00237629 0.00015988 0)
(0.00237067 0.000242222 0)
(0.00235821 0.000326438 0)
(0.00233866 0.000412258 0)
(0.0023118 0.000499377 0)
(0.0022774 0.000587456 0)
(0.00223528 0.000676121 0)
(0.00218529 0.000764966 0)
(0.00212731 0.000853549 0)
(0.00206128 0.000941403 0)
(0.00198717 0.00102803 0)
(0.00190503 0.00111291 0)
(0.00181493 0.00119552 0)
(0.00171703 0.00127529 0)
(0.00161155 0.00135167 0)
(0.00149876 0.00142411 0)
(0.001379 0.00149206 0)
(0.00125271 0.00155498 0)
(0.00112034 0.00161236 0)
(0.000982448 0.00166373 0)
(0.000839633 0.00170864 0)
(0.00069255 0.00174671 0)
(0.000541904 0.00177758 0)
(0.000388442 0.00180099 0)
(0.000232947 0.00181671 0)
(7.62729e-05 0.0018246 0)
(-8.09832e-05 0.00182456 0)
(-0.00023763 0.00181658 0)
(-0.00039311 0.00180077 0)
(-0.000546548 0.00177727 0)
(-0.000697162 0.0017463 0)
(-0.000844206 0.00170814 0)
(-0.000986973 0.00166313 0)
(-0.00112481 0.00161167 0)
(-0.00125711 0.0015542 0)
(-0.00138334 0.00149119 0)
(-0.00150301 0.00142316 0)
(-0.00161572 0.00135064 0)
(-0.00172111 0.00127419 0)
(-0.00181891 0.00119435 0)
(-0.00190891 0.00111168 0)
(-0.00199095 0.00102675 0)
(-0.00206495 0.000940068 0)
(-0.00213087 0.000852172 0)
(-0.00218873 0.000763552 0)
(-0.00223861 0.000674678 0)
(-0.00228062 0.00058599 0)
(-0.0023149 0.000497893 0)
(-0.00234165 0.000410763 0)
(-0.00236107 0.000324937 0)
(-0.00237342 0.00024072 0)
(-0.00237892 0.000158381 0)
(-0.00237784 7.81689e-05 0)
(-0.0023706 3.10763e-07 0)
(-0.00235745 -7.51733e-05 0)
(-0.00233859 -0.000148046 0)
(-0.00231439 -0.000218198 0)
(-0.00228516 -0.000285555 0)
(-0.00225119 -0.000350063 0)
(-0.00221276 -0.00041169 0)
(-0.00217017 -0.000470422 0)
(-0.00212368 -0.000526265 0)
(-0.00207358 -0.00057924 0)
(-0.00202011 -0.000629382 0)
(-0.00196352 -0.000676739 0)
(-0.00190404 -0.000721366 0)
(-0.00184191 -0.000763331 0)
(-0.00177732 -0.000802705 0)
(-0.00171049 -0.000839567 0)
(-0.00164159 -0.000873998 0)
(-0.00157081 -0.000906083 0)
(-0.00149831 -0.000935908 0)
(-0.00142425 -0.000963559 0)
(-0.00134876 -0.000989123 0)
(-0.00127199 -0.00101268 0)
(-0.00119406 -0.00103432 0)
(-0.00111508 -0.00105412 0)
(-0.00103517 -0.00107216 0)
(-0.000954412 -0.00108851 0)
(-0.000872915 -0.00110323 0)
(-0.00079076 -0.00111639 0)
(-0.000708029 -0.00112806 0)
(-0.000624796 -0.00113828 0)
(-0.000541132 -0.0011471 0)
(-0.000457103 -0.00115457 0)
(-0.000372759 -0.00116071 0)
(-0.000288168 -0.00116557 0)
(-0.000203491 -0.00116903 0)
(-0.000119593 -0.00116697 0)
(-3.56912e-05 -0.00105419 0)
(3.66423e-05 -0.00120885 0)
(0.000123156 -0.00133781 0)
(0.000209566 -0.00134028 0)
(0.000296888 -0.00133655 0)
(0.000384098 -0.00133132 0)
(0.000471117 -0.00132469 0)
(0.000557906 -0.00131664 0)
(0.000644415 -0.0013071 0)
(0.000730592 -0.00129605 0)
(0.000816377 -0.00128341 0)
(0.000901707 -0.00126913 0)