/*--------------------------------*- C++ -*----------------------------------*\
| =========                 |                                                 |
| \\      /  F ield         | OpenFOAM: The Open Source CFD Toolbox           |
|  \\    /   O peration     | Version:  2212                                  |
|   \\  /    A nd           | Website:  www.openfoam.com                      |
|    \\/     M anipulation  |                                                 |
\*---------------------------------------------------------------------------*/
FoamFile
{
    version     2.0;
    format      ascii;
    arch        "LSB;label=64;scalar=64";
    class       volScalarField;
    location    "470";
    object      Xpr;
}
// * * * * * * * * * * * * * * * * * * * * * * * * * * * * * * * * * * * * * //

dimensions      [1 -3 0 0 0 0 0];

internalField   nonuniform List<scalar> 
1024
(
0.0822433
0.0822457
0.0822515
0.0822614
0.0822758
0.082294
0.0823146
0.082336
0.0823568
0.082376
0.0823928
0.0824062
0.082416
0.0824214
0.0824211
0.0824131
0.0823957
0.0823717
0.0823446
0.0823156
0.082285
0.0822528
0.0822189
0.082184
0.0821496
0.0821178
0.0820907
0.0820693
0.0820539
0.082044
0.0820384
0.0820361
0.0822436
0.0822461
0.0822521
0.0822625
0.0822772
0.0822958
0.0823166
0.082338
0.0823588
0.0823781
0.0823951
0.0824085
0.0824183
0.0824237
0.0824233
0.0824152
0.082398
0.0823741
0.0823471
0.0823182
0.0822878
0.0822557
0.082222
0.0821871
0.0821525
0.0821204
0.0820928
0.0820709
0.0820552
0.0820449
0.0820392
0.0820368
0.0822443
0.082247
0.0822533
0.0822642
0.0822796
0.0822986
0.0823198
0.0823416
0.0823629
0.0823829
0.0824006
0.0824144
0.0824241
0.0824293
0.0824286
0.0824202
0.0824027
0.0823789
0.0823521
0.0823234
0.0822933
0.0822617
0.0822283
0.0821935
0.0821587
0.082126
0.0820975
0.0820746
0.0820579
0.0820471
0.082041
0.0820386
0.0822452
0.082248
0.0822547
0.0822661
0.0822821
0.0823018
0.0823236
0.0823462
0.0823687
0.0823904
0.0824099
0.0824248
0.0824347
0.0824394
0.0824378
0.0824284
0.0824102
0.0823861
0.0823593
0.082331
0.0823014
0.0822703
0.0822376
0.0822031
0.0821682
0.0821346
0.0821048
0.0820804
0.0820625
0.0820507
0.0820442
0.0820415
0.0822462
0.0822491
0.082256
0.0822677
0.0822842
0.0823045
0.0823272
0.0823513
0.0823759
0.0824005
0.0824232
0.0824403
0.082451
0.082455
0.0824519
0.0824404
0.0824205
0.0823954
0.0823684
0.0823402
0.0823111
0.0822808
0.0822489
0.0822151
0.0821802
0.0821458
0.0821144
0.0820883
0.0820688
0.0820559
0.0820487
0.0820458
0.0822469
0.0822498
0.0822567
0.0822684
0.0822851
0.082306
0.0823299
0.082356
0.0823837
0.0824124
0.0824397
0.0824605
0.0824729
0.0824764
0.082471
0.0824563
0.0824333
0.0824063
0.0823783
0.0823499
0.0823212
0.0822917
0.0822608
0.0822279
0.0821933
0.0821583
0.0821255
0.0820976
0.0820764
0.0820622
0.0820543
0.0820512
0.082247
0.0822498
0.0822565
0.082268
0.0822846
0.0823059
0.082331
0.0823593
0.0823905
0.0824242
0.0824573
0.0824834
0.0824987
0.0825021
0.082494
0.0824749
0.0824475
0.0824173
0.0823877
0.0823586
0.08233
0.0823013
0.0822714
0.0822396
0.0822056
0.0821705
0.0821366
0.0821072
0.0820845
0.0820693
0.0820608
0.0820574
0.0822462
0.0822489
0.0822553
0.0822663
0.0822824
0.0823036
0.0823296
0.08236
0.082395
0.0824342
0.0824741
0.0825068
0.082526
0.0825296
0.0825183
0.0824938
0.0824606
0.0824263
0.0823943
0.0823643
0.0823356
0.0823075
0.0822787
0.0822481
0.082215
0.0821802
0.082146
0.0821157
0.0820921
0.0820762
0.0820673
0.0820638
0.0822442
0.0822468
0.0822527
0.0822629
0.0822782
0.0822989
0.0823251
0.0823573
0.082396
0.0824414
0.0824891
0.0825289
0.082552
0.0825553
0.0825397
0.0825084
0.0824685
0.0824296
0.0823951
0.0823641
0.0823355
0.0823081
0.0822806
0.0822513
0.0822195
0.0821856
0.0821519
0.0821218
0.0820981
0.0820821
0.0820732
0.0820697
0.0822405
0.0822429
0.0822483
0.0822576
0.0822716
0.0822912
0.0823173
0.082351
0.0823941
0.0824467
0.082503
0.0825496
0.0825754
0.0825761
0.0825537
0.0825131
0.082465
0.0824216
0.0823855
0.0823543
0.0823266
0.0823007
0.082275
0.0822476
0.0822177
0.0821854
0.0821532
0.0821243
0.0821016
0.0820863
0.0820777
0.0820743
0.0822345
0.0822368
0.0822417
0.08225
0.0822627
0.082281
0.0823067
0.0823425
0.0823913
0.0824529
0.0825184
0.0825708
0.0825965
0.0825906
0.0825565
0.0825022
0.0824438
0.0823963
0.0823601
0.0823308
0.0823056
0.0822826
0.0822599
0.0822355
0.0822083
0.0821788
0.0821493
0.0821228
0.082102
0.082088
0.08208
0.0820768
0.0822267
0.0822287
0.0822332
0.0822407
0.0822524
0.08227
0.0822965
0.0823361
0.0823928
0.0824648
0.082539
0.0825949
0.0826165
0.0825987
0.0825464
0.0824718
0.0823993
0.0823482
0.0823143
0.0822894
0.0822693
0.0822514
0.0822336
0.0822137
0.0821908
0.0821655
0.0821399
0.0821169
0.0820989
0.0820865
0.0820794
0.0820763
0.0822197
0.0822214
0.0822254
0.0822326
0.0822445
0.0822634
0.0822935
0.08234
0.0824067
0.0824888
0.0825691
0.0826242
0.0826368
0.0826014
0.0825242
0.0824222
0.0823304
0.0822754
0.0822459
0.0822281
0.0822159
0.0822058
0.0821952
0.0821818
0.0821649
0.0821452
0.0821248
0.0821062
0.0820914
0.082081
0.0820747
0.0820719
0.082221
0.0822224
0.0822263
0.082234
0.0822477
0.082271
0.0823084
0.0823652
0.0824423
0.0825311
0.0826117
0.0826601
0.0826588
0.0826018
0.0824954
0.0823607
0.0822445
0.082183
0.0821583
0.0821491
0.0821467
0.0821465
0.0821452
0.0821405
0.0821316
0.082119
0.0821048
0.082091
0.0820795
0.0820708
0.0820652
0.0820625
0.0822422
0.0822437
0.0822481
0.0822575
0.0822753
0.0823053
0.0823524
0.0824194
0.0825034
0.0825923
0.0826661
0.0827027
0.0826859
0.0826082
0.0824744
0.0823078
0.082164
0.0820899
0.0820652
0.0820629
0.0820699
0.0820796
0.0820872
0.0820902
0.0820883
0.0820825
0.0820745
0.082066
0.082058
0.0820513
0.0820465
0.082044
0.0822903
0.0822922
0.0822979
0.0823102
0.0823329
0.0823701
0.0824251
0.0824977
0.0825818
0.0826645
0.082728
0.0827543
0.0827285
0.0826408
0.0824923
0.0823041
0.0821333
0.0820356
0.0819986
0.0819949
0.0820075
0.082026
0.0820433
0.0820549
0.0820593
0.0820573
0.0820506
0.0820416
0.0820324
0.0820246
0.0820192
0.0820166
0.0823524
0.0823549
0.0823621
0.0823771
0.0824036
0.0824452
0.0825033
0.0825758
0.0826553
0.082731
0.0827897
0.0828184
0.0828034
0.0827322
0.0825997
0.0824178
0.0822319
0.0820986
0.0820219
0.0819829
0.0819652
0.0819588
0.0819577
0.081958
0.0819585
0.0819591
0.081961
0.081965
0.0819711
0.081978
0.0819838
0.0819868
0.0824017
0.0824046
0.0824127
0.0824289
0.0824566
0.0824984
0.0825548
0.0826229
0.082697
0.0827696
0.0828335
0.082881
0.0829015
0.0828811
0.0828096
0.0826871
0.0825384
0.0824081
0.0823126
0.0822471
0.0822013
0.0821709
0.082153
0.0821462
0.0821497
0.0821631
0.082185
0.082213
0.0822429
0.0822693
0.0822881
0.0822971
0.0824297
0.0824326
0.0824405
0.082456
0.0824816
0.0825193
0.0825693
0.0826293
0.0826956
0.0827646
0.0828337
0.0829005
0.0829596
0.0830007
0.0830128
0.0829907
0.0829435
0.0828982
0.0828707
0.0828617
0.0828667
0.0828815
0.0829014
0.0829231
0.0829436
0.0829608
0.0829732
0.0829807
0.0829841
0.0829853
0.0829858
0.0829862
0.0824423
0.0824451
0.0824522
0.0824656
0.0824875
0.0825191
0.0825604
0.0826099
0.0826656
0.0827263
0.0827921
0.0828645
0.082943
0.0830231
0.0830972
0.0831598
0.0832102
0.0832586
0.083314
0.0833773
0.0834454
0.0835132
0.0835745
0.0836249
0.0836604
0.0836787
0.0836794
0.0836651
0.0836413
0.0836158
0.0835963
0.0835869
0.082446
0.0824485
0.0824546
0.082466
0.082484
0.0825098
0.0825432
0.0825834
0.0826292
0.0826804
0.0827386
0.0828067
0.0828871
0.0829795
0.08308
0.0831847
0.0832871
0.0833837
0.0834766
0.0835667
0.0836519
0.0837291
0.0837961
0.0838513
0.0838935
0.0839218
0.0839359
0.0839365
0.0839263
0.0839103
0.0838953
0.0838869
0.0824451
0.0824472
0.0824524
0.0824617
0.0824764
0.0824973
0.0825244
0.0825574
0.0825959
0.0826406
0.0826936
0.0827581
0.0828371
0.0829311
0.0830381
0.0831554
0.083274
0.0833838
0.0834831
0.0835738
0.0836553
0.083728
0.083793
0.083851
0.0839019
0.0839441
0.0839755
0.0839952
0.0840038
0.0840036
0.0839991
0.0839952
0.0824439
0.0824454
0.0824493
0.0824565
0.0824683
0.0824851
0.0825076
0.0825358
0.0825705
0.082613
0.0826658
0.0827315
0.082812
0.0829072
0.083015
0.0831325
0.0832503
0.0833568
0.0834504
0.0835341
0.0836097
0.0836794
0.083746
0.0838108
0.083873
0.0839292
0.0839754
0.0840088
0.0840291
0.084038
0.0840396
0.0840384
0.0824496
0.0824497
0.0824511
0.0824553
0.0824637
0.0824773
0.0824968
0.0825234
0.0825586
0.0826045
0.082663
0.0827353
0.0828214
0.0829199
0.0830278
0.0831419
0.0832528
0.0833504
0.0834346
0.0835099
0.0835791
0.0836453
0.0837115
0.0837794
0.083848
0.0839137
0.0839711
0.0840156
0.084045
0.0840605
0.0840658
0.084066
0.0824732
0.0824707
0.0824677
0.0824668
0.0824708
0.0824815
0.0825004
0.0825295
0.0825707
0.0826257
0.082695
0.0827777
0.0828717
0.0829742
0.0830817
0.083191
0.0832934
0.0833806
0.0834545
0.0835208
0.0835827
0.0836434
0.0837057
0.083771
0.0838391
0.0839071
0.0839698
0.0840216
0.0840583
0.0840794
0.0840879
0.0840892
0.0825288
0.0825222
0.0825127
0.0825049
0.0825037
0.0825126
0.0825343
0.0825707
0.0826229
0.082691
0.0827731
0.0828661
0.0829664
0.0830705
0.0831752
0.0832779
0.0833707
0.0834472
0.0835108
0.0835675
0.0836209
0.0836741
0.0837292
0.0837878
0.08385
0.0839139
0.0839757
0.0840297
0.0840708
0.0840963
0.0841077
0.08411
0.0826287
0.0826175
0.0826011
0.0825871
0.0825827
0.0825933
0.0826217
0.0826687
0.0827336
0.0828137
0.0829051
0.0830034
0.0831046
0.0832053
0.083303
0.0833959
0.0834776
0.0835431
0.0835963
0.0836432
0.0836873
0.0837313
0.0837773
0.0838264
0.0838792
0.0839348
0.0839906
0.0840421
0.0840838
0.0841117
0.0841255
0.0841288
0.0827808
0.0827658
0.0827464
0.082732
0.0827304
0.0827472
0.0827843
0.0828408
0.0829137
0.0829986
0.0830909
0.0831858
0.0832799
0.0833706
0.0834564
0.0835361
0.0836047
0.0836586
0.0837014
0.0837385
0.0837731
0.0838076
0.0838434
0.0838819
0.0839235
0.0839682
0.0840146
0.0840596
0.0840984
0.0841264
0.0841414
0.0841457
0.082988
0.0829728
0.0829591
0.082954
0.0829621
0.0829871
0.0830297
0.0830881
0.0831588
0.0832375
0.0833197
0.0834018
0.083481
0.0835558
0.0836251
0.0836886
0.0837424
0.083784
0.0838165
0.0838441
0.0838697
0.0838949
0.0839209
0.0839488
0.0839791
0.084012
0.0840472
0.0840828
0.0841155
0.0841409
0.0841558
0.0841607
0.0832523
0.0832438
0.0832458
0.083256
0.0832743
0.0833028
0.0833424
0.0833921
0.0834494
0.0835111
0.083574
0.0836357
0.0836942
0.0837487
0.0837987
0.083844
0.083882
0.0839111
0.0839334
0.0839523
0.0839694
0.0839861
0.0840033
0.0840216
0.0840414
0.0840631
0.0840867
0.0841116
0.0841357
0.0841559
0.0841688
0.0841737
0.0835803
0.0835855
0.0836023
0.0836203
0.0836394
0.0836619
0.0836892
0.0837213
0.0837573
0.0837953
0.0838337
0.0838708
0.0839059
0.0839382
0.0839677
0.0839942
0.0840164
0.0840332
0.0840461
0.0840568
0.0840664
0.0840757
0.0840852
0.0840952
0.084106
0.0841179
0.0841309
0.084145
0.0841593
0.0841721
0.0841811
0.084185
0.0839825
0.0839879
0.0839979
0.0840067
0.0840148
0.0840232
0.0840328
0.0840437
0.0840557
0.0840683
0.084081
0.0840932
0.0841047
0.0841153
0.0841248
0.0841335
0.0841406
0.084146
0.0841502
0.0841536
0.0841566
0.0841596
0.0841626
0.0841657
0.084169
0.0841727
0.0841768
0.0841811
0.0841857
0.08419
0.0841933
0.0841949
)
;

boundaryField
{
    movingWall
    {
        type            fixedValue;
        value           uniform 0.0842;
    }
    fixedWalls
    {
        type            zeroGradient;
    }
    floor
    {
        type            zeroGradient;
    }
    frontAndBack
    {
        type            empty;
    }
}


// ************************************************************************* //
