/*--------------------------------*- C++ -*----------------------------------*\
| =========                 |                                                 |
| \\      /  F ield         | OpenFOAM: The Open Source CFD Toolbox           |
|  \\    /   O peration     | Version:  2212                                  |
|   \\  /    A nd           | Website:  www.openfoam.com                      |
|    \\/     M anipulation  |                                                 |
\*---------------------------------------------------------------------------*/
FoamFile
{
    version     2.0;
    format      ascii;
    arch        "LSB;label=64;scalar=64";
    class       volScalarField;
    location    "1500";
    object      epsilon;
}
// * * * * * * * * * * * * * * * * * * * * * * * * * * * * * * * * * * * * * //

dimensions      [0 2 -3 0 0 0 0];

internalField   nonuniform List<scalar> 
125000
(
1.23726249208
1.26431582149
1.23726246224
0.448403516061
1.27069515056
1.2643157528
0.480594964616
1.23726246232
0.448403516392
0.240348577642
1.26858247395
1.27069512859
0.489487768002
1.26431575091
0.480594968644
0.255256033145
1.23726246224
0.448403516276
0.24034858255
0.160234932235
1.26274228575
1.26858245909
0.491682616973
1.27069513128
0.489487775629
0.262042167613
1.2643157528
0.480594968323
0.255256040673
0.165985992309
1.23726249208
0.448403516392
0.240348582351
0.160234935946
0.118870528765
1.25472296236
1.26274226942
0.491661416221
1.26858246117
0.491682617562
0.265069824452
1.27069512859
0.489487775798
0.262042175534
0.169692212641
1.26431582149
0.480594968644
0.255256040516
0.165985993875
0.120947809414
0.448403516062
0.240348582551
0.160234935857
0.118870529974
0.0933805936014
1.24773256067
1.2547229372
0.49120042089
1.26274227048
0.491661413736
0.266283115983
1.26858245909
0.491682617389
0.265069828483
0.171875461106
1.27069515056
0.489487775629
0.262042175575
0.16969221607
0.122719905843
0.480594964617
0.255256040673
0.165985993738
0.12094780923
0.0941060233481
0.240348577642
0.160234935946
0.118870529951
0.0933805943108
0.075943780484
1.24225661089
1.24773253177
0.490631575562
1.25472293865
0.491200413588
0.266798721706
1.26274226942
0.491661413696
0.26628311742
0.173029072655
1.26858247395
0.491682617563
0.265069828241
0.171875463704
0.123989734527
0.489487768
0.262042175533
0.169692216085
0.122719906808
0.0949158084613
0.255256033145
0.165985993875
0.120947809121
0.094106022885
0.076223095011
0.160234932236
0.118870529974
0.0933805943033
0.0759437810764
0.0632555187551
1.23803809572
1.24225657683
0.490348314141
1.2477325336
0.490631565624
0.267093963179
1.25472293721
0.491200413619
0.266798720798
0.173622039271
1.26274228574
0.491661413737
0.266283117255
0.17302907429
0.124784720677
0.491682616973
0.265069828483
0.171875463556
0.123989735446
0.0955848080841
0.262042167612
0.16969221607
0.122719906804
0.0949158085823
0.0765871073288
0.165985992309
0.12094780923
0.0941060228151
0.0762230949097
0.0633775553664
0.118870528766
0.0933805943108
0.075943781077
0.0632555198138
0.0536225784988
1.23472272774
1.23803805982
0.490204562466
1.24225657848
0.490348302092
0.267409296638
1.24773253177
0.490631565598
0.267093960459
0.173965407744
1.25472296238
0.491200413587
0.266798720638
0.173622039871
0.125234559164
0.491661416223
0.266283117421
0.173029074142
0.124784721421
0.0960631596325
0.265069824452
0.171875463704
0.123989735358
0.0955848081614
0.0769231184833
0.169692212641
0.122719906808
0.094915808575
0.0765871073202
0.0635481421031
0.120947809414
0.094106022885
0.0762230948663
0.0633775550784
0.0536811868977
0.0933805936014
0.0759437810764
0.0632555198315
0.0536225794584
0.0460741971124
1.23214493815
1.2347226908
0.490100272173
1.23803806152
0.490204549618
0.267754777317
1.24225657683
0.490348301984
0.267409292386
0.17424797933
1.24773256068
0.490631565622
0.267093960244
0.173965407344
0.125485974067
0.491200420893
0.266798720798
0.173622039714
0.125234559592
0.0963558024329
0.266283115985
0.17302907429
0.124784721315
0.0960631597099
0.0771926433877
0.171875461106
0.123989735446
0.0955848081044
0.0769231183166
0.0637163254178
0.122719905843
0.0949158085823
0.0765871073142
0.0635481420153
0.0537670776762
0.0941060233481
0.0762230949097
0.0633775550416
0.0536811866845
0.0461055070088
0.075943780484
0.0632555198138
0.0536225794808
0.046074197856
0.0400135395761
1.23002019522
1.23214490062
0.490035017039
1.23472269234
0.49010025866
0.268121598542
1.23803805982
0.490204549513
0.267754772241
0.174526345738
1.24225661089
0.490348302092
0.267409292092
0.174247977937
0.125657239946
0.490631575555
0.267093960458
0.173965407145
0.125485974072
0.0965166625029
0.266798721706
0.173622039871
0.125234559469
0.0963558024638
0.0773694051012
0.173029072655
0.124784721421
0.0960631596364
0.0771926431833
0.063865146393
0.123989734527
0.0955848081614
0.0769231182767
0.0637163252122
0.0538545745126
0.0949158084613
0.0765871073202
0.0635481420083
0.0537670775755
0.0461513630115
0.076223095011
0.0633775550784
0.0536811866552
0.0461055068555
0.0400322544556
0.0632555187551
0.0536225794584
0.0460741978781
0.040013540122
0.0350522399877
1.22824925149
1.23002015745
0.489944118203
1.23214490201
0.490035003193
0.268474122947
1.23472269081
0.490100258499
0.268121592764
0.174826164938
1.23803809569
0.49020454962
0.267754771916
0.174526343695
0.125804250383
0.490348314138
0.267409292387
0.174247977673
0.125657239442
0.0966050212194
0.267093963176
0.173965407344
0.125485973915
0.0965166623948
0.0774679310253
0.173622039271
0.125234559592
0.09635580237
0.0773694048888
0.063969616663
0.124784720677
0.0960631597099
0.0771926431312
0.0638651461242
0.0539376987898
0.0955848080841
0.0769231183166
0.0637163251819
0.0538545743219
0.046199722652
0.0765871073288
0.0635481420153
0.0537670775678
0.0461513629083
0.0400579691695
0.0633775553664
0.0536811866845
0.0461055068316
0.0400322543404
0.0350644932651
0.0536225784988
0.046074197856
0.0400135401421
0.035052240378
0.0309262524525
1.22672501729
1.22824921362
0.48983848701
1.23002015861
0.489944104114
0.268794632262
1.23214490062
0.490035003013
0.268474116802
0.175134577827
1.23472272775
0.490100258659
0.268121592369
0.174826162323
0.125960554585
0.490204562471
0.267754772241
0.174526343392
0.125804249482
0.0966605935752
0.267409296639
0.174247977938
0.125657239237
0.0966050208945
0.0775087455694
0.173965407743
0.125485974072
0.0965166622741
0.0774679307739
0.0640314749639
0.125234559163
0.0963558024638
0.0773694048151
0.0639696163624
0.0540002685984
0.0960631596326
0.0771926431833
0.0638651460851
0.053937698538
0.0462474890236
0.0769231184833
0.0637163252122
0.0538545742971
0.0461997224802
0.0400861033716
0.0635481421031
0.0537670775755
0.0461513628995
0.0400579690645
0.0350797538247
0.0536811868977
0.0461055068555
0.0400322543204
0.0350644931811
0.0309347139008
0.0460741971124
0.040013540122
0.0350522403955
0.0309262527251
0.0274496351444
1.22538676946
1.22672497944
0.489709944826
1.22824921454
0.489838472788
0.269086673756
1.23002015745
0.489944103883
0.268794625805
0.175438533971
1.23214493816
0.490035003191
0.268474116374
0.175134574858
0.126133188457
0.490100272177
0.268121592764
0.174826161955
0.125960553318
0.0967127599584
0.267754777319
0.174526343695
0.125804249238
0.0966605930345
0.0775172724136
0.174247979331
0.125657239442
0.0966050207377
0.0775087452275
0.0640479696951
0.125485974067
0.0965166623948
0.0774679306804
0.064031474648
0.0540414711033
0.0963558024329
0.0773694048888
0.0639696163014
0.0540002682977
0.0462861291541
0.0771926433877
0.0638651461242
0.0539376985065
0.0462474888053
0.0401145707378
0.0637163254178
0.0538545743219
0.0461997224586
0.0400861032163
0.0350966788565
0.0537670776762
0.0461513629083
0.040057969054
0.0350797537239
0.030944383824
0.0461055070088
0.0400322543404
0.0350644931643
0.0309347138457
0.0274556234563
0.0400135395761
0.035052240378
0.0309262527397
0.0274496353286
0.0244876301012
1.22418602934
1.22538673167
0.48956066054
1.22672498005
0.489709930559
0.269339093043
1.22824921363
0.4898384725
0.269086667092
0.175737813814
1.23002019519
0.489944104117
0.268794625333
0.175438530704
0.126316631851
0.490035017026
0.268474116802
0.175134574448
0.126133186921
0.0967755212035
0.268121598541
0.174826162322
0.125960553022
0.0967127592327
0.0775159591637
0.174526345738
0.125804249482
0.0966605928391
0.0775172719531
0.0640410296143
0.125657239946
0.0966050208945
0.0775087451027
0.0640479693147
0.0540495967307
0.0965166625029
0.0774679307739
0.0640314745749
0.0540414707839
0.0463147952352
0.0773694051012
0.0639696163624
0.0540002682454
0.0462861288864
0.0401392102919
0.063865146393
0.053937698538
0.0462474887777
0.0401145705492
0.0351142003313
0.0538545745126
0.0461997224802
0.0400861031972
0.0350966787188
0.0309548916671
0.0461513630115
0.0400579690645
0.0350797537118
0.0309443837351
0.0274621239687
0.0400322544556
0.0350644931811
0.0309347138316
0.0274556234273
0.0244919241375
0.0350522399877
0.0309262527251
0.0274496353405
0.0244876302199
0.0219401952381
1.22311258759
1.22418599178
0.48939511441
1.22538673205
0.489560646249
0.269552343863
1.22672497944
0.48970993021
0.269339086262
0.176018809411
1.2282492515
0.489838472788
0.269086666575
0.175737810348
0.126510972519
0.489944118207
0.268794625806
0.175438530239
0.126316630091
0.0968500373328
0.268474122944
0.175134574858
0.126133186581
0.0967755202967
0.0775155733366
0.174826164937
0.125960553318
0.0967127590024
0.0775159586469
0.0640216171385
0.125804250383
0.0966605930345
0.0775172717923
0.0640410292041
0.0540416495615
0.0966050212195
0.0775087452275
0.0640479692055
0.0540495963599
0.0463227435103
0.0774679310253
0.064031474648
0.0540414707236
0.0463147949441
0.0401591768915
0.063969616663
0.0540002682977
0.0462861288406
0.0401392100642
0.0351302889699
0.0539376987898
0.0462474888053
0.0401145705233
0.0351142001705
0.030965892497
0.046199722652
0.0400861032163
0.0350966787013
0.0309548915507
0.0274689164998
0.0400579691695
0.0350797537239
0.0309443837219
0.0274621238972
0.0244964776125
0.0350644932651
0.0309347138457
0.0274556234156
0.0244919241309
0.0219433123376
0.0309262524525
0.0274496353286
0.0244876302293
0.0219401953091
0.0197315098667
1.22213777687
1.22311255009
0.489224397493
1.22418599184
0.489395100131
0.269729717599
1.22538673166
0.489560645858
0.269552336996
0.176280821325
1.22672501732
0.489709930556
0.269339085702
0.176018805808
0.126707878937
0.489838487022
0.269086667092
0.175737809842
0.126510970596
0.0969379274913
0.268794632266
0.175438530704
0.1263166297
0.0968500362889
0.0775200952945
0.175134577826
0.126133186921
0.0967755200222
0.0775155726896
0.0639923992978
0.125960554585
0.0967127592328
0.0775159584684
0.0640216166849
0.0540211188331
0.096660593575
0.0775172719531
0.0640410290798
0.054041649178
0.0463176410626
0.0775087455694
0.0640479693147
0.054049596266
0.0463227431763
0.0401688228755
0.0640314749639
0.0540414707839
0.0463147948913
0.0401591766406
0.035144006385
0.0540002685984
0.0462861288864
0.0401392100236
0.035130288781
0.0309765332661
0.0462474890236
0.0401145705492
0.0351142001457
0.0309658923652
0.0274759474098
0.0400861033716
0.0350966787188
0.0309548915344
0.0274689164081
0.0245010655619
0.0350797538247
0.0309443837351
0.0274621238837
0.0244964775607
0.0219465825068
0.0309347139008
0.0274556234273
0.0244919241214
0.0219433123492
0.0197338042396
0.0274496351444
0.0244876302199
0.0219401953162
0.0197315099038
0.017803062068
1.22125105501
1.22213773971
0.489046169749
1.22311254985
0.48922438324
0.269878953768
1.22418599178
0.489395099642
0.269729710677
0.17652094534
1.22538676944
0.489560646251
0.269552336407
0.176280817611
0.126903773057
0.489709944816
0.269339086261
0.176018805261
0.126707876896
0.0970381078112
0.269086673757
0.175737810348
0.126510970164
0.0969379263395
0.077533521846
0.175438533972
0.126316630091
0.0968500359745
0.0775200945983
0.0639637977676
0.126133188457
0.0967755202968
0.0775155724634
0.0639923987857
0.0539872833817
0.0967127599584
0.077515958647
0.0640216165357
0.0540211184258
0.0463032896044
0.0775172724134
0.0640410292041
0.0540416490735
0.0463176407194
0.0401670119495
0.0640479696951
0.0540495963599
0.046322743095
0.0401688225903
0.0351537633035
0.0540414711033
0.0463147949441
0.0401591765922
0.0351440061757
0.0309859640381
0.0462861291541
0.0401392100642
0.0351302887446
0.0309765331144
0.0274829975764
0.0401145707378
0.0351142001705
0.0309658923419
0.0274759473086
0.0245056849274
0.0350966788565
0.0309548915507
0.0274689163929
0.0245010654959
0.0219497989275
0.030944383824
0.0274621238972
0.0244964775476
0.0219465824749
0.0197361914405
0.0274556234563
0.0244919241309
0.0219433123416
0.019733804265
0.0178047747677
0.0244876301012
0.0219401953091
0.019731509909
0.017803062082
0.016108971196
1.22043857463
1.22125101805
0.488866467086
1.22213773908
0.489046155609
0.270000135367
1.22311255009
0.489224382672
0.26987894682
0.176741059648
1.22418602932
0.489395100134
0.269729710031
0.176520941557
0.127095688561
0.489560660533
0.269552336996
0.176280817026
0.126903770916
0.0971466853617
0.269339093039
0.176018805808
0.12670787642
0.0970381065662
0.0775608618164
0.175737813814
0.126510970596
0.0969379259893
0.0775335210849
0.0639390454709
0.126316631852
0.0968500362889
0.0775200943504
0.0639637972218
0.0539495175135
0.0967755212037
0.0775155726897
0.0639923986047
0.0539872829458
0.0462761651983
0.0775159591637
0.0640216166849
0.0540211183002
0.0463032892455
0.0401594006788
0.0640410296142
0.0540416491781
0.0463176406291
0.0401670116558
0.0351551697246
0.0540495967307
0.0463227431763
0.04016882252
0.0351537630732
0.0309938933177
0.0463147952352
0.0401591766406
0.0351440061298
0.0309859638709
0.0274895060495
0.0401392102919
0.035130288781
0.0309765330814
0.0274829974616
0.0245103555035
0.0351142003313
0.0309658923652
0.0274759472871
0.0245056848571
0.0219529430709
0.0309548916671
0.0274689164081
0.0245010654819
0.0219497988862
0.0197385076527
0.0274621239687
0.0244964775607
0.0219465824626
0.0197361914268
0.0178065407307
0.0244919241375
0.0219433123492
0.0197338042593
0.0178047748027
0.0161102657623
0.0219401952381
0.0197315099038
0.0178030620856
0.0161089711951
0.0146127489297
1.21968945594
1.22043853812
0.488685353974
1.22125101717
0.488866452985
0.270099119688
1.2221377397
0.48904615494
0.270000128446
0.176939285414
1.22311258764
0.489224383237
0.269878946135
0.176741055818
0.127281110046
0.489395114423
0.269729710678
0.176520940923
0.127095686357
0.097261996191
0.269552343865
0.176280817612
0.126903770405
0.097146684045
0.077598349323
0.17601880941
0.126707876896
0.097038106172
0.077560860978
0.0639224584262
0.126510972519
0.0969379263395
0.0775335208049
0.063939044895
0.0539110094606
0.0968500373327
0.0775200945983
0.063963797015
0.0539495170605
0.0462424662762
0.0775155733367
0.0639923987857
0.053987282796
0.046276164823
0.0401426288724
0.0640216171385
0.0540211184258
0.046303289138
0.040159400375
0.0351522789702
0.0540416495615
0.0463176407194
0.0401670115763
0.0351551694797
0.0309979701948
0.0463227435103
0.0401688225903
0.0351537630152
0.0309938931385
0.0274953501112
0.0401591768915
0.0351440061757
0.0309859638283
0.0274895059236
0.0245148373296
0.0351302889699
0.0309765331144
0.027482997432
0.0245103554247
0.0219560731062
0.030965892497
0.0274759473086
0.0245056848378
0.0219529430296
0.0197407213656
0.0274689164998
0.0245010654959
0.0219497988737
0.0197385076335
0.0178082407052
0.0244964776125
0.0219465824749
0.0197361914157
0.0178065407326
0.0161115882695
0.0219433123376
0.019733804265
0.0178047747988
0.0161102658033
0.0146137375598
0.0197315098667
0.017803062082
0.0161089711972
0.0146127489198
0.0132850093078
1.21900221908
1.21968941969
0.488505414321
1.22043853684
0.488685340046
0.27017808384
1.22125101805
0.488866452252
0.270099112765
0.177118264519
1.22213777686
0.489046155606
0.270000127704
0.176939281576
0.127456958068
0.489224397499
0.269878946819
0.17674105515
0.127281107795
0.0973807207437
0.269729717603
0.176520941557
0.127095685796
0.0972619948285
0.0776462733367
0.176280821326
0.126903770916
0.0971466836158
0.0775983484459
0.0639141924145
0.126707878938
0.0970381065663
0.0775608606536
0.0639224578198
0.0538754731725
0.0969379274912
0.0775335210849
0.0639390446615
0.0539110089935
0.0462049550618
0.0775200952944
0.0639637972218
0.0539495168873
0.0462424658935
0.0401179519565
0.0639923992979
0.0539872829458
0.0462761646954
0.0401426285555
0.0351442056203
0.0540211188332
0.0463032892455
0.0401594002824
0.0351522787219
0.0309975717026
0.0463176410626
0.0401670116558
0.0351551694048
0.0309979700028
0.0274997752938
0.0401688228755
0.0351537630732
0.0309938930882
0.0274953499793
0.0245189974681
0.035144006385
0.0309859638709
0.0274895058853
0.0245148372433
0.0219591396185
0.0309765332661
0.0274829974616
0.0245103553987
0.0219560730608
0.0197428707417
0.0274759474098
0.0245056848571
0.0219529430128
0.0197407213499
0.0178098416513
0.0245010655619
0.0219497988862
0.0197385076226
0.0178082407045
0.0161128546612
0.0219465825068
0.0197361914268
0.0178065407229
0.0161115882837
0.0146147391868
0.0197338042396
0.0178047748027
0.0161102658009
0.0146137376034
0.0132857705787
0.017803062068
0.0161089711951
0.014612748921
0.0132850092935
0.0121018185552
1.21836761725
1.21900218336
0.488330269129
1.21968941811
0.488505400507
0.270240197633
1.22043853812
0.488685339182
0.270178076988
0.177278991515
1.22125105499
0.488866452989
0.270099111989
0.177118260666
0.127623805193
0.489046169729
0.270000128446
0.176939280864
0.1274569558
0.0974998402426
0.269878953767
0.176741055818
0.127281107204
0.0973807193464
0.0777012312311
0.176520945341
0.127095686356
0.0972619943566
0.0776462724361
0.0639157799578
0.126903773057
0.097146684045
0.0775983480882
0.0639141917827
0.0538441300487
0.0970381078114
0.077560860978
0.0639224575576
0.0538754726973
0.0461665688571
0.077533521846
0.063939044895
0.0539110087973
0.0462049546737
0.0400882895155
0.0639637977675
0.0539495170605
0.0462424657464
0.0401179516375
0.0351290282143
0.0539872833817
0.046276164823
0.0401426284442
0.0351442053653
0.030994642925
0.0463032896045
0.040159400375
0.0351522786403
0.0309975715089
0.0275015368569
0.0401670119495
0.0351551694797
0.0309979699368
0.0274997751542
0.0245226364749
0.0351537633035
0.0309938931385
0.0274953499342
0.0245189973797
0.0219620621487
0.0309859640381
0.0274895059236
0.0245148372101
0.021959139569
0.0197449724606
0.0274829975764
0.0245103554247
0.0219560730384
0.0197428707257
0.0178113609153
0.0245056849274
0.0219529430296
0.0197407213359
0.0178098416568
0.0161140359797
0.0219497989275
0.0197385076335
0.0178082406954
0.016112854675
0.0146156947222
0.0197361914405
0.0178065407326
0.0161115882757
0.0146147392099
0.0132865367561
0.0178047747677
0.0161102658033
0.0146137376023
0.0132857706221
0.0121024087185
0.016108971196
0.0146127489198
0.0132850092939
0.0121018185395
0.011043485187
1.21777871496
1.21836758176
0.488158461422
1.21900218148
0.488330255444
0.270289239066
1.21968941971
0.488505399565
0.270240190833
0.177422980476
1.22043857461
0.488685340047
0.270178076154
0.177278987688
0.1277806385
0.488866467087
0.270099112766
0.177118259924
0.127623802907
0.0976186905469
0.270000135361
0.176939281576
0.127456955169
0.097499838834
0.0777622452124
0.176741059647
0.127281107795
0.0973807188451
0.0777012303116
0.0639229770513
0.127095688561
0.0972619948285
0.0776462720461
0.0639157793207
0.0538192356036
0.0971466853616
0.0775983484459
0.0639141914827
0.0538441295646
0.0461288507636
0.0775608618166
0.0639224578198
0.0538754724787
0.0461665684709
0.0400555738358
0.0639390454709
0.0539110089935
0.0462049545075
0.0400882891958
0.0351088770276
0.0539495175135
0.0462424658935
0.0401179515109
0.0351290279576
0.0309874843145
0.0462761651983
0.0401426285555
0.0351442052704
0.0309946427295
0.0275009527558
0.0401594006788
0.0351522787219
0.0309975714368
0.0275015367149
0.0245251882421
0.0351551697246
0.0309979700028
0.0274997750994
0.0245226363836
0.0219647746133
0.0309938933177
0.0274953499793
0.0245189973403
0.0219620620996
0.0197470088445
0.0274895060495
0.0245148372433
0.0219591395411
0.0197449724435
0.0178128229331
0.0245103555035
0.0219560730608
0.0197428707071
0.0178113609234
0.0161151382179
0.0219529430709
0.0197407213499
0.0178098416457
0.0161140360015
0.0146165804401
0.0197385076527
0.0178082407045
0.0161128546678
0.0146156947465
0.0132872659184
0.0178065407307
0.0161115882837
0.0146147392037
0.0132865367848
0.0121029998019
0.0161102657623
0.0146137376034
0.013285770622
0.0121024087597
0.0110439452724
0.0146127489297
0.0132850092935
0.0121018185394
0.0110434851717
0.0100936590021
1.21722982326
1.21777868017
0.487990359486
1.21836757959
0.488158447878
0.270325988982
1.21900218335
0.48833025443
0.270289232333
0.177552470106
1.21968945599
0.488505400505
0.270240189956
0.177422976672
0.127927464979
0.488685353991
0.270178076987
0.177278986911
0.127780636226
0.0977355643428
0.270099119693
0.177118260666
0.127623802246
0.0976186891238
0.0778281037193
0.176939285412
0.1274569558
0.0974998382956
0.077762244291
0.0639387496022
0.127281110046
0.0973807193464
0.0777012298961
0.0639229764092
0.0537994641047
0.0972619961908
0.0776462724361
0.0639157790033
0.053819235123
0.0460938838906
0.0775983493229
0.0639141917827
0.0538441293193
0.0461288503781
0.0400211739348
0.0639224584262
0.0538754726973
0.046166568286
0.0400555735219
0.0350849131199
0.0539110094607
0.0462049546737
0.0400882890539
0.0351088767723
0.030975567795
0.0462424662761
0.0401179516375
0.0351290278489
0.0309874841179
0.0274984481176
0.0401426288724
0.0351442053653
0.0309946426484
0.0275009526148
0.0245261123603
0.0351522789702
0.0309975715089
0.0275015366498
0.0245251881489
0.0219670769202
0.0309979701948
0.0274997751542
0.0245226363373
0.0219647745646
0.0197489552447
0.0274953501112
0.0245189973797
0.0219620620664
0.0197470088297
0.017814240568
0.0245148373296
0.021959139569
0.0197449724208
0.0178128229428
0.0161161786258
0.0219560731062
0.0197428707257
0.0178113609089
0.0161151382445
0.0146173971685
0.0197407213656
0.0178098416568
0.0161140359932
0.0146165804734
0.0132879391212
0.0178082407052
0.016112854675
0.0146156947411
0.0132872659493
0.0121035617132
0.0161115882695
0.0146147392099
0.0132865367804
0.0121029998335
0.0110444045714
0.0146137375598
0.0132857706221
0.0121024087604
0.01104394531
0.010094019385
0.0132850093078
0.0121018185395
0.0110434851713
0.0100936589883
0.00923865064933
1.21671896974
1.21722978897
0.487826505744
1.21777867765
0.487990346213
0.270352576291
1.21836758178
0.488158446759
0.270325982317
0.177667974975
1.2190022191
0.488330255445
0.270289231421
0.177552466349
0.128064804064
0.488505414322
0.270240190832
0.17742297586
0.127927462716
0.09784984169
0.270178083843
0.177278987688
0.127780635534
0.097735562933
0.0778974122152
0.177118264522
0.127623802907
0.0976186885573
0.0778281027907
0.0639610677888
0.127456958068
0.097499838834
0.0777622438397
0.063938748963
0.053786242712
0.0973807207437
0.0777012303116
0.0639229760676
0.0537994636268
0.0460618782655
0.0776462733367
0.0639157793207
0.0538192348555
0.0460938835148
0.0399867197832
0.0639141924145
0.0538441295646
0.0461288501738
0.0400211736262
0.0350581186371
0.0538754731725
0.0461665684709
0.0400555733645
0.0350849128716
0.0309601108846
0.0462049550618
0.0400882891958
0.0351088766508
0.0309755676009
0.0274928494868
0.0401179519565
0.0351290279576
0.0309874840242
0.0274984479784
0.0245256241085
0.0351442056202
0.0309946427295
0.0275009525448
0.0245261122702
0.0219686761613
0.0309975717026
0.0275015367149
0.0245251880953
0.0219670768719
0.0197507433255
0.0274997752938
0.0245226363836
0.021964774526
0.0197489552323
0.0178156152276
0.0245189974681
0.0219620620996
0.0197470088029
0.0178142405815
0.0161171760763
0.0219591396185
0.0197449724435
0.0178128229252
0.0161161786561
0.0146181553041
0.0197428707417
0.0178113609234
0.0161151382338
0.0146173972081
0.0132885547944
0.0178098416513
0.0161140360015
0.0146165804678
0.0132879391617
0.0121040795321
0.0161128546612
0.0146156947465
0.0132872659456
0.0121035617475
0.0110448412508
0.0146147391868
0.0132865367848
0.0121029998306
0.0110444046036
0.010094378456
0.0132857705787
0.0121024087597
0.0110439453114
0.0100940194183
0.00923893408796
0.0121018185552
0.0110434851717
0.0100936589878
0.00923865063754
0.0084669112174
1.21623935598
1.21671893585
0.487667575791
1.21722978614
0.487826492564
0.270370198494
1.21777868017
0.487990344986
0.270352569753
0.177771363114
1.21836761719
0.488158447882
0.270325981362
0.177667971252
0.128192276304
0.488330269116
0.270289232334
0.17755246551
0.128064801837
0.09796032844
0.270240197628
0.177422976672
0.127927461994
0.0978498402885
0.077969094284
0.177278991514
0.127780636226
0.0977355623355
0.0778974113041
0.0639894856039
0.127623805194
0.0976186891237
0.077828102315
0.0639610671517
0.0537783757001
0.0974998402427
0.077762244291
0.0639387485855
0.0537862422483
0.0460340064357
0.0777012312312
0.0639229764092
0.0537994633414
0.0460618778974
0.0399529712309
0.0639157799577
0.053819235123
0.0460938832907
0.0399867194869
0.0350296198125
0.0538441300487
0.0461288503781
0.0400211734539
0.0350581183958
0.030941645935
0.0461665688571
0.0400555735219
0.0350849127375
0.0309601106978
0.0274841143931
0.0400882895155
0.0351088767723
0.0309755674972
0.0274928493506
0.0245237723644
0.0351290282143
0.0309874841179
0.0274984479008
0.0245256240209
0.0219692722793
0.030994642925
0.0275009526148
0.0245261122088
0.0219686761152
0.0197522595777
0.0275015368569
0.0245251881489
0.0219670768281
0.0197507433155
0.0178169245186
0.0245226364749
0.0219647745646
0.0197489552014
0.0178156152449
0.0161181433468
0.0219620621487
0.0197470088297
0.0178142405611
0.0161171761116
0.0146188704474
0.0197449724606
0.0178128229428
0.0161161786433
0.0146181553487
0.0132891190426
0.0178113609153
0.0161151382445
0.0146173972009
0.0132885548418
0.0121045505165
0.0161140359797
0.0146165804734
0.0132879391584
0.0121040795758
0.0110452436835
0.0146156947222
0.0132872659493
0.0121035617453
0.0110448412858
0.0100947202379
0.0132865367561
0.0121029998335
0.011044404602
0.0100943784869
0.00923921624396
0.0121024087185
0.01104394531
0.01009401942
0.00923893411669
0.00846713493266
0.011043485187
0.0100936589883
0.00923865063693
0.00846691120774
0.00776862958911
1.21579232978
1.21623932278
0.487513225919
1.21671893277
0.487667562845
0.270380560503
1.21722978894
0.487826491267
0.270370192014
0.177863397138
1.21777871504
0.487990346203
0.270352568753
0.177771359465
0.128310893036
0.488158461443
0.270325982317
0.177667970388
0.128192274097
0.0980665138732
0.270289239066
0.17755246635
0.128064801089
0.097960327066
0.0780415068945
0.177422980474
0.127927462717
0.0978498396649
0.0779690933838
0.0640221622813
0.127780638499
0.097735562933
0.077897410799
0.0639894849898
0.0537777736936
0.0976186905469
0.0778281027907
0.0639610667557
0.0537783752426
0.0460098898975
0.0777622452125
0.063938748963
0.0537862419363
0.0460340060858
0.0399209928561
0.0639229770514
0.0537994636268
0.0460618776579
0.039952970945
0.0350001996493
0.0538192356036
0.0460938835148
0.0399867192987
0.0350296195837
0.0309208361633
0.0461288507636
0.0400211736262
0.0350581182499
0.0309416457557
0.0274727800818
0.0400555738358
0.0350849128716
0.030960110584
0.0274841142635
0.0245197689361
0.0351088770276
0.0309755676009
0.0274928492629
0.0245237722808
0.0219689554368
0.0309874843145
0.0274984479784
0.0245256239558
0.0219692722388
0.0197533306813
0.0275009527558
0.0245261122702
0.0219686760661
0.0197522595708
0.0178181289254
0.0245251882421
0.0219670768719
0.0197507432808
0.0178169245395
0.0161190794686
0.0219647746133
0.0197489552323
0.0178156152215
0.0161181433869
0.0146195569166
0.0197470088445
0.0178142405815
0.0161171760971
0.014618870498
0.0132896429421
0.0178128229331
0.0161161786561
0.0146181553404
0.0132891190959
0.0121049781595
0.0161151382179
0.0146173972081
0.0132885548378
0.0121045505674
0.0110456086374
0.0146165804401
0.0132879391617
0.0121040795745
0.0110452437274
0.0100950357469
0.0132872659184
0.0121035617475
0.0110448412849
0.0100947202716
0.00923948535781
0.0121029998019
0.0110444046036
0.0100943784864
0.00923921627253
0.00846735760932
0.0110439452724
0.0100940194183
0.00923893411849
0.00846713495683
0.00776880672043
0.0100936590021
0.00923865063754
0.00846691120716
0.00776862958143
0.00713541758873
1.21537233828
1.21579229718
0.487364645903
1.21623931942
0.487513213218
0.270384215663
1.21671893588
0.48766756146
0.270380554156
0.17794552005
1.21722982324
0.48782649257
0.270370190981
0.177863393533
0.128420721522
0.487990359494
0.270352569751
0.177771358573
0.128310890881
0.0981685294894
0.270325988992
0.177667971251
0.128192273329
0.0980665125195
0.078114146797
0.177552470108
0.128064801837
0.0979603264189
0.0780415060202
0.0640580698572
0.127927464979
0.0978498402886
0.0779690928557
0.0640221616803
0.0537805169706
0.0977355643424
0.0778974113041
0.0639894845666
0.0537777732647
0.04599073612
0.0778281037192
0.0639610671516
0.0537783749147
0.046009889559
0.0398910243012
0.0639387496022
0.0537862422483
0.0460340058265
0.039920992589
0.0349707298011
0.0537994641048
0.0460618778974
0.0399529707439
0.035000199432
0.0308982623443
0.0460938838906
0.0399867194869
0.0350296194256
0.0309208359956
0.0274591556424
0.0400211739348
0.0350581183958
0.0309416456327
0.0274727799597
0.0245136553461
0.0350849131199
0.0309601106978
0.0274841141682
0.024519768859
0.0219677276407
0.030975567795
0.0274928493506
0.0245237722101
0.0219689553996
0.0197537985553
0.0274984481176
0.0245256240209
0.0219692721841
0.0197533306786
0.01781916093
0.0245261123603
0.0219686761152
0.0197522595325
0.0178181289504
0.0161199721039
0.0219670769202
0.0197507433155
0.0178169245134
0.016119079513
0.0146202216559
0.0197489552447
0.0178156152449
0.0161181433705
0.0146195569726
0.0132901384156
0.017814240568
0.0161171761116
0.0146188704888
0.0132896430017
0.0121053700091
0.0161161786258
0.0146181553487
0.0132891190914
0.0121049782165
0.0110459379078
0.0146173971685
0.0132885548418
0.0121045505661
0.0110456086883
0.010095321698
0.0132879391212
0.0121040795758
0.0110452437277
0.0100950357887
0.00923973453143