/*--------------------------------*- C++ -*----------------------------------*\
| =========                 |                                                 |
| \\      /  F ield         | OpenFOAM: The Open Source CFD Toolbox           |
|  \\    /   O peration     | Version:  2206                                  |
|   \\  /    A nd           | Website:  www.openfoam.com                      |
|    \\/     M anipulation  |                                                 |
\*---------------------------------------------------------------------------*/
FoamFile
{
    version     2.0;
    format      ascii;
    arch        "LSB;label=64;scalar=64";
    class       volScalarField;
    location    "0.4/water";
    object      alphat.gas;
}
// * * * * * * * * * * * * * * * * * * * * * * * * * * * * * * * * * * * * * //

dimensions      [1 -1 -1 0 0 0 0];

internalField   nonuniform List<scalar> 
23300
(
1.09049661935e-07
1.14440688713e-07
1.23093912269e-07
1.3271480901e-07
1.42521917234e-07
1.52323087773e-07
1.62064880272e-07
1.7172465651e-07
1.81286758306e-07
1.90737926273e-07
2.00065311758e-07
2.09256687604e-07
2.18300088151e-07
2.27183963272e-07
2.35897399027e-07
2.44429821324e-07
2.52771603194e-07
2.60913460123e-07
2.68847273187e-07
2.76565334176e-07
2.84061189535e-07
2.91328825042e-07
2.9836345633e-07
3.051607502e-07
3.11717546908e-07
3.18031135834e-07
3.24099878655e-07
3.2992253236e-07
3.35498794611e-07
3.40828687708e-07
3.45913038478e-07
3.5075289774e-07
3.55349942536e-07
3.59705913512e-07
3.63822947528e-07
3.67703044425e-07
3.71348404205e-07
3.74761035454e-07
3.77943246267e-07
3.80897471472e-07
3.8362685955e-07
3.86135064133e-07
3.88426577533e-07
3.90506192726e-07
3.92379036133e-07
3.94049933912e-07
3.95523544622e-07
3.96803985463e-07
3.97895247212e-07
3.98801073309e-07
3.9952548974e-07
4.00072603855e-07
4.00446803637e-07
4.00652108394e-07
4.00691998045e-07
4.00568705754e-07
4.00283363567e-07
3.99835937628e-07
3.99226099432e-07
3.98453626486e-07
3.97519038977e-07
3.96423065903e-07
3.95166157819e-07
3.93747521702e-07
3.92165468744e-07
3.90418994515e-07
3.88510810255e-07
3.86448387448e-07
3.84242001291e-07
3.81888443135e-07
3.7938024547e-07
3.76747574565e-07
3.74016280942e-07
3.71197095867e-07
3.68294329143e-07
3.65311028814e-07
3.62249973735e-07
3.59113728333e-07
3.55904772151e-07
3.52625447248e-07
3.49278041493e-07
3.45864732774e-07
3.42387652672e-07
3.38848835867e-07
3.3525027526e-07
3.31593878988e-07
3.27881518255e-07
3.24114985391e-07
3.20296034145e-07
3.16426342e-07
3.12507551826e-07
3.08541241151e-07
3.04528961834e-07
3.00472207029e-07
2.96372442657e-07
2.92231073281e-07
2.88049473342e-07
2.83828961351e-07
2.79570835109e-07
2.75276350632e-07
2.70946753378e-07
2.6658325425e-07
2.62187054595e-07
2.57759321498e-07
2.53301211199e-07
2.48813848307e-07
2.44298352178e-07
2.39755823407e-07
2.35187372525e-07
2.30594108531e-07
2.25977163638e-07
2.21337681757e-07
2.1667684268e-07
2.11995855255e-07
2.07295984681e-07
2.02578551322e-07
1.97844962041e-07
1.93096716518e-07
1.88335446204e-07
1.83562932271e-07
1.7878115538e-07
1.73992331122e-07
1.69198980753e-07
1.64403998884e-07
1.59610762246e-07
1.54823252572e-07
1.50046235993e-07
1.45285490065e-07
1.40548130199e-07
1.35843054542e-07
1.31181590043e-07
1.26578425086e-07
1.22053005562e-07
1.17631536577e-07
1.13349064818e-07
1.09247125037e-07
1.05359912776e-07
1.0188178016e-07
1.02161469284e-07
1.30467495973e-07
3.68292975774e-08
3.85951565744e-08
4.11516780294e-08
4.39503842277e-08
4.68466034213e-08
4.97914230095e-08
5.27601092298e-08
5.57361903007e-08
5.87075060929e-08
6.16642699828e-08
6.45983036491e-08
6.75022027296e-08
7.03691346948e-08
7.31923709781e-08
7.59653778159e-08
7.86815233203e-08
8.13343276339e-08
8.39172665564e-08
8.6424094875e-08
8.88486841205e-08
9.11853371902e-08
9.34286222748e-08
9.55736592067e-08
9.7615955315e-08
9.95516593724e-08
1.01377385745e-07
1.03090421798e-07
1.04688541058e-07
1.06170180926e-07
1.07534259827e-07
1.08780332117e-07
1.09908411835e-07
1.10919113505e-07
1.11813490542e-07
1.12593155544e-07
1.13260104021e-07
1.1381677118e-07
1.14265808598e-07
1.14610088499e-07
1.14852508179e-07
1.14996062742e-07
1.15043780447e-07
1.14998878885e-07
1.14864734386e-07
1.14644970212e-07
1.14343348564e-07
1.13963777858e-07
1.13510183187e-07
1.12986495683e-07
1.12396559211e-07
1.11744198117e-07
1.11033277729e-07
1.10267877639e-07
1.09452346416e-07
1.08591301322e-07
1.07689454323e-07
1.06751400731e-07
1.0578134281e-07
1.04782895848e-07
1.03759030724e-07
1.02712263048e-07
1.01644950114e-07
1.00559524943e-07
9.94585912252e-08
9.83447902652e-08
9.72200383082e-08
9.60846976214e-08
9.49378066145e-08
9.37730956901e-08
9.2588010532e-08
9.14019947379e-08
9.02199640887e-08
8.90367665786e-08
8.78519818816e-08
8.66668564878e-08
8.5482642574e-08
8.43004860162e-08
8.31214445845e-08
8.19464882196e-08
8.07765142714e-08
7.96123446458e-08
7.8454737666e-08
7.73043840994e-08
7.61619179434e-08
7.50279135429e-08
7.39028948065e-08
7.27873312534e-08
7.16816441043e-08
7.05862027729e-08
6.95013314172e-08
6.84273083199e-08
6.73643718131e-08
6.63127185717e-08
6.52725054645e-08
6.42438464509e-08
6.3226813644e-08
6.22214371041e-08
6.12277077804e-08
6.02455794502e-08
5.92749703671e-08
5.83157637299e-08
5.73678065458e-08
5.64309095048e-08
5.55048453381e-08
5.45893502392e-08
5.36841236268e-08
5.27888326556e-08
5.19031140105e-08
5.10265803752e-08
5.0158822101e-08
4.92994143444e-08
4.8447919478e-08
4.76038971823e-08
4.67669093438e-08
4.59365338214e-08
4.51123719079e-08
4.42940659039e-08
4.34813086421e-08
4.26738643833e-08
4.18715800345e-08
4.10744088202e-08
4.02824213404e-08
3.94958296987e-08
3.87149960324e-08
3.79404549372e-08
3.71729168336e-08
3.64132860146e-08
3.56626565623e-08
3.49223242893e-08
3.41937762615e-08
3.34787016912e-08
3.27789919299e-08
3.20968197364e-08
3.14350397086e-08
3.07998024716e-08
3.02181372595e-08
2.9864428327e-08
3.10325947825e-08
4.33950514916e-08
9.81260184812e-08
2.61430790111e-08
2.64234224032e-08
2.68118065826e-08
2.72383321683e-08
2.76853240281e-08
2.81464044901e-08
2.86174482401e-08
2.90946498625e-08
2.95744861611e-08
3.00534033877e-08
3.05280520968e-08
3.09950642083e-08
3.14512996781e-08
3.18936609382e-08
3.23193164041e-08
3.27255365341e-08
3.31098929685e-08
3.34701109598e-08
3.38042454624e-08
3.41105420349e-08
3.43875866218e-08
3.4634170561e-08
3.4849419805e-08
3.50326661583e-08
3.51835596616e-08
3.53019435181e-08
3.53879506271e-08
3.54418838895e-08
3.54643030175e-08
3.54559140385e-08
3.54176499882e-08
3.5350572543e-08
3.52559509163e-08
3.51351758754e-08
3.49898276743e-08
3.48215801783e-08
3.46322282896e-08
3.44235600989e-08
3.41973499303e-08
3.39552446886e-08
3.369879796e-08
3.34294384871e-08
3.31485654206e-08
3.28575546331e-08
3.2557830829e-08
3.22508331085e-08
3.19380272989e-08
3.16208371886e-08
3.13006321784e-08
3.09786810453e-08
3.06561970982e-08
3.03343952745e-08
3.00146190474e-08
2.96984238674e-08
2.93876241826e-08
2.90842162341e-08
2.87902146782e-08
2.8507431598e-08
2.82373523739e-08
2.79812043761e-08
2.77402053551e-08
2.75157991752e-08
2.73096650056e-08
2.71233282371e-08
2.69573785483e-08
2.68109576058e-08
2.66822194176e-08
2.65692760631e-08
2.64742491252e-08
2.64006982793e-08
2.63358009113e-08
2.62718972683e-08
2.62088932359e-08
2.61468197402e-08
2.60857128741e-08
2.60256066093e-08
2.5966525522e-08
2.59084915807e-08
2.58515184908e-08
2.5795618307e-08
2.57407960566e-08
2.56870558787e-08
2.56343959904e-08
2.55828143728e-08
2.55323041801e-08
2.54828588499e-08
2.54344678493e-08
2.53871211558e-08
2.5340805499e-08
2.52955083967e-08
2.5251214965e-08
2.52079113842e-08
2.51655820698e-08
2.51242124506e-08
2.50837865609e-08
2.50442893318e-08
2.50057047939e-08
2.49680179548e-08
2.49312135211e-08
2.48952771917e-08
2.48601947531e-08
2.482595276e-08
2.47925380799e-08
2.47599380619e-08
2.47281406129e-08
2.46971339022e-08
2.46669070089e-08
2.46374491388e-08
2.46087507764e-08
2.45808022944e-08
2.45535955767e-08
2.45271220374e-08
2.45013748139e-08
2.447634621e-08
2.44520304826e-08
2.44284206626e-08
2.44055119792e-08
2.43832980045e-08
2.43617747183e-08
2.43409359492e-08
2.43207781658e-08
2.43012951949e-08
2.42824837386e-08
2.42643373324e-08
2.42468526315e-08
2.42300226687e-08
2.42138439395e-08
2.4198309135e-08
2.4183415015e-08
2.41691552399e-08
2.4155530701e-08
2.41425530955e-08
2.41303242618e-08
2.41195021231e-08
2.41145614415e-08
2.41466323484e-08
2.44398407789e-08
2.6683488461e-08
4.27314437095e-08
9.92913429764e-08
2.44543598159e-08
2.45031779548e-08
2.45666424909e-08
2.4634509439e-08
2.47045305332e-08
2.47757494042e-08
2.4847519987e-08
2.49190840073e-08
2.49898011316e-08
2.5058915508e-08
2.51257817233e-08
2.51896690274e-08
2.52499630457e-08
2.53059976992e-08
2.53572347194e-08
2.5403117639e-08
2.54432279166e-08
2.54771563092e-08
2.55046374307e-08
2.55254327649e-08
2.55394455959e-08
2.55466122072e-08
2.55470010178e-08
2.55407109201e-08
2.55279577877e-08
2.55089790431e-08
2.54841100589e-08
2.5453695411e-08
2.54181580125e-08
2.53779177748e-08
2.53334552652e-08
2.52852383365e-08
2.52337815544e-08
2.51795801036e-08
2.51231626973e-08
2.50650277499e-08
2.50056847038e-08
2.49455901154e-08
2.48851820027e-08
2.48248275656e-08
2.47648654829e-08
2.47055748525e-08
2.46472236772e-08
2.45900454764e-08
2.4534276285e-08
2.44801256953e-08
2.44277992213e-08
2.43774684726e-08
2.43292880574e-08
2.42833751141e-08
2.42398316472e-08
2.41987394807e-08
2.41601844019e-08
2.41242505394e-08
2.40910258729e-08
2.40605798654e-08
2.4032948996e-08
2.40081155832e-08
2.39860113655e-08
2.39665367795e-08
2.39495928248e-08
2.39351010784e-08
2.39229962152e-08
2.39131935905e-08
2.39055447238e-08
2.38998297539e-08
2.38958042252e-08
2.38934656136e-08
2.38931576785e-08
2.38936722743e-08
2.38943594294e-08
2.38951696086e-08
2.38960932684e-08
2.38971244871e-08
2.38982546128e-08
2.38994780019e-08
2.39007862304e-08
2.39021737896e-08
2.39036325018e-08
2.39051569843e-08
2.39067393665e-08
2.39083744286e-08
2.39100546822e-08
2.39117751204e-08
2.39135287061e-08
2.39153106929e-08
2.39171145485e-08
2.39189358229e-08
2.39207685256e-08
2.39226085308e-08
2.39244504178e-08
2.3926290407e-08
2.39281236626e-08
2.39299467585e-08
2.39317554443e-08
2.39335466435e-08
2.39353166838e-08
2.39370628311e-08
2.39387819822e-08
2.39404717326e-08
2.3942129531e-08
2.39437532787e-08
2.39453409498e-08
2.394689072e-08
2.39484010587e-08
2.39498703813e-08
2.39512976219e-08
2.39526813998e-08
2.39540210851e-08
2.39553154621e-08
2.39565643059e-08
2.3957766522e-08
2.39589222593e-08
2.39600304995e-08
2.39610917365e-08
2.39621049843e-08
2.39630710567e-08
2.3963988958e-08
2.39648597995e-08
2.39656825347e-08
2.39664585506e-08
2.39671867147e-08
2.39678686801e-08
2.39685032225e-08
2.39690922716e-08
2.39696345569e-08
2.39701323561e-08
2.39705845593e-08
2.39709940917e-08
2.39713609237e-08
2.39716920573e-08
2.39720075474e-08
2.39724366374e-08
2.39738102532e-08
2.39818091037e-08
2.40361753204e-08
2.44240247336e-08
2.72902673624e-08
4.64934716007e-08
1.06631507146e-07
2.4148786498e-08
2.41581494977e-08
2.41693061924e-08
2.41805110521e-08
2.41915951784e-08
2.42023992854e-08
2.42128673002e-08
2.4222798705e-08
2.42320990138e-08
2.4240564925e-08
2.42481004165e-08
2.4254519167e-08
2.42597362999e-08
2.42635986373e-08
2.42660484119e-08
2.4266977191e-08
2.42663668207e-08
2.42641612088e-08
2.4260388379e-08
2.42550458711e-08
2.42482072599e-08
2.42399183316e-08
2.42302913339e-08
2.42194102485e-08
2.42074153322e-08
2.4194416359e-08
2.41805693739e-08
2.41659973297e-08
2.41508604995e-08
2.41352841134e-08
2.41194232914e-08
2.41033973464e-08
2.40873496906e-08
2.40713882872e-08
2.40556402218e-08
2.40401972626e-08
2.40251645399e-08
2.40106110617e-08
2.39966137147e-08
2.39832146464e-08
2.39704626225e-08
2.39583778094e-08
2.39469892839e-08
2.3936304423e-08
2.39263400226e-08
2.39170947632e-08
2.3908574329e-08
2.39007680171e-08
2.38936695374e-08
2.38872587818e-08
2.38815194087e-08
2.38764255612e-08
2.38719555679e-08
2.38680815642e-08
2.38647781751e-08
2.38620142848e-08
2.38597581377e-08
2.38579730291e-08
2.385662167e-08
2.38556665251e-08
2.38550723748e-08
2.38548072787e-08
2.38548406614e-08
2.38551441967e-08
2.38556884624e-08
2.38564471307e-08
2.38573961652e-08
2.38585295509e-08
2.38598194334e-08
2.38612397411e-08
2.38627765371e-08
2.38644232398e-08
2.38661705178e-08
2.38680119641e-08
2.38699384159e-08
2.387194369e-08
2.38740189475e-08
2.3876158264e-08
2.3878353192e-08
2.38805980759e-08
2.3882884913e-08
2.38852083368e-08
2.38875608409e-08
2.38899373733e-08
2.38923309674e-08
2.38947369117e-08
2.38971488131e-08
2.3899562321e-08
2.39019716388e-08
2.39043727911e-08
2.39067605895e-08
2.39091314404e-08
2.39114807667e-08
2.39138053556e-08
2.39161012361e-08
2.39183655679e-08
2.3920594973e-08
2.39227869679e-08
2.3924938749e-08
2.39270481672e-08
2.39291129699e-08
2.39311313156e-08
2.39331014746e-08
2.3935021881e-08
2.39368912972e-08
2.39387083959e-08
2.39404723987e-08
2.39421821778e-08
2.39438373805e-08
2.39454370368e-08
2.39469811873e-08
2.39484689767e-08
2.39499008078e-08
2.39512758959e-08
2.39525949778e-08
2.39538572961e-08
2.39550638959e-08
2.39562140057e-08
2.39573089553e-08
2.39583479194e-08
2.39593324879e-08
2.3960261745e-08
2.39611375225e-08
2.39619587901e-08
2.3962727608e-08
2.39634428472e-08
2.39641068224e-08
2.39647184135e-08
2.3965280328e-08
2.39657922301e-08
2.39662608703e-08
2.39667089947e-08
2.39672917967e-08
2.39690282202e-08
2.39789221067e-08
2.40461297852e-08
2.45261909538e-08
2.80457772728e-08
5.03924957581e-08
1.15650409101e-07
2.4088511733e-08
2.40906588234e-08
2.40927490127e-08
2.40943804066e-08
2.40956825361e-08
2.40966272999e-08
2.40972654026e-08
2.40974992277e-08
2.40973448857e-08
2.40967048966e-08
2.40955868065e-08
2.40939086134e-08
2.4091682755e-08
2.40888476583e-08
2.4085427283e-08
2.40813847566e-08
2.40767597922e-08
2.40715406458e-08
2.40657835032e-08
2.40594988256e-08
2.40527565044e-08
2.4045583742e-08
2.40380590824e-08
2.40302199227e-08
2.40221477058e-08
2.40138837487e-08
2.400550716e-08
2.3997058074e-08
2.39886092936e-08
2.39801962518e-08
2.39718829509e-08
2.3963698146e-08
2.39556958834e-08
2.39478975002e-08
2.39403468332e-08
2.39330576677e-08
2.39260636303e-08
2.39193709629e-08
2.39130033588e-08
2.39069602208e-08
2.39012567081e-08
2.38958873332e-08
2.38908610093e-08
2.38861694556e-08
2.388181705e-08
2.38777938013e-08
2.38741002995e-08
2.38707252744e-08
2.38676660562e-08
2.38649105926e-08
2.38624537363e-08
2.38602833726e-08
2.38583927344e-08
2.38567701473e-08
2.38554076662e-08
2.38542940972e-08
2.38534205009e-08
2.3852776242e-08
2.38523518792e-08
2.38521377602e-08
2.38521245199e-08
2.38523035789e-08
2.38526656172e-08
2.38532027136e-08
2.38539054268e-08
2.38547663959e-08
2.38557767655e-08
2.3856929767e-08
2.38582145593e-08
2.3859624236e-08
2.38611496247e-08
2.38627842309e-08
2.38645187826e-08
2.38663468652e-08
2.38682593596e-08
2.38702500353e-08
2.38723100731e-08
2.38744334815e-08
2.38766118316e-08
2.38788394023e-08
2.38811082196e-08
2.38834128607e-08
2.38857458588e-08
2.38881021166e-08
2.38904747165e-08
2.38928589114e-08
2.38952483647e-08
2.38976386999e-08
2.39000241823e-08
2.39024008196e-08
2.39047634898e-08
2.3907108591e-08
2.39094316158e-08
2.39117293515e-08
2.39139978995e-08
2.3916234427e-08
2.39184356314e-08
2.3920599043e-08
2.39227219356e-08
2.39248021803e-08
2.39268376028e-08
2.39288263872e-08
2.39307668832e-08
2.39326575545e-08
2.39344972433e-08
2.39362846562e-08
2.39380190939e-08
2.39396994659e-08
2.39413254977e-08
2.39428962596e-08
2.39444118684e-08
2.39458715116e-08
2.39472756651e-08
2.39486235897e-08
2.39499160908e-08
2.39511524586e-08
2.39523338006e-08
2.39534593949e-08
2.3954530624e-08
2.39555467119e-08
2.39565092886e-08
2.39574174842e-08
2.39582731459e-08
2.39590752716e-08
2.39598259081e-08
2.39605239218e-08
2.39611715414e-08
2.39617675597e-08
2.39623144939e-08
2.39628118632e-08
2.39632667045e-08
2.39637059749e-08
2.39643145798e-08
2.39663189118e-08
2.39781600846e-08
2.40591574767e-08
2.46381477116e-08
2.88432649702e-08
5.43759071631e-08
1.25427507817e-07
2.40752124376e-08
2.40760167872e-08
2.40765144059e-08
2.40765361632e-08
2.40762609841e-08
2.40756711518e-08
2.40748353373e-08
2.40736727148e-08
2.40722113135e-08
2.40703688388e-08
2.40681693453e-08
2.40655436561e-08
2.40625174358e-08
2.40590410066e-08
2.40551479021e-08
2.40508090739e-08
2.4046068941e-08
2.40409179439e-08
2.4035410987e-08
2.40295543463e-08
2.40234103754e-08
2.40169959852e-08
2.40103766311e-08
2.4003574477e-08
2.3996653826e-08
2.39896376388e-08
2.39825858157e-08
2.39755190859e-08
2.39684909771e-08
2.39615183405e-08
2.39546474778e-08
2.39478907799e-08
2.3941287268e-08
2.39348449879e-08
2.39285960945e-08
2.39225447492e-08
2.39167168228e-08
2.39111131473e-08
2.39057539361e-08
2.39006373155e-08
2.3895778568e-08
2.38911738302e-08
2.38868342253e-08
2.38827545521e-08
2.38789424131e-08
2.38753917218e-08
2.38721070335e-08
2.38690816823e-08
2.38663175813e-08
2.3863807738e-08
2.38615518244e-08
2.385954274e-08
2.38577782799e-08
2.3856251361e-08
2.38549581645e-08
2.38538916338e-08
2.38530465419e-08
2.38524158788e-08
2.38519932983e-08
2.38517719383e-08
2.38517446149e-08
2.38519045844e-08
2.38522438982e-08
2.38527557621e-08
2.38534315409e-08
2.38542644925e-08
2.38552464155e-08
2.3856369796e-08
2.38576243026e-08
2.38590033261e-08
2.38604976185e-08
2.38621006358e-08
2.38638031414e-08
2.38655986846e-08
2.38674781928e-08
2.38694353842e-08
2.3871461481e-08
2.3873550428e-08
2.38756938368e-08
2.38778859205e-08
2.38801187508e-08
2.38823868438e-08
2.38846827857e-08
2.38870014257e-08
2.38893359063e-08
2.38916814364e-08
2.38940317452e-08
2.38963824219e-08
2.38987278027e-08
2.39010638703e-08
2.39033855781e-08
2.39056893081e-08
2.39079706325e-08
2.3910226331e-08
2.39124525882e-08
2.39146465719e-08
2.39168050648e-08
2.39189256058e-08
2.39210055564e-08
2.39230428029e-08
2.39250352609e-08
2.39269811355e-08
2.39288788673e-08
2.39307269466e-08
2.39325243066e-08
2.39342696852e-08
2.39359624738e-08
2.39376016173e-08
2.39391869308e-08
2.39407175233e-08
2.3942193599e-08
2.39436143873e-08
2.39449804478e-08
2.39462910854e-08
2.39475471837e-08
2.39487480796e-08
2.39498949506e-08
2.3950987123e-08
2.39520260394e-08
2.39530109723e-08
2.39539435989e-08
2.39548230926e-08
2.39556513306e-08
2.39564273502e-08
2.39571532045e-08
2.39578277805e-08
2.39584532673e-08
2.39590284627e-08
2.395955582e-08
2.3960034982e-08
2.39604736643e-08
2.39609037762e-08
2.39615439259e-08
2.39638463185e-08
2.39778058632e-08
2.40736742267e-08
2.47584208386e-08
2.96806218255e-08
5.85042791289e-08
1.35594974945e-07
2.40713958713e-08
2.40719983754e-08
2.40722950972e-08
2.40721624008e-08
2.40717841687e-08
2.40711444842e-08
2.40703066775e-08
2.40691805367e-08
2.40677925512e-08
2.40660536586e-08
2.40639811529e-08
2.40615022371e-08
2.40586383776e-08
2.40553365496e-08
2.40516277679e-08
2.4047481081e-08
2.40429395687e-08
2.40379928344e-08
2.4032695141e-08
2.40270523413e-08
2.40211262349e-08
2.40149330963e-08
2.4008537402e-08
2.40019600976e-08
2.39952638992e-08
2.39884699915e-08
2.39816362618e-08
2.39747814254e-08
2.39679569417e-08
2.3961177809e-08
2.39544885634e-08
2.39479002157e-08
2.39414505567e-08
2.39351468904e-08
2.39290207705e-08
2.39230763e-08
2.39173393818e-08
2.39118114366e-08
2.3906513257e-08
2.39014440493e-08
2.38966200034e-08
2.38920385553e-08
2.3887711801e-08
2.38836358344e-08
2.38798191572e-08
2.3876256893e-08
2.38729543954e-08
2.38699061016e-08
2.38671146148e-08
2.38645739139e-08
2.38622842334e-08
2.38602392809e-08
2.38584372692e-08
2.38568717412e-08
2.38555391514e-08
2.38544328908e-08
2.38535478802e-08
2.38528774005e-08
2.38524151607e-08
2.38521544672e-08
2.38520881326e-08
2.38522094823e-08
2.38525105082e-08
2.38529843828e-08
2.38536223624e-08
2.3854417647e-08
2.38553622571e-08
2.3856447977e-08
2.38576644454e-08
2.38590050217e-08
2.38604604371e-08
2.38620240725e-08
2.38636867149e-08
2.38654418502e-08
2.38672804477e-08
2.38691961591e-08
2.38711802542e-08
2.3873226606e-08
2.38753268781e-08
2.38774752115e-08
2.38796637357e-08
2.38818868992e-08
2.38841373526e-08
2.38864098858e-08
2.38886977124e-08
2.38909959912e-08
2.38932985294e-08
2.38956008762e-08
2.38978974514e-08
2.39001842084e-08
2.3902456189e-08
2.39047097567e-08
2.39069405766e-08
2.39091454199e-08
2.39113205678e-08
2.39134631887e-08
2.39155701658e-08
2.39176390468e-08
2.39196672966e-08
2.39216528183e-08
2.39235936331e-08
2.39254879698e-08
2.39273343758e-08
2.3929131371e-08
2.39308779962e-08
2.39325730237e-08
2.39342159527e-08
2.39358057667e-08
2.39373423874e-08
2.39388249661e-08
2.3940253811e-08
2.39416281965e-08
2.39429487819e-08
2.39442149197e-08
2.39454275869e-08
2.39465861698e-08
2.39476919319e-08
2.39487442495e-08
2.39497446423e-08
2.39506924337e-08
2.39515893649e-08
2.39524346589e-08
2.39532302461e-08
2.39539752142e-08
2.39546716422e-08
2.39553184616e-08
2.39559178764e-08
2.39564687376e-08
2.39569735409e-08
2.39574321291e-08
2.39578531345e-08
2.39582743021e-08
2.39589505471e-08
2.39615793078e-08
2.39778312444e-08
2.40896788808e-08
2.48870565719e-08
3.05594372008e-08
6.28227211817e-08
1.45969802451e-07
2.40696088663e-08
2.40702595164e-08
2.4070652619e-08
2.40706774469e-08
2.40705242667e-08
2.40701641296e-08
2.40696524631e-08
2.40688888631e-08
2.40678840528e-08
2.40665365605e-08
2.40648541947e-08
2.40627522683e-08
2.4060243821e-08
2.40572687038e-08
2.40538527152e-08
2.40499616454e-08
2.40456370273e-08
2.40408686334e-08
2.40357122013e-08
2.40301762011e-08
2.40243257112e-08
2.40181807372e-08
2.40118095035e-08
2.40052366227e-08
2.39985280887e-08
2.39917080562e-08
2.39848368627e-08
2.39779353892e-08
2.39710567709e-08
2.39642175347e-08
2.39574633271e-08
2.39508062774e-08
2.39442849263e-08
2.39379074609e-08
2.39317059569e-08
2.39256852584e-08
2.3919871621e-08
2.39142670951e-08
2.39088926795e-08
2.39037481068e-08
2.38988496392e-08
2.38941951381e-08
2.38897966543e-08
2.38856506159e-08
2.38817653885e-08
2.38781363538e-08
2.38747686676e-08
2.3871656965e-08
2.3868803618e-08
2.38662027605e-08
2.38638543911e-08
2.38617523395e-08
2.38598945878e-08
2.38582747577e-08
2.38568890697e-08
2.38557309395e-08
2.38547950612e-08
2.3854074712e-08
2.38535634161e-08
2.38532544699e-08
2.38531405485e-08
2.38532149428e-08
2.38534695066e-08
2.3853897312e-08
2.38544894656e-08
2.3855239087e-08
2.38561384688e-08
2.38571785745e-08
2.38583490244e-08
2.3859643151e-08
2.38610516752e-08
2.38625678863e-08
2.38641825914e-08
2.38658891926e-08
2.38676786995e-08
2.38695446814e-08
2.38714784601e-08
2.38734738264e-08
2.3875522504e-08
2.38776185543e-08
2.38797541744e-08
2.38819237392e-08
2.38841199743e-08
2.38863376045e-08
2.38885699257e-08
2.38908120425e-08
2.38930578509e-08
2.38953028572e-08
2.38975415765e-08
2.38997699308e-08
2.39019830636e-08
2.39041773182e-08
2.39063484669e-08
2.39084932715e-08
2.39106081251e-08
2.39126901971e-08
2.39147364864e-08
2.39167445517e-08
2.39187119771e-08
2.39206366851e-08
2.3922516819e-08
2.39243506339e-08
2.39261368016e-08
2.39278738745e-08
2.39295610187e-08
2.39311970447e-08
2.39327815769e-08
2.39343136415e-08
2.3935793284e-08
2.39372197021e-08
2.39385933248e-08
2.39399134755e-08
2.39411809299e-08
2.39423950918e-08
2.39435570484e-08
2.3944666239e-08
2.39457240298e-08
2.39467298517e-08
2.39476853178e-08
2.39485898068e-08
2.39494451419e-08
2.39502506053e-08
2.39510081942e-08
2.39517170546e-08
2.39523793163e-08
2.39529939777e-08
2.39535632956e-08
2.39540862028e-08
2.39545652604e-08
2.39550006026e-08
2.39554018951e-08
2.39558130127e-08
2.39565290705e-08
2.39595124139e-08
2.3978236663e-08
2.41072115249e-08
2.5024222393e-08
3.14835897825e-08
6.73592141206e-08
1.56451626387e-07
2.40682420338e-08
2.40690193337e-08
2.40696116895e-08
2.40699145853e-08
2.40701167224e-08
2.40701832762e-08
2.40701544036e-08
2.4069908581e-08
2.40694433921e-08
2.40686390068e-08
2.40674860435e-08
2.40658865223e-08
2.4063841665e-08
2.40612817786e-08
2.40582263215e-08
2.40546371177e-08
2.4050554618e-08
2.40459697486e-08
2.40409414956e-08
2.40354831154e-08
2.40296654808e-08
2.40235149466e-08
2.40171060471e-08
2.40104694789e-08
2.4003676638e-08
2.39967565382e-08
2.39897734986e-08
2.39827518857e-08
2.39757474973e-08
2.39687792303e-08
2.3961894398e-08
2.39551067219e-08
2.39484557257e-08
2.39419506793e-08
2.39356241727e-08
2.39294817833e-08
2.39235499376e-08
2.3917831164e-08
2.39123463761e-08
2.39070955978e-08
2.39020948246e-08
2.38973420838e-08
2.38928490501e-08
2.38886122468e-08
2.38846396137e-08
2.38809265882e-08
2.38774778845e-08
2.38742881691e-08
2.38713593866e-08
2.38686856949e-08
2.38662667043e-08
2.38640962659e-08
2.38621720133e-08
2.38604875645e-08
2.38590388102e-08
2.38578191214e-08
2.3856822899e-08
2.38560433757e-08
2.38554738602e-08
2.38551076138e-08
2.38549371477e-08
2.38549556923e-08
2.38551549515e-08
2.38555278839e-08
2.3856065429e-08
2.38567606233e-08
2.38576060917e-08
2.38585917945e-08
2.38597074275e-08
2.38609462866e-08
2.38622990854e-08
2.3863759009e-08
2.38653168828e-08
2.38669660097e-08
2.38686974392e-08
2.38705046454e-08
2.38723790042e-08
2.38743142154e-08
2.38763020675e-08
2.38783365363e-08
2.38804098929e-08
2.38825164344e-08
2.38846489692e-08
2.38868021544e-08
2.38889693768e-08
2.38911456846e-08
2.38933250727e-08
2.38955030035e-08
2.38976740983e-08
2.38998342479e-08
2.3901978709e-08
2.39041038061e-08
2.39062054309e-08
2.39082803382e-08
2.39103250464e-08
2.39123367289e-08
2.39143125154e-08
2.39162499784e-08
2.39181468371e-08
2.39200010368e-08
2.39218108592e-08
2.39235745901e-08
2.39252910422e-08
2.39269588053e-08
2.39285771877e-08
2.39301450429e-08
2.39316621377e-08
2.39331275455e-08
2.3934541453e-08
2.39359031085e-08
2.39372130788e-08
2.39384707409e-08
2.39396770039e-08
2.3940831327e-08
2.39419349253e-08
2.39429872945e-08
2.39439899218e-08
2.39449422958e-08
2.3945846141e-08
2.39467008945e-08
2.39475084811e-08
2.39482682449e-08
2.39489822683e-08
2.3949649759e-08
2.39502729326e-08
2.39508508583e-08
2.39513858618e-08
2.39518769601e-08
2.3952326823e-08
2.3952735852e-08
2.39531148683e-08
2.39535147275e-08
2.39542734893e-08
2.39576404254e-08
2.39790269756e-08
2.41263245349e-08
2.51701773395e-08
3.24588952216e-08
7.21282911498e-08
1.66981608613e-07
2.40668285453e-08
2.40677866523e-08
2.40686531677e-08
2.40693303729e-08
2.40700117832e-08
2.40706429031e-08
2.40712465314e-08
2.40716802789e-08
2.40719156255e-08
2.40718098819e-08
2.40713351652e-08
2.40703735046e-08
2.40689115281e-08
2.40668676798e-08
2.40642535902e-08
2.40610267682e-08
2.40572269868e-08
2.40528476056e-08
2.40479527659e-08
2.40425629036e-08
2.40367573091e-08
2.4030571338e-08
2.40240882792e-08
2.40173470847e-08
2.4010426307e-08
2.40033612596e-08
2.39962212791e-08
2.3989035049e-08
2.39818615503e-08
2.39747224888e-08
2.39676670569e-08
2.39607107852e-08
2.39538942184e-08
2.39472277944e-08
2.39407445477e-08
2.3934450787e-08
2.39283729711e-08
2.3922514049e-08
2.39168946765e-08
2.39115150872e-08
2.39063908314e-08
2.3901520017e-08
2.38969137798e-08
2.38925686627e-08
2.38884920385e-08
2.38846793344e-08
2.3881134704e-08
2.3877852789e-08
2.38748350102e-08
2.38720755026e-08
2.3869573411e-08
2.38673225636e-08
2.38653201782e-08
2.38635598202e-08
2.38620369901e-08
2.38607449676e-08
2.38596778179e-08
2.38588287017e-08
2.38581906983e-08
2.38577570205e-08
2.3857520005e-08
2.38574727913e-08
2.38576069072e-08
2.385791515e-08
2.38583883138e-08
2.38590195071e-08
2.38598012898e-08
2.38607228339e-08
2.38617739031e-08
2.38629477321e-08
2.3864235026e-08
2.38656288523e-08
2.38671200562e-08
2.38687018283e-08
2.38703652586e-08
2.38721037146e-08
2.3873908629e-08
2.38757736011e-08
2.38776904893e-08
2.38796531771e-08
2.3881654016e-08
2.3883687221e-08
2.38857456909e-08
2.38878240121e-08
2.38899156715e-08
2.38920156596e-08
2.38941180802e-08
2.38962183516e-08
2.38983112126e-08
2.39003925237e-08
2.3902457667e-08
2.39045029499e-08
2.39065243972e-08
2.39085187592e-08
2.39104826943e-08
2.39124133833e-08
2.39143081016e-08
2.39161644398e-08
2.39179802682e-08
2.39197535594e-08
2.39214827501e-08
2.39231661618e-08
2.39248027652e-08
2.39263911924e-08
2.39279309117e-08
2.39294208241e-08
2.39308608566e-08
2.39322501345e-08
2.39335890031e-08
2.3934876766e-08
2.39361141461e-08
2.39373005776e-08
2.39384371217e-08
2.39395232963e-08
2.3940560463e-08
2.39415481774e-08
2.39424880657e-08
2.3943379677e-08
2.39442248656e-08
2.39450231307e-08
2.39457765164e-08
2.39464844275e-08
2.39471490564e-08
2.39477696782e-08
2.39483486069e-08
2.39488849823e-08
2.39493812056e-08
2.39498363932e-08
2.39502533111e-08
2.39506326951e-08
2.39509865985e-08
2.39513731581e-08
2.3952177954e-08
2.39559595587e-08
2.39802083046e-08
2.41470782404e-08
2.53252621586e-08
3.34926705114e-08
7.71348393917e-08
1.77523520262e-07
2.40650925786e-08
2.40662899764e-08
2.40675187278e-08
2.40686903572e-08
2.40699951561e-08
2.40713636731e-08
2.40727912551e-08
2.40741008213e-08
2.40752374964e-08
2.40760276388e-08
2.40764152033e-08
2.40762593013e-08
2.40755275691e-08
2.40741235951e-08
2.40720498747e-08
2.40692590503e-08
2.40657911343e-08
2.40616436212e-08
2.40568884899e-08
2.4051556541e-08
2.4045738957e-08
2.40394835019e-08
2.40328852657e-08
2.40259940533e-08
2.40188975627e-08
2.40116389543e-08
2.40042936124e-08
2.39968953196e-08
2.39895066781e-08
2.39821525689e-08
2.39748842055e-08
2.39677190936e-08
2.3960698797e-08
2.39538349801e-08
2.39471610341e-08
2.39406839866e-08
2.39344301893e-08
2.39284029574e-08
2.39226225261e-08
2.39170892634e-08
2.39118181142e-08
2.39068071936e-08
2.39020669544e-08
2.38975938896e-08
2.38933946744e-08
2.38894646563e-08
2.38858073118e-08
2.38824171954e-08
2.38792951102e-08
2.38764351161e-08
2.38738358152e-08
2.38714909598e-08
2.38693972786e-08
2.38675482268e-08
2.38659388525e-08
2.38645623034e-08
2.38634122807e-08
2.38624818536e-08
2.38617638549e-08
2.38612514219e-08
2.38609366831e-08
2.38608126368e-08
2.38608706062e-08
2.38611032249e-08
2.38615011886e-08
2.3862057769e-08
2.38627649809e-08
2.38636115777e-08
2.38645872715e-08
2.38656852461e-08
2.38668961929e-08
2.3868213053e-08
2.38696266899e-08
2.38711301723e-08
2.38727146298e-08
2.3874373315e-08
2.38760977173e-08
2.38778813304e-08
2.38797160834e-08
2.38815957647e-08
2.38835128094e-08
2.38854613493e-08
2.38874343784e-08
2.38894264134e-08
2.38914310473e-08
2.38934432152e-08