/*--------------------------------*- C++ -*----------------------------------*\
| =========                 |                                                 |
| \\      /  F ield         | OpenFOAM: The Open Source CFD Toolbox           |
|  \\    /   O peration     | Version:  2206                                  |
|   \\  /    A nd           | Website:  www.openfoam.com                      |
|    \\/     M anipulation  |                                                 |
\*---------------------------------------------------------------------------*/
FoamFile
{
    version     2.0;
    format      ascii;
    arch        "LSB;label=64;scalar=64";
    class       volScalarField;
    location    "0.4/water";
    object      alpha.gas_0;
}
// * * * * * * * * * * * * * * * * * * * * * * * * * * * * * * * * * * * * * //

dimensions      [0 0 0 0 0 0 0];

internalField   nonuniform List<scalar> 
23300
(
1e-15
1e-15
1e-15
1e-15
1e-15
1e-15
1e-15
1e-15
1e-15
1e-15
1e-15
1e-15
1e-15
1e-15
1e-15
1e-15
1e-15
1e-15
1e-15
1e-15
1e-15
1e-15
1e-15
1e-15
1e-15
1e-15
1e-15
1e-15
1e-15
1e-15
1e-15
1e-15
1e-15
1e-15
1e-15
1e-15
1e-15
1e-15
1e-15
1e-15
1e-15
1e-15
1e-15
1e-15
1e-15
1e-15
1e-15
1e-15
1e-15
1e-15
1e-15
1e-15
1e-15
1e-15
1e-15
1e-15
1e-15
1e-15
1e-15
1e-15
1e-15
1e-15
1e-15
1e-15
1e-15
1e-15
1e-15
1e-15
1e-15
1e-15
1e-15
1e-15
1e-15
1e-15
1e-15
1e-15
1e-15
1e-15
1e-15
1e-15
1e-15
1e-15
1e-15
1e-15
1e-15
1e-15
1e-15
1e-15
1e-15
1e-15
1e-15
1e-15
1e-15
1e-15
1e-15
1e-15
1e-15
1e-15
1e-15
1e-15
1e-15
1e-15
1e-15
1e-15
1e-15
1e-15
1e-15
1e-15
1e-15
1e-15
1e-15
1e-15
1e-15
1e-15
1e-15
1e-15
1e-15
1e-15
1e-15
1e-15
1e-15
1e-15
1e-15
1e-15
1e-15
1e-15
1e-15
1e-15
1e-15
1e-15
1e-15
1e-15
1e-15
1e-15
1e-15
1e-15
1e-15
1e-15
1e-15
1e-15
1e-15
1e-15
1e-15
1e-15
1e-15
1e-15
1e-15
1e-15
1e-15
1e-15
1e-15
1e-15
1e-15
1e-15
1e-15
1e-15
1e-15
1e-15
1e-15
1e-15
1e-15
1e-15
1e-15
1e-15
1e-15
1e-15
1e-15
1e-15
1e-15
1e-15
1e-15
1e-15
1e-15
1e-15
1e-15
1e-15
1e-15
1e-15
1e-15
1e-15
1e-15
1e-15
1e-15
1e-15
1e-15
1e-15
1e-15
1e-15
1e-15
1e-15
1e-15
1e-15
1e-15
1e-15
1e-15
1e-15
1e-15
1e-15
1e-15
1e-15
1e-15
1e-15
1e-15
1e-15
1e-15
1e-15
1e-15
1e-15
1e-15
1e-15
1e-15
1e-15
1e-15
1e-15
1e-15
1e-15
1e-15
1e-15
1e-15
1e-15
1e-15
1e-15
1e-15
1e-15
1e-15
1e-15
1e-15
1e-15
1e-15
1e-15
1e-15
1e-15
1e-15
1e-15
1e-15
1e-15
1e-15
1e-15
1e-15
1e-15
1e-15
1e-15
1e-15
1e-15
1e-15
1e-15
1e-15
1e-15
1e-15
1e-15
1e-15
1e-15
1e-15
1e-15
1e-15
1e-15
1e-15
1e-15
1e-15
1e-15
1e-15
1e-15
1e-15
1e-15
1e-15
1e-15
1e-15
1e-15
1e-15
1e-15
1e-15
1e-15
1e-15
1e-15
1e-15
1e-15
1e-15
1e-15
1e-15
1e-15
1e-15
1e-15
1e-15
1e-15
1e-15
1e-15
1e-15
1e-15
1e-15
1e-15
1e-15
1e-15
1e-15
1e-15
1e-15
1e-15
1e-15
1e-15
1e-15
1e-15
1e-15
1e-15
1e-15
1e-15
1e-15
1e-15
1e-15
1e-15
1e-15
1e-15
1e-15
1e-15
1e-15
1e-15
1e-15
1e-15
1e-15
1e-15
1e-15
1e-15
1e-15
1e-15
1e-15
1e-15
1e-15
1e-15
1e-15
1e-15
1e-15
1e-15
1e-15
1e-15
1e-15
1e-15
1e-15
1e-15
1e-15
1e-15
1e-15
1e-15
1e-15
1e-15
1e-15
1e-15
1e-15
1e-15
1e-15
1e-15
1e-15
1e-15
1e-15
1e-15
1e-15
1e-15
1e-15
1e-15
1e-15
1e-15
1e-15
1e-15
1e-15
1e-15
1e-15
1e-15
1e-15
1e-15
1e-15
1e-15
1e-15
1e-15
1e-15
1e-15
1e-15
1e-15
1e-15
1e-15
1e-15
1e-15
1e-15
1e-15
1e-15
1e-15
1e-15
1e-15
1e-15
1e-15
1e-15
1e-15
1e-15
1e-15
1e-15
1e-15
1e-15
1e-15
1e-15
1e-15
1e-15
1e-15
1e-15
1e-15
1e-15
1e-15
1e-15
1e-15
1e-15
1e-15
1e-15
1e-15
1e-15
1e-15
1e-15
1e-15
1e-15
1e-15
1e-15
1e-15
1e-15
1e-15
1e-15
1e-15
1e-15
1e-15
1e-15
1e-15
1e-15
1e-15
1e-15
1e-15
1e-15
1e-15
1e-15
1e-15
1e-15
1e-15
1e-15
1e-15
1e-15
1e-15
1e-15
1e-15
1e-15
1e-15
1e-15
1e-15
1e-15
1e-15
1e-15
1e-15
1e-15
1e-15
1e-15
1e-15
1e-15
1e-15
1e-15
1e-15
1e-15
1e-15
1e-15
1e-15
1e-15
1e-15
1e-15
1e-15
1e-15
1e-15
1e-15
1e-15
1e-15
1e-15
1e-15
1e-15
1e-15
1e-15
1e-15
1e-15
1e-15
1e-15
1e-15
1e-15
1e-15
1e-15
1e-15
1e-15
1e-15
1e-15
1e-15
1e-15
1e-15
1e-15
1e-15
1e-15
1e-15
1e-15
1e-15
1e-15
1e-15
1e-15
1e-15
1e-15
1e-15
1e-15
1e-15
1e-15
1e-15
1e-15
1e-15
1e-15
1e-15
1e-15
1e-15
1e-15
1e-15
1e-15
1e-15
1e-15
1e-15
1e-15
1e-15
1e-15
1e-15
1e-15
1e-15
1e-15
1e-15
1e-15
1e-15
1e-15
1e-15
1e-15
1e-15
1e-15
1e-15
1e-15
1e-15
1e-15
1e-15
1e-15
1e-15
1e-15
1e-15
1e-15
1e-15
1e-15
1e-15
1e-15
1e-15
1e-15
1e-15
1e-15
1e-15
1e-15
1e-15
1e-15
1e-15
1e-15
1e-15
1e-15
1e-15
1e-15
1e-15
1e-15
1e-15
1e-15
1e-15
1e-15
1e-15
1e-15
1e-15
1e-15
1e-15
1e-15
1e-15
1e-15
1e-15
1e-15
1e-15
1e-15
1e-15
1e-15
1e-15
1e-15
1e-15
1e-15
1e-15
1e-15
1e-15
1e-15
1e-15
1e-15
1e-15
1e-15
1e-15
1e-15
1e-15
1e-15
1e-15
1e-15
1e-15
1e-15
1e-15
1e-15
1e-15
1e-15
1e-15
1e-15
1e-15
1e-15
1e-15
1e-15
1e-15
1e-15
1e-15
1e-15
1e-15
1e-15
1e-15
1e-15
1e-15
1e-15
1e-15
1e-15
1e-15
1e-15
1e-15
1e-15
1e-15
1e-15
1e-15
1e-15
1e-15
1e-15
1e-15
1e-15
1e-15
1e-15
1e-15
1e-15
1e-15
1e-15
1e-15
1e-15
1e-15
1e-15
1e-15
1e-15
1e-15
1e-15
1e-15
1e-15
1e-15
1e-15
1e-15
1e-15
1e-15
1e-15
1e-15
1e-15
1e-15
1e-15
1e-15
1e-15
1e-15
1e-15
1e-15
1e-15
1e-15
1e-15
1e-15
1e-15
1e-15
1e-15
1e-15
1e-15
1e-15
1e-15
1e-15
1e-15
1e-15
1e-15
1e-15
1e-15
1e-15
1e-15
1e-15
1e-15
1e-15
1e-15
1e-15
1e-15
1e-15
1e-15
1e-15
1e-15
1e-15
1e-15
1e-15
1e-15
1e-15
1e-15
1e-15
1e-15
1e-15
1e-15
1e-15
1e-15
1e-15
1e-15
1e-15
1e-15
1e-15
1e-15
1e-15
1e-15
1e-15
1e-15
1e-15
1e-15
1e-15
1e-15
1e-15
1e-15
1e-15
1e-15
1e-15
1e-15
1e-15
1e-15
1e-15
1e-15
1e-15
1e-15
1e-15
1e-15
1e-15
1e-15
1e-15
1e-15
1e-15
1e-15
1e-15
1e-15
1e-15
1e-15
1e-15
1e-15
1e-15
1e-15
1e-15
1e-15
1e-15
1e-15
1e-15
1e-15
1e-15
1e-15
1e-15
1e-15
1e-15
1e-15
1e-15
1e-15
1e-15
1e-15
1e-15
1e-15
1e-15
1e-15
1e-15
1e-15
1e-15
1e-15
1e-15
1e-15
1e-15
1e-15
1e-15
1e-15
1e-15
1e-15
1e-15
1e-15
1e-15
1e-15
1e-15
1e-15
1e-15
1e-15
1e-15
1e-15
1e-15
1e-15
1e-15
1e-15
1e-15
1e-15
1e-15
1e-15
1e-15
1e-15
1e-15
1e-15
1e-15
1e-15
1e-15
1e-15
1e-15
1e-15
1e-15
1e-15
1e-15
1e-15
1e-15
1e-15
1e-15
1e-15
1e-15
1e-15
1e-15
1e-15
1e-15
1e-15
1e-15
1e-15
1e-15
1e-15
1e-15
1e-15
1e-15
1e-15
1e-15
1e-15
1e-15
1e-15
1e-15
1e-15
1e-15
1e-15
1e-15
1e-15
1.00010308725e-15
1.00000017735e-15
1.00005116667e-15
1.0000562194e-15
1.00005735052e-15
1.00006484147e-15
1.00006798823e-15
1.00007681821e-15
1.00008136421e-15
1.00009277532e-15
1.00009973231e-15
1.00011043443e-15
1.0001188563e-15
1.00013146492e-15
1.00014055683e-15
1.00015403646e-15
1.00016183026e-15
1.00017298482e-15
1.00017997032e-15
1.00019148311e-15
1.00019978029e-15
1.00021050424e-15
1.00021842905e-15
1.00022815e-15
1.00023521458e-15
1.0002437156e-15
1.00024972972e-15
1.00025711067e-15
1.00026218489e-15
1.00026837978e-15
1.00027217993e-15
1.00027751573e-15
1.00028032903e-15
1.00028433292e-15
1.00028588614e-15
1.00028854449e-15
1.00028904754e-15
1.00029082567e-15
1.00029065619e-15
1.00029160691e-15
1.00029074052e-15
1.000290931e-15
1.0002895317e-15
1.00028919677e-15
1.00028719402e-15
1.00028616936e-15
1.00028343304e-15
1.00028182829e-15
1.00027891177e-15
1.00027672652e-15
1.00027328323e-15
1.00027025219e-15
1.00026650826e-15
1.00026303819e-15
1.00025892457e-15
1.00025455083e-15
1.00024972924e-15
1.00024427041e-15
1.00023924613e-15
1.00023292933e-15
1.0002272149e-15
1.00022119104e-15
1.00021470402e-15
1.00020755197e-15
1.00019942977e-15
1.00019118983e-15
1.00018267987e-15
1.0001740107e-15
1.00016650959e-15
1.00015792442e-15
1.0001503526e-15
1.00014168077e-15
1.00013354716e-15
1.00012430954e-15
1.00011603531e-15
1.00010695021e-15
1.00009867163e-15
1.00008908421e-15
1.00008055902e-15
1.00007092361e-15
1.00006285715e-15
1.00005345332e-15
1.00004555355e-15
1.00003693303e-15
1.00003268394e-15
1.00003073126e-15
1.00002603884e-15
1.00001697395e-15
1.00000879813e-15
1.00000018863e-15
1e-15
1e-15
1e-15
1e-15
1e-15
1e-15
1e-15
1e-15
1e-15
1e-15
1e-15
1e-15
1e-15
1e-15
1e-15
1e-15
1e-15
1e-15
1e-15
1e-15
1e-15
1e-15
1e-15
1e-15
1e-15
1e-15
1e-15
1e-15
1e-15
1e-15
1e-15
1e-15
1e-15
1e-15
1e-15
1e-15
1e-15
1e-15
1e-15
1e-15
1e-15
1e-15
1e-15
1e-15
1e-15
1e-15
1e-15
1e-15
1e-15
1e-15
1.0001757076e-15
1.00002723801e-15
1.000126224e-15
1.00013096174e-15
1.00013300803e-15
1.00014055718e-15
1.00014541688e-15
1.0001555404e-15
1.00016211146e-15
1.00017478e-15
1.00018417342e-15
1.00019753794e-15
1.0002080383e-15
1.00022218928e-15
1.00023385606e-15
1.00025034947e-15
1.00026773754e-15
1.00028781103e-15
1.00030439495e-15
1.00032390292e-15
1.00034002448e-15
1.00035780949e-15
1.00037246008e-15
1.00038885674e-15
1.00040227876e-15
1.00041636157e-15
1.00042806867e-15
1.00044064076e-15
1.00045115634e-15
1.00046263232e-15
1.00047303088e-15
1.00048425685e-15
1.00049340511e-15
1.00050322676e-15
1.00051154753e-15
1.0005198328e-15
1.00052603901e-15
1.00053103573e-15
1.00053427175e-15
1.00053632297e-15
1.00053707833e-15
1.00053627786e-15
1.00053426422e-15
1.00053074585e-15
1.00052660691e-15
1.00052153593e-15
1.00051666545e-15
1.00050988384e-15
1.00050270148e-15
1.00049486389e-15
1.0004871664e-15
1.00047949124e-15
1.00047067238e-15
1.00046222367e-15
1.00045278271e-15
1.00044374436e-15
1.00043411667e-15
1.00042440106e-15
1.00041448663e-15
1.0004043762e-15
1.00039429178e-15
1.00038411458e-15
1.00037335374e-15
1.00036071087e-15
1.00035105603e-15
1.00034254436e-15
1.00033314729e-15
1.00032462293e-15
1.00031579317e-15
1.00030723118e-15
1.00029838353e-15
1.0002896896e-15
1.0002804098e-15
1.00027156923e-15
1.00026265997e-15
1.00025407423e-15
1.00024530276e-15
1.00023657141e-15
1.00022768472e-15
1.00021900046e-15
1.00021054833e-15
1.00020209023e-15
1.00019345197e-15
1.00018494847e-15
1.00017765501e-15
1.00016951524e-15
1.00016072449e-15
1.00014915622e-15
1.00013855581e-15
1.00012777161e-15
1.00011495256e-15
1.00009661362e-15
1.00008273136e-15
1.00007151928e-15
1.00005977712e-15
1.0000465122e-15
1.00003250745e-15
1.00002152731e-15
1.00000620375e-15
1e-15
1e-15
1e-15
1e-15
1e-15
1e-15
1e-15
1e-15
1e-15
1e-15
1e-15
1e-15
1e-15
1e-15
1e-15
1e-15
1e-15
1e-15
1e-15
1e-15
1e-15
1e-15
1e-15
1e-15
1e-15
1e-15
1e-15
1e-15
1e-15
1e-15
1e-15
1e-15
1e-15
1e-15
1e-15
1e-15
1e-15
1e-15
1e-15
1e-15
1.00011347667e-15
1.00041795341e-15
1.00005891075e-15
1.00027357267e-15
1.00028478577e-15
1.00028679617e-15
1.00029648227e-15
1.00030569254e-15
1.00031922537e-15
1.00033010519e-15
1.00034738285e-15
1.00036509656e-15
1.00038409187e-15
1.00039879702e-15
1.00041809694e-15
1.00043307295e-15
1.00045257014e-15
1.00047569895e-15
1.00050271104e-15
1.00052431599e-15
1.00054741538e-15
1.00056493169e-15
1.00058114976e-15
1.00059406388e-15
1.00060778759e-15
1.00061814234e-15
1.0006260327e-15
1.00063287337e-15
1.00063736696e-15
1.00064119771e-15
1.00064422038e-15
1.00064779315e-15
1.00064968273e-15
1.0006520858e-15
1.00065346983e-15
1.00065656877e-15
1.00066212078e-15
1.00066953178e-15
1.00067367711e-15
1.00067740644e-15
1.00067770627e-15
1.00067823594e-15
1.00067505817e-15
1.00067241516e-15
1.00066610644e-15
1.00066068629e-15
1.0006519133e-15
1.00064631133e-15
1.00063374385e-15
1.00062285913e-15
1.00060883292e-15
1.00059762917e-15
1.00058549351e-15
1.00057286217e-15
1.00055986531e-15
1.00054646799e-15
1.00053280926e-15
1.00051905033e-15
1.00050442524e-15
1.00049046076e-15
1.00047525394e-15
1.0004613822e-15
1.00044586466e-15
1.00043113308e-15
1.00041383356e-15
1.00040252052e-15
1.00039144218e-15
1.00038073484e-15
1.00037001096e-15
1.00035975628e-15
1.00034965222e-15
1.00033988335e-15
1.00032985992e-15
1.00032005797e-15
1.00030959565e-15
1.00030010724e-15
1.00028970629e-15
1.00028040972e-15
1.00026998788e-15
1.0002608154e-15
1.00025035596e-15
1.0002412183e-15
1.0002306909e-15
1.00022162183e-15
1.00021168034e-15
1.00020064995e-15
1.00018843209e-15
1.00017756121e-15
1.00016618769e-15
1.00015586068e-15
1.00014526745e-15
1.00013791647e-15
1.00012796169e-15
1.0001192334e-15
1.00011129627e-15
1.00010369229e-15
1.00009495941e-15
1.00008738625e-15
1.00007860061e-15
1.000070579e-15
1.00006119426e-15
1.00005480941e-15
1.00004125278e-15
1.00003484784e-15
1.00002508566e-15
1.00001406126e-15
1.00001985354e-15
1.00001912807e-15
1.00001785904e-15
1.00001646284e-15
1.00001268771e-15
1.00001354054e-15
1.00000991917e-15
1.00000819365e-15
1.00000701931e-15
1.00000119819e-15
1e-15
1e-15
1e-15
1e-15
1e-15
1e-15
1e-15
1e-15
1e-15
1e-15
1e-15
1e-15
1e-15
1e-15
1e-15
1e-15
1e-15
1e-15
1e-15
1e-15
1e-15
1e-15
1e-15
1.00009428253e-15
1.00017738749e-15
1.00110341536e-15
1.00026609203e-15
1.00079593245e-15
1.00081220947e-15
1.00081246628e-15
1.00082331187e-15
1.00083235721e-15
1.00084586678e-15
1.00085605669e-15
1.00087325046e-15
1.00089167641e-15
1.00090996002e-15
1.00092179616e-15
1.0009410263e-15
1.00095029514e-15
1.00096529848e-15
1.00097531882e-15
1.00099275033e-15
1.00099961069e-15
1.00101143178e-15
1.00101236796e-15
1.00101196363e-15
1.00100645488e-15
1.00100276996e-15
1.00099467839e-15
1.00098332579e-15
1.00097031219e-15
1.00095390891e-15
1.00093554554e-15
1.00091484196e-15
1.00089335138e-15
1.0008683457e-15
1.00084505876e-15
1.00082006875e-15
1.00079916427e-15
1.00078607301e-15
1.00078049308e-15
1.00077537045e-15
1.00077084825e-15
1.00076441477e-15
1.00075806967e-15
1.0007504986e-15
1.00074430468e-15
1.00073596299e-15
1.00072765304e-15
1.00071689263e-15
1.000707958e-15
1.000694486e-15
1.00068243593e-15
1.00066766656e-15
1.0006551154e-15
1.00064152989e-15
1.00062836423e-15
1.00061415837e-15
1.00060027695e-15
1.00058565635e-15
1.00057133895e-15
1.00055594328e-15
1.0005413779e-15
1.00052532196e-15
1.00051077292e-15
1.00049432233e-15
1.00047908907e-15
1.00046175073e-15
1.0004485165e-15
1.00043386521e-15
1.00042070531e-15
1.00040716602e-15
1.00039496587e-15
1.00038237171e-15
1.00037089153e-15
1.00035843961e-15
1.00034698516e-15
1.00033393526e-15
1.00032283977e-15
1.0003102267e-15
1.00029931179e-15
1.00028661984e-15
1.00027584605e-15
1.00026314002e-15
1.00025236246e-15
1.00023956568e-15
1.00022890934e-15
1.0002168924e-15
1.00020512935e-15
1.00019289986e-15
1.00018161788e-15
1.00016965242e-15
1.00015908147e-15
1.00014813592e-15
1.00014100047e-15
1.00013042483e-15
1.00012166978e-15
1.0001135792e-15
1.00010581642e-15
1.00009713465e-15
1.00008987511e-15
1.00008155e-15
1.00007368384e-15
1.00006507514e-15
1.00005821303e-15
1.00005138036e-15
1.00004535828e-15
1.00003899905e-15
1.00003387185e-15
1.00003062233e-15
1.00002889641e-15
1.00002657729e-15
1.00002538601e-15
1.00002414652e-15
1.00002307898e-15
1.00002187811e-15
1.00002148654e-15
1.00001936708e-15
1.00001803437e-15
1.0000159512e-15
1.0000139482e-15
1.0000113512e-15
1e-15
1e-15
1e-15
1e-15
1e-15
1e-15
1e-15
1e-15
1e-15
1e-15
1e-15
1e-15
1e-15
1e-15
1e-15
1e-15
1e-15
1e-15
1e-15
1.00002052572e-15
1.00010678218e-15
1.00022632804e-15
1.00170178719e-15
1.00078567341e-15
1.00136619641e-15
1.00137318258e-15
1.00137106828e-15
1.0013762512e-15
1.00137661717e-15
1.00138198588e-15
1.00138266955e-15
1.00138886099e-15
1.00139107652e-15
1.00139777969e-15
1.00139597578e-15
1.00140065732e-15
1.00139606727e-15
1.00139603082e-15
1.00138861065e-15
1.00138602958e-15
1.00137514253e-15
1.001367803e-15
1.00135253859e-15
1.00133700421e-15
1.00131691104e-15
1.00129741717e-15
1.00127276687e-15
1.00124788666e-15
1.0012192292e-15
1.00119130899e-15
1.00115935662e-15
1.00112590724e-15
1.00109020728e-15
1.0010515372e-15
1.00101190607e-15
1.00097001438e-15
1.00093018318e-15
1.0008974087e-15
1.00087433267e-15
1.00085669884e-15
1.00084101574e-15
1.00082624496e-15
1.00081162486e-15
1.00079870287e-15
1.00078759704e-15
1.00077613665e-15
1.00076420476e-15
1.00075161996e-15
1.00073975647e-15
1.00072711323e-15
1.00071551292e-15
1.00070205489e-15
1.00068961693e-15
1.00067650338e-15
1.00066418183e-15
1.00065052815e-15
1.00063739264e-15
1.00062369937e-15
1.00061058236e-15
1.00059646785e-15
1.00058275234e-15
1.00056778446e-15
1.00055390524e-15
1.00053860092e-15
1.00052437955e-15
1.0005088481e-15
1.00049423219e-15
1.00047699471e-15
1.00046106895e-15
1.00044571724e-15
1.00043145258e-15
1.0004165446e-15
1.0004028231e-15
1.0003877589e-15
1.00037401377e-15
1.0003587207e-15
1.00034552186e-15
1.00033079155e-15
1.00031757979e-15
1.00030304237e-15
1.0002900123e-15
1.00027540617e-15
1.00026237223e-15
1.00024774992e-15
1.00023479204e-15
1.00022067985e-15
1.0002071753e-15
1.00019360394e-15
1.00018239731e-15
1.00017276035e-15
1.00016232475e-15
1.00015078713e-15
1.00014351507e-15
1.00013266967e-15
1.00012347898e-15
1.00011485422e-15
1.00010683442e-15
1.00009796875e-15
1.00009029939e-15
1.00008191776e-15
1.00007422242e-15
1.00006551124e-15
1.00005828716e-15
1.00005016344e-15
1.0000442106e-15
1.00003745295e-15
1.00003230375e-15
1.00002892209e-15
1.00002669112e-15
1.00002403895e-15
1.00002278659e-15
1.00002119289e-15
1.00002016787e-15
1.0000190656e-15
1.00001786931e-15
1.00001619694e-15
1.00001513656e-15
1.0000129577e-15
1.00001042991e-15
1.00000893667e-15
1.00000764932e-15
1.00000554916e-15
1.00000209464e-15
1e-15
1e-15
1e-15
1e-15
1e-15
1e-15
1e-15
1e-15
1e-15
1e-15
1e-15
1e-15
1e-15
1e-15
1e-15
1e-15
1.00003372839e-15
1.00011007552e-15
1.0003432842e-15
1.00186117674e-15
1.00105854266e-15
1.00156563697e-15
1.00157130935e-15
1.00156346714e-15
1.00156747041e-15
1.00156249104e-15
1.00156571781e-15
1.0015621563e-15
1.00156376441e-15
1.00155829048e-15
1.00155896896e-15
1.00155180354e-15
1.00154749045e-15
1.00153892261e-15
1.00153137266e-15
1.00152003102e-15
1.00150928716e-15
1.00149434302e-15
1.00147934827e-15
1.00146122072e-15
1.00144352391e-15
1.00142168668e-15
1.00139901641e-15
1.0013712593e-15
1.00134465443e-15
1.00131339604e-15
1.00128522367e-15
1.00125346718e-15
1.00122214946e-15
1.00118845462e-15
1.00115426117e-15
1.00111729841e-15
1.00107926352e-15
1.00104038919e-15
1.00100440053e-15
1.00097368536e-15
1.00094896475e-15
1.00092587689e-15
1.00090541702e-15
1.00088510864e-15
1.000868167e-15
1.000852654e-15
1.00083843477e-15
1.00082375892e-15
1.00081064001e-15
1.00079816398e-15
1.00078863012e-15
1.00078009418e-15
1.00077013102e-15
1.00076009624e-15
1.00074999916e-15
1.00074041501e-15
1.000729323e-15
1.00071814566e-15
1.00070705558e-15
1.00069635528e-15
1.00068471784e-15
1.00067240283e-15
1.00065892762e-15
1.00064580892e-15
1.00063150527e-15
1.00061780431e-15
1.00060323555e-15
1.00058674605e-15
1.00056682321e-15
1.00054694439e-15
1.00052942662e-15
1.00051212e-15
1.00049430204e-15
1.0004772116e-15
1.00045864148e-15
1.00044128876e-15
1.00042270931e-15
1.0004055766e-15
1.0003864898e-15
1.00036871798e-15
1.00035076756e-15
1.00033323458e-15
1.00031456452e-15
1.00029626424e-15
1.0002772187e-15
1.00025856149e-15
1.00023950312e-15
1.00022142013e-15
1.00020293872e-15
1.00018755746e-15
1.00017492172e-15
1.000162459e-15
1.00015273822e-15
1.00014565162e-15
1.00013540456e-15
1.0001255053e-15
1.00011635808e-15
1.00010781329e-15
1.00009882161e-15
1.00009090854e-15
1.00008227049e-15
1.00007499396e-15
1.00006617276e-15
1.00005883511e-15
1.00005068737e-15
1.00004316156e-15
1.00003700905e-15
1.00003145989e-15
1.00002644312e-15
1.00002405179e-15
1.0000213123e-15
1.0000191908e-15
1.00001816938e-15
1.00001708927e-15
1.00001552858e-15
1.00001458757e-15
1.00001271123e-15
1.00001151042e-15
1.0000088947e-15
1.00000675678e-15
1.0000053541e-15
1.00000383602e-15
1.00000205012e-15
1e-15
1e-15
1e-15
1e-15
1e-15
1e-15
1e-15
1e-15
1e-15
1e-15
1e-15
1e-15
1e-15
1e-15
1e-15
1e-15
1e-15
1.00003364518e-15
1.00014075485e-15
1.00054423063e-15
1.00191866622e-15
1.00108920382e-15
1.00158431403e-15
1.00158488438e-15
1.00158582002e-15
1.00158935924e-15
1.00158841362e-15
1.00159355753e-15
1.00159164403e-15
1.00159531553e-15
1.00159140041e-15
1.0015930048e-15
1.00158851595e-15
1.00158522828e-15
1.00157951736e-15
1.00157350071e-15
1.00156457575e-15
1.00155483471e-15
1.00154179532e-15
1.0015273684e-15
1.00151139783e-15
1.00149671555e-15
1.00147739496e-15
1.00145682041e-15
1.00143136722e-15
1.00140718239e-15
1.00137822943e-15
1.00135306474e-15
1.00132572473e-15
1.00130074632e-15
1.00127367552e-15
1.00124865833e-15
1.00122101776e-15
1.00119512724e-15
1.00116800032e-15
1.00114329148e-15
1.00111889747e-15
1.00109803781e-15
1.00107676006e-15
1.00105846678e-15
1.00104022753e-15
1.00102569425e-15
1.00101092107e-15
1.00099903852e-15
1.00098676534e-15
1.00097833597e-15
1.00097141446e-15
1.00097012807e-15
1.00096962477e-15
1.00096722558e-15
1.00096374872e-15
1.0009604075e-15
1.00095629078e-15
1.00095016376e-15
1.00094231519e-15
1.00093472876e-15
1.0009264459e-15
1.00091685478e-15
1.00090505568e-15
1.00089167305e-15
1.00087748718e-15
1.00086158766e-15
1.00084531931e-15
1.00082762177e-15
1.0008058423e-15
1.00077972986e-15
1.00075244331e-15
1.00072896402e-15
1.00070514653e-15
1.00068100129e-15
1.00065703177e-15
1.00063166518e-15
1.00060707827e-15
1.00058170895e-15
1.0005573949e-15
1.0005306916e-15
1.00050551344e-15
1.00048140958e-15
1.00045693644e-15
1.00043107437e-15
1.00040382856e-15
1.00037590748e-15
1.00034683172e-15
1.00031777281e-15
1.00029038782e-15
1.00026102436e-15
1.00023273993e-15
1.00020490329e-15
1.00018220818e-15
1.00016424637e-15
1.00014965851e-15
1.0001350731e-15
1.00012649736e-15
1.00011790081e-15
1.00010928834e-15
1.00009979146e-15
1.00009201043e-15
1.00008324931e-15
1.00007572761e-15
1.00006702638e-15
1.00005967556e-15
1.00005181255e-15
1.00004399883e-15
1.00003762087e-15
1.00003153035e-15
1.00002386595e-15
1.00002137065e-15
1.00001843309e-15
1.00001607974e-15
1.00001489292e-15
1.0000129139e-15
1.00001162212e-15
1.00001127217e-15
1.00000884227e-15
1.00000751821e-15
1.00000512767e-15
1.00000319447e-15
1.00000159445e-15
1e-15
1e-15
1e-15
1e-15
1e-15
1e-15
1e-15
1e-15
1e-15
1e-15
1e-15
1e-15
1e-15
1e-15
1e-15
1e-15
1e-15
1e-15
1e-15
1.00003352144e-15
1.00023801149e-15
1.00069631754e-15
1.00208280562e-15
1.00109084995e-15
1.00157828337e-15
1.00158261371e-15
1.0015834758e-15
1.00158940631e-15
1.00159015826e-15
1.00159886357e-15
1.00160089496e-15
1.00160881784e-15
1.00160993307e-15
1.00161586756e-15
1.00161699673e-15
1.00161909582e-15
1.00161906302e-15
1.00161878976e-15
1.00161537255e-15
1.00161111937e-15
1.0016034861e-15
1.00159411991e-15
1.00158397502e-15
1.00157665151e-15
1.00156436181e-15
1.00155126507e-15
1.00153418895e-15
1.00151824349e-15
1.00149822094e-15
1.00148218959e-15
1.00146611126e-15
1.00145435782e-15
1.00144094731e-15
1.00143133965e-15
1.00141973259e-15
1.00141180811e-15
1.00140269247e-15
1.00139718621e-15
1.00138963925e-15
1.00138309215e-15
1.00137401122e-15
1.00136724782e-15
1.00136045635e-15
1.00135672034e-15
1.00135080394e-15
1.00134845717e-15
1.00134493688e-15
1.00134527504e-15
1.00134730064e-15
1.00135352991e-15
1.00135905369e-15
1.00136164503e-15
1.00136212784e-15
1.0013614416e-15
1.00135857893e-15
1.00135266013e-15
1.001343635e-15
1.00133347605e-15
1.00132109846e-15
1.00130651146e-15
1.00128905728e-15
1.00126927838e-15
1.00124748796e-15
1.00122309956e-15
1.001197179e-15
1.00116840709e-15
1.00113433182e-15
1.00109500251e-15
1.00105488681e-15
1.00101841413e-15
1.00098165728e-15
1.00094394253e-15
1.00090593456e-15
1.00086658942e-15
1.00082798051e-15
1.00079042173e-15
1.00075615239e-15
1.00072135504e-15
1.00068795528e-15
1.00065611782e-15
1.00062498035e-15
1.00059332542e-15
1.00056058682e-15
1.00052676101e-15
1.00049197819e-15
1.00045630821e-15
1.00042188758e-15
1.00038526999e-15
1.00034768026e-15
1.00030528338e-15
1.00026812587e-15
1.00022854933e-15
1.00019353561e-15
1.00015939016e-15
1.00013643803e-15
1.0001185247e-15
1.00010865237e-15
1.00009935472e-15
1.00009086418e-15
1.00008179672e-15
1.00007393347e-15
1.00006530881e-15
1.00005793602e-15
1.00005010172e-15
1.00004285969e-15
1.00003556393e-15
1.00002958984e-15
1.00002296855e-15
1.00001868563e-15
1.00001525914e-15
1.00001298647e-15
1.0000112316e-15
1.00000925044e-15
1.00000811165e-15
1.00000789349e-15
1.00000530365e-15
1.00000390401e-15
1.00000147074e-15
1e-15
1e-15
1e-15
1e-15
1e-15
1e-15
1e-15
1e-15
1e-15
1e-15
1e-15
1e-15
1e-15
1e-15
1e-15
1e-15
1e-15
1e-15
1e-15
1e-15
1e-15
1.00003326756e-15
1.00033412478e-15
1.00072489404e-15
1.00259817293e-15
1.00109249599e-15
1.00159750985e-15
1.00160382859e-15
1.00160128661e-15
1.00161233423e-15
1.00161700927e-15
1.0016307054e-15
1.00163904206e-15
1.00165476182e-15
1.00166657419e-15
1.00168287712e-15
1.0016955254e-15
1.00170910796e-15
1.00172109652e-15
1.00173448948e-15
1.00174437907e-15
1.00175465454e-15
1.00176160055e-15
1.00176664307e-15
1.00177125079e-15
1.00178042729e-15
1.00178549343e-15
1.00179115021e-15
1.00179489677e-15
1.00179891702e-15
1.00180040488e-15
1.00180509781e-15
1.00181128334e-15
1.00182172704e-15
1.0018305531e-15
1.00184229646e-15
1.00185154344e-15
1.0018624298e-15
1.00187012255e-15
1.00187894443e-15
1.00188472283e-15
1.00188945924e-15
1.00189011753e-15
1.00189107216e-15
1.0018909565e-15
1.00189194429e-15
1.00188975835e-15
1.00188943442e-15
1.00188623822e-15
1.00188345215e-15
1.00188046304e-15
1.00187721504e-15
1.0018714921e-15
1.001862888e-15
1.00185149567e-15
1.00183778444e-15
1.00182170456e-15
1.00180309215e-15
1.00178194745e-15
1.00175841551e-15
1.0017319608e-15
1.00170294732e-15
1.00167157175e-15
1.00163772344e-15
1.00160162065e-15
1.0015627942e-15
1.00152193651e-15
1.00147738332e-15
1.00142698758e-15
1.00137198722e-15
1.00131760733e-15
1.00126557596e-15
1.00121335105e-15
1.00115903719e-15
1.0011039633e-15
1.00104741046e-15
1.00099216241e-15
1.00094035583e-15
1.00089489956e-15
1.00085113652e-15
1.00080789786e-15
1.0007654901e-15
1.00072520831e-15
1.00068682746e-15
1.00065014852e-15
1.00061335492e-15
1.00057764554e-15
1.0005411846e-15
1.00050575857e-15
1.00046979426e-15
1.00043461282e-15
1.00039682202e-15
1.00036137264e-15
1.00032174094e-15
1.0002824341e-15
1.00023665466e-15
1.00018861775e-15
1.0001442243e-15
1.00011486778e-15
1.00009641028e-15
1.00008804623e-15
1.00007892272e-15
1.00007100455e-15
1.00006246911e-15
1.00005506616e-15
1.00004704918e-15
1.00004043149e-15
1.0000325788e-15
1.00002653504e-15
1.0000205701e-15
1.00001464801e-15
1.00001152494e-15
1.00000942448e-15
1.00000773839e-15
1.00000576728e-15
1.00000432705e-15
1.00000328612e-15
1.00000123034e-15
1.00000003932e-15
1e-15
1e-15
1e-15
1e-15
1e-15
1e-15
1e-15
1e-15
1e-15
1e-15
1e-15
1e-15
1e-15
1e-15
1e-15
1e-15
1e-15
1e-15
1e-15
1e-15
1e-15
1e-15
1.00003269201e-15
1.00034920023e-15
1.00073073792e-15
1.00347021349e-15
1.00109414189e-15
1.00176359386e-15
1.00177314848e-15
1.00175947572e-15
1.00176952378e-15
1.00177780868e-15
1.00179860804e-15
1.00181751783e-15
1.00184790909e-15
1.00188320055e-15
1.0019240234e-15
1.00196067886e-15
1.00199468086e-15
1.00203127456e-15
1.00207426683e-15
1.00211413913e-15
1.00215623073e-15
1.0021950149e-15
1.00222971186e-15
1.00226414378e-15
1.00230148477e-15
1.00233478783e-15
1.00236828421e-15
1.00240034453e-15
1.00242925455e-15
1.00245546862e-15
1.00248298719e-15
1.00251111123e-15
1.00253719124e-15
1.00255889098e-15
1.00257950735e-15
1.00259398039e-15
1.0026031985e-15
1.00260458493e-15
1.00260030511e-15
1.00259203549e-15
1.00258335037e-15
1.00257216475e-15
1.00255979335e-15
1.00254401361e-15
1.0025268039e-15
1.00250641866e-15
1.00248540804e-15
1.00246064528e-15
1.00243337486e-15
1.00240375468e-15
1.00237218554e-15
1.00233869658e-15
1.00230401831e-15
1.00226733865e-15
1.00222933094e-15
1.0021906974e-15
1.00215220432e-15
1.00211345365e-15
1.00207293167e-15
1.00203008853e-15
1.00198539246e-15
1.00193914578e-15
1.00189109589e-15
1.00184175249e-15
1.00179035429e-15
1.00173713318e-15
1.00168032258e-15
1.00161785493e-15
1.00155267573e-15
1.00148965613e-15
1.00142794313e-15
1.0013657826e-15
1.00130087269e-15
1.001234848e-15
1.00116698873e-15
1.00110059141e-15
1.00103825852e-15
1.00098313396e-15
1.00093017528e-15
1.00087710507e-15
1.00082388545e-15
1.00077340686e-15
1.00072653458e-15
1.00068350638e-15
1.00064154395e-15
1.00060198767e-15
1.00056251277e-15
1.00052440359e-15
1.00048614323e-15
1.00044979585e-15
1.00041371438e-15
1.00037979727e-15
1.00034493674e-15
1.00031118804e-15
1.00027563317e-15
1.00023802286e-15
1.00019479998e-15
1.00014663627e-15
1.00010218472e-15
1.00008352191e-15
1.0000748539e-15
1.00006690451e-15
1.00005845745e-15
1.00005112642e-15
1.00004318427e-15
1.00003685987e-15
1.00002907919e-15
1.00002368423e-15
1.00001798945e-15
1.00001177374e-15
1.00000769846e-15
1.00000583259e-15
1.00000378352e-15
1.00000207499e-15
1.00000050043e-15
1e-15
1e-15
1e-15
1e-15
1e-15
1e-15
1e-15
1e-15
1e-15
1e-15
1e-15
1e-15
1e-15
1e-15
1e-15
1e-15
1e-15
1e-15
1e-15
1e-15
1e-15
1e-15
1e-15
1e-15
1e-15
1.00003179773e-15
1.00034416908e-15
1.00079409278e-15
1.00426751685e-15
1.00115717414e-15
1.0022747863e-15
1.00229155048e-15
1.00225195046e-15
1.00225669745e-15
1.00227035888e-15
1.00230456611e-15
1.00234020091e-15
1.00239282531e-15
1.0024615802e-15
1.00254121788e-15
1.0026154193e-15
1.00267518099e-15
1.00274655587e-15
1.00283082939e-15
1.00291064976e-15
1.00299291903e-15
1.00307106393e-15
1.00313892056e-15
1.00320263281e-15
1.00326028934e-15
1.00330780454e-15
1.00334886106e-15
1.00338387446e-15
1.00341059317e-15
1.00343013076e-15
1.00344809821e-15
1.00346336108e-15
1.00346910368e-15
1.00346581938e-15
1.00345892094e-15
1.00344322603e-15
1.00341942921e-15
1.00338620113e-15
1.00334613603e-15
1.00330180482e-15
1.00325793802e-15
1.00321131368e-15
1.00316491797e-15
1.00311640411e-15
1.00306616129e-15
1.00301379809e-15
1.00296122401e-15
1.00290663869e-15
1.00285011355e-15
1.00279131511e-15
1.00273217043e-15
1.00267318806e-15
1.00261496925e-15
1.00255626262e-15
1.00249797753e-15
1.00244111393e-15
1.00238691247e-15
1.00233467069e-15
1.00228214286e-15
1.00222850005e-15
1.00217390717e-15
1.00211834883e-15
1.00206174948e-15
1.00200500245e-15
1.00194684768e-15
1.00188705861e-15
1.00182389852e-15
1.0017554767e-15
1.00168636383e-15
1.00162110527e-15
1.00155636914e-15
1.00149077282e-15
1.0014223265e-15
1.0013525682e-15
1.00128043406e-15
1.0012091463e-15
1.00114056303e-15
1.00107771349e-15
1.00101619169e-15
1.00095416266e-15
1.00089080489e-15
1.00082984606e-15
1.00077304644e-15
1.00072148165e-15
1.00067220271e-15
1.0006265596e-15
1.00058209826e-15
1.00053956515e-15
1.00049705593e-15
1.00045709427e-15
1.0004185765e-15
1.0003821992e-15
1.00034519437e-15
1.0003097014e-15
1.0002742585e-15
1.00023993936e-15
1.00020456813e-15
1.00016723675e-15
1.00011980674e-15
1.00008052286e-15
1.00007026098e-15
1.00006240578e-15
1.00005411617e-15
1.00004694516e-15
1.00003920073e-15
1.00003303983e-15
1.0000256883e-15
1.00001994412e-15
1.00001431105e-15
1.00000972075e-15
1.00000389408e-15
1.00000196197e-15
1e-15
1e-15
1e-15
1e-15
1e-15
1e-15
1e-15
1e-15
1e-15
1e-15