/*--------------------------------*- C++ -*----------------------------------*\
| =========                 |                                                 |
| \\      /  F ield         | OpenFOAM: The Open Source CFD Toolbox           |
|  \\    /   O peration     | Version:  2206                                  |
|   \\  /    A nd           | Website:  www.openfoam.com                      |
|    \\/     M anipulation  |                                                 |
\*---------------------------------------------------------------------------*/
FoamFile
{
    version     2.0;
    format      ascii;
    arch        "LSB;label=64;scalar=64";
    class       volScalarField;
    location    "0.4/water";
    object      nut.gas;
}
// * * * * * * * * * * * * * * * * * * * * * * * * * * * * * * * * * * * * * //

dimensions      [0 2 -1 0 0 0 0];

internalField   nonuniform List<scalar> 
23300
(
1.66449797678e-07
1.74674531616e-07
1.8788037381e-07
2.02564508351e-07
2.17533461875e-07
2.32493672705e-07
2.47363441294e-07
2.62108133367e-07
2.76703796154e-07
2.91130153811e-07
3.05367570193e-07
3.1939736616e-07
3.33201267277e-07
3.46761639997e-07
3.60061822265e-07
3.73085677468e-07
3.85818511739e-07
3.98246160779e-07
4.10356234868e-07
4.22136977243e-07
4.33578541225e-07
4.44671755778e-07
4.55409322309e-07
4.65784634955e-07
4.75792874477e-07
4.85429910854e-07
4.94693245694e-07
5.03580988141e-07
5.12092677394e-07
5.20228352865e-07
5.27989275567e-07
5.35377053459e-07
5.42394243526e-07
5.49043505131e-07
5.55328095479e-07
5.61251068535e-07
5.66815777445e-07
5.72025290317e-07
5.7688312691e-07
5.81393007971e-07
5.85559737175e-07
5.89388895044e-07
5.9288733375e-07
5.9606236878e-07
5.989218162e-07
6.01473039462e-07
6.03723140026e-07
6.0567840056e-07
6.07344906169e-07
6.08728372065e-07
6.09834939197e-07
6.10670877517e-07
6.11242877131e-07
6.11557068356e-07
6.11618751196e-07
6.11431328921e-07
6.1099652244e-07
6.10314283811e-07
6.09384115537e-07
6.08205688487e-07
6.06779799161e-07
6.05107561416e-07
6.03189655471e-07
6.01024870622e-07
5.98610639656e-07
5.9594546195e-07
5.93033505233e-07
5.89886181173e-07
5.86519047888e-07
5.82927194566e-07
5.79098451791e-07
5.75079810506e-07
5.70910612249e-07
5.66607210594e-07
5.62176187358e-07
5.57622199165e-07
5.52949487957e-07
5.481619707e-07
5.43263432025e-07
5.38257449132e-07
5.33147514005e-07
5.27936953058e-07
5.22629019719e-07
5.17226821724e-07
5.11733400862e-07
5.06151671615e-07
5.00484490002e-07
4.94734593597e-07
4.88904659142e-07
4.82997248805e-07
4.7701487013e-07
4.70959932607e-07
4.64834804862e-07
4.58641767432e-07
4.52383057683e-07
4.4606082076e-07
4.39677154452e-07
4.33234072452e-07
4.26733555622e-07
4.20177522146e-07
4.13567872975e-07
4.06906457266e-07
4.00195108606e-07
3.93435609116e-07
3.86629723539e-07
3.79779169082e-07
3.72885654254e-07
3.65950859575e-07
3.58976480153e-07
3.5196420929e-07
3.44915775245e-07
3.37832924591e-07
3.30717458312e-07
3.23571222169e-07
3.16396147685e-07
3.09194251005e-07
3.01967680168e-07
2.9471872534e-07
2.87449877834e-07
2.80163858016e-07
2.72863690978e-07
2.6555276111e-07
2.58234919908e-07
2.50914589815e-07
2.4359693025e-07
2.36288025821e-07
2.28995160482e-07
2.21727165048e-07
2.14494916366e-07
2.07312018152e-07
2.00195789329e-07
1.93168691393e-07
1.86260465088e-07
1.79511195914e-07
1.72974511155e-07
1.66714035222e-07
1.60782499788e-07
1.55478574655e-07
1.55920855604e-07
1.99132657025e-07
5.62213667394e-08
5.89186469193e-08
6.28237788993e-08
6.70988086148e-08
7.15226728591e-08
7.60206490541e-08
8.055497109e-08
8.51005015837e-08
8.96386892341e-08
9.41546074862e-08
9.86357818726e-08
1.03070917487e-07
1.07449587775e-07
1.11761522912e-07
1.15996746488e-07
1.20145131375e-07
1.24196779777e-07
1.28141726434e-07
1.31970430295e-07
1.35673529557e-07
1.39242319953e-07
1.42668503725e-07
1.45944624737e-07
1.49063820148e-07
1.52020206051e-07
1.54808611048e-07
1.57424890917e-07
1.59865645267e-07
1.6212848699e-07
1.64211764829e-07
1.66114798136e-07
1.67837609358e-07
1.69381137412e-07
1.70746992253e-07
1.71937636966e-07
1.72956119575e-07
1.73806158364e-07
1.74491801906e-07
1.75017434974e-07
1.75387481363e-07
1.75606514851e-07
1.75679161423e-07
1.75610337019e-07
1.75405200689e-07
1.75069288292e-07
1.74608347409e-07
1.74028348096e-07
1.73335285165e-07
1.72535162276e-07
1.716338501e-07
1.70637190733e-07
1.695510901e-07
1.68381782219e-07
1.67135911027e-07
1.65820529101e-07
1.64442830632e-07
1.63009829212e-07
1.61527936014e-07
1.6000266648e-07
1.58438554517e-07
1.56839443574e-07
1.55208938525e-07
1.53550762633e-07
1.51868899147e-07
1.50167383094e-07
1.48449135801e-07
1.4671471087e-07
1.4496260562e-07
1.43183303889e-07
1.41372552578e-07
1.3956062171e-07
1.37754764723e-07
1.35947137642e-07
1.34137108552e-07
1.32326582365e-07
1.30517471572e-07
1.28711526883e-07
1.2691036364e-07
1.2511546371e-07
1.23328197326e-07
1.21549820195e-07
1.19781490166e-07
1.18024262635e-07
1.16279105566e-07
1.14546896545e-07
1.12828435401e-07
1.11124439607e-07
1.09435552165e-07
1.07762337668e-07
1.06105290921e-07
1.04464837365e-07
1.02841340755e-07
1.01235101882e-07
9.96463600824e-08
9.80752897908e-08
9.65220009132e-08
9.4986539745e-08
9.34688922518e-08
9.19689881908e-08
9.04867024644e-08
8.90218569343e-08
8.75742175896e-08
8.61434953944e-08
8.47293427505e-08
8.33313566402e-08
8.19490772991e-08
8.05819959997e-08
7.92295568864e-08
7.78911676694e-08
7.65662013376e-08
7.52540078102e-08
7.39539168661e-08
7.26652542363e-08
7.13873484156e-08
7.01195523018e-08
6.88612540122e-08
6.76119042806e-08
6.63710305226e-08
6.51382692601e-08
6.39133828783e-08
6.26962962441e-08
6.1487113323e-08
6.02861544562e-08
5.90939692152e-08
5.79113710268e-08
5.67394422197e-08
5.55795618964e-08
5.44333996481e-08
5.33029340122e-08
5.21904364355e-08
5.10984880299e-08
5.00299795623e-08
4.89882328276e-08
4.79776137294e-08
4.70075327188e-08
4.61193361749e-08
4.55796345087e-08
4.73654868816e-08
6.62453008353e-08
1.4974284187e-07
3.99052158327e-08
4.03337108759e-08
4.09273901143e-08
4.15793883204e-08
4.2262677535e-08
4.29675059898e-08
4.36875660193e-08
4.44170405373e-08
4.51505431883e-08
4.588264217e-08
4.66082171551e-08
4.73221205409e-08
4.80195524049e-08
4.86957787905e-08
4.93464713717e-08
4.99674586714e-08
5.05550286248e-08
5.11057047081e-08
5.16165134127e-08
5.20847732086e-08
5.25083219543e-08
5.28853120437e-08
5.32144065227e-08
5.34945836591e-08
5.37253074304e-08
5.39063376359e-08
5.40378762644e-08
5.4120385741e-08
5.41547205295e-08
5.4141959341e-08
5.40835274818e-08
5.39810475016e-08
5.38364588624e-08
5.36518873522e-08
5.3429747989e-08
5.31725991202e-08
5.28831834919e-08
5.25642335161e-08
5.22184601722e-08
5.18483801896e-08
5.14563679522e-08
5.10446079787e-08
5.06152399968e-08
5.01703687327e-08
4.97121734474e-08
4.92428553571e-08
4.87646560621e-08
4.82797526719e-08
4.77902389369e-08
4.72980551253e-08
4.68050573381e-08
4.63131050063e-08
4.58242544898e-08
4.53408858359e-08
4.48657736124e-08
4.44019679576e-08
4.39525448288e-08
4.3520269324e-08
4.31074082094e-08
4.27158362379e-08
4.23474153757e-08
4.20043522709e-08
4.16892086912e-08
4.14043037558e-08
4.1150523389e-08
4.09265474954e-08
4.07295575222e-08
4.05567092951e-08
4.04112219136e-08
4.02988066522e-08
4.01995305382e-08
4.01017764177e-08
4.00054006117e-08
3.99104502202e-08
3.9816980427e-08
3.97250429606e-08
3.96346754029e-08
3.95459111244e-08
3.94587710898e-08
3.93732735092e-08
3.92894260834e-08
3.92072349208e-08
3.91266973159e-08
3.9047809966e-08
3.89705624323e-08
3.88949444703e-08
3.88209400094e-08
3.87485335214e-08
3.86777047582e-08
3.86084344394e-08
3.85406998575e-08
3.84744796955e-08
3.8409750179e-08
3.83464888497e-08
3.82846713544e-08
3.82242744834e-08
3.81652738829e-08
3.81076464707e-08
3.805136893e-08
3.79964192444e-08
3.79427757493e-08
3.78904177453e-08
3.78393252201e-08
3.77894786987e-08
3.77408597581e-08
3.76934501876e-08
3.76472333561e-08
3.76021926486e-08
3.75583135808e-08
3.75155813319e-08
3.7473983555e-08
3.74335070319e-08
3.73941413298e-08
3.73558746021e-08
3.73186981246e-08
3.72826011745e-08
3.72475765108e-08
3.72136142509e-08
3.71807082977e-08
3.71488491733e-08
3.71180315246e-08
3.70882458832e-08
3.70594872486e-08
3.70317457186e-08
3.70050162165e-08
3.69792880824e-08
3.69545559892e-08
3.69308087641e-08
3.69080414781e-08
3.68862444486e-08
3.68654190678e-08
3.68455832933e-08
3.68268931782e-08
3.68103564225e-08
3.68028229008e-08
3.68519184597e-08
3.73003310819e-08
4.07293862877e-08
6.52371598222e-08
1.51531479159e-07
3.73279873723e-08
3.74026470501e-08
3.74997165943e-08
3.76035251563e-08
3.77106320128e-08
3.78195743303e-08
3.79293633624e-08
3.803883976e-08
3.8147023563e-08
3.82527590676e-08
3.83550585046e-08
3.84528044677e-08
3.85450566075e-08
3.86307963296e-08
3.87091996472e-08
3.87794155093e-08
3.88408030206e-08
3.88927362177e-08
3.89348084376e-08
3.89666547722e-08
3.89881265363e-08
3.89991261366e-08
3.89997574866e-08
3.89901716967e-08
3.89706982665e-08
3.89417002148e-08
3.89036898979e-08
3.88571942848e-08
3.88028597371e-08
3.87413285357e-08
3.86733353593e-08
3.85995959197e-08
3.85208970383e-08
3.84379963175e-08
3.83517023033e-08
3.82627775301e-08
3.81720010474e-08
3.80800712876e-08
3.79876580532e-08
3.78953231514e-08
3.78035846322e-08
3.77128697597e-08
3.76235887173e-08
3.75360991672e-08
3.74507624331e-08
3.73678994826e-08
3.72878248433e-08
3.72108012319e-08
3.71370652406e-08
3.70667962533e-08
3.70001505161e-08
3.69372535217e-08
3.68782368126e-08
3.68232293286e-08
3.67723657334e-08
3.67257521348e-08
3.6683444066e-08
3.66454141857e-08
3.66115580495e-08
3.65817235236e-08
3.65557595211e-08
3.65335461543e-08
3.65149832309e-08
3.649994044e-08
3.64881898837e-08
3.64793949471e-08
3.64731841211e-08
3.64695559519e-08
3.64690506799e-08
3.64698009989e-08
3.64708150849e-08
3.64720172025e-08
3.64733928741e-08
3.64749329782e-08
3.64766244102e-08
3.6478458469e-08
3.64804224023e-08
3.64825077105e-08
3.648470202e-08
3.64869970192e-08
3.64893808056e-08
3.64918453131e-08
3.64943792242e-08
3.64969747951e-08
3.64996213985e-08
3.65023116864e-08
3.6505035803e-08
3.65077868518e-08
3.65105558041e-08
3.65133362581e-08
3.65161200547e-08
3.6518901321e-08
3.65216727901e-08
3.65244291297e-08
3.65271639651e-08
3.65298724995e-08
3.65325492388e-08
3.65351899111e-08
3.65377898889e-08
3.65403454062e-08
3.65428526748e-08
3.6545308399e-08
3.6547709589e-08
3.65500533722e-08
3.65523375108e-08
3.65545595021e-08
3.65567178132e-08
3.65588102576e-08
3.65608359629e-08
3.65627929997e-08
3.65646811079e-08
3.65664985491e-08
3.65682456275e-08
3.65699207271e-08
3.65715246722e-08
3.65730559023e-08
3.65745157232e-08
3.65759025661e-08
3.65772181835e-08
3.65784609364e-08
3.65796329898e-08
3.65807325809e-08
3.6581762273e-08
3.65827201701e-08
3.65836092506e-08
3.65844275546e-08
3.65851785848e-08
3.6585860634e-08
3.65864781881e-08
3.6587031201e-08
3.65875304008e-08
3.65880065368e-08
3.65886576831e-08
3.65907567302e-08
3.66030009089e-08
3.66861996771e-08
3.72794004951e-08
4.16602989398e-08
7.09863870803e-08
1.62750332923e-07
3.68638171238e-08
3.68781437851e-08
3.68952181462e-08
3.69123688232e-08
3.69293362572e-08
3.69458769219e-08
3.69619043994e-08
3.69771122725e-08
3.69913554062e-08
3.70043231099e-08
3.70158678696e-08
3.7025704918e-08
3.70337038066e-08
3.70396304049e-08
3.70433957563e-08
3.7044834132e-08
3.70439172042e-08
3.70405592827e-08
3.70348027187e-08
3.7026643854e-08
3.70161947691e-08
3.70035256151e-08
3.69888076883e-08
3.69721695863e-08
3.69538255149e-08
3.69339435525e-08
3.69127621226e-08
3.68904694932e-08
3.6867310622e-08
3.68434772896e-08
3.68192066342e-08
3.67946814103e-08
3.67701209025e-08
3.67456905168e-08
3.67215846018e-08
3.66979437793e-08
3.66749288255e-08
3.66526455174e-08
3.66312114381e-08
3.66106912604e-08
3.65911595839e-08
3.65726474595e-08
3.65551994029e-08
3.65388268861e-08
3.65235556441e-08
3.65093838053e-08
3.64963200952e-08
3.6484348243e-08
3.64734586513e-08
3.64636206333e-08
3.64548092274e-08
3.64469849367e-08
3.64401146551e-08
3.6434155782e-08
3.64290695317e-08
3.64248082839e-08
3.64213234793e-08
3.64185589287e-08
3.64164576343e-08
3.64149621474e-08
3.64140186595e-08
3.64135782623e-08
3.64135942366e-08
3.64140231699e-08
3.64148201115e-08
3.64159447329e-08
3.6417360471e-08
3.64190580681e-08
3.64209950756e-08
3.64231312947e-08
3.64254455687e-08
3.64279277725e-08
3.64305637626e-08
3.64333436747e-08
3.64362536259e-08
3.64392840887e-08
3.64424216786e-08
3.64456572594e-08
3.64489780466e-08
3.64523753108e-08
3.64558369496e-08
3.64593546717e-08
3.64629171339e-08
3.64665165234e-08
3.64701423222e-08
3.64737872358e-08
3.64774416225e-08
3.6481098738e-08
3.64847498513e-08
3.6488388791e-08
3.64920077544e-08
3.64956011531e-08
3.64991621169e-08
3.65026856402e-08
3.65061657766e-08
3.65095980904e-08
3.65129775391e-08
3.65163002338e-08
3.65195620062e-08
3.65227594811e-08
3.6525889328e-08
3.65289486447e-08
3.65319348957e-08
3.65348456029e-08
3.65376789779e-08
3.65404329116e-08
3.65431063116e-08
3.65456973781e-08
3.65482056634e-08
3.65506296139e-08
3.65529693764e-08
3.65552235782e-08
3.65573929127e-08
3.6559476121e-08
3.65614743994e-08
3.65633865373e-08
3.65652141945e-08
3.65669561455e-08
3.65686144772e-08
3.65701878886e-08
3.65716788562e-08
3.65730859476e-08
3.6574412001e-08
3.65756554163e-08
3.65768193721e-08
3.65779021248e-08
3.65789072346e-08
3.65798329781e-08
3.65806835095e-08
3.65814583148e-08
3.6582167743e-08
3.65828466837e-08
3.65837330317e-08
3.65863879387e-08
3.66015357962e-08
3.67043997204e-08
3.74387114561e-08
4.28185404259e-08
7.69455904026e-08
1.7653476371e-07
3.67745835256e-08
3.67778696824e-08
3.67810705041e-08
3.67835710285e-08
3.67855685649e-08
3.67870203451e-08
3.67880033554e-08
3.67883686661e-08
3.67881403643e-08
3.67871696901e-08
3.67854676705e-08
3.67829091716e-08
3.67795127212e-08
3.67751843975e-08
3.67699603851e-08
3.67637845098e-08
3.6756717089e-08
3.67487403614e-08
3.67399398784e-08
3.67303318291e-08
3.67200227671e-08
3.6709054482e-08
3.66975468002e-08
3.66855571041e-08
3.66732096922e-08
3.66605679441e-08
3.66477526246e-08
3.66348253059e-08
3.66218971433e-08
3.66090225173e-08
3.65962991543e-08
3.65837712167e-08
3.65715212311e-08
3.65595820059e-08
3.65480204745e-08
3.653685788e-08
3.65261455567e-08
3.65158931904e-08
3.65061369377e-08
3.64968760061e-08
3.64881335176e-08
3.64799011841e-08
3.64721925937e-08
3.64649951689e-08
3.64583155771e-08
3.64521386058e-08
3.64464651429e-08
3.6441278001e-08
3.64365730971e-08
3.64323320318e-08
3.64285469486e-08
3.64251993397e-08
3.64222788865e-08
3.64197677409e-08
3.64176537962e-08
3.64159199268e-08
3.64145525182e-08
3.64135352905e-08
3.64128538768e-08
3.6412493493e-08
3.64124399011e-08
3.641267995e-08
3.64131994801e-08
3.64139863396e-08
3.64150261942e-08
3.64163077475e-08
3.64178175656e-08
3.64195452804e-08
3.64214743854e-08
3.6423594276e-08
3.64258910495e-08
3.64283547117e-08
3.64309712114e-08
3.64337306707e-08
3.64366192748e-08
3.64396274216e-08
3.64427417575e-08
3.64459530414e-08
3.64492485182e-08
3.64526193562e-08
3.64560534974e-08
3.64595425624e-08
3.64630752694e-08
3.64666437342e-08
3.64702375141e-08
3.6473849259e-08
3.64774694132e-08
3.6481091192e-08
3.64847059589e-08
3.64883075157e-08
3.6491888161e-08
3.6495442293e-08
3.64989631482e-08
3.65024457196e-08
3.65058841723e-08
3.65092740809e-08
3.65126105181e-08
3.65158896157e-08
3.65191073237e-08
3.65222602969e-08
3.65253453253e-08
3.65283595445e-08
3.65313005408e-08
3.65341658811e-08
3.65369538989e-08
3.65396625363e-08
3.65422908225e-08
3.6544837014e-08
3.65473007831e-08
3.65496806372e-08
3.655197684e-08
3.65541880837e-08
3.65563151742e-08
3.65583569213e-08
3.65603146268e-08
3.65621871525e-08
3.6563976254e-08
3.65656807812e-08
3.6567302902e-08
3.65688413906e-08
3.6570298785e-08
3.65716737231e-08
3.65729690664e-08
3.6574183258e-08
3.65753194565e-08
3.6576375911e-08
3.65773560504e-08
3.65782580181e-08
3.65790856778e-08
3.65798382947e-08
3.65805266609e-08
3.65811921325e-08
3.65821181959e-08
3.6585184085e-08
3.66033165319e-08
3.67273009997e-08
3.76130214521e-08
4.40410680015e-08
8.30347207563e-08
1.91479006989e-07
3.67571893171e-08
3.67584198314e-08
3.67591822098e-08
3.67592179174e-08
3.67587998739e-08
3.67579012849e-08
3.67566266478e-08
3.67548527239e-08
3.67526219027e-08
3.67498086913e-08
3.67464493956e-08
3.67424385464e-08
3.67378149523e-08
3.67325029167e-08
3.67265533166e-08
3.67199219701e-08
3.67126764319e-08
3.67048022978e-08
3.66963831856e-08
3.66874288875e-08
3.66780344387e-08
3.66682258805e-08
3.66581030163e-08
3.66476999097e-08
3.66371146279e-08
3.66263824458e-08
3.66155947244e-08
3.66047833203e-08
3.65940298765e-08
3.65833603142e-08
3.65728452528e-08
3.65625037866e-08
3.65523954278e-08
3.65425326177e-08
3.65329643933e-08
3.65236972459e-08
3.65147706259e-08
3.6506185921e-08
3.64979739523e-08
3.64901319576e-08
3.64826832395e-08
3.64756219806e-08
3.6468965145e-08
3.64627048564e-08
3.64568527159e-08
3.64513994801e-08
3.64463521095e-08
3.64417004616e-08
3.64374474748e-08
3.64335824945e-08
3.64301050486e-08
3.64270043055e-08
3.64242769387e-08
3.64219121307e-08
3.6419904101e-08
3.64182420614e-08
3.64169180907e-08
3.64159214616e-08
3.6415242554e-08
3.64148708565e-08
3.64147954774e-08
3.64150060762e-08
3.64154905997e-08
3.64162386209e-08
3.64172370455e-08
3.64184755264e-08
3.64199416328e-08
3.64216238442e-08
3.64235064521e-08
3.64255792992e-08
3.64278283688e-08
3.64302435886e-08
3.6432810963e-08
3.6435520556e-08
3.64383586253e-08
3.64413154885e-08
3.64443778558e-08
3.64475363868e-08
3.6450778389e-08
3.64540949281e-08
3.64574740163e-08
3.64609071794e-08
3.64643832164e-08
3.64678941602e-08
3.64714296602e-08
3.64749822969e-08
3.64785426164e-08
3.64821037794e-08
3.64856572586e-08
3.64891968157e-08
3.64927148652e-08
3.64962057794e-08
3.64996629165e-08
3.65030812573e-08
3.65064550935e-08
3.65097800003e-08
3.6513051181e-08
3.65162647795e-08
3.651941688e-08
3.65225041601e-08
3.65255235467e-08
3.6528472208e-08
3.65313478684e-08
3.65341481356e-08
3.6536871482e-08
3.65395158974e-08
3.65420805496e-08
3.65445637489e-08
3.65469653047e-08
3.65492837835e-08
3.65515195827e-08
3.65536714582e-08
3.65557403438e-08
3.65577251171e-08
3.65596271994e-08
3.65614455234e-08
3.65631819525e-08
3.65648354097e-08
3.65664081552e-08
3.65678990372e-08
3.65693106659e-08
3.65706417454e-08
3.65718951836e-08
3.65730694833e-08
3.65741678132e-08
3.65751884537e-08
3.65761347733e-08
3.65770049232e-08
3.65778026697e-08
3.65785274678e-08
3.65791911532e-08
3.65798426866e-08
3.65808172685e-08
3.65843404213e-08
3.66057201153e-08
3.67524843861e-08
3.78000818836e-08
4.53246842161e-08
8.93464621026e-08
2.07021470649e-07
3.67543044772e-08
3.67552256758e-08
3.67556800354e-08
3.67554786969e-08
3.67549022156e-08
3.67539265272e-08
3.67526479761e-08
3.67509290169e-08
3.67488096666e-08
3.67461540906e-08
3.67429882927e-08
3.6739201263e-08
3.67348254057e-08
3.67297799127e-08
3.67241118189e-08
3.6717774035e-08
3.67108320735e-08
3.67032702475e-08
3.6695171194e-08
3.66865440509e-08
3.66774829997e-08
3.66680130967e-08
3.66582326371e-08
3.66481738074e-08
3.66379322334e-08
3.66275404596e-08
3.66170867536e-08
3.66065998796e-08
3.6596158304e-08
3.65857851038e-08
3.65755481876e-08
3.65654645314e-08
3.6555591758e-08
3.65459411697e-08
3.65365608798e-08
3.65274572887e-08
3.65186698944e-08
3.65102009865e-08
3.65020822738e-08
3.64943126484e-08
3.64869168045e-08
3.64798909156e-08
3.64732534382e-08
3.6466998481e-08
3.64611390258e-08
3.64556676839e-08
3.64505926433e-08
3.6445905452e-08
3.64416101104e-08
3.64376974526e-08
3.64341678735e-08
3.64310117792e-08
3.64282264878e-08
3.64258021406e-08
3.642373338e-08
3.6422010103e-08
3.64206246186e-08
3.64195666447e-08
3.64188266489e-08
3.64183943769e-08
3.64182589343e-08
3.64184100847e-08
3.64188356861e-08
3.64195252589e-08
3.64204655449e-08
3.64216461104e-08
3.64230548731e-08
3.64246792088e-08
3.64265033915e-08
3.64285172047e-08
3.6430706601e-08
3.64330613911e-08
3.6435567616e-08
3.64382152414e-08
3.64409905895e-08
3.64438838745e-08
3.64468818798e-08
3.64499751536e-08
3.64531510831e-08
3.64564006224e-08
3.64597118721e-08
3.64630762533e-08
3.64664826637e-08
3.64699230437e-08
3.64733871518e-08
3.64768674908e-08
3.64803547256e-08
3.6483841955e-08
3.64873207793e-08
3.64907849142e-08
3.64942269098e-08
3.64976411088e-08
3.65010210116e-08
3.65043615849e-08
3.65076572686e-08
3.65109036377e-08
3.6514096049e-08
3.65172306595e-08
3.65203037113e-08
3.65233119074e-08
3.6526252336e-08
3.65291222008e-08
3.65319193901e-08
3.65346415559e-08
3.65372873356e-08
3.65398547711e-08
3.65423431949e-08
3.65447509764e-08
3.65470780877e-08
3.65493231601e-08
3.65514867497e-08
3.65535676815e-08
3.65555670416e-08
3.65574837802e-08
3.65593194616e-08
3.65610730942e-08
3.65627466724e-08
3.65643391962e-08
3.65658530435e-08
3.65672871403e-08
3.6568644195e-08
3.65699229875e-08
3.65711265065e-08
3.65722533328e-08
3.65733066743e-08
3.65742848795e-08
3.657519134e-08
3.65760242883e-08
3.65767875557e-08
3.65774809042e-08
3.6578117578e-08
3.65787554963e-08
3.65797855821e-08
3.65838094806e-08
3.66087036776e-08
3.67799489302e-08
3.79999668295e-08
4.66718512002e-08
9.59497840156e-08
2.22882797796e-07
3.6754526167e-08
3.67555208789e-08
3.67561225082e-08
3.6756161965e-08
3.67559295365e-08
3.67553812785e-08
3.6754601445e-08
3.67534368705e-08
3.67519034934e-08
3.67498465065e-08
3.67472773839e-08
3.6744066946e-08
3.67402347083e-08
3.67356889648e-08
3.67304687743e-08
3.67245220607e-08
3.67179119695e-08
3.67106230687e-08
3.67027402458e-08
3.66942766362e-08
3.66853314286e-08
3.66759353785e-08
3.66661925038e-08
3.66561405926e-08
3.66458802739e-08
3.66354486299e-08
3.66249376673e-08
3.66143794602e-08
3.66038550324e-08
3.65933897994e-08
3.65830533648e-08
3.65728644183e-08
3.6562881728e-08
3.6553117952e-08
3.65436220018e-08
3.65344014166e-08
3.6525496236e-08
3.65169097176e-08
3.65086738886e-08
3.65007884507e-08
3.64932782124e-08
3.6486140002e-08
3.64793922109e-08
3.64730294624e-08
3.64670645336e-08
3.6461490434e-08
3.64563150522e-08
3.64515302413e-08
3.64471396519e-08
3.64431343564e-08
3.64395143923e-08
3.64362703531e-08
3.64333992072e-08
3.64308912162e-08
3.64287406679e-08
3.64269374958e-08
3.6425473666e-08
3.64243388888e-08
3.64235233526e-08
3.64230167861e-08
3.6422808087e-08
3.64228869643e-08
3.64232410662e-08
3.64238597578e-08
3.64247295549e-08
3.64258399026e-08
3.64271791368e-08
3.64287333683e-08
3.64304868488e-08
3.64324293178e-08
3.64345467129e-08
3.6436828703e-08
3.64392613608e-08
3.64418345214e-08
3.64445345699e-08
3.64473515922e-08
3.64502724522e-08
3.64532875705e-08
3.64563844267e-08
3.64595538516e-08
3.64627840494e-08
3.64660663269e-08
3.64693896969e-08
3.64727459989e-08
3.64761251173e-08
3.64795194706e-08
3.64829198599e-08
3.64863193166e-08
3.64897095874e-08
3.64930843386e-08
3.64964362758e-08
3.64997597099e-08
3.65030483053e-08
3.65062970135e-08
3.65095004452e-08
3.65126541764e-08
3.6515753741e-08
3.65187953118e-08
3.65217753136e-08
3.65246904781e-08
3.65275380804e-08
3.65303153642e-08
3.65330204075e-08
3.6535650912e-08
3.65382057067e-08
3.65406828915e-08
3.65430819903e-08
3.6545401438e-08
3.65476413956e-08
3.65498005654e-08
3.65518796881e-08
3.65538776639e-08
3.65557957564e-08
3.65576329945e-08
3.6559391111e-08
3.65610691954e-08
3.65626693991e-08
3.65641908058e-08
3.65656359358e-08
3.65670038004e-08
3.65682972328e-08
3.65695151037e-08
3.65706605044e-08
3.65717321044e-08
3.65727331894e-08
3.65736622105e-08
3.65745226399e-08
3.65753128352e-08
3.65760367284e-08
3.6576694528e-08
3.65773010658e-08
3.65779236753e-08
3.657901498e-08
3.65835829859e-08
3.66122680825e-08
3.68097567387e-08
3.82129360483e-08
4.80885374001e-08
1.0288744884e-07
2.38909808451e-07
3.67553908386e-08
3.67565792908e-08
3.67574857217e-08
3.67579505329e-08
3.67582616591e-08
3.67583661313e-08
3.67583248479e-08
3.67579523851e-08
3.67572445432e-08
3.67560184335e-08
3.67542592593e-08
3.67518174942e-08
3.67486945763e-08
3.67447842024e-08
3.67401157282e-08
3.67346310108e-08
3.67283915349e-08
3.67213836312e-08
3.67136971488e-08
3.67053525398e-08
3.66964578462e-08
3.66870535296e-08
3.66772532479e-08
3.66671040896e-08
3.66567149369e-08
3.66461303005e-08
3.663544827e-08
3.66247062514e-08
3.66139893363e-08
3.66033265686e-08
3.65927900995e-08
3.65824010595e-08
3.65722197208e-08
3.65622604034e-08
3.65525728072e-08
3.65431655991e-08
3.65340790826e-08
3.65253172521e-08
3.65169120071e-08
3.65088635006e-08
3.65011961358e-08
3.64939069994e-08
3.64870139107e-08
3.64805116421e-08
3.64744123232e-08
3.64687090509e-08
3.64634090422e-08
3.64585042001e-08
3.64539975246e-08
3.64498801261e-08
3.64461514516e-08
3.64428021277e-08
3.6439828593e-08
3.64372211028e-08
3.64349734437e-08
3.64330754803e-08
3.64315187331e-08
3.64302928441e-08
3.6429387674e-08
3.6428792897e-08
3.64284971625e-08
3.6428490085e-08
3.64287590857e-08
3.64292933538e-08
3.64300791522e-08
3.64311058021e-08
3.64323621499e-08
3.64338327604e-08
3.64355020071e-08
3.64373595711e-08
3.643939138e-08
3.64415869411e-08
3.64439323561e-08
3.64464173066e-08
3.64490282395e-08
3.6451755093e-08
3.6454584815e-08
3.64575076843e-08
3.64605112808e-08
3.64635863022e-08
3.64667210667e-08
3.64699067603e-08
3.64731325227e-08
3.64763900883e-08
3.64796694809e-08
3.64829630313e-08
3.64862616921e-08
3.64895584261e-08
3.64928451427e-08
3.64961154592e-08
3.64993622546e-08
3.65025798098e-08
3.6505761972e-08
3.65089036811e-08
3.65119997395e-08
3.65150457286e-08
3.65180373819e-08
3.65209708932e-08
3.65238428935e-08
3.65266501493e-08
3.65293901469e-08
3.65320601768e-08
3.65346585323e-08
3.65371829721e-08
3.65396325424e-08
3.65420054091e-08
3.65443013133e-08
3.65465187624e-08
3.65486581329e-08
3.65507182046e-08
3.65526999289e-08
3.6554602288e-08
3.65564267494e-08
3.65581724268e-08
3.65598412485e-08
3.65614323905e-08
3.65629481889e-08
3.6564387816e-08
3.65657539623e-08
3.65670457287e-08
3.65682661036e-08
3.65694140526e-08
3.65704927972e-08
3.65715011013e-08
3.6572442382e-08
3.65733151987e-08
3.65741231288e-08
3.65748646591e-08
3.65755438879e-08
3.65761614342e-08
3.65767339049e-08
3.65773393538e-08
3.6578496333e-08
3.65836530484e-08
3.66164209657e-08
3.68419887726e-08
3.84393897006e-08
4.95836771785e-08
1.1018166505e-07
2.55012712126e-07
3.67561836547e-08
3.67576487377e-08
3.6758974632e-08
3.67600121362e-08
3.67610565054e-08
3.67620247401e-08
3.67629511802e-08
3.67636184461e-08
3.67639824429e-08
3.67638253214e-08
3.67631039516e-08
3.67616382451e-08
3.67594073086e-08
3.67562866906e-08
3.67522937691e-08
3.67473637975e-08
3.67415572186e-08
3.67348640823e-08
3.67273821151e-08
3.67191427465e-08
3.67102668826e-08
3.67008087458e-08
3.66908953712e-08
3.66805864685e-08
3.66700018539e-08
3.66591956712e-08
3.66482736762e-08
3.66372798787e-08
3.66263042353e-08
3.66153800908e-08
3.66045824697e-08
3.65939352756e-08
3.65835003438e-08
3.6573293788e-08
3.65633659901e-08
3.65537267429e-08
3.65444164017e-08
3.6535439611e-08
3.65268278791e-08
3.65185816852e-08
3.65107247556e-08
3.65032543047e-08
3.64961873313e-08
3.64895186416e-08
3.6483259502e-08
3.64774029966e-08
3.64719554886e-08
3.64669088451e-08
3.64622652689e-08
3.64580158367e-08
3.64541592871e-08
3.64506862121e-08
3.64475924176e-08
3.64448680789e-08
3.64425063882e-08
3.64404970704e-08
3.64388311361e-08
3.64374981166e-08
3.64364875246e-08
3.64357889587e-08
3.64353908038e-08
3.64352825337e-08
3.64354513019e-08
3.64358860502e-08
3.64365728227e-08
3.64375010481e-08
3.64386594866e-08
3.64400314755e-08
3.64416015023e-08
3.64433591514e-08
3.6445290339e-08
3.64473843903e-08
3.64496274387e-08
3.64520089915e-08
3.6454515559e-08
3.6457136914e-08
3.64598600922e-08
3.64626752171e-08
3.64655699758e-08
3.64685349228e-08
3.64715585003e-08
3.64746317666e-08
3.64777440004e-08
3.64808868263e-08
3.64840504215e-08
3.64872270269e-08
3.6490407762e-08
3.64935855211e-08
3.64967523931e-08
3.64999019481e-08
3.65030272567e-08
3.6506122573e-08
3.65091819474e-08
3.65122003124e-08
3.65151726842e-08
3.65180946549e-08
3.65209621812e-08
3.65237714837e-08
3.65265194244e-08
3.6529202811e-08
3.6531819367e-08
3.65343664371e-08
3.65368425562e-08
3.65392455476e-08
3.65415747016e-08
3.65438282571e-08
3.65460061999e-08
3.65481071167e-08
3.65501316266e-08
3.65520785941e-08
3.65539492087e-08
3.65557425407e-08
3.65574602897e-08
3.655910166e-08
3.6560668803e-08
3.6562160987e-08
3.65635807602e-08
3.6564927388e-08
3.65662037593e-08
3.65674090698e-08
3.65685464907e-08
3.65696150805e-08
3.65706182286e-08
3.65715548026e-08
3.65724283695e-08
3.65732375973e-08
3.65739861787e-08
3.65746727527e-08
3.65753015651e-08
3.65758737475e-08
3.65764078006e-08
3.65769929647e-08
3.65782207492e-08
3.6584013961e-08
3.66211719082e-08
3.68767382155e-08
3.86798533576e-08
5.11685030979e-08
1.17839908012e-07
2.71136227455e-07
3.67564823113e-08
3.67583135213e-08
3.67601936681e-08
3.67619876584e-08
3.67639858625e-08
3.67660823577e-08
3.67682694956e-08
3.67702768778e-08
3.67720200474e-08
3.6773233804e-08
3.67738319595e-08
3.67735993502e-08
3.67724860262e-08
3.67703448115e-08
3.67671790995e-08
3.67629167004e-08
3.67576184135e-08
3.67512806133e-08
3.67440130045e-08
3.67358628666e-08
3.6726969281e-08
3.67174054418e-08
3.67073164178e-08
3.66967785104e-08
3.66859255098e-08
3.6674823558e-08
3.66635876523e-08
3.66522696027e-08
3.66409649013e-08
3.66297117549e-08
3.66185882795e-08
3.66076214077e-08
3.65968745357e-08
3.65863656611e-08
3.65761457155e-08
3.65662255985e-08
3.65566455061e-08
3.65474106495e-08
3.65385518981e-08
3.65300699431e-08
3.65219875889e-08
3.65143020662e-08
3.65070293339e-08
3.65001641259e-08
3.6493716646e-08
3.64876798592e-08
3.64820590981e-08
3.64768460986e-08
3.6472042123e-08
3.64676381345e-08
3.64636320457e-08
3.64600143332e-08
3.64567800584e-08
3.64539192279e-08
3.6451424346e-08
3.64492849356e-08
3.64474914537e-08
3.64460332914e-08
3.64448995875e-08
3.64440798239e-08
3.6443562069e-08
3.64433355793e-08
3.6443387198e-08
3.64437056152e-08
3.64442767294e-08
3.64450902098e-08
3.64461340106e-08
3.6447390793e-08
3.64488449803e-08
3.64504860763e-08
3.64522999777e-08
3.64542758142e-08
3.64563997483e-08
3.64586610993e-08
3.64610464383e-08
3.6463545361e-08
3.64661449903e-08
3.64688352861e-08
3.64716040447e-08
3.64744416733e-08
3.64773367422e-08
3.64802801809e-08
3.64832614141e-08
3.64862719582e-08
3.6489302153e-08
3.64923441532e-08