/*--------------------------------*- C++ -*----------------------------------*\
| =========                 |                                                 |
| \\      /  F ield         | OpenFOAM: The Open Source CFD Toolbox           |
|  \\    /   O peration     | Version:  2206                                  |
|   \\  /    A nd           | Website:  www.openfoam.com                      |
|    \\/     M anipulation  |                                                 |
\*---------------------------------------------------------------------------*/
FoamFile
{
    version     2.0;
    format      ascii;
    arch        "LSB;label=64;scalar=64";
    class       volScalarField;
    location    "0.4/water";
    object      p;
}
// * * * * * * * * * * * * * * * * * * * * * * * * * * * * * * * * * * * * * //

dimensions      [1 -1 -2 0 0 0 0];

internalField   nonuniform List<scalar> 
23300
(
100707.953118
100707.954126
100707.955575
100707.957812
100707.960815
100707.96466
100707.96931
100707.974861
100707.98127
100707.988647
100707.996948
100708.006292
100708.016641
100708.02812
100708.040694
100708.054496
100708.069493
100708.085823
100708.103455
100708.122526
100708.143008
100708.165037
100708.188582
100708.213779
100708.240591
100708.269151
100708.29942
100708.331522
100708.365414
100708.401213
100708.43887
100708.478494
100708.520029
100708.563574
100708.609069
100708.656599
100708.7061
100708.757646
100708.811167
100708.866724
100708.924243
100708.983773
100709.045234
100709.108664
100709.173981
100709.241208
100709.310261
100709.381151
100709.453793
100709.528185
100709.604243
100709.681953
100709.76123
100709.84205
100709.924328
100710.008033
100710.093078
100710.179424
100710.266987
100710.355718
100710.445537
100710.536388
100710.628192
100710.720889
100710.8144
100710.908664
100711.003602
100711.099151
100711.195236
100711.29179
100711.388733
100711.485985
100711.58348
100711.681147
100711.778918
100711.876722
100711.974492
100712.072156
100712.169651
100712.266904
100712.363854
100712.46043
100712.556573
100712.652214
100712.747294
100712.841746
100712.935516
100713.028537
100713.120758
100713.212112
100713.302552
100713.392015
100713.480453
100713.567806
100713.65403
100713.739068
100713.822876
100713.905399
100713.986598
100714.06642
100714.144827
100714.221769
100714.297211
100714.371105
100714.443419
100714.514107
100714.58314
100714.650474
100714.716081
100714.779922
100714.841971
100714.90219
100714.960555
100715.017033
100715.0716
100715.124226
100715.17489
100715.223563
100715.270227
100715.314856
100715.357433
100715.397935
100715.436347
100715.472647
100715.506824
100715.538858
100715.568738
100715.596449
100715.621981
100715.645321
100715.66646
100715.685389
100715.702101
100715.716589
100715.728847
100715.738871
100715.746658
100715.752217
100715.755602
100715.757022
100699.873838
100699.874814
100699.876216
100699.878406
100699.881367
100699.88515
100699.889742
100699.895208
100699.901538
100699.908807
100699.917009
100699.926228
100699.936461
100699.9478
100699.960248
100699.9739
100699.988765
100700.00494
100700.022437
100700.041354
100700.061703
100700.083582
100700.107
100700.132054
100700.158749
100700.187179
100700.217343
100700.24933
100700.283133
100700.318834
100700.356421
100700.395966
100700.437451
100700.480938
100700.526403
100700.573897
100700.62339
100700.674922
100700.728455
100700.784019
100700.841571
100700.901128
100700.962642
100701.02612
100701.091506
100701.158799
100701.227937
100701.29891
100701.371652
100701.446142
100701.522313
100701.600133
100701.679534
100701.760476
100701.842887
100701.926722
100702.011908
100702.098392
100702.186101
100702.274977
100702.364946
100702.455945
100702.547902
100702.64075
100702.734415
100702.82883
100702.923921
100703.019618
100703.115851
100703.212538
100703.309611
100703.407004
100703.504645
100703.602461
100703.700381
100703.798333
100703.896251
100703.994062
100704.091701
100704.189097
100704.286188
100704.382904
100704.479184
100704.57496
100704.670172
100704.764756
100704.858653
100704.951801
100705.044144
100705.135621
100705.226179
100705.315758
100705.40431
100705.491776
100705.578108
100705.663253
100705.747165
100705.829791
100705.911088
100705.991008
100706.069509
100706.146544
100706.222076
100706.296059
100706.368457
100706.43923
100706.508342
100706.575756
100706.641439
100706.705355
100706.767475
100706.827764
100706.886197
100706.94274
100706.997371
100707.050058
100707.100781
100707.149512
100707.196231
100707.240914
100707.283542
100707.324093
100707.362552
100707.398898
100707.433118
100707.465194
100707.495114
100707.522863
100707.54843
100707.571804
100707.592975
100707.611934
100707.628673
100707.643185
100707.655462
100707.665499
100707.673289
100707.678839
100707.682216
100707.6837
100691.792153
100691.793117
100691.794459
100691.796567
100691.799428
100691.803086
100691.807534
100691.81283
100691.818971
100691.826028
100691.834002
100691.842972
100691.852946
100691.864008
100691.876173
100691.889531
100691.904098
100691.919969
100691.937163
100691.955776
100691.975826
100691.997409
100692.020542
100692.045317
100692.071748
100692.099923
100692.129851
100692.161614
100692.195217
100692.230732
100692.268157
100692.307557
100692.348924
100692.392311
100692.437703
100692.485145
100692.534611
100692.586137
100692.639691
100692.695296
100692.752914
100692.812558
100692.874182
100692.937788
100693.003326
100693.070786
100693.140115
100693.211292
100693.284257
100693.358984
100693.435409
100693.513495
100693.593175
100693.674407
100693.75712
100693.841265
100693.926771
100694.013582
100694.101625
100694.190841
100694.281155
100694.372504
100694.464813
100694.558016
100694.652038
100694.74681
100694.842258
100694.938311
100695.034892
100695.131931
100695.229362
100695.327109
100695.425102
100695.523267
100695.621533
100695.719828
100695.818085
100695.91623
100696.014199
100696.111921
100696.209332
100696.306363
100696.402952
100696.499031
100696.594541
100696.689417
100696.7836
100696.877027
100696.969644
100697.061387
100697.152206
100697.24204
100697.33084
100697.418548
100697.505116
100697.590489
100697.674624
100697.757466
100697.838974
100697.919098
100697.997797
100698.075023
100698.15074
100698.224903
100698.297474
100698.368414
100698.437688
100698.505257
100698.57109
100698.635151
100698.697409
100698.757832
100698.816391
100698.873057
100698.927804
100698.980603
100699.031432
100699.080264
100699.127079
100699.171852
100699.214565
100699.255198
100699.293732
100699.330149
100699.364435
100699.396573
100699.426549
100699.45435
100699.479965
100699.503382
100699.524591
100699.543583
100699.56035
100699.574886
100699.587182
100699.597231
100699.605027
100699.610586
100699.613985
100699.615521
100683.707704
100683.70864
100683.709906
100683.711902
100683.714615
100683.718089
100683.722318
100683.727362
100683.733219
100683.73996
100683.747591
100683.756193
100683.765777
100683.776431
100683.788172
100683.801094
100683.815218
100683.830641
100683.847387
100683.865553
100683.885163
100683.906314
100683.929029
100683.9534
100683.979447
100684.007259
100684.036848
100684.068298
100684.101616
100684.136876
100684.174078
100684.213288
100684.254499
100684.297766
100684.343073
100684.390465
100684.439918
100684.491467
100684.545079
100684.600778
100684.658524
100684.718328
100684.780147
100684.843978
100684.909772
100684.977518
100685.047158
100685.118674
100685.192002
100685.267115
100685.343948
100685.422461
100685.502587
100685.584282
100685.667474
100685.752111
100685.838122
100685.925448
100686.014016
100686.103765
100686.19462
100686.286514
100686.379374
100686.473131
100686.567709
100686.663038
100686.759043
100686.855651
100686.952787
100687.05038
100687.148357
100687.246646
100687.345175
100687.443869
100687.54266
100687.641472
100687.74024
100687.838889
100687.937355
100688.035565
100688.133457
100688.23096
100688.328013
100688.424547
100688.520503
100688.615816
100688.710427
100688.804272
100688.897298
100688.989441
100689.08065
100689.170865
100689.260036
100689.348105
100689.435025
100689.520742
100689.605209
100689.688376
100689.770198
100689.850627
100689.929621
100690.007135
100690.083129
100690.15756
100690.230392
100690.301582
100690.371098
100690.438901
100690.504959
100690.569235
100690.631702
100690.692324
100690.751076
100690.807925
100690.862848
100690.915815
100690.966804
100691.015788
100691.062747
100691.107658
100691.150501
100691.191256
100691.229906
100691.266431
100691.300818
100691.33305
100691.363113
100691.390994
100691.416682
100691.440164
100691.461433
100691.480477
100691.49729
100691.511863
100691.524191
100691.534264
100691.54208
100691.547657
100691.551078
100691.552639
100675.620506
100675.621393
100675.622557
100675.6244
100675.626908
100675.63013
100675.634059
100675.638756
100675.644224
100675.650536
100675.657702
100675.665804
100675.674861
100675.684963
100675.696134
100675.70847
100675.721998
100675.73682
100675.752965
100675.770535
100675.789558
100675.810136
100675.832296
100675.856135
100675.881676
100675.909012
100675.938159
100675.969204
100676.002156
100676.037092
100676.074014
100676.11299
100676.154013
100676.197141
100676.242357
100676.289707
100676.339168
100676.390773
100676.444489
100676.50034
100676.558284
100676.618332
100676.680437
100676.744597
100676.810759
100676.878912
100676.948996
100677.020989
100677.094828
100677.170482
100677.247882
100677.326989
100677.407733
100677.490067
100677.573917
100677.659231
100677.745933
100677.833964
100677.923249
100678.013724
100678.105314
100678.197949
100678.291555
100678.386061
100678.481391
100678.577472
100678.674228
100678.771586
100678.869469
100678.967804
100679.066518
100679.165536
100679.264787
100679.364196
100679.463691
100679.563201
100679.662656
100679.761983
100679.861116
100679.959983
100680.05852
100680.156658
100680.254333
100680.351478
100680.448033
100680.543931
100680.639116
100680.733524
100680.827098
100680.919778
100681.01151
100681.102235
100681.191904
100681.280458
100681.36785
100681.454026
100681.53894
100681.622541
100681.704785
100681.785622
100681.865014
100681.942912
100682.019278
100682.094069
100682.167249
100682.238776
100682.308617
100682.376732
100682.443092
100682.507659
100682.570404
100682.631295
100682.690303
100682.747399
100682.802557
100682.85575
100682.906953
100682.956142
100683.003296
100683.048391
100683.091408
100683.132328
100683.171132
100683.207803
100683.242325
100683.274683
100683.304863
100683.332851
100683.358637
100683.382208
100683.403556
100683.422671
100683.439545
100683.45417
100683.46654
100683.476648
100683.484489
100683.490087
100683.493528
100683.495107
100667.530704
100667.531525
100667.532554
100667.534195
100667.536438
100667.53933
100667.542868
100667.547117
100667.552082
100667.55784
100667.564405
100667.571866
100667.580245
100667.589639
100667.600078
100667.611664
100667.624431
100667.638486
100667.653864
100667.670674
100667.688951
100667.708802
100667.730258
100667.753425
100667.778328
100667.805067
100667.83366
100667.8642
100667.896698
100667.931235
100667.967815
100668.006508
100668.047309
100668.090276
100668.135395
100668.18271
100668.232199
100668.283894
100668.337762
100668.393825
100668.452039
100668.512414
100668.574902
100668.639497
100668.706145
100668.774832
100668.845495
100668.91811
100668.992611
100669.068963
100669.147096
100669.226969
100669.308507
100669.39166
100669.476354
100669.562532
100669.650118
100669.739048
100669.829246
100669.920645
100670.013168
100670.106744
100670.201296
100670.296751
100670.393032
100670.490064
100670.587771
100670.686076
100670.784901
100670.884172
100670.983815
100671.083754
100671.183915
100671.284225
100671.384611
100671.484999
100671.58532
100671.685501
100671.785474
100671.885168
100671.984518
100672.083453
100672.181912
100672.279825
100672.377133
100672.473769
100672.569675
100672.664788
100672.759052
100672.852405
100672.944795
100673.036162
100673.126455
100673.215618
100673.303604
100673.390356
100673.475831
100673.559977
100673.64275
100673.724101
100673.80399
100673.88237
100673.959204
100674.034447
100674.108063
100674.180012
100674.25026
100674.318769
100674.385506
100674.450437
100674.513533
100674.57476
100674.634091
100674.691496
100674.746949
100674.800424
100674.851897
100674.901342
100674.948739
100674.994065
100675.037302
100675.078427
100675.117426
100675.154278
100675.18897
100675.221486
100675.251812
100675.279935
100675.305843
100675.329526
100675.350973
100675.370176
100675.387127
100675.401818
100675.414242
100675.424393
100675.432266
100675.437888
100675.441351
100675.442947
100659.438487
100659.439224
100659.440084
100659.441473
100659.44338
100659.445858
100659.448908
100659.452594
100659.456929
100659.461995
100659.467811
100659.474472
100659.482008
100659.490521
100659.50005
100659.510704
100659.522526
100659.535629
100659.550058
100659.565928
100659.583283
100659.602236
100659.622827
100659.645166
100659.669287
100659.695293
100659.72321
100659.753135
100659.785082
100659.819137
100659.855306
100659.893663
100659.934203
100659.976987
100660.021999
100660.069287
100660.118824
100660.170645
100660.224715
100660.281052
100660.339614
100660.400406
100660.463376
100660.528519
100660.595776
100660.665129
100660.736514
100660.809901
100660.885222
100660.962439
100661.041478
100661.122294
100661.204809
100661.288971
100661.3747
100661.461938
100661.550605
100661.640635
100661.731948
100661.824475
100661.918136
100662.012858
100662.108561
100662.205171
100662.302608
100662.400795
100662.499655
100662.599107
100662.699074
100662.799479
100662.900247
100663.001299
100663.102564
100663.203963
100663.305426
100663.406876
100663.508245
100663.609457
100663.710445
100663.811138
100663.911468
100664.011367
100664.11077
100664.20961
100664.307826
100664.40535
100664.502127
100664.59809
100664.693185
100664.787349
100664.880531
100664.97267
100665.063716
100665.153612
100665.242311
100665.329758
100665.415908
100665.500709
100665.584119
100665.666088
100665.746576
100665.825536
100665.902932
100665.978718
100666.05286
100666.125316
100666.196054
100666.265035
100666.332227
100666.397596
100666.461113
100666.522744
100666.582463
100666.640238
100666.696048
100666.749861
100666.801658
100666.851411
100666.899101
100666.944705
100666.988204
100667.029577
100667.068808
100667.105879
100667.140776
100667.173481
100667.203983
100667.232267
100667.258323
100667.28214
100667.303707
100667.323016
100667.34006
100667.354829
100667.367319
100667.377521
100667.385432
100667.391083
100667.394571
100667.396186
100651.344091
100651.344723
100651.345375
100651.346453
100651.34795
100651.349921
100651.352369
100651.355368
100651.358933
100651.363151
100651.368051
100651.373735
100651.38024
100651.387679
100651.396098
100651.405617
100651.416287
100651.428232
100651.441507
100651.456236
100651.472471
100651.490336
100651.509878
100651.531218
100651.554394
100651.57952
100651.606625
100651.635812
100651.667101
100651.700583
100651.736267
100651.774228
100651.814465
100651.857039
100651.901936
100651.949203
100651.998813
100652.050799
100652.105124
100652.161805
100652.220796
100652.2821
100652.345663
100652.411473
100652.47947
100652.549631
100652.621888
100652.696208
100652.772517
100652.850774
100652.930901
100653.012847
100653.096532
100653.181898
100653.268864
100653.357366
100653.44732
100653.538658
100653.631296
100653.725162
100653.820173
100653.916253
100654.013319
100654.111295
100654.210098
100654.30965
100654.409869
100654.510675
100654.611988
100654.713729
100654.81582
100654.918184
100655.020746
100655.123427
100655.226155
100655.328854
100655.431452
100655.533875
100655.636055
100655.737919
100655.8394
100655.940429
100656.04094
100656.140865
100656.240145
100656.338711
100656.436505
100656.533464
100656.629531
100656.724646
100656.818754
100656.911796
100657.003723
100657.094477
100657.18401
100657.272269
100657.359208
100657.444776
100657.528929
100657.61162
100657.692808
100657.772446
100657.850498
100657.926919
100658.001675
100658.074724
100658.146033
100658.215565
100658.283289
100658.349169
100658.413177
100658.47528
100658.535451
100658.59366
100658.649884
100658.704094
100658.756268
100658.806381
100658.854413
100658.90034
100658.944146
100658.985808
100659.025311
100659.062637
100659.097772
100659.130698
100659.161405
100659.189878
100659.216106
100659.240079
100659.261786
100659.281219
100659.298371
100659.313233
100659.325799
100659.336061
100659.344017
100659.349701
100659.353218
100659.354853
100643.2478
100643.248304
100643.248704
100643.249408
100643.250408
100643.251766
100643.253489
100643.255656
100643.258289
100643.261485
100643.26528
100643.269785
100643.275048
100643.281192
100643.288275
100643.296427
100643.305712
100643.316266
100643.328154
100643.341514
100643.356407
100643.37297
100643.391259
100643.411405
100643.433456
100643.457533
100643.483674
100643.511988
100643.542502
100643.575309
100643.610424
100643.647926
100643.687814
100643.730151
100643.774923
100643.822177
100643.871886
100643.924081
100643.978721
100644.035821
100644.095333
100644.157254
100644.221527
100644.288136
100644.357015
100644.428137
100644.501429
100644.576853
100644.65433
100644.733813
100644.81522
100644.898495
100644.983553
100645.070333
100645.158745
100645.248725
100645.340182
100645.433046
100645.527228
100645.622652
100645.719232
100645.81689
100645.915538
100646.015097
100646.115483
100646.216615
100646.318408
100646.420778
100646.523645
100646.626928
100646.730547
100646.834423
100646.938479
100647.042637
100647.146822
100647.250958
100647.354971
100647.458788
100647.562337
100647.665547
100647.76835
100647.870675
100647.972459
100648.073631
100648.17413
100648.27389
100648.372853
100648.470953
100648.568135
100648.664338
100648.759508
100648.853585
100648.94652
100649.038256
100649.128745
100649.217933
100649.305775
100649.39222
100649.477225
100649.560741
100649.642729
100649.723143
100649.801945
100649.879092
100649.954549
100650.028276
100650.100239
100650.170401
100650.238732
100650.305196
100650.369766
100650.432407
100650.493096
100650.5518
100650.608498
100650.66316
100650.715766
100650.766289
100650.814711
100650.861008
100650.905164
100650.947156
100650.98697
100651.024587
100651.059993
100651.093173
100651.124113
100651.152801
100651.179227
100651.203377
100651.225245
100651.244819
100651.262094
100651.277062
100651.289715
100651.300047
100651.308055
100651.313777
100651.317326
100651.318982
100635.149959
100635.150312
100635.15041
100635.150663
100635.151069
100635.151693
100635.152547
100635.153719
100635.155239
100635.157211
100635.159684
100635.16278
100635.166558
100635.171155
100635.176641
100635.183163
100635.190796
100635.199692
100635.209928
100635.221658
100635.234957
100635.249974
100635.266778
100635.285511
100635.306233
100635.329073
100635.35408
100635.381369
100635.410974
100635.442996
100635.477451
100635.514422
100635.553911
100635.595983
100635.640622
100635.687876
100635.737716
100635.790168
100635.845192
100635.902797
100635.962929
100636.025584
100636.090697
100636.158248
100636.228165
100636.300415
100636.374918
100636.451631
100636.530469
100636.611379
100636.694273
100636.779089
100636.865737
100636.954149
100637.044232
100637.135914
100637.229102
100637.32372
100637.419674
100637.516886
100637.615264
100637.714727
100637.815184
100637.916553
100638.018745
100638.121678
100638.225263
100638.329415
100638.43405
100638.539085
100638.64444
100638.750034
100638.855786
100638.96162
100639.067457
100639.17322
100639.278836
100639.38423
100639.48933
100639.594062
100639.69836
100639.802151
100639.905372
100640.007952
100640.109829
100640.210938
100640.311218
100640.410607
100640.509046
100640.606476
100640.702843
100640.798087
100640.892159
100640.985001
100641.076566
100641.1668
100641.255659
100641.343092
100641.429055
100641.513501
100641.59639
100641.677676
100641.757322
100641.835286
100641.911532
100641.986021
100642.058719
100642.12959
100642.198603
100642.265724
100642.330924
100642.394172
100642.455441
100642.514702
100642.571932
100642.627102
100642.680193
100642.731177
100642.780038
100642.826751
100642.871299
100642.913662
100642.953824
100642.991768
100643.02748
100643.060944
100643.092147
100643.121077
100643.147723
100643.172074
100643.194121
100643.213855
100643.231269
100643.246355
100643.259107
100643.269517
100643.277583
100643.283348
100643.286934
100643.288611
100627.050983
100627.051155
100627.050895
100627.050614
100627.050312
100627.050062
100627.049884
100627.049871
100627.050065
100627.050583
100627.051484
100627.052903
100627.054917
100627.057676
100627.061267
100627.065853
100627.071527
100627.078457
100627.086739
100627.096541
100627.107956
100627.121149
100627.136203
100627.153274
100627.172433
100627.193825
100627.217505
100627.2436
100627.27215
100627.303261
100627.336956
100627.373321
100627.412359
100627.454136
100627.498638
100627.545908
100627.595915
100627.648685
100627.70417
100627.762377
100627.823245
100627.886763
100627.952862
100628.021514
100628.09264
100628.1662
100628.242107
100628.320312
100628.400721
100628.483275
100628.567878
100628.654462
100628.742931
100628.83321
100628.9252
100629.018824
100629.113983
100629.210595
100629.308562
100629.407802
100629.508217
100629.609722
100629.712224
100629.815636
100629.919866
100630.024829
100630.130433
100630.236589
100630.343212
100630.450217
100630.55752
100630.66504
100630.772695
100630.880405
100630.988093
100631.095678
100631.203088
100631.310245
100631.417078
100631.523512
100631.629479
100631.734907
100631.839731
100631.943882
100632.047296
100632.149908
100632.251657
100632.352481
100632.452321
100632.551118
100632.648817
100632.74536
100632.840696
100632.934769
100633.027531
100633.118929
100633.208919
100633.297448
100633.384477
100633.469955
100633.553845
100633.6361
100633.716685
100633.795555
100633.872678
100633.948012
100634.021526
100634.093184
100634.162954
100634.230804
100634.296704
100634.360624
100634.422538
100634.482416
100634.540236
100634.59597
100634.649598
100634.701094
100634.750441
100634.797614
100634.842598
100634.885372
100634.925921
100634.964228
100635.000278
100635.034056
100635.065551
100635.094749
100635.12164
100635.146213
100635.16846
100635.18837
100635.205938
100635.221156
100635.234017
100635.244514
100635.252645
100635.258458
100635.262083
100635.263784
100618.951369
100618.951325
100618.95064
100618.949725
100618.948587
100618.947302
100618.945899
100618.944484
100618.943108
100618.941902
100618.94094
100618.940375
100618.9403
100618.940884
100618.942232
100618.944529
100618.947888
100618.952497
100618.958473
100618.966004
100618.975202
100618.986251
100618.99925
100619.014375
100619.031709
100619.051411
100619.073549
100619.098259
100619.125588
100619.155653
100619.188479
100619.224156
100619.262688
100619.304143
100619.348504
100619.395814
100619.446037
100619.499195
100619.555233
100619.614153
100619.675888
100619.740418
100619.807666
100619.877598
100619.950124
100620.025197
100620.102721
100620.182638
100620.264847
100620.34928
100620.435834
100620.524432
100620.61497
100620.707367
100620.801518
100620.897337
100620.994721
100621.093582
100621.193816
100621.295334
100621.398037
100621.501833
100621.606625
100621.712323
100621.818832
100621.926062
100622.033918
100622.142309
100622.251145
100622.360341
100622.469812
100622.579472
100622.68924
100622.799033
100622.908772
100623.018378
100623.127774
100623.236884
100623.345634
100623.45395
100623.561763
100623.669001
100623.775596
100623.881481
100623.986593
100624.090863
100624.194233
100624.296639
100624.398024
100624.498327
100624.597494
100624.695468
100624.792196
100624.887624
100624.981704
100625.074383
100625.165617
100625.255354
100625.343554
100625.430168
100625.515158
100625.598479
100625.680094
100625.759961
100625.838046
100625.914309
100625.98872
100626.061241
100626.131844
100626.200493
100626.267162
100626.33182
100626.394441
100626.454997
100626.513465
100626.569818
100626.624035
100626.676093
100626.725972
100626.773651
100626.819113
100626.862338
100626.903311
100626.942015
100626.978436
100627.01256
100627.044375
100627.073867
100627.101027
100627.125843
100627.148308
100627.168413
100627.18615
100627.201512
100627.214493
100627.225085
100627.233288
100627.239154
100627.242823
100627.244548
100610.851704
100610.851405
100610.850221
100610.848558
100610.84643
100610.843922
100610.841073
100610.838
100610.834768
100610.831526
100610.828363
100610.825454
100610.82291
100610.820925
100610.819626
100610.819223
100610.819852
100610.821728
100610.82499
100610.829852
100610.836448
100610.844984
100610.855581
100610.868432
100610.883641
100610.90138
100610.92173
100610.944841
100610.970769
100610.999637
100611.031474
100611.066377
100611.104349
100611.145458
100611.189684
100611.237067
100611.287566
100611.341196
100611.397897
100611.457662
100611.520414
100611.586127
100611.654711
100611.726122
100611.800263
100611.877075
100611.956452
100612.038327
100612.122587
100612.209157
100612.297923
100612.388801
100612.481677
100612.576463
100612.673044
100612.771331
100612.87121
100612.972588
100613.075356
100613.17942
100613.284672
100613.39102
100613.498359
100613.606596
100613.715632
100613.825375
100613.935725
100614.046586
100614.157869
100614.269485
100614.381346
100614.493366
100614.605461
100614.717547
100614.829543
100614.94137
100615.052949
100615.164203
100615.275059
100615.38544
100615.495277
100615.604497
100615.713034
100615.820819
100615.927787
100616.033873
100616.139016
100616.243153
100616.346226
100616.448175
100616.548947
100616.648482
100616.746732
100616.843639
100616.939157
100617.033234
100617.125825
100617.216879
100617.306356
100617.394209
100617.480398
100617.56488
100617.647618
100617.72857
100617.807704
100617.88498
100617.960366
100618.033828
100618.105336
100618.174856
100618.242362
100618.307822
100618.371213
100618.432506
100618.491678
100618.548704
100618.603563
100618.656231
100618.70669
100618.754919
100618.8009
100618.844615
100618.886049
100618.925185
100618.962011
100618.99651
100619.028672
100619.058483
100619.085935
100619.111017
100619.13372
100619.154035
100619.171956
100619.187476
100619.200588
100619.211284
100619.219565
100619.225489
100619.229205
100619.230955
100602.752692
100602.752093
100602.750318
100602.747773
100602.74448
100602.74053
100602.735974
100602.730945
100602.725524
100602.719878
100602.714118
100602.708441
100602.702985
100602.69797
100602.693552
100602.689967
100602.687383
100602.686043
100602.686116
100602.687846
100602.691392
100602.696989
100602.704782
100602.714986
100602.727725
100602.743191
100602.761478
100602.782751
100602.807075
100602.834581
100602.865305
100602.899343
100602.936701
100602.977445
100603.021551
100603.069055
100603.119907
100603.174116
100603.231612
100603.292376
100603.356323
100603.423414
100603.493547
100603.566668
100603.642666
100603.721471
100603.802965
100603.887068
100603.973658
100604.062648
100604.153913
100604.247359
100604.342864
100604.44033
100604.539634
100604.640677
100604.74334
100604.847522
100604.953107
100605.059995
100605.168074
100605.277245
100605.387399
100605.49844
100605.610263
100605.722773
100605.835865
100605.949442
100606.06341
100606.17768
100606.292161
100606.406766
100606.521407
100606.636
100606.750464
100606.864715
100606.978677
100607.09227
100607.205419
100607.31805
100607.430091
100607.54147
100607.652119
100607.761969
100607.870957
100607.979015
100608.086084
100608.1921
100608.297006
100608.400742
100608.503254
100608.604483
100608.704381
100608.802892
100608.899969
100608.995559
100609.08962
100609.1821
100609.27296
100609.362153
100609.44964
100609.535378
100609.61933
100609.701457
100609.781724
100609.860094
100609.936536
100610.011014
100610.0835
100610.15396
100610.22237
100610.288698
100610.35292
100610.415009
100610.474942
100610.532694
100610.588246
100610.641572
100610.692657
100610.741479
100610.788021
100610.832265
100610.874197
100610.913799
100610.95106
100610.985964
100611.018501
100611.048658
100611.076425
100611.101792
100611.124752
100611.145295
100611.163415
100611.179104
100611.192357
100611.203165
100611.211532
100611.21752
100611.221285
100611.223062
100594.655163
100594.654208
100594.651739
100594.648158
100594.643489
100594.637841
100594.631275
100594.62394
100594.615937
100594.607457
100594.598634
100594.589695
100594.580805
100594.572218
100594.564122
100594.556791
100594.550425
100594.545305
100594.541634
100594.539691
100594.539668
100594.541832
100594.546356
100594.553483
100594.563359
100594.576198
100594.592112
100594.61128
100594.633777
100594.659744
100594.689219
100594.722303
100594.758999
100594.799371
100594.843388
100594.891078
100594.942384
100594.997303
100595.055753
100595.117703
100595.183053
100595.25175
100595.32368
100595.398773
100595.476903
100595.557987
100595.641893
100595.728528
100595.817756
100595.909477
100596.003556
100596.099887
100596.198337
100596.298797
100596.401137
100596.505247
100596.611002
100596.718291
100596.826994
100596.937002
100597.048199
100597.160479
100597.273729
100597.387848
100597.502727
100597.618268
100597.73436
100597.850904
100597.967805
100598.08497
100598.202306
100598.319724
100598.437136
100598.554455
100598.671598
100598.788483
100598.905029
100599.021157
100599.136793
100599.25186
100599.366287
100599.480001
100599.592934
100599.705018
100599.816187
100599.926375
100600.035524
100600.143567
100600.250451
100600.356113
100600.460501
100600.563557
100600.665231
100600.765469
100600.864224
100600.961444
100601.057087
100601.151102
100601.243449
100601.334083
100601.422966
100601.510054
100601.595312
100601.6787
100601.760186
100601.839731
100601.917306
100601.992875
100602.066411
100602.137882
100602.207262
100602.27452
100602.339635
100602.402577
100602.463327
100602.521858
100602.578152
100602.632186
100602.683942
100602.733399
100602.780543
100602.825354
100602.867819
100602.907921
100602.945649
100602.980987
100603.013926
100603.044452
100603.072558
100603.098231
100603.121466
100603.142253
100603.160586
100603.176458
100603.189863
100603.200792