/*--------------------------------*- C++ -*----------------------------------*\
| =========                 |                                                 |
| \\      /  F ield         | OpenFOAM: The Open Source CFD Toolbox           |
|  \\    /   O peration     | Version:  2206                                  |
|   \\  /    A nd           | Website:  www.openfoam.com                      |
|    \\/     M anipulation  |                                                 |
\*---------------------------------------------------------------------------*/
FoamFile
{
    version     2.0;
    format      ascii;
    arch        "LSB;label=64;scalar=64";
    class       volScalarField;
    location    "0.4/water";
    object      p_rgh;
}
// * * * * * * * * * * * * * * * * * * * * * * * * * * * * * * * * * * * * * //

dimensions      [1 -1 -2 0 0 0 0];

internalField   nonuniform List<scalar> 
23300
(
100711.99253
100711.993537
100711.994987
100711.997223
100712.000227
100712.004071
100712.008722
100712.014273
100712.020682
100712.028059
100712.036359
100712.045704
100712.056052
100712.067531
100712.080106
100712.093907
100712.108905
100712.125235
100712.142866
100712.161938
100712.18242
100712.204449
100712.227994
100712.25319
100712.280003
100712.308563
100712.338832
100712.370934
100712.404826
100712.440625
100712.478282
100712.517906
100712.559441
100712.602986
100712.64848
100712.696011
100712.745512
100712.797058
100712.850579
100712.906136
100712.963655
100713.023185
100713.084646
100713.148076
100713.213393
100713.28062
100713.349672
100713.420562
100713.493204
100713.567597
100713.643655
100713.721365
100713.800641
100713.881462
100713.96374
100714.047445
100714.13249
100714.218836
100714.306398
100714.39513
100714.484949
100714.5758
100714.667604
100714.760301
100714.853812
100714.948075
100715.043014
100715.138563
100715.234648
100715.331202
100715.428145
100715.525397
100715.622892
100715.720559
100715.81833
100715.916134
100716.013904
100716.111568
100716.209063
100716.306316
100716.403266
100716.499842
100716.595985
100716.691625
100716.786706
100716.881158
100716.974928
100717.067949
100717.160169
100717.251524
100717.341964
100717.431426
100717.519864
100717.607218
100717.693442
100717.778479
100717.862287
100717.944811
100718.02601
100718.105831
100718.184238
100718.26118
100718.336622
100718.410517
100718.482831
100718.553519
100718.622552
100718.689886
100718.755493
100718.819334
100718.881383
100718.941601
100718.999967
100719.056444
100719.111012
100719.163637
100719.214302
100719.262975
100719.309639
100719.354268
100719.396845
100719.437347
100719.475758
100719.512059
100719.546235
100719.578269
100719.60815
100719.635861
100719.661393
100719.684732
100719.705872
100719.724801
100719.741513
100719.756001
100719.768259
100719.778283
100719.78607
100719.791629
100719.795014
100719.796434
100711.992073
100711.99305
100711.994451
100711.996641
100711.999602
100712.003385
100712.007977
100712.013443
100712.019773
100712.027042
100712.035244
100712.044463
100712.054696
100712.066035
100712.078483
100712.092136
100712.107
100712.123176
100712.140672
100712.159589
100712.179938
100712.201817
100712.225235
100712.250289
100712.276984
100712.305414
100712.335578
100712.367565
100712.401369
100712.437069
100712.474656
100712.514201
100712.555686
100712.599173
100712.644638
100712.692132
100712.741625
100712.793157
100712.84669
100712.902254
100712.959806
100713.019364
100713.080877
100713.144355
100713.209741
100713.277034
100713.346173
100713.417145
100713.489887
100713.564378
100713.640548
100713.718369
100713.797769
100713.878711
100713.961122
100714.044957
100714.130143
100714.216627
100714.304336
100714.393212
100714.483181
100714.574181
100714.666137
100714.758985
100714.85265
100714.947065
100715.042156
100715.137854
100715.234086
100715.330774
100715.427846
100715.52524
100715.622881
100715.720696
100715.818616
100715.916568
100716.014486
100716.112297
100716.209936
100716.307333
100716.404424
100716.50114
100716.597419
100716.693195
100716.788408
100716.882991
100716.976889
100717.070036
100717.162379
100717.253856
100717.344414
100717.433994
100717.522545
100717.610011
100717.696344
100717.781488
100717.8654
100717.948026
100718.029324
100718.109243
100718.187745
100718.26478
100718.340311
100718.414294
100718.486693
100718.557465
100718.626578
100718.693991
100718.759674
100718.82359
100718.88571
100718.945999
100719.004432
100719.060975
100719.115606
100719.168294
100719.219016
100719.267747
100719.314466
100719.359149
100719.401777
100719.442328
100719.480787
100719.517133
100719.551353
100719.583429
100719.613349
100719.641098
100719.666665
100719.690039
100719.71121
100719.730169
100719.746908
100719.76142
100719.773698
100719.783735
100719.791524
100719.797075
100719.800451
100719.801935
100711.989212
100711.990176
100711.991518
100711.993626
100711.996487
100712.000145
100712.004593
100712.009889
100712.01603
100712.023087
100712.031061
100712.040031
100712.050005
100712.061067
100712.073232
100712.086589
100712.101157
100712.117028
100712.134222
100712.152835
100712.172885
100712.194468
100712.217601
100712.242375
100712.268807
100712.296981
100712.32691
100712.358673
100712.392276
100712.427791
100712.465216
100712.504616
100712.545983
100712.58937
100712.634762
100712.682203
100712.73167
100712.783196
100712.83675
100712.892355
100712.949973
100713.009617
100713.07124
100713.134847
100713.200384
100713.267845
100713.337173
100713.40835
100713.481316
100713.556043
100713.632468
100713.710553
100713.790234
100713.871465
100713.954179
100714.038324
100714.12383
100714.210641
100714.298684
100714.3879
100714.478214
100714.569562
100714.661872
100714.755074
100714.849097
100714.943869
100715.039317
100715.13537
100715.231951
100715.32899
100715.42642
100715.524168
100715.622161
100715.720326
100715.818592
100715.916887
100716.015143
100716.113289
100716.211258
100716.30898
100716.406391
100716.503422
100716.600011
100716.69609
100716.7916
100716.886476
100716.980659
100717.074086
100717.166702
100717.258446
100717.349265
100717.439099
100717.527899
100717.615606
100717.702174
100717.787548
100717.871683
100717.954525
100718.036033
100718.116157
100718.194855
100718.272082
100718.347799
100718.421961
100718.494533
100718.565473
100718.634747
100718.702316
100718.768149
100718.832209
100718.894468
100718.95489
100719.01345
100719.070116
100719.124863
100719.177662
100719.228491
100719.277323
100719.324137
100719.368911
100719.411624
100719.452256
100719.490791
100719.527208
100719.561494
100719.593632
100719.623608
100719.651409
100719.677024
100719.70044
100719.72165
100719.740642
100719.757409
100719.771944
100719.78424
100719.79429
100719.802086
100719.807645
100719.811044
100719.812579
100711.983587
100711.984522
100711.985789
100711.987784
100711.990497
100711.993971
100711.998201
100712.003244
100712.009101
100712.015842
100712.023474
100712.032075
100712.041659
100712.052313
100712.064054
100712.076976
100712.0911
100712.106523
100712.123269
100712.141435
100712.161045
100712.182197
100712.204911
100712.229283
100712.25533
100712.283141
100712.31273
100712.34418
100712.377498
100712.412758
100712.44996
100712.489171
100712.530381
100712.573648
100712.618955
100712.666347
100712.7158
100712.767349
100712.820961
100712.87666
100712.934406
100712.994211
100713.056029
100713.119861
100713.185654
100713.2534
100713.32304
100713.394556
100713.467885
100713.542998
100713.61983
100713.698343
100713.77847
100713.860164
100713.943356
100714.027993
100714.114004
100714.20133
100714.289899
100714.379648
100714.470502
100714.562397
100714.655257
100714.749013
100714.843591
100714.93892
100715.034926
100715.131533
100715.228669
100715.326262
100715.42424
100715.522529
100715.621057
100715.719752
100715.818542
100715.917355
100716.016122
100716.114772
100716.213237
100716.311448
100716.409339
100716.506843
100716.603895
100716.700429
100716.796386
100716.891698
100716.986309
100717.080155
100717.17318
100717.265324
100717.356533
100717.446748
100717.535918
100717.623987
100717.710908
100717.796624
100717.881092
100717.964258
100718.04608
100718.126509
100718.205504
100718.283017
100718.359011
100718.433442
100718.506274
100718.577465
100718.646981
100718.714783
100718.780841
100718.845118
100718.907584
100718.968207
100719.026958
100719.083808
100719.13873
100719.191697
100719.242686
100719.29167
100719.33863
100719.38354
100719.426384
100719.467139
100719.505788
100719.542314
100719.576701
100719.608932
100719.638995
100719.666876
100719.692564
100719.716047
100719.737315
100719.756359
100719.773172
100719.787746
100719.800073
100719.810147
100719.817962
100719.823539
100719.82696
100719.828521
100711.975212
100711.976099
100711.977263
100711.979106
100711.981614
100711.984835
100711.988765
100711.993462
100711.99893
100712.005242
100712.012408
100712.02051
100712.029567
100712.039669
100712.05084
100712.063176
100712.076704
100712.091526
100712.107671
100712.125241
100712.144264
100712.164842
100712.187002
100712.210841
100712.236382
100712.263718
100712.292865
100712.32391
100712.356861
100712.391797
100712.42872
100712.467696
100712.508719
100712.551847
100712.597063
100712.644413
100712.693874
100712.745479
100712.799195
100712.855046
100712.91299
100712.973038
100713.035142
100713.099303
100713.165465
100713.233618
100713.303702
100713.375695
100713.449534
100713.525187
100713.602588
100713.681695
100713.762439
100713.844773
100713.928623
100714.013936
100714.100638
100714.18867
100714.277955
100714.36843
100714.460019
100714.552655
100714.646261
100714.740767
100714.836096
100714.932178
100715.028934
100715.126292
100715.224175
100715.32251
100715.421224
100715.520242
100715.619493
100715.718901
100715.818397
100715.917907
100716.017362
100716.116689
100716.215822
100716.314689
100716.413226
100716.511363
100716.609039
100716.706184
100716.802739
100716.898637
100716.993822
100717.088229
100717.181804
100717.274483
100717.366216
100717.456941
100717.546609
100717.635164
100717.722556
100717.808732
100717.893646
100717.977247
100718.05949
100718.140328
100718.21972
100718.297617
100718.373984
100718.448775
100718.521955
100718.593482
100718.663323
100718.731438
100718.797798
100718.862365
100718.92511
100718.986001
100719.045009
100719.102105
100719.157263
100719.210455
100719.261659
100719.310848
100719.358002
100719.403097
100719.446114
100719.487034
100719.525838
100719.562509
100719.597031
100719.629389
100719.659569
100719.687557
100719.713343
100719.736914
100719.758262
100719.777376
100719.794251
100719.808876
100719.821246
100719.831354
100719.839195
100719.844793
100719.848234
100719.849812
100711.964233
100711.965054
100711.966083
100711.967725
100711.969967
100711.972859
100711.976398
100711.980647
100711.985611
100711.991369
100711.997934
100712.005395
100712.013774
100712.023169
100712.033607
100712.045193
100712.05796
100712.072015
100712.087393
100712.104203
100712.12248
100712.142331
100712.163788
100712.186954
100712.211858
100712.238596
100712.26719
100712.297729
100712.330227
100712.364764
100712.401344
100712.440037
100712.480838
100712.523806
100712.568924
100712.61624
100712.665728
100712.717424
100712.771292
100712.827354
100712.885569
100712.945944
100713.008431
100713.073027
100713.139675
100713.208361
100713.279024
100713.351639
100713.42614
100713.502492
100713.580626
100713.660498
100713.742036
100713.82519
100713.909884
100713.996062
100714.083647
100714.172577
100714.262775
100714.354175
100714.446697
100714.540274
100714.634826
100714.730281
100714.826561
100714.923594
100715.0213
100715.119605
100715.21843
100715.317702
100715.417344
100715.517283
100715.617445
100715.717754
100715.81814
100715.918528
100716.018849
100716.11903
100716.219004
100716.318698
100716.418047
100716.516983
100716.615441
100716.713355
100716.810662
100716.907298
100717.003205
100717.098318
100717.192581
100717.285935
100717.378324
100717.469691
100717.559984
100717.649148
100717.737133
100717.823886
100717.909361
100717.993506
100718.076279
100718.15763
100718.237519
100718.3159
100718.392733
100718.467976
100718.541593
100718.613542
100718.68379
100718.752298
100718.819036
100718.883967
100718.947063
100719.008289
100719.06762
100719.125025
100719.180479
100719.233953
100719.285426
100719.334871
100719.382269
100719.427595
100719.470831
100719.511957
100719.550955
100719.587807
100719.6225
100719.655015
100719.685341
100719.713464
100719.739373
100719.763055
100719.784503
100719.803706
100719.820657
100719.835348
100719.847772
100719.857922
100719.865795
100719.871417
100719.87488
100719.876477
100711.95084
100711.951577
100711.952436
100711.953825
100711.955733
100711.958211
100711.961261
100711.964947
100711.969282
100711.974348
100711.980164
100711.986825
100711.994361
100712.002874
100712.012403
100712.023057
100712.034879
100712.047982
100712.062411
100712.078281
100712.095636
100712.114589
100712.13518
100712.157519
100712.181639
100712.207646
100712.235563
100712.265487
100712.297435
100712.33149
100712.367659
100712.406016
100712.446556
100712.48934
100712.534352
100712.581639
100712.631177
100712.682998
100712.737068
100712.793405
100712.851967
100712.912759
100712.975729
100713.040872
100713.108129
100713.177482
100713.248866
100713.322254
100713.397575
100713.474792
100713.553831
100713.634647
100713.717162
100713.801324
100713.887053
100713.974291
100714.062957
100714.152987
100714.244301
100714.336828
100714.430489
100714.525211
100714.620914
100714.717524
100714.814961
100714.913148
100715.012008
100715.11146
100715.211427
100715.311832
100715.4126
100715.513652
100715.614917
100715.716316
100715.817779
100715.919229
100716.020597
100716.12181
100716.222798
100716.323491
100716.423821
100716.52372
100716.623123
100716.721963
100716.820179
100716.917703
100717.014479
100717.110443
100717.205538
100717.299702
100717.392884
100717.485023
100717.576069
100717.665965
100717.754664
100717.842111
100717.928261
100718.013062
100718.096472
100718.178441
100718.258929
100718.337889
100718.415285
100718.491071
100718.565213
100718.637669
100718.708407
100718.777388
100718.84458
100718.909949
100718.973466
100719.035097
100719.094815
100719.152591
100719.208401
100719.262214
100719.314011
100719.363764
100719.411454
100719.457058
100719.500557
100719.54193
100719.581161
100719.618232
100719.653129
100719.685834
100719.716336
100719.74462
100719.770676
100719.794493
100719.81606
100719.835369
100719.852412
100719.867182
100719.879672
100719.889874
100719.897785
100719.903436
100719.906924
100719.908539
100711.935268
100711.9359
100711.936551
100711.937629
100711.939126
100711.941098
100711.943546
100711.946545
100711.950109
100711.954327
100711.959227
100711.964911
100711.971416
100711.978855
100711.987274
100711.996793
100712.007463
100712.019409
100712.032683
100712.047412
100712.063647
100712.081512
100712.101055
100712.122394
100712.145571
100712.170696
100712.197801
100712.226988
100712.258278
100712.29176
100712.327443
100712.365405
100712.405642
100712.448216
100712.493113
100712.540379
100712.589989
100712.641975
100712.6963
100712.752981
100712.811972
100712.873277
100712.936839
100713.00265
100713.070647
100713.140808
100713.213065
100713.287385
100713.363694
100713.441951
100713.522077
100713.604023
100713.687708
100713.773075
100713.860041
100713.948542
100714.038496
100714.129834
100714.222472
100714.316339
100714.411349
100714.507429
100714.604496
100714.702471
100714.801274
100714.900827
100715.001046
100715.101852
100715.203165
100715.304905
100715.406997
100715.509361
100715.611922
100715.714604
100715.817332
100715.92003
100716.022628
100716.125052
100716.227232
100716.329096
100716.430577
100716.531605
100716.632116
100716.732042
100716.831321
100716.929887
100717.027682
100717.12464
100717.220708
100717.315822
100717.40993
100717.502973
100717.594899
100717.685653
100717.775187
100717.863446
100717.950385
100718.035952
100718.120106
100718.202796
100718.283984
100718.363623
100718.441674
100718.518096
100718.592851
100718.6659
100718.73721
100718.806742
100718.874466
100718.940346
100719.004354
100719.066456
100719.126628
100719.184837
100719.241061
100719.295271
100719.347445
100719.397558
100719.445589
100719.491517
100719.535322
100719.576984
100719.616488
100719.653814
100719.688948
100719.721875
100719.752582
100719.781054
100719.807283
100719.831255
100719.852963
100719.872396
100719.889547
100719.904409
100719.916975
100719.927237
100719.935194
100719.940877
100719.944395
100719.946029
100711.9178
100711.918304
100711.918704
100711.919408
100711.920408
100711.921766
100711.923489
100711.925656
100711.928289
100711.931485
100711.93528
100711.939785
100711.945048
100711.951192
100711.958275
100711.966427
100711.975712
100711.986266
100711.998154
100712.011514
100712.026407
100712.04297
100712.061259
100712.081405
100712.103456
100712.127533
100712.153674
100712.181988
100712.212502
100712.245309
100712.280424
100712.317926
100712.357814
100712.400151
100712.444923
100712.492177
100712.541886
100712.594081
100712.648721
100712.705821
100712.765333
100712.827254
100712.891527
100712.958136
100713.027015
100713.098137
100713.171429
100713.246853
100713.32433
100713.403813
100713.48522
100713.568495
100713.653553
100713.740333
100713.828745
100713.918725
100714.010182
100714.103046
100714.197228
100714.292652
100714.389232
100714.48689
100714.585538
100714.685097
100714.785483
100714.886615
100714.988408
100715.090778
100715.193645
100715.296928
100715.400547
100715.504423
100715.608479
100715.712637
100715.816822
100715.920958
100716.024971
100716.128788
100716.232337
100716.335547
100716.43835
100716.540675
100716.642459
100716.743631
100716.84413
100716.94389
100717.042853
100717.140953
100717.238135
100717.334338
100717.429508
100717.523585
100717.61652
100717.708256
100717.798745
100717.887933
100717.975775
100718.06222
100718.147225
100718.230741
100718.312729
100718.393143
100718.471945
100718.549092
100718.624549
100718.698276
100718.770239
100718.840401
100718.908732
100718.975196
100719.039766
100719.102407
100719.163096
100719.2218
100719.278498
100719.33316
100719.385766
100719.436289
100719.484711
100719.531008
100719.575164
100719.617156
100719.65697
100719.694587
100719.729993
100719.763173
100719.794113
100719.822801
100719.849227
100719.873377
100719.895245
100719.914819
100719.932094
100719.947062
100719.959715
100719.970047
100719.978055
100719.983777
100719.987326
100719.988982
100711.898782
100711.899135
100711.899233
100711.899487
100711.899893
100711.900517
100711.901371
100711.902543
100711.904062
100711.906035
100711.908508
100711.911603
100711.915381
100711.919978
100711.925465
100711.931986
100711.939619
100711.948515
100711.958752
100711.970482
100711.983781
100711.998798
100712.015602
100712.034335
100712.055056
100712.077897
100712.102903
100712.130193
100712.159798
100712.191819
100712.226274
100712.263246
100712.302735
100712.344806
100712.389446
100712.4367
100712.486539
100712.538992
100712.594015
100712.65162
100712.711753
100712.774408
100712.839521
100712.907072
100712.976988
100713.049238
100713.123741
100713.200454
100713.279293
100713.360203
100713.443097
100713.527913
100713.61456
100713.702972
100713.793055
100713.884737
100713.977925
100714.072543
100714.168498
100714.26571
100714.364088
100714.46355
100714.564007
100714.665376
100714.767569
100714.870502
100714.974087
100715.078239
100715.182874
100715.287909
100715.393264
100715.498857
100715.60461
100715.710443
100715.81628
100715.922044
100716.02766
100716.133053
100716.238153
100716.342886
100716.447184
100716.550975
100716.654195
100716.756775
100716.858653
100716.959761
100717.060042
100717.15943
100717.25787
100717.3553
100717.451667
100717.546911
100717.640982
100717.733824
100717.825389
100717.915624
100718.004483
100718.091915
100718.177878
100718.262324
100718.345213
100718.426499
100718.506146
100718.584109
100718.660356
100718.734844
100718.807543
100718.878413
100718.947427
100719.014547
100719.079748
100719.142995
100719.204265
100719.263526
100719.320755
100719.375926
100719.429016
100719.480001
100719.528861
100719.575574
100719.620122
100719.662485
100719.702648
100719.740592
100719.776304
100719.809767
100719.840971
100719.869901
100719.896547
100719.920898
100719.942945
100719.962679
100719.980093
100719.995179
100720.007931
100720.01834
100720.026406
100720.032171
100720.035757
100720.037435
100711.87863
100711.878802
100711.878542
100711.878261
100711.877959
100711.877709
100711.877531
100711.877518
100711.877712
100711.87823
100711.879131
100711.880551
100711.882564
100711.885323
100711.888914
100711.8935
100711.899174
100711.906104
100711.914386
100711.924189
100711.935603
100711.948796
100711.96385
100711.980921
100712.00008
100712.021472
100712.045152
100712.071247
100712.099797
100712.130908
100712.164603
100712.200968
100712.240006
100712.281783
100712.326285
100712.373555
100712.423562
100712.476332
100712.531817
100712.590024
100712.650892
100712.714411
100712.780509
100712.849161
100712.920287
100712.993847
100713.069755
100713.147959
100713.228368
100713.310922
100713.395525
100713.482109
100713.570578
100713.660857
100713.752847
100713.846471
100713.94163
100714.038242
100714.136209
100714.235449
100714.335864
100714.437369
100714.539871
100714.643283
100714.747513
100714.852476
100714.95808
100715.064236
100715.170859
100715.277864
100715.385167
100715.492687
100715.600342
100715.708053
100715.81574
100715.923326
100716.030735
100716.137892
100716.244725
100716.351159
100716.457126
100716.562554
100716.667378
100716.771529
100716.874943
100716.977555
100717.079304
100717.180128
100717.279969
100717.378765
100717.476464
100717.573007
100717.668343
100717.762416
100717.855178
100717.946576
100718.036566
100718.125096
100718.212124
100718.297603
100718.381492
100718.463748
100718.544332
100718.623202
100718.700325
100718.775659
100718.849173
100718.920831
100718.990601
100719.058451
100719.124351
100719.188271
100719.250185
100719.310063
100719.367883
100719.423617
100719.477245
100719.528741
100719.578088
100719.625261
100719.670245
100719.713019
100719.753568
100719.791875
100719.827925
100719.861703
100719.893198
100719.922396
100719.949287
100719.97386
100719.996107
100720.016017
100720.033585
100720.048803
100720.061664
100720.072161
100720.080292
100720.086105
100720.08973
100720.091431
100711.857839
100711.857796
100711.857111
100711.856196
100711.855058
100711.853773
100711.852369
100711.850954
100711.849578
100711.848373
100711.847411
100711.846846
100711.84677
100711.847354
100711.848703
100711.851
100711.854358
100711.858968
100711.864943
100711.872475
100711.881673
100711.892721
100711.905721
100711.920845
100711.93818
100711.957882
100711.980019
100712.004729
100712.032059
100712.062124
100712.094949
100712.130626
100712.169159
100712.210614
100712.254975
100712.302285
100712.352508
100712.405665
100712.461704
100712.520624
100712.582358
100712.646889
100712.714137
100712.784068
100712.856594
100712.931667
100713.009192
100713.089109
100713.171318
100713.255751
100713.342304
100713.430903
100713.521441
100713.613838
100713.707988
100713.803808
100713.901192
100714.000052
100714.100286
100714.201805
100714.304507
100714.408304
100714.513096
100714.618794
100714.725303
100714.832533
100714.940389
100715.048779
100715.157616
100715.266812
100715.376282
100715.485943
100715.59571
100715.705503
100715.815243
100715.924848
100716.034245
100716.143354
100716.252105
100716.360421
100716.468234
100716.575471
100716.682067
100716.787952
100716.893063
100716.997334
100717.100704
100717.20311
100717.304495
100717.404798
100717.503965
100717.601938
100717.698667
100717.794095
100717.888175
100717.980854
100718.072087
100718.161825
100718.250025
100718.336639
100718.421629
100718.50495
100718.586564
100718.666431
100718.744516
100718.82078
100718.895191
100718.967712
100719.038314
100719.106964
100719.173633
100719.23829
100719.300912
100719.361468
100719.419935
100719.476288
100719.530506
100719.582563
100719.632443
100719.680122
100719.725584
100719.768808
100719.809782
100719.848485
100719.884907
100719.919031
100719.950845
100719.980337
100720.007497
100720.032314
100720.054779
100720.074883
100720.092621
100720.107983
100720.120964
100720.131556
100720.139759
100720.145625
100720.149294
100720.151019
100711.836998
100711.8367
100711.835515
100711.833853
100711.831724
100711.829217
100711.826368
100711.823294
100711.820062
100711.81682
100711.813657
100711.810748
100711.808204
100711.806219
100711.804921
100711.804518
100711.805146
100711.807023
100711.810284
100711.815146
100711.821742
100711.830278
100711.840875
100711.853726
100711.868935
100711.886674
100711.907024
100711.930135
100711.956063
100711.984931
100712.016769
100712.051671
100712.089643
100712.130752
100712.174978
100712.222361
100712.27286
100712.32649
100712.383191
100712.442956
100712.505708
100712.571421
100712.640005
100712.711416
100712.785557
100712.862369
100712.941746
100713.023621
100713.107882
100713.194451
100713.283217
100713.374095
100713.466971
100713.561757
100713.658339
100713.756625
100713.856504
100713.957882
100714.06065
100714.164714
100714.269966
100714.376314
100714.483653
100714.59189
100714.700927
100714.810669
100714.921019
100715.03188
100715.143163
100715.254779
100715.36664
100715.47866
100715.590755
100715.702841
100715.814838
100715.926664
100716.038243
100716.149497
100716.260353
100716.370734
100716.480571
100716.589791
100716.698328
100716.806113
100716.913081
100717.019167
100717.12431
100717.228447
100717.33152
100717.43347
100717.534241
100717.633777
100717.732026
100717.828933
100717.924452
100718.018528
100718.111119
100718.202173
100718.29165
100718.379503
100718.465692
100718.550174
100718.632912
100718.713864
100718.792998
100718.870274
100718.945661
100719.019122
100719.09063
100719.16015
100719.227656
100719.293116
100719.356507
100719.4178
100719.476973
100719.533998
100719.588857
100719.641525
100719.691984
100719.740213
100719.786194
100719.829909
100719.871344
100719.91048
100719.947305
100719.981804
100720.013966
100720.043777
100720.07123
100720.096311
100720.119014
100720.139329
100720.15725
100720.17277
100720.185882
100720.196578
100720.204859
100720.210784
100720.214499
100720.216249
100711.81681
100711.816211
100711.814435
100711.811891
100711.808597
100711.804648
100711.800091
100711.795063
100711.789642
100711.783995
100711.778235
100711.772559
100711.767103
100711.762088
100711.757669
100711.754085
100711.7515
100711.750161
100711.750234
100711.751964
100711.75551
100711.761107
100711.7689
100711.779104
100711.791843
100711.807308
100711.825596
100711.846869
100711.871193
100711.898699
100711.929422
100711.963461
100712.000819
100712.041563
100712.085669
100712.133172
100712.184025
100712.238234
100712.295729
100712.356494
100712.420441
100712.487531
100712.557665
100712.630786
100712.706783
100712.785588
100712.867082
100712.951185
100713.037776
100713.126765
100713.21803
100713.311477
100713.406982
100713.504447
100713.603752
100713.704795
100713.807457
100713.911639
100714.017225
100714.124113
100714.232192
100714.341363
100714.451517
100714.562558
100714.674381
100714.786891
100714.899983
100715.013559
100715.127528
100715.241798
100715.356279
100715.470883
100715.585524
100715.700118
100715.814581
100715.928833
100716.042795
100716.156387
100716.269537
100716.382168
100716.494209
100716.605588
100716.716237
100716.826087
100716.935075
100717.043133
100717.150202
100717.256218
100717.361124
100717.46486
100717.567371
100717.668601
100717.768499
100717.86701
100717.964087
100718.059677
100718.153737
100718.246218
100718.337078
100718.426271
100718.513758
100718.599495
100718.683448
100718.765574
100718.845842
100718.924212
100719.000653
100719.075131
100719.147617
100719.218078
100719.286488
100719.352815
100719.417038
100719.479126
100719.53906
100719.596812
100719.652363
100719.70569
100719.756775
100719.805596
100719.852139
100719.896383
100719.938315
100719.977917
100720.015178
100720.050082
100720.082619
100720.112775
100720.140543
100720.16591
100720.188869
100720.209412
100720.227532
100720.243222
100720.256475
100720.267283
100720.275649
100720.281637
100720.285403
100720.28718
100711.798104
100711.79715
100711.79468
100711.791099
100711.786431
100711.780782
100711.774216
100711.766881
100711.758878
100711.750398
100711.741575
100711.732636
100711.723746
100711.715159
100711.707063
100711.699732
100711.693366
100711.688246
100711.684575
100711.682632
100711.68261
100711.684773
100711.689297
100711.696424
100711.7063
100711.719139
100711.735053
100711.754221
100711.776719
100711.802685
100711.83216
100711.865244
100711.90194
100711.942312
100711.986329
100712.034019
100712.085326
100712.140244
100712.198694
100712.260644
100712.325994
100712.394691
100712.466622
100712.541714
100712.619844
100712.700928
100712.784834
100712.871469
100712.960697
100713.052418
100713.146497
100713.242828
100713.341278
100713.441738
100713.544078
100713.648189
100713.753943
100713.861233
100713.969935
100714.079943
100714.19114
100714.30342
100714.41667
100714.530789
100714.645668
100714.761209
100714.877301
100714.993846
100715.110747
100715.227912
100715.345248
100715.462666
100715.580077
100715.697396
100715.814539
100715.931424
100716.04797
100716.164099
100716.279734
100716.394802
100716.509228
100716.622942
100716.735876
100716.847959
100716.959128
100717.069317
100717.178465
100717.286509
100717.393392
100717.499054
100717.603442
100717.706498
100717.808172
100717.90841
100718.007165
100718.104386
100718.200028
100718.294043
100718.386391
100718.477025
100718.565907
100718.652995
100718.738253
100718.821641
100718.903127
100718.982672
100719.060247
100719.135816
100719.209353
100719.280823
100719.350203
100719.417461
100719.482576
100719.545518
100719.606268
100719.664799
100719.721093
100719.775127
100719.826883
100719.87634
100719.923484
100719.968295
100720.01076
100720.050862
100720.08859
100720.123928
100720.156867
100720.187394
100720.215499
100720.241173
100720.264407
100720.285194
100720.303527
100720.319399