/*--------------------------------*- C++ -*----------------------------------*\
| =========                 |                                                 |
| \\      /  F ield         | OpenFOAM: The Open Source CFD Toolbox           |
|  \\    /   O peration     | Version:  2206                                  |
|   \\  /    A nd           | Website:  www.openfoam.com                      |
|    \\/     M anipulation  |                                                 |
\*---------------------------------------------------------------------------*/
FoamFile
{
    version     2.0;
    format      ascii;
    arch        "LSB;label=64;scalar=64";
    class       volScalarField;
    location    "1.4/water";
    object      k.gas;
}
// * * * * * * * * * * * * * * * * * * * * * * * * * * * * * * * * * * * * * //

dimensions      [0 2 -2 0 0 0 0];

internalField   nonuniform List<scalar> 
23300
(
5.56736722994e-05
6.66655335212e-05
8.54842945806e-05
0.000109112278
0.000135576880508
0.000163801516441
0.000193215680098
0.00022353549013
0.000254667586219
0.000286657270429
0.000319672922957
0.000354448778032
0.000391748765958
0.00043232109844
0.000476896676807
0.000526200196382
0.000581095137279
0.00064317393969
0.000715904306596
0.000803891055584
0.000907576643741
0.00102391505261
0.00114938442365
0.00128152775052
0.00141863529671
0.00155925660431
0.00170201911629
0.00184559059686
0.00198870394837
0.00213017251002
0.00226891563522
0.00240396012965
0.0025344509976
0.00265963985066
0.00277888561161
0.00289163658604
0.00299742780015
0.00309586239619
0.00318660766285
0.0032693766642
0.00334392576634
0.00341004174129
0.00346754314691
0.00351627100486
0.00355609216834
0.00358689666819
0.00360860699668
0.00362117816279
0.00362459779656
0.00361887215617
0.00360401486561
0.0035800412574
0.00354698707176
0.00350495280126
0.00345417508031
0.00339511180741
0.00332850765315
0.00325535207664
0.00317772737069
0.00309904319178
0.0030204358573
0.00294239955748
0.00286511243774
0.00278853839085
0.00271248295896
0.00263664465488
0.00256065583038
0.0024841231462
0.0024066565032
0.00232789754982
0.00224753722648
0.00216533437187
0.00208112496319
0.00199483393044
0.00190647900957
0.00181617796415
0.00172414863287
0.00163071224672
0.00153628966622
0.00144139997963
0.00134665169808
0.00125273559175
0.00116041261487
0.00107051510462
0.000984000245831
0.000902271988245
0.000828326574426
0.000769062500353
0.000726705914797
0.000696662811037
0.000675828646772
0.000662305057359
0.000654547864807
0.000651274281551
0.000651266502477
0.000653320555159
0.000656383339499
0.000659621912679
0.000662441897865
0.000664462243561
0.000665481651963
0.00066543576326
0.000664327260978
0.000662166243585
0.000658932253743
0.00065434050743
0.000648348529871
0.000640928726123
0.000632066724331
0.000621767274113
0.000610063727218
0.000597025250441
0.000582753008567
0.000567368265202
0.000550991882699
0.000533726214866
0.000515647619009
0.000496813428486
0.000477272586262
0.000457076939006
0.00043628611378
0.000414971789604
0.000393221076843
0.000371135632436
0.000348822969593
0.000326387830069
0.000303924876346
0.000281512589328
0.000259208351449
0.000237051608918
0.000215072992294
0.00019329831885
0.000171734036003
0.000150349000834
0.000129081919635
0.000107932657335
8.73064042992e-05
6.89346440698e-05
5.68230382762e-05
5.58461379399e-05
3.12424771926e-05
3.62904994281e-05
4.57082536147e-05
5.86483782469e-05
7.46372634941e-05
9.35209957125e-05
0.000115322901235
0.000140164154968
0.000168216823789
0.000199685754718
0.000235099331908
0.000274696809985
0.000318705638343
0.000367390820059
0.000421022681083
0.000479940450276
0.000544458578804
0.000614012260718
0.000689283567875
0.000770859259489
0.000858026889957
0.000949248155688
0.00104290948837
0.00113757662063
0.001231940922
0.00132475064932
0.00141480767445
0.00150098687319
0.00158226739786
0.00165775222078
0.00172668647223
0.00178846145124
0.0018426180739
0.0018888377946
0.00192693418004
0.00195683703635
0.00197858178662
0.00199229077985
0.00199815456159
0.00199641088744
0.00198733569379
0.00197123350821
0.0019484309231
0.0019192928485
0.00188431858968
0.00184434495955
0.00180081840605
0.00175600585902
0.00171299029571
0.0016753729678
0.00164676515925
0.00163026264563
0.00162807854597
0.00164140126366
0.00167044221116
0.00171460070653
0.00177270186432
0.00184310968564
0.00191986584854
0.00199809267462
0.0020750934216
0.00214883201554
0.00221767983661
0.00228033267953
0.00233574596806
0.00238308152107
0.00242166300878
0.00245094397948
0.00247048280386
0.00247992736869
0.00247900326767
0.00246750893988
0.00244531180275
0.00241234961737
0.00236863152158
0.00231424357416
0.00224935360005
0.0021742206055
0.00208920390522
0.00199477752033
0.00189154536236
0.0017802629423
0.00166186165675
0.00153748218945
0.00140851659718
0.00127667780285
0.0011441462187
0.00101372829265
0.000887979616276
0.000767321062091
0.000654583828399
0.000555094530613
0.000469464419031
0.000399124885133
0.000345271542539
0.000306415529156
0.000280282404928
0.000263801066274
0.000253787570274
0.000247576032636
0.000243264989528
0.000239704196732
0.000236292883664
0.000232746628301
0.000228943474363
0.000225054498847
0.000220800516304
0.000216169271863
0.000211147191982
0.000205735197403
0.000199947218607
0.000193798515905
0.000187300473718
0.000180465598917
0.000173312303843
0.000165871679025
0.000158183204421
0.000150289170725
0.000142233994991
0.000134062653595
0.000125819848691
0.000117552647904
0.00010931070848
0.000101146928213
9.3118032033e-05
8.52828016058e-05
7.77004330977e-05
7.04299258923e-05
6.3529041596e-05
5.7052401612e-05
5.10502522133e-05
4.55651324776e-05
4.06320781391e-05
3.62798785454e-05
3.2545186173e-05
2.95368302797e-05
2.77635207228e-05
2.89095002007e-05
3.76482840428e-05
8.77895874902e-05
1.98332422108e-05
2.4180330203e-05
3.14954610399e-05
4.13839918798e-05
5.39486866259e-05
6.9471263917e-05
8.83020356241e-05
0.000110840792817
0.000137423748704
0.000168665625847
0.000204669223832
0.000245566977728
0.000291104896173
0.000341370674898
0.000396245424542
0.000455446032079
0.000518496291346
0.000584827669147
0.00065389348798
0.000725004494998
0.000797195929083
0.000869279431224
0.000939991156082
0.00100808440621
0.00107236755004
0.00113172436799
0.00118514307306
0.0012317409359
0.00127078930143
0.00130172687769
0.0013241693407
0.00133790750635
0.00134290422022
0.00133928222241
0.00132731328025
0.00130741396684
0.00128017293092
0.00124643272034
0.00120749582791
0.00116552348137
0.00112407096555
0.00108842075546
0.00106524462175
0.00106144708237
0.00108264746707
0.00113197556169
0.00120955587387
0.00131271016747
0.00143677053058
0.00157625958074
0.0017260219844
0.00188191932971
0.0020409905921
0.0022012582333
0.00236143694367
0.00252073451494
0.0026777951069
0.0028272730841
0.0029689422283
0.00310229286889
0.00322683660787
0.00334208698334
0.00344756056816
0.00354278583521
0.00362731069272
0.0037007090768
0.0037625846547
0.00381257471113
0.00385035218966
0.00387562900867
0.00388815792367
0.00388773605604
0.00387420686863
0.00384746384186
0.00380745231995
0.00375417297214
0.00368768313111
0.00360809965218
0.00351559942437
0.00341042140791
0.00329286635477
0.0031632985449
0.00302214626649
0.00286990679067
0.00270715513223
0.00253456796301
0.00235296728636
0.0021633315074
0.00196665391887
0.00176395409554
0.00155667482242
0.00134649368255
0.00113300869209
0.000923155584193
0.000725476772117
0.000544751796986
0.000388912818418
0.000263503782147
0.000170898441518
0.000109389531105
7.32494123625e-05
5.47057452316e-05
4.63911803354e-05
4.29963355906e-05
4.15242235645e-05
4.06306243424e-05
4.00163600594e-05
3.94690054339e-05
3.8929412501e-05
3.83701393299e-05
3.77468374431e-05
3.70300955581e-05
3.62067631446e-05
3.52712875812e-05
3.42217481309e-05
3.30576185445e-05
3.17901157695e-05
3.04357766959e-05
2.90092311177e-05
2.75274230944e-05
2.60150228674e-05
2.44942254547e-05
2.29809500339e-05
2.14915383595e-05
2.00436008167e-05
1.86532049761e-05
1.73356808226e-05
1.61075319878e-05
1.49846018375e-05
1.39805804854e-05
1.31083050838e-05
1.23829694392e-05
1.18265311231e-05
1.14746472878e-05
1.14016227999e-05
1.18236718144e-05
1.35936114967e-05
1.94700601942e-05
3.90527491068e-05
0.000143256843136
1.75802394532e-05
2.19955353894e-05
2.87892597473e-05
3.77423411234e-05
4.91627455098e-05
6.34863423773e-05
8.11749468429e-05
0.000102683780638
0.000128458325392
0.000158735529329
0.000193594696151
0.000233017119299
0.000276826289248
0.000324684885083
0.000376092291336
0.000430393419014
0.00048680045694
0.000544437981617
0.000602376835506
0.000659617956544
0.000715074858607
0.000767592238367
0.000816011093545
0.000859227943805
0.000896241092604
0.000926184251336
0.000948359599344
0.000962262878739
0.000967607343987
0.000964341368041
0.000952671707436
0.000933103975539
0.000906545335939
0.000874529525338
0.000839652819235
0.000806227381261
0.000780861833632
0.000772266573734
0.000789704069337
0.00084042765645
0.000927337182544
0.00104813332676
0.00119660657832
0.00136535667314
0.00154812438799
0.00174055689917
0.00193979144164
0.00214378243028
0.00235086404
0.00255957788975
0.00276864109904
0.00297694760371
0.00318356080497
0.00338769286525
0.00358867071367
0.00378584514762
0.00397369493867
0.00415231133598
0.00432130961053
0.00448024399888
0.00462867344372
0.00476616273755
0.00489227984869
0.00500659730364
0.00510869539872
0.00519816686093
0.00527462112586
0.00533768930365
0.0053870282016
0.0054223251132
0.00544330145611
0.00544971731025
0.00544137459738
0.00541812123557
0.0053798537205
0.00532652074169
0.00525812506083
0.00517472654259
0.00507644340925
0.00496345492483
0.00483600251535
0.00469439291725
0.00453900038188
0.00437027185756
0.00418873173398
0.00399498831686
0.00378973083491
0.00357370773774
0.00334770916055
0.00311263266446
0.00286950879283
0.00261935355879
0.00236306662569
0.00210159470593
0.00183469725007
0.00156199111924
0.00129236999819
0.0010282676594
0.000777239863456
0.000549092492215
0.000355567113737
0.000206933652502
0.000106853462824
4.95949226558e-05
2.25455313853e-05
1.22093850561e-05
9.05404292865e-06
8.29246992647e-06
8.15433231915e-06
8.18040235372e-06
8.25527135931e-06
8.33929558986e-06
8.41766565289e-06
8.48291675939e-06
8.53030960176e-06
8.555973563e-06
8.55700106749e-06
8.53246541019e-06
8.48309883169e-06
8.41051584379e-06
8.31812592523e-06
8.2098640495e-06
8.08955889307e-06
7.96119281486e-06
7.82859488914e-06
7.69529705733e-06
7.56499720436e-06
7.4418976962e-06
7.33041006066e-06
7.23551384299e-06
7.16420849667e-06
7.12824485988e-06
7.14979677013e-06
7.27360728563e-06
7.60226027632e-06
8.44893798956e-06
1.10781483979e-05
1.94901153123e-05
4.92016040625e-05
0.000209200435267
1.80934528859e-05
2.27393518384e-05
2.95101159031e-05
3.82723543276e-05
4.93670716431e-05
6.3199091571e-05
8.01787419694e-05
0.000100681494716
0.00012498360274
0.00015322828589
0.000185403575151
0.000221324212161
0.000260625973133
0.000302769232605
0.00034705735103
0.000392660134769
0.000438647320591
0.000484022823734
0.000527755123517
0.000568794010021
0.000606091583915
0.000638634658971
0.00066549396073
0.000685871900599
0.000699149481264
0.000704928726717
0.000703082356787
0.000693819426858
0.000677804824774
0.000656391609642
0.000632059916201
0.000609105652347
0.000594379682757
0.000597364647416
0.000628649682859
0.00069675145819
0.000804902779264
0.000950184365164
0.00112586406246
0.00132481231041
0.00154126772807
0.00177080224015
0.00200987106679
0.00225562236217
0.0025058381094
0.00275880869918
0.00301315518681
0.00326768481934
0.00352132112427
0.00377308532916
0.00402209758557
0.0042675767111
0.00450884487016
0.00474534565542
0.0049766677382
0.00519844175532
0.00540988103625
0.00561061213937
0.00580027152561
0.0059784711803
0.00614481015852
0.00629888108636
0.00644027347644
0.00656857642755
0.00668338204043
0.00678428956649
0.00687090984144
0.00694287026797
0.00699981951371
0.00704143269374
0.00706741587262
0.00707751106471
0.0070715002472
0.00704920990906
0.00701051436604
0.00695533967297
0.00688366612174
0.00679553144434
0.00669103250484
0.00657032787677
0.00643363890282
0.00628125187124
0.00611351863135
0.0059308582599
0.00573375623992
0.00552276261378
0.00529848403088
0.00506157533485
0.00481274019679
0.00455274962033
0.00428244233459
0.00400271018189
0.00371451662079
0.00341885113155
0.00311659031175
0.0028085237691
0.00249524581588
0.00217494597879
0.00185632588453
0.00153981860779
0.00122946379026
0.00093087800872
0.000653795967206
0.00041332269977
0.000227019719784
0.000105123106466
4.13210301994e-05
1.62927000395e-05
9.17307995992e-06
7.48740236754e-06
7.08791005975e-06
6.96164076248e-06
6.89709524455e-06
6.85079826239e-06
6.81283005595e-06
6.78012167249e-06
6.75098901183e-06
6.72419345627e-06
6.69882336361e-06
6.67418216811e-06
6.6498603379e-06
6.62566657915e-06
6.60159010393e-06
6.57777324917e-06
6.55444542983e-06
6.53195664025e-06
6.51090020347e-06
6.49231026382e-06
6.47791560766e-06
6.47083298216e-06
6.47708527566e-06
6.50876537788e-06
6.59092563607e-06
6.77754886028e-06
7.20160075986e-06
8.30880581178e-06
1.19050097947e-05
2.31305584311e-05
6.36772747241e-05
0.000280861345415
1.94148577896e-05
2.42143744588e-05
3.09540624589e-05
3.95233045267e-05
5.02328327017e-05
6.34143522934e-05
7.93671860448e-05
9.83153189617e-05
0.000120379568425
0.000145548140423
0.000173657430602
0.000204379928295
0.000237226586471
0.000271559141568
0.000306614464218
0.000341533855388
0.000375399239589
0.00040726828663
0.000436210091088
0.000461336964753
0.000481841265515
0.000497036845506
0.000506411486115
0.00050968971506
0.00050692589342
0.000498660515932
0.000486212062419
0.000472191981432
0.000461279305465
0.000460995122146
0.000481656302065
0.000534437581394
0.000627642207003
0.000763482174106
0.000938174712827
0.00114504691384
0.0013773819287
0.00162941363094
0.00189642917218
0.00217471845664
0.00246137287218
0.00275399828843
0.00305052869072
0.00334916890017
0.00364838099951
0.00394684599498
0.0042434114462
0.00453704921152
0.0048268385905
0.00511196023549
0.00539169229693
0.00566539905815
0.00593251976295
0.00619256417485
0.00644472870046
0.00668524381598
0.00691411556752
0.00713110807449
0.00733589867103
0.00752812541983
0.00770740686798
0.00787335017172
0.00802555599442
0.00816362182463
0.00828714591633
0.00839573129899
0.00848899040581
0.00856654989776
0.00862805564978
0.00867317791722
0.00870161624092
0.00871310452384
0.00870741549291
0.00868436534225
0.0086438174749
0.00858568645933
0.00850994086139
0.00841660635608
0.00830576755075
0.00817757018435
0.00803222190546
0.00786999350105
0.00769121847277
0.00749629288339
0.00728567285314
0.00705987163339
0.00681945405782
0.00656503319958
0.00629727022744
0.00601688006644
0.00572463279105
0.00542135400551
0.00510792390199
0.00478526265097
0.00445431070858
0.00411600596162
0.00377118026455
0.00342047864455
0.00306461146325
0.00270195273495
0.00234041694158
0.00198094427678
0.00162683744233
0.00128166809256
0.000950863603759
0.000644429415921
0.000380946235384
0.000184955391648
7.0713555954e-05
2.47075442609e-05
1.08942826197e-05
7.68691047027e-06
7.01857983849e-06
6.848586943e-06
6.77333704817e-06
6.71984913784e-06
6.67459949522e-06
6.63465194619e-06
6.5990255081e-06
6.56714354159e-06
6.53854472011e-06
6.51284440661e-06
6.48973483384e-06
6.46899961939e-06
6.45053026995e-06
6.43438575427e-06
6.42089709407e-06
6.41091569915e-06
6.40625044027e-06
6.41059951112e-06
6.43148841953e-06
6.48436993254e-06
6.60164861208e-06
6.85430439946e-06
7.42572777076e-06
8.97227225532e-06
1.39779555343e-05
2.84916760686e-05
8.07710897009e-05
0.000356684826503
2.08295276812e-05
2.56280521158e-05
3.21735582576e-05
4.03593897515e-05
5.04348158755e-05
6.26223522256e-05
7.70828180058e-05
9.38933344529e-05
0.000113025985449
0.000134329670918
0.00015752078358
0.000182182491431
0.000207775756829
0.000233657864887
0.000259110144551
0.000283369345678
0.000305664083467
0.000325251003841
0.000341453906074
0.000353705041071
0.000361599723282
0.000364976532303
0.000364057722062
0.000359705024851
0.000353882762455
0.000350399034004
0.00035581107624
0.00037985978492
0.000434243732868
0.000529128564645
0.000669196438171
0.000852621546145
0.00107360276949
0.00132536891589
0.00160167791643
0.00189727290221
0.00220786698001
0.00252991038951
0.00286039519889
0.00319675364921
0.00353678022596
0.00387855076965
0.00422037443901
0.00456077461564
0.00489847763606
0.00523238540954
0.0055615441356
0.00588511551683
0.00620236211485
0.00651263736034
0.00681538287485
0.00711012763129
0.00739649409141
0.00767418459762
0.00794044833396
0.00819464096436
0.0084363743993
0.00866532794498
0.00888117333889
0.00908356108632
0.00927212477606
0.00944648535896
0.00960625565782
0.00975104350039
0.00988045588141
0.00999410278294
0.0100916019378
0.0101725834459
0.0102366949114
0.0102836064578
0.0103130158402
0.0103246534336
0.0103182869474
0.0102937260149
0.0102508261979
0.0101894928798
0.0101096843192
0.0100114146281
0.00989475570554
0.00975983915042
0.00960685694649
0.00943606216444
0.00924776820178
0.00904234797514
0.00882023131806
0.00858190238919
0.00832789572209
0.00805879407525
0.00777522715945
0.00747787314298
0.00716745841493
0.0068447575089
0.00651059082957
0.0061658204451
0.00581134197159
0.00544807195393
0.00507692826349
0.00469881765588
0.00431455986756
0.00392478915174
0.00353024951069
0.00312963726372
0.00273033592624
0.00233342636856
0.00194215199025
0.00155987661959
0.00119098673833
0.000841754110429
0.000524565543946
0.000265221081413
0.000105773024569
3.53616537097e-05
1.3142984738e-05
7.97839755135e-06
6.98105430574e-06
6.77166316198e-06
6.69716244561e-06
6.6482628067e-06
6.60725849774e-06
6.5710600625e-06
6.53887624809e-06
6.51030123272e-06
6.4850309284e-06
6.46285419837e-06
6.44368527254e-06
6.42764073613e-06
6.41519095368e-06
6.40746666561e-06
6.40684630646e-06
6.41816615985e-06
6.45127633525e-06
6.52640336481e-06
6.68622030229e-06
7.02603428719e-06
7.80549892211e-06
9.9914808117e-06
1.68175162186e-05
3.49392524976e-05
9.98038706204e-05
0.000435913885788
2.20247967077e-05
2.6698515141e-05
3.29104724504e-05
4.05224572596e-05
4.97050189174e-05
6.05777521898e-05
7.31847173046e-05
8.74829240651e-05
0.000103331525703
0.000120485229254
0.000138596719118
0.000157225912027
0.000175857922079
0.000193925843064
0.000210839670431
0.000226017507694
0.000238921711453
0.00024909989457
0.000256242259346
0.000260273453431
0.000261523726754
0.000261050614567
0.000261213577211
0.000266551876205
0.00028473526942
0.000326703863651
0.000404659321795
0.000527860143805
0.000699151383836
0.000915339774744
0.00117020522693
0.00145699556622
0.00176956578578
0.00210266956701
0.00245187532672
0.0028134149744
0.00318405936059
0.00356100887387
0.00394182011764
0.0043243587596
0.00470676364537
0.00508740899966
0.00546488020563
0.0058379544891
0.00620558551823
0.00656687829082
0.00692106555692
0.00726748322263
0.00760555530198
0.00793477937467
0.00825471835367
0.00856498997384
0.00886525787463
0.00915520663633
0.00943249632569
0.00969687928796
0.00994805321608
0.0101857078252
0.0104095221316
0.0106191602974
0.0108142731466
0.0109944993623
0.0111594687156
0.0113088043951
0.0114421270153
0.0115590580885
0.0116592247963
0.0117422643421
0.0118078291488
0.0118555916706
0.0118852496222
0.0118965308269
0.0118891981049
0.0118630537761
0.0118179438781
0.011753762002
0.0116704525698
0.0115680137475
0.0114464995729
0.0113060217552
0.0111467504894
0.0109689149865
0.0107728028196
0.0105587590386
0.0103271839748
0.0100785311208
0.00981330412968
0.00953205499345
0.00923538223906
0.00892393067008
0.00859839006639
0.00825949450518
0.00790802006247
0.00754478251436
0.00717063274692
0.00678645237113
0.00639314628326
0.00599163275453
0.00558282443787
0.00516761558919
0.00474682716352
0.00432112079765
0.00389128380381
0.00345619069276
0.00302346673941
0.00259393629713
0.00217078840563
0.00175732083209
0.00135784019914
0.000977453331582
0.000622228038678
0.000325820993525
0.000133574537732
4.38414690786e-05
1.48370703612e-05
8.15267308312e-06
6.92343039584e-06
6.69346349067e-06
6.62342565469e-06
6.58032620717e-06
6.54453237953e-06
6.5131397112e-06
6.4856008592e-06
6.46173510943e-06
6.44151555654e-06
6.42515569529e-06
6.41330804341e-06
6.40744683429e-06
6.41062288983e-06
6.42900633848e-06
6.47520135648e-06
6.57522698598e-06
6.78459975684e-06
7.2310312033e-06
8.28425728887e-06
1.13373822505e-05
2.03357025072e-05
4.22393541023e-05
0.000120464854242
0.000517977112869
2.29480071234e-05
2.73886242124e-05
3.31358530388e-05
4.00151690827e-05
4.81243671235e-05
5.74987732964e-05
6.80948869223e-05
7.97875128843e-05
9.23689174236e-05
0.00010555241074
0.000118983781318
0.000132257702373
0.000144940006083
0.000156592627255
0.000166803556216
0.000175222578245
0.000181614077502
0.000185946625173
0.000188566440394
0.000190532973424
0.000194230241318
0.000204319274767
0.000228797266204
0.00027919678578
0.000368410580401
0.000506130587401
0.000695275570222
0.000932563712805
0.00121160918093
0.00152542830457
0.0018675931785
0.00223252654488
0.00261545586025
0.00301228407571
0.00341946457469
0.00383390206447
0.00425288524796
0.00467403262228
0.00509525688428
0.00551473413192
0.00593088020327
0.00634232333295
0.0067478851633
0.00714655953818
0.00753749573899
0.00791997455072
0.00829338857268
0.00865721964348
0.00901102413948
0.00935441659174
0.00968705986302
0.010008652905
0.0103189232028
0.0106176129778
0.0109029205219
0.0111746493097
0.0114325393452
0.0116763062591
0.0119056518433
0.0121202639988
0.0123198180227
0.0125039764774
0.0126723916625
0.0128247072132
0.0129605618487
0.0130795924111
0.0131814385378
0.0132657466962
0.0133321753667
0.0133803996228
0.0134101164282
0.0134210493389
0.0134129535432
0.0133856203019
0.013338881394
0.0132726129584
0.0131867390566
0.0130812346377
0.0129561279834
0.0128115025829
0.012647498282
0.0124643119185
0.0122621970644
0.0120414633737
0.011802474992
0.0115456489222
0.0112714527434
0.0109804029912
0.0106730632551
0.0103500431855
0.0100119967398
0.00965962103689
0.00929365402832
0.0089148726857
0.00852408985657
0.00812215183057
0.0077099341
0.00728833758696
0.00685828156149
0.00642069555388
0.00597650409219
0.00552661419317
0.00507186749934
0.00461294494542
0.0041506594808
0.00368452585086
0.00322197295753
0.00276388640636
0.0023134041604
0.00187373408511
0.00144858277538
0.00104143846337
0.00066282752259
0.000352373703303
0.000145023014184
4.65035494755e-05
1.50324766691e-05
8.04435724434e-06
6.82433081985e-06
6.61147824114e-06
6.55090566852e-06
6.51429676101e-06
6.48417892336e-06
6.45840489011e-06
6.43686008583e-06
6.41989128451e-06
6.4083634215e-06
6.40412993893e-06
6.41097420785e-06
6.43656850254e-06
6.49664589237e-06
6.6241045381e-06
6.89027800601e-06
7.46583267588e-06
8.87707434864e-06
1.30655363834e-05
2.45217727841e-05
5.02830142595e-05
0.000142577785769
0.000602367849955
2.3571860643e-05
2.77011638422e-05
3.28999144229e-05
3.89612186143e-05
4.59237170439e-05
5.37622724424e-05
6.23779637344e-05
7.16020769548e-05
8.120300034e-05
9.08972983855e-05
0.00010036717619
0.000109281327795
0.0001173203202
0.000124206443594
0.000129747089602
0.000133908790474
0.000136964638025
0.0001397912273
0.000144437876365
0.000155081780821
0.000179254831455
0.00022850358971
0.00031675876306
0.000455668436991
0.000650009659809
0.000897373267882
0.00119131070739
0.00152433672578
0.00188942351522
0.00228043262598
0.0026921024
0.00311990838215
0.00355992548069
0.00400871737292
0.00446326015198
0.0049208848373
0.00537924021228
0.00583625943809
0.00629013782683
0.00673930803349
0.00718242143847
0.00761832403654
0.00804603920911
0.00846474553583
0.00887376010098
0.00927251544535
0.0096605423174
0.0100374484792
0.010402905036
0.0107566299887
0.0110983789799
0.0114279337381
0.01174509693
0.0120496828658
0.0123403949617
0.0126170264154
0.0128793366288
0.0131270684932
0.0133599539573
0.0135777120417
0.0137800489253
0.0139666566259
0.0141372148058
0.0142913916571
0.0144288473077
0.0145492363703
0.0146522124261
0.0147374316986
0.0148045581642
0.0148532678845
0.0148832543465
0.0148942330355
0.0148859466365
0.0148581694639
0.0148107121848
0.0147434257588
0.0146562053789
0.0145489936266
0.0144217833733
0.0142746199187
0.0141076026609
0.0139208860661
0.0137146800136
0.0134892495854
0.0132449141949
0.0129820464821
0.0127010707088
0.0124024614035
0.0120867416431
0.0117544818139
0.0114062977549
0.0110428493521
0.010664838255
0.0102730061614
0.00986813216203
0.00945103090799
0.00902254975944
0.00858356677907
0.0081349870684
0.00767773987476
0.00721277273903
0.0067410444845
0.00626351086425
0.00578110951573
0.00529471558533
0.00480505703645
0.00431285173693
0.00381901896686
0.00332992401002
0.00284698073429
0.00237313754293
0.00191136903691
0.00146473738397
0.00103680325753
0.000655301916649
0.000343718660672
0.000137235053364
4.20985452747e-05
1.35316329817e-05
7.65080530874e-06
6.68912087312e-06
6.52786916758e-06
6.48089991264e-06
6.45177106747e-06
6.42864773648e-06
6.41079355161e-06
6.39924810233e-06
6.39629947493e-06
6.40653818232e-06
6.43931302967e-06
6.51392379695e-06
6.67135764291e-06
7.00249206133e-06
7.73547881376e-06
9.61644860526e-06
1.52456569401e-05
2.93689348238e-05
5.90042287437e-05
0.000166022796401
0.000688621708743
2.39074081755e-05
2.76797461281e-05
3.22956274211e-05
3.75234014469e-05
4.33580548308e-05
4.97372374579e-05
5.6535323247e-05
6.35720097241e-05
7.06244683907e-05
7.74433670561e-05
8.37743903679e-05
8.93836723822e-05
9.40922577976e-05
9.78304542162e-05
0.000100744263698
0.00010341708777
0.000107324223603
0.000115677736749
0.00013473047806
0.000175070383822
0.000251285324316
0.000378051714196
0.000564098021959
0.000809489779175
0.0011081862247
0.0014519925841
0.00183291699449
0.002243959241
0.0026791652307
0.00313345783931
0.00360245584382
0.00408232860484
0.00456969850389
0.00506157123807
0.00555529282969
0.00604851417066
0.00653916887178
0.00702544869308
0.00750578708158
0.00797883672115
0.00844345329217
0.00889867242531
0.00934369343761
0.00977785681101
0.0102006281247
0.010611575746
0.0110103553172
0.0113966895975
0.0117703559111
0.0121311700933
0.0124789780541
0.0128136447983
0.0131350504816
0.0134430823828
0.0137369091047
0.0140163107402
0.0142810641321
0.0145309422994
0.0147657124394
0.0149851301796
0.0151889377173
0.0153768610711
0.0155486110749
0.015703883472
0.0158423618843
0.0159637198139
0.0160676248689
0.0161537420416
0.0162217387064
0.0162712886994
0.0163020776962
0.0163138076826
0.0163062023513
0.0162790115856
0.0162320165316
0.0161650337432
0.0160779196118
0.0159705738576
0.015842943037
0.0156950231231
0.0155268618746
0.015338560336
0.0151302739572
0.0149022129894
0.0146546424338
0.0143878815422
0.0141023029254
0.013798331571
0.0134764434943
0.0131371645264
0.012781068573
0.012408776119
0.0120209520441
0.0116183038862
0.0112015793888
0.0107715648006
0.010329082451
0.00987498926678
0.00941017439361
0.00893555775721
0.00845208707098
0.00796073540267
0.00746249562096
0.00695837300537
0.00644937032572
0.00593647068637
0.00542060000159
0.00490259505973
0.00438301411253
0.00386458870156
0.00335224372181
0.00284794447482
0.00235430466291
0.0018738643492
0.00140824135106
0.000979102807815
0.000602460937456
0.000302075520491
0.000112484654651
3.24719986277e-05
1.10862232895e-05
7.14599105731e-06
6.54828732349e-06
6.44858599084e-06
6.41660060258e-06
6.39712150548e-06
6.38524464787e-06
6.38317914591e-06
6.39639366896e-06
6.43608876431e-06
6.52564199739e-06
6.71556193423e-06
7.12106174244e-06
8.04788947293e-06
1.05454286964e-05
1.79448897972e-05
3.48627915759e-05
6.83573677777e-05
0.000190709278943
0.000776299031051
2.39866009033e-05
2.73847620697e-05
3.14238420483e-05
3.58560228842e-05
4.06467254537e-05
4.57154726728e-05
5.09318717452e-05
5.6126637497e-05
6.11069324758e-05
6.56759923066e-05
6.96599546606e-05
7.29458707696e-05
7.55495193568e-05
7.77545638346e-05
8.0414360676e-05
8.55742611487e-05
9.76133455531e-05
0.000124892845014
0.000180983038911
0.000283031957135
0.000445652064697
0.000674416491281
0.000965441842645
0.00131000593528
0.00169868392515
0.00212310293134
0.0025762449929
0.00305224800282
0.00354613774369
0.00405360888663
0.00457087891467
0.00509458982728
0.00562175059125
0.00614969495613
0.00667605758765
0.00719874980425
0.00771594492889
0.00822605742517
0.00872772910219
0.00921980747582
0.00970133074187
0.0101715050344
0.0106296888588
0.0110753705382
0.0115081529041
0.0119277315874
0.0123338807808
0.0127264338244
0.0131052715705
0.0134703066824
0.0138214757981
0.0141587288012
0.0144820254334
0.0147913277272
0.0150862338677
0.0153665229311
0.0156319958213
0.0158824612124
0.0161177267849
0.0163375896614
0.016541832407
0.0167302187221
0.0169024934942
0.0170583820181
0.0171975924409
0.0173198171635
0.0174247367517
0.0175120227905
0.0175813427417
0.0176323637724
0.0176647581744
0.0176782077699
0.0176724095445
0.0176470802597
0.0176019619563
0.0175368264172
0.0174514802073
0.0173457686495
0.0172195800916
0.0170728491048
0.0169055597214
0.0167177476463
0.0165095023111
0.0162809680246
0.0160323448525
0.015763888819
0.0154759118056
0.0151687810541
0.0148429183239
0.0144987988792
0.0141369500071
0.0137579495475
0.0133624238452
0.0129510459668
0.0125245333255
0.0120836458957
0.0116291838541
0.0111619860924
0.0106829280934
0.0101929208017
0.0096929085943
0.00918386807876
0.00866680522156
0.0081427527442
0.00761276419997
0.00707790649918
0.00653924639784
0.00599783495119
0.00545467472932
0.004910759704
0.00436640930686
0.00382647286018
0.00329401250468
0.00277142572724
0.00226067147453
0.00176336479527
0.00129714562316
0.000875116826664
0.000513002367294
0.000237099406304
7.9080212172e-05
2.17484641814e-05
8.80653756498e-06
6.72368034816e-06
6.4307892178e-06
6.38093133222e-06
6.36582619124e-06
6.36408723246e-06
6.37975054165e-06
6.42586696703e-06
6.5304501921e-06
6.75523540881e-06
7.2460120844e-06
8.41408592982e-06
1.17173523449e-05
2.12228012933e-05
4.09843883312e-05
7.83114601977e-05
0.00021656393564
0.000864963933885
2.3849317566e-05
2.68778994074e-05
3.03749384313e-05
3.40843084773e-05
3.7952951174e-05
4.18958771135e-05
4.57925228819e-05
4.9498526673e-05
5.28632647621e-05