/*--------------------------------*- C++ -*----------------------------------*\
| =========                 |                                                 |
| \\      /  F ield         | OpenFOAM: The Open Source CFD Toolbox           |
|  \\    /   O peration     | Version:  2212                                  |
|   \\  /    A nd           | Website:  www.openfoam.com                      |
|    \\/     M anipulation  |                                                 |
\*---------------------------------------------------------------------------*/
FoamFile
{
    version     2.0;
    format      ascii;
    arch        "LSB;label=64;scalar=64";
    class       volScalarField;
    location    "510";
    object      p_rgh;
}
// * * * * * * * * * * * * * * * * * * * * * * * * * * * * * * * * * * * * * //

dimensions      [0 2 -2 0 0 0 0];

internalField   nonuniform List<scalar> 
1024
(
0.0431965
0.0431907
0.0431846
0.0431816
0.0431823
0.0431871
0.0431988
0.0432234
0.0432708
0.0433541
0.0434874
0.0436733
0.0438791
0.0440295
0.044054
0.0439935
0.0438583
0.0437325
0.0436366
0.0435695
0.0435237
0.0434933
0.043474
0.0434623
0.0434555
0.043451
0.0434476
0.0434448
0.0434436
0.0434448
0.043448
0.0434511
0.0432132
0.0432073
0.0432027
0.0432017
0.0432041
0.04321
0.0432225
0.0432479
0.0432959
0.0433797
0.0435137
0.0437004
0.0439068
0.0440569
0.0440803
0.044019
0.0438821
0.0437546
0.0436572
0.0435889
0.0435422
0.0435109
0.0434907
0.0434783
0.0434707
0.0434655
0.0434612
0.0434576
0.0434554
0.0434555
0.043458
0.0434611
0.043243
0.0432364
0.0432338
0.0432372
0.043244
0.0432536
0.0432691
0.0432972
0.0433479
0.0434347
0.0435725
0.0437625
0.0439712
0.044122
0.0441442
0.04408
0.0439389
0.0438073
0.0437061
0.0436346
0.0435851
0.0435513
0.0435288
0.0435141
0.0435043
0.0434968
0.04349
0.0434836
0.0434783
0.0434759
0.0434774
0.0434811
0.0432769
0.0432699
0.0432712
0.0432823
0.0432976
0.0433146
0.0433364
0.04337
0.0434258
0.0435172
0.0436594
0.0438516
0.0440609
0.0442125
0.04424
0.0441758
0.0440323
0.0438965
0.04379
0.0437136
0.0436593
0.0436208
0.0435938
0.0435749
0.0435608
0.0435488
0.0435369
0.0435243
0.0435127
0.0435054
0.043505
0.0435094
0.0432974
0.0432919
0.0433006
0.0433243
0.0433537
0.0433835
0.0434155
0.043457
0.0435182
0.0436118
0.0437522
0.0439399
0.0441445
0.0442971
0.0443413
0.0442881
0.0441517
0.0440177
0.0439093
0.0438283
0.0437684
0.0437236
0.04369
0.0436643
0.0436433
0.0436236
0.0436026
0.0435794
0.0435569
0.0435408
0.0435362
0.0435406
0.0432827
0.0432809
0.0433012
0.0433435
0.043394
0.0434428
0.0434891
0.0435392
0.0436024
0.0436912
0.0438184
0.043994
0.0441903
0.0443464
0.0444163
0.0443862
0.0442711
0.0441509
0.0440509
0.0439704
0.0439074
0.0438568
0.0438156
0.043781
0.0437497
0.0437181
0.0436827
0.0436428
0.043603
0.0435727
0.0435604
0.0435633
0.0432162
0.0432195
0.0432541
0.0433201
0.0433988
0.043473
0.0435367
0.0435938
0.0436528
0.0437274
0.0438344
0.0439962
0.0441867
0.0443511
0.0444474
0.0444452
0.0443611
0.0442664
0.0441864
0.0441178
0.0440592
0.0440071
0.0439597
0.0439151
0.0438705
0.043822
0.0437656
0.0437012
0.0436361
0.0435849
0.0435606
0.0435602
0.0430965
0.0431048
0.0431527
0.0432439
0.0433554
0.04346
0.0435436
0.0436058
0.0436549
0.0437093
0.043797
0.0439502
0.0441432
0.0443206
0.0444374
0.0444589
0.044406
0.0443414
0.0442888
0.0442432
0.0441986
0.0441523
0.0441032
0.0440498
0.0439897
0.0439191
0.043834
0.0437359
0.0436365
0.0435574
0.043517
0.0435116
0.0429414
0.0429532
0.0430091
0.0431198
0.0432627
0.0434001
0.043506
0.0435735
0.0436116
0.0436455
0.0437185
0.0438729
0.0440785
0.0442699
0.0443993
0.044437
0.0444083
0.0443708
0.0443456
0.0443269
0.0443034
0.0442704
0.0442252
0.0441659
0.0440894
0.0439919
0.0438702
0.0437287
0.043586
0.043473
0.043414
0.0434025
0.0427887
0.0428011
0.0428551
0.0429696
0.0431328
0.0432986
0.0434282
0.0435056
0.0435373
0.0435531
0.0436191
0.0437876
0.0440086
0.0442126
0.0443475
0.0443933
0.0443807
0.0443636
0.044361
0.0443658
0.0443644
0.0443483
0.0443115
0.0442488
0.0441556
0.044027
0.0438611
0.0436671
0.0434739
0.0433239
0.0432459
0.0432286
0.042688
0.0426993
0.042746
0.0428479
0.0430001
0.0431687
0.043314
0.0434074
0.0434427
0.043449
0.043533
0.0437189
0.0439551
0.0441635
0.0442933
0.0443383
0.0443353
0.0443333
0.0443474
0.0443692
0.0443857
0.0443852
0.0443574
0.0442925
0.0441816
0.044018
0.043801
0.0435475
0.0433001
0.0431138
0.0430192
0.042997
0.042684
0.0426921
0.0427264
0.0428058
0.0429302
0.0430751
0.0432047
0.0432913
0.0433315
0.0433712
0.0434988
0.043713
0.0439512
0.0441416
0.0442471
0.0442786
0.0442797
0.0442902
0.0443172
0.0443509
0.0443794
0.0443898
0.0443677
0.0442981
0.0441667
0.0439632
0.0436892
0.0433723
0.0430718
0.0428548
0.0427485
0.042723
0.0428126
0.0428148
0.042832
0.0428818
0.0429689
0.0430765
0.0431763
0.0432477
0.0433023
0.0434146
0.0436028
0.0438291
0.044033
0.0441658
0.0442165
0.0442178
0.0442183
0.0442415
0.0442808
0.044324
0.0443592
0.0443738
0.044351
0.0442704
0.044112
0.0438615
0.0435247
0.0431444
0.0427992
0.0425629
0.0424523
0.0424252
0.0431181
0.0431115
0.0431076
0.043124
0.0431714
0.0432439
0.0433251
0.0434147
0.0435632
0.0437534
0.0439519
0.0441174
0.044216
0.0442359
0.0441978
0.044154
0.0441542
0.0441961
0.0442505
0.0443011
0.0443373
0.0443475
0.0443131
0.0442091
0.0440091
0.0436987
0.0432947
0.0428602
0.0424918
0.0422611
0.0421573
0.0421311
0.0437721
0.0437667
0.0437585
0.0437629
0.0438034
0.0438964
0.0440428
0.0442212
0.0443676
0.0444733
0.0445259
0.0445123
0.0444308
0.0443008
0.0441627
0.0440773
0.0440895
0.0441642
0.0442358
0.044284
0.0443075
0.0442962
0.0442296
0.0440768
0.0438006
0.0434062
0.0429641
0.0425392
0.0422056
0.042003
0.0419128
0.0418886
0.0450797
0.045108
0.0451545
0.0452067
0.0452518
0.0452794
0.0452815
0.0452536
0.0451922
0.0450913
0.0449437
0.0447423
0.0445047
0.0442661
0.0440715
0.0439747
0.0440127
0.0441241
0.044176
0.0441809
0.0441495
0.04407
0.0439257
0.0437018
0.0433931
0.0430206
0.0426323
0.0422833
0.0420228
0.0418684
0.0417995
0.0417793
0.0457608
0.0457701
0.0457788
0.0457765
0.0457543
0.0457056
0.0456263
0.045514
0.0453675
0.0451825
0.0449553
0.0446753
0.0443906
0.0441411
0.0439512
0.0438415
0.0438127
0.0437985
0.0437727
0.0437309
0.0436645
0.0435685
0.0434343
0.043253
0.0430229
0.0427576
0.0424882
0.042254
0.0420862
0.0419919
0.0419529
0.041942
0.0461095
0.0461024
0.0460799
0.0460332
0.0459552
0.0458443
0.0457023
0.0455326
0.0453381
0.0451198
0.0448796
0.044621
0.0443507
0.0440791
0.0438209
0.0435944
0.0434211
0.0433107
0.0432404
0.0431843
0.0431413
0.0431076
0.0430717
0.0430178
0.0429349
0.0428233
0.0427021
0.0426007
0.0425461
0.0425436
0.0425703
0.0425929
0.0463319
0.0463114
0.0462642
0.0461847
0.0460732
0.0459374
0.0457865
0.0456249
0.0454523
0.0452638
0.0450556
0.0448236
0.0445657
0.0442846
0.04399
0.0437042
0.043475
0.0433217
0.0432378
0.0432183
0.0432654
0.0433754
0.043533
0.0437122
0.0438921
0.0440761
0.0442464
0.0443818
0.044496
0.0445919
0.044661
0.0446944
0.0465319
0.0465059
0.0464535
0.0463745
0.0462754
0.0461654
0.0460509
0.0459337
0.0458123
0.045683
0.0455468
0.0453966
0.0452275
0.045043
0.0448536
0.0446834
0.0445448
0.044508
0.0446138
0.0448623
0.0452482
0.0457525
0.0463339
0.0468968
0.0473367
0.0475893
0.0476783
0.0476688
0.0475912
0.0474751
0.0473629
0.0472984
0.0466269
0.0466078
0.0465721
0.0465243
0.0464726
0.0464256
0.0463866
0.0463513
0.0463108
0.0462561
0.0461781
0.0460834
0.0459812
0.045876
0.0457711
0.045668
0.0456119
0.045677
0.0458746
0.0461808
0.0465508
0.0469222
0.0472249
0.0474571
0.047657
0.0478149
0.0479223
0.0479784
0.0479906
0.0479711
0.0479348
0.0479036
0.046662
0.046646
0.0466178
0.0465841
0.0465531
0.0465351
0.0465336
0.0465431
0.0465533
0.0465563
0.0465449
0.0465174
0.0464724
0.0464105
0.0463398
0.0462792
0.0462655
0.0463413
0.0464956
0.0466896
0.0468764
0.0470245
0.0471429
0.0472767
0.047427
0.0475785
0.0477126
0.0478126
0.0478715
0.0478927
0.0478873
0.0478718
0.0466749
0.0466599
0.0466352
0.0466084
0.0465889
0.046587
0.0466078
0.0466462
0.0466904
0.0467322
0.0467625
0.0467743
0.0467628
0.0467275
0.0466773
0.04663
0.0466142
0.0466575
0.046744
0.0468387
0.0469137
0.0469648
0.0470235
0.0471106
0.0472298
0.0473709
0.0475172
0.0476446
0.0477347
0.04778
0.0477876
0.0477764
0.0466883
0.0466743
0.0466511
0.0466277
0.0466156
0.0466235
0.0466571
0.0467116
0.0467775
0.0468442
0.046902
0.0469419
0.0469559
0.0469409
0.0469004
0.046848
0.0468073
0.0468053
0.0468337
0.0468688
0.0468989
0.0469258
0.0469706
0.0470432
0.0471491
0.0472833
0.0474356
0.0475831
0.0477011
0.0477702
0.0477898
0.0477826
0.0467026
0.0466893
0.0466682
0.0466494
0.0466436
0.0466596
0.046701
0.0467639
0.0468397
0.0469177
0.0469896
0.0470468
0.0470803
0.0470842
0.0470553
0.047
0.0469363
0.0468931
0.0468694
0.0468559
0.0468593
0.0468881
0.0469481
0.047039
0.0471637
0.0473127
0.0474778
0.0476476
0.0477977
0.0478977
0.0479345
0.047935
0.0467164
0.0467027
0.046685
0.0466735
0.0466762
0.0467007
0.046748
0.0468144
0.0468901
0.046967
0.0470386
0.0470994
0.0471421
0.0471604
0.0471471
0.0471019
0.0470306
0.0469537
0.0468845
0.0468335
0.0468203
0.0468549
0.0469357
0.0470585
0.0472219
0.0474145
0.0476245
0.0478346
0.0480247
0.0481696
0.0482362
0.0482521
0.0467214
0.0467084
0.0466969
0.0466972
0.0467135
0.0467478
0.0468003
0.0468634
0.0469299
0.046995
0.0470552
0.0471081
0.0471495
0.0471744
0.047175
0.0471454
0.0470788
0.0469846
0.0468868
0.0468121
0.0467886
0.0468272
0.0469262
0.0470819
0.0472919
0.0475457
0.0478256
0.0481061
0.0483637
0.0485755
0.0486958
0.0487422
0.0467066
0.0466986
0.0467001
0.04672
0.0467545
0.0467998
0.0468537
0.0469073
0.0469571
0.0470021
0.0470429
0.0470802
0.0471124
0.0471369
0.0471463
0.0471314
0.0470753
0.0469778
0.0468681
0.0467828
0.0467557
0.0467997
0.0469153
0.0471009
0.0473558
0.047672
0.0480323
0.0484098
0.0487722
0.0490848
0.049299
0.0494042
0.0466482
0.0466577
0.0466895
0.0467418
0.0467989
0.0468543
0.0469031
0.0469407
0.0469683
0.046989
0.047007
0.0470256
0.0470453
0.0470654
0.047079
0.0470754
0.0470309
0.0469381
0.0468279
0.0467419
0.0467169
0.0467687
0.0468992
0.0471098
0.0474019
0.047772
0.0482081
0.0486901
0.0491883
0.0496582
0.0500232
0.0502563
0.0464916
0.046566
0.0466695
0.046769
0.0468486
0.0469085
0.0469454
0.0469625
0.0469661
0.0469629
0.0469593
0.0469603
0.0469684
0.0469834
0.0469991
0.0470035
0.0469692
0.0468837
0.0467784
0.0466966
0.0466772
0.0467367
0.0468785
0.0471065
0.0474242
0.0478319
0.0483259
0.0488996
0.0495427
0.0502265
0.0508667
0.0514229
0.0460266
0.0464202
0.0466723
0.046823
0.0469128
0.0469654
0.0469849
0.0469803
0.0469617
0.0469382
0.0469172
0.0469049
0.0469044
0.0469157
0.0469325
0.0469424
0.0469156
0.0468365
0.0467366
0.0466597
0.0466449
0.0467092
0.0468572
0.0470937
0.0474236
0.0478499
0.0483755
0.0490089
0.0497704
0.0506938
0.0518103
0.0530739
0.0450191
0.0462627
0.0467416
0.0468948
0.0469758
0.0470164
0.0470194
0.0469979
0.046964
0.0469273
0.0468959
0.0468761
0.0468707
0.0468798
0.0468972
0.0469098
0.0468869
0.0468113
0.0467146
0.0466405
0.0466275
0.0466933
0.0468426
0.0470806
0.0474125
0.0478426
0.0483778
0.0490378
0.0498724
0.0509884
0.052606
0.0548748
)
;

boundaryField
{
    movingWall
    {
        type            fixedFluxPressure;
        gradient        uniform 0;
        value           nonuniform List<scalar> 
32
(
0.0450191
0.0462627
0.0467416
0.0468948
0.0469758
0.0470164
0.0470194
0.0469979
0.046964
0.0469273
0.0468959
0.0468761
0.0468707
0.0468798
0.0468972
0.0469098
0.0468869
0.0468113
0.0467146
0.0466405
0.0466275
0.0466933
0.0468426
0.0470806
0.0474125
0.0478426
0.0483778
0.0490378
0.0498724
0.0509884
0.052606
0.0548748
)
;
    }
    fixedWalls
    {
        type            fixedFluxPressure;
        gradient        uniform 0;
        value           nonuniform List<scalar> 
64
(
0.0431965
0.0432132
0.043243
0.0432769
0.0432974
0.0432827
0.0432162
0.0430965
0.0429414
0.0427887
0.042688
0.042684
0.0428126
0.0431181
0.0437721
0.0450797
0.0457608
0.0461095
0.0463319
0.0465319
0.0466269
0.046662
0.0466749
0.0466883
0.0467026
0.0467164
0.0467214
0.0467066
0.0466482
0.0464916
0.0460266
0.0450191
0.0434511
0.0434611
0.0434811
0.0435094
0.0435406
0.0435633
0.0435602
0.0435116
0.0434025
0.0432286
0.042997
0.042723
0.0424252
0.0421311
0.0418886
0.0417793
0.041942
0.0425929
0.0446944
0.0472984
0.0479036
0.0478718
0.0477764
0.0477826
0.047935
0.0482521
0.0487422
0.0494042
0.0502563
0.0514229
0.0530739
0.0548748
)
;
    }
    floor
    {
        type            fixedFluxPressure;
        gradient        uniform 0;
        value           nonuniform List<scalar> 
32
(
0.0431965
0.0431907
0.0431846
0.0431816
0.0431823
0.0431871
0.0431988
0.0432234
0.0432708
0.0433541
0.0434874
0.0436733
0.0438791
0.0440295
0.044054
0.0439935
0.0438583
0.0437325
0.0436366
0.0435695
0.0435237
0.0434933
0.043474
0.0434623
0.0434555
0.043451
0.0434476
0.0434448
0.0434436
0.0434448
0.043448
0.0434511
)
;
    }
    frontAndBack
    {
        type            empty;
    }
}


// ************************************************************************* //
