/*--------------------------------*- C++ -*----------------------------------*\
| =========                 |                                                 |
| \\      /  F ield         | OpenFOAM: The Open Source CFD Toolbox           |
|  \\    /   O peration     | Version:  2212                                  |
|   \\  /    A nd           | Website:  www.openfoam.com                      |
|    \\/     M anipulation  |                                                 |
\*---------------------------------------------------------------------------*/
FoamFile
{
    version     2.0;
    format      ascii;
    arch        "LSB;label=64;scalar=64";
    class       surfaceScalarField;
    location    "510";
    object      phi;
}
// * * * * * * * * * * * * * * * * * * * * * * * * * * * * * * * * * * * * * //

dimensions      [0 3 -1 0 0 0 0];

oriented        oriented;

internalField   nonuniform List<scalar> 
1984
(
-2.59256e-09
2.59284e-09
-2.71248e-08
2.45323e-08
-7.27316e-08
4.5607e-08
-1.28329e-07
5.55972e-08
-1.87618e-07
5.92892e-08
-2.50401e-07
6.27824e-08
-3.1761e-07
6.72097e-08
-3.87433e-07
6.98227e-08
-4.53566e-07
6.61332e-08
-5.02587e-07
4.9021e-08
-5.1008e-07
7.49291e-09
-4.39259e-07
-7.08209e-08
-2.64912e-07
-1.74347e-07
-1.86791e-08
-2.46232e-07
1.84792e-07
-2.03471e-07
3.08066e-07
-1.23273e-07
3.54064e-07
-4.59989e-08
3.56737e-07
-2.67296e-09
3.39275e-07
1.74617e-08
3.12996e-07
2.62798e-08
2.82449e-07
3.0548e-08
2.49608e-07
3.28401e-08
2.16167e-07
3.34412e-08
1.83805e-07
3.23616e-08
1.53596e-07
3.02089e-08
1.25259e-07
2.83366e-08
9.69431e-08
2.83154e-08
6.70492e-08
2.98939e-08
3.70755e-08
2.99735e-08
1.28377e-08
2.42376e-08
8.21927e-10
1.20157e-08
8.21985e-10
-3.10802e-08
3.36731e-08
-1.27815e-07
1.21268e-07
-2.77442e-07
1.95234e-07
-4.55291e-07
2.33445e-07
-6.44198e-07
2.48196e-07
-8.37808e-07
2.56393e-07
-1.03214e-06
2.61537e-07
-1.21733e-06
2.55022e-07
-1.373e-06
2.218e-07
-1.46344e-06
1.39455e-07
-1.4297e-06
-2.62432e-08
-1.19409e-06
-3.06433e-07
-7.06517e-07
-6.61918e-07
-2.45676e-08
-9.28181e-07
5.73397e-07
-8.01436e-07
9.4198e-07
-4.91856e-07
1.10421e-06
-2.08229e-07
1.13531e-06
-3.37695e-08
1.10052e-06
5.22466e-08
1.03248e-06
9.43214e-08
9.45691e-07
1.17339e-07
8.47535e-07
1.30995e-07
7.43658e-07
1.37319e-07
6.39119e-07
1.369e-07
5.37288e-07
1.3204e-07
4.38329e-07
1.27296e-07
3.39401e-07
1.27244e-07
2.38795e-07
1.305e-07
1.41818e-07
1.26952e-07
6.2168e-08
1.03888e-07
1.39636e-08
6.02201e-08
1.47854e-08
-7.77498e-08
1.11423e-07
-2.76137e-07
3.19655e-07
-5.55185e-07
4.74281e-07
-8.73794e-07
5.52055e-07
-1.20386e-06
5.78262e-07
-1.52914e-06
5.81674e-07
-1.83593e-06
5.68321e-07
-2.10406e-06
5.23152e-07
-2.3007e-06
4.18444e-07
-2.37435e-06
2.13102e-07
-2.244e-06
-1.56594e-07
-1.81818e-06
-7.32248e-07
-1.0467e-06
-1.4334e-06
1.1302e-08
-1.98618e-06
9.74748e-07
-1.76488e-06
1.60638e-06
-1.12349e-06
1.92417e-06
-5.26013e-07
2.02061e-06
-1.30218e-07
1.99634e-06
7.65228e-08
1.90491e-06
1.85747e-07
1.77168e-06
2.50566e-07
1.61069e-06
2.91987e-07
1.43219e-06
3.15821e-07
1.24482e-06
3.24276e-07
1.05473e-06
3.22125e-07
8.64181e-07
3.17845e-07
6.72326e-07
3.19098e-07
4.79893e-07
3.22933e-07
2.96008e-07
3.10837e-07
1.40593e-07
2.59302e-07
3.71486e-08
1.63665e-07
5.1934e-08
-1.30458e-07
2.41881e-07
-4.41567e-07
6.30764e-07
-8.58723e-07
8.91437e-07
-1.31903e-06
1.01236e-06
-1.78079e-06
1.04003e-06
-2.21647e-06
1.01736e-06
-2.60214e-06
9.5399e-07
-2.90892e-06
8.29929e-07
-3.09598e-06
6.05509e-07
-3.10285e-06
2.19966e-07
-2.84487e-06
-4.14567e-07
-2.2351e-06
-1.34202e-06
-1.23039e-06
-2.43811e-06
9.43519e-08
-3.31093e-06
1.33407e-06
-3.0046e-06
2.22575e-06
-2.01517e-06
2.72741e-06
-1.02767e-06
2.92892e-06
-3.31728e-07
2.95342e-06
5.20167e-08
2.86973e-06
2.69438e-07
2.71368e-06
4.06622e-07
2.50567e-06
4.99992e-07
2.26032e-06
5.61172e-07
1.98955e-06
5.95047e-07
1.70259e-06
6.09088e-07
1.4053e-06
6.1513e-07
1.10129e-06
6.2311e-07
7.9572e-07
6.28504e-07
5.02043e-07
6.04514e-07
2.47263e-07
5.14082e-07
6.88374e-08
3.4209e-07
1.20771e-07
-1.71297e-07
4.13178e-07
-5.73978e-07
1.03344e-06
-1.10779e-06
1.42525e-06
-1.68735e-06
1.59191e-06
-2.25376e-06
1.60644e-06
-2.76701e-06
1.53061e-06
-3.19462e-06
1.3816e-06
-3.50267e-06
1.13798e-06
-3.64794e-06
7.50782e-07
-3.56761e-06
1.39632e-07
-3.18645e-06
-7.95723e-07
-2.4222e-06
-2.10628e-06
-1.23928e-06
-3.62103e-06
2.29723e-07
-4.77993e-06
1.63857e-06
-4.41345e-06
2.75107e-06
-3.12767e-06
3.43319e-06
-1.70979e-06
3.76118e-06
-6.59722e-07
3.86801e-06
-5.48071e-08
3.82583e-06
3.11616e-07
3.67828e-06
5.54174e-07
3.44973e-06
7.28541e-07
3.15739e-06
8.53514e-07
2.81528e-06
9.37157e-07
2.43535e-06
9.8902e-07
2.02768e-06
1.0228e-06
1.6015e-06
1.04929e-06
1.16804e-06
1.06196e-06
7.47003e-07
1.02555e-06
3.75018e-07
8.86067e-07
1.0713e-07
6.09978e-07
2.27902e-07
-1.8203e-07
5.95208e-07
-6.24271e-07
1.47569e-06
-1.22515e-06
2.02612e-06
-1.88252e-06
2.24929e-06
-2.5175e-06
2.24141e-06
-3.07563e-06
2.08874e-06
-3.5172e-06
1.82316e-06
-3.80702e-06
1.4278e-06
-3.90496e-06
8.4873e-07
-3.75074e-06
-1.45946e-08
-3.27399e-06
-1.27247e-06
-2.38497e-06
-2.9953e-06
-1.07021e-06
-4.93578e-06
4.53442e-07
-6.30358e-06
1.9383e-06
-5.8983e-06
3.19909e-06
-4.38847e-06
4.01604e-06
-2.52674e-06
4.45156e-06
-1.09524e-06
4.64479e-06
-2.48042e-07
4.6636e-06
2.92809e-07
4.54974e-06
6.68027e-07
4.32749e-06
9.50793e-07
4.0133e-06
1.1677e-06
3.62093e-06
1.32953e-06
3.1637e-06
1.44626e-06
2.65527e-06
1.53123e-06
2.11046e-06
1.59411e-06
1.54765e-06
1.62476e-06
9.95517e-07
1.57769e-06
5.03494e-07
1.37809e-06
1.4538e-07
9.68092e-07
3.73282e-07
-1.54471e-07
7.49678e-07
-5.65998e-07
1.88721e-06
-1.16483e-06
2.62496e-06
-1.84606e-06
2.93052e-06
-2.51071e-06
2.90607e-06
-3.08686e-06
2.66489e-06
-3.52675e-06
2.26305e-06
-3.79519e-06
1.69624e-06
-3.85566e-06
9.09208e-07
-3.65628e-06
-2.13975e-07
-3.10751e-06
-1.82124e-06
-2.10778e-06
-3.99503e-06
-7.0445e-07
-6.33912e-06
8.17709e-07
-7.82574e-06
2.31693e-06
-7.39752e-06
3.64283e-06
-5.71437e-06
4.52167e-06
-3.40558e-06
5.00601e-06
-1.57957e-06
5.24741e-06
-4.89444e-07
5.31359e-06
2.26632e-07
5.23578e-06
7.45831e-07
5.03258e-06
1.154e-06
4.71529e-06
1.485e-06
4.29396e-06
1.75085e-06
3.78066e-06
1.95955e-06
3.19074e-06
2.12115e-06
2.54356e-06
2.24129e-06
1.86528e-06
2.30303e-06
1.19634e-06
2.24663e-06
6.01951e-07
1.97248e-06
1.72767e-07
1.39728e-06
5.4605e-07
-9.30859e-08
8.42764e-07
-3.98748e-07
2.19288e-06
-9.12273e-07
3.13848e-06
-1.55198e-06
3.57022e-06
-2.20498e-06
3.55907e-06
-2.77756e-06
3.23747e-06
-3.20904e-06
2.69453e-06
-3.46142e-06
1.94862e-06
-3.49958e-06
9.47364e-07
-3.26078e-06
-4.52774e-07
-2.63257e-06
-2.44944e-06
-1.52432e-06
-5.10328e-06
-9.05325e-08
-7.77291e-06
1.38069e-06
-9.29696e-06
2.85105e-06
-8.86789e-06
4.16511e-06
-7.02843e-06
5.02966e-06
-4.27013e-06
5.492e-06
-2.04191e-06
5.71557e-06
-7.1301e-07
5.77831e-06
1.63893e-07
5.70617e-06
8.1797e-07
5.50936e-06
1.3508e-06
5.19044e-06
1.80392e-06
4.75193e-06
2.18936e-06
4.20102e-06
2.51046e-06
3.55169e-06
2.77048e-06
2.82606e-06
2.96691e-06
2.05831e-06
3.07079e-06
1.30304e-06
3.0019e-06
6.42939e-07
2.63259e-06
1.79816e-07
1.8604e-06
7.25866e-07
-1.18964e-08
8.54661e-07
-1.42843e-07
2.32382e-06
-4.69219e-07
3.46486e-06
-9.77716e-07
4.07872e-06
-1.56303e-06
4.14439e-06
-2.10656e-06
3.781e-06
-2.52262e-06
3.11058e-06
-2.75695e-06
2.18295e-06
-2.76268e-06
9.53099e-07
-2.45491e-06
-7.60544e-07
-1.71722e-06
-3.18713e-06
-5.12071e-07
-6.30843e-06
8.38443e-07
-9.12342e-06
2.19891e-06
-1.06574e-05
3.59566e-06
-1.02646e-05
4.82121e-06
-8.25397e-06
5.59977e-06
-5.04869e-06
5.97697e-06
-2.41912e-06
6.1178e-06
-8.53837e-07
6.11186e-06
1.69826e-07
5.99205e-06
9.37782e-07
5.7653e-06
1.57755e-06
5.42622e-06
2.143e-06
4.96774e-06
2.64784e-06
4.38878e-06
3.08942e-06
3.6985e-06
3.46077e-06
2.91955e-06
3.74586e-06
2.09422e-06
3.89611e-06
1.29307e-06
3.80305e-06
6.15355e-07
3.3103e-06
1.63876e-07
2.31188e-06
8.89741e-07
7.36189e-08
7.81042e-07
1.61193e-07
2.23625e-06
1.28173e-07
3.49788e-06
-1.02747e-07
4.30964e-06
-4.97059e-07
4.5387e-06
-9.49118e-07
4.23306e-06
-1.33355e-06
3.49502e-06
-1.54275e-06
2.39215e-06
-1.48141e-06
8.9176e-07
-1.02995e-06
-1.21201e-06
-1.2827e-07
-4.08881e-06
9.91973e-07
-7.42868e-06
2.16844e-06
-1.02999e-05
3.37542e-06
-1.18644e-05
4.59223e-06
-1.14815e-05
5.62835e-06
-9.29009e-06
6.24286e-06
-5.6632e-06
6.48086e-06
-2.65711e-06
6.49232e-06
-8.65303e-07
6.36579e-06
2.96358e-07
6.1465e-06
1.15707e-06
5.84658e-06
1.87748e-06
5.45805e-06
2.53152e-06
4.96574e-06
3.14015e-06
4.35873e-06
3.69644e-06
3.63872e-06
4.18078e-06
2.82746e-06
4.55712e-06
1.97609e-06
4.74748e-06
1.17213e-06
4.60701e-06
5.26959e-07
3.95547e-06
1.29795e-07
2.70904e-06
1.01954e-06
1.52666e-07
6.28376e-07
4.69235e-07
1.91968e-06
7.95723e-07
3.17139e-06
9.95474e-07
4.10989e-06
9.96436e-07
4.53774e-06
8.36448e-07
4.39305e-06
6.30515e-07
3.70095e-06
5.27597e-07
2.49507e-06
6.94669e-07
7.24687e-07
1.27494e-06
-1.79227e-06
2.13947e-06
-4.95335e-06
3.07888e-06
-8.36808e-06
4.03365e-06
-1.12547e-05
4.96461e-06
-1.27954e-05
5.84888e-06
-1.23657e-05
6.55725e-06
-9.99845e-06
6.91144e-06
-6.01739e-06
6.95766e-06
-2.70334e-06
6.81038e-06
-7.1802e-07
6.53836e-06
5.68381e-07
6.19295e-06
1.50247e-06
5.79349e-06
2.27694e-06
5.33371e-06
2.9913e-06
4.79358e-06
3.68028e-06
4.15344e-06
4.33658e-06
3.40766e-06
4.92656e-06
2.57836e-06
5.38641e-06
1.7284e-06
5.59744e-06
9.62745e-07
5.37266e-06
3.95871e-07
4.52235e-06
8.58033e-08
3.01911e-06
1.10534e-06
2.05929e-07
4.22447e-07
7.1956e-07
1.40605e-06
1.40158e-06
2.48937e-06
2.08696e-06
3.42452e-06
2.6477e-06
3.97699e-06
3.03975e-06
4.00099e-06
3.30778e-06
3.43292e-06
3.56045e-06
2.2424e-06
3.91399e-06
3.71149e-07
4.50784e-06
-2.38612e-06
5.22374e-06
-5.66925e-06
5.89916e-06
-9.0435e-06
6.47067e-06
-1.18262e-05
6.9253e-06
-1.325e-05
7.28188e-06
-1.27223e-05
7.49379e-06
-1.02104e-05
7.47848e-06
-6.00207e-06
7.284e-06
-2.50886e-06
6.96341e-06
-3.97429e-07
6.55036e-06
9.81428e-07
6.09058e-06
1.96226e-06
5.60055e-06
2.76697e-06
5.07226e-06
3.51959e-06
4.48176e-06
4.27078e-06
3.80365e-06
5.01469e-06
3.02976e-06
5.70045e-06
2.18975e-06
6.22642e-06
1.36568e-06
6.42151e-06
6.8009e-07
6.05826e-06
2.35299e-07
4.96714e-06
3.80199e-08
3.21639e-06
1.14336e-06
2.11564e-07
2.10884e-07
8.17253e-07
8.00359e-07
1.74411e-06
1.56251e-06
2.84521e-06
2.32342e-06
3.96701e-06
2.85518e-06
5.00514e-06
2.96287e-06
5.92347e-06
2.51459e-06
6.75276e-06
1.41311e-06
7.59667e-06
-4.7276e-07
8.34767e-06
-3.13712e-06
8.90826e-06
-6.22984e-06
9.19706e-06
-9.33229e-06
9.19548e-06
-1.18246e-05
8.96055e-06
-1.30151e-05
8.592e-06
-1.23537e-05
8.15064e-06
-9.76901e-06
7.68059e-06
-5.53202e-06
7.22328e-06
-2.05155e-06
6.74324e-06
8.26075e-08
6.2374e-06
1.48727e-06
5.72296e-06
2.4767e-06
5.19253e-06
3.2974e-06
4.62554e-06
4.08658e-06
3.99216e-06
4.90416e-06
3.26584e-06
5.74101e-06
2.44984e-06
6.51644e-06
1.60183e-06
7.07443e-06
8.39067e-07
7.18428e-06
3.0214e-07
6.59518e-06
4.34005e-08
5.22588e-06
-1.42541e-08
3.27404e-06
1.12911e-06
1.53788e-07
5.70957e-08
6.71951e-07
2.82196e-07
1.59293e-06
6.41533e-07
2.86017e-06
1.05617e-06
4.35622e-06
1.35914e-06
5.96655e-06
1.35253e-06
7.61417e-06
8.66972e-07
9.23633e-06
-2.09057e-07
1.06914e-05
-1.92779e-06
1.1695e-05
-4.14076e-06
1.21436e-05
-6.67845e-06
1.19994e-05
-9.18805e-06
1.13234e-05
-1.11486e-05
1.0276e-05
-1.19677e-05
9.07966e-06
-1.11574e-05
7.9352e-06
-8.62455e-06
7.03113e-06
-4.62796e-06
6.38112e-06
-1.40154e-06
5.84397e-06
6.19754e-07
5.36774e-06
1.9635e-06
4.89273e-06
2.95172e-06
4.37958e-06
3.81055e-06
3.79288e-06
4.67328e-06
3.09769e-06
5.59934e-06
2.26158e-06
6.57712e-06
1.34744e-06
7.43059e-06
5.36691e-07
7.88518e-06
-1.85023e-08
7.73947e-06
-2.4872e-07
6.8254e-06
-2.15954e-07
5.19311e-06
-8.25515e-08
3.14064e-06
1.04655e-06
8.45864e-08
-2.74908e-08
4.50947e-07
-8.4165e-08
1.23235e-06
-1.39866e-07
2.49729e-06
-2.08775e-07
4.20868e-06
-3.52241e-07
6.23371e-06
-6.72504e-07
8.38112e-06
-1.28043e-06
1.04168e-05
-2.24477e-06
1.20073e-05
-3.51821e-06
1.29583e-05
-5.09179e-06
1.31444e-05
-6.86461e-06
1.25294e-05
-8.573e-06
1.12022e-05
-9.82139e-06
9.40458e-06
-1.01701e-05
7.49782e-06
-9.25065e-06
5.84691e-06
-6.97364e-06
4.75838e-06
-3.53943e-06
4.22189e-06
-8.65049e-07
3.84674e-06
9.94906e-07
3.46577e-06
2.34447e-06
3.00004e-06
3.41746e-06
2.38179e-06
4.4288e-06
1.58816e-06
5.46691e-06
6.63455e-07
6.52405e-06
-2.74659e-07
7.51524e-06
-1.04131e-06
8.19724e-06
-1.45474e-06
8.29861e-06
-1.44636e-06
7.73109e-06
-1.09874e-06
6.47778e-06
-6.06668e-07
4.70104e-06
-1.84034e-07
2.71801e-06
8.62521e-07
1.16462e-07
-1.43953e-07
5.10831e-07
-4.78535e-07
1.2577e-06
-8.86739e-07
2.39847e-06
-1.34954e-06
3.89654e-06
-1.85031e-06
5.61197e-06
-2.38793e-06
7.3169e-06
-2.98536e-06
8.75393e-06
-3.68181e-06
9.74512e-06
-4.5094e-06
1.01259e-05
-5.47259e-06
9.77393e-06
-6.51262e-06
8.61731e-06
-7.41638e-06
6.7346e-06
-7.93868e-06
4.42715e-06
-7.86264e-06
2.17462e-06
-6.99812e-06
5.22174e-07
-5.32119e-06
-2.96808e-07
-2.72045e-06
-9.40933e-07
-2.20922e-07
-1.59758e-06
1.65156e-06
-2.26047e-06
3.00735e-06
-2.98275e-06
4.13973e-06
-3.76434e-06
5.21039e-06
-4.53628e-06
6.23885e-06
-5.15796e-06
7.14573e-06
-5.43144e-06
7.78871e-06
-5.22544e-06
7.99124e-06
-4.5512e-06
7.62436e-06
-3.49842e-06
6.67832e-06
-2.2685e-06
5.24785e-06
-1.12406e-06
3.55661e-06
-3.12202e-07
1.90615e-06
5.50318e-07
1.2012e-07
-2.64073e-07
4.30054e-07
-7.88469e-07
8.86715e-07
-1.3434e-06
1.42999e-06
-1.89282e-06
1.98529e-06
-2.40561e-06
2.47083e-06
-2.87347e-06
2.79964e-06
-3.31417e-06
2.87706e-06
-3.75923e-06
2.60158e-06
-4.23392e-06
1.86729e-06
-4.73829e-06
5.85751e-07
-5.23108e-06
-1.22176e-06
-5.60887e-06
-3.34863e-06
-5.81181e-06
-5.49761e-06
-5.71367e-06
-7.38463e-06
-5.1111e-06
-8.90337e-06
-3.80245e-06
-1.02541e-05
-1.36969e-06
-1.1434e-05
9.5893e-07
-1.2283e-05
2.50059e-06
-1.28688e-05
3.59312e-06
-1.3202e-05
4.47297e-06
-1.32275e-05
5.23584e-06
-1.28722e-05
5.88359e-06
-1.20712e-05
6.34469e-06
-1.07936e-05
6.5111e-06
-9.08478e-06
6.28247e-06
-7.07768e-06
5.61726e-06
-4.96222e-06
4.56286e-06
-2.97703e-06
3.26266e-06
-1.37347e-06
1.95305e-06
-3.53052e-07
8.85728e-07
1.97267e-07
-1.5905e-09
-2.62482e-07
-4.37651e-08
-7.46294e-07
-1.7882e-07
-1.20835e-06
-4.6241e-07
-1.60923e-06
-9.38945e-07
-1.92907e-06
-1.63291e-06
-2.1795e-06
-2.55263e-06
-2.39446e-06
-3.70037e-06
-2.61149e-06
-5.07681e-06
-2.85748e-06
-6.67327e-06
-3.14184e-06
-8.4525e-06
-3.45184e-06
-1.03169e-05
-3.74448e-06
-1.2192e-05
-3.93666e-06
-1.40229e-05
-3.88284e-06
-1.57639e-05
-3.37007e-06
-1.74282e-05
-2.1382e-06
-1.89124e-05
1.14554e-07
-1.99074e-05
1.95396e-06
-2.04775e-05
3.07066e-06
-2.0603e-05
3.7186e-06
-2.01925e-05
4.06253e-06
-1.91795e-05
4.22281e-06
-1.75497e-05
4.25382e-06
-1.53598e-05
4.15471e-06
-1.27389e-05
3.89029e-06
-9.87143e-06
3.41496e-06
-7.00361e-06
2.74944e-06
-4.41568e-06
1.97493e-06
-2.34869e-06
1.19567e-06
-9.4508e-07
5.49441e-07
-2.05243e-07
1.4589e-07
-7.97671e-09
-1.41514e-07
-1.20969e-07
-5.66037e-07
-3.21771e-07
-1.28262e-06
-4.91767e-07
-2.26971e-06
-6.2214e-07
-3.47925e-06
-7.19535e-07
-4.8541e-06
-8.04645e-07
-6.34674e-06
-9.01816e-07
-7.92707e-06
-1.03117e-06
-9.57834e-06
-1.20621e-06
-1.12897e-05
-1.43043e-06
-1.30516e-05
-1.69e-06
-1.48433e-05
-1.95273e-06
-1.66404e-05
-2.13955e-06
-1.84174e-05
-2.10583e-06
-2.01455e-05
-1.642e-06
-2.18003e-05
-4.83413e-07
-2.30511e-05
1.36534e-06
-2.38843e-05
2.78713e-06
-2.42894e-05
3.47583e-06
-2.41079e-05
3.53709e-06
-2.3202e-05
3.15658e-06
-2.14889e-05
2.50976e-06
-1.89703e-05
1.73524e-06
-1.57688e-05
9.53166e-07
-1.21506e-05
2.72121e-07
-8.49695e-06
-2.38709e-07
-5.21525e-06
-5.32262e-07
-2.64525e-06
-5.95075e-07
-9.8541e-07
-4.64169e-07
-1.95237e-07
-2.40732e-07
1.38414e-08
-6.31882e-08
5.86463e-09
-2.11123e-07
9.01534e-08
-7.96301e-07
2.63407e-07
-1.72077e-06
4.32701e-07
-2.91429e-06
5.71385e-07
-4.28826e-06
6.54432e-07
-5.76295e-06
6.7004e-07
-7.28243e-06
6.17665e-07
-8.81378e-06
5.00187e-07
-1.034e-05
3.20056e-07
-1.18533e-05
8.28476e-08
-1.33515e-05
-1.91851e-07
-1.48467e-05
-4.57528e-07
-1.63455e-05
-6.40764e-07
-1.78293e-05
-6.22043e-07
-1.92557e-05
-2.15599e-07
-2.05857e-05
8.46668e-07
-2.16755e-05
2.45505e-06
-2.24304e-05
3.54206e-06
-2.27464e-05
3.79183e-06
-2.24882e-05
3.27895e-06
-2.15487e-05
2.21701e-06
-1.9866e-05
8.2705e-07
-1.75145e-05
-6.16213e-07
-1.47092e-05
-1.85216e-06
-1.16188e-05
-2.81825e-06
-8.49639e-06
-3.36114e-06
-5.60957e-06
-3.41908e-06
-3.19659e-06
-3.00805e-06
-1.44697e-06
-2.2138e-06
-4.34424e-07
-1.25327e-06
-4.63932e-08
-4.51219e-07
-4.05286e-08
-1.2288e-07
2.13033e-07
-4.82918e-07
6.23445e-07
-1.07159e-06
1.02137e-06
-1.85808e-06
1.35788e-06
-2.80264e-06
1.59899e-06
-3.86645e-06
1.73384e-06
-5.01663e-06
1.76784e-06
-6.22727e-06
1.71083e-06
-7.47821e-06
1.57099e-06
-8.75184e-06
1.35648e-06
-1.00248e-05
1.08108e-06
-1.12702e-05
7.87914e-07
-1.24701e-05
5.59102e-07
-1.36202e-05
5.28082e-07
-1.47319e-05
8.96144e-07
-1.58033e-05
1.91801e-06
-1.66575e-05
3.30928e-06
-1.71553e-05
4.03985e-06
-1.7279e-05
3.91549e-06
-1.69838e-05
2.98373e-06
-1.62408e-05
1.47407e-06
-1.51037e-05
-3.10065e-07
-1.37679e-05
-1.95203e-06
-1.22233e-05
-3.39671e-06
-1.04953e-05
-4.54624e-06
-8.59237e-06
-5.26411e-06
-6.56308e-06
-5.44838e-06
-4.51913e-06
-5.052e-06
-2.62904e-06
-4.10389e-06
-1.13005e-06
-2.75227e-06
-2.49195e-07
-1.33207e-06
-2.89723e-07
-6.16152e-08
2.74648e-07
-2.51276e-07
8.13106e-07
-5.82298e-07
1.35239e-06
-1.05381e-06
1.82939e-06
-1.64831e-06
2.19349e-06
-2.33738e-06
2.42292e-06
-3.09067e-06
2.52113e-06
-3.8824e-06
2.50256e-06
-4.69412e-06
2.38271e-06
-5.51495e-06
2.17731e-06
-6.34419e-06
1.91032e-06
-7.18467e-06
1.6284e-06
-8.03761e-06
1.41205e-06
-8.8934e-06
1.38387e-06
-9.71749e-06
1.72024e-06
-1.04461e-05
2.64659e-06
-1.09083e-05
3.77147e-06
-1.1049e-05
4.18054e-06
-1.0932e-05
3.79859e-06
-1.06075e-05
2.65915e-06
-1.01361e-05
1.00273e-06
-9.66491e-06
-7.81285e-07
-9.1981e-06
-2.41885e-06
-8.67238e-06
-3.92243e-06
-8.00668e-06
-5.21193e-06
-7.11033e-06
-6.16046e-06
-5.9305e-06
-6.62821e-06
-4.48562e-06
-6.49687e-06
-2.89077e-06
-5.69874e-06
-1.39306e-06
-4.24998e-06
-3.47516e-07
-2.37761e-06
-6.37239e-07
-2.23534e-08
2.97001e-07
-1.07275e-07
8.98028e-07
-2.76485e-07
1.5216e-06
-5.39721e-07
2.09263e-06
-8.89434e-07
2.5432e-06
-1.30381e-06
2.8373e-06
-1.756e-06
2.97331e-06
-2.22355e-06
2.97012e-06
-2.69387e-06
2.85303e-06
-3.16472e-06
2.64816e-06
-3.64223e-06
2.38783e-06
-4.13479e-06
2.12096e-06
-4.64371e-06
1.92096e-06
-5.1515e-06
1.89166e-06
-5.61075e-06
2.17948e-06
-5.93669e-06
2.97254e-06
-5.98799e-06
3.82277e-06
-5.77747e-06
3.97003e-06
-5.41533e-06
3.43645e-06
-5.02156e-06
2.26538e-06
-4.72752e-06
7.08683e-07
-4.62708e-06
-8.81721e-07
-4.68425e-06
-2.36168e-06
-4.82736e-06
-3.77932e-06
-4.942e-06
-5.0973e-06
-4.87992e-06
-6.22253e-06
-4.51196e-06
-6.99617e-06
-3.7733e-06
-7.23553e-06
-2.69074e-06
-6.78131e-06
-1.44649e-06
-5.49423e-06
-4.07855e-07
-3.41625e-06
-1.04509e-06
-6.83975e-09
3.03841e-07
-4.32585e-08
9.34447e-07
-1.25311e-07
1.60365e-06
-2.59952e-07
2.22727e-06
-4.41776e-07
2.72503e-06
-6.54259e-07
3.04978e-06
-8.7618e-07
3.19523e-06
-1.09151e-06
3.18545e-06
-1.29708e-06
3.0586e-06
-1.49989e-06
2.85097e-06
-1.71174e-06
2.59968e-06
-1.94176e-06
2.35098e-06
-2.18661e-06
2.16581e-06
-2.41971e-06
2.12476e-06
-2.58345e-06
2.34322e-06
-2.58105e-06
2.97014e-06
-2.30952e-06
3.55124e-06
-1.84236e-06
3.50286e-06
-1.31747e-06
2.91156e-06
-8.66377e-07
1.81429e-06
-6.38959e-07
4.81266e-07
-7.02194e-07
-8.18487e-07
-9.94799e-07
-2.06907e-06
-1.45328e-06
-3.32083e-06
-2.00509e-06
-4.54549e-06
-2.51036e-06
-5.71727e-06
-2.80252e-06
-6.70401e-06
-2.73663e-06
-7.30142e-06
-2.22866e-06
-7.28928e-06
-1.35972e-06
-6.36316e-06
-4.41444e-07
-4.33453e-06
-1.48654e-06
-1.04502e-08
3.14291e-07
-4.42628e-08
9.6826e-07
-9.7464e-08
1.65685e-06
-1.61237e-07
2.29104e-06
-2.26814e-07
2.7906e-06
-2.84396e-07
3.10736e-06
-3.21199e-07
3.23204e-06
-3.32515e-07
3.19677e-06
-3.28633e-07
3.05471e-06
-3.25125e-07
2.84746e-06
-3.37157e-07
2.61171e-06
-3.72144e-07
2.38596e-06
-4.2124e-07
2.2149e-06
-4.52425e-07
2.15595e-06
-4.02917e-07
2.29372e-06
-1.62348e-07
2.72957e-06
3.2271e-07
3.06618e-06
9.37788e-07
2.88778e-06
1.52202e-06
2.32733e-06
1.93259e-06
1.40371e-06
2.07263e-06
3.41227e-07
1.95345e-06
-6.99305e-07
1.62286e-06
-1.73848e-06
1.10422e-06
-2.80219e-06
4.28307e-07
-3.86958e-06
-3.44226e-07
-4.94474e-06
-1.08559e-06
-5.96264e-06
-1.5769e-06
-6.81012e-06
-1.62718e-06
-7.23899e-06
-1.18504e-06
-6.80531e-06
-4.59963e-07
-5.0596e-06
-1.9465e-06
-3.29228e-08
3.47214e-07
-1.02242e-07
1.03758e-06
-1.67102e-07
1.72171e-06
-1.94345e-07
2.31829e-06
-1.71764e-07
2.76802e-06
-9.96393e-08
3.03524e-06
2.35605e-08
3.10884e-06
1.83751e-07
3.03658e-06
3.56087e-07
2.88238e-06
5.20967e-07
2.68258e-06
6.65525e-07
2.46716e-06
7.87568e-07
2.26392e-06
8.99885e-07
2.10259e-06
1.03482e-06
2.02101e-06
1.25062e-06
2.07792e-06
1.64149e-06
2.3387e-06
2.23325e-06
2.47442e-06
2.88013e-06
2.2409e-06
3.44034e-06
1.76712e-06
3.7936e-06
1.05045e-06
3.8935e-06
2.41333e-07
3.76745e-06
-5.73256e-07
3.44081e-06
-1.41183e-06
2.92702e-06
-2.28841e-06
2.25129e-06
-3.19385e-06
1.42428e-06
-4.11773e-06
4.96356e-07
-5.03472e-06
-3.75451e-07
-5.93831e-06
-9.3778e-07
-6.67666e-06
-9.43587e-07
-6.7995e-06
-4.64866e-07
-5.53832e-06
-2.41137e-06
-8.15485e-08
4.28762e-07
-2.1838e-07
1.17441e-06
-3.12234e-07
1.81557e-06
-3.08787e-07
2.31484e-06
-2.01241e-07
2.66048e-06
-1.57942e-09
2.83558e-06
2.71867e-07
2.83539e-06
5.77315e-07
2.73113e-06
8.89155e-07
2.57054e-06
1.18996e-06
2.38178e-06
1.47161e-06
2.1855e-06
1.73594e-06
1.99959e-06
1.99582e-06
1.84271e-06
2.2775e-06
1.73933e-06
2.62627e-06
1.72915e-06
3.11264e-06
1.85234e-06
3.72604e-06
1.86102e-06
4.33871e-06
1.62823e-06
4.84685e-06
1.25898e-06
5.1619e-06
7.35401e-07
5.26002e-06
1.43215e-07
5.15585e-06
-4.69082e-07
4.85371e-06
-1.1097e-06
4.35422e-06
-1.78892e-06
3.66669e-06
-2.50632e-06
2.8094e-06
-3.26044e-06
1.82624e-06
-4.05156e-06
7.7802e-07
-4.89009e-06
-1.52525e-07
-5.74612e-06
-6.25055e-07
-6.32697e-06
-4.44909e-07
-5.71847e-06
-2.85628e-06
-1.6819e-07
5.96953e-07
-3.89982e-07
1.3962e-06
-4.95255e-07
1.92084e-06
-4.32399e-07
2.25198e-06
-2.1541e-07
2.44349e-06
1.2747e-07
2.4927e-06
5.42021e-07
2.42084e-06
9.81447e-07
2.29171e-06
1.42203e-06
2.12996e-06
1.85103e-06
1.95278e-06
2.26357e-06
1.77296e-06
2.66154e-06
1.60162e-06
3.05346e-06
1.45078e-06
3.45623e-06
1.33656e-06
3.90048e-06
1.2849e-06
4.43329e-06
1.31952e-06
5.02254e-06
1.27177e-06
5.57053e-06
1.08025e-06
6.01356e-06
8.15939e-07
6.29154e-06
4.57421e-07
6.38683e-06
4.79274e-08
6.29909e-06
-3.81345e-07
6.02028e-06
-8.3089e-07
5.54342e-06
-1.31205e-06
4.86703e-06
-1.82993e-06
3.99999e-06
-2.3934e-06
2.97017e-06
-3.02174e-06
1.8294e-06
-3.74932e-06
6.84426e-07
-4.60114e-06
-1.91223e-07
-5.45132e-06
-3.75943e-07
-5.53375e-06
-3.23222e-06
-2.93022e-07
8.89975e-07
-5.76998e-07
1.68018e-06
-6.1786e-07
1.9617e-06
-4.23383e-07
2.05751e-06
-4.06081e-08
2.06071e-06
4.6596e-07
1.98613e-06
1.02139e-06
1.86541e-06
1.59101e-06
1.72209e-06
2.15548e-06
1.56549e-06
2.70386e-06
1.4044e-06
3.2305e-06
1.24632e-06
3.73389e-06
1.09823e-06
4.21686e-06
9.6781e-07
4.68847e-06
8.6495e-07
5.16886e-06
8.04512e-07
5.68939e-06
7.98993e-07
6.21266e-06
7.48499e-07
6.67202e-06
6.20887e-07
7.03404e-06
4.5392e-07
7.26027e-06
2.31194e-07
7.3312e-06
-2.29978e-08
7.23837e-06
-2.88524e-07
6.97342e-06
-5.65939e-07
6.52663e-06
-8.65258e-07
5.88935e-06
-1.19265e-06
5.05733e-06
-1.56139e-06
4.03652e-06
-2.00092e-06
2.85236e-06
-2.56516e-06
1.57569e-06
-3.32447e-06
3.95491e-07
-4.27112e-06
-2.21195e-07
-4.91706e-06
-3.45342e-06
-4.30161e-07
1.32014e-06
-6.24113e-07
1.87413e-06
-4.17612e-07
1.7552e-06
4.27328e-08
1.59716e-06
6.46895e-07
1.45655e-06
1.3126e-06
1.32043e-06
1.99745e-06
1.18056e-06
2.67519e-06
1.04435e-06
3.3285e-06
9.12176e-07
3.9463e-06
7.86599e-07
4.52168e-06
6.70943e-07
5.05153e-06
5.68379e-07
5.53721e-06
4.82127e-07
5.9861e-06
4.16063e-07
6.41484e-06
3.75773e-07
6.84801e-06
3.65828e-07
7.2571e-06
3.394e-07
7.60109e-06
2.769e-07
7.86264e-06
1.92372e-07
8.01562e-06
7.82126e-08
8.04176e-06
-4.91397e-08
7.93271e-06
-1.79475e-07
7.68371e-06
-3.16939e-07
7.28517e-06
-4.66716e-07
6.72559e-06
-6.33069e-07
5.99132e-06
-8.27119e-07
5.06638e-06
-1.07598e-06
3.93589e-06
-1.43467e-06
2.60684e-06
-1.99542e-06
1.19245e-06
-2.85673e-06
1.16575e-07
-3.84119e-06
-3.33684e-06
-3.80724e-07
1.70086e-06
2.82621e-08
1.46514e-06
7.77629e-07
1.00584e-06
1.55869e-06
8.16102e-07
2.33869e-06
6.7655e-07
3.10316e-06
5.55959e-07
3.82849e-06
4.55222e-07
4.50121e-06
3.71634e-07
5.1125e-06
3.00882e-07
5.65773e-06
2.41366e-07
6.13624e-06
1.92433e-07
6.55117e-06
1.53447e-07
6.9095e-06
1.23801e-07
7.22241e-06
1.03159e-07
7.50643e-06
9.17537e-08
7.78213e-06
9.01221e-08
8.03592e-06
8.56101e-08
8.24364e-06
6.91808e-08
8.39262e-06
4.339e-08
8.46312e-06
7.71147e-09
8.44462e-06
-3.06356e-08
8.33381e-06
-6.8669e-08
8.1265e-06
-1.09631e-07
7.81495e-06
-1.55164e-07
7.38871e-06
-2.0683e-07
6.8315e-06
-2.69909e-07
6.11458e-06
-3.5906e-07
5.188e-06
-5.08081e-07
3.9767e-06
-7.8413e-07
2.42012e-06
-1.30015e-06
7.46119e-07
-2.16719e-06
-2.59072e-06
1.70086e-06
3.166e-06
4.17184e-06
4.98794e-06
5.66449e-06
6.22045e-06
6.67567e-06
7.04731e-06
7.34819e-06
7.58956e-06
7.78199e-06
7.93544e-06
8.05924e-06
8.1624e-06
8.25415e-06
8.34427e-06
8.42988e-06
8.49906e-06
8.54245e-06
8.55016e-06
8.51953e-06
8.45086e-06
8.34123e-06
8.18606e-06
7.97923e-06
7.70932e-06
7.35026e-06
6.84218e-06
6.05805e-06
4.75791e-06
2.59072e-06
)
;

boundaryField
{
    movingWall
    {
        type            calculated;
        value           uniform 0;
    }
    fixedWalls
    {
        type            calculated;
        value           uniform 0;
    }
    floor
    {
        type            calculated;
        value           uniform 0;
    }
    frontAndBack
    {
        type            empty;
        value           nonuniform List<scalar> 0();
    }
}


// ************************************************************************* //
