/*--------------------------------*- C++ -*----------------------------------*\
| =========                 |                                                 |
| \\      /  F ield         | OpenFOAM: The Open Source CFD Toolbox           |
|  \\    /   O peration     | Version:  2212                                  |
|   \\  /    A nd           | Website:  www.openfoam.com                      |
|    \\/     M anipulation  |                                                 |
\*---------------------------------------------------------------------------*/
FoamFile
{
    version     2.0;
    format      ascii;
    arch        "LSB;label=64;scalar=64";
    class       volScalarField;
    location    "510";
    object      Xch;
}
// * * * * * * * * * * * * * * * * * * * * * * * * * * * * * * * * * * * * * //

dimensions      [1 -3 0 0 0 0 0];

internalField   nonuniform List<scalar> 
1024
(
0.020025
0.0200251
0.0200253
0.0200257
0.0200263
0.0200272
0.0200282
0.0200293
0.0200305
0.0200317
0.020033
0.0200342
0.0200353
0.020036
0.0200359
0.0200347
0.0200327
0.0200305
0.0200286
0.020027
0.0200257
0.0200245
0.0200232
0.0200219
0.0200205
0.0200191
0.0200178
0.0200168
0.020016
0.0200155
0.0200152
0.0200151
0.020025
0.0200251
0.0200253
0.0200258
0.0200264
0.0200272
0.0200283
0.0200294
0.0200306
0.0200318
0.020033
0.0200343
0.0200354
0.0200361
0.020036
0.0200348
0.0200327
0.0200305
0.0200286
0.020027
0.0200257
0.0200245
0.0200233
0.020022
0.0200206
0.0200192
0.0200179
0.0200168
0.020016
0.0200155
0.0200152
0.0200151
0.020025
0.0200251
0.0200254
0.0200258
0.0200265
0.0200273
0.0200284
0.0200295
0.0200307
0.0200319
0.0200332
0.0200344
0.0200356
0.0200364
0.0200363
0.020035
0.0200329
0.0200306
0.0200286
0.020027
0.0200257
0.0200245
0.0200233
0.0200221
0.0200208
0.0200194
0.0200181
0.020017
0.0200161
0.0200156
0.0200153
0.0200151
0.020025
0.0200251
0.0200254
0.0200259
0.0200266
0.0200275
0.0200285
0.0200296
0.0200308
0.020032
0.0200333
0.0200346
0.020036
0.0200369
0.0200368
0.0200354
0.020033
0.0200306
0.0200286
0.0200269
0.0200256
0.0200245
0.0200234
0.0200222
0.0200209
0.0200196
0.0200183
0.0200171
0.0200163
0.0200157
0.0200154
0.0200152
0.020025
0.0200252
0.0200254
0.0200259
0.0200266
0.0200275
0.0200285
0.0200296
0.0200308
0.020032
0.0200333
0.0200349
0.0200365
0.0200377
0.0200376
0.0200358
0.0200331
0.0200305
0.0200283
0.0200266
0.0200253
0.0200243
0.0200233
0.0200223
0.0200211
0.0200198
0.0200185
0.0200174
0.0200165
0.0200158
0.0200155
0.0200154
0.020025
0.0200251
0.0200254
0.0200259
0.0200266
0.0200274
0.0200284
0.0200294
0.0200305
0.0200318
0.0200332
0.0200351
0.0200372
0.0200388
0.0200386
0.0200365
0.0200332
0.0200301
0.0200278
0.020026
0.0200248
0.0200238
0.020023
0.0200221
0.0200211
0.0200199
0.0200187
0.0200176
0.0200166
0.020016
0.0200157
0.0200155
0.0200249
0.020025
0.0200253
0.0200258
0.0200264
0.0200272
0.0200281
0.020029
0.02003
0.0200313
0.0200329
0.0200352
0.0200379
0.0200401
0.02004
0.0200372
0.0200331
0.0200294
0.0200268
0.0200249
0.0200237
0.0200229
0.0200223
0.0200217
0.0200209
0.0200199
0.0200187
0.0200177
0.0200168
0.0200162
0.0200158
0.0200156
0.0200247
0.0200249
0.0200251
0.0200255
0.0200261
0.0200267
0.0200275
0.0200283
0.0200292
0.0200305
0.0200324
0.0200352
0.0200388
0.0200418
0.0200418
0.0200381
0.0200327
0.0200282
0.0200251
0.0200231
0.020022
0.0200214
0.0200211
0.0200208
0.0200203
0.0200195
0.0200186
0.0200177
0.0200168
0.0200162
0.0200159
0.0200157
0.0200244
0.0200245
0.0200247
0.0200251
0.0200255
0.020026
0.0200266
0.0200272
0.020028
0.0200293
0.0200315
0.0200351
0.0200398
0.0200438
0.0200438
0.0200389
0.0200319
0.0200263
0.0200226
0.0200205
0.0200195
0.0200193
0.0200193
0.0200194
0.0200193
0.0200189
0.0200182
0.0200174
0.0200167
0.0200162
0.0200159
0.0200158
0.0200239
0.020024
0.0200242
0.0200244
0.0200248
0.0200251
0.0200254
0.0200259
0.0200266
0.0200279
0.0200305
0.0200351
0.0200413
0.0200463
0.0200461
0.0200396
0.0200305
0.0200234
0.020019
0.0200168
0.0200161
0.0200163
0.0200169
0.0200175
0.0200179
0.0200179
0.0200175
0.020017
0.0200165
0.0200161
0.0200158
0.0200157
0.020023
0.0200231
0.0200233
0.0200235
0.0200238
0.0200239
0.0200241
0.0200244
0.020025
0.0200265
0.0200299
0.0200359
0.0200437
0.0200496
0.0200487
0.0200398
0.0200281
0.0200193
0.0200143
0.0200121
0.0200117
0.0200125
0.0200137
0.020015
0.020016
0.0200165
0.0200165
0.0200163
0.020016
0.0200157
0.0200155
0.0200154
0.0200218
0.0200219
0.020022
0.0200222
0.0200224
0.0200225
0.0200226
0.0200229
0.0200237
0.020026
0.0200307
0.0200386
0.0200481
0.0200541
0.0200512
0.020039
0.0200243
0.0200137
0.0200082
0.0200061
0.0200064
0.0200079
0.02001
0.0200121
0.0200137
0.0200148
0.0200153
0.0200154
0.0200153
0.0200151
0.020015
0.0200149
0.0200205
0.0200205
0.0200206
0.0200207
0.0200208
0.020021
0.0200214
0.0200222
0.0200242
0.0200282
0.0200353
0.0200454
0.0200557
0.0200599
0.020053
0.0200364
0.0200184
0.0200065
0.0200008
0.0199993
0.0200004
0.0200029
0.0200059
0.0200088
0.0200111
0.0200127
0.0200137
0.0200142
0.0200143
0.0200143
0.0200142
0.0200141
0.0200227
0.0200226
0.0200225
0.0200224
0.0200226
0.0200232
0.0200245
0.020027
0.0200313
0.0200381
0.0200478
0.020059
0.0200671
0.0200659
0.0200525
0.0200306
0.0200101
0.0199977
0.0199927
0.0199922
0.0199944
0.0199979
0.0200018
0.0200055
0.0200085
0.0200108
0.0200122
0.020013
0.0200133
0.0200133
0.0200132
0.0200131
0.0200375
0.0200376
0.0200377
0.0200382
0.0200391
0.0200408
0.0200436
0.0200481
0.0200545
0.0200627
0.0200719
0.0200791
0.0200795
0.0200687
0.0200472
0.0200213
0.0200003
0.0199892
0.0199857
0.0199866
0.0199899
0.0199941
0.0199985
0.0200026
0.0200058
0.0200082
0.0200098
0.0200108
0.0200112
0.0200113
0.0200113
0.0200113
0.0200706
0.0200711
0.0200721
0.0200737
0.0200758
0.0200787
0.0200825
0.020087
0.0200921
0.0200968
0.0200993
0.0200962
0.0200847
0.0200641
0.0200379
0.0200121
0.0199937
0.0199852
0.0199836
0.0199858
0.01999
0.0199948
0.0199995
0.0200036
0.0200067
0.0200089
0.0200101
0.0200105
0.0200105
0.0200103
0.0200101
0.02001
0.0201054
0.0201061
0.0201074
0.0201092
0.0201115
0.0201141
0.0201168
0.020119
0.0201199
0.0201184
0.0201125
0.0201009
0.0200834
0.0200615
0.0200379
0.0200158
0.0199998
0.0199923
0.0199905
0.0199917
0.0199941
0.0199968
0.0199992
0.0200009
0.020002
0.0200027
0.0200031
0.0200038
0.0200047
0.0200058
0.0200067
0.0200073
0.0201253
0.0201258
0.0201269
0.0201284
0.0201304
0.0201325
0.0201345
0.0201356
0.020135
0.0201316
0.0201247
0.020114
0.0200998
0.0200828
0.0200639
0.020045
0.0200293
0.0200197
0.0200144
0.0200113
0.0200094
0.0200085
0.0200086
0.02001
0.0200128
0.0200173
0.0200232
0.0200301
0.0200371
0.0200432
0.0200473
0.0200493
0.0201358
0.0201363
0.0201374
0.0201392
0.0201418
0.0201449
0.0201481
0.0201509
0.0201523
0.0201517
0.0201488
0.0201435
0.0201359
0.0201262
0.0201151
0.020104
0.0200957
0.0200933
0.0200958
0.0201017
0.02011
0.0201195
0.0201296
0.0201397
0.0201494
0.0201584
0.0201663
0.0201727
0.0201775
0.0201807
0.0201826
0.0201833
0.0201418
0.0201424
0.0201437
0.020146
0.0201494
0.020154
0.0201593
0.0201647
0.0201697
0.0201735
0.020176
0.0201772
0.0201772
0.0201763
0.0201753
0.0201763
0.0201824
0.0201959
0.0202154
0.0202389
0.0202639
0.0202881
0.0203098
0.0203276
0.0203409
0.0203492
0.0203525
0.0203515
0.0203474
0.0203422
0.020338
0.0203358
0.0201449
0.0201454
0.0201467
0.0201492
0.020153
0.0201583
0.020165
0.0201727
0.0201808
0.0201888
0.0201962
0.020203
0.0202093
0.0202153
0.0202224
0.0202328
0.0202496
0.0202739
0.0203028
0.0203333
0.0203623
0.0203877
0.0204082
0.0204238
0.0204346
0.0204409
0.0204431
0.0204418
0.0204378
0.0204326
0.020428
0.0204255
0.0201469
0.0201474
0.0201486
0.0201509
0.0201547
0.0201602
0.0201675
0.0201763
0.0201864
0.0201971
0.0202081
0.020219
0.0202297
0.0202403
0.0202518
0.0202666
0.0202875
0.0203144
0.0203435
0.0203715
0.0203956
0.0204149
0.0204298
0.0204411
0.0204499
0.0204565
0.020461
0.0204634
0.0204638
0.0204626
0.0204608
0.0204595
0.0201495
0.0201498
0.0201508
0.0201528
0.0201563
0.0201616
0.0201689
0.0201784
0.0201896
0.0202022
0.0202158
0.0202297
0.0202436
0.0202571
0.0202708
0.0202866
0.0203069
0.0203315
0.0203569
0.0203802
0.0203994
0.0204146
0.0204268
0.0204372
0.0204466
0.0204549
0.0204618
0.0204668
0.0204698
0.0204709
0.0204709
0.0204704
0.0201542
0.0201543
0.0201548
0.0201563
0.0201593
0.0201643
0.0201716
0.0201815
0.0201937
0.0202078
0.0202234
0.0202397
0.020256
0.0202715
0.0202864
0.0203019
0.0203198
0.0203404
0.0203613
0.0203803
0.0203963
0.0204095
0.0204209
0.0204316
0.0204421
0.0204521
0.020461
0.020468
0.0204726
0.0204751
0.0204758
0.0204758
0.0201632
0.0201628
0.0201627
0.0201634
0.0201658
0.0201705
0.020178
0.0201885
0.0202018
0.0202174
0.0202347
0.0202528
0.0202707
0.0202876
0.0203032
0.020318
0.0203334
0.0203499
0.0203665
0.0203821
0.0203957
0.0204077
0.0204185
0.0204292
0.0204399
0.0204506
0.0204606
0.0204689
0.0204749
0.0204784
0.0204797
0.0204799
0.0201782
0.0201772
0.0201763
0.0201762
0.0201782
0.020183
0.0201911
0.0202026
0.0202171
0.0202339
0.0202524
0.0202715
0.0202902
0.0203076
0.0203232
0.0203373
0.0203505
0.0203635
0.0203766
0.0203891
0.0204006
0.0204111
0.020421
0.0204309
0.020441
0.0204513
0.0204613
0.0204702
0.020477
0.0204813
0.0204832
0.0204836
0.0202007
0.0201991
0.0201974
0.020197
0.0201992
0.0202047
0.0202139
0.0202265
0.0202419
0.0202594
0.020278
0.0202969
0.0203152
0.0203321
0.020347
0.02036
0.0203712
0.0203816
0.0203916
0.0204014
0.0204107
0.0204195
0.020428
0.0204366
0.0204454
0.0204546
0.0204637
0.0204723
0.0204793
0.020484
0.0204864
0.0204869
0.0202317
0.0202296
0.0202278
0.0202281
0.0202314
0.0202382
0.0202486
0.0202618
0.0202771
0.0202939
0.0203114
0.0203288
0.0203454
0.0203606
0.020374
0.0203853
0.0203947
0.0204027
0.0204103
0.0204177
0.0204249
0.0204318
0.0204386
0.0204455
0.0204526
0.0204601
0.0204678
0.0204753
0.0204819
0.0204867
0.0204892
0.0204899
0.0202717
0.0202697
0.0202691
0.0202712
0.0202764
0.0202844
0.020295
0.0203076
0.0203214
0.0203361
0.020351
0.0203655
0.0203793
0.0203919
0.0204028
0.0204121
0.0204195
0.0204255
0.0204309
0.0204362
0.0204414
0.0204465
0.0204515
0.0204566
0.0204619
0.0204675
0.0204734
0.0204794
0.0204849
0.0204893
0.0204918
0.0204927
0.0203218
0.0203208
0.0203228
0.0203272
0.0203335
0.0203414
0.0203507
0.020361
0.0203719
0.020383
0.0203941
0.0204049
0.020415
0.0204242
0.0204322
0.0204389
0.0204442
0.0204483
0.0204519
0.0204554
0.0204589
0.0204622
0.0204656
0.020469
0.0204725
0.0204762
0.0204802
0.0204844
0.0204885
0.020492
0.0204942
0.020495
0.0203835
0.0203848
0.0203889
0.0203937
0.020399
0.0204048
0.0204111
0.0204177
0.0204244
0.0204313
0.020438
0.0204445
0.0204505
0.020456
0.0204607
0.0204647
0.0204678
0.0204702
0.0204722
0.0204742
0.0204761
0.0204779
0.0204798
0.0204817
0.0204836
0.0204857
0.0204879
0.0204903
0.0204927
0.0204949
0.0204965
0.0204971
0.0204591
0.0204602
0.0204623
0.0204644
0.0204665
0.0204686
0.0204708
0.0204731
0.0204753
0.0204776
0.0204798
0.0204819
0.0204839
0.0204857
0.0204873
0.0204886
0.0204896
0.0204903
0.020491
0.0204916
0.0204922
0.0204928
0.0204934
0.020494
0.0204946
0.0204952
0.0204959
0.0204966
0.0204974
0.0204982
0.0204987
0.020499
)
;

boundaryField
{
    movingWall
    {
        type            fixedValue;
        value           uniform 0.0205;
    }
    fixedWalls
    {
        type            zeroGradient;
    }
    floor
    {
        type            zeroGradient;
    }
    frontAndBack
    {
        type            empty;
    }
}


// ************************************************************************* //
