/*--------------------------------*- C++ -*----------------------------------*\
| =========                 |                                                 |
| \\      /  F ield         | OpenFOAM: The Open Source CFD Toolbox           |
|  \\    /   O peration     | Version:  2212                                  |
|   \\  /    A nd           | Website:  www.openfoam.com                      |
|    \\/     M anipulation  |                                                 |
\*---------------------------------------------------------------------------*/
FoamFile
{
    version     2.0;
    format      ascii;
    arch        "LSB;label=64;scalar=64";
    class       volScalarField;
    location    "510";
    object      Xpr;
}
// * * * * * * * * * * * * * * * * * * * * * * * * * * * * * * * * * * * * * //

dimensions      [1 -3 0 0 0 0 0];

internalField   nonuniform List<scalar> 
1024
(
0.0821669
0.0821673
0.0821683
0.0821701
0.0821728
0.0821763
0.0821807
0.0821855
0.0821906
0.0821958
0.0822011
0.0822063
0.0822111
0.0822142
0.0822137
0.0822086
0.0821999
0.0821906
0.0821824
0.0821756
0.0821698
0.0821647
0.0821595
0.0821539
0.0821479
0.0821418
0.0821363
0.0821318
0.0821284
0.0821262
0.082125
0.0821245
0.0821669
0.0821674
0.0821684
0.0821702
0.082173
0.0821766
0.082181
0.0821858
0.0821909
0.0821961
0.0822014
0.0822067
0.0822115
0.0822147
0.0822142
0.082209
0.0822001
0.0821907
0.0821825
0.0821756
0.0821699
0.0821648
0.0821597
0.0821542
0.0821482
0.0821422
0.0821367
0.0821321
0.0821286
0.0821264
0.0821251
0.0821246
0.082167
0.0821675
0.0821686
0.0821705
0.0821733
0.0821771
0.0821815
0.0821864
0.0821914
0.0821966
0.0822019
0.0822074
0.0822125
0.0822159
0.0822154
0.0822099
0.0822006
0.082191
0.0821826
0.0821756
0.0821699
0.0821649
0.08216
0.0821547
0.0821489
0.0821429
0.0821373
0.0821326
0.082129
0.0821267
0.0821253
0.0821248
0.0821671
0.0821676
0.0821688
0.0821708
0.0821737
0.0821775
0.082182
0.0821868
0.0821918
0.0821969
0.0822024
0.0822083
0.082214
0.0822181
0.0822175
0.0822113
0.0822012
0.082191
0.0821823
0.0821752
0.0821696
0.0821647
0.0821601
0.0821551
0.0821496
0.0821438
0.0821382
0.0821334
0.0821297
0.0821272
0.0821258
0.0821252
0.0821672
0.0821677
0.0821689
0.082171
0.082174
0.0821778
0.0821821
0.0821868
0.0821916
0.0821968
0.0822026
0.0822093
0.0822162
0.0822214
0.0822208
0.0822134
0.0822018
0.0821905
0.0821813
0.082174
0.0821685
0.0821639
0.0821597
0.0821553
0.0821502
0.0821447
0.0821392
0.0821343
0.0821305
0.0821278
0.0821263
0.0821257
0.0821671
0.0821676
0.0821688
0.0821709
0.0821738
0.0821775
0.0821816
0.082186
0.0821907
0.0821959
0.0822023
0.0822101
0.082219
0.0822259
0.0822254
0.082216
0.082202
0.082189
0.0821789
0.0821714
0.082166
0.0821619
0.0821583
0.0821546
0.0821503
0.0821452
0.08214
0.0821351
0.0821312
0.0821286
0.082127
0.0821264
0.0821667
0.0821672
0.0821684
0.0821703
0.082173
0.0821764
0.0821801
0.0821841
0.0821886
0.0821939
0.082201
0.0822106
0.0822223
0.0822317
0.0822314
0.0822193
0.0822016
0.082186
0.0821746
0.0821667
0.0821615
0.0821581
0.0821554
0.0821527
0.0821493
0.082145
0.0821403
0.0821357
0.0821319
0.0821292
0.0821276
0.082127
0.0821659
0.0821664
0.0821675
0.0821692
0.0821715
0.0821744
0.0821775
0.0821809
0.082185
0.0821904
0.0821985
0.0822106
0.082226
0.0822389
0.0822388
0.0822229
0.0822
0.0821807
0.0821674
0.0821591
0.0821543
0.0821518
0.0821504
0.082149
0.0821468
0.0821436
0.0821397
0.0821356
0.0821321
0.0821295
0.082128
0.0821274
0.0821645
0.082165
0.0821659
0.0821673
0.0821692
0.0821713
0.0821737
0.0821764
0.08218
0.0821855
0.0821948
0.0822101
0.0822305
0.0822475
0.0822475
0.0822265
0.0821967
0.0821724
0.0821567
0.0821478
0.0821436
0.0821424
0.0821427
0.0821431
0.0821426
0.0821408
0.082138
0.0821347
0.0821317
0.0821294
0.0821281
0.0821275
0.0821622
0.0821627
0.0821635
0.0821646
0.0821659
0.0821674
0.0821689
0.0821707
0.0821737
0.0821794
0.0821906
0.0822102
0.0822367
0.0822583
0.0822575
0.0822294
0.0821906
0.0821601
0.0821415
0.0821321
0.082129
0.0821297
0.0821322
0.0821349
0.0821365
0.0821365
0.082135
0.0821328
0.0821305
0.0821287
0.0821276
0.0821271
0.0821586
0.082159
0.0821598
0.0821607
0.0821617
0.0821625
0.0821632
0.0821643
0.0821669
0.0821735
0.0821879
0.0822136
0.0822472
0.0822725
0.0822683
0.0822304
0.0821804
0.0821426
0.0821211
0.0821116
0.0821102
0.0821134
0.0821188
0.0821243
0.0821284
0.0821305
0.0821308
0.0821299
0.0821285
0.0821272
0.0821263
0.0821259
0.0821532
0.0821536
0.0821543
0.0821551
0.0821559
0.0821564
0.0821569
0.082158
0.0821616
0.0821712
0.0821915
0.0822254
0.082266
0.0822916
0.0822791
0.0822271
0.082164
0.0821188
0.0820949
0.0820863
0.0820874
0.082094
0.0821029
0.0821116
0.0821186
0.0821232
0.0821254
0.082126
0.0821256
0.0821249
0.0821242
0.0821238
0.0821477
0.0821478
0.0821481
0.0821485
0.0821491
0.08215
0.0821516
0.0821552
0.0821635
0.0821806
0.0822109
0.0822544
0.0822983
0.0823163
0.0822869
0.0822158
0.0821389
0.0820877
0.0820633
0.082057
0.0820618
0.0820724
0.0820852
0.0820975
0.0821075
0.0821146
0.0821188
0.0821207
0.0821213
0.0821211
0.0821207
0.0821204
0.082157
0.0821567
0.0821563
0.082156
0.0821567
0.0821592
0.0821647
0.0821754
0.0821938
0.0822232
0.0822647
0.0823123
0.0823471
0.0823422
0.0822846
0.0821912
0.0821033
0.0820503
0.0820287
0.0820268
0.0820361
0.082051
0.0820676
0.0820834
0.0820965
0.0821061
0.0821122
0.0821155
0.0821168
0.0821169
0.0821165
0.0821162
0.0822205
0.0822208
0.0822216
0.0822234
0.0822273
0.0822345
0.0822468
0.0822659
0.0822932
0.0823286
0.0823678
0.0823986
0.0824002
0.082354
0.0822621
0.0821511
0.0820612
0.0820138
0.0819989
0.0820028
0.0820166
0.0820348
0.0820538
0.0820709
0.082085
0.0820953
0.0821021
0.0821061
0.082108
0.0821085
0.0821084
0.0821082
0.0823622
0.0823643
0.0823686
0.0823753
0.0823846
0.082397
0.0824129
0.0824324
0.0824542
0.0824745
0.0824848
0.0824719
0.0824225
0.0823345
0.0822223
0.0821117
0.0820329
0.0819966
0.0819898
0.0819994
0.0820171
0.0820377
0.0820578
0.0820753
0.0820888
0.082098
0.0821031
0.0821051
0.082105
0.0821042
0.0821033
0.0821027
0.0825113
0.082514
0.0825195
0.0825275
0.0825374
0.0825485
0.0825597
0.0825692
0.0825733
0.0825666
0.0825416
0.0824919
0.0824168
0.0823231
0.0822222
0.0821277
0.0820593
0.0820269
0.0820194
0.0820246
0.082035
0.0820464
0.0820564
0.0820639
0.0820687
0.0820714
0.0820735
0.0820762
0.0820801
0.0820847
0.0820888
0.082091
0.0825962
0.0825985
0.082603
0.0826097
0.082618
0.0826272
0.0826355
0.0826403
0.0826377
0.0826232
0.0825938
0.082548
0.0824873
0.0824142
0.0823335
0.0822524
0.0821854
0.0821442
0.0821215
0.0821082
0.0821003
0.0820965
0.082097
0.0821027
0.0821148
0.0821339
0.0821595
0.082189
0.082219
0.0822447
0.0822625
0.082271
0.0826413
0.0826434
0.0826482
0.082656
0.0826668
0.0826801
0.082694
0.0827057
0.0827119
0.0827095
0.082697
0.0826743
0.0826417
0.0826002
0.0825527
0.0825049
0.0824696
0.0824593
0.0824701
0.0824955
0.0825307
0.0825715
0.0826147
0.082658
0.0826995
0.0827379
0.0827716
0.0827991
0.0828196
0.0828334
0.0828413
0.0828447
0.082667
0.0826693
0.0826749
0.0826848
0.0826996
0.0827191
0.0827418
0.0827651
0.0827862
0.0828026
0.0828135
0.0828186
0.0828184
0.0828145
0.0828105
0.0828147
0.0828407
0.0828983
0.082982
0.0830825
0.0831894
0.0832931
0.0833858
0.083462
0.083519
0.0835545
0.0835688
0.0835643
0.0835467
0.0835246
0.0835064
0.0834974
0.0826801
0.0826824
0.0826881
0.0826985
0.0827148
0.0827376
0.0827664
0.0827993
0.0828339
0.0828679
0.0828998
0.082929
0.0829557
0.0829817
0.0830117
0.0830563
0.0831285
0.0832322
0.0833561
0.0834866
0.0836108
0.0837193
0.0838072
0.0838738
0.0839201
0.0839472
0.0839567
0.0839509
0.0839338
0.0839116
0.0838919
0.0838812
0.0826888
0.0826909
0.0826961
0.0827061
0.0827222
0.0827457
0.0827769
0.0828148
0.0828577
0.0829036
0.0829507
0.0829975
0.0830432
0.0830886
0.0831378
0.0832012
0.0832906
0.0834055
0.0835302
0.0836498
0.0837533
0.083836
0.0838994
0.0839479
0.0839854
0.0840136
0.0840331
0.0840434
0.0840451
0.08404
0.0840321
0.0840265
0.0826997
0.0827011
0.0827053
0.0827139
0.0827288
0.0827516
0.0827831
0.0828235
0.0828715
0.0829256
0.0829835
0.0830432
0.0831024
0.0831602
0.0832188
0.0832866
0.0833736
0.0834789
0.0835877
0.0836871
0.0837693
0.0838343
0.0838866
0.0839313
0.0839715
0.0840072
0.0840367
0.0840581
0.0840707
0.0840756
0.0840753
0.0840734
0.08272
0.0827204
0.0827227
0.082729
0.0827418
0.0827631
0.0827946
0.0828367
0.0828889
0.0829495
0.0830163
0.083086
0.0831555
0.0832221
0.0832857
0.0833521
0.0834289
0.0835169
0.0836063
0.0836877
0.0837561
0.0838126
0.0838616
0.0839074
0.0839522
0.0839951
0.0840331
0.084063
0.0840829
0.0840933
0.0840965
0.0840963
0.0827583
0.0827569
0.0827562
0.0827594
0.0827696
0.0827899
0.082822
0.0828668
0.0829236
0.0829905
0.0830645
0.083142
0.0832187
0.0832911
0.0833576
0.0834212
0.0834869
0.0835576
0.0836288
0.0836954
0.0837538
0.0838048
0.0838514
0.0838968
0.0839427
0.0839884
0.0840312
0.0840669
0.0840926
0.0841074
0.0841132
0.0841139
0.0828225
0.0828186
0.0828144
0.0828143
0.0828228
0.0828434
0.0828781
0.0829271
0.0829891
0.0830613
0.0831402
0.0832219
0.083302
0.0833766
0.0834434
0.0835036
0.08356
0.083616
0.0836717
0.0837253
0.0837746
0.0838196
0.083862
0.0839042
0.0839475
0.0839916
0.0840345
0.0840725
0.0841017
0.08412
0.0841281
0.0841296
0.0829189
0.0829123
0.082905
0.0829033
0.0829127
0.0829363
0.0829757
0.0830296
0.0830954
0.0831701
0.0832498
0.0833307
0.0834091
0.0834814
0.0835452
0.0836008
0.0836489
0.0836931
0.083736
0.083778
0.083818
0.0838557
0.083892
0.0839286
0.0839663
0.0840055
0.0840448
0.0840814
0.0841114
0.0841317
0.0841416
0.084144
0.0830515
0.0830427
0.0830351
0.0830362
0.0830504
0.0830797
0.0831238
0.0831803
0.0832461
0.083318
0.0833927
0.0834671
0.0835382
0.0836034
0.0836605
0.0837092
0.0837494
0.0837838
0.0838159
0.0838476
0.0838784
0.0839081
0.0839372
0.0839666
0.0839971
0.0840291
0.0840622
0.0840944
0.0841225
0.0841429
0.0841539
0.084157
0.0832231
0.0832143
0.0832118
0.083221
0.0832429
0.0832773
0.0833226
0.0833763
0.0834358
0.0834985
0.0835621
0.0836244
0.0836834
0.0837372
0.0837841
0.0838238
0.0838554
0.0838811
0.0839042
0.0839269
0.0839492
0.0839709
0.0839924
0.0840142
0.0840368
0.0840608
0.0840861
0.0841117
0.0841355
0.084154
0.084165
0.0841686
0.0834372
0.083433
0.0834415
0.0834605
0.0834875
0.0835214
0.0835611
0.083605
0.0836516
0.0836993
0.0837469
0.083793
0.0838363
0.0838756
0.0839099
0.0839387
0.0839613
0.0839789
0.0839943
0.0840092
0.0840239
0.0840384
0.0840527
0.0840672
0.0840822
0.0840982
0.0841153
0.0841332
0.0841508
0.0841656
0.0841752
0.0841788
0.0837012
0.0837068
0.0837243
0.083745
0.0837678
0.0837927
0.0838195
0.0838476
0.0838766
0.0839059
0.0839346
0.0839623
0.0839881
0.0840116
0.084032
0.0840491
0.0840623
0.0840725
0.0840811
0.0840894
0.0840975
0.0841056
0.0841135
0.0841216
0.0841299
0.0841387
0.0841482
0.0841583
0.0841688
0.0841782
0.0841849
0.0841878
0.0840248
0.0840296
0.0840387
0.0840477
0.0840566
0.0840657
0.0840751
0.0840847
0.0840944
0.0841041
0.0841136
0.0841227
0.0841312
0.0841389
0.0841455
0.0841511
0.0841554
0.0841587
0.0841614
0.084164
0.0841666
0.0841691
0.0841717
0.0841742
0.0841768
0.0841795
0.0841825
0.0841856
0.084189
0.0841921
0.0841946
0.0841958
)
;

boundaryField
{
    movingWall
    {
        type            fixedValue;
        value           uniform 0.0842;
    }
    fixedWalls
    {
        type            zeroGradient;
    }
    floor
    {
        type            zeroGradient;
    }
    frontAndBack
    {
        type            empty;
    }
}


// ************************************************************************* //
