/*--------------------------------*- C++ -*----------------------------------*\
| =========                 |                                                 |
| \\      /  F ield         | OpenFOAM: The Open Source CFD Toolbox           |
|  \\    /   O peration     | Version:  2212                                  |
|   \\  /    A nd           | Website:  www.openfoam.com                      |
|    \\/     M anipulation  |                                                 |
\*---------------------------------------------------------------------------*/
FoamFile
{
    version     2.0;
    format      ascii;
    arch        "LSB;label=64;scalar=64";
    class       volScalarField;
    location    "1760";
    object      Gh2;
}
// * * * * * * * * * * * * * * * * * * * * * * * * * * * * * * * * * * * * * //

dimensions      [1 -3 0 0 0 0 0];

internalField   nonuniform List<scalar> 
1024
(
1.25013e-05
1.25001e-05
1.24972e-05
1.24919e-05
1.24833e-05
1.24704e-05
1.24524e-05
1.24283e-05
1.2398e-05
1.23617e-05
1.23208e-05
1.22774e-05
1.22342e-05
1.21939e-05
1.21586e-05
1.21306e-05
1.2114e-05
1.21112e-05
1.21203e-05
1.21385e-05
1.21636e-05
1.21933e-05
1.22251e-05
1.22565e-05
1.22848e-05
1.23085e-05
1.23269e-05
1.23403e-05
1.23495e-05
1.23551e-05
1.23582e-05
1.23595e-05
1.25009e-05
1.24997e-05
1.24968e-05
1.24914e-05
1.24827e-05
1.24698e-05
1.24515e-05
1.24273e-05
1.23967e-05
1.23602e-05
1.23192e-05
1.22758e-05
1.22326e-05
1.21922e-05
1.2157e-05
1.2129e-05
1.21124e-05
1.21096e-05
1.21186e-05
1.21368e-05
1.21619e-05
1.21916e-05
1.22236e-05
1.22551e-05
1.22836e-05
1.23075e-05
1.23262e-05
1.23398e-05
1.2349e-05
1.23547e-05
1.23579e-05
1.23591e-05
1.25e-05
1.24988e-05
1.24958e-05
1.24903e-05
1.24814e-05
1.24682e-05
1.24496e-05
1.24249e-05
1.23939e-05
1.2357e-05
1.23157e-05
1.22721e-05
1.22288e-05
1.21885e-05
1.21533e-05
1.21252e-05
1.21084e-05
1.21054e-05
1.21144e-05
1.21328e-05
1.21581e-05
1.21882e-05
1.22204e-05
1.22522e-05
1.22812e-05
1.23056e-05
1.23246e-05
1.23385e-05
1.2348e-05
1.23538e-05
1.2357e-05
1.23583e-05
1.24984e-05
1.24971e-05
1.2494e-05
1.24884e-05
1.24792e-05
1.24655e-05
1.24463e-05
1.24209e-05
1.23891e-05
1.23515e-05
1.23097e-05
1.22658e-05
1.22225e-05
1.21822e-05
1.21469e-05
1.21186e-05
1.21013e-05
1.20978e-05
1.21068e-05
1.21257e-05
1.21519e-05
1.21827e-05
1.22156e-05
1.22481e-05
1.22777e-05
1.23026e-05
1.23222e-05
1.23365e-05
1.23462e-05
1.23522e-05
1.23555e-05
1.23568e-05
1.24958e-05
1.24945e-05
1.24913e-05
1.24854e-05
1.24758e-05
1.24614e-05
1.24414e-05
1.24149e-05
1.2382e-05
1.23434e-05
1.23008e-05
1.22565e-05
1.2213e-05
1.21725e-05
1.2137e-05
1.21081e-05
1.20898e-05
1.20856e-05
1.20947e-05
1.21147e-05
1.21425e-05
1.2175e-05
1.22092e-05
1.22427e-05
1.22732e-05
1.22988e-05
1.2319e-05
1.23337e-05
1.23436e-05
1.23497e-05
1.2353e-05
1.23544e-05
1.24921e-05
1.24907e-05
1.24873e-05
1.24811e-05
1.2471e-05
1.24558e-05
1.24346e-05
1.24068e-05
1.23724e-05
1.23325e-05
1.22888e-05
1.22438e-05
1.21998e-05
1.2159e-05
1.21228e-05
1.20927e-05
1.20728e-05
1.20675e-05
1.20768e-05
1.20987e-05
1.21293e-05
1.21646e-05
1.22011e-05
1.22362e-05
1.22678e-05
1.22943e-05
1.23149e-05
1.23299e-05
1.23399e-05
1.23461e-05
1.23494e-05
1.23507e-05
1.2487e-05
1.24856e-05
1.2482e-05
1.24754e-05
1.24646e-05
1.24484e-05
1.24258e-05
1.23963e-05
1.23601e-05
1.23184e-05
1.22733e-05
1.22272e-05
1.21825e-05
1.21409e-05
1.21035e-05
1.20714e-05
1.2049e-05
1.2042e-05
1.20517e-05
1.20762e-05
1.21109e-05
1.21505e-05
1.21906e-05
1.22282e-05
1.22613e-05
1.22887e-05
1.23097e-05
1.23247e-05
1.23347e-05
1.23407e-05
1.23438e-05
1.2345e-05
1.24803e-05
1.24788e-05
1.24751e-05
1.2468e-05
1.24565e-05
1.24391e-05
1.24149e-05
1.23834e-05
1.2345e-05
1.23012e-05
1.22542e-05
1.22066e-05
1.21607e-05
1.21176e-05
1.20782e-05
1.20432e-05
1.20175e-05
1.20082e-05
1.20181e-05
1.20455e-05
1.20853e-05
1.21307e-05
1.21759e-05
1.22173e-05
1.22525e-05
1.22809e-05
1.23021e-05
1.2317e-05
1.23266e-05
1.23322e-05
1.2335e-05
1.23361e-05
1.2472e-05
1.24705e-05
1.24665e-05
1.2459e-05
1.24467e-05
1.2428e-05
1.24021e-05
1.23683e-05
1.23273e-05
1.22809e-05
1.22315e-05
1.21819e-05
1.2134e-05
1.20889e-05
1.20467e-05
1.20079e-05
1.19779e-05
1.19655e-05
1.19747e-05
1.20042e-05
1.20489e-05
1.21009e-05
1.21528e-05
1.21993e-05
1.22378e-05
1.22676e-05
1.22893e-05
1.23038e-05
1.23128e-05
1.23178e-05
1.23201e-05
1.23208e-05
1.2462e-05
1.24604e-05
1.24563e-05
1.24483e-05
1.24351e-05
1.24152e-05
1.23873e-05
1.2351e-05
1.23072e-05
1.22577e-05
1.22054e-05
1.21532e-05
1.21028e-05
1.20551e-05
1.20096e-05
1.19665e-05
1.19315e-05
1.19144e-05
1.19204e-05
1.19492e-05
1.19962e-05
1.20536e-05
1.21125e-05
1.21658e-05
1.22091e-05
1.22417e-05
1.22643e-05
1.22788e-05
1.22872e-05
1.22915e-05
1.22932e-05
1.22936e-05
1.24503e-05
1.24487e-05
1.24443e-05
1.2436e-05
1.2422e-05
1.24008e-05
1.23709e-05
1.23321e-05
1.22851e-05
1.22323e-05
1.21768e-05
1.21215e-05
1.20684e-05
1.20179e-05
1.19691e-05
1.19219e-05
1.18813e-05
1.18573e-05
1.18558e-05
1.18778e-05
1.1921e-05
1.19786e-05
1.20417e-05
1.21014e-05
1.21513e-05
1.21887e-05
1.22142e-05
1.22299e-05
1.22385e-05
1.22425e-05
1.22438e-05
1.2244e-05
1.2437e-05
1.24354e-05
1.24309e-05
1.24222e-05
1.24076e-05
1.23851e-05
1.23535e-05
1.23121e-05
1.22621e-05
1.2206e-05
1.21472e-05
1.20891e-05
1.20337e-05
1.19811e-05
1.19303e-05
1.18802e-05
1.18343e-05
1.18007e-05
1.17858e-05
1.17927e-05
1.18218e-05
1.18692e-05
1.19278e-05
1.19886e-05
1.20437e-05
1.20877e-05
1.21189e-05
1.21387e-05
1.21497e-05
1.21549e-05
1.21567e-05
1.2157e-05
1.24226e-05
1.24209e-05
1.24163e-05
1.24074e-05
1.23923e-05
1.23689e-05
1.23359e-05
1.22925e-05
1.224e-05
1.21811e-05
1.21198e-05
1.20599e-05
1.20036e-05
1.19511e-05
1.19012e-05
1.18513e-05
1.1802e-05
1.1758e-05
1.17254e-05
1.17092e-05
1.1713e-05
1.17366e-05
1.17765e-05
1.18261e-05
1.18778e-05
1.19247e-05
1.19621e-05
1.19884e-05
1.20048e-05
1.20135e-05
1.20174e-05
1.20185e-05
1.24075e-05
1.24058e-05
1.24013e-05
1.23923e-05
1.2377e-05
1.23534e-05
1.23197e-05
1.22755e-05
1.22217e-05
1.21615e-05
1.20993e-05
1.20395e-05
1.1985e-05
1.19364e-05
1.1892e-05
1.18479e-05
1.18005e-05
1.17492e-05
1.16993e-05
1.16576e-05
1.16302e-05
1.16206e-05
1.16289e-05
1.16523e-05
1.16859e-05
1.17235e-05
1.17591e-05
1.17883e-05
1.18092e-05
1.18221e-05
1.18288e-05
1.18312e-05
1.2393e-05
1.23913e-05
1.23869e-05
1.23782e-05
1.23634e-05
1.23404e-05
1.23074e-05
1.2264e-05
1.22111e-05
1.21519e-05
1.20913e-05
1.20345e-05
1.19852e-05
1.19448e-05
1.19118e-05
1.18808e-05
1.18434e-05
1.17921e-05
1.17307e-05
1.16676e-05
1.16115e-05
1.15687e-05
1.1542e-05
1.15318e-05
1.1536e-05
1.15508e-05
1.15713e-05
1.15925e-05
1.16106e-05
1.16235e-05
1.1631e-05
1.16341e-05
1.23809e-05
1.23793e-05
1.23751e-05
1.2367e-05
1.23533e-05
1.23321e-05
1.23018e-05
1.22615e-05
1.22122e-05
1.21571e-05
1.2101e-05
1.20498e-05
1.20085e-05
1.19796e-05
1.19622e-05
1.19504e-05
1.19308e-05
1.18881e-05
1.18228e-05
1.17445e-05
1.16648e-05
1.15932e-05
1.15356e-05
1.14942e-05
1.1469e-05
1.14578e-05
1.1457e-05
1.14627e-05
1.14708e-05
1.14783e-05
1.14835e-05
1.14859e-05
1.23741e-05
1.23726e-05
1.23688e-05
1.23615e-05
1.23495e-05
1.2331e-05
1.23045e-05
1.22693e-05
1.2226e-05
1.21772e-05
1.21277e-05
1.20833e-05
1.205e-05
1.20316e-05
1.20284e-05
1.2035e-05
1.20357e-05
1.20082e-05
1.19476e-05
1.18618e-05
1.17635e-05
1.16662e-05
1.158e-05
1.15108e-05
1.14604e-05
1.14277e-05
1.14094e-05
1.14017e-05
1.14006e-05
1.14024e-05
1.14046e-05
1.14059e-05
1.23737e-05
1.23723e-05
1.23687e-05
1.23623e-05
1.23518e-05
1.23359e-05
1.23134e-05
1.22836e-05
1.22466e-05
1.22048e-05
1.21619e-05
1.21237e-05
1.2096e-05
1.20835e-05
1.20875e-05
1.2104e-05
1.21175e-05
1.21038e-05
1.2054e-05
1.1971e-05
1.18647e-05
1.1749e-05
1.16382e-05
1.15429e-05
1.14685e-05
1.1416e-05
1.13828e-05
1.13647e-05
1.13569e-05
1.1355e-05
1.13555e-05
1.13563e-05
1.2378e-05
1.23766e-05
1.23733e-05
1.23674e-05
1.23581e-05
1.23444e-05
1.23253e-05
1.23001e-05
1.22689e-05
1.22333e-05
1.21967e-05
1.21636e-05
1.21396e-05
1.21293e-05
1.21346e-05
1.21526e-05
1.21688e-05
1.21608e-05
1.21191e-05
1.20432e-05
1.19387e-05
1.18167e-05
1.16916e-05
1.1577e-05
1.14821e-05
1.14112e-05
1.13634e-05
1.1335e-05
1.13209e-05
1.13158e-05
1.1315e-05
1.13154e-05
1.2385e-05
1.23837e-05
1.23806e-05
1.23753e-05
1.2367e-05
1.2355e-05
1.23386e-05
1.23172e-05
1.22909e-05
1.22609e-05
1.22298e-05
1.22013e-05
1.21801e-05
1.21699e-05
1.21728e-05
1.21861e-05
1.21971e-05
1.21871e-05
1.21478e-05
1.20775e-05
1.19788e-05
1.1859e-05
1.17298e-05
1.16047e-05
1.14956e-05
1.14096e-05
1.13485e-05
1.13101e-05
1.12895e-05
1.12808e-05
1.12786e-05
1.12787e-05
1.23921e-05
1.2391e-05
1.23883e-05
1.23837e-05
1.23765e-05
1.23661e-05
1.2352e-05
1.23338e-05
1.23117e-05
1.22865e-05
1.22603e-05
1.22358e-05
1.22164e-05
1.22049e-05
1.22025e-05
1.22064e-05
1.22062e-05
1.21884e-05
1.21471e-05
1.20799e-05
1.19875e-05
1.18743e-05
1.17486e-05
1.16216e-05
1.15052e-05
1.14087e-05
1.13367e-05
1.1289e-05
1.12618e-05
1.12493e-05
1.12455e-05
1.12453e-05
1.23952e-05
1.23946e-05
1.23928e-05
1.23895e-05
1.2384e-05
1.23756e-05
1.2364e-05
1.23487e-05
1.23302e-05
1.2309e-05
1.22866e-05
1.22647e-05
1.22454e-05
1.22303e-05
1.22195e-05
1.22102e-05
1.2195e-05
1.21663e-05
1.21207e-05
1.20556e-05
1.19698e-05
1.18652e-05
1.17476e-05
1.16254e-05
1.15086e-05
1.14068e-05
1.13269e-05
1.12711e-05
1.12375e-05
1.12211e-05
1.12155e-05
1.12149e-05
1.23887e-05
1.23889e-05
1.23888e-05
1.23878e-05
1.23851e-05
1.23799e-05
1.23713e-05
1.23592e-05
1.23436e-05
1.23251e-05
1.23045e-05
1.22825e-05
1.22602e-05
1.22381e-05
1.22158e-05
1.21909e-05
1.21595e-05
1.21198e-05
1.20702e-05
1.20074e-05
1.19292e-05
1.18351e-05
1.17284e-05
1.16153e-05
1.15037e-05
1.14019e-05
1.13177e-05
1.12557e-05
1.12163e-05
1.11958e-05
1.11883e-05
1.11872e-05
1.23663e-05
1.23677e-05
1.23701e-05
1.23726e-05
1.2374e-05
1.23728e-05
1.2368e-05
1.23588e-05
1.23452e-05
1.23271e-05
1.23051e-05
1.22793e-05
1.22502e-05
1.2218e-05
1.21827e-05
1.21423e-05
1.20969e-05
1.20485e-05
1.19967e-05
1.19377e-05
1.18682e-05
1.17862e-05
1.16928e-05
1.15918e-05
1.14893e-05
1.13921e-05
1.13077e-05
1.1242e-05
1.11977e-05
1.11733e-05
1.11636e-05
1.11619e-05
1.23223e-05
1.23253e-05
1.23308e-05
1.23373e-05
1.23431e-05
1.2346e-05
1.23444e-05
1.23368e-05
1.23228e-05
1.23022e-05
1.22753e-05
1.22424e-05
1.22042e-05
1.21613e-05
1.21142e-05
1.20619e-05
1.20069e-05
1.19541e-05
1.1903e-05
1.18493e-05
1.17894e-05
1.17204e-05
1.16417e-05
1.15551e-05
1.14647e-05
1.13758e-05
1.1295e-05
1.12286e-05
1.11811e-05
1.11533e-05
1.11415e-05
1.11391e-05
1.22531e-05
1.2258e-05
1.22663e-05
1.22759e-05
1.22843e-05
1.2289e-05
1.22878e-05
1.22791e-05
1.22618e-05
1.22361e-05
1.22025e-05
1.2162e-05
1.21156e-05
1.20647e-05
1.20101e-05
1.19517e-05
1.18932e-05
1.18405e-05
1.17929e-05
1.17461e-05
1.16962e-05
1.16402e-05
1.15765e-05
1.15055e-05
1.14293e-05
1.13517e-05
1.12779e-05
1.12141e-05
1.11658e-05
1.11355e-05
1.11216e-05
1.11184e-05
1.21567e-05
1.21634e-05
1.21732e-05
1.21828e-05
1.21894e-05
1.21913e-05
1.21866e-05
1.21735e-05
1.21513e-05
1.21203e-05
1.20815e-05
1.20361e-05
1.19858e-05
1.19321e-05
1.18761e-05
1.18181e-05
1.1762e-05
1.17135e-05
1.16718e-05
1.16328e-05
1.15928e-05
1.1549e-05
1.14996e-05
1.1444e-05
1.13831e-05
1.13189e-05
1.12552e-05
1.11972e-05
1.11506e-05
1.11194e-05
1.11039e-05
1.10998e-05
1.20323e-05
1.20401e-05
1.20483e-05
1.20529e-05
1.20524e-05
1.20468e-05
1.20353e-05
1.20166e-05
1.19904e-05
1.1957e-05
1.19171e-05
1.18722e-05
1.18237e-05
1.17733e-05
1.17219e-05
1.16699e-05
1.16209e-05
1.15796e-05
1.15454e-05
1.15144e-05
1.14837e-05
1.1451e-05
1.14144e-05
1.13732e-05
1.13272e-05
1.12774e-05
1.12259e-05
1.11766e-05
1.11345e-05
1.11044e-05
1.10882e-05
1.10834e-05
1.18784e-05
1.18854e-05
1.18873e-05
1.1882e-05
1.18712e-05
1.18566e-05
1.18387e-05
1.18167e-05
1.17901e-05
1.17587e-05
1.1723e-05
1.16839e-05
1.16427e-05
1.16005e-05
1.15583e-05
1.15163e-05
1.14773e-05
1.14451e-05
1.1419e-05
1.13959e-05
1.13737e-05
1.13505e-05
1.1325e-05
1.12963e-05
1.1264e-05
1.12282e-05
1.119e-05
1.11515e-05
1.11166e-05
1.10899e-05
1.10742e-05
1.1069e-05
1.1691e-05
1.16936e-05
1.16852e-05
1.16694e-05
1.16507e-05
1.16313e-05
1.16115e-05
1.15908e-05
1.15683e-05
1.15434e-05
1.15161e-05
1.14869e-05
1.14565e-05
1.14258e-05
1.13953e-05
1.13653e-05
1.13378e-05
1.13153e-05
1.12973e-05
1.12817e-05
1.1267e-05
1.1252e-05
1.12356e-05
1.12173e-05
1.11967e-05
1.11735e-05
1.11482e-05
1.11216e-05
1.1096e-05
1.1075e-05
1.10616e-05
1.10565e-05
1.14624e-05
1.14569e-05
1.14407e-05
1.14226e-05
1.1405e-05
1.13885e-05
1.13734e-05
1.13588e-05
1.13442e-05
1.13287e-05
1.13121e-05
1.12946e-05
1.12766e-05
1.12585e-05
1.12406e-05
1.12231e-05
1.12072e-05
1.11942e-05
1.11839e-05
1.11751e-05
1.11669e-05
1.11586e-05
1.11497e-05
1.11399e-05
1.11288e-05
1.11163e-05
1.11024e-05
1.10874e-05
1.10724e-05
1.10591e-05
1.10498e-05
1.10458e-05
1.11831e-05
1.11788e-05
1.11705e-05
1.11625e-05
1.11553e-05
1.11489e-05
1.11433e-05
1.11381e-05
1.1133e-05
1.11279e-05
1.11224e-05
1.11167e-05
1.11108e-05
1.11049e-05
1.10992e-05
1.10935e-05
1.10884e-05
1.10842e-05
1.10809e-05
1.10781e-05
1.10755e-05
1.10729e-05
1.10702e-05
1.10671e-05
1.10637e-05
1.10598e-05
1.10555e-05
1.10509e-05
1.10461e-05
1.10416e-05
1.10383e-05
1.10367e-05
)
;

boundaryField
{
    movingWall
    {
        type            fixedValue;
        value           uniform 1.1032e-05;
    }
    fixedWalls
    {
        type            zeroGradient;
    }
    floor
    {
        type            zeroGradient;
    }
    frontAndBack
    {
        type            empty;
    }
}


// ************************************************************************* //
