/*--------------------------------*- C++ -*----------------------------------*\
| =========                 |                                                 |
| \\      /  F ield         | OpenFOAM: The Open Source CFD Toolbox           |
|  \\    /   O peration     | Version:  2212                                  |
|   \\  /    A nd           | Website:  www.openfoam.com                      |
|    \\/     M anipulation  |                                                 |
\*---------------------------------------------------------------------------*/
FoamFile
{
    version     2.0;
    format      ascii;
    arch        "LSB;label=64;scalar=64";
    class       volScalarField;
    location    "1760";
    object      p;
}
// * * * * * * * * * * * * * * * * * * * * * * * * * * * * * * * * * * * * * //

dimensions      [0 2 -2 0 0 0 0];

internalField   nonuniform List<scalar> 
1024
(
0
-4.49982e-07
-1.20695e-06
-1.91314e-06
-2.21067e-06
-1.84294e-06
-7.46365e-07
9.45465e-07
3.00528e-06
5.28537e-06
7.88625e-06
1.13021e-05
1.6476e-05
2.50174e-05
3.94657e-05
6.19665e-05
8.90083e-05
0.000102117
8.96971e-05
5.23102e-05
1.05733e-07
-4.99135e-05
-8.59355e-05
-0.000108199
-0.000120913
-0.000127799
-0.000131197
-0.000132359
-0.00013195
-0.000130538
-0.000128843
-0.0001277
-0.0928115
-0.092812
-0.0928127
-0.0928132
-0.0928135
-0.0928132
-0.0928123
-0.0928108
-0.092809
-0.0928069
-0.0928044
-0.0928011
-0.0927961
-0.0927878
-0.0927737
-0.0927518
-0.0927257
-0.0927137
-0.0927268
-0.0927638
-0.092815
-0.0928637
-0.0928986
-0.0929199
-0.0929319
-0.0929383
-0.0929414
-0.0929425
-0.0929422
-0.0929411
-0.0929396
-0.0929385
-0.199425
-0.199425
-0.199426
-0.199427
-0.199427
-0.199427
-0.199426
-0.199425
-0.199423
-0.199422
-0.19942
-0.199417
-0.199412
-0.199404
-0.199391
-0.19937
-0.199345
-0.199335
-0.199349
-0.199385
-0.199435
-0.199483
-0.199516
-0.199536
-0.199546
-0.199552
-0.199554
-0.199555
-0.199555
-0.199554
-0.199552
-0.19955
-0.321892
-0.321893
-0.321894
-0.321895
-0.321895
-0.321895
-0.321895
-0.321894
-0.321893
-0.321892
-0.321891
-0.321888
-0.321885
-0.321878
-0.321865
-0.321846
-0.321823
-0.321814
-0.32183
-0.321866
-0.321915
-0.32196
-0.321992
-0.32201
-0.322018
-0.322022
-0.322023
-0.322023
-0.322023
-0.322021
-0.322019
-0.322017
-0.462573
-0.462574
-0.462575
-0.462576
-0.462577
-0.462577
-0.462577
-0.462577
-0.462577
-0.462577
-0.462577
-0.462575
-0.462573
-0.462567
-0.462557
-0.462539
-0.462518
-0.462512
-0.462529
-0.462565
-0.462612
-0.462657
-0.462686
-0.462701
-0.462707
-0.462708
-0.462708
-0.462707
-0.462705
-0.462704
-0.462701
-0.462699
-0.624176
-0.624177
-0.624179
-0.62418
-0.624181
-0.624182
-0.624183
-0.624184
-0.624185
-0.624186
-0.624186
-0.624187
-0.624186
-0.624182
-0.624174
-0.624159
-0.624141
-0.624137
-0.624155
-0.624191
-0.624237
-0.624281
-0.624308
-0.62432
-0.624323
-0.624321
-0.624318
-0.624315
-0.624313
-0.62431
-0.624308
-0.624306
-0.809813
-0.809815
-0.809817
-0.809818
-0.80982
-0.809821
-0.809823
-0.809825
-0.809828
-0.80983
-0.809833
-0.809835
-0.809837
-0.809836
-0.809831
-0.809819
-0.809805
-0.809802
-0.80982
-0.809856
-0.809901
-0.809942
-0.809968
-0.809978
-0.809977
-0.809972
-0.809966
-0.809961
-0.809958
-0.809955
-0.809952
-0.80995
-1.02306
-1.02306
-1.02307
-1.02307
-1.02307
-1.02307
-1.02307
-1.02308
-1.02308
-1.02309
-1.02309
-1.0231
-1.0231
-1.0231
-1.0231
-1.02309
-1.02308
-1.02308
-1.0231
-1.02313
-1.02318
-1.02321
-1.02324
-1.02325
-1.02324
-1.02323
-1.02322
-1.02322
-1.02321
-1.02321
-1.02321
-1.02321
-1.26803
-1.26803
-1.26803
-1.26803
-1.26804
-1.26804
-1.26804
-1.26805
-1.26805
-1.26806
-1.26807
-1.26808
-1.26809
-1.26809
-1.2681
-1.26809
-1.26808
-1.26808
-1.2681
-1.26813
-1.26816
-1.2682
-1.26822
-1.26822
-1.26821
-1.2682
-1.2682
-1.26819
-1.26818
-1.26818
-1.26818
-1.26818
-1.54943
-1.54943
-1.54944
-1.54944
-1.54944
-1.54945
-1.54945
-1.54946
-1.54947
-1.54947
-1.54948
-1.5495
-1.54951
-1.54952
-1.54953
-1.54953
-1.54952
-1.54952
-1.54953
-1.54955
-1.54958
-1.5496
-1.54961
-1.54962
-1.54961
-1.5496
-1.54959
-1.54958
-1.54958
-1.54958
-1.54958
-1.54958
-1.87269
-1.8727
-1.8727
-1.8727
-1.8727
-1.87271
-1.87271
-1.87272
-1.87273
-1.87274
-1.87276
-1.87277
-1.87279
-1.8728
-1.87282
-1.87282
-1.87282
-1.87282
-1.87282
-1.87283
-1.87284
-1.87285
-1.87285
-1.87284
-1.87283
-1.87283
-1.87282
-1.87282
-1.87282
-1.87281
-1.87282
-1.87282
-2.24404
-2.24404
-2.24404
-2.24405
-2.24405
-2.24406
-2.24406
-2.24407
-2.24408
-2.2441
-2.24411
-2.24413
-2.24415
-2.24417
-2.24419
-2.2442
-2.2442
-2.2442
-2.24419
-2.24419
-2.24418
-2.24416
-2.24415
-2.24413
-2.24412
-2.24412
-2.24411
-2.24411
-2.24411
-2.24412
-2.24412
-2.24412
-2.67062
-2.67062
-2.67063
-2.67063
-2.67063
-2.67064
-2.67064
-2.67065
-2.67067
-2.67068
-2.6707
-2.67072
-2.67075
-2.67077
-2.6708
-2.67081
-2.67082
-2.67081
-2.6708
-2.67078
-2.67075
-2.67072
-2.67069
-2.67066
-2.67064
-2.67063
-2.67063
-2.67063
-2.67064
-2.67064
-2.67064
-2.67064
-3.16065
-3.16066
-3.16066
-3.16066
-3.16066
-3.16067
-3.16068
-3.16069
-3.1607
-3.16072
-3.16074
-3.16076
-3.16079
-3.16082
-3.16085
-3.16087
-3.16089
-3.16088
-3.16086
-3.16083
-3.16079
-3.16075
-3.1607
-3.16067
-3.16064
-3.16062
-3.16061
-3.16062
-3.16062
-3.16062
-3.16062
-3.16063
-3.72357
-3.72357
-3.72357
-3.72357
-3.72358
-3.72358
-3.72359
-3.7236
-3.72362
-3.72363
-3.72366
-3.72368
-3.72371
-3.72375
-3.72378
-3.72381
-3.72383
-3.72382
-3.7238
-3.72377
-3.72372
-3.72367
-3.72362
-3.72358
-3.72355
-3.72352
-3.72351
-3.72351
-3.72351
-3.72352
-3.72352
-3.72352
-4.3702
-4.3702
-4.3702
-4.3702
-4.3702
-4.37021
-4.37022
-4.37023
-4.37024
-4.37026
-4.37029
-4.37031
-4.37035
-4.37038
-4.37042
-4.37045
-4.37047
-4.37047
-4.37045
-4.37042
-4.37038
-4.37033
-4.37028
-4.37024
-4.3702
-4.37017
-4.37016
-4.37015
-4.37015
-4.37015
-4.37016
-4.37016
-5.06156
-5.06156
-5.06156
-5.06157
-5.06157
-5.06157
-5.06158
-5.0616
-5.06161
-5.06163
-5.06166
-5.06169
-5.06172
-5.06176
-5.0618
-5.06183
-5.06185
-5.06185
-5.06184
-5.06181
-5.06178
-5.06174
-5.0617
-5.06165
-5.06161
-5.06158
-5.06156
-5.06155
-5.06155
-5.06155
-5.06156
-5.06156
-5.70816
-5.70816
-5.70816
-5.70816
-5.70817
-5.70817
-5.70818
-5.7082
-5.70821
-5.70823
-5.70826
-5.70829
-5.70833
-5.70837
-5.70841
-5.70844
-5.70846
-5.70846
-5.70845
-5.70843
-5.70841
-5.70838
-5.70834
-5.7083
-5.70826
-5.70822
-5.7082
-5.70819
-5.70818
-5.70819
-5.70819
-5.7082
-6.27104
-6.27104
-6.27104
-6.27104
-6.27104
-6.27105
-6.27106
-6.27107
-6.27109
-6.27111
-6.27114
-6.27117
-6.27121
-6.27125
-6.27129
-6.27133
-6.27135
-6.27135
-6.27134
-6.27132
-6.2713
-6.27127
-6.27124
-6.27121
-6.27117
-6.27114
-6.27111
-6.27109
-6.27109
-6.27109
-6.27109
-6.2711
-6.76104
-6.76103
-6.76103
-6.76103
-6.76104
-6.76104
-6.76105
-6.76107
-6.76108
-6.76111
-6.76114
-6.76117
-6.76121
-6.76126
-6.7613
-6.76135
-6.76137
-6.76137
-6.76135
-6.76133
-6.7613
-6.76128
-6.76125
-6.76122
-6.76119
-6.76115
-6.76112
-6.7611
-6.76109
-6.76109
-6.7611
-6.7611
-7.18759
-7.18759
-7.18759
-7.18759
-7.18759
-7.18759
-7.1876
-7.18761
-7.18763
-7.18766
-7.18769
-7.18773
-7.18777
-7.18782
-7.18787
-7.18792
-7.18794
-7.18794
-7.18792
-7.1879
-7.18787
-7.18784
-7.18781
-7.18778
-7.18774
-7.1877
-7.18766
-7.18763
-7.18762
-7.18762
-7.18762
-7.18763
-7.55892
-7.55892
-7.55892
-7.55892
-7.55892
-7.55892
-7.55893
-7.55893
-7.55895
-7.55897
-7.55901
-7.55905
-7.5591
-7.55916
-7.55922
-7.55927
-7.55929
-7.55929
-7.55927
-7.55924
-7.55921
-7.55917
-7.55913
-7.55909
-7.55905
-7.559
-7.55895
-7.55891
-7.55889
-7.55888
-7.55888
-7.55889
-7.88218
-7.88218
-7.88218
-7.88218
-7.88218
-7.88218
-7.88218
-7.88218
-7.88219
-7.88221
-7.88225
-7.8823
-7.88236
-7.88242
-7.88248
-7.88254
-7.88257
-7.88257
-7.88255
-7.88252
-7.88248
-7.88243
-7.88238
-7.88232
-7.88226
-7.8822
-7.88213
-7.88207
-7.88203
-7.88201
-7.88201
-7.88202
-8.1636
-8.1636
-8.1636
-8.16359
-8.16359
-8.16358
-8.16357
-8.16357
-8.16358
-8.1636
-8.16364
-8.16369
-8.16376
-8.16383
-8.1639
-8.16396
-8.164
-8.164
-8.16398
-8.16395
-8.1639
-8.16384
-8.16377
-8.16369
-8.16361
-8.16352
-8.16342
-8.16334
-8.16327
-8.16323
-8.16322
-8.16323
-8.40859
-8.40859
-8.40859
-8.40858
-8.40857
-8.40856
-8.40854
-8.40853
-8.40853
-8.40856
-8.4086
-8.40866
-8.40873
-8.40881
-8.40889
-8.40896
-8.409
-8.409
-8.40898
-8.40894
-8.40889
-8.40882
-8.40873
-8.40863
-8.40851
-8.40838
-8.40825
-8.40812
-8.40801
-8.40794
-8.40792
-8.40793
-8.62186
-8.62187
-8.62187
-8.62186
-8.62184
-8.62182
-8.62179
-8.62178
-8.62178
-8.6218
-8.62185
-8.62191
-8.62199
-8.62208
-8.62216
-8.62224
-8.62228
-8.62228
-8.62226
-8.62222
-8.62216
-8.62208
-8.62198
-8.62185
-8.62169
-8.62151
-8.62132
-8.62113
-8.62097
-8.62085
-8.6208
-8.62079
-8.80754
-8.80755
-8.80754
-8.80753
-8.8075
-8.80747
-8.80744
-8.80741
-8.80741
-8.80743
-8.80749
-8.80756
-8.80765
-8.80774
-8.80783
-8.8079
-8.80795
-8.80795
-8.80793
-8.80789
-8.80783
-8.80774
-8.80762
-8.80746
-8.80726
-8.80703
-8.80676
-8.8065
-8.80626
-8.80606
-8.80596
-8.80592
-8.96921
-8.96921
-8.9692
-8.96918
-8.96913
-8.96909
-8.96904
-8.96902
-8.96901
-8.96904
-8.9691
-8.96918
-8.96927
-8.96937
-8.96946
-8.96954
-8.96958
-8.96959
-8.96957
-8.96953
-8.96946
-8.96936
-8.96923
-8.96905
-8.96881
-8.96852
-8.96818
-8.96782
-8.96747
-8.96717
-8.96696
-8.96687
-9.11001
-9.11
-9.10996
-9.10991
-9.10984
-9.10978
-9.10973
-9.1097
-9.10969
-9.10973
-9.10979
-9.10987
-9.10997
-9.11007
-9.11017
-9.11025
-9.11029
-9.1103
-9.11028
-9.11024
-9.11017
-9.11006
-9.10992
-9.10971
-9.10944
-9.10911
-9.1087
-9.10824
-9.10776
-9.1073
-9.10694
-9.10671
-9.23269
-9.23262
-9.23252
-9.23242
-9.23233
-9.23226
-9.2322
-9.23217
-9.23217
-9.2322
-9.23227
-9.23235
-9.23246
-9.23256
-9.23266
-9.23274
-9.23279
-9.2328
-9.23278
-9.23273
-9.23266
-9.23255
-9.2324
-9.23218
-9.23189
-9.23152
-9.23106
-9.23051
-9.22989
-9.22922
-9.22859
-9.22803
-9.33983
-9.33944
-9.3392
-9.33905
-9.33894
-9.33886
-9.33881
-9.33878
-9.33878
-9.33882
-9.33889
-9.33898
-9.33908
-9.33919
-9.33929
-9.33938
-9.33942
-9.33944
-9.33942
-9.33937
-9.3393
-9.33919
-9.33903
-9.33881
-9.33851
-9.33812
-9.33763
-9.33703
-9.33629
-9.33538
-9.33427
-9.33301
-9.43368
-9.43245
-9.43198
-9.43183
-9.43174
-9.43166
-9.43161
-9.43159
-9.43159
-9.43164
-9.43171
-9.4318
-9.43191
-9.43202
-9.43212
-9.43221
-9.43226
-9.43227
-9.43225
-9.43221
-9.43213
-9.43202
-9.43186
-9.43164
-9.43134
-9.43094
-9.43045
-9.42982
-9.42901
-9.42791
-9.4263
-9.42404
)
;

boundaryField
{
    movingWall
    {
        type            calculated;
        value           nonuniform List<scalar> 
32
(
-9.47689
-9.47565
-9.47519
-9.47504
-9.47494
-9.47486
-9.47481
-9.47479
-9.4748
-9.47484
-9.47491
-9.47501
-9.47512
-9.47523
-9.47533
-9.47541
-9.47546
-9.47548
-9.47546
-9.47541
-9.47534
-9.47523
-9.47507
-9.47485
-9.47454
-9.47415
-9.47365
-9.47303
-9.47221
-9.47111
-9.46951
-9.46725
)
;
    }
    fixedWalls
    {
        type            calculated;
        value           nonuniform List<scalar> 
64
(
6.93889e-18
-0.0928115
-0.199425
-0.321892
-0.462573
-0.624176
-0.809813
-1.02306
-1.26803
-1.54943
-1.87269
-2.24404
-2.67062
-3.16065
-3.72357
-4.3702
-5.06156
-5.70816
-6.27104
-6.76104
-7.18759
-7.55892
-7.88218
-8.1636
-8.40859
-8.62186
-8.80754
-8.96921
-9.11001
-9.23269
-9.33983
-9.43368
-0.0001277
-0.0929385
-0.19955
-0.322017
-0.462699
-0.624306
-0.80995
-1.02321
-1.26818
-1.54958
-1.87282
-2.24412
-2.67064
-3.16063
-3.72352
-4.37016
-5.06156
-5.7082
-6.2711
-6.7611
-7.18763
-7.55889
-7.88202
-8.16323
-8.40793
-8.62079
-8.80592
-8.96687
-9.10671
-9.22803
-9.33301
-9.42404
)
;
    }
    floor
    {
        type            calculated;
        value           nonuniform List<scalar> 
32
(
0.0431943
0.0431939
0.0431931
0.0431924
0.0431921
0.0431925
0.0431936
0.0431953
0.0431974
0.0431997
0.0432024
0.0432058
0.043211
0.0432196
0.0432341
0.0432566
0.0432837
0.0432969
0.0432845
0.0432471
0.0431949
0.0431448
0.0431087
0.0430863
0.0430736
0.0430666
0.0430632
0.043062
0.0430624
0.0430638
0.0430655
0.0430666
)
;
    }
    frontAndBack
    {
        type            empty;
    }
}


// ************************************************************************* //
