/*--------------------------------*- C++ -*----------------------------------*\
| =========                 |                                                 |
| \\      /  F ield         | OpenFOAM: The Open Source CFD Toolbox           |
|  \\    /   O peration     | Version:  2212                                  |
|   \\  /    A nd           | Website:  www.openfoam.com                      |
|    \\/     M anipulation  |                                                 |
\*---------------------------------------------------------------------------*/
FoamFile
{
    version     2.0;
    format      ascii;
    arch        "LSB;label=64;scalar=64";
    class       volScalarField;
    location    "1760";
    object      p_rgh;
}
// * * * * * * * * * * * * * * * * * * * * * * * * * * * * * * * * * * * * * //

dimensions      [0 2 -2 0 0 0 0];

internalField   nonuniform List<scalar> 
1024
(
0.0431943
0.0431939
0.0431931
0.0431924
0.0431921
0.0431925
0.0431936
0.0431953
0.0431974
0.0431997
0.0432024
0.0432058
0.043211
0.0432196
0.0432341
0.0432566
0.0432837
0.0432969
0.0432845
0.0432471
0.0431949
0.0431448
0.0431087
0.0430863
0.0430736
0.0430666
0.0430632
0.043062
0.0430624
0.0430638
0.0430655
0.0430666
0.0431955
0.043195
0.0431944
0.0431939
0.0431937
0.0431942
0.0431953
0.043197
0.0431991
0.0432014
0.0432041
0.0432077
0.043213
0.0432216
0.0432361
0.0432586
0.0432855
0.0432981
0.0432854
0.043248
0.0431962
0.0431467
0.0431112
0.0430893
0.0430767
0.0430698
0.0430663
0.0430649
0.0430649
0.0430659
0.0430673
0.0430684
0.043198
0.0431974
0.0431968
0.0431964
0.0431965
0.0431971
0.0431984
0.0432003
0.0432025
0.0432051
0.043208
0.0432118
0.0432173
0.0432262
0.043241
0.0432637
0.0432906
0.043303
0.0432899
0.0432524
0.0432006
0.043151
0.0431156
0.0430939
0.0430814
0.0430744
0.0430707
0.0430689
0.0430685
0.043069
0.0430703
0.0430718
0.043202
0.0432011
0.0432004
0.0432002
0.0432005
0.0432016
0.0432034
0.0432057
0.0432084
0.0432114
0.0432147
0.0432189
0.0432249
0.0432342
0.0432494
0.0432727
0.0433002
0.0433129
0.0432992
0.0432611
0.0432085
0.0431577
0.0431215
0.0430995
0.0430869
0.0430797
0.0430756
0.0430732
0.0430722
0.0430725
0.0430739
0.0430757
0.0432073
0.0432062
0.0432053
0.0432053
0.0432061
0.0432079
0.0432106
0.0432138
0.0432174
0.0432211
0.0432251
0.0432299
0.0432365
0.0432465
0.0432624
0.0432865
0.0433145
0.0433273
0.0433123
0.0432731
0.0432191
0.0431662
0.0431281
0.0431054
0.0430923
0.0430847
0.0430799
0.0430769
0.0430753
0.0430752
0.0430767
0.0430787
0.0432136
0.0432123
0.0432114
0.0432117
0.0432133
0.0432164
0.0432205
0.0432253
0.0432303
0.0432352
0.0432402
0.0432458
0.0432531
0.0432638
0.0432804
0.0433048
0.0433324
0.0433441
0.0433271
0.0432858
0.0432301
0.0431746
0.043134
0.0431098
0.0430961
0.0430876
0.043082
0.0430782
0.043076
0.0430755
0.0430767
0.0430787
0.0432203
0.0432188
0.043218
0.043219
0.0432219
0.0432268
0.0432333
0.0432404
0.0432476
0.0432542
0.0432604
0.043267
0.0432751
0.0432861
0.0433025
0.0433259
0.0433511
0.0433596
0.0433399
0.0432964
0.0432386
0.0431808
0.0431375
0.043111
0.0430961
0.0430866
0.04308
0.0430753
0.0430724
0.0430713
0.043072
0.0430735
0.0432262
0.0432247
0.0432242
0.0432262
0.043231
0.0432387
0.0432485
0.0432591
0.0432691
0.043278
0.0432858
0.0432933
0.0433015
0.0433119
0.0433265
0.0433463
0.0433666
0.0433706
0.0433481
0.0433028
0.0432443
0.0431841
0.0431379
0.0431075
0.0430913
0.0430806
0.0430727
0.0430671
0.0430636
0.043062
0.043062
0.0430628
0.0432296
0.0432282
0.0432283
0.0432317
0.0432393
0.0432508
0.0432651
0.0432802
0.0432941
0.0433057
0.043315
0.0433228
0.04333
0.043338
0.0433483
0.0433621
0.0433758
0.0433752
0.0433514
0.0433066
0.0432484
0.0431892
0.0431384
0.0431031
0.0430846
0.0430718
0.0430624
0.0430558
0.0430517
0.0430496
0.0430489
0.0430489
0.0432284
0.0432271
0.043228
0.0432334
0.0432444
0.0432609
0.0432811
0.0433018
0.0433203
0.0433348
0.0433452
0.0433523
0.0433569
0.0433603
0.043364
0.0433701
0.0433773
0.0433738
0.0433521
0.0433122
0.0432595
0.0432027
0.0431501
0.0431095
0.0430833
0.0430668
0.0430552
0.0430472
0.0430423
0.0430396
0.0430384
0.0430378
0.0432197
0.0432187
0.0432206
0.0432283
0.0432436
0.0432662
0.0432933
0.0433207
0.0433442
0.0433616
0.0433724
0.0433774
0.0433779
0.0433751
0.0433713
0.0433696
0.0433712
0.0433678
0.0433522
0.0433236
0.0432847
0.0432398
0.0431926
0.0431461
0.0431049
0.0430792
0.043062
0.0430506
0.0430439
0.0430405
0.043039
0.0430383
0.0432007
0.0432
0.043203
0.0432133
0.0432333
0.0432627
0.0432977
0.0433324
0.0433613
0.0433812
0.0433917
0.043394
0.0433895
0.0433804
0.0433694
0.0433608
0.0433579
0.0433565
0.0433505
0.0433389
0.0433224
0.0433011
0.0432733
0.0432359
0.0431884
0.0431374
0.0431044
0.0430835
0.043072
0.0430667
0.0430649
0.0430645
0.0431681
0.0431678
0.0431719
0.0431848
0.0432095
0.0432458
0.0432891
0.0433316
0.0433661
0.0433885
0.0433988
0.0433984
0.0433895
0.043375
0.0433581
0.0433434
0.0433362
0.0433366
0.0433404
0.0433466
0.0433546
0.0433623
0.0433646
0.0433548
0.0433276
0.0432822
0.0432243
0.043179
0.0431539
0.0431418
0.0431373
0.0431364
0.043119
0.0431191
0.043124
0.0431389
0.0431678
0.0432106
0.043262
0.0433125
0.0433532
0.0433791
0.0433901
0.0433882
0.0433764
0.043358
0.0433365
0.0433166
0.0433048
0.0433046
0.0433138
0.0433312
0.0433559
0.0433845
0.0434115
0.04343
0.0434338
0.0434203
0.0433905
0.0433497
0.043309
0.0432818
0.0432691
0.0432648
0.043052
0.0430524
0.0430579
0.043074
0.0431054
0.0431534
0.0432122
0.0432713
0.0433194
0.0433507
0.0433646
0.0433637
0.0433514
0.0433313
0.0433072
0.043284
0.0432678
0.0432643
0.0432718
0.0432895
0.0433167
0.0433508
0.0433868
0.0434187
0.0434413
0.0434518
0.0434502
0.0434391
0.0434228
0.0434062
0.0433929
0.0433864
0.0429709
0.0429716
0.0429771
0.042993
0.0430249
0.0430755
0.0431403
0.0432082
0.043266
0.0433059
0.0433261
0.0433295
0.04332
0.0433019
0.0432791
0.0432562
0.0432384
0.0432306
0.0432302
0.0432375
0.0432539
0.0432787
0.043309
0.0433397
0.0433659
0.0433842
0.0433934
0.043395
0.0433915
0.0433857
0.0433799
0.0433757
0.0428928
0.0428937
0.0428986
0.0429129
0.0429426
0.0429925
0.0430603
0.0431355
0.0432041
0.0432554
0.0432853
0.0432963
0.0432929
0.0432801
0.0432634
0.0432486
0.0432409
0.0432308
0.0432202
0.0432112
0.0432074
0.0432122
0.0432259
0.0432457
0.0432669
0.0432846
0.0432957
0.0433001
0.0432993
0.0432956
0.0432909
0.0432869
0.0428415
0.0428425
0.0428468
0.0428592
0.0428856
0.0429313
0.0429964
0.0430738
0.043151
0.0432149
0.043256
0.043276
0.0432797
0.0432731
0.0432629
0.043257
0.0432634
0.0432595
0.0432474
0.043229
0.0432075
0.0431894
0.0431805
0.0431824
0.0431923
0.0432044
0.0432138
0.0432181
0.0432176
0.0432138
0.0432084
0.0432037
0.0428206
0.0428216
0.0428254
0.0428359
0.0428588
0.0428995
0.04296
0.0430355
0.0431154
0.0431866
0.043238
0.0432675
0.0432783
0.0432766
0.0432698
0.0432666
0.0432743
0.04328
0.0432778
0.0432638
0.0432377
0.0432064
0.0431779
0.0431609
0.0431567
0.0431605
0.0431664
0.0431698
0.0431692
0.0431651
0.0431589
0.0431533
0.0428211
0.0428222
0.0428254
0.0428343
0.0428541
0.0428902
0.0429455
0.0430172
0.0430965
0.0431709
0.0432288
0.0432652
0.0432814
0.0432825
0.0432759
0.0432705
0.0432738
0.0432824
0.043288
0.0432856
0.0432718
0.0432441
0.0432057
0.0431748
0.0431588
0.0431555
0.0431585
0.0431615
0.0431612
0.043157
0.0431499
0.0431431
0.0428344
0.0428353
0.0428381
0.0428457
0.042863
0.0428956
0.0429464
0.0430141
0.043091
0.0431655
0.0432257
0.0432652
0.0432835
0.0432849
0.0432762
0.043266
0.0432638
0.0432725
0.0432835
0.0432906
0.043289
0.043275
0.0432487
0.0432129
0.0431906
0.0431845
0.0431885
0.0431941
0.0431961
0.0431929
0.0431852
0.043177
0.0428537
0.0428544
0.0428566
0.0428633
0.0428791
0.0429095
0.0429577
0.0430225
0.0430967
0.0431688
0.0432273
0.0432654
0.0432819
0.0432804
0.0432673
0.0432515
0.0432443
0.0432518
0.0432668
0.0432818
0.0432916
0.0432923
0.0432827
0.0432646
0.0432463
0.0432429
0.0432539
0.0432683
0.0432772
0.0432775
0.0432702
0.0432603
0.0428741
0.0428745
0.0428762
0.0428825
0.042898
0.0429281
0.042976
0.0430398
0.0431115
0.0431796
0.0432327
0.0432648
0.0432753
0.0432677
0.0432485
0.0432265
0.0432145
0.04322
0.0432381
0.0432599
0.0432806
0.0432967
0.043307
0.0433129
0.0433184
0.0433294
0.0433541
0.0433856
0.0434093
0.0434182
0.043413
0.043402
0.0428928
0.0428924
0.0428937
0.0429005
0.0429175
0.0429497
0.0429996
0.0430642
0.0431337
0.0431959
0.0432403
0.0432625
0.0432631
0.0432465
0.0432194
0.0431907
0.0431743
0.0431781
0.0431978
0.0432252
0.0432562
0.0432885
0.0433215
0.0433567
0.0433964
0.0434414
0.0434924
0.0435496
0.043599
0.0436249
0.0436259
0.0436152
0.0429076
0.0429061
0.0429072
0.0429156
0.0429362
0.0429736
0.0430278
0.0430942
0.0431609
0.0432151
0.043248
0.043257
0.0432449
0.0432169
0.0431806
0.0431448
0.0431239
0.0431258
0.0431457
0.0431787
0.0432195
0.0432682
0.0433259
0.043395
0.0434771
0.0435704
0.0436687
0.0437653
0.0438526
0.0439091
0.0439239
0.0439176
0.0429163
0.0429132
0.0429148
0.0429273
0.0429547
0.0429986
0.0430589
0.0431273
0.04319
0.0432339
0.0432526
0.0432463
0.0432196
0.0431789
0.0431323
0.0430892
0.0430642
0.0430647
0.0430857
0.043123
0.0431732
0.043238
0.0433212
0.0434269
0.0435572
0.0437091
0.0438724
0.044032
0.0441733
0.04428
0.0443241
0.0443311
0.0429127
0.0429085
0.0429128
0.0429331
0.0429712
0.0430249
0.0430899
0.0431595
0.043216
0.0432472
0.0432501
0.0432274
0.0431854
0.0431318
0.0430751
0.0430254
0.0429974
0.0429974
0.0430201
0.0430617
0.043121
0.0432014
0.0433091
0.0434512
0.0436317
0.043848
0.0440886
0.0443328
0.0445559
0.0447384
0.044839
0.0448758
0.042883
0.0428815
0.0428943
0.0429293
0.042983
0.0430482
0.0431181
0.0431858
0.0432332
0.0432502
0.0432368
0.0431981
0.0431419
0.0430767
0.0430115
0.0429571
0.0429279
0.0429287
0.042954
0.0430003
0.0430682
0.0431626
0.0432924
0.0434673
0.0436944
0.0439741
0.0442968
0.0446415
0.0449779
0.0452693
0.0454685
0.0455652
0.0428012
0.0428143
0.0428515
0.0429136
0.0429882
0.0430656
0.0431398
0.0432018
0.0432377
0.0432404
0.0432121
0.0431596
0.0430919
0.043018
0.0429473
0.0428907
0.0428623
0.0428652
0.0428936
0.0429449
0.0430203
0.0431262
0.0432737
0.0434748
0.0437401
0.044074
0.0444729
0.0449227
0.045397
0.0458508
0.0462041
0.0464309
0.0426132
0.0426877
0.0427902
0.0428963
0.0429927
0.0430802
0.0431545
0.0432077
0.0432316
0.0432217
0.0431816
0.043119
0.0430434
0.0429643
0.042891
0.0428344
0.042808
0.0428135
0.042845
0.0429006
0.0429818
0.0430959
0.0432555
0.0434744
0.0437656
0.0441379
0.0445952
0.0451371
0.0457567
0.0464254
0.0470562
0.0476067
0.04212
0.0425114
0.0427546
0.0429072
0.0430156
0.0431032
0.0431709
0.0432132
0.0432258
0.0432057
0.0431569
0.0430876
0.0430073
0.0429254
0.0428513
0.0427956
0.0427711
0.0427787
0.0428126
0.0428709
0.0429555
0.043074
0.0432397
0.0434675
0.0437715
0.0441633
0.0446535
0.0452561
0.0459946
0.0469028
0.0480097
0.0492673
0.0411003
0.0423362
0.042801
0.0429523
0.0430531
0.0431343
0.0431924
0.0432247
0.0432287
0.0432016
0.0431473
0.0430739
0.0429908
0.0429074
0.0428328
0.0427775
0.0427539
0.0427625
0.0427974
0.0428569
0.0429425
0.0430623
0.0432295
0.0434594
0.0437662
0.0441629
0.0446638
0.0452942
0.0461064
0.0472075
0.048815
0.0510765
)
;

boundaryField
{
    movingWall
    {
        type            fixedFluxPressure;
        gradient        uniform 0;
        value           nonuniform List<scalar> 
32
(
0.0411003
0.0423362
0.042801
0.0429523
0.0430531
0.0431343
0.0431924
0.0432247
0.0432287
0.0432016
0.0431473
0.0430739
0.0429908
0.0429074
0.0428328
0.0427775
0.0427539
0.0427625
0.0427974
0.0428569
0.0429425
0.0430623
0.0432295
0.0434594
0.0437662
0.0441629
0.0446638
0.0452942
0.0461064
0.0472075
0.048815
0.0510765
)
;
    }
    fixedWalls
    {
        type            fixedFluxPressure;
        gradient        uniform 0;
        value           nonuniform List<scalar> 
64
(
0.0431943
0.0431955
0.043198
0.043202
0.0432073
0.0432136
0.0432203
0.0432262
0.0432296
0.0432284
0.0432197
0.0432007
0.0431681
0.043119
0.043052
0.0429709
0.0428928
0.0428415
0.0428206
0.0428211
0.0428344
0.0428537
0.0428741
0.0428928
0.0429076
0.0429163
0.0429127
0.042883
0.0428012
0.0426132
0.04212
0.0411003
0.0430666
0.0430684
0.0430718
0.0430757
0.0430787
0.0430787
0.0430735
0.0430628
0.0430489
0.0430378
0.0430383
0.0430645
0.0431364
0.0432648
0.0433864
0.0433757
0.0432869
0.0432037
0.0431533
0.0431431
0.043177
0.0432603
0.043402
0.0436152
0.0439176
0.0443311
0.0448758
0.0455652
0.0464309
0.0476067
0.0492673
0.0510765
)
;
    }
    floor
    {
        type            fixedFluxPressure;
        gradient        uniform 0;
        value           nonuniform List<scalar> 
32
(
0.0431943
0.0431939
0.0431931
0.0431924
0.0431921
0.0431925
0.0431936
0.0431953
0.0431974
0.0431997
0.0432024
0.0432058
0.043211
0.0432196
0.0432341
0.0432566
0.0432837
0.0432969
0.0432845
0.0432471
0.0431949
0.0431448
0.0431087
0.0430863
0.0430736
0.0430666
0.0430632
0.043062
0.0430624
0.0430638
0.0430655
0.0430666
)
;
    }
    frontAndBack
    {
        type            empty;
    }
}


// ************************************************************************* //
