/*--------------------------------*- C++ -*----------------------------------*\
| =========                 |                                                 |
| \\      /  F ield         | OpenFOAM: The Open Source CFD Toolbox           |
|  \\    /   O peration     | Version:  2212                                  |
|   \\  /    A nd           | Website:  www.openfoam.com                      |
|    \\/     M anipulation  |                                                 |
\*---------------------------------------------------------------------------*/
FoamFile
{
    version     2.0;
    format      ascii;
    arch        "LSB;label=64;scalar=64";
    class       surfaceScalarField;
    location    "1760";
    object      phi;
}
// * * * * * * * * * * * * * * * * * * * * * * * * * * * * * * * * * * * * * //

dimensions      [0 3 -1 0 0 0 0];

oriented        oriented;

internalField   nonuniform List<scalar> 
1984
(
3.1814e-10
-3.18526e-10
-6.71316e-10
9.89468e-10
-3.95837e-09
3.28708e-09
-9.60385e-09
5.64552e-09
-1.69018e-08
7.29797e-09
-2.47528e-08
7.85106e-09
-3.21579e-08
7.4051e-09
-3.86626e-08
6.50468e-09
-4.45123e-08
5.84969e-09
-5.04503e-08
5.93806e-09
-5.73279e-08
6.87754e-09
-6.56758e-08
8.34788e-09
-7.54681e-08
9.79231e-09
-8.54564e-08
9.98835e-09
-9.16098e-08
6.1534e-09
-8.44619e-08
-7.14788e-09
-5.03118e-08
-3.41502e-08
1.19379e-08
-6.22497e-08
8.46172e-08
-7.26793e-08
1.42311e-07
-5.76934e-08
1.6894e-07
-2.66294e-08
1.64716e-07
4.22386e-09
1.43581e-07
2.11356e-08
1.16751e-07
2.68293e-08
9.006e-08
2.66915e-08
6.56038e-08
2.44562e-08
4.39574e-08
2.16464e-08
2.55906e-08
1.83668e-08
1.14755e-08
1.41151e-08
2.7365e-09
8.73902e-09
-4.23044e-10
3.15953e-09
-4.23039e-10
-1.00242e-09
6.83909e-10
-6.24336e-09
6.23047e-09
-1.7801e-08
1.48447e-08
-3.59964e-08
2.3841e-08
-5.92802e-08
3.05819e-08
-8.48237e-08
3.33945e-08
-1.09785e-07
3.23666e-08
-1.32635e-07
2.93547e-08
-1.53765e-07
2.698e-08
-1.75076e-07
2.72489e-08
-1.98856e-07
3.06574e-08
-2.26475e-07
3.59666e-08
-2.57344e-07
4.06616e-08
-2.86831e-07
3.9475e-08
-3.02224e-07
2.15466e-08
-2.75238e-07
-3.41339e-08
-1.68975e-07
-1.40413e-07
1.98271e-08
-2.51052e-07
2.37746e-07
-2.90598e-07
4.11293e-07
-2.3124e-07
4.99219e-07
-1.14555e-07
5.00865e-07
2.57772e-09
4.49516e-07
7.24845e-08
3.7513e-07
1.01216e-07
2.95772e-07
1.06049e-07
2.1997e-07
1.00259e-07
1.51587e-07
9.0029e-08
9.33456e-08
7.66082e-08
4.81509e-08
5.93098e-08
1.82576e-08
3.86322e-08
3.45133e-09
1.79659e-08
3.02828e-09
-3.63923e-09
4.32316e-09
-1.61532e-08
1.87445e-08
-3.95891e-08
3.82808e-08
-7.41923e-08
5.84442e-08
-1.17627e-07
7.40161e-08
-1.65541e-07
8.13089e-08
-2.13372e-07
8.0198e-08
-2.58426e-07
7.44086e-08
-3.00965e-07
6.95186e-08
-3.43706e-07
6.99903e-08
-3.9002e-07
7.69712e-08
-4.41689e-07
8.76358e-08
-4.96775e-07
9.57474e-08
-5.46099e-07
8.87994e-08
-5.6725e-07
4.26975e-08
-5.13209e-07
-8.81757e-08
-3.28125e-07
-3.25497e-07
-8.53169e-09
-5.70645e-07
3.58477e-07
-6.57607e-07
6.58179e-07
-5.30943e-07
8.25886e-07
-2.82262e-07
8.54073e-07
-2.56097e-08
7.87435e-07
1.39123e-07
6.73054e-07
2.15597e-07
5.41728e-07
2.37374e-07
4.10702e-07
2.31285e-07
2.89529e-07
2.11202e-07
1.84719e-07
1.81418e-07
1.01551e-07
1.42478e-07
4.34039e-08
9.67791e-08
1.04728e-08
5.08971e-08
1.3501e-08
-7.27414e-09
1.15973e-08
-2.99483e-08
4.14188e-08
-6.96472e-08
7.79796e-08
-1.25807e-07
1.14604e-07
-1.94856e-07
1.43065e-07
-2.7087e-07
1.57324e-07
-3.4774e-07
1.57067e-07
-4.21696e-07
1.48365e-07
-4.92673e-07
1.40495e-07
-5.63711e-07
1.41028e-07
-6.38593e-07
1.51854e-07
-7.18757e-07
1.678e-07
-8.00024e-07
1.77014e-07
-8.67948e-07
1.56724e-07
-8.90519e-07
6.52687e-08
-8.04723e-07
-1.73972e-07
-5.41976e-07
-5.88244e-07
-1.11071e-07
-1.00155e-06
3.91464e-07
-1.16014e-06
8.2325e-07
-9.62729e-07
1.09185e-06
-5.50859e-07
1.17365e-06
-1.07412e-07
1.1147e-06
1.98068e-07
9.764e-07
3.53901e-07
8.02337e-07
4.11437e-07
6.19686e-07
4.13937e-07
4.4537e-07
3.85517e-07
2.91064e-07
3.35724e-07
1.6538e-07
2.68161e-07
7.39232e-08
1.88236e-07
1.89584e-08
1.05862e-07
3.24593e-08
-1.17923e-08
2.33897e-08
-4.74312e-08
7.70577e-08
-1.08017e-07
1.38566e-07
-1.91579e-07
1.98166e-07
-2.92652e-07
2.44138e-07
-4.0342e-07
2.68091e-07
-5.16268e-07
2.69916e-07
-6.26469e-07
2.58565e-07
-7.33451e-07
2.47478e-07
-8.39976e-07
2.47553e-07
-9.49372e-07
2.6125e-07
-1.06185e-06
2.80276e-07
-1.17035e-06
2.85515e-07
-1.25529e-06
2.4166e-07
-1.27667e-06
8.6654e-08
-1.16062e-06
-2.90028e-07
-8.33417e-07
-9.15443e-07
-3.28158e-07
-1.50681e-06
2.73144e-07
-1.76144e-06
8.32009e-07
-1.5216e-06
1.22116e-06
-9.40015e-07
1.3889e-06
-2.75146e-07
1.36775e-06
2.19217e-07
1.22889e-06
4.92766e-07
1.02983e-06
6.1049e-07
8.08257e-07
6.35512e-07
5.89228e-07
6.04546e-07
3.90597e-07
5.34355e-07
2.25374e-07
4.33385e-07
1.02426e-07
3.11184e-07
2.67489e-08
1.81539e-07
5.92081e-08
-1.71232e-08
4.05129e-08
-6.82803e-08
1.28215e-07
-1.54086e-07
2.24371e-07
-2.70807e-07
3.14888e-07
-4.10525e-07
3.83856e-07
-5.63096e-07
4.20662e-07
-7.19251e-07
4.26071e-07
-8.73271e-07
4.12585e-07
-1.02388e-06
3.98087e-07
-1.17298e-06
3.96653e-07
-1.32267e-06
4.10938e-07
-1.47131e-06
4.28915e-07
-1.60899e-06
4.23198e-07
-1.71222e-06
3.44891e-07
-1.73619e-06
1.10619e-07
-1.60254e-06
-4.23675e-07
-1.23836e-06
-1.27962e-06
-7.01567e-07
-2.0436e-06
-5.27937e-08
-2.41022e-06
6.06161e-07
-2.18055e-06
1.12905e-06
-1.4629e-06
1.41781e-06
-5.63905e-07
1.47016e-06
1.66862e-07
1.35839e-06
6.04534e-07
1.15886e-06
8.1002e-07
9.20063e-07
8.74313e-07
6.7537e-07
8.49239e-07
4.49276e-07
7.60449e-07
2.59523e-07
6.23138e-07
1.1787e-07
4.52837e-07
3.07122e-08
2.68696e-07
8.99203e-08
-2.30438e-08
6.35567e-08
-9.16046e-08
1.96776e-07
-2.0597e-07
3.38736e-07
-3.60591e-07
4.69509e-07
-5.44821e-07
5.68085e-07
-7.45833e-07
6.21674e-07
-9.5241e-07
6.32649e-07
-1.15765e-06
6.17826e-07
-1.35939e-06
5.99824e-07
-1.55836e-06
5.95621e-07
-1.7551e-06
6.07679e-07
-1.94615e-06
6.19963e-07
-2.11959e-06
5.96638e-07
-2.25013e-06
4.75433e-07
-2.29192e-06
1.52406e-07
-2.16745e-06
-5.48138e-07
-1.80428e-06
-1.6428e-06
-1.26511e-06
-2.58277e-06
-6.2459e-07
-3.05074e-06
7.44215e-08
-2.87956e-06
7.30332e-07
-2.11881e-06
1.17377e-06
-1.00734e-06
1.34355e-06
-2.92031e-09
1.28863e-06
6.59458e-07
1.11936e-06
9.79291e-07
8.93825e-07
1.09985e-06
6.53853e-07
1.08921e-06
4.3038e-07
9.83923e-07
2.44693e-07
8.08825e-07
1.08975e-07
5.88555e-07
2.7724e-08
3.49948e-07
1.17644e-07
-2.90972e-08
9.26539e-08
-1.15719e-07
2.83398e-07
-2.60207e-07
4.83224e-07
-4.55541e-07
6.64844e-07
-6.88483e-07
8.01028e-07
-9.43407e-07
8.76597e-07
-1.2069e-06
8.96145e-07
-1.4707e-06
8.8162e-07
-1.73172e-06
8.60843e-07
-1.98972e-06
8.53629e-07
-2.24405e-06
8.62001e-07
-2.49005e-06
8.65971e-07
-2.71511e-06
8.21694e-07
-2.89406e-06
6.54388e-07
-2.9824e-06
2.40744e-07
-2.90509e-06
-6.25447e-07
-2.58476e-06
-1.96313e-06
-2.07504e-06
-3.09249e-06
-1.4542e-06
-3.67158e-06
-7.70713e-07
-3.56305e-06
-6.434e-08
-2.82519e-06
5.50878e-07
-1.62256e-06
8.94354e-07
-3.46395e-07
9.49741e-07
6.04071e-07
8.55006e-07
1.07402e-06
6.84274e-07
1.27058e-06
4.91173e-07
1.28231e-06
3.1228e-07
1.16282e-06
1.69417e-07
9.51687e-07
7.12707e-08
6.86701e-07
1.68695e-08
4.04349e-07
1.34514e-07
-3.46736e-08
1.27327e-07
-1.38418e-07
3.87142e-07
-3.12326e-07
6.57131e-07
-5.48739e-07
9.01257e-07
-8.32488e-07
1.08478e-06
-1.14543e-06
1.18954e-06
-1.47199e-06
1.2227e-06
-1.80258e-06
1.21222e-06
-2.13357e-06
1.19183e-06
-2.46439e-06
1.18445e-06
-2.79393e-06
1.19154e-06
-3.11716e-06
1.1892e-06
-3.42139e-06
1.12593e-06
-3.68175e-06
9.14747e-07
-3.85415e-06
4.13145e-07
-3.8642e-06
-6.15404e-07
-3.625e-06
-2.20232e-06
-3.17544e-06
-3.54205e-06
-2.59198e-06
-4.25504e-06
-1.92428e-06
-4.23075e-06
-1.21874e-06
-3.53073e-06
-5.19646e-07
-2.32166e-06
4.82527e-08
-9.14294e-07
3.17758e-07
3.34567e-07
3.54959e-07
1.03682e-06
2.92115e-07
1.33342e-06
1.97035e-07
1.37739e-06
1.09405e-07
1.25045e-06
4.7573e-08
1.01352e-06
1.38388e-08
7.20435e-07
1.32753e-09
4.1686e-07
1.35841e-07
-3.92284e-08
1.66556e-07
-1.57699e-07
5.05613e-07
-3.58232e-07
8.57663e-07
-6.33849e-07
1.17687e-06
-9.6868e-07
1.41961e-06
-1.34288e-06
1.56374e-06
-1.73916e-06
1.61898e-06
-2.14706e-06
1.62012e-06
-2.56293e-06
1.6077e-06
-2.98654e-06
1.60805e-06
-3.4168e-06
1.6218e-06
-3.84814e-06
1.62055e-06
-4.26676e-06
1.54455e-06
-4.64572e-06
1.29371e-06
-4.93815e-06
7.05575e-07
-5.06839e-06
-4.85162e-07
-4.94112e-06
-2.3296e-06
-4.58255e-06
-3.90062e-06
-4.065e-06
-4.77259e-06
-3.4321e-06
-4.86365e-06
-2.71901e-06
-4.24382e-06
-1.955e-06
-3.08567e-06
-1.21977e-06
-1.64953e-06
-6.49952e-07
-2.35252e-07
-3.61352e-07
7.48223e-07
-2.31083e-07
1.20315e-06
-1.68233e-07
1.31454e-06
-1.25042e-07
1.20726e-06
-8.36219e-08
9.72099e-07
-4.38145e-08
6.80628e-07
-1.31186e-08
3.86164e-07
1.22723e-07
-4.24335e-08
2.08989e-07
-1.72249e-07
6.35428e-07
-3.95084e-07
1.0805e-06
-7.06334e-07
1.48812e-06
-1.09119e-06
1.80446e-06
-1.52942e-06
2.00196e-06
-2.00279e-06
2.09235e-06
-2.50041e-06
2.11775e-06
-3.01888e-06
2.12617e-06
-3.5582e-06
2.14737e-06
-4.11666e-06
2.18026e-06
-4.68669e-06
2.19058e-06
-5.251e-06
2.10886e-06
-5.77768e-06
1.82039e-06
-6.21515e-06
1.14305e-06
-6.4862e-06
-2.14109e-07
-6.49293e-06
-2.32287e-06
-6.2551e-06
-4.13845e-06
-5.83557e-06
-5.19212e-06
-5.26111e-06
-5.43811e-06
-4.54424e-06
-4.96068e-06
-3.70315e-06
-3.92676e-06
-2.78715e-06
-2.56553e-06
-1.87742e-06
-1.14498e-06
-1.2001e-06
7.09041e-08
-7.82287e-07
7.85336e-07
-5.10617e-07
1.04287e-06
-3.20364e-07
1.017e-06
-1.80671e-07
8.32406e-07
-8.14403e-08
5.81397e-07
-2.11909e-08
3.25915e-07
1.01532e-07
-4.39515e-08
2.52941e-07
-1.80607e-07
7.72084e-07
-4.19533e-07
1.31942e-06
-7.60495e-07
1.82909e-06
-1.19197e-06
2.23594e-06
-1.69492e-06
2.50491e-06
-2.25071e-06
2.64814e-06
-2.84768e-06
2.71472e-06
-3.48186e-06
2.76034e-06
-4.15232e-06
2.81784e-06
-4.85526e-06
2.8832e-06
-5.57949e-06
2.91481e-06
-6.30282e-06
2.83219e-06
-6.98812e-06
2.50569e-06
-7.58026e-06
1.73519e-06
-8.00079e-06
2.0642e-07
-8.15239e-06
-2.17126e-06
-8.0588e-06
-4.23204e-06
-7.7643e-06
-5.48662e-06
-7.26884e-06
-5.93357e-06
-6.55754e-06
-5.67199e-06
-5.62904e-06
-4.85526e-06
-4.51917e-06
-3.6754e-06
-3.3181e-06
-2.34604e-06
-2.16589e-06
-1.08131e-06
-1.30683e-06
-7.3716e-08
-7.52591e-07
4.88628e-07
-4.12501e-07
6.76913e-07
-2.01958e-07
6.21863e-07
-7.8813e-08
4.58252e-07
-1.74242e-08
2.64526e-07
8.41077e-08
-4.27823e-08
2.95723e-07
-1.78805e-07
9.08106e-07
-4.22772e-07
1.56339e-06
-7.81309e-07
2.18762e-06
-1.249e-06
2.70362e-06
-1.80968e-06
3.06559e-06
-2.44399e-06
3.28245e-06
-3.13763e-06
3.40836e-06
-3.8837e-06
3.50641e-06
-4.67855e-06
3.61268e-06
-5.51535e-06
3.72e-06
-6.37927e-06
3.77872e-06
-7.24424e-06
3.69716e-06
-8.07041e-06
3.33186e-06
-8.80194e-06
2.46672e-06
-9.37406e-06
7.7854e-07
-9.67895e-06
-1.86637e-06
-9.74621e-06
-4.16478e-06
-9.60001e-06
-5.63282e-06
-9.21002e-06
-6.32356e-06
-8.53432e-06
-6.34769e-06
-7.55654e-06
-5.83304e-06
-6.31031e-06
-4.92163e-06
-4.88818e-06
-3.76817e-06
-3.43293e-06
-2.53656e-06
-2.11486e-06
-1.39178e-06
-1.14773e-06
-4.78506e-07
-5.4467e-07
7.38524e-08
-2.19652e-07
2.96845e-07
-6.70281e-08
3.05628e-07
-9.79637e-09
2.07294e-07
7.43113e-08
-3.67476e-08
3.32471e-07
-1.58336e-07
1.02969e-06
-3.85933e-07
1.79099e-06
-7.36222e-07
2.53791e-06
-1.21388e-06
3.18128e-06
-1.80806e-06
3.65978e-06
-2.49778e-06
3.97216e-06
-3.26252e-06
4.1731e-06
-4.08879e-06
4.33269e-06
-4.96831e-06
4.49221e-06
-5.892e-06
4.64368e-06
-6.84399e-06
4.73072e-06
-7.7984e-06
4.65157e-06
-8.71808e-06
4.25155e-06
-9.55524e-06
3.30388e-06
-1.02603e-05
1.48362e-06
-1.07221e-05
-1.4046e-06
-1.09639e-05
-3.92293e-06
-1.09989e-05
-5.59786e-06
-1.07679e-05
-6.5546e-06
-1.02027e-05
-6.91288e-06
-9.27084e-06
-6.76487e-06
-7.99961e-06
-6.19285e-06
-6.48055e-06
-5.28724e-06
-4.85792e-06
-4.15919e-06
-3.30377e-06
-2.94593e-06
-1.97727e-06
-1.805e-06
-1.01697e-06
-8.86449e-07
-4.36893e-07
-2.83234e-07
-1.41646e-07
1.03814e-08
-2.38663e-08
8.95141e-08
5.0445e-08
-2.3021e-08
3.55492e-07
-1.07792e-07
1.11447e-06
-2.82559e-07
1.96576e-06
-5.77257e-07
2.83261e-06
-1.01225e-06
3.61627e-06
-1.58715e-06
4.23468e-06
-2.28015e-06
4.66517e-06
-3.06053e-06
4.95348e-06
-3.90286e-06
5.17502e-06
-4.79178e-06
5.38113e-06
-5.71745e-06
5.56936e-06
-6.66794e-06
5.6812e-06
-7.62452e-06
5.60814e-06
-8.56096e-06
5.18799e-06
-9.44557e-06
4.18849e-06
-1.02462e-05
2.28426e-06
-1.08438e-05
-8.07012e-07
-1.12719e-05
-3.4948e-06
-1.15421e-05
-5.32772e-06
-1.15685e-05
-6.52818e-06
-1.12511e-05
-7.23028e-06
-1.05269e-05
-7.48908e-06
-9.39608e-06
-7.32365e-06
-7.92806e-06
-6.75526e-06
-6.2519e-06
-5.83534e-06
-4.53778e-06
-4.66005e-06
-2.96945e-06
-3.37334e-06
-1.70262e-06
-2.15328e-06
-8.17768e-07
-1.16809e-06
-2.99971e-07
-5.07416e-07
-6.02161e-08
-1.5024e-07
-9.77109e-09
-1.0903e-09
3.56582e-07
-2.34372e-08
1.13681e-06
-9.87619e-08
2.04108e-06
-2.68817e-07
3.00267e-06
-5.74687e-07
3.92214e-06
-1.03751e-06
4.69749e-06
-1.64111e-06
5.26877e-06
-2.34465e-06
5.65702e-06
-3.10523e-06
5.9356e-06
-3.89414e-06
6.17004e-06
-4.69911e-06
6.37432e-06
-5.51554e-06
6.49764e-06
-6.33962e-06
6.43222e-06
-7.16741e-06
6.01578e-06
-7.99882e-06
5.0199e-06
-8.83495e-06
3.12039e-06
-9.54403e-06
-9.79265e-08
-1.01593e-05
-2.87956e-06
-1.07348e-05
-4.75219e-06
-1.11616e-05
-6.10135e-06
-1.12963e-05
-7.09563e-06
-1.1019e-05
-7.76638e-06
-1.02703e-05
-8.07237e-06
-9.06901e-06
-7.95652e-06
-7.50969e-06
-7.39467e-06
-5.74968e-06
-6.42006e-06
-3.98888e-06
-5.13413e-06
-2.43541e-06
-3.70675e-06
-1.25034e-06
-2.35315e-06
-4.90353e-07
-1.2674e-06
-1.0578e-07
-5.34814e-07
-1.15551e-07
2.2328e-08
3.34254e-07
7.1201e-08
1.08794e-06
1.19479e-07
1.9928e-06
1.25447e-07
2.9967e-06
3.91947e-08
4.0084e-06
-1.79994e-07
4.91668e-06
-5.40627e-07
5.6294e-06
-1.01075e-06
6.12714e-06
-1.53296e-06
6.45782e-06
-2.05389e-06
6.69097e-06
-2.5548e-06
6.87523e-06
-3.03166e-06
6.9745e-06
-3.48952e-06
6.89009e-06
-3.93856e-06
6.46481e-06
-4.39482e-06
5.47615e-06
-4.90353e-06
3.6291e-06
-5.50946e-06
5.08006e-07
-6.19857e-06
-2.19044e-06
-6.99967e-06
-3.95109e-06
-7.8288e-06
-5.27223e-06
-8.53787e-06
-6.38655e-06
-8.95358e-06
-7.35067e-06
-8.92846e-06
-8.09749e-06
-8.39556e-06
-8.48942e-06
-7.37837e-06
-8.41186e-06
-5.98542e-06
-7.81301e-06
-4.39646e-06
-6.7231e-06
-2.83701e-06
-5.2662e-06
-1.53081e-06
-3.65936e-06
-6.25549e-07
-2.17267e-06
-1.40458e-07
-1.01991e-06
-2.56008e-07
3.57384e-08
2.98516e-07
1.29466e-07
9.94212e-07
2.61975e-07
1.86029e-06
3.99021e-07
2.85965e-06
4.95665e-07
3.91175e-06
5.07413e-07
4.90493e-06
4.06087e-07
5.73073e-06
2.01987e-07
6.33124e-06
-5.65634e-08
6.71637e-06
-3.08183e-07
6.94259e-06
-5.12493e-07
7.07954e-06
-6.5675e-07
7.11876e-06
-7.49337e-07
6.98267e-06
-8.1144e-07
6.52692e-06
-8.69684e-07
5.5344e-06
-9.46822e-07
3.70624e-06
-1.24316e-06
8.04342e-07
-1.80268e-06
-1.63092e-06
-2.54474e-06
-3.20903e-06
-3.43997e-06
-4.377e-06
-4.42108e-06
-5.40544e-06
-5.33485e-06
-6.4369e-06
-5.96866e-06
-7.46368e-06
-6.17213e-06
-8.28595e-06
-5.88124e-06
-8.70275e-06
-5.12458e-06
-8.56967e-06
-4.01889e-06
-7.82879e-06
-2.75479e-06
-6.53029e-06
-1.56663e-06
-4.84751e-06
-6.66404e-07
-3.0729e-06
-1.54296e-07
-1.53201e-06
-4.10304e-07
4.05789e-08
2.57937e-07
1.54929e-07
8.79862e-07
3.32215e-07
1.68301e-06
5.45894e-07
2.64597e-06
7.56413e-07
3.70123e-06
9.20404e-07
4.74094e-06
1.00509e-06
5.64604e-06
1.00631e-06
6.33002e-06
9.54531e-07
6.76814e-06
9.01911e-07
6.99521e-06
9.0424e-07
7.07721e-06
9.86746e-07
7.03625e-06
1.14296e-06
6.82646e-06
1.34101e-06
6.32887e-06
1.52827e-06
5.34714e-06
1.63024e-06
3.60427e-06
1.4447e-06
9.89884e-07
9.78554e-07
-1.16477e-06
3.53492e-07
-2.58397e-06
-4.26659e-07
-3.59685e-06
-1.37343e-06
-4.45867e-06
-2.42885e-06
-5.38148e-06
-3.41056e-06
-6.48197e-06
-4.10736e-06
-7.58916e-06
-4.38041e-06
-8.4297e-06
-4.1769e-06
-8.77317e-06
-3.5391e-06
-8.46659e-06
-2.60016e-06
-7.46923e-06
-1.57204e-06
-5.87563e-06
-7.01459e-07
-3.94348e-06
-1.68045e-07
-2.06543e-06
-5.78349e-07
3.90214e-08
2.18915e-07
1.54521e-07
7.64362e-07
3.43763e-07
1.49377e-06
5.89222e-07
2.40051e-06
8.59264e-07
3.43119e-06
1.11555e-06
4.48465e-06
1.32575e-06
5.43584e-06
1.47836e-06
6.17742e-06
1.59061e-06
6.65589e-06
1.70328e-06
6.88253e-06
1.86626e-06
6.91423e-06
2.10898e-06
6.79353e-06
2.42715e-06
6.50829e-06
2.78185e-06
5.97416e-06
3.09941e-06
5.02958e-06
3.25424e-06
3.44944e-06
3.07509e-06
1.16903e-06
2.63005e-06
-7.19726e-07
2.05114e-06
-2.00506e-06
1.38029e-06
-2.926e-06
5.93989e-07
-3.67236e-06
-3.44451e-07
-4.44304e-06
-1.403e-06
-5.42341e-06
-2.35538e-06
-6.63678e-06
-3.01092e-06
-7.77417e-06
-3.2432e-06
-8.54089e-06
-3.01919e-06
-8.6906e-06
-2.40278e-06
-8.08565e-06
-1.55893e-06
-6.71948e-06
-7.36757e-07
-4.76565e-06
-1.83376e-07
-2.61881e-06
-7.61725e-07
3.33622e-08
1.85553e-07
1.36273e-07
6.61451e-07
3.12611e-07
1.31743e-06
5.54246e-07
2.15888e-06
8.39752e-07
3.14569e-06
1.13971e-06
4.1847e-06
1.42718e-06
5.14837e-06
1.68938e-06
5.91523e-06
1.93433e-06
6.41093e-06
2.18864e-06
6.62822e-06
2.48731e-06
6.61556e-06
2.85254e-06
6.4283e-06
3.27785e-06
6.08299e-06
3.72135e-06
5.53066e-06
4.10095e-06
4.64998e-06
4.27948e-06
3.27091e-06
4.11581e-06
1.3327e-06
3.68703e-06
-2.90944e-07
3.10907e-06
-1.42711e-06
2.44904e-06
-2.26597e-06
1.7484e-06
-2.97173e-06
9.87483e-07
-3.68212e-06
8.25633e-08
-4.51849e-06
-9.17061e-07
-5.63715e-06
-1.79021e-06
-6.90103e-06
-2.34513e-06
-7.98597e-06
-2.47565e-06
-8.56008e-06
-2.17048e-06
-8.39081e-06
-1.53036e-06
-7.3596e-06
-7.77028e-07
-5.51898e-06
-2.03398e-07
-3.19244e-06
-9.65122e-07
2.50262e-08
1.60527e-07
1.05598e-07
5.80878e-07
2.50402e-07
1.17263e-06
4.60714e-07
1.94857e-06
7.27495e-07
2.8789e-06
1.03385e-06
3.87834e-06
1.36239e-06
4.81983e-06
1.70299e-06
5.57462e-06
2.05664e-06
6.05729e-06
2.43405e-06
6.25082e-06
2.85055e-06
6.19906e-06
3.31402e-06
5.96483e-06
3.81216e-06
5.58485e-06
4.30306e-06
5.03975e-06
4.70728e-06
4.24577e-06
4.89851e-06
3.07968e-06
4.76888e-06
1.46232e-06
4.38531e-06
9.26272e-08
3.84221e-06
-8.83998e-07
3.20634e-06
-1.6301e-06
2.52716e-06
-2.29255e-06
1.82846e-06
-2.98342e-06
1.10121e-06
-3.79125e-06
2.43876e-07
-4.77982e-06
-6.81457e-07
-5.97569e-06
-1.45756e-06
-7.20986e-06
-1.88896e-06
-8.12869e-06
-1.88548e-06
-8.39429e-06
-1.47171e-06
-7.77336e-06
-8.16815e-07
-6.17388e-06
-2.29442e-07
-3.77981e-06
-1.19456e-06
1.42654e-08
1.46262e-07
6.38899e-08
5.31254e-07
1.61609e-07
1.07491e-06
3.19603e-07
1.79057e-06
5.44145e-07
2.65436e-06
8.33018e-07
3.58947e-06
1.18023e-06
4.47262e-06
1.57914e-06
5.17571e-06
2.02332e-06
5.61311e-06
2.50618e-06
5.76795e-06
3.02207e-06
5.68318e-06
3.56277e-06
5.42412e-06
4.1094e-06
5.03822e-06
4.62246e-06
4.52669e-06
5.03218e-06
3.83604e-06
5.23384e-06
2.87802e-06
5.15262e-06
1.54354e-06
4.8394e-06
4.05849e-07
4.36341e-06
-4.08013e-07
3.79342e-06
-1.0601e-06
3.17014e-06
-1.66927e-06
2.52055e-06
-2.33384e-06
1.85204e-06
-3.12273e-06
1.13973e-06
-4.06751e-06
3.1801e-07
-5.15397e-06
-5.4883e-07
-6.34302e-06
-1.22929e-06
-7.44823e-06
-1.52067e-06
-8.10291e-06
-1.36048e-06
-7.93355e-06
-8.44398e-07
-6.68997e-06
-2.62271e-07
-4.36194e-06
-1.45684e-06
-6.74097e-10
1.46936e-07
6.05167e-09
5.24528e-07
4.05265e-08
1.04043e-06
1.31868e-07
1.69923e-06
3.04664e-07
2.48157e-06
5.68611e-07
3.32552e-06
9.26649e-07
4.11458e-06
1.37379e-06
4.72857e-06
1.89418e-06
5.09271e-06
2.46334e-06
5.1988e-06
3.05676e-06
5.08975e-06
3.65311e-06
4.82778e-06
4.22908e-06
4.46225e-06
4.75002e-06
4.00576e-06
5.15958e-06
3.42648e-06
5.37732e-06
2.66028e-06
5.3477e-06
1.57316e-06
5.11922e-06
6.34331e-07
4.74884e-06
-3.76343e-08
4.28755e-06
-5.98806e-07
3.76215e-06
-1.14388e-06
3.19147e-06
-1.76316e-06
2.58075e-06
-2.512e-06
1.92065e-06
-3.40741e-06
1.19183e-06
-4.42516e-06
3.62144e-07
-5.51333e-06
-4.72265e-07
-6.61382e-06
-1.05022e-06
-7.52495e-06
-1.17351e-06
-7.81027e-06
-8.45291e-07
-7.01818e-06
-3.02053e-07
-4.90518e-06
-1.75889e-06
-2.24349e-08
1.69371e-07
-7.37316e-08
5.75825e-07
-1.17351e-07
1.08405e-06
-1.00696e-07
1.68258e-06
2.27086e-08
2.35816e-06
2.7131e-07
3.07692e-06
6.44982e-07
3.74091e-06
1.1372e-06
4.23635e-06
1.72099e-06
4.50892e-06
2.35541e-06
4.56438e-06
3.0028e-06
4.44236e-06
3.63445e-06
4.19613e-06
4.22672e-06
3.86998e-06
4.75208e-06
3.4804e-06
5.16924e-06
3.00933e-06
5.42134e-06
2.40818e-06
5.46527e-06
1.52923e-06
5.34757e-06
7.52029e-07
5.10408e-06
2.0585e-07
4.76756e-06
-2.62277e-07
4.36284e-06
-7.3916e-07
3.89451e-06
-1.29483e-06
3.35673e-06
-1.97422e-06
2.73846e-06
-2.78914e-06
2.03102e-06
-3.71771e-06
1.23417e-06
-4.71649e-06
3.56995e-07
-5.73665e-06
-4.52393e-07
-6.71556e-06
-8.8879e-07
-7.37387e-06
-8.02869e-07
-7.1041e-06
-3.46028e-07
-5.36202e-06
-2.10492e-06
-5.84169e-08
2.27788e-07
-1.86978e-07
7.04386e-07
-3.14967e-07
1.21204e-06
-3.65005e-07
1.73261e-06
-2.78896e-07
2.27205e-06
-2.66658e-08
2.82469e-06
3.76857e-07
3.33739e-06
9.1532e-07
3.69789e-06
1.55056e-06
3.87368e-06
2.23029e-06
3.88465e-06
2.91188e-06
3.76077e-06
3.56591e-06
3.54209e-06
4.17223e-06
3.26366e-06
4.71172e-06
2.9409e-06
5.15715e-06
2.5639e-06
5.47026e-06
2.09507e-06
5.60898e-06
1.39051e-06
5.60466e-06
7.56342e-07
5.49031e-06
3.20206e-07
5.28793e-06
-5.99041e-08
5.01072e-06
-4.61942e-07
4.65125e-06
-9.35367e-07
4.19343e-06
-1.51641e-06
3.62026e-06
-2.21597e-06
2.92311e-06
-3.02056e-06
2.1089e-06
-3.90227e-06
1.20374e-06
-4.83149e-06
2.64144e-07
-5.77597e-06
-4.81271e-07
-6.62845e-06
-6.94696e-07
-6.89068e-06
-3.84477e-07
-5.67224e-06
-2.48939e-06
-1.19063e-07
3.4685e-07
-3.43405e-07
9.28728e-07
-5.45012e-07
1.41365e-06
-6.29779e-07
1.81738e-06
-5.45923e-07
2.1882e-06
-2.74824e-07
2.55359e-06
1.73575e-07
2.88899e-06
7.64594e-07
3.10687e-06
1.44222e-06
3.19605e-06
2.15426e-06
3.17261e-06
2.86147e-06
3.05357e-06
3.53835e-06
2.86521e-06
4.16968e-06
2.63233e-06
4.74313e-06
2.36746e-06
5.2411e-06
2.06592e-06
5.63563e-06
1.70055e-06
5.87596e-06
1.15018e-06
5.97809e-06
6.54214e-07
5.97935e-06
3.18953e-07
5.89415e-06
2.52952e-08
5.72478e-06
-2.92574e-07
5.45873e-06
-6.69317e-07
5.07364e-06
-1.13132e-06
4.54694e-06
-1.68926e-06
3.86534e-06
-2.33897e-06
3.03287e-06
-3.0698e-06
2.07565e-06
-3.87427e-06
1.05012e-06
-4.75044e-06
8.22328e-08
-5.66057e-06
-4.87609e-07
-6.32084e-06
-3.97533e-07
-5.76231e-06
-2.88693e-06
-2.12425e-07
5.59276e-07
-5.32466e-07
1.24877e-06
-7.64825e-07
1.64601e-06
-8.26724e-07
1.87928e-06
-6.94838e-07
2.05631e-06
-3.69093e-07
2.22785e-06
1.41991e-07
2.3779e-06
7.88468e-07
2.46039e-06
1.50403e-06
2.48049e-06
2.24633e-06
2.43031e-06
2.98285e-06
2.31705e-06
3.69228e-06
2.15578e-06
4.36196e-06
1.96265e-06
4.98183e-06
1.74759e-06
5.53784e-06
1.50991e-06
6.00527e-06
1.23313e-06
6.32379e-06
8.31657e-07
6.50138e-06
4.76626e-07
6.58086e-06
2.39468e-07
6.57479e-06
3.13724e-08
6.47922e-06
-1.97004e-07
6.27938e-06
-4.69479e-07
5.95186e-06
-8.03804e-07
5.47163e-06
-1.20903e-06
4.81977e-06
-1.68711e-06
3.99105e-06
-2.24108e-06
3.00061e-06
-2.88382e-06
1.89205e-06
-3.64188e-06
7.64197e-07
-4.53271e-06
-1.32569e-07
-5.42407e-06
-3.54685e-07
-5.5402e-06
-3.24161e-06
-3.30107e-07
8.89383e-07
-6.99536e-07
1.6182e-06
-8.61478e-07
1.80795e-06
-8.02549e-07
1.82035e-06
-5.495e-07
1.80326e-06
-1.13082e-07
1.79143e-06
4.82904e-07
1.78192e-06
1.17841e-06
1.76488e-06
1.92892e-06
1.72999e-06
2.69984e-06
1.65938e-06
3.46314e-06
1.55375e-06
4.19875e-06
1.42016e-06
4.89297e-06
1.26843e-06
5.53443e-06
1.10614e-06
6.10962e-06
9.34712e-07
6.59623e-06
7.4651e-07
6.93478e-06
4.93108e-07
7.13477e-06
2.76637e-07
7.24116e-06
1.33083e-07
7.26721e-06
5.31438e-09
7.20726e-06
-1.37047e-07
7.04601e-06
-3.08234e-07
6.76238e-06
-5.20167e-07
6.33203e-06
-7.78684e-07
5.73248e-06
-1.08756e-06
4.94772e-06
-1.45633e-06
3.9738e-06
-1.90991e-06
2.82892e-06
-2.497e-06
1.57887e-06
-3.28266e-06
4.08275e-07
-4.25348e-06
-2.15355e-07
-4.91657e-06
-3.45697e-06
-4.45776e-07
1.33516e-06
-6.89689e-07
1.86211e-06
-5.75777e-07
1.69404e-06
-2.43157e-07
1.48773e-06
2.31914e-07
1.32819e-06
8.18845e-07
1.2045e-06
1.48881e-06
1.11195e-06
2.21573e-06
1.03796e-06
2.97383e-06
9.71888e-07
3.73486e-06
8.98344e-07
4.47456e-06
8.14059e-07
5.17379e-06
7.20931e-07
5.81862e-06
6.23606e-07
6.39851e-06
5.26251e-07
6.90343e-06
4.29787e-07
7.31864e-06
3.31301e-07
7.60084e-06
2.10911e-07
7.76525e-06
1.1222e-07
7.85245e-06
4.58881e-08
7.87221e-06
-1.44458e-08
7.81868e-06
-8.35144e-08
7.67981e-06
-1.69363e-07
7.43725e-06
-2.77614e-07
7.06951e-06
-4.10939e-07
6.55413e-06
-5.72181e-07
5.86823e-06
-7.70421e-07
4.98846e-06
-1.03014e-06
3.89473e-06
-1.40327e-06
2.59091e-06
-1.97884e-06
1.18954e-06
-2.85211e-06
1.16479e-07
-3.84351e-06
-3.34049e-06
-3.755e-07
1.71066e-06
1.61917e-08
1.47042e-06
7.18432e-07
9.91796e-07
1.42041e-06
7.85753e-07
2.11102e-06
6.37579e-07
2.79847e-06
5.17051e-07
3.48129e-06
4.29132e-07
4.15418e-06
3.65074e-07
4.81004e-06
3.16022e-07
5.43509e-06
2.73302e-07
6.01556e-06
2.3358e-07
6.54044e-06
1.96051e-07
7.00281e-06
1.61241e-07
7.39937e-06
1.29687e-07
7.72827e-06
1.00891e-07
7.98584e-06
7.37323e-08
8.1527e-06
4.40515e-08
8.24433e-06
2.05908e-08
8.2863e-06
3.91574e-09
8.28394e-06
-1.20883e-08
8.23211e-06
-3.16808e-08
8.12048e-06
-5.77354e-08
7.9345e-06
-9.16315e-08
7.65756e-06
-1.33997e-07
7.27136e-06
-1.85981e-07
6.75314e-06
-2.52209e-07
6.06938e-06
-3.46378e-07
5.16722e-06
-5.0111e-07
3.97069e-06
-7.82308e-07
2.42032e-06
-1.30173e-06
7.47021e-07
-2.17021e-06
-2.59347e-06
1.71066e-06
3.18108e-06
4.17287e-06
4.95863e-06
5.59621e-06
6.11326e-06
6.54239e-06
6.90746e-06
7.22349e-06
7.49679e-06
7.73037e-06
7.92642e-06
8.08766e-06
8.21735e-06
8.31824e-06
8.39197e-06
8.43602e-06
8.45661e-06
8.46053e-06
8.44844e-06
8.41676e-06
8.35902e-06
8.26739e-06
8.1334e-06
7.94741e-06
7.69521e-06
7.34883e-06
6.84772e-06
6.06541e-06
4.76368e-06
2.59347e-06
)
;

boundaryField
{
    movingWall
    {
        type            calculated;
        value           uniform 0;
    }
    fixedWalls
    {
        type            calculated;
        value           uniform 0;
    }
    floor
    {
        type            calculated;
        value           uniform 0;
    }
    frontAndBack
    {
        type            empty;
        value           nonuniform List<scalar> 0();
    }
}


// ************************************************************************* //
