/*--------------------------------*- C++ -*----------------------------------*\
| =========                 |                                                 |
| \\      /  F ield         | OpenFOAM: The Open Source CFD Toolbox           |
|  \\    /   O peration     | Version:  2212                                  |
|   \\  /    A nd           | Website:  www.openfoam.com                      |
|    \\/     M anipulation  |                                                 |
\*---------------------------------------------------------------------------*/
FoamFile
{
    version     2.0;
    format      ascii;
    arch        "LSB;label=64;scalar=64";
    class       volScalarField;
    location    "160";
    object      p_rgh;
}
// * * * * * * * * * * * * * * * * * * * * * * * * * * * * * * * * * * * * * //

dimensions      [0 2 -2 0 0 0 0];

internalField   nonuniform List<scalar> 
1024
(
0.0432021
0.0431886
0.0431803
0.0431844
0.0432033
0.0432463
0.0433308
0.043482
0.0437285
0.0440756
0.0444444
0.0446905
0.044628
0.0443166
0.043779
0.0431612
0.0426475
0.0423289
0.0421586
0.0420768
0.0420465
0.0420451
0.0420587
0.0420782
0.0420979
0.0421141
0.0421246
0.0421292
0.0421302
0.0421316
0.0421353
0.0421394
0.0432549
0.0432424
0.043239
0.0432488
0.0432721
0.0433183
0.043406
0.0435611
0.0438133
0.0441664
0.0445389
0.0447851
0.044721
0.0444058
0.0438617
0.0432356
0.0427146
0.0423902
0.0422151
0.0421292
0.0420953
0.0420906
0.0421012
0.0421178
0.0421348
0.0421484
0.0421564
0.0421585
0.0421569
0.0421558
0.0421579
0.0421619
0.0433293
0.04332
0.0433304
0.043358
0.043397
0.0434566
0.0435564
0.0437232
0.0439874
0.0443463
0.0447194
0.0449632
0.0449058
0.0445915
0.044042
0.0434045
0.0428675
0.0425301
0.042344
0.0422485
0.0422059
0.0421935
0.0421971
0.0422075
0.0422187
0.0422269
0.0422291
0.0422244
0.0422151
0.0422068
0.0422053
0.0422095
0.0433732
0.043374
0.0434131
0.0434768
0.0435488
0.0436348
0.0437543
0.0439322
0.0441962
0.0445413
0.0448967
0.0451301
0.0451012
0.0448105
0.04428
0.0436511
0.043106
0.0427558
0.0425557
0.0424464
0.0423908
0.0423662
0.0423587
0.0423589
0.0423609
0.0423601
0.0423524
0.0423349
0.0423101
0.0422873
0.0422777
0.0422814
0.043325
0.043345
0.0434315
0.0435544
0.0436794
0.0438033
0.0439411
0.0441152
0.0443496
0.0446555
0.0449772
0.0451968
0.0452105
0.0449647
0.0444853
0.0439043
0.0433878
0.0430435
0.0428382
0.0427186
0.04265
0.0426114
0.0425899
0.0425767
0.0425658
0.0425517
0.0425283
0.0424903
0.04244
0.0423917
0.0423661
0.0423666
0.0431444
0.0431889
0.0433388
0.0435432
0.0437397
0.0439072
0.0440547
0.044205
0.0443884
0.0446461
0.0449357
0.0451471
0.0451991
0.0449992
0.044583
0.0440777
0.0436366
0.0433329
0.0431463
0.0430319
0.0429594
0.0429113
0.0428768
0.0428489
0.0428216
0.0427887
0.0427418
0.042673
0.0425842
0.0424964
0.0424435
0.0424362
0.0428305
0.0428989
0.043118
0.0434183
0.0436991
0.0439123
0.0440601
0.0441752
0.0443075
0.0445257
0.0447979
0.0450111
0.0450889
0.0449222
0.0445592
0.0441286
0.0437757
0.0435479
0.0434124
0.0433286
0.0432709
0.0432254
0.0431846
0.0431436
0.0430973
0.0430388
0.0429577
0.0428439
0.0426996
0.0425553
0.0424622
0.0424417
0.0424157
0.0425015
0.0427819
0.0431799
0.0435507
0.043811
0.0439567
0.0440376
0.0441296
0.0443236
0.0445962
0.0448206
0.0449122
0.0447661
0.0444401
0.0440669
0.0437892
0.0436454
0.043581
0.0435508
0.0435286
0.0435021
0.0434657
0.043416
0.0433488
0.0432566
0.0431275
0.0429502
0.0427299
0.0425101
0.0423646
0.0423262
0.0419485
0.0420417
0.0423614
0.042843
0.0433026
0.0436138
0.0437631
0.0438173
0.0438778
0.0440636
0.0443537
0.0445965
0.044691
0.0445554
0.0442541
0.0439223
0.0437008
0.0436264
0.0436325
0.0436649
0.0436919
0.0436979
0.0436762
0.0436228
0.0435328
0.0433981
0.0432054
0.0429433
0.042624
0.0423108
0.0421041
0.0420456
0.0414891
0.0415763
0.0418973
0.0424313
0.0429694
0.0433395
0.0435044
0.043541
0.0435737
0.0437723
0.0440929
0.0443556
0.0444425
0.044305
0.0440176
0.0437172
0.043539
0.0435163
0.0435795
0.0436692
0.0437468
0.0437911
0.04379
0.0437359
0.0436212
0.043435
0.0431625
0.0427939
0.042354
0.0419341
0.0416639
0.0415868
0.0411122
0.0411867
0.0414736
0.0419843
0.0425637
0.0430117
0.0432116
0.0432429
0.0432558
0.0434991
0.0438532
0.0441259
0.0441888
0.0440291
0.0437413
0.043464
0.0433224
0.0433399
0.043447
0.0435824
0.0437035
0.0437831
0.0438028
0.0437483
0.0436061
0.0433603
0.042993
0.0424984
0.041921
0.0413895
0.0410619
0.0409704
0.0409002
0.0409581
0.0411932
0.0416383
0.0421794
0.0426354
0.0428859
0.0429496
0.0430232
0.0433214
0.0437098
0.04396
0.0439623
0.0437474
0.0434382
0.0431733
0.0430636
0.0431158
0.0432587
0.0434297
0.0435847
0.0436928
0.0437292
0.0436719
0.0434987
0.0431856
0.04271
0.0420735
0.0413499
0.0407128
0.0403412
0.0402417
0.0409253
0.0409637
0.0411366
0.0414905
0.0419519
0.0423717
0.0426354
0.0427593
0.0429852
0.0433837
0.0437629
0.0439201
0.0437991
0.0434835
0.0431268
0.0428625
0.0427796
0.0428633
0.0430391
0.04324
0.0434211
0.0435499
0.0435969
0.0435323
0.043323
0.0429335
0.0423364
0.041546
0.0406773
0.0399528
0.0395572
0.0394553
0.0412126
0.0412302
0.0413387
0.0415927
0.0419577
0.0423259
0.0426107
0.042875
0.0433121
0.0437856
0.044069
0.0440343
0.0437154
0.0432543
0.04283
0.042561
0.042504
0.0426166
0.0428256
0.0430526
0.0432527
0.0433938
0.043443
0.0433624
0.0431065
0.0426266
0.0418912
0.0409383
0.0399383
0.0391583
0.0387669
0.038671
0.0417168
0.0417154
0.0417654
0.0419258
0.0422011
0.0425385
0.0429139
0.0434807
0.0441002
0.0445191
0.0445709
0.0442445
0.0436792
0.0430598
0.0425728
0.0423106
0.0422945
0.0424444
0.0426844
0.0429258
0.0431311
0.0432701
0.0433059
0.0431912
0.0428637
0.0422634
0.0413616
0.0402331
0.0391577
0.0384023
0.0380425
0.0379557
0.042394
0.042382
0.0423987
0.0425084
0.0427653
0.0432086
0.0439432
0.0447215
0.0452576
0.0453867
0.0450666
0.0444001
0.04362
0.0428982
0.0423895
0.0421543
0.0422064
0.0424375
0.0426826
0.0429082
0.0430925
0.0432019
0.043191
0.0429895
0.0424976
0.0417007
0.0406411
0.0394757
0.0384593
0.0377866
0.0374777
0.037403
0.0432297
0.0432275
0.0432705
0.0434428
0.043854
0.0446149
0.04552
0.0461491
0.0463024
0.0459835
0.0452847
0.044369
0.0435361
0.0428312
0.0423223
0.0420781
0.0421758
0.0424962
0.0427276
0.0429052
0.0430222
0.043034
0.042883
0.0425087
0.0418692
0.0409826
0.0399356
0.0388888
0.0380347
0.0374946
0.0372525
0.0371918
0.0441842
0.0442139
0.0443451
0.0446768
0.0453138
0.0462183
0.0469002
0.0470851
0.0467226
0.0460537
0.0452678
0.0444485
0.0436397
0.0428938
0.0422894
0.041925
0.0419203
0.0422188
0.0424866
0.0426054
0.0426201
0.0425105
0.0422458
0.0417999
0.0411661
0.0403759
0.0395125
0.0387008
0.0380698
0.0376867
0.0375216
0.0374804
0.0450436
0.0451169
0.0453629
0.0458634
0.0465853
0.0472254
0.0474832
0.0472918
0.0468124
0.046194
0.0454961
0.0447344
0.0439255
0.0431078
0.0423504
0.041758
0.0414819
0.0415776
0.0417841
0.0418573
0.0418155
0.0416692
0.0414167
0.0410517
0.0405761
0.0400148
0.0394295
0.0389098
0.0385439
0.0383725
0.0383556
0.038388
0.0455821
0.045685
0.0459985
0.0465625
0.0472313
0.0476761
0.0477158
0.0474697
0.0470587
0.0465459
0.0459494
0.0452631
0.0444852
0.0436281
0.0427318
0.0418814
0.0412278
0.0409509
0.0409622
0.0409967
0.040956
0.0408605
0.0407266
0.0405582
0.0403568
0.0401413
0.039964
0.0399158
0.0400926
0.0405307
0.0411193
0.0414481
0.0457684
0.0458825
0.0462141
0.0467888
0.0474463
0.047905
0.048013
0.0478229
0.0474801
0.0470818
0.0466086
0.046043
0.0453691
0.0445733
0.043659
0.0426699
0.0417181
0.0410553
0.0407948
0.040762
0.0407637
0.0408106
0.0409339
0.0411552
0.0414875
0.0419537
0.0426088
0.0435801
0.0448702
0.0459382
0.046421
0.0465388
0.0457341
0.0458455
0.0461606
0.0467142
0.0473777
0.0479117
0.0481704
0.0481743
0.0480034
0.0476913
0.0473277
0.0469097
0.0464045
0.045786
0.0450318
0.0441453
0.0431846
0.0423859
0.0419715
0.0419076
0.0420638
0.0424429
0.0430866
0.044021
0.0452336
0.0466589
0.0480141
0.0488511
0.0490916
0.0491502
0.0491327
0.0491003
0.0456328
0.0457345
0.0460102
0.0465121
0.0471612
0.0477518
0.0481294
0.0482766
0.0482561
0.0481216
0.0478856
0.0475886
0.0472543
0.0468573
0.0463693
0.0457687
0.0450613
0.0444001
0.0440084
0.0439657
0.0442797
0.0449295
0.0458942
0.0470717
0.0482354
0.0489894
0.0492893
0.0494222
0.0494696
0.0494805
0.0494771
0.0494663
0.0455489
0.0456423
0.0458839
0.0463169
0.0469008
0.0474946
0.0479574
0.0482069
0.0482804
0.048234
0.0481113
0.0479265
0.0477126
0.0474929
0.0472582
0.0469797
0.0466208
0.0462144
0.0459104
0.0458603
0.0461656
0.0467658
0.0475413
0.0482764
0.048737
0.048948
0.0490845
0.0491882
0.049261
0.0493007
0.0493143
0.0493135
0.045497
0.0455826
0.0457974
0.0461759
0.0466938
0.0472464
0.0477102
0.0480071
0.0481377
0.0481389
0.0480566
0.0479358
0.0478005
0.047682
0.0476162
0.047592
0.0475594
0.0474436
0.047264
0.047174
0.047355
0.0477506
0.0482128
0.0485592
0.0486826
0.0487602
0.048855
0.0489706
0.0490826
0.0491598
0.0491895
0.0491934
0.045468
0.0455472
0.0457418
0.0460796
0.0465405
0.0470369
0.047461
0.0477452
0.0478822
0.0478975
0.0478321
0.0477301
0.0476257
0.0475739
0.047584
0.0477012
0.0478955
0.0480439
0.0480438
0.0479539
0.0480081
0.0482145
0.0484564
0.0485934
0.0486339
0.0486791
0.0487657
0.0488959
0.0490473
0.0491745
0.0492361
0.0492547
0.0454517
0.0455258
0.045708
0.0460196
0.0464349
0.0468684
0.0472258
0.0474578
0.0475626
0.0475645
0.0475026
0.0474142
0.0473322
0.0472974
0.0473475
0.0475155
0.0478122
0.0481258
0.0483014
0.048294
0.0482949
0.0483635
0.048444
0.0484981
0.0485648
0.048662
0.0488019
0.0489748
0.0491735
0.0493687
0.0494892
0.0495409
0.0454378
0.0455103
0.0456876
0.0459892
0.0463649
0.0467275
0.0470008
0.0471555
0.047204
0.0471772
0.0471103
0.0470355
0.0469792
0.0469676
0.0470379
0.0472268
0.0475485
0.0479072
0.0481757
0.0482816
0.0482871
0.048271
0.0482709
0.0483251
0.0484481
0.0486313
0.0488697
0.049147
0.0494461
0.0497359
0.0499492
0.0500614
0.0453991
0.0454845
0.0456726
0.0459666
0.0463034
0.0465861
0.0467638
0.0468325
0.0468202
0.0467624
0.0466916
0.0466348
0.0466097
0.0466319
0.046726
0.0469328
0.0472594
0.0476177
0.0479054
0.0480583
0.0480804
0.0480437
0.0480331
0.0481163
0.0482978
0.0485671
0.0489161
0.0493293
0.0497811
0.0502281
0.0505944
0.0508314
0.0452653
0.0454051
0.0456388
0.0459325
0.0462146
0.04641
0.0464953
0.0464895
0.0464293
0.0463532
0.0462901
0.0462594
0.0462707
0.046332
0.0464591
0.0466855
0.0470163
0.0473667
0.0476478
0.0478041
0.0478312
0.0477979
0.0478038
0.0479167
0.0481435
0.048479
0.0489187
0.0494569
0.0500806
0.0507573
0.0514013
0.051965
0.0448012
0.0452393
0.0455966
0.0458832
0.0460962
0.0462117
0.0462267
0.046172
0.0460883
0.0460125
0.045968
0.0459676
0.0460147
0.0461116
0.0462688
0.0465141
0.0468502
0.0471959
0.0474681
0.0476171
0.0476425
0.0476147
0.0476346
0.047765
0.0480163
0.0483871
0.0488789
0.0494992
0.0502634
0.0511981
0.0523287
0.0536058
0.043771
0.0450458
0.0455983
0.0458462
0.0460019
0.0460682
0.0460469
0.0459731
0.0458871
0.0458203
0.0457932
0.0458143
0.0458836
0.0460007
0.0461747
0.0464307
0.0467701
0.0471141
0.0473818
0.0475264
0.0475502
0.0475249
0.0475497
0.0476851
0.0479427
0.0483228
0.0488312
0.0494858
0.0503316
0.0514684
0.0531096
0.055399
)
;

boundaryField
{
    movingWall
    {
        type            fixedFluxPressure;
        gradient        uniform 0;
        value           nonuniform List<scalar> 
32
(
0.043771
0.0450458
0.0455983
0.0458462
0.0460019
0.0460682
0.0460469
0.0459731
0.0458871
0.0458203
0.0457932
0.0458143
0.0458836
0.0460007
0.0461747
0.0464307
0.0467701
0.0471141
0.0473818
0.0475264
0.0475502
0.0475249
0.0475497
0.0476851
0.0479427
0.0483228
0.0488312
0.0494858
0.0503316
0.0514684
0.0531096
0.055399
)
;
    }
    fixedWalls
    {
        type            fixedFluxPressure;
        gradient        uniform 0;
        value           nonuniform List<scalar> 
64
(
0.0432021
0.0432549
0.0433293
0.0433732
0.043325
0.0431444
0.0428305
0.0424157
0.0419485
0.0414891
0.0411122
0.0409002
0.0409253
0.0412126
0.0417168
0.042394
0.0432297
0.0441842
0.0450436
0.0455821
0.0457684
0.0457341
0.0456328
0.0455489
0.045497
0.045468
0.0454517
0.0454378
0.0453991
0.0452653
0.0448012
0.043771
0.0421394
0.0421619
0.0422095
0.0422814
0.0423666
0.0424362
0.0424417
0.0423262
0.0420456
0.0415868
0.0409704
0.0402417
0.0394553
0.038671
0.0379557
0.037403
0.0371918
0.0374804
0.038388
0.0414481
0.0465388
0.0491003
0.0494663
0.0493135
0.0491934
0.0492547
0.0495409
0.0500614
0.0508314
0.051965
0.0536058
0.055399
)
;
    }
    floor
    {
        type            fixedFluxPressure;
        gradient        uniform 0;
        value           nonuniform List<scalar> 
32
(
0.0432021
0.0431886
0.0431803
0.0431844
0.0432033
0.0432463
0.0433308
0.043482
0.0437285
0.0440756
0.0444444
0.0446905
0.044628
0.0443166
0.043779
0.0431612
0.0426475
0.0423289
0.0421586
0.0420768
0.0420465
0.0420451
0.0420587
0.0420782
0.0420979
0.0421141
0.0421246
0.0421292
0.0421302
0.0421316
0.0421353
0.0421394
)
;
    }
    frontAndBack
    {
        type            empty;
    }
}


// ************************************************************************* //
