/*--------------------------------*- C++ -*----------------------------------*\
| =========                 |                                                 |
| \\      /  F ield         | OpenFOAM: The Open Source CFD Toolbox           |
|  \\    /   O peration     | Version:  2212                                  |
|   \\  /    A nd           | Website:  www.openfoam.com                      |
|    \\/     M anipulation  |                                                 |
\*---------------------------------------------------------------------------*/
FoamFile
{
    version     2.0;
    format      ascii;
    arch        "LSB;label=64;scalar=64";
    class       volScalarField;
    location    "160";
    object      Saa;
}
// * * * * * * * * * * * * * * * * * * * * * * * * * * * * * * * * * * * * * //

dimensions      [1 -3 0 0 0 0 0];

internalField   nonuniform List<scalar> 
1024
(
0.00549693
0.00549693
0.00549694
0.00549695
0.00549697
0.005497
0.00549704
0.00549707
0.00549711
0.00549716
0.0054972
0.00549723
0.00549726
0.00549727
0.00549728
0.00549727
0.00549726
0.00549723
0.00549721
0.00549719
0.00549717
0.00549715
0.00549713
0.00549711
0.00549709
0.00549707
0.00549705
0.00549704
0.00549703
0.00549702
0.00549701
0.00549701
0.00549693
0.00549693
0.00549694
0.00549695
0.00549698
0.00549701
0.00549704
0.00549708
0.00549712
0.00549716
0.0054972
0.00549724
0.00549727
0.00549728
0.00549729
0.00549728
0.00549726
0.00549724
0.00549722
0.00549719
0.00549717
0.00549715
0.00549713
0.00549711
0.00549709
0.00549707
0.00549705
0.00549704
0.00549703
0.00549702
0.00549702
0.00549701
0.00549693
0.00549693
0.00549694
0.00549696
0.00549698
0.00549701
0.00549705
0.00549709
0.00549713
0.00549718
0.00549722
0.00549726
0.00549729
0.00549731
0.00549731
0.0054973
0.00549728
0.00549726
0.00549723
0.0054972
0.00549718
0.00549716
0.00549714
0.00549712
0.0054971
0.00549708
0.00549706
0.00549704
0.00549703
0.00549702
0.00549702
0.00549702
0.00549693
0.00549693
0.00549694
0.00549696
0.00549699
0.00549702
0.00549706
0.0054971
0.00549715
0.0054972
0.00549725
0.0054973
0.00549734
0.00549736
0.00549736
0.00549734
0.00549731
0.00549728
0.00549725
0.00549722
0.0054972
0.00549718
0.00549715
0.00549713
0.00549711
0.00549709
0.00549707
0.00549705
0.00549704
0.00549703
0.00549702
0.00549702
0.00549693
0.00549693
0.00549694
0.00549697
0.00549699
0.00549703
0.00549707
0.00549711
0.00549717
0.00549722
0.00549729
0.00549735
0.0054974
0.00549742
0.00549742
0.0054974
0.00549736
0.00549732
0.00549728
0.00549725
0.00549722
0.0054972
0.00549717
0.00549715
0.00549713
0.0054971
0.00549708
0.00549706
0.00549704
0.00549703
0.00549703
0.00549702
0.00549693
0.00549693
0.00549695
0.00549697
0.005497
0.00549703
0.00549708
0.00549712
0.00549718
0.00549725
0.00549733
0.00549741
0.00549747
0.0054975
0.0054975
0.00549747
0.00549742
0.00549737
0.00549733
0.00549729
0.00549725
0.00549722
0.0054972
0.00549717
0.00549715
0.00549712
0.00549709
0.00549707
0.00549705
0.00549704
0.00549703
0.00549703
0.00549693
0.00549693
0.00549695
0.00549697
0.005497
0.00549703
0.00549708
0.00549713
0.00549719
0.00549726
0.00549736
0.00549746
0.00549755
0.0054976
0.0054976
0.00549756
0.0054975
0.00549744
0.00549739
0.00549734
0.0054973
0.00549726
0.00549723
0.0054972
0.00549717
0.00549714
0.00549711
0.00549708
0.00549706
0.00549705
0.00549704
0.00549704
0.00549693
0.00549693
0.00549694
0.00549696
0.00549699
0.00549703
0.00549707
0.00549712
0.00549719
0.00549727
0.00549738
0.00549751
0.00549762
0.00549768
0.00549769
0.00549765
0.00549759
0.00549752
0.00549745
0.00549739
0.00549734
0.0054973
0.00549726
0.00549722
0.00549719
0.00549716
0.00549713
0.0054971
0.00549707
0.00549706
0.00549705
0.00549704
0.00549692
0.00549693
0.00549694
0.00549696
0.00549698
0.00549702
0.00549706
0.00549711
0.00549717
0.00549726
0.00549738
0.00549754
0.00549768
0.00549776
0.00549777
0.00549773
0.00549766
0.00549759
0.00549752
0.00549746
0.0054974
0.00549735
0.0054973
0.00549726
0.00549722
0.00549718
0.00549714
0.00549711
0.00549708
0.00549707
0.00549706
0.00549705
0.00549692
0.00549692
0.00549693
0.00549695
0.00549697
0.005497
0.00549703
0.00549708
0.00549714
0.00549724
0.00549739
0.00549758
0.00549774
0.00549781
0.00549781
0.00549777
0.00549771
0.00549764
0.00549758
0.00549751
0.00549745
0.00549739
0.00549734
0.00549729
0.00549724
0.0054972
0.00549716
0.00549712
0.00549709
0.00549707
0.00549706
0.00549706
0.00549691
0.00549691
0.00549692
0.00549693
0.00549695
0.00549697
0.005497
0.00549704
0.00549711
0.00549722
0.0054974
0.00549762
0.00549779
0.00549785
0.00549782
0.00549776
0.00549771
0.00549766
0.00549761
0.00549755
0.00549749
0.00549743
0.00549737
0.00549732
0.00549726
0.00549721
0.00549717
0.00549713
0.0054971
0.00549708
0.00549707
0.00549707
0.0054969
0.0054969
0.00549691
0.00549692
0.00549693
0.00549695
0.00549697
0.00549701
0.00549708
0.00549721
0.00549743
0.00549768
0.00549785
0.00549786
0.00549778
0.00549769
0.00549764
0.00549762
0.0054976
0.00549756
0.00549751
0.00549745
0.0054974
0.00549734
0.00549728
0.00549723
0.00549718
0.00549714
0.00549711
0.00549709
0.00549708
0.00549708
0.00549688
0.00549688
0.00549689
0.0054969
0.0054969
0.00549692
0.00549694
0.00549698
0.00549706
0.00549724
0.0054975
0.00549777
0.0054979
0.00549785
0.00549769
0.00549755
0.00549751
0.00549752
0.00549754
0.00549753
0.0054975
0.00549746
0.0054974
0.00549735
0.00549729
0.00549723
0.00549719
0.00549714
0.00549712
0.0054971
0.00549709
0.00549708
0.00549686
0.00549686
0.00549686
0.00549687
0.00549688
0.00549689
0.00549692
0.00549698
0.00549711
0.00549733
0.00549763
0.00549788
0.00549794
0.00549779
0.00549755
0.00549736
0.00549732
0.00549738
0.00549743
0.00549746
0.00549746
0.00549743
0.00549739
0.00549734
0.00549729
0.00549724
0.00549719
0.00549715
0.00549712
0.0054971
0.00549709
0.00549709
0.00549684
0.00549684
0.00549685
0.00549685
0.00549687
0.00549689
0.00549695
0.00549706
0.00549725
0.00549753
0.00549784
0.00549802
0.00549795
0.00549769
0.00549737
0.00549716
0.00549712
0.00549721
0.00549729
0.00549735
0.00549738
0.00549738
0.00549735
0.00549732
0.00549727
0.00549722
0.00549718
0.00549714
0.00549712
0.00549711
0.0054971
0.00549709
0.00549687
0.00549687
0.00549688
0.00549689
0.00549693
0.00549699
0.0054971
0.00549728
0.00549754
0.00549785
0.00549808
0.00549812
0.00549791
0.00549756
0.00549722
0.005497
0.00549697
0.00549706
0.00549716
0.00549723
0.00549728
0.0054973
0.0054973
0.00549728
0.00549725
0.00549721
0.00549717
0.00549714
0.00549712
0.00549711
0.0054971
0.0054971
0.00549697
0.00549698
0.005497
0.00549703
0.0054971
0.00549722
0.00549739
0.00549764
0.00549792
0.00549816
0.00549827
0.00549816
0.00549788
0.00549751
0.00549718
0.00549696
0.00549692
0.00549698
0.00549706
0.00549713
0.00549718
0.0054972
0.00549721
0.0054972
0.00549718
0.00549716
0.00549713
0.00549712
0.0054971
0.0054971
0.00549709
0.00549709
0.00549712
0.00549713
0.00549716
0.00549722
0.00549732
0.00549748
0.0054977
0.00549795
0.0054982
0.00549836
0.00549838
0.00549824
0.00549798
0.00549764
0.0054973
0.00549705
0.00549696
0.00549698
0.00549704
0.00549709
0.00549714
0.00549716
0.00549718
0.00549718
0.00549717
0.00549715
0.00549713
0.00549711
0.00549709
0.00549708
0.00549708
0.00549707
0.00549724
0.00549726
0.0054973
0.00549737
0.0054975
0.00549767
0.0054979
0.00549814
0.00549835
0.00549849
0.00549851
0.00549842
0.00549822
0.00549791
0.00549757
0.00549725
0.00549707
0.00549702
0.00549703
0.00549706
0.00549709
0.00549711
0.00549711
0.00549709
0.00549707
0.00549705
0.00549703
0.00549704
0.00549705
0.00549708
0.00549711
0.00549712
0.00549731
0.00549733
0.00549737
0.00549745
0.00549758
0.00549776
0.00549797
0.0054982
0.0054984
0.00549855
0.00549863
0.00549863
0.00549852
0.0054983
0.00549797
0.00549761
0.00549731
0.00549715
0.00549708
0.00549705
0.00549704
0.00549703
0.00549703
0.00549704
0.00549707
0.00549714
0.00549723
0.00549735
0.00549748
0.00549759
0.00549767
0.0054977
0.00549732
0.00549734
0.00549738
0.00549746
0.00549757
0.00549773
0.00549792
0.00549812
0.00549832
0.00549849
0.00549865
0.00549875
0.00549878
0.00549868
0.00549845
0.00549812
0.00549778
0.00549754
0.00549741
0.00549736
0.00549737
0.00549742
0.00549751
0.00549765
0.00549783
0.00549803
0.00549824
0.00549843
0.00549859
0.00549868
0.00549873
0.00549875
0.00549729
0.0054973
0.00549734
0.00549741
0.0054975
0.00549763
0.00549778
0.00549795
0.00549813
0.00549832
0.00549852
0.00549872
0.00549888
0.00549895
0.00549887
0.00549865
0.00549836
0.00549814
0.00549804
0.00549804
0.00549812
0.00549829
0.00549851
0.00549877
0.00549903
0.00549926
0.00549944
0.00549956
0.00549963
0.00549965
0.00549964
0.00549963
0.00549723
0.00549725
0.00549728
0.00549733
0.00549741
0.0054975
0.00549762
0.00549775
0.00549789
0.00549807
0.00549828
0.00549854
0.00549881
0.00549903
0.00549912
0.00549906
0.00549888
0.00549872
0.00549867
0.00549873
0.00549888
0.00549911
0.00549936
0.0054996
0.0054998
0.00549995
0.00550003
0.00550008
0.00550008
0.00550007
0.00550006
0.00550005
0.00549717
0.00549719
0.00549721
0.00549726
0.00549731
0.00549738
0.00549747
0.00549756
0.00549768
0.00549783
0.00549804
0.00549832
0.00549864
0.00549897
0.00549921
0.0054993
0.00549924
0.00549915
0.00549914
0.00549922
0.00549938
0.00549959
0.00549979
0.00549996
0.00550007
0.00550013
0.00550016
0.00550017
0.00550017
0.00550016
0.00550016
0.00550016
0.00549714
0.00549715
0.00549716
0.00549719
0.00549724
0.00549729
0.00549735
0.00549743
0.00549754
0.00549768
0.00549788
0.00549815
0.00549849
0.00549886
0.00549919
0.0054994
0.00549946
0.00549943
0.00549944
0.00549951
0.00549965
0.00549981
0.00549996
0.00550006
0.00550013
0.00550015
0.00550016
0.00550016
0.00550015
0.00550015
0.00550015
0.00550015
0.00549716
0.00549716
0.00549716
0.00549718
0.0054972
0.00549724
0.0054973
0.00549738
0.00549749
0.00549764
0.00549784
0.00549811
0.00549843
0.0054988
0.00549916
0.00549944
0.00549957
0.0054996
0.00549962
0.00549968
0.00549978
0.0054999
0.0055
0.00550008
0.00550012
0.00550014
0.00550014
0.00550014
0.00550013
0.00550013
0.00550013
0.00550013
0.00549728
0.00549726
0.00549725
0.00549724
0.00549725
0.00549729
0.00549736
0.00549746
0.00549759
0.00549775
0.00549796
0.0054982
0.0054985
0.00549883
0.00549917
0.00549947
0.00549964
0.00549971
0.00549974
0.00549978
0.00549985
0.00549993
0.00550001
0.00550007
0.0055001
0.00550012
0.00550012
0.00550012
0.00550011
0.0055001
0.0055001
0.0055001
0.00549751
0.00549748
0.00549745
0.00549743
0.00549744
0.00549749
0.00549757
0.00549769
0.00549783
0.005498
0.0054982
0.00549843
0.00549868
0.00549896
0.00549925
0.00549952
0.0054997
0.00549978
0.00549982
0.00549985
0.0054999
0.00549995
0.00550001
0.00550005
0.00550008
0.00550009
0.0055001
0.0055001
0.00550009
0.00550008
0.00550008
0.00550008
0.00549785
0.00549782
0.0054978
0.00549779
0.00549781
0.00549786
0.00549796
0.00549808
0.00549822
0.00549838
0.00549855
0.00549874
0.00549894
0.00549916
0.00549939
0.0054996
0.00549976
0.00549984
0.00549988
0.0054999
0.00549993
0.00549997
0.00550001
0.00550004
0.00550006
0.00550007
0.00550008
0.00550008
0.00550008
0.00550007
0.00550006
0.00550006
0.00549832
0.0054983
0.0054983
0.00549831
0.00549834
0.0054984
0.00549849
0.00549859
0.00549871
0.00549883
0.00549897
0.0054991
0.00549924
0.0054994
0.00549956
0.00549971
0.00549983
0.00549989
0.00549992
0.00549994
0.00549996
0.00549998
0.00550001
0.00550003
0.00550004
0.00550005
0.00550006
0.00550006
0.00550006
0.00550005
0.00550005
0.00550004
0.00549891
0.00549891
0.00549894
0.00549896
0.005499
0.00549904
0.0054991
0.00549917
0.00549924
0.00549932
0.0054994
0.00549948
0.00549956
0.00549965
0.00549974
0.00549983
0.0054999
0.00549994
0.00549996
0.00549997
0.00549998
0.0055
0.00550001
0.00550002
0.00550003
0.00550003
0.00550004
0.00550004
0.00550004
0.00550003
0.00550003
0.00550003
0.00549962
0.00549963
0.00549964
0.00549966
0.00549967
0.00549969
0.00549971
0.00549973
0.00549975
0.00549978
0.00549981
0.00549983
0.00549986
0.00549989
0.00549992
0.00549995
0.00549997
0.00549998
0.00549999
0.00549999
0.0055
0.0055
0.0055
0.00550001
0.00550001
0.00550001
0.00550001
0.00550001
0.00550001
0.00550001
0.00550001
0.00550001
)
;

boundaryField
{
    movingWall
    {
        type            fixedValue;
        value           uniform 0.0055;
    }
    fixedWalls
    {
        type            zeroGradient;
    }
    floor
    {
        type            zeroGradient;
    }
    frontAndBack
    {
        type            empty;
    }
}


// ************************************************************************* //
