/*--------------------------------*- C++ -*----------------------------------*\
| =========                 |                                                 |
| \\      /  F ield         | OpenFOAM: The Open Source CFD Toolbox           |
|  \\    /   O peration     | Version:  2212                                  |
|   \\  /    A nd           | Website:  www.openfoam.com                      |
|    \\/     M anipulation  |                                                 |
\*---------------------------------------------------------------------------*/
FoamFile
{
    version     2.0;
    format      ascii;
    arch        "LSB;label=64;scalar=64";
    class       volScalarField;
    location    "160";
    object      Sch4;
}
// * * * * * * * * * * * * * * * * * * * * * * * * * * * * * * * * * * * * * //

dimensions      [1 -3 0 0 0 0 0];

internalField   nonuniform List<scalar> 
1024
(
0.0438507
0.0438596
0.0438808
0.0439169
0.0439681
0.044032
0.0441043
0.0441814
0.0442609
0.0443416
0.0444205
0.0444902
0.0445384
0.0445669
0.0445727
0.0445508
0.0445045
0.0444487
0.0443937
0.0443417
0.0442923
0.0442443
0.0441963
0.0441472
0.044097
0.0440482
0.044004
0.0439676
0.0439404
0.0439224
0.0439122
0.0439079
0.0438524
0.043862
0.0438846
0.0439227
0.0439762
0.044042
0.0441156
0.0441935
0.044274
0.0443562
0.0444375
0.04451
0.0445592
0.0445876
0.0445922
0.0445685
0.04452
0.0444623
0.0444057
0.0443523
0.0443018
0.0442531
0.0442045
0.0441549
0.0441044
0.0440548
0.0440096
0.0439719
0.0439437
0.0439248
0.0439141
0.0439096
0.043856
0.0438664
0.0438912
0.0439325
0.0439895
0.0440581
0.0441339
0.044214
0.0442977
0.0443852
0.0444747
0.0445563
0.0446098
0.0446381
0.0446393
0.0446099
0.0445555
0.0444927
0.0444321
0.0443755
0.0443225
0.0442719
0.0442221
0.0441717
0.0441201
0.044069
0.0440216
0.0439815
0.0439509
0.0439303
0.0439185
0.0439137
0.0438607
0.043872
0.0438989
0.0439434
0.0440038
0.0440757
0.0441547
0.0442388
0.044329
0.0444272
0.0445328
0.0446327
0.0446972
0.0447273
0.0447225
0.0446821
0.0446159
0.0445436
0.0444756
0.0444132
0.0443558
0.0443019
0.0442498
0.0441978
0.0441447
0.0440914
0.0440408
0.0439968
0.0439626
0.0439393
0.043926
0.0439206
0.0438655
0.0438774
0.0439056
0.0439522
0.0440153
0.0440903
0.0441732
0.0442635
0.0443636
0.0444776
0.0446067
0.0447351
0.044821
0.0448584
0.0448472
0.0447906
0.0447062
0.0446186
0.0445388
0.0444673
0.0444028
0.0443436
0.0442876
0.0442328
0.0441773
0.0441212
0.0440666
0.0440178
0.0439789
0.043952
0.0439367
0.0439306
0.0438692
0.0438812
0.0439096
0.0439568
0.044021
0.0440983
0.0441855
0.0442829
0.0443945
0.0445266
0.0446841
0.04485
0.0449705
0.0450245
0.04501
0.0449356
0.0448279
0.0447198
0.0446237
0.0445392
0.0444644
0.0443972
0.0443351
0.0442757
0.0442166
0.0441566
0.0440973
0.044043
0.0439989
0.043968
0.0439504
0.0439434
0.0438709
0.0438825
0.0439099
0.0439559
0.0440195
0.0440974
0.0441873
0.0442904
0.044412
0.0445615
0.0447496
0.0449605
0.0451274
0.0452077
0.0451959
0.0451066
0.0449758
0.0448449
0.0447295
0.0446288
0.0445406
0.0444624
0.0443915
0.0443252
0.0442604
0.0441953
0.0441306
0.0440705
0.044021
0.0439861
0.0439662
0.0439585
0.0438694
0.0438804
0.0439061
0.0439492
0.0440097
0.0440855
0.0441749
0.0442799
0.0444075
0.044572
0.0447935
0.0450562
0.0452754
0.0453853
0.0453792
0.0452806
0.0451331
0.0449835
0.0448499
0.0447324
0.0446291
0.0445376
0.0444553
0.0443795
0.0443069
0.0442349
0.0441638
0.0440978
0.0440433
0.0440049
0.0439833
0.043975
0.043864
0.0438742
0.0438973
0.0439361
0.043991
0.0440611
0.0441455
0.0442472
0.0443765
0.044556
0.0448179
0.0451391
0.0454088
0.0455397
0.0455309
0.0454247
0.0452717
0.0451145
0.0449703
0.0448401
0.0447232
0.0446182
0.0445233
0.0444361
0.0443535
0.044273
0.0441947
0.0441229
0.0440642
0.0440233
0.0440005
0.0439919
0.0438533
0.0438626
0.0438828
0.0439159
0.0439629
0.0440235
0.0440982
0.0441922
0.0443216
0.0445215
0.044836
0.0452221
0.0455329
0.0456622
0.0456269
0.0455035
0.045355
0.0452076
0.0450677
0.0449352
0.0448111
0.0446959
0.0445894
0.0444907
0.0443972
0.0443072
0.0442214
0.0441444
0.0440827
0.0440404
0.0440172
0.0440085
0.0438355
0.0438438
0.0438609
0.0438877
0.0439249
0.0439732
0.0440351
0.0441196
0.0442519
0.0444856
0.0448685
0.0453228
0.0456565
0.0457489
0.0456488
0.0454855
0.0453462
0.0452282
0.0451135
0.0449955
0.044876
0.0447584
0.044645
0.044537
0.0444337
0.0443348
0.0442423
0.0441614
0.0440982
0.0440557
0.0440328
0.0440243
0.043808
0.0438154
0.0438295
0.0438502
0.0438775
0.0439129
0.0439619
0.0440403
0.0441878
0.0444766
0.0449433
0.0454604
0.0457851
0.0457925
0.0455816
0.0453485
0.0452171
0.0451472
0.045081
0.0449984
0.0448998
0.0447915
0.0446795
0.0445677
0.0444582
0.0443531
0.0442564
0.0441739
0.0441108
0.0440694
0.0440471
0.0440389
0.0437684
0.0437747
0.0437865
0.0438026
0.0438226
0.0438492
0.0438918
0.0439773
0.0441651
0.0445385
0.0451009
0.0456564
0.0459162
0.0457783
0.0454122
0.0450847
0.044959
0.0449525
0.0449551
0.0449277
0.0448674
0.0447824
0.0446823
0.0445748
0.0444649
0.044358
0.0442605
0.044179
0.0441182
0.044079
0.0440583
0.0440506
0.0437179
0.0437228
0.0437324
0.0437461
0.0437646
0.0437937
0.0438512
0.0439801
0.0442563
0.0447496
0.0453966
0.0459234
0.0460306
0.0456839
0.0451381
0.0447139
0.044597
0.0446617
0.0447424
0.0447816
0.0447718
0.0447225
0.044646
0.0445533
0.0444525
0.0443518
0.0442594
0.0441825
0.0441256
0.0440891
0.0440696
0.0440621
0.0436825
0.0436859
0.0436941
0.0437099
0.0437396
0.0437978
0.0439171
0.0441552
0.0445798
0.0452013
0.04586
0.0462331
0.0460838
0.0454945
0.0447918
0.0443035
0.0442027
0.044329
0.0444757
0.0445755
0.0446169
0.044608
0.0445615
0.0444896
0.0444034
0.044314
0.0442322
0.0441655
0.0441171
0.0440864
0.0440698
0.0440632
0.0437486
0.0437537
0.0437692
0.0438044
0.0438761
0.0440133
0.0442598
0.0446636
0.0452411
0.0459072
0.0464208
0.0464943
0.0460394
0.0452582
0.0444821
0.0439812
0.0438877
0.0440333
0.0442052
0.0443387
0.0444205
0.0444545
0.0444491
0.0444128
0.0443546
0.0442854
0.0442172
0.0441593
0.0441165
0.0440885
0.0440725
0.0440656
0.0439991
0.0440127
0.0440508
0.0441311
0.0442804
0.0445348
0.0449296
0.0454714
0.0460992
0.0466477
0.0468803
0.0466475
0.0460128
0.0451893
0.0444187
0.0439041
0.0437681
0.0438713
0.0440132
0.0441331
0.0442149
0.0442569
0.0442636
0.0442432
0.0442059
0.0441637
0.0441258
0.0440954
0.0440722
0.0440549
0.0440432
0.0440374
0.044342
0.044367
0.044434
0.0445669
0.0447957
0.0451504
0.0456399
0.0462241
0.0467895
0.0471689
0.0472224
0.0469153
0.0463071
0.0455174
0.0447184
0.0441033
0.0438391
0.0438565
0.0439541
0.0440557
0.0441345
0.0441854
0.0442107
0.0442147
0.0442008
0.0441722
0.0441329
0.0440891
0.0440496
0.0440224
0.0440091
0.0440051
0.0446287
0.0446633
0.0447537
0.0449264
0.0452088
0.0456178
0.0461378
0.0467042
0.0472094
0.047541
0.047625
0.0474293
0.0469504
0.0462304
0.0453859
0.0445975
0.0440943
0.0439314
0.0439319
0.0439833
0.0440324
0.0440583
0.0440541
0.0440214
0.0439702
0.0439181
0.0438874
0.0438981
0.0439554
0.0440414
0.0441208
0.0441637
0.0447977
0.0448383
0.0449411
0.0451317
0.0454321
0.0458484
0.0463554
0.0468934
0.0473872
0.0477733
0.0480035
0.0480277
0.0477852
0.0472417
0.0464412
0.0455228
0.0447421
0.0442876
0.0440687
0.0439631
0.0439038
0.0438674
0.0438568
0.0438906
0.0439936
0.0441865
0.0444756
0.04484
0.0452247
0.0455535
0.0457711
0.0458648
0.0448389
0.0448804
0.0449812
0.0451618
0.0454391
0.0458165
0.0462759
0.0467773
0.0472768
0.0477449
0.0481546
0.0484521
0.04854
0.0483144
0.0477371
0.0468845
0.0460011
0.045371
0.0450176
0.0448646
0.0448689
0.0450162
0.0453056
0.0457328
0.0462793
0.0469043
0.0475463
0.0481321
0.0485957
0.0488941
0.0490389
0.0490825
0.0447859
0.044825
0.0449149
0.045069
0.0452988
0.0456076
0.045987
0.0464199
0.0468929
0.0474049
0.0479538
0.0485032
0.0489469
0.0491298
0.0489304
0.0483515
0.0476074
0.047051
0.0468001
0.04683
0.0471247
0.0476547
0.0483697
0.0491943
0.050039
0.0508102
0.0514299
0.0518482
0.0520579
0.0521023
0.0520609
0.052017
0.0446827
0.0447173
0.0447935
0.0449185
0.0450986
0.0453361
0.0456287
0.0459744
0.0463815
0.0468759
0.0474855
0.0482049
0.0489449
0.0495288
0.0497647
0.0495657
0.0490775
0.048692
0.0486172
0.0488582
0.0493929
0.0501509
0.0510251
0.0518927
0.0526497
0.0532309
0.0536162
0.0538202
0.0538768
0.0538352
0.0537531
0.0536921
0.0445792
0.0446054
0.044664
0.0447602
0.0448972
0.0450761
0.0452984
0.0455715
0.0459171
0.0463737
0.0469875
0.0477833
0.0487073
0.0495969
0.0502247
0.0504198
0.0502139
0.0499702
0.0499795
0.0502919
0.0508728
0.0516164
0.0523905
0.0530793
0.0536199
0.0540081
0.0542671
0.0544228
0.0544946
0.0544998
0.054464
0.0544267
0.0445526
0.0445611
0.04459
0.0446504
0.044748
0.0448854
0.0450679
0.0453096
0.0456377
0.0460907
0.0467091
0.0475229
0.0485147
0.0495669
0.0504637
0.0509894
0.0510572
0.0509333
0.0509428
0.0511971
0.0516816
0.0522895
0.0528962
0.0534183
0.0538304
0.0541491
0.0543939
0.0545738
0.0546895
0.0547441
0.0547504
0.0547357
0.0447143
0.0446917
0.0446715
0.0446807
0.0447376
0.0448522
0.0450337
0.0452974
0.0456661
0.0461652
0.0468168
0.0476342
0.0486104
0.0496803
0.0506866
0.051419
0.0517098
0.0517048
0.051703
0.0518574
0.0521959
0.0526448
0.0531045
0.0535137
0.0538609
0.0541585
0.054415
0.0546262
0.0547809
0.0548721
0.0549059
0.054905
0.0451849
0.0451206
0.0450379
0.0449885
0.045012
0.0451293
0.0453501
0.0456806
0.0461268
0.0466928
0.0473786
0.0481806
0.0490916
0.0500811
0.0510554
0.0518497
0.0522726
0.0523703
0.0523786
0.0524552
0.0526619
0.0529684
0.0533075
0.0536303
0.0539246
0.0541962
0.0544478
0.0546715
0.05485
0.0549675
0.0550219
0.0550307
0.0460523
0.0459493
0.0458205
0.0457388
0.0457606
0.045912
0.0461946
0.0465981
0.0471081
0.0477095
0.0483877
0.0491301
0.0499305
0.0507788
0.0516288
0.0523689
0.0528245
0.0529837
0.0530139
0.0530499
0.0531648
0.0533603
0.0535988
0.053843
0.0540794
0.0543087
0.0545317
0.0547418
0.054922
0.055052
0.0551208
0.0551378
0.0473527
0.0472377
0.0471235
0.0470755
0.047141
0.0473392
0.0476629
0.0480909
0.0485984
0.0491623
0.0497642
0.0503912
0.0510395
0.0517096
0.0523839
0.0529945
0.0534035
0.0535758
0.0536213
0.0536416
0.053702
0.0538194
0.0539767
0.0541487
0.0543232
0.0544987
0.0546756
0.0548503
0.0550101
0.0551354
0.0552096
0.0552325
0.0490933
0.0490196
0.0490024
0.0490447
0.0491646
0.0493769
0.0496773
0.0500479
0.0504668
0.050914
0.0513747
0.0518396
0.0523069
0.0527808
0.0532572
0.0536988
0.0540101
0.0541553
0.054201
0.0542152
0.054246
0.054312
0.0544072
0.0545168
0.054632
0.0547506
0.0548731
0.0549987
0.0551205
0.055224
0.0552919
0.055317
0.0512983
0.0513218
0.0514137
0.0515129
0.0516341
0.0517958
0.0520014
0.0522433
0.052509
0.0527866
0.0530672
0.0533455
0.0536208
0.0538967
0.0541736
0.0544336
0.0546223
0.0547153
0.0547475
0.0547568
0.0547713
0.0548038
0.0548532
0.054912
0.0549751
0.055041
0.0551099
0.0551822
0.0552555
0.0553225
0.0553714
0.0553926
0.0540222
0.0540559
0.0541164
0.0541677
0.0542183
0.0542777
0.0543491
0.0544313
0.0545206
0.0546129
0.0547055
0.0547967
0.0548862
0.0549753
0.0550647
0.0551491
0.0552111
0.0552425
0.0552538
0.055257
0.0552613
0.0552709
0.0552859
0.0553041
0.0553237
0.0553443
0.0553658
0.0553886
0.0554122
0.0554348
0.0554527
0.0554616
)
;

boundaryField
{
    movingWall
    {
        type            fixedValue;
        value           uniform 0.0555;
    }
    fixedWalls
    {
        type            zeroGradient;
    }
    floor
    {
        type            zeroGradient;
    }
    frontAndBack
    {
        type            empty;
    }
}


// ************************************************************************* //
