/*--------------------------------*- C++ -*----------------------------------*\
| =========                 |                                                 |
| \\      /  F ield         | OpenFOAM: The Open Source CFD Toolbox           |
|  \\    /   O peration     | Version:  2212                                  |
|   \\  /    A nd           | Website:  www.openfoam.com                      |
|    \\/     M anipulation  |                                                 |
\*---------------------------------------------------------------------------*/
FoamFile
{
    version     2.0;
    format      ascii;
    arch        "LSB;label=64;scalar=64";
    class       volVectorField;
    location    "160";
    object      U;
}
// * * * * * * * * * * * * * * * * * * * * * * * * * * * * * * * * * * * * * //

dimensions      [0 1 -1 0 0 0 0];

internalField   nonuniform List<vector> 
1024
(
(-1.94966e-05 4.28112e-06 0)
(-0.000702661 0.000157748 0)
(-0.00198024 0.000218902 0)
(-0.00349382 0.000210448 0)
(-0.00502573 0.000203267 0)
(-0.00655444 0.00020186 0)
(-0.00803665 0.000192636 0)
(-0.00929406 0.000162364 0)
(-0.00991 9.02276e-05 0)
(-0.00924693 -4.20064e-05 0)
(-0.0065073 -0.000204569 0)
(-0.000890647 -0.000291661 0)
(0.00493299 -0.000181219 0)
(0.00895369 -9.09865e-05 0)
(0.0113204 -7.70583e-06 0)
(0.0117854 3.44221e-05 0)
(0.0109322 5.20938e-05 0)
(0.00952691 5.53861e-05 0)
(0.0080766 5.43888e-05 0)
(0.0067321 5.20017e-05 0)
(0.00552885 4.94249e-05 0)
(0.00447038 4.63517e-05 0)
(0.00355694 4.20658e-05 0)
(0.0027917 3.58564e-05 0)
(0.00217861 2.72852e-05 0)
(0.00171438 1.70233e-05 0)
(0.00136808 1.01763e-05 0)
(0.00106734 1.53097e-05 0)
(0.000735266 3.28095e-05 0)
(0.000373051 4.33212e-05 0)
(8.90591e-05 2.09718e-05 0)
(-1.40946e-05 -1.55789e-05 0)
(-0.000298597 0.000810964 0)
(-0.00262629 0.00203814 0)
(-0.00613465 0.00239967 0)
(-0.0100122 0.00222055 0)
(-0.0137423 0.00192615 0)
(-0.0171562 0.00162205 0)
(-0.0200558 0.00126049 0)
(-0.0220321 0.000765747 0)
(-0.0223404 4.36875e-05 0)
(-0.0198037 -0.000970479 0)
(-0.0134323 -0.00211642 0)
(-0.0012427 -0.00268138 0)
(0.0115936 -0.00191971 0)
(0.0210631 -0.0011185 0)
(0.0274931 -0.000420602 0)
(0.0299363 6.21783e-05 0)
(0.0290458 0.000320712 0)
(0.0264218 0.000441325 0)
(0.0232441 0.000500551 0)
(0.0200234 0.000529605 0)
(0.0169616 0.000544745 0)
(0.0141393 0.000549251 0)
(0.0115995 0.00053992 0)
(0.00937478 0.000511859 0)
(0.00748976 0.000462805 0)
(0.00594522 0.000402731 0)
(0.0046826 0.00036933 0)
(0.00356707 0.00041161 0)
(0.00245806 0.00051682 0)
(0.00135704 0.000557158 0)
(0.00047844 0.000389167 0)
(3.0497e-05 8.86832e-05 0)
(-0.000602664 0.00308166 0)
(-0.00439922 0.0062232 0)
(-0.00955755 0.00674306 0)
(-0.0149494 0.00597873 0)
(-0.0198745 0.00490836 0)
(-0.0240454 0.00380078 0)
(-0.0271724 0.00260496 0)
(-0.0287852 0.00119098 0)
(-0.0280758 -0.000622507 0)
(-0.0239145 -0.00292599 0)
(-0.0156759 -0.00544504 0)
(-0.000882179 -0.0067036 0)
(0.0148179 -0.00503346 0)
(0.027469 -0.00317036 0)
(0.0371442 -0.00149718 0)
(0.0423786 -0.000192953 0)
(0.0428264 0.000588161 0)
(0.0404753 0.0010076 0)
(0.0368532 0.00125845 0)
(0.0327555 0.00141714 0)
(0.028573 0.00152643 0)
(0.0245044 0.00160007 0)
(0.0206686 0.00163429 0)
(0.0171496 0.00161954 0)
(0.0140063 0.00155213 0)
(0.0112596 0.00145672 0)
(0.00886419 0.00141332 0)
(0.00669967 0.00152155 0)
(0.00463174 0.00175338 0)
(0.00265773 0.00183389 0)
(0.0010437 0.00141345 0)
(0.000100902 0.000512491 0)
(-0.000724808 0.00668465 0)
(-0.00519927 0.0124454 0)
(-0.0111158 0.0129284 0)
(-0.0171159 0.0111197 0)
(-0.0223751 0.00876276 0)
(-0.0265435 0.00636982 0)
(-0.0293222 0.00392256 0)
(-0.0302927 0.00124721 0)
(-0.0287178 -0.00191082 0)
(-0.0238537 -0.00566335 0)
(-0.0151569 -0.00970722 0)
(-0.000304479 -0.0116855 0)
(0.0154616 -0.00914505 0)
(0.0293428 -0.00613421 0)
(0.0408744 -0.00332285 0)
(0.0485027 -0.000943916 0)
(0.0510338 0.000633634 0)
(0.0499775 0.00155366 0)
(0.0470124 0.00215638 0)
(0.0430771 0.00258236 0)
(0.0386841 0.0029085 0)
(0.0341253 0.00316418 0)
(0.0295876 0.0033484 0)
(0.0252043 0.00344912 0)
(0.0210695 0.00346333 0)
(0.0172334 0.00343042 0)
(0.0136907 0.003465 0)
(0.0103825 0.00370923 0)
(0.00723047 0.0041265 0)
(0.00424867 0.00428015 0)
(0.00175459 0.00348343 0)
(0.000192012 0.00146452 0)
(-0.00061049 0.0109458 0)
(-0.00487673 0.0198865 0)
(-0.0107104 0.0203319 0)
(-0.0166185 0.0171619 0)
(-0.021688 0.0131155 0)
(-0.0255406 0.00907471 0)
(-0.0279222 0.00510633 0)
(-0.0285148 0.00100555 0)
(-0.0266977 -0.00355261 0)
(-0.0218913 -0.00881482 0)
(-0.0134525 -0.0144334 0)
(0.000406866 -0.0170335 0)
(0.0150056 -0.0137985 0)
(0.0288467 -0.00970772 0)
(0.0408718 -0.00574065 0)
(0.0497031 -0.00221897 0)
(0.0540025 0.000311175 0)
(0.0544553 0.00187587 0)
(0.0526626 0.00296475 0)
(0.049556 0.00379064 0)
(0.0456716 0.00446835 0)
(0.0413287 0.00504613 0)
(0.0367386 0.00552966 0)
(0.0320551 0.00590841 0)
(0.0273911 0.00618329 0)
(0.0228204 0.00640547 0)
(0.0183796 0.00670775 0)
(0.0140766 0.00725176 0)
(0.00990442 0.00798758 0)
(0.00592338 0.00830352 0)
(0.00252374 0.00701619 0)
(0.000297593 0.00319499 0)
(-0.000363711 0.0150257 0)
(-0.00380918 0.0275951 0)
(-0.00897649 0.0283102 0)
(-0.0143618 0.023724 0)
(-0.0190022 0.0177771 0)
(-0.0225092 0.0118929 0)
(-0.0246852 0.00628599 0)
(-0.0252829 0.000706871 0)
(-0.0237103 -0.00530451 0)
(-0.01925 -0.0122307 0)
(-0.0112547 -0.0194925 0)
(0.00133538 -0.0225587 0)
(0.0144339 -0.0188053 0)
(0.027596 -0.0137046 0)
(0.0392621 -0.00856496 0)
(0.0482092 -0.00388664 0)
(0.053252 -0.000398921 0)
(0.0547742 0.00189327 0)
(0.0540486 0.00354902 0)
(0.051907 0.00486642 0)
(0.048832 0.00600412 0)
(0.0451075 0.00703375 0)
(0.0409195 0.0079727 0)
(0.0364053 0.00881671 0)
(0.0316716 0.00957326 0)
(0.026802 0.0103012 0)
(0.0218631 0.0111375 0)
(0.0169122 0.0122404 0)
(0.0120025 0.0135221 0)
(0.0072517 0.0141521 0)
(0.00313521 0.0122754 0)
(0.000381928 0.00587908 0)
(-0.0001167 0.0182435 0)
(-0.00248013 0.03467 0)
(-0.00666505 0.0362421 0)
(-0.0113148 0.030493 0)
(-0.0154556 0.0226661 0)
(-0.0186839 0.0149143 0)
(-0.0208297 0.00766399 0)
(-0.0216381 0.000574181 0)
(-0.0204156 -0.00705583 0)
(-0.0162574 -0.0159151 0)
(-0.00868511 -0.0248649 0)
(0.00252896 -0.0282017 0)
(0.0141112 -0.0240833 0)
(0.0262707 -0.0180227 0)
(0.0371692 -0.0116682 0)
(0.0456473 -0.00578688 0)
(0.0505871 -0.00134276 0)
(0.0524745 0.00167739 0)
(0.0523277 0.0039155 0)
(0.0508746 0.00575768 0)
(0.0485142 0.0074134 0)
(0.0454604 0.00898506 0)
(0.0418409 0.0105091 0)
(0.037748 0.0119928 0)
(0.0332609 0.0134511 0)
(0.0284557 0.0149453 0)
(0.0234116 0.0166053 0)
(0.0182145 0.0185667 0)
(0.0129607 0.0206637 0)
(0.0078242 0.0217627 0)
(0.00336104 0.0191589 0)
(0.000398851 0.00943586 0)
(5.87059e-05 0.0202357 0)
(-0.00122631 0.0403829 0)
(-0.00429165 0.0435676 0)
(-0.00811253 0.0372042 0)
(-0.0117421 0.0277339 0)
(-0.0147276 0.0182115 0)
(-0.0168746 0.00934866 0)
(-0.0178646 0.000669957 0)
(-0.0168439 -0.00883947 0)
(-0.0128288 -0.0199535 0)
(-0.00566551 -0.030497 0)
(0.00400217 -0.0338821 0)
(0.0141145 -0.029541 0)
(0.0250238 -0.0225682 0)
(0.0349132 -0.0149658 0)
(0.0426737 -0.00781444 0)
(0.0471688 -0.00235902 0)
(0.0488957 0.00137532 0)
(0.0488181 0.00418128 0)
(0.047628 0.00653773 0)
(0.0456723 0.00871807 0)
(0.0431046 0.0108694 0)
(0.0399912 0.0130587 0)
(0.0363705 0.0153122 0)
(0.0322815 0.017653 0)
(0.0277781 0.0201392 0)
(0.0229335 0.0228845 0)
(0.0178423 0.0259814 0)
(0.0126284 0.0291291 0)
(0.00751711 0.0307677 0)
(0.00312989 0.0271796 0)
(0.000335351 0.0134836 0)
(0.000150391 0.0208982 0)
(-0.000192283 0.044171 0)
(-0.00205187 0.0497505 0)
(-0.0049579 0.0435884 0)
(-0.00805044 0.0328971 0)
(-0.0107618 0.021752 0)
(-0.0128127 0.0112804 0)
(-0.0138201 0.000886357 0)
(-0.0127812 -0.0107883 0)
(-0.00876061 -0.0244647 0)
(-0.00208399 -0.036257 0)
(0.00576484 -0.0394633 0)
(0.0144527 -0.0350365 0)
(0.0238602 -0.0272058 0)
(0.0325016 -0.0183642 0)
(0.0393743 -0.009905 0)
(0.0433271 -0.00337426 0)
(0.0447032 0.00111331 0)
(0.0444135 0.0044949 0)
(0.0431669 0.00735052 0)
(0.0413134 0.0100345 0)
(0.0389874 0.0127578 0)
(0.036221 0.0156352 0)
(0.0330117 0.0187231 0)
(0.0293593 0.0220569 0)
(0.0252862 0.02569 0)
(0.0208437 0.0297128 0)
(0.0161174 0.0341497 0)
(0.0112459 0.0384869 0)
(0.00650136 0.0405831 0)
(0.00254852 0.0355972 0)
(0.00022139 0.0174723 0)
(0.000204197 0.0203738 0)
(0.000623562 0.045388 0)
(6.62257e-05 0.0540242 0)
(-0.00170632 0.0492303 0)
(-0.00415962 0.037942 0)
(-0.00653886 0.0253502 0)
(-0.00836791 0.0132379 0)
(-0.00922183 0.00100012 0)
(-0.00792627 -0.0130918 0)
(-0.00385034 -0.0294903 0)
(0.00190417 -0.0418043 0)
(0.00801192 -0.0448217 0)
(0.0151149 -0.0403423 0)
(0.0227603 -0.0317218 0)
(0.029884 -0.0217138 0)
(0.0356709 -0.0119808 0)
(0.0390192 -0.00434006 0)
(0.0400319 0.000964096 0)
(0.0394771 0.00496312 0)
(0.0380627 0.00832746 0)
(0.03616 0.0114972 0)
(0.0339193 0.0147615 0)
(0.0313734 0.0183007 0)
(0.0285039 0.0222175 0)
(0.0252833 0.0265712 0)
(0.0217003 0.0314175 0)
(0.0177743 0.0368204 0)
(0.0135706 0.0427043 0)
(0.00923614 0.0482371 0)
(0.00508813 0.0505228 0)
(0.00180658 0.0435982 0)
(0.000101849 0.0208796 0)
(0.000247407 0.0185169 0)
(0.00126475 0.0437428 0)
(0.00191538 0.0550276 0)
(0.00162905 0.0531856 0)
(0.000346438 0.0429135 0)
(-0.0014578 0.0289426 0)
(-0.00303569 0.0150237 0)
(-0.0037101 0.000772554 0)
(-0.00190084 -0.015962 0)
(0.00201323 -0.0348113 0)
(0.00620714 -0.0465616 0)
(0.0107871 -0.0496994 0)
(0.0160379 -0.0451024 0)
(0.0216576 -0.0357938 0)
(0.0269888 -0.0247837 0)
(0.0314725 -0.0139185 0)
(0.0341345 -0.00520353 0)
(0.0348023 0.000957115 0)
(0.0340451 0.00562258 0)
(0.0325188 0.00952478 0)
(0.0305919 0.0131772 0)
(0.0284308 0.0169465 0)
(0.0260855 0.0210896 0)
(0.0235416 0.0257732 0)
(0.0207565 0.0311012 0)
(0.0176898 0.0371484 0)
(0.0143276 0.0439543 0)
(0.0107142 0.0512956 0)
(0.00700963 0.0578851 0)
(0.00357824 0.0599072 0)
(0.00107803 0.0504621 0)
(8.31219e-06 0.0233591 0)
(0.000257041 0.0153406 0)
(0.00167816 0.0388282 0)
(0.00332209 0.0518193 0)
(0.00449965 0.053064 0)
(0.00481381 0.0453163 0)
(0.00434681 0.0324336 0)
(0.00355802 0.017377 0)
(0.00345219 0.000139644 0)
(0.00537837 -0.0198446 0)
(0.00815455 -0.0383358 0)
(0.0109918 -0.05044 0)
(0.0139036 -0.053603 0)
(0.017026 -0.0488051 0)
(0.0203698 -0.0389769 0)
(0.0236773 -0.0272538 0)
(0.0266761 -0.015543 0)
(0.0285841 -0.00589212 0)
(0.0289213 0.0011046 0)
(0.0280588 0.00644911 0)
(0.026565 0.0109023 0)
(0.0247636 0.0150301 0)
(0.0228081 0.0192641 0)
(0.0207546 0.0239375 0)
(0.0185937 0.0292964 0)
(0.0162743 0.0355148 0)
(0.0137337 0.0427106 0)
(0.0109332 0.0508962 0)
(0.00790945 0.0596259 0)
(0.0048525 0.066985 0)
(0.00217663 0.0681317 0)
(0.000467881 0.0556611 0)
(-4.98159e-05 0.0247815 0)
(0.000215656 0.0112162 0)
(0.00172704 0.0308936 0)
(0.00394122 0.044166 0)
(0.00618356 0.0480403 0)
(0.00790455 0.043271 0)
(0.00894082 0.0324077 0)
(0.0095162 0.0177127 0)
(0.0106105 -0.000433173 0)
(0.0121999 -0.0218316 0)
(0.014192 -0.0410479 0)
(0.0157711 -0.0529811 0)
(0.0167873 -0.0558259 0)
(0.0175685 -0.0507969 0)
(0.0184891 -0.0407321 0)
(0.0196774 -0.0287433 0)
(0.0211286 -0.0166447 0)
(0.022297 -0.00632188 0)
(0.0223444 0.00140955 0)
(0.0214915 0.00736719 0)
(0.0202175 0.012325 0)
(0.0187567 0.016883 0)
(0.0172064 0.0215219 0)
(0.0156009 0.0266471 0)
(0.0139213 0.0325949 0)
(0.0121061 0.0396331 0)
(0.0100793 0.0479418 0)
(0.00779607 0.0574815 0)
(0.00531322 0.0674625 0)
(0.00288033 0.0751429 0)
(0.000965972 0.0746777 0)
(2.29303e-05 0.058862 0)
(-6.56075e-05 0.0251718 0)
(0.000131915 0.00701475 0)
(0.00135659 0.0213874 0)
(0.00351532 0.0332135 0)
(0.00610184 0.038621 0)
(0.00856083 0.0365374 0)
(0.0106265 0.0280252 0)
(0.0124189 0.0144421 0)
(0.0146498 -0.0041994 0)
(0.0169345 -0.0252981 0)
(0.0186431 -0.0432035 0)
(0.0190392 -0.0537428 0)
(0.0181697 -0.0557026 0)
(0.0166626 -0.0504417 0)
(0.0152875 -0.040557 0)
(0.0145429 -0.0289213 0)
(0.01461 -0.0170463 0)
(0.0151989 -0.00640114 0)
(0.015107 0.00182826 0)
(0.0144123 0.00820649 0)
(0.0135807 0.0135357 0)
(0.0126942 0.0184232 0)
(0.0117537 0.0233864 0)
(0.0107465 0.0289022 0)
(0.00962601 0.0354073 0)
(0.00831325 0.0432757 0)
(0.00673269 0.0527339 0)
(0.00486755 0.0636198 0)
(0.00284099 0.0746139 0)
(0.00102628 0.0819223 0)
(-8.65533e-05 0.0788911 0)
(-0.000325528 0.0597803 0)
(-8.72249e-05 0.0246783 0)
(4.95549e-05 0.00384861 0)
(0.000759867 0.0129573 0)
(0.00229219 0.0219196 0)
(0.00445659 0.0272995 0)
(0.00686764 0.026804 0)
(0.00935169 0.0200328 0)
(0.012203 0.00732934 0)
(0.0154331 -0.0115438 0)
(0.0182484 -0.0303903 0)
(0.0195522 -0.0448446 0)
(0.0187992 -0.0524709 0)
(0.0162745 -0.0528321 0)
(0.0128994 -0.0473966 0)
(0.00977399 -0.038259 0)
(0.0077092 -0.0277393 0)
(0.00689421 -0.0167978 0)
(0.00718972 -0.00613346 0)
(0.00739989 0.00243196 0)
(0.00709496 0.00885792 0)
(0.00695916 0.0142697 0)
(0.00681567 0.0192873 0)
(0.00658991 0.024459 0)
(0.00622513 0.0303218 0)
(0.00561775 0.0374197 0)
(0.00462158 0.0462635 0)
(0.00321243 0.057084 0)
(0.00157019 0.0693835 0)
(2.05212e-05 0.0809365 0)
(-0.000940006 0.0863474 0)
(-0.00109453 0.0798801 0)
(-0.000660327 0.0582606 0)
(-0.000112647 0.0231456 0)
(2.82907e-06 0.00230854 0)
(0.000267453 0.00787085 0)
(0.0010312 0.0136646 0)
(0.002403 0.0173757 0)
(0.0043445 0.0163979 0)
(0.00696303 0.00904069 0)
(0.01015 -0.00567912 0)
(0.0134412 -0.0218374 0)
(0.0155546 -0.0355559 0)
(0.0156345 -0.0447616 0)
(0.0134412 -0.0485388 0)
(0.00948373 -0.0470717 0)
(0.00497223 -0.0419237 0)
(0.00104701 -0.034348 0)
(-0.00133962 -0.0256741 0)
(-0.00216611 -0.0164515 0)
(-0.0017479 -0.00651072 0)
(-0.000392819 0.00235149 0)
(-0.000130914 0.00862444 0)
(0.000536391 0.0138869 0)
(0.00102394 0.0188741 0)
(0.00125063 0.0242009 0)
(0.00110303 0.0305891 0)
(0.000489821 0.0388794 0)
(-0.000627989 0.0497706 0)
(-0.00195066 0.0622443 0)
(-0.00305584 0.0747915 0)
(-0.00356262 0.0842861 0)
(-0.00325991 0.0860792 0)
(-0.00228382 0.0760992 0)
(-0.00107997 0.0531112 0)
(-0.000151529 0.0201188 0)
(-8.06355e-06 0.00196014 0)
(1.27869e-05 0.00601431 0)
(0.000251835 0.0095276 0)
(0.000951152 0.0107013 0)
(0.00235308 0.00716738 0)
(0.00448944 -0.00271571 0)
(0.0067772 -0.0159574 0)
(0.00829856 -0.0278071 0)
(0.0081881 -0.0359828 0)
(0.00604877 -0.0402066 0)
(0.00203285 -0.0408623 0)
(-0.00313677 -0.0385834 0)
(-0.0076416 -0.0349745 0)
(-0.0110473 -0.0301907 0)
(-0.0128994 -0.0241763 0)
(-0.0131463 -0.0167788 0)
(-0.0118224 -0.008065 0)
(-0.00934656 0.000381845 0)
(-0.00802048 0.00687895 0)
(-0.00722459 0.0122188 0)
(-0.00676323 0.0176592 0)
(-0.00681954 0.0239683 0)
(-0.00736952 0.0318702 0)
(-0.00821825 0.0417716 0)
(-0.00902538 0.0533754 0)
(-0.00942406 0.0653281 0)
(-0.00911016 0.0755773 0)
(-0.00793729 0.0811583 0)
(-0.00600803 0.0786553 0)
(-0.00369969 0.0658002 0)
(-0.00159019 0.0432521 0)
(-0.000204431 0.015203 0)
(-3.12493e-05 0.00234383 0)
(-0.000241115 0.00636219 0)
(-0.000461206 0.0087042 0)
(-0.00042933 0.00777027 0)
(0.000126619 0.00201552 0)
(0.000912734 -0.00836857 0)
(0.00112989 -0.0186463 0)
(-0.000237665 -0.0260962 0)
(-0.00335197 -0.0296352 0)
(-0.00772198 -0.030975 0)
(-0.0126278 -0.031302 0)
(-0.017367 -0.0309435 0)
(-0.0214648 -0.0296995 0)
(-0.0245432 -0.0272243 0)
(-0.0262203 -0.0232829 0)
(-0.0262338 -0.017675 0)
(-0.0245119 -0.0102025 0)
(-0.0218933 -0.00208328 0)
(-0.019835 0.00503687 0)
(-0.0192557 0.0113211 0)
(-0.0191555 0.0178062 0)
(-0.0194818 0.0251926 0)
(-0.0198964 0.0338524 0)
(-0.020014 0.0436854 0)
(-0.0194811 0.0539577 0)
(-0.0180628 0.0632397 0)
(-0.0156783 0.0695694 0)
(-0.0124441 0.0705948 0)
(-0.00870292 0.0641933 0)
(-0.00499293 0.0497836 0)
(-0.00198351 0.0297087 0)
(-0.000222723 0.00907312 0)
(-6.42443e-05 0.00352067 0)
(-0.00056247 0.00876041 0)
(-0.00133044 0.0108554 0)
(-0.00213858 0.0084748 0)
(-0.00293568 0.00166 0)
(-0.00413844 -0.00696423 0)
(-0.00657149 -0.013485 0)
(-0.0101799 -0.0174601 0)
(-0.014619 -0.019945 0)
(-0.0194392 -0.0219253 0)
(-0.0243355 -0.0236237 0)
(-0.0290502 -0.0248406 0)
(-0.0333021 -0.0252599 0)
(-0.0367586 -0.0245177 0)
(-0.0390481 -0.022264 0)
(-0.0398316 -0.0181459 0)
(-0.0389384 -0.0117123 0)
(-0.0370041 -0.00375192 0)
(-0.0353085 0.00405575 0)
(-0.0348005 0.0113167 0)
(-0.0346752 0.0184824 0)
(-0.0345358 0.0260092 0)
(-0.0338934 0.0339874 0)
(-0.0323599 0.0420866 0)
(-0.0297139 0.0494946 0)
(-0.025932 0.0549368 0)
(-0.0211871 0.0568364 0)
(-0.0158406 0.0536283 0)
(-0.0104202 0.0444519 0)
(-0.00556858 0.0302739 0)
(-0.00199191 0.014789 0)
(-0.000172349 0.00308558 0)
(-9.49006e-05 0.00549857 0)
(-0.000822574 0.0131695 0)
(-0.00207804 0.0162674 0)
(-0.00376944 0.0141453 0)
(-0.00602751 0.0081687 0)
(-0.00918154 0.00117916 0)
(-0.0129962 -0.00466743 0)
(-0.0173692 -0.00838783 0)
(-0.0219918 -0.0113171 0)
(-0.0267864 -0.0141423 0)
(-0.0317134 -0.0168586 0)
(-0.0366282 -0.0192188 0)
(-0.0413383 -0.0208802 0)
(-0.0455814 -0.0214501 0)
(-0.0490189 -0.0205234 0)
(-0.0512514 -0.0176521 0)
(-0.0519599 -0.0122013 0)
(-0.0513455 -0.00460834 0)
(-0.0503044 0.00340453 0)
(-0.0496138 0.0110151 0)
(-0.0490182 0.0181152 0)
(-0.0479139 0.0247997 0)
(-0.0457643 0.0309548 0)
(-0.042223 0.0362079 0)
(-0.0372155 0.0399058 0)
(-0.0309545 0.0411623 0)
(-0.0238967 0.0390129 0)
(-0.0166554 0.0327409 0)
(-0.00993269 0.0225715 0)
(-0.0045509 0.0106635 0)
(-0.00126814 0.00137934 0)
(-6.62746e-05 -0.00149324 0)
(-7.03974e-05 0.00746958 0)
(-0.000705085 0.0177825 0)
(-0.00196443 0.0225763 0)
(-0.0038935 0.0216149 0)
(-0.00656274 0.0167453 0)
(-0.0101011 0.0107985 0)
(-0.0144215 0.00539158 0)
(-0.0191577 0.000430138 0)
(-0.0239767 -0.00384511 0)
(-0.0286852 -0.00740743 0)
(-0.0335528 -0.0108147 0)
(-0.038603 -0.0139282 0)
(-0.0437727 -0.016425 0)
(-0.0488787 -0.0179174 0)
(-0.0536063 -0.0179918 0)
(-0.0574818 -0.0161573 0)
(-0.059989 -0.0117002 0)
(-0.0608101 -0.00481097 0)
(-0.0604396 0.0028878 0)
(-0.0595641 0.0102991 0)
(-0.0584178 0.0167952 0)
(-0.0563566 0.0220547 0)
(-0.0528303 0.0257945 0)
(-0.0474934 0.0277127 0)
(-0.0403222 0.0274728 0)
(-0.0316691 0.0247398 0)
(-0.0223049 0.0192653 0)
(-0.0133449 0.011067 0)
(-0.00609103 0.00179588 0)
(-0.00157943 -0.00397254 0)
(0.000107806 -0.00474132 0)
(0.000143439 -0.00237161 0)
(2.54266e-06 0.00850614 0)
(-0.000237071 0.0206713 0)
(-0.000979584 0.0272477 0)
(-0.00242451 0.0277899 0)
(-0.00464009 0.0239443 0)
(-0.00755914 0.0184523 0)
(-0.0110303 0.0130873 0)
(-0.0150086 0.00817352 0)
(-0.0195543 0.00344419 0)
(-0.0246152 -0.00138571 0)
(-0.0294577 -0.00551359 0)
(-0.0344745 -0.00907487 0)
(-0.0399301 -0.0120455 0)
(-0.0457446 -0.0141192 0)
(-0.0515888 -0.0149247 0)
(-0.0568909 -0.0139503 0)
(-0.0609174 -0.0104701 0)
(-0.0628985 -0.00452317 0)
(-0.0630445 0.00245615 0)
(-0.0620419 0.00923665 0)
(-0.0603934 0.0147357 0)
(-0.0575854 0.0181702 0)
(-0.0531342 0.0190195 0)
(-0.0467524 0.0169796 0)
(-0.038547 0.0119515 0)
(-0.0291669 0.00410888 0)
(-0.0199966 -0.00503638 0)
(-0.012265 -0.0117275 0)
(-0.00634994 -0.0134507 0)
(-0.00234755 -0.010949 0)
(-0.000302786 -0.00580143 0)
(9.95549e-05 -0.00128493 0)
(6.54419e-05 0.00847511 0)
(0.000269593 0.0212946 0)
(0.000247856 0.0292416 0)
(-0.00032968 0.0314401 0)
(-0.00166807 0.0287291 0)
(-0.00367689 0.0236292 0)
(-0.00608298 0.0182263 0)
(-0.00872299 0.0132391 0)
(-0.0116978 0.0085794 0)
(-0.015325 0.00396944 0)
(-0.020157 -0.000733008 0)
(-0.0251967 -0.00476006 0)
(-0.0306681 -0.0079566 0)
(-0.0369518 -0.0103274 0)
(-0.0436224 -0.0116602 0)
(-0.0499797 -0.011415 0)
(-0.055033 -0.00887331 0)
(-0.0576735 -0.00396994 0)
(-0.0580367 0.00208981 0)
(-0.0568809 0.00803695 0)
(-0.0547802 0.0124641 0)
(-0.0515427 0.014207 0)
(-0.0469403 0.0125753 0)
(-0.040946 0.00743654 0)
(-0.0339215 -0.000629713 0)
(-0.0272072 -0.00968586 0)
(-0.0214139 -0.0174748 0)
(-0.0160977 -0.0231826 0)
(-0.0109947 -0.0249473 0)
(-0.00613125 -0.0213098 0)
(-0.00218084 -0.0126117 0)
(-0.000146428 -0.00309545 0)
(0.000100904 0.00773683 0)
(0.000639364 0.020269 0)
(0.00123378 0.0289137 0)
(0.00153341 0.0323993 0)
(0.00124628 0.0310212 0)
(0.000358405 0.0266164 0)
(-0.000921827 0.0211023 0)
(-0.00228827 0.0158941 0)
(-0.0036938 0.0112712 0)
(-0.00534223 0.00708719 0)
(-0.00778724 0.003114 0)
(-0.0125064 -0.000969998 0)
(-0.0178594 -0.00428589 0)
(-0.0242883 -0.00675075 0)
(-0.0314837 -0.00844996 0)
(-0.0386371 -0.00883194 0)
(-0.04439 -0.00719598 0)
(-0.0473247 -0.00336722 0)
(-0.0476019 0.00171519 0)
(-0.0461403 0.00682452 0)
(-0.043557 0.0103853 0)
(-0.0400928 0.0110452 0)
(-0.0358998 0.00811537 0)
(-0.031257 0.00176879 0)
(-0.0266348 -0.00670038 0)
(-0.0234479 -0.0156638 0)
(-0.0204356 -0.0246298 0)
(-0.0171159 -0.0321327 0)
(-0.0130882 -0.0360139 0)
(-0.00835352 -0.0337444 0)
(-0.00363671 -0.0234199 0)
(-0.000369259 -0.00743006 0)
(0.000101774 0.00671562 0)
(0.000799112 0.0183643 0)
(0.00180897 0.0271607 0)
(0.00280528 0.0314603 0)
(0.003481 0.0310631 0)
(0.00375419 0.0273319 0)
(0.00373533 0.0221058 0)
(0.00361665 0.0168319 0)
(0.00348301 0.0121422 0)
(0.00323263 0.00815054 0)
(0.00255766 0.0048342 0)
(0.00119164 0.00201833 0)
(-0.0037794 -0.00107754 0)
(-0.00969432 -0.00356261 0)
(-0.0168499 -0.00544034 0)
(-0.0245851 -0.00631991 0)
(-0.0309473 -0.00553826 0)
(-0.034246 -0.00280599 0)
(-0.0344052 0.00122607 0)
(-0.0325402 0.00547774 0)
(-0.0293655 0.00834621 0)
(-0.0255437 0.00843184 0)
(-0.0215371 0.0051534 0)
(-0.0176151 -0.00116155 0)
(-0.0160598 -0.00882379 0)
(-0.015377 -0.01761 0)
(-0.01506 -0.0272171 0)
(-0.0143423 -0.0364858 0)
(-0.0124713 -0.0432122 0)
(-0.0091071 -0.0439677 0)
(-0.00475941 -0.0344289 0)
(-0.000666168 -0.0130594 0)
(6.53303e-05 0.0057866 0)
(0.000695075 0.0163303 0)
(0.00185719 0.0248284 0)
(0.00333511 0.0294302 0)
(0.00486467 0.0295943 0)
(0.00631101 0.0263755 0)
(0.00763195 0.0214981 0)
(0.00882281 0.0164032 0)
(0.00985223 0.0118483 0)
(0.0106096 0.008062 0)
(0.0108828 0.00505909 0)
(0.0105187 0.00282363 0)
(0.0089233 0.00101339 0)
(0.00482108 -0.000924939 0)
(-0.00114974 -0.0027597 0)
(-0.0088102 -0.00397742 0)
(-0.0154712 -0.00389818 0)
(-0.0194436 -0.00219256 0)
(-0.0198188 0.000725504 0)
(-0.0178855 0.00403143 0)
(-0.0142536 0.00629864 0)
(-0.0101028 0.00613276 0)
(-0.00625313 0.00305614 0)
(-0.00316668 -0.00217854 0)
(-0.00324521 -0.00857164 0)
(-0.00436669 -0.0165143 0)
(-0.00634584 -0.0259492 0)
(-0.00838376 -0.036333 0)
(-0.00938435 -0.0457673 0)
(-0.00840469 -0.0504023 0)
(-0.00545288 -0.0438255 0)
(-0.00102906 -0.0194999 0)
(-4.22684e-05 0.00525994 0)
(0.000172196 0.0147951 0)
(0.00119763 0.022566 0)
(0.00300559 0.0268533 0)
(0.00537121 0.0270704 0)
(0.00806123 0.0241483 0)
(0.0108122 0.019688 0)
(0.0133751 0.015016 0)
(0.0155677 0.01086 0)
(0.0172554 0.00746753 0)
(0.0183121 0.00485191 0)
(0.0186796 0.0029697 0)
(0.0182654 0.001569 0)
(0.016605 0.00033144 0)
(0.0130581 -0.000928663 0)
(0.00782901 -0.00200537 0)
(0.0018396 -0.00236015 0)
(-0.00280508 -0.00144848 0)
(-0.00357195 0.000409614 0)
(-0.00212772 0.00273311 0)
(0.0017264 0.00434647 0)
(0.00584622 0.0038984 0)
(0.00916711 0.00118622 0)
(0.0108567 -0.00273923 0)
(0.0101158 -0.00761298 0)
(0.00797066 -0.0139222 0)
(0.00459542 -0.0219546 0)
(0.000274709 -0.0322633 0)
(-0.00382672 -0.0436183 0)
(-0.00602377 -0.0522592 0)
(-0.00548469 -0.050337 0)
(-0.00142192 -0.026151 0)
(-0.000283094 0.00565192 0)
(-0.00100185 0.0143267 0)
(-0.000393217 0.0206609 0)
(0.00179501 0.023949 0)
(0.0051913 0.0237032 0)
(0.00929594 0.0208979 0)
(0.0135862 0.0169383 0)
(0.0175873 0.0128953 0)
(0.021013 0.00934761 0)
(0.0237373 0.00649253 0)
(0.0257214 0.00432475 0)
(0.0269996 0.0027734 0)
(0.0276311 0.00166038 0)
(0.0275341 0.000767768 0)
(0.0261351 -9.65107e-05 0)
(0.0232317 -0.000857683 0)
(0.0192129 -0.00113284 0)
(0.0157498 -0.000671432 0)
(0.014769 0.000383096 0)
(0.0157378 0.0017481 0)
(0.0187785 0.00259593 0)
(0.0222201 0.00216425 0)
(0.0248173 0.000212551 0)
(0.0254718 -0.00266234 0)
(0.0240744 -0.00637734 0)
(0.0210667 -0.0112759 0)
(0.0165978 -0.0176984 0)
(0.0108509 -0.0261625 0)
(0.00436501 -0.0370423 0)
(-0.00148538 -0.0491382 0)
(-0.0044408 -0.0530686 0)
(-0.00172024 -0.0324188 0)
(-0.000779754 0.00765865 0)
(-0.00298883 0.0153554 0)
(-0.00268404 0.0191034 0)
(0.00021242 0.0204981 0)
(0.00514741 0.019458 0)
(0.0109429 0.0167617 0)
(0.0169298 0.0134329 0)
(0.0225012 0.0101764 0)
(0.0273393 0.00736639 0)
(0.0313417 0.00512581 0)
(0.0345173 0.00343695 0)
(0.0369345 0.00222968 0)
(0.0386807 0.00137696 0)
(0.0397623 0.000735328 0)
(0.0399687 0.000163334 0)
(0.0387407 -0.000321752 0)
(0.0364258 -0.0004884 0)
(0.0343343 -0.000229817 0)
(0.033742 0.000368956 0)
(0.0346591 0.00112433 0)
(0.037026 0.00152371 0)
(0.0396524 0.00111221 0)
(0.0414876 -0.00023232 0)
(0.0413139 -0.00219156 0)
(0.0392675 -0.00476113 0)
(0.0354844 -0.00821228 0)
(0.0299925 -0.0129214 0)
(0.0228837 -0.0195127 0)
(0.0145202 -0.0288211 0)
(0.00584573 -0.0411197 0)
(-0.00169293 -0.0511708 0)
(-0.00166312 -0.0375813 0)
(-0.00167641 0.0123727 0)
(-0.00518521 0.0172873 0)
(-0.0039032 0.0170744 0)
(0.000927931 0.0160282 0)
(0.00800377 0.0142118 0)
(0.0157781 0.0118329 0)
(0.0236058 0.00929593 0)
(0.0308617 0.00693735 0)
(0.0372167 0.00494369 0)
(0.042556 0.00337562 0)
(0.0468803 0.00221306 0)
(0.0502557 0.0013991 0)
(0.0527839 0.000843852 0)
(0.0545294 0.000450502 0)
(0.0554426 0.000130808 0)
(0.0551867 -0.000119708 0)
(0.0539649 -0.000192113 0)
(0.0528694 -4.50166e-05 0)
(0.0527502 0.00027779 0)
(0.0537962 0.000665056 0)
(0.0557812 0.000818363 0)
(0.0577629 0.000486032 0)
(0.0587913 -0.000343408 0)
(0.0580401 -0.00150705 0)
(0.0555452 -0.00303115 0)
(0.0513178 -0.00510702 0)
(0.0452683 -0.00805461 0)
(0.0372897 -0.0124826 0)
(0.0274119 -0.0194744 0)
(0.0160657 -0.0303952 0)
(0.00403231 -0.0435955 0)
(-0.000255998 -0.0395613 0)
(-0.00142355 0.01777 0)
(-0.00341729 0.0177313 0)
(0.00334063 0.0129128 0)
(0.0119182 0.0103089 0)
(0.021225 0.00832942 0)
(0.0306745 0.00652882 0)
(0.0397571 0.00489523 0)
(0.0479368 0.00349065 0)
(0.0548993 0.00235923 0)
(0.0605412 0.00151045 0)
(0.0649048 0.000917996 0)
(0.0681307 0.00053398 0)
(0.0704117 0.000295488 0)
(0.0719124 0.000141951 0)
(0.0727024 2.69458e-05 0)
(0.0726656 -5.407e-05 0)
(0.071999 -6.46927e-05 0)
(0.0715035 8.58909e-06 0)
(0.0716925 0.00014903 0)
(0.0727411 0.00030295 0)
(0.0743386 0.000333386 0)
(0.0757128 0.00013421 0)
(0.0760752 -0.000265931 0)
(0.0749761 -0.000791471 0)
(0.0724356 -0.00146766 0)
(0.0684263 -0.00239923 0)
(0.0627828 -0.00378581 0)
(0.0551787 -0.00606949 0)
(0.0450882 -0.0101966 0)
(0.0318441 -0.0178488 0)
(0.0155355 -0.0299088 0)
(0.00630833 -0.0335151 0)
(0.0206556 0.0111338 0)
(0.0267126 0.00901992 0)
(0.0396341 0.00527122 0)
(0.0506233 0.00328033 0)
(0.0595696 0.00214436 0)
(0.0672448 0.00139168 0)
(0.0737883 0.000870491 0)
(0.0790962 0.000513468 0)
(0.0831484 0.000278821 0)
(0.0860587 0.000135809 0)
(0.0880306 5.73414e-05 0)
(0.0893011 2.0066e-05 0)
(0.0900874 4.4332e-06 0)
(0.0905365 -3.04905e-06 0)
(0.090709 -9.46415e-06 0)
(0.0905787 -1.2737e-05 0)
(0.090274 -8.32472e-06 0)
(0.0901364 6.05738e-06 0)
(0.0903748 2.8604e-05 0)
(0.0910327 5.00859e-05 0)
(0.0918704 4.51965e-05 0)
(0.0924371 -1.85471e-06 0)
(0.0923199 -7.45065e-05 0)
(0.0914062 -0.000156899 0)
(0.0897402 -0.000258019 0)
(0.0872978 -0.000400401 0)
(0.0839198 -0.00062716 0)
(0.0792099 -0.00104771 0)
(0.0722583 -0.00193858 0)
(0.0611007 -0.00404485 0)
(0.0433704 -0.0092376 0)
(0.0286099 -0.0145614 0)
)
;

boundaryField
{
    movingWall
    {
        type            fixedValue;
        value           uniform (0.1 0 0);
    }
    fixedWalls
    {
        type            noSlip;
    }
    floor
    {
        type            noSlip;
    }
    frontAndBack
    {
        type            empty;
    }
}


// ************************************************************************* //
