/*--------------------------------*- C++ -*----------------------------------*\
| =========                 |                                                 |
| \\      /  F ield         | OpenFOAM: The Open Source CFD Toolbox           |
|  \\    /   O peration     | Version:  2212                                  |
|   \\  /    A nd           | Website:  www.openfoam.com                      |
|    \\/     M anipulation  |                                                 |
\*---------------------------------------------------------------------------*/
FoamFile
{
    version     2.0;
    format      ascii;
    arch        "LSB;label=64;scalar=64";
    class       surfaceScalarField;
    location    "1770";
    object      phi;
}
// * * * * * * * * * * * * * * * * * * * * * * * * * * * * * * * * * * * * * //

dimensions      [0 3 -1 0 0 0 0];

oriented        oriented;

internalField   nonuniform List<scalar> 
1984
(
2.65239e-10
-2.65245e-10
-6.83404e-10
9.48567e-10
-3.8638e-09
3.18048e-09
-9.34537e-09
5.48159e-09
-1.64458e-08
7.1004e-09
-2.41032e-08
7.6575e-09
-3.13559e-08
7.25263e-09
-3.77863e-08
6.43049e-09
-4.36821e-08
5.89577e-09
-4.98273e-08
6.14525e-09
-5.70933e-08
7.266e-09
-6.60451e-08
8.95183e-09
-7.66653e-08
1.06201e-08
-8.77509e-08
1.10856e-08
-9.53716e-08
7.62079e-09
-9.02149e-08
-5.15677e-09
-5.83146e-08
-3.19003e-08
2.79163e-09
-6.11062e-08
7.57698e-08
-7.29781e-08
1.35638e-07
-5.98683e-08
1.64783e-07
-2.91444e-08
1.62882e-07
1.90026e-09
1.42988e-07
1.98941e-08
1.16687e-07
2.6301e-08
9.01761e-08
2.65112e-08
6.57569e-08
2.44192e-08
4.40906e-08
2.16663e-08
2.56971e-08
1.83935e-08
1.15607e-08
1.41364e-08
2.7952e-09
8.76549e-09
-3.96666e-10
3.19188e-09
-3.96637e-10
-9.57861e-10
6.92542e-10
-6.07984e-09
6.0707e-09
-1.73495e-08
1.44501e-08
-3.50969e-08
2.3229e-08
-5.78411e-08
2.98447e-08
-8.2858e-08
3.26743e-08
-1.07419e-07
3.18137e-08
-1.30113e-07
2.91242e-08
-1.51461e-07
2.72437e-08
-1.73487e-07
2.81716e-08
-1.98563e-07
3.23423e-08
-2.2815e-07
3.8539e-08
-2.61695e-07
4.41653e-08
-2.94668e-07
4.4058e-08
-3.14526e-07
2.7479e-08
-2.93375e-07
-2.63075e-08
-1.93374e-07
-1.31902e-07
-8.61232e-09
-2.45868e-07
2.1023e-07
-2.91821e-07
3.901e-07
-2.39738e-07
4.85005e-07
-1.2405e-07
4.93184e-07
-6.27854e-09
4.45731e-07
6.73469e-08
3.73379e-07
9.86527e-08
2.9499e-07
1.04901e-07
2.19625e-07
9.9784e-08
1.5144e-07
8.98514e-08
9.3307e-08
7.65265e-08
4.81831e-08
5.92602e-08
1.8313e-08
3.86356e-08
3.47949e-09
1.80254e-08
3.08286e-09
-3.52067e-09
4.21329e-09
-1.57235e-08
1.82735e-08
-3.86231e-08
3.73498e-08
-7.2484e-08
5.709e-08
-1.15068e-07
7.24282e-08
-1.62179e-07
7.97862e-08
-2.09445e-07
7.90796e-08
-2.54377e-07
7.40561e-08
-2.97466e-07
7.03324e-08
-3.41643e-07
7.23486e-08
-3.90438e-07
8.11375e-08
-4.45769e-07
9.38703e-08
-5.0575e-07
1.04145e-07
-5.61299e-07
9.96069e-08
-5.90118e-07
5.62986e-08
-5.45616e-07
-7.08101e-08
-3.69932e-07
-3.07585e-07
-5.92623e-08
-5.56538e-07
3.09853e-07
-6.60936e-07
6.19872e-07
-5.49756e-07
7.98487e-07
-3.02666e-07
8.37299e-07
-4.50902e-08
7.77653e-07
1.26993e-07
6.67332e-07
2.08973e-07
5.38283e-07
2.33949e-07
4.08548e-07
2.29519e-07
2.88166e-07
2.10233e-07
1.83907e-07
1.80786e-07
1.01147e-07
1.4202e-07
4.32678e-08
9.65154e-08
1.04567e-08
5.08366e-08
1.35395e-08
-7.07526e-09
1.12886e-08
-2.92211e-08
4.04194e-08
-6.81006e-08
7.62294e-08
-1.2323e-07
1.1222e-07
-1.91179e-07
1.40377e-07
-2.6623e-07
1.54837e-07
-3.42527e-07
1.55377e-07
-4.16596e-07
1.48126e-07
-4.887e-07
1.42436e-07
-5.62176e-07
1.45825e-07
-6.41034e-07
1.59995e-07
-7.26857e-07
1.79693e-07
-8.15493e-07
1.92782e-07
-8.92502e-07
1.76616e-07
-9.25821e-07
8.96177e-08
-8.52605e-07
-1.44026e-07
-6.01509e-07
-5.58681e-07
-1.813e-07
-9.76747e-07
3.21711e-07
-1.16395e-06
7.65754e-07
-9.93799e-07
1.04804e-06
-5.84947e-07
1.14452e-06
-1.41576e-07
1.09598e-06
1.75538e-07
9.64082e-07
3.40867e-07
7.94013e-07
4.04018e-07
6.13953e-07
4.09579e-07
4.41458e-07
3.82729e-07
2.88548e-07
3.33695e-07
1.63966e-07
2.66602e-07
7.33129e-08
1.87169e-07
1.88157e-08
1.05334e-07
3.23551e-08
-1.15214e-08
2.28099e-08
-4.6448e-08
7.5346e-08
-1.05978e-07
1.35759e-07
-1.88294e-07
1.94535e-07
-2.88138e-07
2.40221e-07
-3.97958e-07
2.64656e-07
-5.10461e-07
2.6788e-07
-6.21295e-07
2.58959e-07
-7.30296e-07
2.51438e-07
-8.40581e-07
2.5611e-07
-9.55725e-07
2.75139e-07
-1.07604e-06
3.00008e-07
-1.19442e-06
3.11158e-07
-1.29108e-06
2.73281e-07
-1.32575e-06
1.24284e-07
-1.2242e-06
-2.45578e-07
-9.09748e-07
-8.73129e-07
-4.14799e-07
-1.4717e-06
1.8477e-07
-1.76352e-06
7.54037e-07
-1.56307e-06
1.15845e-06
-9.89357e-07
1.34487e-06
-3.27995e-07
1.33769e-06
1.82717e-07
1.20762e-06
4.70933e-07
1.01449e-06
5.97151e-07
7.97137e-07
6.26932e-07
5.81349e-07
5.98517e-07
3.85365e-07
5.2968e-07
2.22318e-07
4.29648e-07
1.01029e-07
3.08458e-07
2.63883e-08
1.79975e-07
5.87434e-08
-1.68177e-08
3.96277e-08
-6.71801e-08
1.25708e-07
-1.51838e-07
2.20418e-07
-2.67273e-07
3.0997e-07
-4.05841e-07
3.78789e-07
-5.5773e-07
4.16545e-07
-7.14065e-07
4.24216e-07
-8.69573e-07
4.14466e-07
-1.02342e-06
4.05288e-07
-1.17788e-06
4.10565e-07
-1.33523e-06
4.32491e-07
-1.49383e-06
4.58611e-07
-1.64358e-06
4.60908e-07
-1.76056e-06
3.9026e-07
-1.79936e-06
1.63081e-07
-1.68076e-06
-3.64175e-07
-1.32903e-06
-1.22486e-06
-7.98036e-07
-2.00269e-06
-1.55336e-07
-2.40622e-06
5.07273e-07
-2.22568e-06
1.04604e-06
-1.52812e-06
1.35705e-06
-6.39008e-07
1.42709e-06
1.12673e-07
1.32657e-06
5.71459e-07
1.13507e-06
7.88645e-07
9.02367e-07
8.59638e-07
6.62624e-07
8.38261e-07
4.40723e-07
7.51581e-07
2.54478e-07
6.15893e-07
1.15527e-07
4.47409e-07
3.00904e-08
2.65411e-07
8.88337e-08
-2.27679e-08
6.23956e-08
-9.06186e-08
1.93559e-07
-2.03986e-07
3.33785e-07
-3.57561e-07
4.63545e-07
-5.41016e-07
5.62244e-07
-7.4192e-07
6.17449e-07
-9.49524e-07
6.3182e-07
-1.15742e-06
6.22363e-07
-1.36387e-06
6.11733e-07
-1.56988e-06
6.16582e-07
-1.77608e-06
6.38689e-07
-1.97882e-06
6.61345e-07
-2.1658e-06
6.47888e-07
-2.31107e-06
5.35535e-07
-2.36794e-06
2.19944e-07
-2.25772e-06
-4.74389e-07
-1.90565e-06
-1.57694e-06
-1.37036e-06
-2.53798e-06
-7.33939e-07
-3.04264e-06
-3.74694e-08
-2.92214e-06
6.27423e-07
-2.19301e-06
1.0931e-06
-1.10469e-06
1.28385e-06
-7.80719e-08
1.24533e-06
6.09978e-07
1.08699e-06
9.46979e-07
8.69752e-07
1.07688e-06
6.36618e-07
1.0714e-06
4.18948e-07
9.6925e-07
2.38041e-07
7.968e-07
1.0592e-07
5.7953e-07
2.69172e-08
3.44414e-07
1.15751e-07
-2.89297e-08
9.13253e-08
-1.15129e-07
2.79758e-07
-2.59056e-07
4.77712e-07
-4.53911e-07
6.58401e-07
-6.86784e-07
7.95117e-07
-9.42485e-07
8.73149e-07
-1.20812e-06
8.97457e-07
-1.47592e-06
8.90162e-07
-1.74314e-06
8.78956e-07
-2.00968e-06
8.83118e-07
-2.27474e-06
9.03754e-07
-2.53334e-06
9.19938e-07
-2.77228e-06
8.86832e-07
-2.96562e-06
7.28873e-07
-3.06793e-06
3.22256e-07
-3.0031e-06
-5.39219e-07
-2.69201e-06
-1.88803e-06
-2.18492e-06
-3.04507e-06
-1.56396e-06
-3.66359e-06
-8.82531e-07
-3.60357e-06
-1.75e-07
-2.90054e-06
4.48885e-07
-1.72857e-06
8.23773e-07
-4.52961e-07
8.98719e-07
5.35033e-07
8.17227e-07
1.02847e-06
6.56741e-07
1.23737e-06
4.72071e-07
1.25606e-06
3.00103e-07
1.14122e-06
1.62632e-07
9.34271e-07
6.82857e-08
6.73877e-07
1.61146e-08
3.96585e-07
1.31866e-07
-3.46785e-08
1.26004e-07
-1.3845e-07
3.8353e-07
-3.12468e-07
6.51729e-07
-5.49232e-07
8.95165e-07
-8.33868e-07
1.07975e-06
-1.14867e-06
1.18795e-06
-1.47858e-06
1.22736e-06
-1.81444e-06
1.22603e-06
-2.15279e-06
1.21731e-06
-2.49297e-06
1.2233e-06
-2.83357e-06
1.24435e-06
-3.16904e-06
1.25541e-06
-3.4861e-06
1.20389e-06
-3.75914e-06
1.00191e-06
-3.94343e-06
5.0654e-07
-3.96375e-06
-5.18897e-07
-3.73171e-06
-2.12007e-06
-3.28384e-06
-3.49294e-06
-2.69969e-06
-4.24774e-06
-2.0337e-06
-4.26956e-06
-1.32733e-06
-3.60692e-06
-6.25417e-07
-2.43048e-06
-3.60801e-08
-1.0423e-06
2.63528e-07
2.35425e-07
3.17234e-07
9.74764e-07
2.66821e-07
1.28778e-06
1.81112e-07
1.34177e-06
1.00298e-07
1.22203e-06
4.30766e-08
9.91492e-07
1.21081e-08
7.04845e-07
9.53525e-10
4.07739e-07
1.32819e-07
-3.94156e-08
1.65419e-07
-1.58391e-07
5.02505e-07
-3.59747e-07
8.53086e-07
-6.36595e-07
1.17201e-06
-9.73295e-07
1.41645e-06
-1.35038e-06
1.56504e-06
-1.75099e-06
1.62797e-06
-2.16494e-06
1.63997e-06
-2.58853e-06
1.64089e-06
-3.0212e-06
1.65598e-06
-3.46145e-06
1.6846e-06
-3.90322e-06
1.69718e-06
-4.33225e-06
1.63292e-06
-4.72122e-06
1.39088e-06
-5.02301e-06
8.08337e-07
-5.16117e-06
-3.80741e-07
-5.03857e-06
-2.24267e-06
-4.68042e-06
-3.85108e-06
-4.16194e-06
-4.76622e-06
-3.52966e-06
-4.90184e-06
-2.81531e-06
-4.32126e-06
-2.04997e-06
-3.19583e-06
-1.31381e-06
-1.77845e-06
-7.16431e-07
-3.61954e-07
-3.9869e-07
6.57024e-07
-2.49885e-07
1.13897e-06
-1.76516e-07
1.2684e-06
-1.27768e-07
1.17328e-06
-8.38957e-08
9.47619e-07
-4.34464e-08
6.64396e-07
-1.29033e-08
3.77196e-07
1.19916e-07
-4.27303e-08
2.0815e-07
-1.73342e-07
6.33117e-07
-3.97453e-07
1.0772e-06
-7.10505e-07
1.48506e-06
-1.09786e-06
1.8038e-06
-1.53954e-06
2.00672e-06
-2.01756e-06
2.10599e-06
-2.52104e-06
2.14346e-06
-3.04633e-06
2.16618e-06
-3.59299e-06
2.20263e-06
-4.1589e-06
2.25051e-06
-4.73625e-06
2.27453e-06
-5.30767e-06
2.20434e-06
-5.84128e-06
1.92449e-06
-6.28548e-06
1.25254e-06
-6.56177e-06
-1.04448e-07
-6.56994e-06
-2.2345e-06
-6.33046e-06
-4.09056e-06
-5.90897e-06
-5.18771e-06
-5.33401e-06
-5.4768e-06
-4.61672e-06
-5.03856e-06
-3.77497e-06
-4.03757e-06
-2.85507e-06
-2.69836e-06
-1.93359e-06
-1.28343e-06
-1.22912e-06
-4.74418e-08
-7.87853e-07
6.97704e-07
-5.06863e-07
9.87414e-07
-3.14076e-07
9.80498e-07
-1.75316e-07
8.08859e-07
-7.83622e-08
5.67442e-07
-2.02321e-08
3.19066e-07
9.96837e-08
-4.42054e-08
2.52355e-07
-1.81548e-07
7.7046e-07
-4.21606e-07
1.31725e-06
-7.6422e-07
1.82768e-06
-1.198e-06
2.23758e-06
-1.70404e-06
2.51276e-06
-2.26369e-06
2.66564e-06
-2.86506e-06
2.74483e-06
-3.50375e-06
2.80487e-06
-4.17843e-06
2.87731e-06
-4.88515e-06
2.95723e-06
-5.61282e-06
3.00221e-06
-6.33956e-06
2.93108e-06
-7.02864e-06
2.61356e-06
-7.62422e-06
1.84812e-06
-8.04801e-06
3.19339e-07
-8.19656e-06
-2.08595e-06
-8.09884e-06
-4.18828e-06
-7.80103e-06
-5.48552e-06
-7.30471e-06
-5.97312e-06
-6.59506e-06
-5.74822e-06
-5.67088e-06
-4.96174e-06
-4.56694e-06
-3.80231e-06
-3.3693e-06
-2.48107e-06
-2.20411e-06
-1.21263e-06
-1.32263e-06
-1.8377e-07
-7.51932e-07
4.16713e-07
-4.0682e-07
6.35386e-07
-1.96545e-07
5.98584e-07
-7.56579e-08
4.46555e-07
-1.64566e-08
2.59865e-07
8.3227e-08
-4.28085e-08
2.95164e-07
-1.78904e-07
9.06555e-07
-4.23073e-07
1.56142e-06
-7.82102e-07
2.18671e-06
-1.25075e-06
2.70623e-06
-1.81289e-06
3.0749e-06
-2.44896e-06
3.30171e-06
-3.14421e-06
3.44009e-06
-3.89129e-06
3.55195e-06
-4.68627e-06
3.6723e-06
-5.52249e-06
3.79344e-06
-6.38545e-06
3.86516e-06
-7.24954e-06
3.79518e-06
-8.07523e-06
3.43924e-06
-8.80666e-06
2.57955e-06
-9.37757e-06
8.90247e-07
-9.67919e-06
-1.78432e-06
-9.74084e-06
-4.12663e-06
-9.59086e-06
-5.6355e-06
-9.20083e-06
-6.36315e-06
-8.52941e-06
-6.41964e-06
-7.56e-06
-5.93115e-06
-6.32487e-06
-5.03744e-06
-4.91433e-06
-3.89161e-06
-3.4702e-06
-2.65676e-06
-2.15602e-06
-1.49795e-06
-1.17564e-06
-5.6367e-07
-5.59249e-07
1.89929e-08
-2.25413e-07
2.64749e-07
-6.88345e-08
2.89976e-07
-1.01347e-08
2.01165e-07
7.30923e-08
-3.64205e-08
3.31584e-07
-1.57091e-07
1.02723e-06
-3.83305e-07
1.78764e-06
-7.31999e-07
2.5354e-06
-1.20813e-06
3.18236e-06
-1.80094e-06
3.66771e-06
-2.4892e-06
3.98997e-06
-3.2519e-06
4.20279e-06
-4.07511e-06
4.37516e-06
-4.95051e-06
4.5477e-06
-5.86932e-06
4.71226e-06
-6.81626e-06
4.81211e-06
-7.76608e-06
4.745e-06
-8.68206e-06
4.35522e-06
-9.51626e-06
3.41375e-06
-1.02175e-05
1.5915e-06
-1.0673e-05
-1.32883e-06
-1.09086e-05
-3.89108e-06
-1.0941e-05
-5.60303e-06
-1.07132e-05
-6.59102e-06
-1.01571e-05
-6.97573e-06
-9.23927e-06
-6.84895e-06
-7.98491e-06
-6.29181e-06
-6.48304e-06
-5.39348e-06
-4.87532e-06
-4.26449e-06
-3.33081e-06
-3.04246e-06
-2.00786e-06
-1.88662e-06
-1.03902e-06
-9.49848e-07
-4.49739e-07
-3.24529e-07
-1.47147e-07
-1.2616e-08
-2.51773e-08
7.91947e-08
4.79149e-08
-2.23697e-08
3.53954e-07
-1.05236e-07
1.11009e-06
-2.76904e-07
1.95931e-06
-5.67544e-07
2.82604e-06
-9.97883e-07
3.6127e-06
-1.56784e-06
4.23767e-06
-2.25558e-06
4.67771e-06
-3.03003e-06
4.97724e-06
-3.86533e-06
5.21046e-06
-4.74611e-06
5.42848e-06
-5.6629e-06
5.62904e-06
-6.60439e-06
5.7536e-06
-7.55259e-06
5.6932e-06
-8.48176e-06
5.28439e-06
-9.36019e-06
4.29218e-06
-1.01543e-05
2.38564e-06
-1.07434e-05
-7.39787e-07
-1.11654e-05
-3.46901e-06
-1.14351e-05
-5.33341e-06
-1.1468e-05
-6.55804e-06
-1.1164e-05
-7.27976e-06
-1.04584e-05
-7.55454e-06
-9.34874e-06
-7.40148e-06
-7.90135e-06
-6.84087e-06
-6.24253e-06
-5.9233e-06
-4.54057e-06
-4.74442e-06
-2.97892e-06
-3.44827e-06
-1.71481e-06
-2.21396e-06
-8.27386e-07
-1.21196e-06
-3.04935e-07
-5.35067e-07
-6.15281e-08
-1.64212e-07
-1.36132e-08
-3.07862e-10
3.54262e-07
-2.0308e-08
1.13009e-06
-9.15405e-08
2.03054e-06
-2.55698e-07
2.9902e-06
-5.5405e-07
3.91105e-06
-1.00827e-06
4.69189e-06
-1.60291e-06
5.27234e-06
-2.29697e-06
5.6713e-06
-3.04727e-06
5.96076e-06
-3.82467e-06
6.20588e-06
-4.61699e-06
6.42136e-06
-5.42015e-06
6.55676e-06
-6.23099e-06
6.50403e-06
-7.04616e-06
6.09957e-06
-7.86644e-06
5.11246e-06
-8.694e-06
3.2132e-06
-9.39496e-06
-3.88299e-08
-1.00044e-05
-2.85954e-06
-1.05813e-05
-4.75655e-06
-1.10173e-05
-6.12202e-06
-1.11682e-05
-7.12882e-06
-1.09131e-05
-7.80965e-06
-1.01896e-05
-8.125e-06
-9.01357e-06
-8.01691e-06
-7.47671e-06
-7.46016e-06
-5.73443e-06
-6.4867e-06
-3.9855e-06
-5.1972e-06
-2.43796e-06
-3.7615e-06
-1.25409e-06
-2.39583e-06
-4.9291e-07
-1.29624e-06
-1.06654e-07
-5.50467e-07
-1.20267e-07
2.28901e-08
3.31372e-07
7.36134e-08
1.07937e-06
1.25371e-07
1.97878e-06
1.36793e-07
2.97878e-06
5.81444e-08
3.9897e-06
-1.51599e-07
4.90163e-06
-5.01639e-07
5.62238e-06
-9.60833e-07
6.1305e-06
-1.47293e-06
6.47285e-06
-1.98236e-06
6.71531e-06
-2.47033e-06
6.90933e-06
-2.93295e-06
7.01939e-06
-3.37552e-06
6.9466e-06
-3.80826e-06
6.5323e-06
-4.24627e-06
5.55047e-06
-4.73464e-06
3.70157e-06
-5.33596e-06
5.62491e-07
-6.02866e-06
-2.16685e-06
-6.83334e-06
-3.95188e-06
-7.67161e-06
-5.28374e-06
-8.39396e-06
-6.40647e-06
-8.82923e-06
-7.37439e-06
-8.82741e-06
-8.12682e-06
-8.31918e-06
-8.52514e-06
-7.32534e-06
-8.454e-06
-5.95247e-06
-7.85957e-06
-4.37902e-06
-6.77064e-06
-2.82993e-06
-5.31059e-06
-1.52921e-06
-3.69655e-06
-6.25814e-07
-2.19964e-06
-1.40754e-07
-1.03553e-06
-2.61022e-07
3.59454e-08
2.95426e-07
1.30562e-07
9.84752e-07
2.65046e-07
1.8443e-06
4.05561e-07
2.83826e-06
5.07482e-07
3.88778e-06
5.2649e-07
4.88262e-06
4.34125e-07
5.71475e-06
2.39563e-07
6.32506e-06
-1.00936e-08
6.72251e-06
-2.52498e-07
6.95772e-06
-4.46937e-07
7.10376e-06
-5.80235e-07
7.15269e-06
-6.60806e-07
7.02717e-06
-7.10379e-07
6.58187e-06
-7.56982e-07
5.59708e-06
-8.23097e-07
3.76769e-06
-1.11107e-06
8.50464e-07
-1.66839e-06
-1.60953e-06
-2.41118e-06
-3.20909e-06
-3.31282e-06
-4.3821e-06
-4.29913e-06
-5.42016e-06
-5.22492e-06
-6.4486e-06
-5.87417e-06
-7.47756e-06
-6.09604e-06
-8.30327e-06
-5.82389e-06
-8.72615e-06
-5.08465e-06
-8.59881e-06
-3.99381e-06
-7.86149e-06
-2.74112e-06
-6.56327e-06
-1.56058e-06
-4.87709e-06
-6.64491e-07
-3.09573e-06
-1.54013e-07
-1.54601e-06
-4.15035e-07
4.0495e-08
2.54931e-07
1.54881e-07
8.70365e-07
3.32746e-07
1.66643e-06
5.48037e-07
2.62297e-06
7.61633e-07
3.67418e-06
9.30418e-07
4.71384e-06
1.02151e-06
5.62366e-06
1.03009e-06
6.31647e-06
9.86525e-07
6.76608e-06
9.4104e-07
7.0032e-06
9.50519e-07
7.09429e-06
1.04093e-06
7.06228e-06
1.20606e-06
6.86204e-06
1.41373e-06
6.37421e-06
1.61032e-06
5.40049e-06
1.71883e-06
3.65917e-06
1.53772e-06
1.03157e-06
1.07321e-06
-1.14502e-06
4.47575e-07
-2.58345e-06
-3.33438e-07
-3.60109e-06
-1.2827e-06
-4.47089e-06
-2.34436e-06
-5.38694e-06
-3.33353e-06
-6.4884e-06
-4.04241e-06
-7.59438e-06
-4.32867e-06
-8.4399e-06
-4.1384e-06
-8.78908e-06
-3.51285e-06
-8.48703e-06
-2.58428e-06
-7.49184e-06
-1.56398e-06
-5.89739e-06
-6.98381e-07
-3.96134e-06
-1.67416e-07
-2.07697e-06
-5.82451e-07
3.87606e-08
2.16171e-07
1.53701e-07
7.55425e-07
3.42435e-07
1.4777e-06
5.87937e-07
2.37747e-06
8.59077e-07
3.40304e-06
1.11788e-06
4.45504e-06
1.33208e-06
5.40946e-06
1.48987e-06
6.15868e-06
1.60815e-06
6.64779e-06
1.72647e-06
6.88489e-06
1.89481e-06
6.92595e-06
2.14317e-06
6.81391e-06
2.46773e-06
6.53748e-06
2.82962e-06
6.01232e-06
3.15464e-06
5.07546e-06
3.31607e-06
3.49774e-06
3.14111e-06
1.20654e-06
2.69639e-06
-7.00294e-07
2.11334e-06
-2.00041e-06
1.44199e-06
-2.92973e-06
6.53089e-07
-3.68199e-06
-2.86185e-07
-4.44767e-06
-1.34702e-06
-5.42756e-06
-2.3061e-06
-6.63531e-06
-2.96972e-06
-7.77628e-06
-3.21097e-06
-8.54783e-06
-2.99599e-06
-8.70201e-06
-2.38785e-06
-8.09998e-06
-1.55078e-06
-6.73446e-06
-7.33373e-07
-4.77874e-06
-1.82606e-07
-2.62774e-06
-7.65057e-07
3.30143e-08
1.83156e-07
1.35008e-07
6.53431e-07
3.10093e-07
1.30261e-06
5.5057e-07
2.13699e-06
8.35534e-07
3.11808e-06
1.13601e-06
4.15457e-06
1.42527e-06
5.12019e-06
1.69047e-06
5.89348e-06
1.93941e-06
6.39885e-06
2.19784e-06
6.62646e-06
2.50055e-06
6.62324e-06
2.86999e-06
6.44447e-06
3.30015e-06
6.10732e-06
3.74937e-06
5.5631e-06
4.13542e-06
4.68942e-06
4.32045e-06
3.31271e-06
4.16163e-06
1.36535e-06
3.73402e-06
-2.7268e-07
3.15395e-06
-1.42034e-06
2.49038e-06
-2.26616e-06
1.78443e-06
-2.97604e-06
1.02345e-06
-3.68668e-06
1.18566e-07
-4.52268e-06
-8.819e-07
-5.63484e-06
-1.76001e-06
-6.89817e-06
-2.32061e-06
-7.98724e-06
-2.45724e-06
-8.56538e-06
-2.15808e-06
-8.39914e-06
-1.52324e-06
-7.3693e-06
-7.73897e-07
-5.52808e-06
-2.02636e-07
-3.199e-06
-9.67693e-07
2.46493e-08
1.58507e-07
1.04121e-07
5.7396e-07
2.47205e-07
1.15953e-06
4.55503e-07
1.92869e-06
7.20471e-07
2.85311e-06
1.0257e-06
3.84934e-06
1.35414e-06
4.79175e-06
1.69579e-06
5.55184e-06
2.05156e-06
6.04309e-06
2.43168e-06
6.24633e-06
2.85119e-06
6.20373e-06
3.31799e-06
5.97767e-06
3.82009e-06
5.60522e-06
4.31589e-06
5.0673e-06
4.72595e-06
4.27935e-06
4.92354e-06
3.11513e-06
4.7994e-06
1.48949e-06
4.41806e-06
1.08652e-07
3.87348e-06
-8.75763e-07
3.23469e-06
-1.62737e-06
2.55166e-06
-2.29301e-06
1.84984e-06
-2.98486e-06
1.11963e-06
-3.79247e-06
2.6408e-07
-4.77929e-06
-6.61308e-07
-5.97278e-06
-1.44051e-06
-7.20804e-06
-1.87563e-06
-8.13027e-06
-1.87613e-06
-8.39863e-06
-1.46612e-06
-7.77931e-06
-8.14248e-07
-6.17995e-06
-2.28788e-07
-3.78446e-06
-1.19648e-06
1.3876e-08
1.44631e-07
6.2327e-08
5.25509e-07
1.58028e-07
1.06383e-06
3.13409e-07
1.77331e-06
5.35243e-07
2.63127e-06
8.21773e-07
3.56281e-06
1.16739e-06
4.44613e-06
1.5657e-06
5.15353e-06
2.01043e-06
5.59835e-06
2.49481e-06
5.76196e-06
3.01286e-06
5.68567e-06
3.5563e-06
5.43423e-06
4.10639e-06
5.05514e-06
4.62389e-06
4.54981e-06
5.03904e-06
3.8642e-06
5.24654e-06
2.90762e-06
5.16952e-06
1.56652e-06
4.85822e-06
4.19956e-07
4.38235e-06
-3.99895e-07
3.81104e-06
-1.05606e-06
3.18554e-06
-1.66752e-06
2.53359e-06
-2.33292e-06
1.86295e-06
-3.12183e-06
1.1498e-06
-4.06614e-06
3.29219e-07
-5.1522e-06
-5.37816e-07
-6.341e-06
-1.2203e-06
-7.44778e-06
-1.51412e-06
-8.10482e-06
-1.35642e-06
-7.93701e-06
-8.42469e-07
-6.6939e-06
-2.61761e-07
-4.36517e-06
-1.45824e-06
-1.05488e-09
1.45686e-07
4.37039e-09
5.20083e-07
3.65994e-08
1.0316e-06
1.24903e-07
1.68501e-06
2.94422e-07
2.46176e-06
5.55367e-07
3.30186e-06
9.10751e-07
4.09075e-06
1.35599e-06
4.70828e-06
1.87572e-06
5.07863e-06
2.4454e-06
5.19227e-06
3.04033e-06
5.09075e-06
3.63898e-06
4.83558e-06
4.21811e-06
4.47601e-06
4.74318e-06
4.02474e-06
5.1578e-06
3.44957e-06
5.38092e-06
2.68451e-06
5.35521e-06
1.59222e-06
5.12869e-06
6.46483e-07
4.7589e-06
-3.01077e-08
4.29718e-06
-5.94339e-07
3.77068e-06
-1.14101e-06
3.1987e-06
-1.76093e-06
2.5868e-06
-2.50993e-06
1.92602e-06
-3.40536e-06
1.19716e-06
-4.42334e-06
3.6816e-07
-5.512e-06
-4.66556e-07
-6.61306e-06
-1.04589e-06
-7.52549e-06
-1.17072e-06
-7.81217e-06
-8.4393e-07
-7.0207e-06
-3.01686e-07
-4.90741e-06
-1.75993e-06
-2.2834e-08
1.6852e-07
-7.54175e-08
5.72667e-07
-1.21318e-07
1.0775e-06
-1.07798e-07
1.67149e-06
1.22051e-08
2.34175e-06
2.57057e-07
3.05701e-06
6.27268e-07
3.72054e-06
1.11666e-06
4.2189e-06
1.69893e-06
4.49636e-06
2.33317e-06
4.55803e-06
2.98154e-06
4.44237e-06
3.61518e-06
4.20194e-06
4.21036e-06
3.88083e-06
4.73959e-06
3.49551e-06
5.16145e-06
3.02771e-06
5.41847e-06
2.42749e-06
5.46609e-06
1.54461e-06
5.35065e-06
7.61922e-07
5.10813e-06
2.12407e-07
4.77156e-06
-2.57767e-07
4.36643e-06
-7.35883e-07
3.8976e-06
-1.2921e-06
3.35942e-06
-1.97175e-06
2.74099e-06
-2.78694e-06
2.03361e-06
-3.71596e-06
1.23698e-06
-4.71537e-06
3.60139e-07
-5.73623e-06
-4.49609e-07
-6.71574e-06
-8.86934e-07
-7.37485e-06
-8.01939e-07
-7.10569e-06
-3.45774e-07
-5.36357e-06
-2.1057e-06
-5.88665e-08
2.27386e-07
-1.88726e-07
7.02527e-07
-3.18893e-07
1.20767e-06
-3.72036e-07
1.72463e-06
-2.90055e-07
2.25977e-06
-4.19713e-08
2.80893e-06
3.5803e-07
3.32054e-06
8.93378e-07
3.68355e-06
1.52667e-06
3.86307e-06
2.20579e-06
3.87891e-06
2.88802e-06
3.76014e-06
3.54378e-06
3.54618e-06
4.15278e-06
3.27183e-06
4.69584e-06
2.95244e-06
5.14558e-06
2.57798e-06
5.46314e-06
2.10993e-06
5.60527e-06
1.40248e-06
5.60296e-06
7.64238e-07
5.48971e-06
3.2565e-07
5.28791e-06
-5.59646e-08
5.01095e-06
-4.5892e-07
4.65162e-06
-9.32776e-07
4.19398e-06
-1.51411e-06
3.62106e-06
-2.21402e-06
2.92422e-06
-3.01912e-06
2.11028e-06
-3.90143e-06
1.20531e-06
-4.83125e-06
2.65784e-07
-5.77622e-06
-4.79999e-07
-6.62907e-06
-6.94045e-07
-6.89164e-06
-3.84296e-07
-5.67332e-06
-2.49e-06
-1.19516e-07
3.46903e-07
-3.45048e-07
9.28058e-07
-5.48602e-07
1.41122e-06
-6.36192e-07
1.81222e-06
-5.56076e-07
2.17966e-06
-2.89074e-07
2.54192e-06
1.55101e-07
2.87636e-06
7.42818e-07
3.09583e-06
1.41832e-06
3.18757e-06
2.12952e-06
3.1677e-06
2.83714e-06
3.05253e-06
3.51552e-06
2.8678e-06
4.14927e-06
2.63808e-06
4.72593e-06
2.37578e-06
5.22774e-06
2.07617e-06
5.62624e-06
1.71142e-06
5.86971e-06
1.15901e-06
5.97381e-06
6.6014e-07
5.97649e-06
3.22974e-07
5.89219e-06
2.83308e-08
5.72332e-06
-2.90047e-07
5.45773e-06
-6.67185e-07
5.07312e-06
-1.1295e-06
4.54691e-06
-1.68781e-06
3.86575e-06
-2.33796e-06
3.03361e-06
-3.06929e-06
2.07657e-06
-3.87422e-06
1.05108e-06
-4.75072e-06
8.30574e-08
-5.66104e-06
-4.87129e-07
-6.32146e-06
-3.97389e-07
-5.76306e-06
-2.88739e-06
-2.12755e-07
5.59658e-07
-5.33663e-07
1.24897e-06
-7.67545e-07
1.6451e-06
-8.31805e-07
1.87648e-06
-7.03249e-07
2.0511e-06
-3.8156e-07
2.22023e-06
1.25381e-07
2.36942e-06
7.6873e-07
2.45248e-06
1.48215e-06
2.47415e-06
2.22349e-06
2.42635e-06
2.96021e-06
2.31582e-06
3.67084e-06
2.15717e-06
4.34258e-06
1.96634e-06
4.96521e-06
1.75315e-06
5.52454e-06
1.51683e-06
5.99546e-06
1.2405e-06
6.31681e-06
8.37661e-07
6.49628e-06
4.80666e-07
6.57704e-06
2.4221e-07
6.57194e-06
3.34386e-08
6.47715e-06
-1.95259e-07
6.27799e-06
-4.68028e-07
5.9511e-06
-8.02608e-07
5.47142e-06
-1.20812e-06
4.82e-06
-1.68654e-06
3.99159e-06
-2.24087e-06
3.0013e-06
-2.88393e-06
1.89277e-06
-3.64219e-06
7.64841e-07
-4.53311e-06
-1.32145e-07
-5.42447e-06
-3.54549e-07
-5.54066e-06
-3.24194e-06
-3.30178e-07
8.89835e-07
-6.99975e-07
1.61876e-06
-8.62832e-07
1.80796e-06
-8.05563e-07
1.81921e-06
-5.55098e-07
1.80064e-06
-1.22261e-07
1.7874e-06
4.70042e-07
1.77712e-06
1.16275e-06
1.75977e-06
1.91117e-06
1.72573e-06
2.68099e-06
1.65653e-06
3.44419e-06
1.55262e-06
4.18061e-06
1.42075e-06
4.8764e-06
1.27054e-06
5.52009e-06
1.10946e-06
6.09803e-06
9.3889e-07
6.58761e-06
7.50929e-07
6.92861e-06
4.9666e-07
7.13028e-06
2.78991e-07
7.23783e-06
1.34663e-07
7.2648e-06
6.47339e-09
7.20561e-06
-1.36068e-07
7.04502e-06
-3.0744e-07
6.76195e-06
-5.19536e-07
6.33206e-06
-7.78243e-07
5.73286e-06
-1.08734e-06
4.9483e-06
-1.45632e-06
3.97445e-06
-1.91008e-06
2.82954e-06
-2.49728e-06
1.57938e-06
-3.28295e-06
4.08631e-07
-4.25373e-06
-2.15219e-07
-4.91681e-06
-3.45715e-06
-4.45617e-07
1.33545e-06
-6.89424e-07
1.86257e-06
-5.75795e-07
1.69433e-06
-2.44091e-07
1.48751e-06
2.29284e-07
1.32726e-06
8.13847e-07
1.20283e-06
1.48119e-06
1.10977e-06
2.20558e-06
1.03538e-06
2.96169e-06
9.69624e-07
3.72147e-06
8.96749e-07
4.46074e-06
8.13358e-07
5.16033e-06
7.21154e-07
5.80624e-06
6.24635e-07
6.38781e-06
5.27894e-07
6.89488e-06
4.31818e-07
7.31242e-06
3.33391e-07
7.59655e-06
2.12534e-07
7.76228e-06
1.13255e-07
7.85037e-06
4.65727e-08
7.87081e-06
-1.39678e-08
7.81788e-06
-8.31346e-08
7.6795e-06
-1.69055e-07
7.43734e-06
-2.77378e-07
7.06989e-06
-4.10797e-07
6.5547e-06
-5.72147e-07
5.86887e-06
-7.70492e-07
4.98908e-06
-1.03029e-06
3.89525e-06
-1.40345e-06
2.5913e-06
-1.979e-06
1.1898e-06
-2.85223e-06
1.16593e-07
-3.8436e-06
-3.34056e-06
-3.7528e-07
1.71073e-06
1.66893e-08
1.4706e-06
7.19058e-07
9.91961e-07
1.42079e-06
7.85781e-07
2.11066e-06
6.37391e-07
2.79686e-06
5.16629e-07
3.47811e-06
4.28525e-07
4.14919e-06
3.64303e-07
4.80348e-06
3.15339e-07
5.42739e-06
2.72834e-07
6.00735e-06
2.33401e-07
6.53234e-06
1.96161e-07
6.99539e-06
1.61586e-07
7.39309e-06
1.3019e-07
7.72344e-06
1.01473e-07
7.98254e-06
7.42917e-08
8.15062e-06
4.44563e-08
8.24305e-06
2.08266e-08
8.28556e-06
4.05799e-09
8.28359e-06
-1.19958e-08
8.23206e-06
-3.16063e-08
8.12068e-06
-5.76745e-08
7.93489e-06
-9.15889e-08
7.65808e-06
-1.33982e-07
7.27193e-06
-1.86e-07
6.7537e-06
-2.52257e-07
6.06985e-06
-3.46444e-07
5.16758e-06
-5.01176e-07
3.97093e-06
-7.82357e-07
2.42047e-06
-1.30176e-06
7.47085e-07
-2.17022e-06
-2.59348e-06
1.71073e-06
3.18133e-06
4.17329e-06
4.95908e-06
5.59647e-06
6.11309e-06
6.54162e-06
6.90592e-06
7.22126e-06
7.4941e-06
7.7275e-06
7.92366e-06
8.08524e-06
8.21543e-06
8.31691e-06
8.3912e-06
8.43565e-06
8.45648e-06
8.46054e-06
8.44854e-06
8.41694e-06
8.35926e-06
8.26767e-06
8.13369e-06
7.94769e-06
7.69543e-06
7.34899e-06
6.84781e-06
6.06546e-06
4.7637e-06
2.59348e-06
)
;

boundaryField
{
    movingWall
    {
        type            calculated;
        value           uniform 0;
    }
    fixedWalls
    {
        type            calculated;
        value           uniform 0;
    }
    floor
    {
        type            calculated;
        value           uniform 0;
    }
    frontAndBack
    {
        type            empty;
        value           nonuniform List<scalar> 0();
    }
}


// ************************************************************************* //
