/*--------------------------------*- C++ -*----------------------------------*\
| =========                 |                                                 |
| \\      /  F ield         | OpenFOAM: The Open Source CFD Toolbox           |
|  \\    /   O peration     | Version:  2212                                  |
|   \\  /    A nd           | Website:  www.openfoam.com                      |
|    \\/     M anipulation  |                                                 |
\*---------------------------------------------------------------------------*/
FoamFile
{
    version     2.0;
    format      ascii;
    arch        "LSB;label=64;scalar=64";
    class       volScalarField;
    location    "1770";
    object      Xli;
}
// * * * * * * * * * * * * * * * * * * * * * * * * * * * * * * * * * * * * * //

dimensions      [1 -3 0 0 0 0 0];

internalField   nonuniform List<scalar> 
1024
(
0.042544
0.0425448
0.0425468
0.0425505
0.0425566
0.0425656
0.0425783
0.0425952
0.0426167
0.0426423
0.0426712
0.042702
0.0427327
0.0427615
0.0427868
0.0428071
0.0428194
0.0428219
0.042816
0.0428035
0.042786
0.0427653
0.042743
0.0427211
0.0427013
0.0426848
0.0426719
0.0426626
0.0426562
0.0426523
0.0426501
0.0426492
0.0425442
0.042545
0.0425471
0.0425508
0.0425569
0.0425661
0.0425789
0.042596
0.0426175
0.0426433
0.0426723
0.0427031
0.0427338
0.0427626
0.0427879
0.0428082
0.0428205
0.0428231
0.0428172
0.0428047
0.0427873
0.0427665
0.0427441
0.0427221
0.0427022
0.0426855
0.0426724
0.042663
0.0426565
0.0426526
0.0426504
0.0426495
0.0425448
0.0425457
0.0425478
0.0425516
0.0425578
0.0425672
0.0425803
0.0425976
0.0426195
0.0426456
0.0426748
0.0427058
0.0427365
0.0427653
0.0427905
0.0428109
0.0428234
0.0428261
0.0428202
0.0428076
0.04279
0.042769
0.0427464
0.0427241
0.0427039
0.0426869
0.0426736
0.0426639
0.0426573
0.0426532
0.042651
0.0426501
0.0425459
0.0425468
0.042549
0.042553
0.0425594
0.042569
0.0425826
0.0426005
0.0426229
0.0426494
0.0426791
0.0427102
0.042741
0.0427698
0.0427951
0.0428156
0.0428285
0.0428315
0.0428257
0.0428128
0.0427946
0.042773
0.0427499
0.0427271
0.0427064
0.042689
0.0426753
0.0426653
0.0426586
0.0426544
0.0426522
0.0426513
0.0425477
0.0425486
0.0425509
0.0425551
0.0425618
0.0425719
0.042586
0.0426046
0.0426279
0.0426551
0.0426853
0.0427167
0.0427477
0.0427766
0.0428021
0.0428231
0.0428367
0.0428403
0.0428345
0.0428209
0.0428015
0.0427787
0.0427546
0.0427311
0.0427097
0.0426918
0.0426777
0.0426675
0.0426605
0.0426563
0.042654
0.0426531
0.0425503
0.0425513
0.0425537
0.042558
0.0425652
0.0425758
0.0425908
0.0426104
0.0426346
0.0426628
0.0426937
0.0427257
0.0427569
0.0427861
0.0428121
0.042834
0.0428488
0.0428534
0.0428476
0.0428327
0.0428113
0.0427865
0.0427608
0.042736
0.0427138
0.0426952
0.0426808
0.0426703
0.0426633
0.0426591
0.0426568
0.0426559
0.0425539
0.0425549
0.0425574
0.042562
0.0425696
0.042581
0.0425969
0.0426177
0.0426432
0.0426727
0.0427046
0.0427372
0.0427691
0.0427988
0.0428257
0.0428491
0.0428658
0.0428718
0.0428659
0.0428493
0.0428251
0.0427972
0.0427688
0.0427422
0.0427188
0.0426995
0.0426848
0.0426743
0.0426673
0.0426632
0.042661
0.0426602
0.0425585
0.0425595
0.0425622
0.0425671
0.0425753
0.0425875
0.0426045
0.0426267
0.0426538
0.0426847
0.0427179
0.0427516
0.0427843
0.0428151
0.0428435
0.0428691
0.0428883
0.0428962
0.0428903
0.0428719
0.0428443
0.0428123
0.0427802
0.0427508
0.0427257
0.0427057
0.0426907
0.0426802
0.0426735
0.0426696
0.0426677
0.042667
0.0425643
0.0425654
0.0425681
0.0425734
0.0425821
0.0425952
0.0426135
0.0426373
0.0426661
0.0426989
0.0427337
0.0427689
0.0428029
0.0428352
0.0428656
0.042894
0.0429165
0.0429269
0.0429219
0.0429022
0.0428714
0.0428349
0.042798
0.0427648
0.0427373
0.0427161
0.0427007
0.0426904
0.0426841
0.0426806
0.042679
0.0426785
0.0425712
0.0425723
0.0425753
0.0425808
0.0425901
0.0426041
0.0426237
0.0426492
0.0426801
0.0427149
0.0427518
0.0427887
0.0428245
0.0428588
0.0428917
0.0429232
0.0429495
0.0429634
0.0429609
0.0429423
0.0429102
0.0428701
0.0428284
0.0427904
0.0427593
0.042736
0.0427198
0.0427094
0.0427034
0.0427004
0.0426992
0.0426989
0.0425793
0.0425804
0.0425835
0.0425893
0.0425992
0.0426141
0.042635
0.0426623
0.0426953
0.0427324
0.0427715
0.0428106
0.0428483
0.0428846
0.0429199
0.0429545
0.0429848
0.0430038
0.043007
0.0429934
0.0429645
0.0429248
0.0428806
0.0428383
0.0428026
0.0427756
0.0427572
0.0427457
0.0427395
0.0427366
0.0427356
0.0427354
0.0425883
0.0425895
0.0425927
0.0425988
0.0426091
0.0426248
0.042647
0.0426759
0.042711
0.0427504
0.0427918
0.0428328
0.0428722
0.0429099
0.0429467
0.0429834
0.0430175
0.0430431
0.0430557
0.0430531
0.0430347
0.0430029
0.0429625
0.04292
0.0428809
0.0428494
0.0428268
0.0428123
0.0428041
0.0428002
0.0427988
0.0427986
0.0425982
0.0425994
0.0426026
0.0426088
0.0426194
0.0426358
0.0426589
0.0426892
0.0427259
0.0427672
0.0428103
0.0428526
0.0428927
0.0429303
0.0429665
0.0430028
0.0430389
0.0430716
0.0430966
0.0431102
0.0431099
0.0430952
0.0430687
0.0430347
0.0429987
0.0429656
0.0429389
0.0429198
0.0429079
0.0429014
0.0428985
0.0428976
0.0426083
0.0426095
0.0426127
0.042619
0.0426296
0.0426461
0.0426696
0.0427005
0.042738
0.0427801
0.0428238
0.042866
0.0429048
0.0429396
0.0429717
0.0430036
0.0430379
0.0430752
0.043112
0.0431435
0.043165
0.0431739
0.0431699
0.0431548
0.0431321
0.0431062
0.0430813
0.0430606
0.0430457
0.0430364
0.0430316
0.0430298
0.0426179
0.0426191
0.0426222
0.0426283
0.0426386
0.0426546
0.0426775
0.0427078
0.0427446
0.0427859
0.0428284
0.0428684
0.0429034
0.0429324
0.0429562
0.0429784
0.0430052
0.043042
0.0430866
0.043133
0.0431746
0.0432069
0.0432275
0.0432363
0.0432346
0.043225
0.0432111
0.0431965
0.0431839
0.0431748
0.0431694
0.0431672
0.0426256
0.0426268
0.0426297
0.0426354
0.0426449
0.0426596
0.0426807
0.0427087
0.0427429
0.0427813
0.0428205
0.0428564
0.0428856
0.0429063
0.0429188
0.0429271
0.0429408
0.0429713
0.0430185
0.0430756
0.0431341
0.043187
0.0432298
0.0432607
0.0432798
0.0432887
0.0432898
0.0432862
0.0432807
0.0432755
0.0432718
0.0432702
0.0426295
0.0426306
0.0426333
0.0426384
0.0426468
0.0426597
0.042678
0.0427023
0.0427323
0.0427661
0.0428006
0.0428315
0.0428549
0.0428679
0.0428701
0.0428653
0.0428643
0.0428838
0.0429275
0.04299
0.0430619
0.0431335
0.043197
0.0432482
0.0432855
0.0433098
0.0433234
0.0433293
0.0433303
0.0433291
0.0433275
0.0433266
0.042629
0.04263
0.0426325
0.0426371
0.0426444
0.0426554
0.042671
0.0426916
0.0427171
0.042746
0.0427756
0.042802
0.0428212
0.0428298
0.0428267
0.0428147
0.0428047
0.0428144
0.0428504
0.0429107
0.0429884
0.0430731
0.0431545
0.0432247
0.0432795
0.0433183
0.0433428
0.0433562
0.043362
0.0433634
0.0433631
0.0433625
0.0426252
0.0426262
0.0426286
0.0426327
0.0426392
0.0426488
0.042662
0.0426794
0.0427009
0.0427253
0.0427505
0.0427732
0.0427895
0.0427964
0.0427922
0.0427791
0.0427673
0.042773
0.0428033
0.0428587
0.0429349
0.0430242
0.0431159
0.0432
0.0432697
0.0433219
0.0433571
0.0433779
0.0433883
0.0433921
0.0433927
0.0433924
0.0426197
0.0426206
0.0426228
0.0426266
0.0426324
0.0426408
0.0426522
0.0426669
0.042685
0.0427055
0.0427268
0.0427461
0.0427605
0.042767
0.0427645
0.0427546
0.0427467
0.0427541
0.0427828
0.0428342
0.0429063
0.0429939
0.0430884
0.0431801
0.0432601
0.0433232
0.043368
0.0433962
0.0434113
0.0434177
0.0434193
0.0434192
0.0426142
0.042615
0.0426169
0.0426201
0.0426252
0.0426325
0.0426423
0.0426548
0.04267
0.0426872
0.042705
0.0427216
0.0427346
0.0427421
0.0427433
0.0427401
0.0427403
0.0427534
0.0427837
0.0428328
0.0429005
0.0429833
0.0430752
0.0431681
0.0432533
0.043324
0.0433767
0.0434117
0.0434316
0.0434408
0.0434435
0.0434437
0.0426118
0.0426123
0.0426135
0.0426158
0.0426196
0.0426254
0.0426335
0.042644
0.0426568
0.0426712
0.0426864
0.0427012
0.0427142
0.0427244
0.0427316
0.042738
0.0427489
0.0427699
0.0428033
0.042851
0.0429138
0.0429903
0.0430763
0.0431657
0.0432511
0.0433255
0.043384
0.0434248
0.0434494
0.0434615
0.0434655
0.043466
0.0426165
0.0426164
0.0426164
0.042617
0.0426188
0.0426224
0.0426282
0.0426366
0.0426472
0.0426599
0.042674
0.042689
0.0427043
0.0427195
0.0427351
0.0427528
0.0427754
0.0428043
0.0428406
0.0428865
0.0429437
0.0430125
0.0430905
0.0431732
0.0432548
0.0433292
0.0433908
0.0434361
0.043465
0.04348
0.0434855
0.0434863
0.0426329
0.0426319
0.0426301
0.0426282
0.042627
0.0426276
0.0426308
0.042637
0.0426464
0.0426588
0.0426741
0.042692
0.0427124
0.042735
0.04276
0.0427888
0.0428216
0.0428567
0.0428945
0.0429377
0.0429885
0.0430484
0.0431167
0.0431905
0.0432655
0.0433365
0.0433982
0.0434463
0.0434786
0.0434964
0.0435035
0.0435048
0.0426649
0.0426627
0.0426587
0.0426539
0.0426496
0.0426473
0.0426482
0.0426533
0.042663
0.0426774
0.0426963
0.0427195
0.0427466
0.042777
0.0428106
0.0428481
0.0428877
0.0429261
0.0429633
0.0430024
0.0430462
0.0430966
0.0431541
0.0432174
0.0432835
0.0433485
0.0434075
0.0434561
0.0434908
0.0435111
0.0435198
0.0435215
0.0427152
0.0427117
0.0427056
0.0426986
0.0426925
0.042689
0.0426896
0.0426956
0.0427077
0.0427259
0.0427497
0.0427785
0.0428116
0.0428479
0.042887
0.0429289
0.0429711
0.0430093
0.0430439
0.043078
0.0431144
0.0431553
0.0432019
0.0432538
0.0433095
0.0433662
0.0434201
0.0434667
0.043502
0.0435242
0.0435343
0.0435367
0.0427852
0.0427803
0.0427732
0.0427663
0.0427614
0.04276
0.0427633
0.0427725
0.0427883
0.0428103
0.042838
0.0428704
0.0429064
0.0429448
0.0429849
0.0430267
0.0430671
0.0431022
0.0431325
0.0431609
0.0431901
0.043222
0.0432581
0.0432987
0.0433433
0.0433901
0.0434367
0.0434791
0.0435132
0.043536
0.0435473
0.0435502
0.0428753
0.0428697
0.0428638
0.0428605
0.0428608
0.0428649
0.0428732
0.0428865
0.0429052
0.0429291
0.0429576
0.0429898
0.0430245
0.0430607
0.0430975
0.0431349
0.0431703
0.0432001
0.043225
0.0432475
0.0432698
0.0432937
0.0433204
0.0433505
0.0433841
0.0434205
0.0434581
0.0434942
0.0435249
0.0435469
0.0435588
0.0435623
0.0429868
0.0429818
0.0429804
0.0429843
0.0429922
0.0430028
0.0430157
0.0430315
0.0430506
0.0430731
0.0430987
0.0431267
0.0431562
0.0431865
0.0432168
0.043247
0.0432751
0.0432984
0.0433173
0.0433341
0.0433502
0.0433671
0.0433857
0.0434067
0.0434303
0.0434565
0.0434844
0.0435125
0.043538
0.0435576
0.0435691
0.0435729
0.0431226
0.0431207
0.0431268
0.0431383
0.0431519
0.043166
0.0431803
0.0431952
0.0432114
0.0432293
0.0432489
0.0432698
0.0432916
0.0433136
0.0433355
0.0433571
0.0433769
0.0433931
0.0434062
0.0434175
0.0434282
0.0434392
0.0434511
0.0434645
0.0434796
0.0434965
0.043515
0.0435344
0.0435531
0.0435685
0.0435783
0.043582
0.0432882
0.0432922
0.0433039
0.043317
0.0433298
0.0433418
0.0433528
0.0433633
0.0433738
0.0433849
0.0433968
0.0434094
0.0434223
0.0434353
0.0434482
0.0434607
0.0434722
0.0434816
0.0434891
0.0434955
0.0435014
0.0435074
0.0435139
0.0435211
0.0435292
0.0435383
0.0435485
0.0435594
0.0435704
0.0435802
0.0435869
0.0435898
0.0434905
0.0434937
0.0434997
0.0435054
0.0435107
0.0435153
0.0435194
0.0435232
0.0435268
0.0435305
0.0435344
0.0435385
0.0435427
0.043547
0.0435511
0.0435552
0.0435589
0.0435619
0.0435643
0.0435663
0.0435682
0.0435701
0.0435721
0.0435743
0.0435768
0.0435796
0.0435828
0.0435862
0.0435897
0.0435929
0.0435954
0.0435966
)
;

boundaryField
{
    movingWall
    {
        type            fixedValue;
        value           uniform 0.0436;
    }
    fixedWalls
    {
        type            zeroGradient;
    }
    floor
    {
        type            zeroGradient;
    }
    frontAndBack
    {
        type            empty;
    }
}


// ************************************************************************* //
