/*--------------------------------*- C++ -*----------------------------------*\
| =========                 |                                                 |
| \\      /  F ield         | OpenFOAM: The Open Source CFD Toolbox           |
|  \\    /   O peration     | Version:  2212                                  |
|   \\  /    A nd           | Website:  www.openfoam.com                      |
|    \\/     M anipulation  |                                                 |
\*---------------------------------------------------------------------------*/
FoamFile
{
    version     2.0;
    format      ascii;
    arch        "LSB;label=64;scalar=64";
    class       volScalarField;
    location    "730";
    object      Gh2;
}
// * * * * * * * * * * * * * * * * * * * * * * * * * * * * * * * * * * * * * //

dimensions      [1 -3 0 0 0 0 0];

internalField   nonuniform List<scalar> 
1024
(
1.268e-05
1.26795e-05
1.26782e-05
1.2676e-05
1.26726e-05
1.26678e-05
1.26617e-05
1.26546e-05
1.26469e-05
1.26389e-05
1.26309e-05
1.26232e-05
1.26166e-05
1.26124e-05
1.26129e-05
1.26193e-05
1.26311e-05
1.26449e-05
1.26584e-05
1.26709e-05
1.26825e-05
1.26931e-05
1.2703e-05
1.27121e-05
1.27203e-05
1.27274e-05
1.27331e-05
1.27374e-05
1.27405e-05
1.27424e-05
1.27434e-05
1.27439e-05
1.26799e-05
1.26794e-05
1.26781e-05
1.26758e-05
1.26723e-05
1.26674e-05
1.26613e-05
1.26541e-05
1.26463e-05
1.26383e-05
1.26303e-05
1.26226e-05
1.26158e-05
1.26116e-05
1.26121e-05
1.26185e-05
1.26304e-05
1.26443e-05
1.26578e-05
1.26704e-05
1.26819e-05
1.26925e-05
1.27024e-05
1.27116e-05
1.27199e-05
1.2727e-05
1.27328e-05
1.27372e-05
1.27403e-05
1.27422e-05
1.27433e-05
1.27438e-05
1.26798e-05
1.26792e-05
1.26779e-05
1.26755e-05
1.26718e-05
1.26668e-05
1.26605e-05
1.26532e-05
1.26454e-05
1.26373e-05
1.26291e-05
1.26211e-05
1.2614e-05
1.26095e-05
1.261e-05
1.26167e-05
1.26288e-05
1.26429e-05
1.26566e-05
1.26692e-05
1.26808e-05
1.26914e-05
1.27013e-05
1.27105e-05
1.27189e-05
1.27262e-05
1.27322e-05
1.27367e-05
1.27399e-05
1.2742e-05
1.27431e-05
1.27436e-05
1.26796e-05
1.2679e-05
1.26776e-05
1.26751e-05
1.26712e-05
1.26659e-05
1.26595e-05
1.26521e-05
1.26442e-05
1.26359e-05
1.26275e-05
1.26189e-05
1.2611e-05
1.26057e-05
1.26062e-05
1.26135e-05
1.26263e-05
1.26409e-05
1.26548e-05
1.26676e-05
1.26793e-05
1.26899e-05
1.26998e-05
1.2709e-05
1.27175e-05
1.2725e-05
1.27312e-05
1.2736e-05
1.27394e-05
1.27415e-05
1.27427e-05
1.27432e-05
1.26794e-05
1.26788e-05
1.26773e-05
1.26746e-05
1.26706e-05
1.26652e-05
1.26586e-05
1.26512e-05
1.26431e-05
1.26346e-05
1.26255e-05
1.26159e-05
1.26066e-05
1.26e-05
1.26005e-05
1.26088e-05
1.26229e-05
1.26384e-05
1.26528e-05
1.26659e-05
1.26776e-05
1.26883e-05
1.26981e-05
1.27073e-05
1.27158e-05
1.27235e-05
1.27299e-05
1.2735e-05
1.27386e-05
1.27409e-05
1.27422e-05
1.27427e-05
1.26793e-05
1.26787e-05
1.26772e-05
1.26744e-05
1.26704e-05
1.26649e-05
1.26583e-05
1.26508e-05
1.26426e-05
1.26337e-05
1.26236e-05
1.26123e-05
1.26006e-05
1.25922e-05
1.25924e-05
1.26024e-05
1.26185e-05
1.26355e-05
1.26509e-05
1.26644e-05
1.26763e-05
1.26869e-05
1.26966e-05
1.27057e-05
1.27142e-05
1.27219e-05
1.27286e-05
1.27339e-05
1.27377e-05
1.27402e-05
1.27416e-05
1.27421e-05
1.26795e-05
1.26788e-05
1.26773e-05
1.26746e-05
1.26706e-05
1.26653e-05
1.26588e-05
1.26514e-05
1.26431e-05
1.26335e-05
1.26221e-05
1.26084e-05
1.25935e-05
1.25823e-05
1.25821e-05
1.25942e-05
1.26134e-05
1.26328e-05
1.26496e-05
1.26638e-05
1.26759e-05
1.26864e-05
1.26958e-05
1.27046e-05
1.2713e-05
1.27207e-05
1.27275e-05
1.27329e-05
1.27369e-05
1.27395e-05
1.27409e-05
1.27415e-05
1.268e-05
1.26794e-05
1.2678e-05
1.26754e-05
1.26717e-05
1.26667e-05
1.26606e-05
1.26534e-05
1.26449e-05
1.26347e-05
1.26215e-05
1.26047e-05
1.25855e-05
1.25706e-05
1.25698e-05
1.25847e-05
1.26081e-05
1.26307e-05
1.26495e-05
1.26647e-05
1.2677e-05
1.26874e-05
1.26964e-05
1.27048e-05
1.27128e-05
1.27202e-05
1.27268e-05
1.27322e-05
1.27362e-05
1.27389e-05
1.27403e-05
1.27409e-05
1.26812e-05
1.26806e-05
1.26793e-05
1.2677e-05
1.26737e-05
1.26693e-05
1.26637e-05
1.26569e-05
1.26485e-05
1.26374e-05
1.26221e-05
1.26012e-05
1.25765e-05
1.25574e-05
1.2556e-05
1.25747e-05
1.26035e-05
1.26303e-05
1.26515e-05
1.26679e-05
1.26805e-05
1.26906e-05
1.2699e-05
1.27066e-05
1.27139e-05
1.27208e-05
1.2727e-05
1.27322e-05
1.2736e-05
1.27386e-05
1.274e-05
1.27406e-05
1.26834e-05
1.26828e-05
1.26816e-05
1.26797e-05
1.26769e-05
1.26731e-05
1.26683e-05
1.26621e-05
1.26537e-05
1.26417e-05
1.26235e-05
1.25973e-05
1.2566e-05
1.25423e-05
1.25413e-05
1.25652e-05
1.26008e-05
1.26326e-05
1.26566e-05
1.26743e-05
1.26871e-05
1.26965e-05
1.27041e-05
1.27106e-05
1.27169e-05
1.27228e-05
1.27283e-05
1.2733e-05
1.27365e-05
1.27388e-05
1.27402e-05
1.27408e-05
1.26865e-05
1.2686e-05
1.2685e-05
1.26834e-05
1.26812e-05
1.26782e-05
1.26741e-05
1.26684e-05
1.26598e-05
1.2646e-05
1.26235e-05
1.25903e-05
1.25516e-05
1.25243e-05
1.25259e-05
1.25577e-05
1.26015e-05
1.2639e-05
1.2666e-05
1.26846e-05
1.26972e-05
1.27057e-05
1.27119e-05
1.2717e-05
1.27218e-05
1.27265e-05
1.27309e-05
1.27348e-05
1.27378e-05
1.27398e-05
1.2741e-05
1.27416e-05
1.26899e-05
1.26896e-05
1.26889e-05
1.26878e-05
1.26861e-05
1.26836e-05
1.26799e-05
1.2674e-05
1.26639e-05
1.26464e-05
1.26173e-05
1.25754e-05
1.25297e-05
1.25017e-05
1.25104e-05
1.25533e-05
1.26072e-05
1.26506e-05
1.26802e-05
1.26993e-05
1.2711e-05
1.2718e-05
1.27223e-05
1.27255e-05
1.27286e-05
1.27317e-05
1.27348e-05
1.27377e-05
1.274e-05
1.27418e-05
1.27428e-05
1.27433e-05
1.26883e-05
1.26884e-05
1.26884e-05
1.2688e-05
1.26869e-05
1.26846e-05
1.26802e-05
1.26721e-05
1.26578e-05
1.26333e-05
1.25951e-05
1.25445e-05
1.24956e-05
1.24736e-05
1.24955e-05
1.25531e-05
1.26179e-05
1.26668e-05
1.26982e-05
1.27172e-05
1.27276e-05
1.27326e-05
1.27348e-05
1.27358e-05
1.27369e-05
1.27383e-05
1.274e-05
1.27419e-05
1.27436e-05
1.27449e-05
1.27459e-05
1.27463e-05
1.26651e-05
1.26655e-05
1.26661e-05
1.26665e-05
1.26657e-05
1.26627e-05
1.26559e-05
1.26432e-05
1.26218e-05
1.25884e-05
1.25419e-05
1.24881e-05
1.24462e-05
1.24408e-05
1.24825e-05
1.25557e-05
1.26294e-05
1.26824e-05
1.27155e-05
1.27345e-05
1.27439e-05
1.27473e-05
1.27475e-05
1.27467e-05
1.2746e-05
1.2746e-05
1.27466e-05
1.27476e-05
1.27488e-05
1.27498e-05
1.27506e-05
1.27511e-05
1.25944e-05
1.25944e-05
1.25941e-05
1.25931e-05
1.25905e-05
1.25849e-05
1.25744e-05
1.25568e-05
1.25299e-05
1.24928e-05
1.24477e-05
1.24052e-05
1.23858e-05
1.24069e-05
1.2468e-05
1.25494e-05
1.26257e-05
1.26817e-05
1.27184e-05
1.27409e-05
1.27528e-05
1.27573e-05
1.27573e-05
1.27555e-05
1.27537e-05
1.2753e-05
1.27533e-05
1.27543e-05
1.27554e-05
1.27562e-05
1.27566e-05
1.27568e-05
1.24704e-05
1.24693e-05
1.24668e-05
1.24626e-05
1.24562e-05
1.24466e-05
1.24328e-05
1.24134e-05
1.23881e-05
1.23583e-05
1.23296e-05
1.23134e-05
1.23234e-05
1.23633e-05
1.24244e-05
1.24946e-05
1.25627e-05
1.26199e-05
1.26648e-05
1.26996e-05
1.27266e-05
1.27466e-05
1.27604e-05
1.27688e-05
1.27727e-05
1.27729e-05
1.27701e-05
1.2765e-05
1.27587e-05
1.27525e-05
1.27477e-05
1.27451e-05
1.2346e-05
1.23442e-05
1.23402e-05
1.23338e-05
1.23244e-05
1.23116e-05
1.22952e-05
1.22755e-05
1.22543e-05
1.22349e-05
1.22221e-05
1.22205e-05
1.22313e-05
1.22518e-05
1.22787e-05
1.23095e-05
1.23421e-05
1.23736e-05
1.24032e-05
1.24318e-05
1.24601e-05
1.24866e-05
1.25103e-05
1.25298e-05
1.25438e-05
1.25514e-05
1.25523e-05
1.25472e-05
1.25382e-05
1.25283e-05
1.25201e-05
1.25158e-05
1.22697e-05
1.22677e-05
1.22628e-05
1.22543e-05
1.22413e-05
1.22232e-05
1.22007e-05
1.21753e-05
1.21495e-05
1.21256e-05
1.21047e-05
1.20863e-05
1.20688e-05
1.20498e-05
1.20272e-05
1.19989e-05
1.1965e-05
1.19301e-05
1.18992e-05
1.1874e-05
1.18555e-05
1.18443e-05
1.18409e-05
1.18454e-05
1.1857e-05
1.18741e-05
1.18946e-05
1.19154e-05
1.19334e-05
1.1946e-05
1.19528e-05
1.19552e-05
1.22356e-05
1.22338e-05
1.22291e-05
1.22202e-05
1.22059e-05
1.21855e-05
1.21589e-05
1.21275e-05
1.20932e-05
1.2058e-05
1.20225e-05
1.19857e-05
1.19456e-05
1.18999e-05
1.18461e-05
1.17812e-05
1.17065e-05
1.16312e-05
1.15627e-05
1.15021e-05
1.14499e-05
1.14073e-05
1.13756e-05
1.1356e-05
1.13492e-05
1.13549e-05
1.13719e-05
1.13966e-05
1.14242e-05
1.14486e-05
1.14654e-05
1.14732e-05
1.22192e-05
1.22175e-05
1.2213e-05
1.22045e-05
1.21906e-05
1.21702e-05
1.21429e-05
1.21092e-05
1.20709e-05
1.20297e-05
1.19867e-05
1.19414e-05
1.18922e-05
1.18372e-05
1.17743e-05
1.17012e-05
1.16215e-05
1.15459e-05
1.14804e-05
1.14237e-05
1.13742e-05
1.1331e-05
1.12936e-05
1.12623e-05
1.12382e-05
1.12223e-05
1.12156e-05
1.12176e-05
1.12262e-05
1.12377e-05
1.12479e-05
1.12535e-05
1.22113e-05
1.22097e-05
1.22057e-05
1.2198e-05
1.21853e-05
1.21664e-05
1.21405e-05
1.2108e-05
1.20699e-05
1.20279e-05
1.19834e-05
1.19364e-05
1.18862e-05
1.1831e-05
1.17693e-05
1.16996e-05
1.16267e-05
1.15607e-05
1.15051e-05
1.14566e-05
1.14123e-05
1.137e-05
1.13285e-05
1.12887e-05
1.12526e-05
1.12226e-05
1.12006e-05
1.11871e-05
1.11812e-05
1.1181e-05
1.11833e-05
1.11854e-05
1.22069e-05
1.22056e-05
1.22022e-05
1.21956e-05
1.21846e-05
1.2168e-05
1.21448e-05
1.21151e-05
1.20796e-05
1.20397e-05
1.19967e-05
1.19511e-05
1.19023e-05
1.18493e-05
1.17908e-05
1.17258e-05
1.1659e-05
1.15994e-05
1.1549e-05
1.15039e-05
1.14606e-05
1.14164e-05
1.13698e-05
1.13217e-05
1.12749e-05
1.12335e-05
1.12007e-05
1.11779e-05
1.11647e-05
1.11591e-05
1.1158e-05
1.11586e-05
1.22007e-05
1.21999e-05
1.21977e-05
1.21928e-05
1.2184e-05
1.21701e-05
1.21501e-05
1.21237e-05
1.20914e-05
1.20541e-05
1.2013e-05
1.19687e-05
1.19209e-05
1.1869e-05
1.1812e-05
1.17493e-05
1.16852e-05
1.16279e-05
1.15787e-05
1.15342e-05
1.14908e-05
1.14458e-05
1.13973e-05
1.13455e-05
1.12929e-05
1.12438e-05
1.12025e-05
1.11718e-05
1.11525e-05
1.11428e-05
1.11397e-05
1.11396e-05
1.21862e-05
1.21865e-05
1.21861e-05
1.21838e-05
1.21779e-05
1.2167e-05
1.215e-05
1.21263e-05
1.20962e-05
1.20603e-05
1.20196e-05
1.19747e-05
1.19258e-05
1.18729e-05
1.18154e-05
1.17528e-05
1.16894e-05
1.16326e-05
1.15837e-05
1.15394e-05
1.14966e-05
1.14526e-05
1.14052e-05
1.13542e-05
1.1301e-05
1.1249e-05
1.12028e-05
1.11664e-05
1.11418e-05
1.11285e-05
1.11235e-05
1.11228e-05
1.21565e-05
1.21583e-05
1.21607e-05
1.21617e-05
1.21592e-05
1.21511e-05
1.2136e-05
1.21133e-05
1.20831e-05
1.20462e-05
1.20034e-05
1.1956e-05
1.19044e-05
1.18493e-05
1.17906e-05
1.1728e-05
1.16654e-05
1.16098e-05
1.15623e-05
1.15198e-05
1.14792e-05
1.1438e-05
1.13942e-05
1.1347e-05
1.1297e-05
1.12466e-05
1.11996e-05
1.11603e-05
1.1132e-05
1.11155e-05
1.11086e-05
1.11074e-05
1.21053e-05
1.21091e-05
1.21146e-05
1.21189e-05
1.2119e-05
1.21122e-05
1.20969e-05
1.20727e-05
1.20399e-05
1.19998e-05
1.19538e-05
1.19033e-05
1.18494e-05
1.17931e-05
1.17345e-05
1.16736e-05
1.16139e-05
1.15616e-05
1.15176e-05
1.14787e-05
1.14421e-05
1.14056e-05
1.13671e-05
1.13258e-05
1.12816e-05
1.12359e-05
1.11915e-05
1.11525e-05
1.11225e-05
1.11036e-05
1.10951e-05
1.10933e-05
1.20283e-05
1.20342e-05
1.20422e-05
1.20479e-05
1.20479e-05
1.20395e-05
1.20212e-05
1.19933e-05
1.19569e-05
1.19138e-05
1.18656e-05
1.1814e-05
1.17603e-05
1.17056e-05
1.16502e-05
1.15938e-05
1.15398e-05
1.14933e-05
1.14547e-05
1.1421e-05
1.13898e-05
1.13591e-05
1.13272e-05
1.12931e-05
1.12563e-05
1.12175e-05
1.11783e-05
1.11421e-05
1.11126e-05
1.10927e-05
1.10829e-05
1.10804e-05
1.19234e-05
1.19308e-05
1.19386e-05
1.19417e-05
1.19374e-05
1.19242e-05
1.19014e-05
1.187e-05
1.18317e-05
1.17882e-05
1.17413e-05
1.16926e-05
1.16431e-05
1.15938e-05
1.15449e-05
1.14962e-05
1.14504e-05
1.14116e-05
1.13797e-05
1.13523e-05
1.13272e-05
1.13029e-05
1.12779e-05
1.12514e-05
1.12228e-05
1.1192e-05
1.116e-05
1.11288e-05
1.11019e-05
1.10824e-05
1.10719e-05
1.10689e-05
1.1789e-05
1.17961e-05
1.17992e-05
1.17951e-05
1.17834e-05
1.17645e-05
1.17387e-05
1.1707e-05
1.16709e-05
1.16317e-05
1.15907e-05
1.15491e-05
1.15077e-05
1.14672e-05
1.14277e-05
1.13891e-05
1.13532e-05
1.13232e-05
1.12988e-05
1.1278e-05
1.12592e-05
1.12413e-05
1.12231e-05
1.12039e-05
1.11832e-05
1.11607e-05
1.11367e-05
1.11122e-05
1.10898e-05
1.10724e-05
1.10621e-05
1.10587e-05
1.16225e-05
1.16257e-05
1.16197e-05
1.16068e-05
1.15894e-05
1.15685e-05
1.15443e-05
1.15173e-05
1.14882e-05
1.14577e-05
1.14265e-05
1.13955e-05
1.13651e-05
1.13357e-05
1.13074e-05
1.128e-05
1.12548e-05
1.1234e-05
1.12171e-05
1.12029e-05
1.11902e-05
1.11782e-05
1.11661e-05
1.11536e-05
1.11401e-05
1.11253e-05
1.11093e-05
1.10923e-05
1.10758e-05
1.1062e-05
1.10532e-05
1.10499e-05
1.14179e-05
1.14135e-05
1.14001e-05
1.13849e-05
1.13691e-05
1.13527e-05
1.13357e-05
1.13179e-05
1.12995e-05
1.12807e-05
1.12617e-05
1.12431e-05
1.1225e-05
1.12076e-05
1.1191e-05
1.1175e-05
1.11605e-05
1.11485e-05
1.11388e-05
1.11307e-05
1.11236e-05
1.11168e-05
1.11101e-05
1.11032e-05
1.10959e-05
1.10878e-05
1.1079e-05
1.10694e-05
1.10597e-05
1.1051e-05
1.10448e-05
1.10422e-05
1.11675e-05
1.11638e-05
1.11567e-05
1.11499e-05
1.11436e-05
1.11374e-05
1.11313e-05
1.11252e-05
1.1119e-05
1.11127e-05
1.11064e-05
1.11003e-05
1.10944e-05
1.10887e-05
1.10833e-05
1.10782e-05
1.10735e-05
1.10697e-05
1.10666e-05
1.1064e-05
1.10617e-05
1.10596e-05
1.10575e-05
1.10553e-05
1.1053e-05
1.10505e-05
1.10478e-05
1.10448e-05
1.10417e-05
1.10388e-05
1.10366e-05
1.10355e-05
)
;

boundaryField
{
    movingWall
    {
        type            fixedValue;
        value           uniform 1.1032e-05;
    }
    fixedWalls
    {
        type            zeroGradient;
    }
    floor
    {
        type            zeroGradient;
    }
    frontAndBack
    {
        type            empty;
    }
}


// ************************************************************************* //
