/*--------------------------------*- C++ -*----------------------------------*\
| =========                 |                                                 |
| \\      /  F ield         | OpenFOAM: The Open Source CFD Toolbox           |
|  \\    /   O peration     | Version:  2212                                  |
|   \\  /    A nd           | Website:  www.openfoam.com                      |
|    \\/     M anipulation  |                                                 |
\*---------------------------------------------------------------------------*/
FoamFile
{
    version     2.0;
    format      ascii;
    arch        "LSB;label=64;scalar=64";
    class       volScalarField;
    location    "730";
    object      p;
}
// * * * * * * * * * * * * * * * * * * * * * * * * * * * * * * * * * * * * * //

dimensions      [0 2 -2 0 0 0 0];

internalField   nonuniform List<scalar> 
1024
(
0
-4.16525e-06
-8.95174e-06
-1.1878e-05
-1.1943e-05
-8.65274e-06
-2.17571e-07
1.75459e-05
5.15875e-05
0.000111532
0.000207726
0.000341295
0.000483369
0.000578781
0.000573928
0.000495889
0.000375937
0.000273715
0.000200686
0.000151775
0.000119722
9.94123e-05
8.72048e-05
8.02366e-05
7.62367e-05
7.36117e-05
7.15938e-05
7.03045e-05
7.03442e-05
7.2003e-05
7.46063e-05
7.67138e-05
-0.0928126
-0.0928171
-0.0928218
-0.0928249
-0.092826
-0.0928244
-0.0928181
-0.0928026
-0.0927712
-0.0927143
-0.0926214
-0.0924917
-0.0923531
-0.0922593
-0.0922607
-0.0923344
-0.0924511
-0.092551
-0.0926224
-0.0926699
-0.0927008
-0.0927201
-0.0927314
-0.0927374
-0.0927405
-0.0927421
-0.0927431
-0.0927436
-0.0927431
-0.0927414
-0.0927389
-0.0927366
-0.199433
-0.199439
-0.199445
-0.199449
-0.199453
-0.199455
-0.199453
-0.199442
-0.199416
-0.199364
-0.199277
-0.199153
-0.199019
-0.198928
-0.198923
-0.19899
-0.1991
-0.199196
-0.199264
-0.199308
-0.199337
-0.199354
-0.199363
-0.199367
-0.199368
-0.199368
-0.199367
-0.199366
-0.199364
-0.199362
-0.199359
-0.199356
-0.321923
-0.321931
-0.321939
-0.321946
-0.321954
-0.321962
-0.321967
-0.321963
-0.321944
-0.3219
-0.321821
-0.321703
-0.321575
-0.321486
-0.321473
-0.32153
-0.321632
-0.32172
-0.321782
-0.321822
-0.321847
-0.321861
-0.321866
-0.321867
-0.321865
-0.321861
-0.321857
-0.321853
-0.32185
-0.321846
-0.321842
-0.321838
-0.462652
-0.462662
-0.462672
-0.462684
-0.462698
-0.462714
-0.462728
-0.462733
-0.462723
-0.462688
-0.462617
-0.462506
-0.462383
-0.462296
-0.462274
-0.462321
-0.462411
-0.46249
-0.462544
-0.462578
-0.462597
-0.462605
-0.462606
-0.462601
-0.462594
-0.462585
-0.462576
-0.462569
-0.462563
-0.462558
-0.462552
-0.462546
-0.624344
-0.624354
-0.624367
-0.624384
-0.624405
-0.624429
-0.624452
-0.624466
-0.624466
-0.62444
-0.624377
-0.624272
-0.624154
-0.624068
-0.624036
-0.624075
-0.624153
-0.624221
-0.624265
-0.62429
-0.624302
-0.624303
-0.624298
-0.624287
-0.624273
-0.624258
-0.624244
-0.624231
-0.624221
-0.624213
-0.624205
-0.624198
-0.810123
-0.810132
-0.810147
-0.810167
-0.810194
-0.810225
-0.810255
-0.810278
-0.810285
-0.810267
-0.81021
-0.810109
-0.809995
-0.80991
-0.809872
-0.809903
-0.809971
-0.810028
-0.810062
-0.810078
-0.810081
-0.810076
-0.810063
-0.810045
-0.810024
-0.810002
-0.809981
-0.809963
-0.809948
-0.809937
-0.809928
-0.80992
-1.02357
-1.02357
-1.02359
-1.02361
-1.02364
-1.02368
-1.02371
-1.02374
-1.02375
-1.02374
-1.02368
-1.02359
-1.02348
-1.02339
-1.02335
-1.02338
-1.02344
-1.02349
-1.02351
-1.02352
-1.02351
-1.0235
-1.02348
-1.02346
-1.02343
-1.0234
-1.02337
-1.02335
-1.02333
-1.02332
-1.02331
-1.0233
-1.26877
-1.26878
-1.26879
-1.26881
-1.26884
-1.26888
-1.26892
-1.26895
-1.26896
-1.26895
-1.2689
-1.26881
-1.2687
-1.26862
-1.26858
-1.26861
-1.26866
-1.2687
-1.26872
-1.26872
-1.26871
-1.26869
-1.26867
-1.26864
-1.26861
-1.26857
-1.26854
-1.26851
-1.26849
-1.26848
-1.26846
-1.26846
-1.55043
-1.55043
-1.55044
-1.55046
-1.55049
-1.55053
-1.55057
-1.5506
-1.55062
-1.55061
-1.55056
-1.55048
-1.55038
-1.5503
-1.55027
-1.5503
-1.55036
-1.55039
-1.5504
-1.5504
-1.55039
-1.55037
-1.55034
-1.55031
-1.55027
-1.55024
-1.5502
-1.55017
-1.55015
-1.55013
-1.55012
-1.55012
-1.87394
-1.87394
-1.87394
-1.87396
-1.87398
-1.87402
-1.87406
-1.8741
-1.87412
-1.87411
-1.87407
-1.874
-1.87392
-1.87386
-1.87385
-1.87389
-1.87394
-1.87397
-1.87398
-1.87397
-1.87396
-1.87394
-1.87391
-1.87388
-1.87384
-1.87381
-1.87378
-1.87375
-1.87372
-1.87371
-1.8737
-1.87369
-2.2455
-2.2455
-2.2455
-2.24551
-2.24553
-2.24556
-2.2456
-2.24563
-2.24566
-2.24566
-2.24564
-2.24559
-2.24554
-2.24551
-2.24553
-2.24558
-2.24563
-2.24566
-2.24567
-2.24567
-2.24565
-2.24563
-2.24561
-2.24558
-2.24555
-2.24551
-2.24548
-2.24545
-2.24543
-2.24541
-2.24541
-2.2454
-2.67227
-2.67226
-2.67226
-2.67226
-2.67227
-2.67229
-2.67232
-2.67235
-2.67238
-2.6724
-2.6724
-2.67239
-2.67239
-2.6724
-2.67245
-2.67252
-2.67258
-2.67262
-2.67263
-2.67262
-2.67261
-2.6726
-2.67257
-2.67255
-2.67252
-2.67248
-2.67244
-2.67241
-2.67239
-2.67238
-2.67237
-2.67237
-3.16246
-3.16246
-3.16246
-3.16245
-3.16246
-3.16247
-3.16248
-3.16251
-3.16254
-3.16257
-3.16261
-3.16264
-3.16269
-3.16275
-3.16284
-3.16293
-3.163
-3.16305
-3.16306
-3.16306
-3.16305
-3.16304
-3.16301
-3.16298
-3.16293
-3.16289
-3.16285
-3.16281
-3.16279
-3.16278
-3.16278
-3.16278
-3.72559
-3.72559
-3.72558
-3.72558
-3.72558
-3.72559
-3.7256
-3.72562
-3.72566
-3.72571
-3.72577
-3.72583
-3.72592
-3.72601
-3.72612
-3.72623
-3.72631
-3.72637
-3.72639
-3.72639
-3.72637
-3.72634
-3.7263
-3.72624
-3.72618
-3.72612
-3.72607
-3.72603
-3.72601
-3.726
-3.726
-3.72601
-4.3726
-4.37259
-4.37259
-4.37259
-4.37259
-4.3726
-4.37262
-4.37265
-4.37268
-4.37273
-4.37279
-4.37285
-4.37293
-4.37304
-4.37315
-4.37326
-4.37335
-4.3734
-4.37342
-4.3734
-4.37336
-4.37329
-4.37321
-4.37312
-4.37303
-4.37296
-4.37291
-4.37288
-4.37287
-4.37287
-4.37287
-4.37288
-5.0645
-5.0645
-5.0645
-5.0645
-5.06451
-5.06452
-5.06453
-5.06455
-5.06457
-5.0646
-5.06464
-5.0647
-5.06478
-5.06487
-5.06496
-5.06506
-5.06513
-5.06515
-5.06513
-5.06507
-5.06497
-5.06485
-5.06471
-5.06458
-5.06448
-5.06442
-5.06439
-5.06438
-5.06438
-5.06439
-5.0644
-5.0644
-5.71154
-5.71155
-5.71155
-5.71156
-5.71157
-5.71159
-5.71161
-5.71165
-5.71169
-5.71174
-5.71179
-5.71185
-5.71192
-5.712
-5.71209
-5.71218
-5.71224
-5.71225
-5.71222
-5.71213
-5.71201
-5.71185
-5.71169
-5.71154
-5.71142
-5.71136
-5.71132
-5.71132
-5.71133
-5.71134
-5.71135
-5.71135
-6.275
-6.27501
-6.27501
-6.27502
-6.27503
-6.27504
-6.27506
-6.27509
-6.27513
-6.27518
-6.27523
-6.2753
-6.27537
-6.27546
-6.27555
-6.27564
-6.27571
-6.27575
-6.27575
-6.2757
-6.2756
-6.27547
-6.27532
-6.27517
-6.27503
-6.27494
-6.27488
-6.27485
-6.27485
-6.27486
-6.27487
-6.27488
-6.76557
-6.76557
-6.76557
-6.76558
-6.76559
-6.76561
-6.76563
-6.76566
-6.7657
-6.76575
-6.7658
-6.76587
-6.76594
-6.76603
-6.76612
-6.76622
-6.76631
-6.76636
-6.76638
-6.76636
-6.76631
-6.76621
-6.7661
-6.76596
-6.76583
-6.76571
-6.76563
-6.76557
-6.76555
-6.76555
-6.76556
-6.76557
-7.19266
-7.19266
-7.19266
-7.19267
-7.19268
-7.19269
-7.19271
-7.19274
-7.19278
-7.19283
-7.19288
-7.19295
-7.19302
-7.19311
-7.1932
-7.1933
-7.1934
-7.19347
-7.1935
-7.1935
-7.19347
-7.19341
-7.19332
-7.19321
-7.19308
-7.19296
-7.19286
-7.19278
-7.19274
-7.19273
-7.19274
-7.19275
-7.56446
-7.56446
-7.56446
-7.56446
-7.56447
-7.56449
-7.56451
-7.56453
-7.56457
-7.56461
-7.56467
-7.56473
-7.56481
-7.5649
-7.56499
-7.5651
-7.5652
-7.56527
-7.56531
-7.56531
-7.56529
-7.56524
-7.56518
-7.56508
-7.56497
-7.56485
-7.56474
-7.56465
-7.56459
-7.56456
-7.56457
-7.56458
-7.88812
-7.88812
-7.88812
-7.88812
-7.88813
-7.88814
-7.88816
-7.88818
-7.88821
-7.88826
-7.88831
-7.88838
-7.88846
-7.88855
-7.88865
-7.88876
-7.88886
-7.88893
-7.88897
-7.88897
-7.88895
-7.8889
-7.88884
-7.88875
-7.88865
-7.88853
-7.8884
-7.88829
-7.88822
-7.88818
-7.88818
-7.88819
-8.16987
-8.16987
-8.16987
-8.16987
-8.16988
-8.16988
-8.16989
-8.16992
-8.16995
-8.16999
-8.17005
-8.17012
-8.1702
-8.1703
-8.1704
-8.17051
-8.17062
-8.17069
-8.17072
-8.17072
-8.17069
-8.17064
-8.17056
-8.17047
-8.17035
-8.17022
-8.17008
-8.16995
-8.16985
-8.16979
-8.16978
-8.16979
-8.41515
-8.41515
-8.41515
-8.41515
-8.41515
-8.41514
-8.41515
-8.41517
-8.4152
-8.41524
-8.4153
-8.41538
-8.41547
-8.41557
-8.41568
-8.41579
-8.4159
-8.41597
-8.416
-8.416
-8.41596
-8.41589
-8.4158
-8.41568
-8.41553
-8.41537
-8.4152
-8.41505
-8.41491
-8.41483
-8.4148
-8.41481
-8.62868
-8.62868
-8.62868
-8.62867
-8.62866
-8.62865
-8.62865
-8.62866
-8.62869
-8.62874
-8.6288
-8.62888
-8.62898
-8.62908
-8.6292
-8.62932
-8.62942
-8.6295
-8.62953
-8.62952
-8.62948
-8.6294
-8.62928
-8.62913
-8.62894
-8.62873
-8.62851
-8.62831
-8.62813
-8.628
-8.62794
-8.62793
-8.81457
-8.81457
-8.81457
-8.81455
-8.81453
-8.81451
-8.8145
-8.8145
-8.81454
-8.81459
-8.81466
-8.81475
-8.81485
-8.81496
-8.81507
-8.8152
-8.81531
-8.81538
-8.81541
-8.8154
-8.81535
-8.81526
-8.81512
-8.81494
-8.81471
-8.81444
-8.81416
-8.81388
-8.81363
-8.81342
-8.81332
-8.81328
-8.97642
-8.97642
-8.9764
-8.97637
-8.97633
-8.9763
-8.97628
-8.97629
-8.97632
-8.97638
-8.97645
-8.97655
-8.97665
-8.97677
-8.97689
-8.97701
-8.97712
-8.9772
-8.97723
-8.97721
-8.97716
-8.97705
-8.9769
-8.97669
-8.97642
-8.9761
-8.97574
-8.97537
-8.97502
-8.97471
-8.97451
-8.97441
-9.11736
-9.11735
-9.11731
-9.11724
-9.11718
-9.11714
-9.11712
-9.11712
-9.11716
-9.11722
-9.1173
-9.1174
-9.11751
-9.11763
-9.11775
-9.11788
-9.11799
-9.11807
-9.1181
-9.11808
-9.11802
-9.11791
-9.11774
-9.11751
-9.11721
-9.11684
-9.11642
-9.11595
-9.11546
-9.115
-9.11465
-9.11442
-9.24017
-9.24009
-9.23998
-9.23988
-9.23979
-9.23974
-9.23971
-9.23972
-9.23976
-9.23983
-9.23992
-9.24002
-9.24013
-9.24025
-9.24038
-9.24051
-9.24062
-9.2407
-9.24073
-9.24071
-9.24065
-9.24053
-9.24036
-9.24011
-9.23979
-9.23939
-9.23892
-9.23836
-9.23773
-9.23706
-9.23643
-9.23588
-9.34741
-9.34702
-9.34676
-9.34661
-9.34651
-9.34645
-9.34643
-9.34645
-9.34649
-9.34657
-9.34666
-9.34676
-9.34688
-9.347
-9.34713
-9.34726
-9.34738
-9.34745
-9.34749
-9.34747
-9.3474
-9.34729
-9.34711
-9.34686
-9.34653
-9.34611
-9.34561
-9.34499
-9.34425
-9.34335
-9.34224
-9.34099
-9.44137
-9.44012
-9.43965
-9.43949
-9.4394
-9.43934
-9.43933
-9.43935
-9.43941
-9.43948
-9.43958
-9.43969
-9.43981
-9.43994
-9.44007
-9.4402
-9.44031
-9.44039
-9.44042
-9.44041
-9.44034
-9.44022
-9.44005
-9.43979
-9.43946
-9.43905
-9.43853
-9.43789
-9.43708
-9.43598
-9.43438
-9.43212
)
;

boundaryField
{
    movingWall
    {
        type            calculated;
        value           nonuniform List<scalar> 
32
(
-9.48462
-9.48338
-9.4829
-9.48274
-9.48265
-9.4826
-9.48258
-9.48261
-9.48266
-9.48274
-9.48283
-9.48294
-9.48306
-9.48319
-9.48332
-9.48345
-9.48357
-9.48365
-9.48368
-9.48366
-9.4836
-9.48348
-9.4833
-9.48305
-9.48272
-9.4823
-9.48178
-9.48115
-9.48033
-9.47923
-9.47763
-9.47537
)
;
    }
    fixedWalls
    {
        type            calculated;
        value           nonuniform List<scalar> 
64
(
6.93889e-18
-0.0928126
-0.199433
-0.321923
-0.462652
-0.624344
-0.810123
-1.02357
-1.26877
-1.55043
-1.87394
-2.2455
-2.67227
-3.16246
-3.72559
-4.3726
-5.0645
-5.71154
-6.275
-6.76557
-7.19266
-7.56446
-7.88812
-8.16987
-8.41515
-8.62868
-8.81457
-8.97642
-9.11736
-9.24017
-9.34741
-9.44137
7.67138e-05
-0.0927366
-0.199356
-0.321838
-0.462546
-0.624198
-0.80992
-1.0233
-1.26846
-1.55012
-1.87369
-2.2454
-2.67237
-3.16278
-3.72601
-4.37288
-5.0644
-5.71135
-6.27488
-6.76557
-7.19275
-7.56458
-7.88819
-8.16979
-8.41481
-8.62793
-8.81328
-8.97441
-9.11442
-9.23588
-9.34099
-9.43212
)
;
    }
    floor
    {
        type            calculated;
        value           nonuniform List<scalar> 
32
(
0.0431954
0.0431913
0.0431866
0.0431838
0.043184
0.0431875
0.0431963
0.0432143
0.0432487
0.0433089
0.0434055
0.0435395
0.043682
0.0437776
0.0437723
0.0436938
0.0435734
0.0434708
0.0433975
0.0433484
0.0433161
0.0432956
0.0432833
0.0432762
0.043272
0.0432692
0.0432671
0.0432656
0.0432656
0.0432671
0.0432697
0.0432718
)
;
    }
    frontAndBack
    {
        type            empty;
    }
}


// ************************************************************************* //
