/*--------------------------------*- C++ -*----------------------------------*\
| =========                 |                                                 |
| \\      /  F ield         | OpenFOAM: The Open Source CFD Toolbox           |
|  \\    /   O peration     | Version:  2212                                  |
|   \\  /    A nd           | Website:  www.openfoam.com                      |
|    \\/     M anipulation  |                                                 |
\*---------------------------------------------------------------------------*/
FoamFile
{
    version     2.0;
    format      ascii;
    arch        "LSB;label=64;scalar=64";
    class       volScalarField;
    location    "730";
    object      Xch;
}
// * * * * * * * * * * * * * * * * * * * * * * * * * * * * * * * * * * * * * //

dimensions      [1 -3 0 0 0 0 0];

internalField   nonuniform List<scalar> 
1024
(
0.0199485
0.0199487
0.0199491
0.0199499
0.019951
0.0199526
0.0199546
0.019957
0.0199596
0.0199623
0.0199649
0.0199675
0.0199697
0.0199711
0.0199709
0.0199688
0.0199649
0.0199603
0.0199558
0.0199517
0.0199478
0.0199443
0.019941
0.019938
0.0199352
0.0199329
0.019931
0.0199295
0.0199285
0.0199279
0.0199275
0.0199274
0.0199486
0.0199487
0.0199492
0.0199499
0.0199511
0.0199527
0.0199548
0.0199572
0.0199598
0.0199624
0.0199651
0.0199677
0.0199699
0.0199714
0.0199712
0.0199691
0.0199652
0.0199605
0.019956
0.0199519
0.019948
0.0199445
0.0199412
0.0199381
0.0199354
0.019933
0.0199311
0.0199296
0.0199286
0.0199279
0.0199276
0.0199274
0.0199486
0.0199488
0.0199492
0.01995
0.0199513
0.019953
0.0199551
0.0199575
0.0199601
0.0199628
0.0199655
0.0199682
0.0199705
0.0199721
0.0199719
0.0199697
0.0199657
0.019961
0.0199565
0.0199522
0.0199484
0.0199448
0.0199416
0.0199385
0.0199357
0.0199333
0.0199313
0.0199298
0.0199287
0.019928
0.0199276
0.0199275
0.0199487
0.0199489
0.0199493
0.0199502
0.0199515
0.0199532
0.0199554
0.0199578
0.0199605
0.0199632
0.0199661
0.0199689
0.0199716
0.0199733
0.0199732
0.0199707
0.0199665
0.0199617
0.019957
0.0199528
0.0199489
0.0199454
0.0199421
0.019939
0.0199362
0.0199337
0.0199316
0.01993
0.0199289
0.0199282
0.0199277
0.0199276
0.0199487
0.0199489
0.0199494
0.0199503
0.0199517
0.0199535
0.0199557
0.0199581
0.0199608
0.0199637
0.0199667
0.0199699
0.019973
0.0199752
0.0199751
0.0199723
0.0199677
0.0199625
0.0199577
0.0199533
0.0199494
0.0199459
0.0199426
0.0199396
0.0199367
0.0199342
0.019932
0.0199303
0.0199291
0.0199284
0.0199279
0.0199277
0.0199488
0.019949
0.0199495
0.0199504
0.0199518
0.0199536
0.0199558
0.0199583
0.019961
0.019964
0.0199673
0.0199711
0.019975
0.0199778
0.0199778
0.0199745
0.0199691
0.0199635
0.0199583
0.0199538
0.0199499
0.0199464
0.0199431
0.0199401
0.0199373
0.0199347
0.0199325
0.0199307
0.0199294
0.0199286
0.0199281
0.019928
0.0199487
0.0199489
0.0199494
0.0199503
0.0199517
0.0199534
0.0199556
0.0199581
0.0199608
0.019964
0.0199678
0.0199724
0.0199774
0.0199811
0.0199812
0.0199772
0.0199708
0.0199644
0.0199588
0.0199541
0.01995
0.0199465
0.0199434
0.0199405
0.0199377
0.0199351
0.0199328
0.019931
0.0199297
0.0199288
0.0199284
0.0199282
0.0199485
0.0199487
0.0199492
0.0199501
0.0199513
0.019953
0.019955
0.0199574
0.0199602
0.0199636
0.019968
0.0199736
0.0199801
0.019985
0.0199853
0.0199804
0.0199726
0.0199651
0.0199588
0.0199538
0.0199497
0.0199462
0.0199432
0.0199404
0.0199378
0.0199353
0.0199331
0.0199313
0.0199299
0.019929
0.0199286
0.0199284
0.0199481
0.0199483
0.0199488
0.0199495
0.0199506
0.0199521
0.019954
0.0199562
0.019959
0.0199627
0.0199678
0.0199748
0.019983
0.0199894
0.0199899
0.0199837
0.0199742
0.0199652
0.0199582
0.0199527
0.0199485
0.0199452
0.0199423
0.0199398
0.0199374
0.0199351
0.019933
0.0199313
0.01993
0.0199291
0.0199287
0.0199285
0.0199474
0.0199476
0.019948
0.0199486
0.0199496
0.0199508
0.0199524
0.0199545
0.0199573
0.0199613
0.0199674
0.0199761
0.0199865
0.0199945
0.0199948
0.0199869
0.0199751
0.0199645
0.0199565
0.0199506
0.0199464
0.0199432
0.0199407
0.0199385
0.0199364
0.0199344
0.0199326
0.019931
0.0199298
0.0199291
0.0199286
0.0199284
0.0199464
0.0199465
0.0199469
0.0199474
0.0199481
0.0199491
0.0199505
0.0199524
0.0199552
0.0199599
0.0199674
0.0199784
0.0199913
0.0200005
0.02
0.0199894
0.0199748
0.0199624
0.0199534
0.0199472
0.019943
0.0199401
0.0199381
0.0199364
0.0199348
0.0199332
0.0199317
0.0199304
0.0199294
0.0199287
0.0199283
0.0199281
0.0199452
0.0199453
0.0199455
0.0199459
0.0199465
0.0199473
0.0199486
0.0199505
0.0199539
0.0199597
0.0199694
0.0199834
0.0199986
0.020008
0.0200052
0.0199909
0.019973
0.0199585
0.0199487
0.0199423
0.0199384
0.0199361
0.0199346
0.0199335
0.0199325
0.0199315
0.0199304
0.0199294
0.0199287
0.0199281
0.0199277
0.0199276
0.0199458
0.0199457
0.0199457
0.0199459
0.0199462
0.019947
0.0199485
0.0199511
0.0199559
0.0199641
0.0199768
0.0199937
0.02001
0.0200174
0.0200102
0.019991
0.0199694
0.0199532
0.0199427
0.0199364
0.0199329
0.0199312
0.0199305
0.0199301
0.0199298
0.0199293
0.0199287
0.0199281
0.0199275
0.019927
0.0199267
0.0199266
0.0199535
0.0199533
0.0199531
0.019953
0.0199533
0.0199543
0.0199565
0.0199608
0.0199679
0.019979
0.0199946
0.0200125
0.0200265
0.0200283
0.0200145
0.0199902
0.0199656
0.019948
0.019937
0.0199306
0.0199275
0.0199263
0.0199262
0.0199265
0.0199267
0.0199267
0.0199265
0.0199262
0.0199258
0.0199254
0.0199251
0.019925
0.019977
0.019977
0.0199771
0.0199774
0.0199783
0.0199802
0.0199837
0.0199896
0.0199985
0.0200109
0.0200259
0.0200401
0.0200467
0.0200397
0.0200194
0.0199923
0.0199669
0.0199482
0.019936
0.0199285
0.0199245
0.019923
0.019923
0.0199236
0.0199241
0.0199244
0.0199243
0.0199239
0.0199236
0.0199233
0.0199231
0.0199231
0.0200183
0.0200187
0.0200195
0.0200209
0.0200231
0.0200262
0.0200309
0.0200373
0.0200458
0.0200557
0.0200653
0.0200708
0.0200675
0.0200543
0.020034
0.0200106
0.0199879
0.0199688
0.0199539
0.0199422
0.0199332
0.0199265
0.0199219
0.0199191
0.0199178
0.0199177
0.0199187
0.0199204
0.0199225
0.0199245
0.0199261
0.019927
0.0200598
0.0200604
0.0200617
0.0200638
0.020067
0.0200713
0.0200768
0.0200833
0.0200904
0.0200969
0.0201012
0.0201019
0.0200983
0.0200915
0.0200826
0.0200723
0.0200615
0.020051
0.0200411
0.0200316
0.0200222
0.0200133
0.0200054
0.0199989
0.0199942
0.0199917
0.0199914
0.0199931
0.0199961
0.0199994
0.0200021
0.0200035
0.0200852
0.0200859
0.0200875
0.0200903
0.0200947
0.0201007
0.0201083
0.0201168
0.0201254
0.0201334
0.0201404
0.0201466
0.0201525
0.0201589
0.0201664
0.0201759
0.0201873
0.020199
0.0202093
0.0202178
0.020224
0.0202277
0.0202289
0.0202274
0.0202235
0.0202178
0.020211
0.020204
0.020198
0.0201938
0.0201915
0.0201907
0.0200965
0.0200972
0.0200987
0.0201017
0.0201065
0.0201133
0.0201222
0.0201327
0.0201441
0.0201559
0.0201678
0.0201801
0.0201935
0.0202088
0.0202268
0.0202485
0.0202735
0.0202987
0.0203216
0.0203419
0.0203594
0.0203737
0.0203843
0.0203909
0.0203932
0.0203913
0.0203856
0.0203774
0.0203681
0.02036
0.0203543
0.0203518
0.020102
0.0201026
0.0201041
0.0201069
0.0201116
0.0201184
0.0201275
0.0201388
0.0201515
0.0201653
0.0201797
0.0201948
0.0202112
0.0202296
0.0202506
0.020275
0.0203017
0.020327
0.020349
0.020368
0.0203846
0.0203991
0.0204117
0.0204222
0.0204303
0.0204357
0.0204379
0.0204373
0.0204344
0.0204305
0.0204271
0.0204253
0.0201046
0.0201052
0.0201065
0.0201091
0.0201133
0.0201196
0.0201283
0.0201391
0.0201518
0.0201658
0.0201807
0.0201964
0.0202132
0.0202316
0.0202522
0.0202755
0.0202999
0.0203219
0.0203406
0.0203569
0.0203717
0.020386
0.0203999
0.0204134
0.0204255
0.0204356
0.020443
0.0204476
0.0204496
0.0204496
0.0204488
0.0204481
0.0201061
0.0201065
0.0201076
0.0201098
0.0201135
0.0201191
0.0201268
0.0201367
0.0201486
0.0201619
0.0201762
0.0201914
0.0202077
0.0202254
0.020245
0.0202667
0.020289
0.020309
0.0203259
0.020341
0.0203555
0.0203704
0.0203861
0.0204023
0.020418
0.020432
0.020443
0.0204507
0.0204551
0.020457
0.0204574
0.0204572
0.0201081
0.0201084
0.0201091
0.0201108
0.0201137
0.0201184
0.020125
0.0201338
0.0201446
0.020157
0.0201707
0.0201855
0.0202015
0.0202188
0.0202379
0.0202588
0.0202803
0.0202995
0.0203159
0.0203309
0.0203454
0.0203606
0.0203769
0.0203943
0.020412
0.0204285
0.0204425
0.0204528
0.0204593
0.0204625
0.0204636
0.0204636
0.020113
0.0201129
0.020113
0.0201138
0.0201157
0.0201194
0.0201251
0.020133
0.020143
0.020155
0.0201686
0.0201836
0.0201999
0.0202176
0.0202368
0.0202577
0.0202789
0.0202979
0.0203143
0.0203292
0.0203435
0.0203583
0.0203742
0.0203914
0.0204093
0.0204268
0.0204424
0.0204546
0.0204629
0.0204674
0.0204691
0.0204693
0.0201229
0.0201223
0.0201215
0.0201212
0.020122
0.0201247
0.0201297
0.0201373
0.0201474
0.0201597
0.020174
0.0201899
0.0202071
0.0202255
0.0202452
0.0202661
0.020287
0.0203056
0.0203215
0.0203358
0.0203494
0.0203632
0.020378
0.0203939
0.0204107
0.0204276
0.0204435
0.0204567
0.0204662
0.0204718
0.0204741
0.0204745
0.0201401
0.0201388
0.020137
0.0201355
0.0201355
0.0201377
0.0201428
0.0201509
0.0201619
0.0201753
0.0201907
0.0202076
0.0202256
0.0202444
0.020264
0.0202844
0.0203044
0.0203219
0.0203366
0.0203497
0.0203619
0.0203742
0.0203871
0.020401
0.0204159
0.0204313
0.0204462
0.0204594
0.0204695
0.0204758
0.0204787
0.0204793
0.0201659
0.0201639
0.0201612
0.0201593
0.0201593
0.0201621
0.0201682
0.0201776
0.0201897
0.0202042
0.0202203
0.0202376
0.0202555
0.0202738
0.0202924
0.0203112
0.0203293
0.0203449
0.0203578
0.0203691
0.0203796
0.0203899
0.0204006
0.0204121
0.0204244
0.0204375
0.0204506
0.0204628
0.0204728
0.0204795
0.0204828
0.0204836
0.0202011
0.0201986
0.020196
0.0201949
0.0201963
0.0202008
0.0202084
0.0202189
0.0202317
0.0202463
0.020262
0.0202783
0.0202949
0.0203114
0.0203277
0.020344
0.0203594
0.0203724
0.020383
0.0203922
0.0204006
0.0204088
0.0204172
0.0204261
0.0204357
0.0204461
0.0204568
0.0204673
0.0204764
0.020483
0.0204865
0.0204875
0.0202461
0.0202437
0.0202427
0.0202441
0.020248
0.0202543
0.020263
0.0202736
0.0202857
0.0202988
0.0203125
0.0203265
0.0203403
0.0203539
0.0203671
0.02038
0.020392
0.0204021
0.0204103
0.0204172
0.0204235
0.0204295
0.0204356
0.0204421
0.020449
0.0204566
0.0204647
0.0204729
0.0204805
0.0204864
0.0204898
0.020491
0.020302
0.0203009
0.0203029
0.0203072
0.020313
0.0203201
0.0203282
0.0203372
0.020347
0.0203572
0.0203676
0.020378
0.0203882
0.020398
0.0204075
0.0204167
0.0204251
0.0204321
0.0204377
0.0204425
0.0204467
0.0204508
0.0204548
0.020459
0.0204636
0.0204685
0.0204739
0.0204797
0.0204852
0.0204898
0.0204928
0.020494
0.0203706
0.0203721
0.0203766
0.0203817
0.0203869
0.0203924
0.0203981
0.0204041
0.0204103
0.0204166
0.0204229
0.0204292
0.0204352
0.020441
0.0204466
0.020452
0.0204568
0.0204608
0.0204641
0.0204668
0.0204692
0.0204714
0.0204737
0.020476
0.0204785
0.0204812
0.0204842
0.0204874
0.0204906
0.0204936
0.0204957
0.0204966
0.0204546
0.0204558
0.0204582
0.0204604
0.0204626
0.0204646
0.0204667
0.0204687
0.0204708
0.0204729
0.020475
0.0204771
0.0204791
0.0204809
0.0204828
0.0204845
0.020486
0.0204873
0.0204884
0.0204892
0.02049
0.0204907
0.0204914
0.0204921
0.0204929
0.0204937
0.0204947
0.0204957
0.0204967
0.0204977
0.0204985
0.0204988
)
;

boundaryField
{
    movingWall
    {
        type            fixedValue;
        value           uniform 0.0205;
    }
    fixedWalls
    {
        type            zeroGradient;
    }
    floor
    {
        type            zeroGradient;
    }
    frontAndBack
    {
        type            empty;
    }
}


// ************************************************************************* //
