/*--------------------------------*- C++ -*----------------------------------*\
| =========                 |                                                 |
| \\      /  F ield         | OpenFOAM: The Open Source CFD Toolbox           |
|  \\    /   O peration     | Version:  2212                                  |
|   \\  /    A nd           | Website:  www.openfoam.com                      |
|    \\/     M anipulation  |                                                 |
\*---------------------------------------------------------------------------*/
FoamFile
{
    version     2.0;
    format      ascii;
    arch        "LSB;label=64;scalar=64";
    class       volScalarField::Internal;
    location    "1450";
    object      dGch4;
}
// * * * * * * * * * * * * * * * * * * * * * * * * * * * * * * * * * * * * * //

dimensions      [1 -3 -1 0 0 0 0];

value           nonuniform List<scalar> 
1024
(
0.000923275
0.000923511
0.00092409
0.000925144
0.000926817
0.000929242
0.000932495
0.00093655
0.000941241
0.000946267
0.000951231
0.0009557
0.000959319
0.000961826
0.000963004
0.000962625
0.000960399
0.000956461
0.000951272
0.000945051
0.00093806
0.000930681
0.000923401
0.000916696
0.000910923
0.000906258
0.000902707
0.000900161
0.000898448
0.000897384
0.000896803
0.000896566
0.000923345
0.000923584
0.000924171
0.000925241
0.00092694
0.000929402
0.0009327
0.000936801
0.000941535
0.000946599
0.00095159
0.000956066
0.000959676
0.000962164
0.00096332
0.000962923
0.000960686
0.000956743
0.000951555
0.000945339
0.00093835
0.000930965
0.000923663
0.000916924
0.000911109
0.000906401
0.000902814
0.00090024
0.000898508
0.000897433
0.000896846
0.000896606
0.000923514
0.000923759
0.000924361
0.00092546
0.000927209
0.000929742
0.00093313
0.000937335
0.000942183
0.000947362
0.000952456
0.000956984
0.000960583
0.000963018
0.000964105
0.000963642
0.000961355
0.00095738
0.000952177
0.00094596
0.000938971
0.000931569
0.000924223
0.000917414
0.000911512
0.000906717
0.000903053
0.000900419
0.000898646
0.000897547
0.000896947
0.000896703
0.000923817
0.000924068
0.000924689
0.000925827
0.000927643
0.000930277
0.000933805
0.000938189
0.000943255
0.000948685
0.000954019
0.000958687
0.000962288
0.000964622
0.000965558
0.000964942
0.000962526
0.000958452
0.000953186
0.000946938
0.000939933
0.000932502
0.000925091
0.000918178
0.000912147
0.000907219
0.000903438
0.000900715
0.00089888
0.000897742
0.000897122
0.00089687
0.000924299
0.000924554
0.000925193
0.000926372
0.000928266
0.00093103
0.000934752
0.000939412
0.000944845
0.000950719
0.000956496
0.000961448
0.000965088
0.000967259
0.000967927
0.00096702
0.000964339
0.000960043
0.000954615
0.00094827
0.00094121
0.000933725
0.000926227
0.000919183
0.00091299
0.000907896
0.000903968
0.000901129
0.000899215
0.000898028
0.000897383
0.000897121
0.000925021
0.000925277
0.000925927
0.000927144
0.00092912
0.000932038
0.000936018
0.000941073
0.000947063
0.000953632
0.000960109
0.000965535
0.000969284
0.000971234
0.000971489
0.000970106
0.000966958
0.000962244
0.000956487
0.000949919
0.000942721
0.000935135
0.000927526
0.000920335
0.000913967
0.000908693
0.000904605
0.000901642
0.000899642
0.000898403
0.000897731
0.000897459
0.000926084
0.000926337
0.00092699
0.000928236
0.000930294
0.000933389
0.000937694
0.000943282
0.000950049
0.000957595
0.000965052
0.000971171
0.000975129
0.000976815
0.000976509
0.000974433
0.000970561
0.000965152
0.000958811
0.000951816
0.000944337
0.000936565
0.000928807
0.000921466
0.000914936
0.000909502
0.000905275
0.000902204
0.00090013
0.000898849
0.000898155
0.000897876
0.000927667
0.000927911
0.000928558
0.000929822
0.000931961
0.000935256
0.00093996
0.000946224
0.000953992
0.000962784
0.000971479
0.000978496
0.000982767
0.000984173
0.000983183
0.00098021
0.000975327
0.000968874
0.000961601
0.000953883
0.000945901
0.000937805
0.000929837
0.000922347
0.000915698
0.000910166
0.000905862
0.000902739
0.000900636
0.00089934
0.000898642
0.000898363
0.000930073
0.000930304
0.00093094
0.000932219
0.000934446
0.000937972
0.000943146
0.000950222
0.000959183
0.000969431
0.000979539
0.000987577
0.000992226
0.000993357
0.000991627
0.00098762
0.000981465
0.000973585
0.000964946
0.000956105
0.000947307
0.000938679
0.000930404
0.000922763
0.000916063
0.000910537
0.000906269
0.000903194
0.000901139
0.000899885
0.000899217
0.000898952
0.000933796
0.000934016
0.000934647
0.000935956
0.000938299
0.000942105
0.00094783
0.000955834
0.000966113
0.000977904
0.000989445
0.000998478
0.00100349
0.00100437
0.00100196
0.00099695
0.000989392
0.000979752
0.000969265
0.000958794
0.00094875
0.00093928
0.000930529
0.000922703
0.00091602
0.000910629
0.000906548
0.000903665
0.000901781
0.00090066
0.00090008
0.000899858
0.000939547
0.000939769
0.000940422
0.000941805
0.00094433
0.000948506
0.000954887
0.000963903
0.000975519
0.00098876
0.00100155
0.00101138
0.00101667
0.00101742
0.00101463
0.00100897
0.00100023
0.000988745
0.000976021
0.000963342
0.00095146
0.000940645
0.00093107
0.000922886
0.000916202
0.000911038
0.000907298
0.000904785
0.000903241
0.000902396
0.000902007
0.000901881
0.000948162
0.00094841
0.000949134
0.000950674
0.000953494
0.000958174
0.000965333
0.000975413
0.00098827
0.00100269
0.00101635
0.00102668
0.00103223
0.00103326
0.00103091
0.00102565
0.00101678
0.00100419
0.000989419
0.000974136
0.000959654
0.000946625
0.000935431
0.000926281
0.000919236
0.000914172
0.000910825
0.000908847
0.000907861
0.000907504
0.000907467
0.000907522
0.00096027
0.000960572
0.000961432
0.000963234
0.000966493
0.000971842
0.000979913
0.000991082
0.00100503
0.00102029
0.00103444
0.00104512
0.00105133
0.00105373
0.00105353
0.00105094
0.00104459
0.00103349
0.00101867
0.00100182
0.000984634
0.000968401
0.000954125
0.000942448
0.000933748
0.000927893
0.00092446
0.000922873
0.000922504
0.000922774
0.000923221
0.000923531
0.000975723
0.0009761
0.000977159
0.000979336
0.000983209
0.000989442
0.000998635
0.001011
0.00102597
0.00104185
0.00105638
0.0010678
0.00107587
0.0010817
0.00108643
0.00109011
0.00109092
0.00108663
0.00107705
0.00106325
0.00104666
0.00102883
0.00101129
0.000995442
0.000982542
0.00097311
0.000967147
0.000964143
0.000963219
0.000963427
0.000964006
0.000964437
0.000992996
0.000993455
0.000994734
0.000997343
0.00100192
0.00100914
0.00101952
0.00103305
0.00104893
0.00106553
0.00108105
0.00109454
0.00110642
0.00111792
0.0011301
0.00114315
0.00115527
0.0011633
0.00116582
0.0011629
0.00115498
0.00114282
0.00112761
0.00111092
0.00109441
0.00107956
0.00106763
0.00105921
0.00105414
0.00105165
0.00105078
0.00105067
0.00100904
0.00100953
0.00101088
0.00101364
0.00101847
0.00102602
0.0010368
0.0010508
0.00106736
0.00108517
0.00110284
0.00111965
0.00113596
0.0011528
0.00117103
0.00119107
0.00121159
0.00122995
0.00124489
0.00125601
0.00126272
0.00126458
0.00126147
0.00125381
0.00124256
0.00122926
0.0012157
0.00120361
0.0011942
0.00118796
0.00118458
0.00118331
0.00102074
0.00102121
0.00102249
0.00102508
0.00102961
0.00103672
0.00104695
0.00106044
0.00107677
0.00109491
0.00111359
0.00113185
0.00114949
0.00116687
0.00118433
0.00120211
0.00121977
0.00123725
0.00125517
0.00127331
0.00129054
0.00130548
0.00131693
0.0013241
0.00132672
0.00132516
0.00132037
0.00131381
0.00130712
0.00130166
0.00129813
0.00129656
0.00102748
0.00102791
0.00102908
0.00103139
0.00103539
0.00104168
0.00105078
0.00106297
0.00107802
0.00109514
0.0011131
0.00113066
0.001147
0.00116173
0.00117461
0.0011856
0.00119512
0.00120588
0.00122063
0.00123967
0.00126148
0.00128385
0.00130463
0.00132215
0.00133542
0.00134415
0.0013487
0.0013499
0.00134895
0.00134712
0.00134547
0.00134457
0.00103069
0.0010311
0.00103216
0.0010342
0.00103767
0.00104308
0.00105094
0.00106156
0.00107487
0.00109026
0.00110664
0.00112267
0.00113716
0.00114925
0.00115836
0.00116437
0.00116835
0.00117437
0.00118615
0.00120472
0.001229
0.00125653
0.00128428
0.00130952
0.00133027
0.00134565
0.00135576
0.00136139
0.00136373
0.0013641
0.00136367
0.00136325
0.00103181
0.00103219
0.00103314
0.00103494
0.00103793
0.00104256
0.00104925
0.00105832
0.00106979
0.00108322
0.00109769
0.00111195
0.00112471
0.00113495
0.001142
0.00114584
0.00114792
0.00115245
0.00116276
0.00118024
0.00120457
0.00123404
0.00126582
0.00129669
0.00132371
0.00134502
0.00136005
0.00136933
0.00137407
0.00137581
0.001376
0.00137577
0.00103205
0.00103237
0.00103317
0.00103469
0.00103723
0.00104113
0.00104677
0.00105443
0.00106416
0.00107564
0.00108815
0.00110065
0.00111201
0.00112125
0.00112783
0.00113188
0.00113503
0.00114071
0.00115137
0.00116828
0.00119166
0.00122067
0.00125334
0.00128677
0.00131772
0.00134356
0.0013629
0.00137565
0.00138279
0.00138588
0.00138664
0.00138655
0.00103284
0.00103303
0.00103357
0.00103467
0.00103662
0.00103976
0.00104439
0.00105076
0.00105893
0.00106868
0.00107948
0.00109056
0.00110105
0.00111023
0.00111772
0.00112388
0.00113008
0.00113847
0.00115054
0.00116743
0.00118969
0.00121711
0.00124854
0.00128185
0.00131419
0.0013427
0.00136524
0.00138099
0.00139041
0.00139489
0.00139628
0.00139632
0.00103599
0.00103595
0.00103602
0.00103645
0.00103756
0.00103973
0.0010433
0.0010485
0.0010554
0.00106388
0.00107358
0.00108399
0.00109452
0.00110468
0.00111429
0.00112376
0.00113391
0.00114544
0.00115909
0.00117595
0.00119683
0.00122204
0.00125108
0.00128246
0.00131401
0.0013432
0.00136759
0.00138564
0.0013971
0.00140298
0.00140503
0.00140525
0.00104351
0.00104311
0.00104247
0.00104193
0.00104192
0.00104296
0.00104546
0.00104974
0.00105591
0.0010639
0.00107348
0.00108429
0.0010959
0.00110796
0.00112033
0.00113341
0.00114729
0.00116144
0.00117612
0.0011925
0.00121156
0.001234
0.00125983
0.00128819
0.00131748
0.00134566
0.00137046
0.0013899
0.00140302
0.00141021
0.00141298
0.00141339
0.00105721
0.00105632
0.0010548
0.00105315
0.001052
0.00105203
0.00105382
0.00105778
0.00106405
0.00107257
0.00108307
0.0010952
0.00110855
0.00112278
0.00113775
0.00115372
0.00117018
0.00118576
0.00120056
0.00121583
0.00123265
0.0012519
0.00127396
0.00129851
0.00132452
0.00135045
0.00137432
0.00139412
0.00140834
0.00141666
0.00142015
0.0014208
0.00107841
0.00107695
0.00107457
0.00107208
0.00107032
0.00107008
0.00107202
0.00107659
0.00108389
0.00109371
0.00110568
0.00111936
0.00113429
0.00115011
0.00116662
0.00118401
0.00120137
0.001217
0.00123097
0.00124453
0.00125881
0.0012747
0.00129276
0.00131306
0.00133508
0.00135778
0.00137963
0.00139872
0.00141329
0.00142243
0.0014266
0.0014275
0.00110787
0.00110585
0.001103
0.00110054
0.00109937
0.00110015
0.0011034
0.00110945
0.00111822
0.00112938
0.00114248
0.00115701
0.00117252
0.00118863
0.00120516
0.00122222
0.0012388
0.0012532
0.00126554
0.00127701
0.00128862
0.0013012
0.00131536
0.00133134
0.00134901
0.00136782
0.00138671
0.00140409
0.00141819
0.00142766
0.00143235
0.00143353
0.00114603
0.00114365
0.00114125
0.00114025
0.0011412
0.00114425
0.00114955
0.00115722
0.00116704
0.0011787
0.00119178
0.00120582
0.00122044
0.00123533
0.00125032
0.0012655
0.00127995
0.0012922
0.0013024
0.00131157
0.00132057
0.00133008
0.00134063
0.00135256
0.00136592
0.00138053
0.00139579
0.00141059
0.00142334
0.00143252
0.00143747
0.0014389
0.00119346
0.0011913
0.00119075
0.00119267
0.00119665
0.00120221
0.0012092
0.0012176
0.00122727
0.00123803
0.00124962
0.00126173
0.00127407
0.00128643
0.00129868
0.00131091
0.00132236
0.00133193
0.00133974
0.00134659
0.00135314
0.00135992
0.00136733
0.00137568
0.0013851
0.00139559
0.00140693
0.00141847
0.00142905
0.00143723
0.00144205
0.00144363
0.00125142
0.00125057
0.0012532
0.00125822
0.0012644
0.00127113
0.00127826
0.00128582
0.00129385
0.00130234
0.00131119
0.00132025
0.00132935
0.00133835
0.00134717
0.00135588
0.00136395
0.00137063
0.00137601
0.00138066
0.00138502
0.00138944
0.00139421
0.00139954
0.00140557
0.00141236
0.00141987
0.00142784
0.00143559
0.00144204
0.00144619
0.00144775
0.0013223
0.00132399
0.00132898
0.00133463
0.00134029
0.00134575
0.00135101
0.00135617
0.00136136
0.00136664
0.00137204
0.00137748
0.0013829
0.00138822
0.0013934
0.00139847
0.00140315
0.00140699
0.00141007
0.0014127
0.00141513
0.00141757
0.00142016
0.00142304
0.00142629
0.00142996
0.00143407
0.00143854
0.00144311
0.00144719
0.00145007
0.00145131
0.00140903
0.00141037
0.00141294
0.00141541
0.00141769
0.00141978
0.00142171
0.00142353
0.0014253
0.00142706
0.00142885
0.00143063
0.0014324
0.00143413
0.00143581
0.00143745
0.00143896
0.00144019
0.00144118
0.00144201
0.00144278
0.00144355
0.00144436
0.00144525
0.00144625
0.00144738
0.00144865
0.00145004
0.0014515
0.00145286
0.00145391
0.00145441
)
;


// ************************************************************************* //
