/*--------------------------------*- C++ -*----------------------------------*\
| =========                 |                                                 |
| \\      /  F ield         | OpenFOAM: The Open Source CFD Toolbox           |
|  \\    /   O peration     | Version:  2212                                  |
|   \\  /    A nd           | Website:  www.openfoam.com                      |
|    \\/     M anipulation  |                                                 |
\*---------------------------------------------------------------------------*/
FoamFile
{
    version     2.0;
    format      ascii;
    arch        "LSB;label=64;scalar=64";
    class       volScalarField;
    location    "1450";
    object      p;
}
// * * * * * * * * * * * * * * * * * * * * * * * * * * * * * * * * * * * * * //

dimensions      [0 2 -2 0 0 0 0];

internalField   nonuniform List<scalar> 
1024
(
0
-1.63222e-06
-3.23565e-06
-3.21192e-06
-2.29511e-07
6.9136e-06
1.95707e-05
3.92376e-05
6.65376e-05
9.74624e-05
0.000120829
0.00012032
9.42708e-05
4.69069e-05
-1.03136e-05
-7.09323e-05
-0.000127947
-0.000173673
-0.000204546
-0.000222963
-0.000233025
-0.000238144
-0.000240592
-0.000241765
-0.000242432
-0.000242857
-0.000242983
-0.000242644
-0.000241797
-0.000240641
-0.000239548
-0.000238951
-0.0928108
-0.0928126
-0.092814
-0.0928139
-0.0928112
-0.0928049
-0.0927934
-0.0927752
-0.0927496
-0.0927205
-0.0926985
-0.0926987
-0.0927235
-0.0927696
-0.0928259
-0.0928858
-0.0929422
-0.0929874
-0.0930177
-0.0930357
-0.0930455
-0.0930503
-0.0930526
-0.0930535
-0.093054
-0.0930542
-0.0930542
-0.0930538
-0.093053
-0.093052
-0.0930511
-0.0930504
-0.199425
-0.199427
-0.199429
-0.199429
-0.199427
-0.199422
-0.199412
-0.199396
-0.199373
-0.199346
-0.199326
-0.199326
-0.199349
-0.199393
-0.199448
-0.199506
-0.199562
-0.199606
-0.199635
-0.199653
-0.199662
-0.199666
-0.199668
-0.199668
-0.199668
-0.199668
-0.199668
-0.199667
-0.199666
-0.199665
-0.199664
-0.199663
-0.321897
-0.321899
-0.321902
-0.321902
-0.321902
-0.321898
-0.321891
-0.321878
-0.321857
-0.321833
-0.321815
-0.321815
-0.321837
-0.321879
-0.321931
-0.321987
-0.322041
-0.322084
-0.322112
-0.322128
-0.322136
-0.322139
-0.322139
-0.322139
-0.322138
-0.322137
-0.322137
-0.322136
-0.322135
-0.322134
-0.322132
-0.322131
-0.462588
-0.462591
-0.462593
-0.462595
-0.462596
-0.462595
-0.46259
-0.46258
-0.462562
-0.462541
-0.462526
-0.462526
-0.462547
-0.462586
-0.462635
-0.462688
-0.462739
-0.46278
-0.462806
-0.46282
-0.462826
-0.462828
-0.462827
-0.462825
-0.462823
-0.462821
-0.462819
-0.462818
-0.462817
-0.462815
-0.462814
-0.462812
-0.624209
-0.624211
-0.624214
-0.624217
-0.624219
-0.624221
-0.624219
-0.624212
-0.624198
-0.62418
-0.624168
-0.624169
-0.624189
-0.624225
-0.62427
-0.624319
-0.624366
-0.624405
-0.624429
-0.624441
-0.624444
-0.624443
-0.62444
-0.624436
-0.624432
-0.624429
-0.624426
-0.624424
-0.624422
-0.62442
-0.624418
-0.624416
-0.809872
-0.809874
-0.809877
-0.80988
-0.809884
-0.809887
-0.809889
-0.809885
-0.809874
-0.809859
-0.809851
-0.809854
-0.809874
-0.809907
-0.809948
-0.809992
-0.810036
-0.810071
-0.810093
-0.810102
-0.810102
-0.810098
-0.810092
-0.810086
-0.81008
-0.810074
-0.81007
-0.810067
-0.810064
-0.810062
-0.810059
-0.810057
-1.02315
-1.02315
-1.02315
-1.02316
-1.02316
-1.02317
-1.02317
-1.02317
-1.02316
-1.02315
-1.02315
-1.02315
-1.02317
-1.02321
-1.02324
-1.02328
-1.02332
-1.02335
-1.02337
-1.02338
-1.02338
-1.02337
-1.02336
-1.02335
-1.02334
-1.02333
-1.02333
-1.02332
-1.02332
-1.02332
-1.02331
-1.02331
-1.26815
-1.26815
-1.26815
-1.26815
-1.26816
-1.26816
-1.26817
-1.26817
-1.26816
-1.26816
-1.26816
-1.26817
-1.26819
-1.26822
-1.26825
-1.26829
-1.26833
-1.26836
-1.26838
-1.26838
-1.26837
-1.26836
-1.26835
-1.26833
-1.26832
-1.26831
-1.2683
-1.2683
-1.26829
-1.26829
-1.26829
-1.26829
-1.54957
-1.54957
-1.54957
-1.54958
-1.54958
-1.54958
-1.54959
-1.54959
-1.54959
-1.54959
-1.5496
-1.54962
-1.54964
-1.54967
-1.5497
-1.54973
-1.54976
-1.54979
-1.54981
-1.54981
-1.5498
-1.54978
-1.54977
-1.54975
-1.54974
-1.54973
-1.54972
-1.54971
-1.5497
-1.5497
-1.5497
-1.5497
-1.87285
-1.87285
-1.87285
-1.87285
-1.87285
-1.87285
-1.87285
-1.87286
-1.87286
-1.87287
-1.87288
-1.87291
-1.87293
-1.87296
-1.87299
-1.87302
-1.87305
-1.87308
-1.87309
-1.87309
-1.87307
-1.87305
-1.87304
-1.87302
-1.873
-1.87299
-1.87298
-1.87297
-1.87296
-1.87296
-1.87296
-1.87296
-2.24419
-2.24419
-2.24419
-2.24419
-2.24419
-2.24419
-2.24419
-2.2442
-2.2442
-2.24421
-2.24424
-2.24426
-2.24429
-2.24432
-2.24435
-2.24438
-2.2444
-2.24442
-2.24443
-2.24443
-2.24441
-2.24439
-2.24436
-2.24434
-2.24433
-2.24431
-2.2443
-2.24429
-2.24429
-2.24429
-2.24429
-2.24429
-2.67076
-2.67076
-2.67076
-2.67076
-2.67076
-2.67076
-2.67076
-2.67076
-2.67077
-2.67079
-2.67081
-2.67084
-2.67087
-2.6709
-2.67094
-2.67096
-2.67098
-2.67099
-2.67099
-2.67097
-2.67094
-2.67092
-2.67089
-2.67086
-2.67085
-2.67083
-2.67083
-2.67082
-2.67082
-2.67082
-2.67082
-2.67082
-3.16077
-3.16077
-3.16077
-3.16077
-3.16077
-3.16077
-3.16077
-3.16078
-3.16079
-3.16081
-3.16083
-3.16086
-3.1609
-3.16093
-3.16097
-3.161
-3.16101
-3.16101
-3.16099
-3.16095
-3.1609
-3.16086
-3.16082
-3.16079
-3.16077
-3.16076
-3.16076
-3.16076
-3.16077
-3.16077
-3.16077
-3.16077
-3.72367
-3.72367
-3.72367
-3.72367
-3.72367
-3.72368
-3.72368
-3.72369
-3.7237
-3.72372
-3.72375
-3.72378
-3.72382
-3.72387
-3.72391
-3.72395
-3.72396
-3.72395
-3.72392
-3.72386
-3.72379
-3.72372
-3.72366
-3.72362
-3.72359
-3.72358
-3.72358
-3.72358
-3.72358
-3.72359
-3.72359
-3.72359
-4.37032
-4.37032
-4.37032
-4.37033
-4.37033
-4.37033
-4.37034
-4.37035
-4.37036
-4.37039
-4.37042
-4.37046
-4.3705
-4.37055
-4.37061
-4.37066
-4.37068
-4.37068
-4.37065
-4.37059
-4.37051
-4.37043
-4.37036
-4.37029
-4.37024
-4.37021
-4.3702
-4.3702
-4.37021
-4.37021
-4.37021
-4.37022
-5.06177
-5.06177
-5.06178
-5.06178
-5.06178
-5.06179
-5.0618
-5.06181
-5.06183
-5.06185
-5.06189
-5.06193
-5.06198
-5.06204
-5.0621
-5.06216
-5.0622
-5.06221
-5.06219
-5.06214
-5.06207
-5.062
-5.06192
-5.06184
-5.06178
-5.06174
-5.06171
-5.0617
-5.0617
-5.0617
-5.06171
-5.06171
-5.70849
-5.70849
-5.70849
-5.70849
-5.7085
-5.7085
-5.70851
-5.70853
-5.70855
-5.70858
-5.70861
-5.70866
-5.70871
-5.70877
-5.70884
-5.70891
-5.70895
-5.70897
-5.70896
-5.70892
-5.70887
-5.70881
-5.70874
-5.70867
-5.7086
-5.70855
-5.70851
-5.70849
-5.70848
-5.70849
-5.70849
-5.7085
-6.27148
-6.27148
-6.27148
-6.27149
-6.27149
-6.2715
-6.27151
-6.27152
-6.27154
-6.27157
-6.27161
-6.27165
-6.27171
-6.27177
-6.27184
-6.27191
-6.27196
-6.27198
-6.27197
-6.27195
-6.27191
-6.27187
-6.27181
-6.27175
-6.27168
-6.27163
-6.27158
-6.27155
-6.27154
-6.27154
-6.27155
-6.27156
-6.76158
-6.76158
-6.76158
-6.76158
-6.76159
-6.76159
-6.7616
-6.76162
-6.76164
-6.76167
-6.7617
-6.76175
-6.7618
-6.76187
-6.76194
-6.76201
-6.76207
-6.76209
-6.76208
-6.76206
-6.76203
-6.76199
-6.76195
-6.7619
-6.76184
-6.76178
-6.76173
-6.7617
-6.76168
-6.76168
-6.76168
-6.76169
-7.18823
-7.18823
-7.18823
-7.18823
-7.18823
-7.18823
-7.18824
-7.18826
-7.18828
-7.1883
-7.18834
-7.18838
-7.18844
-7.18851
-7.18858
-7.18866
-7.18871
-7.18873
-7.18872
-7.1887
-7.18867
-7.18864
-7.1886
-7.18855
-7.1885
-7.18844
-7.18839
-7.18835
-7.18832
-7.18832
-7.18832
-7.18833
-7.55963
-7.55963
-7.55963
-7.55963
-7.55963
-7.55964
-7.55964
-7.55965
-7.55967
-7.55969
-7.55973
-7.55977
-7.55983
-7.55991
-7.55999
-7.56006
-7.56012
-7.56014
-7.56013
-7.56011
-7.56007
-7.56003
-7.55999
-7.55994
-7.55989
-7.55982
-7.55976
-7.55971
-7.55968
-7.55966
-7.55967
-7.55968
-7.88296
-7.88296
-7.88296
-7.88296
-7.88295
-7.88295
-7.88296
-7.88296
-7.88297
-7.883
-7.88303
-7.88308
-7.88314
-7.88322
-7.8833
-7.88339
-7.88345
-7.88347
-7.88346
-7.88343
-7.88339
-7.88334
-7.88328
-7.88322
-7.88316
-7.88308
-7.88301
-7.88294
-7.88289
-7.88287
-7.88287
-7.88288
-8.16443
-8.16443
-8.16443
-8.16442
-8.16442
-8.16441
-8.16441
-8.16441
-8.16442
-8.16444
-8.16447
-8.16453
-8.16459
-8.16468
-8.16476
-8.16485
-8.16491
-8.16494
-8.16493
-8.1649
-8.16485
-8.16479
-8.16472
-8.16464
-8.16455
-8.16445
-8.16435
-8.16425
-8.16418
-8.16414
-8.16413
-8.16414
-8.40946
-8.40946
-8.40946
-8.40946
-8.40945
-8.40944
-8.40942
-8.40942
-8.40942
-8.40944
-8.40948
-8.40954
-8.40961
-8.4097
-8.40979
-8.40988
-8.40995
-8.40997
-8.40996
-8.40993
-8.40988
-8.40981
-8.40972
-8.40961
-8.40948
-8.40935
-8.40921
-8.40908
-8.40897
-8.40889
-8.40887
-8.40888
-8.62278
-8.62278
-8.62278
-8.62277
-8.62276
-8.62274
-8.62272
-8.6227
-8.62271
-8.62273
-8.62277
-8.62283
-8.62291
-8.623
-8.6231
-8.62319
-8.62326
-8.62328
-8.62328
-8.62324
-8.62318
-8.6231
-8.623
-8.62286
-8.6227
-8.62251
-8.62231
-8.62213
-8.62196
-8.62184
-8.62179
-8.62178
-8.80849
-8.8085
-8.80849
-8.80848
-8.80845
-8.80842
-8.80839
-8.80838
-8.80838
-8.8084
-8.80844
-8.80851
-8.80859
-8.80869
-8.80879
-8.80889
-8.80896
-8.80898
-8.80898
-8.80894
-8.80888
-8.80879
-8.80866
-8.8085
-8.8083
-8.80805
-8.80779
-8.80752
-8.80728
-8.80708
-8.80698
-8.80694
-8.97019
-8.97019
-8.97018
-8.97015
-8.97011
-8.97007
-8.97003
-8.97001
-8.97001
-8.97003
-8.97008
-8.97015
-8.97024
-8.97034
-8.97044
-8.97054
-8.97062
-8.97065
-8.97064
-8.9706
-8.97053
-8.97043
-8.9703
-8.97011
-8.96986
-8.96957
-8.96923
-8.96887
-8.96852
-8.96821
-8.96801
-8.96791
-9.11101
-9.111
-9.11096
-9.11091
-9.11084
-9.11079
-9.11074
-9.11072
-9.11072
-9.11075
-9.1108
-9.11087
-9.11096
-9.11106
-9.11117
-9.11127
-9.11135
-9.11138
-9.11137
-9.11133
-9.11126
-9.11116
-9.11101
-9.1108
-9.11052
-9.11018
-9.10977
-9.10931
-9.10883
-9.10837
-9.10801
-9.10778
-9.23372
-9.23364
-9.23354
-9.23344
-9.23335
-9.23328
-9.23324
-9.23321
-9.23321
-9.23324
-9.2333
-9.23337
-9.23347
-9.23357
-9.23368
-9.23379
-9.23386
-9.23389
-9.23389
-9.23385
-9.23378
-9.23366
-9.23351
-9.23328
-9.23299
-9.23261
-9.23215
-9.2316
-9.23098
-9.23031
-9.22968
-9.22912
-9.34086
-9.34047
-9.34023
-9.34008
-9.33998
-9.33991
-9.33986
-9.33984
-9.33985
-9.33988
-9.33994
-9.34002
-9.34011
-9.34022
-9.34033
-9.34044
-9.34052
-9.34055
-9.34054
-9.3405
-9.34043
-9.34032
-9.34015
-9.33993
-9.33962
-9.33923
-9.33874
-9.33813
-9.33739
-9.33649
-9.33538
-9.33412
-9.43473
-9.43349
-9.43303
-9.43288
-9.43279
-9.43272
-9.43268
-9.43266
-9.43267
-9.43271
-9.43278
-9.43286
-9.43296
-9.43307
-9.43318
-9.43329
-9.43336
-9.4334
-9.43339
-9.43335
-9.43328
-9.43317
-9.433
-9.43278
-9.43247
-9.43207
-9.43157
-9.43094
-9.43013
-9.42903
-9.42742
-9.42516
)
;

boundaryField
{
    movingWall
    {
        type            calculated;
        value           nonuniform List<scalar> 
32
(
-9.47794
-9.47671
-9.47624
-9.47609
-9.476
-9.47593
-9.47589
-9.47587
-9.47589
-9.47592
-9.47599
-9.47607
-9.47617
-9.47628
-9.47639
-9.4765
-9.47658
-9.47661
-9.47661
-9.47657
-9.47649
-9.47638
-9.47622
-9.47599
-9.47568
-9.47528
-9.47478
-9.47415
-9.47334
-9.47224
-9.47064
-9.46838
)
;
    }
    fixedWalls
    {
        type            calculated;
        value           nonuniform List<scalar> 
64
(
6.93889e-18
-0.0928108
-0.199425
-0.321897
-0.462588
-0.624209
-0.809872
-1.02315
-1.26815
-1.54957
-1.87285
-2.24419
-2.67076
-3.16077
-3.72367
-4.37032
-5.06177
-5.70849
-6.27148
-6.76158
-7.18823
-7.55963
-7.88296
-8.16443
-8.40946
-8.62278
-8.80849
-8.97019
-9.11101
-9.23372
-9.34086
-9.43473
-0.000238951
-0.0930504
-0.199663
-0.322131
-0.462812
-0.624416
-0.810057
-1.02331
-1.26829
-1.5497
-1.87296
-2.24429
-2.67082
-3.16077
-3.72359
-4.37022
-5.06171
-5.7085
-6.27156
-6.76169
-7.18833
-7.55968
-7.88288
-8.16414
-8.40888
-8.62178
-8.80694
-8.96791
-9.10778
-9.22912
-9.33412
-9.42516
)
;
    }
    floor
    {
        type            calculated;
        value           nonuniform List<scalar> 
32
(
0.0431944
0.0431928
0.0431913
0.0431913
0.0431944
0.0432016
0.0432143
0.0432341
0.0432615
0.0432926
0.0433161
0.0433156
0.0432894
0.043242
0.0431847
0.043124
0.0430669
0.0430211
0.0429902
0.0429717
0.0429616
0.0429564
0.0429539
0.0429527
0.042952
0.0429516
0.0429514
0.0429517
0.0429526
0.0429537
0.0429548
0.0429554
)
;
    }
    frontAndBack
    {
        type            empty;
    }
}


// ************************************************************************* //
