/*--------------------------------*- C++ -*----------------------------------*\
| =========                 |                                                 |
| \\      /  F ield         | OpenFOAM: The Open Source CFD Toolbox           |
|  \\    /   O peration     | Version:  2212                                  |
|   \\  /    A nd           | Website:  www.openfoam.com                      |
|    \\/     M anipulation  |                                                 |
\*---------------------------------------------------------------------------*/
FoamFile
{
    version     2.0;
    format      ascii;
    arch        "LSB;label=64;scalar=64";
    class       volScalarField;
    location    "1450";
    object      Saa;
}
// * * * * * * * * * * * * * * * * * * * * * * * * * * * * * * * * * * * * * //

dimensions      [1 -3 0 0 0 0 0];

internalField   nonuniform List<scalar> 
1024
(
0.0054648
0.00546482
0.00546488
0.00546499
0.00546517
0.00546544
0.00546579
0.00546622
0.00546673
0.00546726
0.00546778
0.00546824
0.0054686
0.00546883
0.0054689
0.00546878
0.00546845
0.00546794
0.00546731
0.00546656
0.00546573
0.00546485
0.00546397
0.00546315
0.00546244
0.00546187
0.00546143
0.00546111
0.0054609
0.00546077
0.0054607
0.00546067
0.0054648
0.00546483
0.00546489
0.005465
0.00546519
0.00546545
0.00546581
0.00546625
0.00546676
0.00546729
0.00546781
0.00546827
0.00546863
0.00546886
0.00546893
0.00546881
0.00546848
0.00546797
0.00546733
0.00546659
0.00546576
0.00546488
0.00546399
0.00546317
0.00546246
0.00546188
0.00546144
0.00546112
0.00546091
0.00546077
0.0054607
0.00546067
0.00546482
0.00546484
0.00546491
0.00546503
0.00546521
0.00546549
0.00546585
0.00546631
0.00546682
0.00546737
0.0054679
0.00546836
0.00546872
0.00546894
0.005469
0.00546887
0.00546854
0.00546802
0.00546739
0.00546665
0.00546582
0.00546494
0.00546406
0.00546323
0.00546251
0.00546192
0.00546147
0.00546114
0.00546092
0.00546079
0.00546071
0.00546068
0.00546485
0.00546487
0.00546494
0.00546506
0.00546526
0.00546555
0.00546593
0.00546639
0.00546693
0.0054675
0.00546805
0.00546853
0.00546888
0.00546909
0.00546913
0.00546899
0.00546864
0.00546812
0.00546748
0.00546675
0.00546592
0.00546504
0.00546415
0.00546331
0.00546258
0.00546198
0.00546151
0.00546117
0.00546095
0.00546081
0.00546073
0.0054607
0.0054649
0.00546493
0.00546499
0.00546512
0.00546533
0.00546562
0.00546602
0.00546652
0.00546709
0.00546771
0.0054683
0.00546879
0.00546914
0.00546933
0.00546934
0.00546916
0.00546879
0.00546825
0.0054676
0.00546686
0.00546604
0.00546516
0.00546427
0.00546342
0.00546267
0.00546205
0.00546157
0.00546122
0.00546098
0.00546084
0.00546076
0.00546072
0.00546498
0.005465
0.00546507
0.0054652
0.00546542
0.00546573
0.00546615
0.00546669
0.00546732
0.005468
0.00546865
0.00546919
0.00546954
0.00546969
0.00546965
0.00546942
0.005469
0.00546842
0.00546775
0.005467
0.00546617
0.00546529
0.0054644
0.00546354
0.00546277
0.00546213
0.00546163
0.00546127
0.00546102
0.00546087
0.00546079
0.00546076
0.00546509
0.00546512
0.00546519
0.00546532
0.00546554
0.00546587
0.00546633
0.00546692
0.00546762
0.00546839
0.00546914
0.00546973
0.00547008
0.00547019
0.00547008
0.00546977
0.00546927
0.00546863
0.00546791
0.00546713
0.00546629
0.00546541
0.00546451
0.00546364
0.00546286
0.00546221
0.0054617
0.00546132
0.00546107
0.00546091
0.00546083
0.00546079
0.00546526
0.00546529
0.00546536
0.00546549
0.00546572
0.00546607
0.00546656
0.00546722
0.00546801
0.0054689
0.00546976
0.00547042
0.00547079
0.00547084
0.00547064
0.00547022
0.00546961
0.00546887
0.00546808
0.00546724
0.00546637
0.00546547
0.00546457
0.0054637
0.00546292
0.00546226
0.00546174
0.00546137
0.00546111
0.00546095
0.00546086
0.00546083
0.00546553
0.00546555
0.00546562
0.00546575
0.00546599
0.00546636
0.00546689
0.00546762
0.00546854
0.00546956
0.00547053
0.00547127
0.00547164
0.00547164
0.00547133
0.00547078
0.00547002
0.00546915
0.00546824
0.00546732
0.00546639
0.00546546
0.00546455
0.00546368
0.00546291
0.00546226
0.00546175
0.00546139
0.00546114
0.00546098
0.0054609
0.00546087
0.00546593
0.00546595
0.00546602
0.00546616
0.0054664
0.00546679
0.00546738
0.0054682
0.00546923
0.00547039
0.00547148
0.00547227
0.00547263
0.00547256
0.00547214
0.00547145
0.00547054
0.0054695
0.00546843
0.00546738
0.00546636
0.00546537
0.00546443
0.00546357
0.00546282
0.0054622
0.00546173
0.00546138
0.00546116
0.00546102
0.00546094
0.00546091
0.00546656
0.00546658
0.00546665
0.00546679
0.00546705
0.00546747
0.00546812
0.00546902
0.00547017
0.00547144
0.00547261
0.00547343
0.00547376
0.00547361
0.00547311
0.00547232
0.00547127
0.00547005
0.00546878
0.00546754
0.00546637
0.00546529
0.0054643
0.00546344
0.00546271
0.00546214
0.00546171
0.00546141
0.00546122
0.00546111
0.00546106
0.00546104
0.00546749
0.00546752
0.00546759
0.00546774
0.00546802
0.00546849
0.0054692
0.00547019
0.00547143
0.00547277
0.00547397
0.00547478
0.00547507
0.00547488
0.00547436
0.00547357
0.00547248
0.00547113
0.00546967
0.0054682
0.00546682
0.00546556
0.00546446
0.00546354
0.00546282
0.00546228
0.00546191
0.00546168
0.00546155
0.00546149
0.00546147
0.00546147
0.0054688
0.00546883
0.00546891
0.00546908
0.0054694
0.00546992
0.0054707
0.00547176
0.00547306
0.00547442
0.0054756
0.00547637
0.00547666
0.00547655
0.00547619
0.00547561
0.00547472
0.00547348
0.00547199
0.00547037
0.00546874
0.00546722
0.00546588
0.00546477
0.00546393
0.00546335
0.005463
0.00546282
0.00546276
0.00546277
0.0054628
0.00546282
0.00547044
0.00547048
0.00547058
0.00547078
0.00547114
0.00547173
0.00547258
0.00547372
0.00547505
0.0054764
0.00547755
0.00547834
0.00547876
0.00547895
0.00547903
0.005479
0.00547873
0.00547805
0.00547697
0.00547558
0.005474
0.00547234
0.00547073
0.00546929
0.00546811
0.00546725
0.0054667
0.00546641
0.00546632
0.00546633
0.00546638
0.00546641
0.00547227
0.00547231
0.00547242
0.00547265
0.00547307
0.00547372
0.00547465
0.00547585
0.00547722
0.0054786
0.0054798
0.00548076
0.00548154
0.00548227
0.00548304
0.00548385
0.00548455
0.00548488
0.00548477
0.00548425
0.00548336
0.00548216
0.00548075
0.00547925
0.0054778
0.0054765
0.00547547
0.00547474
0.00547431
0.00547409
0.00547402
0.00547401
0.00547398
0.00547402
0.00547413
0.00547437
0.00547479
0.00547546
0.00547642
0.00547764
0.00547907
0.00548056
0.00548198
0.00548329
0.00548452
0.00548579
0.00548714
0.00548859
0.00548997
0.00549109
0.00549189
0.00549239
0.00549258
0.00549244
0.00549196
0.0054912
0.00549019
0.00548907
0.00548796
0.00548697
0.00548622
0.00548572
0.00548545
0.00548535
0.00547529
0.00547533
0.00547543
0.00547565
0.00547605
0.00547667
0.00547758
0.00547877
0.0054802
0.00548177
0.00548336
0.00548488
0.00548633
0.00548774
0.00548913
0.00549045
0.00549161
0.00549258
0.00549346
0.0054943
0.00549506
0.0054957
0.00549617
0.00549643
0.00549645
0.00549624
0.00549586
0.00549538
0.00549491
0.00549453
0.00549429
0.00549418
0.00547615
0.00547618
0.00547627
0.00547646
0.00547681
0.00547736
0.00547817
0.00547927
0.00548062
0.00548215
0.00548375
0.0054853
0.00548674
0.00548804
0.00548916
0.00549004
0.00549065
0.00549114
0.00549175
0.00549253
0.00549343
0.00549436
0.00549523
0.00549597
0.00549655
0.00549695
0.00549718
0.00549725
0.00549723
0.00549716
0.00549709
0.00549705
0.00547666
0.00547669
0.00547677
0.00547694
0.00547723
0.00547771
0.00547842
0.00547939
0.00548061
0.00548203
0.00548354
0.00548503
0.00548639
0.00548755
0.00548844
0.00548901
0.00548928
0.00548951
0.00548996
0.00549073
0.00549177
0.00549294
0.00549412
0.00549519
0.00549606
0.00549671
0.00549716
0.00549743
0.00549758
0.00549764
0.00549765
0.00549765
0.00547696
0.00547698
0.00547706
0.0054772
0.00547745
0.00547786
0.00547846
0.0054793
0.00548038
0.00548165
0.00548303
0.00548441
0.00548567
0.00548672
0.00548749
0.00548793
0.0054881
0.00548826
0.00548866
0.00548941
0.00549048
0.00549178
0.00549317
0.00549449
0.00549562
0.00549651
0.00549714
0.00549755
0.00549778
0.00549789
0.00549793
0.00549794
0.00547714
0.00547716
0.00547722
0.00547734
0.00547756
0.0054779
0.00547841
0.00547913
0.00548006
0.00548117
0.00548239
0.00548364
0.0054848
0.00548578
0.00548651
0.00548696
0.0054872
0.00548745
0.00548791
0.00548866
0.00548973
0.00549104
0.00549249
0.00549394
0.00549525
0.00549632
0.00549712
0.00549765
0.00549797
0.00549812
0.00549818
0.0054982
0.0054773
0.00547732
0.00547736
0.00547746
0.00547763
0.00547791
0.00547834
0.00547894
0.00547973
0.00548068
0.00548175
0.00548287
0.00548394
0.00548488
0.00548565
0.00548622
0.00548664
0.00548707
0.00548764
0.00548843
0.00548948
0.00549074
0.00549216
0.00549362
0.005495
0.00549619
0.00549711
0.00549775
0.00549814
0.00549835
0.00549843
0.00549845
0.00547756
0.00547757
0.00547758
0.00547764
0.00547775
0.00547797
0.00547831
0.00547881
0.00547948
0.0054803
0.00548125
0.00548227
0.00548328
0.00548424
0.0054851
0.00548585
0.00548651
0.00548714
0.00548782
0.00548865
0.00548965
0.00549084
0.00549216
0.00549355
0.00549491
0.00549612
0.00549712
0.00549784
0.00549831
0.00549856
0.00549866
0.00549868
0.00547804
0.00547803
0.005478
0.005478
0.00547805
0.00547819
0.00547845
0.00547887
0.00547945
0.00548019
0.00548106
0.00548203
0.00548305
0.00548406
0.00548504
0.00548598
0.00548685
0.00548765
0.00548842
0.00548924
0.00549018
0.00549125
0.00549244
0.00549371
0.00549497
0.00549615
0.00549716
0.00549794
0.00549846
0.00549875
0.00549887
0.0054989
0.00547885
0.0054788
0.00547873
0.00547866
0.00547864
0.00547872
0.00547892
0.00547929
0.00547984
0.00548055
0.00548141
0.00548238
0.00548343
0.00548451
0.00548559
0.00548667
0.00548769
0.00548857
0.00548937
0.00549016
0.005491
0.00549193
0.00549296
0.00549406
0.00549519
0.00549628
0.00549726
0.00549804
0.00549859
0.00549892
0.00549907
0.00549911
0.00548004
0.00547997
0.00547985
0.00547973
0.00547967
0.00547972
0.00547992
0.00548029
0.00548085
0.00548159
0.00548247
0.00548346
0.00548453
0.00548564
0.00548677
0.0054879
0.00548895
0.00548985
0.00549062
0.00549133
0.00549205
0.00549283
0.00549368
0.0054946
0.00549556
0.00549652
0.00549741
0.00549817
0.00549873
0.00549908
0.00549924
0.00549929
0.00548166
0.00548156
0.00548141
0.0054813
0.00548127
0.00548136
0.00548161
0.00548204
0.00548264
0.0054834
0.00548428
0.00548526
0.00548631
0.00548738
0.00548846
0.00548954
0.00549054
0.00549138
0.00549206
0.00549267
0.00549327
0.00549389
0.00549456
0.00549529
0.00549607
0.00549687
0.00549764
0.00549833
0.00549887
0.00549922
0.0054994
0.00549945
0.00548373
0.00548361
0.00548349
0.00548345
0.00548352
0.00548373
0.00548407
0.00548455
0.00548518
0.00548592
0.00548675
0.00548766
0.0054886
0.00548956
0.00549051
0.00549146
0.00549233
0.00549304
0.00549361
0.00549411
0.00549457
0.00549505
0.00549555
0.0054961
0.00549669
0.00549732
0.00549794
0.00549853
0.00549902
0.00549936
0.00549954
0.0054996
0.00548627
0.00548615
0.00548613
0.00548624
0.00548647
0.0054868
0.00548721
0.00548771
0.0054883
0.00548895
0.00548967
0.00549042
0.0054912
0.00549198
0.00549275
0.0054935
0.00549419
0.00549475
0.00549519
0.00549556
0.0054959
0.00549625
0.0054966
0.00549699
0.00549741
0.00549786
0.00549833
0.00549879
0.00549919
0.00549949
0.00549966
0.00549972
0.00548933
0.00548929
0.00548943
0.0054897
0.00549004
0.00549042
0.00549082
0.00549126
0.00549173
0.00549223
0.00549277
0.00549332
0.00549388
0.00549444
0.00549499
0.00549553
0.00549601
0.0054964
0.00549671
0.00549696
0.0054972
0.00549742
0.00549765
0.0054979
0.00549817
0.00549847
0.00549878
0.00549909
0.00549939
0.00549962
0.00549977
0.00549982
0.00549305
0.00549314
0.0054934
0.0054937
0.00549401
0.00549431
0.0054946
0.00549489
0.00549519
0.0054955
0.00549582
0.00549615
0.00549648
0.00549681
0.00549713
0.00549744
0.00549773
0.00549795
0.00549813
0.00549827
0.0054984
0.00549853
0.00549865
0.00549879
0.00549894
0.00549909
0.00549927
0.00549944
0.00549962
0.00549977
0.00549986
0.00549991
0.00549757
0.00549764
0.00549777
0.0054979
0.00549802
0.00549814
0.00549824
0.00549835
0.00549845
0.00549855
0.00549866
0.00549876
0.00549887
0.00549898
0.00549908
0.00549918
0.00549927
0.00549935
0.0054994
0.00549945
0.00549949
0.00549953
0.00549957
0.00549961
0.00549966
0.00549971
0.00549976
0.00549981
0.00549987
0.00549992
0.00549995
0.00549997
)
;

boundaryField
{
    movingWall
    {
        type            fixedValue;
        value           uniform 0.0055;
    }
    fixedWalls
    {
        type            zeroGradient;
    }
    floor
    {
        type            zeroGradient;
    }
    frontAndBack
    {
        type            empty;
    }
}


// ************************************************************************* //
