/*--------------------------------*- C++ -*----------------------------------*\
| =========                 |                                                 |
| \\      /  F ield         | OpenFOAM: The Open Source CFD Toolbox           |
|  \\    /   O peration     | Version:  2212                                  |
|   \\  /    A nd           | Website:  www.openfoam.com                      |
|    \\/     M anipulation  |                                                 |
\*---------------------------------------------------------------------------*/
FoamFile
{
    version     2.0;
    format      ascii;
    arch        "LSB;label=64;scalar=64";
    class       volScalarField;
    location    "1450";
    object      Sch4;
}
// * * * * * * * * * * * * * * * * * * * * * * * * * * * * * * * * * * * * * //

dimensions      [1 -3 0 0 0 0 0];

internalField   nonuniform List<scalar> 
1024
(
0.0351928
0.0352018
0.0352239
0.035264
0.0353277
0.0354201
0.035544
0.0356984
0.035877
0.0360685
0.0362576
0.0364278
0.0365656
0.036661
0.0367058
0.0366912
0.0366063
0.0364561
0.0362582
0.0360211
0.0357547
0.0354735
0.0351962
0.0349408
0.0347209
0.0345432
0.034408
0.0343111
0.0342458
0.0342053
0.0341832
0.0341742
0.0351955
0.0352046
0.035227
0.0352677
0.0353324
0.0354262
0.0355517
0.0357079
0.0358883
0.0360811
0.0362712
0.0364417
0.0365792
0.0366739
0.0367179
0.0367026
0.0366172
0.0364668
0.036269
0.0360321
0.0357657
0.0354843
0.0352061
0.0349495
0.034728
0.0345487
0.0344121
0.0343141
0.0342481
0.0342072
0.0341848
0.0341757
0.0352019
0.0352112
0.0352342
0.035276
0.0353426
0.0354391
0.0355681
0.0357283
0.0359129
0.0361102
0.0363042
0.0364767
0.0366137
0.0367064
0.0367477
0.03673
0.0366427
0.0364911
0.0362927
0.0360557
0.0357894
0.0355073
0.0352275
0.0349681
0.0347433
0.0345607
0.0344212
0.0343209
0.0342534
0.0342115
0.0341887
0.0341794
0.0352135
0.035223
0.0352467
0.03529
0.0353592
0.0354595
0.0355938
0.0357608
0.0359537
0.0361605
0.0363637
0.0365415
0.0366787
0.0367675
0.0368031
0.0367795
0.0366873
0.0365319
0.0363311
0.036093
0.035826
0.0355429
0.0352605
0.0349972
0.0347675
0.0345798
0.0344359
0.0343321
0.0342623
0.034219
0.0341953
0.0341858
0.0352318
0.0352415
0.0352658
0.0353108
0.0353829
0.0354881
0.0356299
0.0358073
0.0360142
0.036238
0.036458
0.0366466
0.0367853
0.0368679
0.0368933
0.0368586
0.0367563
0.0365925
0.0363856
0.0361438
0.0358747
0.0355895
0.0353038
0.0350355
0.0347996
0.0346056
0.034456
0.0343479
0.034275
0.0342299
0.0342053
0.0341953
0.0352593
0.0352691
0.0352938
0.0353402
0.0354154
0.0355265
0.0356781
0.0358706
0.0360987
0.0363489
0.0365956
0.0368022
0.036945
0.0370193
0.0370289
0.0369761
0.0368561
0.0366764
0.036457
0.0362066
0.0359323
0.0356432
0.0353533
0.0350794
0.0348368
0.034636
0.0344803
0.0343675
0.0342913
0.0342441
0.0342185
0.0342082
0.0352998
0.0353094
0.0353343
0.0353817
0.0354601
0.0355779
0.0357419
0.0359547
0.0362124
0.0364997
0.0367837
0.0370169
0.0371676
0.0372318
0.0372201
0.0371409
0.0369934
0.0367872
0.0365456
0.036279
0.0359939
0.0356977
0.0354021
0.0351225
0.0348737
0.0346668
0.0345058
0.0343889
0.0343099
0.0342611
0.0342347
0.0342241
0.0353601
0.0353694
0.035394
0.0354421
0.0355236
0.0356491
0.0358281
0.0360667
0.0363625
0.0366973
0.0370285
0.0372958
0.0374585
0.037512
0.0374742
0.037361
0.0371749
0.0369291
0.036652
0.0363578
0.0360536
0.0357451
0.0354415
0.0351561
0.0349028
0.0346921
0.0345282
0.0344093
0.0343292
0.0342799
0.0342533
0.0342427
0.0354518
0.0354605
0.0354847
0.0355335
0.0356183
0.0357525
0.0359495
0.0362189
0.0365602
0.0369505
0.0373355
0.0376416
0.0378187
0.0378618
0.0377959
0.0376433
0.0374089
0.0371088
0.0367797
0.0364427
0.0361074
0.0357786
0.0354632
0.0351721
0.0349169
0.0347064
0.0345438
0.0344267
0.0343485
0.0343008
0.0342753
0.0342653
0.0355936
0.035602
0.035626
0.0356758
0.035765
0.0359099
0.0361279
0.0364327
0.0368241
0.0372732
0.0377128
0.0380569
0.0382478
0.0382815
0.0381898
0.0379989
0.0377112
0.0373442
0.0369447
0.0365457
0.0361629
0.0358019
0.0354683
0.0351701
0.0349155
0.0347101
0.0345546
0.0344449
0.0343731
0.0343304
0.0343084
0.0342999
0.0358127
0.0358212
0.035846
0.0358987
0.0359948
0.0361538
0.0363968
0.0367401
0.0371825
0.0376868
0.0381738
0.0385484
0.0387499
0.0387786
0.0386727
0.0384574
0.0381247
0.0376877
0.037203
0.0367199
0.0362669
0.0358546
0.0354896
0.0351776
0.0349229
0.0347261
0.0345836
0.0344879
0.0344291
0.034397
0.0343822
0.0343774
0.0361411
0.0361505
0.0361781
0.0362367
0.036344
0.0365223
0.0367949
0.0371787
0.0376684
0.0382175
0.0387379
0.0391316
0.0393432
0.0393827
0.0392935
0.0390938
0.0387566
0.0382776
0.0377151
0.0371328
0.0365807
0.0360839
0.035657
0.0353081
0.0350394
0.0348464
0.0347188
0.0346434
0.0346059
0.0345923
0.034591
0.0345931
0.0366025
0.036614
0.0366468
0.0367154
0.0368395
0.0370432
0.0373505
0.0377759
0.0383071
0.0388883
0.0394274
0.0398344
0.0400713
0.0401633
0.0401565
0.0400586
0.039818
0.0393961
0.038832
0.0381902
0.0375353
0.0369163
0.0363718
0.0359263
0.0355943
0.0353709
0.0352399
0.0351794
0.0351653
0.0351756
0.0351926
0.0352044
0.0371914
0.0372058
0.0372462
0.0373291
0.0374766
0.037714
0.0380641
0.0385353
0.0391052
0.0397104
0.0402641
0.0406994
0.0410074
0.0412301
0.0414116
0.0415532
0.0415854
0.0414234
0.0410595
0.0405344
0.0399022
0.0392227
0.0385539
0.0379493
0.037457
0.037097
0.0368693
0.0367544
0.036719
0.0367268
0.0367488
0.0367652
0.0378498
0.0378673
0.037916
0.0380153
0.0381897
0.0384649
0.0388601
0.0393757
0.0399807
0.040613
0.0412046
0.0417192
0.0421723
0.0426117
0.043077
0.0435754
0.0440388
0.044346
0.0444431
0.044333
0.0440315
0.0435685
0.0429891
0.0423527
0.0417229
0.0411567
0.0407012
0.0403799
0.0401863
0.0400911
0.0400579
0.0400536
0.0384614
0.0384799
0.0385315
0.0386367
0.0388204
0.0391083
0.0395189
0.0400525
0.0406834
0.0413623
0.0420358
0.0426767
0.0432989
0.0439415
0.0446372
0.0454013
0.0461841
0.0468841
0.047454
0.0478785
0.048135
0.0482061
0.0480883
0.0477968
0.0473681
0.0468611
0.0463445
0.0458834
0.0455248
0.0452866
0.0451577
0.0451092
0.0389073
0.038925
0.0389739
0.0390728
0.0392452
0.0395162
0.0399059
0.0404201
0.0410424
0.0417339
0.0424459
0.0431422
0.0438152
0.0444781
0.045144
0.0458215
0.0464944
0.0471602
0.0478428
0.0485345
0.0491915
0.0497611
0.0501979
0.0504717
0.0505722
0.050513
0.0503308
0.0500811
0.0498262
0.0496182
0.0494838
0.0494239
0.0391641
0.0391807
0.0392252
0.0393134
0.0394657
0.0397052
0.0400521
0.0405166
0.0410904
0.0417429
0.0424275
0.0430973
0.0437206
0.0442823
0.0447736
0.0451924
0.0455546
0.0459639
0.0465259
0.0472514
0.0480828
0.0489357
0.0497279
0.050396
0.0509022
0.0512355
0.051409
0.0514551
0.051419
0.0513494
0.0512863
0.051252
0.0392868
0.0393024
0.0393427
0.0394205
0.0395527
0.039759
0.0400584
0.0404631
0.0409703
0.0415572
0.0421818
0.0427932
0.0433459
0.0438069
0.0441544
0.0443836
0.0445347
0.0447635
0.0452118
0.0459193
0.0468447
0.0478941
0.0489525
0.0499148
0.050706
0.0512925
0.051678
0.0518927
0.0519821
0.0519963
0.0519797
0.0519638
0.0393297
0.0393441
0.0393804
0.0394488
0.0395629
0.0397392
0.0399941
0.0403399
0.040777
0.041289
0.0418408
0.0423844
0.0428713
0.043262
0.0435312
0.0436773
0.0437563
0.0439284
0.0443211
0.0449869
0.0459141
0.0470373
0.048249
0.0494259
0.0504558
0.0512683
0.0518416
0.0521953
0.0523762
0.0524423
0.0524496
0.0524408
0.0393389
0.039351
0.0393816
0.0394395
0.039536
0.0396848
0.0398999
0.0401918
0.0405625
0.0410003
0.0414774
0.0419541
0.0423871
0.0427398
0.0429907
0.0431455
0.0432652
0.0434815
0.0438871
0.0445314
0.0454224
0.0465283
0.0477734
0.0490478
0.0502276
0.0512128
0.05195
0.0524362
0.0527084
0.0528263
0.0528554
0.0528517
0.0393691
0.0393765
0.0393969
0.0394388
0.0395132
0.0396326
0.0398092
0.0400521
0.0403634
0.0407349
0.0411468
0.0415693
0.0419694
0.0423195
0.0426055
0.0428405
0.0430764
0.0433961
0.0438558
0.0444995
0.0453478
0.0463926
0.0475906
0.0488604
0.0500934
0.05118
0.0520393
0.0526397
0.0529988
0.0531699
0.0532226
0.0532244
0.0394894
0.0394879
0.0394905
0.0395067
0.039549
0.0396318
0.0397677
0.0399659
0.040229
0.040552
0.0409219
0.0413189
0.0417205
0.0421081
0.0424743
0.0428356
0.0432224
0.0436619
0.0441819
0.0448243
0.04562
0.046581
0.0476877
0.0488839
0.0500867
0.0511993
0.0521292
0.052817
0.0532539
0.053478
0.0535564
0.0535646
0.0397761
0.0397608
0.0397366
0.0397158
0.0397156
0.0397548
0.0398503
0.0400133
0.0402484
0.040553
0.0409183
0.0413303
0.041773
0.0422326
0.0427044
0.0432033
0.0437325
0.0442715
0.0448311
0.0454552
0.0461818
0.0470371
0.0480214
0.0491024
0.050219
0.0512931
0.0522384
0.0529795
0.0534795
0.0537536
0.0538592
0.0538749
0.0402985
0.0402646
0.0402068
0.0401437
0.0400999
0.0401008
0.040169
0.0403197
0.0405589
0.0408833
0.0412836
0.041746
0.042255
0.0427976
0.0433681
0.0439772
0.0446045
0.0451984
0.0457627
0.0463445
0.0469856
0.0477194
0.0485602
0.0494959
0.0504875
0.0514756
0.0523858
0.0531405
0.0536823
0.0539996
0.0541328
0.0541572
0.0411068
0.041051
0.0409605
0.0408653
0.0407981
0.0407889
0.0408628
0.0410371
0.0413151
0.0416892
0.0421454
0.0426668
0.043236
0.0438391
0.0444686
0.0451317
0.0457935
0.0463892
0.0469216
0.0474387
0.0479828
0.0485884
0.0492769
0.0500505
0.0508898
0.0517553
0.0525879
0.0533157
0.0538713
0.0542197
0.0543784
0.0544129
0.0422298
0.0421527
0.0420443
0.0419502
0.0419057
0.0419355
0.0420591
0.0422896
0.0426239
0.0430492
0.0435483
0.0441022
0.0446932
0.0453075
0.0459375
0.046588
0.04722
0.0477692
0.0482396
0.0486766
0.0491192
0.0495988
0.0501382
0.0507473
0.0514209
0.0521378
0.0528578
0.0535206
0.0540578
0.0544188
0.0545978
0.0546427
0.0436842
0.0435937
0.0435021
0.043464
0.0435003
0.0436164
0.0438182
0.0441105
0.0444849
0.0449292
0.0454275
0.0459628
0.0465199
0.0470874
0.0476588
0.0482377
0.0487885
0.0492557
0.0496445
0.049994
0.0503369
0.0506994
0.0511017
0.0515562
0.0520657
0.0526224
0.0532042
0.0537683
0.0542541
0.0546041
0.054793
0.0548474
0.0454922
0.0454097
0.0453889
0.045462
0.0456138
0.0458256
0.0460919
0.0464122
0.0467806
0.0471908
0.0476324
0.0480939
0.0485642
0.0490353
0.0495025
0.0499686
0.0504052
0.0507698
0.0510675
0.0513287
0.0515786
0.0518369
0.0521195
0.0524375
0.0527966
0.0531965
0.0536287
0.0540687
0.0544718
0.0547837
0.0549672
0.0550277
0.0477014
0.047669
0.0477691
0.0479607
0.0481962
0.0484525
0.0487242
0.0490125
0.0493183
0.0496418
0.0499793
0.0503246
0.0506712
0.0510143
0.0513507
0.0516827
0.0519904
0.0522449
0.0524501
0.0526273
0.0527934
0.0529619
0.0531438
0.0533471
0.0535769
0.0538357
0.054122
0.0544257
0.054721
0.054967
0.0551252
0.0551846
0.050403
0.0504674
0.0506575
0.050873
0.0510888
0.051297
0.0514974
0.0516942
0.0518916
0.0520931
0.0522987
0.0525062
0.0527126
0.0529154
0.0531129
0.0533063
0.0534845
0.0536311
0.0537485
0.0538487
0.0539414
0.0540342
0.0541331
0.0542429
0.0543667
0.0545065
0.054663
0.0548337
0.0550077
0.0551632
0.0552732
0.0553203
0.053709
0.0537598
0.0538578
0.0539518
0.0540388
0.0541187
0.0541921
0.0542614
0.0543288
0.0543962
0.0544641
0.0545322
0.0545996
0.0546656
0.0547296
0.054792
0.0548494
0.0548965
0.0549341
0.054966
0.0549953
0.0550244
0.0550552
0.0550893
0.0551275
0.0551705
0.0552189
0.055272
0.0553275
0.0553795
0.0554193
0.0554385
)
;

boundaryField
{
    movingWall
    {
        type            fixedValue;
        value           uniform 0.0555;
    }
    fixedWalls
    {
        type            zeroGradient;
    }
    floor
    {
        type            zeroGradient;
    }
    frontAndBack
    {
        type            empty;
    }
}


// ************************************************************************* //
