/*--------------------------------*- C++ -*----------------------------------*\
| =========                 |                                                 |
| \\      /  F ield         | OpenFOAM: The Open Source CFD Toolbox           |
|  \\    /   O peration     | Version:  2212                                  |
|   \\  /    A nd           | Website:  www.openfoam.com                      |
|    \\/     M anipulation  |                                                 |
\*---------------------------------------------------------------------------*/
FoamFile
{
    version     2.0;
    format      ascii;
    arch        "LSB;label=64;scalar=64";
    class       volVectorField;
    location    "1450";
    object      U;
}
// * * * * * * * * * * * * * * * * * * * * * * * * * * * * * * * * * * * * * //

dimensions      [0 1 -1 0 0 0 0];

internalField   nonuniform List<vector> 
1024
(
(5.1781e-06 -5.46919e-06 0)
(-3.70101e-05 1.00699e-05 0)
(-0.000170002 2.59576e-05 0)
(-0.000388302 3.32141e-05 0)
(-0.000658909 3.34559e-05 0)
(-0.000941526 2.95207e-05 0)
(-0.00119228 2.24796e-05 0)
(-0.00135264 1.15322e-05 0)
(-0.00133211 -6.31961e-06 0)
(-0.00101091 -2.81706e-05 0)
(-0.000311438 -4.39321e-05 0)
(0.000605492 -3.61226e-05 0)
(0.00131518 -2.10187e-05 0)
(0.00177265 -8.02986e-06 0)
(0.00198833 -1.61334e-06 0)
(0.00205636 1.02418e-06 0)
(0.00202751 2.69688e-06 0)
(0.0019091 5.54311e-06 0)
(0.00170616 8.06902e-06 0)
(0.00146385 9.07426e-06 0)
(0.00122583 9.078e-06 0)
(0.001012 8.6043e-06 0)
(0.000827488 7.96172e-06 0)
(0.000670131 7.40888e-06 0)
(0.000532869 7.38852e-06 0)
(0.000406857 8.11646e-06 0)
(0.000286804 9.30409e-06 0)
(0.000175383 9.88689e-06 0)
(8.28857e-05 8.46073e-06 0)
(2.08379e-05 4.28527e-06 0)
(-5.75136e-06 -1.48318e-06 0)
(-4.87583e-06 -4.91102e-06 0)
(-1.14798e-05 3.75942e-05 0)
(-0.000177306 0.000169133 0)
(-0.000547324 0.000288795 0)
(-0.00111128 0.000348156 0)
(-0.00179482 0.000344023 0)
(-0.00249643 0.000290495 0)
(-0.00309463 0.00019797 0)
(-0.003434 6.70083e-05 0)
(-0.00330197 -0.000109705 0)
(-0.0024429 -0.000306823 0)
(-0.000687829 -0.000442828 0)
(0.00163916 -0.000387053 0)
(0.00347306 -0.000242638 0)
(0.00474348 -0.000120052 0)
(0.00543162 -4.50853e-05 0)
(0.0057247 -6.46008e-06 0)
(0.00572853 1.99089e-05 0)
(0.00547071 5.17519e-05 0)
(0.00496992 8.22352e-05 0)
(0.0043386 0.000100821 0)
(0.00369097 0.000108722 0)
(0.00308732 0.000110285 0)
(0.00254907 0.00010901 0)
(0.00207636 0.000108079 0)
(0.00165586 0.000111042 0)
(0.00126993 0.000119004 0)
(0.000909491 0.00012806 0)
(0.000583211 0.000128846 0)
(0.000314589 0.000111519 0)
(0.000126986 7.35868e-05 0)
(2.77152e-05 2.59981e-05 0)
(-1.59545e-06 -6.14087e-06 0)
(-3.1269e-05 0.000184869 0)
(-0.000325959 0.000552154 0)
(-0.000901915 0.00084139 0)
(-0.00173442 0.000976947 0)
(-0.00271587 0.000948009 0)
(-0.00369905 0.000780971 0)
(-0.00450097 0.000502841 0)
(-0.00489383 0.000124875 0)
(-0.00458424 -0.000355019 0)
(-0.00327847 -0.000869151 0)
(-0.000781189 -0.00122273 0)
(0.00249016 -0.00108343 0)
(0.00514849 -0.000703895 0)
(0.00712604 -0.000377963 0)
(0.00833264 -0.000164787 0)
(0.00895925 -4.46489e-05 0)
(0.00910945 3.96725e-05 0)
(0.00882642 0.000134677 0)
(0.00814722 0.00022725 0)
(0.00723111 0.000290109 0)
(0.00624659 0.000323709 0)
(0.00529316 0.000338407 0)
(0.00441419 0.000343683 0)
(0.00361975 0.000348442 0)
(0.00289938 0.000361463 0)
(0.00223586 0.000384703 0)
(0.00162206 0.000407119 0)
(0.00107203 0.000405111 0)
(0.000616453 0.000355854 0)
(0.000284628 0.000255438 0)
(8.76065e-05 0.000128494 0)
(5.18341e-06 2.26613e-05 0)
(-4.35186e-05 0.000446333 0)
(-0.000424017 0.00118223 0)
(-0.00113483 0.00170276 0)
(-0.00213271 0.0019236 0)
(-0.00328204 0.00183373 0)
(-0.00440367 0.00147553 0)
(-0.00527384 0.000899953 0)
(-0.00561938 0.000140171 0)
(-0.00509909 -0.000783406 0)
(-0.00346939 -0.00173327 0)
(-0.000560934 -0.00236593 0)
(0.00308984 -0.00211281 0)
(0.00621176 -0.00142559 0)
(0.00870955 -0.000819723 0)
(0.0104151 -0.000400286 0)
(0.0114581 -0.000144969 0)
(0.0118824 4.02452e-05 0)
(0.0117105 0.00024023 0)
(0.0109997 0.000436969 0)
(0.00993697 0.000580971 0)
(0.00872744 0.000669509 0)
(0.00750301 0.000719892 0)
(0.00633034 0.000749527 0)
(0.00523567 0.000775112 0)
(0.00422043 0.000811874 0)
(0.00327677 0.00086229 0)
(0.00240464 0.000905535 0)
(0.00162319 0.000899312 0)
(0.000967322 0.000803287 0)
(0.000472452 0.000609211 0)
(0.000159629 0.000353467 0)
(1.29647e-05 0.000102265 0)
(-4.49444e-05 0.00079349 0)
(-0.000439844 0.00200513 0)
(-0.00117644 0.00280711 0)
(-0.00220661 0.00311529 0)
(-0.00338326 0.00292641 0)
(-0.00451044 0.00230381 0)
(-0.00534232 0.00133031 0)
(-0.00558158 7.5544e-05 0)
(-0.00487082 -0.00140238 0)
(-0.0030723 -0.00285179 0)
(-8.14085e-05 -0.00375346 0)
(0.0034196 -0.00336639 0)
(0.00662611 -0.0023647 0)
(0.00937654 -0.00144789 0)
(0.0114597 -0.000780321 0)
(0.0129261 -0.000345292 0)
(0.013732 -1.50941e-05 0)
(0.0138093 0.000335364 0)
(0.0132224 0.000682294 0)
(0.0121689 0.000951247 0)
(0.0108758 0.00113457 0)
(0.00949696 0.00125649 0)
(0.00811818 0.00134264 0)
(0.00678359 0.0014177 0)
(0.00551218 0.00150281 0)
(0.00431215 0.00160013 0)
(0.00319543 0.00167764 0)
(0.00218828 0.00167148 0)
(0.00133085 0.00151818 0)
(0.000667517 0.00119707 0)
(0.000233818 0.00074814 0)
(2.07697e-05 0.000251693 0)
(-3.56523e-05 0.00116402 0)
(-0.000368672 0.00289768 0)
(-0.00101019 0.00401742 0)
(-0.00192931 0.00442721 0)
(-0.00299465 0.004124 0)
(-0.00401312 0.00318915 0)
(-0.00473248 0.00174193 0)
(-0.00484962 -9.74811e-05 0)
(-0.00403338 -0.00218893 0)
(-0.00223543 -0.00414217 0)
(0.000528016 -0.00523393 0)
(0.00351202 -0.00470546 0)
(0.00645487 -0.00343699 0)
(0.00914221 -0.00222734 0)
(0.0113762 -0.0013091 0)
(0.0131568 -0.000676142 0)
(0.0143605 -0.000170537 0)
(0.0148114 0.000373979 0)
(0.0144906 0.000919472 0)
(0.0135964 0.00136105 0)
(0.0123695 0.00168631 0)
(0.010976 0.001927 0)
(0.00951269 0.00211627 0)
(0.00803797 0.00228511 0)
(0.00658888 0.00245812 0)
(0.00519235 0.00263503 0)
(0.00387618 0.00277089 0)
(0.0026778 0.0027771 0)
(0.00164605 0.00255961 0)
(0.000836139 0.00207381 0)
(0.00029769 0.0013526 0)
(2.75404e-05 0.000487084 0)
(-1.9458e-05 0.00147597 0)
(-0.000234674 0.00368718 0)
(-0.000683703 0.0051347 0)
(-0.00136899 0.00568133 0)
(-0.00220339 0.00529374 0)
(-0.00302306 0.00405011 0)
(-0.00358944 0.00210098 0)
(-0.00360128 -0.000367081 0)
(-0.00278006 -0.00308294 0)
(-0.00114856 -0.00548709 0)
(0.00111507 -0.00664918 0)
(0.00340327 -0.00599115 0)
(0.00580549 -0.00452581 0)
(0.008123 -0.00307981 0)
(0.0102199 -0.00195031 0)
(0.0120941 -0.00114082 0)
(0.0135925 -0.000463954 0)
(0.0144797 0.000303727 0)
(0.0145287 0.00109457 0)
(0.0139141 0.00175588 0)
(0.0128875 0.00227173 0)
(0.0116195 0.00268406 0)
(0.0102084 0.00303288 0)
(0.00872006 0.00335278 0)
(0.00720539 0.00366776 0)
(0.00570912 0.00397086 0)
(0.00427699 0.00419981 0)
(0.00296187 0.00423599 0)
(0.00182444 0.00394702 0)
(0.000929047 0.00325442 0)
(0.000332227 0.00217582 0)
(3.12657e-05 0.000811453 0)
(-2.61952e-06 0.00165555 0)
(-8.31068e-05 0.00420087 0)
(-0.000295485 0.00593903 0)
(-0.000674663 0.00666469 0)
(-0.00119385 0.00627175 0)
(-0.00174422 0.00479399 0)
(-0.00212524 0.00238976 0)
(-0.00205798 -0.000681879 0)
(-0.00132687 -0.00399381 0)
(-2.19181e-06 -0.00674006 0)
(0.00154104 -0.0078371 0)
(0.00308216 -0.00708744 0)
(0.00474815 -0.00549144 0)
(0.00644598 -0.00388867 0)
(0.00812523 -0.00262234 0)
(0.0098159 -0.00170118 0)
(0.0114042 -0.000908242 0)
(0.0126713 7.74935e-05 0)
(0.0131617 0.00114951 0)
(0.0129083 0.00207148 0)
(0.0121846 0.00282085 0)
(0.0111645 0.00345543 0)
(0.0099379 0.00402214 0)
(0.0085697 0.00455613 0)
(0.00711938 0.00507528 0)
(0.00564689 0.00555844 0)
(0.00421692 0.00591736 0)
(0.00290046 0.00599545 0)
(0.00177015 0.00561736 0)
(0.000892306 0.00467057 0)
(0.000316011 0.00316003 0)
(2.9389e-05 0.0011984 0)
(8.78204e-06 0.0016711 0)
(3.74156e-05 0.00433545 0)
(3.83069e-05 0.0062625 0)
(-3.58093e-05 0.0071828 0)
(-0.000210087 0.00688509 0)
(-0.000443762 0.00531158 0)
(-0.00059918 0.00258112 0)
(-0.000455707 -0.00100114 0)
(0.000105435 -0.00481978 0)
(0.000939719 -0.00767538 0)
(0.00173593 -0.00866971 0)
(0.00246777 -0.00784257 0)
(0.00326651 -0.00617404 0)
(0.00416883 -0.00450782 0)
(0.00520718 -0.00320301 0)
(0.00644655 -0.00227156 0)
(0.00786704 -0.0014691 0)
(0.00928769 -0.000349479 0)
(0.0103203 0.00101798 0)
(0.0104871 0.00223445 0)
(0.0101395 0.00324815 0)
(0.00946785 0.00414566 0)
(0.0085438 0.00498189 0)
(0.00742334 0.00578944 0)
(0.00617001 0.00657201 0)
(0.00485813 0.00728199 0)
(0.00357247 0.00779144 0)
(0.00240191 0.00789765 0)
(0.00142499 0.00738779 0)
(0.000696026 0.00613462 0)
(0.000238164 0.00415266 0)
(2.06628e-05 0.00157976 0)
(1.33703e-05 0.00154595 0)
(0.000104165 0.00410932 0)
(0.000244275 0.00606579 0)
(0.000396209 0.00710234 0)
(0.000514709 0.0069369 0)
(0.000588702 0.00540458 0)
(0.000681599 0.00253318 0)
(0.000904773 -0.00134377 0)
(0.00121196 -0.00530472 0)
(0.00148999 -0.00811954 0)
(0.00154289 -0.00898288 0)
(0.00139645 -0.00806568 0)
(0.00125122 -0.00639123 0)
(0.00126108 -0.00477141 0)
(0.00151262 -0.00354177 0)
(0.00208628 -0.00272161 0)
(0.00306622 -0.00205716 0)
(0.00439248 -0.000992939 0)
(0.0060067 0.000645905 0)
(0.00666671 0.00216926 0)
(0.0067575 0.00345231 0)
(0.00652819 0.00463333 0)
(0.00601609 0.00577452 0)
(0.00526328 0.00690176 0)
(0.00433719 0.00798974 0)
(0.00332956 0.00894486 0)
(0.00234565 0.00958294 0)
(0.001485 0.00965566 0)
(0.000816556 0.00893979 0)
(0.000364271 0.00733852 0)
(0.000111311 0.00491646 0)
(6.98012e-06 0.00185389 0)
(1.25289e-05 0.00133487 0)
(0.000118223 0.00362696 0)
(0.000310657 0.00545986 0)
(0.000569348 0.00650796 0)
(0.00085134 0.00643805 0)
(0.00112301 0.00501046 0)
(0.00138622 0.00220512 0)
(0.00161887 -0.00160232 0)
(0.00167503 -0.00541312 0)
(0.00142009 -0.00796845 0)
(0.000689 -0.00855361 0)
(-0.000392687 -0.0075147 0)
(-0.00148032 -0.00593479 0)
(-0.00236107 -0.00451829 0)
(-0.00295274 -0.00350306 0)
(-0.00317372 -0.00290982 0)
(-0.00287823 -0.00252782 0)
(-0.00195763 -0.00181611 0)
(-0.000199029 -0.000177941 0)
(0.00144014 0.00174969 0)
(0.00211495 0.00331354 0)
(0.00246581 0.004773 0)
(0.00249212 0.00622824 0)
(0.00223698 0.00769753 0)
(0.00177921 0.00909685 0)
(0.00123408 0.0102595 0)
(0.000720396 0.0109361 0)
(0.000327221 0.0108595 0)
(8.97509e-05 0.0098543 0)
(-1.02385e-05 0.00791482 0)
(-2.44937e-05 0.0051957 0)
(-6.67008e-06 0.00192152 0)
(8.5708e-06 0.00111196 0)
(9.05517e-05 0.00306782 0)
(0.000253248 0.00468197 0)
(0.000492361 0.00564686 0)
(0.00077953 0.00561648 0)
(0.00107725 0.00431774 0)
(0.00134434 0.00172123 0)
(0.00146888 -0.00173644 0)
(0.00121415 -0.00503039 0)
(0.000357391 -0.00697807 0)
(-0.00126291 -0.00707991 0)
(-0.00319057 -0.00602361 0)
(-0.00510108 -0.00472396 0)
(-0.00681327 -0.00364115 0)
(-0.00823917 -0.00295141 0)
(-0.00926925 -0.00269169 0)
(-0.00970145 -0.00270021 0)
(-0.00925494 -0.00245709 0)
(-0.00786222 -0.0014018 0)
(-0.00551926 0.000502339 0)
(-0.00377745 0.00245123 0)
(-0.00259056 0.00422872 0)
(-0.00180059 0.0060244 0)
(-0.00133874 0.00785386 0)
(-0.00112056 0.00951539 0)
(-0.00101331 0.0107635 0)
(-0.000910652 0.0113309 0)
(-0.000755102 0.0110114 0)
(-0.000543901 0.00974233 0)
(-0.000316363 0.00762582 0)
(-0.000128166 0.00487924 0)
(-1.54417e-05 0.00175388 0)
(2.5056e-06 0.000961597 0)
(3.34667e-05 0.0026641 0)
(9.98363e-05 0.0040817 0)
(0.000206254 0.00493706 0)
(0.00034393 0.00490663 0)
(0.000483424 0.00373969 0)
(0.000547415 0.00146482 0)
(0.000359938 -0.00139116 0)
(-0.000522713 -0.00383323 0)
(-0.00221805 -0.00478072 0)
(-0.00456193 -0.00446476 0)
(-0.00715672 -0.00358736 0)
(-0.00972446 -0.00268684 0)
(-0.0121259 -0.00203825 0)
(-0.0142654 -0.00178082 0)
(-0.0160031 -0.00198202 0)
(-0.0170895 -0.00254595 0)
(-0.0171191 -0.00298399 0)
(-0.0160252 -0.00273561 0)
(-0.013936 -0.00160371 0)
(-0.0110841 0.000299137 0)
(-0.00843771 0.00250727 0)
(-0.00648627 0.00462615 0)
(-0.0049405 0.00668678 0)
(-0.0037731 0.00847742 0)
(-0.00284875 0.00974942 0)
(-0.00208622 0.0102397 0)
(-0.00144004 0.00979574 0)
(-0.000893614 0.00845699 0)
(-0.000460883 0.00642679 0)
(-0.000167745 0.00398146 0)
(-1.72778e-05 0.00137883 0)
(-4.37896e-06 0.000948181 0)
(-6.06649e-05 0.00262494 0)
(-0.000174799 0.0040106 0)
(-0.000348288 0.00483604 0)
(-0.000580699 0.00482088 0)
(-0.000910709 0.0038239 0)
(-0.00148169 0.00207861 0)
(-0.00254791 0.000300702 0)
(-0.00429739 -0.00077659 0)
(-0.00676597 -0.00090731 0)
(-0.00963146 -0.000499502 0)
(-0.0125825 -2.3592e-05 0)
(-0.0154295 0.000276342 0)
(-0.0180697 0.000294734 0)
(-0.0204315 -4.7353e-05 0)
(-0.0224176 -0.000822565 0)
(-0.0238591 -0.0020365 0)
(-0.0242397 -0.00331952 0)
(-0.0234836 -0.00412449 0)
(-0.0216773 -0.00421624 0)
(-0.0189581 -0.00345995 0)
(-0.0155711 -0.00178191 0)
(-0.0118917 0.000700984 0)
(-0.00853818 0.00340044 0)
(-0.00584364 0.0055696 0)
(-0.00378775 0.0070197 0)
(-0.00231452 0.00767738 0)
(-0.00132983 0.00743225 0)
(-0.000692391 0.00637498 0)
(-0.000299441 0.00476355 0)
(-8.95477e-05 0.00288584 0)
(-6.81108e-06 0.000971968 0)
(-2.01009e-05 0.0013708 0)
(-0.000202705 0.0037358 0)
(-0.000573 0.00566149 0)
(-0.00114768 0.00688904 0)
(-0.00192875 0.00725205 0)
(-0.00295765 0.00682328 0)
(-0.00434181 0.00597969 0)
(-0.00618756 0.00520559 0)
(-0.00847002 0.00473167 0)
(-0.0110307 0.00447527 0)
(-0.0137089 0.00427532 0)
(-0.0164177 0.00401641 0)
(-0.0191082 0.00361376 0)
(-0.0217267 0.00298438 0)
(-0.0241838 0.00202597 0)
(-0.0263032 0.000614989 0)
(-0.0277617 -0.00134989 0)
(-0.0282839 -0.0035502 0)
(-0.0278518 -0.00552544 0)
(-0.0265042 -0.00707458 0)
(-0.0242855 -0.00804543 0)
(-0.0212873 -0.00827579 0)
(-0.0176708 -0.00758535 0)
(-0.0137051 -0.0058462 0)
(-0.00972791 -0.00306163 0)
(-0.00621973 0.000157219 0)
(-0.00349214 0.00291577 0)
(-0.00164951 0.00447222 0)
(-0.000617193 0.00463732 0)
(-0.000142275 0.00392583 0)
(5.26915e-06 0.00263532 0)
(1.17122e-05 0.000986869 0)
(-1.9959e-05 0.00221231 0)
(-0.000217688 0.00595404 0)
(-0.000630344 0.00898589 0)
(-0.001291 0.0110394 0)
(-0.0022065 0.0120068 0)
(-0.00338727 0.012038 0)
(-0.00484679 0.0115076 0)
(-0.00658091 0.0108112 0)
(-0.00855855 0.0101591 0)
(-0.0107385 0.00955906 0)
(-0.0130794 0.00893084 0)
(-0.0155359 0.00818765 0)
(-0.0180557 0.0072526 0)
(-0.0205795 0.00604427 0)
(-0.0230254 0.00446049 0)
(-0.0252391 0.00237275 0)
(-0.0269374 -0.000359792 0)
(-0.0276212 -0.00343048 0)
(-0.0275833 -0.00642344 0)
(-0.0268633 -0.00924702 0)
(-0.0254429 -0.0117828 0)
(-0.0233282 -0.0138577 0)
(-0.0205728 -0.0152202 0)
(-0.0172999 -0.0155744 0)
(-0.013701 -0.0146459 0)
(-0.0100407 -0.0123086 0)
(-0.00664502 -0.00873889 0)
(-0.00383888 -0.00455454 0)
(-0.0018478 -0.000831163 0)
(-0.00069869 0.00133268 0)
(-0.000167915 0.00179718 0)
(-2.54741e-06 0.000933768 0)
(-9.26221e-06 0.00288068 0)
(-0.000123791 0.00778096 0)
(-0.000385204 0.0118357 0)
(-0.000839527 0.0147429 0)
(-0.00151438 0.0163661 0)
(-0.00242374 0.0168327 0)
(-0.00356138 0.0165096 0)
(-0.00490053 0.015816 0)
(-0.006407 0.0150154 0)
(-0.00805448 0.0141676 0)
(-0.00982463 0.0132224 0)
(-0.0116974 0.0121098 0)
(-0.0136463 0.0107639 0)
(-0.0156414 0.00910726 0)
(-0.0176428 0.00703141 0)
(-0.0195605 0.00438375 0)
(-0.0212191 0.00097646 0)
(-0.0223282 -0.00284838 0)
(-0.0227604 -0.00657077 0)
(-0.0228544 -0.0102999 0)
(-0.0224932 -0.0140569 0)
(-0.0215809 -0.0177367 0)
(-0.0200417 -0.021055 0)
(-0.0178697 -0.0235722 0)
(-0.0151479 -0.0247699 0)
(-0.0120517 -0.0241589 0)
(-0.00883465 -0.0214568 0)
(-0.00579834 -0.016834 0)
(-0.00325303 -0.0111439 0)
(-0.00144237 -0.00579975 0)
(-0.000424033 -0.00201749 0)
(-2.49631e-05 -0.000149454 0)
(2.35427e-06 0.00311095 0)
(-1.35979e-05 0.00853202 0)
(-8.82364e-05 0.0131995 0)
(-0.000273036 0.0167666 0)
(-0.000620576 0.0190049 0)
(-0.00116753 0.019932 0)
(-0.00191505 0.0198435 0)
(-0.00282709 0.019168 0)
(-0.00385436 0.0182403 0)
(-0.00495796 0.017194 0)
(-0.00611367 0.0160177 0)
(-0.00730326 0.0146545 0)
(-0.00850826 0.0130463 0)
(-0.00971202 0.0111272 0)
(-0.0109007 0.00880331 0)
(-0.0120363 0.00593306 0)
(-0.0130392 0.00231215 0)
(-0.0140552 -0.00174511 0)
(-0.0148084 -0.0056729 0)
(-0.01562 -0.00965466 0)
(-0.0163394 -0.0139562 0)
(-0.0167775 -0.0186626 0)
(-0.0167118 -0.0235753 0)
(-0.0159778 -0.0282092 0)
(-0.0145081 -0.0318778 0)
(-0.0123568 -0.0337525 0)
(-0.00970528 -0.0330527 0)
(-0.00684186 -0.0293179 0)
(-0.00413498 -0.0228095 0)
(-0.0019737 -0.014851 0)
(-0.000623312 -0.00742286 0)
(-4.26105e-05 -0.0018797 0)
(1.05909e-05 0.00300582 0)
(7.34135e-05 0.00842211 0)
(0.000155808 0.0133005 0)
(0.000209313 0.0172723 0)
(0.000168722 0.0200306 0)
(-2.36318e-05 0.0214558 0)
(-0.000391122 0.0216774 0)
(-0.000902858 0.0210791 0)
(-0.00149608 0.0200578 0)
(-0.00210781 0.0188369 0)
(-0.00269592 0.0174647 0)
(-0.00323797 0.015908 0)
(-0.00372267 0.0141165 0)
(-0.00414712 0.0120298 0)
(-0.00451963 0.00956378 0)
(-0.00484316 0.00660405 0)
(-0.0050414 0.00302274 0)
(-0.00557249 -0.000866527 0)
(-0.0064388 -0.00449447 0)
(-0.00760169 -0.00810111 0)
(-0.00900013 -0.012175 0)
(-0.0104675 -0.017067 0)
(-0.0117007 -0.022787 0)
(-0.0123997 -0.0289198 0)
(-0.0123366 -0.0347582 0)
(-0.0114074 -0.0392407 0)
(-0.00967194 -0.0411711 0)
(-0.00734199 -0.0394577 0)
(-0.00477292 -0.0335569 0)
(-0.00244045 -0.0241554 0)
(-0.000819668 -0.0134667 0)
(-6.34272e-05 -0.00394485 0)
(1.43923e-05 0.00272757 0)
(0.000125299 0.00783216 0)
(0.000313593 0.0126493 0)
(0.000540668 0.0168 0)
(0.00073966 0.0199099 0)
(0.00084658 0.0217435 0)
(0.000823902 0.0223083 0)
(0.000683524 0.0218742 0)
(0.00048769 0.0208226 0)
(0.000318976 0.019454 0)
(0.000242378 0.0179029 0)
(0.000288798 0.0161842 0)
(0.0004599 0.0142647 0)
(0.00073627 0.0120893 0)
(0.00107717 0.00957187 0)
(0.00142028 0.00658006 0)
(0.00174918 0.00315877 0)
(0.00156819 -0.000307177 0)
(0.000654691 -0.00343123 0)
(-0.000645919 -0.00657601 0)
(-0.00225465 -0.0100022 0)
(-0.00416202 -0.0143859 0)
(-0.00621589 -0.020132 0)
(-0.00803317 -0.0269691 0)
(-0.00925205 -0.0343656 0)
(-0.00958561 -0.0411458 0)
(-0.00893381 -0.0458265 0)
(-0.00737538 -0.0467818 0)
(-0.00518477 -0.0426207 0)
(-0.00285033 -0.0330248 0)
(-0.0010179 -0.0197803 0)
(-8.58314e-05 -0.00624476 0)
(1.47406e-05 0.0024065 0)
(0.000144337 0.00707185 0)
(0.000386353 0.0116667 0)
(0.000717294 0.0158274 0)
(0.00107883 0.0191379 0)
(0.00140988 0.0212698 0)
(0.00167048 0.0221159 0)
(0.0018649 0.0218419 0)
(0.00204978 0.0207904 0)
(0.00231108 0.019305 0)
(0.00272253 0.0175993 0)
(0.00331705 0.0157504 0)
(0.00408317 0.0137541 0)
(0.00497262 0.011563 0)
(0.00590047 0.00908978 0)
(0.00674355 0.00619467 0)
(0.00725796 0.00305554 0)
(0.00713447 8.65277e-05 0)
(0.00609558 -0.00259005 0)
(0.00471362 -0.00519169 0)
(0.00306831 -0.00801863 0)
(0.00124313 -0.0115352 0)
(-0.00110598 -0.0168607 0)
(-0.00354012 -0.0235965 0)
(-0.00572361 -0.0317869 0)
(-0.00719909 -0.0402656 0)
(-0.00767538 -0.0474324 0)
(-0.00704283 -0.0512841 0)
(-0.00542484 -0.0496547 0)
(-0.00324139 -0.0410348 0)
(-0.00124218 -0.0261337 0)
(-0.000112897 -0.00871663 0)
(1.25538e-05 0.00211938 0)
(0.000134059 0.00634828 0)
(0.000377002 0.0106586 0)
(0.000737515 0.0147167 0)
(0.00117861 0.0180915 0)
(0.00165627 0.0203903 0)
(0.00214118 0.021415 0)
(0.00263971 0.0212468 0)
(0.00320174 0.0201899 0)
(0.00390169 0.018612 0)
(0.00480157 0.016789 0)
(0.00592137 0.0148568 0)
(0.00723084 0.0128432 0)
(0.00865309 0.0107112 0)
(0.0100602 0.00837774 0)
(0.0112672 0.00571904 0)
(0.0118699 0.00297694 0)
(0.0116632 0.000536688 0)
(0.0105256 -0.00171484 0)
(0.00898367 -0.00397358 0)
(0.00719541 -0.00647767 0)
(0.00529255 -0.0095615 0)
(0.0031786 -0.0137734 0)
(0.000737449 -0.0197372 0)
(-0.00196895 -0.0280308 0)
(-0.0043562 -0.037463 0)
(-0.00593285 -0.0465705 0)
(-0.00634714 -0.0531998 0)
(-0.00549196 -0.0545666 0)
(-0.00363065 -0.0479455 0)
(-0.00152361 -0.0324312 0)
(-0.000150619 -0.0113741 0)
(7.45658e-06 0.00191215 0)
(9.0344e-05 0.00579683 0)
(0.000273332 0.00983621 0)
(0.000580123 0.0137236 0)
(0.00101416 0.0170342 0)
(0.00156668 0.0193471 0)
(0.00223116 0.0204104 0)
(0.00302175 0.0202529 0)
(0.00397692 0.0191567 0)
(0.00514249 0.0175053 0)
(0.00654626 0.0156144 0)
(0.00817936 0.0136596 0)
(0.00998872 0.0116926 0)
(0.0118743 0.00968547 0)
(0.0136763 0.00756211 0)
(0.015162 0.00521969 0)
(0.0158538 0.00290369 0)
(0.0156223 0.000931913 0)
(0.0145019 -0.000882017 0)
(0.0129154 -0.00275231 0)
(0.0110262 -0.00491236 0)
(0.00896723 -0.00768734 0)
(0.00679065 -0.0114971 0)
(0.00446556 -0.016725 0)
(0.00190437 -0.0238231 0)
(-0.0010312 -0.0334586 0)
(-0.00359286 -0.0437874 0)
(-0.00516048 -0.052794 0)
(-0.00529267 -0.0573202 0)
(-0.00398337 -0.0535367 0)
(-0.00188902 -0.0385719 0)
(-0.0002098 -0.0142768 0)
(-2.28936e-06 0.00182311 0)
(-6.96984e-06 0.0055267 0)
(2.89875e-05 0.00936338 0)
(0.000183017 0.0130327 0)
(0.00053103 0.0161381 0)
(0.00111399 0.0182829 0)
(0.00194693 0.0192186 0)
(0.003048 0.0189569 0)
(0.00443435 0.0177782 0)
(0.00610363 0.016076 0)
(0.00803012 0.0141768 0)
(0.0101666 0.0122679 0)
(0.0124388 0.0104097 0)
(0.0147338 0.00857952 0)
(0.0168761 0.00670903 0)
(0.0186116 0.00471162 0)
(0.0194498 0.00280505 0)
(0.0193163 0.00124217 0)
(0.018366 -0.00017911 0)
(0.0168868 -0.00168729 0)
(0.0150598 -0.00349966 0)
(0.0129888 -0.0059301 0)
(0.0107398 -0.00935112 0)
(0.00832575 -0.0141271 0)
(0.00571517 -0.0205742 0)
(0.00279152 -0.0289392 0)
(-0.000475897 -0.039513 0)
(-0.00324616 -0.0502821 0)
(-0.00463468 -0.0578505 0)
(-0.0042 -0.0575326 0)
(-0.00234983 -0.0443582 0)
(-0.000308876 -0.0175112 0)
(-2.34762e-05 0.00192178 0)
(-0.000199178 0.00570067 0)
(-0.000426608 0.00940942 0)
(-0.000533975 0.0127484 0)
(-0.000340945 0.0154397 0)
(0.000273235 0.0172363 0)
(0.00132175 0.0178806 0)
(0.00279093 0.0174085 0)
(0.00466563 0.0161184 0)
(0.00687921 0.0144014 0)
(0.009343 0.0125599 0)
(0.0119741 0.010764 0)
(0.0146862 0.00906769 0)
(0.0173667 0.00744945 0)
(0.0198435 0.00584878 0)
(0.02187 0.00418947 0)
(0.0229712 0.00264879 0)
(0.0230953 0.00142217 0)
(0.0225116 0.000334945 0)
(0.0212867 -0.000850246 0)
(0.0196998 -0.00233845 0)
(0.0177963 -0.00441413 0)
(0.0155995 -0.00741165 0)
(0.0130983 -0.0116659 0)
(0.0102639 -0.017466 0)
(0.00706402 -0.0250283 0)
(0.00348384 -0.0344782 0)
(-0.00032622 -0.0458151 0)
(-0.00323688 -0.0560451 0)
(-0.00410367 -0.0595846 0)
(-0.00287903 -0.0494542 0)
(-0.000475816 -0.0211631 0)
(-7.14742e-05 0.00230825 0)
(-0.000569905 0.0064754 0)
(-0.00120729 0.0100915 0)
(-0.00165512 0.0129308 0)
(-0.00160835 0.0149525 0)
(-0.000924739 0.0161371 0)
(0.000435106 0.016368 0)
(0.0023859 0.0156234 0)
(0.00482336 0.014228 0)
(0.00762481 0.0125496 0)
(0.0106455 0.0108314 0)
(0.0137827 0.00920424 0)
(0.0169522 0.00770643 0)
(0.0200549 0.00631562 0)
(0.0229379 0.00497937 0)
(0.0253843 0.00362907 0)
(0.0269257 0.0024013 0)
(0.0274926 0.00144511 0)
(0.0273578 0.000620947 0)
(0.0265872 -0.000287075 0)
(0.0254072 -0.00148433 0)
(0.0238165 -0.00320488 0)
(0.021782 -0.00573634 0)
(0.0192446 -0.00937784 0)
(0.01615 -0.0144047 0)
(0.0124849 -0.0210557 0)
(0.00830431 -0.0295438 0)
(0.0037527 -0.0399904 0)
(-0.000732067 -0.0517657 0)
(-0.00340621 -0.0592828 0)
(-0.00336527 -0.0533807 0)
(-0.000738824 -0.0252523 0)
(-0.000185184 0.00319044 0)
(-0.00126603 0.00805932 0)
(-0.00244399 0.0114222 0)
(-0.00320962 0.0134488 0)
(-0.00318623 0.0145327 0)
(-0.0022703 0.0149246 0)
(-0.000478506 0.014632 0)
(0.00214287 0.0135931 0)
(0.00523993 0.0121451 0)
(0.00869669 0.0105704 0)
(0.0123341 0.0090305 0)
(0.01605 0.00760972 0)
(0.019772 0.00632846 0)
(0.0234197 0.00516443 0)
(0.0268627 0.00407395 0)
(0.0299169 0.00299748 0)
(0.0320839 0.00203679 0)
(0.0332408 0.00130397 0)
(0.0336505 0.000689227 0)
(0.0334379 5.66838e-06 0)
(0.0327143 -0.00092914 0)
(0.0314736 -0.00229689 0)
(0.029631 -0.0043294 0)
(0.0270784 -0.00728075 0)
(0.0237221 -0.0114082 0)
(0.0195301 -0.0169778 0)
(0.014568 -0.0242956 0)
(0.00901677 -0.0337161 0)
(0.00323945 -0.0452342 0)
(-0.00164129 -0.0561851 0)
(-0.00354613 -0.0555418 0)
(-0.00109245 -0.0296606 0)
(-0.000432075 0.00490035 0)
(-0.00244547 0.0105984 0)
(-0.00413862 0.0132194 0)
(-0.00497221 0.0140007 0)
(-0.00464535 0.0139258 0)
(-0.00319132 0.0134461 0)
(-0.000664075 0.0125893 0)
(0.00283614 0.0112945 0)
(0.00674094 0.00988536 0)
(0.0109813 0.00847788 0)
(0.0153725 0.00715616 0)
(0.0198189 0.00596382 0)
(0.0242544 0.00490715 0)
(0.0286058 0.00396586 0)
(0.0327531 0.00310558 0)
(0.0365295 0.00227901 0)
(0.039377 0.0015583 0)
(0.0411218 0.0010202 0)
(0.0420394 0.000577325 0)
(0.0423122 8.14124e-05 0)
(0.0419817 -0.000608558 0)
(0.0410218 -0.00162869 0)
(0.0393231 -0.00315161 0)
(0.0367443 -0.00537638 0)
(0.0331517 -0.00852564 0)
(0.0284658 -0.0128708 0)
(0.0227056 -0.0187867 0)
(0.0160243 -0.0268147 0)
(0.00879198 -0.0375117 0)
(0.00187042 -0.0499119 0)
(-0.00293177 -0.0552574 0)
(-0.00144094 -0.0341485 0)
(-0.000877038 0.007925 0)
(-0.00408938 0.0139349 0)
(-0.00580853 0.0148969 0)
(-0.0059828 0.0140257 0)
(-0.00465288 0.0127459 0)
(-0.00209291 0.0114493 0)
(0.00175605 0.010069 0)
(0.00627395 0.00870702 0)
(0.0111899 0.00743559 0)
(0.016379 0.00625157 0)
(0.021669 0.00518257 0)
(0.0269561 0.00424213 0)
(0.0321623 0.00342647 0)
(0.0372047 0.00271776 0)
(0.0419621 0.00208952 0)
(0.0462752 0.00150781 0)
(0.0495568 0.00101714 0)
(0.0516404 0.000659041 0)
(0.0528374 0.000367174 0)
(0.0533586 3.51871e-05 0)
(0.0532361 -0.000426466 0)
(0.0524106 -0.0011147 0)
(0.0507714 -0.00214709 0)
(0.0481629 -0.00366278 0)
(0.0444211 -0.00583121 0)
(0.0394069 -0.00889135 0)
(0.0330421 -0.0132301 0)
(0.0253606 -0.0194984 0)
(0.0166271 -0.0286477 0)
(0.00757776 -0.0410719 0)
(-0.000679998 -0.0516239 0)
(-0.00149033 -0.0381605 0)
(-0.00161192 0.013053 0)
(-0.00551394 0.0172212 0)
(-0.00553909 0.015305 0)
(-0.0033877 0.0127 0)
(0.000286291 0.010419 0)
(0.0049283 0.00857777 0)
(0.0102516 0.00708263 0)
(0.0159978 0.00584636 0)
(0.0219743 0.00480916 0)
(0.0280414 0.00391363 0)
(0.0340431 0.00314674 0)
(0.0398665 0.00249922 0)
(0.0454246 0.00195842 0)
(0.050636 0.00150685 0)
(0.055398 0.0011233 0)
(0.0595825 0.000785169 0)
(0.0626848 0.000511992 0)
(0.0646219 0.000316933 0)
(0.0657221 0.000156793 0)
(0.0662043 -2.87937e-05 0)
(0.0660467 -0.000289338 0)
(0.0652185 -0.00068343 0)
(0.0636048 -0.00128017 0)
(0.0610472 -0.00216148 0)
(0.0573692 -0.00343431 0)
(0.0523866 -0.00527068 0)
(0.0459087 -0.0079945 0)
(0.0377549 -0.0122385 0)
(0.0278691 -0.0191413 0)
(0.0165591 -0.0301114 0)
(0.00442285 -0.0435041 0)
(-0.000166882 -0.0396352 0)
(-0.00121922 0.01831 0)
(-0.00296911 0.0181935 0)
(0.00338499 0.0126282 0)
(0.0104603 0.00925975 0)
(0.0174055 0.0068994 0)
(0.0241718 0.00515308 0)
(0.0308197 0.00388094 0)
(0.0372953 0.00295438 0)
(0.0435338 0.00226341 0)
(0.0494741 0.00172975 0)
(0.0550362 0.00131399 0)
(0.060161 0.000990476 0)
(0.0648125 0.000739402 0)
(0.0689655 0.000543448 0)
(0.0725838 0.000386728 0)
(0.0756126 0.00025648 0)
(0.0777513 0.00015613 0)
(0.0790175 8.52704e-05 0)
(0.0796751 2.40457e-05 0)
(0.0798669 -4.81136e-05 0)
(0.0795811 -0.00015542 0)
(0.078771 -0.000322923 0)
(0.0773247 -0.000580736 0)
(0.0750987 -0.000964271 0)
(0.0719329 -0.0015229 0)
(0.0676393 -0.00234766 0)
(0.0619599 -0.00363908 0)
(0.0544967 -0.00585288 0)
(0.0446475 -0.0099581 0)
(0.031658 -0.01765 0)
(0.0155232 -0.0297949 0)
(0.00632035 -0.0334676 0)
(0.0208004 0.0113649 0)
(0.0272005 0.00929477 0)
(0.0402676 0.005426 0)
(0.0508835 0.00328866 0)
(0.0588342 0.00204837 0)
(0.0651156 0.0012637 0)
(0.0702691 0.000775239 0)
(0.0745735 0.000480194 0)
(0.0782189 0.000302687 0)
(0.0813351 0.00019339 0)
(0.0839997 0.000125133 0)
(0.0862706 8.19245e-05 0)
(0.0881964 5.40375e-05 0)
(0.0898153 3.53999e-05 0)
(0.0911469 2.19479e-05 0)
(0.092193 1.1549e-05 0)
(0.0928752 4.04592e-06 0)
(0.0932307 -1.44963e-06 0)
(0.0933594 -7.53708e-06 0)
(0.0932981 -1.53662e-05 0)
(0.0930368 -2.93679e-05 0)
(0.0925271 -5.31968e-05 0)
(0.0916936 -9.12225e-05 0)
(0.0904495 -0.000148522 0)
(0.0887003 -0.000232715 0)
(0.0863233 -0.000360357 0)
(0.0831071 -0.000574483 0)
(0.0786125 -0.000987165 0)
(0.0718824 -0.00187804 0)
(0.0609084 -0.00399302 0)
(0.0433007 -0.00919996 0)
(0.0285993 -0.014537 0)
)
;

boundaryField
{
    movingWall
    {
        type            fixedValue;
        value           uniform (0.1 0 0);
    }
    fixedWalls
    {
        type            noSlip;
    }
    floor
    {
        type            noSlip;
    }
    frontAndBack
    {
        type            empty;
    }
}


// ************************************************************************* //
