/*--------------------------------*- C++ -*----------------------------------*\
| =========                 |                                                 |
| \\      /  F ield         | OpenFOAM: The Open Source CFD Toolbox           |
|  \\    /   O peration     | Version:  2212                                  |
|   \\  /    A nd           | Website:  www.openfoam.com                      |
|    \\/     M anipulation  |                                                 |
\*---------------------------------------------------------------------------*/
FoamFile
{
    version     2.0;
    format      ascii;
    arch        "LSB;label=64;scalar=64";
    class       volScalarField;
    location    "1450";
    object      Xch;
}
// * * * * * * * * * * * * * * * * * * * * * * * * * * * * * * * * * * * * * //

dimensions      [1 -3 0 0 0 0 0];

internalField   nonuniform List<scalar> 
1024
(
0.0199178
0.0199181
0.0199188
0.0199202
0.0199223
0.0199254
0.0199295
0.0199346
0.0199405
0.0199468
0.019953
0.0199585
0.019963
0.019966
0.0199672
0.0199665
0.0199633
0.019958
0.0199511
0.019943
0.0199339
0.0199242
0.0199146
0.0199058
0.0198982
0.019892
0.0198873
0.019884
0.0198817
0.0198803
0.0198795
0.0198792
0.0199179
0.0199182
0.0199189
0.0199203
0.0199224
0.0199256
0.0199297
0.0199349
0.0199408
0.0199472
0.0199534
0.019959
0.0199634
0.0199664
0.0199676
0.0199668
0.0199636
0.0199583
0.0199515
0.0199434
0.0199342
0.0199246
0.019915
0.0199061
0.0198984
0.0198922
0.0198875
0.0198841
0.0198818
0.0198803
0.0198796
0.0198792
0.0199181
0.0199184
0.0199192
0.0199206
0.0199228
0.019926
0.0199303
0.0199356
0.0199416
0.0199481
0.0199545
0.0199601
0.0199645
0.0199674
0.0199686
0.0199677
0.0199644
0.0199591
0.0199522
0.0199441
0.019935
0.0199253
0.0199157
0.0199067
0.019899
0.0198926
0.0198878
0.0198843
0.0198819
0.0198805
0.0198797
0.0198794
0.0199185
0.0199188
0.0199196
0.019921
0.0199233
0.0199266
0.0199311
0.0199366
0.019943
0.0199498
0.0199564
0.0199622
0.0199666
0.0199693
0.0199703
0.0199692
0.0199658
0.0199603
0.0199534
0.0199453
0.0199362
0.0199265
0.0199168
0.0199077
0.0198998
0.0198933
0.0198883
0.0198847
0.0198822
0.0198807
0.0198799
0.0198796
0.0199191
0.0199194
0.0199202
0.0199217
0.0199241
0.0199276
0.0199323
0.0199381
0.0199449
0.0199523
0.0199594
0.0199655
0.01997
0.0199725
0.0199731
0.0199716
0.0199679
0.0199622
0.0199551
0.0199469
0.0199377
0.019928
0.0199182
0.019909
0.0199008
0.0198941
0.0198889
0.0198852
0.0198826
0.0198811
0.0198802
0.0198799
0.01992
0.0199203
0.0199211
0.0199227
0.0199252
0.0199288
0.0199339
0.0199402
0.0199477
0.0199558
0.0199638
0.0199705
0.019975
0.0199772
0.0199773
0.0199752
0.0199709
0.0199647
0.0199572
0.0199488
0.0199395
0.0199297
0.0199198
0.0199104
0.019902
0.0198951
0.0198897
0.0198858
0.0198832
0.0198815
0.0198806
0.0198803
0.0199213
0.0199217
0.0199225
0.0199241
0.0199266
0.0199305
0.0199359
0.0199429
0.0199514
0.0199607
0.0199699
0.0199773
0.019982
0.0199839
0.0199832
0.0199802
0.019975
0.0199679
0.0199598
0.0199509
0.0199413
0.0199313
0.0199213
0.0199117
0.0199032
0.0198961
0.0198905
0.0198865
0.0198838
0.0198821
0.0198811
0.0198808
0.0199234
0.0199237
0.0199245
0.0199261
0.0199287
0.0199329
0.0199388
0.0199466
0.0199562
0.0199671
0.0199777
0.0199862
0.0199912
0.0199926
0.019991
0.0199868
0.0199803
0.019972
0.0199628
0.0199531
0.019943
0.0199326
0.0199224
0.0199127
0.0199041
0.0198968
0.0198912
0.0198871
0.0198843
0.0198826
0.0198817
0.0198813
0.0199264
0.0199267
0.0199275
0.0199291
0.0199319
0.0199363
0.0199427
0.0199515
0.0199626
0.0199752
0.0199875
0.0199971
0.0200025
0.0200034
0.0200007
0.0199952
0.0199871
0.019977
0.0199662
0.0199552
0.0199442
0.0199333
0.0199228
0.019913
0.0199043
0.0198972
0.0198916
0.0198876
0.0198849
0.0198832
0.0198823
0.019882
0.0199311
0.0199314
0.0199322
0.0199338
0.0199367
0.0199415
0.0199486
0.0199585
0.0199711
0.0199855
0.0199995
0.0200102
0.0200158
0.0200162
0.0200125
0.0200056
0.0199957
0.0199836
0.0199706
0.0199577
0.0199453
0.0199335
0.0199224
0.0199125
0.019904
0.019897
0.0198917
0.019888
0.0198855
0.019884
0.0198832
0.0198829
0.0199384
0.0199387
0.0199395
0.0199412
0.0199443
0.0199495
0.0199574
0.0199685
0.0199827
0.0199988
0.0200141
0.0200255
0.0200312
0.0200313
0.0200269
0.0200191
0.0200077
0.0199932
0.0199776
0.0199621
0.0199476
0.0199343
0.0199224
0.0199121
0.0199037
0.0198971
0.0198923
0.019889
0.019887
0.0198858
0.0198853
0.0198851
0.0199493
0.0199496
0.0199505
0.0199524
0.0199558
0.0199616
0.0199704
0.0199827
0.0199983
0.0200157
0.0200318
0.0200436
0.0200494
0.0200495
0.0200455
0.0200379
0.0200262
0.0200104
0.0199923
0.0199738
0.0199562
0.0199404
0.0199267
0.0199154
0.0199066
0.0199003
0.019896
0.0198934
0.0198921
0.0198916
0.0198915
0.0198915
0.0199646
0.0199649
0.019966
0.0199682
0.0199721
0.0199787
0.0199885
0.020002
0.0200188
0.0200369
0.0200533
0.0200653
0.0200716
0.0200732
0.0200716
0.0200671
0.0200583
0.0200442
0.0200259
0.0200054
0.0199847
0.0199651
0.0199479
0.0199338
0.0199232
0.019916
0.0199117
0.0199097
0.0199092
0.0199094
0.0199099
0.0199102
0.019984
0.0199844
0.0199857
0.0199883
0.019993
0.0200005
0.0200116
0.0200264
0.0200441
0.0200627
0.0200794
0.020092
0.0201004
0.020106
0.0201103
0.0201132
0.0201128
0.0201066
0.0200943
0.0200773
0.0200572
0.0200358
0.0200148
0.0199959
0.0199804
0.0199692
0.019962
0.0199584
0.0199572
0.0199574
0.0199581
0.0199586
0.0200056
0.0200062
0.0200077
0.0200108
0.0200162
0.0200249
0.0200372
0.0200532
0.0200719
0.0200912
0.0201089
0.0201239
0.0201369
0.0201494
0.0201626
0.0201766
0.0201895
0.0201975
0.0201992
0.0201947
0.0201845
0.0201697
0.0201514
0.0201316
0.020112
0.0200945
0.0200805
0.0200706
0.0200646
0.0200617
0.0200607
0.0200606
0.0200258
0.0200264
0.0200279
0.0200312
0.0200369
0.0200458
0.0200586
0.0200751
0.0200946
0.0201153
0.0201357
0.0201549
0.0201733
0.0201924
0.0202129
0.0202353
0.0202579
0.0202775
0.0202931
0.0203044
0.0203107
0.0203116
0.0203072
0.0202978
0.0202844
0.0202689
0.0202532
0.0202393
0.0202285
0.0202213
0.0202174
0.0202159
0.0200408
0.0200413
0.0200428
0.0200458
0.0200512
0.0200596
0.0200717
0.0200877
0.0201069
0.0201283
0.0201501
0.0201713
0.0201918
0.0202119
0.0202319
0.0202519
0.0202712
0.0202895
0.0203079
0.0203262
0.0203436
0.0203585
0.0203699
0.0203768
0.0203791
0.020377
0.0203715
0.0203642
0.0203568
0.0203507
0.0203468
0.0203451
0.0200498
0.0200503
0.0200516
0.0200543
0.020059
0.0200664
0.0200772
0.0200917
0.0201097
0.02013
0.0201513
0.0201721
0.0201914
0.0202088
0.0202239
0.0202366
0.0202469
0.0202577
0.0202723
0.0202912
0.0203129
0.0203351
0.0203558
0.0203733
0.0203866
0.0203955
0.0204001
0.0204015
0.0204006
0.0203988
0.0203971
0.0203962
0.0200545
0.020055
0.0200562
0.0200585
0.0200626
0.020069
0.0200783
0.020091
0.020107
0.0201254
0.0201451
0.0201644
0.0201818
0.0201965
0.0202076
0.0202149
0.0202192
0.020225
0.0202366
0.020255
0.0202793
0.0203068
0.0203345
0.0203597
0.0203803
0.0203957
0.0204059
0.0204116
0.0204142
0.0204147
0.0204144
0.0204141
0.0200566
0.020057
0.0200581
0.0200602
0.0200637
0.0200692
0.0200771
0.020088
0.0201018
0.0201181
0.0201356
0.020153
0.0201686
0.0201813
0.0201902
0.0201951
0.0201975
0.0202019
0.020212
0.0202295
0.0202539
0.0202835
0.0203154
0.0203462
0.0203732
0.0203944
0.0204093
0.0204186
0.0204235
0.0204254
0.0204257
0.0204256
0.0200575
0.0200579
0.0200588
0.0200606
0.0200635
0.0200681
0.0200749
0.0200841
0.0200959
0.0201099
0.0201252
0.0201405
0.0201546
0.0201662
0.0201745
0.0201797
0.0201832
0.0201889
0.0201995
0.0202166
0.0202402
0.0202695
0.0203023
0.0203358
0.0203667
0.0203924
0.0204116
0.0204243
0.0204314
0.0204346
0.0204355
0.0204355
0.0200588
0.0200591
0.0200597
0.020061
0.0200633
0.020067
0.0200726
0.0200803
0.0200902
0.0201021
0.0201154
0.0201291
0.020142
0.0201534
0.0201627
0.0201701
0.0201769
0.0201855
0.0201978
0.020215
0.0202376
0.0202653
0.020297
0.0203305
0.0203628
0.0203911
0.0204134
0.020429
0.0204384
0.0204429
0.0204444
0.0204445
0.0200625
0.0200625
0.0200626
0.0200632
0.0200646
0.0200672
0.0200716
0.0200779
0.0200863
0.0200966
0.0201085
0.0201212
0.020134
0.0201462
0.0201576
0.0201685
0.0201795
0.0201916
0.0202056
0.0202229
0.0202442
0.0202698
0.0202991
0.0203307
0.0203622
0.0203913
0.0204154
0.0204333
0.0204446
0.0204505
0.0204526
0.0204529
0.0200707
0.0200703
0.0200696
0.0200692
0.0200694
0.0200708
0.0200739
0.0200791
0.0200866
0.0200962
0.0201076
0.0201205
0.0201342
0.0201482
0.0201624
0.020177
0.0201919
0.0202068
0.0202221
0.0202389
0.0202585
0.0202813
0.0203075
0.020336
0.0203654
0.0203934
0.020418
0.0204371
0.0204501
0.0204572
0.02046
0.0204605
0.0200852
0.0200843
0.0200828
0.0200811
0.0200801
0.0200804
0.0200827
0.0200875
0.0200949
0.0201048
0.0201169
0.0201309
0.0201461
0.0201623
0.020179
0.0201965
0.0202142
0.0202307
0.0202461
0.0202619
0.0202792
0.0202989
0.0203213
0.020346
0.0203721
0.0203979
0.0204215
0.020441
0.020455
0.0204632
0.0204667
0.0204674
0.0201076
0.020106
0.0201036
0.0201011
0.0200994
0.0200994
0.0201018
0.0201071
0.0201154
0.0201264
0.0201399
0.0201552
0.0201718
0.0201894
0.0202076
0.0202265
0.0202451
0.0202616
0.0202763
0.0202904
0.0203051
0.0203213
0.0203397
0.0203602
0.0203823
0.0204049
0.0204265
0.0204453
0.0204596
0.0204686
0.0204727
0.0204736
0.0201384
0.0201363
0.0201334
0.0201309
0.0201298
0.0201308
0.0201345
0.0201412
0.0201509
0.0201632
0.0201776
0.0201936
0.0202106
0.0202282
0.0202462
0.0202647
0.0202824
0.0202977
0.0203107
0.0203226
0.0203346
0.0203475
0.0203619
0.0203781
0.0203958
0.0204146
0.0204333
0.0204504
0.0204642
0.0204735
0.0204781
0.0204793
0.0201783
0.0201758
0.0201734
0.0201724
0.0201735
0.0201768
0.0201826
0.0201909
0.0202015
0.0202141
0.0202283
0.0202435
0.0202594
0.0202756
0.0202918
0.0203082
0.0203236
0.0203366
0.0203474
0.0203569
0.0203663
0.020376
0.0203868
0.0203989
0.0204123
0.0204269
0.020442
0.0204566
0.0204691
0.020478
0.0204829
0.0204843
0.0202277
0.0202255
0.0202249
0.020227
0.0202312
0.0202371
0.0202445
0.0202535
0.0202638
0.0202754
0.0202878
0.0203009
0.0203142
0.0203276
0.0203408
0.0203539
0.0203662
0.0203763
0.0203846
0.0203917
0.0203985
0.0204055
0.0204131
0.0204215
0.020431
0.0204415
0.0204528
0.0204641
0.0204745
0.0204824
0.0204871
0.0204887
0.020288
0.0202871
0.0202898
0.0202951
0.0203016
0.0203086
0.0203161
0.0203242
0.0203327
0.0203417
0.0203512
0.0203609
0.0203707
0.0203804
0.0203899
0.0203993
0.0204079
0.020415
0.0204207
0.0204255
0.0204301
0.0204346
0.0204395
0.0204449
0.020451
0.0204578
0.0204652
0.0204731
0.0204807
0.0204869
0.020491
0.0204925
0.0203615
0.0203633
0.0203685
0.0203743
0.0203802
0.020386
0.0203915
0.0203969
0.0204024
0.020408
0.0204138
0.0204196
0.0204254
0.0204311
0.0204367
0.0204422
0.0204472
0.0204512
0.0204545
0.0204573
0.0204598
0.0204623
0.020465
0.0204679
0.0204712
0.0204748
0.0204789
0.0204833
0.0204878
0.0204918
0.0204946
0.0204957
0.0204514
0.0204528
0.0204554
0.020458
0.0204604
0.0204626
0.0204646
0.0204665
0.0204684
0.0204702
0.0204721
0.020474
0.0204759
0.0204778
0.0204796
0.0204814
0.020483
0.0204843
0.0204853
0.0204862
0.020487
0.0204878
0.0204886
0.0204895
0.0204905
0.0204917
0.0204929
0.0204943
0.0204957
0.0204971
0.0204981
0.0204986
)
;

boundaryField
{
    movingWall
    {
        type            fixedValue;
        value           uniform 0.0205;
    }
    fixedWalls
    {
        type            zeroGradient;
    }
    floor
    {
        type            zeroGradient;
    }
    frontAndBack
    {
        type            empty;
    }
}


// ************************************************************************* //
