/*--------------------------------*- C++ -*----------------------------------*\
| =========                 |                                                 |
| \\      /  F ield         | OpenFOAM: The Open Source CFD Toolbox           |
|  \\    /   O peration     | Version:  2212                                  |
|   \\  /    A nd           | Website:  www.openfoam.com                      |
|    \\/     M anipulation  |                                                 |
\*---------------------------------------------------------------------------*/
FoamFile
{
    version     2.0;
    format      ascii;
    arch        "LSB;label=64;scalar=64";
    class       volScalarField;
    location    "1450";
    object      Xli;
}
// * * * * * * * * * * * * * * * * * * * * * * * * * * * * * * * * * * * * * //

dimensions      [1 -3 0 0 0 0 0];

internalField   nonuniform List<scalar> 
1024
(
0.0423335
0.0423341
0.0423357
0.0423386
0.0423432
0.0423498
0.0423588
0.0423699
0.0423827
0.0423964
0.0424099
0.042422
0.0424317
0.0424382
0.0424409
0.0424392
0.0424324
0.0424208
0.0424059
0.0423882
0.0423683
0.0423473
0.0423265
0.0423073
0.0422907
0.0422773
0.0422671
0.0422598
0.0422548
0.0422517
0.0422501
0.0422494
0.0423336
0.0423343
0.0423359
0.0423388
0.0423435
0.0423503
0.0423593
0.0423706
0.0423835
0.0423973
0.0424109
0.042423
0.0424326
0.0424391
0.0424418
0.04244
0.0424331
0.0424215
0.0424067
0.042389
0.0423691
0.0423481
0.0423272
0.0423079
0.0422913
0.0422777
0.0422674
0.04226
0.042255
0.0422519
0.0422502
0.0422495
0.0423341
0.0423347
0.0423364
0.0423394
0.0423442
0.0423512
0.0423605
0.042372
0.0423853
0.0423994
0.0424132
0.0424254
0.042435
0.0424413
0.0424438
0.0424419
0.0424348
0.0424232
0.0424083
0.0423906
0.0423708
0.0423497
0.0423288
0.0423093
0.0422924
0.0422786
0.0422681
0.0422605
0.0422554
0.0422522
0.0422505
0.0422498
0.0423349
0.0423356
0.0423373
0.0423404
0.0423454
0.0423526
0.0423623
0.0423743
0.0423882
0.0424029
0.0424174
0.0424299
0.0424395
0.0424455
0.0424476
0.0424452
0.0424378
0.0424259
0.0424109
0.0423932
0.0423734
0.0423523
0.0423312
0.0423114
0.0422941
0.04228
0.0422691
0.0422613
0.042256
0.0422527
0.0422509
0.0422502
0.0423362
0.0423369
0.0423387
0.0423419
0.0423471
0.0423547
0.0423649
0.0423776
0.0423924
0.0424084
0.042424
0.0424372
0.0424469
0.0424524
0.0424537
0.0424505
0.0424424
0.04243
0.0424145
0.0423966
0.0423767
0.0423556
0.0423343
0.0423142
0.0422965
0.0422819
0.0422706
0.0422624
0.0422569
0.0422535
0.0422516
0.0422509
0.0423382
0.0423389
0.0423407
0.042344
0.0423494
0.0423574
0.0423683
0.0423821
0.0423984
0.0424162
0.0424336
0.042448
0.0424579
0.0424627
0.0424628
0.0424583
0.0424489
0.0424354
0.0424192
0.0424008
0.0423806
0.0423592
0.0423377
0.0423173
0.0422991
0.042284
0.0422723
0.0422638
0.0422581
0.0422545
0.0422526
0.0422518
0.0423411
0.0423418
0.0423436
0.042347
0.0423526
0.0423611
0.0423728
0.0423881
0.0424064
0.0424267
0.0424467
0.0424629
0.0424732
0.0424772
0.0424756
0.0424692
0.0424578
0.0424425
0.0424248
0.0424054
0.0423846
0.0423628
0.042341
0.0423202
0.0423017
0.0422862
0.0422741
0.0422653
0.0422593
0.0422556
0.0422537
0.0422528
0.0423455
0.0423461
0.0423479
0.0423514
0.0423572
0.0423662
0.042379
0.042396
0.042417
0.0424406
0.0424637
0.0424822
0.0424931
0.0424961
0.0424926
0.0424835
0.0424694
0.0424513
0.0424313
0.0424101
0.0423881
0.0423657
0.0423434
0.0423223
0.0423035
0.0422878
0.0422755
0.0422666
0.0422606
0.0422569
0.0422549
0.0422541
0.0423521
0.0423527
0.0423545
0.0423579
0.042364
0.0423736
0.0423876
0.0424068
0.0424309
0.0424583
0.042485
0.042506
0.0425176
0.0425196
0.0425138
0.0425018
0.0424841
0.0424623
0.0424388
0.0424148
0.0423908
0.0423672
0.0423442
0.0423229
0.0423041
0.0422885
0.0422764
0.0422676
0.0422617
0.0422581
0.0422562
0.0422554
0.0423624
0.042363
0.0423647
0.0423682
0.0423746
0.0423849
0.0424003
0.0424219
0.0424494
0.0424808
0.0425111
0.0425344
0.0425466
0.0425475
0.0425395
0.0425245
0.042503
0.0424765
0.0424483
0.0424202
0.0423932
0.0423675
0.0423435
0.0423219
0.0423033
0.0422882
0.0422766
0.0422685
0.0422631
0.0422598
0.0422582
0.0422575
0.0423782
0.0423788
0.0423806
0.0423843
0.0423911
0.0424023
0.0424195
0.0424436
0.0424746
0.0425095
0.0425428
0.0425678
0.0425802
0.0425803
0.0425708
0.0425537
0.0425289
0.0424975
0.0424635
0.0424298
0.0423982
0.0423692
0.0423434
0.042321
0.0423027
0.0422883
0.0422779
0.0422707
0.0422663
0.0422638
0.0422627
0.0422623
0.0424019
0.0424026
0.0424045
0.0424086
0.0424162
0.0424287
0.0424478
0.0424746
0.0425086
0.0425463
0.0425814
0.0426071
0.0426197
0.0426199
0.0426112
0.0425948
0.0425693
0.0425349
0.0424955
0.0424552
0.042417
0.0423825
0.0423527
0.0423281
0.0423091
0.0422953
0.042286
0.0422804
0.0422775
0.0422764
0.0422761
0.0422762
0.0424351
0.0424359
0.0424382
0.042443
0.0424516
0.0424658
0.0424871
0.0425166
0.042553
0.0425925
0.0426283
0.0426543
0.042668
0.0426714
0.042668
0.0426583
0.0426391
0.0426083
0.0425686
0.0425241
0.0424789
0.0424363
0.0423988
0.0423681
0.0423451
0.0423295
0.0423202
0.0423158
0.0423146
0.0423151
0.0423162
0.0423169
0.0424774
0.0424784
0.0424811
0.0424868
0.042497
0.0425133
0.0425374
0.0425696
0.0426082
0.0426487
0.0426849
0.0427124
0.0427306
0.0427428
0.0427521
0.0427586
0.0427577
0.0427441
0.0427174
0.0426804
0.0426367
0.0425901
0.0425444
0.0425032
0.0424697
0.0424451
0.0424296
0.0424216
0.0424191
0.0424196
0.0424211
0.0424221
0.0425245
0.0425257
0.0425289
0.0425357
0.0425476
0.0425663
0.0425931
0.042628
0.0426686
0.0427105
0.0427491
0.0427818
0.0428101
0.0428372
0.0428659
0.0428965
0.0429245
0.0429419
0.0429455
0.0429357
0.0429137
0.0428813
0.0428416
0.0427984
0.042756
0.0427179
0.0426873
0.0426658
0.0426529
0.0426465
0.0426443
0.042644
0.0425684
0.0425696
0.042573
0.0425801
0.0425925
0.042612
0.0426397
0.0426757
0.042718
0.0427631
0.0428074
0.0428491
0.0428893
0.0429307
0.0429755
0.0430242
0.0430732
0.043116
0.04315
0.0431744
0.0431881
0.0431902
0.0431805
0.04316
0.0431311
0.0430973
0.0430631
0.0430328
0.0430092
0.0429936
0.0429852
0.042982
0.042601
0.0426021
0.0426053
0.0426119
0.0426235
0.0426418
0.0426682
0.0427029
0.0427449
0.0427913
0.0428388
0.042885
0.0429295
0.0429732
0.0430167
0.0430603
0.0431022
0.0431421
0.043182
0.0432219
0.0432596
0.0432922
0.0433169
0.043332
0.043337
0.0433324
0.0433204
0.0433045
0.0432884
0.0432752
0.0432668
0.043263
0.0426205
0.0426216
0.0426245
0.0426304
0.0426406
0.0426568
0.0426803
0.0427118
0.0427508
0.042795
0.0428414
0.0428866
0.0429286
0.0429665
0.0429994
0.0430269
0.0430493
0.0430729
0.0431047
0.0431458
0.0431929
0.0432413
0.0432863
0.0433244
0.0433533
0.0433726
0.0433828
0.0433856
0.0433837
0.0433798
0.0433762
0.0433743
0.0426308
0.0426318
0.0426344
0.0426396
0.0426484
0.0426623
0.0426827
0.0427103
0.042745
0.0427851
0.0428279
0.0428698
0.0429078
0.0429397
0.0429638
0.0429796
0.0429891
0.0430018
0.0430269
0.0430671
0.0431198
0.0431797
0.04324
0.0432947
0.0433397
0.0433731
0.0433952
0.0434078
0.0434133
0.0434145
0.0434138
0.0434131
0.0426354
0.0426363
0.0426387
0.0426432
0.0426508
0.0426627
0.04268
0.0427037
0.0427338
0.0427691
0.0428073
0.042845
0.0428791
0.0429067
0.042926
0.0429368
0.0429419
0.0429514
0.0429735
0.0430115
0.0430647
0.0431291
0.0431984
0.0432655
0.043324
0.0433702
0.0434028
0.043423
0.0434336
0.0434377
0.0434384
0.043438
0.0426374
0.0426382
0.0426402
0.042644
0.0426504
0.0426605
0.0426751
0.0426952
0.0427208
0.0427512
0.0427845
0.0428179
0.0428485
0.0428737
0.0428919
0.0429032
0.0429108
0.0429232
0.0429463
0.0429834
0.0430348
0.0430985
0.04317
0.0432428
0.04331
0.0433658
0.0434076
0.0434352
0.0434508
0.0434578
0.0434597
0.0434596
0.0426402
0.0426407
0.0426421
0.0426449
0.0426499
0.042658
0.0426701
0.0426869
0.0427085
0.0427344
0.0427633
0.042793
0.0428212
0.042846
0.0428662
0.0428822
0.042897
0.0429159
0.0429425
0.0429799
0.043029
0.0430895
0.0431584
0.0432312
0.0433014
0.0433631
0.0434117
0.0434456
0.043466
0.0434759
0.0434791
0.0434793
0.0426482
0.0426482
0.0426484
0.0426497
0.0426527
0.0426585
0.0426679
0.0426817
0.0427
0.0427224
0.0427482
0.0427758
0.0428037
0.0428304
0.0428552
0.0428787
0.0429027
0.042929
0.0429595
0.0429971
0.0430434
0.0430992
0.043163
0.0432317
0.0433003
0.0433634
0.043416
0.0434548
0.0434795
0.0434922
0.0434968
0.0434974
0.0426659
0.0426651
0.0426637
0.0426627
0.0426631
0.0426662
0.042673
0.0426844
0.0427006
0.0427215
0.0427464
0.0427743
0.0428041
0.0428347
0.0428655
0.0428972
0.0429298
0.0429622
0.0429954
0.043032
0.0430745
0.0431243
0.0431812
0.0432433
0.0433071
0.0433681
0.0434215
0.0434632
0.0434914
0.0435069
0.0435129
0.043514
0.0426976
0.0426956
0.0426923
0.0426887
0.0426865
0.0426872
0.0426922
0.0427025
0.0427186
0.0427402
0.0427666
0.042797
0.0428302
0.0428652
0.0429016
0.0429398
0.0429783
0.0430141
0.0430477
0.043082
0.0431197
0.0431624
0.0432111
0.043265
0.0433217
0.0433778
0.0434293
0.0434717
0.0435021
0.04352
0.0435275
0.043529
0.0427462
0.0427429
0.0427376
0.0427321
0.0427284
0.0427284
0.0427336
0.0427452
0.0427632
0.0427873
0.0428165
0.0428498
0.0428861
0.0429243
0.0429638
0.043005
0.0430454
0.0430814
0.0431132
0.0431439
0.0431759
0.0432113
0.0432512
0.0432958
0.0433438
0.0433931
0.0434401
0.0434811
0.0435122
0.0435317
0.0435406
0.0435426
0.0428134
0.0428088
0.0428025
0.042797
0.0427946
0.0427969
0.0428049
0.0428195
0.0428406
0.0428673
0.0428986
0.0429333
0.0429703
0.0430087
0.0430479
0.0430881
0.0431267
0.0431599
0.0431881
0.0432141
0.0432402
0.0432682
0.0432996
0.0433347
0.0433733
0.0434141
0.0434549
0.0434921
0.0435222
0.0435423
0.0435523
0.0435549
0.0429001
0.0428948
0.0428894
0.0428872
0.0428896
0.0428969
0.0429094
0.0429275
0.0429506
0.0429781
0.0430089
0.0430421
0.0430766
0.0431118
0.0431471
0.0431827
0.0432163
0.0432446
0.0432679
0.0432888
0.0433091
0.0433303
0.0433537
0.04338
0.0434092
0.0434409
0.0434739
0.0435056
0.0435327
0.0435522
0.0435627
0.0435658
0.0430076
0.0430028
0.0430016
0.043006
0.0430152
0.043028
0.0430442
0.0430637
0.0430862
0.0431113
0.0431384
0.0431668
0.0431958
0.0432248
0.0432536
0.0432822
0.0433089
0.0433309
0.0433488
0.0433644
0.0433793
0.0433944
0.0434109
0.0434293
0.0434499
0.0434727
0.0434972
0.043522
0.0435445
0.0435618
0.043572
0.0435753
0.0431387
0.0431368
0.0431428
0.0431542
0.0431683
0.0431836
0.0432
0.0432174
0.043236
0.0432557
0.0432763
0.0432974
0.0433187
0.0433398
0.0433605
0.0433808
0.0433996
0.043415
0.0434274
0.043438
0.0434478
0.0434578
0.0434684
0.0434802
0.0434934
0.0435081
0.0435244
0.0435415
0.043558
0.0435716
0.0435803
0.0435836
0.0432987
0.0433025
0.0433138
0.0433266
0.0433395
0.0433519
0.0433639
0.0433757
0.0433877
0.0433999
0.0434124
0.0434251
0.0434377
0.0434502
0.0434623
0.0434742
0.043485
0.0434939
0.043501
0.043507
0.0435125
0.043518
0.0435238
0.0435301
0.0435373
0.0435453
0.0435542
0.0435638
0.0435735
0.0435821
0.0435881
0.0435907
0.0434942
0.0434972
0.043503
0.0435086
0.0435138
0.0435185
0.0435229
0.0435271
0.0435312
0.0435352
0.0435394
0.0435435
0.0435477
0.0435517
0.0435556
0.0435595
0.043563
0.0435658
0.0435681
0.04357
0.0435717
0.0435735
0.0435753
0.0435772
0.0435794
0.0435819
0.0435846
0.0435876
0.0435907
0.0435936
0.0435958
0.0435969
)
;

boundaryField
{
    movingWall
    {
        type            fixedValue;
        value           uniform 0.0436;
    }
    fixedWalls
    {
        type            zeroGradient;
    }
    floor
    {
        type            zeroGradient;
    }
    frontAndBack
    {
        type            empty;
    }
}


// ************************************************************************* //
