/*--------------------------------*- C++ -*----------------------------------*\
| =========                 |                                                 |
| \\      /  F ield         | OpenFOAM: The Open Source CFD Toolbox           |
|  \\    /   O peration     | Version:  2212                                  |
|   \\  /    A nd           | Website:  www.openfoam.com                      |
|    \\/     M anipulation  |                                                 |
\*---------------------------------------------------------------------------*/
FoamFile
{
    version     2.0;
    format      ascii;
    arch        "LSB;label=64;scalar=64";
    class       volScalarField;
    location    "1450";
    object      Xpr;
}
// * * * * * * * * * * * * * * * * * * * * * * * * * * * * * * * * * * * * * //

dimensions      [1 -3 0 0 0 0 0];

internalField   nonuniform List<scalar> 
1024
(
0.0817084
0.0817096
0.0817127
0.0817183
0.0817274
0.0817405
0.0817581
0.08178
0.0818053
0.0818322
0.0818588
0.0818825
0.0819015
0.0819144
0.0819198
0.0819164
0.0819029
0.0818802
0.0818509
0.081816
0.0817769
0.0817356
0.0816947
0.0816569
0.0816243
0.0815979
0.0815778
0.0815633
0.0815536
0.0815476
0.0815443
0.0815429
0.0817087
0.0817099
0.0817131
0.0817189
0.0817281
0.0817414
0.0817592
0.0817813
0.0818068
0.081834
0.0818607
0.0818844
0.0819034
0.0819161
0.0819214
0.081918
0.0819043
0.0818816
0.0818523
0.0818176
0.0817785
0.0817371
0.0816961
0.0816581
0.0816253
0.0815987
0.0815784
0.0815638
0.0815539
0.0815478
0.0815445
0.0815431
0.0817095
0.0817109
0.0817141
0.08172
0.0817295
0.0817432
0.0817615
0.0817842
0.0818103
0.081838
0.0818652
0.0818892
0.0819081
0.0819205
0.0819254
0.0819216
0.0819078
0.0818849
0.0818556
0.0818208
0.0817818
0.0817404
0.0816991
0.0816608
0.0816275
0.0816004
0.0815797
0.0815647
0.0815547
0.0815484
0.081545
0.0815437
0.0817111
0.0817125
0.0817159
0.081722
0.0817318
0.0817461
0.0817651
0.0817887
0.0818159
0.081845
0.0818734
0.0818981
0.0819169
0.0819288
0.0819328
0.0819282
0.0819136
0.0818903
0.0818607
0.0818259
0.0817869
0.0817454
0.0817038
0.081665
0.081631
0.0816032
0.0815818
0.0815663
0.0815559
0.0815495
0.081546
0.0815445
0.0817137
0.0817151
0.0817186
0.0817249
0.0817352
0.0817501
0.0817702
0.0817952
0.0818243
0.0818557
0.0818864
0.0819125
0.0819314
0.0819423
0.0819448
0.0819386
0.0819227
0.0818982
0.0818678
0.0818326
0.0817935
0.0817518
0.0817099
0.0816704
0.0816355
0.0816068
0.0815846
0.0815686
0.0815577
0.081551
0.0815474
0.0815459
0.0817176
0.081719
0.0817225
0.0817291
0.0817398
0.0817555
0.0817769
0.081804
0.081836
0.081871
0.0819053
0.0819337
0.0819531
0.0819626
0.0819628
0.081954
0.0819355
0.0819089
0.081877
0.0818408
0.0818011
0.081759
0.0817167
0.0816765
0.0816408
0.0816111
0.081588
0.0815713
0.08156
0.081553
0.0815492
0.0815476
0.0817234
0.0817247
0.0817283
0.081735
0.0817461
0.0817627
0.0817858
0.0818157
0.0818518
0.0818918
0.0819311
0.081963
0.0819832
0.081991
0.0819881
0.0819753
0.081953
0.0819228
0.081888
0.0818498
0.0818089
0.0817661
0.0817231
0.0816823
0.0816458
0.0816153
0.0815915
0.0815742
0.0815625
0.0815552
0.0815513
0.0815497
0.081732
0.0817333
0.0817367
0.0817435
0.081755
0.0817727
0.0817979
0.0818313
0.0818726
0.081919
0.0819646
0.0820009
0.0820223
0.0820283
0.0820213
0.0820036
0.0819758
0.0819402
0.0819008
0.0818591
0.0818159
0.0817717
0.0817279
0.0816864
0.0816494
0.0816185
0.0815944
0.0815768
0.081565
0.0815577
0.0815537
0.0815521
0.081745
0.0817462
0.0817496
0.0817565
0.0817684
0.0817873
0.0818149
0.0818525
0.0818999
0.0819539
0.0820065
0.0820477
0.0820706
0.0820745
0.0820631
0.0820394
0.0820047
0.0819618
0.0819155
0.0818684
0.0818212
0.0817746
0.0817295
0.0816876
0.0816506
0.0816198
0.081596
0.0815788
0.0815672
0.0815601
0.0815563
0.0815548
0.0817652
0.0817664
0.0817697
0.0817767
0.0817892
0.0818095
0.0818399
0.0818823
0.0819365
0.0819981
0.0820578
0.0821036
0.0821276
0.0821294
0.0821137
0.0820841
0.0820418
0.0819897
0.0819342
0.081879
0.0818258
0.0817752
0.0817281
0.0816856
0.0816489
0.0816192
0.0815966
0.0815805
0.0815699
0.0815635
0.0815602
0.0815589
0.0817964
0.0817975
0.081801
0.0818083
0.0818217
0.0818438
0.0818776
0.0819251
0.0819859
0.0820547
0.0821202
0.0821693
0.0821938
0.0821939
0.0821753
0.0821417
0.0820928
0.082031
0.0819642
0.0818979
0.0818357
0.0817787
0.0817278
0.0816839
0.0816477
0.0816196
0.0815989
0.081585
0.0815762
0.0815714
0.0815691
0.0815683
0.081843
0.0818443
0.0818481
0.0818562
0.081871
0.0818956
0.0819333
0.081986
0.0820528
0.082127
0.0821961
0.0822467
0.0822714
0.0822719
0.0822547
0.0822224
0.0821723
0.0821047
0.0820272
0.0819478
0.0818726
0.0818047
0.0817461
0.0816979
0.0816604
0.0816332
0.081615
0.081604
0.0815983
0.081596
0.0815956
0.0815957
0.0819084
0.0819099
0.0819144
0.0819238
0.0819408
0.0819687
0.0820107
0.0820686
0.0821403
0.0822178
0.0822883
0.0823395
0.0823665
0.0823732
0.0823664
0.0823473
0.0823096
0.082249
0.0821709
0.0820833
0.0819945
0.0819107
0.081837
0.0817765
0.0817312
0.0817005
0.0816822
0.0816735
0.0816712
0.0816722
0.0816743
0.0816758
0.0819915
0.0819934
0.0819988
0.0820101
0.08203
0.0820622
0.0821095
0.0821729
0.0822489
0.0823285
0.0823998
0.0824538
0.0824897
0.0825137
0.0825319
0.0825446
0.0825429
0.0825161
0.0824637
0.082391
0.0823049
0.0822132
0.0821233
0.0820423
0.0819763
0.081928
0.0818974
0.0818818
0.0818769
0.0818778
0.0818806
0.0818828
0.0820841
0.0820864
0.0820929
0.0821062
0.0821295
0.0821664
0.0822192
0.0822878
0.0823677
0.0824502
0.0825259
0.0825904
0.0826459
0.0826993
0.0827558
0.082816
0.082871
0.0829053
0.0829124
0.0828932
0.0828498
0.0827861
0.082708
0.0826231
0.0825395
0.0824646
0.0824045
0.0823622
0.0823367
0.0823242
0.0823198
0.0823193
0.0821705
0.0821728
0.0821796
0.0821935
0.0822179
0.0822562
0.0823108
0.0823816
0.0824648
0.0825536
0.0826407
0.0827228
0.0828019
0.0828834
0.0829713
0.0830671
0.0831637
0.0832479
0.0833146
0.0833627
0.0833897
0.0833939
0.0833748
0.0833345
0.0832774
0.083211
0.0831438
0.0830841
0.0830378
0.0830071
0.0829905
0.0829843
0.0822346
0.0822368
0.0822432
0.0822561
0.0822789
0.0823149
0.0823668
0.0824352
0.0825177
0.082609
0.0827025
0.0827934
0.0828809
0.0829668
0.0830525
0.0831382
0.0832206
0.0832991
0.0833776
0.0834562
0.0835304
0.0835944
0.083643
0.0836728
0.0836825
0.0836735
0.08365
0.0836187
0.0835869
0.0835611
0.0835444
0.083537
0.0822731
0.0822752
0.0822809
0.0822925
0.0823126
0.0823444
0.0823906
0.0824527
0.0825293
0.0826164
0.0827075
0.0827965
0.0828792
0.0829537
0.0830185
0.0830725
0.0831166
0.083163
0.0832256
0.0833064
0.0833992
0.0834944
0.0835829
0.0836578
0.0837147
0.0837526
0.0837726
0.0837783
0.0837745
0.0837669
0.0837598
0.083756
0.0822933
0.0822953
0.0823004
0.0823105
0.0823279
0.0823553
0.0823953
0.0824497
0.0825179
0.0825969
0.0826811
0.0827635
0.0828383
0.0829009
0.0829485
0.0829796
0.0829982
0.0830232
0.0830726
0.0831516
0.0832554
0.0833732
0.0834918
0.0835994
0.0836879
0.0837536
0.0837971
0.0838218
0.0838326
0.083835
0.0838338
0.0838323
0.0823024
0.0823042
0.0823088
0.0823177
0.0823326
0.082356
0.0823902
0.0824367
0.0824959
0.0825654
0.0826405
0.0827148
0.0827817
0.082836
0.0828741
0.0828952
0.0829053
0.082924
0.0829674
0.0830422
0.0831468
0.0832736
0.0834099
0.0835419
0.0836571
0.0837478
0.0838119
0.0838518
0.0838725
0.0838806
0.083882
0.0838814
0.0823063
0.0823078
0.0823117
0.0823192
0.0823319
0.0823517
0.0823805
0.08242
0.0824704
0.0825302
0.0825957
0.0826614
0.0827216
0.0827712
0.082807
0.0828291
0.0828442
0.0828685
0.082914
0.0829869
0.0830881
0.0832134
0.083354
0.0834973
0.0836294
0.0837393
0.0838215
0.0838758
0.0839065
0.0839202
0.0839239
0.0839238
0.0823119
0.0823128
0.0823155
0.082321
0.0823309
0.0823469
0.0823707
0.0824036
0.0824461
0.0824971
0.0825539
0.0826123
0.0826679
0.0827167
0.0827564
0.082788
0.0828171
0.0828541
0.0829066
0.08298
0.0830768
0.0831956
0.0833313
0.0834744
0.0836126
0.0837339
0.0838295
0.0838963
0.0839364
0.0839558
0.0839621
0.0839626
0.0823275
0.0823274
0.082328
0.0823304
0.0823364
0.0823477
0.0823663
0.0823934
0.0824293
0.0824736
0.0825243
0.0825786
0.0826334
0.0826859
0.0827347
0.0827811
0.0828282
0.0828799
0.08294
0.0830138
0.083105
0.0832147
0.0833403
0.0834754
0.0836104
0.0837346
0.083838
0.0839143
0.0839629
0.0839879
0.083997
0.0839982
0.0823624
0.0823607
0.0823581
0.0823561
0.0823569
0.0823629
0.0823764
0.0823987
0.0824306
0.0824716
0.0825206
0.0825756
0.0826342
0.0826943
0.082755
0.0828174
0.0828815
0.0829452
0.0830105
0.0830827
0.0831663
0.0832641
0.0833761
0.0834983
0.0836238
0.0837438
0.0838489
0.083931
0.0839863
0.0840168
0.0840287
0.0840307
0.0824247
0.0824208
0.0824142
0.0824072
0.0824028
0.0824042
0.0824141
0.0824344
0.082466
0.0825085
0.0825605
0.0826202
0.0826855
0.0827545
0.0828261
0.0829012
0.0829768
0.0830473
0.0831134
0.083181
0.083255
0.0833392
0.083435
0.0835409
0.0836525
0.0837629
0.0838641
0.0839477
0.0840075
0.0840425
0.0840574
0.0840604
0.0825203
0.0825139
0.0825034
0.0824926
0.0824854
0.0824854
0.0824956
0.0825183
0.0825537
0.0826011
0.0826586
0.0827242
0.0827955
0.0828706
0.0829484
0.0830294
0.083109
0.0831798
0.0832424
0.0833027
0.0833657
0.0834353
0.0835139
0.0836016
0.0836961
0.0837929
0.0838855
0.083966
0.0840273
0.0840656
0.0840832
0.0840872
0.0826525
0.0826435
0.082631
0.0826203
0.0826156
0.08262
0.0826358
0.0826645
0.082706
0.0827585
0.0828201
0.0828884
0.0829613
0.0830368
0.0831139
0.0831929
0.0832688
0.0833342
0.0833896
0.0834407
0.0834921
0.0835473
0.083609
0.0836781
0.083754
0.0838343
0.0839145
0.0839878
0.0840469
0.0840865
0.0841062
0.0841113
0.0828231
0.0828126
0.082802
0.0827978
0.0828025
0.0828168
0.0828414
0.0828769
0.0829224
0.0829765
0.0830371
0.0831024
0.0831703
0.0832395
0.0833091
0.0833791
0.0834452
0.0835008
0.0835467
0.0835877
0.0836276
0.0836694
0.0837155
0.0837671
0.0838246
0.083887
0.0839518
0.0840142
0.0840677
0.084106
0.0841266
0.0841327
0.0830346
0.083025
0.0830227
0.0830314
0.0830495
0.0830747
0.0831066
0.083145
0.0831892
0.0832386
0.0832919
0.0833478
0.0834048
0.0834619
0.0835186
0.0835749
0.0836272
0.0836707
0.0837059
0.0837366
0.0837657
0.0837956
0.083828
0.0838642
0.0839047
0.0839496
0.0839978
0.0840465
0.0840908
0.0841249
0.0841448
0.0841515
0.0832925
0.0832888
0.0833005
0.083323
0.0833507
0.0833809
0.0834131
0.0834474
0.0834839
0.0835226
0.0835631
0.0836047
0.0836466
0.0836881
0.0837288
0.0837688
0.0838058
0.0838361
0.0838604
0.0838813
0.0839007
0.0839202
0.0839411
0.0839642
0.0839902
0.0840193
0.0840512
0.0840849
0.0841173
0.0841441
0.0841613
0.0841678
0.0836073
0.0836148
0.083637
0.0836622
0.0836874
0.0837119
0.0837355
0.0837588
0.0837823
0.0838063
0.083831
0.0838559
0.0838808
0.0839053
0.0839291
0.0839525
0.0839739
0.0839913
0.0840053
0.0840171
0.0840279
0.0840387
0.0840501
0.0840626
0.0840766
0.0840923
0.0841098
0.0841287
0.0841478
0.0841648
0.0841767
0.0841818
0.0839919
0.0839978
0.0840092
0.0840202
0.0840304
0.0840397
0.0840484
0.0840566
0.0840646
0.0840726
0.0840807
0.0840889
0.084097
0.084105
0.0841127
0.0841203
0.0841271
0.0841328
0.0841372
0.084141
0.0841444
0.0841478
0.0841513
0.0841552
0.0841596
0.0841644
0.0841698
0.0841757
0.0841818
0.0841875
0.0841918
0.0841938
)
;

boundaryField
{
    movingWall
    {
        type            fixedValue;
        value           uniform 0.0842;
    }
    fixedWalls
    {
        type            zeroGradient;
    }
    floor
    {
        type            zeroGradient;
    }
    frontAndBack
    {
        type            empty;
    }
}


// ************************************************************************* //
