/*--------------------------------*- C++ -*----------------------------------*\
| =========                 |                                                 |
| \\      /  F ield         | OpenFOAM: The Open Source CFD Toolbox           |
|  \\    /   O peration     | Version:  2212                                  |
|   \\  /    A nd           | Website:  www.openfoam.com                      |
|    \\/     M anipulation  |                                                 |
\*---------------------------------------------------------------------------*/
FoamFile
{
    version     2.0;
    format      ascii;
    arch        "LSB;label=64;scalar=64";
    class       surfaceScalarField;
    location    "0.1";
    object      phi;
}
// * * * * * * * * * * * * * * * * * * * * * * * * * * * * * * * * * * * * * //

dimensions      [0 3 -1 0 0 0 0];

oriented        oriented;

internalField   nonuniform List<scalar> 
65152
(
1.29609e-12
-1.29608e-12
7.82706e-12
-6.53096e-12
1.68776e-11
-9.05057e-12
2.67148e-11
-9.83714e-12
3.67081e-11
-9.99328e-12
4.66661e-11
-9.95802e-12
5.65231e-11
-9.85699e-12
6.62439e-11
-9.7208e-12
7.58007e-11
-9.55679e-12
8.5168e-11
-9.36727e-12
9.43215e-11
-9.15346e-12
1.03238e-10
-8.91622e-12
1.11894e-10
-8.65632e-12
1.20269e-10
-8.37449e-12
1.2834e-10
-8.07145e-12
1.36088e-10
-7.74792e-12
1.43493e-10
-7.40467e-12
1.50535e-10
-7.04249e-12
1.57197e-10
-6.66224e-12
1.63462e-10
-6.26479e-12
1.69313e-10
-5.85112e-12
1.74736e-10
-5.4222e-12
1.79715e-10
-4.97909e-12
1.84238e-10
-4.52289e-12
1.88292e-10
-4.05477e-12
1.91868e-10
-3.57597e-12
1.94956e-10
-3.0878e-12
1.97548e-10
-2.59166e-12
1.99637e-10
-2.0891e-12
2.01219e-10
-1.58185e-12
2.02291e-10
-1.07198e-12
2.02853e-10
-5.62158e-13
2.0291e-10
-5.70679e-14
2.02456e-10
4.54218e-13
2.01497e-10
9.58354e-13
2.00034e-10
1.46374e-12
1.98065e-10
1.96889e-12
1.95593e-10
2.47144e-12
1.92624e-10
2.96932e-12
1.89164e-10
3.46067e-12
1.8522e-10
3.94374e-12
1.80803e-10
4.41696e-12
1.75924e-10
4.87885e-12
1.70596e-10
5.32807e-12
1.64833e-10
5.7633e-12
1.58649e-10
6.18337e-12
1.52062e-10
6.58713e-12
1.45089e-10
6.97354e-12
1.37747e-10
7.3416e-12
1.30057e-10
7.69039e-12
1.22038e-10
8.01908e-12
1.13711e-10
8.3269e-12
1.05098e-10
8.61314e-12
9.62208e-11
8.87716e-12
8.71024e-11
9.1184e-12
7.77661e-11
9.33635e-12
6.82356e-11
9.53053e-12
5.85351e-11
9.70052e-12
4.86892e-11
9.84591e-12
3.8723e-11
9.96627e-12
2.86619e-11
1.00612e-11
1.85319e-11
1.013e-11
8.36045e-12
1.01715e-11
-1.82743e-12
1.01879e-11
-1.2019e-11
1.01916e-11
-2.21975e-11
1.01786e-11
-3.23334e-11
1.01359e-11
-4.23981e-11
1.00647e-11
-5.23645e-11
9.96646e-12
-6.22063e-11
9.84183e-12
-7.18978e-11
9.69149e-12
-8.14138e-11
9.51602e-12
-9.07297e-11
9.31596e-12
-9.98216e-11
9.09187e-12
-1.08666e-10
8.84429e-12
-1.1724e-10
8.57385e-12
-1.25521e-10
8.28118e-12
-1.33488e-10
7.96701e-12
-1.4112e-10
7.6321e-12
-1.48397e-10
7.2773e-12
-1.55301e-10
6.9035e-12
-1.61812e-10
6.51169e-12
-1.67915e-10
6.10289e-12
-1.73594e-10
5.67823e-12
-1.78832e-10
5.23886e-12
-1.83618e-10
4.78605e-12
-1.8794e-10
4.32111e-12
-1.91785e-10
3.84544e-12
-1.95146e-10
3.36057e-12
-1.98014e-10
2.86812e-12
-2.00384e-10
2.36991e-12
-2.02252e-10
1.86792e-12
-2.03616e-10
1.36427e-12
-2.04477e-10
8.61132e-13
-2.04837e-10
3.59743e-13
-2.0469e-10
-1.46924e-13
-2.04036e-10
-6.53947e-13
-2.02872e-10
-1.16419e-12
-2.01198e-10
-1.67404e-12
-1.99017e-10
-2.18099e-12
-1.96334e-10
-2.68303e-12
-1.93156e-10
-3.17846e-12
-1.8949e-10
-3.66571e-12
-1.85347e-10
-4.14338e-12
-1.80737e-10
-4.61011e-12
-1.75672e-10
-5.06468e-12
-1.70166e-10
-5.50591e-12
-1.64233e-10
-5.93267e-12
-1.5789e-10
-6.34393e-12
-1.51151e-10
-6.73868e-12
-1.44035e-10
-7.11599e-12
-1.3656e-10
-7.47497e-12
-1.28745e-10
-7.81481e-12
-1.20611e-10
-8.13471e-12
-1.12177e-10
-8.43393e-12
-1.03465e-10
-8.71177e-12
-9.44979e-11
-8.96754e-12
-8.52974e-11
-9.20054e-12
-7.58875e-11
-9.41006e-12
-6.62923e-11
-9.59523e-12
-5.65375e-11
-9.7549e-12
-4.66508e-11
-9.8868e-12
-3.66673e-11
-9.98359e-12
-2.66527e-11
-1.00147e-11
-1.67985e-11
-9.85428e-12
-7.73697e-12
-9.06167e-12
-1.21319e-12
-6.52389e-12
-1.21321e-12
3.44677e-12
-4.74284e-12
1.42546e-11
-1.73387e-11
2.82948e-11
-2.30908e-11
4.32559e-11
-2.47983e-11
5.83427e-11
-2.508e-11
7.33315e-11
-2.49468e-11
8.8153e-11
-2.46785e-11
1.0277e-10
-2.43381e-11
1.17152e-10
-2.39383e-11
1.31267e-10
-2.3482e-11
1.45083e-10
-2.29703e-11
1.58571e-10
-2.24042e-11
1.717e-10
-2.17846e-11
1.84438e-10
-2.11128e-11
1.96757e-10
-2.039e-11
2.08626e-10
-1.96174e-11
2.20018e-10
-1.87966e-11
2.30905e-10
-1.7929e-11
2.41259e-10
-1.70164e-11
2.51054e-10
-1.60604e-11
2.60266e-10
-1.5063e-11
2.6887e-10
-1.40261e-11
2.76843e-10
-1.29519e-11
2.84163e-10
-1.18426e-11
2.90808e-10
-1.07005e-11
2.96761e-10
-9.52813e-12
3.02001e-10
-8.32813e-12
3.06512e-10
-7.10319e-12
3.1028e-10
-5.85616e-12
3.13288e-10
-4.58994e-12
3.15523e-10
-3.30745e-12
3.16972e-10
-2.01148e-12
3.1762e-10
-7.04139e-13
3.17463e-10
6.11009e-13
3.16496e-10
1.92568e-12
3.14718e-10
3.24133e-12
3.12132e-10
4.55515e-12
3.08741e-10
5.86198e-12
3.04552e-10
7.15862e-12
2.99571e-10
8.4414e-12
2.93808e-10
9.70667e-12
2.87275e-10
1.09508e-11
2.79983e-10
1.21702e-11
2.7195e-10
1.33613e-11
2.63193e-10
1.45206e-11
2.53731e-10
1.56448e-11
2.43588e-10
1.67305e-11
2.32787e-10
1.77744e-11
2.21355e-10
1.87736e-11
2.09321e-10
1.9725e-11
1.96714e-10
2.06259e-11
1.83567e-10
2.14735e-11
1.69915e-10
2.22654e-11
1.55793e-10
2.29992e-11
1.41239e-10
2.36728e-11
1.26291e-10
2.42843e-11
1.1099e-10
2.48317e-11
9.53768e-11
2.53135e-11
7.94944e-11
2.57283e-11
6.3386e-11
2.60748e-11
4.70952e-11
2.6352e-11
3.06663e-11
2.65589e-11
1.41429e-11
2.66949e-11
-2.42962e-12
2.67605e-11
-1.89973e-11
2.67592e-11
-3.55089e-11
2.66902e-11
-5.19213e-11
2.65483e-11
-6.81899e-11
2.63334e-11
-8.42702e-11
2.60468e-11
-1.00118e-10
2.56895e-11
-1.15689e-10
2.5263e-11
-1.30942e-10
2.47687e-11
-1.45834e-10
2.42082e-11
-1.60326e-10
2.35833e-11
-1.74377e-10
2.28961e-11
-1.87952e-10
2.21486e-11
-2.01014e-10
2.13431e-11
-2.13529e-10
2.04823e-11
-2.25466e-10
1.95686e-11
-2.36794e-10
1.8605e-11
-2.47484e-10
1.75943e-11
-2.57512e-10
1.65397e-11
-2.66854e-10
1.54442e-11
-2.75487e-10
1.43113e-11
-2.83392e-10
1.31443e-11
-2.90553e-10
1.19467e-11
-2.96954e-10
1.0722e-11
-3.02582e-10
9.47392e-12
-3.07428e-10
8.20603e-12
-3.11482e-10
6.92204e-12
-3.14738e-10
5.62566e-12
-3.1719e-10
4.32061e-12
-3.18836e-10
3.01012e-12
-3.19674e-10
1.6989e-12
-3.19707e-10
3.92284e-13
-3.18932e-10
-9.21805e-13
-3.17361e-10
-2.22458e-12
-3.15009e-10
-3.51689e-12
-3.11887e-10
-4.79606e-12
-3.08009e-10
-6.05903e-12
-3.03389e-10
-7.30274e-12
-2.98043e-10
-8.52414e-12
-2.91989e-10
-9.72034e-12
-2.85244e-10
-1.08885e-11
-2.77828e-10
-1.20261e-11
-2.69762e-10
-1.31305e-11
-2.61069e-10
-1.41993e-11
-2.51771e-10
-1.52304e-11
-2.41894e-10
-1.62216e-11
-2.31462e-10
-1.71709e-11
-2.20501e-10
-1.80764e-11
-2.0904e-10
-1.89365e-11
-1.97105e-10
-1.97496e-11
-1.84726e-10
-2.0514e-11
-1.71931e-10
-2.12285e-11
-1.58752e-10
-2.18918e-11
-1.45217e-10
-2.25026e-11
-1.31357e-10
-2.306e-11
-1.17204e-10
-2.35629e-11
-1.02789e-10
-2.40105e-11
-8.81428e-11
-2.44016e-11
-7.32961e-11
-2.47336e-11
-5.82859e-11
-2.49939e-11
-4.31815e-11
-2.51192e-11
-2.82063e-11
-2.48296e-11
-1.41568e-11
-2.31113e-11
-3.35573e-12
-1.73251e-11
-4.56897e-12
3.95022e-12
-8.69304e-12
1.54624e-11
-2.88509e-11
3.02224e-11
-3.78508e-11
4.59205e-11
-4.04963e-11
6.17603e-11
-4.09198e-11
7.75105e-11
-4.06971e-11
9.30946e-11
-4.02626e-11
1.08471e-10
-3.97145e-11
1.23605e-10
-3.90724e-11
1.38464e-10
-3.83405e-11
1.53014e-10
-3.75204e-11
1.67223e-10
-3.66134e-11
1.81059e-10
-3.56209e-11
1.94491e-10
-3.45446e-11
2.07487e-10
-3.33861e-11
2.20017e-10
-3.21474e-11
2.32051e-10
-3.08305e-11
2.4356e-10
-2.94377e-11
2.54515e-10
-2.79714e-11
2.64889e-10
-2.64342e-11
2.74655e-10
-2.48289e-11
2.83787e-10
-2.31584e-11
2.92261e-10
-2.14258e-11
3.00053e-10
-1.96346e-11
3.07141e-10
-1.77882e-11
3.13503e-10
-1.58904e-11
3.1912e-10
-1.3945e-11
3.23973e-10
-1.19563e-11
3.28045e-10
-9.92843e-12
3.31321e-10
-7.86581e-12
3.33787e-10
-5.77295e-12
3.35429e-10
-3.65431e-12
3.36239e-10
-1.51367e-12
3.36204e-10
6.46214e-13
3.35325e-10
2.80436e-12
3.33596e-10
4.97082e-12
3.31013e-10
7.13778e-12
3.27578e-10
9.29682e-12
3.23295e-10
1.14425e-11
3.18167e-10
1.35688e-11
3.12204e-10
1.56699e-11
3.05415e-10
1.77397e-11
2.97813e-10
1.97722e-11
2.89413e-10
2.17614e-11
2.80232e-10
2.37013e-11
2.70291e-10
2.5586e-11
2.59612e-10
2.74098e-11
2.48219e-10
2.9167e-11
2.36141e-10
3.08521e-11
2.23406e-10
3.24598e-11
2.10047e-10
3.39849e-11
1.96098e-10
3.54226e-11
1.81596e-10
3.67682e-11
1.66578e-10
3.80174e-11
1.51084e-10
3.91661e-11
1.35158e-10
4.02106e-11
1.18842e-10
4.11475e-11
1.02182e-10
4.19737e-11
8.52238e-11
4.26865e-11
6.80151e-11
4.32835e-11
5.06041e-11
4.37631e-11
3.30396e-11
4.41235e-11
1.53709e-11
4.43636e-11
-2.35052e-12
4.4482e-11
-2.00676e-11
4.44763e-11
-3.77246e-11
4.43472e-11
-5.52713e-11
4.40951e-11
-7.26584e-11
4.37206e-11
-8.98368e-11
4.32252e-11
-1.06758e-10
4.26107e-11
-1.23374e-10
4.18793e-11
-1.39639e-10
4.10335e-11
-1.55507e-10
4.00763e-11
-1.70935e-10
3.90111e-11
-1.8588e-10
3.78415e-11
-2.00303e-10
3.65716e-11
-2.14166e-10
3.52055e-11
-2.27431e-10
3.37479e-11
-2.40066e-10
3.22037e-11
-2.52039e-10
3.05779e-11
-2.63321e-10
2.88758e-11
-2.73884e-10
2.71029e-11
-2.83704e-10
2.52649e-11
-2.92761e-10
2.33675e-11
-3.01033e-10
2.14167e-11
-3.08505e-10
1.94185e-11
-3.15162e-10
1.73788e-11
-3.20992e-10
1.53038e-11
-3.25985e-10
1.31995e-11
-3.30135e-10
1.10721e-11
-3.33437e-10
8.92741e-12
-3.35888e-10
6.77152e-12
-3.37488e-10
4.60984e-12
-3.3824e-10
2.45068e-12
-3.38152e-10
3.04416e-13
-3.3722e-10
-1.85393e-12
-3.35457e-10
-3.98731e-12
-3.32874e-10
-6.09948e-12
-3.29484e-10
-8.1861e-12
-3.25301e-10
-1.02425e-11
-3.2034e-10
-1.22639e-11
-3.14618e-10
-1.42459e-11
-3.08155e-10
-1.61841e-11
-3.00969e-10
-1.80742e-11
-2.93083e-10
-1.99124e-11
-2.84518e-10
-2.16949e-11
-2.753e-10
-2.3418e-11
-2.65452e-10
-2.50786e-11
-2.55e-10
-2.66733e-11
-2.43971e-10
-2.81993e-11
-2.32394e-10
-2.96539e-11
-2.20296e-10
-3.10345e-11
-2.07707e-10
-3.23388e-11
-1.94657e-10
-3.35645e-11
-1.81175e-10
-3.47097e-11
-1.67295e-10
-3.57726e-11
-1.53046e-10
-3.67514e-11
-1.38461e-10
-3.76448e-11
-1.23573e-10
-3.84513e-11
-1.08414e-10
-3.91697e-11
-9.30171e-11
-3.97987e-11
-7.74167e-11
-4.03341e-11
-6.16543e-11
-4.07564e-11
-4.58063e-11
-4.09674e-11
-3.01041e-11
-4.05318e-11
-1.53456e-11
-3.78699e-11
-3.85271e-12
-2.88181e-11
-8.4217e-12
4.09254e-12
-1.27856e-11
1.59187e-11
-4.0677e-11
3.10554e-11
-5.29875e-11
4.71489e-11
-5.65897e-11
6.33905e-11
-5.71614e-11
7.95443e-11
-5.68508e-11
9.55312e-11
-5.62494e-11
1.11308e-10
-5.54913e-11
1.26839e-10
-5.46034e-11
1.4209e-10
-5.35914e-11
1.57027e-10
-5.24576e-11
1.71617e-10
-5.12037e-11
1.85828e-10
-4.98315e-11
1.99627e-10
-4.83431e-11
2.12981e-10
-4.67408e-11
2.25861e-10
-4.5027e-11
2.38235e-10
-4.32044e-11
2.50073e-10
-4.12759e-11
2.61346e-10
-3.92448e-11
2.72026e-10
-3.71143e-11
2.82086e-10
-3.48882e-11
2.91498e-10
-3.25703e-11
3.00237e-10
-3.01649e-11
3.08279e-10
-2.76763e-11
3.156e-10
-2.51093e-11
3.22178e-10
-2.24688e-11
3.27993e-10
-1.97601e-11
3.33026e-10
-1.69888e-11
3.37258e-10
-1.41606e-11
3.40674e-10
-1.12815e-11
3.43259e-10
-8.35783e-12
3.45e-10
-5.3959e-12
3.45888e-10
-2.40162e-12
3.45909e-10
6.25834e-13
3.45065e-10
3.64764e-12
3.43349e-10
6.68685e-12
3.40756e-10
9.73076e-12
3.37286e-10
1.2767e-11
3.32941e-10
1.57877e-11
3.27725e-10
1.87846e-11
3.21646e-10
2.17489e-11
3.14714e-10
2.46722e-11
3.0694e-10
2.75458e-11
2.98341e-10
3.03612e-11
2.88932e-10
3.31098e-11
2.78735e-10
3.57832e-11
2.67772e-10
3.83728e-11
2.56069e-10
4.08704e-11
2.43653e-10
4.32681e-11
2.30555e-10
4.55579e-11
2.16807e-10
4.77324e-11
2.02446e-10
4.97842e-11
1.87507e-10
5.17064e-11
1.72032e-10
5.34926e-11
1.56062e-10
5.51366e-11
1.3964e-10
5.66327e-11
1.22812e-10
5.79759e-11
1.05624e-10
5.91614e-11
8.81252e-11
6.01852e-11
7.03651e-11
6.10436e-11
5.23943e-11
6.17339e-11
3.42644e-11
6.22534e-11
1.60278e-11
6.26002e-11
-2.26159e-12
6.27714e-11
-2.05477e-11
6.27624e-11
-3.8775e-11
6.25746e-11
-5.68896e-11
6.22097e-11
-7.48388e-11
6.16699e-11
-9.25709e-11
6.09572e-11
-1.10035e-10
6.00746e-11
-1.27181e-10
5.90252e-11
-1.4396e-10
5.78129e-11
-1.60326e-10
5.64421e-11
-1.76232e-10
5.49179e-11
-1.91637e-10
5.32458e-11
-2.06497e-10
5.14317e-11
-2.20774e-10
4.94821e-11
-2.34429e-10
4.74038e-11
-2.4743e-10
4.52039e-11
-2.59742e-10
4.289e-11
-2.71336e-10
4.04698e-11
-2.82184e-10
3.79515e-11
-2.92263e-10
3.53433e-11
-3.01549e-10
3.26535e-11
-3.10023e-10
2.98908e-11
-3.17668e-10
2.70637e-11
-3.2447e-10
2.4181e-11
-3.30418e-10
2.12513e-11
-3.35502e-10
1.82832e-11
-3.39715e-10
1.52854e-11
-3.43054e-10
1.22663e-11
-3.45517e-10
9.23444e-12
-3.47105e-10
6.19754e-12
-3.47821e-10
3.16733e-12
-3.4768e-10
1.62675e-13
-3.46669e-10
-2.8648e-12
-3.44807e-10
-5.84923e-12
-3.42104e-10
-8.8021e-12
-3.38574e-10
-1.17168e-11
-3.34229e-10
-1.45868e-11
-3.29088e-10
-1.74054e-11
-3.23167e-10
-2.01667e-11
-3.16487e-10
-2.28646e-11
-3.09068e-10
-2.54937e-11
-3.00932e-10
-2.80485e-11
-2.92102e-10
-3.0524e-11
-2.82605e-10
-3.29157e-11
-2.72465e-10
-3.52189e-11
-2.61708e-10
-3.74296e-11
-2.50364e-10
-3.9544e-11
-2.3846e-10
-4.15583e-11
-2.26025e-10
-4.34694e-11
-2.1309e-10
-4.5274e-11
-1.99685e-10
-4.69695e-11
-1.85841e-10
-4.85531e-11
-1.71592e-10
-5.00225e-11
-1.56968e-10
-5.13757e-11
-1.42002e-10
-5.26105e-11
-1.26728e-10
-5.37255e-11
-1.11179e-10
-5.47189e-11
-9.53889e-11
-5.55887e-11
-7.93938e-11
-5.63294e-11
-6.32363e-11
-5.6914e-11
-4.69954e-11
-5.72084e-11
-3.09073e-11
-5.662e-11
-1.57823e-11
-5.2995e-11
-3.98629e-12
-4.06142e-11
-1.2408e-11
4.23663e-12
-1.70222e-11
1.64381e-11
-5.28785e-11
3.20454e-11
-6.85947e-11
4.8639e-11
-7.31834e-11
6.53877e-11
-7.39101e-11
8.20481e-11
-7.35112e-11
9.85388e-11
-7.27402e-11
1.14816e-10
-7.1768e-11
1.30842e-10
-7.06294e-11
1.46582e-10
-6.93318e-11
1.62002e-10
-6.78779e-11
1.77068e-10
-6.62698e-11
1.91747e-10
-6.45098e-11
2.06004e-10
-6.26004e-11
2.19808e-10
-6.05444e-11
2.33125e-10
-5.83447e-11
2.45926e-10
-5.60048e-11
2.58178e-10
-5.3528e-11
2.69852e-10
-5.09184e-11
2.80917e-10
-4.81801e-11
2.91347e-10
-4.53176e-11
3.01112e-10
-4.23356e-11
3.10187e-10
-3.92395e-11
3.18545e-10
-3.60347e-11
3.26163e-10
-3.27271e-11
3.33017e-10
-2.93228e-11
3.39086e-10
-2.58286e-11
3.44348e-10
-2.22514e-11
3.48786e-10
-1.85985e-11
3.52382e-10
-1.48776e-11
3.55121e-10
-1.10966e-11
3.56989e-10
-7.26385e-12
3.57974e-10
-3.38702e-12
3.58062e-10
5.3832e-13
3.57256e-10
4.45395e-12
3.55545e-10
8.39745e-12
3.52926e-10
1.23494e-11
3.49398e-10
1.62955e-11
3.44961e-10
2.02245e-11
3.3962e-10
2.41255e-11
3.33382e-10
2.79871e-11
3.26256e-10
3.17981e-11
3.18255e-10
3.55472e-11
3.09393e-10
3.92232e-11
2.99688e-10
4.28145e-11
2.89162e-10
4.63101e-11
2.77836e-10
4.96987e-11
2.65737e-10
5.29692e-11
2.52894e-10
5.61111e-11
2.39338e-10
5.91137e-11
2.25104e-10
6.19668e-11
2.10227e-10
6.46608e-11
1.94747e-10
6.71863e-11
1.78706e-10
6.95344e-11
1.62145e-10
7.16969e-11
1.45112e-10
7.36661e-11
1.27653e-10
7.54348e-11
1.09818e-10
7.69968e-11
9.16563e-11
7.83465e-11
7.32212e-11
7.94788e-11
5.45654e-11
8.03897e-11
3.57431e-11
8.10758e-11
1.68094e-11
8.15339e-11
-2.17941e-12
8.17602e-11
-2.11654e-11
8.17484e-11
-4.00908e-11
8.15e-11
-5.88993e-11
8.10182e-11
-7.75351e-11
8.03057e-11
-9.59437e-11
7.93659e-11
-1.14072e-10
7.82025e-11
-1.31867e-10
7.68201e-11
-1.49278e-10
7.5224e-11
-1.66256e-10
7.34203e-11
-1.82754e-10
7.14156e-11
-1.98725e-10
6.92176e-11
-2.14128e-10
6.68343e-11
-2.2892e-10
6.42744e-11
-2.43063e-10
6.1547e-11
-2.56521e-10
5.8662e-11
-2.69261e-10
5.56293e-11
-2.8125e-10
5.24594e-11
-2.92462e-10
4.91632e-11
-3.0287e-10
4.57516e-11
-3.12453e-10
4.22357e-11
-3.21189e-10
3.86271e-11
-3.29062e-10
3.4937e-11
-3.36058e-10
3.11769e-11
-3.42165e-10
2.73583e-11
-3.47375e-10
2.34925e-11
-3.5168e-10
1.95907e-11
-3.55078e-10
1.56642e-11
-3.57568e-10
1.17241e-11
-3.59152e-10
7.78146e-12
-3.59834e-10
3.84969e-12
-3.59614e-10
-5.69971e-14
-3.58508e-10
-3.97116e-12
-3.56521e-10
-7.83684e-12
-3.53664e-10
-1.16586e-11
-3.49953e-10
-1.54283e-11
-3.45402e-10
-1.91373e-11
-3.4003e-10
-2.27775e-11
-3.33856e-10
-2.63412e-11
-3.269e-10
-2.98209e-11
-3.19184e-10
-3.32096e-11
-3.10731e-10
-3.65007e-11
-3.01568e-10
-3.96879e-11
-2.91718e-10
-4.27654e-11
-2.81209e-10
-4.57276e-11
-2.7007e-10
-4.85694e-11
-2.58328e-10
-5.12862e-11
-2.46013e-10
-5.38733e-11
-2.33155e-10
-5.63269e-11
-2.19786e-10
-5.86431e-11
-2.05938e-10
-6.08184e-11
-1.91641e-10
-6.28497e-11
-1.7693e-10
-6.47341e-11
-1.61836e-10
-6.64691e-11
-1.46395e-10
-6.80522e-11
-1.30639e-10
-6.94815e-11
-1.14603e-10
-7.07548e-11
-9.83221e-11
-7.18698e-11
-8.18324e-11
-7.28191e-11
-6.51783e-11
-7.35682e-11
-4.84409e-11
-7.39459e-11
-3.18636e-11
-7.31974e-11
-1.62798e-11
-6.8579e-11
-4.12072e-12
-5.27734e-11
-1.65287e-11
4.41546e-12
-2.14376e-11
1.70935e-11
-6.55565e-11
3.33013e-11
-8.48026e-11
5.05348e-11
-9.04168e-11
6.79321e-11
-9.13074e-11
8.52404e-11
-9.08194e-11
1.02375e-10
-8.98748e-11
1.1929e-10
-8.86834e-11
1.35949e-10
-8.7288e-11
1.52315e-10
-8.56976e-11
1.68352e-10
-8.39155e-11
1.84027e-10
-8.19443e-11
1.99304e-10
-7.97866e-11
2.14149e-10
-7.74453e-11
2.28528e-10
-7.49236e-11
2.42409e-10
-7.22251e-11
2.55757e-10
-6.93535e-11
2.68542e-10
-6.63131e-11
2.80732e-10
-6.31084e-11
2.92297e-10
-5.97442e-11
3.03205e-10
-5.6226e-11
3.13429e-10
-5.25594e-11
3.2294e-10
-4.87505e-11
3.31711e-10
-4.48059e-11
3.39717e-10
-4.07327e-11
3.46932e-10
-3.65383e-11
3.53334e-10
-3.22306e-11
3.58901e-10
-2.78181e-11
3.63612e-10
-2.33096e-11
3.67449e-10
-1.87144e-11
3.70395e-10
-1.40423e-11
3.72434e-10
-9.30336e-12
3.73554e-10
-4.50696e-12
3.73737e-10
3.55577e-13
3.72987e-10
5.20382e-12
3.71293e-10
1.00914e-11
3.68649e-10
1.49932e-11
3.65053e-10
1.98915e-11
3.60506e-10
2.47721e-11
3.5501e-10
2.96212e-11
3.48573e-10
3.44245e-11
3.41203e-10
3.91681e-11
3.32912e-10
4.38376e-11
3.23717e-10
4.8419e-11
3.13633e-10
5.28978e-11
3.02684e-10
5.72598e-11
2.90892e-10
6.14909e-11
2.78284e-10
6.55771e-11
2.6489e-10
6.95048e-11
2.50743e-10
7.32605e-11
2.35879e-10
7.68313e-11
2.20335e-10
8.02047e-11
2.04153e-10
8.33687e-11
1.87375e-10
8.63119e-11
1.70048e-10
8.90237e-11
1.5222e-10
9.14942e-11
1.33941e-10
9.37142e-11
1.15262e-10
9.56756e-11
9.62378e-11
9.73709e-11
7.69227e-11
9.87939e-11
5.73733e-11
9.99391e-11
3.76471e-11
1.00802e-10
1.78024e-11
1.01379e-10
-2.10093e-12
1.01664e-10
-2.20016e-11
1.01649e-10
-4.18384e-11
1.01337e-10
-6.15514e-11
1.00731e-10
-8.10814e-11
9.98357e-11
-1.0037e-10
9.8655e-11
-1.19362e-10
9.7194e-11
-1.38e-10
9.54585e-11
-1.56232e-10
9.34555e-11
-1.74004e-10
9.11928e-11
-1.91268e-10
8.86791e-11
-2.07974e-10
8.59241e-11
-2.24078e-10
8.29382e-11
-2.39536e-10
7.97325e-11
-2.54308e-10
7.63188e-11
-2.68356e-10
7.27096e-11
-2.81644e-10
6.89176e-11
-2.94141e-10
6.49563e-11
-3.05817e-10
6.08394e-11
-3.16647e-10
5.65808e-11
-3.26606e-10
5.21947e-11
-3.35674e-10
4.76955e-11
-3.43835e-10
4.30976e-11
-3.51073e-10
3.84154e-11
-3.57378e-10
3.36633e-11
-3.62741e-10
2.88555e-11
-3.67157e-10
2.40061e-11
-3.70622e-10
1.91293e-11
-3.73137e-10
1.42386e-11
-3.74704e-10
9.34889e-12
-3.7533e-10
4.47522e-12
-3.75013e-10
-3.73235e-13
-3.73771e-10
-5.2131e-12
-3.71612e-10
-9.99659e-12
-3.68548e-10
-1.47226e-11
-3.64595e-10
-1.93809e-11
-3.59771e-10
-2.39613e-11
-3.54095e-10
-2.84538e-11
-3.47587e-10
-3.28491e-11
-3.4027e-10
-3.71383e-11
-3.32167e-10
-4.13127e-11
-3.23303e-10
-4.53646e-11
-3.13705e-10
-4.92865e-11
-3.03399e-10
-5.30714e-11
-2.92414e-10
-5.67127e-11
-2.80779e-10
-6.02044e-11
-2.68524e-10
-6.35409e-11
-2.5568e-10
-6.6717e-11
-2.4228e-10
-6.97279e-11
-2.28354e-10
-7.25692e-11
-2.13935e-10
-7.52368e-11
-1.99058e-10
-7.77272e-11
-1.83755e-10
-8.00369e-11
-1.68061e-10
-8.2163e-11
-1.52011e-10
-8.41027e-11
-1.35639e-10
-8.58536e-11
-1.1898e-10
-8.74134e-11
-1.02071e-10
-8.8779e-11
-8.49489e-11
-8.99416e-11
-6.76587e-11
-9.08586e-11
-5.02849e-11
-9.13198e-11
-3.30807e-11
-9.04016e-11
-1.69099e-11
-8.47499e-11
-4.28844e-12
-6.53949e-11
-2.08172e-11
4.63645e-12
-2.6074e-11
1.78981e-11
-7.88182e-11
3.48409e-11
-1.01745e-10
5.28574e-11
-1.08433e-10
7.1049e-11
-1.09499e-10
8.91508e-11
-1.08921e-10
1.07074e-10
-1.07798e-10
1.24772e-10
-1.06381e-10
1.42206e-10
-1.04722e-10
1.59339e-10
-1.0283e-10
1.76134e-10
-1.00711e-10
1.92556e-10
-9.83661e-11
2.08569e-10
-9.57991e-11
2.24136e-10
-9.30132e-11
2.39225e-10
-9.00119e-11
2.53799e-10
-8.67992e-11
2.67825e-10
-8.33793e-11
2.81269e-10
-7.97571e-11
2.94098e-10
-7.59376e-11
3.0628e-10
-7.19264e-11
3.17784e-10
-6.77297e-11
3.28578e-10
-6.33538e-11
3.38634e-10
-5.88059e-11
3.47921e-10
-5.40935e-11
3.56413e-10
-4.92248e-11
3.64083e-10
-4.42083e-11
3.70906e-10
-3.90534e-11
3.76858e-10
-3.37699e-11
3.81917e-10
-2.83683e-11
3.86062e-10
-2.28595e-11
3.89275e-10
-1.72551e-11
3.91539e-10
-1.15673e-11
3.9284e-10
-5.80801e-12
3.93145e-10
4.99881e-14
3.92481e-10
5.86872e-12
3.90819e-10
1.17525e-11
3.88158e-10
1.76549e-11
3.8449e-10
2.3559e-11
3.79817e-10
2.94451e-11
3.74141e-10
3.52972e-11
3.67468e-10
4.1098e-11
3.59806e-10
4.68303e-11
3.51166e-10
5.24769e-11
3.41565e-10
5.80203e-11
3.3102e-10
6.3443e-11
3.19552e-10
6.87275e-11
3.07187e-10
7.38565e-11
2.93951e-10
7.88128e-11
2.79877e-10
8.35794e-11
2.64997e-10
8.81398e-11
2.49351e-10
9.2478e-11
2.32977e-10
9.65783e-11
2.1592e-10
1.00426e-10
1.98225e-10
1.04007e-10
1.79941e-10
1.07308e-10
1.61119e-10
1.10316e-10
1.41812e-10
1.13021e-10
1.22077e-10
1.15411e-10
1.01971e-10
1.17478e-10
8.15513e-11
1.19213e-10
6.08799e-11
1.2061e-10
4.00181e-11
1.21664e-10
1.90287e-11
1.22368e-10
-2.02423e-12
1.22717e-10
-2.30745e-11
1.22699e-10
-4.40561e-11
1.22319e-10
-6.49045e-11
1.2158e-10
-8.55562e-11
1.20487e-10
-1.05949e-10
1.19048e-10
-1.26022e-10
1.17267e-10
-1.45716e-10
1.15152e-10
-1.64973e-10
1.12712e-10
-1.83737e-10
1.09957e-10
-2.01956e-10
1.06898e-10
-2.19577e-10
1.03546e-10
-2.36553e-10
9.99142e-11
-2.52838e-10
9.60173e-11
-2.68389e-10
9.18694e-11
-2.83165e-10
8.74861e-11
-2.97131e-10
8.28832e-11
-3.10252e-10
7.80773e-11
-3.22498e-10
7.30853e-11
-3.33841e-10
6.79244e-11
-3.44259e-10
6.26121e-11
-3.53729e-10
5.71661e-11
-3.62236e-10
5.16039e-11
-3.69764e-10
4.59433e-11
-3.76302e-10
4.02017e-11
-3.81843e-10
3.43965e-11
-3.86382e-10
2.8545e-11
-3.89917e-10
2.26642e-11
-3.92448e-10
1.67702e-11
-3.93982e-10
1.08828e-11
-3.94526e-10
5.01836e-12
-3.94079e-10
-8.1984e-13
-3.92658e-10
-6.63451e-12
-3.90274e-10
-1.23807e-11
-3.86942e-10
-1.8054e-11
-3.82681e-10
-2.36422e-11
-3.77509e-10
-2.91332e-11
-3.71448e-10
-3.45153e-11
-3.64519e-10
-3.97775e-11
-3.56748e-10
-4.49093e-11
-3.4816e-10
-4.99009e-11
-3.38782e-10
-5.47431e-11
-3.28641e-10
-5.94272e-11
-3.17768e-10
-6.39451e-11
-3.06191e-10
-6.82895e-11
-2.93942e-10
-7.24533e-11
-2.81053e-10
-7.64301e-11
-2.67556e-10
-8.02141e-11
-2.53484e-10
-8.37998e-11
-2.38871e-10
-8.71822e-11
-2.23751e-10
-9.03568e-11
-2.08159e-10
-9.33195e-11
-1.92129e-10
-9.60665e-11
-1.75698e-10
-9.85946e-11
-1.589e-10
-1.00901e-10
-1.41772e-10
-1.02982e-10
-1.2435e-10
-1.04836e-10
-1.0667e-10
-1.06459e-10
-8.8772e-11
-1.0784e-10
-7.07018e-11
-1.08929e-10
-5.2548e-11
-1.09474e-10
-3.45757e-11
-1.08374e-10
-1.76857e-11
-1.0164e-10
-4.49676e-12
-7.8584e-11
-2.5314e-11
4.90314e-12
-3.09772e-11
1.88597e-11
-9.27747e-11
3.66748e-11
-1.1956e-10
5.56208e-11
-1.27379e-10
7.47554e-11
-1.28634e-10
9.37996e-11
-1.27965e-10
1.1266e-10
-1.26659e-10
1.31289e-10
-1.2501e-10
1.49645e-10
-1.23078e-10
1.6769e-10
-1.20876e-10
1.85388e-10
-1.18408e-10
2.027e-10
-1.15678e-10
2.1959e-10
-1.12689e-10
2.36021e-10
-1.09444e-10
2.51957e-10
-1.05948e-10
2.67362e-10
-1.02204e-10
2.82199e-10
-9.82166e-11
2.96434e-10
-9.39921e-11
3.10032e-10
-8.95355e-11
3.22959e-10
-8.48531e-11
3.35181e-10
-7.99517e-11
3.46665e-10
-7.48384e-11
3.57381e-10
-6.95211e-11
3.67295e-10
-6.40084e-11
3.7638e-10
-5.83093e-11
3.84605e-10
-5.24337e-11
3.91944e-10
-4.63922e-11
3.9837e-10
-4.01958e-11
4.03858e-10
-3.38566e-11
4.08386e-10
-2.73871e-11
4.11932e-10
-2.08007e-11
4.14475e-10
-1.41111e-11
4.15999e-10
-7.33174e-12
4.16504e-10
-4.54981e-13
4.15946e-10
6.42698e-12
4.14336e-10
1.33628e-11
4.11665e-10
2.03253e-11
4.07926e-10
2.72982e-11
4.03117e-10
3.42547e-11
3.97238e-10
4.11761e-11
3.90294e-10
4.80421e-11
3.82292e-10
5.48318e-11
3.73245e-10
6.15245e-11
3.63166e-10
6.80993e-11
3.52073e-10
7.45352e-11
3.3999e-10
8.08112e-11
3.2694e-10
8.69063e-11
3.12953e-10
9.27998e-11
2.98061e-10
9.8471e-11
2.82301e-10
1.039e-10
2.65712e-10
1.09067e-10
2.48336e-10
1.13954e-10
2.30221e-10
1.18542e-10
2.11415e-10
1.22813e-10
1.9197e-10
1.26753e-10
1.71941e-10
1.30344e-10
1.51387e-10
1.33575e-10
1.30367e-10
1.36431e-10
1.08942e-10
1.38902e-10
8.71782e-11
1.40977e-10
6.51395e-11
1.42649e-10
4.28931e-11
1.4391e-10
2.05074e-11
1.44754e-10
-1.94784e-12
1.45172e-10
-2.44002e-11
1.45152e-10
-4.67779e-11
1.44696e-10
-6.90103e-11
1.43812e-10
-9.10284e-11
1.42506e-10
-1.12765e-10
1.40784e-10
-1.34153e-10
1.38656e-10
-1.5513e-10
1.36129e-10
-1.75632e-10
1.33215e-10
-1.956e-10
1.29925e-10
-2.14975e-10
1.26273e-10
-2.33704e-10
1.22274e-10
-2.51734e-10
1.17944e-10
-2.69015e-10
1.13299e-10
-2.85503e-10
1.08357e-10
-3.01155e-10
1.03138e-10
-3.15932e-10
9.76602e-11
-3.29799e-10
9.19439e-11
-3.42723e-10
8.60097e-11
-3.54678e-10
7.98785e-11
-3.65637e-10
7.35712e-11
-3.7558e-10
6.71093e-11
-3.8449e-10
6.05138e-11
-3.92352e-10
5.38059e-11
-3.99158e-10
4.70067e-11
-4.04898e-10
4.01368e-11
-4.0957e-10
3.3217e-11
-4.13173e-10
2.62676e-11
-4.1571e-10
1.93069e-11
-4.17189e-10
1.23613e-11
-4.17617e-10
5.44609e-12
-4.16997e-10
-1.43994e-12
-4.15345e-10
-8.28591e-12
-4.12678e-10
-1.50486e-11
-4.09011e-10
-2.17204e-11
-4.04366e-10
-2.82872e-11
-3.98764e-10
-3.47351e-11
-3.92229e-10
-4.10506e-11
-3.84786e-10
-4.72211e-11
-3.7646e-10
-5.32345e-11
-3.67282e-10
-5.90798e-11
-3.57278e-10
-6.47463e-11
-3.46481e-10
-7.02245e-11
-3.34921e-10
-7.55053e-11
-3.22631e-10
-8.05802e-11
-3.09642e-10
-8.54415e-11
-2.9599e-10
-9.00821e-11
-2.81709e-10
-9.44956e-11
-2.66833e-10
-9.86759e-11
-2.51398e-10
-1.02618e-10
-2.35439e-10
-1.06316e-10
-2.18993e-10
-1.09766e-10
-2.02096e-10
-1.12964e-10
-1.84785e-10
-1.15906e-10
-1.67097e-10
-1.18589e-10
-1.49069e-10
-1.2101e-10
-1.30738e-10
-1.23167e-10
-1.12142e-10
-1.25054e-10
-9.33213e-11
-1.26661e-10
-7.43242e-11
-1.27926e-10
-5.52438e-11
-1.28554e-10
-3.63591e-11
-1.27259e-10
-1.86146e-11
-1.19385e-10
-4.74917e-12
-9.24495e-11
-3.00632e-11
5.21875e-12
-3.61959e-11
1.99853e-11
-1.07541e-10
3.88141e-11
-1.38389e-10
5.88394e-11
-1.47405e-10
7.90694e-11
-1.48863e-10
9.92087e-11
-1.48105e-10
1.19159e-10
-1.4661e-10
1.3887e-10
-1.4472e-10
1.58299e-10
-1.42507e-10
1.77407e-10
-1.39984e-10
1.96157e-10
-1.37158e-10
2.14508e-10
-1.3403e-10
2.32423e-10
-1.30604e-10
2.49864e-10
-1.26885e-10
2.66792e-10
-1.22876e-10
2.8317e-10
-1.18582e-10
2.9896e-10
-1.14007e-10
3.14126e-10
-1.09157e-10
3.28629e-10
-1.04039e-10
3.42434e-10
-9.86585e-11
3.55506e-10
-9.30232e-11
3.67809e-10
-8.7141e-11
3.79308e-10
-8.10203e-11
3.8997e-10
-7.46705e-11
3.99763e-10
-6.81018e-11
4.08654e-10
-6.13249e-11
4.16613e-10
-5.43516e-11
4.23612e-10
-4.71945e-11
4.29622e-10
-3.98668e-11
4.34618e-10
-3.23828e-11
4.38575e-10
-2.47577e-11
4.41471e-10
-1.70071e-11
4.43286e-10
-9.14661e-12
4.44007e-10
-1.17629e-12
4.43605e-10
6.82936e-12
4.42079e-10
1.48884e-11
4.39419e-10
2.29855e-11
4.35616e-10
3.11014e-11
4.30665e-10
3.92058e-11
4.24565e-10
4.72761e-11
4.17319e-10
5.52879e-11
4.08934e-10
6.3217e-11
3.9942e-10
7.10387e-11
3.88791e-10
7.87284e-11
3.77065e-10
8.6261e-11
3.64264e-10
9.36117e-11
3.50415e-10
1.00755e-10
3.35548e-10
1.07667e-10
3.19696e-10
1.14323e-10
3.02897e-10
1.20698e-10
2.85195e-10
1.2677e-10
2.66634e-10
1.32515e-10
2.47264e-10
1.37911e-10
2.27139e-10
1.42939e-10
2.06314e-10
1.47577e-10
1.8485e-10
1.51809e-10
1.62809e-10
1.55616e-10
1.40256e-10
1.58984e-10
1.1726e-10
1.61898e-10
9.389e-11
1.64348e-10
7.02176e-11
1.66322e-10
4.63164e-11
1.67811e-10
2.22614e-11
1.68809e-10
-1.87056e-12
1.69304e-10
-2.59994e-11
1.69281e-10
-5.00458e-11
1.68743e-10
-7.39319e-11
1.67698e-10
-9.75821e-11
1.66156e-10
-1.20922e-10
1.64124e-10
-1.4388e-10
1.61613e-10
-1.66385e-10
1.58634e-10
-1.8837e-10
1.55199e-10
-2.09768e-10
1.51323e-10
-2.30518e-10
1.47023e-10
-2.5056e-10
1.42316e-10
-2.69837e-10
1.37221e-10
-2.88298e-10
1.31759e-10
-3.05892e-10
1.25952e-10
-3.22574e-10
1.19821e-10
-3.38304e-10
1.1339e-10
-3.53044e-10
1.06684e-10
-3.6676e-10
9.9726e-11
-3.79424e-10
9.25421e-11
-3.9101e-10
8.51569e-11
-4.01496e-10
7.75958e-11
-4.10867e-10
6.9884e-11
-4.19107e-10
6.20466e-11
-4.26209e-10
5.41082e-11
-4.32166e-10
4.60935e-11
-4.36975e-10
3.80267e-11
-4.4064e-10
2.9932e-11
-4.43164e-10
2.18315e-11
-4.44557e-10
1.37539e-11
-4.44832e-10
5.72118e-12
-4.43987e-10
-2.28495e-12
-4.42046e-10
-1.02276e-11
-4.39025e-10
-1.80691e-11
-4.34947e-10
-2.57989e-11
-4.29833e-10
-3.34008e-11
-4.23709e-10
-4.0859e-11
-4.16602e-10
-4.81582e-11
-4.08539e-10
-5.52842e-11
-3.9955e-10
-6.22236e-11
-3.89665e-10
-6.8964e-11
-3.78918e-10
-7.54937e-11
-3.67341e-10
-8.18019e-11
-3.54968e-10
-8.78786e-11
-3.41833e-10
-9.37149e-11
-3.27972e-10
-9.93021e-11
-3.13422e-10
-1.04633e-10
-2.98218e-10
-1.09699e-10
-2.82398e-10
-1.14496e-10
-2.65999e-10
-1.19017e-10
-2.49058e-10
-1.23256e-10
-2.31614e-10
-1.2721e-10
-2.13704e-10
-1.30874e-10
-1.95366e-10
-1.34243e-10
-1.7664e-10
-1.37315e-10
-1.57563e-10
-1.40087e-10
-1.38174e-10
-1.42556e-10
-1.18512e-10
-1.44716e-10
-9.86183e-11
-1.46555e-10
-7.85437e-11
-1.48001e-10
-5.83863e-11
-1.48712e-10
-3.84416e-11
-1.47204e-10
-1.97036e-11
-1.38123e-10
-5.04878e-12
-1.07104e-10
-3.5112e-11
5.58681e-12
-4.17827e-11
2.12828e-11
-1.23237e-10
4.12705e-11
-1.58377e-10
6.25288e-11
-1.68663e-10
8.40103e-11
-1.70345e-10
1.05401e-10
-1.69496e-10
1.26598e-10
-1.67806e-10
1.47547e-10
-1.65669e-10
1.68205e-10
-1.63165e-10
1.88532e-10
-1.60311e-10
2.08488e-10
-1.57113e-10
2.28032e-10
-1.53575e-10
2.47126e-10
-1.49698e-10
2.65729e-10
-1.45488e-10
2.83801e-10
-1.40948e-10
3.01303e-10
-1.36083e-10
3.18195e-10
-1.30899e-10
3.34438e-10
-1.254e-10
3.49993e-10
-1.19594e-10
3.6482e-10
-1.13486e-10
3.78882e-10
-1.07085e-10
3.92141e-10
-1.004e-10
4.04558e-10
-9.34381e-11
4.16099e-10