/*--------------------------------*- C++ -*----------------------------------*\
| =========                 |                                                 |
| \\      /  F ield         | OpenFOAM: The Open Source CFD Toolbox           |
|  \\    /   O peration     | Version:  2212                                  |
|   \\  /    A nd           | Website:  www.openfoam.com                      |
|    \\/     M anipulation  |                                                 |
\*---------------------------------------------------------------------------*/
FoamFile
{
    version     2.0;
    format      ascii;
    arch        "LSB;label=64;scalar=64";
    class       volVectorField;
    location    "0.1";
    object      U;
}
// * * * * * * * * * * * * * * * * * * * * * * * * * * * * * * * * * * * * * //

dimensions      [0 1 -1 0 0 0 0];

internalField   nonuniform List<vector> 
32768
(
(-4.23235e-06 -1.9438e-07 0)
(2.84598e-05 -2.95126e-05 0)
(9.59072e-05 -4.40574e-05 0)
(0.000173613 -4.87982e-05 0)
(0.000253667 -4.99029e-05 0)
(0.000333663 -4.98433e-05 0)
(0.000412986 -4.9345e-05 0)
(0.000491345 -4.86075e-05 0)
(0.000568502 -4.76897e-05 0)
(0.000644243 -4.6614e-05 0)
(0.000718369 -4.53933e-05 0)
(0.000790691 -4.40368e-05 0)
(0.000861024 -4.25519e-05 0)
(0.000929189 -4.09454e-05 0)
(0.000995015 -3.92234e-05 0)
(0.00105833 -3.73923e-05 0)
(0.00111898 -3.54585e-05 0)
(0.00117681 -3.34284e-05 0)
(0.00123167 -3.13089e-05 0)
(0.00128342 -2.91071e-05 0)
(0.00133192 -2.68305e-05 0)
(0.00137705 -2.44866e-05 0)
(0.00141869 -2.20835e-05 0)
(0.00145673 -1.96296e-05 0)
(0.00149107 -1.71335e-05 0)
(0.00152162 -1.46042e-05 0)
(0.0015483 -1.20513e-05 0)
(0.00157104 -9.48512e-06 0)
(0.00158979 -6.91713e-06 0)
(0.00160449 -4.36056e-06 0)
(0.00161513 -1.83217e-06 0)
(0.00162168 6.4458e-07 0)
(0.00162412 3.04161e-06 0)
(0.00162255 5.35968e-06 0)
(0.00161693 7.65441e-06 0)
(0.00160726 9.94218e-06 0)
(0.00159354 1.2222e-05 0)
(0.00157578 1.44812e-05 0)
(0.00155401 1.67057e-05 0)
(0.00152829 1.88827e-05 0)
(0.00149866 2.10019e-05 0)
(0.00146521 2.30548e-05 0)
(0.00142801 2.50344e-05 0)
(0.00138716 2.69352e-05 0)
(0.00134277 2.87525e-05 0)
(0.00129495 3.04826e-05 0)
(0.00124384 3.21224e-05 0)
(0.00118956 3.36695e-05 0)
(0.00113227 3.51221e-05 0)
(0.0010721 3.6479e-05 0)
(0.00100921 3.77395e-05 0)
(0.000943783 3.89033e-05 0)
(0.000875972 3.99704e-05 0)
(0.000805957 4.09414e-05 0)
(0.000733918 4.18169e-05 0)
(0.00066004 4.25976e-05 0)
(0.000584512 4.32843e-05 0)
(0.000507524 4.38776e-05 0)
(0.000429274 4.43775e-05 0)
(0.000349957 4.47831e-05 0)
(0.000269773 4.5094e-05 0)
(0.000188947 4.53094e-05 0)
(0.000107791 4.54059e-05 0)
(2.62405e-05 4.53878e-05 0)
(-5.56691e-05 4.54444e-05 0)
(-0.000137022 4.55167e-05 0)
(-0.000218287 4.54194e-05 0)
(-0.000299168 4.52007e-05 0)
(-0.000379369 4.48765e-05 0)
(-0.00045867 4.4449e-05 0)
(-0.000536868 4.39211e-05 0)
(-0.000613762 4.32952e-05 0)
(-0.000689151 4.25723e-05 0)
(-0.000762841 4.17529e-05 0)
(-0.000834642 4.0837e-05 0)
(-0.000904368 3.98245e-05 0)
(-0.000971839 3.87154e-05 0)
(-0.00103688 3.75097e-05 0)
(-0.00109932 3.6208e-05 0)
(-0.001159 3.4811e-05 0)
(-0.00121576 3.33197e-05 0)
(-0.00126945 3.1736e-05 0)
(-0.00131994 3.00619e-05 0)
(-0.00136709 2.83002e-05 0)
(-0.00141078 2.64544e-05 0)
(-0.0014509 2.45284e-05 0)
(-0.00148735 2.25273e-05 0)
(-0.00152003 2.04571e-05 0)
(-0.00154886 1.8325e-05 0)
(-0.00157378 1.61402e-05 0)
(-0.00159473 1.3914e-05 0)
(-0.00161168 1.16601e-05 0)
(-0.0016246 9.39438e-06 0)
(-0.00163348 7.12928e-06 0)
(-0.00163832 4.85527e-06 0)
(-0.00163919 2.53261e-06 0)
(-0.001636 1.25168e-07 0)
(-0.00162871 -2.35815e-06 0)
(-0.00161734 -4.88934e-06 0)
(-0.0016019 -7.4466e-06 0)
(-0.00158243 -1.00138e-05 0)
(-0.00155896 -1.25779e-05 0)
(-0.00153155 -1.51273e-05 0)
(-0.00150029 -1.76515e-05 0)
(-0.00146524 -2.01408e-05 0)
(-0.00142651 -2.25861e-05 0)
(-0.0013842 -2.49784e-05 0)
(-0.00133841 -2.73096e-05 0)
(-0.00128926 -2.95714e-05 0)
(-0.0012369 -3.17562e-05 0)
(-0.00118144 -3.38567e-05 0)
(-0.00112304 -3.58658e-05 0)
(-0.00106184 -3.77768e-05 0)
(-0.000998001 -3.95832e-05 0)
(-0.000931686 -4.1279e-05 0)
(-0.000863062 -4.28579e-05 0)
(-0.000792304 -4.4314e-05 0)
(-0.00071959 -4.56409e-05 0)
(-0.000645105 -4.68313e-05 0)
(-0.000569041 -4.78763e-05 0)
(-0.000491596 -4.87637e-05 0)
(-0.000412985 -4.94711e-05 0)
(-0.000333441 -4.994e-05 0)
(-0.00025325 -4.99726e-05 0)
(-0.00017304 -4.88448e-05 0)
(-9.52443e-05 -4.40682e-05 0)
(-2.76883e-05 -2.93971e-05 0)
(4.72805e-06 4.7664e-07 0)
(-1.64839e-06 -4.55849e-05 0)
(6.18246e-05 -0.000187832 0)
(0.000167155 -0.00025453 0)
(0.000285453 -0.000274836 0)
(0.000406439 -0.000278497 0)
(0.000526968 -0.000277216 0)
(0.000646284 -0.00027429 0)
(0.000764094 -0.000270488 0)
(0.000880147 -0.000265978 0)
(0.000994191 -0.000260805 0)
(0.00110598 -0.000254993 0)
(0.00121526 -0.000248557 0)
(0.00132178 -0.000241514 0)
(0.00142531 -0.000233879 0)
(0.00152559 -0.000225669 0)
(0.0016224 -0.000216901 0)
(0.00171551 -0.000207593 0)
(0.00180468 -0.000197764 0)
(0.0018897 -0.000187435 0)
(0.00197035 -0.000176628 0)
(0.00204644 -0.000165364 0)
(0.00211776 -0.00015367 0)
(0.00218412 -0.000141569 0)
(0.00224534 -0.00012909 0)
(0.00230125 -0.000116261 0)
(0.00235168 -0.000103112 0)
(0.0023965 -8.96745e-05 0)
(0.00243555 -7.59828e-05 0)
(0.0024687 -6.20726e-05 0)
(0.00249584 -4.7982e-05 0)
(0.00251685 -3.37536e-05 0)
(0.00253163 -1.94342e-05 0)
(0.00254008 -5.0756e-06 0)
(0.00254204 9.29017e-06 0)
(0.00253755 2.36688e-05 0)
(0.00252658 3.80535e-05 0)
(0.00250914 5.24124e-05 0)
(0.00248523 6.67006e-05 0)
(0.00245491 8.08699e-05 0)
(0.00241823 9.48745e-05 0)
(0.00237524 0.00010867 0)
(0.00232604 0.000122214 0)
(0.00227072 0.000135467 0)
(0.00220939 0.00014839 0)
(0.0021422 0.000160945 0)
(0.00206929 0.000173097 0)
(0.00199082 0.000184811 0)
(0.001907 0.000196054 0)
(0.00181801 0.000206795 0)
(0.00172408 0.000217005 0)
(0.00162545 0.000226655 0)
(0.00152237 0.000235721 0)
(0.0014151 0.000244176 0)
(0.00130392 0.000252 0)
(0.00118912 0.000259172 0)
(0.00107102 0.000265674 0)
(0.000949932 0.000271487 0)
(0.000826177 0.000276597 0)
(0.000700094 0.00028099 0)
(0.000572024 0.000284653 0)
(0.00044231 0.000287573 0)
(0.000311332 0.000289734 0)
(0.000179607 0.000291124 0)
(4.71445e-05 0.000291776 0)
(-8.62619e-05 0.000291803 0)
(-0.000218298 0.000291173 0)
(-0.000349998 0.000289744 0)
(-0.000480844 0.000287509 0)
(-0.000610357 0.00028449 0)
(-0.000738175 0.000280708 0)
(-0.000863954 0.000276181 0)
(-0.000987349 0.000270924 0)
(-0.00110802 0.000264956 0)
(-0.00122565 0.000258294 0)
(-0.00133991 0.000250957 0)
(-0.0014505 0.000242967 0)
(-0.00155712 0.000234346 0)
(-0.0016595 0.000225119 0)
(-0.00175737 0.00021531 0)
(-0.00185049 0.000204949 0)
(-0.00193862 0.000194063 0)
(-0.00202154 0.000182685 0)
(-0.00209906 0.000170847 0)
(-0.00217099 0.000158582 0)
(-0.00223718 0.000145926 0)
(-0.00229747 0.000132917 0)
(-0.00235173 0.000119591 0)
(-0.00239987 0.00010599 0)
(-0.00244177 9.21543e-05 0)
(-0.00247737 7.81269e-05 0)
(-0.00250661 6.39532e-05 0)
(-0.00252944 4.96815e-05 0)
(-0.00254583 3.5361e-05 0)
(-0.00255576 2.10339e-05 0)
(-0.00255925 6.71865e-06 0)
(-0.00255624 -7.60943e-06 0)
(-0.0025468 -2.1943e-05 0)
(-0.00253108 -3.62385e-05 0)
(-0.00250914 -5.04424e-05 0)
(-0.00248111 -6.45069e-05 0)
(-0.00244708 -7.83888e-05 0)
(-0.00240717 -9.20489e-05 0)
(-0.00236153 -0.000105451 0)
(-0.00231028 -0.00011856 0)
(-0.00225359 -0.000131344 0)
(-0.00219161 -0.000143772 0)
(-0.00212452 -0.000155816 0)
(-0.00205251 -0.000167449 0)
(-0.00197575 -0.000178644 0)
(-0.00189446 -0.000189378 0)
(-0.00180883 -0.000199627 0)
(-0.00171909 -0.000209371 0)
(-0.00162545 -0.000218589 0)
(-0.00152813 -0.000227263 0)
(-0.00142738 -0.000235375 0)
(-0.00132342 -0.000242908 0)
(-0.0012165 -0.000249848 0)
(-0.00110687 -0.000256178 0)
(-0.000994762 -0.000261884 0)
(-0.000880433 -0.00026695 0)
(-0.000764131 -0.000271355 0)
(-0.000646104 -0.000275055 0)
(-0.000526603 -0.000277881 0)
(-0.00040591 -0.000279065 0)
(-0.000284794 -0.000275305 0)
(-0.000166433 -0.000254866 0)
(-6.10459e-05 -0.000187751 0)
(2.19518e-06 -4.35824e-05 0)
(-5.81291e-07 -0.000106665 0)
(6.89803e-05 -0.000367846 0)
(0.000179697 -0.000485547 0)
(0.000303783 -0.000520241 0)
(0.000430753 -0.000525806 0)
(0.000557356 -0.000522916 0)
(0.000682775 -0.000517275 0)
(0.000806678 -0.000510163 0)
(0.000928781 -0.000501836 0)
(0.00104881 -0.000492344 0)
(0.00116651 -0.000481709 0)
(0.00128161 -0.000469948 0)
(0.00139385 -0.00045708 0)
(0.00150299 -0.000443128 0)
(0.00160876 -0.000428114 0)
(0.00171093 -0.000412066 0)
(0.00180924 -0.000395011 0)
(0.00190347 -0.000376979 0)
(0.00199339 -0.000358003 0)
(0.00207876 -0.000338119 0)
(0.00215938 -0.000317363 0)
(0.00223503 -0.000295775 0)
(0.00230551 -0.000273397 0)
(0.00237063 -0.000250275 0)
(0.0024302 -0.000226454 0)
(0.00248405 -0.000201986 0)
(0.00253201 -0.000176923 0)
(0.00257394 -0.000151317 0)
(0.00260968 -0.000125228 0)
(0.00263912 -9.87111e-05 0)
(0.00266212 -7.18269e-05 0)
(0.00267859 -4.46325e-05 0)
(0.00268844 -1.71831e-05 0)
(0.00269155 1.04558e-05 0)
(0.00268792 3.81872e-05 0)
(0.0026775 6.5942e-05 0)
(0.00266027 9.3648e-05 0)
(0.00263621 0.000121232 0)
(0.00260534 0.000148619 0)
(0.00256769 0.000175734 0)
(0.00252332 0.000202501 0)
(0.0024723 0.000228846 0)
(0.00241472 0.000254691 0)
(0.00235069 0.000279962 0)
(0.00228034 0.000304584 0)
(0.00220381 0.000328484 0)
(0.00212129 0.000351589 0)
(0.00203295 0.00037383 0)
(0.00193901 0.00039514 0)
(0.00183969 0.000415452 0)
(0.00173525 0.000434704 0)
(0.00162594 0.000452837 0)
(0.00151205 0.000469796 0)
(0.00139388 0.000485526 0)
(0.00127174 0.000499981 0)
(0.00114596 0.000513114 0)
(0.00101689 0.000524886 0)
(0.000884879 0.00053526 0)
(0.000750295 0.000544203 0)
(0.000613511 0.000551689 0)
(0.000474904 0.000557694 0)
(0.000334889 0.000562201 0)
(0.000194041 0.000565194 0)
(5.24272e-05 0.000566663 0)
(-9.0288e-05 0.000566604 0)
(-0.000231464 0.000565017 0)
(-0.00037229 0.000561879 0)
(-0.000512161 0.000557197 0)
(-0.000650551 0.000550989 0)
(-0.000787065 0.000543279 0)
(-0.000921325 0.000534094 0)
(-0.00105296 0.000523464 0)
(-0.00118159 0.000511427 0)
(-0.00130687 0.000498021 0)
(-0.00142846 0.000483291 0)
(-0.00154602 0.000467285 0)
(-0.00165924 0.000450055 0)
(-0.00176783 0.000431657 0)
(-0.0018715 0.00041215 0)
(-0.00196999 0.000391596 0)
(-0.00206307 0.000370059 0)
(-0.00215049 0.000347607 0)
(-0.00223207 0.00032431 0)
(-0.00230762 0.00030024 0)
(-0.00237696 0.00027547 0)
(-0.00243996 0.000250074 0)
(-0.00249649 0.00022413 0)
(-0.00254645 0.000197713 0)
(-0.00258975 0.0001709 0)
(-0.00262633 0.000143767 0)
(-0.00265613 0.00011639 0)
(-0.00267913 8.88461e-05 0)
(-0.00269531 6.1208e-05 0)
(-0.00270471 3.35439e-05 0)
(-0.00270735 5.91684e-06 0)
(-0.00270323 -2.16223e-05 0)
(-0.00269242 -4.89794e-05 0)
(-0.002675 -7.60912e-05 0)
(-0.00265108 -0.000102898 0)
(-0.00262074 -0.000129338 0)
(-0.00258412 -0.000155349 0)
(-0.00254134 -0.000180871 0)
(-0.00249255 -0.000205847 0)
(-0.00243791 -0.000230221 0)
(-0.00237757 -0.000253939 0)
(-0.00231171 -0.000276952 0)
(-0.00224052 -0.000299212 0)
(-0.0021642 -0.000320675 0)
(-0.00208294 -0.000341297 0)
(-0.00199697 -0.000361039 0)
(-0.00190648 -0.000379866 0)
(-0.00181172 -0.000397741 0)
(-0.00171291 -0.000414634 0)
(-0.00161029 -0.000430515 0)
(-0.00150411 -0.000445356 0)
(-0.0013946 -0.000459133 0)
(-0.00128202 -0.000471823 0)
(-0.00116663 -0.000483406 0)
(-0.00104867 -0.000493863 0)
(-0.000928424 -0.000503178 0)
(-0.000806139 -0.000511333 0)
(-0.000682092 -0.000518277 0)
(-0.000556559 -0.000523757 0)
(-0.000429868 -0.00052649 0)
(-0.000302846 -0.000520765 0)
(-0.000178779 -0.000485854 0)
(-6.80965e-05 -0.000367466 0)
(1.13666e-06 -0.000103104 0)
(-4.90334e-07 -0.000171252 0)
(7.12904e-05 -0.000554916 0)
(0.000184797 -0.000725079 0)
(0.000312004 -0.000774958 0)
(0.000442182 -0.00078289 0)
(0.000572012 -0.000778617 0)
(0.000700659 -0.000770331 0)
(0.000827776 -0.000759885 0)
(0.00095307 -0.000747652 0)
(0.00107626 -0.00073371 0)
(0.00119708 -0.000718089 0)
(0.00131525 -0.000700814 0)
(0.00143052 -0.000681912 0)
(0.00154262 -0.000661411 0)
(0.00165129 -0.000639344 0)
(0.00175629 -0.000615747 0)
(0.00185737 -0.000590657 0)
(0.00195428 -0.000564115 0)
(0.00204679 -0.000536168 0)
(0.00213466 -0.000506862 0)
(0.00221768 -0.000476249 0)
(0.00229562 -0.000444386 0)
(0.00236829 -0.000411329 0)
(0.00243546 -0.000377143 0)
(0.00249697 -0.000341892 0)
(0.00255262 -0.000305647 0)
(0.00260225 -0.000268481 0)
(0.00264568 -0.000230472 0)
(0.00268279 -0.000191699 0)
(0.00271342 -0.000152248 0)
(0.00273746 -0.000112204 0)
(0.00275481 -7.16577e-05 0)
(0.00276536 -3.06996e-05 0)
(0.002769 1.0574e-05 0)
(0.00276574 5.20499e-05 0)
(0.00275553 9.36238e-05 0)
(0.00273832 0.000135187 0)
(0.00271408 0.000176628 0)
(0.00268282 0.000217835 0)
(0.00264458 0.000258691 0)
(0.0025994 0.000299081 0)
(0.00254734 0.000338889 0)
(0.0024885 0.000377998 0)
(0.00242298 0.000416292 0)
(0.00235092 0.000453656 0)
(0.00227246 0.000489974 0)
(0.00218777 0.000525135 0)
(0.00209706 0.000559029 0)
(0.00200052 0.000591546 0)
(0.0018984 0.000622584 0)
(0.00179095 0.000652041 0)
(0.00167843 0.000679821 0)
(0.00156115 0.000705834 0)
(0.00143941 0.000729992 0)
(0.00131353 0.000752217 0)
(0.00118385 0.000772433 0)
(0.00105074 0.000790573 0)
(0.000914567 0.000806576 0)
(0.000775704 0.00082039 0)
(0.000634547 0.000831967 0)
(0.000491487 0.000841271 0)
(0.000346963 0.00084827 0)
(0.000201583 0.00085294 0)
(5.54475e-05 0.000855246 0)
(-9.18904e-05 0.000855129 0)
(-0.000237598 0.000852602 0)
(-0.000382979 0.000847691 0)
(-0.000527379 0.000840416 0)
(-0.00067024 0.000830806 0)
(-0.000811145 0.000818896 0)
(-0.0009497 0.000804729 0)
(-0.00108551 0.000788355 0)
(-0.0012182 0.000769833 0)
(-0.00134739 0.000749228 0)
(-0.00147274 0.000726611 0)
(-0.00159388 0.000702064 0)
(-0.00171052 0.000675669 0)
(-0.00182232 0.000647517 0)
(-0.00192902 0.000617703 0)
(-0.00203033 0.000586328 0)
(-0.00212601 0.000553494 0)
(-0.00221583 0.000519311 0)
(-0.00229958 0.000483887 0)
(-0.00237708 0.000447335 0)
(-0.00244814 0.000409772 0)
(-0.00251264 0.000371312 0)
(-0.00257045 0.000332073 0)
(-0.00262146 0.000292172 0)
(-0.00266559 0.000251727 0)
(-0.00270277 0.000210854 0)
(-0.00273298 0.000169669 0)
(-0.00275617 0.000128288 0)
(-0.00277235 8.68207e-05 0)
(-0.00278155 4.53696e-05 0)
(-0.00278382 4.0247e-06 0)
(-0.00277919 -3.7109e-05 0)
(-0.00276766 -7.79368e-05 0)
(-0.00274937 -0.000118359 0)
(-0.0027244 -0.000158281 0)
(-0.00269285 -0.000197609 0)
(-0.00265487 -0.000236253 0)
(-0.00261057 -0.000274127 0)
(-0.00256011 -0.00031115 0)
(-0.00250366 -0.000347243 0)
(-0.00244139 -0.000382331 0)
(-0.00237347 -0.000416343 0)
(-0.00230011 -0.000449215 0)
(-0.0022215 -0.000480882 0)
(-0.00213785 -0.000511288 0)
(-0.00204939 -0.000540376 0)
(-0.00195633 -0.000568097 0)
(-0.00185891 -0.000594402 0)
(-0.00175737 -0.000619249 0)
(-0.00165195 -0.000642597 0)
(-0.0015429 -0.000664409 0)
(-0.00143046 -0.000684651 0)
(-0.0013149 -0.000703292 0)
(-0.00119648 -0.000720306 0)
(-0.00107546 -0.000735668 0)
(-0.000952106 -0.000749356 0)
(-0.00082669 -0.00076134 0)
(-0.00069949 -0.000771546 0)
(-0.000570796 -0.000779601 0)
(-0.000440947 -0.000783651 0)
(-0.000310791 -0.00077549 0)
(-0.00018368 -0.000725298 0)
(-7.02863e-05 -0.000554157 0)
(1.07162e-06 -0.000166067 0)
(-4.33385e-07 -0.000237754 0)
(7.37094e-05 -0.000746783 0)
(0.000190743 -0.000970544 0)
(0.0003219 -0.00103592 0)
(0.000456129 -0.00104626 0)
(0.000590019 -0.00104057 0)
(0.00072271 -0.00102959 0)
(0.000853843 -0.00101575 0)
(0.000983119 -0.000999544 0)
(0.00111025 -0.000981074 0)
(0.00123496 -0.00096038 0)
(0.00135697 -0.000937495 0)
(0.00147601 -0.000912451 0)
(0.00159182 -0.000885286 0)
(0.00170412 -0.00085604 0)
(0.00181267 -0.000824757 0)
(0.00191721 -0.000791485 0)
(0.00201749 -0.000756277 0)
(0.00211325 -0.000719188 0)
(0.00220427 -0.000680281 0)
(0.00229032 -0.000639619 0)
(0.00237116 -0.000597275 0)
(0.00244658 -0.000553322 0)
(0.00251637 -0.000507841 0)
(0.00258033 -0.000460916 0)
(0.00263827 -0.000412638 0)
(0.00269002 -0.000363102 0)
(0.00273539 -0.000312408 0)
(0.00277424 -0.00026066 0)
(0.00280642 -0.00020797 0)
(0.0028318 -0.000154453 0)
(0.00285027 -0.000100228 0)
(0.00286172 -4.54202e-05 0)
(0.00286602 9.84173e-06 0)
(0.00286318 6.54188e-05 0)
(0.00285315 0.000121179 0)
(0.00283585 0.00017698 0)
(0.00281128 0.000232672 0)
(0.00277943 0.0002881 0)
(0.00274032 0.000343107 0)
(0.002694 0.000397534 0)
(0.00264054 0.000451224 0)
(0.00258001 0.000504019 0)
(0.00251254 0.00055576 0)
(0.00243824 0.000606288 0)
(0.00235728 0.000655446 0)
(0.00226982 0.000703079 0)
(0.00217607 0.000749033 0)
(0.00207625 0.00079316 0)
(0.00197059 0.000835314 0)
(0.00185935 0.000875355 0)
(0.00174283 0.000913146 0)
(0.00162131 0.000948561 0)
(0.00149513 0.000981476 0)
(0.00136462 0.00101178 0)
(0.00123014 0.00103936 0)
(0.00109205 0.00106414 0)
(0.000950757 0.001086 0)
(0.000806647 0.00110489 0)
(0.000660132 0.00112074 0)
(0.000511624 0.00113348 0)
(0.000361581 0.00114308 0)
(0.000210646 0.00114949 0)
(5.89508e-05 0.00115266 0)
(-9.40838e-05 0.0011525 0)
(-0.000245349 0.00114902 0)
(-0.000396299 0.00114227 0)
(-0.000546231 0.0011323 0)
(-0.000694553 0.00111914 0)
(-0.000840828 0.00110286 0)
(-0.000984643 0.0010835 0)
(-0.00112559 0.00106115 0)
(-0.00126326 0.00103588 0)
(-0.00139727 0.00100778 0)
(-0.00152725 0.000976972 0)
(-0.00165284 0.000943553 0)
(-0.0017737 0.000907644 0)
(-0.00188953 0.000869374 0)
(-0.002 0.000828875 0)
(-0.00210486 0.000786289 0)
(-0.00220383 0.000741758 0)
(-0.00229669 0.000695433 0)
(-0.00238321 0.000647467 0)
(-0.00246321 0.000598016 0)
(-0.00253651 0.000547237 0)
(-0.00260297 0.00049529 0)
(-0.00266246 0.000442335 0)
(-0.00271488 0.000388533 0)
(-0.00276015 0.000334042 0)
(-0.00279821 0.000279021 0)
(-0.00282901 0.000223627 0)
(-0.00285254 0.000168017 0)
(-0.00286881 0.000112342 0)
(-0.00287786 5.67378e-05 0)
(-0.00287968 1.32132e-06 0)
(-0.00287435 -5.37721e-05 0)
(-0.00286193 -0.000108419 0)
(-0.00284252 -0.000162485 0)
(-0.0028162 -0.00021584 0)
(-0.00278311 -0.000268362 0)
(-0.00274337 -0.000319931 0)
(-0.00269713 -0.000370437 0)
(-0.00264456 -0.000419771 0)
(-0.00258582 -0.000467834 0)
(-0.00252109 -0.000514529 0)
(-0.00245056 -0.000559766 0)
(-0.00237445 -0.000603459 0)
(-0.00229296 -0.00064553 0)
(-0.0022063 -0.000685904 0)
(-0.00211471 -0.000724511 0)
(-0.00201842 -0.000761286 0)
(-0.00191767 -0.000796171 0)
(-0.0018127 -0.000829111 0)
(-0.00170376 -0.000860053 0)
(-0.00159112 -0.000888953 0)
(-0.00147502 -0.000915768 0)
(-0.00135574 -0.00094046 0)
(-0.00123354 -0.000962994 0)
(-0.00110868 -0.000983341 0)
(-0.000981455 -0.00100147 0)
(-0.000852125 -0.00101735 0)
(-0.000720981 -0.00103087 0)
(-0.000588321 -0.00104154 0)
(-0.000454494 -0.00104693 0)
(-0.000320372 -0.00103628 0)
(-0.000189401 -0.000970485 0)
(-7.25721e-05 -0.000745448 0)
(1.04128e-06 -0.000230794 0)
(-3.78394e-07 -0.000306801 0)
(7.67337e-05 -0.000945414 0)
(0.00019827 -0.00122455 0)
(0.000334475 -0.00130598 0)
(0.000473887 -0.00131886 0)
(0.00061297 -0.00131175 0)
(0.00075083 -0.00129802 0)
(0.000887095 -0.00128072 0)
(0.00102146 -0.00126045 0)
(0.00115362 -0.00123735 0)
(0.0012833 -0.00121147 0)
(0.00141021 -0.00118285 0)
(0.00153409 -0.00115152 0)
(0.00165464 -0.00111754 0)
(0.0017716 -0.00108094 0)
(0.00188471 -0.00104178 0)
(0.00199369 -0.00100012 0)
(0.0020983 -0.000956022 0)
(0.00219826 -0.000909551 0)
(0.00229334 -0.000860782 0)
(0.0023833 -0.000809792 0)
(0.00246789 -0.000756668 0)
(0.0025469 -0.000701499 0)
(0.00262009 -0.000644383 0)
(0.00268725 -0.000585423 0)
(0.0027482 -0.00052473 0)
(0.00280273 -0.00046242 0)
(0.00285065 -0.000398616 0)
(0.00289182 -0.000333449 0)
(0.00292606 -0.000267056 0)
(0.00295324 -0.000199579 0)
(0.00297322 -0.000131168 0)
(0.0029859 -6.19797e-05 0)
(0.00299112 7.82996e-06 0)
(0.00298889 7.80703e-05 0)
(0.00297915 0.000148593 0)
(0.00296183 0.000219222 0)
(0.00293689 0.000289767 0)
(0.00290433 0.00036003 0)
(0.00286417 0.000429808 0)
(0.00281643 0.000498899 0)
(0.0027612 0.000567101 0)
(0.00269854 0.000634211 0)
(0.00262857 0.000700026 0)
(0.00255143 0.000764341 0)
(0.00246726 0.000826953 0)
(0.00237625 0.000887662 0)
(0.0022786 0.000946269 0)
(0.00217453 0.00100258 0)
(0.0020643 0.00105641 0)
(0.00194818 0.00110756 0)
(0.00182646 0.00115587 0)
(0.00169946 0.00120117 0)
(0.00156752 0.0012433 0)
(0.001431 0.0012821 0)
(0.00129026 0.00131743 0)
(0.00114571 0.00134918 0)
(0.000997754 0.00137722 0)
(0.00084681 0.00140145 0)
(0.000693312 0.00142179 0)
(0.000537699 0.00143815 0)
(0.000380454 0.00145048 0)
(0.000222264 0.00145872 0)
(6.33012e-05 0.0014628 0)
(-9.71859e-05 0.00146259 0)
(-0.000255708 0.00145812 0)
(-0.000413923 0.00144945 0)
(-0.000571063 0.00143665 0)
(-0.000726494 0.00141977 0)
(-0.000879754 0.00139889 0)
(-0.00103041 0.00137407 0)
(-0.00117801 0.00134543 0)
(-0.00132215 0.00131306 0)
(-0.00146241 0.0012771 0)
(-0.00159839 0.00123767 0)
(-0.00172974 0.00119493 0)
(-0.00185608 0.00114902 0)
(-0.00197708 0.00110012 0)
(-0.00209243 0.0010484 0)
(-0.00220184 0.000994045 0)
(-0.00230504 0.000937241 0)
(-0.00240179 0.000878184 0)
(-0.00249185 0.000817071 0)
(-0.00257504 0.000754104 0)
(-0.00265118 0.000689487 0)
(-0.00272012 0.000623427 0)
(-0.00278172 0.000556128 0)
(-0.0028359 0.000487796 0)
(-0.00288258 0.000418635 0)
(-0.00292168 0.000348847 0)
(-0.00295319 0.000278634 0)
(-0.00297708 0.000208196 0)
(-0.00299339 0.000137728 0)
(-0.00300213 6.73987e-05 0)
(-0.00300334 -2.64842e-06 0)
(-0.00299707 -7.22704e-05 0)
(-0.00298343 -0.000141275 0)
(-0.00296249 -0.000209496 0)
(-0.00293438 -0.000276772 0)
(-0.00289922 -0.000342952 0)
(-0.00285717 -0.00040789 0)
(-0.00280837 -0.000471448 0)
(-0.00275302 -0.000533494 0)
(-0.00269128 -0.000593904 0)
(-0.00262335 -0.000652562 0)
(-0.00254944 -0.000709356 0)
(-0.00246976 -0.000764184 0)
(-0.00238453 -0.00081695 0)
(-0.00229398 -0.000867563 0)
(-0.00219836 -0.000915939 0)
(-0.0020979 -0.000962003 0)
(-0.00199286 -0.00100568 0)
(-0.00188348 -0.00104691 0)
(-0.00177004 -0.00108563 0)
(-0.00165279 -0.00112178 0)
(-0.001532 -0.00115531 0)
(-0.00140795 -0.00118619 0)
(-0.00128091 -0.00121436 0)
(-0.00115116 -0.00123979 0)
(-0.00101897 -0.00126245 0)
(-0.000884638 -0.00128229 0)
(-0.00074845 -0.00129919 0)
(-0.000610712 -0.00131252 0)
(-0.000471787 -0.00131925 0)
(-0.000332583 -0.00130598 0)
(-0.000196671 -0.00122401 0)
(-7.54443e-05 -0.00094329 0)
(1.01743e-06 -0.000297899 0)
(-2.97906e-07 -0.00037904 0)
(8.04586e-05 -0.00115252 0)
(0.000207504 -0.00148922 0)
(0.000349883 -0.00158741 0)
(0.00049564 -0.00160299 0)
(0.000641083 -0.00159445 0)
(0.000785274 -0.0015779 0)
(0.000927827 -0.00155704 0)
(0.00106842 -0.0015326 0)
(0.00120675 -0.00150475 0)
(0.00134253 -0.00147355 0)
(0.00147547 -0.00143903 0)
(0.00160528 -0.00140125 0)
(0.00173167 -0.00136025 0)
(0.00185436 -0.00131609 0)
(0.00197308 -0.00126883 0)
(0.00208755 -0.00121853 0)
(0.0021975 -0.00116527 0)
(0.00230266 -0.00110913 0)
(0.00240277 -0.00105018 0)
(0.00249759 -0.000988525 0)
(0.00258685 -0.000924257 0)
(0.00267031 -0.000857484 0)
(0.00274775 -0.000788319 0)
(0.00281894 -0.000716883 0)
(0.00288365 -0.000643307 0)
(0.00294168 -0.000567729 0)
(0.00299284 -0.000490295 0)
(0.00303694 -0.00041116 0)
(0.00307381 -0.000330488 0)
(0.0031033 -0.000248451 0)
(0.00312525 -0.000165233 0)
(0.00313956 -8.10228e-05 0)
(0.003146 3.98105e-06 0)
(0.0031446 8.96209e-05 0)
(0.00313534 0.00017565 0)
(0.00311809 0.000261856 0)
(0.0030928 0.000348014 0)
(0.00305945 0.000433886 0)
(0.00301807 0.000519224 0)
(0.00296867 0.000603777 0)
(0.00291133 0.000687296 0)
(0.00284611 0.00076953 0)
(0.00277313 0.000850227 0)
(0.00269251 0.000929134 0)
(0.00260443 0.001006 0)
(0.00250905 0.00108057 0)
(0.00240659 0.0011526 0)
(0.00229729 0.00122185 0)
(0.0021814 0.00128808 0)
(0.00205922 0.00135106 0)
(0.00193105 0.00141056 0)
(0.00179723 0.00146638 0)
(0.00165811 0.00151831 0)
(0.00151408 0.00156617 0)
(0.00136553 0.00160977 0)
(0.00121289 0.00164896 0)
(0.00105659 0.00168358 0)
(0.000897074 0.00171352 0)
(0.00073482 0.00173865 0)
(0.000570288 0.00175888 0)
(0.000403998 0.00177413 0)
(0.000236694 0.00178432 0)
(6.85978e-05 0.00178938 0)
(-0.000101265 0.00178912 0)
(-0.000268903 0.0017836 0)
(-0.000436239 0.00177289 0)
(-0.000602424 0.00175707 0)
(-0.000766771 0.00173622 0)
(-0.000928784 0.00171042 0)
(-0.00108799 0.00167979 0)
(-0.00124393 0.00164443 0)
(-0.00139615 0.0016045 0)
(-0.0015442 0.00156015 0)
(-0.00168768 0.00151154 0)
(-0.00182618 0.00145886 0)
(-0.00195932 0.00140232 0)
(-0.00208675 0.00134211 0)
(-0.00220813 0.00127847 0)
(-0.00232317 0.00121161 0)
(-0.00243158 0.00114178 0)
(-0.0025331 0.00106921 0)
(-0.0026275 0.000994168 0)
(-0.00271458 0.000916889 0)
(-0.00279415 0.000837632 0)
(-0.00286608 0.000756652 0)
(-0.00293023 0.000674204 0)
(-0.00298649 0.000590541 0)
(-0.00303481 0.000505916 0)
(-0.00307512 0.000420578 0)
(-0.00310739 0.000334777 0)
(-0.00313162 0.000248759 0)
(-0.00314786 0.000162757 0)
(-0.00315614 7.6973e-05 0)
(-0.00315649 -8.42223e-06 0)
(-0.00314898 -9.32443e-05 0)
(-0.00313371 -0.000177258 0)
(-0.0031108 -0.000260259 0)
(-0.00308038 -0.000342057 0)
(-0.00304259 -0.000422469 0)
(-0.0029976 -0.000501321 0)
(-0.00294558 -0.000578448 0)
(-0.00288672 -0.000653694 0)
(-0.00282122 -0.000726912 0)
(-0.00274929 -0.000797965 0)
(-0.00267114 -0.000866724 0)
(-0.00258702 -0.000933067 0)
(-0.00249715 -0.000996881 0)
(-0.00240178 -0.00105806 0)
(-0.00230116 -0.00111652 0)
(-0.00219555 -0.00117215 0)
(-0.0020852 -0.00122488 0)
(-0.00197039 -0.00127464 0)
(-0.00185139 -0.00132135 0)
(-0.00172848 -0.00136495 0)
(-0.00160192 -0.00140539 0)
(-0.00147201 -0.0014426 0)
(-0.00133903 -0.00147656 0)
(-0.00120326 -0.00150721 0)
(-0.00106499 -0.00153452 0)
(-0.000924518 -0.00155842 0)
(-0.000782143 -0.00157878 0)
(-0.00063818 -0.00159483 0)
(-0.000493007 -0.0016029 0)
(-0.000347575 -0.00158683 0)
(-0.00020561 -0.00148797 0)
(-7.89963e-05 -0.00114936 0)
(9.72592e-07 -0.000368007 0)
(-1.80589e-07 -0.000455175 0)
(8.4932e-05 -0.00136984 0)
(0.000218519 -0.00176675 0)
(0.000368224 -0.00188254 0)
(0.000521512 -0.00190101 0)
(0.000674508 -0.00189102 0)
(0.000826221 -0.00187158 0)
(0.000976245 -0.00184705 0)
(0.00112425 -0.00181832 0)
(0.00126992 -0.00178557 0)
(0.00141297 -0.00174888 0)
(0.00155308 -0.0017083 0)
(0.00168996 -0.00166386 0)
(0.00182331 -0.00161563 0)
(0.00195285 -0.00156367 0)
(0.00207829 -0.00150805 0)
(0.00219933 -0.00144883 0)
(0.00231569 -0.00138609 0)
(0.00242709 -0.00131994 0)
(0.00253327 -0.00125045 0)
(0.00263393 -0.00117773 0)
(0.00272883 -0.00110189 0)
(0.0028177 -0.00102306 0)
(0.0029003 -0.00094136 0)
(0.00297636 -0.000856929 0)
(0.00304567 -0.000769917 0)
(0.003108 -0.000680483 0)
(0.00316312 -0.000588796 0)
(0.00321084 -0.000495036 0)
(0.00325097 -0.000399392 0)
(0.00328332 -0.000302068 0)
(0.00330773 -0.000203275 0)
(0.00332406 -0.000103238 0)
(0.0033322 -2.19256e-06 0)
(0.00333201 9.96803e-05 0)
(0.0033234 0.000202082 0)
(0.00330632 0.000304762 0)
(0.00328071 0.000407457 0)
(0.00324655 0.000509885 0)
(0.00320381 0.000611748 0)
(0.00315252 0.000712746 0)
(0.00309274 0.000812575 0)
(0.00302454 0.000910933 0)
(0.00294802 0.00100752 0)
(0.00286331 0.00110202 0)
(0.00277057 0.00119413 0)
(0.00266999 0.00128354 0)
(0.00256179 0.00136997 0)
(0.00244621 0.00145309 0)
(0.00232353 0.00153264 0)
(0.00219405 0.00160832 0)
(0.00205809 0.00167987 0)
(0.00191602 0.00174701 0)
(0.00176822 0.00180951 0)
(0.00161509 0.00186713 0)
(0.00145707 0.00191964 0)
(0.0012946 0.00196686 0)
(0.00112815 0.0020086 0)
(0.000958213 0.0020447 0)
(0.000785294 0.00207501 0)
(0.000609895 0.00209943 0)
(0.000432577 0.00211784 0)
(0.000254159 0.00213016 0)
(7.4928e-05 0.00213627 0)
(-0.000106384 0.00213597 0)
(-0.000285134 0.00212931 0)
(-0.00046359 0.00211639 0)
(-0.000640798 0.0020973 0)
(-0.000816003 0.00207216 0)
(-0.000988667 0.00204105 0)
(-0.00115828 0.00200413 0)
(-0.00132435 0.00196153 0)
(-0.00148637 0.00191344 0)
(-0.00164387 0.00186003 0)
(-0.00179641 0.00180153 0)
(-0.00194356 0.00173816 0)
(-0.00208491 0.00167017 0)
(-0.00222008 0.00159781 0)
(-0.00234872 0.00152135 0)
(-0.00247051 0.00144107 0)
(-0.00258515 0.00135727 0)
(-0.00269237 0.00127024 0)
(-0.00279192 0.00118027 0)
(-0.00288361 0.00108769 0)
(-0.00296724 0.000992797 0)
(-0.00304267 0.000895898 0)
(-0.00310977 0.000797306 0)
(-0.00316843 0.000697325 0)
(-0.00321861 0.00059626 0)
(-0.00326024 0.000494413 0)
(-0.00329331 0.000392084 0)
(-0.00331783 0.000289567 0)
(-0.00333386 0.000187133 0)
(-0.00334145 8.50137e-05 0)
(-0.00334065 -1.65899e-05 0)
(-0.00333151 -0.000117436 0)
(-0.00331418 -0.000217249 0)
(-0.00328879 -0.000315787 0)
(-0.00325549 -0.000412828 0)
(-0.00321444 -0.000508157 0)
(-0.00316582 -0.000601572 0)
(-0.00310984 -0.000692883 0)
(-0.0030467 -0.000781908 0)
(-0.00297661 -0.00086848 0)
(-0.00289982 -0.00095244 0)
(-0.00281654 -0.00103364 0)
(-0.00272704 -0.00111194 0)
(-0.00263157 -0.00118722 0)
(-0.00253038 -0.00125935 0)
(-0.00242374 -0.00132824 0)
(-0.00231194 -0.00139377 0)
(-0.00219524 -0.00145586 0)
(-0.00207392 -0.00151441 0)
(-0.00194827 -0.00156937 0)
(-0.00181858 -0.00162065 0)
(-0.00168514 -0.00166819 0)
(-0.00154824 -0.00171194 0)
(-0.00140818 -0.00175185 0)
(-0.00126524 -0.00178786 0)
(-0.00111974 -0.00181994 0)
(-0.000971965 -0.00184803 0)
(-0.000822233 -0.00187194 0)
(-0.000670869 -0.00189078 0)
(-0.000518272 -0.00190019 0)
(-0.000365443 -0.00188112 0)
(-0.000216291 -0.00176452 0)
(-8.3275e-05 -0.00136538 0)
(8.954e-07 -0.000441795 0)
(-1.66418e-08 -0.000535963 0)
(9.01981e-05 -0.00159918 0)
(0.000231388 -0.00205936 0)
(0.0003896 -0.00219373 0)
(0.000551633 -0.00221533 0)
(0.000713403 -0.00220388 0)
(0.000873858 -0.00218146 0)
(0.00103257 -0.00215314 0)
(0.0011892 -0.00211998 0)
(0.00134342 -0.00208218 0)
(0.00149492 -0.00203983 0)
(0.0016434 -0.00199298 0)
(0.00178854 -0.00194167 0)
(0.00193003 -0.00188597 0)
(0.00206758 -0.00182594 0)
(0.00220088 -0.00176166 0)
(0.00232963 -0.0016932 0)
(0.00245353 -0.00162065 0)
(0.00257228 -0.0015441 0)
(0.0026856 -0.00146366 0)
(0.00279318 -0.00137943 0)
(0.00289476 -0.00129155 0)
(0.00299004 -0.00120014 0)