/*--------------------------------*- C++ -*----------------------------------*\
| =========                 |                                                 |
| \\      /  F ield         | OpenFOAM: The Open Source CFD Toolbox           |
|  \\    /   O peration     | Version:  2206                                  |
|   \\  /    A nd           | Website:  www.openfoam.com                      |
|    \\/     M anipulation  |                                                 |
\*---------------------------------------------------------------------------*/
FoamFile
{
    version     2.0;
    format      ascii;
    arch        "LSB;label=64;scalar=64";
    class       surfaceScalarField;
    location    "64800";
    object      phi;
}
// * * * * * * * * * * * * * * * * * * * * * * * * * * * * * * * * * * * * * //

dimensions      [0 3 -1 0 0 0 0];

oriented        oriented;

internalField   nonuniform List<scalar> 
24
(
7.39262e-11
-7.39262e-11
3.58762e-10
-2.84836e-10
2.71095e-10
8.7667e-11
2.71095e-10
5.33038e-12
-7.92566e-11
2.12271e-10
-4.91776e-10
1.93317e-10
1.06621e-10
4.64412e-10
-3.02161e-11
-4.90404e-11
-1.8092e-10
-3.41072e-10
-1.18267e-10
4.3968e-11
3.46145e-10
-4.90404e-11
-3.90113e-10
-3.46145e-10
)
;

boundaryField
{
    movingWall
    {
        type            calculated;
        value           uniform 0;
    }
    fixedWalls
    {
        type            calculated;
        value           uniform 0;
    }
    frontAndBack
    {
        type            empty;
        value           nonuniform List<scalar> 0();
    }
}


// ************************************************************************* //
