/*--------------------------------*- C++ -*----------------------------------*\
| =========                 |                                                 |
| \\      /  F ield         | OpenFOAM: The Open Source CFD Toolbox           |
|  \\    /   O peration     | Version:  2212                                  |
|   \\  /    A nd           | Website:  www.openfoam.com                      |
|    \\/     M anipulation  |                                                 |
\*---------------------------------------------------------------------------*/
FoamFile
{
    version     2.0;
    format      ascii;
    arch        "LSB;label=64;scalar=64";
    class       surfaceScalarField;
    location    "520";
    object      phi;
}
// * * * * * * * * * * * * * * * * * * * * * * * * * * * * * * * * * * * * * //

dimensions      [0 3 -1 0 0 0 0];

oriented        oriented;

internalField   nonuniform List<scalar> 
1984
(
-1.66424e-09
1.66629e-09
-2.22466e-08
2.05821e-08
-6.20992e-08
3.98523e-08
-1.11584e-07
4.94843e-08
-1.64756e-07
5.31724e-08
-2.21514e-07
5.67579e-08
-2.83388e-07
6.18742e-08
-3.49794e-07
6.64055e-08
-4.1654e-07
6.67459e-08
-4.74392e-07
5.78518e-08
-5.05778e-07
3.13862e-08
-4.81423e-07
-2.43548e-08
-3.71862e-07
-1.09562e-07
-1.76019e-07
-1.95843e-07
3.5955e-08
-2.11974e-07
1.80575e-07
-1.4462e-07
2.51885e-07
-7.13102e-08
2.76498e-07
-2.46127e-08
2.78832e-07
-2.33404e-09
2.7065e-07
8.18183e-09
2.56622e-07
1.40281e-08
2.3829e-07
1.8332e-08
2.1651e-07
2.17804e-08
1.92309e-07
2.42017e-08
1.66688e-07
2.56207e-08
1.3969e-07
2.69984e-08
1.10222e-07
2.94675e-08
7.753e-08
3.26917e-08
4.39284e-08
3.36017e-08
1.60854e-08
2.78432e-08
1.53172e-09
1.45535e-08
1.53168e-09
-2.58722e-08
2.75384e-08
-1.09596e-07
1.04305e-07
-2.42323e-07
1.7258e-07
-4.02901e-07
2.10061e-07
-5.75847e-07
2.26118e-07
-7.56084e-07
2.36994e-07
-9.41861e-07
2.47651e-07
-1.12691e-06
2.51452e-07
-1.29623e-06
2.36066e-07
-1.42276e-06
1.84386e-07
-1.46252e-06
7.11503e-08
-1.34941e-06
-1.3747e-07
-1.02199e-06
-4.36978e-07
-4.73474e-07
-7.44364e-07
1.30826e-07
-8.16274e-07
5.63668e-07
-5.77461e-07
7.87868e-07
-2.95511e-07
8.77387e-07
-1.14131e-07
8.9755e-07
-2.24963e-08
8.81451e-07
2.42806e-08
8.43709e-07
5.17691e-08
7.89815e-07
7.22266e-08
7.22877e-07
8.87181e-08
6.45934e-07
1.01144e-07
5.61623e-07
1.09932e-07
4.70669e-07
1.17952e-07
3.71931e-07
1.28206e-07
2.66009e-07
1.38614e-07
1.60641e-07
1.38968e-07
7.20195e-08
1.16464e-07
1.68507e-08
6.97225e-08
1.83824e-08
-6.7294e-08
9.48321e-08
-2.43173e-07
2.80183e-07
-4.95624e-07
4.25031e-07
-7.89016e-07
5.03454e-07
-1.09847e-06
5.35567e-07
-1.41057e-06
5.49093e-07
-1.71524e-06
5.52321e-07
-1.99724e-06
5.33457e-07
-2.23065e-06
4.69474e-07
-2.37409e-06
3.27833e-07
-2.36418e-06
6.12306e-08
-2.11729e-06
-3.84352e-07
-1.56656e-06
-9.87712e-07
-7.02918e-07
-1.608e-06
2.54909e-07
-1.7741e-06
9.75499e-07
-1.29805e-06
1.37529e-06
-6.95306e-07
1.55625e-06
-2.95082e-07
1.61662e-06
-8.28705e-08
1.60795e-06
3.29484e-08
1.55556e-06
1.04162e-07
1.46982e-06
1.57964e-07
1.35654e-06
2.02e-07
1.22072e-06
2.36961e-07
1.06659e-06
2.64069e-07
8.96537e-07
2.88001e-07
7.11666e-07
3.13077e-07
5.16044e-07
3.34236e-07
3.2271e-07
3.32302e-07
1.55526e-07
2.83649e-07
4.18968e-08
1.83352e-07
6.02792e-08
-1.16647e-07
2.11479e-07
-4.00066e-07
5.63602e-07
-7.86562e-07
8.11527e-07
-1.22037e-06
9.37261e-07
-1.66445e-06
9.79649e-07
-2.09518e-06
9.7982e-07
-2.49272e-06
9.4986e-07
-2.83315e-06
8.73886e-07
-3.08268e-06
7.19009e-07
-3.19177e-06
4.36917e-07
-3.08488e-06
-4.56522e-08
-2.68032e-06
-7.88918e-07
-1.92496e-06
-1.74307e-06
-8.16285e-07
-2.71668e-06
4.03133e-07
-2.99352e-06
1.37116e-06
-2.26608e-06
1.95444e-06
-1.27858e-06
2.24903e-06
-5.8968e-07
2.37532e-06
-2.09161e-07
2.39699e-06
1.12871e-08
2.34747e-06
1.53674e-07
2.24231e-06
2.63125e-07
2.08974e-06
3.54569e-07
1.8963e-06
4.304e-07
1.66772e-06
4.92653e-07
1.40894e-06
5.46774e-07
1.12498e-06
5.97044e-07
8.24608e-07
6.34605e-07
5.26209e-07
6.30701e-07
2.61867e-07
5.47991e-07
7.38036e-08
3.71415e-07
1.34083e-07
-1.5883e-07
3.70309e-07
-5.36623e-07
9.41394e-07
-1.04351e-06
1.31841e-06
-1.60214e-06
1.4959e-06
-2.1595e-06
1.53701e-06
-2.67997e-06
1.50029e-06
-3.13467e-06
1.40456e-06
-3.49342e-06
1.23264e-06
-3.71857e-06
9.44156e-07
-3.75787e-06
4.76217e-07
-3.53708e-06
-2.66439e-07
-2.98261e-06
-1.34339e-06
-2.05697e-06
-2.6687e-06
-7.82622e-07
-3.99103e-06
5.84709e-07
-4.36085e-06
1.72819e-06
-3.40956e-06
2.47466e-06
-2.02505e-06
2.88527e-06
-1.00029e-06
3.09302e-06
-4.16915e-07
3.16629e-06
-6.19854e-08
3.14015e-06
1.7982e-07
3.03391e-06
3.69361e-07
2.85675e-06
5.31734e-07
2.61554e-06
6.7161e-07
2.31702e-06
7.91173e-07
1.96882e-06
8.94967e-07
1.58058e-06
9.8529e-07
1.16675e-06
1.04843e-06
7.52421e-07
1.04503e-06
3.80042e-07
9.2037e-07
1.09239e-07
6.42218e-07
2.43322e-07
-1.75554e-07
5.45864e-07
-6.02815e-07
1.36865e-06
-1.18656e-06
1.90215e-06
-1.83263e-06
2.14197e-06
-2.46889e-06
2.17327e-06
-3.04533e-06
2.07673e-06
-3.52473e-06
1.88395e-06
-3.87352e-06
1.58143e-06
-4.0541e-06
1.12473e-06
-4.01653e-06
4.38652e-07
-3.69395e-06
-5.89014e-07
-3.01227e-06
-2.02508e-06
-1.94766e-06
-3.73332e-06
-5.76101e-07
-5.36258e-06
8.40274e-07
-5.77723e-06
2.0762e-06
-4.64548e-06
2.93259e-06
-2.88144e-06
3.42898e-06
-1.49667e-06
3.70493e-06
-6.92865e-07
3.83178e-06
-1.88837e-07
3.84106e-06
1.70536e-07
3.74933e-06
4.61095e-07
3.56416e-06
7.16899e-07
3.29056e-06
9.4521e-07
2.93483e-06
1.1469e-06
2.50638e-06
1.32342e-06
2.01918e-06
1.47249e-06
1.49423e-06
1.57338e-06
9.65687e-07
1.57358e-06
4.89022e-07
1.39703e-06
1.41148e-07
9.90091e-07
3.84471e-07
-1.55529e-07
7.01393e-07
-5.64686e-07
1.77781e-06
-1.15824e-06
2.4957e-06
-1.83796e-06
2.8217e-06
-2.51207e-06
2.84738e-06
-3.11297e-06
2.67762e-06
-3.5943e-06
2.36529e-06
-3.92097e-06
1.9081e-06
-4.05806e-06
1.26182e-06
-3.95773e-06
3.38327e-07
-3.55205e-06
-9.94699e-07
-2.75402e-06
-2.82311e-06
-1.57013e-06
-4.9172e-06
-1.61594e-07
-6.77112e-06
1.2344e-06
-7.17322e-06
2.4905e-06
-5.90158e-06
3.3839e-06
-3.77484e-06
3.90743e-06
-2.0202e-06
4.20477e-06
-9.90211e-07
4.35433e-06
-3.38397e-07
4.38613e-06
1.38739e-07
4.30847e-06
5.38755e-07
4.12342e-06
9.01948e-07
3.83076e-06
1.23787e-06
3.43354e-06
1.54412e-06
2.94081e-06
1.81615e-06
2.36962e-06
2.04368e-06
1.74811e-06
2.1949e-06
1.12215e-06
2.19954e-06
5.62536e-07
1.95665e-06
1.60323e-07
1.3923e-06
5.44794e-07
-9.95401e-08
8.00934e-07
-4.13224e-07
2.09149e-06
-9.31204e-07
3.01368e-06
-1.57571e-06
3.4662e-06
-2.24088e-06
3.51255e-06
-2.83741e-06
3.27416e-06
-3.30552e-06
2.8334e-06
-3.60686e-06
2.20944e-06
-3.70856e-06
1.36351e-06
-3.55411e-06
1.83875e-07
-3.06395e-06
-1.48485e-06
-2.14294e-06
-3.74413e-06
-8.60901e-07
-6.19924e-06
5.13712e-07
-8.14573e-06
1.83176e-06
-8.49127e-06
3.05684e-06
-7.12666e-06
3.9138e-06
-4.6318e-06
4.39603e-06
-2.50243e-06
4.65066e-06
-1.24484e-06
4.76501e-06
-4.52744e-07
4.77493e-06
1.28819e-07
4.68478e-06
6.28898e-07
4.48909e-06
1.09764e-06
4.17931e-06
1.54765e-06
3.75148e-06
1.97195e-06
3.21091e-06
2.35672e-06
2.57567e-06
2.67891e-06
1.88124e-06
2.88933e-06
1.18738e-06
2.89339e-06
5.80915e-07
2.56312e-06
1.60315e-07
1.8129e-06
7.05108e-07
-1.98753e-08
8.20809e-07
-1.63537e-07
2.23516e-06
-4.99539e-07
3.34968e-06
-1.01362e-06
3.98028e-06
-1.60623e-06
4.10516e-06
-2.16422e-06
3.83215e-06
-2.60365e-06
3.27283e-06
-2.87177e-06
2.47756e-06
-2.93015e-06
1.42189e-06
-2.70267e-06
-4.36001e-08
-2.09525e-06
-2.09227e-06
-1.04767e-06
-4.7917e-06
2.45427e-07
-7.49234e-06
1.51209e-06
-9.41239e-06
2.72227e-06
-9.70146e-06
3.84416e-06
-8.24855e-06
4.59316e-06
-5.3808e-06
4.97053e-06
-2.8798e-06
5.12155e-06
-1.39586e-06
5.13808e-06
-4.69276e-07
5.06494e-06
2.01959e-07
4.91374e-06
7.80101e-07
4.67578e-06
1.3356e-06
4.33439e-06
1.88904e-06
3.87565e-06
2.43069e-06
3.29756e-06
2.93481e-06
2.61685e-06
3.35962e-06
1.87628e-06
3.6299e-06
1.15059e-06
3.61909e-06
5.4048e-07
3.17322e-06
1.41218e-07
2.21217e-06
8.46326e-07
6.72926e-08
7.53516e-07
1.4281e-07
2.15964e-06
1.00179e-07
3.39231e-06
-1.32423e-07
4.21288e-06
-5.23343e-07
4.49608e-06
-9.71531e-07
4.28034e-06
-1.35699e-06
3.65828e-06
-1.578e-06
2.69858e-06
-1.55629e-06
1.40018e-06
-1.18988e-06
-4.10012e-07
-3.97743e-07
-2.88441e-06
6.78486e-07
-5.86793e-06
1.82852e-06
-8.64237e-06
2.92333e-06
-1.05072e-05
3.96977e-06
-1.07479e-05
4.89048e-06
-9.16927e-06
5.45077e-06
-5.94109e-06
5.66494e-06
-3.09397e-06
5.66495e-06
-1.39587e-06
5.53599e-06
-3.40318e-07
5.32653e-06
4.11426e-07
5.06251e-06
1.04412e-06
4.74076e-06
1.65735e-06
4.34074e-06
2.28907e-06
3.83898e-06
2.93245e-06
3.22417e-06
3.54962e-06
2.51032e-06
4.07346e-06
1.74773e-06
4.39249e-06
1.02594e-06
4.34088e-06
4.53652e-07
3.74551e-06
1.09158e-07
2.55666e-06
9.55483e-07
1.48176e-07
6.0534e-07
4.56354e-07
1.85146e-06
7.77837e-07
3.07083e-06
9.82059e-07
4.00866e-06
1.00051e-06
4.47763e-06
8.66951e-07
4.4139e-06
6.88292e-07
3.83694e-06
6.02095e-07
2.78478e-06
7.59631e-07
1.24264e-06
1.28926e-06
-9.39638e-07
2.13675e-06
-3.7319e-06
3.0833e-06
-6.81448e-06
4.0221e-06
-9.58118e-06
4.86676e-06
-1.13519e-05
5.60473e-06
-1.14859e-05
6.18725e-06
-9.75178e-06
6.45776e-06
-6.2116e-06
6.44884e-06
-3.08505e-06
6.26312e-06
-1.21015e-06
5.95983e-06
-3.70254e-08
5.5855e-06
7.85751e-07
5.17771e-06
1.4519e-06
4.74114e-06
2.09392e-06
4.25635e-06
2.77386e-06
3.69396e-06
3.49484e-06
3.03507e-06
4.20851e-06
2.29267e-06
4.81587e-06
1.52661e-06
5.15854e-06
8.39999e-07
5.02749e-06
3.39629e-07
4.24588e-06
7.19536e-08
2.82434e-06
1.02744e-06
2.03639e-07
4.01701e-07
7.1443e-07
1.34067e-06
1.39989e-06
2.38538e-06
2.10229e-06
3.30626e-06
2.69826e-06
3.88166e-06
3.14224e-06
3.96992e-06
3.47108e-06
3.5081e-06
3.7825e-06
2.47335e-06
4.19217e-06
8.32978e-07
4.83005e-06
-1.57752e-06
5.59822e-06
-4.50008e-06
6.32476e-06
-7.54102e-06
6.91289e-06
-1.01693e-05
7.31664e-06
-1.17556e-05
7.5526e-06
-1.17218e-05
7.62725e-06
-9.82643e-06
7.49225e-06
-6.0766e-06
7.2015e-06
-2.7943e-06
6.8028e-06
-8.11447e-07
6.31452e-06
4.51259e-07
5.7852e-06
1.31507e-06
5.24098e-06
1.99612e-06
4.68814e-06
2.64676e-06
4.10863e-06
3.35337e-06
3.47157e-06
4.1319e-06
2.75697e-06
4.92311e-06
1.98433e-06
5.5885e-06
1.22953e-06
5.91335e-06
6.07658e-07
5.64936e-06
2.09413e-07
4.64413e-06
3.39403e-08
2.99981e-06
1.06138e-06
2.10655e-07
1.91047e-07
8.16267e-07
7.35059e-07
1.7528e-06
1.44884e-06
2.88522e-06
2.17384e-06
4.06873e-06
2.69814e-06
5.19979e-06
2.83886e-06
6.23413e-06
2.47376e-06
7.19849e-06
1.50899e-06
8.13544e-06
-1.0397e-07
9.05105e-06
-2.49313e-06
9.74545e-06
-5.19448e-06
1.01346e-05
-7.93016e-06
1.01889e-05
-1.02236e-05
9.94131e-06
-1.1508e-05
9.47884e-06
-1.12594e-05
8.88784e-06
-9.23543e-06
8.2555e-06
-5.44427e-06
7.65754e-06
-2.19633e-06
7.05026e-06
-2.0417e-07
6.41102e-06
1.0905e-06
5.77285e-06
1.95324e-06
5.14076e-06
2.6282e-06
4.50526e-06
3.28227e-06
3.84202e-06
4.01661e-06
3.12134e-06
4.85257e-06
2.33374e-06
5.71071e-06
1.52621e-06
6.39603e-06
8.06606e-07
6.63296e-06
3.00821e-07
6.15514e-06
5.42118e-08
4.89074e-06
-7.74891e-09
3.06177e-06
1.05363e-06
1.41634e-07
4.9413e-08
6.40181e-07
2.36511e-07
1.55789e-06
5.31136e-07
2.86573e-06
8.65999e-07
4.46478e-06
1.09909e-06
6.2398e-06
1.06383e-06
8.09282e-06
6.2074e-07
9.92499e-06
-3.2317e-07
1.16131e-05
-1.79205e-06
1.27811e-05
-3.66115e-06
1.33773e-05
-5.79073e-06
1.33697e-05
-7.92255e-06
1.28036e-05
-9.65755e-06
1.18038e-05
-1.05082e-05
1.05556e-05
-1.00112e-05
9.25331e-06
-7.93314e-06
8.13243e-06
-4.32339e-06
7.26917e-06
-1.33307e-06
6.51975e-06
5.45244e-07
5.85531e-06
1.75494e-06
5.23173e-06
2.57683e-06
4.60715e-06
3.25278e-06
3.94335e-06
3.94607e-06
3.20655e-06
4.75341e-06
2.37505e-06
5.68408e-06
1.45701e-06
6.62875e-06
6.3794e-07
7.2151e-06
7.38132e-08
7.19708e-06
-1.73703e-07
6.40266e-06
-1.70093e-07
4.88713e-06
-6.6806e-08
2.95848e-06
9.86822e-07
8.64711e-08
-3.70581e-08
4.63575e-07
-1.40592e-07
1.27223e-06
-2.7752e-07
2.5896e-06
-4.51367e-07
4.38501e-06
-6.96314e-07
6.52626e-06
-1.07742e-06
8.81503e-06
-1.66803e-06
1.09928e-05
-2.50094e-06
1.27401e-05
-3.53931e-06
1.38659e-05
-4.78696e-06
1.4259e-05
-6.1839e-06
1.38897e-05
-7.55321e-06
1.28085e-05
-8.57638e-06
1.11887e-05
-8.88828e-06
9.31036e-06
-8.13287e-06
7.49428e-06
-6.11706e-06
6.11566e-06
-2.94476e-06
5.26994e-06
-4.87344e-07
4.61936e-06
1.19582e-06
4.08914e-06
2.28516e-06
3.55825e-06
3.10772e-06
2.91331e-06
3.89772e-06
2.09751e-06
4.76187e-06
1.13788e-06
5.71303e-06
1.50052e-07
6.67192e-06
-6.8717e-07
7.46597e-06
-1.17348e-06
7.70141e-06
-1.23491e-06
7.25852e-06
-9.56488e-07
6.12423e-06
-5.31605e-07
4.46225e-06
-1.61634e-07
2.58851e-06
8.25188e-07
1.40356e-07
-1.77414e-07
5.91978e-07
-5.92214e-07
1.40989e-06
-1.09543e-06
2.60981e-06
-1.65129e-06
4.13451e-06
-2.22101e-06
5.84054e-06
-2.78345e-06
7.51932e-06
-3.34682e-06
8.95876e-06
-3.94038e-06
1.00129e-05
-4.59343e-06
1.05441e-05
-5.3182e-06
1.04426e-05
-6.08239e-06
9.64348e-06
-6.75408e-06
8.1377e-06
-7.0706e-06
6.12155e-06
-6.87213e-06
3.94578e-06
-5.95711e-06
2.0946e-06
-4.26587e-06
9.47053e-07
-1.79721e-06
5.34433e-08
4.06264e-07
-7.06223e-07
1.95549e-06
-1.36044e-06
2.93938e-06
-2.05482e-06
3.80209e-06
-2.83026e-06
4.67316e-06
-3.64162e-06
5.57323e-06
-4.3556e-06
6.42701e-06
-4.77696e-06
7.09328e-06
-4.70529e-06
7.3943e-06
-4.1509e-06
7.14702e-06
-3.21186e-06
6.31947e-06
-2.08848e-06
5.00086e-06
-1.03625e-06
3.41002e-06
-2.88318e-07
1.84058e-06
5.36869e-07
1.31202e-07
-3.08616e-07
4.66676e-07
-9.27688e-07
9.50309e-07
-1.57907e-06
1.50656e-06
-2.20754e-06
2.05191e-06
-2.76636e-06
2.50826e-06
-3.23981e-06
2.8069e-06
-3.64546e-06
2.88364e-06
-4.01712e-06
2.67235e-06
-4.38213e-06
2.09833e-06
-4.74418e-06
1.08614e-06
-5.0702e-06
-3.97202e-07
-5.27074e-06
-2.23612e-06
-5.23169e-06
-4.20888e-06
-4.89937e-06
-6.07555e-06
-4.09043e-06
-7.7046e-06
-2.63683e-06
-9.19718e-06
-3.04631e-07
-1.04003e-05
1.60943e-06
-1.11909e-05
2.74609e-06
-1.1778e-05
3.52648e-06
-1.2138e-05
4.16202e-06
-1.22201e-05
4.75524e-06
-1.19561e-05
5.30928e-06
-1.12774e-05
5.74826e-06
-1.014e-05
5.95592e-06
-8.56411e-06
5.81842e-06
-6.68336e-06
5.26627e-06
-4.68939e-06
4.32551e-06
-2.81518e-06
3.12665e-06
-1.30077e-06
1.89561e-06
-3.35506e-07
8.75311e-07
2.01363e-07
4.62159e-09
-3.13237e-07
-2.97005e-08
-8.93365e-07
-1.63958e-07
-1.44481e-06
-4.57202e-07
-1.91429e-06
-9.49355e-07
-2.27421e-06
-1.65249e-06
-2.53667e-06
-2.55868e-06
-2.73927e-06
-3.65534e-06
-2.92046e-06
-4.93455e-06
-3.10292e-06
-6.39006e-06
-3.28867e-06
-8.00203e-06
-3.45823e-06
-9.70981e-06
-3.56296e-06
-1.14242e-05
-3.51728e-06
-1.31299e-05
-3.19364e-06
-1.48168e-05
-2.40361e-06
-1.65191e-05
-9.34491e-07
-1.79468e-05
1.12308e-06
-1.89285e-05
2.59109e-06
-1.9553e-05
3.37064e-06
-1.97401e-05
3.71356e-06
-1.93971e-05
3.81906e-06
-1.84621e-05
3.82021e-06
-1.69219e-05
3.76909e-06
-1.48274e-05
3.65369e-06
-1.22932e-05
3.42175e-06
-9.49399e-06
3.01921e-06
-6.7063e-06
2.47858e-06
-4.2085e-06
1.82771e-06
-2.22996e-06
1.1481e-06
-8.95502e-07
5.61156e-07
-1.93294e-07
1.73103e-07
8.06886e-09
-1.40135e-07
-1.73103e-07
-5.54194e-07
-4.79307e-07
-1.25008e-06
-7.48924e-07
-2.21105e-06
-9.53315e-07
-3.39472e-06
-1.09054e-06
-4.74568e-06
-1.18571e-06
-6.21453e-06
-1.27043e-06
-7.76799e-06
-1.36699e-06
-9.38534e-06
-1.48557e-06
-1.1052e-05
-1.62205e-06
-1.27482e-05
-1.762e-06
-1.44531e-05
-1.85804e-06
-1.61459e-05
-1.82452e-06
-1.78117e-05
-1.52782e-06
-1.94299e-05
-7.85445e-07
-2.0958e-05
5.93627e-07
-2.22054e-05
2.37045e-06
-2.31176e-05
3.50338e-06
-2.36063e-05
3.85934e-06
-2.3503e-05
3.61021e-06
-2.26681e-05
2.98418e-06
-2.10211e-05
2.17325e-06
-1.85729e-05
1.3208e-06
-1.54549e-05
5.35743e-07
-1.19414e-05
-9.17592e-08
-8.39709e-06
-5.25107e-07
-5.19188e-06
-7.26626e-07
-2.66121e-06
-7.02959e-07
-1.01016e-06
-5.02948e-07
-2.11107e-07
-2.37902e-07
9.39952e-09
-4.74042e-08
1.74685e-08
-2.15913e-07
4.28109e-08
-8.18189e-07
1.22969e-07
-1.76979e-06
2.02679e-07
-2.99205e-06
2.68945e-07
-4.38696e-06
3.04373e-07
-5.86888e-06
2.96209e-07
-7.37994e-06
2.40627e-07
-8.88774e-06
1.40816e-07
-1.03773e-05
3.99307e-09
-1.18435e-05
-1.55835e-07
-1.3294e-05
-3.1151e-07
-1.47312e-05
-4.20844e-07
-1.61435e-05
-4.12266e-07
-1.75038e-05
-1.67427e-07
-1.8787e-05
4.97689e-07
-2.00026e-05
1.80921e-06
-2.10788e-05
3.4467e-06
-2.18624e-05
4.28694e-06
-2.22305e-05
4.22742e-06
-2.20389e-05
3.41867e-06
-2.11777e-05
2.12293e-06
-1.95706e-05
5.66198e-07
-1.73401e-05
-9.09713e-07
-1.46506e-05
-2.15376e-06
-1.16667e-05
-3.07564e-06
-8.63561e-06
-3.55621e-06
-5.78706e-06
-3.57518e-06
-3.36244e-06
-3.12758e-06
-1.56541e-06
-2.29998e-06
-4.94824e-07
-1.30849e-06
-6.40693e-08
-4.78159e-07
-4.6601e-08
-1.36461e-07
1.79272e-07
-5.40128e-07
5.26635e-07
-1.19858e-06
8.61135e-07
-2.06659e-06
1.13695e-06
-3.08709e-06
1.32487e-06
-4.21e-06
1.41912e-06
-5.39861e-06
1.42923e-06
-6.62625e-06
1.36846e-06
-7.87072e-06
1.24845e-06
-9.10756e-06
1.08101e-06
-1.03148e-05
8.95777e-07
-1.14763e-05
7.40651e-07
-1.25847e-05
6.96112e-07
-1.36424e-05
8.90288e-07
-1.46482e-05
1.50342e-06
-1.55951e-05
2.7561e-06
-1.63422e-05
4.19389e-06
-1.67808e-05
4.72552e-06
-1.68879e-05
4.33449e-06
-1.66092e-05
3.13999e-06
-1.5909e-05
1.42277e-06
-1.48734e-05
-4.69453e-07
-1.36248e-05
-2.15827e-06
-1.21696e-05
-3.609e-06
-1.05081e-05
-4.73709e-06
-8.63725e-06
-5.42711e-06
-6.62379e-06
-5.58863e-06
-4.57939e-06
-5.17198e-06
-2.67556e-06
-4.20381e-06
-1.15601e-06
-2.82804e-06
-2.56848e-07
-1.37733e-06
-3.03449e-07
-7.78766e-08
2.57149e-07
-3.0604e-07
7.54798e-07
-6.89568e-07
1.24466e-06
-1.22064e-06
1.66802e-06
-1.87629e-06
1.98053e-06
-2.62463e-06
2.16746e-06
-3.43344e-06
2.23804e-06
-4.27586e-06
2.21088e-06
-5.13215e-06
2.10474e-06
-5.99103e-06
1.9399e-06
-6.84262e-06
1.74736e-06
-7.67951e-06
1.57755e-06
-8.49241e-06
1.50901e-06
-9.26144e-06
1.65932e-06
-9.95134e-06
2.19332e-06
-1.05134e-05
3.3182e-06
-1.0822e-05
4.50243e-06
-1.08573e-05
4.76088e-06
-1.06835e-05
4.16068e-06
-1.03448e-05
2.80127e-06
-9.89399e-06
9.71945e-07
-9.4585e-06
-9.04939e-07
-9.03704e-06
-2.57974e-06
-8.56028e-06
-4.08576e-06
-7.93752e-06
-5.35985e-06
-7.0746e-06
-6.29004e-06
-5.91893e-06
-6.7443e-06
-4.4898e-06
-6.6011e-06
-2.90188e-06
-5.79174e-06
-1.40315e-06
-4.32677e-06
-3.51606e-07
-2.42887e-06
-6.55055e-07
-3.31363e-08
2.90285e-07
-1.4693e-07
8.68592e-07
-3.58598e-07
1.45633e-06
-6.72032e-07
1.98146e-06
-1.0753e-06
2.38379e-06
-1.54447e-06
2.63664e-06
-2.05247e-06
2.74604e-06
-2.57681e-06
2.73522e-06
-3.10359e-06
2.63152e-06
-3.62754e-06
2.46385e-06
-4.147e-06
2.26682e-06
-4.65897e-06
2.08952e-06
-5.15181e-06
2.00185e-06
-5.5969e-06
2.10441e-06
-5.94467e-06
2.54109e-06
-6.11842e-06
3.49196e-06
-6.01721e-06
4.40123e-06
-5.6918e-06
4.43546e-06
-5.25733e-06
3.72622e-06
-4.8314e-06
2.37534e-06
-4.5367e-06
6.77245e-07
-4.45005e-06
-9.9159e-07
-4.53142e-06
-2.49837e-06
-4.70116e-06
-3.91602e-06
-4.84211e-06
-5.2189e-06
-4.80777e-06
-6.32437e-06
-4.46396e-06
-7.08811e-06
-3.74715e-06
-7.31792e-06
-2.68095e-06
-6.85794e-06
-1.44598e-06
-5.56174e-06
-4.09393e-07
-3.46545e-06
-1.06445e-06
-1.34081e-08
3.03692e-07
-6.92296e-08
9.24412e-07
-1.82628e-07
1.56973e-06
-3.57462e-07
2.15629e-06
-5.84743e-07
2.61107e-06
-8.45471e-07
2.89737e-06
-1.11802e-06
3.01859e-06
-1.38657e-06
3.00377e-06
-1.64542e-06
2.89037e-06
-1.89791e-06
2.71633e-06
-2.14947e-06
2.51839e-06
-2.39996e-06
2.34001e-06
-2.63558e-06
2.23747e-06
-2.821e-06
2.28983e-06
-2.89595e-06
2.61603e-06
-2.76699e-06
3.363e-06
-2.36122e-06
3.99545e-06
-1.78707e-06
3.86132e-06
-1.19198e-06
3.13112e-06
-7.06232e-07
1.8896e-06
-4.74939e-07
4.45953e-07
-5.52067e-07
-9.14462e-07
-8.63064e-07
-2.18737e-06
-1.33774e-06
-3.44135e-06
-1.9032e-06
-4.65344e-06
-2.42823e-06
-5.79935e-06
-2.73886e-06
-6.77748e-06
-2.69488e-06
-7.3619e-06
-2.20627e-06
-7.34655e-06
-1.35157e-06
-6.41644e-06
-4.40651e-07
-4.37637e-06
-1.5051e-06
-1.42066e-08
3.17899e-07
-5.99884e-08
9.70195e-07
-1.34347e-07
1.64409e-06
-2.27823e-07
2.24977e-06
-3.29495e-07
2.71274e-06
-4.27321e-07
2.99519e-06
-5.08324e-07
3.09959e-06
-5.66883e-07
3.06233e-06
-6.09271e-07
2.93276e-06
-6.46619e-07
2.75368e-06
-6.89391e-07
2.56116e-06
-7.38071e-07
2.38869e-06
-7.77341e-07
2.27674e-06
-7.69365e-07
2.28186e-06
-6.48493e-07
2.49516e-06
-3.07071e-07
3.02158e-06
2.98338e-07
3.39004e-06
1.01003e-06
3.14963e-06
1.6553e-06
2.48584e-06
2.09142e-06
1.45348e-06
2.22771e-06
3.09667e-07
2.0913e-06
-7.7806e-07
1.74192e-06
-1.83799e-06
1.20648e-06
-2.9059e-06
5.18251e-07
-3.96521e-06
-2.63856e-07
-5.01724e-06
-1.01901e-06
-6.02233e-06
-1.52938e-06
-6.85153e-06
-1.59832e-06
-7.27761e-06
-1.17189e-06
-6.84287e-06
-4.57064e-07
-5.09119e-06
-1.96216e-06
-3.47548e-08
3.52653e-07
-1.10504e-07
1.04594e-06
-1.88254e-07
1.72184e-06
-2.35998e-07
2.29751e-06
-2.40937e-07
2.71768e-06
-2.02072e-07
2.95633e-06
-1.18044e-07
3.01556e-06
-1.34795e-09
2.94563e-06
1.36758e-07
2.79465e-06
2.71903e-07
2.61853e-06
3.96721e-07
2.43634e-06
5.13617e-07
2.27179e-06
6.38938e-07
2.15142e-06
8.07994e-07
2.1128e-06
1.08258e-06
2.22057e-06
1.55916e-06
2.545e-06
2.24643e-06
2.70277e-06
2.97134e-06
2.42473e-06
3.58003e-06
1.87715e-06
3.95139e-06
1.08211e-06
4.04685e-06
2.14208e-07
3.90492e-06
-6.36124e-07
3.55844e-06
-1.49151e-06
3.02429e-06
-2.37176e-06
2.32998e-06
-3.27089e-06
1.49352e-06
-4.18078e-06
5.5466e-07
-5.08347e-06
-3.28259e-07
-5.96861e-06
-9.07435e-07
-6.69844e-06
-9.28106e-07
-6.8222e-06
-4.60421e-07
-5.55888e-06
-2.42259e-06
-8.19291e-08
4.34583e-07
-2.21105e-07
1.18512e-06
-3.21619e-07
1.82235e-06
-3.31382e-07
2.30727e-06
-2.44179e-07
2.63047e-06
-7.21135e-08
2.78426e-06
1.67999e-07
2.77545e-06
4.44237e-07
2.6694e-06
7.26578e-07
2.51231e-06
1.00562e-06
2.3395e-06
1.27582e-06
2.16613e-06
1.54104e-06
2.00658e-06
1.81533e-06
1.87713e-06
2.12601e-06
1.80213e-06
2.52117e-06
1.82541e-06
3.07511e-06
1.99107e-06
3.76356e-06
2.01431e-06
4.43724e-06
1.75106e-06
4.98313e-06
1.33126e-06
5.3116e-06
7.53642e-07
5.40574e-06
1.20062e-07
5.2877e-06
-5.18081e-07
4.96682e-06
-1.17062e-06
4.44704e-06
-1.85198e-06
3.74039e-06
-2.56424e-06
2.86783e-06
-3.30821e-06
1.8717e-06
-4.08734e-06
8.16025e-07
-4.91293e-06
-1.24261e-07
-5.75815e-06
-6.09945e-07
-6.33652e-06
-4.39937e-07
-5.72888e-06
-2.86252e-06
-1.67314e-07
6.01897e-07
-3.88421e-07
1.40623e-06
-4.95904e-07
1.92983e-06
-4.40839e-07
2.25221e-06
-2.38869e-07
2.42851e-06
8.18303e-08
2.46356e-06
4.72984e-07
2.3843e-06
8.89363e-07
2.25302e-06
1.3084e-06
2.09327e-06
1.72223e-06
1.92566e-06
2.12823e-06
1.76014e-06
2.52924e-06
1.60557e-06
2.93409e-06
1.47228e-06
3.36e-06
1.37622e-06
3.83964e-06
1.34576e-06
4.42368e-06
1.40702e-06
5.06996e-06
1.36804e-06
5.66441e-06
1.1566e-06
6.13636e-06
8.59313e-07
6.4247e-06
4.65306e-07
6.51652e-06
2.82452e-08
6.41653e-06
-4.18092e-07
6.12062e-06
-8.74722e-07
5.62493e-06
-1.35629e-06
4.93034e-06
-1.86965e-06
4.04751e-06
-2.42538e-06
3.00478e-06
-3.04461e-06
1.85477e-06
-3.76293e-06
7.03696e-07
-4.60707e-06
-1.79439e-07
-5.45338e-06
-3.71768e-07
-5.53656e-06
-3.23429e-06
-2.91205e-07
8.93102e-07
-5.72457e-07
1.68748e-06
-6.12332e-07
1.96971e-06
-4.21055e-07
2.06093e-06
-4.78939e-08
2.05534e-06
4.43488e-07
1.97218e-06
9.81931e-07
1.84585e-06
1.53467e-06
1.70028e-06
2.08369e-06
1.54425e-06
2.6212e-06
1.38814e-06
3.14324e-06
1.23811e-06
3.64901e-06
1.0998e-06
4.14158e-06
9.79709e-07
4.63029e-06
8.87511e-07
5.13677e-06
8.39277e-07
5.69507e-06
8.48726e-07
6.26041e-06
8.02696e-07
6.7541e-06
6.62912e-07
7.13741e-06
4.75997e-07
7.37157e-06
2.31147e-07
7.43881e-06
-3.8989e-08
7.33391e-06
-3.1319e-07
7.05331e-06
-5.9412e-07
6.58975e-06
-8.92736e-07
5.9365e-06
-1.2164e-06
5.09068e-06
-1.57956e-06
4.0589e-06
-2.01283e-06
2.86702e-06
-2.57105e-06
1.58558e-06
-3.32563e-06
4.02043e-07
-4.26984e-06
-2.18554e-07
-4.91596e-06
-3.45284e-06
-4.2824e-07
1.32134e-06
-6.1887e-07
1.87811e-06
-4.09049e-07
1.75989e-06
5.1538e-08
1.60035e-06
6.50913e-07
1.45597e-06
1.30768e-06
1.31541e-06
1.98141e-06
1.17213e-06
2.64751e-06
1.03418e-06
3.28984e-06
9.01919e-07
3.89942e-06
7.78566e-07
4.47072e-06
6.66807e-07
5.00146e-06
5.69057e-07
5.49334e-06
4.87821e-07
5.95406e-06
4.26793e-07
6.40125e-06
3.92086e-07
6.86113e-06
3.8885e-07
7.29978e-06
3.64051e-07
7.66749e-06
2.95196e-07
7.94301e-06
2.00475e-07
8.09895e-06
7.52124e-08
8.11956e-06
-5.96012e-08
7.99977e-06
-1.93399e-07
7.73745e-06
-3.31799e-07
7.32518e-06
-4.80467e-07
6.75304e-06
-6.4426e-07
6.00841e-06
-8.34933e-07
5.07582e-06
-1.08024e-06
3.94052e-06
-1.43575e-06
2.60914e-06
-1.99425e-06
1.19392e-06
-2.85463e-06
1.17246e-07
-3.83928e-06
-3.3356e-06
-3.79501e-07
1.70084e-06
3.26384e-08
1.46597e-06
7.84818e-07
1.00771e-06
1.56761e-06
8.17551e-07
2.34666e-06
6.76923e-07
3.10717e-06
5.54898e-07
3.82638e-06
4.52928e-07
4.49188e-06
3.68671e-07
5.09593e-06
2.97874e-07
5.63539e-06
2.39108e-07
6.11075e-06
1.91441e-07
6.52589e-06
1.53924e-07
6.88802e-06
1.25688e-07
7.20845e-06
1.06366e-07
7.50416e-06
9.63727e-08
7.79655e-06
9.64577e-08
8.06841e-06
9.21937e-08
8.28995e-06
7.36567e-08
8.44584e-06
4.45855e-08
8.5155e-06
5.5528e-09
8.49067e-06
-3.47763e-08
8.37074e-06
-7.34624e-08
8.15328e-06
-1.14338e-07
7.83201e-06
-1.59198e-07
7.39753e-06
-2.09787e-07
6.8342e-06
-2.71602e-07
6.11349e-06
-3.59532e-07
5.18532e-06
-5.07574e-07
3.97414e-06
-7.83067e-07
2.41852e-06
-1.29901e-06
7.4552e-07
-2.16628e-06
-2.59008e-06
1.70084e-06
3.16681e-06
4.17452e-06
4.99207e-06
5.66899e-06
6.22389e-06
6.67682e-06
7.04549e-06
7.34336e-06
7.58247e-06
7.77391e-06
7.92784e-06
8.05352e-06
8.15989e-06
8.25626e-06
8.35272e-06
8.44491e-06
8.51857e-06
8.56316e-06
8.56871e-06
8.53393e-06
8.46047e-06
8.34613e-06
8.18694e-06
7.97715e-06
7.70555e-06
7.34601e-06
6.83844e-06
6.05537e-06
4.75636e-06
2.59008e-06
)
;

boundaryField
{
    movingWall
    {
        type            calculated;
        value           uniform 0;
    }
    fixedWalls
    {
        type            calculated;
        value           uniform 0;
    }
    floor
    {
        type            calculated;
        value           uniform 0;
    }
    frontAndBack
    {
        type            empty;
        value           nonuniform List<scalar> 0();
    }
}


// ************************************************************************* //
