/*--------------------------------*- C++ -*----------------------------------*\
| =========                 |                                                 |
| \\      /  F ield         | OpenFOAM: The Open Source CFD Toolbox           |
|  \\    /   O peration     | Version:  2212                                  |
|   \\  /    A nd           | Website:  www.openfoam.com                      |
|    \\/     M anipulation  |                                                 |
\*---------------------------------------------------------------------------*/
FoamFile
{
    version     2.0;
    format      ascii;
    arch        "LSB;label=64;scalar=64";
    class       volScalarField;
    location    "520";
    object      Saa;
}
// * * * * * * * * * * * * * * * * * * * * * * * * * * * * * * * * * * * * * //

dimensions      [1 -3 0 0 0 0 0];

internalField   nonuniform List<scalar> 
1024
(
0.00547679
0.00547679
0.0054768
0.00547683
0.00547686
0.0054769
0.00547695
0.00547701
0.00547708
0.00547715
0.00547722
0.00547729
0.00547735
0.00547738
0.00547734
0.00547722
0.00547702
0.0054768
0.00547661
0.00547645
0.00547632
0.00547623
0.00547616
0.0054761
0.00547606
0.00547603
0.00547601
0.00547599
0.00547598
0.00547597
0.00547597
0.00547597
0.00547679
0.00547679
0.00547681
0.00547683
0.00547686
0.0054769
0.00547696
0.00547702
0.00547709
0.00547716
0.00547723
0.0054773
0.00547735
0.00547739
0.00547736
0.00547723
0.00547703
0.00547681
0.00547661
0.00547645
0.00547632
0.00547623
0.00547616
0.00547611
0.00547607
0.00547603
0.00547601
0.00547599
0.00547598
0.00547597
0.00547597
0.00547597
0.00547679
0.0054768
0.00547681
0.00547683
0.00547686
0.00547691
0.00547696
0.00547703
0.0054771
0.00547717
0.00547724
0.00547731
0.00547737
0.00547741
0.00547738
0.00547726
0.00547705
0.00547682
0.00547662
0.00547645
0.00547632
0.00547623
0.00547616
0.0054761
0.00547606
0.00547603
0.00547601
0.00547599
0.00547598
0.00547597
0.00547597
0.00547596
0.00547679
0.0054768
0.00547681
0.00547684
0.00547687
0.00547692
0.00547697
0.00547704
0.00547711
0.00547718
0.00547726
0.00547733
0.00547741
0.00547745
0.00547743
0.00547729
0.00547707
0.00547684
0.00547663
0.00547646
0.00547632
0.00547622
0.00547615
0.0054761
0.00547606
0.00547603
0.00547601
0.00547599
0.00547598
0.00547597
0.00547596
0.00547596
0.00547679
0.0054768
0.00547681
0.00547684
0.00547688
0.00547692
0.00547698
0.00547705
0.00547712
0.00547719
0.00547727
0.00547736
0.00547746
0.00547752
0.0054775
0.00547735
0.00547711
0.00547685
0.00547663
0.00547645
0.00547631
0.00547621
0.00547614
0.00547609
0.00547605
0.00547602
0.005476
0.00547599
0.00547597
0.00547597
0.00547596
0.00547596
0.00547679
0.0054768
0.00547682
0.00547684
0.00547688
0.00547693
0.00547698
0.00547705
0.00547712
0.0054772
0.00547729
0.0054774
0.00547752
0.00547761
0.00547761
0.00547744
0.00547716
0.00547687
0.00547662
0.00547643
0.00547628
0.00547618
0.00547611
0.00547606
0.00547603
0.00547601
0.00547599
0.00547598
0.00547597
0.00547596
0.00547596
0.00547595
0.00547679
0.0054768
0.00547681
0.00547684
0.00547687
0.00547692
0.00547698
0.00547704
0.00547711
0.00547719
0.0054773
0.00547743
0.00547759
0.00547773
0.00547774
0.00547755
0.00547721
0.00547687
0.00547659
0.00547638
0.00547622
0.00547612
0.00547606
0.00547602
0.005476
0.00547598
0.00547597
0.00547596
0.00547596
0.00547595
0.00547595
0.00547595
0.00547679
0.00547679
0.00547681
0.00547683
0.00547686
0.00547691
0.00547696
0.00547702
0.00547709
0.00547717
0.00547729
0.00547746
0.00547767
0.00547786
0.0054779
0.00547768
0.00547727
0.00547686
0.00547654
0.00547629
0.00547613
0.00547603
0.00547597
0.00547595
0.00547594
0.00547594
0.00547594
0.00547594
0.00547594
0.00547594
0.00547594
0.00547593
0.00547677
0.00547678
0.00547679
0.00547681
0.00547684
0.00547688
0.00547692
0.00547697
0.00547704
0.00547713
0.00547727
0.00547748
0.00547775
0.00547801
0.00547808
0.00547782
0.00547733
0.00547683
0.00547644
0.00547616
0.00547599
0.00547589
0.00547585
0.00547585
0.00547586
0.00547588
0.0054759
0.00547591
0.00547592
0.00547592
0.00547592
0.00547592
0.00547675
0.00547676
0.00547677
0.00547679
0.00547681
0.00547684
0.00547687
0.00547691
0.00547698
0.00547707
0.00547724
0.0054775
0.00547785
0.00547819
0.00547829
0.00547798
0.00547737
0.00547676
0.0054763
0.00547598
0.00547579
0.0054757
0.00547568
0.00547571
0.00547575
0.0054758
0.00547584
0.00547587
0.00547588
0.00547589
0.00547589
0.00547589
0.00547672
0.00547672
0.00547673
0.00547675
0.00547676
0.00547678
0.00547681
0.00547685
0.00547691
0.00547702
0.00547722
0.00547756
0.00547801
0.00547842
0.00547851
0.00547811
0.00547736
0.00547663
0.00547609
0.00547573
0.00547553
0.00547546
0.00547547
0.00547554
0.00547562
0.0054757
0.00547577
0.00547581
0.00547584
0.00547585
0.00547586
0.00547586
0.00547668
0.00547668
0.00547669
0.0054767
0.00547671
0.00547672
0.00547675
0.00547679
0.00547687
0.00547702
0.00547731
0.00547776
0.00547831
0.00547874
0.00547875
0.00547819
0.00547727
0.0054764
0.00547579
0.00547541
0.00547522
0.00547518
0.00547523
0.00547534
0.00547547
0.00547558
0.00547568
0.00547574
0.00547578
0.0054758
0.00547581
0.00547581
0.00547671
0.00547671
0.0054767
0.00547669
0.0054767
0.00547671
0.00547675
0.00547683
0.00547699
0.00547726
0.00547768
0.00547825
0.00547884
0.00547918
0.00547898
0.00547815
0.00547701
0.00547603
0.00547537
0.005475
0.00547485
0.00547485
0.00547496
0.00547512
0.0054753
0.00547545
0.00547557
0.00547566
0.00547571
0.00547573
0.00547574
0.00547575
0.00547715
0.00547714
0.00547713
0.00547711
0.00547711
0.00547715
0.00547724
0.00547742
0.0054777
0.00547811
0.00547865
0.00547923
0.00547967
0.00547967
0.00547904
0.00547785
0.0054765
0.00547547
0.00547484
0.00547453
0.00547444
0.00547452
0.00547469
0.00547491
0.00547513
0.00547533
0.00547547
0.00547558
0.00547563
0.00547566
0.00547567
0.00547567
0.00547863
0.00547864
0.00547865
0.00547868
0.00547874
0.00547884
0.00547901
0.00547926
0.00547958
0.00547996
0.00548035
0.0054806
0.00548051
0.00547989
0.0054787
0.00547716
0.00547573
0.00547478
0.00547428
0.00547409
0.00547411
0.00547427
0.0054745
0.00547475
0.00547499
0.00547519
0.00547535
0.00547545
0.00547551
0.00547554
0.00547556
0.00547556
0.00548109
0.00548112
0.00548119
0.00548128
0.00548139
0.00548152
0.00548167
0.00548182
0.00548194
0.00548197
0.00548185
0.00548143
0.00548062
0.00547937
0.00547781
0.00547622
0.00547498
0.00547426
0.00547397
0.00547394
0.00547408
0.00547432
0.00547459
0.00547486
0.00547509
0.00547527
0.00547539
0.00547545
0.00547549
0.0054755
0.0054755
0.0054755
0.00548305
0.00548308
0.00548314
0.00548321
0.00548327
0.00548332
0.00548331
0.00548323
0.00548304
0.00548267
0.00548207
0.0054812
0.00548006
0.00547872
0.00547732
0.00547601
0.00547504
0.00547453
0.00547435
0.00547436
0.00547445
0.00547457
0.00547471
0.00547483
0.00547492
0.005475
0.00547508
0.00547515
0.00547524
0.00547532
0.00547539
0.00547543
0.00548395
0.00548397
0.005484
0.00548403
0.00548404
0.00548402
0.00548395
0.00548379
0.0054835
0.00548305
0.00548243
0.00548163
0.00548068
0.00547962
0.00547852
0.00547747
0.00547666
0.0054762
0.00547596
0.00547584
0.00547577
0.00547575
0.00547577
0.00547585
0.00547601
0.00547625
0.00547657
0.00547695
0.00547733
0.00547766
0.00547789
0.005478
0.00548448
0.00548449
0.00548452
0.00548456
0.0054846
0.00548462
0.00548462
0.00548455
0.00548439
0.00548412
0.00548374
0.00548324
0.00548266
0.005482
0.00548134
0.00548077
0.00548045
0.00548049
0.00548081
0.0054813
0.00548187
0.00548246
0.00548303
0.00548356
0.00548403
0.00548445
0.0054848
0.00548508
0.00548529
0.00548543
0.00548551
0.00548555
0.00548485
0.00548487
0.00548491
0.00548498
0.00548507
0.0054852
0.00548532
0.00548543
0.0054855
0.0054855
0.00548544
0.00548531
0.00548514
0.00548496
0.00548484
0.00548491
0.00548537
0.00548628
0.00548752
0.00548893
0.00549035
0.00549165
0.00549274
0.0054936
0.0054942
0.00549455
0.00549465
0.00549455
0.0054943
0.00549402
0.00549379
0.00549368
0.00548511
0.00548513
0.00548518
0.00548527
0.00548541
0.0054856
0.00548585
0.00548612
0.0054864
0.00548667
0.00548689
0.00548708
0.00548725
0.00548744
0.00548773
0.00548828
0.00548927
0.0054907
0.00549236
0.00549403
0.00549552
0.00549674
0.00549766
0.0054983
0.00549871
0.00549892
0.00549896
0.00549886
0.00549866
0.00549841
0.0054982
0.00549808
0.00548532
0.00548534
0.00548539
0.00548548
0.00548564
0.00548587
0.00548618
0.00548657
0.00548699
0.00548744
0.00548789
0.00548832
0.00548873
0.00548915
0.00548967
0.00549043
0.0054916
0.00549311
0.00549471
0.00549616
0.00549732
0.00549816
0.00549871
0.00549908
0.00549932
0.00549948
0.00549958
0.00549963
0.00549963
0.00549958
0.00549951
0.00549947
0.00548554
0.00548555
0.00548559
0.00548568
0.00548583
0.00548608
0.00548642
0.00548686
0.00548739
0.00548796
0.00548856
0.00548916
0.00548974
0.00549031
0.00549093
0.00549173
0.00549284
0.0054942
0.00549557
0.00549674
0.00549763
0.00549824
0.00549865
0.00549894
0.00549917
0.00549936
0.00549951
0.00549963
0.0054997
0.00549974
0.00549975
0.00549974
0.00548583
0.00548584
0.00548586
0.00548593
0.00548607
0.00548631
0.00548667
0.00548715
0.00548773
0.0054884
0.00548911
0.00548983
0.00549053
0.0054912
0.00549186
0.00549262
0.00549358
0.00549471
0.00549582
0.00549678
0.0054975
0.00549802
0.00549841
0.00549871
0.00549898
0.00549922
0.00549943
0.00549959
0.0054997
0.00549976
0.00549979
0.0054998
0.00548628
0.00548627
0.00548627
0.00548631
0.00548643
0.00548667
0.00548704
0.00548755
0.00548818
0.00548892
0.00548971
0.00549051
0.00549129
0.00549202
0.0054927
0.0054934
0.0054942
0.0054951
0.00549598
0.00549676
0.00549738
0.00549786
0.00549824
0.00549856
0.00549885
0.00549912
0.00549936
0.00549956
0.00549969
0.00549978
0.00549982
0.00549983
0.00548697
0.00548693
0.00548689
0.00548691
0.00548701
0.00548726
0.00548765
0.0054882
0.00548888
0.00548966
0.00549049
0.00549133
0.00549214
0.00549289
0.00549356
0.00549421
0.00549487
0.00549557
0.00549626
0.00549688
0.00549741
0.00549784
0.0054982
0.00549852
0.00549881
0.00549909
0.00549934
0.00549955
0.0054997
0.0054998
0.00549985
0.00549986
0.00548794
0.00548788
0.00548781
0.00548781
0.00548793
0.0054882
0.00548863
0.00548922
0.00548992
0.00549071
0.00549153
0.00549236
0.00549315
0.00549387
0.00549451
0.00549508
0.00549563
0.00549617
0.00549669
0.00549718
0.00549762
0.00549799
0.00549831
0.00549859
0.00549886
0.00549912
0.00549935
0.00549956
0.00549972
0.00549982
0.00549988
0.00549989
0.00548924
0.00548915
0.00548909
0.00548911
0.00548927
0.00548959
0.00549006
0.00549065
0.00549134
0.00549208
0.00549285
0.0054936
0.00549431
0.00549496
0.00549552
0.00549602
0.00549646
0.00549687
0.00549726
0.00549763
0.00549796
0.00549826
0.00549853
0.00549877
0.00549899
0.00549921
0.00549941
0.0054996
0.00549975
0.00549985
0.0054999
0.00549992
0.00549088
0.0054908
0.00549078
0.00549088
0.00549111
0.00549147
0.00549193
0.00549248
0.00549309
0.00549373
0.00549437
0.005495
0.00549559
0.00549612
0.00549658
0.00549698
0.00549732
0.00549762
0.0054979
0.00549816
0.0054984
0.00549863
0.00549883
0.00549901
0.00549918
0.00549935
0.00549951
0.00549966
0.00549979
0.00549988
0.00549993
0.00549995
0.0054929
0.00549287
0.00549295
0.00549314
0.00549341
0.00549375
0.00549415
0.00549459
0.00549506
0.00549554
0.00549602
0.00549648
0.00549691
0.0054973
0.00549764
0.00549793
0.00549816
0.00549836
0.00549855
0.00549872
0.00549888
0.00549903
0.00549917
0.00549929
0.00549941
0.00549953
0.00549964
0.00549974
0.00549984
0.00549991
0.00549995
0.00549997
0.00549538
0.00549543
0.00549559
0.00549579
0.00549602
0.00549626
0.00549653
0.00549681
0.0054971
0.00549739
0.00549768
0.00549796
0.00549821
0.00549844
0.00549865
0.00549882
0.00549895
0.00549907
0.00549917
0.00549927
0.00549936
0.00549944
0.00549952
0.00549959
0.00549966
0.00549972
0.00549978
0.00549984
0.0054999
0.00549995
0.00549997
0.00549999
0.00549838
0.00549843
0.00549851
0.0054986
0.00549868
0.00549877
0.00549887
0.00549896
0.00549906
0.00549916
0.00549925
0.00549934
0.00549943
0.0054995
0.00549957
0.00549962
0.00549967
0.0054997
0.00549974
0.00549977
0.0054998
0.00549982
0.00549985
0.00549987
0.00549989
0.00549991
0.00549993
0.00549995
0.00549997
0.00549998
0.00549999
0.0055
)
;

boundaryField
{
    movingWall
    {
        type            fixedValue;
        value           uniform 0.0055;
    }
    fixedWalls
    {
        type            zeroGradient;
    }
    floor
    {
        type            zeroGradient;
    }
    frontAndBack
    {
        type            empty;
    }
}


// ************************************************************************* //
