/*--------------------------------*- C++ -*----------------------------------*\
| =========                 |                                                 |
| \\      /  F ield         | OpenFOAM: The Open Source CFD Toolbox           |
|  \\    /   O peration     | Version:  2212                                  |
|   \\  /    A nd           | Website:  www.openfoam.com                      |
|    \\/     M anipulation  |                                                 |
\*---------------------------------------------------------------------------*/
FoamFile
{
    version     2.0;
    format      ascii;
    arch        "LSB;label=64;scalar=64";
    class       volScalarField;
    location    "520";
    object      Sco2;
}
// * * * * * * * * * * * * * * * * * * * * * * * * * * * * * * * * * * * * * //

dimensions      [1 -3 0 0 0 0 0];

internalField   nonuniform List<scalar> 
1024
(
0.00598594
0.00598659
0.00598813
0.00599082
0.00599493
0.00600052
0.00600749
0.0060155
0.0060242
0.00603325
0.0060426
0.0060521
0.00606111
0.00606812
0.00607
0.00606343
0.0060488
0.00603113
0.00601425
0.00599929
0.00598651
0.00597566
0.00596629
0.00595798
0.00595045
0.0059438
0.00593819
0.00593382
0.00593069
0.00592867
0.00592754
0.00592707
0.00598604
0.0059867
0.00598827
0.00599106
0.00599527
0.006001
0.00600807
0.00601614
0.00602484
0.0060339
0.00604328
0.00605284
0.00606197
0.00606915
0.00607112
0.00606449
0.00604972
0.00603191
0.00601492
0.00599986
0.00598701
0.00597611
0.00596672
0.0059584
0.00595086
0.00594416
0.0059385
0.00593405
0.00593085
0.00592878
0.00592762
0.00592713
0.00598621
0.0059869
0.00598856
0.0059915
0.00599592
0.00600185
0.00600907
0.0060172
0.00602591
0.00603497
0.00604444
0.00605424
0.00606382
0.00607156
0.00607384
0.006067
0.00605177
0.00603354
0.00601621
0.00600091
0.00598788
0.0059769
0.00596747
0.00595916
0.00595161
0.00594486
0.00593909
0.00593451
0.00593118
0.005929
0.00592777
0.00592726
0.00598642
0.00598715
0.00598893
0.00599205
0.0059967
0.00600283
0.00601018
0.00601831
0.00602698
0.00603607
0.00604577
0.00605615
0.00606673
0.00607572
0.0060787
0.00607142
0.00605516
0.00603598
0.00601796
0.00600219
0.00598888
0.00597775
0.00596831
0.00596004
0.00595253
0.00594575
0.00593987
0.00593513
0.00593163
0.00592933
0.00592803
0.00592749
0.00598662
0.00598739
0.00598926
0.00599253
0.00599734
0.00600358
0.00601092
0.00601896
0.00602753
0.00603669
0.00604683
0.00605828
0.00607071
0.00608193
0.00608623
0.00607822
0.00606008
0.00603915
0.00601988
0.00600331
0.00598954
0.00597823
0.00596881
0.00596067
0.00595329
0.00594659
0.00594067
0.0059358
0.00593215
0.00592972
0.00592834
0.00592777
0.00598666
0.00598746
0.00598938
0.00599268
0.00599749
0.00600364
0.00601079
0.00601856
0.00602695
0.00603622
0.00604708
0.00606023
0.00607554
0.00609028
0.00609674
0.00608781
0.00606669
0.00604287
0.00602154
0.00600367
0.00598922
0.00597768
0.00596837
0.00596051
0.00595346
0.005947
0.00594119
0.00593631
0.00593259
0.00593008
0.00592865
0.00592806
0.00598638
0.00598718
0.00598905
0.00599223
0.0059968
0.0060026
0.00600928
0.00601658
0.00602464
0.00603403
0.00604588
0.00606139
0.00608081
0.00610057
0.00611028
0.00610034
0.00607498
0.00604684
0.00602238
0.00600256
0.00598713
0.00597533
0.00596625
0.00595891
0.00595245
0.00594652
0.00594108
0.0059364
0.00593276
0.00593027
0.00592884
0.00592824
0.00598554
0.00598631
0.00598804
0.00599093
0.00599502
0.00600015
0.00600605
0.00601259
0.00602011
0.00602956
0.00604262
0.00606125
0.00608616
0.00611255
0.00612662
0.00611563
0.00608465
0.00605054
0.00602169
0.00599916
0.0059824
0.00597034
0.0059617
0.0059552
0.00594971
0.00594468
0.00593996
0.00593578
0.00593244
0.0059301
0.00592873
0.00592815
0.00598385
0.00598457
0.00598612
0.00598858
0.00599196
0.00599615
0.00600096
0.00600644
0.00601319
0.00602263
0.0060372
0.00605992
0.00609194
0.0061265
0.00614563
0.00613314
0.00609495
0.00605308
0.00601854
0.00599254
0.00597419
0.00596194
0.00595405
0.00594883
0.00594479
0.00594112
0.00593753
0.00593419
0.0059314
0.00592938
0.00592815
0.0059276
0.00598095
0.00598163
0.00598298
0.00598497
0.00598755
0.00599062
0.00599415
0.00599839
0.00600428
0.00601392
0.00603081
0.00605924
0.00610031
0.00614406
0.0061677
0.00615192
0.00610438
0.00605294
0.00601158
0.00598161
0.00596162
0.00594947
0.00594282
0.00593944
0.00593742
0.00593564
0.00593362
0.00593147
0.00592947
0.0059279
0.00592687
0.00592638
0.00597643
0.00597705
0.00597821
0.0059798
0.00598166
0.00598372
0.00598606
0.00598927
0.00599486
0.0060059
0.00602731
0.00606428
0.00611636
0.00616883
0.00619384
0.00617055
0.00611041
0.00604764
0.00599881
0.00596495
0.00594383
0.00593244
0.00592775
0.00592691
0.00592753
0.00592817
0.00592815
0.00592749
0.00592648
0.00592547
0.00592469
0.00592426
0.00597065
0.00597103
0.00597179
0.00597288
0.00597419
0.0059757
0.0059777
0.00598129
0.00598888
0.00600495
0.00603547
0.0060849
0.0061488
0.00620613
0.00622487
0.0061862
0.00610883
0.00603334
0.00597743
0.00594083
0.00591987
0.00591049
0.0059088
0.00591133
0.00591526
0.00591881
0.00592115
0.00592221
0.00592232
0.00592191
0.00592137
0.005921
0.00597132
0.00597092
0.00597037
0.00597007
0.00597046
0.00597214
0.00597609
0.00598422
0.00599992
0.00602843
0.0060745
0.00613876
0.00620997
0.00626058
0.00625831
0.0061924
0.00609276
0.00600476
0.00594416
0.00590759
0.00588924
0.00588372
0.00588635
0.00589314
0.00590091
0.00590766
0.00591248
0.00591528
0.0059165
0.0059167
0.00591643
0.00591614
0.00601447
0.00601342
0.00601171
0.0060103
0.00601069
0.00601481
0.00602492
0.00604372
0.00607426
0.00611963
0.00618014
0.00624938
0.00630847
0.00632731
0.00628172
0.00617613
0.00605275
0.00595674
0.00589714
0.00586545
0.00585321
0.00585378
0.00586201
0.00587378
0.00588591
0.00589626
0.00590374
0.00590825
0.00591035
0.00591089
0.00591067
0.00591034
0.00616811
0.00616878
0.00617053
0.00617415
0.00618101
0.00619299
0.00621214
0.00624022
0.00627798
0.00632415
0.00637335
0.00641265
0.00642041
0.00637395
0.00626684
0.00612067
0.00598349
0.00589139
0.00584209
0.0058213
0.00581854
0.00582658
0.00584019
0.00585552
0.00586984
0.00588159
0.00589016
0.00589565
0.0058986
0.00589976
0.00589993
0.00589979
0.00643384
0.00643753
0.00644502
0.00645606
0.00647031
0.00648745
0.00650714
0.00652842
0.00654882
0.00656342
0.00656336
0.0065353
0.00646519
0.00634765
0.00619469
0.00603444
0.00590739
0.005834
0.00580194
0.00579525
0.0058035
0.0058199
0.00583959
0.00585883
0.00587498
0.00588653
0.00589332
0.00589618
0.00589652
0.00589579
0.00589498
0.00589453
0.00665659
0.00666054
0.00666804
0.00667811
0.0066893
0.00669978
0.00670726
0.0067087
0.00669969
0.00667408
0.00662455
0.00654469
0.00643325
0.00629723
0.00615039
0.00601031
0.00590357
0.00584464
0.00582001
0.00581368
0.00581637
0.00582289
0.00583023
0.00583667
0.00584158
0.00584552
0.00584992
0.00585612
0.00586448
0.00587378
0.00588166
0.00588602
0.00676473
0.00676753
0.00677276
0.00677971
0.00678722
0.00679355
0.00679604
0.0067909
0.0067734
0.00673871
0.00668359
0.00660725
0.00651165
0.00640116
0.00628269
0.00616684
0.00607376
0.00601633
0.00598359
0.00596322
0.00594978
0.0059416
0.00593953
0.00594565
0.00596212
0.00598994
0.00602788
0.0060729
0.00611933
0.00615995
0.0061885
0.00620218
0.00682582
0.00682849
0.00683412
0.00684281
0.00685417
0.00686687
0.00687825
0.0068844
0.00688108
0.00686492
0.00683465
0.00679075
0.00673496
0.00667047
0.0066032
0.00654385
0.00651174
0.00651981
0.00656042
0.00662152
0.00669338
0.00676826
0.00684104
0.00690875
0.00696968
0.00702301
0.00706697
0.00710116
0.00712584
0.00714218
0.00715183
0.00715611
0.00686583
0.00686889
0.0068761
0.00688854
0.00690677
0.00693017
0.00695649
0.0069821
0.00700318
0.00701688
0.00702241
0.0070205
0.00701334
0.00700533
0.00700494
0.00702789
0.00709626
0.00721988
0.00738511
0.00757211
0.00776171
0.0079379
0.00808905
0.00820946
0.00829551
0.00834582
0.00836148
0.00834728
0.00831297
0.00827267
0.00824065
0.00822482
0.00689055
0.00689366
0.00690146
0.00691574
0.00693807
0.00696904
0.00700764
0.00705113
0.00709587
0.00713858
0.00717748
0.00721255
0.00724575
0.00728223
0.00733266
0.00741647
0.00755545
0.00775011
0.00797503
0.00820365
0.00841414
0.00859322
0.00873547
0.0088427
0.00891726
0.00896116
0.00897688
0.00896759
0.00893933
0.00890226
0.00886937
0.00885131
0.0069098
0.00691263
0.00692007
0.00693435
0.00695773
0.00699185
0.00703702
0.00709175
0.00715313
0.00721769
0.00728252
0.00734585
0.0074078
0.00747209
0.00754881
0.00765776
0.0078188
0.00802532
0.00824459
0.00844908
0.00862142
0.0087574
0.00886233
0.00894473
0.00901037
0.00906144
0.00909749
0.00911743
0.00912168
0.0091137
0.00910056
0.00909103
0.00693301
0.00693499
0.00694102
0.00695376
0.00697615
0.00701071
0.00705886
0.00712034
0.00719306
0.00727368
0.00735831
0.0074433
0.00752625
0.00760793
0.00769544
0.00780576
0.00795656
0.00814149
0.00832986
0.00849803
0.00863484
0.00874288
0.00883187
0.0089107
0.00898362
0.00904958
0.00910452
0.00914453
0.00916816
0.00917726
0.00917669
0.00917334
0.00697154
0.00697182
0.00697499
0.00698459
0.00700448
0.00703815
0.00708801
0.00715463
0.00723652
0.00733024
0.00743103
0.00753362
0.00763327
0.00772772
0.00782019
0.00792312
0.00805126
0.00820293
0.00835628
0.00849381
0.0086082
0.00870341
0.00878809
0.00886952
0.00895074
0.00902952
0.00909991
0.00915547
0.00919254
0.00921169
0.00921742
0.00921675
0.00703854
0.007036
0.0070347
0.00703969
0.00705637
0.00708938
0.00714181
0.00721444
0.00730552
0.00741096
0.0075251
0.00764145
0.00775378
0.00785775
0.00795333
0.00804832
0.00815377
0.00827273
0.00839389
0.00850651
0.00860515
0.00869201
0.00877297
0.0088535
0.00893624
0.00901967
0.00909825
0.00916441
0.00921205
0.00923949
0.00925008
0.00925109
0.00714685
0.0071404
0.00713354
0.00713377
0.00714837
0.00718298
0.00724065
0.00732122
0.00742166
0.00753672
0.00765999
0.00778455
0.00790379
0.00801257
0.00810892
0.00819705
0.00828419
0.00837603
0.00846981
0.00856063
0.00864441
0.00872156
0.00879556
0.0088702
0.00894777
0.00902776
0.00910625
0.00917626
0.00923035
0.00926425
0.0092792
0.00928179
0.00730684
0.00729596
0.00728436
0.00728259
0.00729919
0.00733956
0.00740536
0.00749429
0.00760164
0.00772128
0.00784675
0.00797163
0.00808995
0.00819692
0.00828986
0.00837061
0.00844321
0.00851384
0.00858501
0.00865602
0.00872424
0.00878918
0.00885264
0.00891714
0.00898458
0.00905526
0.00912689
0.00919409
0.00924952
0.00928712
0.00930556
0.00930974
0.00752551
0.00751108
0.00749913
0.00750207
0.00752704
0.00757694
0.00765077
0.00774413
0.00785158
0.00796724
0.00808557
0.00820139
0.00831005
0.00840767
0.00849173
0.00856271
0.00862236
0.00867611
0.00872876
0.00878202
0.00883463
0.00888589
0.00893661
0.00898839
0.00904269
0.00910028
0.00916033
0.00921933
0.0092711
0.00930897
0.00932946
0.00933507
0.0078079
0.00779352
0.00778993
0.0078061
0.00784371
0.0079019
0.00797766
0.00806644
0.00816369
0.00826496
0.00836627
0.00846399
0.00855489
0.00863623
0.00870598
0.008764
0.00881067
0.00885017
0.00888754
0.00892539
0.00896337
0.00900092
0.00903837
0.00907666
0.00911683
0.00915974
0.0092055
0.00925243
0.00929617
0.00933065
0.00935116
0.00935777
0.00816058
0.00815377
0.00816808
0.00820008
0.00824565
0.00830269
0.00836896
0.0084416
0.00851795
0.00859538
0.00867151
0.00874416
0.00881132
0.00887124
0.00892253
0.00896485
0.00899801
0.00902484
0.00904942
0.00907415
0.00909914
0.00912404
0.00914896
0.00917441
0.00920107
0.00922959
0.00926046
0.00929325
0.00932561
0.00935314
0.00937115
0.00937787
0.00859599
0.00860521
0.00863422
0.00866876
0.00870696
0.00874863
0.00879329
0.00883997
0.00888764
0.00893513
0.0089813
0.00902505
0.00906533
0.0091012
0.00913186
0.00915706
0.00917651
0.00919182
0.00920552
0.0092192
0.00923303
0.00924684
0.00926068
0.00927477
0.00928947
0.00930516
0.00932225
0.00934079
0.00935996
0.00937748
0.00939014
0.0093956
0.00913031
0.00913816
0.00915336
0.00916828
0.00918314
0.00919835
0.00921398
0.00922991
0.00924593
0.00926174
0.009277
0.00929141
0.00930464
0.0093164
0.00932645
0.00933468
0.009341
0.00934591
0.00935025
0.00935456
0.00935891
0.00936326
0.00936761
0.00937203
0.00937662
0.0093815
0.0093868
0.0093926
0.00939872
0.00940457
0.00940918
0.00941144
)
;

boundaryField
{
    movingWall
    {
        type            fixedValue;
        value           uniform 0.00942;
    }
    fixedWalls
    {
        type            zeroGradient;
    }
    floor
    {
        type            zeroGradient;
    }
    frontAndBack
    {
        type            empty;
    }
}


// ************************************************************************* //
