/*--------------------------------*- C++ -*----------------------------------*\
| =========                 |                                                 |
| \\      /  F ield         | OpenFOAM: The Open Source CFD Toolbox           |
|  \\    /   O peration     | Version:  2212                                  |
|   \\  /    A nd           | Website:  www.openfoam.com                      |
|    \\/     M anipulation  |                                                 |
\*---------------------------------------------------------------------------*/
FoamFile
{
    version     2.0;
    format      ascii;
    arch        "LSB;label=64;scalar=64";
    class       volScalarField;
    location    "450";
    object      Gh2;
}
// * * * * * * * * * * * * * * * * * * * * * * * * * * * * * * * * * * * * * //

dimensions      [1 -3 0 0 0 0 0];

internalField   nonuniform List<scalar> 
1024
(
1.25144e-05
1.25127e-05
1.25087e-05
1.25017e-05
1.24916e-05
1.24785e-05
1.24635e-05
1.24476e-05
1.24321e-05
1.2418e-05
1.24066e-05
1.23992e-05
1.2396e-05
1.23968e-05
1.24013e-05
1.24096e-05
1.24215e-05
1.24362e-05
1.24524e-05
1.24699e-05
1.24882e-05
1.25072e-05
1.25269e-05
1.25469e-05
1.25665e-05
1.25845e-05
1.26e-05
1.26122e-05
1.26211e-05
1.26268e-05
1.263e-05
1.26313e-05
1.25141e-05
1.25123e-05
1.25081e-05
1.25008e-05
1.24903e-05
1.24768e-05
1.24615e-05
1.24453e-05
1.24295e-05
1.24152e-05
1.24036e-05
1.23962e-05
1.23931e-05
1.2394e-05
1.23987e-05
1.24071e-05
1.24191e-05
1.24339e-05
1.24502e-05
1.24677e-05
1.2486e-05
1.25051e-05
1.25248e-05
1.25448e-05
1.25645e-05
1.25828e-05
1.25986e-05
1.26112e-05
1.26203e-05
1.26262e-05
1.26295e-05
1.26309e-05
1.25133e-05
1.25114e-05
1.25069e-05
1.24991e-05
1.24878e-05
1.24737e-05
1.24575e-05
1.24405e-05
1.24238e-05
1.24085e-05
1.23964e-05
1.23889e-05
1.2386e-05
1.23873e-05
1.23925e-05
1.24013e-05
1.24137e-05
1.24288e-05
1.24455e-05
1.24631e-05
1.24816e-05
1.25007e-05
1.25204e-05
1.25405e-05
1.25604e-05
1.25792e-05
1.25956e-05
1.26089e-05
1.26186e-05
1.26249e-05
1.26284e-05
1.26299e-05
1.2512e-05
1.251e-05
1.25052e-05
1.24968e-05
1.24846e-05
1.24693e-05
1.24517e-05
1.2433e-05
1.24143e-05
1.2397e-05
1.23835e-05
1.23757e-05
1.23732e-05
1.23754e-05
1.23814e-05
1.23911e-05
1.24045e-05
1.24205e-05
1.24379e-05
1.24561e-05
1.24749e-05
1.24941e-05
1.25139e-05
1.25341e-05
1.25543e-05
1.25737e-05
1.2591e-05
1.26052e-05
1.26158e-05
1.26227e-05
1.26266e-05
1.26282e-05
1.25105e-05
1.25083e-05
1.25032e-05
1.24941e-05
1.24809e-05
1.2464e-05
1.24443e-05
1.24227e-05
1.24006e-05
1.238e-05
1.2364e-05
1.23553e-05
1.23533e-05
1.23566e-05
1.23641e-05
1.23755e-05
1.23906e-05
1.24085e-05
1.24274e-05
1.24468e-05
1.24663e-05
1.24859e-05
1.25058e-05
1.25261e-05
1.25466e-05
1.25666e-05
1.25849e-05
1.26003e-05
1.2612e-05
1.26197e-05
1.2624e-05
1.26258e-05
1.25086e-05
1.25064e-05
1.25009e-05
1.24913e-05
1.24769e-05
1.2458e-05
1.24354e-05
1.24098e-05
1.23829e-05
1.23574e-05
1.23377e-05
1.23272e-05
1.23254e-05
1.23301e-05
1.23396e-05
1.23535e-05
1.23715e-05
1.23924e-05
1.24139e-05
1.24353e-05
1.24562e-05
1.24766e-05
1.24969e-05
1.25175e-05
1.25383e-05
1.25589e-05
1.25782e-05
1.25948e-05
1.26075e-05
1.26161e-05
1.26208e-05
1.26228e-05
1.25064e-05
1.25042e-05
1.24985e-05
1.24883e-05
1.24727e-05
1.24516e-05
1.24253e-05
1.23947e-05
1.23618e-05
1.23301e-05
1.23054e-05
1.2292e-05
1.22896e-05
1.22957e-05
1.23077e-05
1.23248e-05
1.2347e-05
1.23723e-05
1.23978e-05
1.24223e-05
1.24454e-05
1.24672e-05
1.24884e-05
1.25093e-05
1.25304e-05
1.25516e-05
1.25717e-05
1.25892e-05
1.26029e-05
1.26122e-05
1.26174e-05
1.26194e-05
1.25039e-05
1.25017e-05
1.24959e-05
1.24852e-05
1.24684e-05
1.24448e-05
1.24145e-05
1.23782e-05
1.23382e-05
1.22994e-05
1.22687e-05
1.22514e-05
1.22477e-05
1.22547e-05
1.22693e-05
1.22903e-05
1.2318e-05
1.23496e-05
1.23804e-05
1.24091e-05
1.24351e-05
1.2459e-05
1.24812e-05
1.25028e-05
1.25243e-05
1.25458e-05
1.25664e-05
1.25846e-05
1.25989e-05
1.26085e-05
1.2614e-05
1.26161e-05
1.2501e-05
1.24988e-05
1.24929e-05
1.24818e-05
1.24639e-05
1.24378e-05
1.24032e-05
1.23607e-05
1.23132e-05
1.22667e-05
1.22294e-05
1.22077e-05
1.22022e-05
1.22099e-05
1.22271e-05
1.22528e-05
1.22874e-05
1.23269e-05
1.23646e-05
1.23982e-05
1.24277e-05
1.24536e-05
1.24771e-05
1.24993e-05
1.25211e-05
1.25427e-05
1.25634e-05
1.25816e-05
1.25959e-05
1.26056e-05
1.26111e-05
1.26132e-05
1.24974e-05
1.24952e-05
1.24893e-05
1.24779e-05
1.24588e-05
1.24303e-05
1.23914e-05
1.23425e-05
1.22871e-05
1.22326e-05
1.21889e-05
1.2163e-05
1.21562e-05
1.21647e-05
1.21849e-05
1.22161e-05
1.22598e-05
1.23094e-05
1.23549e-05
1.23936e-05
1.24261e-05
1.24537e-05
1.2478e-05
1.25003e-05
1.25219e-05
1.2543e-05
1.25632e-05
1.25808e-05
1.25946e-05
1.26039e-05
1.26091e-05
1.26112e-05
1.24928e-05
1.24906e-05
1.24846e-05
1.24728e-05
1.24527e-05
1.24217e-05
1.23782e-05
1.23225e-05
1.2259e-05
1.2197e-05
1.21477e-05
1.21191e-05
1.21121e-05
1.21224e-05
1.21463e-05
1.21847e-05
1.22404e-05
1.23032e-05
1.23575e-05
1.24006e-05
1.24347e-05
1.24625e-05
1.24861e-05
1.25074e-05
1.25278e-05
1.25476e-05
1.25663e-05
1.25826e-05
1.25952e-05
1.26037e-05
1.26086e-05
1.26106e-05
1.24861e-05
1.24839e-05
1.24779e-05
1.24656e-05
1.24442e-05
1.24105e-05
1.23619e-05
1.22991e-05
1.22277e-05
1.2159e-05
1.21062e-05
1.20772e-05
1.20719e-05
1.20851e-05
1.21137e-05
1.21613e-05
1.2233e-05
1.23133e-05
1.23782e-05
1.24244e-05
1.24577e-05
1.2483e-05
1.25037e-05
1.25221e-05
1.25397e-05
1.25569e-05
1.25731e-05
1.25872e-05
1.25981e-05
1.26056e-05
1.26099e-05
1.26118e-05
1.2476e-05
1.24738e-05
1.24675e-05
1.24545e-05
1.24313e-05
1.23941e-05
1.23399e-05
1.22697e-05
1.21913e-05
1.21184e-05
1.20652e-05
1.20388e-05
1.20369e-05
1.20531e-05
1.20856e-05
1.21429e-05
1.22341e-05
1.2338e-05
1.24175e-05
1.2467e-05
1.24972e-05
1.25172e-05
1.25321e-05
1.25452e-05
1.25581e-05
1.25711e-05
1.25837e-05
1.25948e-05
1.26036e-05
1.26099e-05
1.26138e-05
1.26156e-05
1.24597e-05
1.24574e-05
1.24506e-05
1.24363e-05
1.24104e-05
1.23688e-05
1.23084e-05
1.22317e-05
1.21488e-05
1.20759e-05
1.20267e-05
1.20057e-05
1.20072e-05
1.20237e-05
1.20559e-05
1.21181e-05
1.22271e-05
1.23593e-05
1.24618e-05
1.25204e-05
1.2549e-05
1.25627e-05
1.25703e-05
1.25769e-05
1.25844e-05
1.25927e-05
1.2601e-05
1.26085e-05
1.26146e-05
1.26193e-05
1.26224e-05
1.2624e-05
1.24345e-05
1.2432e-05
1.24244e-05
1.24081e-05
1.23787e-05
1.23318e-05
1.22657e-05
1.2185e-05
1.21026e-05
1.20353e-05
1.19946e-05
1.19803e-05
1.19826e-05
1.1993e-05
1.20147e-05
1.20678e-05
1.21813e-05
1.23387e-05
1.24736e-05
1.25565e-05
1.25954e-05
1.26078e-05
1.26082e-05
1.26055e-05
1.26046e-05
1.26067e-05
1.26116e-05
1.26179e-05
1.26244e-05
1.26299e-05
1.26338e-05
1.26358e-05
1.2397e-05
1.23941e-05
1.23854e-05
1.23669e-05
1.23341e-05
1.22833e-05
1.22148e-05
1.21359e-05
1.20608e-05
1.20049e-05
1.19755e-05
1.19671e-05
1.19666e-05
1.19636e-05
1.19597e-05
1.19766e-05
1.20574e-05
1.22121e-05
1.23771e-05
1.25058e-05
1.25905e-05
1.26381e-05
1.26621e-05
1.26725e-05
1.26763e-05
1.26773e-05
1.26769e-05
1.26752e-05
1.26719e-05
1.26677e-05
1.26638e-05
1.26615e-05
1.23562e-05
1.23531e-05
1.2344e-05
1.2325e-05
1.22921e-05
1.22428e-05
1.21792e-05
1.21089e-05
1.20448e-05
1.19999e-05
1.19793e-05
1.19762e-05
1.19758e-05
1.19629e-05
1.19296e-05
1.18843e-05
1.18699e-05
1.19365e-05
1.20589e-05
1.21876e-05
1.23e-05
1.23885e-05
1.24547e-05
1.24998e-05
1.25264e-05
1.25367e-05
1.25326e-05
1.25177e-05
1.24967e-05
1.24752e-05
1.24588e-05
1.24504e-05
1.2325e-05
1.2322e-05
1.23134e-05
1.22956e-05
1.22654e-05
1.22212e-05
1.21652e-05
1.21043e-05
1.20492e-05
1.20109e-05
1.19951e-05
1.19981e-05
1.20076e-05
1.20065e-05
1.19768e-05
1.1904e-05
1.18004e-05
1.17255e-05
1.17101e-05
1.17327e-05
1.17718e-05
1.18154e-05
1.18564e-05
1.18914e-05
1.19187e-05
1.19377e-05
1.19479e-05
1.19502e-05
1.19464e-05
1.19397e-05
1.19333e-05
1.19297e-05
1.23048e-05
1.2302e-05
1.22941e-05
1.22781e-05
1.22513e-05
1.22123e-05
1.2163e-05
1.21092e-05
1.20597e-05
1.2024e-05
1.20083e-05
1.20119e-05
1.20268e-05
1.20392e-05
1.20313e-05
1.19812e-05
1.18764e-05
1.17489e-05
1.16436e-05
1.15682e-05
1.15165e-05
1.14816e-05
1.14593e-05
1.14471e-05
1.14435e-05
1.14475e-05
1.14577e-05
1.1472e-05
1.14873e-05
1.15003e-05
1.15086e-05
1.15121e-05
1.2293e-05
1.22904e-05
1.22832e-05
1.22692e-05
1.22459e-05
1.22119e-05
1.21688e-05
1.2121e-05
1.20758e-05
1.20412e-05
1.20232e-05
1.20231e-05
1.20362e-05
1.20525e-05
1.20578e-05
1.20326e-05
1.19579e-05
1.1844e-05
1.17248e-05
1.16182e-05
1.15289e-05
1.14558e-05
1.13968e-05
1.13506e-05
1.13169e-05
1.12955e-05
1.12857e-05
1.12857e-05
1.12924e-05
1.13017e-05
1.13096e-05
1.13136e-05
1.22877e-05
1.22852e-05
1.22788e-05
1.22666e-05
1.22466e-05
1.22177e-05
1.21806e-05
1.21387e-05
1.20979e-05
1.20648e-05
1.20445e-05
1.20391e-05
1.20459e-05
1.20579e-05
1.2064e-05
1.20497e-05
1.19992e-05
1.1913e-05
1.18104e-05
1.1706e-05
1.16081e-05
1.152e-05
1.14425e-05
1.13763e-05
1.13222e-05
1.1281e-05
1.12529e-05
1.12368e-05
1.12304e-05
1.12305e-05
1.12333e-05
1.12356e-05
1.22874e-05
1.2285e-05
1.22792e-05
1.22686e-05
1.22517e-05
1.22275e-05
1.21964e-05
1.21608e-05
1.21251e-05
1.20945e-05
1.20728e-05
1.20619e-05
1.20601e-05
1.20621e-05
1.20596e-05
1.20429e-05
1.20021e-05
1.19364e-05
1.18546e-05
1.17646e-05
1.16725e-05
1.15823e-05
1.14964e-05
1.14172e-05
1.13474e-05
1.12902e-05
1.12474e-05
1.1219e-05
1.12033e-05
1.1197e-05
1.11963e-05
1.11972e-05
1.22898e-05
1.22877e-05
1.22827e-05
1.22737e-05
1.22596e-05
1.22396e-05
1.2214e-05
1.21847e-05
1.21545e-05
1.21268e-05
1.21041e-05
1.20872e-05
1.20746e-05
1.20626e-05
1.20458e-05
1.20182e-05
1.19764e-05
1.19209e-05
1.18548e-05
1.17801e-05
1.16997e-05
1.16161e-05
1.15314e-05
1.14483e-05
1.13705e-05
1.13023e-05
1.12477e-05
1.12088e-05
1.1185e-05
1.11734e-05
1.117e-05
1.117e-05
1.22897e-05
1.22887e-05
1.22855e-05
1.2279e-05
1.2268e-05
1.2252e-05
1.22315e-05
1.22074e-05
1.21816e-05
1.21556e-05
1.21301e-05
1.21049e-05
1.20791e-05
1.20507e-05
1.2017e-05
1.19755e-05
1.19273e-05
1.18751e-05
1.18191e-05
1.17572e-05
1.16894e-05
1.16163e-05
1.15392e-05
1.14602e-05
1.13822e-05
1.13098e-05
1.12481e-05
1.12012e-05
1.11703e-05
1.11538e-05
1.11478e-05
1.11471e-05
1.22781e-05
1.22792e-05
1.22798e-05
1.2278e-05
1.22718e-05
1.22605e-05
1.22441e-05
1.22235e-05
1.21989e-05
1.21706e-05
1.21381e-05
1.21014e-05
1.20606e-05
1.20154e-05
1.19658e-05
1.19117e-05
1.1857e-05
1.18057e-05
1.17562e-05
1.17045e-05
1.16483e-05
1.15869e-05
1.15205e-05
1.14503e-05
1.13783e-05
1.13083e-05
1.1245e-05
1.11937e-05
1.11575e-05
1.11368e-05
1.11282e-05
1.11268e-05
1.22429e-05
1.22474e-05
1.22542e-05
1.22597e-05
1.22604e-05
1.22544e-05
1.2241e-05
1.22202e-05
1.2192e-05
1.21561e-05
1.21126e-05
1.20624e-05
1.20071e-05
1.19483e-05
1.18871e-05
1.18251e-05
1.17671e-05
1.17173e-05
1.16733e-05
1.16301e-05
1.15844e-05
1.15346e-05
1.14801e-05
1.14211e-05
1.13588e-05
1.12958e-05
1.12359e-05
1.11843e-05
1.11456e-05
1.11216e-05
1.11108e-05
1.11085e-05
1.21736e-05
1.21821e-05
1.21956e-05
1.22089e-05
1.22165e-05
1.22145e-05
1.22012e-05
1.21764e-05
1.21404e-05
1.20941e-05
1.20391e-05
1.19779e-05
1.1913e-05
1.18469e-05
1.17812e-05
1.17176e-05
1.1661e-05
1.1615e-05
1.15768e-05
1.15412e-05
1.1505e-05
1.1466e-05
1.14232e-05
1.13763e-05
1.13256e-05
1.12725e-05
1.12198e-05
1.11718e-05
1.11334e-05
1.11078e-05
1.10952e-05
1.10921e-05
1.20643e-05
1.2076e-05
1.2093e-05
1.21095e-05
1.21193e-05
1.21171e-05
1.21008e-05
1.20703e-05
1.2027e-05
1.19733e-05
1.19122e-05
1.1847e-05
1.17808e-05
1.17157e-05
1.16532e-05
1.15945e-05
1.15439e-05
1.15043e-05
1.14725e-05
1.14443e-05
1.14165e-05
1.13873e-05
1.13553e-05
1.13201e-05
1.12814e-05
1.12398e-05
1.11967e-05
1.11554e-05
1.11201e-05
1.10949e-05
1.10814e-05
1.10775e-05
1.19137e-05
1.19254e-05
1.19386e-05
1.19493e-05
1.19537e-05
1.19472e-05
1.19274e-05
1.18944e-05
1.18499e-05
1.17971e-05
1.17392e-05
1.16796e-05
1.16208e-05
1.15645e-05
1.15117e-05
1.14632e-05
1.14221e-05
1.13906e-05
1.1366e-05
1.13449e-05
1.13247e-05
1.13039e-05
1.12815e-05
1.12567e-05
1.12292e-05
1.11991e-05
1.11669e-05
1.11345e-05
1.1105e-05
1.10824e-05
1.10692e-05
1.10648e-05
1.17212e-05
1.17278e-05
1.17287e-05
1.17269e-05
1.17225e-05
1.17118e-05
1.16922e-05
1.16632e-05
1.16262e-05
1.15834e-05
1.15377e-05
1.14917e-05
1.14471e-05
1.1405e-05
1.13662e-05
1.1331e-05
1.13015e-05
1.12791e-05
1.1262e-05
1.12476e-05
1.12342e-05
1.12206e-05
1.12062e-05
1.11902e-05
1.11726e-05
1.1153e-05
1.11316e-05
1.11091e-05
1.10874e-05
1.10695e-05
1.10581e-05
1.10538e-05
1.14826e-05
1.14789e-05
1.14678e-05
1.14579e-05
1.14494e-05
1.14393e-05
1.14254e-05
1.14065e-05
1.1383e-05
1.13564e-05
1.13283e-05
1.13002e-05
1.12733e-05
1.12481e-05
1.12251e-05
1.12043e-05
1.1187e-05
1.1174e-05
1.11641e-05
1.11559e-05
1.11484e-05
1.11409e-05
1.1133e-05
1.11244e-05
1.11149e-05
1.11043e-05
1.10925e-05
1.10798e-05
1.1067e-05
1.10557e-05
1.10477e-05
1.10443e-05
1.11902e-05
1.11862e-05
1.11792e-05
1.11737e-05
1.11695e-05
1.11654e-05
1.11605e-05
1.11541e-05
1.11463e-05
1.11374e-05
1.11281e-05
1.11189e-05
1.11101e-05
1.11019e-05
1.10943e-05
1.10876e-05
1.1082e-05
1.10778e-05
1.10746e-05
1.1072e-05
1.10696e-05
1.10673e-05
1.10648e-05
1.10621e-05
1.10592e-05
1.10559e-05
1.10523e-05
1.10483e-05
1.10442e-05
1.10404e-05
1.10376e-05
1.10362e-05
)
;

boundaryField
{
    movingWall
    {
        type            fixedValue;
        value           uniform 1.1032e-05;
    }
    fixedWalls
    {
        type            zeroGradient;
    }
    floor
    {
        type            zeroGradient;
    }
    frontAndBack
    {
        type            empty;
    }
}


// ************************************************************************* //
