/*--------------------------------*- C++ -*----------------------------------*\
| =========                 |                                                 |
| \\      /  F ield         | OpenFOAM: The Open Source CFD Toolbox           |
|  \\    /   O peration     | Version:  2212                                  |
|   \\  /    A nd           | Website:  www.openfoam.com                      |
|    \\/     M anipulation  |                                                 |
\*---------------------------------------------------------------------------*/
FoamFile
{
    version     2.0;
    format      ascii;
    arch        "LSB;label=64;scalar=64";
    class       volScalarField;
    location    "450";
    object      Saa;
}
// * * * * * * * * * * * * * * * * * * * * * * * * * * * * * * * * * * * * * //

dimensions      [1 -3 0 0 0 0 0];

internalField   nonuniform List<scalar> 
1024
(
0.00547742
0.00547746
0.00547754
0.00547767
0.00547788
0.00547814
0.00547843
0.00547875
0.00547906
0.00547933
0.00547955
0.00547969
0.00547974
0.00547971
0.0054796
0.0054794
0.00547913
0.00547881
0.00547846
0.0054781
0.00547772
0.00547732
0.00547692
0.00547651
0.00547611
0.00547574
0.00547542
0.00547517
0.00547499
0.00547487
0.00547481
0.00547478
0.00547743
0.00547746
0.00547755
0.00547769
0.0054779
0.00547817
0.00547848
0.0054788
0.00547911
0.00547939
0.00547961
0.00547975
0.0054798
0.00547976
0.00547965
0.00547945
0.00547918
0.00547886
0.00547851
0.00547814
0.00547776
0.00547737
0.00547696
0.00547655
0.00547615
0.00547578
0.00547545
0.00547519
0.00547501
0.00547489
0.00547482
0.00547479
0.00547745
0.00547748
0.00547757
0.00547773
0.00547795
0.00547823
0.00547855
0.00547889
0.00547922
0.00547952
0.00547975
0.00547989
0.00547994
0.00547989
0.00547977
0.00547956
0.00547929
0.00547895
0.0054786
0.00547823
0.00547785
0.00547745
0.00547705
0.00547664
0.00547623
0.00547585
0.00547551
0.00547524
0.00547504
0.00547491
0.00547484
0.00547481
0.00547747
0.00547751
0.00547761
0.00547777
0.00547802
0.00547832
0.00547867
0.00547904
0.00547941
0.00547975
0.00548001
0.00548015
0.00548019
0.00548013
0.00547998
0.00547976
0.00547946
0.00547911
0.00547874
0.00547836
0.00547798
0.00547758
0.00547718
0.00547677
0.00547636
0.00547596
0.00547561
0.00547532
0.0054751
0.00547496
0.00547488
0.00547485
0.0054775
0.00547754
0.00547765
0.00547783
0.00547809
0.00547843
0.00547882
0.00547925
0.00547968
0.00548008
0.00548039
0.00548055
0.00548057
0.00548049
0.00548031
0.00548006
0.00547972
0.00547934
0.00547894
0.00547854
0.00547814
0.00547774
0.00547734
0.00547692
0.00547651
0.0054761
0.00547573
0.00547541
0.00547518
0.00547502
0.00547493
0.00547489
0.00547754
0.00547758
0.00547769
0.00547788
0.00547817
0.00547855
0.005479
0.0054795
0.00548003
0.00548053
0.00548091
0.0054811
0.00548112
0.005481
0.00548078
0.00548047
0.00548007
0.00547963
0.00547919
0.00547875
0.00547833
0.00547791
0.0054775
0.00547709
0.00547667
0.00547625
0.00547586
0.00547552
0.00547526
0.00547509
0.00547499
0.00547495
0.00547758
0.00547763
0.00547774
0.00547794
0.00547825
0.00547867
0.0054792
0.0054798
0.00548045
0.00548107
0.00548155
0.00548179
0.00548181
0.00548166
0.00548138
0.005481
0.00548052
0.00547999
0.00547947
0.00547898
0.00547852
0.00547808
0.00547766
0.00547724
0.00547682
0.00547639
0.00547599
0.00547563
0.00547535
0.00547517
0.00547506
0.00547502
0.00547763
0.00547768
0.00547779
0.00547801
0.00547834
0.00547881
0.00547941
0.00548013
0.00548092
0.00548167
0.00548226
0.00548258
0.00548261
0.00548243
0.00548209
0.00548163
0.00548103
0.00548039
0.00547977
0.0054792
0.00547868
0.00547822
0.00547778
0.00547736
0.00547693
0.0054765
0.00547609
0.00547572
0.00547543
0.00547524
0.00547513
0.00547508
0.00547769
0.00547774
0.00547785
0.00547807
0.00547843
0.00547895
0.00547964
0.00548048
0.00548141
0.00548232
0.00548303
0.00548342
0.00548348
0.00548327
0.00548286
0.00548229
0.00548156
0.00548076
0.00548001
0.00547936
0.00547879
0.00547829
0.00547783
0.0054774
0.00547698
0.00547655
0.00547614
0.00547578
0.00547549
0.00547529
0.00547518
0.00547514
0.00547776
0.00547781
0.00547793
0.00547815
0.00547853
0.0054791
0.00547987
0.00548084
0.00548193
0.00548298
0.00548381
0.00548427
0.00548434
0.00548409
0.00548362
0.00548292
0.005482
0.00548101
0.00548012
0.00547938
0.00547876
0.00547824
0.00547778
0.00547735
0.00547694
0.00547653
0.00547613
0.00547578
0.00547551
0.00547532
0.00547522
0.00547517
0.00547786
0.0054779
0.00547802
0.00547826
0.00547866
0.00547927
0.00548014
0.00548123
0.00548248
0.00548368
0.0054846
0.0054851
0.00548515
0.00548485
0.00548427
0.00548342
0.00548227
0.00548102
0.00547998
0.00547917
0.00547853
0.00547801
0.00547758
0.00547718
0.0054768
0.00547642
0.00547606
0.00547574
0.00547549
0.00547532
0.00547522
0.00547518
0.00547799
0.00547804
0.00547816
0.0054784
0.00547883
0.0054795
0.00548046
0.0054817
0.00548309
0.00548441
0.00548539
0.00548587
0.00548587
0.00548548
0.0054848
0.00548375
0.00548229
0.00548072
0.00547948
0.00547862
0.00547802
0.00547756
0.00547719
0.00547686
0.00547654
0.00547622
0.00547591
0.00547563
0.00547542
0.00547527
0.00547519
0.00547515
0.0054782
0.00547824
0.00547837
0.00547862
0.00547908
0.00547982
0.0054809
0.00548228
0.00548381
0.0054852
0.00548617
0.00548658
0.00548648
0.00548601
0.00548523
0.00548398
0.00548214
0.00548013
0.00547864
0.00547773
0.0054772
0.00547685
0.0054766
0.00547637
0.00547615
0.00547591
0.00547568
0.00547547
0.0054753
0.00547518
0.0054751
0.00547506
0.00547853
0.00547857
0.00547871
0.00547899
0.0054795
0.00548033
0.00548152
0.00548303
0.00548464
0.00548602
0.0054869
0.00548718
0.00548699
0.0054865
0.0054857
0.00548435
0.00548216
0.00547963
0.00547772
0.00547666
0.00547616
0.00547594
0.00547583
0.00547573
0.00547562
0.00547548
0.00547533
0.00547519
0.00547507
0.00547498
0.00547491
0.00547488
0.00547903
0.00547908
0.00547923
0.00547956
0.00548014
0.00548107
0.00548238
0.00548396
0.00548556
0.00548682
0.00548751
0.00548765
0.00548743
0.00548704
0.00548642
0.00548522
0.00548294
0.00547994
0.00547744
0.00547593
0.00547525
0.00547506
0.00547509
0.00547517
0.00547521
0.00547518
0.00547509
0.00547498
0.00547485
0.00547474
0.00547467
0.00547463
0.00547979
0.00547985
0.00548002
0.00548039
0.00548104
0.00548205
0.00548341
0.00548496
0.00548641
0.00548745
0.00548792
0.00548795
0.00548778
0.00548763
0.00548747
0.0054869
0.00548519
0.00548222
0.00547916
0.00547682
0.0054753
0.00547446
0.00547405
0.00547389
0.00547383
0.00547382
0.00547383
0.00547386
0.00547391
0.00547398
0.00547404
0.00547408
0.00548062
0.00548068
0.00548086
0.00548124
0.0054819
0.00548289
0.00548416
0.00548555
0.0054868
0.00548765
0.00548798
0.00548793
0.00548778
0.00548782
0.00548818
0.0054887
0.00548866
0.00548724
0.00548492
0.00548255
0.00548051
0.00547892
0.00547774
0.00547694
0.00547648
0.0054763
0.00547637
0.00547664
0.00547701
0.0054774
0.00547769
0.00547784
0.00548127
0.00548133
0.0054815
0.00548186
0.00548247
0.00548336
0.00548449
0.00548571
0.00548682
0.00548757
0.00548785
0.00548773
0.00548744
0.00548729
0.00548758
0.00548858
0.00549009
0.00549113
0.0054912
0.00549066
0.00548988
0.00548906
0.0054883
0.00548768
0.00548719
0.00548686
0.0054867
0.00548667
0.00548675
0.00548688
0.005487
0.00548706
0.0054817
0.00548176
0.00548191
0.00548224
0.00548278
0.00548357
0.00548458
0.00548568
0.00548669
0.00548742
0.00548774
0.00548765
0.0054873
0.00548694
0.00548687
0.00548747
0.00548899
0.00549091
0.00549249
0.00549359
0.00549432
0.00549479
0.00549508
0.00549522
0.00549525
0.00549516
0.00549499
0.00549477
0.00549453
0.00549433
0.0054942
0.00549415
0.00548196
0.00548201
0.00548216
0.00548244
0.00548292
0.00548361
0.0054845
0.00548549
0.00548643
0.00548716
0.00548754
0.00548755
0.00548726
0.00548686
0.00548658
0.00548677
0.00548777
0.00548945
0.00549125
0.00549285
0.00549416
0.00549522
0.00549605
0.00549668
0.00549715
0.00549744
0.00549757
0.00549758
0.00549749
0.00549737
0.00549726
0.00549721
0.00548209
0.00548214
0.00548227
0.00548252
0.00548292
0.00548352
0.00548429
0.00548517
0.00548602
0.00548673
0.00548717
0.00548729
0.00548714
0.00548683
0.00548656
0.00548658
0.00548717
0.0054884
0.00548992
0.00549149
0.00549293
0.0054942
0.00549529
0.0054962
0.00549693
0.00549749
0.00549787
0.0054981
0.0054982
0.00549822
0.00549821
0.00549819
0.00548211
0.00548216
0.00548227
0.00548249
0.00548284
0.00548334
0.00548399
0.00548474
0.00548549
0.00548615
0.00548661
0.00548684
0.00548685
0.00548673
0.00548662
0.0054867
0.00548715
0.00548804
0.00548923
0.00549056
0.00549192
0.00549323
0.00549445
0.00549555
0.00549649
0.00549726
0.00549782
0.0054982
0.00549842
0.00549853
0.00549856
0.00549856
0.00548207
0.00548211
0.00548221
0.0054824
0.00548269
0.00548311
0.00548364
0.00548426
0.0054849
0.00548548
0.00548595
0.00548627
0.00548647
0.0054866
0.00548675
0.00548702
0.00548752
0.00548825
0.00548919
0.00549029
0.00549147
0.00549268
0.00549389
0.00549505
0.00549611
0.00549702
0.00549774
0.00549824
0.00549856
0.00549872
0.00549879
0.0054988
0.00548205
0.00548207
0.00548215
0.00548229
0.00548252
0.00548286
0.00548329
0.00548379
0.00548433
0.00548485
0.00548534
0.00548579
0.00548619
0.00548659
0.00548703
0.00548756
0.00548818
0.00548888
0.00548967
0.00549057
0.00549156
0.00549262
0.00549372
0.00549483
0.0054959
0.00549686
0.00549767
0.00549828
0.00549867
0.00549889
0.00549898
0.005499
0.00548219
0.00548218
0.0054822
0.00548227
0.00548242
0.00548267
0.00548301
0.00548343
0.00548391
0.00548444
0.005485
0.00548561
0.00548625
0.00548692
0.00548762
0.00548837
0.00548912
0.00548983
0.00549053
0.00549127
0.00549209
0.00549298
0.00549393
0.00549491
0.0054959
0.00549684
0.00549766
0.00549832
0.00549878
0.00549904
0.00549916
0.00549919
0.00548267
0.00548261
0.00548254
0.00548249
0.00548253
0.00548269
0.00548296
0.00548336
0.00548386
0.00548447
0.00548518
0.00548597
0.00548682
0.0054877
0.0054886
0.0054895
0.00549032
0.00549103
0.00549165
0.00549227
0.00549293
0.00549365
0.00549443
0.00549525
0.00549611
0.00549696
0.00549774
0.0054984
0.00549888
0.00549918
0.00549932
0.00549935
0.00548366
0.00548354
0.00548336
0.0054832
0.00548313
0.00548321
0.00548346
0.00548389
0.00548448
0.00548522
0.00548608
0.00548702
0.00548801
0.005489
0.00548998
0.00549091
0.00549174
0.0054924
0.00549295
0.00549346
0.00549398
0.00549454
0.00549515
0.00549581
0.0054965
0.00549721
0.0054979
0.00549851
0.00549899
0.0054993
0.00549946
0.0054995
0.00548523
0.00548506
0.00548483
0.00548461
0.0054845
0.00548457
0.00548485
0.00548534
0.00548602
0.00548685
0.00548778
0.00548877
0.00548977
0.00549075
0.00549168
0.00549255
0.0054933
0.00549387
0.00549433
0.00549474
0.00549514
0.00549556
0.00549601
0.00549651
0.00549704
0.0054976
0.00549816
0.00549869
0.00549912
0.00549942
0.00549958
0.00549963
0.0054874
0.00548723
0.00548705
0.00548691
0.00548687
0.00548699
0.0054873
0.00548781
0.00548849
0.00548929
0.00549017
0.00549106
0.00549195
0.00549279
0.00549358
0.00549431
0.00549491
0.00549538
0.00549573
0.00549604
0.00549633
0.00549663
0.00549695
0.00549729
0.00549767
0.00549807
0.0054985
0.00549891
0.00549927
0.00549954
0.00549969
0.00549975
0.00549016
0.00549007
0.00549006
0.0054901
0.00549017
0.00549034
0.00549065
0.00549109
0.00549164
0.00549229
0.00549297
0.00549366
0.00549433
0.00549496
0.00549554
0.00549607
0.00549651
0.00549684
0.00549709
0.00549729
0.00549749
0.00549768
0.00549789
0.00549811
0.00549835
0.00549862
0.0054989
0.00549918
0.00549945
0.00549966
0.00549979
0.00549984
0.00549358
0.00549364
0.0054938
0.00549394
0.00549407
0.00549422
0.00549444
0.00549472
0.00549507
0.00549547
0.00549589
0.00549631
0.00549671
0.00549709
0.00549744
0.00549775
0.005498
0.0054982
0.00549834
0.00549846
0.00549857
0.00549868
0.00549879
0.00549891
0.00549904
0.00549918
0.00549934
0.0054995
0.00549966
0.00549979
0.00549988
0.00549991
0.00549775
0.00549781
0.00549791
0.00549799
0.00549805
0.00549811
0.00549819
0.00549828
0.0054984
0.00549853
0.00549867
0.00549881
0.00549894
0.00549906
0.00549918
0.00549928
0.00549936
0.00549942
0.00549947
0.00549951
0.00549954
0.00549958
0.00549961
0.00549965
0.00549969
0.00549973
0.00549978
0.00549983
0.00549988
0.00549993
0.00549996
0.00549997
)
;

boundaryField
{
    movingWall
    {
        type            fixedValue;
        value           uniform 0.0055;
    }
    fixedWalls
    {
        type            zeroGradient;
    }
    floor
    {
        type            zeroGradient;
    }
    frontAndBack
    {
        type            empty;
    }
}


// ************************************************************************* //
