/*--------------------------------*- C++ -*----------------------------------*\
| =========                 |                                                 |
| \\      /  F ield         | OpenFOAM: The Open Source CFD Toolbox           |
|  \\    /   O peration     | Version:  2212                                  |
|   \\  /    A nd           | Website:  www.openfoam.com                      |
|    \\/     M anipulation  |                                                 |
\*---------------------------------------------------------------------------*/
FoamFile
{
    version     2.0;
    format      ascii;
    arch        "LSB;label=64;scalar=64";
    class       volScalarField;
    location    "450";
    object      T;
}
// * * * * * * * * * * * * * * * * * * * * * * * * * * * * * * * * * * * * * //

dimensions      [0 0 0 1 0 0 0];

internalField   nonuniform List<scalar> 
1024
(
309.975
309.974
309.97
309.965
309.958
309.951
309.943
309.935
309.927
309.921
309.92
309.925
309.931
309.937
309.942
309.946
309.95
309.953
309.957
309.96
309.962
309.965
309.967
309.97
309.972
309.975
309.977
309.979
309.981
309.983
309.984
309.984
309.924
309.919
309.908
309.89
309.869
309.845
309.822
309.796
309.773
309.757
309.754
309.768
309.787
309.803
309.818
309.831
309.843
309.854
309.864
309.873
309.882
309.89
309.898
309.905
309.913
309.92
309.927
309.935
309.941
309.946
309.949
309.95
309.869
309.862
309.841
309.81
309.771
309.731
309.69
309.649
309.614
309.592
309.587
309.607
309.634
309.659
309.682
309.703
309.723
309.743
309.76
309.776
309.791
309.805
309.819
309.832
309.845
309.858
309.871
309.885
309.897
309.905
309.91
309.912
309.816
309.805
309.775
309.729
309.674
309.617
309.563
309.513
309.474
309.45
309.444
309.464
309.491
309.519
309.546
309.572
309.598
309.624
309.648
309.67
309.692
309.713
309.733
309.752
309.771
309.79
309.809
309.829
309.848
309.861
309.869
309.872
309.765
309.751
309.714
309.656
309.587
309.518
309.456
309.406
309.371
309.35
309.344
309.358
309.379
309.404
309.428
309.454
309.48
309.508
309.536
309.563
309.59
309.616
309.642
309.667
309.692
309.717
309.743
309.77
309.795
309.815
309.827
309.831
309.718
309.704
309.663
309.597
309.52
309.445
309.383
309.338
309.31
309.293
309.287
309.295
309.308
309.325
309.343
309.363
309.384
309.408
309.435
309.463
309.493
309.522
309.552
309.581
309.612
309.643
309.675
309.709
309.743
309.769
309.785
309.79
309.677
309.663
309.622
309.554
309.474
309.399
309.341
309.303
309.28
309.267
309.262
309.265
309.273
309.282
309.294
309.307
309.322
309.338
309.359
309.383
309.41
309.439
309.47
309.502
309.536
309.572
309.61
309.651
309.692
309.725
309.744
309.751
309.64
309.628
309.59
309.524
309.446
309.375
309.322
309.289
309.269
309.258
309.254
309.256
309.261
309.267
309.274
309.283
309.292
309.301
309.313
309.329
309.35
309.375
309.403
309.435
309.47
309.509
309.552
309.599
309.646
309.685
309.707
309.714
309.608
309.598
309.565
309.506
309.433
309.367
309.318
309.287
309.267
309.256
309.254
309.256
309.261
309.267
309.274
309.282
309.288
309.292
309.296
309.303
309.316
309.333
309.356
309.384
309.418
309.458
309.504
309.556
309.607
309.649
309.674
309.681
309.58
309.572
309.546
309.494
309.429
309.367
309.321
309.289
309.268
309.258
309.257
309.261
309.267
309.275
309.283
309.293
309.3
309.302
309.3
309.3
309.303
309.312
309.328
309.351
309.381
309.42
309.468
309.522
309.576
309.62
309.645
309.651
309.555
309.549
309.528
309.487
309.429
309.372
309.326
309.292
309.27
309.26
309.261
309.268
309.276
309.286
309.297
309.309
309.319
309.322
309.318
309.311
309.307
309.307
309.315
309.331
309.358
309.395
309.442
309.498
309.553
309.596
309.619
309.625
309.532
309.528
309.512
309.479
309.432
309.379
309.332
309.295
309.271
309.263
309.267
309.276
309.287
309.299
309.313
309.327
309.34
309.346
309.342
309.329
309.318
309.311
309.312
309.323
309.345
309.381
309.428
309.484
309.538
309.578
309.597
309.602
309.511
309.508
309.496
309.47
309.43
309.383
309.335
309.295
309.271
309.267
309.274
309.285
309.298
309.312
309.327
309.343
309.359
309.369
309.365
309.349
309.331
309.318
309.315
309.322
309.343
309.378
309.426
309.482
309.531
309.564
309.579
309.583
309.491
309.488
309.479
309.457
309.423
309.378
309.33
309.29
309.271
309.271
309.28
309.293
309.307
309.322
309.338
309.356
309.373
309.385
309.384
309.367
309.344
309.328
309.324
309.333
309.357
309.394
309.441
309.488
309.528
309.553
309.564
309.567
309.47
309.467
309.459
309.44
309.407
309.364
309.317
309.284
309.271
309.275
309.286
309.299
309.312
309.327
309.343
309.361
309.381
309.395
309.398
309.388
309.369
309.358
309.358
309.37
309.393
309.426
309.464
309.5
309.528
309.545
309.553
309.556
309.446
309.444
309.436
309.417
309.384
309.342
309.3
309.276
309.27
309.276
309.286
309.297
309.309
309.322
309.337
309.357
309.379
309.399
309.413
309.418
309.415
309.411
309.413
309.423
309.441
309.464
309.489
309.512
309.529
309.539
309.543
309.544
309.425
309.423
309.414
309.395
309.363
309.322
309.285
309.264
309.26
309.265
309.274
309.283
309.292
309.303
309.318
309.336
309.359
309.381
309.401
309.419
309.433
309.444
309.451
309.459
309.47
309.482
309.495
309.504
309.509
309.508
309.505
309.503
309.41
309.407
309.399
309.38
309.349
309.311
309.277
309.255
309.246
309.246
309.25
309.256
309.265
309.274
309.287
309.304
309.324
309.341
309.353
309.363
309.372
309.381
309.393
309.404
309.414
309.423
309.43
309.433
309.432
309.426
309.42
309.417
309.399
309.397
309.388
309.371
309.342
309.306
309.272
309.249
309.237
309.232
309.232
309.233
309.235
309.243
309.254
309.272
309.294
309.314
309.327
309.335
309.34
309.343
309.345
309.347
309.349
309.35
309.352
309.355
309.357
309.36
309.362
309.363
309.392
309.389
309.382
309.366
309.34
309.306
309.272
309.246
309.231
309.223
309.219
309.217
309.215
309.216
309.225
309.242
309.265
309.289
309.306
309.317
309.324
309.329
309.332
309.334
309.337
309.338
309.34
309.342
309.344
309.346
309.348
309.349
309.386
309.384
309.378
309.364
309.341
309.31
309.277
309.249
309.23
309.22
309.213
309.208
309.204
309.202
309.206
309.22
309.241
309.264
309.284
309.299
309.309
309.317
309.322
309.326
309.33
309.333
309.335
309.337
309.339
309.341
309.342
309.343
309.383
309.381
309.375
309.363
309.344
309.316
309.286
309.257
309.236
309.222
309.213
309.207
309.202
309.2
309.201
309.21
309.227
309.246
309.265
309.281
309.294
309.304
309.312
309.319
309.324
309.328
309.331
309.334
309.336
309.337
309.339
309.34
309.381
309.379
309.374
309.364
309.346
309.323
309.295
309.268
309.246
309.23
309.22
309.212
309.208
309.206
309.207
309.213
309.225
309.239
309.255
309.269
309.282
309.294
309.304
309.312
309.319
309.324
309.328
309.331
309.334
309.335
309.336
309.337
309.38
309.378
309.373
309.364
309.35
309.329
309.305
309.281
309.26
309.243
309.232
309.224
309.22
309.218
309.22
309.225
309.233
309.243
309.254
309.266
309.277
309.288
309.297
309.306
309.314
309.321
309.326
309.33
309.332
309.334
309.335
309.336
309.379
309.377
309.373
309.365
309.352
309.335
309.314
309.293
309.274
309.259
309.248
309.24
309.236
309.235
309.236
309.241
309.247
309.254
309.262
309.271
309.279
309.288
309.296
309.304
309.311
309.318
309.324
309.328
309.331
309.333
309.334
309.334
309.379
309.377
309.373
309.366
309.355
309.34
309.322
309.304
309.288
309.275
309.265
309.259
309.255
309.254
309.256
309.259
309.264
309.269
309.274
309.28
309.286
309.293
309.299
309.306
309.312
309.317
309.322
309.327
309.33
309.332
309.333
309.333
309.379
309.377
309.373
309.367
309.357
309.344
309.329
309.315
309.302
309.291
309.283
309.278
309.275
309.274
309.275
309.278
309.281
309.285
309.288
309.292
309.296
309.3
309.305
309.309
309.314
309.318
309.322
309.326
309.329
309.331
309.332
309.333
309.378
309.377
309.374
309.368
309.359
309.348
309.336
309.325
309.315
309.307
309.301
309.297
309.295
309.294
309.295
309.296
309.298
309.3
309.302
309.304
309.306
309.309
309.312
309.314
309.317
309.32
309.323
309.326
309.329
309.33
309.332
309.332
309.378
309.377
309.374
309.369
309.361
309.353
309.344
309.336
309.328
309.323
309.319
309.316
309.314
309.312
309.312
309.312
309.312
309.313
309.314
309.315
309.316
309.317
309.318
309.32
309.321
309.323
309.325
309.327
309.329
309.33
309.331
309.332
309.379
309.377
309.375
309.371
309.365
309.359
309.353
309.347
309.342
309.338
309.335
309.332
309.329
309.327
309.326
309.324
309.323
309.323
309.323
309.323
309.323
309.323
309.324
309.324
309.325
309.326
309.327
309.328
309.329
309.33
309.331
309.331
309.379
309.378
309.377
309.374
309.37
309.366
309.362
309.358
309.354
309.351
309.347
309.344
309.341
309.338
309.335
309.333
309.331
309.329
309.328
309.328
309.327
309.327
309.327
309.327
309.327
309.328
309.328
309.329
309.329
309.33
309.33
309.331
309.38
309.379
309.378
309.377
309.375
309.372
309.369
309.365
309.362
309.358
309.354
309.35
309.346
309.343
309.34
309.336
309.334
309.332
309.331
309.33
309.329
309.329
309.329
309.329
309.329
309.329
309.329
309.329
309.329
309.33
309.33
309.331
)
;

boundaryField
{
    movingWall
    {
        type            zeroGradient;
    }
    fixedWalls
    {
        type            zeroGradient;
    }
    floor
    {
        type            fixedValue;
        value           uniform 310;
    }
    frontAndBack
    {
        type            empty;
    }
}


// ************************************************************************* //
