/*--------------------------------*- C++ -*----------------------------------*\
| =========                 |                                                 |
| \\      /  F ield         | OpenFOAM: The Open Source CFD Toolbox           |
|  \\    /   O peration     | Version:  2212                                  |
|   \\  /    A nd           | Website:  www.openfoam.com                      |
|    \\/     M anipulation  |                                                 |
\*---------------------------------------------------------------------------*/
FoamFile
{
    version     2.0;
    format      ascii;
    arch        "LSB;label=64;scalar=64";
    class       volScalarField;
    location    "450";
    object      Xpr;
}
// * * * * * * * * * * * * * * * * * * * * * * * * * * * * * * * * * * * * * //

dimensions      [1 -3 0 0 0 0 0];

internalField   nonuniform List<scalar> 
1024
(
0.0820679
0.0820703
0.0820761
0.0820861
0.0821007
0.0821193
0.0821409
0.0821636
0.0821859
0.0822061
0.0822224
0.0822331
0.0822377
0.0822366
0.08223
0.0822182
0.0822012
0.0821802
0.082157
0.082132
0.0821058
0.0820785
0.0820504
0.0820217
0.0819937
0.0819679
0.0819458
0.0819282
0.0819156
0.0819074
0.0819028
0.0819009
0.0820684
0.082071
0.082077
0.0820874
0.0821025
0.0821218
0.0821438
0.082167
0.0821896
0.0822102
0.0822267
0.0822373
0.0822418
0.0822405
0.0822338
0.0822218
0.0822046
0.0821835
0.0821602
0.0821351
0.0821089
0.0820816
0.0820534
0.0820247
0.0819965
0.0819704
0.0819477
0.0819297
0.0819167
0.0819082
0.0819035
0.0819015
0.0820696
0.0820723
0.0820787
0.0820899
0.082106
0.0821263
0.0821495
0.0821739
0.0821979
0.0822197
0.0822371
0.0822478
0.0822519
0.0822501
0.0822428
0.0822302
0.0822124
0.0821908
0.082167
0.0821417
0.0821153
0.0820879
0.0820597
0.0820309
0.0820024
0.0819755
0.081952
0.0819331
0.0819192
0.0819101
0.081905
0.081903
0.0820713
0.0820742
0.0820812
0.0820932
0.0821106
0.0821326
0.0821578
0.0821846
0.0822115
0.0822362
0.0822556
0.0822668
0.0822703
0.0822672
0.0822587
0.0822448
0.0822257
0.0822027
0.0821778
0.0821517
0.0821248
0.0820973
0.0820691
0.0820401
0.0820112
0.0819835
0.0819587
0.0819383
0.0819232
0.0819132
0.0819077
0.0819054
0.0820736
0.0820766
0.0820841
0.0820971
0.082116
0.0821402
0.0821684
0.0821993
0.082231
0.0822606
0.0822835
0.082296
0.0822988
0.0822941
0.0822834
0.0822672
0.0822455
0.0822199
0.0821929
0.0821652
0.0821372
0.0821091
0.0820806
0.0820516
0.0820222
0.0819935
0.0819673
0.0819453
0.0819286
0.0819176
0.0819114
0.0819089
0.0820763
0.0820795
0.0820873
0.0821011
0.0821217
0.0821487
0.0821812
0.0822178
0.0822564
0.0822929
0.0823212
0.0823362
0.0823389
0.0823322
0.0823185
0.0822987
0.0822729
0.0822431
0.0822123
0.0821817
0.0821517
0.0821224
0.0820933
0.0820639
0.0820341
0.0820046
0.081977
0.0819532
0.081935
0.0819228
0.0819159
0.0819132
0.0820794
0.0820826
0.0820907
0.0821053
0.0821277
0.0821579
0.0821956
0.0822395
0.0822867
0.082332
0.0823675
0.0823867
0.0823901
0.0823815
0.0823644
0.0823399
0.0823081
0.0822718
0.0822354
0.0822003
0.0821672
0.0821359
0.0821056
0.0820757
0.0820454
0.0820151
0.0819863
0.0819611
0.0819416
0.0819283
0.0819209
0.0819179
0.082083
0.0820862
0.0820944
0.0821098
0.0821338
0.0821676
0.0822111
0.0822632
0.0823204
0.082376
0.0824201
0.0824449
0.0824502
0.0824402
0.0824194
0.0823893
0.0823496
0.0823045
0.0822603
0.0822192
0.0821819
0.0821477
0.0821158
0.082085
0.0820542
0.0820234
0.0819938
0.0819678
0.0819474
0.0819335
0.0819257
0.0819227
0.0820871
0.0820903
0.0820987
0.0821146
0.0821404
0.0821777
0.0822273
0.0822881
0.0823562
0.0824229
0.0824763
0.0825075
0.0825154
0.0825045
0.0824799
0.0824432
0.0823936
0.082337
0.0822831
0.0822349
0.0821927
0.0821554
0.0821218
0.08209
0.0820588
0.0820278
0.0819982
0.0819721
0.0819516
0.0819377
0.0819299
0.0819268
0.0820923
0.0820954
0.0821039
0.0821203
0.0821476
0.0821884
0.0822443
0.0823143
0.0823937
0.0824718
0.0825345
0.0825716
0.0825815
0.0825693
0.0825406
0.0824959
0.0824334
0.0823623
0.0822971
0.0822416
0.0821949
0.0821553
0.0821206
0.0820886
0.0820577
0.0820273
0.0819985
0.0819732
0.0819535
0.0819401
0.0819326
0.0819296
0.082099
0.0821021
0.0821107
0.0821276
0.0821564
0.0822008
0.0822632
0.0823429
0.0824339
0.0825229
0.0825935
0.0826346
0.0826448
0.08263
0.0825959
0.0825409
0.0824612
0.0823713
0.0822935
0.0822317
0.0821827
0.0821429
0.0821091
0.0820785
0.0820493
0.0820208
0.081994
0.0819707
0.0819526
0.0819404
0.0819334
0.0819305
0.0821085
0.0821116
0.0821203
0.0821378
0.0821685
0.0822169
0.0822864
0.0823764
0.0824788
0.0825772
0.082653
0.0826946
0.0827023
0.0826836
0.0826428
0.0825747
0.082472
0.0823569
0.0822639
0.0821976
0.0821498
0.0821135
0.0820839
0.0820575
0.0820323
0.0820075
0.0819843
0.0819641
0.0819485
0.0819378
0.0819315
0.0819288
0.082123
0.0821262
0.0821352
0.0821538
0.082187
0.0822403
0.082318
0.0824186
0.082531
0.0826355
0.0827118
0.0827497
0.0827526
0.0827296
0.0826832
0.0826012
0.0824706
0.0823217
0.0822076
0.0821366
0.0820933
0.0820646
0.0820431
0.0820243
0.0820059
0.0819872
0.0819692
0.0819532
0.0819406
0.0819315
0.0819259
0.0819234
0.0821464
0.0821497
0.0821594
0.0821799
0.0822169
0.0822766
0.0823631
0.0824731
0.0825918
0.0826964
0.082767
0.0827972
0.0827952
0.0827718
0.0827259
0.0826369
0.0824808
0.0822912
0.0821442
0.0820601
0.0820191
0.0819994
0.0819884
0.0819789
0.0819682
0.0819563
0.0819444
0.0819336
0.0819248
0.0819181
0.0819136
0.0819113
0.0821824
0.082186
0.0821969
0.0822202
0.0822624
0.0823295
0.0824243
0.08254
0.0826581
0.0827546
0.0828131
0.0828337
0.0828306
0.0828158
0.0827851
0.0827092
0.0825466
0.0823208
0.0821274
0.0820084
0.0819526
0.0819347
0.0819341
0.0819379
0.0819393
0.0819361
0.0819291
0.0819201
0.0819108
0.0819029
0.0818973
0.0818945
0.0822361
0.0822402
0.0822527
0.0822792
0.0823263
0.0823991
0.0824972
0.0826103
0.082718
0.0827981
0.0828404
0.0828525
0.0828534
0.082858
0.0828638
0.08284
0.0827244
0.0825026
0.0822659
0.0820813
0.0819597
0.0818914
0.0818568
0.0818419
0.0818365
0.081835
0.0818356
0.0818381
0.0818427
0.0818488
0.0818544
0.0818576
0.0822946
0.082299
0.082312
0.0823392
0.0823864
0.082457
0.0825482
0.0826489
0.0827408
0.0828052
0.0828348
0.0828392
0.0828401
0.0828588
0.0829068
0.0829723
0.0829933
0.0828979
0.0827224
0.0825378
0.0823766
0.0822496
0.0821545
0.0820898
0.0820516
0.0820369
0.0820426
0.082064
0.0820943
0.082125
0.0821486
0.0821607
0.0823392
0.0823435
0.0823559
0.0823813
0.0824246
0.0824879
0.0825682
0.0826554
0.0827343
0.0827892
0.0828119
0.0828076
0.0827941
0.082796
0.0828388
0.0829437
0.0830929
0.0832006
0.083223
0.0831907
0.0831347
0.0830722
0.0830133
0.0829632
0.0829239
0.0828966
0.082882
0.0828788
0.0828842
0.0828938
0.0829029
0.0829082
0.0823681
0.0823722
0.0823835
0.0824063
0.0824447
0.0825006
0.0825712
0.0826483
0.0827192
0.0827703
0.0827928
0.0827876
0.0827663
0.0827488
0.0827604
0.0828325
0.0829835
0.0831668
0.0833184
0.0834268
0.0835013
0.0835515
0.0835837
0.0836012
0.0836065
0.0836007
0.083586
0.0835655
0.0835436
0.0835249
0.0835128
0.0835078
0.082385
0.0823888
0.0823991
0.0824191
0.0824526
0.0825011
0.0825629
0.0826314
0.0826961
0.0827456
0.0827713
0.0827715
0.0827527
0.0827294
0.0827221
0.0827585
0.0828661
0.08303
0.0832015
0.0833548
0.0834833
0.0835886
0.0836736
0.08374
0.0837885
0.0838193
0.0838335
0.0838335
0.0838239
0.0838105
0.0837991
0.0837933
0.0823925
0.0823961
0.0824054
0.0824229
0.0824515
0.0824929
0.082546
0.0826059
0.0826643
0.0827118
0.0827408
0.0827485
0.0827387
0.0827216
0.082713
0.0827339
0.0828067
0.0829308
0.0830785
0.0832287
0.0833694
0.0834962
0.0836078
0.0837031
0.0837811
0.0838404
0.0838809
0.0839041
0.0839132
0.0839131
0.083909
0.0839058
0.082393
0.0823964
0.0824047
0.0824199
0.0824441
0.0824788
0.0825234
0.0825742
0.0826253
0.0826692
0.0827002
0.0827157
0.0827184
0.0827157
0.0827193
0.0827437
0.0828025
0.0828971
0.0830148
0.0831444
0.0832769
0.0834066
0.0835303
0.0836444
0.0837449
0.0838273
0.083889
0.0839299
0.0839525
0.0839615
0.0839625
0.0839612
0.0823896
0.0823925
0.0823997
0.0824126
0.0824328
0.0824614
0.082498
0.08254
0.0825832
0.0826229
0.0826553
0.0826796
0.0826977
0.082715
0.0827393
0.0827791
0.0828396
0.0829195
0.0830146
0.0831221
0.0832378
0.0833582
0.08348
0.0835996
0.0837117
0.08381
0.0838886
0.0839447
0.083979
0.0839956
0.0840006
0.0840005
0.0823897
0.0823912
0.0823957
0.082405
0.0824208
0.0824436
0.0824731
0.0825075
0.0825444
0.0825817
0.0826183
0.0826544
0.0826915
0.0827324
0.0827809
0.0828407
0.0829103
0.0829853
0.083066
0.083155
0.0832527
0.0833579
0.0834688
0.0835827
0.0836949
0.0837992
0.083888
0.0839557
0.0840002
0.0840239
0.0840326
0.0840336
0.0824065
0.0824049
0.0824039
0.0824065
0.0824153
0.0824316
0.0824549
0.0824845
0.0825197
0.0825604
0.082607
0.0826597
0.0827184
0.0827834
0.0828549
0.0829328
0.0830116
0.0830854
0.0831566
0.083231
0.0833119
0.0834002
0.0834958
0.0835969
0.0837005
0.0838015
0.0838926
0.0839666
0.0840186
0.0840486
0.0840609
0.084063
0.0824571
0.0824507
0.0824409
0.0824329
0.0824318
0.0824404
0.0824596
0.0824893
0.0825298
0.0825814
0.0826439
0.082716
0.0827955
0.0828802
0.0829682
0.0830576
0.083141
0.0832126
0.083276
0.0833382
0.0834039
0.0834756
0.0835541
0.083639
0.0837287
0.0838195
0.0839057
0.0839801
0.084036
0.0840705
0.0840861
0.0840894
0.0825569
0.0825446
0.0825252
0.082506
0.082495
0.0824979
0.0825169
0.0825525
0.0826042
0.0826708
0.0827499
0.0828379
0.0829312
0.0830264
0.0831209
0.0832124
0.0832938
0.08336
0.0834151
0.0834663
0.0835184
0.0835745
0.083636
0.0837035
0.0837765
0.083853
0.083929
0.0839981
0.0840536
0.0840904
0.0841085
0.0841131
0.0827142
0.0826974
0.0826728
0.0826491
0.082635
0.0826381
0.0826615
0.0827053
0.0827676
0.0828448
0.0829327
0.0830264
0.0831217
0.0832154
0.0833053
0.0833897
0.0834624
0.0835195
0.0835652
0.0836059
0.0836458
0.0836879
0.0837339
0.0837846
0.0838403
0.0839003
0.0839623
0.0840219
0.0840728
0.084109
0.0841285
0.0841341
0.0829309
0.082914
0.0828951
0.0828797
0.0828733
0.0828826
0.0829111
0.0829586
0.0830225
0.0830985
0.0831818
0.0832675
0.0833521
0.0834331
0.0835091
0.0835789
0.0836379
0.0836833
0.0837186
0.0837491
0.0837781
0.083808
0.0838403
0.083876
0.0839155
0.0839589
0.0840053
0.0840521
0.0840946
0.0841272
0.0841462
0.0841525
0.083208
0.0831986
0.0831972
0.0831998
0.0832062
0.0832215
0.0832497
0.0832913
0.0833446
0.0834061
0.0834719
0.0835381
0.0836023
0.0836627
0.0837186
0.0837693
0.0838117
0.0838439
0.0838685
0.0838892
0.0839085
0.0839281
0.0839489
0.0839718
0.0839972
0.0840254
0.0840563
0.0840887
0.08412
0.0841458
0.0841623
0.0841685
0.0835514
0.0835568
0.0835728
0.083587
0.0835992
0.0836136
0.0836337
0.0836609
0.0836947
0.083733
0.0837734
0.0838138
0.0838525
0.0838887
0.0839219
0.0839518
0.0839767
0.0839954
0.0840096
0.0840214
0.0840322
0.084043
0.0840543
0.0840667
0.0840805
0.0840957
0.0841127
0.0841309
0.0841494
0.0841658
0.0841772
0.0841821
0.0839723
0.0839781
0.0839882
0.083996
0.0840021
0.0840079
0.084015
0.0840242
0.0840355
0.0840482
0.0840616
0.0840749
0.0840876
0.0840994
0.0841102
0.0841199
0.084128
0.084134
0.0841386
0.0841423
0.0841458
0.0841491
0.0841527
0.0841565
0.0841608
0.0841655
0.0841707
0.0841764
0.0841823
0.0841878
0.084192
0.084194
)
;

boundaryField
{
    movingWall
    {
        type            fixedValue;
        value           uniform 0.0842;
    }
    fixedWalls
    {
        type            zeroGradient;
    }
    floor
    {
        type            zeroGradient;
    }
    frontAndBack
    {
        type            empty;
    }
}


// ************************************************************************* //
