/*--------------------------------*- C++ -*----------------------------------*\
| =========                 |                                                 |
| \\      /  F ield         | OpenFOAM: The Open Source CFD Toolbox           |
|  \\    /   O peration     | Version:  2206                                  |
|   \\  /    A nd           | Website:  www.openfoam.com                      |
|    \\/     M anipulation  |                                                 |
\*---------------------------------------------------------------------------*/
FoamFile
{
    version     2.0;
    format      ascii;
    arch        "LSB;label=64;scalar=64";
    class       volVectorField;
    location    "633600";
    object      U;
}
// * * * * * * * * * * * * * * * * * * * * * * * * * * * * * * * * * * * * * //

dimensions      [0 1 -1 0 0 0 0];

internalField   nonuniform List<vector> 
16
(
(1.29e-07 -1.13035e-07 0)
(2.8007e-07 9.53079e-10 0)
(9.25325e-08 8.40155e-08 0)
(-3.69237e-08 2.69148e-08 0)
(4.94913e-08 -2.95809e-07 0)
(7.07773e-08 3.29862e-08 0)
(-2.15555e-08 2.37377e-07 0)
(-2.10293e-08 2.5803e-08 0)
(-6.64655e-08 -2.32582e-07 0)
(-1.77154e-07 7.24552e-08 0)
(-6.27712e-08 1.76351e-07 0)
(3.11893e-08 -1.48844e-08 0)
(-1.1253e-07 -5.81445e-08 0)
(-1.7357e-07 3.13434e-08 0)
(-1.02898e-08 2.9552e-08 0)
(2.97215e-08 -5.78653e-09 0)
)
;

boundaryField
{
    movingWall
    {
        type            noSlip;
    }
    fixedWalls
    {
        type            noSlip;
    }
    frontAndBack
    {
        type            empty;
    }
}


// ************************************************************************* //
