/*--------------------------------*- C++ -*----------------------------------*\
| =========                 |                                                 |
| \\      /  F ield         | OpenFOAM: The Open Source CFD Toolbox           |
|  \\    /   O peration     | Version:  2212                                  |
|   \\  /    A nd           | Website:  www.openfoam.com                      |
|    \\/     M anipulation  |                                                 |
\*---------------------------------------------------------------------------*/
FoamFile
{
    version     2.0;
    format      ascii;
    arch        "LSB;label=64;scalar=64";
    class       volScalarField;
    location    "1360";
    object      Gch4;
}
// * * * * * * * * * * * * * * * * * * * * * * * * * * * * * * * * * * * * * //

dimensions      [1 -3 0 0 0 0 0];

internalField   nonuniform List<scalar> 
1024
(
1.93849
1.93834
1.93798
1.93731
1.93626
1.93475
1.93273
1.93024
1.92738
1.92434
1.92136
1.91873
1.91668
1.91536
1.91485
1.91523
1.91667
1.91918
1.9225
1.92647
1.93088
1.93548
1.93997
1.94409
1.94762
1.95047
1.95264
1.95419
1.95523
1.95588
1.95623
1.95638
1.93845
1.9383
1.93792
1.93725
1.93618
1.93464
1.93259
1.93007
1.92718
1.92411
1.92112
1.91848
1.91644
1.91513
1.91463
1.91501
1.91644
1.91895
1.92227
1.92624
1.93066
1.93527
1.93978
1.94392
1.94749
1.95037
1.95256
1.95413
1.95519
1.95585
1.9562
1.95635
1.93834
1.93819
1.9378
1.9371
1.936
1.9344
1.93229
1.92969
1.92673
1.92359
1.92054
1.91787
1.91583
1.91455
1.91407
1.91447
1.91591
1.91843
1.92177
1.92576
1.93019
1.93482
1.93937
1.94357
1.9472
1.95015
1.95239
1.95401
1.95509
1.95577
1.95613
1.95628
1.93815
1.93799
1.93759
1.93686
1.9357
1.93402
1.9318
1.92908
1.92596
1.92267
1.91948
1.91674
1.9147
1.91346
1.91304
1.91349
1.91497
1.91755
1.92096
1.92499
1.92946
1.93414
1.93875
1.94303
1.94675
1.94979
1.95213
1.95381
1.95494
1.95564
1.95602
1.95617
1.93786
1.93769
1.93727
1.9365
1.93527
1.93348
1.9311
1.92817
1.9248
1.92124
1.9178
1.91491
1.91285
1.91169
1.91137
1.91191
1.9135
1.91623
1.91978
1.92394
1.9285
1.93325
1.93795
1.94233
1.94617
1.94933
1.95176
1.95352
1.95471
1.95544
1.95584
1.956
1.93744
1.93727
1.93682
1.936
1.93468
1.93275
1.93015
1.92692
1.92317
1.91917
1.91534
1.91219
1.91008
1.90901
1.90885
1.90955
1.91135
1.91435
1.9182
1.92261
1.92734
1.93222
1.93703
1.94154
1.94551
1.94879
1.95133
1.95318
1.95442
1.95519
1.95561
1.95578
1.93685
1.93667
1.9362
1.93533
1.9339
1.93179
1.9289
1.92525
1.92096
1.91635
1.91196
1.90843
1.90621
1.90524
1.90527
1.90622
1.90835
1.91182
1.91617
1.92101
1.92606
1.93116
1.93613
1.94076
1.94486
1.94825
1.95089
1.95281
1.9541
1.9549
1.95533
1.9555
1.93604
1.93585
1.93536
1.93442
1.93287
1.93052
1.92727
1.92307
1.91807
1.91266
1.90753
1.9035
1.90109
1.90019
1.90043
1.90169
1.9043
1.90849
1.91364
1.91917
1.92474
1.93018
1.93537
1.94015
1.94435
1.94782
1.95051
1.95246
1.95377
1.95457
1.955
1.95517
1.93491
1.93471
1.9342
1.93319
1.93148
1.92885
1.92513
1.92024
1.91435
1.90797
1.90197
1.89734
1.89464
1.89374
1.89416
1.89574
1.89899
1.90418
1.91047
1.91705
1.92341
1.92938
1.93489
1.93983
1.94409
1.94757
1.95024
1.95215
1.95342
1.95419
1.9546
1.95476
1.93334
1.93313
1.93258
1.93147
1.92957
1.9266
1.9223
1.91659
1.90965
1.90214
1.89518
1.88987
1.88681
1.88579
1.88625
1.8881
1.89207
1.89851
1.90632
1.91436
1.92189
1.92865
1.93461
1.93976
1.94406
1.94747
1.95003
1.95181
1.95297
1.95365
1.954
1.95413
1.93114
1.93092
1.93031
1.92908
1.92693
1.92351
1.91852
1.91183
1.9037
1.89499
1.887
1.88098
1.87747
1.87612
1.87635
1.87821
1.88275
1.89049
1.9001
1.91005
1.91925
1.9272
1.93391
1.93943
1.9438
1.94711
1.94947
1.95103
1.95196
1.95246
1.95268
1.95274
1.92806
1.92781
1.92713
1.92572
1.92324
1.91927
1.91344
1.90563
1.89621
1.88625
1.87726
1.87049
1.86634
1.8643
1.86377
1.86503
1.86948
1.8779
1.88898
1.90098
1.91242
1.9223
1.93042
1.93679
1.94156
1.9449
1.94706
1.9483
1.94889
1.94907
1.94906
1.949
1.92382
1.92354
1.92274
1.92109
1.91817
1.91349
1.90667
1.8976
1.88683
1.87565
1.86569
1.85809
1.85297
1.84962
1.84747
1.84697
1.84975
1.857
1.86789
1.88084
1.89419
1.90656
1.91713
1.92554
1.93171
1.93578
1.93813
1.93921
1.93945
1.93925
1.93894
1.93872
1.91821
1.91787
1.91692
1.91493
1.91142
1.90585
1.89783
1.8874
1.87531
1.86304
1.85218
1.8436
1.83703
1.83162
1.82684
1.82306
1.82181
1.8247
1.83176
1.84208
1.85443
1.86748
1.88003
1.89119
1.90024
1.90681
1.911
1.91318
1.91392
1.91386
1.91351
1.91324
1.91141
1.91102
1.90991
1.9076
1.90355
1.89719
1.88821
1.87676
1.86373
1.85055
1.83863
1.82862
1.82011
1.81223
1.80446
1.7968
1.79022
1.78624
1.78563
1.78835
1.79411
1.80236
1.81234
1.82311
1.83366
1.84305
1.85064
1.85603
1.85933
1.86098
1.86158
1.86167
1.90428
1.90387
1.90268
1.90025
1.89601
1.8894
1.88013
1.86838
1.85495
1.84115
1.82827
1.81698
1.80706
1.79787
1.78889
1.77976
1.77059
1.76184
1.75417
1.74814
1.7443
1.74305
1.74451
1.7485
1.75453
1.76179
1.76926
1.77599
1.78128
1.78482
1.78676
1.78749
1.89847
1.89806
1.89693
1.89465
1.89067
1.88448
1.87577
1.86462
1.85168
1.83806
1.82503
1.8135
1.80373
1.7955
1.7885
1.78226
1.77601
1.76844
1.75932
1.74931
1.73944
1.73066
1.72371
1.71904
1.71682
1.71689
1.71878
1.72174
1.72494
1.72762
1.72939
1.73019
1.89486
1.89448
1.89346
1.89144
1.88796
1.88254
1.87485
1.86487
1.85305
1.84034
1.82792
1.81686
1.80784
1.80107
1.7965
1.79375
1.79156
1.78727
1.77967
1.7692
1.75698
1.74442
1.73277
1.72294
1.71543
1.71035
1.70751
1.70647
1.70662
1.70732
1.70803
1.70843
1.89302
1.89267
1.89178
1.89003
1.88707
1.88248
1.87591
1.86729
1.85689
1.84544
1.834
1.82365
1.81525
1.80931
1.80595
1.80487
1.80464
1.8023
1.79619
1.78618
1.77303
1.7581
1.74307
1.72944
1.71823
1.7099
1.70439
1.70125
1.69987
1.69955
1.69969
1.69987
1.89231
1.892
1.89122
1.88974
1.88725
1.88342
1.87794
1.87067
1.86177
1.85177
1.84154
1.83206
1.8242
1.81857
1.81537
1.81434
1.81406
1.81193
1.80644
1.79715
1.78429
1.76875
1.75203
1.7358
1.72158
1.71032
1.70235
1.69739
1.69482
1.69384
1.69369
1.69378
1.89218
1.89192
1.89127
1.89003
1.88798
1.88483
1.88031
1.87429
1.86684
1.85834
1.84945
1.84097
1.83364
1.82799
1.82424
1.82208
1.82031
1.81702
1.81113
1.8021
1.78982
1.77471
1.75778
1.74049
1.72446
1.71104
1.70096
1.69427
1.6905
1.68884
1.68841
1.68844
1.89192
1.89175
1.89129
1.89036
1.88877
1.88625
1.8826
1.87769
1.87156
1.86447
1.85688
1.84934
1.84238
1.83639
1.83149
1.82736
1.82321
1.81801
1.81112
1.80196
1.79022
1.77597
1.75977
1.74268
1.72608
1.71142
1.69978
1.69162
1.68671
1.68435
1.6836
1.68356
1.89058
1.89056
1.89041
1.88996
1.88895
1.88714
1.88433
1.88041
1.8754
1.86944
1.86282
1.85585
1.84883
1.842
1.83542
1.82885
1.82201
1.81476
1.80679
1.79748
1.78637
1.77322
1.75826
1.74218
1.72604
1.7111
1.69858
1.68929
1.68336
1.6803
1.67921
1.67908
1.88695
1.88718
1.88752
1.88775
1.88755
1.88661
1.88468
1.88161
1.87738
1.87207
1.86578
1.85867
1.85094
1.84276
1.83422
1.8252
1.81596
1.80706
1.79834
1.78914
1.77885
1.76707
1.75372
1.73918
1.72421
1.70981
1.69711
1.68714
1.68038
1.67667
1.67522
1.67499
1.87982
1.88038
1.88136
1.88246
1.88324
1.88324
1.8821
1.8796
1.87565
1.87028
1.86355
1.8556
1.84665
1.83693
1.82661
1.8157
1.80484
1.79503
1.78613
1.7774
1.76819
1.75798
1.74651
1.7339
1.72059
1.70734
1.69513
1.68499
1.6777
1.67341
1.67161
1.67126
1.86825
1.8692
1.87086
1.87275
1.87433
1.875
1.87427
1.87182
1.86755
1.8615
1.85382
1.84476
1.83462
1.82373
1.81234
1.80051
1.78912
1.77926
1.77078
1.7629
1.75495
1.74642
1.73696
1.72648
1.71519
1.70358
1.69241
1.68264
1.67518
1.67049
1.66835
1.66788
1.85172
1.85305
1.85513
1.85732
1.859
1.85961
1.85859
1.85562
1.85063
1.84376
1.83527
1.8255
1.81485
1.80368
1.79226
1.78068
1.7698
1.76068
1.75313
1.74636
1.7398
1.73295
1.72546
1.71716
1.70808
1.69844
1.68878
1.67989
1.67269
1.66785
1.66544
1.66484
1.83002
1.83157
1.83348
1.83499
1.83572
1.83533
1.83341
1.82968
1.82414
1.81695
1.80839
1.79887
1.78875
1.77839
1.76801
1.7577
1.7482
1.74041
1.73411
1.72864
1.72348
1.71823
1.71258
1.70635
1.69945
1.69195
1.68414
1.67658
1.67007
1.66538
1.66286
1.66212
1.80293
1.80433
1.80514
1.80494
1.80389
1.80204
1.79915
1.79504
1.78962
1.783
1.77542
1.76719
1.75864
1.75002
1.74152
1.7332
1.72565
1.71954
1.71469
1.71055
1.70675
1.70296
1.69895
1.69455
1.68967
1.68427
1.67846
1.67256
1.66717
1.663
1.66055
1.65974
1.76986
1.77045
1.76931
1.7671
1.7645
1.76169
1.75852
1.75479
1.75035
1.74519
1.73944
1.73331
1.72701
1.72073
1.71461
1.70867
1.70333
1.69905
1.69568
1.69286
1.6903
1.6878
1.6852
1.68237
1.67923
1.67573
1.67187
1.6678
1.66385
1.66056
1.65845
1.65766
1.7295
1.72859
1.72593
1.72307
1.72037
1.71787
1.71543
1.71289
1.71006
1.7069
1.70343
1.69976
1.69603
1.69232
1.68872
1.68526
1.68216
1.67968
1.67775
1.67614
1.67471
1.67332
1.6719
1.67036
1.66866
1.66677
1.66466
1.66237
1.66004
1.65796
1.65649
1.65587
1.68019
1.67944
1.67803
1.67673
1.67559
1.67459
1.67369
1.67279
1.67184
1.67079
1.66966
1.66846
1.66724
1.66604
1.66487
1.66375
1.66275
1.66196
1.66134
1.66082
1.66037
1.65993
1.65949
1.65901
1.65848
1.6579
1.65725
1.65653
1.65579
1.6551
1.65456
1.65431
)
;

boundaryField
{
    movingWall
    {
        type            fixedValue;
        value           uniform 1.6535;
    }
    fixedWalls
    {
        type            zeroGradient;
    }
    floor
    {
        type            zeroGradient;
    }
    frontAndBack
    {
        type            empty;
    }
}


// ************************************************************************* //
