/*--------------------------------*- C++ -*----------------------------------*\
| =========                 |                                                 |
| \\      /  F ield         | OpenFOAM: The Open Source CFD Toolbox           |
|  \\    /   O peration     | Version:  2212                                  |
|   \\  /    A nd           | Website:  www.openfoam.com                      |
|    \\/     M anipulation  |                                                 |
\*---------------------------------------------------------------------------*/
FoamFile
{
    version     2.0;
    format      ascii;
    arch        "LSB;label=64;scalar=64";
    class       volScalarField;
    location    "1360";
    object      Gco2;
}
// * * * * * * * * * * * * * * * * * * * * * * * * * * * * * * * * * * * * * //

dimensions      [1 -3 0 0 0 0 0];

internalField   nonuniform List<scalar> 
1024
(
0.0596339
0.0596102
0.0595522
0.0594469
0.0592804
0.0590405
0.0587208
0.0583254
0.0578714
0.0573886
0.0569163
0.0564979
0.0561713
0.0559602
0.055877
0.0559335
0.0561572
0.0565515
0.0570761
0.0577035
0.0584008
0.0591277
0.0598381
0.0604881
0.0610456
0.0614951
0.0618367
0.0620814
0.062246
0.0623481
0.0624038
0.0624265
0.059627
0.0596029
0.0595439
0.0594367
0.0592672
0.0590232
0.0586986
0.0582981
0.0578395
0.0573529
0.056878
0.0564587
0.0561329
0.055923
0.0558409
0.0558977
0.0561211
0.0565153
0.0570399
0.0576675
0.0583655
0.059094
0.0598075
0.0604619
0.0610244
0.0614789
0.0618247
0.0620727
0.0622394
0.0623428
0.0623992
0.0624222
0.0596102
0.0595854
0.0595245
0.0594137
0.0592382
0.0589858
0.0586507
0.0582385
0.0577677
0.0572694
0.0567851
0.0563612
0.0560363
0.0558302
0.055752
0.0558111
0.0560361
0.0564327
0.0569602
0.0575902
0.0582907
0.0590231
0.0597428
0.0604061
0.0609789
0.0614436
0.0617982
0.062053
0.0622243
0.0623305
0.0623884
0.0624119
0.0595805
0.0595547
0.0594911
0.059375
0.0591908
0.0589255
0.0585734
0.0581405
0.057646
0.057123
0.056617
0.0561809
0.0558561
0.0556573
0.0555879
0.0556542
0.0558859
0.056292
0.0568297
0.0574681
0.0581751
0.0589145
0.059644
0.0603203
0.0609082
0.061388
0.0617559
0.0620208
0.0621991
0.0623095
0.0623696
0.062394
0.0595342
0.0595074
0.0594407
0.059318
0.0591223
0.0588392
0.0584622
0.0579966
0.0574624
0.0568957
0.0563496
0.0558892
0.0555615
0.0553742
0.0553207
0.0554021
0.0556505
0.0560794
0.0566413
0.0572997
0.0580213
0.058773
0.059516
0.0602088
0.0608156
0.0613142
0.0616985
0.0619761
0.0621632
0.062279
0.0623418
0.0623673
0.0594672
0.0594393
0.0593692
0.0592388
0.059029
0.0587229
0.0583113
0.0577978
0.0572027
0.0565676
0.0559581
0.0554567
0.0551199
0.0549472
0.0549178
0.055025
0.0553055
0.0557785
0.0563877
0.0570858
0.0578363
0.058609
0.0593705
0.0600826
0.0607098
0.0612285
0.0616303
0.0619215
0.0621179
0.0622393
0.0623049
0.0623314
0.0593734
0.0593446
0.0592708
0.0591319
0.0589052
0.0585698
0.0581122
0.0575325
0.0568514
0.0561189
0.0554193
0.0548572
0.0545016
0.0543438
0.0543452
0.0544901
0.0548231
0.0553707
0.0560611
0.0568292
0.0576308
0.0584386
0.0592256
0.0599591
0.060606
0.0611428
0.0615597
0.0618623
0.0620663
0.062192
0.0622597
0.0622869
0.0592441
0.0592143
0.0591366
0.0589879
0.058741
0.0583692
0.0578524
0.0571855
0.0563907
0.0555307
0.0547145
0.0540718
0.0536845
0.0535367
0.0535709
0.0537635
0.0541731
0.0548348
0.0556521
0.0565322
0.0574171
0.0582808
0.0591036
0.0598607
0.0605241
0.0610727
0.061498
0.0618058
0.0620125
0.0621392
0.0622071
0.0622341
0.0590653
0.0590344
0.0589522
0.0587917
0.0585203
0.0581035
0.0575124
0.0567361
0.0557997
0.0547841
0.0538285
0.0530884
0.0526553
0.0525063
0.0525662
0.05281
0.0533197
0.0541407
0.0551411
0.0561881
0.0572004
0.0581491
0.0590227
0.0598064
0.0604809
0.0610314
0.0614536
0.0617562
0.0619572
0.0620789
0.0621432
0.0621684
0.0588162
0.0587836
0.0586954
0.05852
0.0582179
0.0577452
0.0570631
0.0561544
0.0550505
0.0538564
0.0527452
0.0518964
0.0514039
0.0512339
0.0512985
0.0515826
0.0522054
0.0532261
0.0544694
0.0557509
0.0569505
0.058026
0.0589739
0.0597917
0.0604728
0.0610136
0.0614181
0.061701
0.0618839
0.0619912
0.0620456
0.0620659
0.0584666
0.0584315
0.0583349
0.0581394
0.0577974
0.0572548
0.0564621
0.0553978
0.0541044
0.0527165
0.0514421
0.0504782
0.0499102
0.0496857
0.0497106
0.0499945
0.0507076
0.0519343
0.0534641
0.055052
0.0565189
0.0577867
0.0588554
0.0597326
0.0604276
0.0609526
0.061326
0.0615725
0.0617204
0.0617986
0.0618325
0.0618424
0.0579775
0.0579386
0.0578295
0.0576061
0.0572114
0.0565802
0.0556539
0.0544111
0.0529115
0.0513239
0.0498869
0.0488021
0.0481301
0.0477919
0.0476939
0.0478801
0.0485765
0.0499107
0.0516747
0.0535907
0.055416
0.0569936
0.0582882
0.0593048
0.0600637
0.0605952
0.060938
0.0611344
0.0612269
0.0612551
0.0612521
0.0612429
0.057305
0.0572603
0.0571334
0.0568714
0.0564063
0.0556626
0.0545762
0.0531331
0.051418
0.049634
0.0480402
0.0468207
0.0459916
0.0454421
0.0450842
0.0449874
0.0454144
0.0465602
0.0482919
0.0503578
0.0524903
0.0544661
0.0561547
0.0574973
0.0584813
0.0591304
0.0595056
0.0596766
0.0597141
0.0596821
0.0596312
0.0595963
0.0564138
0.0563606
0.0562084
0.055893
0.0553345
0.054448
0.0531712
0.0515093
0.0495823
0.0476225
0.0458849
0.0445062
0.0434452
0.0425661
0.041786
0.0411635
0.0409442
0.0413892
0.0425066
0.0441487
0.0461183
0.0482032
0.0502107
0.0519944
0.0534424
0.054492
0.055163
0.0555116
0.05563
0.0556197
0.0555642
0.0555204
0.0553343
0.0552725
0.055095
0.054728
0.0540828
0.0530715
0.051641
0.0498172
0.0477383
0.045633
0.0437266
0.0421189
0.0407471
0.0394759
0.0382179
0.0369739
0.0359002
0.0352406
0.0351236
0.0355429
0.0364541
0.0377685
0.0393634
0.0410869
0.0427753
0.0442808
0.0454963
0.0463616
0.0468899
0.0471548
0.0472511
0.0472664
0.0542038
0.0541375
0.0539491
0.0535622
0.0528861
0.0518345
0.0503583
0.0484855
0.0463447
0.0441423
0.0420836
0.0402736
0.0386807
0.0372023
0.0357537
0.0342757
0.0327847
0.0313556
0.0300998
0.0291064
0.0284698
0.0282532
0.0284763
0.02911
0.0300744
0.0312391
0.0324396
0.0335214
0.034371
0.0349409
0.0352526
0.0353707
0.053283
0.0532184
0.0530386
0.0526741
0.0520409
0.0510566
0.0496699
0.0478949
0.0458325
0.0436614
0.0415829
0.0397409
0.0381771
0.0368578
0.0357317
0.0347229
0.0337035
0.0324613
0.0309634
0.0293208
0.0277003
0.0262595
0.0251187
0.0243522
0.0239854
0.0239923
0.0242951
0.024774
0.0252908
0.0257256
0.0260121
0.0261412
0.0527132
0.0526531
0.0524912
0.0521692
0.0516147
0.0507526
0.0495289
0.0479412
0.046062
0.0440387
0.0420603
0.0402989
0.0388607
0.0377811
0.0370522
0.0366098
0.0362482
0.0355382
0.0342874
0.0325646
0.0305578
0.0284947
0.0265823
0.0249692
0.0237372
0.0229055
0.0224413
0.022272
0.0222983
0.0224142
0.0225312
0.0225975
0.0524259
0.0523709
0.0522279
0.0519504
0.0514789
0.0507481
0.0497047
0.0483335
0.0466806
0.0448615
0.0430422
0.0413971
0.0400636
0.0391205
0.0385905
0.0384208
0.0383803
0.0379894
0.0369815
0.035337
0.0331781
0.0307286
0.0282621
0.0260237
0.024184
0.0228175
0.0219134
0.0214008
0.0211758
0.021126
0.0211513
0.0211817
0.0523188
0.0522694
0.0521448
0.0519084
0.0515129
0.0509038
0.0500328
0.0488774
0.0474634
0.0458765
0.0442527
0.0427487
0.041504
0.0406126
0.0401106
0.0399502
0.0399043
0.0395505
0.038647
0.0371211
0.035012
0.0324653
0.0297224
0.0270593
0.0247251
0.0228785
0.0215702
0.0207575
0.0203366
0.0201773
0.0201543
0.020171
0.0523017
0.0522603
0.0521563
0.05196
0.0516333
0.0511318
0.0504143
0.0494578
0.0482753
0.0469278
0.0455191
0.0441753
0.0430148
0.0421224
0.0415304
0.0411891
0.0409032
0.0403646
0.0393992
0.0379186
0.0359073
0.0334328
0.0306581
0.0278215
0.0251918
0.0229888
0.021334
0.0202374
0.0196195
0.0193484
0.0192782
0.0192841
0.0522638
0.0522363
0.0521627
0.052016
0.0517617
0.0513618
0.050782
0.0500025
0.04903
0.0479063
0.0467036
0.0455098
0.0444082
0.0434588
0.0426806
0.0420225
0.0413522
0.0405058
0.0393801
0.0378829
0.0359627
0.0336302
0.0309767
0.0281743
0.0254519
0.0230457
0.0211355
0.0197953
0.0189897
0.0186031
0.0184816
0.0184756
0.0520491
0.0520466
0.0520238
0.0519515
0.0517919
0.0515055
0.05106
0.0504381
0.0496427
0.0486989
0.0476487
0.0465421
0.0454272
0.0443398
0.04329
0.0422354
0.0411302
0.039953
0.0386544
0.0371363
0.0353201
0.03317
0.0307208
0.028087
0.0254414
0.02299
0.0209344
0.019408
0.0184345
0.0179328
0.0177554
0.0177355
0.0514619
0.0514992
0.0515555
0.0515945
0.0515663
0.0514192
0.0511133
0.050627
0.0499563
0.0491113
0.0481103
0.0469782
0.0457437
0.0444344
0.043065
0.0416126
0.0401186
0.0386745
0.0372574
0.0357578
0.0340793
0.0321541
0.0299708
0.0275903
0.025136
0.0227734
0.0206896
0.0190509
0.0179417
0.0173315
0.0170949
0.0170586
0.0503055
0.0503973
0.0505579
0.0507375
0.0508664
0.0508714
0.050693
0.0502961
0.0496676
0.0488091
0.0477322
0.0464594
0.0450231
0.0434602
0.0417991
0.040038
0.0382828
0.0366921
0.0352474
0.0338267
0.0323248
0.0306576
0.0287834
0.0267185
0.0245375
0.0223646
0.0203602
0.0186949
0.0174968
0.0167933
0.016497
0.0164416
0.0484276
0.0485832
0.0488522
0.0491612
0.0494195
0.049533
0.0494194
0.0490283
0.0483435
0.0473719
0.0461374
0.044679
0.0430467
0.0412911
0.0394528
0.037543
0.0356987
0.0341013
0.0327258
0.0314434
0.0301493
0.0287572
0.027211
0.0254968
0.0236478
0.0217437
0.0199105
0.0183064
0.0170804
0.0163105
0.0159589
0.015882
0.0457429
0.0459593
0.0462981
0.046654
0.046929
0.047031
0.0468702
0.0463922
0.045589
0.044481
0.0431101
0.0415334
0.0398143
0.0380104
0.0361651
0.0342927
0.0325321
0.0310547
0.029829
0.0287301
0.0276614
0.0265447
0.0253221
0.0239647
0.0224765
0.0208975
0.0193125
0.0178527
0.0166689
0.0158728
0.0154779
0.0153783
0.0422159
0.0424681
0.0427791
0.0430257
0.0431447
0.0430843
0.0427747
0.0421729
0.0412773
0.0401138
0.0387309
0.0371901
0.0355549
0.033879
0.0322009
0.0305325
0.0289952
0.0277329
0.0267119
0.0258226
0.0249829
0.0241277
0.0232064
0.0221866
0.0210568
0.0198286
0.0185473
0.0173053
0.0162358
0.0154655
0.0150496
0.0149295
0.0378114
0.0380397
0.0381713
0.0381387
0.037969
0.0376697
0.0372025
0.0365359
0.0356588
0.0345874
0.0333601
0.0320279
0.030643
0.0292483
0.0278737
0.0265277
0.0253052
0.0243153
0.0235284
0.0228571
0.0222379
0.0216211
0.0209674
0.0202486
0.0194488
0.0185646
0.0176122
0.0166435
0.0157566
0.0150707
0.0146673
0.0145343
0.0324325
0.032529
0.0323428
0.0319843
0.0315622
0.0311059
0.0305912
0.0299867
0.0292668
0.0284308
0.0274992
0.0265055
0.0254857
0.0244698
0.0234786
0.022518
0.0216536
0.0209597
0.0204141
0.0199555
0.0195399
0.0191335
0.0187091
0.0182465
0.0177324
0.0171589
0.0165273
0.0158585
0.0152091
0.0146684
0.0143208
0.0141904
0.0258672
0.0257187
0.0252858
0.0248209
0.0243826
0.0239756
0.0235801
0.0231671
0.0227091
0.0221959
0.0216339
0.0210401
0.0204345
0.0198345
0.0192524
0.0186917
0.0181898
0.0177888
0.0174755
0.0172148
0.0169813
0.016756
0.0165236
0.0162726
0.0159947
0.0156842
0.0153384
0.0149626
0.0145799
0.014238
0.0139966
0.0138932
0.0178439
0.017722
0.0174917
0.0172804
0.0170956
0.0169335
0.016786
0.016641
0.0164865
0.0163167
0.0161324
0.0159384
0.0157411
0.0155461
0.0153574
0.0151762
0.0150144
0.0148854
0.0147849
0.0147016
0.0146276
0.0145566
0.014484
0.014406
0.01432
0.0142243
0.0141175
0.0140003
0.0138782
0.0137641
0.0136767
0.0136344
)
;

boundaryField
{
    movingWall
    {
        type            fixedValue;
        value           uniform 0.0135;
    }
    fixedWalls
    {
        type            zeroGradient;
    }
    floor
    {
        type            zeroGradient;
    }
    frontAndBack
    {
        type            empty;
    }
}


// ************************************************************************* //
