/*--------------------------------*- C++ -*----------------------------------*\
| =========                 |                                                 |
| \\      /  F ield         | OpenFOAM: The Open Source CFD Toolbox           |
|  \\    /   O peration     | Version:  2212                                  |
|   \\  /    A nd           | Website:  www.openfoam.com                      |
|    \\/     M anipulation  |                                                 |
\*---------------------------------------------------------------------------*/
FoamFile
{
    version     2.0;
    format      ascii;
    arch        "LSB;label=64;scalar=64";
    class       volScalarField;
    location    "1360";
    object      Saa;
}
// * * * * * * * * * * * * * * * * * * * * * * * * * * * * * * * * * * * * * //

dimensions      [1 -3 0 0 0 0 0];

internalField   nonuniform List<scalar> 
1024
(
0.00546191
0.00546194
0.00546201
0.00546215
0.00546237
0.00546268
0.00546309
0.0054636
0.00546418
0.0054648
0.00546539
0.0054659
0.00546629
0.00546652
0.00546656
0.0054664
0.00546602
0.00546543
0.0054647
0.00546384
0.0054629
0.0054619
0.00546092
0.00546002
0.00545924
0.00545861
0.00545813
0.00545778
0.00545755
0.0054574
0.00545732
0.00545729
0.00546192
0.00546195
0.00546203
0.00546216
0.00546238
0.0054627
0.00546312
0.00546364
0.00546422
0.00546484
0.00546543
0.00546595
0.00546634
0.00546656
0.0054666
0.00546644
0.00546606
0.00546547
0.00546474
0.00546389
0.00546294
0.00546195
0.00546096
0.00546006
0.00545927
0.00545863
0.00545814
0.00545779
0.00545755
0.00545741
0.00545733
0.00545729
0.00546194
0.00546197
0.00546205
0.00546219
0.00546242
0.00546275
0.00546318
0.00546371
0.00546431
0.00546494
0.00546555
0.00546607
0.00546645
0.00546667
0.0054667
0.00546654
0.00546616
0.00546557
0.00546483
0.00546398
0.00546303
0.00546204
0.00546105
0.00546013
0.00545933
0.00545868
0.00545818
0.00545782
0.00545757
0.00545742
0.00545734
0.00545731
0.00546198
0.00546201
0.00546209
0.00546224
0.00546248
0.00546282
0.00546328
0.00546383
0.00546446
0.00546512
0.00546575
0.00546628
0.00546666
0.00546687
0.00546689
0.00546671
0.00546632
0.00546572
0.00546498
0.00546412
0.00546317
0.00546217
0.00546117
0.00546024
0.00545942
0.00545875
0.00545823
0.00545786
0.00545761
0.00545745
0.00545736
0.00545733
0.00546204
0.00546207
0.00546216
0.00546231
0.00546257
0.00546293
0.00546342
0.00546401
0.00546469
0.0054654
0.00546607
0.00546663
0.00546701
0.00546719
0.00546719
0.00546699
0.00546657
0.00546594
0.00546518
0.0054643
0.00546334
0.00546234
0.00546133
0.00546038
0.00545954
0.00545884
0.00545831
0.00545791
0.00545765
0.00545749
0.0054574
0.00545736
0.00546212
0.00546216
0.00546225
0.00546241
0.00546268
0.00546308
0.0054636
0.00546426
0.00546501
0.0054658
0.00546654
0.00546714
0.00546752
0.00546768
0.00546763
0.00546739
0.00546693
0.00546625
0.00546544
0.00546452
0.00546354
0.00546252
0.0054615
0.00546053
0.00545967
0.00545895
0.00545839
0.00545798
0.00545771
0.00545753
0.00545744
0.0054574
0.00546224
0.00546228
0.00546237
0.00546255
0.00546284
0.00546327
0.00546385
0.00546458
0.00546543
0.00546634
0.00546719
0.00546785
0.00546824
0.00546836
0.00546826
0.00546796
0.00546742
0.00546665
0.00546575
0.00546477
0.00546374
0.0054627
0.00546166
0.00546067
0.00545979
0.00545905
0.00545847
0.00545805
0.00545777
0.00545759
0.00545749
0.00545745
0.0054624
0.00546244
0.00546254
0.00546273
0.00546305
0.00546352
0.00546417
0.00546501
0.005466
0.00546705
0.00546803
0.00546877
0.00546918
0.00546926
0.00546909
0.00546871
0.00546806
0.00546716
0.00546612
0.00546503
0.00546392
0.00546283
0.00546176
0.00546076
0.00545987
0.00545912
0.00545854
0.00545811
0.00545782
0.00545764
0.00545755
0.00545751
0.00546263
0.00546267
0.00546277
0.00546298
0.00546332
0.00546385
0.00546459
0.00546556
0.00546671
0.00546795
0.00546908
0.00546992
0.00547034
0.00547039
0.00547016
0.00546968
0.00546889
0.0054678
0.00546656
0.00546529
0.00546407
0.00546289
0.00546178
0.00546077
0.00545988
0.00545914
0.00545857
0.00545815
0.00545787
0.0054577
0.00545761
0.00545757
0.00546295
0.00546299
0.0054631
0.00546332
0.0054637
0.00546429
0.00546514
0.00546627
0.00546762
0.00546905
0.00547035
0.00547129
0.00547174
0.00547177
0.00547148
0.00547091
0.00546996
0.00546863
0.00546712
0.00546561
0.00546419
0.0054629
0.00546173
0.0054607
0.00545982
0.0054591
0.00545856
0.00545818
0.00545792
0.00545777
0.00545769
0.00545766
0.00546339
0.00546343
0.00546355
0.0054638
0.00546423
0.0054649
0.00546588
0.00546719
0.00546876
0.0054704
0.00547187
0.0054729
0.00547339
0.00547343
0.00547313
0.00547251
0.00547142
0.00546984
0.005468
0.00546616
0.00546447
0.00546298
0.00546171
0.00546063
0.00545976
0.00545909
0.0054586
0.00545826
0.00545806
0.00545794
0.00545789
0.00545787
0.00546401
0.00546406
0.00546419
0.00546447
0.00546496
0.00546574
0.00546688
0.00546839
0.00547018
0.00547204
0.00547366
0.00547478
0.00547533
0.00547545
0.00547524
0.00547469
0.00547357
0.00547184
0.00546972
0.00546751
0.00546544
0.00546364
0.00546214
0.00546094
0.00546003
0.00545937
0.00545894
0.00545868
0.00545854
0.00545849
0.00545848
0.00545849
0.00546486
0.00546491
0.00546507
0.00546539
0.00546596
0.00546687
0.00546819
0.00546993
0.00547196
0.00547402
0.00547577
0.00547699
0.00547768
0.00547798
0.00547803
0.00547775
0.0054769
0.00547532
0.00547321
0.00547081
0.00546839
0.00546617
0.00546427
0.00546275
0.00546163
0.00546087
0.00546043
0.00546021
0.00546015
0.00546017
0.00546022
0.00546026
0.00546599
0.00546605
0.00546623
0.00546662
0.0054673
0.00546837
0.00546991
0.00547189
0.00547414
0.00547637
0.00547824
0.00547961
0.00548053
0.00548119
0.00548169
0.00548197
0.00548177
0.0054809
0.00547938
0.00547738
0.00547511
0.00547277
0.00547055
0.00546859
0.005467
0.00546585
0.00546511
0.00546472
0.00546459
0.00546459
0.00546465
0.0054647
0.00546735
0.00546743
0.00546764
0.00546808
0.00546886
0.00547008
0.00547179
0.00547395
0.00547636
0.00547874
0.0054808
0.00548242
0.0054837
0.00548482
0.00548586
0.00548681
0.00548749
0.00548769
0.00548738
0.00548658
0.00548535
0.00548378
0.00548199
0.00548011
0.00547831
0.00547672
0.00547544
0.00547454
0.00547399
0.00547372
0.00547362
0.00547361
0.0054688
0.00546888
0.0054691
0.00546956
0.00547038
0.00547164
0.00547341
0.00547563
0.00547813
0.00548065
0.00548292
0.00548483
0.00548643
0.00548785
0.00548917
0.0054904
0.00549148
0.00549237
0.00549306
0.00549351
0.00549369
0.00549354
0.00549306
0.00549226
0.00549121
0.00549001
0.00548882
0.00548775
0.00548693
0.00548638
0.00548608
0.00548597
0.00547002
0.00547009
0.00547031
0.00547074
0.0054715
0.00547269
0.00547436
0.0054765
0.00547895
0.0054815
0.00548389
0.00548595
0.00548764
0.00548902
0.00549013
0.00549098
0.00549164
0.0054923
0.00549306
0.0054939
0.00549474
0.00549549
0.00549607
0.00549644
0.00549658
0.00549647
0.00549617
0.00549576
0.00549532
0.00549497
0.00549473
0.00549463
0.00547083
0.0054709
0.00547109
0.00547147
0.00547214
0.00547319
0.00547468
0.00547662
0.0054789
0.00548135
0.00548372
0.0054858
0.00548749
0.00548875
0.00548959
0.00549002
0.00549019
0.00549043
0.00549097
0.00549178
0.00549277
0.00549381
0.00549478
0.00549562
0.00549627
0.00549674
0.00549703
0.00549716
0.00549718
0.00549715
0.0054971
0.00549707
0.0054713
0.00547136
0.00547152
0.00547185
0.00547242
0.00547332
0.0054746
0.0054763
0.00547835
0.00548061
0.00548286
0.0054849
0.00548657
0.00548779
0.00548852
0.00548879
0.00548875
0.0054888
0.00548921
0.00549001
0.00549112
0.0054924
0.00549368
0.00549483
0.00549578
0.00549649
0.00549698
0.00549729
0.00549746
0.00549753
0.00549756
0.00549756
0.00547154
0.0054716
0.00547174
0.00547202
0.00547249
0.00547324
0.00547432
0.00547577
0.00547756
0.00547957
0.00548163
0.00548357
0.00548519
0.00548641
0.00548716
0.00548746
0.00548748
0.00548757
0.00548797
0.00548876
0.00548988
0.00549125
0.00549271
0.00549411
0.00549532
0.00549627
0.00549696
0.0054974
0.00549765
0.00549777
0.00549782
0.00549783
0.00547167
0.00547171
0.00547183
0.00547206
0.00547245
0.00547307
0.00547396
0.00547517
0.00547668
0.00547842
0.00548025
0.00548202
0.00548357
0.00548479
0.00548564
0.00548613
0.00548638
0.00548667
0.00548719
0.00548801
0.00548914
0.00549052
0.00549203
0.00549355
0.00549493
0.00549607
0.00549692
0.0054975
0.00549784
0.00549801
0.00549808
0.00549809
0.00547178
0.00547181
0.0054719
0.00547207
0.00547238
0.00547288
0.0054736
0.0054746
0.00547585
0.00547731
0.00547889
0.00548047
0.00548193
0.00548318
0.00548418
0.00548493
0.00548553
0.00548612
0.00548682
0.00548773
0.00548886
0.00549021
0.0054917
0.00549323
0.00549467
0.00549593
0.00549691
0.00549759
0.00549802
0.00549824
0.00549833
0.00549835
0.00547201
0.00547202
0.00547206
0.00547217
0.00547238
0.00547275
0.00547332
0.00547412
0.00547515
0.00547637
0.00547773
0.00547915
0.00548054
0.00548186
0.00548305
0.00548412
0.00548509
0.00548598
0.00548688
0.00548786
0.00548899
0.00549027
0.00549168
0.00549314
0.00549457
0.00549586
0.00549691
0.00549769
0.00549818
0.00549845
0.00549857
0.00549859
0.00547251
0.00547249
0.00547247
0.00547248
0.00547257
0.00547281
0.00547323
0.00547386
0.00547471
0.00547576
0.00547697
0.00547831
0.00547971
0.00548114
0.00548254
0.00548391
0.0054852
0.00548633
0.00548736
0.00548839
0.00548947
0.00549066
0.00549194
0.00549329
0.00549463
0.00549588
0.00549695
0.00549778
0.00549834
0.00549865
0.00549879
0.00549882
0.00547342
0.00547336
0.00547326
0.00547315
0.00547312
0.00547321
0.0054735
0.00547401
0.00547475
0.00547572
0.0054769
0.00547824
0.00547971
0.00548125
0.00548283
0.00548442
0.00548591
0.00548718
0.00548826
0.00548927
0.00549027
0.00549133
0.00549245
0.00549364
0.00549485
0.00549601
0.00549705
0.00549789
0.00549849
0.00549884
0.005499
0.00549904
0.00547486
0.00547475
0.00547456
0.00547436
0.00547421
0.00547421
0.00547441
0.00547487
0.00547559
0.00547657
0.00547777
0.00547916
0.00548069
0.00548231
0.00548397
0.00548563
0.00548718
0.00548846
0.00548952
0.00549045
0.00549134
0.00549224
0.00549319
0.00549419
0.00549523
0.00549626
0.00549721
0.00549802
0.00549863
0.00549901
0.00549918
0.00549923
0.00547686
0.00547671
0.00547647
0.00547623
0.00547606
0.00547605
0.00547626
0.00547674
0.00547749
0.0054785
0.00547973
0.00548113
0.00548265
0.00548423
0.00548584
0.00548743
0.0054889
0.00549009
0.00549104
0.00549185
0.0054926
0.00549334
0.00549411
0.00549492
0.00549576
0.00549662
0.00549746
0.00549819
0.00549878
0.00549916
0.00549935
0.00549941
0.00547946
0.00547928
0.00547906
0.00547889
0.00547883
0.00547892
0.00547922
0.00547975
0.00548052
0.00548151
0.00548269
0.00548399
0.00548538
0.00548681
0.00548823
0.00548964
0.00549091
0.00549193
0.00549273
0.0054934
0.005494
0.00549458
0.00549516
0.00549578
0.00549643
0.00549711
0.00549778
0.00549841
0.00549894
0.0054993
0.0054995
0.00549956
0.00548266
0.0054825
0.00548241
0.00548244
0.00548258
0.00548283
0.00548322
0.00548376
0.00548448
0.00548536
0.00548637
0.00548747
0.00548861
0.00548978
0.00549093
0.00549205
0.00549306
0.00549386
0.00549448
0.00549499
0.00549544
0.00549586
0.00549629
0.00549673
0.0054972
0.00549769
0.0054982
0.00549869
0.00549912
0.00549944
0.00549963
0.00549969
0.00548654
0.00548647
0.0054866
0.00548687
0.00548718
0.00548753
0.00548793
0.00548841
0.00548898
0.00548965
0.0054904
0.00549121
0.00549204
0.00549288
0.0054937
0.0054945
0.00549521
0.00549577
0.00549621
0.00549656
0.00549686
0.00549715
0.00549743
0.00549771
0.00549802
0.00549834
0.00549868
0.00549902
0.00549934
0.00549959
0.00549975
0.00549981
0.00549123
0.00549134
0.00549165
0.00549198
0.0054923
0.00549261
0.00549291
0.00549322
0.00549358
0.00549399
0.00549444
0.00549491
0.00549541
0.0054959
0.00549638
0.00549684
0.00549726
0.00549758
0.00549783
0.00549803
0.00549821
0.00549837
0.00549852
0.00549868
0.00549884
0.00549902
0.00549921
0.0054994
0.00549959
0.00549975
0.00549985
0.0054999
0.00549693
0.00549702
0.00549718
0.00549733
0.00549747
0.00549759
0.0054977
0.00549781
0.00549793
0.00549806
0.00549821
0.00549836
0.00549852
0.00549868
0.00549884
0.00549899
0.00549912
0.00549923
0.00549931
0.00549937
0.00549943
0.00549948
0.00549953
0.00549957
0.00549963
0.00549968
0.00549974
0.0054998
0.00549986
0.00549991
0.00549995
0.00549997
)
;

boundaryField
{
    movingWall
    {
        type            fixedValue;
        value           uniform 0.0055;
    }
    fixedWalls
    {
        type            zeroGradient;
    }
    floor
    {
        type            zeroGradient;
    }
    frontAndBack
    {
        type            empty;
    }
}


// ************************************************************************* //
