/*--------------------------------*- C++ -*----------------------------------*\
| =========                 |                                                 |
| \\      /  F ield         | OpenFOAM: The Open Source CFD Toolbox           |
|  \\    /   O peration     | Version:  2212                                  |
|   \\  /    A nd           | Website:  www.openfoam.com                      |
|    \\/     M anipulation  |                                                 |
\*---------------------------------------------------------------------------*/
FoamFile
{
    version     2.0;
    format      ascii;
    arch        "LSB;label=64;scalar=64";
    class       volScalarField;
    location    "1360";
    object      Sch4;
}
// * * * * * * * * * * * * * * * * * * * * * * * * * * * * * * * * * * * * * //

dimensions      [1 -3 0 0 0 0 0];

internalField   nonuniform List<scalar> 
1024
(
0.0344026
0.0344134
0.0344398
0.0344878
0.0345636
0.0346729
0.0348186
0.0349988
0.0352057
0.0354257
0.0356409
0.0358316
0.0359806
0.0360769
0.0361151
0.0360896
0.035988
0.0358086
0.0355698
0.0352841
0.0349665
0.0346355
0.0343121
0.0340161
0.0337623
0.0335577
0.0334022
0.0332908
0.0332159
0.0331694
0.0331441
0.0331337
0.0344058
0.0344167
0.0344436
0.0344924
0.0345696
0.0346808
0.0348287
0.0350112
0.0352202
0.0354419
0.0356584
0.0358495
0.0359981
0.0360939
0.0361315
0.0361059
0.0360045
0.0358251
0.0355863
0.0353005
0.0349826
0.0346509
0.034326
0.034028
0.033772
0.0335651
0.0334077
0.0332948
0.0332189
0.0331718
0.0331461
0.0331357
0.0344134
0.0344247
0.0344524
0.0345029
0.0345829
0.0346979
0.0348505
0.0350384
0.0352529
0.03548
0.0357007
0.035894
0.0360421
0.0361362
0.0361721
0.0361454
0.0360433
0.0358628
0.0356227
0.0353357
0.0350167
0.0346832
0.0343555
0.0340535
0.0337927
0.0335812
0.0334197
0.0333038
0.0332258
0.0331774
0.0331511
0.0331404
0.0344269
0.0344387
0.0344676
0.0345205
0.0346045
0.0347254
0.0348858
0.0350831
0.0353084
0.0355467
0.0357774
0.0359762
0.0361243
0.0362151
0.0362469
0.036217
0.0361118
0.035927
0.0356822
0.0353914
0.0350694
0.0347327
0.0344005
0.0340926
0.0338249
0.0336065
0.033439
0.0333184
0.0332372
0.033187
0.0331596
0.0331486
0.034448
0.0344602
0.0344906
0.0345465
0.0346357
0.0347647
0.0349365
0.0351486
0.0353921
0.0356504
0.0358993
0.0361092
0.0362587
0.0363442
0.0363689
0.0363321
0.0362192
0.0360241
0.0357682
0.0354683
0.0351396
0.0347972
0.0344589
0.0341434
0.0338671
0.0336401
0.0334652
0.0333388
0.0332536
0.0332009
0.0331723
0.0331607
0.0344786
0.0344913
0.0345232
0.0345826
0.0346782
0.0348177
0.0350052
0.0352393
0.0355105
0.0357999
0.0360778
0.0363064
0.0364601
0.036539
0.0365527
0.0365042
0.0363768
0.0361615
0.035884
0.0355659
0.035224
0.034872
0.0345252
0.0342009
0.0339153
0.0336792
0.0334962
0.0333637
0.0332743
0.033219
0.0331891
0.0331771
0.0345213
0.0345344
0.034568
0.0346313
0.0347346
0.0348875
0.035096
0.0353602
0.0356706
0.0360045
0.0363235
0.0365798
0.0367421
0.0368143
0.036814
0.0367484
0.036597
0.0363477
0.0360332
0.0356832
0.0353179
0.0349498
0.0345914
0.0342573
0.0339627
0.0337183
0.0335284
0.0333907
0.0332978
0.0332406
0.0332097
0.0331974
0.0345802
0.0345938
0.0346292
0.034697
0.0348095
0.0349789
0.0352144
0.0355184
0.0358807
0.0362727
0.0366449
0.036938
0.0371148
0.0371825
0.0371674
0.0370801
0.0368939
0.0365926
0.0362201
0.0358189
0.0354156
0.035022
0.0346471
0.0343022
0.0340001
0.0337503
0.0335566
0.0334165
0.0333224
0.0332647
0.0332338
0.0332215
0.0346617
0.0346758
0.0347133
0.0347864
0.0349101
0.0351
0.0353694
0.0357233
0.0361501
0.0366131
0.0370489
0.0373865
0.0375843
0.0376527
0.037626
0.0375155
0.0372837
0.0369097
0.0364538
0.0359764
0.0355148
0.0350824
0.0346842
0.0343272
0.0340199
0.0337692
0.0335769
0.0334392
0.0333476
0.0332922
0.033263
0.0332515
0.0347752
0.0347901
0.0348303
0.0349102
0.0350479
0.0352633
0.0355743
0.0359885
0.0364917
0.0370361
0.0375429
0.0379302
0.0381553
0.0382334
0.0382047
0.038076
0.0377927
0.0373277
0.0367609
0.0361765
0.0356294
0.035139
0.0347069
0.0343342
0.0340239
0.0337775
0.0335933
0.0334645
0.0333812
0.0333323
0.0333076
0.0332984
0.0349346
0.0349505
0.0349946
0.0350837
0.0352395
0.0354869
0.0358482
0.0363334
0.0369231
0.037556
0.0381373
0.0385772
0.0388369
0.03894
0.0389296
0.0388012
0.0384769
0.0379179
0.0372204
0.0364962
0.0358271
0.0352488
0.0347616
0.0343616
0.0340449
0.0338057
0.0336355
0.0335233
0.0334559
0.0334204
0.033405
0.0334005
0.0351574
0.0351752
0.0352249
0.0353267
0.0355066
0.0357944
0.0362166
0.0367832
0.037467
0.038191
0.0388466
0.0393419
0.0396492
0.0398045
0.0398503
0.0397666
0.03945
0.0388422
0.0380378
0.0371639
0.0363312
0.0356115
0.0350211
0.0345575
0.0342114
0.0339691
0.0338129
0.0337235
0.0336814
0.0336686
0.03367
0.0336742
0.0354639
0.0354843
0.0355421
0.0356616
0.0358736
0.0362126
0.0367079
0.0373659
0.038148
0.0389617
0.039689
0.0402459
0.0406251
0.0408769
0.0410415
0.041087
0.0408935
0.0403718
0.0395823
0.0386401
0.0376672
0.0367658
0.0359954
0.0353829
0.034934
0.0346379
0.0344669
0.0343889
0.0343719
0.0343865
0.0344098
0.0344257
0.0358701
0.0358943
0.0359637
0.0361075
0.0363621
0.0367663
0.0373484
0.0381062
0.0389851
0.0398791
0.0406722
0.0413018
0.0417869
0.0421891
0.0425464
0.0428319
0.0429335
0.0427319
0.042223
0.0414743
0.0405759
0.0396247
0.0387087
0.0378947
0.037234
0.036755
0.0364488
0.0362897
0.0362358
0.0362405
0.0362658
0.0362858
0.036362
0.0363902
0.0364712
0.0366384
0.0369327
0.0373937
0.038046
0.0388777
0.0398259
0.0407863
0.0416564
0.0423906
0.0430174
0.0435984
0.0441737
0.0447429
0.0452347
0.0455375
0.0455925
0.0454024
0.0449874
0.044388
0.0436604
0.0428738
0.0421032
0.0414159
0.0408611
0.040466
0.0402248
0.0401039
0.0400599
0.0400529
0.0368772
0.0369074
0.0369933
0.0371697
0.037478
0.0379575
0.0386306
0.0394846
0.040461
0.0414656
0.042405
0.0432313
0.0439587
0.0446341
0.0452961
0.0459719
0.0466543
0.0473089
0.0478844
0.04834
0.0486324
0.0487326
0.0486317
0.0483428
0.0479027
0.0473709
0.0468227
0.0463286
0.0459405
0.0456801
0.0455378
0.0454838
0.0372966
0.0373261
0.0374081
0.0375743
0.037863
0.0383117
0.038944
0.0397534
0.0406938
0.0416839
0.0426321
0.0434725
0.0441862
0.0447884
0.0453028
0.045764
0.0462309
0.0468002
0.047487
0.04824
0.0489828
0.0496433
0.0501663
0.0505177
0.0506861
0.0506833
0.050545
0.050326
0.0500897
0.0498909
0.0497598
0.0497008
0.0375559
0.0375834
0.0376572
0.0378041
0.0380569
0.0384499
0.0390078
0.0397316
0.0405883
0.0415108
0.0424129
0.0432162
0.0438721
0.0443645
0.044697
0.044899
0.0450649
0.0453908
0.0459646
0.0467546
0.0476747
0.0486205
0.0494973
0.0502367
0.0508014
0.0511825
0.0513951
0.0514726
0.0514604
0.0514072
0.0513535
0.0513231
0.0376865
0.0377116
0.0377769
0.0379034
0.0381184
0.0384515
0.0389271
0.0395522
0.0403056
0.0411348
0.0419641
0.042714
0.0433217
0.0437514
0.0439928
0.04407
0.0440887
0.0442685
0.0447309
0.0454849
0.0464746
0.0475974
0.0487281
0.0497542
0.0505976
0.051224
0.0516383
0.0518732
0.0519761
0.0519988
0.051987
0.051973
0.037735
0.0377575
0.0378143
0.0379221
0.0381025
0.0383801
0.0387772
0.0393037
0.0399481
0.0406714
0.0414113
0.0420966
0.0426637
0.0430696
0.043298
0.0433708
0.0433918
0.0435544
0.0439688
0.0446683
0.045635
0.0468022
0.0480595
0.0492802
0.0503502
0.0511967
0.0517964
0.0521689
0.0523617
0.0524346
0.052445
0.0524372
0.0377424
0.0377613
0.0378087
0.0378982
0.0380472
0.0382758
0.0386028
0.0390387
0.0395776
0.0401916
0.0408334
0.0414456
0.0419742
0.0423805
0.04265
0.0428053
0.042936
0.0431829
0.0436254
0.0443039
0.0452256
0.0463596
0.0476312
0.0489313
0.0501368
0.0511466
0.0519052
0.0524079
0.0526911
0.0528153
0.0528473
0.0528445
0.0377594
0.0377719
0.0378055
0.0378724
0.0379884
0.0381706
0.0384349
0.0387901
0.0392332
0.0397452
0.0402931
0.0408369
0.0413387
0.0417712
0.0421258
0.042426
0.0427324
0.0431199
0.0436355
0.0443213
0.0452011
0.0462698
0.0474858
0.0487701
0.050018
0.051121
0.0519967
0.0526111
0.0529803
0.0531575
0.0532131
0.0532158
0.0378574
0.0378585
0.0378689
0.0379018
0.0379745
0.038105
0.038308
0.0385913
0.0389537
0.0393837
0.0398623
0.0403665
0.0408747
0.0413705
0.0418494
0.0423309
0.0428362
0.0433748
0.0439693
0.0446645
0.0454964
0.0464814
0.0476036
0.0488106
0.0500232
0.0511469
0.0520892
0.052789
0.0532353
0.0534652
0.0535465
0.0535555
0.0381259
0.0381088
0.038083
0.038065
0.0380776
0.0381445
0.0382838
0.0385054
0.038811
0.0391962
0.0396525
0.0401688
0.040732
0.0413295
0.0419548
0.0426183
0.0433014
0.043962
0.0446106
0.0452971
0.0460657
0.0469476
0.0479479
0.0490387
0.0501635
0.0512465
0.0522017
0.052953
0.0534615
0.0537412
0.0538497
0.0538662
0.0386549
0.0386129
0.0385393
0.038457
0.0383978
0.0383952
0.0384763
0.0386571
0.0389437
0.0393354
0.0398268
0.0404079
0.0410636
0.0417775
0.0425364
0.0433413
0.0441438
0.0448714
0.0455324
0.0461827
0.0468704
0.047634
0.0484926
0.0494387
0.0504382
0.0514342
0.052353
0.0531165
0.0536658
0.0539883
0.0541241
0.0541495
0.0395141
0.0394428
0.0393197
0.0391782
0.0390598
0.0390076
0.0390592
0.0392375
0.0395501
0.0399938
0.0405577
0.041224
0.0419698
0.042772
0.0436122
0.0444853
0.0453286
0.0460592
0.0466885
0.0472754
0.0478679
0.0485054
0.0492137
0.049999
0.0508463
0.0517191
0.0525594
0.0532948
0.0538569
0.0542099
0.0543711
0.0544063
0.0407426
0.0406435
0.0404885
0.0403255
0.0401995
0.0401526
0.0402259
0.0404441
0.0408112
0.0413175
0.0419441
0.0426648
0.0434506
0.0442752
0.0451187
0.0459748
0.0467799
0.0474556
0.0480164
0.0485193
0.0490084
0.0495198
0.0500798
0.0507016
0.0513836
0.0521072
0.0528338
0.053503
0.0540458
0.0544108
0.0545919
0.0546376
0.0423567
0.0422412
0.0420989
0.0419859
0.0419314
0.0419588
0.0421003
0.0423754
0.0427848
0.0433168
0.0439491
0.0446536
0.0454012
0.0461675
0.0469347
0.0476976
0.0484006
0.048978
0.049445
0.0498519
0.0502363
0.0506278
0.0510498
0.0515169
0.0520346
0.0525975
0.0531848
0.0537542
0.0542446
0.0545978
0.0547885
0.0548436
0.0443724
0.0442679
0.0442077
0.0442225
0.0443001
0.044437
0.0446507
0.0449555
0.0453566
0.0458466
0.0464079
0.0470171
0.0476504
0.0482882
0.0489168
0.0495322
0.0500913
0.050544
0.050904
0.0512112
0.0514946
0.0517769
0.0520763
0.0524055
0.052772
0.0531772
0.0536137
0.0540578
0.0544645
0.054779
0.054964
0.055025
0.0468342
0.0467901
0.0468753
0.0470393
0.0472325
0.0474413
0.0476767
0.0479532
0.0482825
0.0486649
0.049091
0.0495455
0.0500119
0.0504765
0.0509297
0.051369
0.0517643
0.0520817
0.0523313
0.052541
0.0527312
0.0529173
0.0531116
0.0533235
0.0535591
0.0538219
0.0541114
0.0544179
0.0547157
0.0549637
0.0551231
0.0551829
0.0498392
0.0499072
0.0501053
0.0503181
0.0505187
0.0507049
0.0508859
0.0510748
0.0512843
0.0515191
0.0517762
0.0520478
0.0523247
0.0525991
0.0528653
0.0531217
0.0533513
0.0535347
0.0536779
0.0537972
0.0539041
0.0540072
0.0541136
0.0542286
0.0543559
0.0544982
0.0546567
0.054829
0.0550044
0.0551612
0.055272
0.0553194
0.0535116
0.0535674
0.0536728
0.0537696
0.0538541
0.0539283
0.0539958
0.0540621
0.0541328
0.0542105
0.0542948
0.0543836
0.0544738
0.054563
0.0546492
0.0547321
0.0548061
0.0548651
0.0549111
0.0549492
0.0549831
0.0550155
0.0550488
0.0550845
0.0551239
0.0551678
0.0552167
0.0552704
0.0553264
0.0553788
0.0554188
0.0554383
)
;

boundaryField
{
    movingWall
    {
        type            fixedValue;
        value           uniform 0.0555;
    }
    fixedWalls
    {
        type            zeroGradient;
    }
    floor
    {
        type            zeroGradient;
    }
    frontAndBack
    {
        type            empty;
    }
}


// ************************************************************************* //
