/*--------------------------------*- C++ -*----------------------------------*\
| =========                 |                                                 |
| \\      /  F ield         | OpenFOAM: The Open Source CFD Toolbox           |
|  \\    /   O peration     | Version:  2212                                  |
|   \\  /    A nd           | Website:  www.openfoam.com                      |
|    \\/     M anipulation  |                                                 |
\*---------------------------------------------------------------------------*/
FoamFile
{
    version     2.0;
    format      ascii;
    arch        "LSB;label=64;scalar=64";
    class       volVectorField;
    location    "1360";
    object      U;
}
// * * * * * * * * * * * * * * * * * * * * * * * * * * * * * * * * * * * * * //

dimensions      [0 1 -1 0 0 0 0];

internalField   nonuniform List<vector> 
1024
(
(5.59656e-06 -5.82401e-06 0)
(-3.67526e-05 1.02851e-05 0)
(-0.000171299 2.63281e-05 0)
(-0.000388815 3.29082e-05 0)
(-0.000650463 3.1702e-05 0)
(-0.000909154 2.58129e-05 0)
(-0.0011164 1.68028e-05 0)
(-0.00121644 4.77766e-06 0)
(-0.00114035 -1.12941e-05 0)
(-0.000804515 -2.81216e-05 0)
(-0.00021684 -3.49346e-05 0)
(0.000522448 -2.8859e-05 0)
(0.00110539 -1.74197e-05 0)
(0.00150618 -7.85775e-06 0)
(0.00175724 -4.72949e-06 0)
(0.00198169 -4.87612e-06 0)
(0.00220872 -4.30812e-06 0)
(0.0023216 6.76428e-07 0)
(0.00223757 7.65672e-06 0)
(0.00199253 1.2321e-05 0)
(0.00168312 1.39327e-05 0)
(0.00137907 1.36333e-05 0)
(0.00111044 1.25668e-05 0)
(0.000882796 1.13936e-05 0)
(0.000690105 1.06568e-05 0)
(0.000521323 1.08367e-05 0)
(0.000367152 1.17917e-05 0)
(0.000226877 1.23814e-05 0)
(0.000109997 1.0817e-05 0)
(3.00042e-05 5.82156e-06 0)
(-5.81116e-06 -1.53319e-06 0)
(-6.07051e-06 -6.12401e-06 0)
(-1.15549e-05 3.72346e-05 0)
(-0.000179219 0.000170495 0)
(-0.000552184 0.000289224 0)
(-0.00111291 0.000341528 0)
(-0.0017734 0.000324489 0)
(-0.00241775 0.000255456 0)
(-0.00291761 0.000150585 0)
(-0.00313013 1.89076e-05 0)
(-0.0028957 -0.000136361 0)
(-0.00203964 -0.0002841 0)
(-0.00057669 -0.000360175 0)
(0.00133086 -0.000315744 0)
(0.00285696 -0.000205257 0)
(0.00398085 -0.000115817 0)
(0.00474555 -7.41795e-05 0)
(0.00542459 -6.47128e-05 0)
(0.00607911 -5.04961e-05 0)
(0.00642759 -3.13578e-06 0)
(0.00627543 6.35368e-05 0)
(0.00569797 0.000117853 0)
(0.00491566 0.000147596 0)
(0.00410627 0.000157724 0)
(0.00335946 0.000157289 0)
(0.00270253 0.00015345 0)
(0.00212989 0.000151821 0)
(0.0016216 0.000155805 0)
(0.0011611 0.000162747 0)
(0.000750239 0.000162524 0)
(0.000410877 0.000142287 0)
(0.00017006 9.64191e-05 0)
(3.92945e-05 3.63506e-05 0)
(-1.52947e-06 -6.24987e-06 0)
(-3.17747e-05 0.000186328 0)
(-0.000332796 0.000557529 0)
(-0.000918394 0.000842726 0)
(-0.00175235 0.000958758 0)
(-0.00270762 0.00089627 0)
(-0.00361902 0.000691533 0)
(-0.00429886 0.000387492 0)
(-0.004543 1.62227e-05 0)
(-0.00413409 -0.000401825 0)
(-0.00288345 -0.000786736 0)
(-0.000827883 -0.000999516 0)
(0.00190597 -0.00089356 0)
(0.0041347 -0.000600041 0)
(0.00589023 -0.000362189 0)
(0.00717736 -0.000240846 0)
(0.00832995 -0.000203912 0)
(0.00941283 -0.000157685 0)
(0.0100413 -2.7199e-05 0)
(0.00993586 0.000156844 0)
(0.00918718 0.000316322 0)
(0.00808219 0.000415982 0)
(0.00687518 0.000462809 0)
(0.0057113 0.00047789 0)
(0.00464877 0.000480123 0)
(0.0036957 0.000484513 0)
(0.00283717 0.000499128 0)
(0.00205968 0.000516315 0)
(0.00137002 0.000510892 0)
(0.000796821 0.000453021 0)
(0.00037362 0.000331792 0)
(0.000117513 0.000172411 0)
(7.4794e-06 3.36008e-05 0)
(-4.51627e-05 0.00045509 0)
(-0.000443061 0.00120389 0)
(-0.00118217 0.00171743 0)
(-0.00220236 0.00189981 0)
(-0.00334191 0.0017458 0)
(-0.00440085 0.00131925 0)
(-0.00515369 0.000702224 0)
(-0.00536176 -3.4813e-05 0)
(-0.00477961 -0.000833054 0)
(-0.00327133 -0.00154103 0)
(-0.000921428 -0.00194118 0)
(0.00219497 -0.001759 0)
(0.00481663 -0.00122044 0)
(0.00703245 -0.000779043 0)
(0.00878409 -0.000537717 0)
(0.0103905 -0.000450578 0)
(0.0118945 -0.000351624 0)
(0.012861 -9.71525e-05 0)
(0.0129354 0.000264688 0)
(0.0121911 0.000593425 0)
(0.0109411 0.000818606 0)
(0.00948448 0.000945054 0)
(0.00800926 0.00100724 0)
(0.00660615 0.00103896 0)
(0.00530667 0.0010675 0)
(0.00411308 0.00110657 0)
(0.00302411 0.00114214 0)
(0.00205403 0.00112997 0)
(0.00123629 0.00101805 0)
(0.000611448 0.000785334 0)
(0.000209828 0.000466247 0)
(1.7654e-05 0.000139867 0)
(-4.9036e-05 0.000824113 0)
(-0.000482093 0.00207586 0)
(-0.00128251 0.00287304 0)
(-0.00237836 0.00311718 0)
(-0.00358663 0.00282084 0)
(-0.00468486 0.00208728 0)
(-0.00542592 0.00105099 0)
(-0.00555552 -0.000161554 0)
(-0.00483936 -0.00142441 0)
(-0.0032244 -0.00249538 0)
(-0.000863678 -0.00308607 0)
(0.00217479 -0.0028224 0)
(0.00485113 -0.00202854 0)
(0.00728102 -0.00136405 0)
(0.00935196 -0.000980255 0)
(0.0113262 -0.000825456 0)
(0.0132137 -0.000659532 0)
(0.0145672 -0.000251002 0)
(0.0149622 0.000343149 0)
(0.0143927 0.000906686 0)
(0.0131784 0.00132055 0)
(0.0116424 0.00158339 0)
(0.00999942 0.00174238 0)
(0.00836591 0.00184607 0)
(0.00679862 0.00193381 0)
(0.00532344 0.00202428 0)
(0.0039579 0.00209641 0)
(0.00272802 0.00208485 0)
(0.00167487 0.00190969 0)
(0.000849893 0.0015291 0)
(0.000301911 0.000974123 0)
(2.76305e-05 0.000335849 0)
(-4.33289e-05 0.00124548 0)
(-0.000444188 0.0030826 0)
(-0.001202 0.00421336 0)
(-0.00225456 0.00452671 0)
(-0.00342084 0.00405338 0)
(-0.00447046 0.00294393 0)
(-0.00514664 0.00140015 0)
(-0.0051936 -0.000371664 0)
(-0.00442098 -0.0021444 0)
(-0.00285993 -0.00356965 0)
(-0.000735668 -0.00429986 0)
(0.00185555 -0.0039535 0)
(0.00426982 -0.00294647 0)
(0.00662546 -0.00208025 0)
(0.00879045 -0.00155984 0)
(0.0109648 -0.0013375 0)
(0.0131381 -0.00110797 0)
(0.0148834 -0.000536672 0)
(0.0157278 0.000335349 0)
(0.0154813 0.00119951 0)
(0.0144636 0.00186868 0)
(0.0130143 0.00233276 0)
(0.0113634 0.00265193 0)
(0.00964203 0.00288774 0)
(0.00792646 0.00308859 0)
(0.00626562 0.0032752 0)
(0.00469851 0.00341737 0)
(0.00326769 0.00342563 0)
(0.00202672 0.00318444 0)
(0.00104063 0.00261734 0)
(0.000375298 0.00173676 0)
(3.56801e-05 0.000638328 0)
(-3.08696e-05 0.00165275 0)
(-0.000346948 0.00408987 0)
(-0.000975203 0.00559256 0)
(-0.0018822 0.0060073 0)
(-0.00291503 0.00536009 0)
(-0.003854 0.00384275 0)
(-0.00444413 0.00173684 0)
(-0.00444041 -0.000642331 0)
(-0.00371249 -0.00292944 0)
(-0.0023607 -0.00465656 0)
(-0.000666253 -0.00543753 0)
(0.00125336 -0.00500887 0)
(0.00315408 -0.00386315 0)
(0.00515723 -0.00285182 0)
(0.00715224 -0.00223254 0)
(0.00929245 -0.00197005 0)
(0.0115776 -0.00170991 0)
(0.0136459 -0.00100322 0)
(0.0150192 0.000182198 0)
(0.0152154 0.00140623 0)
(0.0145201 0.00239626 0)
(0.0132984 0.00312709 0)
(0.0117914 0.00367508 0)
(0.0101341 0.00411356 0)
(0.00841318 0.00449547 0)
(0.00669564 0.00483828 0)
(0.00504153 0.00509672 0)
(0.00351333 0.00515082 0)
(0.00218065 0.00484079 0)
(0.0011201 0.00404481 0)
(0.000404646 0.00274681 0)
(3.88964e-05 0.001043 0)
(-1.66249e-05 0.00198223 0)
(-0.000225411 0.0049579 0)
(-0.000677796 0.00684744 0)
(-0.00137652 0.00741803 0)
(-0.00221673 0.00664816 0)
(-0.00300968 0.00474492 0)
(-0.0035157 0.00207176 0)
(-0.00351303 -0.000918428 0)
(-0.00293179 -0.0036834 0)
(-0.00192427 -0.00562469 0)
(-0.000788089 -0.00635637 0)
(0.000355949 -0.00584827 0)
(0.00157661 -0.00464589 0)
(0.00300402 -0.0035679 0)
(0.00458094 -0.00291439 0)
(0.0064295 -0.00266851 0)
(0.00858729 -0.00244953 0)
(0.0108335 -0.00168286 0)
(0.0126614 -0.000209673 0)
(0.0134509 0.00143989 0)
(0.0131803 0.00282132 0)
(0.0122946 0.00388045 0)
(0.0110614 0.004723 0)
(0.00961069 0.00543539 0)
(0.00803064 0.00607033 0)
(0.00640125 0.00663372 0)
(0.00480269 0.00705443 0)
(0.0033189 0.0071715 0)
(0.00203502 0.00677527 0)
(0.00103041 0.00570053 0)
(0.000366641 0.00390956 0)
(3.43918e-05 0.00150582 0)
(-5.35897e-06 0.00219781 0)
(-0.000117569 0.0055913 0)
(-0.000398154 0.00784802 0)
(-0.000878839 0.00863239 0)
(-0.00150844 0.00782957 0)
(-0.00214514 0.00561945 0)
(-0.00258058 0.00243298 0)
(-0.00263069 -0.00111991 0)
(-0.00228578 -0.0042801 0)
(-0.00173328 -0.00631927 0)
(-0.00124032 -0.00691694 0)
(-0.000873012 -0.00632428 0)
(-0.000435261 -0.00515752 0)
(0.000266444 -0.00409682 0)
(0.00123035 -0.00348691 0)
(0.00255193 -0.00333416 0)
(0.0043106 -0.003269 0)
(0.00651664 -0.00258009 0)
(0.00865851 -0.000923158 0)
(0.0102017 0.00119803 0)
(0.0104271 0.00304945 0)
(0.00994729 0.00448668 0)
(0.00909296 0.00567891 0)
(0.0079744 0.00672753 0)
(0.00667246 0.00767903 0)
(0.00527804 0.00851473 0)
(0.00389187 0.00912111 0)
(0.00261835 0.0092847 0)
(0.00155068 0.00875167 0)
(0.000754064 0.00733972 0)
(0.000256142 0.0050233 0)
(2.17195e-05 0.00193514 0)
(3.11681e-07 0.00230614 0)
(-5.00581e-05 0.00597989 0)
(-0.000206492 0.00855092 0)
(-0.000512519 0.00958408 0)
(-0.000958807 0.00884535 0)
(-0.00145527 0.00644559 0)
(-0.00184141 0.00285634 0)
(-0.00198896 -0.00114878 0)
(-0.00196102 -0.00455917 0)
(-0.00195445 -0.00655324 0)
(-0.00216182 -0.00696585 0)
(-0.0025479 -0.00629454 0)
(-0.0028883 -0.00522045 0)
(-0.00298781 -0.00431059 0)
(-0.00277414 -0.00383548 0)
(-0.00216545 -0.00383971 0)
(-0.00106086 -0.00404815 0)
(0.000830573 -0.00365258 0)
(0.00300635 -0.00204303 0)
(0.00544863 0.000632572 0)
(0.00633606 0.00300704 0)
(0.0063279 0.00482503 0)
(0.00595862 0.00639541 0)
(0.00528948 0.00782157 0)
(0.00439469 0.00913005 0)
(0.00338094 0.0102549 0)
(0.00237074 0.0110195 0)
(0.0014809 0.0111556 0)
(0.000794807 0.0103964 0)
(0.00034125 0.00859986 0)
(9.77676e-05 0.00580813 0)
(4.41262e-06 0.00221056 0)
(3.61194e-07 0.00235528 0)
(-3.20609e-05 0.00621211 0)
(-0.000136759 0.00903451 0)
(-0.000351193 0.0103127 0)
(-0.00068401 0.00970232 0)
(-0.00108744 0.00722965 0)
(-0.00146238 0.00338846 0)
(-0.00175903 -0.000882721 0)
(-0.00213018 -0.00431358 0)
(-0.00274084 -0.00610122 0)
(-0.00367542 -0.0063174 0)
(-0.00480774 -0.00563911 0)
(-0.0059108 -0.00473457 0)
(-0.006802 -0.00405171 0)
(-0.00737507 -0.00381437 0)
(-0.00753214 -0.0040703 0)
(-0.00713486 -0.0045954 0)
(-0.00594504 -0.00463671 0)
(-0.00408106 -0.00348817 0)
(-0.00175889 -0.000899278 0)
(0.000873794 0.00242687 0)
(0.00156121 0.00473229 0)
(0.00186766 0.00669753 0)
(0.00178677 0.00851523 0)
(0.00143933 0.0101818 0)
(0.00096311 0.0115491 0)
(0.000497819 0.012365 0)
(0.000148726 0.0123354 0)
(-3.98825e-05 0.0112468 0)
(-8.80581e-05 0.00908526 0)
(-5.77015e-05 0.00600089 0)
(-1.1065e-05 0.00223392 0)
(-4.09695e-06 0.00242616 0)
(-5.88287e-05 0.00646875 0)
(-0.000187822 0.00951341 0)
(-0.000411419 0.0110056 0)
(-0.000732003 0.0105323 0)
(-0.00112663 0.00807013 0)
(-0.00156518 0.00416091 0)
(-0.00209727 -8.51792e-05 0)
(-0.00294068 -0.00328016 0)
(-0.00422231 -0.00472517 0)
(-0.00587758 -0.00477897 0)
(-0.00772224 -0.00419629 0)
(-0.00954743 -0.00356042 0)
(-0.0111916 -0.00320596 0)
(-0.0125382 -0.00330666 0)
(-0.0134668 -0.00391773 0)
(-0.0137934 -0.00486556 0)
(-0.01322 -0.00541015 0)
(-0.0117618 -0.00481287 0)
(-0.00953757 -0.00281126 0)
(-0.00643924 0.000463389 0)
(-0.00421304 0.00360222 0)
(-0.00293993 0.00612948 0)
(-0.00217459 0.00839654 0)
(-0.00174619 0.0103913 0)
(-0.001494 0.0118737 0)
(-0.00127691 0.0125828 0)
(-0.00102154 0.0122954 0)
(-0.000719937 0.0109308 0)
(-0.000413796 0.00859269 0)
(-0.000166447 0.00551817 0)
(-1.9795e-05 0.00199097 0)
(-1.02769e-05 0.00260299 0)
(-0.000118687 0.0069638 0)
(-0.000337964 0.0102777 0)
(-0.000669769 0.0119595 0)
(-0.00109434 0.0115847 0)
(-0.00159758 0.00916375 0)
(-0.00222153 0.00535881 0)
(-0.00314406 0.00144093 0)
(-0.00454526 -0.00132936 0)
(-0.00652547 -0.00237236 0)
(-0.00885091 -0.00231927 0)
(-0.0112983 -0.00192913 0)
(-0.0137072 -0.00164595 0)
(-0.0159471 -0.00170456 0)
(-0.0179102 -0.00223921 0)
(-0.0194763 -0.00330417 0)
(-0.0204443 -0.0047791 0)
(-0.0204645 -0.00599135 0)
(-0.0194645 -0.0061968 0)
(-0.0174902 -0.00510309 0)
(-0.014609 -0.00266796 0)
(-0.0110557 0.000728634 0)
(-0.00809481 0.00403649 0)
(-0.00604812 0.00674406 0)
(-0.00453436 0.00897423 0)
(-0.00339573 0.0105138 0)
(-0.0024693 0.0111592 0)
(-0.00169459 0.0107529 0)
(-0.00104793 0.00932884 0)
(-0.000539721 0.0071101 0)
(-0.000196458 0.00441083 0)
(-2.04759e-05 0.00152857 0)
(-2.14181e-05 0.00303378 0)
(-0.000214478 0.00806429 0)
(-0.000590491 0.0118436 0)
(-0.00114543 0.013774 0)
(-0.00185189 0.0135076 0)
(-0.00272108 0.0112379 0)
(-0.00386271 0.00787484 0)
(-0.00547566 0.00476598 0)
(-0.00764012 0.00281615 0)
(-0.0101674 0.00192699 0)
(-0.012856 0.00161552 0)
(-0.0155325 0.00142025 0)
(-0.0180818 0.00105769 0)
(-0.020444 0.000382688 0)
(-0.0225761 -0.000702238 0)
(-0.0244362 -0.00225895 0)
(-0.0257881 -0.00431238 0)
(-0.0262696 -0.00628013 0)
(-0.0257465 -0.00746519 0)
(-0.0242048 -0.00762971 0)
(-0.021648 -0.00667852 0)
(-0.0182119 -0.00460512 0)
(-0.0141917 -0.00146966 0)
(-0.0101959 0.00221284 0)
(-0.00687256 0.00540127 0)
(-0.00442926 0.00729392 0)
(-0.00266352 0.00820353 0)
(-0.00149726 0.00807398 0)
(-0.000762677 0.00699986 0)
(-0.000321937 0.00526841 0)
(-9.28841e-05 0.00320874 0)
(-6.05606e-06 0.00108638 0)
(-2.5467e-05 0.00379993 0)
(-0.000260203 0.0100056 0)
(-0.000729949 0.0146213 0)
(-0.00144763 0.0170643 0)
(-0.0023977 0.0171234 0)
(-0.00359707 0.0152145 0)
(-0.0051179 0.0123751 0)
(-0.00702796 0.00975523 0)
(-0.00929246 0.00791932 0)
(-0.0117983 0.00675452 0)
(-0.0144332 0.00591142 0)
(-0.0171035 0.00510069 0)
(-0.0197386 0.00413931 0)
(-0.0222759 0.0028986 0)
(-0.0246292 0.00125936 0)
(-0.0266117 -0.000896709 0)
(-0.0280549 -0.00353616 0)
(-0.0287872 -0.00626848 0)
(-0.0286774 -0.00849649 0)
(-0.0276807 -0.0100707 0)
(-0.0257611 -0.0109174 0)
(-0.0229559 -0.0109492 0)
(-0.019396 -0.0100417 0)
(-0.0153308 -0.00806939 0)
(-0.0111303 -0.00500608 0)
(-0.00724115 -0.00115454 0)
(-0.00416772 0.00228813 0)
(-0.00203505 0.0044493 0)
(-0.000804519 0.00492325 0)
(-0.000213402 0.00428818 0)
(-1.13869e-05 0.00292857 0)
(1.17575e-05 0.00111117 0)
(-1.68496e-05 0.00466476 0)
(-0.000198324 0.0122866 0)
(-0.000591309 0.0180502 0)
(-0.00124072 0.0213546 0)
(-0.00216145 0.0220318 0)
(-0.00336429 0.0205762 0)
(-0.00485553 0.0180437 0)
(-0.00661296 0.0155034 0)
(-0.00857984 0.0134815 0)
(-0.010701 0.0119359 0)
(-0.0129396 0.0106007 0)
(-0.0152624 0.009239 0)
(-0.0176303 0.00769451 0)
(-0.0199971 0.00585406 0)
(-0.0222994 0.00361446 0)
(-0.0244135 0.000878011 0)
(-0.0260573 -0.00243573 0)
(-0.0269137 -0.00585265 0)
(-0.0272012 -0.00896535 0)
(-0.026829 -0.0117491 0)
(-0.02573 -0.0141788 0)
(-0.0238739 -0.0161341 0)
(-0.021299 -0.0173885 0)
(-0.018126 -0.0176496 0)
(-0.0145506 -0.0166316 0)
(-0.0108338 -0.0141725 0)
(-0.00730566 -0.0104077 0)
(-0.0043203 -0.0059187 0)
(-0.00213387 -0.00172715 0)
(-0.000830008 0.000890714 0)
(-0.000208851 0.0016574 0)
(-5.6305e-06 0.000929443 0)
(-2.14343e-06 0.00518376 0)
(-6.96824e-05 0.0138082 0)
(-0.000261831 0.0205963 0)
(-0.000650439 0.0248825 0)
(-0.00129376 0.0263846 0)
(-0.00221783 0.0254801 0)
(-0.00340032 0.0231593 0)
(-0.0047747 0.0205174 0)
(-0.00626412 0.0181999 0)
(-0.00782231 0.0162916 0)
(-0.00943736 0.0145868 0)
(-0.0111101 0.0128546 0)
(-0.0128398 0.0109288 0)
(-0.0146227 0.00868422 0)
(-0.0164434 0.00599873 0)
(-0.0182391 0.00275193 0)
(-0.0199014 -0.00111868 0)
(-0.0208297 -0.00504489 0)
(-0.0215525 -0.00869415 0)
(-0.0219424 -0.0122876 0)
(-0.0218792 -0.0159221 0)
(-0.0212367 -0.0195236 0)
(-0.0199233 -0.0228232 0)
(-0.0179251 -0.0253744 0)
(-0.0153222 -0.0266325 0)
(-0.0122911 -0.0260678 0)
(-0.00908995 -0.0233493 0)
(-0.00602843 -0.0185882 0)
(-0.00342543 -0.0125968 0)
(-0.00154122 -0.00681505 0)
(-0.000460351 -0.00256497 0)
(-2.82488e-05 -0.000302248 0)
(1.16441e-05 0.00518959 0)
(6.27011e-05 0.0140819 0)
(9.30683e-05 0.0214382 0)
(2.12161e-05 0.0265562 0)
(-0.000251693 0.0289585 0)
(-0.000794819 0.0287296 0)
(-0.00160622 0.0266883 0)
(-0.00259517 0.0239456 0)
(-0.00364141 0.0213108 0)
(-0.0046705 0.019041 0)
(-0.00565979 0.0170171 0)
(-0.00661612 0.0150206 0)
(-0.00755432 0.0128734 0)
(-0.00849024 0.010445 0)
(-0.00943446 0.00761648 0)
(-0.01036 0.00425448 0)
(-0.0112573 0.000234261 0)
(-0.012324 -0.00383006 0)
(-0.0133144 -0.00748473 0)
(-0.0143612 -0.0112287 0)
(-0.0153029 -0.0153538 0)
(-0.0159555 -0.0199476 0)
(-0.0160968 -0.0248353 0)
(-0.0155536 -0.0295315 0)
(-0.0142497 -0.0333231 0)
(-0.0122334 -0.0353429 0)
(-0.00968061 -0.0347603 0)
(-0.00687603 -0.0310461 0)
(-0.00418908 -0.0243927 0)
(-0.00201695 -0.0160916 0)
(-0.000643214 -0.00817808 0)
(-4.50214e-05 -0.00212337 0)
(2.26634e-05 0.00482134 0)
(0.000176083 0.0134083 0)
(0.000407195 0.0208928 0)
(0.000634908 0.0265247 0)
(0.000741289 0.0297115 0)
(0.000621021 0.0303114 0)
(0.000232423 0.0288045 0)
(-0.000382502 0.0260569 0)
(-0.00106031 0.0231291 0)
(-0.00166518 0.0204861 0)
(-0.00213305 0.0181414 0)
(-0.0024605 0.0159122 0)
(-0.00267767 0.0136067 0)
(-0.00282803 0.0110731 0)
(-0.00296258 0.00817827 0)
(-0.00312403 0.00480137 0)
(-0.00318186 0.000905109 0)
(-0.00417323 -0.0028422 0)
(-0.00526138 -0.00613717 0)
(-0.00659138 -0.00950036 0)
(-0.00809188 -0.0133836 0)
(-0.00964359 -0.0181006 0)
(-0.0109836 -0.0237277 0)
(-0.0118097 -0.029873 0)
(-0.0118842 -0.0358064 0)
(-0.0110929 -0.0404351 0)
(-0.00948257 -0.0425272 0)
(-0.00725145 -0.040924 0)
(-0.00474729 -0.0350027 0)
(-0.00244456 -0.0253831 0)
(-0.000827448 -0.0142762 0)
(-6.51152e-05 -0.00422774 0)
(2.84124e-05 0.00423971 0)
(0.000254918 0.0121281 0)
(0.000645918 0.0193956 0)
(0.00112796 0.0252765 0)
(0.0015726 0.0290635 0)
(0.00185447 0.0304106 0)
(0.00189688 0.0295301 0)
(0.00170415 0.0271012 0)
(0.00139972 0.0240614 0)
(0.00116046 0.0210709 0)
(0.00111486 0.0183682 0)
(0.00130263 0.0158859 0)
(0.00168783 0.0134456 0)
(0.00219087 0.0108738 0)
(0.00270795 0.00801224 0)
(0.00309428 0.0047207 0)
(0.00336503 0.00123611 0)
(0.00258044 -0.00196863 0)
(0.0014264 -0.00486804 0)
(-1.28395e-05 -0.00782251 0)
(-0.00170459 -0.0111982 0)
(-0.00361093 -0.0154092 0)
(-0.0056523 -0.0209877 0)
(-0.00749399 -0.027757 0)
(-0.00877856 -0.0351697 0)
(-0.00920982 -0.0420303 0)
(-0.00867114 -0.0468516 0)
(-0.00721816 -0.0479445 0)
(-0.00511066 -0.0438389 0)
(-0.00282801 -0.034133 0)
(-0.00101674 -0.0205643 0)
(-8.67995e-05 -0.00653789 0)
(2.99834e-05 0.00359975 0)
(0.000296307 0.0106013 0)
(0.000793175 0.0174166 0)
(0.00146512 0.0233149 0)
(0.00218555 0.0275099 0)
(0.00282066 0.0294813 0)
(0.00327311 0.0292121 0)
(0.00351847 0.0271862 0)
(0.00364073 0.0242105 0)
(0.00380478 0.0210167 0)
(0.00416566 0.0180196 0)
(0.00479645 0.0153037 0)
(0.00567009 0.0127561 0)
(0.00668204 0.0102054 0)
(0.00767433 0.00747817 0)
(0.00842242 0.0044284 0)
(0.00869095 0.00138551 0)
(0.00794491 -0.0013423 0)
(0.00669241 -0.00386462 0)
(0.0051494 -0.00638783 0)
(0.00340378 -0.00919025 0)
(0.00151319 -0.0126553 0)
(-0.000757814 -0.0177501 0)
(-0.00313051 -0.0243836 0)
(-0.00530797 -0.0325085 0)
(-0.00682796 -0.0409639 0)
(-0.00738982 -0.0482077 0)
(-0.00685326 -0.0521782 0)
(-0.00532214 -0.0506359 0)
(-0.00320166 -0.0419837 0)
(-0.00123502 -0.0268529 0)
(-0.000113502 -0.00900448 0)
(2.79952e-05 0.00299961 0)
(0.000300471 0.00908792 0)
(0.000840603 0.0153273 0)
(0.00162082 0.0210614 0)
(0.00253336 0.025471 0)
(0.00345244 0.0279012 0)
(0.00427742 0.0281464 0)
(0.0049681 0.0265183 0)
(0.00557261 0.0237047 0)
(0.00621482 0.0204476 0)
(0.00702914 0.0172737 0)
(0.00809099 0.0144 0)
(0.0093804 0.0117998 0)
(0.0107846 0.00932832 0)
(0.0121123 0.00681224 0)
(0.0130851 0.00411348 0)
(0.0133336 0.00154858 0)
(0.0125762 -0.000704506 0)
(0.0112248 -0.00283002 0)
(0.00950399 -0.00502262 0)
(0.00756955 -0.0075241 0)
(0.00554946 -0.0106283 0)
(0.00339941 -0.0148002 0)
(0.00103741 -0.0205939 0)
(-0.00162687 -0.0287832 0)
(-0.00400784 -0.0380757 0)
(-0.00563921 -0.0471781 0)
(-0.00613562 -0.053878 0)
(-0.00536624 -0.0553302 0)
(-0.00357503 -0.0487246 0)
(-0.00151049 -0.0330643 0)
(-0.000150961 -0.0116481 0)
(2.25527e-05 0.00250257 0)
(0.000264133 0.00777354 0)
(0.000774063 0.0134131 0)
(0.00156331 0.0188548 0)
(0.00256609 0.0232886 0)
(0.00368749 0.0259736 0)
(0.00484279 0.0265665 0)
(0.00598714 0.0252499 0)
(0.00713235 0.0226225 0)
(0.00833964 0.0194118 0)
(0.00968319 0.0161983 0)
(0.0112049 0.0132838 0)
(0.0128792 0.0107136 0)
(0.0145971 0.00837881 0)
(0.016162 0.00611788 0)
(0.0172776 0.00379926 0)
(0.0175325 0.00168144 0)
(0.0168314 -0.000134023 0)
(0.0154538 -0.00185772 0)
(0.0136584 -0.00367692 0)
(0.0115951 -0.00583843 0)
(0.0093938 -0.00864191 0)
(0.00711695 -0.0124645 0)
(0.00475757 -0.0176627 0)
(0.00220007 -0.0246579 0)
(-0.000695717 -0.0340289 0)
(-0.0032849 -0.0442809 0)
(-0.0049226 -0.0532981 0)
(-0.00514026 -0.0578872 0)
(-0.00390801 -0.0541423 0)
(-0.0018668 -0.0390991 0)
(-0.000209332 -0.014527 0)
(1.20865e-05 0.00215634 0)
(0.000172223 0.00680358 0)
(0.000556448 0.0119004 0)
(0.00123554 0.0169589 0)
(0.00222012 0.0212199 0)
(0.00347088 0.0239206 0)
(0.00493211 0.024644 0)
(0.00655608 0.0235019 0)
(0.00830671 0.0210398 0)
(0.0101603 0.017957 0)
(0.0121041 0.0148365 0)
(0.0141239 0.0120108 0)
(0.0161785 0.00956579 0)
(0.0181711 0.0074236 0)
(0.0199235 0.00544072 0)
(0.0211583 0.00349134 0)
(0.0214766 0.00176683 0)
(0.0209354 0.00034193 0)
(0.0196332 -0.00101379 0)
(0.0179135 -0.0024845 0)
(0.0158878 -0.00430649 0)
(0.0136531 -0.00677164 0)
(0.0112692 -0.0102204 0)
(0.00875079 -0.0149878 0)
(0.00606341 -0.0213716 0)
(0.00310477 -0.0295897 0)
(-0.000154278 -0.039917 0)
(-0.00298258 -0.0506392 0)
(-0.00445473 -0.0582386 0)
(-0.00410267 -0.0579647 0)
(-0.00231519 -0.0447611 0)
(-0.000306511 -0.0177234 0)
(-8.65029e-06 0.00201454 0)
(-2.33146e-05 0.00631827 0)
(9.1903e-05 0.0109824 0)
(0.000526345 0.0155662 0)
(0.00141222 0.0194217 0)
(0.00276828 0.0218645 0)
(0.00455683 0.0224797 0)
(0.00671643 0.0213638 0)
(0.00914169 0.0190385 0)
(0.0117035 0.0161528 0)
(0.0142932 0.0132431 0)
(0.0168388 0.0106243 0)
(0.0192857 0.00839163 0)
(0.0215573 0.0064878 0)
(0.0235121 0.00478955 0)
(0.0249199 0.00317855 0)
(0.0254206 0.00178745 0)
(0.0250968 0.000681681 0)
(0.0240663 -0.000358742 0)
(0.0226119 -0.00152745 0)
(0.020813 -0.00303087 0)
(0.0187199 -0.0051397 0)
(0.0163503 -0.00816424 0)
(0.0136926 -0.0124141 0)
(0.0107227 -0.0181598 0)
(0.00741966 -0.0256078 0)
(0.00378368 -0.034898 0)
(-5.0377e-05 -0.0460432 0)
(-0.00303814 -0.0562722 0)
(-0.00398851 -0.0598508 0)
(-0.00283186 -0.0497231 0)
(-0.000470275 -0.0213213 0)
(-5.70989e-05 0.00220714 0)
(-0.000411404 0.00657372 0)
(-0.000743885 0.0108527 0)
(-0.000689438 0.0147226 0)
(6.03409e-05 0.0178828 0)
(0.00158952 0.0198118 0)
(0.0038004 0.0201052 0)
(0.00658473 0.0188992 0)
(0.00975266 0.016706 0)
(0.0130617 0.0140852 0)
(0.0163213 0.0114829 0)
(0.0194206 0.00916157 0)
(0.0223044 0.00720383 0)
(0.0249256 0.0055647 0)
(0.027189 0.00414168 0)
(0.0289251 0.00282811 0)
(0.0297997 0.00171475 0)
(0.0298667 0.000858423 0)
(0.0293155 7.06802e-05 0)
(0.028254 -0.000843046 0)
(0.0268135 -0.00205693 0)
(0.0249845 -0.00380338 0)
(0.0227275 -0.00635347 0)
(0.0199835 -0.00998667 0)
(0.0167053 -0.0149641 0)
(0.0128906 -0.0215201 0)
(0.00860347 -0.0298788 0)
(0.00399099 -0.0401891 0)
(-0.000533784 -0.0518545 0)
(-0.0032859 -0.0594023 0)
(-0.00331193 -0.0535221 0)
(-0.000729951 -0.0253459 0)
(-0.000174119 0.00293592 0)
(-0.00115121 0.00778542 0)
(-0.00209648 0.0116066 0)
(-0.00243631 0.0144492 0)
(-0.00176117 0.0164947 0)
(4.37542e-05 0.0176464 0)
(0.00288451 0.0174914 0)
(0.00641299 0.0161534 0)
(0.0103943 0.014127 0)
(0.0144887 0.0118365 0)
(0.0184608 0.00960933 0)
(0.0221885 0.00763977 0)
(0.0256288 0.00598837 0)
(0.0287641 0.00461927 0)
(0.0315387 0.00345179 0)
(0.0338319 0.00239659 0)
(0.0352899 0.00151697 0)
(0.0359045 0.000857247 0)
(0.0359001 0.000266357 0)
(0.035332 -0.000427319 0)
(0.0343106 -0.00137553 0)
(0.0327893 -0.00275948 0)
(0.0306825 -0.00480038 0)
(0.0278853 -0.0077382 0)
(0.024313 -0.0118205 0)
(0.0199436 -0.0173117 0)
(0.0148494 -0.0245264 0)
(0.00921196 -0.0338377 0)
(0.00339035 -0.0452704 0)
(-0.00153381 -0.0561919 0)
(-0.00349879 -0.055581 0)
(-0.00108243 -0.0296921 0)
(-0.000435188 0.0045717 0)
(-0.0024274 0.0101322 0)
(-0.00399528 0.0130456 0)
(-0.00451442 0.0144241 0)
(-0.00362548 0.0150936 0)
(-0.0013431 0.0152555 0)
(0.00242082 0.0145737 0)
(0.00683966 0.013158 0)
(0.0117299 0.0113647 0)
(0.0166967 0.00945559 0)
(0.0214983 0.00763881 0)
(0.0260158 0.00604213 0)
(0.0302119 0.00470579 0)
(0.034077 0.00360371 0)
(0.0375675 0.00267732 0)
(0.040582 0.00185875 0)
(0.0427091 0.00119122 0)
(0.0438892 0.000702256 0)
(0.0443738 0.000275227 0)
(0.044264 -0.000228153 0)
(0.0436004 -0.000927803 0)
(0.04233 -0.00195561 0)
(0.0403435 -0.00347863 0)
(0.0375043 -0.00568678 0)
(0.0336866 -0.00879661 0)
(0.028819 -0.0130797 0)
(0.0229251 -0.0189178 0)
(0.0161573 -0.0268653 0)
(0.00887842 -0.0374975 0)
(0.00193403 -0.0498685 0)
(-0.00289997 -0.0552327 0)
(-0.00143226 -0.0341345 0)
(-0.00090629 0.00763459 0)
(-0.00420287 0.0134681 0)
(-0.00592841 0.01457 0)
(-0.00594189 0.014075 0)
(-0.00421073 0.0133005 0)
(-0.000894258 0.0124485 0)
(0.00402663 0.0112887 0)
(0.00951235 0.00992763 0)
(0.0154379 0.00843963 0)
(0.0214094 0.00694408 0)
(0.0271861 0.00555197 0)
(0.0326355 0.00433784 0)
(0.0376973 0.00332673 0)
(0.0423397 0.00250161 0)
(0.0465086 0.00182243 0)
(0.0501062 0.00124185 0)
(0.0526933 0.000783946 0)
(0.054221 0.000456924 0)
(0.054986 0.000174823 0)
(0.0551336 -0.000158704 0)
(0.054661 -0.000625778 0)
(0.0535226 -0.00131668 0)
(0.0516022 -0.00234538 0)
(0.0487476 -0.00384542 0)
(0.0448006 -0.00598286 0)
(0.0396277 -0.00899779 0)
(0.0331522 -0.0132828 0)
(0.0254046 -0.0194985 0)
(0.0166415 -0.0286084 0)
(0.00758667 -0.0410167 0)
(-0.000671857 -0.0515743 0)
(-0.00148663 -0.0381267 0)
(-0.00165717 0.0128795 0)
(-0.00570991 0.0168817 0)
(-0.00586305 0.0149868 0)
(-0.00373294 0.0125677 0)
(0.000114541 0.0105751 0)
(0.0052784 0.00900024 0)
(0.0113875 0.007679 0)
(0.0180167 0.00650615 0)
(0.0249379 0.00538428 0)
(0.0318047 0.00432955 0)
(0.0383659 0.0033815 0)
(0.0444582 0.00257316 0)
(0.0499901 0.00191493 0)
(0.0549147 0.00139318 0)
(0.0591883 0.000979588 0)
(0.0627475 0.000642614 0)
(0.0652326 0.000388566 0)
(0.0666736 0.000211356 0)
(0.0673891 5.68131e-05 0)
(0.0675201 -0.000127956 0)
(0.0670619 -0.000390357 0)
(0.0659674 -0.000784899 0)
(0.0641192 -0.00137771 0)
(0.061363 -0.00224752 0)
(0.0575277 -0.00349974 0)
(0.0524328 -0.00530778 0)
(0.0458866 -0.00799973 0)
(0.0377032 -0.0122148 0)
(0.0278169 -0.019099 0)
(0.0165234 -0.0300657 0)
(0.00440618 -0.0434656 0)
(-0.000169061 -0.0396064 0)
(-0.00124572 0.0182545 0)
(-0.00312782 0.0180324 0)
(0.00303993 0.0124389 0)
(0.00998938 0.00912957 0)
(0.0169218 0.00687604 0)
(0.0239015 0.00524285 0)
(0.0309993 0.00406832 0)
(0.0381123 0.00319861 0)
(0.045103 0.00249279 0)
(0.0517433 0.0019007 0)
(0.0578343 0.00140947 0)
(0.0632465 0.00101698 0)
(0.0679261 0.000716795 0)
(0.0718778 0.000493841 0)
(0.0751246 0.000328089 0)
(0.0776782 0.000201345 0)
(0.0793579 0.000110595 0)
(0.0802635 4.75977e-05 0)
(0.0806494 -1.01908e-05 0)
(0.0805921 -8.28112e-05 0)
(0.0800982 -0.000190494 0)
(0.079106 -0.000357821 0)
(0.0775026 -0.000613112 0)
(0.0751495 -0.00099038 0)
(0.0718913 -0.00153858 0)
(0.0675424 -0.00234983 0)
(0.0618425 -0.00362713 0)
(0.0543868 -0.00582961 0)
(0.0445627 -0.00992982 0)
(0.0316046 -0.0176246 0)
(0.0154974 -0.0297763 0)
(0.00631476 -0.033454 0)
(0.0207989 0.0113626 0)
(0.0271527 0.0092628 0)
(0.0401241 0.00538627 0)
(0.0506297 0.00325523 0)
(0.0585132 0.00202949 0)
(0.0648326 0.00126091 0)
(0.0701551 0.000788276 0)
(0.0747529 0.000503756 0)
(0.0787667 0.00032467 0)
(0.082228 0.000207373 0)
(0.0851396 0.000129355 0)
(0.087522 7.84076e-05 0)
(0.0894259 4.64346e-05 0)
(0.0909191 2.68514e-05 0)
(0.0920618 1.43421e-05 0)
(0.0928926 5.70042e-06 0)
(0.093383 9.3564e-09 0)
(0.0935968 -4.45322e-06 0)
(0.0936198 -9.74287e-06 0)
(0.0934698 -1.80717e-05 0)
(0.0931316 -3.22659e-05 0)
(0.0925532 -5.60657e-05 0)
(0.0916618 -9.35275e-05 0)
(0.0903749 -0.000149541 0)
(0.0886011 -0.000231737 0)
(0.0862187 -0.00035698 0)
(0.0830137 -0.00056885 0)
(0.0785411 -0.000980034 0)
(0.0718362 -0.00187063 0)
(0.0608836 -0.00398666 0)
(0.0432899 -0.00919537 0)
(0.0285968 -0.0145334 0)
)
;

boundaryField
{
    movingWall
    {
        type            fixedValue;
        value           uniform (0.1 0 0);
    }
    fixedWalls
    {
        type            noSlip;
    }
    floor
    {
        type            noSlip;
    }
    frontAndBack
    {
        type            empty;
    }
}


// ************************************************************************* //
