/*--------------------------------*- C++ -*----------------------------------*\
| =========                 |                                                 |
| \\      /  F ield         | OpenFOAM: The Open Source CFD Toolbox           |
|  \\    /   O peration     | Version:  2206                                  |
|   \\  /    A nd           | Website:  www.openfoam.com                      |
|    \\/     M anipulation  |                                                 |
\*---------------------------------------------------------------------------*/
FoamFile
{
    version     2.0;
    format      ascii;
    arch        "LSB;label=64;scalar=64";
    class       surfaceScalarField;
    location    "122400";
    object      phi;
}
// * * * * * * * * * * * * * * * * * * * * * * * * * * * * * * * * * * * * * //

dimensions      [0 3 -1 0 0 0 0];

oriented        oriented;

internalField   nonuniform List<scalar> 
24
(
2.02809e-10
-2.02809e-10
2.7577e-10
-7.29604e-11
2.38559e-10
3.72104e-11
2.38559e-10
-1.74597e-11
-1.8535e-10
-9.65425e-11
6.12247e-12
5.95226e-11
-1.18855e-10
2.98082e-10
-1.17323e-10
-6.80261e-11
-1.91499e-10
8.02984e-11
-1.4838e-10
-1.61974e-10
1.49702e-10
-6.80262e-11
1.22722e-11
-1.49702e-10
)
;

boundaryField
{
    movingWall
    {
        type            calculated;
        value           nonuniform List<scalar> 4(0 0 -1.00974e-28 0);
    }
    fixedWalls
    {
        type            calculated;
        value           uniform 0;
    }
    frontAndBack
    {
        type            empty;
        value           nonuniform List<scalar> 0();
    }
}


// ************************************************************************* //
