/*--------------------------------*- C++ -*----------------------------------*\
| =========                 |                                                 |
| \\      /  F ield         | OpenFOAM: The Open Source CFD Toolbox           |
|  \\    /   O peration     | Version:  2206                                  |
|   \\  /    A nd           | Website:  www.openfoam.com                      |
|    \\/     M anipulation  |                                                 |
\*---------------------------------------------------------------------------*/
FoamFile
{
    version     2.0;
    format      ascii;
    arch        "LSB;label=64;scalar=64";
    class       volVectorField;
    location    "338400";
    object      U;
}
// * * * * * * * * * * * * * * * * * * * * * * * * * * * * * * * * * * * * * //

dimensions      [0 1 -1 0 0 0 0];

internalField   nonuniform List<vector> 
16
(
(1.44413e-07 -1.22938e-07 0)
(2.62172e-07 -2.02204e-08 0)
(2.17519e-07 2.74098e-08 0)
(1.07491e-07 1.13377e-07 0)
(1.89725e-08 -2.86197e-07 0)
(8.81677e-08 -4.31903e-08 0)
(4.24426e-08 1.20505e-07 0)
(-1.98475e-08 2.11783e-07 0)
(-7.935e-08 -2.30193e-07 0)
(-1.40049e-07 -4.36108e-08 0)
(-1.07106e-07 1.32876e-07 0)
(-5.50681e-08 1.40729e-07 0)
(-8.46085e-08 -6.85579e-08 0)
(-2.1028e-07 -1.86389e-08 0)
(-1.52034e-07 4.08224e-08 0)
(-3.47526e-08 4.5574e-08 0)
)
;

boundaryField
{
    movingWall
    {
        type            noSlip;
    }
    fixedWalls
    {
        type            noSlip;
    }
    frontAndBack
    {
        type            empty;
    }
}


// ************************************************************************* //
