/*--------------------------------*- C++ -*----------------------------------*\
| =========                 |                                                 |
| \\      /  F ield         | OpenFOAM: The Open Source CFD Toolbox           |
|  \\    /   O peration     | Version:  2212                                  |
|   \\  /    A nd           | Website:  www.openfoam.com                      |
|    \\/     M anipulation  |                                                 |
\*---------------------------------------------------------------------------*/
FoamFile
{
    version     2.0;
    format      ascii;
    arch        "LSB;label=64;scalar=64";
    class       volScalarField;
    location    "0.53";
    object      alpha.air;
}
// * * * * * * * * * * * * * * * * * * * * * * * * * * * * * * * * * * * * * //

dimensions      [0 0 0 0 0 0 0];

internalField   nonuniform List<scalar> 
32768
(
1.18711e-118
1.76869e-115
6.56102e-113
1.19025e-110
1.37757e-108
1.16491e-106
7.75877e-105
4.24772e-103
1.95919e-101
7.72453e-100
2.62673e-98
7.74712e-97
1.98857e-95
4.45037e-94
8.68687e-93
1.47744e-91
2.18424e-90
2.79609e-89
3.08208e-88
2.90323e-87
2.31363e-86
1.53944e-85
8.40498e-85
3.6782e-84
1.24904e-83
3.14723e-83
5.53647e-83
6.18144e-83
3.68856e-83
8.45408e-84
6.66334e-85
3.94674e-86
4.44122e-86
3.59777e-85
2.83452e-84
1.55948e-84
3.68062e-85
6.67581e-86
1.08467e-86
1.65423e-87
2.4275e-88
3.50139e-89
5.09275e-90
7.66911e-91
1.24357e-91
2.30668e-92
5.60449e-93
2.37204e-93
2.32847e-93
4.95269e-93
1.83123e-92
1.02604e-91
7.68782e-91
6.57457e-90
5.65993e-89
4.44277e-88
3.66239e-87
1.56577e-85
1.8245e-83
1.64003e-81
8.27999e-80
7.25047e-79
3.05095e-78
5.40768e-78
7.57766e-78
5.27545e-78
1.84225e-78
5.06347e-79
1.6114e-80
2.61568e-82
3.50149e-84
2.79617e-85
1.31145e-85
4.95093e-86
1.69709e-86
5.65912e-87
1.95443e-87
7.34872e-88
3.15491e-88
1.59696e-88
9.90374e-89
7.90352e-89
9.05698e-89
1.66059e-88
4.81859e-88
1.94503e-87
9.74803e-87
5.70901e-86
3.79571e-85
2.84067e-84
2.34392e-83
1.93195e-82
1.29978e-81
5.23951e-81
5.6938e-81
2.01817e-82
1.01512e-83
5.51633e-83
3.13881e-82
6.93841e-82
7.84589e-82
5.38869e-82
2.49684e-82
8.40309e-83
2.1611e-83
4.40347e-84
7.29991e-85
1.00428e-85
1.16413e-86
1.15042e-87
9.77953e-89
7.20007e-90
4.61378e-91
2.58181e-92
1.26407e-93
5.41816e-95
2.03177e-96
6.65212e-98
1.89476e-99
4.66867e-101
9.86273e-103
1.76053e-104
2.59061e-106
3.01027e-108
2.56078e-110
1.39096e-112
3.69038e-115
2.42131e-118
2.09937e-114
2.27368e-111
7.02715e-109
1.12334e-106
1.18909e-104
9.48533e-103
6.13064e-101
3.34419e-99
1.57464e-97
6.47794e-96
2.34332e-94
7.47764e-93
2.10777e-91
5.24861e-90
1.15344e-88
2.23242e-87
3.79305e-86
5.63173e-85
7.26229e-84
8.06894e-83
7.64589e-82
6.09841e-81
4.02668e-80
2.15396e-79
9.0627e-79
2.87644e-78
6.50484e-78
9.6908e-78
8.4993e-78
3.79114e-78
7.25644e-79
6.43187e-80
6.52818e-81
1.44064e-80
3.08191e-80
8.46e-81
1.46465e-81
2.23651e-82
3.2853e-83
4.72744e-84
6.75084e-85
9.71852e-86
1.44093e-86
2.25381e-87
3.87428e-88
7.83674e-89
2.17667e-89
1.09928e-89
1.23062e-89
2.75136e-89
1.0278e-88
5.71422e-88
4.19943e-87
3.49334e-86
2.9138e-85
2.20662e-84
1.68701e-83
6.5117e-82
7.69297e-80
7.00516e-78
3.53914e-76
3.01817e-75
1.22663e-74
2.13649e-74
2.9939e-74
2.10021e-74
7.60448e-75
2.15031e-75
6.83744e-77
1.11646e-78
1.51305e-80
1.26738e-81
6.13643e-82
2.37383e-82
8.3331e-83
2.84338e-83
1.00286e-83
3.84169e-84
1.67597e-84
8.59735e-85
5.37984e-85
4.2823e-85
4.75478e-85
8.11891e-85
2.1582e-84
8.05283e-84
3.79105e-83
2.12556e-82
1.38373e-81
1.04594e-80
9.15685e-80
8.63923e-79
7.41209e-78
4.61336e-77
1.53999e-76
7.36788e-77
1.0391e-77
4.17921e-77
1.12299e-76
1.53951e-76
1.21902e-76
6.241e-77
2.24057e-77
5.98091e-78
1.23958e-78
2.06081e-79
2.8175e-80
3.22926e-81
3.14949e-82
2.64435e-83
1.92867e-84
1.23047e-85
6.90325e-87
3.41897e-88
1.49892e-89
5.8267e-91
2.00966e-92
6.14792e-94
1.66552e-95
3.98205e-97
8.34718e-99
1.51524e-100
2.32803e-102
2.90453e-104
2.73422e-106
1.70394e-108
5.47987e-111
5.00182e-114
6.74607e-112
7.12417e-109
2.15675e-106
3.39754e-104
3.57702e-102
2.87506e-100
1.90312e-98
1.08307e-96
5.42335e-95
2.41656e-93
9.62617e-92
3.43179e-90
1.09427e-88
3.11585e-87
7.90429e-86
1.78074e-84
3.54781e-83
6.21775e-82
9.52328e-81
1.26434e-79
1.43993e-78
1.38826e-77
1.114e-76
7.27953e-76
3.76346e-75
1.48079e-74
4.20655e-74
8.02206e-74
9.27375e-74
5.65909e-74
1.58914e-74
2.53335e-75
7.58456e-76
3.33891e-76
1.17616e-76
1.89796e-77
2.54701e-78
3.37143e-79
4.55435e-80
6.24658e-81
8.73611e-82
1.25904e-82
1.9026e-83
3.08458e-84
5.60835e-85
1.23565e-85
3.90992e-86
2.30574e-86
2.85607e-86
6.62106e-86
2.48683e-85
1.36859e-84
9.85747e-84
7.97932e-83
6.45638e-82
4.7211e-81
3.28355e-80
1.06763e-78
1.3205e-76
1.25936e-74
6.52692e-73
5.42486e-72
2.13138e-71
3.64902e-71
5.11423e-71
3.61001e-71
1.35477e-71
3.94502e-72
1.25526e-73
2.05852e-75
2.81196e-77
2.47178e-78
1.23482e-78
4.88811e-79
1.75463e-79
6.11669e-80
2.19978e-80
8.57089e-81
3.79301e-81
1.96847e-81
1.24134e-81
9.86741e-82
1.06958e-81
1.72421e-81
4.2483e-81
1.47504e-80
6.53529e-80
3.49659e-79
2.20712e-78
1.65269e-77
1.48558e-76
1.52743e-75
1.54656e-74
1.26669e-73
6.9561e-73
2.05259e-72
1.81589e-72
7.6235e-73
1.30073e-72
1.30497e-72
7.89496e-73
3.15875e-73
8.98316e-74
1.91936e-74
3.21367e-75
4.35038e-76
4.87769e-77
4.6176e-78
3.74584e-79
2.63456e-80
1.62124e-81
8.79126e-83
4.22429e-84
1.80666e-85
6.90092e-87
2.36062e-88
7.24703e-90
1.99945e-91
4.95933e-93
1.10429e-94
2.19702e-96
3.86167e-98
5.85881e-100
7.3457e-102
7.04753e-104
4.52142e-106
1.50641e-108
1.43001e-111
2.7298e-109
2.89256e-106
8.71714e-104
1.36294e-101
1.42353e-99
1.13693e-97
7.50869e-96
4.29258e-94
2.17893e-92
9.94335e-91
4.0977e-89
1.52532e-87
5.11892e-86
1.54452e-84
4.17717e-83
1.00882e-81
2.16595e-80
4.11289e-79
6.86144e-78
9.97569e-77
1.25151e-75
1.33826e-74
1.20128e-73
8.87426e-73
5.25357e-72
2.40494e-71
8.12962e-71
1.90967e-70
2.87131e-70
2.5202e-70
1.2124e-70
3.18496e-71
6.00745e-72
1.55315e-72
2.3358e-73
2.7109e-74
3.0594e-75
3.67604e-76
4.7005e-77
6.26636e-78
8.70373e-79
1.26749e-79
1.9636e-80
3.31406e-81
6.40098e-82
1.54405e-82
5.57197e-83
3.77751e-83
5.08516e-83
1.21611e-82
4.59532e-82
2.50699e-81
1.77037e-80
1.39336e-79
1.09207e-78
7.70959e-78
5.03165e-77
1.44746e-75
1.80925e-73
1.75332e-71
9.1472e-70
7.38204e-69
2.80106e-68
4.71292e-68
6.60614e-68
4.68625e-68
1.82106e-68
5.46747e-69
1.7708e-70
3.02339e-72
4.25033e-74
3.6667e-75
1.86457e-75
7.54479e-76
2.76485e-76
9.82687e-77
3.59441e-77
1.41999e-77
6.35105e-78
3.32081e-78
2.10146e-78
1.66318e-78
1.76143e-78
2.69415e-78
6.17449e-78
1.99309e-77
8.26589e-77
4.1751e-76
2.51147e-75
1.81373e-74
1.60768e-73
1.70273e-72
1.88307e-71
1.79167e-70
1.23007e-69
5.24851e-69
1.18262e-68
1.24662e-68
5.59348e-69
2.79349e-69
1.3632e-69
4.61093e-70
1.13533e-70
2.13067e-71
3.1649e-72
3.83231e-73
3.87295e-74
3.32666e-75
2.46377e-76
1.59101e-77
9.03476e-79
4.54292e-80
2.03456e-81
8.15447e-83
2.93683e-84
9.53881e-86
2.80215e-87
7.45895e-89
1.80112e-90
3.94273e-92
7.78604e-94
1.36957e-95
2.09125e-97
2.64641e-99
2.5639e-101
1.65873e-103
5.55283e-106
5.25086e-109
1.41998e-106
1.47374e-103
4.3655e-101
6.72251e-99
6.92225e-97
5.45248e-95
3.55232e-93
2.00506e-91
1.00703e-89
4.56277e-88
1.87489e-86
6.98989e-85
2.3596e-83
7.193e-82
1.9739e-80
4.85785e-79
1.06776e-77
2.08512e-76
3.59567e-75
5.43302e-74
7.128e-73
8.02288e-72
7.63507e-71
6.03569e-70
3.87089e-69
1.95104e-68
7.4114e-68
2.01337e-67
3.62805e-67
3.90347e-67
2.24208e-67
6.94928e-68
1.67184e-68
2.58741e-69
2.87549e-70
2.82302e-71
2.91339e-72
3.34546e-73
4.18834e-74
5.55906e-75
7.80437e-76
1.16277e-76
1.86397e-77
3.302e-78
6.83014e-79
1.8186e-79
7.49614e-80
5.76361e-80
8.3296e-80
2.05029e-79
7.80651e-79
4.22969e-78
2.93071e-77
2.24225e-76
1.70095e-75
1.15884e-74
7.23585e-74
1.95029e-72
2.39054e-70
2.28582e-68
1.1778e-66
9.19373e-66
3.36501e-65
5.5624e-65
7.79551e-65
5.54808e-65
2.23023e-65
6.90761e-66
2.27699e-67
4.04699e-69
5.91316e-71
4.94033e-72
2.54018e-72
1.04805e-72
3.90955e-73
1.41203e-73
5.2333e-74
2.08711e-74
9.38683e-75
4.9174e-75
3.10399e-75
2.43286e-75
2.51048e-75
3.64497e-75
7.76606e-75
2.32058e-74
8.93528e-74
4.20572e-73
2.36595e-72
1.60428e-71
1.34906e-70
1.39634e-69
1.57978e-68
1.6025e-67
1.20308e-66
5.73146e-66
1.4828e-65
1.95819e-65
1.40869e-65
6.08405e-66
1.70918e-66
3.82694e-67
7.847e-68
1.33395e-68
1.83075e-69
2.07647e-70
1.98545e-71
1.62843e-72
1.1608e-73
7.25904e-75
4.01189e-76
1.97269e-77
8.67393e-79
3.42774e-80
1.222e-81
3.94422e-83
1.15608e-84
3.08344e-86
7.4924e-88
1.65721e-89
3.31854e-91
5.93421e-93
9.22452e-95
1.18928e-96
1.17468e-98
7.75656e-101
2.65524e-103
2.57599e-106
6.31948e-104
6.40496e-101
1.85852e-98
2.8078e-96
2.83788e-94
2.19365e-92
1.40185e-90
7.75898e-89
3.82271e-87
1.70136e-85
6.88255e-84
2.53307e-82
8.46705e-81
2.5637e-79
7.01048e-78
1.7252e-76
3.80561e-75
7.48718e-74
1.30639e-72
2.00825e-71
2.69664e-70
3.12816e-69
3.09288e-68
2.56247e-67
1.73916e-66
9.38867e-66
3.87097e-65
1.15744e-64
2.34011e-64
2.95872e-64
2.08874e-64
8.66681e-65
1.91101e-65
2.50554e-66
2.49174e-67
2.29596e-68
2.31577e-69
2.65844e-70
3.36186e-71
4.5486e-72
6.56873e-73
1.01453e-73
1.70138e-74
3.19617e-75
7.15075e-76
2.12041e-76
9.98294e-77
8.59655e-77
1.32214e-76
3.34597e-76
1.28552e-75
6.92814e-75
4.71462e-74
3.50837e-73
2.57665e-72
1.69444e-71
1.01995e-70
2.64791e-69
3.14347e-67
2.92636e-65
1.47578e-63
1.11074e-62
3.91733e-62
6.35966e-62
8.9074e-62
6.3475e-62
2.63624e-62
8.42566e-63
2.82641e-64
5.22481e-66
7.92505e-68
6.37733e-69
3.29941e-69
1.38318e-69
5.23173e-70
1.91195e-70
7.14697e-71
2.86277e-71
1.28742e-71
6.71539e-72
4.20055e-72
3.2401e-72
3.2434e-72
4.46166e-72
8.81518e-72
2.4245e-71
8.59203e-71
3.72162e-70
1.92423e-69
1.19632e-68
9.23807e-68
8.95902e-67
9.89418e-66
1.01577e-64
7.7918e-64
3.75821e-63
9.64978e-63
1.26788e-62
9.27876e-63
4.20769e-63
1.29058e-63
2.86094e-64
4.81895e-65
6.46787e-66
7.66162e-67
7.97481e-68
7.2004e-69
5.70623e-70
3.97959e-71
2.45175e-72
1.342e-73
6.5649e-75
2.88382e-76
1.14252e-77
4.09622e-79
1.33326e-80
3.95064e-82
1.06758e-83
2.63382e-85
5.92555e-87
1.20826e-88
2.20115e-90
3.48688e-92
4.58339e-94
4.6197e-96
3.11759e-98
1.09345e-100
1.09138e-103
2.15654e-101
2.12934e-98
6.03306e-96
8.9121e-94
8.81401e-92
6.66876e-90
4.17158e-88
2.26003e-86
1.09011e-84
4.75343e-83
1.88665e-81
6.82626e-80
2.24847e-78
6.72621e-77
1.82243e-75
4.45805e-74
9.80809e-73
1.93186e-71
3.38815e-70
5.25788e-69
7.15884e-68
8.46591e-67
8.58785e-66
7.35373e-65
5.20592e-64
2.96685e-63
1.31628e-62
4.33521e-62
9.91735e-62
1.47408e-61
1.32401e-61
6.0304e-62
1.32958e-62
1.69372e-63
1.64934e-64
1.52311e-65
1.57512e-66
1.8725e-67
2.45453e-68
3.45512e-69
5.21321e-70
8.45287e-71
1.49989e-71
3.02065e-72
7.38467e-73
2.45834e-73
1.31881e-73
1.25748e-73
2.04533e-73
5.31985e-73
2.06501e-72
1.10841e-71
7.41483e-71
5.37107e-70
3.82187e-69
2.42725e-68
1.41223e-67
3.56458e-66
4.08377e-64
3.68518e-62
1.81313e-60
1.31213e-59
4.45433e-59
7.10045e-59
9.93436e-59
7.07321e-59
3.03121e-59
9.99925e-60
3.4142e-61
6.5593e-63
1.03165e-64
7.95068e-66
4.11671e-66
1.74717e-66
6.67383e-67
2.45708e-67
9.22039e-68
3.69056e-68
1.65026e-68
8.51934e-69
5.24696e-69
3.95867e-69
3.82673e-69
4.97754e-69
9.10337e-69
2.29524e-68
7.44052e-68
2.94039e-67
1.38073e-66
7.74368e-66
5.36633e-65
4.7179e-64
4.89601e-63
4.90233e-62
3.68981e-61
1.71518e-60
4.12415e-60
5.06178e-60
3.51169e-60
1.53686e-60
4.62843e-61
1.02418e-61
1.74907e-62
2.39294e-63
2.69799e-64
2.56284e-65
2.11256e-66
1.57477e-67
1.04997e-68
6.29986e-70
3.39185e-71
1.64271e-72
7.19614e-74
2.86224e-75
1.03521e-76
3.41088e-78
1.02588e-79
2.82023e-81
7.09109e-83
1.62789e-84
3.3891e-86
6.30443e-88
1.01978e-89
1.36913e-91
1.41052e-93
9.7428e-96
3.5052e-98
3.60041e-101
5.77868e-99
5.53734e-96
1.52559e-93
2.19474e-91
2.11606e-89
1.56189e-87
9.5357e-86
5.04364e-84
2.37591e-82
1.01251e-80
3.93236e-79
1.39475e-77
4.51369e-76
1.32979e-74
3.55755e-73
8.61681e-72
1.88313e-70
3.69795e-69
6.49166e-68
1.01282e-66
1.3941e-65
1.67778e-64
1.7452e-63
1.54641e-62
1.14486e-61
6.90343e-61
3.28047e-60
1.17741e-59
3.08566e-59
5.36773e-59
5.43959e-59
2.76637e-59
6.59287e-60
8.69251e-61
8.73771e-62
8.45895e-63
9.29392e-64
1.17572e-64
1.63096e-65
2.42929e-66
3.88162e-67
6.68589e-68
1.26928e-68
2.76939e-69
7.47049e-70
2.80919e-70
1.70919e-70
1.78641e-70
3.05952e-70
8.17897e-70
3.21111e-69
1.71833e-68
1.13081e-67
7.97919e-67
5.50488e-66
3.37793e-65
1.90149e-64
4.68018e-63
5.16964e-61
4.51563e-59
2.16473e-57
1.50215e-56
4.90293e-56
7.67286e-56
1.07192e-55
7.6088e-56
3.36047e-56
1.14443e-56
3.9807e-58
7.94484e-60
1.29456e-61
9.50204e-63
4.89623e-63
2.09655e-63
8.05733e-64
2.97636e-64
1.11644e-64
4.44463e-65
1.96613e-65
9.99046e-66
6.02348e-66
4.42045e-66
4.10922e-66
5.0448e-66
8.5315e-66
1.9668e-65
5.80952e-65
2.08381e-64
8.82449e-64
4.42224e-63
2.71353e-62
2.11661e-61
2.00383e-60
1.8984e-59
1.3596e-58
5.88213e-58
1.28161e-57
1.43071e-57
9.18361e-58
3.7867e-58
1.09217e-58
2.34718e-59
3.94194e-60
5.36348e-61
6.07728e-62
5.85328e-63
4.86685e-64
3.53367e-65
2.2604e-66
1.30185e-67
6.85812e-69
3.27765e-70
1.42877e-71
5.68311e-73
2.06316e-74
6.84549e-76
2.07964e-77
5.79597e-79
1.48266e-80
3.47224e-82
7.38688e-84
1.40553e-85
2.32704e-87
3.19993e-89
3.3796e-91
2.39638e-93
8.86891e-96
9.39776e-99
1.26232e-96
1.16813e-93
3.11493e-91
4.3451e-89
4.06747e-87
2.91763e-85
1.73214e-83
8.91239e-82
4.08585e-80
1.69606e-78
6.42721e-77
2.22952e-75
7.07554e-74
2.05015e-72
5.41115e-71
1.29747e-69
2.81687e-68
5.51733e-67
9.70541e-66
1.52432e-64
2.12345e-63
2.6009e-62
2.76935e-61
2.52914e-60
1.94688e-59
1.23554e-58
6.34631e-58
2.5192e-57
7.26406e-57
1.39606e-56
1.59283e-56
9.29982e-57
2.497e-57
3.53888e-58
3.8068e-59
3.99605e-60
4.7969e-61
6.59434e-62
9.84302e-63
1.5731e-63
2.69362e-64
4.98369e-65
1.0229e-65
2.44173e-66
7.33197e-67
3.1263e-67
2.14344e-67
2.43468e-67
4.3772e-67
1.20293e-66
4.78068e-66
2.55206e-65
1.6528e-64
1.13654e-63
7.60582e-63
4.51017e-62
2.45722e-61
5.90548e-60
6.28577e-58
5.30948e-56
2.47741e-54
1.64386e-53
5.15199e-53
7.91533e-53
1.1037e-52
7.79373e-53
3.54355e-53
1.24618e-53
4.42283e-55
9.17132e-57
1.54749e-58
1.07616e-59
5.4866e-60
2.36318e-60
9.10769e-61
3.36363e-61
1.2565e-61
4.95543e-62
2.15908e-62
1.07474e-62
6.31193e-63
4.48399e-63
3.99356e-63
4.62004e-63
7.22069e-63
1.51956e-62
4.07902e-62
1.32377e-61
5.03483e-61
2.24176e-60
1.20759e-59
8.24072e-59
6.95773e-58
6.06596e-57
4.02657e-56
1.58041e-55
3.05956e-55
3.065e-55
1.80117e-55
6.93211e-56
1.89741e-56
3.925e-57
6.42168e-58
8.60073e-59
9.67657e-60
9.32512e-61
7.80959e-62
5.74673e-63
3.74704e-64
2.17863e-65
1.13499e-66
5.32059e-68
2.29957e-69
9.12787e-71
3.32131e-72
1.11134e-73
3.42259e-75
9.69561e-77
2.52254e-78
6.01071e-80
1.30289e-81
2.5315e-83
4.29015e-85
6.05184e-87
6.56994e-89
4.79858e-91
1.83392e-93
2.01291e-96
2.31607e-94
2.06e-91
5.29254e-89
7.12702e-87
6.44999e-85
4.47799e-83
2.57564e-81
1.28526e-79
5.72205e-78
2.31101e-76
8.54148e-75
2.89762e-73
9.01959e-72
2.57143e-70
6.6982e-69
1.58985e-67
3.42806e-66
6.68991e-65
1.17632e-63
1.85462e-62
2.60581e-61
3.23704e-60
3.52082e-59
3.31869e-58
2.67783e-57
1.80288e-56
9.82625e-56
4.16352e-55
1.29615e-54
2.74644e-54
3.55057e-54
2.41176e-54
7.49607e-55
1.1721e-55
1.3871e-56
1.62313e-57
2.17704e-58
3.3042e-59
5.37945e-60
9.33357e-61
1.73134e-61
3.47655e-62
7.78864e-63
2.05234e-63
6.91266e-64
3.34629e-64
2.56609e-64
3.14506e-64
5.923e-64
1.67364e-63
6.73601e-63
3.58793e-62
2.28658e-61
1.53239e-60
9.94823e-60
5.69979e-59
3.00566e-58
7.0605e-57
7.23568e-55
5.90282e-53
2.67719e-51
1.69402e-50
5.08989e-50
7.67802e-50
1.06818e-49
7.48805e-50
3.50175e-50
1.27188e-50
4.61791e-52
9.95632e-54
1.7397e-55
1.14087e-56
5.72044e-57
2.47221e-57
9.52906e-58
3.50816e-58
1.30111e-58
5.06663e-59
2.16643e-59
1.05227e-59
5.99474e-60
4.10568e-60
3.49221e-60
3.80191e-60
5.49054e-60
1.0538e-59
2.56596e-59
7.51875e-59
2.56235e-58
1.01036e-57
4.74596e-57
2.79709e-56
2.06279e-55
1.61928e-54
9.77628e-54
3.41404e-53
5.79765e-53
5.1756e-53
2.77161e-53
9.91967e-54
2.56818e-54
5.09697e-55
8.0964e-56
1.06316e-56
1.1826e-57
1.13478e-58
9.52168e-60
7.05874e-61
4.65956e-62
2.75509e-63
1.46595e-64
7.04733e-66
3.06975e-67
1.21449e-68
4.42107e-70
1.49387e-71
4.65192e-73
1.33615e-74
3.53904e-76
8.60652e-78
1.90617e-79
3.78924e-81
6.58326e-83
9.54359e-85
1.06749e-86
8.05515e-89
3.19027e-91
3.64147e-94
3.636e-92
3.0958e-89
7.63421e-87
9.88907e-85
8.62403e-83
5.77846e-81
3.21296e-79
1.55293e-77
6.71194e-76
2.63797e-74
9.50869e-73
3.15266e-71
9.61326e-70
2.69139e-68
6.90305e-67
1.6181e-65
3.45633e-64
6.70644e-63
1.17728e-61
1.86181e-60
2.6421e-59
3.34532e-58
3.73535e-57
3.63242e-56
3.02667e-55
2.11644e-54
1.20774e-53
5.42173e-53
1.8204e-52
4.25552e-52
6.24528e-52
4.96618e-52
1.82156e-52
3.20763e-53
4.27593e-54
5.71141e-55
8.71341e-56
1.4774e-56
2.65372e-57
5.05073e-58
1.02506e-58
2.25484e-59
5.56152e-60
1.63095e-60
6.19963e-61
3.40284e-61
2.89576e-61
3.8072e-61
7.49895e-61
2.17865e-60
8.88026e-60
4.71826e-59
2.95722e-58
1.93067e-57
1.21547e-56
6.72441e-56
3.43138e-55
7.88604e-54
7.77087e-52
6.11173e-50
2.68931e-48
1.61861e-47
4.65321e-47
6.89388e-47
9.56529e-47
6.64354e-47
3.1936e-47
1.19787e-47
4.46611e-49
1.00261e-50
1.8154e-52
1.11818e-53
5.47945e-54
2.37143e-54
9.12299e-55
3.34046e-55
1.22716e-55
4.7065e-56
1.9694e-56
9.30434e-57
5.1245e-57
3.37231e-57
2.73225e-57
2.79625e-57
3.73194e-57
6.53019e-57
1.44042e-56
3.80437e-56
1.15938e-55
4.03784e-55
1.64541e-54
8.29391e-54
5.25678e-53
3.64647e-52
1.97163e-51
6.0292e-51
8.90689e-51
7.0614e-51
3.44056e-51
1.14408e-51
2.79995e-52
5.3272e-53
8.2066e-54
1.05532e-54
1.15894e-55
1.10546e-56
9.27543e-58
6.91156e-59
4.60675e-60
2.76183e-61
1.49581e-62
7.34602e-64
3.28068e-65
1.33546e-66
4.96165e-68
1.68197e-69
5.29741e-71
1.54785e-72
4.17402e-74
1.03598e-75
2.34793e-77
4.78667e-79
8.54791e-81
1.27694e-82
1.4759e-84
1.15419e-86
4.75321e-89
5.66287e-92
4.95654e-90
4.02478e-87
9.49408e-85
1.1794e-82
9.88528e-81
6.37973e-79
3.4248e-77
1.60221e-75
6.71831e-74
2.56633e-72
9.00351e-71
2.91088e-69
8.67701e-68
2.38191e-66
6.0097e-65
1.3904e-63
2.94341e-62
5.69277e-61
1.00162e-59
1.59441e-58
2.2835e-57
2.91961e-56
3.30476e-55
3.27154e-54
2.79212e-53
2.01623e-52
1.20142e-51
5.71081e-51
2.06603e-50
5.32179e-50
8.85814e-50
8.26659e-50
3.62743e-50
7.32654e-51
1.12463e-51
1.74983e-52
3.07849e-53
5.88428e-54
1.17782e-54
2.48263e-55
5.56226e-56
1.35139e-56
3.69828e-57
1.21601e-57
5.23882e-58
3.24902e-58
3.04468e-58
4.27359e-58
8.79263e-58
2.62552e-57
1.08322e-56
5.73584e-56
3.53136e-55
2.2439e-54
1.36874e-53
7.30356e-53
3.60444e-52
8.11106e-51
7.67082e-49
5.80238e-47
2.47069e-45
1.41136e-44
3.87223e-44
5.63683e-44
7.79654e-44
5.35605e-44
2.64614e-44
1.02429e-44
3.94197e-46
9.23546e-48
1.73522e-49
1.0008e-50
4.76094e-51
2.06068e-51
7.90161e-52
2.87312e-52
1.0438e-52
3.93597e-53
1.60851e-53
7.3744e-54
3.91646e-54
2.47e-54
1.90213e-54
1.82857e-54
2.25615e-54
3.59901e-54
7.1842e-54
1.70815e-53
4.64989e-53
1.42888e-52
5.03726e-52
2.1551e-51
1.15741e-50
6.97312e-50
3.33132e-49
8.80139e-49
1.1252e-48
7.91369e-49
3.50931e-49
1.085e-49
2.51167e-50
4.58361e-51
6.85073e-52
8.62857e-53
9.35471e-54
8.86765e-55
7.43653e-56
5.56579e-57
3.74247e-58
2.27236e-59
1.25104e-60
6.26686e-62
2.86405e-63
1.19686e-64
4.57985e-66
1.6046e-67
5.12767e-69
1.51835e-70
4.17937e-72
1.0613e-73
2.4667e-75
5.17088e-77
9.52059e-79
1.47024e-80
1.76125e-82
1.43159e-84
6.1481e-87
7.66846e-90
5.91556e-88
4.56831e-85
1.02823e-82
1.22221e-80
9.82657e-79
6.09841e-77
3.15633e-75
1.42729e-73
5.79787e-72
2.14926e-70
7.33094e-69
2.31014e-67
6.73277e-66
1.81461e-64
4.5192e-63
1.03605e-61
2.17805e-60
4.18522e-59
7.32139e-58
1.16126e-56
1.66122e-55
2.13023e-54
2.42969e-53
2.43993e-52
2.12892e-51
1.58598e-50
9.85712e-50
4.95316e-49
1.92675e-48
5.45573e-48
1.02757e-47
1.12503e-47
5.96159e-48
1.4065e-48
2.53919e-49
4.68048e-50
9.59122e-51
2.08283e-51
4.6897e-52
1.10438e-52
2.75292e-53
7.44102e-54
2.27604e-54
8.44651e-55
4.1325e-55
2.88079e-55
2.9514e-55
4.40524e-55
9.45587e-55
2.89957e-54
1.20945e-53
6.37233e-53
3.84641e-52
2.37515e-51
1.40165e-50
7.20103e-50
3.43365e-49
7.56994e-48
6.8536e-46
4.97039e-44
2.0409e-42
1.10481e-41
2.8831e-41
4.12634e-41
5.68592e-41
3.85861e-41
1.96012e-41
7.8175e-42
3.12703e-43
7.67087e-45
1.49889e-46
8.0801e-48
3.70445e-48
1.60251e-48
6.12132e-49
2.20865e-49
7.92881e-50
2.93698e-50
1.17084e-50
5.20092e-51
2.65867e-51
1.6038e-51
1.17208e-51
1.05785e-51
1.20744e-51
1.75674e-51
3.17186e-51
6.78286e-51
1.64798e-50
4.46655e-50
1.36111e-49
4.91697e-49
2.20986e-48
1.13715e-47
4.74036e-47
1.06986e-46
1.1803e-46
7.36871e-47
2.97852e-47
8.57632e-48
1.88087e-48
3.29694e-49
4.78658e-50
5.91041e-51
6.33047e-52
5.96657e-53
5.00242e-54
3.76095e-55
2.55102e-56
1.56843e-57
8.77423e-59
4.48076e-60
2.09418e-61
8.97679e-63
3.53417e-64
1.27794e-65
4.23013e-67
1.27104e-68
3.58294e-70
9.33875e-72
2.23263e-73
4.82712e-75
9.19102e-77
1.47135e-78
1.83153e-80
1.55111e-82
6.96349e-85
9.1166e-88
6.2168e-86
4.55616e-83
9.76635e-81
1.10884e-78
8.53766e-77
5.08746e-75
2.53516e-73
1.10682e-71
4.35199e-70
1.56562e-68
5.19959e-67
1.60244e-65
4.5897e-64
1.21695e-62
2.97842e-61
6.7133e-60
1.38881e-58
2.63002e-57
4.54616e-56
7.14935e-55
1.01851e-53
1.30722e-52
1.50086e-51
1.52708e-50
1.36021e-49
1.04373e-48
6.75318e-48
3.5794e-47
1.49324e-46
4.6333e-46
9.84105e-46
1.26116e-45
8.11594e-46
2.28015e-46
4.93808e-47
1.09277e-47
2.62762e-48
6.53466e-49
1.66983e-49
4.42839e-50
1.23669e-50
3.74426e-51
1.28944e-51
5.43038e-52
3.01589e-52
2.3482e-52
2.61293e-52
4.13333e-52
9.24328e-52
2.90635e-51
1.2232e-50
6.39703e-50
3.77552e-49
2.26047e-48
1.28769e-47
6.35375e-47
2.92274e-46
6.31356e-45
5.4546e-43
3.77756e-41
1.48882e-39
7.63344e-39
1.88603e-38
2.65598e-38
3.64316e-38
2.44096e-38
1.27665e-38
5.22924e-39
2.19391e-40
5.66006e-42
1.15402e-43
5.81248e-45
2.54784e-45
1.10164e-45
4.19327e-46
1.50153e-46
5.32704e-47
1.93821e-47
7.53459e-48
3.24038e-48
1.59277e-48
9.17905e-49
6.35958e-49
5.38802e-49
5.69423e-49
7.56282e-49
1.23493e-48
2.37341e-48
5.143e-48
1.22902e-47
3.23875e-47
9.85118e-47
3.66649e-46
1.58506e-45
5.69575e-45
1.08813e-44
1.03503e-44
5.74668e-45
2.12246e-45
5.7053e-46
1.18798e-46
2.0041e-47
2.83115e-48
3.43219e-49
3.63599e-50
3.41075e-51
2.86112e-52
2.16204e-53
1.47992e-54
9.21603e-56
5.23946e-57
2.72765e-58
1.30354e-59
5.73033e-61
2.32037e-62
8.65558e-64
2.96534e-65
9.23942e-67
2.65524e-68
7.11221e-70
1.75395e-71
3.92234e-73
7.74289e-75
1.28793e-76
1.66957e-78
1.47629e-80
6.94252e-83
9.56077e-86
5.78212e-84
4.01304e-81
8.17775e-79
8.85496e-77
6.52075e-75
3.72652e-73
1.78615e-71
7.52389e-70
2.86388e-68
1.00143e-66
3.24893e-65
9.81957e-64
2.75035e-62
7.11195e-61
1.69744e-59
3.73742e-58
7.57769e-57
1.41121e-55
2.40756e-54
3.75115e-53
5.3166e-52
6.82122e-51
7.87177e-50
8.10158e-49
7.35342e-48
5.79969e-47
3.89743e-46
2.17307e-45
9.69157e-45
3.28298e-44
7.82997e-44
1.17023e-43
9.1665e-44
3.1287e-44
8.26984e-45
2.21819e-45
6.29977e-46
1.81047e-46
5.29639e-47
1.59334e-47
5.01877e-48
1.71414e-48
6.69434e-49
3.21142e-49
2.01909e-49
1.7438e-49
2.0952e-49
3.50192e-49
8.1442e-49
2.6198e-48
1.10937e-47
5.73889e-47
3.29973e-46
1.90962e-45
1.04682e-44
4.94422e-44
2.18927e-43
4.63131e-42
3.80284e-40
2.50247e-38
9.40843e-37
4.5731e-36
1.06305e-35
1.47437e-35
2.01099e-35
1.33106e-35
7.18646e-36
3.00606e-36
1.33854e-37
3.65236e-39
7.807e-41
3.67946e-42
1.5284e-42
6.61144e-43
2.51072e-43
8.93062e-44
3.13394e-44
1.12104e-44
4.25229e-45
1.77081e-45
8.36781e-46
4.60476e-46
3.02311e-46
2.40465e-46
2.35551e-46
2.85919e-46
4.22303e-46
7.28928e-46
1.40752e-45
2.96367e-45
6.75801e-45
1.72926e-44
5.28748e-44
1.89008e-43
5.78271e-43
9.2872e-43
7.62355e-43
3.77517e-43
1.27803e-43
3.21654e-44
6.37617e-45
1.03764e-45
1.42919e-46
1.70407e-47
1.78828e-48
1.6717e-49
1.40453e-50
1.06768e-51
7.3805e-53
4.65769e-54
2.69207e-55
1.4291e-56
6.98454e-58
3.14894e-59
1.31144e-60
5.0461e-62
1.78886e-63
5.78906e-65
1.70593e-66
4.71396e-68
1.20262e-69
2.78834e-71
5.71871e-73
9.90261e-75
1.33914e-76
1.23834e-78
6.10982e-81
8.86542e-84
4.76149e-82
3.12641e-79
6.05149e-77
6.24413e-75
4.39381e-73
2.40587e-71
1.1081e-69
4.50047e-68
1.65846e-66
5.6439e-65
1.78997e-63
5.28015e-62
1.43252e-60
3.5918e-59
8.34214e-58
1.79343e-56
3.56207e-55
6.52002e-54
1.097e-52
1.69168e-51
2.38242e-50
3.05102e-49
3.53267e-48
3.67029e-47
3.38709e-46
2.73921e-45
1.90671e-44
1.11488e-43
5.2962e-43
1.95045e-42
5.19839e-42
9.01458e-42
8.58855e-42
3.63025e-42
1.18649e-42
3.88668e-43
1.31375e-43
4.40805e-44
1.48889e-44
5.11815e-45
1.83204e-45
7.11367e-46
3.1723e-46
1.73625e-46
1.2302e-46
1.17044e-46
1.51072e-46
2.66006e-46
6.41829e-46
2.10536e-45
8.93464e-45
4.55089e-44
2.53714e-43
1.41348e-42
7.42557e-42
3.34234e-41
1.42029e-40
2.93816e-39
2.28173e-37
1.41802e-35
5.04428e-34
2.3316e-33
5.05452e-33
6.91164e-33
9.36079e-33
6.13506e-33
3.43477e-33
1.45345e-33
6.97494e-35
2.02698e-36
4.57289e-38
2.02324e-39
7.88684e-40
3.41863e-40
1.29815e-40
4.59609e-41
1.59846e-41
5.63225e-42
2.08797e-42
8.4282e-43
3.83101e-43
2.01344e-43
1.25261e-43
9.35817e-44
8.50661e-44
9.44925e-44
1.26281e-43
1.9561e-43
3.36202e-43
6.23025e-43
1.22933e-42
2.64677e-42
6.61441e-42
1.92702e-41
4.95624e-41
6.6629e-41
4.7315e-41
2.09755e-41
6.533e-42
1.5447e-42
2.9239e-43
4.60238e-44
6.19511e-45
7.27964e-46
7.58072e-47
7.07247e-48
5.95902e-49
4.56159e-50
3.18706e-51
2.03963e-52
1.19915e-53
6.49381e-55
3.2467e-56
1.50154e-57
6.43258e-59
2.55325e-60
9.36596e-62
3.14757e-63
9.56401e-65
2.73417e-66
7.23087e-68
1.74148e-69
3.71747e-71
6.71274e-73
9.48502e-75
9.18634e-77
4.76215e-79
7.2915e-82
3.48161e-80
2.16012e-77
3.96774e-75
3.89822e-73
2.61924e-71
1.37318e-69
6.07407e-68
2.37781e-66
8.48051e-65
2.80414e-63
8.68319e-62
2.47359e-60
6.48183e-59
1.57555e-57
3.55963e-56
7.46865e-55
1.45231e-53
2.61091e-52
4.32865e-51
6.5994e-50
9.22253e-49
1.17689e-47
1.36454e-46
1.42788e-45
1.33638e-44
1.10515e-43
7.94367e-43
4.85415e-42
2.44653e-41
9.74917e-41
2.88741e-40
5.77498e-40
6.66873e-40
3.54541e-40
1.44522e-40
5.82756e-41
2.36571e-41
9.37112e-42
3.68726e-42
1.46029e-42
5.99246e-43
2.66825e-43
1.36654e-43
8.52752e-44
6.77216e-44
7.05265e-44
9.73461e-44
1.80024e-43
4.49222e-43
1.49605e-42
6.32978e-42
3.15549e-41
1.69553e-40
9.04613e-40
4.52981e-39
1.93224e-38
7.8476e-38
1.5834e-36
1.15622e-34
6.73667e-33
2.24295e-31
9.92108e-31
1.98083e-30
2.67356e-30
3.58922e-30
2.34053e-30
1.36842e-30
5.77217e-31
3.04453e-32
9.50411e-34
2.26677e-35
9.49503e-37
3.44999e-37
1.50244e-37
5.72446e-38
2.02372e-38
6.99659e-39
2.43553e-39
8.84772e-40
3.46858e-40
1.51867e-40
7.62947e-41
4.50013e-41
3.15965e-41
2.66831e-41
2.71607e-41
3.28532e-41
4.56231e-41
6.96905e-41
1.13472e-40
1.93557e-40
3.507e-40
7.14422e-40
1.67646e-39
3.57874e-39
4.02061e-39
2.47947e-39
9.88475e-40
2.84445e-40
6.34254e-41
1.15023e-41
1.75636e-42
2.31636e-43
2.68833e-44
2.78327e-45
2.59566e-46
2.19612e-47
1.69478e-48
1.19787e-49
7.77971e-51
4.65528e-52
2.57293e-53
1.3164e-54
6.24681e-56
2.75329e-57
1.1275e-58
4.27994e-60
1.4936e-61
4.70235e-63
1.39283e-64
3.82319e-66
9.57777e-68
2.13079e-69
4.01705e-71
5.93685e-73
6.02757e-75
3.28563e-77
5.3126e-80
2.25693e-78
1.32248e-75
2.30444e-73
2.15521e-71
1.38232e-69
6.93578e-68
2.9446e-66
1.11034e-64
3.83085e-63
1.22892e-61
3.69384e-60
1.01211e-58
2.56118e-57
6.03319e-56
1.32536e-54
2.71252e-53
5.16089e-52
9.10597e-51
1.48623e-49
2.23764e-48
3.09872e-47
3.93348e-46
4.55729e-45
4.79141e-44
4.53551e-43
3.82361e-42
2.82836e-41
1.79933e-40
9.57975e-40
4.10937e-39
1.34419e-38
3.07871e-38
4.2836e-38
2.8923e-38
1.47935e-38
7.40687e-39
3.64876e-39
1.72575e-39
7.98683e-40
3.6802e-40
1.7491e-40
9.01422e-41
5.32362e-41
3.77936e-41
3.34594e-41
3.79306e-41
5.57642e-41
1.07953e-40
2.77414e-40
9.32661e-40
3.90799e-39
1.89223e-38
9.72729e-38
4.93771e-37
2.34081e-36
9.39573e-36
3.62771e-35
7.10984e-34
4.84924e-32
2.62655e-30
8.06736e-29
3.45203e-28
6.23628e-28
8.3166e-28
1.10468e-27
7.22609e-28
4.45819e-28
1.83437e-28
1.08779e-29
3.67019e-31
9.31258e-33
3.74138e-34
1.25974e-34
5.53185e-35
2.12487e-35
7.53367e-36
2.59999e-36
8.97787e-37
3.20803e-37
1.225e-37
5.17741e-38
2.48997e-38
1.39375e-38
9.20343e-39
7.22792e-39
6.74972e-39
7.39096e-39
9.18818e-39
1.24476e-38
1.77695e-38
2.61566e-38
3.98677e-38
6.61433e-38
1.23975e-37
2.17077e-37
2.04053e-37
1.0984e-37
3.95839e-38
1.05739e-38
2.2328e-39
3.89355e-40
5.78558e-41
7.49634e-42
8.61313e-43
8.8829e-44
8.29478e-45
7.05721e-46
5.49666e-47
3.93381e-48
2.59461e-49
1.58113e-50
8.92274e-52
4.67324e-53
2.27596e-54
1.03224e-55
4.36168e-57
1.71342e-58
6.20905e-60
2.03617e-61
6.24257e-63
1.78004e-64
4.64453e-66
1.07817e-67
2.12432e-69
3.28669e-71
3.5008e-73
2.00815e-75
3.4321e-78
1.29762e-76
7.17871e-74
1.18648e-71
1.05614e-69
6.46453e-68
3.10289e-66
1.26341e-64
4.58363e-63
1.5282e-61
4.75612e-60
1.3773e-58
3.63008e-57
8.86959e-56
2.0242e-54
4.32181e-53
8.62316e-52
1.60431e-50
2.77621e-49
4.45683e-48
6.61931e-47
9.07072e-46
1.14339e-44
1.32092e-43
1.39184e-42
1.32864e-41
1.13801e-40
8.63108e-40
5.6927e-39
3.1862e-38
1.46307e-37
5.24984e-37
1.36598e-36
2.27135e-36
1.95333e-36
1.2588e-36
7.89803e-37
4.76965e-37
2.72309e-37
1.49829e-37
8.12897e-38
4.52829e-38
2.72708e-38
1.86181e-38
1.50014e-38
1.47443e-38
1.81157e-38
2.8269e-38
5.70735e-38
1.50225e-37
5.06194e-37
2.08295e-36
9.70289e-36
4.72927e-35
2.26585e-34
1.00829e-33
3.77526e-33
1.3762e-32
2.60485e-31
1.64741e-29
8.21708e-28
2.28343e-26
9.61967e-26
1.53356e-25
2.02114e-25
2.65273e-25
1.76158e-25
1.16367e-25
4.53321e-26
3.1063e-27
1.14237e-28
3.10627e-30
1.2154e-31
3.77604e-32
1.67982e-32
6.54522e-33
2.34083e-33
8.10797e-34
2.79183e-34
9.86092e-35
3.68206e-35
1.50655e-35
6.95023e-36
3.69655e-36
2.29735e-36
1.67899e-36
1.43954e-36
1.42674e-36
1.58461e-36
1.89837e-36
2.3696e-36
3.00358e-36
3.84868e-36
5.1994e-36
7.74842e-36
1.10238e-35
8.70398e-36
4.11539e-36
1.34864e-36
3.36165e-37
6.75231e-38
1.1366e-38
1.64908e-39
2.10521e-40
2.40042e-41
2.47108e-42
2.31434e-43
1.9828e-44
1.56044e-45
1.1318e-46
7.58638e-48
4.71049e-49
2.71528e-50
1.45616e-51
7.27972e-53
3.39788e-54
1.48157e-55
6.02321e-57
2.26632e-58
7.74984e-60
2.46208e-61
7.30231e-63
1.9864e-64
4.8152e-66
9.92123e-68
1.60764e-69
1.79704e-71
1.08507e-73
1.96081e-76
6.59985e-75
3.44723e-72
5.40532e-70
4.5808e-68
2.67656e-66
1.2292e-64
4.79968e-63
1.674e-61
5.38313e-60
1.62544e-58
4.51142e-57