/*--------------------------------*- C++ -*----------------------------------*\
| =========                 |                                                 |
| \\      /  F ield         | OpenFOAM: The Open Source CFD Toolbox           |
|  \\    /   O peration     | Version:  2212                                  |
|   \\  /    A nd           | Website:  www.openfoam.com                      |
|    \\/     M anipulation  |                                                 |
\*---------------------------------------------------------------------------*/
FoamFile
{
    version     2.0;
    format      ascii;
    arch        "LSB;label=64;scalar=64";
    class       volVectorField;
    location    "0.53";
    object      U;
}
// * * * * * * * * * * * * * * * * * * * * * * * * * * * * * * * * * * * * * //

dimensions      [0 1 -1 0 0 0 0];

internalField   nonuniform List<vector> 
32768
(
(2.05104e-07 -3.49078e-07 0)
(-4.42704e-06 2.20001e-06 0)
(-1.45285e-05 4.58095e-06 0)
(-2.73122e-05 5.75074e-06 0)
(-4.04567e-05 5.90211e-06 0)
(-5.26422e-05 5.5724e-06 0)
(-6.35231e-05 5.16445e-06 0)
(-7.32988e-05 4.85561e-06 0)
(-8.23174e-05 4.66983e-06 0)
(-9.08687e-05 4.56821e-06 0)
(-9.91298e-05 4.50511e-06 0)
(-0.000107184 4.44887e-06 0)
(-0.000115057 4.38319e-06 0)
(-0.000122745 4.30195e-06 0)
(-0.000130234 4.20422e-06 0)
(-0.000137504 4.09108e-06 0)
(-0.000144536 3.96407e-06 0)
(-0.000151311 3.82456e-06 0)
(-0.000157813 3.67366e-06 0)
(-0.000164023 3.51219e-06 0)
(-0.000169927 3.34082e-06 0)
(-0.000175507 3.16006e-06 0)
(-0.00018075 2.97033e-06 0)
(-0.00018564 2.77197e-06 0)
(-0.000190163 2.56524e-06 0)
(-0.000194305 2.35042e-06 0)
(-0.000198051 2.12774e-06 0)
(-0.000201389 1.89751e-06 0)
(-0.000204304 1.66003e-06 0)
(-0.000206783 1.41575e-06 0)
(-0.000208815 1.16528e-06 0)
(-0.000210387 9.09473e-07 0)
(-0.000211489 6.49617e-07 0)
(-0.000212113 3.87423e-07 0)
(-0.000212249 1.23712e-07 0)
(-0.000211891 -1.44251e-07 0)
(-0.000211036 -4.15566e-07 0)
(-0.00020968 -6.88528e-07 0)
(-0.000207821 -9.61954e-07 0)
(-0.000205459 -1.23507e-06 0)
(-0.000202593 -1.50724e-06 0)
(-0.000199224 -1.77781e-06 0)
(-0.000195354 -2.04609e-06 0)
(-0.000190989 -2.31133e-06 0)
(-0.000186132 -2.57271e-06 0)
(-0.000180791 -2.8294e-06 0)
(-0.000174974 -3.08051e-06 0)
(-0.000168693 -3.32514e-06 0)
(-0.000161959 -3.56237e-06 0)
(-0.000154786 -3.79126e-06 0)
(-0.000147191 -4.01087e-06 0)
(-0.000139193 -4.22025e-06 0)
(-0.00013081 -4.41847e-06 0)
(-0.000122064 -4.60464e-06 0)
(-0.000112979 -4.77793e-06 0)
(-0.000103581 -4.93756e-06 0)
(-9.38947e-05 -5.08282e-06 0)
(-8.39497e-05 -5.21303e-06 0)
(-7.37751e-05 -5.32754e-06 0)
(-6.34018e-05 -5.4256e-06 0)
(-5.28622e-05 -5.50627e-06 0)
(-4.21903e-05 -5.56844e-06 0)
(-3.14224e-05 -5.61082e-06 0)
(-2.05964e-05 -5.63208e-06 0)
(-9.75082e-06 -5.63092e-06 0)
(1.08302e-06 -5.60831e-06 0)
(1.18562e-05 -5.56736e-06 0)
(2.25409e-05 -5.50996e-06 0)
(3.31082e-05 -5.43679e-06 0)
(4.35277e-05 -5.34843e-06 0)
(5.3771e-05 -5.24517e-06 0)
(6.38103e-05 -5.12724e-06 0)
(7.36185e-05 -4.99494e-06 0)
(8.31693e-05 -4.84869e-06 0)
(9.24372e-05 -4.68907e-06 0)
(0.000101398 -4.51673e-06 0)
(0.000110028 -4.33236e-06 0)
(0.000118306 -4.13669e-06 0)
(0.000126212 -3.93054e-06 0)
(0.000133728 -3.71476e-06 0)
(0.000140836 -3.49025e-06 0)
(0.000147521 -3.2579e-06 0)
(0.000153769 -3.01859e-06 0)
(0.000159569 -2.77318e-06 0)
(0.00016491 -2.52252e-06 0)
(0.000169783 -2.26739e-06 0)
(0.000174181 -2.00847e-06 0)
(0.000178098 -1.74635e-06 0)
(0.000181529 -1.48153e-06 0)
(0.000184469 -1.21454e-06 0)
(0.000186916 -9.45927e-07 0)
(0.000188868 -6.76352e-07 0)
(0.000190326 -4.06758e-07 0)
(0.000191289 -1.38735e-07 0)
(0.000191761 1.25348e-07 0)
(0.000191746 3.83924e-07 0)
(0.000191253 6.38604e-07 0)
(0.000190294 8.8877e-07 0)
(0.000188879 1.1333e-06 0)
(0.000187021 1.37148e-06 0)
(0.000184733 1.60281e-06 0)
(0.000182029 1.82698e-06 0)
(0.000178921 2.04377e-06 0)
(0.000175423 2.253e-06 0)
(0.000171548 2.45449e-06 0)
(0.000167311 2.64798e-06 0)
(0.000162724 2.83318e-06 0)
(0.000157804 3.0097e-06 0)
(0.000152562 3.17712e-06 0)
(0.000147016 3.3349e-06 0)
(0.00014118 3.48238e-06 0)
(0.000135071 3.6187e-06 0)
(0.000128705 3.74275e-06 0)
(0.000122102 3.8531e-06 0)
(0.000115279 3.94818e-06 0)
(0.000108255 4.02687e-06 0)
(0.000101046 4.0901e-06 0)
(9.36547e-05 4.14406e-06 0)
(8.60542e-05 4.20535e-06 0)
(7.81597e-05 4.30625e-06 0)
(6.97903e-05 4.49365e-06 0)
(6.06496e-05 4.80809e-06 0)
(5.0379e-05 5.22723e-06 0)
(3.87669e-05 5.57436e-06 0)
(2.61484e-05 5.44697e-06 0)
(1.38322e-05 4.31163e-06 0)
(4.1134e-06 1.985e-06 0)
(-2.64948e-07 -4.80198e-07 0)
(-6.8888e-07 8.75017e-06 0)
(-1.12862e-05 2.9129e-05 0)
(-2.97445e-05 4.30187e-05 0)
(-5.12901e-05 4.79053e-05 0)
(-7.21596e-05 4.62715e-05 0)
(-9.05256e-05 4.18403e-05 0)
(-0.000106119 3.72956e-05 0)
(-0.000119464 3.3807e-05 0)
(-0.000131262 3.14968e-05 0)
(-0.000142085 3.00454e-05 0)
(-0.0001523 2.90802e-05 0)
(-0.000162103 2.83287e-05 0)
(-0.000171582 2.76329e-05 0)
(-0.000180766 2.69162e-05 0)
(-0.000189659 2.61476e-05 0)
(-0.000198249 2.53174e-05 0)
(-0.000206522 2.44244e-05 0)
(-0.000214461 2.34704e-05 0)
(-0.00022205 2.24576e-05 0)
(-0.00022927 2.13879e-05 0)
(-0.000236107 2.02631e-05 0)
(-0.000242542 1.90845e-05 0)
(-0.000248561 1.78533e-05 0)
(-0.000254146 1.65706e-05 0)
(-0.000259282 1.52373e-05 0)
(-0.000263953 1.38543e-05 0)
(-0.000268143 1.24224e-05 0)
(-0.000271839 1.09425e-05 0)
(-0.000275024 9.41558e-06 0)
(-0.000277684 7.84282e-06 0)
(-0.000279806 6.22594e-06 0)
(-0.000281375 4.56746e-06 0)
(-0.000282377 2.8712e-06 0)
(-0.000282801 1.14276e-06 0)
(-0.00028263 -6.10852e-07 0)
(-0.000281859 -2.38302e-06 0)
(-0.000280486 -4.1675e-06 0)
(-0.000278505 -5.9601e-06 0)
(-0.000275913 -7.75761e-06 0)
(-0.000272705 -9.55688e-06 0)
(-0.000268882 -1.13543e-05 0)
(-0.00026444 -1.31459e-05 0)
(-0.000259382 -1.49268e-05 0)
(-0.000253711 -1.66918e-05 0)
(-0.00024743 -1.84351e-05 0)
(-0.000240547 -2.01507e-05 0)
(-0.00023307 -2.18323e-05 0)
(-0.000225013 -2.34731e-05 0)
(-0.000216387 -2.50666e-05 0)
(-0.000207211 -2.6606e-05 0)
(-0.000197503 -2.80843e-05 0)
(-0.000187286 -2.9495e-05 0)
(-0.000176582 -3.08312e-05 0)
(-0.000165419 -3.20865e-05 0)
(-0.000153827 -3.32549e-05 0)
(-0.000141836 -3.43303e-05 0)
(-0.000129481 -3.53075e-05 0)
(-0.000116797 -3.61814e-05 0)
(-0.000103823 -3.69469e-05 0)
(-9.05969e-05 -3.75989e-05 0)
(-7.71613e-05 -3.81318e-05 0)
(-6.35587e-05 -3.85395e-05 0)
(-4.98333e-05 -3.88165e-05 0)
(-3.60301e-05 -3.8959e-05 0)
(-2.21942e-05 -3.89659e-05 0)
(-8.36746e-06 -3.8839e-05 0)
(5.4146e-06 -3.85855e-05 0)
(1.90916e-05 -3.82169e-05 0)
(3.26367e-05 -3.77409e-05 0)
(4.60126e-05 -3.71625e-05 0)
(5.91833e-05 -3.64843e-05 0)
(7.21143e-05 -3.5708e-05 0)
(8.47719e-05 -3.4836e-05 0)
(9.71234e-05 -3.38714e-05 0)
(0.000109137 -3.28178e-05 0)
(0.000120784 -3.16797e-05 0)
(0.000132034 -3.04618e-05 0)
(0.000142862 -2.91693e-05 0)
(0.000153242 -2.78077e-05 0)
(0.000163151 -2.63828e-05 0)
(0.000172569 -2.49003e-05 0)
(0.000181477 -2.33662e-05 0)
(0.000189858 -2.17863e-05 0)
(0.000197697 -2.01666e-05 0)
(0.00020498 -1.85124e-05 0)
(0.000211698 -1.68291e-05 0)
(0.00021784 -1.51215e-05 0)
(0.000223399 -1.33942e-05 0)
(0.000228369 -1.16511e-05 0)
(0.000232746 -9.89607e-06 0)
(0.000236527 -8.13304e-06 0)
(0.000239711 -6.36596e-06 0)
(0.000242297 -4.59937e-06 0)
(0.000244287 -2.83888e-06 0)
(0.000245685 -1.09164e-06 0)
(0.000246497 6.33546e-07 0)
(0.000246721 2.32666e-06 0)
(0.000246375 3.97837e-06 0)
(0.000245474 5.58438e-06 0)
(0.000244035 7.14313e-06 0)
(0.000242071 8.65419e-06 0)
(0.000239599 1.01175e-05 0)
(0.000236632 1.15331e-05 0)
(0.000233186 1.2901e-05 0)
(0.000229275 1.42207e-05 0)
(0.000224916 1.54918e-05 0)
(0.000220122 1.67136e-05 0)
(0.000214909 1.7885e-05 0)
(0.000209292 1.90049e-05 0)
(0.000203287 2.00718e-05 0)
(0.00019691 2.10839e-05 0)
(0.000190177 2.20391e-05 0)
(0.000183103 2.29349e-05 0)
(0.000175705 2.37695e-05 0)
(0.000167997 2.45435e-05 0)
(0.000159989 2.52665e-05 0)
(0.000151678 2.59697e-05 0)
(0.000143035 2.67306e-05 0)
(0.00013397 2.77096e-05 0)
(0.000124282 2.91848e-05 0)
(0.0001136 3.15376e-05 0)
(0.000101338 3.50997e-05 0)
(8.67779e-05 3.97589e-05 0)
(6.93747e-05 4.43467e-05 0)
(4.93794e-05 4.61739e-05 0)
(2.86044e-05 4.15313e-05 0)
(1.07761e-05 2.79918e-05 0)
(6.07152e-07 8.14459e-06 0)
(-6.79668e-07 2.09225e-05 0)
(-1.1074e-05 5.97429e-05 0)
(-2.82802e-05 8.30091e-05 0)
(-4.74774e-05 8.87858e-05 0)
(-6.50067e-05 8.27259e-05 0)
(-7.92838e-05 7.20514e-05 0)
(-9.0283e-05 6.1784e-05 0)
(-9.87157e-05 5.40292e-05 0)
(-0.000105418 4.89075e-05 0)
(-0.000111055 4.57146e-05 0)
(-0.000116057 4.36633e-05 0)
(-0.000120667 4.21747e-05 0)
(-0.000125005 4.09052e-05 0)
(-0.000129128 3.96797e-05 0)
(-0.000133055 3.84192e-05 0)
(-0.000136795 3.70927e-05 0)
(-0.000140348 3.56901e-05 0)
(-0.000143711 3.42091e-05 0)
(-0.00014688 3.26503e-05 0)
(-0.000149852 3.1015e-05 0)
(-0.00015262 2.93045e-05 0)
(-0.000155182 2.75202e-05 0)
(-0.000157531 2.56633e-05 0)
(-0.000159664 2.3735e-05 0)
(-0.000161575 2.17367e-05 0)
(-0.000163259 1.96696e-05 0)
(-0.000164712 1.75352e-05 0)
(-0.000165931 1.5335e-05 0)
(-0.00016691 1.30708e-05 0)
(-0.000167648 1.07445e-05 0)
(-0.00016814 8.35849e-06 0)
(-0.000168386 5.91536e-06 0)
(-0.000168383 3.41854e-06 0)
(-0.000168129 8.73296e-07 0)
(-0.000167622 -1.71109e-06 0)
(-0.00016686 -4.32429e-06 0)
(-0.000165834 -6.96081e-06 0)
(-0.000164539 -9.6172e-06 0)
(-0.000162968 -1.22898e-05 0)
(-0.000161116 -1.49738e-05 0)
(-0.000158979 -1.76637e-05 0)
(-0.000156555 -2.03526e-05 0)
(-0.000153841 -2.3033e-05 0)
(-0.000150835 -2.56964e-05 0)
(-0.000147538 -2.83337e-05 0)
(-0.000143951 -3.09351e-05 0)
(-0.000140076 -3.34906e-05 0)
(-0.000135916 -3.59897e-05 0)
(-0.000131476 -3.84216e-05 0)
(-0.000126764 -4.07754e-05 0)
(-0.000121786 -4.304e-05 0)
(-0.000116552 -4.52045e-05 0)
(-0.000111072 -4.72579e-05 0)
(-0.00010536 -4.91895e-05 0)
(-9.94285e-05 -5.0989e-05 0)
(-9.32936e-05 -5.26465e-05 0)
(-8.69721e-05 -5.4153e-05 0)
(-8.04823e-05 -5.54997e-05 0)
(-7.38439e-05 -5.66786e-05 0)
(-6.70773e-05 -5.76821e-05 0)
(-6.02032e-05 -5.85028e-05 0)
(-5.32422e-05 -5.91339e-05 0)
(-4.62143e-05 -5.95704e-05 0)
(-3.91382e-05 -5.98102e-05 0)
(-3.20312e-05 -5.98548e-05 0)
(-2.49093e-05 -5.97088e-05 0)
(-1.7787e-05 -5.9379e-05 0)
(-1.068e-05 -5.8876e-05 0)
(-3.60334e-06 -5.821e-05 0)
(3.42646e-06 -5.73872e-05 0)
(1.03881e-05 -5.6412e-05 0)
(1.72672e-05 -5.5288e-05 0)
(2.40475e-05 -5.40191e-05 0)
(3.07132e-05 -5.26102e-05 0)
(3.72497e-05 -5.10672e-05 0)
(4.36426e-05 -4.93967e-05 0)
(4.98782e-05 -4.76061e-05 0)
(5.59437e-05 -4.57032e-05 0)
(6.18272e-05 -4.36964e-05 0)
(6.75175e-05 -4.15941e-05 0)
(7.30039e-05 -3.94052e-05 0)
(7.82766e-05 -3.71382e-05 0)
(8.33268e-05 -3.48022e-05 0)
(8.81465e-05 -3.24058e-05 0)
(9.27285e-05 -2.99573e-05 0)
(9.70663e-05 -2.74646e-05 0)
(0.000101154 -2.49355e-05 0)
(0.000104987 -2.2377e-05 0)
(0.000108562 -1.97962e-05 0)
(0.000111874 -1.71996e-05 0)
(0.000114924 -1.45942e-05 0)
(0.00011771 -1.1987e-05 0)
(0.000120233 -9.38528e-06 0)
(0.000122497 -6.79645e-06 0)
(0.000124505 -4.22806e-06 0)
(0.000126261 -1.68869e-06 0)
(0.000127775 8.09904e-07 0)
(0.000129035 3.2557e-06 0)
(0.000130042 5.64031e-06 0)
(0.000130801 7.96e-06 0)
(0.000131313 1.02144e-05 0)
(0.000131582 1.24036e-05 0)
(0.00013161 1.45274e-05 0)
(0.000131403 1.65856e-05 0)
(0.000130963 1.85776e-05 0)
(0.000130294 2.0503e-05 0)
(0.000129401 2.23608e-05 0)
(0.000128287 2.41501e-05 0)
(0.000126956 2.58698e-05 0)
(0.000125413 2.75183e-05 0)
(0.00012366 2.90941e-05 0)
(0.000121701 3.05956e-05 0)
(0.00011954 3.20218e-05 0)
(0.000117179 3.33741e-05 0)
(0.000114616 3.46624e-05 0)
(0.000111844 3.59173e-05 0)
(0.000108843 3.72181e-05 0)
(0.000105555 3.87422e-05 0)
(0.00010186 4.08386e-05 0)
(9.751e-05 4.40972e-05 0)
(9.20687e-05 4.93233e-05 0)
(8.48585e-05 5.7245e-05 0)
(7.5025e-05 6.77613e-05 0)
(6.18354e-05 7.87689e-05 0)
(4.52962e-05 8.52343e-05 0)
(2.69746e-05 7.99586e-05 0)
(1.04888e-05 5.74023e-05 0)
(5.89775e-07 1.96923e-05 0)
(-5.44936e-07 3.1099e-05 0)
(-9.65212e-06 8.56815e-05 0)
(-2.46354e-05 0.000116244 0)
(-4.08525e-05 0.000121338 0)
(-5.48766e-05 0.000109807 0)
(-6.53362e-05 9.22929e-05 0)
(-7.23655e-05 7.60189e-05 0)
(-7.67768e-05 6.39036e-05 0)
(-7.94614e-05 5.59843e-05 0)
(-8.11125e-05 5.11261e-05 0)
(-8.21761e-05 4.81053e-05 0)
(-8.29048e-05 4.60275e-05 0)
(-8.34288e-05 4.43595e-05 0)
(-8.38121e-05 4.28256e-05 0)
(-8.40859e-05 4.12987e-05 0)
(-8.42665e-05 3.97257e-05 0)
(-8.43633e-05 3.80866e-05 0)
(-8.4383e-05 3.6375e-05 0)
(-8.43308e-05 3.45891e-05 0)
(-8.42112e-05 3.27293e-05 0)
(-8.40282e-05 3.07961e-05 0)
(-8.37853e-05 2.87905e-05 0)
(-8.34858e-05 2.67134e-05 0)
(-8.31328e-05 2.4566e-05 0)
(-8.27294e-05 2.23495e-05 0)
(-8.22785e-05 2.00652e-05 0)
(-8.17829e-05 1.77151e-05 0)
(-8.12454e-05 1.53012e-05 0)
(-8.06688e-05 1.28262e-05 0)
(-8.00563e-05 1.02928e-05 0)
(-7.94112e-05 7.7044e-06 0)
(-7.87373e-05 5.06433e-06 0)
(-7.80378e-05 2.37624e-06 0)
(-7.73125e-05 -3.55751e-07 0)
(-7.65706e-05 -3.12712e-06 0)
(-7.58055e-05 -5.93543e-06 0)
(-7.50146e-05 -8.77811e-06 0)
(-7.41957e-05 -1.16512e-05 0)
(-7.3346e-05 -1.45495e-05 0)
(-7.24628e-05 -1.74671e-05 0)
(-7.15443e-05 -2.0397e-05 0)
(-7.05885e-05 -2.33314e-05 0)
(-6.95934e-05 -2.62619e-05 0)
(-6.85567e-05 -2.9179e-05 0)
(-6.74767e-05 -3.20727e-05 0)
(-6.63516e-05 -3.49321e-05 0)
(-6.51797e-05 -3.7746e-05 0)
(-6.39597e-05 -4.05026e-05 0)
(-6.26905e-05 -4.31896e-05 0)
(-6.13716e-05 -4.57947e-05 0)
(-6.00026e-05 -4.83051e-05 0)
(-5.85839e-05 -5.0708e-05 0)
(-5.71161e-05 -5.29906e-05 0)
(-5.56007e-05 -5.51403e-05 0)
(-5.40397e-05 -5.71448e-05 0)
(-5.24357e-05 -5.89922e-05 0)
(-5.0792e-05 -6.06714e-05 0)
(-4.91124e-05 -6.21724e-05 0)
(-4.74013e-05 -6.34859e-05 0)
(-4.56626e-05 -6.46044e-05 0)
(-4.39e-05 -6.55218e-05 0)
(-4.21155e-05 -6.62342e-05 0)
(-4.03095e-05 -6.67402e-05 0)
(-3.84797e-05 -6.70412e-05 0)
(-3.66223e-05 -6.71416e-05 0)
(-3.47322e-05 -6.70479e-05 0)
(-3.28046e-05 -6.67674e-05 0)
(-3.08357e-05 -6.63074e-05 0)
(-2.88235e-05 -6.56736e-05 0)
(-2.67675e-05 -6.487e-05 0)
(-2.46684e-05 -6.38999e-05 0)
(-2.25274e-05 -6.27673e-05 0)
(-2.0346e-05 -6.14765e-05 0)
(-1.81261e-05 -6.00329e-05 0)
(-1.58695e-05 -5.84425e-05 0)
(-1.35784e-05 -5.67125e-05 0)
(-1.12549e-05 -5.48504e-05 0)
(-8.9016e-06 -5.28645e-05 0)
(-6.52103e-06 -5.07632e-05 0)
(-4.116e-06 -4.85555e-05 0)
(-1.68933e-06 -4.62504e-05 0)
(7.55408e-07 -4.38566e-05 0)
(3.21428e-06 -4.13834e-05 0)
(5.68407e-06 -3.88399e-05 0)
(8.16087e-06 -3.62347e-05 0)
(1.06405e-05 -3.35761e-05 0)
(1.31187e-05 -3.08724e-05 0)
(1.55914e-05 -2.81314e-05 0)
(1.80545e-05 -2.5361e-05 0)
(2.0504e-05 -2.25695e-05 0)
(2.29365e-05 -1.97654e-05 0)
(2.53488e-05 -1.69579e-05 0)
(2.77388e-05 -1.41568e-05 0)
(3.01053e-05 -1.1372e-05 0)
(3.24477e-05 -8.6128e-06 0)
(3.47649e-05 -5.88687e-06 0)
(3.70563e-05 -3.1995e-06 0)
(3.93238e-05 -5.55574e-07 0)
(4.15612e-05 2.03825e-06 0)
(4.37593e-05 4.57613e-06 0)
(4.5916e-05 7.05449e-06 0)
(4.80263e-05 9.47158e-06 0)
(5.00859e-05 1.18265e-05 0)
(5.20906e-05 1.41187e-05 0)
(5.40367e-05 1.63476e-05 0)
(5.59203e-05 1.85126e-05 0)
(5.77372e-05 2.06129e-05 0)
(5.94832e-05 2.26477e-05 0)
(6.1154e-05 2.46161e-05 0)
(6.27452e-05 2.65168e-05 0)
(6.4252e-05 2.8349e-05 0)
(6.56693e-05 3.01118e-05 0)
(6.69912e-05 3.18059e-05 0)
(6.82107e-05 3.34371e-05 0)
(6.93182e-05 3.50243e-05 0)
(7.02973e-05 3.66203e-05 0)
(7.1117e-05 3.8353e-05 0)
(7.17128e-05 4.05014e-05 0)
(7.19535e-05 4.36067e-05 0)
(7.15837e-05 4.85796e-05 0)
(7.01512e-05 5.66708e-05 0)
(6.6952e-05 6.90501e-05 0)
(6.10783e-05 8.57092e-05 0)
(5.1698e-05 0.000103733 0)
(3.86595e-05 0.000115882 0)
(2.33181e-05 0.000111551 0)
(9.05912e-06 8.20703e-05 0)
(4.53616e-07 2.92078e-05 0)
(-5.21128e-07 4.02718e-05 0)
(-9.24272e-06 0.000109153 0)
(-2.34814e-05 0.000145878 0)
(-3.86107e-05 0.000149433 0)
(-5.12756e-05 0.000131874 0)
(-6.0196e-05 0.000107233 0)
(-6.55909e-05 8.48552e-05 0)
(-6.83346e-05 6.83917e-05 0)
(-6.93548e-05 5.77383e-05 0)
(-6.93627e-05 5.12988e-05 0)
(-6.88124e-05 4.74007e-05 0)
(-6.79594e-05 4.48316e-05 0)
(-6.69363e-05 4.287e-05 0)
(-6.58089e-05 4.11416e-05 0)
(-6.46111e-05 3.94722e-05 0)
(-6.33618e-05 3.77877e-05 0)
(-6.2074e-05 3.60587e-05 0)
(-6.07574e-05 3.42743e-05 0)
(-5.94208e-05 3.2431e-05 0)
(-5.8072e-05 3.05274e-05 0)
(-5.67183e-05 2.85634e-05 0)
(-5.53666e-05 2.65391e-05 0)
(-5.40234e-05 2.44548e-05 0)
(-5.26948e-05 2.23112e-05 0)
(-5.13869e-05 2.01087e-05 0)
(-5.01049e-05 1.78485e-05 0)
(-4.88541e-05 1.5532e-05 0)
(-4.76394e-05 1.31611e-05 0)
(-4.64653e-05 1.07381e-05 0)
(-4.53361e-05 8.26564e-06 0)
(-4.42556e-05 5.74656e-06 0)
(-4.32272e-05 3.18385e-06 0)
(-4.22534e-05 5.80427e-07 0)
(-4.13384e-05 -2.06109e-06 0)
(-4.04831e-05 -4.74074e-06 0)
(-3.96873e-05 -7.458e-06 0)
(-3.89522e-05 -1.02103e-05 0)
(-3.82789e-05 -1.29937e-05 0)
(-3.76678e-05 -1.58032e-05 0)
(-3.71186e-05 -1.86331e-05 0)
(-3.66313e-05 -2.14773e-05 0)
(-3.62053e-05 -2.43287e-05 0)
(-3.58394e-05 -2.71794e-05 0)
(-3.55319e-05 -3.00206e-05 0)
(-3.52805e-05 -3.28429e-05 0)
(-3.50827e-05 -3.56358e-05 0)
(-3.49359e-05 -3.83884e-05 0)
(-3.4837e-05 -4.10891e-05 0)
(-3.47829e-05 -4.37257e-05 0)
(-3.47703e-05 -4.62857e-05 0)
(-3.4796e-05 -4.87562e-05 0)
(-3.48568e-05 -5.11241e-05 0)
(-3.49496e-05 -5.33762e-05 0)
(-3.50714e-05 -5.54994e-05 0)
(-3.52195e-05 -5.74808e-05 0)
(-3.53912e-05 -5.93081e-05 0)
(-3.55843e-05 -6.09695e-05 0)
(-3.57964e-05 -6.24546e-05 0)
(-3.60254e-05 -6.37547e-05 0)
(-3.62684e-05 -6.48635e-05 0)
(-3.65217e-05 -6.57777e-05 0)
(-3.67797e-05 -6.64973e-05 0)
(-3.70348e-05 -6.70254e-05 0)
(-3.72769e-05 -6.7368e-05 0)
(-3.7494e-05 -6.75322e-05 0)
(-3.76731e-05 -6.75252e-05 0)
(-3.78015e-05 -6.7353e-05 0)
(-3.78677e-05 -6.70193e-05 0)
(-3.78618e-05 -6.65264e-05 0)
(-3.77756e-05 -6.58751e-05 0)
(-3.76023e-05 -6.50668e-05 0)
(-3.73363e-05 -6.41034e-05 0)
(-3.69728e-05 -6.29881e-05 0)
(-3.65078e-05 -6.17252e-05 0)
(-3.59378e-05 -6.03199e-05 0)
(-3.52601e-05 -5.87781e-05 0)
(-3.44725e-05 -5.71066e-05 0)
(-3.35734e-05 -5.53123e-05 0)
(-3.25618e-05 -5.34027e-05 0)
(-3.14374e-05 -5.13856e-05 0)
(-3.02006e-05 -4.92688e-05 0)
(-2.88523e-05 -4.70604e-05 0)
(-2.73943e-05 -4.47681e-05 0)
(-2.58287e-05 -4.23997e-05 0)
(-2.41582e-05 -3.9963e-05 0)
(-2.23864e-05 -3.74655e-05 0)
(-2.05171e-05 -3.49145e-05 0)
(-1.85546e-05 -3.23173e-05 0)
(-1.65037e-05 -2.96815e-05 0)
(-1.43692e-05 -2.7015e-05 0)
(-1.21562e-05 -2.43268e-05 0)
(-9.8695e-06 -2.16266e-05 0)
(-7.51387e-06 -1.89248e-05 0)
(-5.09353e-06 -1.62324e-05 0)
(-2.61239e-06 -1.35595e-05 0)
(-7.42665e-08 -1.09149e-05 0)
(2.51655e-06 -8.30489e-06 0)
(5.15714e-06 -5.73333e-06 0)
(7.84526e-06 -3.20243e-06 0)
(1.0578e-05 -7.13931e-07 0)
(1.33467e-05 1.72841e-06 0)
(1.61457e-05 4.12183e-06 0)
(1.89689e-05 6.46522e-06 0)
(2.18098e-05 8.75832e-06 0)
(2.46615e-05 1.10007e-05 0)
(2.75172e-05 1.31922e-05 0)
(3.03694e-05 1.53323e-05 0)
(3.32107e-05 1.74206e-05 0)
(3.60336e-05 1.94565e-05 0)
(3.88301e-05 2.14395e-05 0)
(4.15922e-05 2.33692e-05 0)
(4.43111e-05 2.52457e-05 0)
(4.69778e-05 2.70717e-05 0)
(4.9582e-05 2.88568e-05 0)
(5.21109e-05 3.0629e-05 0)
(5.45455e-05 3.24621e-05 0)
(5.68521e-05 3.45312e-05 0)
(5.89647e-05 3.72146e-05 0)
(6.07502e-05 4.12441e-05 0)
(6.19508e-05 4.78534e-05 0)
(6.21075e-05 5.87496e-05 0)
(6.04998e-05 7.55736e-05 0)
(5.61855e-05 9.84671e-05 0)
(4.82736e-05 0.000123784 0)
(3.65304e-05 0.000142158 0)
(2.22239e-05 0.000139606 0)
(8.6711e-06 0.000104311 0)
(4.30966e-07 3.77333e-05 0)
(-5.44345e-07 4.94831e-05 0)
(-9.48674e-06 0.000132613 0)
(-2.39886e-05 0.000175245 0)
(-3.92751e-05 0.000176892 0)
(-5.1917e-05 0.000152951 0)
(-6.06373e-05 0.00012092 0)
(-6.57003e-05 9.22847e-05 0)
(-6.80325e-05 7.14068e-05 0)
(-6.86031e-05 5.80087e-05 0)
(-6.81499e-05 5.00067e-05 0)
(-6.71415e-05 4.52633e-05 0)
(-6.58402e-05 4.22399e-05 0)
(-6.43815e-05 4.00234e-05 0)
(-6.28324e-05 3.81405e-05 0)
(-6.12269e-05 3.63701e-05 0)
(-5.95847e-05 3.46174e-05 0)
(-5.79191e-05 3.28442e-05 0)
(-5.62408e-05 3.10356e-05 0)
(-5.45593e-05 2.9186e-05 0)
(-5.28832e-05 2.72929e-05 0)
(-5.12208e-05 2.5355e-05 0)
(-4.95794e-05 2.33717e-05 0)
(-4.79664e-05 2.13422e-05 0)
(-4.63887e-05 1.92663e-05 0)
(-4.48527e-05 1.7144e-05 0)
(-4.3364e-05 1.49753e-05 0)
(-4.19282e-05 1.2761e-05 0)
(-4.055e-05 1.05018e-05 0)
(-3.9234e-05 8.19911e-06 0)
(-3.79837e-05 5.85456e-06 0)
(-3.68026e-05 3.4701e-06 0)
(-3.5693e-05 1.04752e-06 0)
(-3.46566e-05 -1.41143e-06 0)
(-3.36951e-05 -3.90593e-06 0)
(-3.28096e-05 -6.43576e-06 0)
(-3.20014e-05 -8.99965e-06 0)
(-3.12724e-05 -1.15951e-05 0)
(-3.06238e-05 -1.42187e-05 0)
(-3.00565e-05 -1.68662e-05 0)
(-2.9571e-05 -1.95332e-05 0)
(-2.91674e-05 -2.22144e-05 0)
(-2.88451e-05 -2.49041e-05 0)
(-2.86027e-05 -2.75957e-05 0)
(-2.84383e-05 -3.02817e-05 0)
(-2.83494e-05 -3.29535e-05 0)
(-2.83334e-05 -3.56017e-05 0)
(-2.83869e-05 -3.8216e-05 0)
(-2.85063e-05 -4.07853e-05 0)
(-2.86876e-05 -4.32978e-05 0)
(-2.8927e-05 -4.57413e-05 0)
(-2.92204e-05 -4.81029e-05 0)
(-2.95639e-05 -5.03699e-05 0)
(-2.99535e-05 -5.25289e-05 0)
(-3.03853e-05 -5.45665e-05 0)
(-3.08558e-05 -5.64697e-05 0)
(-3.13612e-05 -5.82258e-05 0)
(-3.18981e-05 -5.98232e-05 0)
(-3.24632e-05 -6.12515e-05 0)
(-3.3053e-05 -6.25028e-05 0)
(-3.36635e-05 -6.35723e-05 0)
(-3.42896e-05 -6.44595e-05 0)
(-3.49249e-05 -6.51682e-05 0)
(-3.55605e-05 -6.5706e-05 0)
(-3.61857e-05 -6.60828e-05 0)
(-3.67876e-05 -6.6309e-05 0)
(-3.73523e-05 -6.63925e-05 0)
(-3.7866e-05 -6.63382e-05 0)
(-3.83155e-05 -6.61473e-05 0)
(-3.86891e-05 -6.58188e-05 0)
(-3.8977e-05 -6.53505e-05 0)
(-3.91708e-05 -6.47408e-05 0)
(-3.92632e-05 -6.39895e-05 0)
(-3.92482e-05 -6.30978e-05 0)
(-3.91207e-05 -6.20683e-05 0)
(-3.88762e-05 -6.09046e-05 0)
(-3.8511e-05 -5.96115e-05 0)
(-3.80223e-05 -5.81939e-05 0)
(-3.74076e-05 -5.66577e-05 0)
(-3.66654e-05 -5.50087e-05 0)
(-3.57947e-05 -5.32533e-05 0)
(-3.47953e-05 -5.13978e-05 0)
(-3.36675e-05 -4.94487e-05 0)
(-3.24126e-05 -4.74127e-05 0)
(-3.1032e-05 -4.52962e-05 0)
(-2.95283e-05 -4.31056e-05 0)
(-2.79043e-05 -4.08472e-05 0)
(-2.61636e-05 -3.8527e-05 0)
(-2.43102e-05 -3.61515e-05 0)
(-2.23486e-05 -3.37275e-05 0)
(-2.02837e-05 -3.12623e-05 0)
(-1.81201e-05 -2.87649e-05 0)
(-1.58629e-05 -2.6245e-05 0)
(-1.35167e-05 -2.37135e-05 0)
(-1.10861e-05 -2.11816e-05 0)
(-8.57534e-06 -1.86599e-05 0)
(-5.98859e-06 -1.61576e-05 0)
(-3.32965e-06 -1.36812e-05 0)
(-6.03315e-07 -1.12355e-05 0)
(2.18583e-06 -8.82361e-06 0)
(5.0344e-06 -6.44732e-06 0)
(7.93732e-06 -4.1064e-06 0)
(1.0889e-05 -1.80054e-06 0)
(1.3883e-05 4.69888e-07 0)
(1.6912e-05 2.70442e-06 0)
(1.99689e-05 4.90286e-06 0)
(2.30461e-05 7.06577e-06 0)
(2.61355e-05 9.19342e-06 0)
(2.92288e-05 1.12858e-05 0)
(3.23176e-05 1.33428e-05 0)
(3.53932e-05 1.53646e-05 0)
(3.84464e-05 1.73511e-05 0)
(4.14679e-05 1.93035e-05 0)
(4.44476e-05 2.12262e-05 0)
(4.73747e-05 2.31323e-05 0)
(5.02359e-05 2.50584e-05 0)
(5.30117e-05 2.70987e-05 0)
(5.56682e-05 2.94749e-05 0)
(5.81386e-05 3.26653e-05 0)
(6.02873e-05 3.75951e-05 0)
(6.18504e-05 4.58281e-05 0)
(6.23553e-05 5.95433e-05 0)
(6.10565e-05 8.08777e-05 0)
(5.69727e-05 0.000110153 0)
(4.91636e-05 0.000143014 0)
(3.73549e-05 0.000167947 0)
(2.28161e-05 0.000167513 0)
(8.94527e-06 0.000126619 0)
(4.55537e-07 4.63253e-05 0)
(-5.78827e-07 5.91245e-05 0)
(-9.97909e-06 0.000157053 0)
(-2.51722e-05 0.000205718 0)
(-4.11451e-05 0.000205254 0)
(-5.43131e-05 0.000174581 0)
(-6.33553e-05 0.000134818 0)
(-6.85631e-05 9.9666e-05 0)
(-7.09163e-05 7.42108e-05 0)
(-7.14345e-05 5.79825e-05 0)
(-7.08924e-05 4.83835e-05 0)
(-6.97807e-05 4.27887e-05 0)
(-6.8374e-05 3.93186e-05 0)
(-6.68131e-05 3.68606e-05 0)
(-6.51673e-05 3.48386e-05 0)
(-6.34714e-05 3.29832e-05 0)
(-6.1745e-05 3.11785e-05 0)
(-6.00015e-05 2.93773e-05 0)
(-5.82515e-05 2.75609e-05 0)
(-5.65044e-05 2.57216e-05 0)
(-5.4769e-05 2.38556e-05 0)
(-5.30534e-05 2.19609e-05 0)
(-5.13653e-05 2.00356e-05 0)
(-4.9712e-05 1.80782e-05 0)
(-4.81001e-05 1.60874e-05 0)
(-4.65358e-05 1.40623e-05 0)
(-4.50247e-05 1.20021e-05 0)
(-4.35719e-05 9.90608e-06 0)
(-4.21821e-05 7.77403e-06 0)
(-4.0859e-05 5.60596e-06 0)
(-3.96054e-05 3.40225e-06 0)
(-3.84242e-05 1.16355e-06 0)
(-3.73171e-05 -1.10936e-06 0)
(-3.62853e-05 -3.41604e-06 0)
(-3.53298e-05 -5.7564e-06 0)
(-3.44511e-05 -8.12975e-06 0)
(-3.36497e-05 -1.05347e-05 0)
(-3.29261e-05 -1.29691e-05 0)
(-3.22807e-05 -1.543e-05 0)
(-3.17133e-05 -1.79139e-05 0)
(-3.12235e-05 -2.04172e-05 0)
(-3.08106e-05 -2.2936e-05 0)
(-3.04732e-05 -2.54655e-05 0)
(-3.02093e-05 -2.80005e-05 0)
(-3.00161e-05 -3.05348e-05 0)
(-2.98905e-05 -3.30609e-05 0)
(-2.98289e-05 -3.55702e-05 0)
(-2.98273e-05 -3.80529e-05 0)
(-2.98815e-05 -4.04985e-05 0)
(-2.9987e-05 -4.28955e-05 0)
(-3.01395e-05 -4.52318e-05 0)
(-3.03351e-05 -4.74946e-05 0)
(-3.05695e-05 -4.96707e-05 0)
(-3.08385e-05 -5.17466e-05 0)
(-3.11387e-05 -5.37087e-05 0)
(-3.14668e-05 -5.55435e-05 0)
(-3.182e-05 -5.72379e-05 0)
(-3.21956e-05 -5.87799e-05 0)
(-3.2591e-05 -6.01593e-05 0)
(-3.30038e-05 -6.13688e-05 0)
(-3.34313e-05 -6.24049e-05 0)
(-3.38695e-05 -6.32695e-05 0)
(-3.43132e-05 -6.397e-05 0)
(-3.47551e-05 -6.45183e-05 0)
(-3.51858e-05 -6.49282e-05 0)
(-3.55939e-05 -6.52132e-05 0)
(-3.59668e-05 -6.53827e-05 0)
(-3.62917e-05 -6.54408e-05 0)
(-3.65562e-05 -6.53869e-05 0)
(-3.67495e-05 -6.52169e-05 0)
(-3.68621e-05 -6.49255e-05 0)
(-3.68863e-05 -6.45083e-05 0)
(-3.68157e-05 -6.39624e-05 0)
(-3.66449e-05 -6.3287e-05 0)
(-3.63698e-05 -6.2483e-05 0)
(-3.59864e-05 -6.15527e-05 0)
(-3.5492e-05 -6.04993e-05 0)
(-3.4884e-05 -5.93267e-05 0)
(-3.41605e-05 -5.8039e-05 0)
(-3.33203e-05 -5.66412e-05 0)
(-3.23624e-05 -5.51381e-05 0)
(-3.12866e-05 -5.3535e-05 0)
(-3.00932e-05 -5.18371e-05 0)
(-2.87831e-05 -5.00498e-05 0)
(-2.73574e-05 -4.81783e-05 0)
(-2.58181e-05 -4.62279e-05 0)
(-2.41675e-05 -4.42037e-05 0)
(-2.24084e-05 -4.21107e-05 0)
(-2.05441e-05 -3.99546e-05 0)
(-1.85782e-05 -3.77413e-05 0)
(-1.65145e-05 -3.54782e-05 0)
(-1.43569e-05 -3.31737e-05 0)
(-1.21089e-05 -3.08381e-05 0)
(-9.774e-06 -2.84826e-05 0)
(-7.35581e-06 -2.61183e-05 0)
(-4.85747e-06 -2.37564e-05 0)
(-2.2819e-06 -2.14056e-05 0)
(3.66078e-07 -1.90727e-05 0)
(3.08209e-06 -1.67626e-05 0)
(5.863e-06 -1.4477e-05 0)
(8.70398e-06 -1.22167e-05 0)
(1.15997e-05 -9.98128e-06 0)
(1.45441e-05 -7.76992e-06 0)
(1.75312e-05 -5.58148e-06 0)
(2.05545e-05 -3.4147e-06 0)
(2.36065e-05 -1.26787e-06 0)
(2.66792e-05 8.59473e-07 0)
(2.97644e-05 2.96779e-06 0)
(3.28544e-05 5.05762e-06 0)
(3.59405e-05 7.12978e-06 0)
(3.90137e-05 9.18471e-06 0)
(4.20649e-05 1.1223e-05 0)
(4.50847e-05 1.32467e-05 0)
(4.80633e-05 1.52615e-05 0)
(5.09899e-05 1.72838e-05 0)
(5.38512e-05 1.9359e-05 0)
(5.66278e-05 2.16018e-05 0)
(5.9285e-05 2.42821e-05 0)
(6.17543e-05 2.79815e-05 0)
(6.38949e-05 3.38264e-05 0)
(6.54317e-05 4.37245e-05 0)
(6.58711e-05 6.03482e-05 0)
(6.44324e-05 8.6356e-05 0)
(6.00864e-05 0.000122268 0)
(5.18433e-05 0.000163001 0)
(3.94064e-05 0.000194817 0)
(2.40952e-05 0.000196669 0)
(9.47062e-06 0.000149999 0)
(4.91156e-07 5.53789e-05 0)
(-6.15362e-07 6.93265e-05 0)
(-1.05751e-05 0.000182858 0)
(-2.66514e-05 0.000237846 0)
(-4.354e-05 0.000235123 0)
(-5.74555e-05 0.00019734 0)
(-6.70086e-05 0.000149429 0)
(-7.25118e-05 0.000107422 0)
(-7.50023e-05 7.71598e-05 0)
(-7.55588e-05 5.79675e-05 0)
(-7.50008e-05 4.67043e-05 0)
(-7.38479e-05 4.0231e-05 0)
(-7.23906e-05 3.63084e-05 0)
(-7.0778e-05 3.36131e-05 0)
(-6.9083e-05 3.146e-05 0)
(-6.7342e-05 2.95287e-05 0)
(-6.55753e-05 2.7681e-05 0)
(-6.37965e-05 2.58607e-05 0)
(-6.20161e-05 2.40451e-05 0)
(-6.02434e-05 2.22245e-05 0)
(-5.84869e-05 2.03941e-05 0)
(-5.67547e-05 1.85505e-05 0)
(-5.50546e-05 1.66912e-05 0)
(-5.33934e-05 1.48137e-05 0)
(-5.17777e-05 1.29155e-05 0)
(-5.02133e-05 1.09946e-05 0)
(-4.87059e-05 9.04886e-06 0)
(-4.72601e-05 7.07651e-06 0)
(-4.58803e-05 5.07599e-06 0)
(-4.45697e-05 3.04604e-06 0)
(-4.33307e-05 9.85695e-07 0)
(-4.21654e-05 -1.10582e-06 0)
(-4.10753e-05 -3.22924e-06 0)
(-4.00612e-05 -5.38527e-06 0)
(-3.91231e-05 -7.57416e-06 0)
(-3.82603e-05 -9.79575e-06 0)
(-3.74723e-05 -1.20492e-05 0)
(-3.67578e-05 -1.4333e-05 0)
(-3.61156e-05 -1.66444e-05 0)
(-3.55441e-05 -1.89807e-05 0)
(-3.50416e-05 -2.1339e-05 0)
(-3.46057e-05 -2.3716e-05 0)
(-3.42338e-05 -2.61082e-05 0)
(-3.39227e-05 -2.85116e-05 0)
(-3.36687e-05 -3.09211e-05 0)
(-3.34676e-05 -3.33301e-05 0)
(-3.33145e-05 -3.57306e-05 0)
(-3.32046e-05 -3.81136e-05 0)
(-3.31331e-05 -4.04685e-05 0)
(-3.30949e-05 -4.27839e-05 0)
(-3.30851e-05 -4.50476e-05 0)
(-3.30993e-05 -4.72463e-05 0)
(-3.31332e-05 -4.93661e-05 0)
(-3.31831e-05 -5.13929e-05 0)
(-3.32459e-05 -5.33124e-05 0)
(-3.33193e-05 -5.51099e-05 0)
(-3.34012e-05 -5.67716e-05 0)
(-3.34902e-05 -5.82848e-05 0)
(-3.35853e-05 -5.96388e-05 0)
(-3.36858e-05 -6.08265e-05 0)
(-3.37911e-05 -6.18456e-05 0)
(-3.38992e-05 -6.27005e-05 0)
(-3.40069e-05 -6.34018e-05 0)
(-3.41091e-05 -6.39655e-05 0)
(-3.41983e-05 -6.44098e-05 0)
(-3.42649e-05 -6.47515e-05 0)
(-3.42976e-05 -6.50017e-05 0)
(-3.42851e-05 -6.51644e-05 0)
(-3.42164e-05 -6.52369e-05 0)
(-3.40821e-05 -6.52123e-05 0)
(-3.38741e-05 -6.50821e-05 0)
(-3.35864e-05 -6.48388e-05 0)
(-3.32141e-05 -6.44771e-05 0)
(-3.27535e-05 -6.39942e-05 0)
(-3.22019e-05 -6.33897e-05 0)
(-3.15568e-05 -6.26644e-05 0)
(-3.08164e-05 -6.18204e-05 0)
(-2.99791e-05 -6.08608e-05 0)
(-2.90439e-05 -5.97889e-05 0)
(-2.801e-05 -5.86085e-05 0)
(-2.68769e-05 -5.73238e-05 0)
(-2.56444e-05 -5.59392e-05 0)
(-2.43127e-05 -5.44589e-05 0)
(-2.28823e-05 -5.28875e-05 0)
(-2.13542e-05 -5.12292e-05 0)
(-1.97294e-05 -4.94885e-05 0)
(-1.80097e-05 -4.76694e-05 0)
(-1.61969e-05 -4.57763e-05 0)
(-1.42934e-05 -4.38142e-05 0)
(-1.23015e-05 -4.17888e-05 0)
(-1.02235e-05 -3.97072e-05 0)
(-8.06192e-06 -3.7578e-05 0)
(-5.81874e-06 -3.54122e-05 0)
(-3.49506e-06 -3.32212e-05 0)
(-1.09358e-06 -3.10158e-05 0)
(1.38308e-06 -2.88068e-05 0)
(3.93356e-06 -2.6603e-05 0)
(6.55472e-06 -2.44102e-05 0)
(9.24268e-06 -2.22316e-05 0)
(1.19932e-05 -2.00685e-05 0)
(1.48016e-05 -1.79206e-05 0)
(1.76628e-05 -1.57864e-05 0)
(2.0571e-05 -1.36639e-05 0)
(2.35196e-05 -1.1551e-05 0)
(2.65017e-05 -9.44586e-06 0)
(2.951e-05 -7.34669e-06 0)
(3.25373e-05 -5.25187e-06 0)
(3.55759e-05 -3.15975e-06 0)
(3.86171e-05 -1.06855e-06 0)