/*--------------------------------*- C++ -*----------------------------------*\
| =========                 |                                                 |
| \\      /  F ield         | OpenFOAM: The Open Source CFD Toolbox           |
|  \\    /   O peration     | Version:  2206                                  |
|   \\  /    A nd           | Website:  www.openfoam.com                      |
|    \\/     M anipulation  |                                                 |
\*---------------------------------------------------------------------------*/
FoamFile
{
    version     2.0;
    format      ascii;
    arch        "LSB;label=64;scalar=64";
    class       volScalarField;
    location    "0.7/water";
    object      epsilon.gas;
}
// * * * * * * * * * * * * * * * * * * * * * * * * * * * * * * * * * * * * * //

dimensions      [0 2 -3 0 0 0 0];

internalField   nonuniform List<scalar> 
23300
(
4.81069946828e-05
7.53897160105e-05
0.000119851486526
0.000177694243182
0.000247880973795
0.000329988319177
0.000423743029102
0.000528917789688
0.000645335840702
0.000772831841158
0.000911279312058
0.00106054474451
0.0012205246577
0.00139109266648
0.00157214417579
0.00176353768213
0.00196514653637
0.002176794569
0.00239831526718
0.00262948107777
0.00287007080552
0.00311979180789
0.00337835640248
0.00364539639213
0.00392054900893
0.00420336350975
0.00449339688974
0.0047901126392
0.00509298618669
0.00540139618828
0.00571473936112
0.00603231484166
0.00635344762669
0.00667736651147
0.00700333489626
0.00733052297743
0.00765814450174
0.00798532429776
0.00831123966045
0.0086349847205
0.00895571506301
0.0092725104357
0.00958452092909
0.00989082940462
0.010190597476
0.0104829290564
0.0107670146527
0.0110419974888
0.011307114815
0.0115615677954
0.011804658499
0.012035664209
0.0122539687352
0.0124589412011
0.0126500603446
0.0128267971987
0.012988730963
0.013135434452
0.0132665804762
0.0133818294545
0.0134809269096
0.0135635944213
0.013629620865
0.0136787577258
0.013710802968
0.0137254913662
0.0137225507635
0.0137015488932
0.0136618707689
0.0136024631317
0.0135218428855
0.0134241183396
0.0133112527231
0.0131839049857
0.0130426204538
0.0128879219122
0.0127204000418
0.0125406394651
0.012349283589
0.012146961069
0.0119343486153
0.0117121009587
0.011480911697
0.0112414467022
0.0109944027324
0.0107404442985
0.0104802598394
0.0102145021308
0.00994384186041
0.00966891165914
0.00939035694084
0.00910878361869
0.00882480609573
0.00853899869109
0.00825194069421
0.00796417149898
0.00767623265432
0.00738862667408
0.00710185603937
0.00681638563631
0.00653267868619
0.00625116272731
0.00597226248114
0.00569636927537
0.00542387087497
0.00515512421574
0.0048904822608
0.00463026989861
0.00437480790312
0.00412439183891
0.00387931321983
0.00363984124774
0.00340624128348
0.00317875922963
0.00295763743649
0.00274310152792
0.00253537387007
0.00233466262066
0.00214117289362
0.00195509778696
0.00177662737742
0.00160594145674
0.00144321648828
0.00128861977112
0.00114231451426
0.00100445520383
0.000875191088762
0.000754662764366
0.000643004750023
0.00054034379565
0.000446801667633
0.000362495521217
0.000287540202534
0.000222045907935
0.000166109131627
0.000119788696501
8.30715886757e-05
5.59096222785e-05
3.87373859343e-05
3.30765779118e-05
2.63237688484e-05
3.1925817295e-05
4.08451045159e-05
5.23410760271e-05
6.62727667834e-05
8.26390296357e-05
0.000101469758645
0.000122796594971
0.000146647466419
0.000173040320656
0.000201984056434
0.000233473462062
0.000267491582229
0.000304004741433
0.000342965994958
0.000384310156305
0.000427958171114
0.000473812055836
0.000521760113839
0.00057167169935
0.000623403256883
0.000676792847146
0.000731667001127
0.000787834969784
0.000845096376543
0.000903235182654
0.000962028126938
0.00102123847014
0.0010806252394
0.00113993686009
0.00119892116796
0.00125731895207
0.00131487449885
0.00137132889208
0.00142643071135
0.00147992896663
0.00153158370942
0.00158115870951
0.0016284319254
0.00167318812881
0.00171522912942
0.00175436641082
0.00179043088226
0.00182326556
0.00185273472134
0.00187871680974
0.00190111302325
0.00191984064571
0.0019348410216
0.0019460732868
0.00195352148403
0.00195718849274
0.00195710201063
0.00195330848944
0.00194587781727
0.0019348971745
0.00192047446814
0.00190273234178
0.00188181098612
0.00185786331364
0.00183105871768
0.00180158133908
0.00176963710279
0.0017354574964
0.00169931253034
0.00166152292509
0.00162248388665
0.00158269774345
0.00154282266654
0.00150371004162
0.00146733863577
0.00143116171548
0.00139434832482
0.00135701299589
0.00131928508997
0.00128127886266
0.00124309961908
0.00120484263
0.0011665970741
0.00112844401025
0.00109045958142
0.00105271287416
0.00101526875789
0.000978185813175
0.000941518922992
0.000905317327339
0.000869627010867
0.000834488900251
0.000799941065635
0.00076601706084
0.000732747946437
0.000700160767909
0.000668280405267
0.00063712818234
0.000606723548174
0.000577082811269
0.000548220659052
0.000520149010814
0.000492878382582
0.000466416852926
0.00044077128106
0.000415946379244
0.000391945792438
0.000368771271413
0.000346423622796
0.000324901977028
0.000304204618177
0.000284328341298
0.000265269171522
0.000247021805077
0.00022958022699
0.000212937229863
0.000197084939162
0.000182014403377
0.000167716035428
0.000154179267567
0.000141392916849
0.00012934489752
0.000118022517627
0.000107412240903
9.74999203767e-05
8.82706005934e-05
7.9708692504e-05
7.1797805606e-05
6.45208666897e-05
5.78599704627e-05
5.17964432445e-05
4.63107012885e-05
4.13822653777e-05
3.69896430268e-05
3.3110405993e-05
2.97214993536e-05
2.68008334004e-05
2.43330008921e-05
2.23297551862e-05
2.09047411343e-05
2.05687829397e-05
2.35310707803e-05
3.9401262079e-05
9.81291321202e-05
1.93979127307e-05
2.09812246198e-05
2.3368272725e-05
2.63526583756e-05
2.98970507473e-05
3.4001489883e-05
3.86732098178e-05
4.39183373215e-05
4.97403219437e-05
5.61379983687e-05
6.31056691658e-05
7.06315664022e-05
7.86982941295e-05
8.72814936465e-05
9.63506310887e-05
0.000105867881727
0.000115789269934
0.000126063751667
0.000136634690714
0.000147439109013
0.0001584094702
0.000169473055095
0.000180554004493
0.000191572763339
0.000202448315311
0.000213097639707
0.000223438078396
0.000233386782215
0.000242863178492
0.000251788409424
0.000260087855141
0.000267690523418
0.000274531509636
0.000280551241724
0.000285697741882
0.000289925673009
0.000293198345716
0.000295486596952
0.000296770537526
0.000297038293414
0.000296287456866
0.000294523686312
0.000291761829061
0.000288024416329
0.000283342501277
0.000277754149831
0.000271305079029
0.000264047231987
0.000256039269709
0.000247345273388
0.00023803512261
0.000228183351806
0.000217869436192
0.00020717678262
0.000196192867044
0.000185008229878
0.000173716318832
0.000162412337369
0.000151192761327
0.000140154176043
0.000129392902925
0.000119004545312
0.000109084722365
9.97303996274e-05
9.10428402377e-05
8.31320930976e-05
7.6123941397e-05
7.01647885082e-05
6.54152362904e-05
6.2155788041e-05
5.97602299164e-05
5.74616448242e-05
5.52475701398e-05
5.31182995885e-05
5.10738147246e-05
4.9113483303e-05
4.7236262684e-05
4.54407046835e-05
4.37251151505e-05
4.20875358716e-05
4.05258741615e-05
3.90378728601e-05
3.762121833e-05
3.62735034391e-05
3.4992319118e-05
3.37752133257e-05
3.26197697081e-05
3.1523564442e-05
3.04842345048e-05
2.94994336425e-05
2.85668921677e-05
2.76843729218e-05
2.68497241037e-05
2.6060835861e-05
2.5315687401e-05
2.4612304676e-05
2.39488027863e-05
2.3323345081e-05
2.27341816888e-05
2.21796102358e-05
2.16580111655e-05
2.11678101924e-05
2.07075109654e-05
2.02756593224e-05
1.98708737464e-05
1.94918114501e-05
1.91371969999e-05
1.88057902266e-05
1.84964132999e-05
1.82079204309e-05
1.7939223612e-05
1.76892640571e-05
1.74570367514e-05
1.72415635667e-05
1.70419167186e-05
1.6857193499e-05
1.66865386848e-05
1.65291208395e-05
1.63841536724e-05
1.62508738603e-05
1.61285612672e-05
1.60165181495e-05
1.59140878825e-05
1.58206349732e-05
1.57355610524e-05
1.56582838272e-05
1.55882476529e-05
1.5524900815e-05
1.54677122128e-05
1.54162101603e-05
1.53702493314e-05
1.53309607841e-05
1.53041140088e-05
1.5311534305e-05
1.54308881592e-05
1.59428759115e-05
1.79371875339e-05
2.61801653901e-05
6.34199675629e-05
0.000218745678517
1.7128792781e-05
1.76612468798e-05
1.8422437563e-05
1.93448503249e-05
2.04169467054e-05
2.16369134908e-05
2.30044363902e-05
2.45180941291e-05
2.61751305124e-05
2.79706530356e-05
2.98978577378e-05
3.19474591587e-05
3.41080418971e-05
3.63656378053e-05
3.8704208889e-05
4.11053574494e-05
4.35489282597e-05
4.6012831882e-05
4.84737526398e-05
5.09070620517e-05
5.32876119287e-05
5.55897066334e-05
5.77879463668e-05
5.98572166047e-05
6.1773535797e-05
6.35140208111e-05
6.50577003115e-05
6.638543421e-05
6.74806724259e-05
6.83293203598e-05
6.89204206286e-05
6.92459429077e-05
6.93013469036e-05
6.90852652288e-05
6.85999141841e-05
6.78506646971e-05
6.68463023957e-05
6.55985097175e-05
6.41219914737e-05
6.24338902555e-05
6.05537898712e-05
5.8503085612e-05
5.63048910814e-05
5.39834035028e-05
5.15637601117e-05
4.90714463281e-05
4.65321439796e-05
4.39712118849e-05
4.14135474115e-05
3.88831469812e-05
3.64029853565e-05
3.39946453168e-05
3.16781995825e-05
2.94718758794e-05
2.73919079976e-05
2.54521984692e-05
2.36641283564e-05
2.2036237269e-05
2.05740714806e-05
1.92800098031e-05
1.81533280882e-05
1.71903513957e-05
1.6384883258e-05
1.57287526885e-05
1.5212616966e-05
1.48268576495e-05
1.45624320037e-05
1.44112172039e-05
1.43696624613e-05
1.43625563277e-05
1.43602759433e-05
1.43611790529e-05
1.43649855535e-05
1.43714409696e-05
1.43803183455e-05
1.43913896789e-05
1.44044471302e-05
1.44192786758e-05
1.4435691128e-05
1.44534870941e-05
1.44724884256e-05
1.44925134939e-05
1.45134006032e-05
1.45349852537e-05
1.4557123403e-05
1.45796686188e-05
1.46024951785e-05
1.46254750995e-05
1.464850109e-05
1.46714634751e-05
1.4694273011e-05
1.47168377385e-05
1.47390856696e-05
1.47609416049e-05
1.47823496941e-05
1.48032502597e-05
1.48236022298e-05
1.48433600092e-05
1.48624957776e-05
1.48809764525e-05
1.48987858434e-05
1.49159017478e-05
1.49323179457e-05
1.4948021475e-05
1.49630144435e-05
1.49772915297e-05
1.49908615839e-05
1.50037254021e-05
1.50158970809e-05
1.50273821168e-05
1.50381984668e-05
1.50483550324e-05
1.50578723711e-05
1.50667616286e-05
1.50750448319e-05
1.50827343479e-05
1.5089852674e-05
1.50964125093e-05
1.51024359355e-05
1.51079351866e-05
1.51129310511e-05
1.51174343523e-05
1.51214631969e-05
1.51250248452e-05
1.51281308696e-05
1.51307786139e-05
1.51329641341e-05
1.51346699523e-05
1.51359078258e-05
1.51368359855e-05
1.51382551234e-05
1.51432574891e-05
1.5162789571e-05
1.52343479772e-05
1.5487499289e-05
1.63911390035e-05
1.98020512836e-05
3.4098458665e-05
0.000100522122941
0.000388324458297
1.63180934329e-05
1.6515465402e-05
1.67838668288e-05
1.70999424746e-05
1.74602048325e-05
1.7863277407e-05
1.83079349598e-05
1.87922110352e-05
1.93136129093e-05
1.98686979247e-05
2.04533616907e-05
2.10625235425e-05
2.1690449248e-05
2.23305324373e-05
2.2975646514e-05
2.36180014819e-05
2.42495213282e-05
2.48617551492e-05
2.54462717896e-05
2.59946066046e-05
2.64986601922e-05
2.69506591331e-05
2.73435389223e-05
2.76708939692e-05
2.79273221582e-05
2.81083435529e-05
2.8210691565e-05
2.82321925615e-05
2.8172000023e-05
2.8030435587e-05
2.78091637878e-05
2.7510991739e-05
2.71399777727e-05
2.67011872052e-05
2.62007354506e-05
2.56455095523e-05
2.50431596975e-05
2.44018050474e-05
2.37299912017e-05
2.30363972522e-05
2.23297749121e-05
2.16186728719e-05
2.09113756689e-05
2.02156634453e-05
1.95387692211e-05
1.88871880613e-05
1.82666642498e-05
1.7682054319e-05
1.71373470169e-05
1.663557762e-05
1.61788788468e-05
1.57684403388e-05
1.5404586102e-05
1.50867717873e-05
1.48136851373e-05
1.45832777169e-05
1.43928910217e-05
1.42393258621e-05
1.41189995598e-05
1.40280520362e-05
1.39625255551e-05
1.39184843772e-05
1.38921827412e-05
1.388015549e-05
1.3879335495e-05
1.38870853409e-05
1.39012536086e-05
1.39201665439e-05
1.39417237163e-05
1.39651112328e-05
1.39901424372e-05
1.40166579913e-05
1.4044508536e-05
1.40735354472e-05
1.4103595411e-05
1.41345377121e-05
1.41662270782e-05
1.41985208649e-05
1.42312920008e-05
1.42644064894e-05
1.42977464755e-05
1.43311878714e-05
1.4364623447e-05
1.43979404265e-05
1.44310435355e-05
1.44638324906e-05
1.44962249706e-05
1.45281339734e-05
1.45594906948e-05
1.45902217584e-05
1.46202719948e-05
1.4649581568e-05
1.46781086481e-05
1.47058064704e-05
1.47326458951e-05
1.47585924404e-05
1.47836287223e-05
1.48077315055e-05
1.48308940143e-05
1.48531030486e-05
1.48743611519e-05
1.48946638386e-05
1.49140216039e-05
1.49324373092e-05
1.49499280107e-05
1.49665025515e-05
1.49821831796e-05
1.49969833993e-05
1.50109293387e-05
1.50240379163e-05
1.50363379112e-05
1.50478485056e-05
1.50585999994e-05
1.50686127981e-05
1.50779176998e-05
1.50865354104e-05
1.50944963145e-05
1.51018206096e-05
1.51085374496e-05
1.51146657897e-05
1.51202327296e-05
1.51252550948e-05
1.51297566322e-05
1.51337501109e-05
1.51372527412e-05
1.51402689383e-05
1.51428066117e-05
1.51448754909e-05
1.51465606008e-05
1.51482318901e-05
1.51513187889e-05
1.51608212457e-05
1.51936239859e-05
1.53064089135e-05
1.56942460103e-05
1.7068673568e-05
2.22959709722e-05
4.45810824396e-05
0.000149219014616
0.000601060246533
1.60089437315e-05
1.60873820178e-05
1.61888331616e-05
1.63049580333e-05
1.6434961174e-05
1.65780132331e-05
1.6733149054e-05
1.68988776132e-05
1.70735609298e-05
1.72551010971e-05
1.74412540983e-05
1.76293922893e-05
1.78167921631e-05
1.80004526095e-05
1.81773713413e-05
1.83444027707e-05
1.84985213327e-05
1.86367065949e-05
1.87561924383e-05
1.88543677143e-05
1.89290070668e-05
1.89781746185e-05
1.90004286582e-05
1.89947159929e-05
1.8960542684e-05
1.88978510309e-05
1.88071537452e-05
1.86893931652e-05
1.85460422534e-05
1.83789499777e-05
1.81904132626e-05
1.79830115546e-05
1.7759652637e-05
1.75234001695e-05
1.72774994391e-05
1.70252061955e-05
1.67698025431e-05
1.6514437315e-05
1.62621420114e-05
1.60156908292e-05
1.57776242544e-05
1.55501347379e-05
1.53351040044e-05
1.51340183482e-05
1.49480229591e-05
1.47778668189e-05
1.46239728537e-05
1.44864080058e-05
1.4364964537e-05
1.42591484847e-05
1.41682661441e-05
1.40914236337e-05
1.4027612649e-05
1.39757144932e-05
1.39345802352e-05
1.39030339838e-05
1.38799438902e-05
1.38642203929e-05
1.38548746955e-05
1.38510074369e-05
1.38518509299e-05
1.38567443555e-05
1.38651584156e-05
1.3876657723e-05
1.38909119247e-05
1.39076500923e-05
1.39266680624e-05
1.3947659313e-05
1.39704810531e-05
1.3994990547e-05
1.40210514284e-05
1.40485108434e-05
1.40772255848e-05
1.4107041075e-05
1.41378160904e-05
1.41694005942e-05
1.42016593474e-05
1.42344494761e-05
1.42676437945e-05
1.43011083678e-05
1.43347257554e-05
1.43683725593e-05
1.4401942618e-05
1.44353244831e-05
1.44684245506e-05
1.45011444227e-05
1.45334039578e-05
1.45651185041e-05
1.45962218536e-05
1.46266433557e-05
1.46563307655e-05
1.46852272632e-05
1.47132941881e-05
1.4740488e-05
1.47667828927e-05
1.47921477388e-05
1.48165685757e-05
1.48400255795e-05
1.48625154144e-05
1.48840282816e-05
1.49045701207e-05
1.4924139781e-05
1.49427510575e-05
1.49604100322e-05
1.49771369227e-05
1.49929436422e-05
1.50078554308e-05
1.50218886856e-05
1.50350723356e-05
1.5047425999e-05
1.5058981052e-05
1.50697591756e-05
1.5079793058e-05
1.50891054027e-05
1.50977291898e-05
1.51056872283e-05
1.51130118861e-05
1.51197252823e-05
1.5125858368e-05
1.51314318552e-05
1.51364744737e-05
1.51410046732e-05
1.51450477324e-05
1.51486181334e-05
1.51517352428e-05
1.51544075845e-05
1.51566530258e-05
1.51585096886e-05
1.51601462991e-05
1.51621836736e-05
1.51668084943e-05
1.51813392594e-05
1.52299266917e-05
1.5392890287e-05
1.59466837372e-05
1.79076164063e-05
2.54271685761e-05
5.78924403615e-05
0.000210020615176
0.000853117330933
1.58831239518e-05
1.59168646364e-05
1.59582906197e-05
1.60043236261e-05
1.60550280614e-05
1.61098664125e-05
1.61681519652e-05
1.62287815957e-05
1.62906565834e-05
1.63524203673e-05
1.64127762636e-05
1.6470260788e-05
1.65235170259e-05
1.6571108234e-05
1.6611753271e-05
1.66441669939e-05
1.66672675063e-05
1.66800339925e-05
1.6681691378e-05
1.66715791708e-05
1.66493151245e-05
1.6614668388e-05
1.6567701021e-05
1.65086396106e-05
1.64379936954e-05
1.63564232461e-05
1.62648359183e-05
1.61642520067e-05
1.60558850646e-05
1.59410078898e-05
1.58210209481e-05
1.5697322354e-05
1.55713676e-05
1.5444546516e-05
1.53182384632e-05
1.51937003164e-05
1.50721218128e-05
1.49545282135e-05
1.48418391482e-05
1.47347876879e-05
1.46339840455e-05
1.45398509677e-05
1.44526920637e-05
1.43726418378e-05
1.42997368234e-05
1.4233876968e-05
1.41748964168e-05
1.41225320636e-05
1.40764905584e-05
1.4036420114e-05
1.40019710468e-05
1.39727679109e-05
1.39484620182e-05
1.39287021554e-05
1.39131787254e-05
1.39015924366e-05
1.38936907324e-05
1.38892347248e-05
1.3888029293e-05
1.38898891264e-05
1.3894664323e-05
1.39022067887e-05
1.39123934263e-05
1.39250944119e-05
1.39401971837e-05
1.39575857186e-05
1.39770941391e-05
1.39984891456e-05
1.40216741469e-05
1.40465024867e-05
1.40728361138e-05
1.41005218002e-05
1.41294164603e-05
1.41593652938e-05
1.41902263565e-05
1.42218483699e-05
1.4254094667e-05
1.42868208159e-05
1.43198982539e-05
1.43531918157e-05
1.43865832088e-05
1.44199484544e-05
1.4453181258e-05
1.44861703413e-05
1.45188227172e-05
1.45510408945e-05
1.45827460513e-05
1.46138551106e-05
1.46443038022e-05
1.46740236247e-05
1.47029647878e-05
1.47310730896e-05
1.47583127315e-05
1.47846431503e-05
1.48100416992e-05
1.48344804785e-05
1.48579488773e-05
1.48804304474e-05
1.49019252992e-05
1.49224270664e-05
1.49419451438e-05
1.49604817901e-05
1.49780541927e-05
1.49946717552e-05
1.50103579676e-05
1.50251279268e-05
1.5039009982e-05
1.50520235406e-05
1.50642004483e-05
1.50755631374e-05
1.50861456905e-05
1.5095972396e-05
1.51050784314e-05
1.51134888989e-05
1.5121239053e-05
1.51283539008e-05
1.51348678789e-05
1.51408051187e-05
1.51461984501e-05
1.51510704325e-05
1.51554515064e-05
1.51593618402e-05
1.516282834e-05
1.51658673461e-05
1.51685006427e-05
1.51707415555e-05
1.51726198878e-05
1.51742080941e-05
1.51757763332e-05
1.51782494257e-05
1.51847313675e-05
1.52053497675e-05
1.52730703064e-05
1.54969717982e-05
1.62530386024e-05
1.89333658187e-05
2.92914200657e-05
7.44123488931e-05
0.00028349637506
0.00114201469504
1.58263278193e-05
1.58429105209e-05
1.58623992562e-05
1.58835807787e-05
1.59067365941e-05
1.59314367457e-05
1.59571236754e-05
1.59828709689e-05
1.60078325947e-05
1.60309791525e-05
1.60514221124e-05
1.60681933685e-05
1.60805031309e-05
1.60875467411e-05
1.60887197031e-05
1.6083442857e-05
1.60713442508e-05
1.60520997917e-05
1.6025591352e-05
1.59917597098e-05
1.59507438149e-05
1.59027419329e-05
1.58481339094e-05
1.57873472028e-05
1.57209637181e-05
1.56495897329e-05
1.55739501493e-05
1.54947636385e-05
1.54128279813e-05
1.53289024983e-05
1.52437875223e-05
1.5158215583e-05
1.50729270644e-05
1.49885712064e-05
1.49057796588e-05
1.48250782736e-05
1.47469598527e-05
1.46718070466e-05
1.45999645885e-05
1.45316725627e-05
1.44671374431e-05
1.44064742153e-05
1.43497749702e-05
1.42970579399e-05
1.42483321435e-05
1.42035512695e-05
1.41626729987e-05
1.4125615975e-05
1.40923129885e-05
1.40626699127e-05
1.40366126601e-05
1.40140476095e-05
1.39949028563e-05
1.39790901278e-05
1.39665412601e-05
1.39571718892e-05
1.39509143027e-05
1.39476833102e-05
1.3947406639e-05
1.39499933232e-05
1.3955362657e-05
1.39634152561e-05
1.39740610657e-05
1.3987191728e-05
1.40027062303e-05
1.40204891453e-05
1.40403186665e-05
1.40620188859e-05
1.40854707796e-05
1.41105238044e-05
1.41370365105e-05
1.41648531858e-05
1.41938287965e-05
1.42238066493e-05
1.42546429749e-05
1.42861845633e-05
1.43182929427e-05
1.43508219121e-05
1.43836414441e-05
1.44166151052e-05
1.44496237739e-05
1.44825429386e-05
1.4515266276e-05
1.45476828131e-05
1.45797003797e-05
1.46112226304e-05
1.46421723698e-05
1.46724684438e-05
1.47020489312e-05
1.47308479279e-05
1.47588185981e-05
1.47859098862e-05
1.48120894225e-05
1.48373202049e-05
1.4861583355e-05
1.48848548152e-05
1.49071279519e-05
1.49283903149e-05
1.49486460822e-05
1.49678929293e-05
1.49861443055e-05
1.50034064603e-05
1.50197005373e-05
1.50350398044e-05
1.5049451543e-05
1.50629545304e-05
1.50755806951e-05
1.50873529016e-05
1.50983063312e-05
1.5108466627e-05
1.51178709469e-05
1.51265465337e-05
1.51345313751e-05
1.5141853273e-05
1.51485500315e-05
1.51546491129e-05
1.51601872549e-05
1.51651908164e-05
1.51696946962e-05
1.5173723473e-05
1.51773094437e-05
1.51804746238e-05
1.51832476613e-05
1.51856468983e-05
1.51876968234e-05
1.51894163844e-05
1.5190849768e-05
1.51921110698e-05
1.51935934449e-05
1.51965891626e-05
1.52053077549e-05
1.52332551669e-05
1.53239898167e-05
1.5621186851e-05
1.66209795521e-05
2.01722267211e-05
3.39940735599e-05
9.45442418464e-05
0.000370111601387
0.00146588416672
1.5795118075e-05
1.58053397371e-05
1.58172896583e-05
1.583042373e-05
1.58450387623e-05
1.58606861284e-05
1.58768203028e-05
1.58925486177e-05
1.59070820801e-05
1.59194863617e-05
1.59290087646e-05
1.59348497881e-05
1.59364231658e-05
1.59331530728e-05
1.5924679648e-05
1.5910674073e-05
1.58910085833e-05
1.586558734e-05
1.58344939951e-05
1.57978371116e-05
1.57558816796e-05
1.57089059848e-05
1.56573196996e-05
1.56015295073e-05
1.55420458155e-05
1.54793562398e-05
1.54140234992e-05
1.53465672981e-05
1.52775559928e-05
1.52074976614e-05
1.5136927336e-05
1.50663075321e-05
1.49961119317e-05
1.49267352117e-05
1.48585735601e-05
1.47919434154e-05
1.4727158812e-05
1.46644583107e-05
1.46040787421e-05
1.45461892752e-05
1.44909608796e-05
1.44385063641e-05
1.43889448994e-05
1.43423469427e-05
1.42987933661e-05
1.42583244033e-05
1.42209932658e-05
1.41868185632e-05
1.41558326665e-05
1.41280373311e-05
1.41034473418e-05
1.40820492097e-05
1.40638407535e-05
1.40487927721e-05
1.40368852586e-05
1.40280719545e-05
1.40223139062e-05
1.40195468034e-05
1.40197125546e-05
1.40227292786e-05
1.40285215578e-05
1.40369930246e-05
1.40480555571e-05
1.40616022049e-05
1.40775313832e-05
1.40957206783e-05
1.4115895992e-05
1.41379118109e-05
1.41616337128e-05
1.41869067341e-05
1.42135853832e-05
1.42415103602e-05
1.42705335486e-05
1.43004953742e-05
1.43312495231e-05
1.43626403637e-05
1.43945273618e-05
1.44267624432e-05
1.44592141638e-05
1.449174496e-05
1.45242351238e-05
1.45565599144e-05
1.45886133659e-05
1.46202852487e-05
1.46514847201e-05
1.46821171382e-05
1.47121075553e-05
1.47413774019e-05
1.47698678191e-05
1.47975162436e-05
1.48242795757e-05
1.48501107051e-05
1.48749815125e-05
1.48988593826e-05
1.49217300383e-05
1.49435740894e-05
1.4964389698e-05
1.49841692124e-05
1.500292166e-05
1.50206495144e-05
1.50373710082e-05
1.505309708e-05
1.50678534946e-05
1.50816580148e-05
1.50945423084e-05
1.51065293932e-05
1.51176552991e-05
1.51279468372e-05
1.51374429757e-05
1.51461729894e-05
1.51541774959e-05
1.51614870495e-05
1.51681427701e-05
1.51741754576e-05
1.51796257307e-05
1.51845237509e-05
1.51889087688e-05
1.51928095623e-05
1.51962632591e-05
1.5199296596e-05
1.52019438338e-05
1.52042289266e-05
1.52061823405e-05
1.52078245506e-05
1.52091830843e-05
1.52102835354e-05
1.52111875316e-05
1.52120597817e-05
1.52134423911e-05
1.52170702299e-05
1.52284781016e-05
1.52652070271e-05
1.53834411393e-05
1.57680823934e-05
1.70587945718e-05
2.16535457047e-05
3.9654260014e-05
0.000118710942773
0.000470219342525
0.00182315122957
1.57719976356e-05
1.57803286976e-05
1.5790532293e-05
1.58023150212e-05
1.58159173249e-05
1.58308174104e-05
1.58463965124e-05
1.58616891747e-05
1.58758585279e-05
1.58879347261e-05
1.58971532067e-05
1.59027294925e-05
1.59041150306e-05
1.59007896675e-05
1.58924633557e-05
1.58788823947e-05
1.58599945473e-05
1.5835772491e-05
1.58063576957e-05
1.57719011287e-05
1.57326930875e-05
1.56890178517e-05
1.56412720189e-05
1.55898300635e-05
1.55351530418e-05
1.54776638099e-05
1.54178482364e-05
1.53561399941e-05
1.52930161535e-05
1.5228891577e-05
1.51642099647e-05
1.50993474747e-05
1.5034699523e-05
1.49705929395e-05
1.4907368414e-05
1.48453003953e-05
1.47846748933e-05
1.47257162873e-05
1.46686601289e-05
1.46136860433e-05
1.456098524e-05
1.45106987978e-05
1.44629797602e-05
1.44179362454e-05
1.43756882182e-05
1.43363150227e-05
1.42999071327e-05
1.42665178253e-05
1.42362103562e-05
1.42090135171e-05
1.4184964718e-05
1.4164069118e-05
1.4146339081e-05
1.41317565358e-05
1.41203093081e-05
1.41119564265e-05
1.41066619188e-05
1.41043628535e-05
1.41050011872e-05
1.41084942775e-05
1.41147652728e-05
1.41237158896e-05
1.41352556255e-05
1.41492747261e-05
1.41656685586e-05
1.41843126589e-05
1.42048805575e-05
1.42272400155e-05
1.42512491639e-05
1.42767478417e-05
1.43035856836e-05
1.43315989018e-05
1.4360635457e-05
1.43905321584e-05
1.44211395938e-05
1.44522993208e-05
1.44838685443e-05
1.45156972665e-05
1.45476527365e-05
1.45795964873e-05
1.46114085804e-05
1.46429644939e-05
1.46741591742e-05
1.47048837646e-05
1.47350494674e-05
1.47645641216e-05
1.4793355874e-05
1.48213496313e-05
1.48484905391e-05
1.48747203445e-05
1.4900000684e-05
1.49242894032e-05
1.4947563654e-05
1.49697962232e-05
1.49909784418e-05
1.50110965742e-05
1.50301545419e-05
1.50481504237e-05
1.50650989936e-05
1.50810083807e-05
1.5095902415e-05
1.51097974945e-05
1.51227247263e-05
1.51347070454e-05
1.51457811316e-05
1.51559748258e-05
1.51653287915e-05
1.5173874278e-05
1.51816544846e-05
1.51887027255e-05
1.51950634412e-05
1.52007708293e-05
1.52058694337e-05
1.52103933165e-05
1.52143861394e-05
1.52178809674e-05
1.52209197363e-05
1.52235337933e-05
1.5225762615e-05
1.52276351969e-05
1.52291878379e-05
1.52304464954e-05
1.52314435248e-05
1.52322016945e-05
1.52327520259e-05
1.52331280969e-05
1.52334128398e-05
1.52338325766e-05
1.52351094811e-05
1.52395094927e-05
1.52541479387e-05
1.53013554982e-05
1.54522567092e-05
1.59404903642e-05
1.75757271762e-05
2.34103845513e-05
4.64064608051e-05
0.000147346782273
0.000584069518293
0.00221241662474
1.57492429493e-05
1.57576969777e-05
1.5768727631e-05
1.57821515672e-05
1.57981431014e-05
1.58160517098e-05
1.58351277261e-05
1.58542702692e-05
1.58725096033e-05
1.58887602424e-05
1.59021683857e-05
1.59118790416e-05
1.59173018907e-05
1.59178957491e-05
1.59133686773e-05
1.59034765272e-05
1.5888184652e-05
1.58674849297e-05
1.58415379033e-05
1.58105094479e-05
1.57747006499e-05
1.5734400242e-05
1.56900040304e-05
1.56418794477e-05
1.5590475982e-05
1.55362002852e-05
1.54795194716e-05
1.54208463709e-05
1.53606372151e-05
1.52992866865e-05
1.52372207144e-05
1.51748006288e-05
1.51124111197e-05
1.50503726028e-05
1.49890241003e-05
1.49286429465e-05
1.48695223212e-05
1.48118975389e-05
1.47560180606e-05
1.47020797477e-05
1.46502913239e-05
1.46008121052e-05
1.45538130432e-05
1.45094195402e-05
1.44677673494e-05
1.44289501491e-05
1.43930706831e-05
1.43601927765e-05
1.43303881352e-05
1.43036924208e-05
1.42801480942e-05
1.42597640849e-05
1.4242555053e-05
1.42285042106e-05
1.42175994913e-05
1.42097992494e-05
1.42050659961e-05
1.42033348148e-05
1.4204545274e-05
1.42086122303e-05
1.4215456263e-05
1.42249764455e-05
1.4237079358e-05
1.42516520167e-05
1.42685926338e-05
1.428775081e-05
1.43087606185e-05
1.43314996058e-05
1.43558168125e-05
1.4381546236e-05
1.44085319815e-05
1.44366050546e-05
1.44656088319e-05
1.44953759189e-05
1.45257533744e-05
1.45565796528e-05
1.45877095908e-05
1.46189913082e-05
1.46502909655e-05
1.46814695471e-05
1.47124073936e-05
1.47429808295e-05
1.47730864711e-05
1.48026176883e-05
1.48314886863e-05
1.48596108162e-05
1.48869164279e-05
1.49133350619e-05
1.49388170748e-05
1.49633097561e-05
1.49867807313e-05
1.50091940566e-05
1.50305334058e-05
1.5050778199e-05
1.50699265809e-05
1.50879716394e-05
1.51049241809e-05
1.51207890917e-05
1.51355879127e-05
1.51493353933e-05
1.51620618615e-05
1.51737900155e-05
1.5184557079e-05
1.51943918745e-05
1.52033367423e-05
1.52114249399e-05
1.52187022944e-05
1.52252049741e-05
1.52309808311e-05
1.52360675988e-05
1.52405138678e-05
1.52443577712e-05
1.52476475227e-05
1.52504206648e-05
1.52527240802e-05
1.52545938936e-05
1.52560748471e-05
1.52572009627e-05
1.52580141408e-05
1.52585456998e-05
1.52588340199e-05
1.52589071115e-05
1.52587993015e-05
1.52585358747e-05
1.52581519588e-05
1.5257690861e-05
1.52572616427e-05
1.5257165584e-05
1.52583418454e-05
1.52636907925e-05
1.5282202626e-05
1.53418589875e-05
1.55313480272e-05
1.61415189912e-05
1.81819769008e-05
2.54797597251e-05
5.44011645208e-05
0.000180888918478
0.000711822277919
0.00263240238947
1.57228105501e-05
1.57324436038e-05
1.57456837266e-05
1.5762416586e-05
1.57827322282e-05
1.58058253017e-05
1.58307592796e-05
1.585622923e-05
1.58810793595e-05
1.59040462321e-05
1.59241241051e-05
1.59403378126e-05
1.59520093311e-05
1.59585377977e-05
1.59595990605e-05
1.59549344658e-05
1.59445103227e-05
1.59283270256e-05
1.59065603062e-05
1.58793930677e-05
1.58471457763e-05
1.58101258956e-05
1.57687483026e-05
1.57233977689e-05
1.56745405179e-05
1.56225979564e-05
1.55680511946e-05
1.55113254915e-05
1.54528891314e-05
1.53931480293e-05
1.53325395003e-05
1.52714361345e-05
1.52102343712e-05
1.51492666253e-05
1.50888843803e-05
1.50293776598e-05
1.49710524232e-05
1.49141566708e-05
1.48589520867e-05
1.4805646234e-05
1.47544585474e-05
1.47055581818e-05
1.4659124587e-05
1.46152906311e-05
1.45741980881e-05
1.45359456757e-05
1.45006398533e-05
1.4468347381e-05
1.44391418193e-05
1.44130601296e-05
1.43901452176e-05
1.43704060278e-05
1.43538564932e-05
1.43404786653e-05
1.43302586213e-05
1.43231524189e-05
1.43191197177e-05
1.43180924515e-05
1.43200067724e-05
1.4324774027e-05
1.4332311236e-05
1.43425139216e-05
1.43552856427e-05
1.43705133901e-05
1.43881082366e-05
1.44078503539e-05
1.44293637746e-05
1.44525242189e-05
1.44771724316e-05
1.45031354928e-05
1.45302512332e-05
1.45583447232e-05
1.45872541265e-05
1.46168073232e-05
1.46468474942e-05
1.46772098e-05
1.47077467203e-05
1.47383046787e-05
1.47687491332e-05
1.47989410737e-05
1.48287618561e-05
1.4858089535e-05
1.48868234334e-05
1.49148603054e-05
1.49421186353e-05
1.49685146505e-05
1.49939863503e-05
1.5018469408e-05
1.50419209352e-05
1.5064295326e-05
1.5085567766e-05
1.51057100805e-05
1.51247139999e-05
1.51425670738e-05
1.51592757064e-05
1.51748411962e-05
1.51892825517e-05
1.52026127116e-05
1.52148611465e-05
1.52260503089e-05
1.52362180192e-05