/*--------------------------------*- C++ -*----------------------------------*\
| =========                 |                                                 |
| \\      /  F ield         | OpenFOAM: The Open Source CFD Toolbox           |
|  \\    /   O peration     | Version:  2206                                  |
|   \\  /    A nd           | Website:  www.openfoam.com                      |
|    \\/     M anipulation  |                                                 |
\*---------------------------------------------------------------------------*/
FoamFile
{
    version     2.0;
    format      ascii;
    arch        "LSB;label=64;scalar=64";
    class       volScalarField;
    location    "0.7/water";
    object      nut.gas;
}
// * * * * * * * * * * * * * * * * * * * * * * * * * * * * * * * * * * * * * //

dimensions      [0 2 -1 0 0 0 0];

internalField   nonuniform List<scalar> 
23300
(
2.2823246121e-07
2.25608410473e-07
2.39420571323e-07
2.60739998098e-07
2.8471566099e-07
3.09772534525e-07
3.35310240811e-07
3.61037144453e-07
3.86782242007e-07
4.12434802391e-07
4.37915500003e-07
4.63165723343e-07
4.8813838547e-07
5.12795483573e-07
5.37104267285e-07
5.61036600296e-07
5.84567305537e-07
6.07673907264e-07
6.30335908199e-07
6.52534671578e-07
6.7425301906e-07
6.95475261683e-07
7.16186824195e-07
7.36374437358e-07
7.56025671481e-07
7.7512928283e-07
7.93674647291e-07
8.11652257038e-07
8.29053100552e-07
8.45869311785e-07
8.62093545931e-07
8.77719744534e-07
8.92742486906e-07
9.07157770773e-07
9.2096227762e-07
9.34154076999e-07
9.46731803119e-07
9.58695288465e-07
9.70044737255e-07
9.80781344343e-07
9.90906536132e-07
1.00042257778e-06
1.00933188292e-06
1.01763756764e-06
1.02534282071e-06
1.03245140033e-06
1.03896709926e-06
1.04489421693e-06
1.05023714725e-06
1.05500082063e-06
1.05919038228e-06
1.06281153957e-06
1.06587024267e-06
1.06837284334e-06
1.07032565604e-06
1.07173480752e-06
1.07260553278e-06
1.07294161435e-06
1.07274437085e-06
1.07201180567e-06
1.07073759698e-06
1.06891050134e-06
1.06651400845e-06
1.06352663442e-06
1.05992247617e-06
1.05567194339e-06
1.05074177541e-06
1.04509398607e-06
1.03868383308e-06
1.03145841381e-06
1.02336842549e-06
1.01473214302e-06
1.00572084974e-06
9.96394869862e-07
9.86783455978e-07
9.7690708648e-07
9.66782481933e-07
9.5642437827e-07
9.45845867002e-07
9.35058993845e-07
9.24074694858e-07
9.12903197215e-07
9.01553850268e-07
8.90035454071e-07
8.78356057222e-07
8.66523251416e-07
8.54543963522e-07
8.4242472962e-07
8.30171491955e-07
8.17789857432e-07
8.05284903609e-07
7.92661424152e-07
7.79923744329e-07
7.67075952666e-07
7.54121728236e-07
7.41064558543e-07
7.27907576804e-07
7.14653767262e-07
7.01305812749e-07
6.87866287011e-07
6.74337513084e-07
6.6072174271e-07
6.47021025753e-07
6.33237376501e-07
6.193726544e-07
6.05428717765e-07
5.91407315849e-07
5.77310231164e-07
5.63139183572e-07
5.48895962393e-07
5.34582344435e-07
5.20200218316e-07
5.05751518594e-07
4.91238346159e-07
4.76662922938e-07
4.62027714334e-07
4.47335412925e-07
4.32589073987e-07
4.17792143381e-07
4.02948628506e-07
3.8806319975e-07
3.73141442581e-07
3.58190096959e-07
3.43217491598e-07
3.28234076197e-07
3.13253289697e-07
2.98292796327e-07
2.83376485801e-07
2.68537606157e-07
2.53823981065e-07
2.39306722002e-07
2.25095300343e-07
2.11364231636e-07
1.98402994044e-07
1.86719147842e-07
1.7729494934e-07
1.72410265149e-07
1.78776747763e-07
2.15502423031e-07
2.87225112821e-07
9.38892063744e-08
1.00919838211e-07
1.11743038756e-07
1.2345403551e-07
1.35366192622e-07
1.47429146814e-07
1.59681017746e-07
1.7213847044e-07
1.84790201057e-07
1.97604968416e-07
2.10540123113e-07
2.23546439279e-07
2.36572265079e-07
2.49565128369e-07
2.62473922885e-07
2.75249144333e-07
2.87844273889e-07
3.00215391005e-07
3.12322178692e-07
3.24127231218e-07
3.35596857699e-07
3.46700234194e-07
3.57410087429e-07
3.67701767065e-07
3.77553858732e-07
3.86947228133e-07
3.9586561386e-07
4.04294705145e-07
4.1222277622e-07
4.19639852728e-07
4.26538409565e-07
4.32912608307e-07
4.38758989955e-07
4.44075695367e-07
4.48863066164e-07
4.53122809118e-07
4.56858513692e-07
4.60074820847e-07
4.62777926004e-07
4.64974810778e-07
4.66673745926e-07
4.67883572891e-07
4.68614176233e-07
4.68875803753e-07
4.68679522586e-07
4.68036621828e-07
4.66959100015e-07
4.65459180242e-07
4.63549819206e-07
4.61244283134e-07
4.58556598097e-07
4.55501093564e-07
4.52092708043e-07
4.48346424801e-07
4.44277379537e-07
4.39900158372e-07
4.35228729053e-07
4.30275691363e-07
4.2505222164e-07
4.19567547092e-07
4.13829216532e-07
4.07843040594e-07
4.0161374006e-07
3.95145077308e-07
3.88440210534e-07
3.81500886982e-07
3.74326036757e-07
3.66909412904e-07
3.59239155138e-07
3.5129004001e-07
3.43231077921e-07
3.3523044142e-07
3.2729998565e-07
3.19452742634e-07
3.11700261541e-07
3.04051158645e-07
2.96512072731e-07
2.89088024278e-07
2.81782894571e-07
2.745995064e-07
2.67539938709e-07
2.60605521658e-07
2.53797079954e-07
2.4711489289e-07
2.40558898316e-07
2.34128637191e-07
2.27823431883e-07
2.21642323688e-07
2.15584231826e-07
2.09647887792e-07
2.03831978367e-07
1.98135078798e-07
1.92555781779e-07
1.8709263067e-07
1.81744235949e-07
1.76509209445e-07
1.71386269552e-07
1.66374177244e-07
1.61471831179e-07
1.56678206055e-07
1.51992438461e-07
1.4741376786e-07
1.42941613846e-07
1.38575519885e-07
1.34315222527e-07
1.3016059785e-07
1.26111723036e-07
1.22168825238e-07
1.18332335497e-07
1.14602839131e-07
1.10981121192e-07
1.07468116381e-07
1.0406494374e-07
1.00772852151e-07
9.75932393375e-08
9.45275855509e-08
9.15774473426e-08
8.87443658811e-08
8.60298179449e-08
8.34350751155e-08
8.09610816016e-08
7.86082253872e-08
7.63760958483e-08
7.42631126188e-08
7.2266107938e-08
7.03797706607e-08
6.85960528544e-08
6.69035273475e-08
6.52869254568e-08
6.37271350363e-08
6.2202455236e-08
6.06926975638e-08
5.91902267553e-08
5.77291775424e-08
5.64684178148e-08
5.5952369543e-08
5.80176169314e-08
6.89929640989e-08
1.0598587305e-07
1.79281837639e-07
5.4470186674e-08
5.77335661062e-08
6.23262343446e-08
6.72344985901e-08
7.2177540796e-08
7.71013001003e-08
8.20080695032e-08
8.69095824489e-08
9.18143540141e-08
9.67234013225e-08
1.01630405985e-07
1.06522018177e-07
1.11379723396e-07
1.16180693666e-07
1.20899614639e-07
1.25509309948e-07
1.29982214878e-07
1.34290674074e-07
1.38408075868e-07
1.42308881279e-07
1.45969492673e-07
1.49368082271e-07
1.52485256626e-07
1.55303733535e-07
1.57808845516e-07
1.59988108565e-07
1.6183161702e-07
1.63331570943e-07
1.64482635145e-07
1.65281493804e-07
1.65727212604e-07
1.65820823866e-07
1.65565654826e-07
1.6496689413e-07
1.64031843255e-07
1.62769455577e-07
1.61190531001e-07
1.59307269548e-07
1.57133443198e-07
1.54683979533e-07
1.51975101277e-07
1.49023923276e-07
1.4584855149e-07
1.42467708616e-07
1.38900831085e-07
1.3516777311e-07
1.31288947802e-07
1.27285137127e-07
1.23177687824e-07
1.18988421648e-07
1.1473987639e-07
1.10455295074e-07
1.06158877512e-07
1.01875778169e-07
9.76322612836e-08
9.34555573428e-08
8.93737588771e-08
8.54153852542e-08
8.16089327413e-08
7.79821461508e-08
7.45613166151e-08
7.13703814772e-08
6.84299978479e-08
6.57561962122e-08
6.33584600543e-08
6.1236623773e-08
5.93765397367e-08
5.7744772989e-08
5.62837601354e-08
5.49555789871e-08
5.37139872176e-08
5.25445718779e-08
5.14461909766e-08
5.04166722826e-08
4.94536968015e-08
4.85548030119e-08
4.77174552445e-08
4.69390451868e-08
4.62169465664e-08
4.5548506198e-08
4.49310879634e-08
4.43620573637e-08
4.38388184107e-08
4.33587943368e-08
4.29194599708e-08
4.25183204567e-08
4.21529409132e-08
4.18209243886e-08
4.15199400074e-08
4.12477009498e-08
4.10019918842e-08
4.07806474439e-08
4.05815794213e-08
4.04027559656e-08
4.02422287627e-08
4.00981129536e-08
3.99686142724e-08
3.98520094851e-08
3.9746673262e-08
3.96510587765e-08
3.9563723933e-08
3.94833116821e-08
3.94085751643e-08
3.93383572923e-08
3.92716143779e-08
3.92073946036e-08
3.91448597899e-08
3.90832625163e-08
3.90219658189e-08
3.89604189057e-08
3.88981747612e-08
3.88348646152e-08
3.87702136123e-08
3.87040144024e-08
3.86361412082e-08
3.85665230795e-08
3.84951568083e-08
3.84220805166e-08
3.83473859403e-08
3.82711930967e-08
3.81936624747e-08
3.81149715629e-08
3.80353274955e-08
3.79549463809e-08
3.78740675866e-08
3.77929393608e-08
3.77118446476e-08
3.76311248451e-08
3.75513148907e-08
3.74735031423e-08
3.740046849e-08
3.73400414198e-08
3.73152341845e-08
3.73949546478e-08
3.77895685103e-08
3.91597190966e-08
4.36592296206e-08
5.84016804749e-08
1.02262654033e-07
1.89758448987e-07
4.32079783607e-08
4.44713399505e-08
4.62007466375e-08
4.80713653607e-08
4.9984892439e-08
5.19049678983e-08
5.38123388622e-08
5.5693425321e-08
5.75374768927e-08
5.93347205213e-08
6.10759268182e-08
6.27515902817e-08
6.43520685252e-08
6.58672332486e-08
6.72868983335e-08
6.8600703473e-08
6.97986379876e-08
7.08710030691e-08
7.18089238402e-08
7.26043087529e-08
7.32502989866e-08
7.37411843133e-08
7.40727643533e-08
7.42421989467e-08
7.42482702831e-08
7.40911665296e-08
7.37726613648e-08
7.32958634165e-08
7.26653565812e-08
7.18869563375e-08
7.09678358917e-08
6.9916291629e-08
6.87418370736e-08
6.74549526159e-08
6.60671295243e-08
6.45906028886e-08
6.30383596785e-08
6.14238748927e-08
5.97610995849e-08
5.80642061444e-08
5.63475559377e-08
5.46254527974e-08
5.29120981721e-08
5.12213687575e-08
4.9566782022e-08
4.79613158172e-08
4.64173933698e-08
4.49467364867e-08
4.35603486133e-08
4.22683636711e-08
4.10799785122e-08
4.00032318871e-08
3.90448097802e-08
3.82096687108e-08
3.75006438403e-08
3.69178925254e-08
3.64583817467e-08
3.61153770892e-08
3.58782220731e-08
3.57324501559e-08
3.56604983491e-08
3.56429441728e-08
3.56602629537e-08
3.56947012964e-08
3.57319745408e-08
3.57622903651e-08
3.57805647567e-08
3.57856389679e-08
3.57794134778e-08
3.57736409228e-08
3.57712494026e-08
3.57724397352e-08
3.57769014089e-08
3.57843141579e-08
3.57943920198e-08
3.58068555721e-08
3.5821451578e-08
3.58379287417e-08
3.58560593384e-08
3.58756164327e-08
3.58963960401e-08
3.5918194786e-08
3.59408320962e-08
3.59641279491e-08
3.59879249552e-08
3.60120660946e-08
3.60364166559e-08
3.60608419405e-08
3.60852290617e-08
3.61094646263e-08
3.6133456398e-08
3.61571109824e-08
3.61803553576e-08
3.6203114594e-08
3.62253332484e-08
3.62469531556e-08
3.62679346826e-08
3.62882346249e-08
3.63078273139e-08
3.63266826547e-08
3.63447870754e-08
3.63621217423e-08
3.63786833351e-08
3.63944624774e-08
3.64094643177e-08
3.64236872146e-08
3.64371430955e-08
3.64498364383e-08
3.64617843767e-08
3.64729960221e-08
3.64834922725e-08
3.64932855271e-08
3.65023991485e-08
3.6510847628e-08
3.65186556378e-08
3.65258387175e-08
3.65324218424e-08
3.65384207117e-08
3.6543859739e-08
3.65487540359e-08
3.6553126703e-08
3.65569916097e-08
3.65603698878e-08
3.65632738925e-08
3.6565723904e-08
3.6567737695e-08
3.65693615492e-08
3.65707108145e-08
3.65721526882e-08
3.65748082732e-08
3.65820941219e-08
3.66042217025e-08
3.66714870547e-08
3.68736601463e-08
3.74788927273e-08
3.93028536117e-08
4.49061711496e-08
6.26356133571e-08
1.14802351086e-07
2.17895749787e-07
3.94940357393e-08
3.99863183078e-08
4.0642856557e-08
4.1354447699e-08
4.20890611802e-08
4.28321050103e-08
4.35730222937e-08
4.43021248045e-08
4.5010374021e-08
4.56889689024e-08
4.6329673661e-08
4.69246166901e-08
4.74666522265e-08
4.79492168926e-08
4.83666521847e-08
4.87140647638e-08
4.89875922264e-08
4.91842504761e-08
4.93021482086e-08
4.9340322559e-08
4.9298910506e-08
4.91789719495e-08
4.89826183458e-08
4.87128165492e-08
4.83734716554e-08
4.79692104244e-08
4.75054276421e-08
4.69880653363e-08
4.64236451877e-08
4.58190624846e-08
4.5181615209e-08
4.45188099252e-08
4.38383758401e-08
4.31480673008e-08
4.24556528569e-08
4.17687117801e-08
4.1094603622e-08
4.04402662879e-08
3.98121737012e-08
3.92161398925e-08
3.86572704834e-08
3.8139781112e-08
3.7666959063e-08
3.72410182821e-08
3.68631000938e-08
3.65331946071e-08
3.62502108225e-08
3.60119899526e-08
3.58154657802e-08
3.56567799842e-08
3.55315299575e-08
3.54349632398e-08
3.53622692103e-08
3.53087872748e-08
3.52702634426e-08
3.52429881732e-08
3.52239431372e-08
3.52108138605e-08
3.52020019479e-08
3.51965198775e-08
3.51939068194e-08
3.51940651898e-08
3.51971513437e-08
3.52034243856e-08
3.52131726209e-08
3.52266138205e-08
3.52438702796e-08
3.52649148631e-08
3.52885791838e-08
3.53141327064e-08
3.53413844345e-08
3.53701613269e-08
3.5400300059e-08
3.54316291686e-08
3.54639932682e-08
3.54972308221e-08
3.55311965188e-08
3.55657389809e-08
3.5600723167e-08
3.5636008431e-08
3.56714709668e-08
3.57069820281e-08
3.5742430316e-08
3.57777002116e-08
3.58126940438e-08
3.58473102632e-08
3.58814655635e-08
3.59150729775e-08
3.59480638424e-08
3.59803658278e-08
3.60119247445e-08
3.6042682532e-08
3.607259891e-08
3.61016293603e-08
3.61297466227e-08
3.61569187115e-08
3.61831302521e-08
3.62083605736e-08
3.62326048828e-08
3.62558524741e-08
3.62781077317e-08
3.62993684976e-08
3.63196468903e-08
3.63389478709e-08
3.63572898593e-08
3.63746835401e-08
3.63911522515e-08
3.64067110745e-08
3.64213869604e-08
3.64351981511e-08
3.64481740032e-08
3.64603347933e-08
3.64717111841e-08
3.64823244767e-08
3.6492205655e-08
3.65013761564e-08
3.65098664158e-08
3.65176972405e-08
3.65248977565e-08
3.65314874876e-08
3.65374935877e-08
3.65429337627e-08
3.65478327859e-08
3.65522069309e-08
3.6556081563e-08
3.65594837113e-08
3.65624808925e-08
3.65652437852e-08
3.65682890388e-08
3.65731458611e-08
3.65843438641e-08
3.66151187692e-08
3.67039273029e-08
3.69623135219e-08
3.77154994967e-08
3.9927652309e-08
4.66084245217e-08
6.80173272852e-08
1.30892084801e-07
2.50076135622e-07
3.81422984921e-08
3.83394394701e-08
3.85954489717e-08
3.88714833144e-08
3.91570033325e-08
3.9446423381e-08
3.97350597185e-08
4.00180728446e-08
4.02907431591e-08
4.05482406537e-08
4.07859975085e-08
4.09995833921e-08
4.11850508291e-08
4.13388373814e-08
4.14580578489e-08
4.15403930833e-08
4.15843135773e-08
4.15889414369e-08
4.15542109331e-08
4.14807053272e-08
4.13697661983e-08
4.12233101502e-08
4.10438964068e-08
4.08345273482e-08
4.05986824696e-08
4.03401099489e-08
4.00628404116e-08
3.97709841542e-08
3.94687422042e-08
3.91602225651e-08
3.8849457735e-08
3.85402416122e-08
3.82361519191e-08
3.79404046799e-08
3.76558822487e-08
3.73850094668e-08
3.71297955779e-08
3.6891740586e-08
3.66718991641e-08
3.6470822173e-08
3.62886456971e-08
3.6125067762e-08
3.59794607254e-08
3.58508775437e-08
3.57381785509e-08
3.56400534018e-08
3.55551455219e-08
3.548207066e-08
3.54195211519e-08
3.53662654153e-08
3.53212214183e-08
3.52834311879e-08
3.52521035758e-08
3.52265681667e-08
3.52062963203e-08
3.51908454544e-08
3.51798710549e-08
3.51730728415e-08
3.51702080161e-08
3.51710460852e-08
3.5175387622e-08
3.51830284752e-08
3.51937833659e-08
3.52074570627e-08
3.52238701058e-08
3.5242832335e-08
3.52641704881e-08
3.52875614884e-08
3.5312836769e-08
3.53398384424e-08
3.5368416557e-08
3.53984056016e-08
3.5429650258e-08
3.54619849208e-08
3.54952580012e-08
3.55293103025e-08
3.55639981307e-08
3.55991714261e-08
3.56346965057e-08
3.56704342191e-08
3.57062625296e-08
3.57420546916e-08
3.5777701702e-08
3.58130904487e-08
3.58481260226e-08
3.58827098021e-08
3.59167616136e-08
3.59501977436e-08
3.598295294e-08
3.60149583652e-08
3.60461634359e-08
3.60765137436e-08
3.61059727328e-08
3.61344996249e-08
3.61620709335e-08
3.61886584327e-08
3.62142505075e-08
3.62388302076e-08
3.62623964293e-08
3.62849420957e-08
3.6306475163e-08
3.63269969673e-08
3.63465230431e-08
3.6365061677e-08
3.63826345201e-08
3.63992553902e-08
3.64149506518e-08
3.64297383113e-08
3.64436481302e-08
3.64567010612e-08
3.64689290508e-08
3.64803548707e-08
3.64910115552e-08
3.6500922691e-08
3.65101214218e-08
3.65186312715e-08
3.65264846348e-08
3.65337042229e-08
3.65403209391e-08
3.65463560565e-08
3.6551838371e-08
3.65567872894e-08
3.65612293568e-08
3.65651832359e-08
3.65686782628e-08
3.65717503331e-08
3.65744892224e-08
3.65771253019e-08
3.65803369603e-08
3.65860924431e-08
3.66001056244e-08
3.66387793331e-08
3.67489311238e-08
3.70637731515e-08
3.7963647995e-08
4.05607436837e-08
4.84315569317e-08
7.44355543351e-08
1.49346432627e-07
2.83550823093e-07
3.76166924902e-08
3.76985599597e-08
3.78018668913e-08
3.79121414521e-08
3.80259605817e-08
3.81410332898e-08
3.82551971317e-08
3.83659689503e-08
3.84709297812e-08
3.85675280682e-08
3.86534187821e-08
3.87263079566e-08
3.87842471823e-08
3.88255006474e-08
3.88487828106e-08
3.88531231956e-08
3.88380490935e-08
3.88034383048e-08
3.87496550808e-08
3.86773912183e-08
3.85877648872e-08
3.84821529482e-08
3.83622610447e-08
3.82299510132e-08
3.80872908496e-08
3.79363842081e-08
3.77794118261e-08
3.76184737522e-08
3.74556345389e-08
3.72927867975e-08
3.71317065726e-08
3.69739397104e-08
3.68208671553e-08
3.66736119058e-08
3.65331130363e-08
3.64000520553e-08
3.62749352843e-08
3.61580380353e-08
3.60494929745e-08
3.59492479017e-08
3.58571553727e-08
3.5772938549e-08
3.56962770328e-08
3.56267756089e-08
3.55640418904e-08
3.55076536092e-08
3.54572248663e-08
3.54123693262e-08
3.53727541556e-08
3.53380590476e-08
3.53080194998e-08
3.52823836857e-08
3.52609482126e-08
3.52435155808e-08
3.5229925674e-08
3.52200160541e-08
3.52136515486e-08
3.52106884187e-08
3.52110030951e-08
3.52144599805e-08
3.52209393116e-08
3.52303076239e-08
3.52424443976e-08
3.52572144472e-08
3.52744946862e-08
3.52941567878e-08
3.53160163943e-08
3.53398178902e-08
3.53654528427e-08
3.5392761259e-08
3.54215919341e-08
3.54517794061e-08
3.54831688928e-08
3.55155950241e-08
3.55489059453e-08
3.55829417211e-08
3.56175577291e-08
3.56526028963e-08
3.56879426948e-08
3.5723437311e-08
3.5758964399e-08
3.57943971975e-08
3.58296270983e-08
3.58645416975e-08
3.58990471941e-08
3.59330463636e-08
3.59664607876e-08
3.59992087549e-08
3.60312273193e-08
3.60624501474e-08
3.60928294039e-08
3.61223135772e-08
3.61508691916e-08
3.61784586494e-08
3.620506177e-08
3.62306536887e-08
3.62552262236e-08
3.62787658726e-08
3.63012750044e-08
3.63227499956e-08
3.63432022392e-08
3.63626364614e-08
3.63810715371e-08
3.63985190259e-08
3.64150037757e-08
3.64305427198e-08
3.64451652427e-08
3.64588922818e-08
3.64717564202e-08
3.64837813412e-08
3.64950016033e-08
3.65054425032e-08
3.65151394748e-08
3.65241184267e-08
3.65324146952e-08
3.6540053933e-08
3.65470705321e-08
3.65534891567e-08
3.65593425333e-08
3.65646537456e-08
3.65694532926e-08
3.65737623699e-08
3.65776094112e-08
3.65810156838e-08
3.65840149256e-08
3.65866529358e-08
3.65890442983e-08
3.65914854809e-08
3.65948322795e-08
3.66015289414e-08
3.66185547125e-08
3.66656348392e-08
3.67981552412e-08
3.71709295594e-08
3.82185577231e-08
4.12144187424e-08
5.04918901961e-08
8.20654111821e-08
1.69623151051e-07
3.17375993996e-07
3.73997639156e-08
3.74359832674e-08
3.74803333145e-08
3.75271607486e-08
3.75754497588e-08
3.76241050193e-08
3.76719608349e-08
3.77175148531e-08
3.77593533752e-08
3.7795939848e-08
3.78259367673e-08
3.7848031766e-08
3.78611940749e-08
3.7864515475e-08
3.78574150965e-08
3.78394823828e-08
3.78106368511e-08
3.77709711662e-08
3.77208771707e-08
3.76608902918e-08
3.75917911946e-08
3.751445287e-08
3.74299247536e-08
3.73392844352e-08
3.72437106549e-08
3.71443434992e-08
3.70423535681e-08
3.69388158962e-08
3.6834781728e-08
3.67311694551e-08
3.66288414239e-08
3.65285111178e-08
3.64308236406e-08
3.63362763633e-08
3.62453009709e-08
3.61581951602e-08
3.60752044649e-08
3.59964626839e-08
3.59220713127e-08
3.58520459968e-08
3.57863912397e-08
3.57250504724e-08
3.56679743415e-08
3.56150727675e-08
3.55662759234e-08
3.55214873833e-08
3.5480637676e-08
3.54436383749e-08
3.54104289375e-08
3.53809322758e-08
3.53550961691e-08
3.53328511196e-08
3.53141476998e-08
3.52989173021e-08
3.52871065068e-08
3.52786409606e-08
3.52734575233e-08
3.52714712017e-08
3.52726056086e-08
3.52767627164e-08
3.52838520667e-08
3.52937630889e-08
3.53063932157e-08
3.5321621151e-08
3.53393322009e-08
3.53593973568e-08
3.53815723409e-08
3.54056651511e-08
3.54315439522e-08
3.54590451655e-08
3.54880145669e-08
3.5518284666e-08
3.5549699194e-08
3.55820914155e-08
3.56153081774e-08
3.56491881999e-08
3.56835856344e-08
3.57183482677e-08
3.57533407162e-08
3.57884225446e-08
3.5823471191e-08
3.5858359997e-08
3.58929809145e-08
3.59272224431e-08
3.59609921377e-08
3.59941944575e-08
3.60267530804e-08
3.60585886785e-08
3.6089641042e-08
3.61198468078e-08
3.61491613941e-08
3.61775367181e-08
3.62049429442e-08
3.62313462305e-08
3.62567302931e-08
3.62810742251e-08
3.63043738772e-08
3.63266197922e-08
3.6347818401e-08
3.63679701131e-08
3.63870903233e-08
3.64051876979e-08
3.64222849808e-08
3.64383975154e-08
3.64535538329e-08
3.64677744486e-08
3.64810922068e-08
3.6493531396e-08
3.65051278129e-08
3.65159082457e-08
3.65259102108e-08
3.65351618586e-08
3.65437013254e-08
3.6551557128e-08
3.65587670569e-08
3.65653591405e-08
3.65713699909e-08
3.65768264346e-08
3.65817632072e-08
3.6586205375e-08
3.65901852918e-08
3.6593726089e-08
3.65968582442e-08
3.65996058626e-08
3.66020075506e-08
3.66041201559e-08
3.66060859532e-08
3.66082747093e-08
3.66117370366e-08
3.66194332208e-08
3.66396930363e-08
3.66957201889e-08
3.68516643465e-08
3.72839332021e-08
3.84821395865e-08
4.19103641469e-08
5.28984599932e-08
9.0986005126e-08
1.91317818468e-07
3.51152711312e-07
3.73022076623e-08
3.73204607725e-08
3.73423565575e-08
3.73655334273e-08
3.73897873689e-08
3.74144122413e-08
3.74385946983e-08
3.74611932044e-08
3.74811665462e-08
3.74973678611e-08
3.75088572009e-08
3.75147081768e-08
3.75142541341e-08
3.75069104401e-08
3.74923631122e-08
3.74703987928e-08
3.74410535353e-08
3.74044504602e-08
3.73609231895e-08
3.73108630029e-08
3.72548257066e-08
3.71933882125e-08
3.71272438062e-08
3.70570679914e-08
3.69836062101e-08
3.69075500786e-08
3.68296216661e-08
3.67504619241e-08
3.66707146158e-08
3.6590927555e-08
3.65116368967e-08
3.64332798188e-08
3.63562779826e-08
3.62809594959e-08
3.62076400517e-08
3.61365523613e-08
3.60679237609e-08
3.60019115999e-08
3.59386761995e-08
3.5878320835e-08
3.58209591586e-08
3.57666587883e-08
3.57155027824e-08
3.5667536309e-08
3.56228222229e-08
3.55813906502e-08
3.5543289095e-08
3.55085350378e-08
3.54771612689e-08
3.5449171706e-08
3.54245827199e-08
3.5403382271e-08
3.53855678812e-08
3.5371108996e-08
3.53599821346e-08
3.53521362746e-08
3.5347525689e-08
3.53460781498e-08
3.53477259778e-08
3.53523768835e-08
3.53599438057e-08
3.53703183255e-08
3.53833994869e-08
3.53990673906e-08
3.54172066975e-08
3.54376809535e-08
3.54601909516e-08
3.54845784197e-08
3.55106957839e-08
3.55383754449e-08
3.5567459594e-08
3.55977777082e-08
3.56291710033e-08
3.56614705146e-08
3.56945211953e-08
3.57281600663e-08
3.57622399235e-08
3.57966074436e-08
3.5831126559e-08
3.58656564752e-08
3.59000747679e-08
3.59342552951e-08
3.59680910486e-08
3.60014719603e-08
3.6034307526e-08
3.60665045147e-08
3.60979893747e-08
3.61286858696e-08
3.61585372708e-08
3.61874839545e-08
3.62154853854e-08
3.62424977157e-08
3.62684955647e-08
3.62934496643e-08
3.63173484402e-08
3.63401757482e-08
3.63619322606e-08
3.6382613337e-08
3.64022302172e-08
3.6420788067e-08
3.64383069741e-08
3.64548002083e-08
3.64702950107e-08
3.64848111064e-08
3.64983812694e-08
3.65110301274e-08
3.65227944763e-08
3.6533702419e-08
3.65437933923e-08
3.65530976887e-08
3.6561656147e-08
3.65695001128e-08
3.65766707319e-08
3.65831994167e-08
3.65891266675e-08
3.65944831252e-08
3.65993078295e-08
3.66036299586e-08
3.66074864173e-08
3.6610904398e-08
3.66139182267e-08
3.66165530847e-08
3.66188416153e-08
3.66208109838e-08
3.66225051705e-08
3.66239933662e-08
3.66254488066e-08
3.66273226166e-08
3.66308792668e-08
3.6639637764e-08
3.66633661328e-08
3.67289001535e-08
3.69093381607e-08
3.74028071711e-08
3.87570025189e-08
4.26743790831e-08
5.57465076278e-08
1.01223928341e-07
2.14119436894e-07
3.84702775347e-07
3.72506717455e-08
3.7262279127e-08
3.72763912099e-08
3.72919060584e-08
3.73088592147e-08
3.7326624246e-08
3.73444477897e-08
3.73612484337e-08
3.73760675036e-08
3.7387847948e-08
3.73957514403e-08
3.73989621232e-08
3.73969228321e-08
3.73891481463e-08
3.73754056201e-08
3.73555359254e-08
3.73295969508e-08
3.72976966969e-08
3.72601167248e-08
3.72171600501e-08
3.71692622704e-08
3.71168527507e-08
3.70604567798e-08
3.70005680309e-08
3.69377441209e-08
3.68724897258e-08
3.68053479309e-08
3.67367941247e-08
3.66673247908e-08
3.65973617943e-08
3.6527338857e-08
3.6457614944e-08
3.63885576511e-08
3.6320464133e-08
3.62536404968e-08
3.61883290081e-08
3.61247828007e-08
3.60631984024e-08
3.60037852666e-08
3.59467029032e-08
3.58921249886e-08
3.58401806582e-08
3.57910132496e-08
3.57447255466e-08
3.57014334534e-08
3.56612151179e-08
3.56241599949e-08
3.55903218199e-08
3.55597635776e-08
3.55325142199e-08
3.55086100014e-08
3.54880546877e-08
3.54708576367e-08
3.54569971577e-08
3.5446455744e-08
3.54391863055e-08
3.54351450791e-08
3.54342605582e-08
3.54364646341e-08
3.5441663987e-08
3.54497698956e-08
3.54606718706e-08
3.54742663389e-08
3.54904303719e-08
3.55090453605e-08
3.55299727964e-08
3.55528597233e-08
3.55775628677e-08
3.56039275381e-08
3.56317814617e-08
3.56609625282e-08
3.56912964123e-08
3.57226211092e-08
3.57547648381e-08
3.5787570252e-08
3.58208724384e-08
3.58545227881e-08
3.58883669679e-08
3.59222684748e-08
3.59560865196e-08
3.59896992922e-08
3.60229817317e-08
3.60558285226e-08
3.60881317496e-08
3.61198036378e-08
3.61507541077e-08
3.61809132684e-08
3.62102089036e-08
3.62385887258e-08
3.62659978323e-08
3.62924007294e-08
3.63177588053e-08
3.63420521324e-08
3.63652570052e-08
3.63873675299e-08
3.64083732743e-08
3.64282806513e-08
3.64470907258e-08
3.64648203945e-08
3.64814803913e-08
3.64970962624e-08
3.65116866072e-08
3.65252838399e-08
3.65379127041e-08
3.65496108031e-08
3.65604074252e-08
3.65703438171e-08
3.65794523608e-08
3.65877765514e-08
3.65953505735e-08
3.66022189334e-08
3.66084164901e-08
3.66139876796e-08
3.66189670667e-08
3.66233980845e-08
3.66273141892e-08
3.66307570202e-08
3.6633758261e-08
3.66363571108e-08
3.66385829988e-08
3.6640472313e-08
3.66420523767e-08
3.66433581203e-08
3.6644420021e-08
3.66452880396e-08
3.66460452333e-08
3.66468995539e-08
3.66483924847e-08
3.66520230367e-08
3.66619138357e-08
3.6689360197e-08
3.676497896e-08
3.69709952381e-08
3.75276156058e-08
3.90467939859e-08
4.35358497446e-08
5.91184321835e-08
1.12776914766e-07
2.37786606857e-07
4.17950465153e-07
3.72152355951e-08
3.72250220132e-08
3.72375349332e-08
3.72521681067e-08
3.72689975498e-08
3.72873224146e-08
3.73063059397e-08
3.73247811453e-08
3.73417088202e-08
3.73559685416e-08
3.73666816869e-08
3.73730054067e-08
3.73743746316e-08
3.73703051614e-08
3.73605709263e-08
3.73450159594e-08
3.73236948007e-08
3.72967004667e-08
3.72642876856e-08
3.7226719699e-08
3.71843820161e-08
3.71376448975e-08
3.70869693545e-08
3.70327818382e-08
3.69755736843e-08
3.69157864096e-08
3.68539061824e-08
3.6790359159e-08
3.67256021111e-08
3.66600271107e-08
3.65940485021e-08
3.65280158033e-08
3.64622965555e-08
3.63971962291e-08
3.63330363908e-08
3.62700806538e-08
3.62086077753e-08
3.61488429716e-08
3.60910257633e-08
3.60353462038e-08
3.59820074958e-08
3.59311668543e-08
3.58829930991e-08
3.58376119769e-08
3.57951590595e-08
3.57557293799e-08
3.57194260348e-08
3.56863139487e-08
3.56564645712e-08
3.56299134675e-08
3.56067014295e-08
3.55868354688e-08
3.55703266358e-08
3.55571540048e-08
3.554729963e-08
3.55407152987e-08
3.55373552617e-08
3.55371456594e-08
3.55400156154e-08
3.55458690331e-08
3.55546143267e-08
3.55661381313e-08
3.55803336405e-08
3.55970744341e-08
3.56162448876e-08
3.56376790333e-08
3.56609853732e-08
3.56860317338e-08
3.57126547381e-08
3.57406769222e-08
3.57699313608e-08
3.58002393711e-08
3.58314352284e-08
3.58633439244e-08
3.58958055518e-08
3.59286531493e-08
3.59617367607e-08
3.59949012512e-08
3.60280100497e-08
3.60609228719e-08
3.60935191564e-08
3.61256756668e-08
3.61572896311e-08
3.61882562235e-08
3.62184914156e-08
3.6247909359e-08
3.62764449581e-08
3.63040311903e-08
3.63306214112e-08
3.63561666584e-08
3.63806377032e-08
3.64040023897e-08
3.64262474452e-08
3.64473559075e-08
3.6467328708e-08
3.64861622358e-08
3.65038697034e-08
3.65204588945e-08
3.65359533175e-08
3.65503701776e-08
3.65637413181e-08
3.65760914537e-08
3.65874588919e-08
3.65978740629e-08
3.6607380003e-08
3.66160112177e-08
3.66238139001e-08
3.66308251646e-08
3.66370929631e-08
3.66426557342e-08
3.66475619651e-08
3.66518503116e-08
3.66555687399e-08
3.66587551847e-08
3.66614561909e-08
3.66637081922e-08
3.66655555558e-08
3.66670325865e-08
3.66681808662e-08
3.66690321421e-08
3.66696249304e-08
3.66699887809e-08
3.66701610474e-08
3.66701758283e-08
3.66700897969e-08
3.66700016709e-08
3.6670158386e-08
3.66712016945e-08
3.6674887198e-08
3.66859874989e-08
3.67174134327e-08
3.68037033849e-08
3.70363878651e-08
3.76584765065e-08
3.93563097237e-08
4.45267636658e-08
6.3085881896e-08
1.25624605866e-07
2.62131242293e-07
4.50871020061e-07
3.71828077455e-08
3.71929987051e-08
3.72067871572e-08
3.72237716572e-08
3.7243976851e-08
3.72665582446e-08
3.72905022683e-08
3.73144517388e-08
3.73371978797e-08
3.73574627908e-08
3.73742379383e-08
3.73865820551e-08
3.73938616782e-08
3.73955482794e-08
3.7391392854e-08
3.73812278199e-08
3.73651042769e-08
3.73431129693e-08
3.73155069234e-08
3.72825451788e-08
3.72446080148e-08
3.7202058491e-08
3.71553504793e-08
3.71049031172e-08
3.70512020685e-08
3.69946847232e-08
3.69358359932e-08
3.68750834462e-08
3.68128886431e-08
3.6749651424e-08
3.66857969934e-08
3.66216882905e-08
3.65577084926e-08
3.64941803845e-08
3.64314438762e-08
3.63697815251e-08
3.63094908256e-08
3.62508153061e-08
3.61940115485e-08
3.61392854808e-08
3.60868542516e-08
3.60368874525e-08
3.59895640927e-08
3.59450185272e-08
3.59033928561e-08
3.58647873252e-08
3.58293085129e-08
3.57970239091e-08
3.57680062239e-08
3.57422917298e-08
3.5719920959e-08
3.57009003054e-08
3.5685239398e-08
3.56729155494e-08
3.56639083098e-08
3.56581666203e-08
3.56556412926e-08
3.56562548352e-08
3.56599324492e-08
3.56665741353e-08
3.56760843413e-08
3.56883458591e-08
3.57032485611e-08
3.57206659282e-08
3.57404956531e-08
3.57624988401e-08
3.57862779113e-08
3.5811699348e-08
3.58385921902e-08
3.58667729061e-08
3.58960691902e-08
3.59262974721e-08
3.5957287875e-08
3.59888618488e-08
3.60208567734e-08
3.60531036501e-08
3.60854513699e-08
3.61177443631e-08
3.61498465339e-08
3.61816188057e-08
3.62129427223e-08
3.62436978643e-08
3.62737851189e-08
3.63031039722e-08
3.63315754541e-08
3.63591193337e-08