/*--------------------------------*- C++ -*----------------------------------*\
| =========                 |                                                 |
| \\      /  F ield         | OpenFOAM: The Open Source CFD Toolbox           |
|  \\    /   O peration     | Version:  2206                                  |
|   \\  /    A nd           | Website:  www.openfoam.com                      |
|    \\/     M anipulation  |                                                 |
\*---------------------------------------------------------------------------*/
FoamFile
{
    version     2.0;
    format      ascii;
    arch        "LSB;label=64;scalar=64";
    class       surfaceScalarField;
    location    "0.7/water";
    object      phi;
}
// * * * * * * * * * * * * * * * * * * * * * * * * * * * * * * * * * * * * * //

dimensions      [0 3 -1 0 0 0 0];

oriented        oriented;

internalField   nonuniform List<scalar> 
46280
(
-5.23136381643e-10
5.23062763456e-10
-1.03444289517e-09
5.11262766049e-10
-1.56129257115e-09
5.26759559914e-10
-2.10186900629e-09
5.40539902257e-10
-2.65386602156e-09
5.51907385047e-10
-3.21571259938e-09
5.61818567149e-10
-3.78671483022e-09
5.70907969204e-10
-4.36629210992e-09
5.79558377742e-10
-4.95434845948e-09
5.87966662953e-10
-5.55061091942e-09
5.96256418446e-10
-6.15516116271e-09
6.04472120895e-10
-6.76780199405e-09
6.1264774594e-10
-7.3886392252e-09
6.20771541264e-10
-8.01746181621e-09
6.28839984301e-10
-8.65433323331e-09
6.36815381248e-10
-9.29898410271e-09
6.44674903156e-10
-9.95140060437e-09
6.52366504467e-10
-1.0611228942e-08
6.59855832106e-10
-1.12783577939e-08
6.67082142301e-10
-1.19523326856e-08
6.74003992562e-10
-1.26329332992e-08
6.80555598389e-10
-1.33195952009e-08
6.86691736272e-10
-1.40119837904e-08
6.92344514209e-10
-1.47094212186e-08
6.97467737434e-10
-1.54114585935e-08
7.01993967701e-10
-1.61173063674e-08
7.05878506208e-10
-1.68264057208e-08
7.09056573075e-10
-1.75378615208e-08
7.1148699504e-10
-1.82510130192e-08
7.13109412885e-10
-1.89648691045e-08
7.13887719511e-10
-1.96786776566e-08
7.13767269916e-10
-2.03913637444e-08
7.12718108131e-10
-2.11020963711e-08
7.10692277821e-10
-2.18097309354e-08
7.07666824248e-10
-2.25133715167e-08
7.03601303412e-10
-2.32118196369e-08
6.98480450281e-10
-2.39041297142e-08
6.922720163e-10
-2.45890664756e-08
6.84968930396e-10
-2.52656507969e-08
6.76547621675e-10
-2.5932628526e-08
6.67009510792e-10
-2.65890037896e-08
6.56340061453e-10
-2.723352207e-08
6.445494228e-10
-2.78651880733e-08
6.3163241702e-10
-2.84827659005e-08
6.17608112297e-10
-2.9085278713e-08
6.02480934803e-10
-2.9671528434e-08
5.86278937914e-10
-3.02405747461e-08
5.69016201555e-10
-3.07912763806e-08
5.50729627533e-10
-3.13227475235e-08
5.31442816653e-10
-3.18339221544e-08
5.11201270741e-10
-3.23239866005e-08
4.90037878513e-10
-3.27919678244e-08
4.68006445259e-10
-3.32371415824e-08
4.45148881473e-10
-3.36586448456e-08
4.21527033793e-10
-3.40558597629e-08
3.9719162688e-10
-3.44280498582e-08
3.72212442168e-10
-3.47747207087e-08
3.46649009413e-10
-3.5095278878e-08
3.20579143458e-10
-3.53893706088e-08
2.94071181169e-10
-3.56565616717e-08
2.67210759791e-10
-3.58966553245e-08
2.40074226134e-10
-3.61093903184e-08
2.12753517167e-10
-3.62947392139e-08
1.85330421761e-10
-3.6452621441e-08
1.57899704708e-10
-3.65831832509e-08
1.30544126377e-10
-3.66865228552e-08
1.03356153531e-10
-3.67629508156e-08
7.64109177371e-11
-3.68127293168e-08
4.97942462773e-11
-3.68362672689e-08
2.35214210677e-11
-3.68339489314e-08
-2.30329680056e-12
-3.68056818608e-08
-2.82831988624e-11
-3.67505385259e-08
-5.51289031343e-11
-3.66679363806e-08
-8.26179570309e-11
-3.65575761304e-08
-1.10346361558e-10
-3.64195262279e-08
-1.38065463621e-10
-3.62539190772e-08
-1.65593746317e-10
-3.60611306741e-08
-1.92803758551e-10
-3.58415301152e-08
-2.19587608146e-10
-3.55956782744e-08
-2.45867020263e-10
-3.53240966275e-08
-2.71569123943e-10
-3.50274701748e-08
-2.96641472359e-10
-3.47064266946e-08
-3.21031383439e-10
-3.43617389219e-08
-3.44702639569e-10
-3.39941108282e-08
-3.67616422401e-10
-3.36043770505e-08
-3.89748490427e-10
-3.31932948819e-08
-4.11070939391e-10
-3.276174006e-08
-4.31569375043e-10
-3.23105040918e-08
-4.51225194507e-10
-3.18404859334e-08
-4.70032543095e-10
-3.13524946367e-08
-4.8798100484e-10
-3.08474365902e-08
-5.05072253009e-10
-3.0326123682e-08
-5.21303118119e-10
-2.97894558202e-08
-5.36681878233e-10
-2.92382348503e-08
-5.5121171034e-10
-2.86733420725e-08
-5.64906592316e-10
-2.8095558207e-08
-5.77775157769e-10
-2.75057356259e-08
-5.89836181171e-10
-2.6904624633e-08
-6.0110286487e-10
-2.62930401179e-08
-6.11597887668e-10
-2.5671694436e-08
-6.21338153789e-10
-2.50413581881e-08
-6.30349378365e-10
-2.44026999534e-08
-6.3865133105e-10
-2.37564408888e-08
-6.46271936173e-10
-2.31032015833e-08
-6.53233043025e-10
-2.24436501659e-08
-6.59564010903e-10
-2.17783565242e-08
-6.65288039051e-10
-2.11079336064e-08
-6.70435211606e-10
-2.04328992563e-08
-6.75029418281e-10
-1.97538103989e-08
-6.79100826577e-10
-1.90711327222e-08
-6.82673426531e-10
-1.83853674381e-08
-6.85776901003e-10
-1.76969290478e-08
-6.8843482595e-10
-1.70062643785e-08
-6.90675904389e-10
-1.63137386489e-08
-6.92522855374e-10
-1.56197464898e-08
-6.94002981813e-10
-1.49246065275e-08
-6.95137779513e-10
-1.4228664102e-08
-6.95952805522e-10
-1.35321945738e-08
-6.96468040218e-10
-1.28354974587e-08
-6.96707022949e-10
-1.21388086786e-08
-6.96687990524e-10
-1.14423858655e-08
-6.96432220928e-10
-1.07464298598e-08
-6.95955918308e-10
-1.005116116e-08
-6.95277577872e-10
-9.3567514807e-09
-6.94410294398e-10
-8.66339247058e-09
-6.93367326737e-10
-7.97124061067e-09
-6.92153178353e-10
-7.28048452012e-09
-6.90763819439e-10
-6.59131705756e-09
-6.89169486594e-10
-5.90402855656e-09
-6.87295634294e-10
-5.21906017271e-09
-6.84971113602e-10
-4.53722510606e-09
-6.81841589139e-10
-3.86002979105e-09
-6.77198733191e-10
-3.19034852144e-09
-6.69687154022e-10
-2.53354519665e-09
-6.56807272064e-10
-1.89938452072e-09
-6.34165814856e-10
-1.30484859357e-09
-5.94540185547e-10
-7.77512848607e-10
-5.27340138389e-10
-3.57265736605e-10
-4.20251382459e-10
-9.02171748124e-11
-2.6705279973e-10
-9.02183226207e-11
-9.27338126565e-10
1.45032637971e-09
-1.85940116796e-09
1.44326691185e-09
-2.78575981929e-09
1.45303695332e-09
-3.70995784659e-09
1.46468617247e-09
-4.63327134159e-09
1.4751423928e-09
-5.55614077626e-09
1.48464532788e-09
-6.47898993593e-09
1.4936817952e-09
-7.40207067756e-09
1.50260627429e-09
-8.32580775358e-09
1.51163758438e-09
-9.25047427548e-09
1.52090159783e-09
-1.01765095605e-08
1.53045242226e-09
-1.11041681892e-08
1.54029723971e-09
-1.20338431166e-08
1.55040265164e-09
-1.29657137389e-08
1.560710756e-09
-1.39000722553e-08
1.57113829279e-09
-1.48369801873e-08
1.58158878291e-09
-1.57765933673e-08
1.59194903002e-09
-1.67188278248e-08
1.60209926806e-09
-1.7663682362e-08
1.61190861097e-09
-1.86109122364e-08
1.62124425713e-09
-1.95603498374e-08
1.62996645225e-09
-2.05115842567e-08
1.63793722531e-09
-2.14642807854e-08
1.64501504901e-09
-2.24178647873e-08
1.65106326988e-09
-2.33718406454e-08
1.65594445069e-09
-2.4325478697e-08
1.6595285415e-09
-2.52781337523e-08
1.66168687438e-09
-2.62289343468e-08
1.66230007941e-09
-2.71771006626e-08
1.6612516969e-09
-2.81216358104e-08
1.65843589186e-09
-2.90616425502e-08
1.65375077308e-09
-2.99960169133e-08
1.64710601716e-09
-3.09237629805e-08
1.63841600404e-09
-3.18436895964e-08
1.62760744233e-09
-3.2754722083e-08
1.61461239763e-09
-3.36556031602e-08
1.5993758855e-09
-3.45452002714e-08
1.58184876059e-09
-3.54222119707e-08
1.56199521351e-09
-3.62854692152e-08
1.53978555685e-09
-3.71336486502e-08
1.5152036105e-09
-3.79655662472e-08
1.48823945666e-09
-3.87798989518e-08
1.4588967197e-09
-3.95754689851e-08
1.42718536042e-09
-4.03509752846e-08
1.39312878404e-09
-4.1105266981e-08
1.35675666832e-09
-4.183708586e-08
1.31811183176e-09
-4.25453276726e-08
1.27724314663e-09
-4.32287966618e-08
1.23421215582e-09
-4.38864538002e-08
1.18908615346e-09
-4.45171841416e-08
1.14194457813e-09
-4.51200314114e-08
1.09287233969e-09
-4.5693978612e-08
1.04196596825e-09
-4.62381687976e-08
9.89327181321e-10
-4.67516988646e-08
9.35068734889e-10
-4.72338264943e-08
8.79308189163e-10
-4.76837764764e-08
8.22173352035e-10
-4.81009338952e-08
7.63796082842e-10
-4.84846616317e-08
7.04317105197e-10
-4.88344797531e-08
6.43879561746e-10
-4.91498923558e-08
5.82632910785e-10
-4.94305533653e-08
5.20726000373e-10
-4.96761009578e-08
4.58310020699e-10
-4.98863105725e-08
3.955311982e-10
-5.00609355726e-08
3.32533030182e-10
-5.0199848636e-08
2.69448664844e-10
-5.03028850653e-08
2.06400377122e-10
-5.03699744912e-08
1.43492046098e-10
-5.04009474597e-08
8.07745345933e-11
-5.0395794435e-08
1.83602678903e-11
-5.0353893631e-08
-4.41972043522e-11
-5.02746004912e-08
-1.075843571e-10
-5.0158214784e-08
-1.71508091034e-10
-5.00054325197e-08
-2.35408162844e-10
-4.9816813101e-08
-2.98959601861e-10
-4.95929884109e-08
-3.61898053542e-10
-4.93345700016e-08
-4.24006288689e-10
-4.90422766316e-08
-4.85104999063e-10
-4.87168182856e-08
-5.45040379487e-10
-4.83590106764e-08
-6.03682488639e-10
-4.79696567209e-08
-6.60917785162e-10
-4.75496557359e-08
-7.16650305751e-10
-4.70998859896e-08
-7.70796112787e-10
-4.66213108649e-08
-8.23285611346e-10
-4.61148636797e-08
-8.74058869771e-10
-4.55815516022e-08
-9.23068408334e-10
-4.50223431567e-08
-9.70274934062e-10
-4.44382700801e-08
-1.01565029044e-09
-4.38303177229e-08
-1.05917339857e-09
-4.31995248649e-08
-1.10083323177e-09
-4.25468771596e-08
-1.14062486871e-09
-4.18734048129e-08
-1.17855242678e-09
-4.11800792221e-08
-1.21462519363e-09
-4.0467908417e-08
-1.24886050005e-09
-3.97378370334e-08
-1.28127992074e-09
-3.89908393583e-08
-1.31191207692e-09
-3.82278227863e-08
-1.34078891385e-09
-3.7449718325e-08
-1.36794843817e-09
-3.66573876641e-08
-1.39343108241e-09
-3.58517109593e-08
-1.41728237607e-09
-3.50334976447e-08
-1.43954941131e-09
-3.42035713312e-08
-1.46028345464e-09
-3.33626844793e-08
-1.47953652424e-09
-3.25116002153e-08
-1.49736393946e-09
-3.1651010985e-08
-1.51382102292e-09
-3.07816171091e-08
-1.5289655894e-09
-2.9904049531e-08
-1.54285478174e-09
-2.90189449082e-08
-1.55554749183e-09
-2.81268725694e-08
-1.56710134007e-09
-2.72284059637e-08
-1.57757502557e-09
-2.63240539356e-08
-1.58702545557e-09
-2.54143283365e-08
-1.59551001362e-09
-2.44996797307e-08
-1.60308384718e-09
-2.35805609976e-08
-1.60980204758e-09
-2.26573675757e-08
-1.61571710121e-09
-2.17304968751e-08
-1.6208809695e-09
-2.08002931685e-08
-1.62534271256e-09
-1.98671026528e-08
-1.62915046129e-09
-1.89312230981e-08
-1.6323492179e-09
-1.79929543931e-08
-1.63498270223e-09
-1.70525530827e-08
-1.63709131683e-09
-1.61102782906e-08
-1.63871380089e-09
-1.51663513878e-08
-1.63988522518e-09
-1.42209974435e-08
-1.64063810391e-09
-1.3274410858e-08
-1.64099966521e-09
-1.23267937966e-08
-1.64099073983e-09
-1.13783313613e-08
-1.64061877165e-09
-1.04292341211e-08
-1.63986716206e-09
-9.47973775686e-09
-1.6386693774e-09
-8.53017904771e-09
-1.63686019214e-09
-7.58107711393e-09
-1.63407694343e-09
-6.63335030401e-09
-1.62957398837e-09
-5.68867602013e-09
-1.62187725534e-09
-4.75019935928e-09
-1.6081691041e-09
-3.82377842716e-09
-1.58323267632e-09
-2.92020028479e-09
-1.5377487979e-09
-2.05891926365e-09
-1.4558257102e-09
-1.27395247338e-09
-1.31231130005e-09
-6.20843241308e-10
-1.07336498432e-09
-1.74098530576e-10
-7.13801803335e-10
-2.64318008032e-10
-1.14712773427e-09
2.59737160962e-09
-2.29755438877e-09
2.59362813263e-09
-3.44485904396e-09
2.60025612439e-09
-4.58906252775e-09
2.60883444482e-09
-5.73140612462e-09
2.61740688781e-09
-6.87262487045e-09
2.62582001458e-09
-8.01330840833e-09
2.63429629164e-09
-9.15376455607e-09
2.6430312126e-09
-1.02943308412e-08
2.65214418387e-09
-1.14351335511e-08
2.66168618708e-09
-1.25763822983e-08
2.67165332524e-09
-1.37180909747e-08
2.68199829749e-09
-1.48603637588e-08
2.69263730842e-09
-1.60031092474e-08
2.70345647971e-09
-1.71463194885e-08
2.71431712642e-09
-1.82897856649e-08
2.72505991271e-09
-1.94333729742e-08
2.73550881053e-09
-2.05767406984e-08
2.74547427187e-09
-2.17196141428e-08
2.75475649258e-09
-2.28615096828e-08
2.76314810961e-09
-2.40020049426e-08
2.77043712787e-09
-2.5140468237e-08
2.77640931486e-09
-2.62763279831e-08
2.78085082274e-09
-2.74088057708e-08
2.78355024858e-09
-2.85371856148e-08
2.78430088078e-09
-2.96605498058e-08
2.78290236092e-09
-3.07780481564e-08
2.77916244905e-09
-3.18886361402e-08
2.77289823616e-09
-3.29913438837e-08
2.76393741221e-09
-3.40850163278e-08
2.75211909007e-09
-3.51685813858e-08
2.73729465752e-09
-3.62407923795e-08
2.71932836534e-09
-3.73004945364e-08
2.69809792607e-09
-3.83463702167e-08
2.67349501196e-09
-3.93772027014e-08
2.64542565574e-09
-4.03916251372e-08
2.61381067138e-09
-4.13883803863e-08
2.57858584079e-09
-4.2366074738e-08
2.53970224192e-09
-4.33234324643e-08
2.49712620906e-09
-4.42590555665e-08
2.45083959103e-09
-4.51716716073e-08
2.40083953422e-09
-4.6059900665e-08
2.34713869642e-09
-4.69224949971e-08
2.28976484183e-09
-4.77581143567e-08
2.2287609675e-09
-4.85655561336e-08
2.16418468624e-09
-4.93435399668e-08
2.09610824304e-09
-5.00909272321e-08
2.02461770632e-09
-5.08065157768e-08
1.94981291742e-09
-5.14892479233e-08
1.8718065856e-09
-5.21380158426e-08
1.79072423734e-09
-5.27518575778e-08
1.70670327396e-09
-5.33297733536e-08
1.61989293343e-09
-5.38709094858e-08
1.53045333107e-09
-5.43743855824e-08
1.43855540443e-09
-5.48394665466e-08
1.34437988612e-09
-5.52654003691e-08
1.24811710704e-09
-5.56515786699e-08
1.14996572096e-09
-5.59973843616e-08
1.05013207279e-09
-5.63023412854e-08
9.4882831918e-10
-5.65659707263e-08
8.46270991633e-10
-5.67879307525e-08
7.42678252938e-10
-5.6967880247e-08
6.38267541988e-10
-5.71056084353e-08
5.33251913035e-10
-5.72009044802e-08
4.27836538557e-10
-5.7253676955e-08
3.22213884241e-10
-5.72638287325e-08
2.1655909715e-10
-5.72313524495e-08
1.11008658553e-10
-5.71562650546e-08
5.69361925722e-12
-5.7038329344e-08
-9.95824512101e-11
-5.68777384084e-08
-2.04782080947e-10
-5.66761941091e-08
-3.09135609543e-10
-5.64354859693e-08
-4.12210541531e-10
-5.61569546533e-08
-5.13946407152e-10
-5.58416995698e-08
-6.14209334907e-10
-5.54907671185e-08
-7.12837427986e-10
-5.51051078294e-08
-8.09660530346e-10
-5.46857069808e-08
-9.04512777912e-10
-5.42335040482e-08
-9.972385526e-10
-5.37494978034e-08
-1.08769567684e-09
-5.32346546033e-08
-1.17575649454e-09
-5.26900033849e-08
-1.26130848449e-09
-5.21165412717e-08
-1.34425400431e-09
-5.15153236676e-08
-1.42451019278e-09
-5.08873702245e-08
-1.50200835535e-09
-5.02337519675e-08
-1.57669365957e-09
-4.95554988065e-08
-1.64852441242e-09
-4.8853684429e-08
-1.71747167792e-09
-4.81293359193e-08
-1.78351850484e-09
-4.73835166846e-08
-1.8466594921e-09
-4.6617238468e-08
-1.90689997805e-09
-4.5831542368e-08
-1.96425556733e-09
-4.50274134666e-08
-2.01875129293e-09
-4.42058599088e-08
-2.07042111343e-09
-4.33678302924e-08
-2.11930705873e-09
-4.25142907234e-08
-2.16545871588e-09
-4.16461451174e-08
-2.20893237517e-09
-4.07643101217e-08
-2.24979051798e-09
-3.98696384338e-08
-2.28810097744e-09
-3.89629914605e-08
-2.3239364458e-09
-3.80451657741e-08
-2.35737366545e-09
-3.71169633689e-08
-2.38849296585e-09
-3.61791213408e-08
-2.41737749516e-09
-3.5232379591e-08
-2.44411279892e-09
-3.42774138354e-08
-2.46878610172e-09
-3.33149005982e-08
-2.49148593219e-09
-3.2345453633e-08
-2.51230145898e-09
-3.1369686047e-08
-2.5313221676e-09
-3.03881502333e-08
-2.54863725391e-09
-2.94013969669e-08
-2.56433535153e-09
-2.84099189286e-08
-2.5785039825e-09
-2.74142066178e-08
-2.59122933549e-09
-2.64146955625e-08
-2.60259577273e-09
-2.54118188983e-08
-2.61268565454e-09
-2.44059583461e-08
-2.62157890019e-09
-2.3397493312e-08
-2.6293528566e-09
-2.23867557284e-08
-2.63608191067e-09
-2.13740755366e-08
-2.64183739623e-09
-2.03597394819e-08
-2.64668724994e-09
-1.93440328587e-08
-2.65069593939e-09
-1.83272023889e-08
-2.65392412118e-09
-1.73094941712e-08
-2.65642848644e-09
-1.62911209003e-08
-2.65826118369e-09
-1.5272296269e-08
-2.65946903792e-09
-1.42532074291e-08
-2.66009153758e-09
-1.32340474487e-08
-2.66015683613e-09
-1.22149967135e-08
-2.65967287366e-09
-1.11962607353e-08
-2.65860904924e-09
-1.01780754781e-08
-2.65685833085e-09
-9.16077976464e-09
-2.65416160477e-09
-8.14490112637e-09
-2.64995961048e-09
-7.13136941556e-09
-2.64311118334e-09
-6.12188021311e-09
-2.63137080854e-09
-5.11960660609e-09
-2.61044794435e-09
-4.13047559697e-09
-2.57236821456e-09
-3.16548438471e-09
-2.50274485576e-09
-2.24471187993e-09
-2.37660276135e-09
-1.40366095707e-09
-2.15336660582e-09
-7.00141317289e-10
-1.77688901633e-09
-2.1096072702e-10
-1.20298671436e-09
-4.75279900643e-10
-1.25132763249e-09
3.84860887264e-09
-2.50577801416e-09
3.84800708925e-09
-3.758989535e-09
3.85337683332e-09
-5.01070801266e-09
3.86049212872e-09
-6.26154069561e-09
3.86815917479e-09
-7.51199793096e-09
3.87623377494e-09
-8.7625607909e-09
3.88478966314e-09
-1.00134391052e-08
3.89388108022e-09
-1.12648524679e-08
3.90350246921e-09
-1.25167773123e-08
3.9135950832e-09
-1.37692270338e-08
3.92405865836e-09
-1.50219894109e-08
3.93475554244e-09
-1.62749063688e-08
3.94551873602e-09
-1.75276029302e-08
3.95615491609e-09
-1.87797650572e-08
3.96644951656e-09
-2.00308686289e-08
3.97616922136e-09
-2.12804526846e-08
3.98506627069e-09
-2.25278513949e-08
3.99288047188e-09
-2.3772463361e-08
3.99934333992e-09
-2.50134870433e-08
4.00417996505e-09
-2.62501874628e-08
4.00711313742e-09
-2.74816347678e-08
4.00786511884e-09
-2.87069694939e-08
4.00616161748e-09
-2.99251437257e-08
4.0017333049e-09
-3.11351856721e-08
3.99431941847e-09
-3.23359428902e-08
3.98366885423e-09
-3.35263464305e-08
3.96954323011e-09
-3.47051558022e-08
3.9517174576e-09
-3.58712225534e-08
3.92998220293e-09
-3.70232369425e-08
3.90414398043e-09
-3.81599904299e-08
3.8740271027e-09
-3.92801243582e-08
3.83947345865e-09
-4.03823905577e-08
3.80034410452e-09
-4.14654026443e-08
3.75651888597e-09
-4.25278936776e-08
3.70789775821e-09
-4.35684709906e-08
3.654400305e-09
-4.45858697185e-08
3.59596678515e-09
-4.55787123028e-08
3.53255756023e-09
-4.65457565751e-08
3.4641538723e-09
-4.7485661184e-08
3.39075720228e-09
-4.83972268547e-08
3.31238978491e-09
-4.92791689402e-08
3.22909389763e-09
-5.01303504336e-08
3.14093208875e-09
-5.0949562752e-08
3.04798635578e-09
-5.17357492254e-08
2.95035805624e-09
-5.24877950797e-08
2.84816696988e-09
-5.32047403287e-08
2.7415509341e-09
-5.38855797185e-08
2.63066484204e-09
-5.45294642313e-08
2.51568008338e-09
-5.51355114562e-08
2.39678353962e-09
-5.57029951895e-08
2.27417689809e-09
-5.62311664001e-08
2.14807566708e-09
-5.67194307716e-08
2.01870839159e-09
-5.7167180138e-08
1.88631567051e-09
-5.75739581275e-08
1.7511492413e-09
-5.79393016609e-08
1.61347087386e-09
-5.82628951544e-08
1.47355113886e-09
-5.85444214208e-08
1.33166789115e-09
-5.87837051445e-08
1.18810440747e-09
-5.89805724158e-08
1.04314714085e-09
-5.91349845015e-08
8.97083039426e-10
-5.92469052716e-08
7.50196544826e-10
-5.93164265638e-08
6.02766146399e-10
-5.93436425857e-08
4.55060189918e-10
-5.93287673581e-08
3.0733176169e-10
-5.92720154407e-08
1.59814257177e-10
-5.9173742652e-08
1.27290732832e-11
-5.90342084879e-08
-1.33833966261e-10
-5.88543863717e-08
-2.79411311506e-10
-5.86356820309e-08
-4.23480289125e-10
-5.83791002784e-08
-5.65724090597e-10
-5.80853397692e-08
-7.05965316436e-10
-5.77552593236e-08
-8.44033587304e-10
-5.73897120216e-08
-9.79751259289e-10
-5.69896250065e-08
-1.11293119913e-09
-5.6555895064e-08
-1.24338541914e-09
-5.60894830911e-08
-1.370931533e-09
-5.55913194777e-08
-1.49539741134e-09
-5.50623978388e-08
-1.61662412793e-09
-5.45036819111e-08
-1.73446795106e-09
-5.39161958577e-08
-1.84880137754e-09
-5.33009318662e-08
-1.95951379993e-09
-5.26589373158e-08
-2.0665116099e-09
-5.19912235288e-08
-2.169718221e-09
-5.12988503728e-08
-2.26907370531e-09
-5.05828366655e-08
-2.36453447648e-09
-4.98442425899e-08
-2.45607266579e-09
-4.90840821336e-08
-2.54367560494e-09
-4.83034035159e-08
-2.62734504181e-09
-4.75032039424e-08
-2.70709649328e-09
-4.66845081057e-08
-2.78295835674e-09
-4.58482854715e-08
-2.85497118023e-09
-4.49955268448e-08
-2.92318671172e-09
-4.41271643594e-08
-2.98766712211e-09
-4.32441460414e-08
-3.04848402562e-09
-4.23473586464e-08
-3.10571768734e-09
-4.14377001298e-08
-3.15945604502e-09
-4.05160054498e-08
-3.20979392698e-09
-3.95831168259e-08
-3.25683209877e-09
-3.8639812612e-08
-3.30067651401e-09
-3.76868752153e-08
-3.34143740613e-09
-3.67250231325e-08
-3.37922858805e-09
-3.57549763824e-08
-3.41416660271e-09
-3.47773917945e-08
-3.44637008346e-09
-3.37929258077e-08
-3.47595897368e-09
-3.28021730945e-08
-3.50305395428e-09
-3.18057265708e-08
-3.52777573627e-09
-3.08041194384e-08
-3.55024455836e-09
-2.97978822541e-08
-3.57057955487e-09
-2.87874884742e-08
-3.58889832162e-09
-2.77734084284e-08
-3.60531635703e-09
-2.67560584494e-08
-3.61994669301e-09
-2.57358516081e-08
-3.63289940704e-09
-2.47131505119e-08
-3.64428131212e-09
-2.36883146604e-08
-3.65419553442e-09
-2.26616569984e-08
-3.66274125583e-09
-2.16334877654e-08
-3.67001334994e-09
-2.06040748985e-08
-3.67610216143e-09
-1.95736842636e-08
-3.68109317176e-09
-1.8542544037e-08
-3.68506675001e-09
-1.75108812793e-08
-3.68809770134e-09
-1.64788905658e-08
-3.69025465224e-09
-1.54467671736e-08
-3.69159872985e-09
-1.44146808715e-08
-3.69218093898e-09
-1.3382807363e-08
-3.69203646441e-09
-1.2351310949e-08
-3.69117271973e-09
-1.13203815623e-08
-3.68954435654e-09
-1.02902413358e-08
-3.68700231794e-09
-9.26121665726e-09
-3.68319200348e-09
-8.23382581515e-09
-3.67735454653e-09
-7.20899452064e-09
-3.66794799985e-09
-6.18842688675e-09
-3.65194284622e-09
-5.17533514394e-09
-3.62354496961e-09
-4.17576115829e-09
-3.57194681409e-09
-3.20098710822e-09
-3.47752379965e-09
-2.27169295463e-09
-3.30590154372e-09
-1.4243315996e-09
-3.00073241943e-09
-7.17438469454e-10
-2.48378658236e-09
-2.2493592713e-10
-1.69549362451e-09
-7.00217011445e-10
-1.29924708023e-09
5.14775774532e-09
-2.60072816854e-09
5.14941026977e-09
-3.90195944554e-09
5.15451104298e-09
-5.20267041231e-09
5.16114134326e-09
-6.50327081602e-09
5.16867484654e-09
-7.80408128292e-09
5.17699868006e-09
-9.10545183497e-09
5.18609275298e-09
-1.0407487867e-08
5.19588887406e-09
-1.17103018723e-08
5.20626117485e-09
-1.30137530384e-08
5.2170329493e-09
-1.4317727035e-08
5.22799007737e-09
-1.56218637967e-08
5.2388888192e-09
-1.69258409297e-08
5.24946189808e-09
-1.82291046394e-08
5.25942160134e-09
-1.95311491038e-08
5.26846517753e-09
-2.08312499416e-08
5.27627640641e-09
-2.21287399953e-08
5.28253011737e-09
-2.34227453225e-08
5.28689352423e-09
-2.47124575963e-08
5.28903052083e-09
-2.59968726606e-08
5.28860320982e-09
-2.72750603787e-08
5.28527625921e-09
-2.85459054157e-08
5.27871854616e-09
-2.98083754131e-08
5.26860740359e-09
-3.10612634967e-08
5.25463007434e-09
-3.2303455351e-08
5.23648756076e-09
-3.35336729714e-08
5.21389562863e-09
-3.47507408222e-08
5.18658804947e-09
-3.59533306112e-08
5.15431702901e-09
-3.7140226368e-08
5.11685578446e-09
-3.83100703319e-08
5.07399844596e-09
-3.9461626466e-08
5.02556206337e-09
-4.05935279126e-08
4.97138615317e-09
-4.17045381681e-08
4.91133429981e-09
-4.27933008489e-08
4.84529351943e-09
-4.38585975121e-08
4.77317555629e-09
-4.4899100779e-08
4.69491614394e-09
-4.59136276326e-08
4.610476023e-09
-4.69008971383e-08
4.51984012908e-09
-4.78597779348e-08
4.4230183314e-09
-4.87890518839e-08
4.32004455663e-09
-4.96876543924e-08
4.21097723617e-09
-5.05544452619e-08
4.09589834496e-09
-5.13884404924e-08
3.97491351824e-09
-5.21885915218e-08
3.84815096623e-09
-5.29540073069e-08
3.71576124498e-09
-5.36837429715e-08
3.57791604882e-09
-5.43770111812e-08
3.43480767526e-09
-5.50329809831e-08
3.28664773798e-09
-5.56509777396e-08
3.13366639859e-09
-5.6230292609e-08
2.97611104495e-09
-5.67703705939e-08
2.81424535105e-09
-5.72706308036e-08
2.64834794552e-09
-5.77306425117e-08
2.4787113471e-09
-5.8149956044e-08
2.305640621e-09
-5.85282670921e-08
2.12945218116e-09
-5.88652578425e-08
1.95047234163e-09
-5.91607501567e-08
1.76903585617e-09
-5.94145564157e-08
1.58548414293e-09
-5.96266225438e-08
1.40016332579e-09
-5.97968880142e-08
1.21342188549e-09
-5.99254199746e-08
1.02560806646e-09
-6.00122818293e-08
8.37066981246e-10
-6.00576600809e-08
6.48137647304e-10
-6.00617417396e-08
4.59149782981e-10
-6.00248359031e-08
2.70419281074e-10
-5.99472573556e-08
8.22430488923e-11
-5.98294131987e-08
-1.05121679731e-10
-5.96720358774e-08
-2.91204485024e-10
-5.94758944266e-08
-4.75559352625e-10
-5.92415445839e-08
-6.5782381039e-10
-5.89695740312e-08
-8.3770125586e-10
-5.86606096008e-08
-1.01492385307e-09
-5.83154116974e-08
-1.18923814188e-09
-5.79347601076e-08
-1.36039733864e-09
-5.75195358054e-08
-1.52816219848e-09
-5.70706124452e-08
-1.69230361398e-09
-5.65889454924e-08
-1.85260522963e-09
-5.60754720437e-08
-2.00886601307e-09
-5.55312009475e-08
-2.16090201161e-09
-5.4957116416e-08
-2.30854793446e-09
-5.43542666703e-08
-2.45165794976e-09
-5.37236697802e-08
-2.59010643175e-09
-5.30664002052e-08
-2.72378804546e-09
-5.23834965492e-08
-2.85261790456e-09
-5.16760459775e-08
-2.97653116703e-09
-5.09450939835e-08
-3.09548278781e-09
-5.01917267847e-08
-3.20944678052e-09
-4.94169833142e-08
-3.3184156891e-09
-4.86219356761e-08
-3.42239961989e-09
-4.78076035725e-08
-3.52142551846e-09
-4.69750328429e-08
-3.61553604927e-09
-4.612521252e-08
-3.70478874427e-09
-4.52591514272e-08
-3.78925479008e-09
-4.4377798022e-08
-3.86901810242e-09
-4.3482114984e-08
-3.94417407191e-09
-4.25730019834e-08
-4.01482860991e-09
-4.16513681649e-08
-4.08109689451e-09
-4.07180579495e-08
-4.14310242515e-09
-3.9773921298e-08
-4.20097580279e-09
-3.88197426425e-08
-4.25485382429e-09
-3.78563087981e-08
-4.30487832185e-09
-3.6884341105e-08
-4.35119531888e-09
-3.59045608439e-08
-4.39395394826e-09
-3.491762467e-08
-4.43330568485e-09
-3.39241873796e-08
-4.46940335346e-09
-3.29248407097e-08
-4.50240044636e-09
-3.19201733007e-08
-4.53245022715e-09
-3.09107129401e-08
-4.55970513592e-09
-2.98969835643e-08
-4.58431598965e-09
-2.88794510223e-08
-4.6064314727e-09
-2.78585769648e-08
-4.62619743136e-09
-2.68347682081e-08
-4.64375644449e-09
-2.58084273628e-08
-4.65924720654e-09
-2.47799058782e-08
-4.67280417021e-09
-2.37495512721e-08
-4.68455701077e-09
-2.27176639419e-08
-4.69463033062e-09
-2.16845408662e-08
-4.7031431924e-09
-2.06504362754e-08
-4.7102088627e-09
-1.96156017173e-08
-4.71593437526e-09
-1.85802507139e-08
-4.72042022589e-09
-1.75445951513e-08
-4.72375977213e-09
-1.65088141889e-08
-4.7260384446e-09
-1.54730872498e-08
-4.7273320224e-09
-1.44375680951e-08
-4.72770327167e-09
-1.34024160816e-08
-4.72719465488e-09
-1.23677791642e-08
-4.72581315165e-09
-1.13338309066e-08
-4.72349859638e-09
-1.03007777659e-08
-4.72005930577e-09
-9.26893203435e-09
-4.71504352355e-09
-8.23880218446e-09
-4.70748858189e-09
-7.21131365551e-09
-4.69544212295e-09
-6.18819174096e-09
-4.67506928092e-09
-5.17271530211e-09
-4.63902677999e-09
-4.17108607379e-09
-4.57358074948e-09
-3.19492364801e-09
-4.45369123991e-09
-2.26554589831e-09
-4.23528402638e-09
-1.42046913167e-09
-3.84581373241e-09
-7.19227878174e-10
-3.18503235344e-09
-2.32112315238e-10
-2.18261362918e-09
-9.32330535219e-10
-1.31974391944e-09
6.46739871964e-09
-2.64109169791e-09
6.47067765335e-09
-3.96269552577e-09
6.47601446861e-09
-5.28441070571e-09
6.48278958094e-09
-6.60656364816e-09
6.49074224154e-09
-7.92939781834e-09
6.49978791568e-09
-9.25320543933e-09
6.50982924681e-09
-1.05780337448e-08
6.52069023858e-09
-1.19039483243e-08
6.53212261628e-09
-1.32307554091e-08
6.54382666865e-09
-1.45582763968e-08
6.55546918704e-09
-1.58860796024e-08
6.56668949283e-09
-1.72137613405e-08
6.57711016113e-09
-1.85406762826e-08
6.58634024729e-09
-1.98662207333e-08
6.59398107039e-09
-2.11895656875e-08
6.59962807582e-09
-2.25099369249e-08
6.60287511389e-09
-2.38263512395e-08
6.60331565861e-09
-2.51378929754e-08
6.6005469078e-09
-2.64434527765e-08
6.59417111749e-09
-2.7742001388e-08
6.58379988213e-09
-2.90323301979e-08
6.56905559825e-09
-3.03133231183e-08
6.54957565995e-09
-3.15836982214e-08
6.52501370253e-09
-3.28422781659e-08
6.49504333969e-09
-3.40877324e-08
6.45935889145e-09
-3.53188462319e-08
6.41767843706e-09
-3.6534263406e-08
6.36974392019e-09
-3.77327536244e-08
6.31532348652e-09
-3.89129557118e-08
6.25421105001e-09
-4.00736431173e-08
6.18622804666e-09
-4.12134682778e-08
6.11122266277e-09
-4.23312253658e-08
6.02907118665e-09
-4.34255967859e-08
5.93967708647e-09
-4.44954122007e-08
5.84297208011e-09
-4.55393983645e-08
5.73891516233e-09
-4.6556433295e-08
5.62749343063e-09
-4.7545300829e-08
5.50872109426e-09
-4.8504938681e-08
5.38264005248e-09
-4.94341991571e-08
5.24931887871e-09
-5.03320897856e-08
5.1088531191e-09
-5.11975415734e-08
4.96136421402e-09
-5.20296409306e-08
4.80699947507e-09
-5.28274067397e-08
4.64593090394e-09
-5.35900124545e-08
4.47835483473e-09
-5.43165730595e-08
4.30449064539e-09
-5.50063564325e-08
4.124580098e-09
-5.56585809772e-08
3.93888596398e-09
-5.62726155892e-08
3.74769111186e-09
-5.68477883926e-08
3.55129706711e-09
-5.73835749305e-08
3.35002290014e-09
-5.78794180963e-08
3.14420374196e-09
-5.83349045064e-08
2.93418952807e-09
-5.87495954198e-08
2.72034348332e-09
-5.91231916051e-08
2.50304074424e-09
-5.94553748162e-08
2.28266675936e-09
-5.97459618323e-08
2.05961571174e-09
-5.99947559249e-08
1.83428867214e-09
-6.02016910758e-08
1.60709164496e-09
-6.03666927808e-08
1.37843325934e-09
-6.04898136073e-08
1.14872227633e-09
-6.05711024733e-08
9.18364776202e-10
-6.06107328285e-08
6.87761507016e-10
-6.06088803276e-08
4.57305517544e-10
-6.05658481386e-08
2.273806457e-10
-6.04819604794e-08
-1.63701125051e-12
-6.03576730121e-08
-2.29415597968e-10
-6.01935416181e-08
-4.55328855196e-10
-5.99900904945e-08
-6.79016966357e-10
-5.97478242589e-08
-9.00083535989e-10
-5.94673710503e-08
-1.11816101492e-09
-5.91493844479e-08
-1.33290440271e-09
-5.87946428303e-08
-1.54398637893e-09
-5.84039384735e-08
-1.75109605038e-09
-5.79781682137e-08
-1.95393914731e-09
-5.75182270958e-08
-2.1522394539e-09
-5.70250989651e-08
-2.3457401135e-09
-5.64997547515e-08
-2.53420528502e-09
-5.59432423554e-08
-2.71742121722e-09
-5.53565882055e-08
-2.89519745834e-09
-5.47408856388e-08
-3.0673673736e-09
-5.40971989693e-08
-3.23378877872e-09
-5.34266500159e-08