/*--------------------------------*- C++ -*----------------------------------*\
| =========                 |                                                 |
| \\      /  F ield         | OpenFOAM: The Open Source CFD Toolbox           |
|  \\    /   O peration     | Version:  2206                                  |
|   \\  /    A nd           | Website:  www.openfoam.com                      |
|    \\/     M anipulation  |                                                 |
\*---------------------------------------------------------------------------*/
FoamFile
{
    version     2.0;
    format      ascii;
    arch        "LSB;label=64;scalar=64";
    class       surfaceScalarField;
    location    "0.7/water";
    object      phi.gas;
}
// * * * * * * * * * * * * * * * * * * * * * * * * * * * * * * * * * * * * * //

dimensions      [0 3 -1 0 0 0 0];

oriented        oriented;

internalField   nonuniform List<scalar> 
46280
(
-3.86857115306e-10
2.7348611399e-07
-6.55174721352e-10
2.73475791281e-07
-9.989642115e-10
2.73493537845e-07
-1.36439025468e-09
2.73508338374e-07
-1.74682867401e-09
2.7352061982e-07
-2.14173699397e-09
2.73531295188e-07
-2.55067672556e-09
2.7354130609e-07
-2.97093483861e-09
2.73550692771e-07
-3.40504224385e-09
2.7356000241e-07
-3.85074215429e-09
2.73568967927e-07
-4.31053057189e-09
2.7357802133e-07
-4.78254829425e-09
2.73586808312e-07
-5.26886326545e-09
2.73595705598e-07
-5.76799276764e-09
2.73604343679e-07
-6.28149015521e-09
2.73613048493e-07
-6.80815179603e-09
2.73621459187e-07
-7.34905899832e-09
2.73629853331e-07
-7.90315232298e-09
2.73637888487e-07
-8.47113690728e-09
2.73645799738e-07
-9.05196511359e-09
2.73653267799e-07
-9.64606589293e-09
2.7366049214e-07
-1.02523001415e-08
2.73667179035e-07
-1.08709040278e-08
2.73673498333e-07
-1.15005818165e-08
2.73679183203e-07
-1.21414369218e-08
2.73684378903e-07
-1.27919888708e-08
2.73688846175e-07
-1.34522464916e-08
2.7369270962e-07
-1.4120546803e-08
2.73695757838e-07
-1.47968218304e-08
2.73698097931e-07
-1.54792513619e-08
2.73699546254e-07
-1.61676923236e-08
2.73700194711e-07
-1.68602086442e-08
2.73699886948e-07
-1.75565698706e-08
2.73698701444e-07
-1.82547765375e-08
2.73696508432e-07
-1.89544900796e-08
2.73693374252e-07
-1.96537072352e-08
2.73689194886e-07
-2.03519538526e-08
2.73684025571e-07
-2.10472856512e-08
2.73677787195e-07
-2.17390636812e-08
2.73670524766e-07
-2.24254654473e-08
2.73662183317e-07
-2.31056569509e-08
2.73652798546e-07
-2.37779973708e-08
2.73642339031e-07
-2.4441432293e-08
2.73630832143e-07
-2.50945580226e-08
2.73618269521e-07
-2.57360793892e-08
2.73604671211e-07
-2.63648783307e-08
2.73590051456e-07
-2.69794084533e-08
2.73574423951e-07
-2.75788777216e-08
2.73557825026e-07
-2.81614861406e-08
2.73540262903e-07
-2.87267983284e-08
2.73521795316e-07
-2.9272770617e-08
2.73502425822e-07
-2.97993458673e-08
2.73482232695e-07
-3.03042562303e-08
2.7346121542e-07
-3.07878353871e-08
2.73439471732e-07
-3.12476239678e-08
2.73416997771e-07
-3.16843527131e-08
2.73393909825e-07
-3.20954131955e-08
2.73370201781e-07
-3.2481934997e-08
2.7334600806e-07
-3.28412155352e-08
2.73321322217e-07
-3.31747828675e-08
2.73296297054e-07
-3.34799007817e-08
2.73270928233e-07
-3.37584913839e-08
2.73245387286e-07
-3.40078487705e-08
2.73219674376e-07
-3.4230281125e-08
2.73193979598e-07
-3.44231777828e-08
2.73168308989e-07
-3.45892311099e-08
2.73142869933e-07
-3.47260124226e-08
2.73117668803e-07
-3.48366616068e-08
2.73092948987e-07
-3.49184466093e-08
2.73068541865e-07
-3.4968838395e-08
2.73045574729e-07
-3.49853450268e-08
2.73022994684e-07
-3.49750180711e-08
2.72999014591e-07
-3.49336464543e-08
2.72974001206e-07
-3.48635476635e-08
2.72948550108e-07
-3.47618046113e-08
2.72922861166e-07
-3.4631268422e-08
2.728972609e-07
-3.44694266227e-08
2.72871802861e-07
-3.42793977958e-08
2.72846717687e-07
-3.40589713076e-08
2.72821996012e-07
-3.38114247029e-08
2.72797820994e-07
-3.35347894038e-08
2.72774153103e-07
-3.32324314337e-08
2.72751148115e-07
-3.29025888427e-08
2.72728750739e-07
-3.25486664082e-08
2.72707097679e-07
-3.21690821939e-08
2.72686124356e-07
-3.17672403222e-08
2.72665951785e-07
-3.13417172389e-08
2.72646509351e-07
-3.08958830988e-08
2.72627903939e-07
-3.04284519679e-08
2.7261006075e-07
-2.99427307557e-08
2.7259307339e-07
-2.9437552513e-08
2.72576864225e-07
-2.89161351784e-08
2.7256151434e-07
-2.83774127499e-08
2.72546944317e-07
-2.78244915793e-08
2.72533223439e-07
-2.72563909363e-08
2.72520271501e-07
-2.66760862755e-08
2.72508146838e-07
-2.60826676743e-08
2.72496769332e-07
-2.54789635817e-08
2.72486187254e-07
-2.48641231066e-08
2.72476321415e-07
-2.42408149111e-08
2.72467211009e-07
-2.36082368528e-08
2.72458778516e-07
-2.29688881635e-08
2.72451055024e-07
-2.23220077352e-08
2.72443965365e-07
-2.16699188918e-08
2.72437533547e-07
-2.10118952854e-08
2.72431687322e-07
-2.03500807541e-08
2.72426444581e-07
-1.96837795953e-08
2.72421736491e-07
-1.90149553869e-08
2.72417575799e-07
-1.83429401164e-08
2.72413897483e-07
-1.76695187264e-08
2.72410710018e-07
-1.69940496535e-08
2.7240795252e-07
-1.63181429923e-08
2.72405630032e-07
-1.56411833558e-08
2.72403686031e-07
-1.49646115017e-08
2.7240212289e-07
-1.42878392396e-08
2.72400888609e-07
-1.36121449031e-08
2.7239998356e-07
-1.29369693827e-08
2.72399360347e-07
-1.226343632e-08
2.72399017893e-07
-1.15910186264e-08
2.72398913396e-07
-1.09206934158e-08
2.72399044775e-07
-1.02519692565e-08
2.72399373758e-07
-9.58568501497e-09
2.72399897634e-07
-8.92138979685e-09
2.72400582815e-07
-8.25979374289e-09
2.72401426981e-07
-7.60049594273e-09
2.7240240319e-07
-6.94409669063e-09
2.72403514708e-07
-6.29027725944e-09
2.72404752592e-07
-5.63959361625e-09
2.72406150988e-07
-4.99194522562e-09
2.72407771959e-07
-4.34811582423e-09
2.72409787963e-07
-3.7087694238e-09
2.72412543074e-07
-3.07597750949e-09
2.72416748293e-07
-2.45316200144e-09
2.72423759902e-07
-1.84728719523e-09
2.72436098485e-07
-1.27074838874e-09
2.72458196651e-07
-7.4531269983e-10
2.72497346314e-07
-3.05571737558e-10
2.72564203818e-07
2.28799631393e-12
2.72671033586e-07
1.20479786939e-10
2.72823958242e-07
2.72999810668e-07
-8.47098821265e-10
2.22841958467e-07
-1.64202312593e-09
2.22834948959e-07
-2.47144384241e-09
2.22846150801e-07
-3.30000340826e-09
2.22859252891e-07
-4.12965829921e-09
2.2287142312e-07
-4.96034527458e-09
2.22882677693e-07
-5.79329356171e-09
2.22893822431e-07
-6.62831070484e-09
2.22904841711e-07
-7.46663856058e-09
2.22916343811e-07
-8.30814753347e-09
2.22928035187e-07
-9.15397257843e-09
2.22940396376e-07
-1.0004049598e-08
2.22953009961e-07
-1.08593122714e-08
2.22966252881e-07
-1.17197265746e-08
2.22979663171e-07
-1.25859613858e-08
2.22993536394e-07
-1.34579551857e-08
2.23007395924e-07
-1.43361047458e-08
2.23021471565e-07
-1.5220257376e-08
2.23035289075e-07
-1.61105561762e-08
2.23049028605e-07
-1.70067053626e-08
2.23062228035e-07
-1.79086212075e-08
2.23075032986e-07
-1.88158314948e-08
2.23086999444e-07
-1.97280537847e-08
2.23098251085e-07
-2.06446250907e-08
2.23108366445e-07
-2.15650903724e-08
2.23117457051e-07
-2.24885982758e-08
2.2312512736e-07
-2.3414544447e-08
2.23131483695e-07
-2.4341904135e-08
2.23136159124e-07
-2.52699429233e-08
2.23139259242e-07
-2.61974866134e-08
2.23140447577e-07
-2.7123686429e-08
2.2313983139e-07
-2.80472483191e-08
2.23137106186e-07
-2.89672211248e-08
2.2313238197e-07
-2.98822243567e-08
2.23125387589e-07
-3.07912141896e-08
2.23116236188e-07
-3.16927591021e-08
2.23104691487e-07
-3.25857301085e-08
2.230908696e-07
-3.34686806785e-08
2.23074570487e-07
-3.43404034996e-08
2.23055912619e-07
-3.51994725899e-08
2.23034733324e-07
-3.60446086204e-08
2.23011152469e-07
-3.68744402041e-08
2.22985045735e-07
-3.76876234736e-08
2.22956533517e-07
-3.84828735333e-08
2.22925530648e-07
-3.92587903177e-08
2.22892157163e-07
-4.00142040188e-08
2.22856367569e-07
-4.07476689841e-08
2.22818280803e-07
-4.14581558235e-08
2.22777890989e-07
-4.21441858923e-08
2.22735315275e-07
-4.28048915577e-08
2.22690587112e-07
-4.34387771546e-08
2.22643821606e-07
-4.40451551484e-08
2.22595090766e-07
-4.46225313103e-08
2.22544507621e-07
-4.51704126671e-08
2.22492181621e-07
-4.5687327945e-08
2.22438223828e-07
-4.61729900576e-08
2.22382778974e-07
-4.66259726169e-08
2.22325955696e-07
-4.70462000263e-08
2.22267930577e-07
-4.74323108148e-08
2.22208808123e-07
-4.77844390261e-08
2.22148790757e-07
-4.8101301196e-08
2.22087974825e-07
-4.83832282729e-08
2.22026580097e-07
-4.8629019779e-08
2.21964688808e-07
-4.88391826054e-08
2.21902527751e-07
-4.90125979178e-08
2.21840159071e-07
-4.91499266713e-08
2.21777804906e-07
-4.92501154035e-08
2.21715508741e-07
-4.93139130102e-08
2.21653370564e-07
-4.93376590336e-08
2.21592139995e-07
-4.93232694241e-08
2.21530707316e-07
-4.92712380723e-08
2.21467277904e-07
-4.91808213483e-08
2.21402855586e-07
-4.90519258165e-08
2.21338049032e-07
-4.88860703469e-08
2.21273419805e-07
-4.86829451105e-08
2.21209210218e-07
-4.84440847697e-08
2.21145807707e-07
-4.81692856064e-08
2.21083324163e-07
-4.7860176265e-08
2.21022057205e-07
-4.75166842493e-08
2.20962052396e-07
-4.71405296452e-08
2.20903553964e-07
-4.67317664016e-08
2.20846565819e-07
-4.62921866573e-08
2.20791293658e-07
-4.5821954694e-08
2.20737711591e-07
-4.53229104085e-08
2.20685993747e-07
-4.47953081565e-08
2.20636091035e-07
-4.42410101972e-08
2.20588150024e-07
-4.36603403301e-08
2.20542102758e-07
-4.30551595021e-08
2.20498070772e-07
-4.24258409375e-08
2.204559705e-07
-4.17742221513e-08
2.20415900701e-07
-4.11007074518e-08
2.20377765015e-07
-4.04070915883e-08
2.20341641403e-07
-3.96937933268e-08
2.20307423284e-07
-3.89625473894e-08
2.20275169978e-07
-3.82137726399e-08
2.20244767149e-07
-3.74491295672e-08
2.20216257517e-07
-3.66690248484e-08
2.2018952133e-07
-3.58750327917e-08
2.20164586908e-07
-3.50675380262e-08
2.2014133129e-07
-3.42480196955e-08
2.20119770437e-07
-3.34168326317e-08
2.20099780219e-07
-3.25753539861e-08
2.2008136634e-07
-3.17239032587e-08
2.2006440536e-07
-3.08637515021e-08
2.20048894591e-07
-2.99951791907e-08
2.20034712961e-07
-2.91193490873e-08
2.20021851237e-07
-2.82365008221e-08
2.20010192151e-07
-2.73476889378e-08
2.19999721542e-07
-2.64531119326e-08
2.19990327187e-07
-2.55537177223e-08
2.19981991537e-07
-2.4649664846e-08
2.19974608444e-07
-2.37417979773e-08
2.19968158276e-07
-2.28302380478e-08
2.19962541812e-07
-2.19157309947e-08
2.19957738551e-07
-2.09983636282e-08
2.19953656875e-07
-2.00787889135e-08
2.1995027642e-07
-1.91570639592e-08
2.19947513686e-07
-1.82337552349e-08
2.19945349348e-07
-1.73088954322e-08
2.19943708418e-07
-1.6382971772e-08
2.19942573344e-07
-1.54559986417e-08
2.19941878039e-07
-1.45283918604e-08
2.19941607658e-07
-1.36001549962e-08
2.19941706064e-07
-1.26716426134e-08
2.19942163755e-07
-1.17428599253e-08
2.19942939832e-07
-1.08141205462e-08
2.19944042169e-07
-9.88546641886e-09
2.1994547061e-07
-8.95723725994e-09
2.19947304635e-07
-8.0296444136e-09
2.19949696065e-07
-7.10331506944e-09
2.19953018322e-07
-6.17914406735e-09
2.19958007713e-07
-5.25903591272e-09
2.19966148583e-07
-4.34643609567e-09
2.19980256141e-07
-3.44796236042e-09
2.20005562721e-07
-2.57578374441e-09
2.20051399405e-07
-1.75201853485e-09
2.20133674225e-07
-1.01502459572e-09
2.2027751924e-07
-4.24076707647e-10
2.20516671588e-07
-6.22926939369e-11
2.20876098223e-07
2.21324835373e-07
-1.05805837888e-09
2.32655993999e-07
-2.05243245321e-09
2.32652897175e-07
-3.09379379205e-09
2.3266107867e-07
-4.13286646063e-09
2.32671485909e-07
-5.17174518386e-09
2.32682350751e-07
-6.2109551448e-09
2.32693297636e-07
-7.25191558581e-09
2.32704763958e-07
-8.29470166339e-09
2.32716616591e-07
-9.34040550723e-09
2.32729282214e-07
-1.03889133514e-08
2.32742464243e-07
-1.14410619199e-08
2.32756490626e-07
-1.24966992994e-08
2.32770961714e-07
-1.35563772888e-08
2.32786131395e-07
-1.46199245351e-08
2.32801538272e-07
-1.56876231501e-08
2.32817360955e-07
-1.6759247512e-08
2.32833104991e-07
-1.78348256937e-08
2.32848885267e-07
-1.89140326533e-08
2.32864191689e-07
-1.99966648201e-08
2.32879092077e-07
-2.10822568303e-08
2.32893073786e-07
-2.21703983732e-08
2.32906174629e-07
-2.3260456542e-08
2.32917890139e-07
-2.43518394022e-08
2.32928243241e-07
-2.54437355073e-08
2.32936746873e-07
-2.65353951237e-08
2.32943421418e-07
-2.76258325234e-08
2.32947804764e-07
-2.87141623354e-08
2.32949923936e-07
-2.97992406597e-08
2.32949347649e-07
-3.08800659172e-08
2.32946115715e-07
-3.19553608195e-08
2.32939831745e-07
-3.30240244545e-08
2.32930551881e-07
-3.40846764546e-08
2.32917917491e-07
-3.51361303744e-08
2.32902002855e-07
-3.61769363983e-08
2.32882489242e-07
-3.72058341697e-08
2.32859469884e-07
-3.82213393714e-08
2.32832667817e-07
-3.92221267912e-08
2.32802195315e-07
-4.02067125927e-08
2.32767818578e-07
-4.11737149463e-08
2.32729668398e-07
-4.21216845892e-08
2.32687555168e-07
-4.30491904209e-08
2.32641627214e-07
-4.39548501979e-08
2.32591739746e-07
-4.48371919188e-08
2.32538057441e-07
-4.56949302281e-08
2.32480480621e-07
-4.65265606684e-08
2.32419188806e-07
-4.7330921299e-08
2.32354126992e-07
-4.81064856449e-08
2.32285487821e-07
-4.88522378172e-08
2.32213260011e-07
-4.95666406245e-08
2.32137647443e-07
-5.02488428854e-08
2.32058681114e-07
-5.08973105935e-08
2.31976574575e-07
-5.15113718686e-08
2.31891399499e-07
-5.2089510681e-08
2.31803377793e-07
-5.26312450037e-08
2.31712619845e-07
-5.31350940597e-08
2.31619354872e-07
-5.36007725231e-08
2.31523729612e-07
-5.40268520372e-08
2.31425979194e-07
-5.44132469292e-08
2.31326282934e-07
-5.47585988118e-08
2.31224879089e-07
-5.50630198946e-08
2.31121973327e-07
-5.5325235927e-08
2.31017801339e-07
-5.55455500629e-08
2.3091258533e-07
-5.57227832491e-08
2.30806549668e-07
-5.58574150146e-08
2.30699919946e-07
-5.59483642446e-08
2.30592896672e-07
-5.59962578952e-08
2.30485696593e-07
-5.60001565398e-08
2.3037843863e-07
-5.59585136762e-08
2.30271690213e-07
-5.58724936462e-08
2.30164556941e-07
-5.57459804373e-08
2.30056925324e-07
-5.55765830853e-08
2.29950550884e-07
-5.53658453649e-08
2.29845876309e-07
-5.51145461475e-08
2.29742743216e-07
-5.48248490278e-08
2.29641234315e-07
-5.44970182276e-08
2.29541436339e-07
-5.41329424204e-08
2.29443545954e-07
-5.37327816536e-08
2.29347689893e-07
-5.32983740005e-08
2.29254069645e-07
-5.28299078999e-08
2.29162794723e-07
-5.23292350284e-08
2.29074041719e-07
-5.1796609472e-08
2.28987889777e-07
-5.12339067003e-08
2.2890448385e-07
-5.06414505491e-08
2.28823871453e-07
-5.00211309684e-08
2.28746165629e-07
-4.93733319901e-08
2.28671384145e-07
-4.86999418076e-08
2.28599609606e-07
-4.8001390813e-08
2.28530832784e-07
-4.72795472809e-08
2.28465108044e-07
-4.65348722015e-08
2.28402402114e-07
-4.57691961392e-08
2.28342743537e-07
-4.49829957199e-08
2.28286078094e-07
-4.41780473861e-08
2.2823241122e-07
-4.33548291597e-08
2.28181670872e-07
-4.25150488225e-08
2.28133842178e-07
-4.16591736739e-08
2.28088838412e-07
-4.07888305233e-08
2.28046627355e-07
-3.99044653179e-08
2.28007110678e-07
-3.90076139497e-08
2.2797024171e-07
-3.80986927807e-08
2.27935913517e-07
-3.71791391525e-08
2.27904067869e-07
-3.62493332994e-08
2.27874592036e-07
-3.53106087174e-08
2.27847418947e-07
-3.43633051946e-08
2.27822432692e-07
-3.34086491995e-08
2.27799559964e-07
-3.24469373225e-08
2.27778684031e-07
-3.14792879027e-08
2.27759727696e-07
-3.0505953365e-08
2.27742575535e-07
-2.95279446463e-08
2.27727148624e-07
-2.85454703279e-08
2.27713334686e-07
-2.75594362659e-08
2.27701054984e-07
-2.65700089484e-08
2.27690201985e-07
-2.5577992883e-08
2.27680698845e-07
-2.45835151907e-08
2.27672444122e-07
-2.35872839046e-08
2.27665364337e-07
-2.25893905944e-08
2.27659365265e-07
-2.15904526897e-08
2.27654378068e-07
-2.05905307498e-08
2.27650316654e-07
-1.95901582036e-08
2.27647117899e-07
-1.85893700431e-08
2.27644704604e-07
-1.75886228545e-08
2.27643020334e-07
-1.65879322936e-08
2.2764199756e-07
-1.55876861352e-08
2.27641587867e-07
-1.45878885237e-08
2.27641735335e-07
-1.35888690068e-08
2.27642403782e-07
-1.25906336204e-08
2.27643557512e-07
-1.15934754211e-08
2.27645191438e-07
-1.05974396066e-08
2.27647329943e-07
-9.6028525423e-09
2.27650082481e-07
-8.60993436391e-09
2.27653703269e-07
-7.61930887078e-09
2.27658753925e-07
-6.63188655369e-09
2.27666373046e-07
-5.64958000847e-09
2.27678810577e-07
-4.67586809331e-09
2.27700360816e-07
-3.71745696985e-09
2.27739010379e-07
-2.78685356985e-09
2.27809160744e-07
-1.90721393561e-09
2.2793580128e-07
-1.11928179888e-09
2.28159492243e-07
-4.85568029113e-10
2.28536266354e-07
-9.27558076746e-11
2.29110045368e-07
2.29837198629e-07
-1.16102949902e-09
2.32410071749e-07
-2.25746337717e-09
2.3241021247e-07
-3.40475900716e-09
2.32417287837e-07
-4.55123868384e-09
2.32426715768e-07
-5.69841257838e-09
2.32437357322e-07
-6.84658922593e-09
2.3244892116e-07
-7.99712839355e-09
2.32461543403e-07
-9.1500020521e-09
2.32475091608e-07
-1.03061879235e-08
2.32489673451e-07
-1.14655073189e-08
2.32505011081e-07
-1.26285496123e-08
2.32521169744e-07
-1.37950076635e-08
2.32537788404e-07
-1.49651440948e-08
2.32554864431e-07
-1.6138550729e-08
2.32571988956e-07
-1.73151817547e-08
2.32589101798e-07
-1.84945261018e-08
2.32605759102e-07
-1.96762685326e-08
2.32621853329e-07
-2.08597732716e-08
2.32636920185e-07
-2.20444972527e-08
2.32650818851e-07
-2.32296592926e-08
2.32663078508e-07
-2.44145271488e-08
2.32673540984e-07
-2.55981633583e-08
2.32681742102e-07
-2.67796812646e-08
2.32687521684e-07
-2.79579885921e-08
2.32690434156e-07
-2.9132074999e-08
2.32690330706e-07
-3.03007064993e-08
2.32686794426e-07
-3.14627758611e-08
2.32679698284e-07
-3.26169295493e-08
2.32668661691e-07
-3.37619860708e-08
2.32653586694e-07
-3.48965008523e-08
2.3263413423e-07
-3.60192368794e-08
2.3261023984e-07
-3.71286909379e-08
2.32581609221e-07
-3.82235853142e-08
2.3254821384e-07
-3.93023924293e-08
2.32509806192e-07
-4.03638053244e-08
2.32466394851e-07
-4.14063064865e-08
2.32417780391e-07
-4.24285681771e-08
2.32364008819e-07
-4.34291164389e-08
2.32304929536e-07
-4.44066095132e-08
2.322406256e-07
-4.53596489585e-08
2.32170995424e-07
-4.62868848143e-08
2.32096158163e-07
-4.71870238911e-08
2.32016061008e-07
-4.80587140099e-08
2.3193085777e-07
-4.8900794073e-08
2.31840543509e-07
-4.97119161071e-08
2.31745304593e-07
-5.04910742975e-08
2.31645182369e-07
-5.12369326152e-08
2.31540393084e-07
-5.19486599563e-08
2.31431022019e-07
-5.26249413031e-08
2.31317312168e-07
-5.32651354959e-08
2.31199389976e-07
-5.38679592825e-08
2.31077522e-07
-5.44329724536e-08
2.30951872696e-07
-5.49589353459e-08
2.3082272892e-07
-5.54456150924e-08
2.30690289828e-07
-5.5891828257e-08
2.30554859405e-07
-5.62975513061e-08
2.30416667639e-07
-5.66616692556e-08
2.30276031909e-07
-5.6984364892e-08
2.30133208055e-07
-5.72646024638e-08
2.29988521661e-07
-5.75027632357e-08
2.29842246857e-07
-5.76978986753e-08
2.29694709362e-07
-5.7850575774e-08
2.29546190925e-07
-5.79599387434e-08
2.29397006481e-07
-5.80267243342e-08
2.29247431323e-07
-5.80501575748e-08
2.29097753416e-07
-5.80311124746e-08
2.28948215152e-07
-5.79677037124e-08
2.28799250159e-07
-5.78623325881e-08
2.28650734463e-07
-5.77162082092e-08
2.28503187063e-07
-5.7530015985e-08
2.28357457265e-07
-5.73037415653e-08
2.2821366766e-07
-5.70387722726e-08
2.28071985724e-07
-5.67350707598e-08
2.27932584864e-07
-5.63943379024e-08
2.27795642981e-07
-5.60166676615e-08
2.27661341914e-07
-5.5603814763e-08
2.27529876181e-07
-5.51559353602e-08
2.27401427227e-07
-5.46748157142e-08
2.27276179445e-07
-5.41606778747e-08
2.2715429269e-07
-5.36153384741e-08
2.27035924775e-07
-5.30390892858e-08
2.26921203431e-07
-5.24337710555e-08
2.26810252665e-07
-5.17997411082e-08
2.26703164459e-07
-5.11388520045e-08
2.26600026792e-07
-5.04515162596e-08
2.26500895717e-07
-4.97395821819e-08
2.26405823673e-07
-4.90035038417e-08
2.26314832506e-07
-4.82451080354e-08
2.26227940979e-07
-4.74648754616e-08
2.26145139396e-07
-4.66645942227e-08
2.26066415636e-07
-4.58447569364e-08
2.25991731787e-07
-4.50070971266e-08
2.25921048133e-07
-4.4152105621e-08
2.25854302183e-07
-4.32814471395e-08
2.25791430293e-07
-4.23955986191e-08
2.2573234928e-07
-4.14961439724e-08
2.25676975374e-07
-4.05835360265e-08
2.25625208577e-07
-3.96592680699e-08
2.25576948878e-07
-3.87237606566e-08
2.25532083319e-07
-3.77784090452e-08
2.25490499398e-07
-3.68235953375e-08
2.25452074844e-07
-3.58606116167e-08
2.25416688276e-07
-3.48897972657e-08
2.25384211563e-07
-3.39123382692e-08
2.25354517772e-07
-3.29285288713e-08
2.2532747602e-07
-3.19394479453e-08
2.25302956911e-07
-3.09453437748e-08
2.25280829631e-07
-2.99471890187e-08
2.25260965052e-07
-2.89451865763e-08
2.25243234897e-07
-2.79402053298e-08
2.25227512741e-07
-2.69324046616e-08
2.25213675002e-07
-2.59225534895e-08
2.25201600073e-07
-2.4910770617e-08
2.25191170895e-07
-2.38977299493e-08
2.25182272503e-07
-2.28835135954e-08
2.25174795916e-07
-2.18687063582e-08
2.25168634369e-07
-2.08533583832e-08
2.25163688235e-07
-1.98379719862e-08
2.25159860283e-07
-1.88225708993e-08
2.2515706135e-07
-1.78075822285e-08
2.25155204972e-07
-1.67930097259e-08
2.25154213657e-07
-1.57792135026e-08
2.25154013549e-07
-1.47661854783e-08
2.25154541745e-07
-1.37542296627e-08
2.25155742918e-07
-1.27433401272e-08
2.25157580896e-07
-1.17337871009e-08
2.25160044892e-07
-1.07256045322e-08
2.25163179987e-07
-9.71909894769e-09
2.25167132955e-07
-8.7144795322e-09
2.25172259055e-07
-7.71235192863e-09
2.25179316534e-07
-6.71361459674e-09
2.25189850003e-07
-5.72016506013e-09
2.2520689203e-07
-4.73549177264e-09
2.25236243714e-07
-3.76637582984e-09
2.25288722339e-07
-2.82559997242e-09
2.25383965065e-07
-1.93704281626e-09
2.25556352944e-07
-1.14286450156e-09
2.25862200984e-07
-5.06987285067e-10
2.26379569619e-07
-1.11766651091e-10
2.27167744724e-07
2.28162555816e-07
-1.20522481056e-09
2.33964739635e-07
-2.34367194079e-09
2.33967363004e-07
-3.53565454977e-09
2.33974448823e-07
-4.72776379935e-09
2.33983941136e-07
-5.92148247369e-09
2.33995154368e-07
-7.11686583642e-09
2.34007921881e-07
-8.31516660284e-09
2.34022184544e-07
-9.51630252318e-09
2.34037751062e-07
-1.07211498075e-08
2.34054500382e-07
-1.19294067973e-08
2.34072133396e-07
-1.31415706296e-08
2.34090444813e-07
-1.4357210562e-08
2.34109065539e-07
-1.55764177465e-08
2.34127755036e-07
-1.67986389699e-08
2.34146095828e-07
-1.80236247376e-08
2.34163810519e-07
-1.92506848686e-08
2.34180455235e-07
-2.04792874041e-08
2.34195724203e-07
-2.17085941886e-08
2.34209161524e-07
-2.29378466541e-08
2.34220445941e-07
-2.41660530671e-08
2.34229123331e-07
-2.53922793771e-08
2.3423487209e-07
-2.66153841397e-08
2.34237253735e-07
-2.78343031816e-08
2.34235961424e-07
-2.90477595281e-08
2.3423058527e-07
-3.02545979783e-08
2.34220846621e-07
-3.145342907e-08
2.3420637488e-07
-3.26430391777e-08
2.34186929973e-07
-3.38219554669e-08
2.34162188347e-07
-3.49889317923e-08
2.34131955575e-07
-3.61424445372e-08
2.34095959871e-07
-3.72812345738e-08
2.34054056407e-07
-3.84037614309e-08
2.34006027471e-07
-3.95087665406e-08
2.33951779642e-07
-4.0594726153e-08
2.33891150016e-07
-4.16603907239e-08
2.33824096958e-07
-4.27042851751e-08
2.33750512226e-07
-4.37251731735e-08
2.33670405504e-07
-4.47216580417e-08
2.33583722438e-07
-4.56925181641e-08
2.33490522872e-07
-4.66364622855e-08
2.33390805129e-07
-4.75522835035e-08
2.3328467752e-07
-4.84388200296e-08
2.33172189375e-07
-4.92948794996e-08
2.33053495177e-07
-5.01194502311e-08
2.32928693047e-07
-5.09113547102e-08
2.32797980658e-07
-5.16697484196e-08
2.32661502038e-07
-5.23934706618e-08
2.32519494426e-07
-5.30818574318e-08
2.32372144318e-07
-5.37337686773e-08
2.32219724402e-07
-5.43487304777e-08
2.32062459791e-07
-5.49256294463e-08
2.31900654236e-07
-5.54641874456e-08
2.31734567324e-07
-5.59633253165e-08
2.31564529311e-07
-5.64229623811e-08
2.31390829852e-07
-5.68420626983e-08
2.31213820993e-07
-5.7220740799e-08
2.31033817645e-07
-5.75580132406e-08
2.30851188357e-07
-5.78541838789e-08
2.30666267432e-07
-5.81083311773e-08
2.30479433303e-07
-5.83209395884e-08
2.30291031827e-07
-5.84911583814e-08
2.30101442487e-07
-5.86196414547e-08
2.29911012497e-07
-5.8705616935e-08
2.29720111967e-07
-5.87498982478e-08
2.29529079067e-07
-5.87518266867e-08
2.29338267449e-07
-5.87116014617e-08
2.29147980643e-07
-5.8628819096e-08
2.28958542838e-07
-5.85060645406e-08
2.28770437881e-07
-5.83428603692e-08
2.28584094009e-07
-5.81403187544e-08
2.28399879325e-07
-5.78979991822e-08
2.28218154176e-07
-5.76172622174e-08
2.28039194848e-07
-5.72979442814e-08
2.27863264496e-07
-5.69416271526e-08
2.27690612431e-07
-5.65483335727e-08
2.27521487561e-07
-5.61197695948e-08
2.27356123974e-07
-5.56560798316e-08
2.27194748593e-07
-5.51590465111e-08
2.27037569161e-07
-5.46289116144e-08
2.26884780075e-07
-5.40675090876e-08
2.26736553403e-07
-5.34751643615e-08
2.26593044036e-07
-5.28537443787e-08
2.26454383025e-07
-5.22036449666e-08
2.26320682552e-07
-5.15267476729e-08
2.26192030675e-07
-5.08235039854e-08
2.26068496436e-07
-5.00957911246e-08
2.25950125328e-07
-4.93441003712e-08
2.25836944818e-07
-4.85702856995e-08
2.25728959951e-07
-4.77748619692e-08
2.25626159484e-07
-4.69596418047e-08
2.25528511287e-07
-4.61251481254e-08
2.25435969212e-07
-4.52731356335e-08
2.25348467994e-07
-4.44041210682e-08
2.25265930956e-07
-4.35197866053e-08
2.25188264231e-07
-4.2620630452e-08
2.25115365321e-07
-4.17082499847e-08
2.25047116545e-07
-4.07831145191e-08
2.2498339441e-07
-3.98467268136e-08
2.24924062227e-07
-3.88995192133e-08
2.2486898029e-07
-3.79428925144e-08
2.24817997621e-07
-3.69772360746e-08
2.24770962861e-07
-3.60038437845e-08
2.24727715211e-07
-3.50230581132e-08
2.24688095945e-07
-3.40360633563e-08
2.24651938588e-07
-3.30431529898e-08
2.24619080946e-07
-3.2045401096e-08
2.24589354639e-07
-3.10430517376e-08
2.2456259751e-07
-3.00370700029e-08
2.24538642625e-07
-2.90276515485e-08
2.24517330953e-07
-2.80156552774e-08
2.24498499941e-07
-2.70012306979e-08
2.24481996362e-07
-2.59851347047e-08
2.2446766459e-07
-2.49674739863e-08
2.24455359491e-07
-2.39489087053e-08
2.24444934545e-07
-2.29295069589e-08
2.2443625465e-07
-2.19098384192e-08
2.24429184235e-07
-2.08899376321e-08
2.24423599862e-07
-1.9870290676e-08
2.24419378502e-07
-1.88509044149e-08
2.24416409803e-07
-1.78321888598e-08
2.24414584787e-07
-1.6814129906e-08
2.24413807826e-07
-1.57970699171e-08
2.24413986353e-07
-1.47809822391e-08
2.24415043336e-07
-1.37661526803e-08
2.24416910281e-07
-1.27525561905e-08
2.24419544473e-07
-1.1740444453e-08
2.24422934704e-07
-1.07298318667e-08
2.24427141934e-07
-9.72100618218e-09
2.24432355373e-07
-8.71415747752e-09
2.24439028916e-07
-7.70987477565e-09
2.24448125207e-07
-6.7090450799e-09
2.24461601001e-07
-5.71357285345e-09
2.24483294836e-07
-4.72699328312e-09
2.24520558528e-07
-3.75623652247e-09
2.24587134669e-07
-2.81445567141e-09
2.24708074402e-07
-1.92640381957e-09
2.24927454327e-07
-1.13605063006e-09
2.25317759527e-07
-5.08935787985e-10
2.2597901492e-07
-1.21304587494e-10
2.26981284263e-07
2.28231155713e-07
-1.22118170206e-09
2.35239297888e-07
-2.37445742384e-09
2.35243754569e-07
-3.58253813205e-09
2.35251418814e-07
-4.79150315294e-09
2.35261633049e-07
-6.00276579209e-09
2.35274057965e-07
-7.21632161329e-09
2.35288553793e-07
-8.43347037924e-09
2.35304928061e-07
-9.65400155278e-09
2.35322950554e-07
-1.087880422e-08
2.35342277093e-07
-1.21075728706e-08
2.35362517271e-07
-1.33407170933e-08
2.35383280762e-07
-1.45777703148e-08
2.35404107293e-07
-1.58187427532e-08
2.35424559884e-07
-1.70630069503e-08
2.35444151312e-07
-1.83102099811e-08
2.35462424744e-07
-1.95595638885e-08
2.35478880741e-07
-2.08104189671e-08
2.35493055935e-07
-2.20618215747e-08
2.35504453589e-07
-2.33128930538e-08
2.35512616232e-07
-2.45625170544e-08
2.35517064261e-07
-2.58096477666e-08
2.35517360199e-07
-2.70530200758e-08
2.35513055883e-07
-2.82914750383e-08
2.35503748096e-07
-2.95236225957e-08
2.35489033026e-07
-3.07482362383e-08
2.35468554189e-07
-3.19638317052e-08
2.35441962127e-07
-3.3169151494e-08
2.35408956173e-07
-3.43626514766e-08
2.35369247609e-07
-3.55430704686e-08
2.35322597014e-07
-3.67088395717e-08
2.35268779301e-07
-3.78587124186e-08
2.35207618439e-07
-3.89911293186e-08
2.35138953204e-07
-4.01048692452e-08
2.35062670937e-07
-4.11984132523e-08
2.34978672921e-07
-4.22705694915e-08
2.3488690854e-07
-4.33198882228e-08
2.34787339446e-07
-4.43452054993e-08
2.34679975123e-07
-4.53451658971e-08
2.34564835117e-07
-4.63186288803e-08
2.34441986657e-07
-4.72643551394e-08
2.3431150455e-07
-4.81812215689e-08
2.34173511119e-07
-4.90681235529e-08
2.34028133628e-07
-4.9923949536e-08
2.33875546432e-07
-5.07477450086e-08
2.3371592611e-07
-5.15384055051e-08
2.3354949548e-07
-5.22951389775e-08
2.333764769e-07
-5.30168462292e-08
2.33197137535e-07
-5.37029072755e-08
2.33011741578e-07
-5.43522295562e-08
2.32820595978e-07
-5.4964371992e-08
2.32624002492e-07
-5.5538253447e-08
2.3242230295e-07
-5.6073615868e-08
2.32215832119e-07
-5.65693973246e-08
2.3200496155e-07
-5.70255241379e-08
2.31790054273e-07
-5.74409638379e-08
2.31571506254e-07
-5.7815825862e-08
2.31349703742e-07
-5.81491191181e-08
2.31125061418e-07
-5.84411326028e-08
2.30897982964e-07
-5.86909296721e-08
2.30668894999e-07
-5.88989737468e-08
2.30438211094e-07
-5.90643961769e-08
2.30206360751e-07
-5.91878272251e-08
2.29973756864e-07
-5.92684754729e-08
2.29740819278e-07
-5.93071177186e-08
2.29507945564e-07
-5.93030120403e-08
2.29275525208e-07
-5.92562489917e-08
2.2904411755e-07
-5.91669240281e-08
2.28813975211e-07
-5.90372846619e-08
2.28585622106e-07
-5.88663622292e-08
2.28359567394e-07
-5.86553802217e-08
2.28136221258e-07
-5.84040024067e-08
2.27915963915e-07
-5.81136291556e-08
2.27699154324e-07
-5.77841269463e-08
2.27486136346e-07
-5.74170795325e-08
2.27277233061e-07
-5.70125270242e-08
2.27072752753e-07
-5.6572184908e-08
2.26872983159e-07
-5.6096230807e-08
2.26678193923e-07
-5.55864731448e-08
2.26488631845e-07
-5.50432018986e-08
2.26304522018e-07
-5.44682896554e-08
2.26126064498e-07
-5.38621189069e-08
2.25953435134e-07
-5.3226601986e-08
2.2578678349e-07
-5.25621954266e-08
2.25626233832e-07
-5.18708285698e-08
2.2547188391e-07
-5.11530134812e-08
2.25323806376e-07
-5.04106745537e-08
2.2518204804e-07
-4.96443608676e-08
2.25046631886e-07
-4.88559709312e-08
2.24917556412e-07
-4.80460728812e-08
2.24794798368e-07
-4.72165198475e-08
2.24678311936e-07
-4.6367882298e-08
2.24568032195e-07
-4.55019504586e-08
2.24463873928e-07