/*--------------------------------*- C++ -*----------------------------------*\
| =========                 |                                                 |
| \\      /  F ield         | OpenFOAM: The Open Source CFD Toolbox           |
|  \\    /   O peration     | Version:  2212                                  |
|   \\  /    A nd           | Website:  www.openfoam.com                      |
|    \\/     M anipulation  |                                                 |
\*---------------------------------------------------------------------------*/
FoamFile
{
    version     2.0;
    format      ascii;
    arch        "LSB;label=64;scalar=64";
    class       volScalarField;
    location    "1720";
    object      Gco2;
}
// * * * * * * * * * * * * * * * * * * * * * * * * * * * * * * * * * * * * * //

dimensions      [1 -3 0 0 0 0 0];

internalField   nonuniform List<scalar> 
1024
(
0.0547779
0.0547489
0.0546779
0.0545478
0.0543379
0.054025
0.053586
0.0530029
0.0522685
0.051391
0.0503986
0.0493366
0.0482621
0.0472354
0.0463157
0.0455662
0.0451154
0.0450439
0.0452971
0.0457984
0.0464795
0.0472791
0.0481306
0.0489623
0.0497104
0.0503337
0.0508176
0.0511689
0.0514067
0.0515548
0.0516357
0.0516687
0.0547683
0.0547391
0.0546674
0.054536
0.0543239
0.0540076
0.0535643
0.0529762
0.0522364
0.0513542
0.0503582
0.0492939
0.0482183
0.0471914
0.0462714
0.0455212
0.0450688
0.0449957
0.0452484
0.0457505
0.0464329
0.0472342
0.0480886
0.048925
0.0496792
0.0503091
0.0507989
0.0511547
0.0513956
0.0515454
0.0516272
0.0516604
0.0547452
0.0547154
0.0546422
0.0545079
0.0542909
0.0539675
0.0535147
0.0529153
0.0521637
0.0512707
0.0502661
0.0491963
0.0481177
0.0470892
0.0461675
0.0454137
0.0449554
0.0448775
0.0451314
0.0456401
0.046331
0.0471405
0.0480034
0.0488498
0.0496159
0.0502583
0.0507591
0.0511235
0.0513701
0.0515232
0.0516066
0.0516405
0.0547035
0.0546729
0.0545973
0.0544583
0.0542336
0.0538985
0.0534302
0.0528122
0.0520409
0.0511295
0.0501102
0.0490303
0.0479456
0.0469126
0.0459849
0.0452209
0.0447488
0.0446616
0.0449209
0.0454488
0.0461637
0.0469951
0.0478764
0.0487399
0.0495234
0.0501825
0.050698
0.0510735
0.0513275
0.0514849
0.0515703
0.0516048
0.0546379
0.054606
0.0545271
0.0543817
0.054146
0.0537945
0.0533039
0.0526591
0.0518589
0.0509201
0.0498781
0.0487817
0.0476855
0.0466422
0.0457007
0.0449154
0.0444169
0.0443144
0.0445868
0.0451541
0.0459185
0.0467948
0.0477109
0.0486016
0.0494077
0.0500863
0.0506174
0.0510043
0.0512654
0.0514266
0.0515136
0.0515486
0.0545423
0.054509
0.054426
0.0542723
0.0540224
0.0536493
0.0531294
0.0524485
0.051609
0.0506321
0.0495575
0.0484358
0.0473196
0.0462564
0.0452883
0.0444652
0.0439235
0.043799
0.0440951
0.0447282
0.0455773
0.0465321
0.0475081
0.0484406
0.0492756
0.0499745
0.0505194
0.0509147
0.0511802
0.0513428
0.0514297
0.0514642
0.0544111
0.0543761
0.0542884
0.0541247
0.0538575
0.0534577
0.0529009
0.0521744
0.0512839
0.0502564
0.0491367
0.0479776
0.046829
0.0457315
0.0447193
0.0438371
0.0432327
0.0430792
0.0434099
0.044137
0.0451115
0.0461877
0.0472582
0.0482536
0.0491265
0.0498461
0.0504005
0.0507982
0.051062
0.0512213
0.051305
0.0513375
0.0542386
0.0542019
0.054109
0.053934
0.0536466
0.0532153
0.0526143
0.0518319
0.050878
0.0497856
0.0486054
0.0473928
0.0461951
0.0450448
0.0439672
0.043003
0.0423156
0.042124
0.0424932
0.0433332
0.0444699
0.0457143
0.0469232
0.0480114
0.0489365
0.0496791
0.0502381
0.0506303
0.0508844
0.0510337
0.0511094
0.0511376
0.05402
0.0539817
0.0538832
0.053696
0.0533861
0.0529189
0.0522666
0.0514182
0.0503874
0.0492138
0.0479551
0.0466704
0.045404
0.0441808
0.0430172
0.0419502
0.0411606
0.0409126
0.0413017
0.042244
0.0435547
0.045005
0.0464016
0.0476238
0.0486259
0.0494013
0.0499644
0.050345
0.0505813
0.0507129
0.0507751
0.050796
0.0537512
0.0537113
0.0536072
0.0534071
0.053073
0.0525663
0.0518564
0.0509321
0.0498109
0.0485396
0.047184
0.0458082
0.0444554
0.0431433
0.0418799
0.0406974
0.0397866
0.0394415
0.039786
0.0407598
0.0421937
0.0438424
0.0454602
0.0468705
0.0479963
0.0488343
0.0494157
0.0497882
0.0500042
0.0501133
0.0501574
0.0501685
0.0534293
0.0533879
0.0532783
0.053065
0.0527057
0.0521569
0.0513846
0.0503767
0.049154
0.0477714
0.0463047
0.0448253
0.0433774
0.0419734
0.0406128
0.039317
0.0382651
0.037749
0.0379176
0.038759
0.0401576
0.0418913
0.0436903
0.0453193
0.0466356
0.0476011
0.0482489
0.0486432
0.0488549
0.0489486
0.0489771
0.0489789
0.0530541
0.0530112
0.0528964
0.0526703
0.0522861
0.0516953
0.0508595
0.0497655
0.0484376
0.0469396
0.0453594
0.043779
0.0422468
0.0407725
0.0393459
0.0379648
0.0367613
0.0359792
0.035785
0.0362355
0.0373037
0.038843
0.0406168
0.0423677
0.0438886
0.045062
0.0458709
0.0463672
0.0466324
0.0467481
0.0467821
0.0467834
0.0526304
0.0525863
0.052467
0.0522302
0.0518245
0.0511968
0.0503045
0.0491333
0.047711
0.0461113
0.0444363
0.0427822
0.0412068
0.0397208
0.0383027
0.0369124
0.0355932
0.0344898
0.033769
0.0335583
0.0339328
0.0348598
0.0362001
0.0377471
0.0392807
0.0406154
0.0416431
0.0423424
0.0427604
0.0429739
0.0430602
0.0430816
0.0521737
0.0521289
0.052007
0.0517641
0.0513459
0.0506956
0.0497675
0.0485461
0.0470627
0.0454004
0.0436767
0.0420065
0.0404643
0.039069
0.0377894
0.0365397
0.0352405
0.0338882
0.0326256
0.0316371
0.0310865
0.0310525
0.0315179
0.0323831
0.0334917
0.0346625
0.0357285
0.0365762
0.0371663
0.0375217
0.0376991
0.0377613
0.0517155
0.0516707
0.0515498
0.0513091
0.0508946
0.0502482
0.0493225
0.0481006
0.0466155
0.0449569
0.0432566
0.0416519
0.0402427
0.039067
0.0380932
0.0371945
0.0361537
0.0347734
0.0331461
0.0315014
0.0300763
0.0290357
0.0284564
0.0283373
0.0286133
0.0291687
0.0298588
0.0305395
0.0311017
0.0314946
0.0317202
0.0318117
0.0513091
0.0512655
0.05115
0.050923
0.0505346
0.0499293
0.0490604
0.0479087
0.0465037
0.0449347
0.0433412
0.0418812
0.0406866
0.0398273
0.0392864
0.0389166
0.0383739
0.0372354
0.0355004
0.0334244
0.031317
0.029433
0.0279308
0.0268771
0.0262673
0.0260425
0.0261057
0.0263381
0.0266238
0.0268741
0.0270424
0.0271196
0.0510473
0.0510056
0.0508986
0.0506936
0.0503484
0.0498147
0.0490488
0.0480294
0.0467774
0.0453714
0.0439449
0.0426635
0.041684
0.0411115
0.0409605
0.0410994
0.0411215
0.0404184
0.0388362
0.0365735
0.0339684
0.0313772
0.0290777
0.0272314
0.0258913
0.0250295
0.0245654
0.0243912
0.0243926
0.0244688
0.0245482
0.0245934
0.050972
0.050932
0.050833
0.0506494
0.0503478
0.0498888
0.0492344
0.0483622
0.0472841
0.0460626
0.0448138
0.0436935
0.0428634
0.0424484
0.0424918
0.0428955
0.0432639
0.0429446
0.0416703
0.039504
0.0366945
0.0336132
0.0306418
0.0280714
0.0260599
0.0246386
0.0237466
0.0232701
0.0230767
0.0230423
0.0230694
0.0230972
0.0510406
0.0510019
0.0509092
0.0507427
0.0504767
0.0500807
0.0495237
0.0487849
0.0478692
0.0468233
0.0457421
0.0447609
0.0440292
0.0436731
0.0437503
0.0441892
0.0446237
0.0444533
0.0434005
0.0414339
0.0386857
0.0354431
0.0320862
0.0289835
0.0263999
0.024458
0.0231503
0.0223802
0.0220056
0.0218773
0.0218671
0.0218861
0.0511996
0.0511628
0.0510764
0.0509244
0.0506873
0.0503421
0.049865
0.0492394
0.0484668
0.0475818
0.0466583
0.0458063
0.0451516
0.0448049
0.04482
0.0451337
0.0454191
0.045178
0.0441799
0.0423585
0.0397663
0.0365862
0.0331195
0.0297311
0.0267491
0.0243826
0.0226971
0.021638
0.0210745
0.0208448
0.0207946
0.020805
0.0513793
0.0513475
0.0512722
0.0511393
0.050932
0.0506324
0.0502232
0.0496928
0.0490434
0.0483012
0.047522
0.0467881
0.0461936
0.0458198
0.0456999
0.0457642
0.0457405
0.0452706
0.0441954
0.0424398
0.0400054
0.036996
0.0336223
0.0301803
0.0269949
0.0243327
0.0223352
0.021009
0.0202555
0.0199168
0.0198211
0.0198216
0.0514687
0.0514486
0.0513973
0.0512998
0.0511382
0.0508946
0.0505545
0.0501109
0.049568
0.0489465
0.048285
0.0476368
0.0470598
0.0465994
0.0462621
0.0459712
0.0455329
0.0447495
0.0435341
0.0418087
0.0395335
0.0367453
0.0335827
0.0302663
0.0270666
0.0242547
0.0220314
0.0204746
0.0195374
0.0190837
0.0189365
0.0189252
0.0513088
0.0513111
0.0513051
0.0512725
0.0511889
0.0510295
0.0507761
0.0504211
0.0499684
0.0494321
0.0488338
0.0481994
0.0475545
0.0469159
0.0462736
0.0455575
0.0446708
0.0435693
0.0422181
0.0405319
0.0384391
0.0359202
0.0330447
0.0299696
0.0269077
0.0240942
0.021749
0.0200143
0.0189095
0.0183386
0.0181339
0.0181083
0.0507171
0.0507547
0.0508189
0.0508849
0.0509165
0.0508744
0.0507272
0.0504583
0.0500645
0.0495513
0.0489264
0.0481988
0.0473783
0.0464723
0.0454733
0.0443329
0.0430494
0.0416975
0.0402672
0.0386598
0.0367823
0.034575
0.0320494
0.0292997
0.0264841
0.0237966
0.021443
0.0196014
0.0183584
0.0176747
0.0174077
0.0173649
0.049529
0.0496138
0.0497666
0.0499495
0.0501097
0.0501894
0.0501378
0.0499208
0.0495242
0.0489471
0.0481946
0.0472765
0.0462081
0.0450062
0.0436791
0.0422039
0.0406508
0.0391649
0.0377399
0.0362627
0.0346295
0.0327591
0.0306231
0.0282611
0.0257755
0.023316
0.0210628
0.019201
0.0178664
0.0170839
0.0167532
0.0166899
0.0476309
0.04777
0.0480086
0.048285
0.0485287
0.0486701
0.048645
0.048403
0.047923
0.0472071
0.0462701
0.0451365
0.0438379
0.042407
0.0408682
0.0392173
0.0375628
0.0360748
0.0347408
0.0334402
0.0320682
0.0305391
0.0288032
0.0268611
0.0247658
0.0226178
0.020562
0.0187725
0.0174103
0.0165566
0.0161662
0.0160795
0.0449655
0.0451559
0.045441
0.0457251
0.0459338
0.0460097
0.0458967
0.0455417
0.044927
0.0440625
0.0429743
0.0417005
0.0402854
0.038771
0.0371896
0.0355458
0.0339566
0.0325847
0.0314108
0.0303182
0.0292098
0.0280071
0.0266549
0.0251319
0.0234547
0.0216784
0.0199032
0.018276
0.0169618
0.0160802
0.0156428
0.0155314
0.0415063
0.0417269
0.0419696
0.0421191
0.0421367
0.0420111
0.0417159
0.0412116
0.0404865
0.0395494
0.0384272
0.0371596
0.0357918
0.0343651
0.0329107
0.0314356
0.030045
0.0288766
0.027908
0.0270373
0.026182
0.0252771
0.0242725
0.0231394
0.0218732
0.0204951
0.0190614
0.0176775
0.0164902
0.0156375
0.0151775
0.0150439
0.0372112
0.0374095
0.0374763
0.0373489
0.0370752
0.0367001
0.0362262
0.0356287
0.0348915
0.0340111
0.0330033
0.0318981
0.0307316
0.0295372
0.0283403
0.0271472
0.0260415
0.0251282
0.0243868
0.023737
0.0231153
0.0224723
0.0217685
0.0209771
0.0200858
0.0190963
0.0180316
0.0169522
0.0159675
0.0152085
0.0147628
0.0146153
0.0319715
0.032048
0.0318192
0.0313936
0.0308934
0.0303744
0.0298436
0.0292792
0.0286563
0.0279583
0.0271874
0.0263597
0.0254987
0.0246271
0.0237631
0.0229115
0.0221306
0.0214922
0.0209807
0.0205402
0.0201274
0.0197085
0.0192563
0.0187511
0.0181809
0.0175408
0.0168352
0.0160901
0.015369
0.0147708
0.0143872
0.0142431
0.0255702
0.0254165
0.0249684
0.0244711
0.0239899
0.0235444
0.0231338
0.0227378
0.0223322
0.0218982
0.0214306
0.0209351
0.0204236
0.019909
0.0194018
0.0189051
0.0184523
0.0180841
0.0177914
0.0175421
0.0173118
0.0170813
0.0168355
0.0165629
0.0162559
0.0159101
0.0155241
0.0151053
0.0146804
0.0143022
0.0140359
0.0139221
0.0177405
0.0176195
0.0173875
0.0171681
0.0169706
0.0167958
0.0166419
0.0165007
0.0163619
0.0162172
0.0160633
0.0159014
0.0157348
0.0155676
0.0154033
0.0152429
0.015097
0.0149787
0.0148849
0.0148055
0.0147327
0.0146604
0.0145838
0.0144993
0.0144046
0.014298
0.0141789
0.0140483
0.0139127
0.0137864
0.0136902
0.0136436
)
;

boundaryField
{
    movingWall
    {
        type            fixedValue;
        value           uniform 0.0135;
    }
    fixedWalls
    {
        type            zeroGradient;
    }
    floor
    {
        type            zeroGradient;
    }
    frontAndBack
    {
        type            empty;
    }
}


// ************************************************************************* //
