/*--------------------------------*- C++ -*----------------------------------*\
| =========                 |                                                 |
| \\      /  F ield         | OpenFOAM: The Open Source CFD Toolbox           |
|  \\    /   O peration     | Version:  2212                                  |
|   \\  /    A nd           | Website:  www.openfoam.com                      |
|    \\/     M anipulation  |                                                 |
\*---------------------------------------------------------------------------*/
FoamFile
{
    version     2.0;
    format      ascii;
    arch        "LSB;label=64;scalar=64";
    class       volScalarField;
    location    "1720";
    object      Gh2;
}
// * * * * * * * * * * * * * * * * * * * * * * * * * * * * * * * * * * * * * //

dimensions      [1 -3 0 0 0 0 0];

internalField   nonuniform List<scalar> 
1024
(
1.26079e-05
1.26066e-05
1.26034e-05
1.25974e-05
1.25879e-05
1.25737e-05
1.25538e-05
1.25275e-05
1.24944e-05
1.24552e-05
1.24111e-05
1.23645e-05
1.23181e-05
1.22747e-05
1.2237e-05
1.22074e-05
1.21909e-05
1.21903e-05
1.22027e-05
1.22251e-05
1.22549e-05
1.22895e-05
1.23264e-05
1.23624e-05
1.23949e-05
1.24221e-05
1.24432e-05
1.24586e-05
1.2469e-05
1.24755e-05
1.2479e-05
1.24804e-05
1.26075e-05
1.26061e-05
1.26029e-05
1.25969e-05
1.25873e-05
1.25729e-05
1.25528e-05
1.25263e-05
1.2493e-05
1.24536e-05
1.24094e-05
1.23627e-05
1.23163e-05
1.22729e-05
1.22351e-05
1.22056e-05
1.21891e-05
1.21884e-05
1.22008e-05
1.22232e-05
1.2253e-05
1.22877e-05
1.23246e-05
1.23609e-05
1.23936e-05
1.24211e-05
1.24424e-05
1.2458e-05
1.24685e-05
1.24751e-05
1.24786e-05
1.24801e-05
1.26064e-05
1.26051e-05
1.26017e-05
1.25956e-05
1.25858e-05
1.25711e-05
1.25506e-05
1.25236e-05
1.24898e-05
1.24499e-05
1.24054e-05
1.23585e-05
1.2312e-05
1.22686e-05
1.22309e-05
1.22012e-05
1.21845e-05
1.21836e-05
1.21961e-05
1.22188e-05
1.22489e-05
1.22838e-05
1.23211e-05
1.23577e-05
1.2391e-05
1.24189e-05
1.24408e-05
1.24567e-05
1.24674e-05
1.24741e-05
1.24778e-05
1.24793e-05
1.26045e-05
1.26031e-05
1.25997e-05
1.25934e-05
1.25832e-05
1.2568e-05
1.25468e-05
1.2519e-05
1.24843e-05
1.24437e-05
1.23986e-05
1.23513e-05
1.23047e-05
1.22613e-05
1.22234e-05
1.21934e-05
1.21762e-05
1.2175e-05
1.21877e-05
1.22112e-05
1.22422e-05
1.2278e-05
1.23159e-05
1.23532e-05
1.23871e-05
1.24158e-05
1.24382e-05
1.24546e-05
1.24657e-05
1.24726e-05
1.24763e-05
1.24778e-05
1.26015e-05
1.26001e-05
1.25965e-05
1.25899e-05
1.25792e-05
1.25633e-05
1.25412e-05
1.25122e-05
1.24763e-05
1.24345e-05
1.23885e-05
1.23407e-05
1.22937e-05
1.225e-05
1.22117e-05
1.2181e-05
1.21629e-05
1.21611e-05
1.21745e-05
1.21996e-05
1.22325e-05
1.22701e-05
1.23093e-05
1.23476e-05
1.23824e-05
1.24118e-05
1.24349e-05
1.24517e-05
1.24631e-05
1.24702e-05
1.2474e-05
1.24755e-05
1.25972e-05
1.25957e-05
1.2592e-05
1.2585e-05
1.25737e-05
1.25568e-05
1.25334e-05
1.25028e-05
1.24653e-05
1.24218e-05
1.23745e-05
1.23258e-05
1.22782e-05
1.22339e-05
1.21947e-05
1.21627e-05
1.2143e-05
1.21406e-05
1.2155e-05
1.21828e-05
1.22192e-05
1.22598e-05
1.23014e-05
1.23413e-05
1.23772e-05
1.24073e-05
1.24309e-05
1.24481e-05
1.24597e-05
1.24667e-05
1.24705e-05
1.24721e-05
1.25913e-05
1.25897e-05
1.25857e-05
1.25783e-05
1.25663e-05
1.25483e-05
1.25232e-05
1.24906e-05
1.24509e-05
1.24054e-05
1.23563e-05
1.23062e-05
1.22575e-05
1.2212e-05
1.21713e-05
1.21371e-05
1.21152e-05
1.21118e-05
1.21279e-05
1.21596e-05
1.22011e-05
1.22465e-05
1.22918e-05
1.23341e-05
1.23714e-05
1.24023e-05
1.24262e-05
1.24434e-05
1.24549e-05
1.24618e-05
1.24655e-05
1.24669e-05
1.25835e-05
1.25818e-05
1.25776e-05
1.25698e-05
1.25568e-05
1.25374e-05
1.25105e-05
1.24755e-05
1.24331e-05
1.23849e-05
1.23334e-05
1.22812e-05
1.22308e-05
1.21835e-05
1.21404e-05
1.21032e-05
1.20782e-05
1.20736e-05
1.20915e-05
1.2128e-05
1.21761e-05
1.22283e-05
1.2279e-05
1.23249e-05
1.23642e-05
1.23959e-05
1.24198e-05
1.24367e-05
1.24477e-05
1.24542e-05
1.24575e-05
1.24588e-05
1.25736e-05
1.25719e-05
1.25675e-05
1.25591e-05
1.25451e-05
1.25242e-05
1.2495e-05
1.24572e-05
1.24115e-05
1.236e-05
1.23053e-05
1.22504e-05
1.21975e-05
1.21475e-05
1.21013e-05
1.20604e-05
1.20316e-05
1.20251e-05
1.2044e-05
1.20848e-05
1.21401e-05
1.22006e-05
1.22589e-05
1.231e-05
1.23522e-05
1.2385e-05
1.2409e-05
1.24253e-05
1.24355e-05
1.24412e-05
1.24439e-05
1.24448e-05
1.25615e-05
1.25597e-05
1.2555e-05
1.25461e-05
1.25311e-05
1.25085e-05
1.24768e-05
1.24358e-05
1.23863e-05
1.23307e-05
1.22722e-05
1.22138e-05
1.21576e-05
1.21044e-05
1.20546e-05
1.20093e-05
1.19761e-05
1.1966e-05
1.19834e-05
1.20257e-05
1.2086e-05
1.21546e-05
1.22217e-05
1.22803e-05
1.23273e-05
1.23624e-05
1.23869e-05
1.24027e-05
1.2412e-05
1.24167e-05
1.24186e-05
1.24191e-05
1.2547e-05
1.25452e-05
1.25403e-05
1.25307e-05
1.25147e-05
1.24902e-05
1.24559e-05
1.24113e-05
1.23576e-05
1.22974e-05
1.22344e-05
1.2172e-05
1.21122e-05
1.20557e-05
1.20024e-05
1.19529e-05
1.19145e-05
1.18978e-05
1.19084e-05
1.19454e-05
1.20043e-05
1.20762e-05
1.21506e-05
1.22178e-05
1.22723e-05
1.23124e-05
1.23394e-05
1.23559e-05
1.23649e-05
1.23689e-05
1.23701e-05
1.23702e-05
1.25301e-05
1.25282e-05
1.25231e-05
1.2513e-05
1.24959e-05
1.24697e-05
1.24327e-05
1.23844e-05
1.23263e-05
1.22613e-05
1.21938e-05
1.21274e-05
1.20645e-05
1.20055e-05
1.19499e-05
1.18974e-05
1.18532e-05
1.18262e-05
1.18225e-05
1.18439e-05
1.18894e-05
1.19533e-05
1.20263e-05
1.20982e-05
1.21606e-05
1.22088e-05
1.22421e-05
1.22626e-05
1.22736e-05
1.22784e-05
1.22798e-05
1.22799e-05
1.2511e-05
1.25091e-05
1.25038e-05
1.24933e-05
1.24753e-05
1.24475e-05
1.24081e-05
1.23566e-05
1.22945e-05
1.22253e-05
1.21539e-05
1.20847e-05
1.20203e-05
1.1961e-05
1.1906e-05
1.18534e-05
1.1805e-05
1.17656e-05
1.17412e-05
1.17364e-05
1.17541e-05
1.17932e-05
1.18483e-05
1.19113e-05
1.19737e-05
1.20279e-05
1.20697e-05
1.20981e-05
1.21151e-05
1.21238e-05
1.21273e-05
1.21281e-05
1.24904e-05
1.24884e-05
1.24831e-05
1.24723e-05
1.24538e-05
1.24251e-05
1.23842e-05
1.23306e-05
1.22659e-05
1.21941e-05
1.21207e-05
1.20508e-05
1.19877e-05
1.19322e-05
1.18828e-05
1.18361e-05
1.17889e-05
1.17402e-05
1.16949e-05
1.16599e-05
1.16412e-05
1.16421e-05
1.16619e-05
1.16971e-05
1.17416e-05
1.17884e-05
1.1831e-05
1.18648e-05
1.18884e-05
1.19025e-05
1.19096e-05
1.19121e-05
1.24696e-05
1.24677e-05
1.24623e-05
1.24517e-05
1.24334e-05
1.24049e-05
1.23642e-05
1.23105e-05
1.22457e-05
1.21739e-05
1.21012e-05
1.20337e-05
1.19758e-05
1.19289e-05
1.18916e-05
1.1859e-05
1.18223e-05
1.17733e-05
1.17146e-05
1.16548e-05
1.16029e-05
1.1565e-05
1.15441e-05
1.15403e-05
1.15513e-05
1.15729e-05
1.15996e-05
1.16259e-05
1.16476e-05
1.16628e-05
1.16715e-05
1.1675e-05
1.24509e-05
1.2449e-05
1.2444e-05
1.2434e-05
1.24168e-05
1.23901e-05
1.23518e-05
1.23011e-05
1.22395e-05
1.21712e-05
1.21024e-05
1.20403e-05
1.19904e-05
1.19556e-05
1.19352e-05
1.19233e-05
1.19062e-05
1.1867e-05
1.18049e-05
1.17296e-05
1.16528e-05
1.15838e-05
1.15285e-05
1.14895e-05
1.14666e-05
1.14577e-05
1.14594e-05
1.14675e-05
1.14777e-05
1.14867e-05
1.14928e-05
1.14955e-05
1.24384e-05
1.24366e-05
1.24319e-05
1.24229e-05
1.24077e-05
1.2384e-05
1.23502e-05
1.23051e-05
1.22498e-05
1.21879e-05
1.21255e-05
1.20698e-05
1.20277e-05
1.20035e-05
1.19978e-05
1.20053e-05
1.20099e-05
1.19875e-05
1.19314e-05
1.18495e-05
1.17545e-05
1.16598e-05
1.15757e-05
1.15081e-05
1.14587e-05
1.14265e-05
1.14087e-05
1.14014e-05
1.14005e-05
1.14026e-05
1.1405e-05
1.14065e-05
1.24341e-05
1.24323e-05
1.2428e-05
1.24199e-05
1.24066e-05
1.23862e-05
1.23571e-05
1.23183e-05
1.22703e-05
1.2216e-05
1.21605e-05
1.21108e-05
1.20739e-05
1.20551e-05
1.20562e-05
1.20734e-05
1.2091e-05
1.20831e-05
1.20387e-05
1.19603e-05
1.18576e-05
1.17448e-05
1.1636e-05
1.15421e-05
1.14685e-05
1.14164e-05
1.13834e-05
1.13653e-05
1.13575e-05
1.13555e-05
1.1356e-05
1.13568e-05
1.24362e-05
1.24345e-05
1.24304e-05
1.24231e-05
1.24113e-05
1.23937e-05
1.23688e-05
1.23358e-05
1.22947e-05
1.22477e-05
1.2199e-05
1.21547e-05
1.21212e-05
1.21041e-05
1.21058e-05
1.21238e-05
1.21437e-05
1.21412e-05
1.2105e-05
1.2034e-05
1.19334e-05
1.18143e-05
1.16913e-05
1.15778e-05
1.14835e-05
1.14127e-05
1.13648e-05
1.13363e-05
1.13221e-05
1.13168e-05
1.1316e-05
1.13164e-05
1.24424e-05
1.24408e-05
1.2437e-05
1.24303e-05
1.24198e-05
1.24044e-05
1.2383e-05
1.23549e-05
1.232e-05
1.22799e-05
1.22379e-05
1.21988e-05
1.21683e-05
1.21512e-05
1.21501e-05
1.21627e-05
1.21764e-05
1.21708e-05
1.21364e-05
1.20705e-05
1.19754e-05
1.18584e-05
1.1731e-05
1.1607e-05
1.14981e-05
1.1412e-05
1.13506e-05
1.13119e-05
1.1291e-05
1.12822e-05
1.12799e-05
1.128e-05
1.245e-05
1.24485e-05
1.24452e-05
1.24393e-05
1.243e-05
1.24166e-05
1.23982e-05
1.23742e-05
1.23448e-05
1.23109e-05
1.22751e-05
1.22411e-05
1.22132e-05
1.21951e-05
1.21885e-05
1.21912e-05
1.21924e-05
1.21776e-05
1.21397e-05
1.20758e-05
1.19862e-05
1.18752e-05
1.17511e-05
1.16249e-05
1.15086e-05
1.14118e-05
1.13393e-05
1.12911e-05
1.12635e-05
1.12508e-05
1.12469e-05
1.12467e-05
1.24544e-05
1.24534e-05
1.2451e-05
1.24464e-05
1.2439e-05
1.24279e-05
1.24125e-05
1.23923e-05
1.23675e-05
1.23391e-05
1.23086e-05
1.22787e-05
1.2252e-05
1.22308e-05
1.22159e-05
1.22045e-05
1.21893e-05
1.21618e-05
1.2118e-05
1.20548e-05
1.19707e-05
1.18677e-05
1.17511e-05
1.16294e-05
1.15125e-05
1.14102e-05
1.13297e-05
1.12733e-05
1.12392e-05
1.12225e-05
1.12169e-05
1.12162e-05
1.24494e-05
1.24492e-05
1.24486e-05
1.24466e-05
1.24422e-05
1.24345e-05
1.24226e-05
1.24062e-05
1.23855e-05
1.23611e-05
1.23339e-05
1.23053e-05
1.22767e-05
1.22492e-05
1.22226e-05
1.21948e-05
1.21619e-05
1.21216e-05
1.2072e-05
1.20097e-05
1.19322e-05
1.18389e-05
1.17327e-05
1.16197e-05
1.15078e-05
1.14055e-05
1.13206e-05
1.12579e-05
1.1218e-05
1.11972e-05
1.11895e-05
1.11884e-05
1.24278e-05
1.24291e-05
1.24311e-05
1.24329e-05
1.2433e-05
1.24299e-05
1.24224e-05
1.24097e-05
1.23918e-05
1.23689e-05
1.23416e-05
1.23103e-05
1.22758e-05
1.22385e-05
1.21986e-05
1.21544e-05
1.21059e-05
1.20555e-05
1.20023e-05
1.19426e-05
1.18728e-05
1.17909e-05
1.16975e-05
1.15964e-05
1.14934e-05
1.13957e-05
1.13105e-05
1.12441e-05
1.11993e-05
1.11746e-05
1.11647e-05
1.1163e-05
1.23836e-05
1.23866e-05
1.23921e-05
1.23984e-05
1.24035e-05
1.24052e-05
1.24015e-05
1.23912e-05
1.23738e-05
1.23492e-05
1.23177e-05
1.228e-05
1.22367e-05
1.21887e-05
1.21366e-05
1.20796e-05
1.20205e-05
1.19645e-05
1.19112e-05
1.1856e-05
1.17951e-05
1.17256e-05
1.16465e-05
1.15596e-05
1.14686e-05
1.13791e-05
1.12976e-05
1.12305e-05
1.11826e-05
1.11544e-05
1.11424e-05
1.11399e-05
1.23123e-05
1.23174e-05
1.23261e-05
1.23361e-05
1.23445e-05
1.23487e-05
1.23464e-05
1.23355e-05
1.23154e-05
1.22862e-05
1.22484e-05
1.22032e-05
1.21519e-05
1.20957e-05
1.20357e-05
1.19721e-05
1.1909e-05
1.18527e-05
1.18025e-05
1.17537e-05
1.17024e-05
1.16455e-05
1.15812e-05
1.15096e-05
1.14329e-05
1.13547e-05
1.12803e-05
1.12158e-05
1.1167e-05
1.11364e-05
1.11223e-05
1.11191e-05
1.2212e-05
1.22191e-05
1.22296e-05
1.22399e-05
1.22471e-05
1.22491e-05
1.22438e-05
1.2229e-05
1.22043e-05
1.217e-05
1.21271e-05
1.20772e-05
1.2022e-05
1.19631e-05
1.19018e-05
1.18386e-05
1.17779e-05
1.17258e-05
1.16815e-05
1.16404e-05
1.15989e-05
1.1554e-05
1.15039e-05
1.14477e-05
1.13863e-05
1.13216e-05
1.12573e-05
1.11987e-05
1.11516e-05
1.11201e-05
1.11045e-05
1.11004e-05
1.20819e-05
1.20901e-05
1.20991e-05
1.21044e-05
1.21046e-05
1.20992e-05
1.20872e-05
1.20672e-05
1.20388e-05
1.20022e-05
1.19585e-05
1.19093e-05
1.18564e-05
1.18012e-05
1.1745e-05
1.16884e-05
1.16352e-05
1.15908e-05
1.15541e-05
1.15213e-05
1.14892e-05
1.14554e-05
1.14181e-05
1.13763e-05
1.13299e-05
1.12796e-05
1.12277e-05
1.11779e-05
1.11354e-05
1.1105e-05
1.10886e-05
1.10838e-05
1.19204e-05
1.19278e-05
1.19302e-05
1.19252e-05
1.19146e-05
1.19e-05
1.18816e-05
1.18584e-05
1.18299e-05
1.17958e-05
1.17569e-05
1.17143e-05
1.16693e-05
1.16232e-05
1.15771e-05
1.15313e-05
1.1489e-05
1.14542e-05
1.14261e-05
1.14016e-05
1.13782e-05
1.13542e-05
1.13281e-05
1.12988e-05
1.12661e-05
1.123e-05
1.11914e-05
1.11525e-05
1.11173e-05
1.10903e-05
1.10745e-05
1.10693e-05
1.17237e-05
1.17266e-05
1.17179e-05
1.17018e-05
1.16828e-05
1.1663e-05
1.16427e-05
1.1621e-05
1.15971e-05
1.15702e-05
1.15406e-05
1.15087e-05
1.14756e-05
1.14421e-05
1.14088e-05
1.13761e-05
1.13462e-05
1.13219e-05
1.13025e-05
1.12858e-05
1.12703e-05
1.12546e-05
1.12378e-05
1.12191e-05
1.11982e-05
1.11748e-05
1.11492e-05
1.11224e-05
1.10966e-05
1.10753e-05
1.10618e-05
1.10567e-05
1.14837e-05
1.1478e-05
1.14611e-05
1.14424e-05
1.14242e-05
1.14074e-05
1.13917e-05
1.13766e-05
1.13611e-05
1.13444e-05
1.13265e-05
1.13075e-05
1.12878e-05
1.1268e-05
1.12485e-05
1.12294e-05
1.12121e-05
1.11981e-05
1.11869e-05
1.11775e-05
1.11688e-05
1.11602e-05
1.1151e-05
1.1141e-05
1.11297e-05
1.1117e-05
1.1103e-05
1.10879e-05
1.10727e-05
1.10593e-05
1.10499e-05
1.10459e-05
1.11906e-05
1.1186e-05
1.11773e-05
1.11691e-05
1.11617e-05
1.1155e-05
1.11492e-05
1.11438e-05
1.11385e-05
1.1133e-05
1.11271e-05
1.11209e-05
1.11145e-05
1.1108e-05
1.11017e-05
1.10956e-05
1.109e-05
1.10855e-05
1.10819e-05
1.10789e-05
1.10761e-05
1.10734e-05
1.10706e-05
1.10674e-05
1.1064e-05
1.10601e-05
1.10557e-05
1.1051e-05
1.10462e-05
1.10417e-05
1.10383e-05
1.10367e-05
)
;

boundaryField
{
    movingWall
    {
        type            fixedValue;
        value           uniform 1.1032e-05;
    }
    fixedWalls
    {
        type            zeroGradient;
    }
    floor
    {
        type            zeroGradient;
    }
    frontAndBack
    {
        type            empty;
    }
}


// ************************************************************************* //
