/*--------------------------------*- C++ -*----------------------------------*\
| =========                 |                                                 |
| \\      /  F ield         | OpenFOAM: The Open Source CFD Toolbox           |
|  \\    /   O peration     | Version:  2212                                  |
|   \\  /    A nd           | Website:  www.openfoam.com                      |
|    \\/     M anipulation  |                                                 |
\*---------------------------------------------------------------------------*/
FoamFile
{
    version     2.0;
    format      ascii;
    arch        "LSB;label=64;scalar=64";
    class       volScalarField;
    location    "1720";
    object      p;
}
// * * * * * * * * * * * * * * * * * * * * * * * * * * * * * * * * * * * * * //

dimensions      [0 2 -2 0 0 0 0];

internalField   nonuniform List<scalar> 
1024
(
0
-4.43288e-07
-1.16855e-06
-1.77556e-06
-1.85479e-06
-1.13391e-06
4.26406e-07
2.64667e-06
5.25698e-06
8.08863e-06
1.12907e-05
1.54323e-05
2.15246e-05
3.11188e-05
4.63922e-05
6.83642e-05
9.06015e-05
9.36742e-05
6.94602e-05
2.08031e-05
-3.88273e-05
-9.04763e-05
-0.000125443
-0.000146021
-0.000157345
-0.000163276
-0.00016607
-0.000166866
-0.00016625
-0.000164729
-0.000162993
-0.000161855
-0.0928113
-0.0928118
-0.0928125
-0.092813
-0.0928131
-0.0928125
-0.0928112
-0.0928092
-0.0928069
-0.0928042
-0.0928012
-0.0927972
-0.0927912
-0.0927819
-0.092767
-0.0927457
-0.0927245
-0.0927225
-0.0927471
-0.0927952
-0.0928537
-0.092904
-0.0929378
-0.0929575
-0.0929682
-0.0929737
-0.0929762
-0.092977
-0.0929765
-0.0929753
-0.0929738
-0.0929726
-0.199424
-0.199425
-0.199426
-0.199426
-0.199427
-0.199426
-0.199425
-0.199424
-0.199422
-0.199419
-0.199417
-0.199413
-0.199407
-0.199399
-0.199385
-0.199364
-0.199345
-0.199344
-0.199369
-0.199417
-0.199474
-0.199523
-0.199555
-0.199573
-0.199582
-0.199587
-0.199589
-0.199589
-0.199589
-0.199588
-0.199586
-0.199585
-0.321892
-0.321893
-0.321894
-0.321895
-0.321895
-0.321895
-0.321894
-0.321893
-0.321892
-0.32189
-0.321888
-0.321885
-0.32188
-0.321873
-0.32186
-0.321841
-0.321823
-0.321825
-0.321851
-0.321897
-0.321953
-0.322001
-0.322031
-0.322047
-0.322054
-0.322057
-0.322058
-0.322057
-0.322057
-0.322055
-0.322053
-0.322051
-0.462573
-0.462574
-0.462576
-0.462577
-0.462577
-0.462578
-0.462578
-0.462577
-0.462577
-0.462576
-0.462575
-0.462573
-0.462569
-0.462563
-0.462552
-0.462535
-0.462519
-0.462523
-0.462551
-0.462597
-0.462651
-0.462698
-0.462726
-0.462738
-0.462743
-0.462743
-0.462742
-0.462741
-0.462739
-0.462738
-0.462735
-0.462733
-0.624177
-0.624178
-0.62418
-0.624181
-0.624182
-0.624183
-0.624184
-0.624184
-0.624185
-0.624185
-0.624186
-0.624185
-0.624183
-0.624179
-0.62417
-0.624157
-0.624144
-0.62415
-0.624179
-0.624224
-0.624278
-0.624323
-0.624349
-0.624358
-0.624359
-0.624356
-0.624353
-0.624349
-0.624347
-0.624344
-0.624342
-0.624339
-0.809816
-0.809817
-0.809819
-0.809821
-0.809822
-0.809824
-0.809826
-0.809827
-0.809829
-0.809831
-0.809833
-0.809835
-0.809836
-0.809834
-0.809829
-0.809818
-0.809809
-0.809816
-0.809846
-0.809891
-0.809943
-0.809987
-0.810011
-0.810017
-0.810014
-0.810008
-0.810001
-0.809996
-0.809992
-0.809989
-0.809986
-0.809984
-1.02307
-1.02307
-1.02307
-1.02307
-1.02307
-1.02308
-1.02308
-1.02308
-1.02309
-1.02309
-1.02309
-1.0231
-1.0231
-1.0231
-1.0231
-1.0231
-1.02309
-1.0231
-1.02313
-1.02317
-1.02322
-1.02326
-1.02328
-1.02329
-1.02328
-1.02327
-1.02326
-1.02325
-1.02325
-1.02325
-1.02324
-1.02324
-1.26803
-1.26804
-1.26804
-1.26804
-1.26804
-1.26805
-1.26805
-1.26806
-1.26806
-1.26807
-1.26807
-1.26808
-1.26809
-1.2681
-1.2681
-1.2681
-1.26809
-1.2681
-1.26813
-1.26816
-1.26821
-1.26825
-1.26826
-1.26827
-1.26826
-1.26824
-1.26823
-1.26823
-1.26822
-1.26822
-1.26822
-1.26822
-1.54944
-1.54944
-1.54945
-1.54945
-1.54945
-1.54946
-1.54946
-1.54947
-1.54947
-1.54948
-1.54949
-1.5495
-1.54952
-1.54953
-1.54953
-1.54954
-1.54954
-1.54954
-1.54956
-1.54959
-1.54962
-1.54965
-1.54966
-1.54966
-1.54965
-1.54964
-1.54963
-1.54962
-1.54962
-1.54962
-1.54962
-1.54962
-1.87271
-1.87271
-1.87271
-1.87271
-1.87272
-1.87272
-1.87273
-1.87273
-1.87274
-1.87276
-1.87277
-1.87278
-1.8728
-1.87282
-1.87283
-1.87284
-1.87284
-1.87284
-1.87285
-1.87287
-1.87288
-1.8729
-1.8729
-1.87289
-1.87288
-1.87287
-1.87286
-1.87286
-1.87286
-1.87286
-1.87286
-1.87286
-2.24406
-2.24406
-2.24406
-2.24406
-2.24407
-2.24407
-2.24408
-2.24409
-2.2441
-2.24411
-2.24413
-2.24415
-2.24417
-2.24419
-2.24421
-2.24422
-2.24423
-2.24423
-2.24423
-2.24422
-2.24422
-2.24421
-2.2442
-2.24418
-2.24417
-2.24416
-2.24416
-2.24415
-2.24416
-2.24416
-2.24416
-2.24416
-2.67064
-2.67065
-2.67065
-2.67065
-2.67065
-2.67066
-2.67067
-2.67068
-2.67069
-2.6707
-2.67072
-2.67075
-2.67077
-2.6708
-2.67083
-2.67085
-2.67085
-2.67085
-2.67084
-2.67082
-2.6708
-2.67076
-2.67073
-2.6707
-2.67068
-2.67067
-2.67067
-2.67067
-2.67067
-2.67068
-2.67068
-2.67068
-3.16068
-3.16069
-3.16069
-3.16069
-3.16069
-3.1607
-3.16071
-3.16072
-3.16073
-3.16075
-3.16077
-3.1608
-3.16083
-3.16086
-3.16089
-3.16092
-3.16093
-3.16093
-3.16091
-3.16088
-3.16084
-3.16079
-3.16074
-3.1607
-3.16067
-3.16065
-3.16065
-3.16065
-3.16065
-3.16065
-3.16066
-3.16066
-3.72361
-3.72361
-3.72361
-3.72362
-3.72362
-3.72363
-3.72363
-3.72365
-3.72366
-3.72368
-3.7237
-3.72373
-3.72377
-3.7238
-3.72384
-3.72387
-3.72389
-3.72388
-3.72386
-3.72383
-3.72378
-3.72373
-3.72367
-3.72362
-3.72359
-3.72356
-3.72355
-3.72355
-3.72355
-3.72355
-3.72356
-3.72356
-4.37025
-4.37025
-4.37026
-4.37026
-4.37026
-4.37027
-4.37028
-4.37029
-4.37031
-4.37033
-4.37035
-4.37038
-4.37042
-4.37046
-4.3705
-4.37053
-4.37055
-4.37055
-4.37053
-4.3705
-4.37045
-4.3704
-4.37035
-4.3703
-4.37025
-4.37022
-4.37021
-4.3702
-4.3702
-4.3702
-4.37021
-4.37021
-5.06164
-5.06164
-5.06164
-5.06164
-5.06165
-5.06165
-5.06166
-5.06168
-5.06169
-5.06172
-5.06174
-5.06177
-5.06181
-5.06185
-5.0619
-5.06193
-5.06195
-5.06195
-5.06193
-5.06191
-5.06187
-5.06183
-5.06178
-5.06173
-5.06168
-5.06165
-5.06163
-5.06162
-5.06162
-5.06162
-5.06162
-5.06163
-5.70826
-5.70825
-5.70825
-5.70826
-5.70826
-5.70827
-5.70828
-5.70829
-5.70831
-5.70833
-5.70836
-5.70839
-5.70843
-5.70848
-5.70852
-5.70856
-5.70858
-5.70857
-5.70856
-5.70854
-5.70851
-5.70847
-5.70843
-5.70839
-5.70835
-5.70831
-5.70829
-5.70827
-5.70827
-5.70827
-5.70827
-5.70828
-6.27114
-6.27114
-6.27114
-6.27114
-6.27115
-6.27115
-6.27116
-6.27118
-6.2712
-6.27123
-6.27125
-6.27129
-6.27133
-6.27137
-6.27142
-6.27146
-6.27148
-6.27147
-6.27146
-6.27143
-6.27141
-6.27138
-6.27135
-6.27131
-6.27127
-6.27124
-6.27121
-6.27119
-6.27118
-6.27118
-6.27119
-6.2712
-6.76115
-6.76114
-6.76114
-6.76114
-6.76115
-6.76115
-6.76116
-6.76118
-6.7612
-6.76123
-6.76126
-6.7613
-6.76134
-6.76139
-6.76144
-6.76148
-6.7615
-6.7615
-6.76148
-6.76145
-6.76142
-6.7614
-6.76137
-6.76133
-6.76129
-6.76126
-6.76122
-6.7612
-6.76119
-6.76119
-6.7612
-6.7612
-7.18771
-7.1877
-7.1877
-7.1877
-7.1877
-7.18771
-7.18772
-7.18773
-7.18775
-7.18778
-7.18782
-7.18786
-7.18791
-7.18796
-7.18801
-7.18806
-7.18808
-7.18808
-7.18806
-7.18803
-7.18799
-7.18796
-7.18793
-7.18789
-7.18785
-7.18781
-7.18777
-7.18774
-7.18773
-7.18772
-7.18773
-7.18774
-7.55904
-7.55904
-7.55904
-7.55903
-7.55904
-7.55904
-7.55904
-7.55905
-7.55907
-7.5591
-7.55914
-7.55919
-7.55924
-7.5593
-7.55936
-7.55941
-7.55944
-7.55943
-7.55941
-7.55938
-7.55934
-7.55929
-7.55925
-7.55921
-7.55916
-7.55911
-7.55906
-7.55902
-7.55899
-7.55899
-7.55899
-7.559
-7.8823
-7.8823
-7.8823
-7.8823
-7.88229
-7.88229
-7.88229
-7.8823
-7.88231
-7.88234
-7.88238
-7.88244
-7.8825
-7.88257
-7.88263
-7.88269
-7.88272
-7.88271
-7.88269
-7.88265
-7.88261
-7.88255
-7.8825
-7.88244
-7.88238
-7.88231
-7.88224
-7.88218
-7.88214
-7.88212
-7.88212
-7.88213
-8.16371
-8.16371
-8.16371
-8.16371
-8.1637
-8.1637
-8.16369
-8.16369
-8.1637
-8.16373
-8.16377
-8.16383
-8.1639
-8.16398
-8.16405
-8.16412
-8.16415
-8.16415
-8.16412
-8.16408
-8.16403
-8.16397
-8.16389
-8.16381
-8.16372
-8.16363
-8.16353
-8.16344
-8.16337
-8.16334
-8.16333
-8.16334
-8.4087
-8.4087
-8.4087
-8.4087
-8.40869
-8.40867
-8.40866
-8.40865
-8.40866
-8.40868
-8.40873
-8.4088
-8.40888
-8.40896
-8.40904
-8.40911
-8.40915
-8.40915
-8.40912
-8.40908
-8.40902
-8.40895
-8.40886
-8.40875
-8.40862
-8.40849
-8.40835
-8.40822
-8.40812
-8.40805
-8.40803
-8.40803
-8.62198
-8.62198
-8.62198
-8.62197
-8.62195
-8.62193
-8.62191
-8.62189
-8.62189
-8.62192
-8.62198
-8.62205
-8.62214
-8.62223
-8.62232
-8.62239
-8.62243
-8.62243
-8.62241
-8.62236
-8.6223
-8.62221
-8.6221
-8.62197
-8.62181
-8.62162
-8.62143
-8.62124
-8.62108
-8.62096
-8.62091
-8.6209
-8.80766
-8.80766
-8.80766
-8.80764
-8.80761
-8.80758
-8.80755
-8.80752
-8.80753
-8.80756
-8.80762
-8.8077
-8.80779
-8.80789
-8.80798
-8.80806
-8.8081
-8.8081
-8.80808
-8.80803
-8.80796
-8.80787
-8.80774
-8.80758
-8.80738
-8.80714
-8.80687
-8.80661
-8.80636
-8.80617
-8.80607
-8.80603
-8.96933
-8.96933
-8.96932
-8.96929
-8.96924
-8.9692
-8.96915
-8.96913
-8.96913
-8.96916
-8.96923
-8.96931
-8.96941
-8.96952
-8.96962
-8.96969
-8.96974
-8.96974
-8.96972
-8.96967
-8.96959
-8.96949
-8.96935
-8.96916
-8.96892
-8.96862
-8.96829
-8.96793
-8.96758
-8.96728
-8.96707
-8.96698
-9.11012
-9.11011
-9.11007
-9.11002
-9.10995
-9.10989
-9.10984
-9.10981
-9.10981
-9.10985
-9.10992
-9.11001
-9.11011
-9.11022
-9.11032
-9.1104
-9.11045
-9.11045
-9.11043
-9.11038
-9.1103
-9.11019
-9.11004
-9.10983
-9.10956
-9.10922
-9.10881
-9.10835
-9.10787
-9.10741
-9.10705
-9.10682
-9.23281
-9.23273
-9.23263
-9.23253
-9.23244
-9.23236
-9.2323
-9.23227
-9.23228
-9.23232
-9.23239
-9.23249
-9.2326
-9.23271
-9.23281
-9.2329
-9.23294
-9.23295
-9.23293
-9.23288
-9.2328
-9.23268
-9.23252
-9.2323
-9.232
-9.23163
-9.23117
-9.23062
-9.23
-9.22933
-9.2287
-9.22815
-9.33994
-9.33955
-9.33931
-9.33916
-9.33905
-9.33897
-9.33891
-9.33888
-9.33889
-9.33894
-9.33902
-9.33912
-9.33923
-9.33934
-9.33945
-9.33953
-9.33958
-9.33959
-9.33957
-9.33952
-9.33943
-9.33932
-9.33915
-9.33892
-9.33862
-9.33823
-9.33774
-9.33714
-9.3364
-9.33549
-9.33439
-9.33313
-9.43379
-9.43256
-9.43209
-9.43194
-9.43184
-9.43176
-9.43171
-9.43169
-9.43171
-9.43176
-9.43184
-9.43194
-9.43206
-9.43217
-9.43228
-9.43237
-9.43242
-9.43243
-9.4324
-9.43235
-9.43227
-9.43215
-9.43199
-9.43176
-9.43145
-9.43106
-9.43056
-9.42993
-9.42912
-9.42802
-9.42642
-9.42416
)
;

boundaryField
{
    movingWall
    {
        type            calculated;
        value           nonuniform List<scalar> 
32
(
-9.477
-9.47576
-9.4753
-9.47515
-9.47505
-9.47497
-9.47492
-9.4749
-9.47491
-9.47496
-9.47504
-9.47515
-9.47526
-9.47538
-9.47549
-9.47557
-9.47562
-9.47563
-9.47561
-9.47556
-9.47548
-9.47536
-9.47519
-9.47497
-9.47466
-9.47426
-9.47377
-9.47314
-9.47233
-9.47123
-9.46962
-9.46736
)
;
    }
    fixedWalls
    {
        type            calculated;
        value           nonuniform List<scalar> 
64
(
6.93889e-18
-0.0928113
-0.199424
-0.321892
-0.462573
-0.624177
-0.809816
-1.02307
-1.26803
-1.54944
-1.87271
-2.24406
-2.67064
-3.16068
-3.72361
-4.37025
-5.06164
-5.70826
-6.27114
-6.76115
-7.18771
-7.55904
-7.8823
-8.16371
-8.4087
-8.62198
-8.80766
-8.96933
-9.11012
-9.23281
-9.33994
-9.43379
-0.000161855
-0.0929726
-0.199585
-0.322051
-0.462733
-0.624339
-0.809984
-1.02324
-1.26822
-1.54962
-1.87286
-2.24416
-2.67068
-3.16066
-3.72356
-4.37021
-5.06163
-5.70828
-6.2712
-6.7612
-7.18774
-7.559
-7.88213
-8.16334
-8.40803
-8.6209
-8.80603
-8.96698
-9.10682
-9.22815
-9.33313
-9.42416
)
;
    }
    floor
    {
        type            calculated;
        value           nonuniform List<scalar> 
32
(
0.0431942
0.0431938
0.0431931
0.0431926
0.0431925
0.0431932
0.0431948
0.0431971
0.0431997
0.0432026
0.0432058
0.04321
0.0432161
0.0432257
0.043241
0.0432631
0.0432854
0.0432885
0.0432643
0.0432156
0.0431559
0.0431042
0.0430692
0.0430485
0.0430371
0.0430311
0.0430283
0.0430275
0.0430281
0.0430296
0.0430313
0.0430325
)
;
    }
    frontAndBack
    {
        type            empty;
    }
}


// ************************************************************************* //
