/*--------------------------------*- C++ -*----------------------------------*\
| =========                 |                                                 |
| \\      /  F ield         | OpenFOAM: The Open Source CFD Toolbox           |
|  \\    /   O peration     | Version:  2212                                  |
|   \\  /    A nd           | Website:  www.openfoam.com                      |
|    \\/     M anipulation  |                                                 |
\*---------------------------------------------------------------------------*/
FoamFile
{
    version     2.0;
    format      ascii;
    arch        "LSB;label=64;scalar=64";
    class       volScalarField;
    location    "270";
    object      Gh2;
}
// * * * * * * * * * * * * * * * * * * * * * * * * * * * * * * * * * * * * * //

dimensions      [1 -3 0 0 0 0 0];

internalField   nonuniform List<scalar> 
1024
(
1.21987e-05
1.21979e-05
1.21961e-05
1.21929e-05
1.21883e-05
1.21827e-05
1.21764e-05
1.217e-05
1.21639e-05
1.21584e-05
1.21538e-05
1.21506e-05
1.21493e-05
1.215e-05
1.21528e-05
1.2158e-05
1.21657e-05
1.21748e-05
1.21844e-05
1.21941e-05
1.22037e-05
1.22131e-05
1.22222e-05
1.22312e-05
1.22399e-05
1.22479e-05
1.22549e-05
1.22606e-05
1.22647e-05
1.22675e-05
1.2269e-05
1.22697e-05
1.21986e-05
1.21977e-05
1.21958e-05
1.21924e-05
1.21877e-05
1.21819e-05
1.21755e-05
1.2169e-05
1.21627e-05
1.2157e-05
1.21523e-05
1.21491e-05
1.21478e-05
1.21485e-05
1.21514e-05
1.21567e-05
1.21644e-05
1.21736e-05
1.21832e-05
1.2193e-05
1.22026e-05
1.2212e-05
1.22212e-05
1.22302e-05
1.22389e-05
1.22471e-05
1.22542e-05
1.226e-05
1.22643e-05
1.22672e-05
1.22688e-05
1.22695e-05
1.21982e-05
1.21973e-05
1.21952e-05
1.21916e-05
1.21865e-05
1.21804e-05
1.21736e-05
1.21667e-05
1.21601e-05
1.21539e-05
1.21489e-05
1.21455e-05
1.21443e-05
1.21452e-05
1.21482e-05
1.21537e-05
1.21616e-05
1.2171e-05
1.21808e-05
1.21907e-05
1.22004e-05
1.22099e-05
1.22191e-05
1.22282e-05
1.2237e-05
1.22453e-05
1.22527e-05
1.22589e-05
1.22635e-05
1.22665e-05
1.22683e-05
1.2269e-05
1.21977e-05
1.21967e-05
1.21944e-05
1.21905e-05
1.2185e-05
1.21783e-05
1.2171e-05
1.21633e-05
1.21557e-05
1.21486e-05
1.21427e-05
1.2139e-05
1.21379e-05
1.2139e-05
1.21425e-05
1.21485e-05
1.2157e-05
1.2167e-05
1.21773e-05
1.21875e-05
1.21974e-05
1.2207e-05
1.22162e-05
1.22253e-05
1.22342e-05
1.22427e-05
1.22505e-05
1.22571e-05
1.22621e-05
1.22655e-05
1.22674e-05
1.22682e-05
1.2197e-05
1.2196e-05
1.21935e-05
1.21893e-05
1.21833e-05
1.21759e-05
1.21676e-05
1.21586e-05
1.21494e-05
1.21406e-05
1.21333e-05
1.21289e-05
1.21277e-05
1.21295e-05
1.21337e-05
1.21406e-05
1.21502e-05
1.21614e-05
1.21726e-05
1.21835e-05
1.21938e-05
1.22035e-05
1.22129e-05
1.2222e-05
1.22309e-05
1.22396e-05
1.22477e-05
1.22547e-05
1.22603e-05
1.2264e-05
1.22662e-05
1.22671e-05
1.21963e-05
1.21952e-05
1.21926e-05
1.21881e-05
1.21816e-05
1.21733e-05
1.21635e-05
1.21526e-05
1.2141e-05
1.21297e-05
1.21203e-05
1.21147e-05
1.21134e-05
1.21157e-05
1.21211e-05
1.21295e-05
1.21411e-05
1.21542e-05
1.2167e-05
1.2179e-05
1.219e-05
1.22002e-05
1.22096e-05
1.22187e-05
1.22276e-05
1.22363e-05
1.22447e-05
1.22522e-05
1.22582e-05
1.22624e-05
1.22648e-05
1.22657e-05
1.21955e-05
1.21945e-05
1.21918e-05
1.2187e-05
1.21799e-05
1.21704e-05
1.21588e-05
1.21454e-05
1.21306e-05
1.2116e-05
1.21037e-05
1.20963e-05
1.20945e-05
1.20975e-05
1.21044e-05
1.2115e-05
1.21294e-05
1.21457e-05
1.2161e-05
1.21747e-05
1.21868e-05
1.21974e-05
1.22071e-05
1.22162e-05
1.22249e-05
1.22337e-05
1.22422e-05
1.225e-05
1.22563e-05
1.22607e-05
1.22633e-05
1.22643e-05
1.21947e-05
1.21937e-05
1.21909e-05
1.21859e-05
1.21781e-05
1.21674e-05
1.21536e-05
1.2137e-05
1.21183e-05
1.20995e-05
1.20836e-05
1.20738e-05
1.20713e-05
1.20749e-05
1.20835e-05
1.20971e-05
1.21158e-05
1.21366e-05
1.21555e-05
1.21715e-05
1.21848e-05
1.21961e-05
1.2206e-05
1.2215e-05
1.22236e-05
1.22321e-05
1.22406e-05
1.22484e-05
1.22548e-05
1.22594e-05
1.2262e-05
1.2263e-05
1.21939e-05
1.21928e-05
1.219e-05
1.21847e-05
1.21763e-05
1.21641e-05
1.21478e-05
1.21275e-05
1.21041e-05
1.20802e-05
1.206e-05
1.20475e-05
1.2044e-05
1.20483e-05
1.20592e-05
1.20769e-05
1.2102e-05
1.21292e-05
1.21525e-05
1.2171e-05
1.21856e-05
1.21974e-05
1.22072e-05
1.22159e-05
1.22241e-05
1.22322e-05
1.22403e-05
1.22478e-05
1.22541e-05
1.22585e-05
1.22611e-05
1.22621e-05
1.21929e-05
1.21918e-05
1.21889e-05
1.21833e-05
1.21741e-05
1.21603e-05
1.21412e-05
1.21165e-05
1.20874e-05
1.20577e-05
1.20328e-05
1.20173e-05
1.20129e-05
1.20184e-05
1.20327e-05
1.20568e-05
1.20913e-05
1.21273e-05
1.21556e-05
1.21762e-05
1.21913e-05
1.22027e-05
1.22119e-05
1.22197e-05
1.2227e-05
1.22344e-05
1.22417e-05
1.22486e-05
1.22543e-05
1.22584e-05
1.22608e-05
1.22618e-05
1.21916e-05
1.21905e-05
1.21875e-05
1.21815e-05
1.21714e-05
1.21557e-05
1.2133e-05
1.21031e-05
1.20674e-05
1.20311e-05
1.20011e-05
1.1983e-05
1.19784e-05
1.19862e-05
1.20059e-05
1.204e-05
1.20884e-05
1.21359e-05
1.21694e-05
1.21907e-05
1.22045e-05
1.2214e-05
1.22211e-05
1.22272e-05
1.22329e-05
1.22389e-05
1.2245e-05
1.22508e-05
1.22556e-05
1.22592e-05
1.22613e-05
1.22622e-05
1.21898e-05
1.21886e-05
1.21854e-05
1.21789e-05
1.21676e-05
1.21494e-05
1.21224e-05
1.20859e-05
1.20426e-05
1.19992e-05
1.19644e-05
1.19445e-05
1.1941e-05
1.19529e-05
1.1981e-05
1.20294e-05
1.20963e-05
1.2158e-05
1.21963e-05
1.22162e-05
1.22264e-05
1.2232e-05
1.22357e-05
1.22388e-05
1.22421e-05
1.22459e-05
1.22502e-05
1.22545e-05
1.22583e-05
1.22612e-05
1.2263e-05
1.22639e-05
1.21869e-05
1.21856e-05
1.21821e-05
1.21748e-05
1.21617e-05
1.214e-05
1.21074e-05
1.20631e-05
1.20113e-05
1.19608e-05
1.19223e-05
1.19022e-05
1.19016e-05
1.19195e-05
1.1958e-05
1.20225e-05
1.21085e-05
1.21853e-05
1.22293e-05
1.22475e-05
1.22532e-05
1.22541e-05
1.22536e-05
1.22534e-05
1.22542e-05
1.22559e-05
1.22582e-05
1.22608e-05
1.22632e-05
1.22652e-05
1.22667e-05
1.22675e-05
1.21819e-05
1.21805e-05
1.21764e-05
1.21678e-05
1.21519e-05
1.21256e-05
1.20856e-05
1.20323e-05
1.19718e-05
1.19156e-05
1.18754e-05
1.18572e-05
1.18604e-05
1.18836e-05
1.19291e-05
1.20024e-05
1.20997e-05
1.219e-05
1.22447e-05
1.22682e-05
1.22742e-05
1.22726e-05
1.22686e-05
1.22647e-05
1.22623e-05
1.22617e-05
1.22628e-05
1.2265e-05
1.22678e-05
1.22704e-05
1.22724e-05
1.22735e-05
1.21731e-05
1.21714e-05
1.21664e-05
1.21557e-05
1.2136e-05
1.21032e-05
1.20547e-05
1.1992e-05
1.19242e-05
1.18651e-05
1.18261e-05
1.18108e-05
1.18158e-05
1.18375e-05
1.18763e-05
1.19385e-05
1.20277e-05
1.21255e-05
1.22009e-05
1.22482e-05
1.22745e-05
1.22869e-05
1.22916e-05
1.22925e-05
1.22921e-05
1.22917e-05
1.22914e-05
1.2291e-05
1.22897e-05
1.22877e-05
1.22856e-05
1.22842e-05
1.2159e-05
1.21569e-05
1.21506e-05
1.21371e-05
1.21124e-05
1.20725e-05
1.20156e-05
1.19456e-05
1.18739e-05
1.18155e-05
1.17802e-05
1.17674e-05
1.17696e-05
1.17798e-05
1.17945e-05
1.18173e-05
1.1861e-05
1.19312e-05
1.20081e-05
1.20767e-05
1.21333e-05
1.21774e-05
1.22094e-05
1.22308e-05
1.22423e-05
1.22448e-05
1.22394e-05
1.22277e-05
1.22126e-05
1.21973e-05
1.21856e-05
1.21795e-05
1.21394e-05
1.21368e-05
1.21293e-05
1.21133e-05
1.20851e-05
1.20413e-05
1.19817e-05
1.19119e-05
1.18433e-05
1.17895e-05
1.17585e-05
1.17489e-05
1.17521e-05
1.1758e-05
1.17557e-05
1.17366e-05
1.17039e-05
1.16818e-05
1.16827e-05
1.16992e-05
1.17243e-05
1.1753e-05
1.17807e-05
1.18054e-05
1.1825e-05
1.1838e-05
1.18438e-05
1.18427e-05
1.18366e-05
1.18285e-05
1.18217e-05
1.1818e-05
1.21214e-05
1.21187e-05
1.21109e-05
1.20947e-05
1.20667e-05
1.20245e-05
1.1969e-05
1.19056e-05
1.18436e-05
1.17939e-05
1.17645e-05
1.17574e-05
1.17684e-05
1.17889e-05
1.18059e-05
1.18013e-05
1.17577e-05
1.16847e-05
1.16113e-05
1.15497e-05
1.15028e-05
1.14699e-05
1.14493e-05
1.14388e-05
1.14365e-05
1.14409e-05
1.14497e-05
1.14608e-05
1.14716e-05
1.148e-05
1.1485e-05
1.1487e-05
1.21084e-05
1.21057e-05
1.20982e-05
1.2083e-05
1.2057e-05
1.20184e-05
1.19683e-05
1.19111e-05
1.18545e-05
1.18074e-05
1.17774e-05
1.17683e-05
1.17793e-05
1.18054e-05
1.18372e-05
1.18584e-05
1.18454e-05
1.17905e-05
1.17126e-05
1.16286e-05
1.15485e-05
1.14777e-05
1.14188e-05
1.1373e-05
1.13404e-05
1.13206e-05
1.1312e-05
1.1312e-05
1.13172e-05
1.13239e-05
1.13293e-05
1.13319e-05
1.21001e-05
1.20976e-05
1.20907e-05
1.2077e-05
1.2054e-05
1.20199e-05
1.19755e-05
1.19247e-05
1.18736e-05
1.18294e-05
1.17986e-05
1.17854e-05
1.17911e-05
1.18134e-05
1.18464e-05
1.18779e-05
1.18865e-05
1.18573e-05
1.17977e-05
1.17197e-05
1.16338e-05
1.15479e-05
1.14683e-05
1.13996e-05
1.13445e-05
1.13043e-05
1.12783e-05
1.12644e-05
1.12596e-05
1.12601e-05
1.12624e-05
1.12641e-05
1.2096e-05
1.20937e-05
1.20875e-05
1.20756e-05
1.20559e-05
1.20269e-05
1.1989e-05
1.1945e-05
1.19001e-05
1.186e-05
1.18299e-05
1.18136e-05
1.18129e-05
1.18272e-05
1.18526e-05
1.18804e-05
1.1894e-05
1.18787e-05
1.18356e-05
1.17709e-05
1.16916e-05
1.16045e-05
1.15163e-05
1.14336e-05
1.1362e-05
1.13054e-05
1.1265e-05
1.12399e-05
1.12271e-05
1.12228e-05
1.12228e-05
1.12238e-05
1.20956e-05
1.20933e-05
1.20879e-05
1.20777e-05
1.20613e-05
1.20374e-05
1.20062e-05
1.19698e-05
1.1932e-05
1.18974e-05
1.18699e-05
1.18522e-05
1.18457e-05
1.18503e-05
1.18634e-05
1.18787e-05
1.18847e-05
1.18709e-05
1.18361e-05
1.17823e-05
1.17131e-05
1.16326e-05
1.15461e-05
1.14595e-05
1.13791e-05
1.13109e-05
1.12588e-05
1.12236e-05
1.12034e-05
1.11945e-05
1.11924e-05
1.11929e-05
1.20974e-05
1.20955e-05
1.20908e-05
1.20823e-05
1.20688e-05
1.20496e-05
1.20247e-05
1.19957e-05
1.19654e-05
1.19371e-05
1.19129e-05
1.18945e-05
1.18822e-05
1.18759e-05
1.18739e-05
1.18718e-05
1.18634e-05
1.18432e-05
1.181e-05
1.17629e-05
1.1703e-05
1.1632e-05
1.15528e-05
1.14698e-05
1.13884e-05
1.13148e-05
1.12547e-05
1.12113e-05
1.11844e-05
1.11711e-05
1.11668e-05
1.11667e-05
1.20983e-05
1.20972e-05
1.2094e-05
1.20876e-05
1.2077e-05
1.20619e-05
1.20425e-05
1.202e-05
1.19964e-05
1.19732e-05
1.19512e-05
1.19303e-05
1.19105e-05
1.18916e-05
1.18729e-05
1.18521e-05
1.18275e-05
1.17984e-05
1.17634e-05
1.17203e-05
1.1668e-05
1.16067e-05
1.15374e-05
1.14626e-05
1.1386e-05
1.1313e-05
1.12496e-05
1.12007e-05
1.11684e-05
1.1151e-05
1.11445e-05
1.11437e-05
1.20908e-05
1.20916e-05
1.20918e-05
1.20894e-05
1.20831e-05
1.20723e-05
1.20576e-05
1.204e-05
1.20203e-05
1.19987e-05
1.19746e-05
1.19474e-05
1.19171e-05
1.18843e-05
1.18493e-05
1.18118e-05
1.17734e-05
1.17365e-05
1.16996e-05
1.16594e-05
1.16139e-05
1.1562e-05
1.15034e-05
1.14391e-05
1.13711e-05
1.13034e-05
1.12413e-05
1.11903e-05
1.11542e-05
1.11334e-05
1.11249e-05
1.11234e-05
1.2064e-05
1.20681e-05
1.20743e-05
1.20791e-05
1.20795e-05
1.20742e-05
1.20635e-05
1.20479e-05
1.20276e-05
1.20018e-05
1.197e-05
1.19323e-05
1.18897e-05
1.18437e-05
1.17957e-05
1.17464e-05
1.16993e-05
1.16582e-05
1.16212e-05
1.15846e-05
1.15457e-05
1.15028e-05
1.14549e-05
1.14019e-05
1.13446e-05
1.12854e-05
1.12283e-05
1.11787e-05
1.11412e-05
1.1118e-05
1.11076e-05
1.11053e-05
1.20077e-05
1.20158e-05
1.20293e-05
1.20431e-05
1.20519e-05
1.20523e-05
1.20436e-05
1.20261e-05
1.19999e-05
1.19651e-05
1.19225e-05
1.18736e-05
1.18207e-05
1.1766e-05
1.1711e-05
1.16568e-05
1.16073e-05
1.15664e-05
1.15319e-05
1.14999e-05
1.14677e-05
1.14334e-05
1.13957e-05
1.13541e-05
1.13083e-05
1.12594e-05
1.12101e-05
1.11648e-05
1.11284e-05
1.11042e-05
1.10923e-05
1.10894e-05
1.19158e-05
1.19272e-05
1.19454e-05
1.19651e-05
1.19792e-05
1.19824e-05
1.19728e-05
1.19506e-05
1.19169e-05
1.18735e-05
1.18228e-05
1.17677e-05
1.1711e-05
1.16549e-05
1.16005e-05
1.15485e-05
1.15026e-05
1.14659e-05
1.14362e-05
1.14098e-05
1.13843e-05
1.1358e-05
1.13297e-05
1.12986e-05
1.1264e-05
1.12262e-05
1.11865e-05
1.1148e-05
1.11151e-05
1.10915e-05
1.10789e-05
1.10753e-05
1.17872e-05
1.17989e-05
1.18147e-05
1.18312e-05
1.18433e-05
1.18446e-05
1.18326e-05
1.18073e-05
1.17707e-05
1.17254e-05
1.16749e-05
1.16223e-05
1.15703e-05
1.15204e-05
1.14734e-05
1.14296e-05
1.13916e-05
1.1362e-05
1.13386e-05
1.13184e-05
1.12995e-05
1.12805e-05
1.12605e-05
1.12386e-05
1.12142e-05
1.11872e-05
1.11578e-05
1.11278e-05
1.11004e-05
1.10794e-05
1.10672e-05
1.10631e-05
1.16222e-05
1.1629e-05
1.16337e-05
1.16389e-05
1.16432e-05
1.16407e-05
1.16284e-05
1.16056e-05
1.15739e-05
1.1536e-05
1.14948e-05
1.14532e-05
1.1413e-05
1.13753e-05
1.13403e-05
1.13082e-05
1.12808e-05
1.12597e-05
1.12432e-05
1.12294e-05
1.12167e-05
1.12041e-05
1.11911e-05
1.1177e-05
1.11614e-05
1.11439e-05
1.11245e-05
1.11039e-05
1.10838e-05
1.10672e-05
1.10566e-05
1.10527e-05
1.14178e-05
1.14152e-05
1.14079e-05
1.14036e-05
1.14016e-05
1.13977e-05
1.13888e-05
1.13738e-05
1.13535e-05
1.13296e-05
1.1304e-05
1.12783e-05
1.12538e-05
1.12311e-05
1.12103e-05
1.11913e-05
1.11752e-05
1.11629e-05
1.11534e-05
1.11455e-05
1.11383e-05
1.11314e-05
1.11242e-05
1.11166e-05
1.11082e-05
1.10988e-05
1.10881e-05
1.10765e-05
1.10647e-05
1.10542e-05
1.10468e-05
1.10437e-05
1.11674e-05
1.11641e-05
1.11587e-05
1.11553e-05
1.11535e-05
1.11517e-05
1.11486e-05
1.11436e-05
1.11368e-05
1.11288e-05
1.11203e-05
1.11119e-05
1.11038e-05
1.10964e-05
1.10896e-05
1.10834e-05
1.10782e-05
1.10742e-05
1.10712e-05
1.10687e-05
1.10664e-05
1.10642e-05
1.1062e-05
1.10596e-05
1.1057e-05
1.10541e-05
1.10508e-05
1.10472e-05
1.10434e-05
1.10399e-05
1.10373e-05
1.1036e-05
)
;

boundaryField
{
    movingWall
    {
        type            fixedValue;
        value           uniform 1.1032e-05;
    }
    fixedWalls
    {
        type            zeroGradient;
    }
    floor
    {
        type            zeroGradient;
    }
    frontAndBack
    {
        type            empty;
    }
}


// ************************************************************************* //
