/*--------------------------------*- C++ -*----------------------------------*\
| =========                 |                                                 |
| \\      /  F ield         | OpenFOAM: The Open Source CFD Toolbox           |
|  \\    /   O peration     | Version:  2212                                  |
|   \\  /    A nd           | Website:  www.openfoam.com                      |
|    \\/     M anipulation  |                                                 |
\*---------------------------------------------------------------------------*/
FoamFile
{
    version     2.0;
    format      ascii;
    arch        "LSB;label=64;scalar=64";
    class       volScalarField;
    location    "270";
    object      p;
}
// * * * * * * * * * * * * * * * * * * * * * * * * * * * * * * * * * * * * * //

dimensions      [0 2 -2 0 0 0 0];

internalField   nonuniform List<scalar> 
1024
(
0
-1.00814e-05
-1.20638e-05
3.14863e-06
3.94595e-05
0.000102179
0.000196767
0.000322071
0.000458405
0.00056808
0.000606027
0.00055055
0.000401129
0.000148007
-0.000182013
-0.000581294
-0.00100505
-0.00135684
-0.00158863
-0.00171618
-0.00177247
-0.00178614
-0.00177701
-0.00175769
-0.00173581
-0.0017161
-0.00170137
-0.00169247
-0.00168779
-0.00168413
-0.00167975
-0.00167592
-0.0928213
-0.0928338
-0.0928401
-0.0928325
-0.0928062
-0.0927539
-0.0926692
-0.0925535
-0.0924254
-0.0923218
-0.0922869
-0.0923402
-0.0924842
-0.092732
-0.0930573
-0.0934519
-0.0938706
-0.0942172
-0.0944443
-0.0945674
-0.0946197
-0.0946299
-0.0946178
-0.0945959
-0.0945719
-0.0945504
-0.0945337
-0.0945226
-0.0945159
-0.094511
-0.0945059
-0.0945014
-0.19949
-0.199508
-0.199523
-0.199529
-0.199519
-0.199483
-0.199415
-0.199315
-0.1992
-0.199106
-0.199077
-0.199127
-0.199262
-0.1995
-0.199817
-0.200202
-0.200611
-0.200948
-0.201166
-0.20128
-0.201323
-0.201326
-0.201307
-0.201279
-0.201249
-0.201222
-0.2012
-0.201184
-0.201173
-0.201165
-0.201158
-0.201151
-0.322101
-0.322124
-0.322151
-0.322174
-0.322184
-0.322169
-0.32212
-0.322038
-0.321938
-0.321858
-0.321836
-0.321883
-0.322008
-0.322233
-0.322536
-0.322909
-0.323305
-0.323627
-0.323831
-0.323931
-0.32396
-0.32395
-0.323918
-0.323879
-0.323838
-0.323801
-0.323769
-0.323744
-0.323725
-0.323712
-0.3237
-0.32369
-0.463051
-0.463078
-0.463115
-0.463155
-0.463184
-0.463189
-0.463158
-0.463094
-0.463011
-0.462944
-0.462931
-0.462975
-0.463092
-0.463303
-0.463592
-0.46395
-0.464331
-0.464637
-0.464823
-0.464903
-0.464914
-0.464884
-0.464835
-0.464779
-0.464722
-0.464668
-0.464621
-0.464582
-0.464552
-0.46453
-0.464512
-0.464498
-0.625078
-0.625104
-0.625146
-0.625197
-0.62524
-0.625259
-0.625243
-0.625194
-0.625126
-0.625073
-0.625067
-0.625112
-0.625224
-0.625423
-0.625699
-0.626043
-0.626412
-0.626704
-0.626871
-0.626929
-0.626916
-0.626864
-0.626793
-0.626715
-0.626636
-0.626562
-0.626496
-0.626439
-0.626394
-0.626361
-0.626336
-0.626318
-0.811295
-0.811317
-0.811358
-0.811411
-0.81146
-0.811486
-0.81148
-0.811443
-0.811388
-0.811348
-0.81135
-0.811398
-0.811509
-0.811699
-0.811964
-0.8123
-0.81266
-0.812944
-0.813095
-0.813133
-0.813097
-0.81302
-0.812926
-0.812825
-0.812724
-0.812628
-0.812541
-0.812465
-0.812405
-0.812361
-0.812329
-0.812308
-1.02526
-1.02528
-1.02531
-1.02536
-1.02541
-1.02544
-1.02544
-1.02541
-1.02536
-1.02534
-1.02535
-1.0254
-1.02551
-1.0257
-1.02596
-1.02629
-1.02664
-1.02693
-1.02707
-1.02709
-1.02704
-1.02694
-1.02682
-1.0267
-1.02658
-1.02647
-1.02636
-1.02627
-1.0262
-1.02615
-1.02611
-1.02609
-1.27107
-1.27108
-1.2711
-1.27114
-1.27118
-1.27121
-1.27121
-1.27119
-1.27116
-1.27114
-1.27116
-1.27123
-1.27134
-1.27153
-1.27178
-1.2721
-1.27247
-1.27276
-1.2729
-1.27291
-1.27284
-1.27273
-1.2726
-1.27247
-1.27234
-1.27221
-1.2721
-1.272
-1.27192
-1.27187
-1.27183
-1.27181
-1.5534
-1.55341
-1.55343
-1.55346
-1.55349
-1.55351
-1.55352
-1.5535
-1.55348
-1.55348
-1.55352
-1.55359
-1.55371
-1.55389
-1.55414
-1.55447
-1.55484
-1.55514
-1.55529
-1.5553
-1.55523
-1.55511
-1.55498
-1.55484
-1.5547
-1.55458
-1.55447
-1.55437
-1.55429
-1.55423
-1.5542
-1.55418
-1.87769
-1.87769
-1.8777
-1.87773
-1.87775
-1.87777
-1.87778
-1.87777
-1.87776
-1.87778
-1.87783
-1.87791
-1.87804
-1.87822
-1.87846
-1.87879
-1.87916
-1.87948
-1.87965
-1.87967
-1.8796
-1.87948
-1.87935
-1.87922
-1.8791
-1.87898
-1.87887
-1.87878
-1.87871
-1.87865
-1.87862
-1.87861
-2.25015
-2.25015
-2.25015
-2.25017
-2.25019
-2.2502
-2.25021
-2.25021
-2.25022
-2.25025
-2.25031
-2.25041
-2.25054
-2.25072
-2.25096
-2.25128
-2.25166
-2.25198
-2.25218
-2.25221
-2.25215
-2.25205
-2.25194
-2.25182
-2.25171
-2.2516
-2.25151
-2.25141
-2.25134
-2.25129
-2.25127
-2.25126
-2.67794
-2.67793
-2.67794
-2.67794
-2.67795
-2.67797
-2.67797
-2.67798
-2.67801
-2.67806
-2.67813
-2.67824
-2.67837
-2.67855
-2.67879
-2.67909
-2.67945
-2.67977
-2.67998
-2.68004
-2.68
-2.67992
-2.67983
-2.67973
-2.67963
-2.67952
-2.67942
-2.67932
-2.67925
-2.6792
-2.67919
-2.67919
-3.1693
-3.1693
-3.1693
-3.1693
-3.1693
-3.16931
-3.16931
-3.16933
-3.16937
-3.16943
-3.16951
-3.16962
-3.16976
-3.16993
-3.17015
-3.17043
-3.17075
-3.17104
-3.17124
-3.17132
-3.1713
-3.17125
-3.17116
-3.17106
-3.17095
-3.17082
-3.1707
-3.1706
-3.17052
-3.17049
-3.17048
-3.17049
-3.73373
-3.73373
-3.73373
-3.73373
-3.73372
-3.73372
-3.73373
-3.73375
-3.73379
-3.73386
-3.73395
-3.73406
-3.73419
-3.73435
-3.73453
-3.73476
-3.735
-3.73521
-3.73535
-3.73542
-3.73541
-3.73534
-3.73523
-3.7351
-3.73496
-3.73482
-3.7347
-3.7346
-3.73455
-3.73453
-3.73453
-3.73454
-4.38217
-4.38217
-4.38217
-4.38217
-4.38216
-4.38216
-4.38217
-4.3822
-4.38224
-4.3823
-4.38238
-4.38248
-4.3826
-4.38273
-4.38287
-4.38302
-4.38315
-4.38324
-4.38326
-4.38322
-4.38313
-4.383
-4.38285
-4.38269
-4.38255
-4.38244
-4.38237
-4.38233
-4.38232
-4.38232
-4.38233
-4.38233
-5.0756
-5.0756
-5.0756
-5.0756
-5.0756
-5.0756
-5.07562
-5.07564
-5.07568
-5.07574
-5.07581
-5.0759
-5.076
-5.0761
-5.07619
-5.07627
-5.07631
-5.07629
-5.07622
-5.0761
-5.07592
-5.07572
-5.07552
-5.07533
-5.07519
-5.0751
-5.07506
-5.07506
-5.07507
-5.07508
-5.07509
-5.07509
-5.72426
-5.72427
-5.72427
-5.72427
-5.72428
-5.72429
-5.7243
-5.72432
-5.72435
-5.72439
-5.72445
-5.72452
-5.72459
-5.72465
-5.72471
-5.72474
-5.72473
-5.72468
-5.72459
-5.72446
-5.7243
-5.72411
-5.7239
-5.72372
-5.72358
-5.72349
-5.72345
-5.72344
-5.72345
-5.72347
-5.72348
-5.72348
-6.28899
-6.28899
-6.28899
-6.289
-6.28902
-6.28904
-6.28905
-6.28907
-6.2891
-6.28913
-6.28917
-6.28922
-6.28927
-6.28931
-6.28934
-6.28933
-6.28928
-6.2892
-6.28911
-6.289
-6.28887
-6.28872
-6.28856
-6.28841
-6.28828
-6.28819
-6.28813
-6.2881
-6.28809
-6.28809
-6.2881
-6.28811
-6.78057
-6.78057
-6.78058
-6.78059
-6.78062
-6.78065
-6.78068
-6.78071
-6.78073
-6.78076
-6.78079
-6.78083
-6.78088
-6.78091
-6.78091
-6.78088
-6.7808
-6.7807
-6.7806
-6.78049
-6.78038
-6.78026
-6.78013
-6.78
-6.77987
-6.77977
-6.77969
-6.77964
-6.77962
-6.77962
-6.77963
-6.77964
-7.20845
-7.20845
-7.20846
-7.20848
-7.20852
-7.20857
-7.20862
-7.20866
-7.2087
-7.20873
-7.20876
-7.2088
-7.20884
-7.20887
-7.20887
-7.20882
-7.20872
-7.2086
-7.20849
-7.20837
-7.20826
-7.20815
-7.20804
-7.20792
-7.2078
-7.20769
-7.2076
-7.20753
-7.2075
-7.20749
-7.20749
-7.20751
-7.58086
-7.58086
-7.58086
-7.58089
-7.58094
-7.58101
-7.58109
-7.58116
-7.58122
-7.58127
-7.58131
-7.58135
-7.5814
-7.58143
-7.58143
-7.58138
-7.58127
-7.58113
-7.58099
-7.58087
-7.58075
-7.58063
-7.58051
-7.58039
-7.58028
-7.58016
-7.58006
-7.57998
-7.57993
-7.57991
-7.57991
-7.57993
-7.90499
-7.90499
-7.90499
-7.90501
-7.90506
-7.90515
-7.90526
-7.90536
-7.90546
-7.90554
-7.9056
-7.90566
-7.90571
-7.90575
-7.90576
-7.9057
-7.90558
-7.90543
-7.90528
-7.90513
-7.905
-7.90486
-7.90473
-7.9046
-7.90447
-7.90435
-7.90424
-7.90414
-7.90407
-7.90404
-7.90404
-7.90405
-8.18711
-8.1871
-8.1871
-8.18712
-8.18717
-8.18725
-8.18737
-8.18751
-8.18765
-8.18777
-8.18787
-8.18796
-8.18802
-8.18807
-8.18808
-8.18803
-8.1879
-8.18774
-8.18758
-8.18742
-8.18726
-8.1871
-8.18694
-8.18679
-8.18664
-8.1865
-8.18637
-8.18625
-8.18616
-8.18611
-8.1861
-8.18612
-8.43268
-8.43267
-8.43266
-8.43267
-8.4327
-8.43278
-8.4329
-8.43306
-8.43324
-8.43341
-8.43356
-8.43367
-8.43377
-8.43383
-8.43384
-8.43379
-8.43366
-8.43349
-8.43332
-8.43314
-8.43296
-8.43278
-8.4326
-8.43241
-8.43223
-8.43205
-8.43189
-8.43175
-8.43163
-8.43155
-8.43153
-8.43154
-8.64645
-8.64644
-8.64643
-8.64642
-8.64643
-8.64647
-8.64658
-8.64676
-8.64698
-8.6472
-8.6474
-8.64755
-8.64767
-8.64775
-8.64777
-8.64772
-8.64759
-8.64742
-8.64723
-8.64705
-8.64685
-8.64665
-8.64644
-8.64622
-8.646
-8.64578
-8.64556
-8.64537
-8.64521
-8.64509
-8.64505
-8.64504
-8.83255
-8.83254
-8.83252
-8.83249
-8.83246
-8.83247
-8.83257
-8.83276
-8.83301
-8.83328
-8.83353
-8.83372
-8.83386
-8.83395
-8.83398
-8.83394
-8.83381
-8.83363
-8.83345
-8.83325
-8.83305
-8.83283
-8.8326
-8.83235
-8.83208
-8.83181
-8.83153
-8.83127
-8.83104
-8.83086
-8.83076
-8.83072
-8.99457
-8.99456
-8.99453
-8.99446
-8.9944
-8.99438
-8.99446
-8.99467
-8.99495
-8.99526
-8.99555
-8.99577
-8.99594
-8.99604
-8.99608
-8.99604
-8.99591
-8.99574
-8.99554
-8.99534
-8.99513
-8.9949
-8.99465
-8.99438
-8.99408
-8.99375
-8.99341
-8.99306
-8.99273
-8.99245
-8.99225
-8.99215
-9.13565
-9.13563
-9.13557
-9.13546
-9.13536
-9.13531
-9.1354
-9.13562
-9.13593
-9.13627
-9.13659
-9.13684
-9.13703
-9.13714
-9.13718
-9.13714
-9.13702
-9.13684
-9.13665
-9.13645
-9.13623
-9.13599
-9.13573
-9.13544
-9.13511
-9.13474
-9.13434
-9.1339
-9.13344
-9.133
-9.13265
-9.13243
-9.25859
-9.2585
-9.25837
-9.25821
-9.25806
-9.258
-9.25809
-9.25833
-9.25867
-9.25904
-9.25938
-9.25965
-9.25984
-9.25997
-9.26001
-9.25998
-9.25985
-9.25968
-9.25949
-9.25928
-9.25906
-9.25882
-9.25855
-9.25825
-9.2579
-9.2575
-9.25705
-9.25653
-9.25593
-9.25528
-9.25466
-9.25411
-9.36597
-9.36557
-9.36528
-9.36505
-9.36488
-9.36482
-9.36492
-9.36517
-9.36553
-9.36591
-9.36627
-9.36656
-9.36676
-9.36689
-9.36694
-9.36691
-9.36679
-9.36661
-9.36642
-9.36622
-9.366
-9.36575
-9.36548
-9.36517
-9.36482
-9.3644
-9.36392
-9.36334
-9.36263
-9.36174
-9.36065
-9.35939
-9.46007
-9.45883
-9.45831
-9.45806
-9.45789
-9.45783
-9.45794
-9.4582
-9.45857
-9.45896
-9.45933
-9.45962
-9.45984
-9.45997
-9.46003
-9.45999
-9.45988
-9.4597
-9.45951
-9.45931
-9.45909
-9.45885
-9.45857
-9.45826
-9.45791
-9.45749
-9.457
-9.45639
-9.4556
-9.45452
-9.45293
-9.45067
)
;

boundaryField
{
    movingWall
    {
        type            calculated;
        value           nonuniform List<scalar> 
32
(
-9.50339
-9.50215
-9.50162
-9.50138
-9.50121
-9.50115
-9.50125
-9.50152
-9.50189
-9.50228
-9.50265
-9.50294
-9.50316
-9.50329
-9.50335
-9.50332
-9.5032
-9.50303
-9.50284
-9.50263
-9.50241
-9.50217
-9.5019
-9.50159
-9.50123
-9.50081
-9.50032
-9.49971
-9.49893
-9.49785
-9.49625
-9.49399
)
;
    }
    fixedWalls
    {
        type            calculated;
        value           nonuniform List<scalar> 
64
(
6.93889e-18
-0.0928213
-0.19949
-0.322101
-0.463051
-0.625078
-0.811295
-1.02526
-1.27107
-1.5534
-1.87769
-2.25015
-2.67794
-3.1693
-3.73373
-4.38217
-5.0756
-5.72426
-6.28899
-6.78057
-7.20845
-7.58086
-7.90499
-8.18711
-8.43268
-8.64645
-8.83255
-8.99457
-9.13565
-9.25859
-9.36597
-9.46007
-0.00167592
-0.0945014
-0.201151
-0.32369
-0.464498
-0.626318
-0.812308
-1.02609
-1.27181
-1.55418
-1.87861
-2.25126
-2.67919
-3.17049
-3.73454
-4.38233
-5.07509
-5.72348
-6.28811
-6.77964
-7.20751
-7.57993
-7.90405
-8.18612
-8.43154
-8.64504
-8.83072
-8.99215
-9.13243
-9.25411
-9.35939
-9.45067
)
;
    }
    floor
    {
        type            calculated;
        value           nonuniform List<scalar> 
32
(
0.0431992
0.0431894
0.0431882
0.0432046
0.0432423
0.0433064
0.0434025
0.0435294
0.0436672
0.0437779
0.0438163
0.0437604
0.0436102
0.0433562
0.0430254
0.0426253
0.0422006
0.0418479
0.0416154
0.0414872
0.0414302
0.041416
0.0414246
0.0414434
0.0414648
0.0414841
0.0414984
0.0415068
0.041511
0.0415143
0.0415185
0.0415222
)
;
    }
    frontAndBack
    {
        type            empty;
    }
}


// ************************************************************************* //
