/*--------------------------------*- C++ -*----------------------------------*\
| =========                 |                                                 |
| \\      /  F ield         | OpenFOAM: The Open Source CFD Toolbox           |
|  \\    /   O peration     | Version:  2212                                  |
|   \\  /    A nd           | Website:  www.openfoam.com                      |
|    \\/     M anipulation  |                                                 |
\*---------------------------------------------------------------------------*/
FoamFile
{
    version     2.0;
    format      ascii;
    arch        "LSB;label=64;scalar=64";
    class       surfaceScalarField;
    location    "270";
    object      phi;
}
// * * * * * * * * * * * * * * * * * * * * * * * * * * * * * * * * * * * * * //

dimensions      [0 3 -1 0 0 0 0];

oriented        oriented;

internalField   nonuniform List<scalar> 
1984
(
-2.38073e-08
2.38081e-08
-1.04919e-07
8.11119e-08
-2.17064e-07
1.12145e-07
-3.29307e-07
1.12243e-07
-4.24293e-07
9.49862e-08
-4.8973e-07
6.54371e-08
-5.11481e-07
2.17511e-08
-4.68636e-07
-4.2846e-08
-3.48375e-07
-1.20261e-07
-1.59729e-07
-1.88647e-07
6.42191e-08
-2.23948e-07
2.76495e-07
-2.12276e-07
4.52996e-07
-1.76501e-07
5.88411e-07
-1.35414e-07
6.94231e-07
-1.05821e-07
7.66375e-07
-7.21435e-08
7.78997e-07
-1.26218e-08
7.31973e-07
4.70239e-08
6.46719e-07
8.52535e-08
5.46653e-07
1.00066e-07
4.46895e-07
9.97576e-08
3.55088e-07
9.18066e-08
2.74861e-07
8.02279e-08
2.08037e-07
6.68245e-08
1.55638e-07
5.23984e-08
1.17043e-07
3.85945e-08
8.85575e-08
2.84851e-08
6.3407e-08
2.51503e-08
3.69577e-08
2.64489e-08
1.28906e-08
2.40674e-08
3.25042e-10
1.25651e-08
3.24512e-10
-1.06041e-07
1.29849e-07
-3.5486e-07
3.29931e-07
-6.65198e-07
4.22484e-07
-9.64291e-07
4.11336e-07
-1.20413e-06
3.34827e-07
-1.35097e-06
2.12281e-07
-1.37387e-06
4.46444e-08
-1.23672e-06
-1.79998e-07
-9.2025e-07
-4.36726e-07
-4.43368e-07
-6.65529e-07
1.46903e-07
-8.14219e-07
7.32722e-07
-7.98094e-07
1.23014e-06
-6.73924e-07
1.64506e-06
-5.50331e-07
1.99157e-06
-4.52333e-07
2.25156e-06
-3.32129e-07
2.34683e-06
-1.07891e-07
2.27341e-06
1.20438e-07
2.08345e-06
2.75212e-07
1.83091e-06
3.5261e-07
1.55708e-06
3.73587e-07
1.28798e-06
3.60904e-07
1.03919e-06
3.2902e-07
8.20238e-07
2.85779e-07
6.36625e-07
2.3601e-07
4.88455e-07
1.86763e-07
3.68071e-07
1.48869e-07
2.61693e-07
1.31529e-07
1.60539e-07
1.27602e-07
7.23931e-08
1.12213e-07
1.6137e-08
6.88202e-08
1.64615e-08
-1.96937e-07
3.26786e-07
-6.11457e-07
7.44451e-07
-1.09801e-06
9.09034e-07
-1.54931e-06
8.62638e-07
-1.89369e-06
6.79206e-07
-2.08049e-06
3.99087e-07
-2.06815e-06
3.23016e-08
-1.82451e-06
-4.23634e-07
-1.34249e-06
-9.18748e-07
-6.47989e-07
-1.36003e-06
2.22879e-07
-1.68509e-06
1.11397e-06
-1.68918e-06
1.89765e-06
-1.45761e-06
2.59513e-06
-1.24781e-06
3.21321e-06
-1.07041e-06
3.71505e-06
-8.33969e-07
3.96339e-06
-3.56232e-07
3.93854e-06
1.45289e-07
3.71602e-06
4.97733e-07
3.37104e-06
6.9759e-07
2.96415e-06
7.8047e-07
2.53809e-06
7.86968e-07
2.12175e-06
7.45359e-07
1.73471e-06
6.72819e-07
1.38907e-06
5.81655e-07
1.08854e-06
4.87289e-07
8.27008e-07
4.10402e-07
5.91337e-07
3.67198e-07
3.72907e-07
3.46032e-07
1.82117e-07
3.03002e-07
4.88169e-08
2.0212e-07
6.52783e-08
-2.5828e-07
5.85066e-07
-7.93173e-07
1.27934e-06
-1.41137e-06
1.52723e-06
-1.97169e-06
1.42296e-06
-2.38032e-06
1.08783e-06
-2.5741e-06
5.92871e-07
-2.50752e-06
-3.42737e-08
-2.16693e-06
-7.6423e-07
-1.56036e-06
-1.52531e-06
-7.15707e-07
-2.20469e-06
3.25815e-07
-2.72661e-06
1.40892e-06
-2.77229e-06
2.41158e-06
-2.46026e-06
3.3519e-06
-2.18813e-06
4.23046e-06
-1.94897e-06
4.99497e-06
-1.59848e-06
5.45124e-06
-8.12503e-07
5.54603e-06
5.04982e-08
5.36616e-06
6.77601e-07
5.00366e-06
1.06009e-06
4.53094e-06
1.25319e-06
4.00157e-06
1.31634e-06
3.45405e-06
1.29288e-06
2.91583e-06
1.21104e-06
2.40479e-06
1.0927e-06
1.92946e-06
9.62615e-07
1.48952e-06
8.50338e-07
1.07895e-06
7.7777e-07
6.94677e-07
7.30306e-07
3.52937e-07
6.44742e-07
1.01183e-07
4.53874e-07
1.6646e-07
-2.68207e-07
8.53273e-07
-8.50004e-07
1.86114e-06
-1.53948e-06
2.21671e-06
-2.16464e-06
2.04811e-06
-2.60689e-06
1.53008e-06
-2.79158e-06
7.77568e-07
-2.68178e-06
-1.44072e-07
-2.27577e-06
-1.17024e-06
-1.58819e-06
-2.2129e-06
-6.47454e-07
-3.14542e-06
4.71331e-07
-3.8454e-06
1.63974e-06
-3.9407e-06
2.78505e-06
-3.60557e-06
3.90513e-06
-3.30821e-06
4.99744e-06
-3.04128e-06
6.0022e-06
-2.60323e-06
6.67867e-06
-1.48897e-06
6.93041e-06
-2.01249e-07
6.84692e-06
7.61091e-07
6.52943e-06
1.37758e-06
6.05657e-06
1.72605e-06
5.48678e-06
1.88613e-06
4.86253e-06
1.91713e-06
4.2145e-06
1.85907e-06
3.5634e-06
1.7438e-06
2.92157e-06
1.60444e-06
2.29505e-06
1.47687e-06
1.68693e-06
1.38589e-06
1.10412e-06
1.31311e-06
5.74894e-07
1.17397e-06
1.71482e-07
8.57286e-07
3.37941e-07
-2.28353e-07
1.08163e-06
-7.80537e-07
2.41332e-06
-1.47843e-06
2.91461e-06
-2.12977e-06
2.69944e-06
-2.59026e-06
1.99057e-06
-2.77401e-06
9.61323e-07
-2.64871e-06
-2.69373e-07
-2.21586e-06
-1.6031e-06
-1.48305e-06
-2.9457e-06
-4.88378e-07
-4.14009e-06
6.46893e-07
-4.98067e-06
1.8322e-06
-5.12601e-06
3.05485e-06
-4.82822e-06
4.29328e-06
-4.54665e-06
5.5432e-06
-4.29119e-06
6.74387e-06
-3.80391e-06
7.61082e-06
-2.35593e-06
8.0109e-06
-6.01327e-07
8.03857e-06
7.33416e-07
7.79372e-06
1.62243e-06
7.35929e-06
2.16049e-06
6.79451e-06
2.4509e-06
6.14056e-06
2.57108e-06
5.42652e-06
2.57312e-06
4.67263e-06
2.49768e-06
3.89314e-06
2.38393e-06
3.09905e-06
2.27096e-06
2.30165e-06
2.18328e-06
1.5199e-06
2.09486e-06
7.99938e-07
1.89393e-06
2.43053e-07
1.41417e-06
5.80994e-07
-1.58079e-07
1.2397e-06
-6.19687e-07
2.87493e-06
-1.27101e-06
3.56593e-06
-1.91856e-06
3.34699e-06
-2.39474e-06
2.46675e-06
-2.59792e-06
1.16451e-06
-2.48817e-06
-3.79127e-07
-2.05513e-06
-2.03614e-06
-1.30103e-06
-3.69981e-06
-2.89987e-07
-5.15113e-06
8.21211e-07
-6.09187e-06
1.98486e-06
-6.28966e-06
3.2326e-06
-6.07596e-06
4.53921e-06
-5.85325e-06
5.90026e-06
-5.65225e-06
7.25922e-06
-5.16286e-06
8.28863e-06
-3.38534e-06
8.80731e-06
-1.12e-06
8.91846e-06
6.22262e-07
8.7298e-06
1.8111e-06
8.33219e-06
2.55809e-06
7.78473e-06
2.99837e-06
7.12391e-06
3.2319e-06
6.37352e-06
3.3235e-06
5.55044e-06
3.32077e-06
4.66841e-06
3.26595e-06
3.74123e-06
3.19815e-06
2.78681e-06
3.1377e-06
1.83733e-06
3.04435e-06
9.61578e-07
2.76967e-06
2.90162e-07
2.08559e-06
8.71156e-07
-8.13098e-08
1.32101e-06
-4.15782e-07
3.2094e-06
-9.77513e-07
4.12766e-06
-1.59729e-06
3.96677e-06
-2.08996e-06
2.95942e-06
-2.33025e-06
1.40479e-06
-2.25509e-06
-4.54286e-07
-1.83335e-06
-2.45787e-06
-1.07616e-06
-4.457e-06
-9.22637e-08
-6.13503e-06
9.53254e-07
-7.13738e-06
2.0589e-06
-7.3953e-06
3.28013e-06
-7.29719e-06
4.60602e-06
-7.17913e-06
6.03705e-06
-7.08328e-06
7.52875e-06
-6.65456e-06
8.71559e-06
-4.57218e-06
9.34115e-06
-1.74556e-06
9.50183e-06
4.61574e-07
9.32942e-06
1.98352e-06
8.93747e-06
2.95004e-06
8.38995e-06
3.54589e-06
7.71984e-06
3.90201e-06
6.94493e-06
4.09841e-06
6.07688e-06
4.18882e-06
5.12648e-06
4.21635e-06
4.10743e-06
4.2172e-06
3.04258e-06
4.20255e-06
1.97865e-06
4.10829e-06
1.01072e-06
3.73761e-06
2.9412e-07
2.80218e-06
1.16528e-06
-1.63694e-08
1.33738e-06
-2.10307e-07
3.40334e-06
-6.50963e-07
4.56832e-06
-1.21945e-06
4.53526e-06
-1.72348e-06
3.46345e-06
-2.00657e-06
1.68789e-06
-1.9699e-06
-4.90962e-07
-1.56298e-06
-2.86479e-06
-8.29579e-07
-5.1904e-06
6.3774e-08
-7.02838e-06
9.87669e-07
-8.06128e-06
1.97873e-06
-8.38636e-06
3.10661e-06
-8.42507e-06
4.38647e-06
-8.459e-06
5.83107e-06
-8.52788e-06
7.42093e-06
-8.24442e-06
8.7734e-06
-5.92465e-06
9.53013e-06
-2.50228e-06
9.73929e-06
2.52412e-07
9.55844e-06
2.16436e-06
9.14443e-06
3.36406e-06
8.5747e-06
4.11561e-06
7.88485e-06
4.59187e-06
7.08999e-06
4.89326e-06
6.19691e-06
5.08191e-06
5.21134e-06
5.20191e-06
4.14408e-06
5.28447e-06
3.02179e-06
5.32483e-06
1.90861e-06
5.22147e-06
9.28939e-07
4.71727e-06
2.51017e-07
3.48011e-06
1.41629e-06
3.14334e-08
1.30595e-06
-3.18632e-08
3.46664e-06
-3.2796e-07
4.86441e-06
-8.18127e-07
5.02542e-06
-1.31722e-06
3.96255e-06
-1.6356e-06
2.00626e-06
-1.63246e-06
-4.94104e-07
-1.24993e-06
-3.24731e-06
-5.91986e-07
-5.84834e-06
1.31229e-07
-7.7516e-06
8.41737e-07
-8.77179e-06
1.62734e-06
-9.17196e-06
2.56702e-06
-9.36475e-06
3.70301e-06
-9.59499e-06
5.06629e-06
-9.89115e-06
6.677e-06
-9.85513e-06
8.18157e-06
-7.42922e-06
9.11564e-06
-3.43635e-06
9.41717e-06
-4.9111e-08
9.25742e-06
2.3241e-06
8.83794e-06
3.78355e-06
8.25823e-06
4.69532e-06
7.56298e-06
5.28712e-06
6.76948e-06
5.68676e-06
5.8812e-06
5.97019e-06
4.89786e-06
6.18525e-06
3.82663e-06
6.3557e-06
2.70131e-06
6.45015e-06
1.61187e-06
6.31092e-06
7.14966e-07
5.61418e-06
1.66736e-07
4.02834e-06
1.58303e-06
6.38598e-08
1.24209e-06
1.05353e-07
3.42514e-06
-3.9031e-08
5.0088e-06
-4.20847e-07
5.40724e-06
-8.86654e-07
4.42835e-06
-1.22226e-06
2.34186e-06
-1.24866e-06
-4.67701e-07
-9.24693e-07
-3.57128e-06
-4.37655e-07
-6.33538e-06
-3.66718e-09
-8.18559e-06
3.79035e-07
-9.15449e-06
8.32913e-07
-9.62584e-06
1.45252e-06
-9.98436e-06
2.30173e-06
-1.04442e-05
3.4316e-06
-1.1021e-05
4.90944e-06
-1.1333e-05
6.47852e-06
-8.99831e-06
7.62464e-06
-4.58246e-06
8.11362e-06
-5.3809e-07
8.07143e-06
2.3663e-06
7.73812e-06
4.11685e-06
7.23273e-06
5.20071e-06
6.60706e-06
5.91279e-06
5.87982e-06
6.414e-06
5.05037e-06
6.79964e-06
4.11293e-06
7.1227e-06
3.08022e-06
7.38841e-06
2.01133e-06
7.51904e-06
1.04272e-06
7.27953e-06
3.62179e-07
6.29471e-06
5.09988e-08
4.33952e-06
1.63403e-06
8.08406e-08
1.16125e-06
1.94411e-07
3.31157e-06
1.8206e-07
5.02115e-06
-7.02655e-08
5.65956e-06
-4.72096e-07
4.83018e-06
-8.00276e-07
2.67004e-06
-8.66341e-07
-4.01636e-07
-6.80378e-07
-3.75725e-06
-5.07263e-07
-6.5085e-06
-5.05693e-07
-8.18716e-06
-6.03291e-07
-9.05689e-06
-6.45275e-07
-9.58386e-06
-5.2094e-07
-1.01087e-05
-1.53048e-07
-1.08121e-05
5.25075e-07
-1.16991e-05
1.61329e-06
-1.24212e-05
3.01635e-06
-1.04014e-05
4.31589e-06
-5.88201e-06
5.16355e-06
-1.38575e-06
5.41911e-06
2.11074e-06
5.35528e-06
4.18069e-06
5.09706e-06
5.45892e-06
4.68725e-06
6.3226e-06
4.13455e-06
6.9667e-06
3.42883e-06
7.50535e-06
2.56112e-06
7.99041e-06
1.61264e-06
8.33689e-06
7.34919e-07
8.39676e-06
1.15251e-07
7.8992e-06
-1.34128e-07
6.5441e-06
-9.38053e-08
4.29919e-06
1.54022e-06
7.62484e-08
1.085e-06
2.10953e-07
3.17687e-06
2.69161e-07
4.96294e-06
1.33874e-07
5.79485e-06
-1.76209e-07
5.14027e-06
-4.76825e-07
2.97066e-06
-6.28398e-07
-2.50062e-07
-7.26856e-07
-3.65879e-06
-1.06324e-06
-6.17211e-06
-1.68023e-06
-7.57016e-06
-2.42918e-06
-8.30794e-06
-3.14473e-06
-8.86831e-06
-3.70864e-06
-9.54479e-06
-4.03901e-06
-1.04817e-05
-4.0641e-06
-1.16741e-05
-3.66693e-06
-1.28184e-05
-2.79745e-06
-1.12708e-05
-1.68263e-06
-6.99682e-06
-4.20628e-07
-2.64775e-06
4.86995e-07
1.20311e-06
9.43729e-07
3.72396e-06
1.13708e-06
5.26557e-06
1.06958e-06
6.3901e-06
7.473e-07
7.28898e-06
2.14342e-07
8.03831e-06
-4.24258e-07
8.62901e-06
-9.88276e-07
8.90091e-06
-1.28085e-06
8.68933e-06
-1.18202e-06
7.80037e-06
-7.60343e-07
6.12242e-06
-2.63561e-07
3.80241e-06
1.27666e-06
4.3656e-08
1.04134e-06
1.27226e-07
3.0933e-06
1.6269e-07
4.92748e-06
6.44791e-08
5.89306e-06
-1.8054e-07
5.38528e-06
-4.8757e-07
3.27769e-06
-8.33232e-07
9.56002e-08
-1.42777e-06
-3.06425e-06
-2.47776e-06
-5.12213e-06
-3.89205e-06
-6.15588e-06
-5.47174e-06
-6.72825e-06
-7.05204e-06
-7.28801e-06
-8.51551e-06
-8.08132e-06
-9.76994e-06
-9.22729e-06
-1.07248e-05
-1.07192e-05
-1.12487e-05
-1.22945e-05
-1.11271e-05
-1.13924e-05
-1.03839e-05
-7.74002e-06
-9.20171e-06
-3.82994e-06
-7.85153e-06
-1.47064e-07
-6.68823e-06
2.56065e-06
-5.90677e-06
4.4841e-06
-5.47431e-06
5.95765e-06
-5.30019e-06
7.11486e-06
-5.23061e-06
7.96872e-06
-5.05611e-06
8.45451e-06
-4.6126e-06
8.4574e-06
-3.80164e-06
7.87837e-06
-2.66504e-06
6.66377e-06
-1.42349e-06
4.88086e-06
-4.22144e-07
2.80107e-06
8.54517e-07
-1.47244e-08
1.05607e-06
-5.46642e-08
3.13324e-06
-1.4588e-07
5.01869e-06
-3.30893e-07
6.07808e-06
-6.47487e-07
5.70188e-06
-1.12501e-06
3.75521e-06
-1.90288e-06
8.73469e-07
-3.24138e-06
-1.72575e-06
-5.15532e-06
-3.20818e-06
-7.4781e-06
-3.8331e-06
-9.9823e-06
-4.22404e-06
-1.25049e-05
-4.76538e-06
-1.49332e-05
-5.65305e-06
-1.71823e-05
-6.97817e-06
-1.91683e-05
-8.7332e-06
-2.07648e-05
-1.06981e-05
-2.15767e-05
-1.05805e-05
-2.14376e-05
-7.87907e-06
-2.04901e-05
-4.77745e-06
-1.89177e-05
-1.7195e-06
-1.7336e-05
9.78962e-07
-1.58573e-05
3.00542e-06
-1.44705e-05
4.57088e-06
-1.31121e-05
5.75639e-06
-1.16679e-05
6.5246e-06
-1.00207e-05
6.80728e-06
-8.11192e-06
6.54859e-06
-5.97575e-06
5.7422e-06
-3.77855e-06
4.46658e-06
-1.82596e-06
2.92827e-06
-4.84265e-07
1.45938e-06
3.70251e-07
-7.10628e-08
1.12713e-06
-2.50726e-07
3.3129e-06
-5.25294e-07
5.29326e-06
-9.11893e-07
6.46468e-06
-1.47561e-06
6.2656e-06
-2.37479e-06
4.65439e-06
-3.92461e-06
2.42329e-06
-6.30604e-06
6.55678e-07
-9.25723e-06
-2.57004e-07
-1.24315e-05
-6.58844e-07
-1.56292e-05
-1.0263e-06
-1.87585e-05
-1.63614e-06
-2.17862e-05
-2.62531e-06
-2.47082e-05
-4.05614e-06
-2.74808e-05
-5.96061e-06
-3.00123e-05
-8.16661e-06
-3.17641e-05
-8.82863e-06
-3.23242e-05
-7.31896e-06
-3.17256e-05
-5.37602e-06
-3.0057e-05
-3.38815e-06
-2.75565e-05
-1.52153e-06
-2.4746e-05
1.9496e-07
-2.16848e-05
1.50959e-06
-1.84795e-05
2.55113e-06
-1.51877e-05
3.23276e-06
-1.18883e-05
3.50793e-06
-8.69138e-06
3.35166e-06
-5.74088e-06
2.7917e-06
-3.22464e-06
1.95034e-06
-1.36748e-06
1.07111e-06
-3.12743e-07
4.04642e-07
5.75065e-08
-8.17325e-08
1.20887e-06
-3.0521e-07
3.53638e-06
-6.73458e-07
5.66151e-06
-1.21524e-06
7.00646e-06
-2.01184e-06
7.06219e-06
-3.23443e-06
5.87699e-06
-5.08277e-06
4.27163e-06
-7.55114e-06
3.12404e-06
-1.03633e-05
2.55513e-06
-1.32645e-05
2.24234e-06
-1.61881e-05
1.89729e-06
-1.90972e-05
1.273e-06
-2.19146e-05
1.92104e-07
-2.45861e-05
-1.38467e-06
-2.71508e-05
-3.39587e-06
-2.96388e-05
-5.67859e-06
-3.1588e-05
-6.87948e-06
-3.2553e-05
-6.35393e-06
-3.24502e-05
-5.47882e-06
-3.12548e-05
-4.58354e-06
-2.90113e-05
-3.76507e-06
-2.57957e-05
-3.02063e-06
-2.19636e-05
-2.32255e-06
-1.77065e-05
-1.70588e-06
-1.33157e-05
-1.15807e-06
-9.13423e-06
-6.73551e-07
-5.5155e-06
-2.67059e-07
-2.7404e-06
1.65975e-08
-1.00397e-06
2.13903e-07
-1.90704e-07
2.57846e-07
1.94519e-08
1.94486e-07
7.69576e-08
-3.08865e-08
1.23975e-06
-1.48764e-07
3.65426e-06
-4.05924e-07
5.91866e-06
-8.73642e-07
7.47418e-06
-1.61408e-06
7.80263e-06
-2.67557e-06
6.93848e-06
-4.02149e-06
5.61755e-06
-5.50266e-06
4.6052e-06
-7.04415e-06
4.09663e-06
-8.68433e-06
3.88251e-06
-1.04591e-05
3.67207e-06
-1.23999e-05
3.21384e-06
-1.45155e-05
2.3077e-06
-1.6663e-05
7.62783e-07
-1.86652e-05
-1.39365e-06
-2.05426e-05
-3.80114e-06
-2.21343e-05
-5.28783e-06
-2.31964e-05
-5.2918e-06
-2.36393e-05
-5.03594e-06
-2.33793e-05
-4.84353e-06
-2.23671e-05
-4.77732e-06
-2.05896e-05
-4.79806e-06
-1.80864e-05
-4.82579e-06
-1.5021e-05
-4.77131e-06
-1.16366e-05
-4.54246e-06
-8.23806e-06
-4.07207e-06
-5.16344e-06
-3.34168e-06
-2.74293e-06
-2.40391e-06
-1.12706e-06
-1.40197e-06
-2.99852e-07
-5.69362e-07
-2.05607e-08
-8.48057e-08
5.63976e-08
3.23831e-08
1.20737e-06
6.22909e-08
3.62435e-06
-5.73836e-10
5.98153e-06
-2.72412e-07
7.74602e-06
-8.5846e-07
8.38868e-06
-1.7326e-06
7.81262e-06
-2.74052e-06
6.62547e-06
-3.72738e-06
5.59206e-06
-4.63266e-06
5.00191e-06
-5.49815e-06
4.748e-06
-6.39787e-06
4.5718e-06
-7.3977e-06
4.21367e-06
-8.54204e-06
3.45203e-06
-9.8778e-06
2.09854e-06
-1.12846e-05
1.31116e-08
-1.26215e-05
-2.46422e-06
-1.3797e-05
-4.11231e-06
-1.46922e-05
-4.39659e-06
-1.52639e-05
-4.46423e-06
-1.54668e-05
-4.64063e-06
-1.5263e-05
-4.98111e-06
-1.46225e-05
-5.43855e-06
-1.35354e-05
-5.91288e-06
-1.20297e-05
-6.27704e-06
-1.01745e-05
-6.39764e-06
-8.08195e-06
-6.16465e-06
-5.90417e-06
-5.51946e-06
-3.83018e-06
-4.47791e-06
-2.07123e-06
-3.16091e-06
-8.29483e-07
-1.81111e-06
-1.77965e-07
-7.36323e-07
-1.21568e-07
9.3322e-08
1.11405e-06
2.77277e-07
3.44039e-06
4.39735e-07
5.81907e-06
4.36568e-07
7.74918e-06
1.12689e-07
8.71256e-06
-5.61982e-07
8.48729e-06
-1.40699e-06
7.47048e-06
-2.13585e-06
6.32092e-06
-2.66692e-06
5.53298e-06
-3.04173e-06
5.12281e-06
-3.34479e-06
4.87486e-06
-3.67041e-06
4.53929e-06
-4.10209e-06
3.88371e-06
-4.7111e-06
2.70755e-06
-5.57661e-06
8.78626e-07
-6.55335e-06
-1.48748e-06
-7.46904e-06
-3.19662e-06
-8.20411e-06
-3.66153e-06
-8.75846e-06
-3.90989e-06
-9.15199e-06
-4.2471e-06
-9.38841e-06
-4.74469e-06
-9.4461e-06
-5.38087e-06
-9.28113e-06
-6.07785e-06
-8.83433e-06
-6.72384e-06
-8.05632e-06
-7.17565e-06
-6.93272e-06
-7.28825e-06
-5.50522e-06
-6.94696e-06
-3.89516e-06
-6.08797e-06
-2.31031e-06
-4.74576e-06
-1.01793e-06
-3.10349e-06
-2.3816e-07
-1.51609e-06
-3.59729e-07
1.42561e-07
9.71486e-07
4.63054e-07
3.1199e-06
8.36925e-07
5.4452e-06
1.10861e-06
7.4775e-06
1.11242e-06
8.70875e-06
7.38972e-07
8.86073e-06
9.17585e-08
8.11769e-06
-5.39753e-07
6.95243e-06
-9.38828e-07
5.93206e-06
-1.0683e-06
5.25229e-06
-1.01408e-06
4.82064e-06
-8.9681e-07
4.42202e-06
-8.3081e-07
3.81771e-06
-9.26122e-07
2.80287e-06
-1.30553e-06
1.25804e-06
-2.00833e-06
-7.84685e-07
-2.82495e-06
-2.38e-06
-3.47861e-06
-3.00787e-06
-3.99099e-06
-3.3975e-06
-4.42362e-06
-3.81447e-06
-4.81898e-06
-4.34932e-06
-5.19236e-06
-5.00749e-06
-5.52052e-06
-5.74969e-06
-5.72236e-06
-6.522e-06
-5.69692e-06
-7.20109e-06
-5.34685e-06
-7.63832e-06
-4.61814e-06
-7.67567e-06
-3.54737e-06
-7.15874e-06
-2.28462e-06
-6.00851e-06
-1.09176e-06
-4.29636e-06
-2.75248e-07
-2.3326e-06
-6.34978e-07
1.70613e-07
8.00872e-07
5.85994e-07
2.70452e-06
1.12463e-06
4.90657e-06
1.62882e-06
6.97331e-06
1.93113e-06
8.40643e-06
1.90867e-06
8.8832e-06
1.58434e-06
8.44202e-06
1.12402e-06
7.41276e-06
7.92614e-07
6.26346e-06
7.30398e-07
5.3145e-06
9.20807e-07
4.63022e-06
1.25668e-06
4.08614e-06
1.59838e-06
3.47602e-06
1.80539e-06
2.59586e-06
1.74178e-06
1.32165e-06
1.2949e-06
-3.37805e-07
6.49871e-07
-1.73497e-06
5.09118e-08
-2.40891e-06
-4.70074e-07
-2.87652e-06
-9.41721e-07
-3.34282e-06
-1.40595e-06
-3.8851e-06
-1.89972e-06
-4.51372e-06
-2.43928e-06
-5.21012e-06
-2.97347e-06
-5.98781e-06
-3.42283e-06
-6.75174e-06
-3.64851e-06
-7.41264e-06
-3.51989e-06
-7.80428e-06
-2.98231e-06
-7.69632e-06
-2.10389e-06
-6.88693e-06
-1.09674e-06
-5.30351e-06
-2.98565e-07
-3.13078e-06
-9.33543e-07
1.73655e-07
6.27217e-07
6.28555e-07
2.24962e-06
1.26357e-06
4.27155e-06
1.93225e-06
6.30463e-06
2.47806e-06
7.86062e-06
2.77851e-06
8.58274e-06
2.80882e-06
8.41171e-06
2.65506e-06
7.56652e-06
2.49733e-06
6.42119e-06
2.49707e-06
5.31476e-06
2.7099e-06
4.41739e-06
3.08428e-06
3.71177e-06
3.50327e-06
3.05703e-06
3.82633e-06
2.2728e-06
3.91816e-06
1.22982e-06
3.67175e-06
-9.14047e-08
3.20376e-06
-1.26697e-06
2.69955e-06
-1.9047e-06
2.19876e-06
-2.37573e-06
1.69614e-06
-2.84021e-06
1.17277e-06
-3.36172e-06
6.09276e-07
-3.95023e-06
-1.03297e-08
-4.59052e-06
-6.90195e-07
-5.30795e-06
-1.39449e-06
-6.04745e-06
-2.0038e-06
-6.80332e-06
-2.35778e-06
-7.45031e-06
-2.30805e-06
-7.74605e-06
-1.83037e-06
-7.36461e-06
-1.05937e-06
-6.07451e-06
-3.17218e-07
-3.87293e-06
-1.25076e-06
1.54404e-07
4.72813e-07
5.91917e-07
1.81211e-06
1.2468e-06
3.61667e-06
1.99794e-06
5.55349e-06
2.71131e-06
7.14725e-06
3.27597e-06
8.01808e-06
3.64219e-06
8.04549e-06
3.83534e-06
7.37337e-06
3.94907e-06
6.30747e-06
4.09697e-06
5.16686e-06
4.35082e-06
4.16354e-06
4.7092e-06
3.35338e-06
5.10562e-06
2.6606e-06
5.43453e-06
1.94389e-06
5.58381e-06
1.08055e-06
5.45915e-06
3.32502e-08
5.11665e-06
-9.24468e-07
4.69193e-06
-1.47999e-06
4.22159e-06
-1.90538e-06
3.70877e-06
-2.32739e-06
3.14592e-06
-2.79887e-06
2.52884e-06
-3.33315e-06
1.86424e-06
-3.92592e-06
1.12963e-06
-4.57333e-06
3.34519e-07
-5.25234e-06
-4.80405e-07
-5.9884e-06
-1.19627e-06
-6.73444e-06
-1.57548e-06
-7.36685e-06
-1.49581e-06
-7.44427e-06
-9.94418e-07
-6.5759e-06
-3.39286e-07
-4.52806e-06
-1.59005e-06
1.18757e-07
3.54056e-07
4.88935e-07
1.44193e-06
1.09142e-06
3.01418e-06
1.84611e-06
4.7988e-06
2.65239e-06
6.34097e-06
3.41599e-06
7.25449e-06
4.06921e-06
7.39227e-06
4.58612e-06
6.85645e-06
4.9904e-06
5.90319e-06
5.3387e-06
4.81856e-06
5.68548e-06
3.81677e-06
6.05142e-06
2.98744e-06
6.41268e-06
2.29935e-06
6.70808e-06
1.64849e-06
6.8591e-06
9.29527e-07
6.79105e-06
1.013e-07
6.52802e-06
-6.61435e-07
6.16991e-06
-1.12189e-06
5.74451e-06
-1.47998e-06
5.25403e-06
-1.83691e-06
4.69206e-06
-2.2369e-06
4.05408e-06
-2.69518e-06
3.34221e-06
-3.21405e-06
2.56013e-06
-3.79125e-06
1.72763e-06
-4.41983e-06
8.43224e-07
-5.104e-06
-5.04592e-08
-5.84076e-06
-7.97536e-07
-6.61977e-06
-1.10734e-06
-7.13447e-06
-9.04273e-07
-6.77897e-06
-3.69274e-07
-5.06306e-06
-1.95932e-06
6.74873e-08
2.86569e-07
3.2647e-07
1.18295e-06
8.18572e-07
2.52208e-06
1.51875e-06
4.09863e-06
2.36441e-06
5.49531e-06
3.2734e-06
6.3455e-06
4.15569e-06
6.50998e-06
4.93944e-06
6.07271e-06
5.59503e-06
5.2476e-06
6.13496e-06
4.27863e-06
6.59237e-06
3.35936e-06
6.9943e-06
2.5855e-06
7.34363e-06
1.95002e-06
7.61398e-06
1.37814e-06
7.75772e-06
7.85786e-07
7.72318e-06
1.35837e-07
7.52126e-06
-4.59511e-07
7.22463e-06
-8.25259e-07
6.85382e-06
-1.10918e-06
6.40879e-06
-1.39187e-06
5.8817e-06
-1.70981e-06
5.26489e-06
-2.07837e-06
4.55525e-06
-2.5044e-06
3.75616e-06
-2.99216e-06
2.8814e-06
-3.54507e-06
1.94843e-06
-4.17103e-06
9.87565e-07
-4.8799e-06
4.12736e-08
-5.67348e-06
-6.46252e-07
-6.44694e-06
-7.73614e-07
-6.65161e-06
-4.01974e-07
-5.4347e-06
-2.3613e-06
-1.2617e-08
2.99186e-07
8.65357e-08
1.0838e-06
4.38118e-07
2.1705e-06
1.06682e-06
3.46992e-06
1.93189e-06
4.63025e-06
2.95192e-06
5.32546e-06
4.00646e-06
5.45544e-06
4.98616e-06
5.093e-06
5.82713e-06
4.40663e-06
6.51508e-06
3.59069e-06
7.06936e-06
2.80508e-06
7.51922e-06
2.13564e-06
7.8828e-06
1.58643e-06
8.15563e-06
1.10531e-06
8.31163e-06
6.29784e-07
8.31662e-06
1.3085e-07
8.17389e-06
-3.16785e-07
7.93767e-06
-5.89041e-07
7.62596e-06
-7.97468e-07
7.2387e-06
-1.00462e-06
6.76802e-06
-1.23912e-06
6.2042e-06
-1.51455e-06
5.53924e-06
-1.83945e-06
4.76967e-06
-2.22259e-06
3.8998e-06
-2.6752e-06
2.9425e-06
-3.21373e-06
1.92193e-06
-3.85932e-06
8.81568e-07
-4.63312e-06
-6.12465e-08
-5.50413e-06
-5.64611e-07
-6.14825e-06
-4.17612e-07
-5.5817e-06
-2.77891e-06
-1.38414e-07
4.37601e-07
-2.33415e-07
1.1788e-06
-2.31534e-08
1.96024e-06
5.58681e-07
2.88809e-06
1.45597e-06
3.73296e-06
2.56764e-06
4.21379e-06
3.74101e-06
4.28207e-06
4.84687e-06
3.98715e-06
5.80734e-06
3.44616e-06
6.59707e-06
2.80095e-06
7.22904e-06
2.17311e-06
7.73257e-06
1.63212e-06
8.13173e-06
1.18727e-06
8.43174e-06
8.05303e-07
8.61762e-06
4.439e-07
8.66551e-06
8.29624e-08
8.57463e-06
-2.25906e-07
8.39078e-06
-4.05187e-07
8.13419e-06
-5.40876e-07
7.80688e-06
-6.77309e-07
7.40238e-06
-8.34617e-07
6.91063e-06
-1.0228e-06
6.32055e-06
-1.24938e-06
5.62194e-06
-1.52397e-06
4.80791e-06
-1.86117e-06
3.87777e-06
-2.2836e-06
2.84203e-06
-2.82358e-06
1.73098e-06
-3.52206e-06
6.2586e-07
-4.39901e-06
-2.19561e-07
-5.30283e-06
-3.81316e-07
-5.41994e-06
-3.16022e-06
-3.15061e-07
7.52662e-07
-5.84397e-07
1.44813e-06
-4.67238e-07
1.84308e-06
1.26199e-07
2.29465e-06
1.09082e-06
2.76834e-06
2.27534e-06
3.02927e-06
3.51857e-06
3.03884e-06
4.69431e-06
2.81141e-06
5.72593e-06
2.41453e-06
6.58514e-06
1.94174e-06
7.27937e-06
1.47888e-06
7.83262e-06
1.07886e-06
8.26658e-06
7.53315e-07
8.58861e-06
4.83275e-07
8.79065e-06
2.41862e-07
8.85814e-06
1.54678e-08
8.79504e-06
-1.62809e-07
8.64735e-06
-2.57498e-07
8.43705e-06
-3.30572e-07
8.16742e-06
-4.07678e-07
7.83308e-06
-5.00277e-07
7.42437e-06
-6.14093e-07
6.92909e-06
-7.54098e-07
6.33303e-06
-9.27904e-07
5.62051e-06
-1.14866e-06
4.77591e-06
-1.43899e-06
3.78829e-06
-1.83597e-06
2.6624e-06
-2.39617e-06
1.44834e-06
-3.18495e-06
3.21535e-07
-4.17602e-06
-2.47747e-07
-4.85066e-06
-3.40797e-06
-4.93454e-07
1.24612e-06
-7.63114e-07
1.71779e-06
-5.37244e-07
1.61721e-06
1.38538e-07
1.61887e-06
1.16891e-06
1.73797e-06
2.38154e-06
1.81664e-06
3.63919e-06
1.78119e-06
4.83048e-06
1.62012e-06
5.88275e-06
1.36226e-06
6.76299e-06
1.0615e-06
7.46961e-06
7.72266e-07
8.0189e-06
5.2957e-07
8.4306e-06
3.41618e-07
8.71753e-06
1.9634e-07
8.88367e-06
7.57264e-08
8.9276e-06
-2.84657e-08
8.86508e-06
-1.0029e-07
8.74173e-06
-1.3415e-07
8.57427e-06
-1.63107e-07
8.36403e-06
-1.9744e-07
8.10537e-06
-2.4162e-07
7.78915e-06
-2.97867e-07
7.40363e-06
-3.68581e-07
6.93396e-06
-4.58231e-07
6.36077e-06
-5.75471e-07
5.65859e-06
-7.3682e-07
4.79581e-06
-9.73183e-07
3.73952e-06
-1.33988e-06
2.47928e-06
-1.92471e-06
1.11849e-06
-2.81523e-06
8.65266e-08
-3.81869e-06
-3.32144e-06
-4.4015e-07
1.68627e-06
-1.30189e-07
1.40783e-06
5.39226e-07
9.47791e-07
1.36684e-06
7.91261e-07
2.36998e-06
7.34824e-07
3.49001e-06
6.96605e-07
4.62821e-06
6.42998e-07
5.6923e-06
5.5603e-07
6.61458e-06
4.3997e-07
7.3604e-06
3.1569e-07
7.92705e-06
2.05614e-07
8.33425e-06
1.22369e-07
8.61007e-06
6.57939e-08
8.77879e-06
2.76193e-08
8.85572e-06
-1.2034e-09
8.85136e-06
-2.41042e-08
8.78769e-06
-3.66226e-08
8.69479e-06
-4.12484e-08
8.57898e-06
-4.72986e-08
8.43805e-06
-5.65111e-08
8.266e-06
-6.95723e-08
8.055e-06
-8.68601e-08
7.79549e-06
-1.09072e-07
7.47509e-06
-1.37828e-07
7.07623e-06
-1.76609e-07
6.57219e-06
-2.32789e-07
5.92128e-06
-3.22267e-07
5.05992e-06
-4.78521e-07
3.90155e-06
-7.66344e-07
2.38037e-06
-1.29405e-06
7.29905e-07
-2.16823e-06
-2.59154e-06
1.68627e-06
3.0941e-06
4.04189e-06
4.83315e-06
5.56797e-06
6.26458e-06
6.90757e-06
7.4636e-06
7.90357e-06
8.21926e-06
8.42488e-06
8.54725e-06
8.61304e-06
8.64066e-06
8.63946e-06
8.61535e-06
8.57873e-06
8.53748e-06
8.49018e-06
8.43367e-06
8.3641e-06
8.27724e-06
8.16817e-06
8.03034e-06
7.85373e-06
7.62094e-06
7.29867e-06
6.82015e-06
6.05381e-06
4.75976e-06
2.59154e-06
)
;

boundaryField
{
    movingWall
    {
        type            calculated;
        value           uniform 0;
    }
    fixedWalls
    {
        type            calculated;
        value           uniform 0;
    }
    floor
    {
        type            calculated;
        value           uniform 0;
    }
    frontAndBack
    {
        type            empty;
        value           nonuniform List<scalar> 0();
    }
}


// ************************************************************************* //
