/*--------------------------------*- C++ -*----------------------------------*\
| =========                 |                                                 |
| \\      /  F ield         | OpenFOAM: The Open Source CFD Toolbox           |
|  \\    /   O peration     | Version:  2212                                  |
|   \\  /    A nd           | Website:  www.openfoam.com                      |
|    \\/     M anipulation  |                                                 |
\*---------------------------------------------------------------------------*/
FoamFile
{
    version     2.0;
    format      ascii;
    arch        "LSB;label=64;scalar=64";
    class       volScalarField;
    location    "270";
    object      Saa;
}
// * * * * * * * * * * * * * * * * * * * * * * * * * * * * * * * * * * * * * //

dimensions      [1 -3 0 0 0 0 0];

internalField   nonuniform List<scalar> 
1024
(
0.00548892
0.00548893
0.00548895
0.00548899
0.00548905
0.00548913
0.00548921
0.00548929
0.00548936
0.00548943
0.00548949
0.00548952
0.00548953
0.00548951
0.00548946
0.00548938
0.00548927
0.00548914
0.005489
0.00548887
0.00548874
0.00548861
0.00548848
0.00548836
0.00548825
0.00548814
0.00548804
0.00548797
0.00548791
0.00548787
0.00548785
0.00548784
0.00548892
0.00548893
0.00548896
0.005489
0.00548906
0.00548914
0.00548922
0.0054893
0.00548938
0.00548945
0.0054895
0.00548954
0.00548955
0.00548953
0.00548948
0.0054894
0.00548928
0.00548915
0.00548902
0.00548888
0.00548875
0.00548862
0.0054885
0.00548838
0.00548826
0.00548815
0.00548805
0.00548797
0.00548791
0.00548788
0.00548785
0.00548784
0.00548893
0.00548894
0.00548897
0.00548901
0.00548908
0.00548916
0.00548924
0.00548933
0.00548941
0.00548949
0.00548955
0.00548958
0.00548959
0.00548957
0.00548952
0.00548944
0.00548932
0.00548918
0.00548905
0.00548891
0.00548878
0.00548865
0.00548852
0.0054884
0.00548829
0.00548817
0.00548807
0.00548799
0.00548793
0.00548788
0.00548786
0.00548785
0.00548893
0.00548895
0.00548898
0.00548903
0.0054891
0.00548918
0.00548928
0.00548937
0.00548947
0.00548955
0.00548962
0.00548967
0.00548967
0.00548965
0.00548959
0.0054895
0.00548937
0.00548923
0.00548909
0.00548895
0.00548882
0.00548869
0.00548856
0.00548844
0.00548832
0.00548821
0.0054881
0.00548801
0.00548794
0.0054879
0.00548787
0.00548786
0.00548894
0.00548896
0.00548899
0.00548904
0.00548912
0.00548921
0.00548932
0.00548943
0.00548955
0.00548966
0.00548974
0.00548979
0.0054898
0.00548976
0.0054897
0.00548959
0.00548945
0.0054893
0.00548914
0.005489
0.00548886
0.00548873
0.0054886
0.00548848
0.00548836
0.00548825
0.00548814
0.00548804
0.00548797
0.00548792
0.00548789
0.00548788
0.00548895
0.00548897
0.005489
0.00548906
0.00548914
0.00548925
0.00548937
0.00548951
0.00548965
0.00548979
0.00548991
0.00548997
0.00548998
0.00548993
0.00548985
0.00548972
0.00548956
0.00548937
0.0054892
0.00548904
0.0054889
0.00548876
0.00548864
0.00548852
0.0054884
0.00548829
0.00548818
0.00548807
0.00548799
0.00548794
0.00548791
0.00548789
0.00548896
0.00548898
0.00548901
0.00548907
0.00548916
0.00548928
0.00548943
0.0054896
0.00548979
0.00548997
0.00549012
0.0054902
0.00549021
0.00549015
0.00549004
0.00548989
0.00548968
0.00548946
0.00548926
0.00548908
0.00548893
0.00548879
0.00548866
0.00548855
0.00548843
0.00548832
0.00548821
0.0054881
0.00548802
0.00548796
0.00548792
0.00548791
0.00548897
0.00548899
0.00548902
0.00548909
0.00548918
0.00548932
0.0054895
0.00548971
0.00548994
0.00549018
0.00549037
0.00549048
0.00549049
0.00549042
0.00549029
0.00549009
0.00548983
0.00548955
0.00548931
0.0054891
0.00548893
0.00548879
0.00548866
0.00548855
0.00548844
0.00548833
0.00548822
0.00548812
0.00548804
0.00548797
0.00548794
0.00548793
0.00548898
0.005489
0.00548903
0.0054891
0.00548921
0.00548936
0.00548957
0.00548983
0.00549012
0.00549042
0.00549067
0.00549081
0.00549083
0.00549074
0.00549057
0.00549031
0.00548997
0.00548961
0.00548931
0.00548908
0.0054889
0.00548875
0.00548863
0.00548853
0.00548843
0.00548832
0.00548822
0.00548812
0.00548804
0.00548798
0.00548795
0.00548794
0.00548899
0.00548901
0.00548905
0.00548912
0.00548924
0.00548941
0.00548966
0.00548997
0.00549034
0.00549071
0.00549101
0.00549118
0.00549121
0.0054911
0.00549088
0.00549053
0.00549006
0.0054896
0.00548924
0.00548898
0.0054888
0.00548866
0.00548855
0.00548846
0.00548838
0.00548829
0.0054882
0.00548811
0.00548804
0.00548798
0.00548795
0.00548794
0.00548901
0.00548903
0.00548906
0.00548914
0.00548927
0.00548947
0.00548976
0.00549014
0.00549059
0.00549104
0.00549141
0.00549161
0.00549162
0.00549148
0.00549118
0.0054907
0.00549005
0.00548944
0.00548903
0.00548877
0.0054886
0.0054885
0.00548842
0.00548835
0.00548829
0.00548822
0.00548815
0.00548807
0.00548801
0.00548797
0.00548794
0.00548793
0.00548903
0.00548905
0.00548909
0.00548917
0.00548932
0.00548955
0.0054899
0.00549036
0.00549091
0.00549145
0.00549187
0.00549208
0.00549207
0.00549186
0.00549145
0.00549078
0.00548991
0.00548913
0.00548866
0.00548842
0.00548831
0.00548825
0.00548821
0.00548819
0.00548816
0.00548812
0.00548807
0.00548802
0.00548797
0.00548794
0.00548791
0.0054879
0.00548907
0.00548909
0.00548913
0.00548923
0.0054894
0.00548967
0.00549009
0.00549066
0.00549131
0.00549193
0.00549239
0.0054926
0.00549254
0.00549225
0.00549169
0.00549082
0.00548971
0.00548876
0.00548822
0.00548801
0.00548796
0.00548796
0.00548798
0.005488
0.005488
0.00548799
0.00548796
0.00548793
0.0054879
0.00548788
0.00548786
0.00548785
0.00548914
0.00548915
0.00548921
0.00548932
0.00548952
0.00548986
0.00549037
0.00549105
0.00549181
0.00549251
0.00549297
0.00549315
0.00549303
0.00549266
0.00549201
0.00549103
0.00548979
0.00548867
0.00548802
0.00548775
0.00548769
0.00548773
0.00548779
0.00548785
0.00548789
0.00548791
0.0054879
0.00548787
0.00548784
0.00548781
0.00548778
0.00548777
0.00548925
0.00548927
0.00548934
0.00548947
0.00548973
0.00549015
0.00549077
0.00549157
0.00549242
0.00549315
0.00549359
0.00549372
0.00549357
0.00549321
0.00549263
0.00549179
0.00549064
0.00548944
0.00548853
0.00548798
0.00548768
0.00548755
0.00548751
0.00548751
0.00548752
0.00548753
0.00548753
0.00548754
0.00548755
0.00548757
0.00548759
0.0054876
0.00548943
0.00548946
0.00548954
0.00548972
0.00549003
0.00549055
0.00549128
0.00549217
0.00549307
0.00549379
0.00549418
0.00549427
0.00549416
0.00549394
0.00549365
0.00549327
0.00549265
0.00549175
0.00549081
0.00548999
0.00548933
0.00548882
0.00548845
0.0054882
0.00548807
0.00548804
0.00548811
0.00548824
0.00548842
0.0054886
0.00548873
0.0054888
0.00548969
0.00548972
0.00548982
0.00549003
0.00549039
0.00549096
0.00549173
0.00549263
0.0054935
0.00549416
0.00549452
0.00549458
0.00549447
0.0054943
0.00549422
0.00549432
0.00549458
0.00549473
0.00549465
0.00549441
0.00549409
0.00549374
0.00549341
0.00549312
0.0054929
0.00549276
0.0054927
0.00549272
0.0054928
0.0054929
0.00549298
0.00549303
0.00548993
0.00548996
0.00549006
0.00549028
0.00549064
0.00549119
0.00549192
0.00549274
0.00549354
0.00549417
0.00549453
0.00549459
0.00549441
0.00549409
0.00549378
0.0054937
0.00549405
0.00549476
0.00549549
0.0054961
0.00549656
0.00549688
0.00549707
0.00549717
0.00549718
0.00549714
0.00549705
0.00549694
0.00549684
0.00549676
0.00549672
0.0054967
0.0054901
0.00549014
0.00549024
0.00549044
0.00549078
0.00549128
0.00549194
0.0054927
0.00549344
0.00549405
0.00549444
0.00549455
0.00549439
0.00549402
0.00549356
0.00549318
0.00549318
0.00549365
0.00549441
0.00549524
0.00549603
0.00549672
0.00549729
0.00549773
0.00549804
0.00549824
0.00549833
0.00549835
0.00549832
0.00549827
0.00549822
0.0054982
0.00549022
0.00549025
0.00549034
0.00549052
0.00549083
0.00549128
0.00549187
0.00549254
0.00549322
0.00549381
0.00549422
0.0054944
0.00549432
0.00549402
0.00549356
0.00549307
0.00549282
0.005493
0.00549353
0.00549428
0.00549512
0.00549595
0.00549672
0.00549736
0.00549788
0.00549825
0.0054985
0.00549865
0.00549871
0.00549873
0.00549873
0.00549872
0.00549028
0.00549031
0.00549039
0.00549055
0.00549081
0.00549119
0.0054917
0.00549229
0.00549289
0.00549344
0.00549384
0.00549407
0.00549408
0.00549389
0.00549353
0.0054931
0.0054928
0.00549281
0.00549316
0.00549376
0.00549452
0.00549536
0.0054962
0.00549698
0.00549764
0.00549816
0.00549853
0.00549876
0.00549889
0.00549895
0.00549897
0.00549897
0.00549029
0.00549032
0.00549039
0.00549052
0.00549074
0.00549106
0.00549148
0.00549197
0.00549248
0.00549296
0.00549333
0.00549357
0.00549366
0.00549359
0.00549338
0.0054931
0.0054929
0.00549291
0.00549316
0.00549364
0.00549429
0.00549506
0.00549588
0.00549669
0.00549743
0.00549805
0.00549851
0.00549883
0.00549902
0.00549911
0.00549914
0.00549915
0.00549027
0.00549029
0.00549035
0.00549047
0.00549065
0.00549091
0.00549124
0.00549163
0.00549205
0.00549243
0.00549276
0.005493
0.00549315
0.0054932
0.00549317
0.0054931
0.00549307
0.00549316
0.00549341
0.00549382
0.00549437
0.00549504
0.00549579
0.00549656
0.00549731
0.00549797
0.0054985
0.00549888
0.00549911
0.00549924
0.00549929
0.0054993
0.00549024
0.00549026
0.00549031
0.0054904
0.00549054
0.00549075
0.00549101
0.00549131
0.00549163
0.00549194
0.00549223
0.00549248
0.00549271
0.00549289
0.00549305
0.00549319
0.00549335
0.00549356
0.00549383
0.00549421
0.00549468
0.00549526
0.0054959
0.0054966
0.0054973
0.00549795
0.0054985
0.00549892
0.0054992
0.00549935
0.00549941
0.00549943
0.0054903
0.0054903
0.00549031
0.00549036
0.00549045
0.0054906
0.0054908
0.00549104
0.0054913
0.00549157
0.00549185
0.00549216
0.00549247
0.0054928
0.00549313
0.00549346
0.00549378
0.00549409
0.0054944
0.00549475
0.00549516
0.00549564
0.00549619
0.00549678
0.0054974
0.00549801
0.00549854
0.00549897
0.00549927
0.00549945
0.00549952
0.00549954
0.00549053
0.0054905
0.00549045
0.00549043
0.00549046
0.00549054
0.00549069
0.00549089
0.00549113
0.00549142
0.00549177
0.00549216
0.00549259
0.00549304
0.0054935
0.00549397
0.00549439
0.00549476
0.00549508
0.00549541
0.00549576
0.00549616
0.0054966
0.00549709
0.00549761
0.00549813
0.00549863
0.00549904
0.00549935
0.00549953
0.00549962
0.00549965
0.00549105
0.00549098
0.00549086
0.00549075
0.00549069
0.00549071
0.00549083
0.00549103
0.00549131
0.00549167
0.00549211
0.00549259
0.00549311
0.00549365
0.00549418
0.0054947
0.00549517
0.00549554
0.00549586
0.00549615
0.00549644
0.00549675
0.0054971
0.00549748
0.00549789
0.00549833
0.00549875
0.00549913
0.00549942
0.00549961
0.0054997
0.00549973
0.0054919
0.0054918
0.00549163
0.00549146
0.00549135
0.00549134
0.00549145
0.00549168
0.00549203
0.00549246
0.00549295
0.00549349
0.00549404
0.00549459
0.00549512
0.00549562
0.00549606
0.0054964
0.00549668
0.00549692
0.00549715
0.00549739
0.00549765
0.00549793
0.00549824
0.00549858
0.00549892
0.00549924
0.0054995
0.00549968
0.00549978
0.00549981
0.00549309
0.00549298
0.00549284
0.00549269
0.00549259
0.00549259
0.00549272
0.00549298
0.00549333
0.00549377
0.00549426
0.00549477
0.00549527
0.00549576
0.00549621
0.00549664
0.005497
0.00549728
0.0054975
0.00549769
0.00549786
0.00549803
0.00549822
0.00549842
0.00549863
0.00549887
0.00549913
0.00549937
0.00549959
0.00549975
0.00549984
0.00549987
0.00549461
0.00549455
0.00549451
0.00549446
0.00549443
0.00549446
0.00549459
0.00549481
0.00549511
0.00549548
0.00549587
0.00549627
0.00549666
0.00549702
0.00549736
0.00549767
0.00549794
0.00549814
0.0054983
0.00549842
0.00549854
0.00549866
0.00549877
0.0054989
0.00549904
0.0054992
0.00549936
0.00549953
0.00549969
0.00549981
0.00549989
0.00549992
0.00549649
0.00549651
0.00549658
0.00549662
0.00549664
0.00549668
0.00549677
0.00549691
0.00549711
0.00549734
0.00549758
0.00549783
0.00549806
0.00549828
0.00549848
0.00549867
0.00549882
0.00549894
0.00549903
0.00549911
0.00549917
0.00549924
0.0054993
0.00549937
0.00549944
0.00549953
0.00549962
0.00549972
0.00549981
0.00549989
0.00549994
0.00549996
0.00549877
0.0054988
0.00549885
0.00549888
0.0054989
0.00549892
0.00549895
0.005499
0.00549906
0.00549914
0.00549922
0.0054993
0.00549938
0.00549945
0.00549952
0.00549958
0.00549963
0.00549966
0.00549969
0.00549972
0.00549974
0.00549976
0.00549978
0.0054998
0.00549982
0.00549985
0.00549988
0.00549991
0.00549994
0.00549996
0.00549998
0.00549999
)
;

boundaryField
{
    movingWall
    {
        type            fixedValue;
        value           uniform 0.0055;
    }
    fixedWalls
    {
        type            zeroGradient;
    }
    floor
    {
        type            zeroGradient;
    }
    frontAndBack
    {
        type            empty;
    }
}


// ************************************************************************* //
