/*--------------------------------*- C++ -*----------------------------------*\
| =========                 |                                                 |
| \\      /  F ield         | OpenFOAM: The Open Source CFD Toolbox           |
|  \\    /   O peration     | Version:  2212                                  |
|   \\  /    A nd           | Website:  www.openfoam.com                      |
|    \\/     M anipulation  |                                                 |
\*---------------------------------------------------------------------------*/
FoamFile
{
    version     2.0;
    format      ascii;
    arch        "LSB;label=64;scalar=64";
    class       volScalarField;
    location    "270";
    object      SIC;
}
// * * * * * * * * * * * * * * * * * * * * * * * * * * * * * * * * * * * * * //

dimensions      [1 -3 0 0 0 0 0];

internalField   nonuniform List<scalar> 
1024
(
0.0920797
0.0920816
0.0920863
0.0920941
0.0921053
0.0921191
0.0921346
0.0921504
0.0921655
0.0921792
0.0921907
0.0921986
0.0922022
0.0922009
0.0921944
0.0921821
0.0921639
0.092142
0.0921189
0.0920955
0.0920723
0.0920496
0.0920273
0.0920056
0.0919846
0.0919651
0.0919481
0.0919344
0.0919243
0.0919177
0.0919139
0.0919124
0.0920801
0.0920822
0.092087
0.0920953
0.0921069
0.0921212
0.0921369
0.092153
0.0921685
0.0921825
0.0921942
0.0922023
0.0922058
0.0922044
0.0921978
0.0921854
0.092167
0.092145
0.0921219
0.0920983
0.092075
0.0920522
0.0920298
0.092008
0.0919869
0.0919671
0.0919498
0.0919357
0.0919253
0.0919184
0.0919145
0.0919129
0.092081
0.0920832
0.0920885
0.0920974
0.0921098
0.0921249
0.0921415
0.0921585
0.092175
0.0921901
0.0922027
0.0922112
0.0922145
0.0922128
0.0922057
0.0921929
0.092174
0.0921515
0.0921278
0.0921039
0.0920803
0.0920573
0.0920349
0.0920129
0.0919916
0.0919714
0.0919534
0.0919386
0.0919274
0.09192
0.0919158
0.0919141
0.0920823
0.0920847
0.0920904
0.0921001
0.0921135
0.0921299
0.0921481
0.092167
0.0921857
0.0922033
0.0922179
0.0922273
0.0922304
0.0922279
0.0922198
0.0922057
0.0921855
0.0921616
0.0921367
0.092112
0.0920879
0.0920646
0.092042
0.09202
0.0919984
0.0919778
0.0919589
0.091943
0.0919308
0.0919226
0.091918
0.0919161
0.0920839
0.0920864
0.0920926
0.092103
0.0921177
0.0921358
0.0921565
0.0921786
0.0922013
0.0922229
0.0922411
0.0922523
0.0922554
0.0922517
0.0922418
0.0922254
0.0922025
0.0921756
0.0921484
0.092122
0.0920969
0.0920731
0.0920503
0.0920282
0.0920066
0.0919855
0.0919658
0.0919486
0.0919353
0.0919261
0.0919209
0.0919188
0.0920857
0.0920883
0.0920947
0.0921059
0.0921219
0.0921424
0.0921665
0.0921934
0.0922219
0.0922497
0.0922731
0.0922874
0.092291
0.0922858
0.0922732
0.0922531
0.0922255
0.0921938
0.0921625
0.0921333
0.0921064
0.0920816
0.0920585
0.0920364
0.0920148
0.0919934
0.091973
0.0919548
0.0919402
0.0919301
0.0919244
0.091922
0.0920876
0.0920903
0.0920969
0.0921087
0.0921262
0.0921494
0.0921779
0.0922111
0.0922474
0.0922836
0.0923141
0.0923328
0.0923377
0.092331
0.092315
0.0922897
0.092255
0.0922155
0.0921781
0.0921445
0.092115
0.0920888
0.092065
0.0920429
0.0920214
0.0920001
0.0919793
0.0919604
0.091945
0.0919342
0.091928
0.0919255
0.0920896
0.0920922
0.092099
0.0921114
0.0921305
0.0921568
0.0921907
0.0922316
0.0922776
0.0923243
0.0923637
0.0923883
0.0923953
0.0923873
0.0923671
0.0923347
0.0922895
0.0922388
0.0921927
0.0921534
0.0921205
0.0920925
0.0920682
0.0920461
0.092025
0.092004
0.0919834
0.0919643
0.0919486
0.0919376
0.0919312
0.0919286
0.0920917
0.0920944
0.0921013
0.0921143
0.092135
0.0921649
0.0922049
0.0922549
0.0923127
0.0923717
0.0924218
0.0924533
0.092463
0.0924535
0.0924279
0.0923855
0.0923249
0.0922584
0.0922013
0.0921556
0.0921195
0.0920903
0.0920659
0.0920443
0.0920241
0.092004
0.0919842
0.0919658
0.0919505
0.0919397
0.0919335
0.0919309
0.0920941
0.0920969
0.092104
0.0921176
0.0921402
0.0921741
0.0922212
0.0922821
0.0923536
0.0924271
0.0924891
0.092528
0.0925402
0.092528
0.0924945
0.0924367
0.0923529
0.0922648
0.0921951
0.092144
0.0921066
0.0920781
0.0920552
0.0920356
0.0920173
0.0919992
0.091981
0.0919641
0.0919501
0.0919402
0.0919343
0.0919319
0.0920973
0.0921001
0.0921075
0.092122
0.0921469
0.0921856
0.0922412
0.092315
0.0924028
0.0924926
0.0925672
0.092613
0.0926259
0.0926085
0.092562
0.0924799
0.0923619
0.0922451
0.0921625
0.0921097
0.0920752
0.0920513
0.0920332
0.0920179
0.0920034
0.0919885
0.0919733
0.091959
0.091947
0.0919384
0.0919332
0.0919309
0.0921018
0.0921047
0.0921126
0.0921284
0.0921563
0.0922011
0.0922675
0.0923571
0.0924638
0.0925712
0.0926579
0.0927085
0.092719
0.0926918
0.092625
0.0925078
0.0923443
0.0921923
0.0920972
0.0920478
0.0920221
0.0920077
0.0919981
0.09199
0.0919815
0.0919717
0.0919608
0.09195
0.0919406
0.0919336
0.0919291
0.0919269
0.092109
0.0921121
0.0921208
0.0921386
0.0921708
0.092224
0.0923042
0.0924131
0.0925409
0.0926657
0.0927619
0.0928133
0.0928173
0.0927758
0.0926837
0.0925269
0.0923158
0.0921261
0.0920167
0.0919711
0.0919564
0.0919537
0.0919543
0.0919542
0.091952
0.0919475
0.0919414
0.0919349
0.0919289
0.091924
0.0919203
0.0919184
0.0921212
0.0921247
0.0921347
0.0921559
0.0921947
0.0922595
0.0923576
0.0924888
0.092638
0.0927772
0.0928777
0.092925
0.0929199
0.0928659
0.0927569
0.0925782
0.0923389
0.0921154
0.0919791
0.0919202
0.0919045
0.0919078
0.0919174
0.0919265
0.091932
0.0919331
0.0919302
0.0919246
0.0919179
0.0919115
0.0919066
0.091904
0.0921427
0.0921469
0.0921592
0.0921854
0.0922339
0.0923142
0.0924335
0.0925877
0.0927548
0.0929015
0.0929994
0.0930398
0.0930307
0.0929809
0.0928884
0.0927378
0.0925186
0.0922763
0.0920887
0.0919703
0.0919042
0.0918727
0.0918604
0.0918577
0.0918584
0.0918593
0.0918599
0.0918612
0.0918644
0.0918696
0.0918751
0.0918787
0.0921772
0.0921824
0.0921979
0.0922311
0.0922917
0.0923894
0.0925292
0.0927014
0.0928782
0.0930232
0.0931122
0.0931465
0.0931442
0.093123
0.0930908
0.0930383
0.0929332
0.0927605
0.0925697
0.0923988
0.0922574
0.0921472
0.0920669
0.0920131
0.0919842
0.0919779
0.0919914
0.0920205
0.0920586
0.0920967
0.0921262
0.0921413
0.0922254
0.0922316
0.0922501
0.0922892
0.0923584
0.0924658
0.092612
0.0927834
0.0929522
0.0930854
0.0931631
0.0931892
0.093184
0.0931732
0.0931832
0.093236
0.0933227
0.093382
0.0933825
0.0933433
0.0932815
0.0932103
0.0931411
0.0930791
0.09303
0.0929969
0.0929821
0.0929846
0.0929996
0.0930196
0.0930366
0.0930458
0.0922691
0.0922757
0.0922948
0.0923345
0.0924032
0.0925064
0.0926421
0.0927974
0.0929495
0.0930719
0.0931449
0.0931635
0.0931382
0.0930903
0.0930521
0.0930689
0.0931839
0.0933722
0.093561
0.0937195
0.0938403
0.0939251
0.0939786
0.094006
0.0940121
0.094001
0.0939781
0.0939496
0.0939215
0.0938997
0.0938867
0.0938816
0.0923008
0.0923073
0.0923256
0.0923629
0.0924264
0.0925207
0.0926432
0.0927829
0.0929212
0.0930364
0.0931101
0.0931328
0.0931066
0.0930437
0.0929679
0.0929199
0.0929587
0.0931026
0.0933037
0.0935198
0.0937259
0.0939085
0.0940606
0.094179
0.094263
0.094314
0.0943358
0.0943351
0.094321
0.094303
0.0942887
0.0942817
0.0923208
0.092327
0.0923438
0.0923772
0.0924335
0.0925167
0.0926249
0.0927488
0.0928733
0.0929811
0.0930562
0.0930882
0.0930744
0.0930201
0.0929407
0.0928665
0.0928509
0.0929306
0.0930861
0.0932875
0.0935091
0.0937307
0.0939365
0.0941146
0.0942574
0.0943618
0.094429
0.0944643
0.0944761
0.094474
0.0944672
0.0944624
0.0923305
0.0923363
0.0923513
0.0923803
0.0924284
0.0924991
0.0925915
0.0926984
0.0928076
0.0929052
0.0929783
0.0930177
0.0930192
0.0929845
0.0929235
0.092858
0.0928298
0.0928743
0.0929883
0.0931564
0.0933615
0.0935865
0.0938145
0.0940289
0.0942149
0.0943624
0.0944673
0.0945325
0.0945652
0.0945758
0.0945751
0.0945721
0.0923314
0.0923369
0.0923502
0.0923749
0.0924149
0.0924732
0.0925491
0.0926376
0.0927293
0.0928132
0.0928801
0.092923
0.0929387
0.0929279
0.0928973
0.0928629
0.0928534
0.0928939
0.0929869
0.0931273
0.0933068
0.0935149
0.0937388
0.0939634
0.0941724
0.0943501
0.0944863
0.0945782
0.0946307
0.0946533
0.0946582
0.0946567
0.0923267
0.0923315
0.0923429
0.0923637
0.0923965
0.0924433
0.0925039
0.0925742
0.0926476
0.0927164
0.092775
0.0928201
0.0928505
0.0928671
0.0928744
0.0928833
0.0929097
0.0929656
0.0930545
0.0931777
0.0933336
0.0935176
0.0937225
0.0939379
0.0941498
0.0943418
0.094499
0.0946127
0.0946831
0.0947176
0.0947283
0.0947284
0.092325
0.0923276
0.0923353
0.0923507
0.0923763
0.0924131
0.0924603
0.0925148
0.0925722
0.0926287
0.0926827
0.0927344
0.0927843
0.0928329
0.0928824
0.0929382
0.0930048
0.093083
0.0931758
0.0932889
0.093425
0.0935842
0.0937637
0.0939579
0.0941572
0.0943478
0.0945139
0.0946422
0.0947273
0.0947728
0.0947894
0.0947911
0.0923453
0.0923429
0.0923418
0.0923469
0.0923619
0.0923879
0.0924235
0.0924664
0.0925145
0.0925679
0.092628
0.0926967
0.0927739
0.0928584
0.0929491
0.0930472
0.0931482
0.0932456
0.0933427
0.0934477
0.0935662
0.0937011
0.0938532
0.0940204
0.0941974
0.0943742
0.094537
0.0946711
0.0947662
0.0948209
0.0948432
0.0948468
0.0924153
0.0924045
0.0923879
0.0923745
0.0923723
0.0923845
0.0924104
0.0924488
0.0924995
0.0925644
0.0926451
0.0927415
0.0928508
0.0929691
0.0930931
0.0932211
0.0933437
0.0934511
0.0935478
0.0936435
0.0937448
0.0938564
0.0939808
0.0941185
0.0942678
0.0944226
0.0945723
0.094703
0.094802
0.0948634
0.0948908
0.0948964
0.0925619
0.0925406
0.0925053
0.0924687
0.0924451
0.0924428
0.092464
0.0925079
0.0925744
0.0926632
0.0927726
0.0928983
0.0930344
0.0931754
0.0933172
0.0934574
0.0935857
0.093692
0.0937819
0.0938653
0.0939493
0.0940386
0.0941364
0.0942448
0.0943642
0.094492
0.0946214
0.0947407
0.0948371
0.0949013
0.0949327
0.0949403
0.0928006
0.0927709
0.0927232
0.0926719
0.0926346
0.0926254
0.0926494
0.0927058
0.0927922
0.0929038
0.0930345
0.0931766
0.0933228
0.0934676
0.093608
0.0937422
0.0938609
0.0939561
0.0940333
0.094102
0.0941683
0.0942367
0.0943103
0.0943914
0.0944815
0.0945804
0.0946846
0.0947861
0.0948735
0.0949361
0.0949696
0.094979
0.0931347
0.0931043
0.0930631
0.0930199
0.0929881
0.0929841
0.0930146
0.0930795
0.093174
0.0932908
0.0934213
0.0935571
0.0936914
0.0938201
0.0939414
0.0940545
0.0941525
0.0942293
0.09429
0.0943424
0.0943915
0.0944409
0.0944932
0.0945502
0.0946137
0.0946845
0.0947617
0.0948407
0.0949133
0.0949693
0.0950021
0.0950128
0.0935636
0.0935458
0.0935336
0.0935199
0.0935086
0.0935146
0.0935463
0.0936051
0.093687
0.093785
0.0938912
0.0939988
0.0941027
0.0942001
0.0942903
0.0943731
0.0944439
0.0944986
0.0945412
0.0945772
0.0946103
0.0946428
0.0946768
0.0947134
0.0947541
0.0947998
0.0948508
0.0949054
0.0949585
0.0950028
0.0950313
0.0950419
0.0940953
0.0941021
0.0941211
0.0941321
0.0941371
0.0941471
0.0941701
0.0942087
0.0942612
0.0943231
0.0943895
0.0944558
0.094519
0.0945777
0.0946315
0.0946805
0.094722
0.0947539
0.0947784
0.094799
0.0948175
0.0948356
0.0948542
0.0948741
0.094896
0.0949207
0.0949486
0.0949792
0.0950105
0.0950386
0.0950584
0.0950669
0.0947471
0.0947557
0.0947697
0.0947786
0.0947833
0.094788
0.094796
0.0948089
0.0948264
0.0948471
0.0948691
0.094891
0.0949117
0.0949309
0.0949485
0.0949644
0.0949778
0.0949881
0.094996
0.0950025
0.0950084
0.0950141
0.0950199
0.0950261
0.0950329
0.0950405
0.0950491
0.0950586
0.0950686
0.095078
0.0950852
0.0950887
)
;

boundaryField
{
    movingWall
    {
        type            fixedValue;
        value           uniform 0.0951;
    }
    fixedWalls
    {
        type            zeroGradient;
    }
    floor
    {
        type            zeroGradient;
    }
    frontAndBack
    {
        type            empty;
    }
}


// ************************************************************************* //
