/*--------------------------------*- C++ -*----------------------------------*\
| =========                 |                                                 |
| \\      /  F ield         | OpenFOAM: The Open Source CFD Toolbox           |
|  \\    /   O peration     | Version:  2206                                  |
|   \\  /    A nd           | Website:  www.openfoam.com                      |
|    \\/     M anipulation  |                                                 |
\*---------------------------------------------------------------------------*/
FoamFile
{
    version     2.0;
    format      ascii;
    arch        "LSB;label=64;scalar=64";
    class       surfaceScalarField;
    location    "8";
    object      phi_0;
}
// * * * * * * * * * * * * * * * * * * * * * * * * * * * * * * * * * * * * * //

dimensions      [0 3 -1 0 0 0 0];

oriented        oriented;

internalField   nonuniform List<scalar> 
1984
(
1.13836e-12
-1.14618e-12
-1.03961e-11
1.15341e-11
-4.19681e-11
3.15717e-11
-9.39518e-11
5.19831e-11
-1.6356e-10
6.96074e-11
-2.47729e-10
8.41685e-11
-3.44851e-10
9.71217e-11
-4.54719e-10
1.09867e-10
-5.77451e-10
1.22732e-10
-7.12498e-10
1.35046e-10
-8.57864e-10
1.45365e-10
-1.00928e-09
1.51411e-10
-1.1591e-09
1.49819e-10
-1.29489e-09
1.35795e-10
-1.39792e-09
1.03032e-10
-1.4411e-09
4.31792e-11
-1.40119e-09
-3.99093e-11
-1.30043e-09
-1.00769e-10
-1.16584e-09
-1.34587e-10
-1.01636e-09
-1.49481e-10
-8.64668e-10
-1.51692e-10
-7.18638e-10
-1.46031e-10
-5.82727e-10
-1.35913e-10
-4.59058e-10
-1.2367e-10
-3.48268e-10
-1.10791e-10
-2.50286e-10
-9.79825e-11
-1.6535e-10
-8.49374e-11
-9.50852e-11
-7.02653e-11
-4.25765e-11
-5.25094e-11
-1.06362e-11
-3.1941e-11
1.08921e-12
-1.1726e-11
1.089e-12
-1.15262e-11
1.03798e-11
-6.11814e-11
6.11889e-11
-1.62968e-10
1.33358e-10
-3.20795e-10
2.09809e-10
-5.30479e-10
2.7929e-10
-7.85367e-10
3.39056e-10
-1.08118e-09
3.92937e-10
-1.41685e-09
4.45533e-10
-1.79221e-09
4.98093e-10
-2.20526e-09
5.48093e-10
-2.64971e-09
5.89813e-10
-3.11237e-09
6.14067e-10
-3.56974e-09
6.07195e-10
-3.98385e-09
5.499e-10
-4.29711e-09
4.1629e-10
-4.42742e-09
1.73485e-10
-4.30555e-09
-1.61774e-10
-3.99816e-09
-4.08169e-10
-3.58719e-09
-5.45552e-10
-3.13071e-09
-6.05964e-10
-2.66735e-09
-6.15056e-10
-2.2212e-09
-5.92184e-10
-1.80592e-09
-5.51189e-10
-1.42815e-09
-5.01445e-10
-1.0901e-09
-4.48839e-10
-7.9207e-10
-3.96016e-10
-5.35207e-10
-3.41801e-10
-3.23843e-10
-2.8163e-10
-1.64676e-10
-2.11678e-10
-6.1928e-11
-1.3469e-10
-1.1705e-11
-6.19498e-11
-1.06162e-11
-3.15678e-11
4.19474e-11
-1.33439e-10
1.63059e-10
-3.1926e-10
3.19179e-10
-5.94783e-10
4.85332e-10
-9.5622e-10
6.40726e-10
-1.39548e-09
7.78312e-10
-1.90665e-09
9.04115e-10
-2.48787e-09
1.02675e-09
-3.13839e-09
1.1486e-09
-3.85432e-09
1.26402e-09
-4.62452e-09
1.36002e-09
-5.42596e-09
1.41551e-09
-6.21781e-09
1.39904e-09
-6.9342e-09
1.26629e-09
-7.47523e-09
9.57317e-10
-7.6993e-09
3.97558e-10
-7.48792e-09
-3.73156e-10
-6.95571e-09
-9.40382e-10
-6.24405e-09
-1.25721e-09
-5.45356e-09
-1.39645e-09
-4.65107e-09
-1.41755e-09
-3.87832e-09
-1.36494e-09
-3.15905e-09
-1.27046e-09
-2.50492e-09
-1.15558e-09
-1.92012e-09
-1.03363e-09
-1.40562e-09
-9.10521e-10
-9.63406e-10
-7.84014e-10
-5.99463e-10
-6.45574e-10
-3.2194e-10
-4.89201e-10
-1.34663e-10
-3.21969e-10
-3.18946e-11
-1.64719e-10
-4.2511e-11
-5.21234e-11
9.40704e-11
-2.10589e-10
3.21524e-10
-4.87062e-10
5.95651e-10
-8.86088e-10
8.84357e-10
-1.40324e-09
1.15788e-09
-2.02975e-09
1.40481e-09
-2.75916e-09
1.63353e-09
-3.58939e-09
1.85698e-09
-4.51916e-09
2.07837e-09
-5.54258e-09
2.28745e-09
-6.64347e-09
2.4609e-09
-7.78867e-09
2.56071e-09
-8.91971e-09
2.53008e-09
-9.94238e-09
2.28896e-09
-1.0714e-08
1.72892e-09
-1.10327e-08
7.1631e-10
-1.07301e-08
-6.75798e-10
-9.96967e-09
-1.70081e-09
-8.95301e-09
-2.27388e-09
-7.82369e-09
-2.52577e-09
-6.67715e-09
-2.56409e-09
-5.57303e-09
-2.46906e-09
-4.54537e-09
-2.29813e-09
-3.611e-09
-2.08994e-09
-2.77624e-09
-1.8684e-09
-2.0426e-09
-1.64416e-09
-1.41236e-09
-1.41426e-09
-8.92038e-10
-1.16589e-09
-4.90489e-10
-8.90751e-10
-2.12167e-10
-6.00292e-10
-5.25484e-11
-3.24338e-10
-9.50596e-11
-7.02681e-11
1.64338e-10
-2.82344e-10
5.33599e-10
-6.47826e-10
9.61133e-10
-1.16908e-09
1.40561e-09
-1.83943e-09
1.82823e-09
-2.64871e-09
2.2141e-09
-3.59019e-09
2.57501e-09
-4.66199e-09
2.92878e-09
-5.86262e-09
3.279e-09
-7.18429e-09
3.60913e-09
-8.60585e-09
3.88245e-09
-1.00843e-08
4.03916e-09
-1.1544e-08
3.98978e-09
-1.28633e-08
3.60822e-09
-1.38581e-08
2.72379e-09
-1.42686e-08
1.12677e-09
-1.38773e-08
-1.0671e-09
-1.28957e-08
-2.6824e-09
-1.15835e-08
-3.58602e-09
-1.01259e-08
-3.98344e-09
-8.64584e-09
-4.04413e-09
-7.22043e-09
-3.89447e-09
-5.8937e-09
-3.62485e-09
-4.6876e-09
-3.29605e-09
-3.6104e-09
-2.94561e-09
-2.66389e-09
-2.59067e-09
-1.85016e-09
-2.22799e-09
-1.17607e-09
-1.83999e-09
-6.51833e-10
-1.41498e-09
-2.84176e-10
-9.67949e-10
-7.07555e-11
-5.37759e-10
-1.65815e-10
-8.6117e-11
2.50454e-10
-3.47558e-10
7.9504e-10
-7.98212e-10
1.41179e-09
-1.4391e-09
2.0465e-09
-2.26059e-09
2.64972e-09
-3.25009e-09
3.2036e-09
-4.4e-09
3.72492e-09
-5.70867e-09
4.23745e-09
-7.17456e-09
4.74488e-09
-8.78815e-09
5.22272e-09
-1.05234e-08
5.61774e-09
-1.23278e-08
5.84347e-09
-1.41087e-08
5.77069e-09
-1.57177e-08
5.21721e-09
-1.69307e-08
3.93687e-09
-1.74311e-08
1.62713e-09
-1.69533e-08
-1.54494e-09
-1.57558e-08
-3.87989e-09
-1.41552e-08
-5.18664e-09
-1.23766e-08
-5.76197e-09
-1.05704e-08
-5.85032e-09
-8.83062e-09
-5.63431e-09
-7.21107e-09
-5.24439e-09
-5.73873e-09
-4.76839e-09
-4.42368e-09
-4.26066e-09
-3.26783e-09
-3.74651e-09
-2.27308e-09
-3.22274e-09
-1.44719e-09
-2.66589e-09
-8.02815e-10
-2.05936e-09
-3.49643e-10
-1.42112e-09
-8.66641e-11
-8.00739e-10
-2.52479e-10
-1.01751e-10
3.52204e-10
-4.12628e-10
1.10592e-09
-9.50195e-10
1.94935e-09
-1.71531e-09
2.81161e-09
-2.69547e-09
3.62988e-09
-3.87496e-09
4.38309e-09
-5.24456e-09
5.09451e-09
-6.80248e-09
5.79536e-09
-8.54707e-09
6.48947e-09
-1.0467e-08
7.14268e-09
-1.25313e-08
7.68197e-09
-1.46769e-08
7.9891e-09
-1.67939e-08
7.88772e-09
-1.87058e-08
7.12907e-09
-2.0147e-08
5.37812e-09
-2.07418e-08
2.22187e-09
-2.0174e-08
-2.11268e-09
-1.87515e-08
-5.30244e-09
-1.68497e-08
-7.08846e-09
-1.47355e-08
-7.87611e-09
-1.25877e-08
-7.99819e-09
-1.0518e-08
-7.70399e-09
-8.59088e-09
-7.1715e-09
-6.83852e-09
-6.52076e-09
-5.27291e-09
-5.82627e-09
-3.89616e-09
-5.12326e-09
-2.71035e-09
-4.40855e-09
-1.7249e-09
-3.65135e-09
-9.55624e-10
-2.82863e-09
-4.1507e-10
-1.96168e-09
-1.02387e-10
-1.11342e-09
-3.54866e-10
-1.19585e-10
4.71788e-10
-4.86309e-10
1.47264e-09
-1.12201e-09
2.58506e-09
-2.02805e-09
3.71764e-09
-3.18924e-09
4.79107e-09
-4.5863e-09
5.78015e-09
-6.20781e-09
6.71601e-09
-8.0514e-09
7.63896e-09
-1.0115e-08
8.55311e-09
-1.23852e-08
9.41285e-09
-1.48249e-08
1.01216e-08
-1.73594e-08
1.05237e-08
-1.98587e-08
1.0387e-08
-2.21145e-08
9.38481e-09
-2.38145e-08
7.07815e-09
-2.45166e-08
2.92393e-09
-2.38478e-08
-2.78147e-09
-2.21708e-08
-6.97937e-09
-1.99276e-08
-9.33173e-09
-1.74319e-08
-1.03718e-08
-1.48947e-08
-1.05355e-08
-1.24483e-08
-1.01504e-08
-1.01693e-08
-9.4505e-09
-8.09603e-09
-8.59402e-09
-6.2429e-09
-7.6794e-09
-4.61252e-09
-6.75364e-09
-3.20761e-09
-5.81346e-09
-2.03986e-09
-4.8191e-09
-1.12868e-09
-3.73981e-09
-4.89299e-10
-2.60106e-09
-1.2036e-10
-1.48236e-09
-4.75227e-10
-1.41594e-10
6.13381e-10
-5.76577e-10
1.90762e-09
-1.33161e-09
3.34009e-09
-2.40872e-09
4.79475e-09
-3.78981e-09
6.17217e-09
-5.45152e-09
7.44186e-09
-7.37971e-09
8.64419e-09
-9.57106e-09
9.83031e-09
-1.20227e-08
1.10047e-08
-1.4718e-08
1.21082e-08
-1.76126e-08
1.30162e-08
-2.06172e-08
1.35282e-08
-2.35771e-08
1.3347e-08
-2.62461e-08
1.20538e-08
-2.82564e-08
9.08841e-09
-2.90873e-08
3.75482e-09
-2.82987e-08
-3.57006e-09
-2.63179e-08
-8.96015e-09
-2.36649e-08
-1.19847e-08
-2.07098e-08
-1.33269e-08
-1.77018e-08
-1.35434e-08
-1.47988e-08
-1.30534e-08
-1.20922e-08
-1.21571e-08
-9.62826e-09
-1.1058e-08
-7.42469e-09
-9.88297e-09
-5.48512e-09
-8.6932e-09
-3.81335e-09
-7.48523e-09
-2.42384e-09
-6.20861e-09
-1.34013e-09
-4.82351e-09
-5.80395e-10
-3.3608e-09
-1.42584e-10
-1.92017e-09
-6.17811e-10
-1.69754e-10
7.83134e-10
-6.91704e-10
2.42957e-09
-1.59829e-09
4.24667e-09
-2.89223e-09
6.08869e-09
-4.55178e-09
7.83172e-09
-6.54853e-09
9.4386e-09
-8.86489e-09
1.09606e-08
-1.14962e-08
1.24616e-08
-1.4438e-08
1.39466e-08
-1.76694e-08
1.53397e-08
-2.1136e-08
1.64827e-08
-2.47295e-08
1.71218e-08
-2.82645e-08
1.68819e-08
-3.14471e-08
1.52364e-08
-3.38416e-08
1.14828e-08
-3.48321e-08
4.74536e-09
-3.38972e-08
-4.50503e-09
-3.15416e-08
-1.13157e-08
-2.83804e-08
-1.51459e-08
-2.4852e-08
-1.68553e-08
-2.12543e-08
-1.71411e-08
-1.77767e-08
-1.6531e-08
-1.45304e-08
-1.54034e-08
-1.15723e-08
-1.40161e-08
-8.92477e-09
-1.25305e-08
-6.59327e-09
-1.10247e-08
-4.58313e-09
-9.49538e-09
-2.91236e-09
-7.87938e-09
-1.60964e-09
-6.12623e-09
-6.96784e-10
-4.27366e-09
-1.71071e-10
-2.44589e-09
-7.88882e-10
-2.06851e-10
9.89984e-10
-8.43201e-10
3.06592e-09
-1.94888e-09
5.35235e-09
-3.5273e-09
7.66711e-09
-5.55179e-09
9.85621e-09
-7.98724e-09
1.18741e-08
-1.08114e-08
1.37847e-08
-1.40175e-08
1.56676e-08
-1.75985e-08
1.75276e-08
-2.15272e-08
1.92683e-08
-2.57347e-08
2.06902e-08
-3.00878e-08
2.14749e-08
-3.43601e-08
2.11542e-08
-3.81976e-08
1.90739e-08
-4.10793e-08
1.43646e-08
-4.22725e-08
5.9385e-09
-4.1155e-08
-5.62248e-09
-3.83267e-08
-1.4144e-08
-3.45189e-08
-1.89537e-08
-3.02563e-08
-2.1118e-08
-2.58979e-08
-2.14995e-08
-2.16754e-08
-2.07534e-08
-1.77265e-08
-1.93524e-08
-1.4123e-08
-1.76196e-08
-1.08945e-08
-1.57589e-08
-8.04937e-09
-1.38699e-08
-5.59533e-09
-1.19494e-08
-3.55527e-09
-9.91944e-09
-1.96464e-09
-7.71686e-09
-8.50255e-10
-5.38805e-09
-2.08678e-10
-3.08747e-09
-9.9756e-10
-2.57354e-10
1.24734e-09
-1.04935e-09
3.85792e-09
-2.42571e-09
6.72871e-09
-4.3906e-09
9.63199e-09
-6.91039e-09
1.2376e-08
-9.94057e-09
1.49042e-08
-1.34522e-08
1.72963e-08
-1.74346e-08
1.96501e-08
-2.18767e-08
2.19697e-08
-2.67406e-08
2.41323e-08
-3.1937e-08
2.58866e-08
-3.7297e-08
2.68349e-08
-4.25392e-08
2.63964e-08
-4.72311e-08
2.37658e-08
-5.0744e-08
1.78775e-08
-5.21999e-08
7.39434e-09
-5.08513e-08
-6.9711e-09
-4.74147e-08
-1.75806e-08
-4.27662e-08
-2.36022e-08
-3.75388e-08
-2.63454e-08
-3.21722e-08
-2.68661e-08
-2.69549e-08
-2.59707e-08
-2.20621e-08
-2.42452e-08
-1.75878e-08
-2.20939e-08
-1.3573e-08
-1.97738e-08
-1.0031e-08
-1.74119e-08
-6.97376e-09
-1.50066e-08
-4.4313e-09
-1.24619e-08
-2.44865e-09
-9.69951e-09
-1.05961e-09
-6.77708e-09
-2.6001e-10
-3.88707e-09
-1.25757e-09
-3.28726e-10
1.57606e-09
-1.34066e-09
4.86984e-09
-3.0993e-09
8.48735e-09
-5.60954e-09
1.21422e-08
-8.82753e-09
1.5594e-08
-1.26948e-08
1.87715e-08
-1.71718e-08
2.17733e-08
-2.22413e-08
2.47196e-08
-2.78836e-08
2.7612e-08
-3.40438e-08
3.02925e-08
-4.06003e-08
3.24431e-08
-4.73319e-08
3.35665e-08
-5.38808e-08
3.29453e-08
-5.97101e-08
2.95951e-08
-6.40549e-08
2.22223e-08
-6.58572e-08
9.19665e-09
-6.42131e-08
-8.61519e-09
-5.99825e-08
-2.18112e-08
-5.42197e-08
-2.93649e-08
-4.76953e-08
-3.28698e-08
-4.09557e-08
-3.36057e-08
-3.43693e-08
-3.25571e-08
-2.81662e-08
-3.04482e-08
-2.24754e-08
-2.77847e-08
-1.73567e-08
-2.48925e-08
-1.28332e-08
-2.19353e-08
-8.92464e-09
-1.89152e-08
-5.67191e-09
-1.57146e-08
-3.13442e-09
-1.2237e-08
-1.35635e-09
-8.55515e-09
-3.32787e-10
-4.91064e-09
-1.59036e-09
-4.34e-10
2.01006e-09
-1.77009e-09
6.20593e-09
-4.09178e-09
1.0809e-08
-7.40454e-09
1.5455e-08
-1.16486e-08
1.9838e-08
-1.67435e-08
2.38664e-08
-2.26321e-08
2.76619e-08
-2.92839e-08
3.13714e-08
-3.6662e-08
3.49901e-08
-4.46802e-08
3.83107e-08
-5.31639e-08
4.09267e-08
-6.18113e-08
4.22139e-08
-7.01546e-08
4.12886e-08
-7.75181e-08
3.69586e-08
-8.29676e-08
2.76718e-08
-8.52303e-08
1.14593e-08
-8.32109e-08
-1.06345e-08
-7.79402e-08
-2.70819e-08
-7.06847e-08
-3.66204e-08
-6.23849e-08
-4.11696e-08
-5.37295e-08
-4.2261e-08
-4.52017e-08
-4.10849e-08
-3.71173e-08
-3.85327e-08
-2.96624e-08
-3.52396e-08
-2.29319e-08
-3.16231e-08
-1.69683e-08
-2.78988e-08
-1.18063e-08
-2.40773e-08
-7.50577e-09
-2.00151e-08
-4.14873e-09
-1.5594e-08
-1.79551e-09
-1.09084e-08
-4.40565e-10
-6.26558e-09
-2.03092e-09
-5.96969e-10
2.60703e-09
-2.43504e-09
8.044e-09
-5.62823e-09
1.40022e-08
-1.01816e-08
2.00084e-08
-1.60086e-08
2.5665e-08
-2.29914e-08
3.08491e-08
-3.10396e-08
3.57101e-08
-4.00944e-08
4.04262e-08
-5.00817e-08
4.49773e-08
-6.08543e-08
4.90833e-08
-7.2143e-08
5.22155e-08
-8.3516e-08
5.35869e-08
-9.43445e-08
5.21171e-08
-1.03772e-07
4.6386e-08
-1.1067e-07
3.45702e-08
-1.13536e-07
1.43254e-08
-1.1106e-07
-1.31111e-08
-1.04455e-07
-3.36866e-08
-9.5214e-08
-4.58615e-08
-8.44698e-08
-5.19138e-08
-7.30954e-08
-5.36355e-08
-6.17415e-08
-5.24388e-08
-5.08627e-08
-4.94115e-08
-4.07477e-08
-4.53545e-08
-3.1559e-08
-4.08119e-08
-2.33817e-08
-3.60761e-08
-1.62826e-08
-3.11763e-08
-1.03574e-08
-2.59404e-08
-5.72692e-09
-2.02245e-08
-2.47897e-09
-1.41563e-08
-6.08276e-10
-8.13627e-09
-2.6392e-09
-8.65468e-10
3.47251e-09
-3.52996e-09
1.07085e-08
-8.1558e-09
1.86281e-08
-1.47438e-08
2.65964e-08
-2.31574e-08
3.40786e-08
-3.32083e-08
4.09e-08
-4.47383e-08
4.72401e-08
-5.76218e-08
5.33097e-08
-7.1697e-08
5.90525e-08
-8.66868e-08
6.40731e-08
-1.02142e-07
6.76707e-08
-1.1741e-07
6.88549e-08
-1.31627e-07
6.63344e-08
-1.43726e-07
5.84847e-08
-1.52412e-07
4.32561e-08
-1.5602e-07
1.79334e-08
-1.53057e-07
-1.60736e-08
-1.44877e-07
-4.18669e-08
-1.33123e-07
-5.76157e-08
-1.19086e-07
-6.5951e-08
-1.03848e-07
-6.88729e-08
-8.8303e-08
-6.7984e-08
-7.31386e-08
-6.45758e-08
-5.88396e-08
-5.96535e-08
-4.5713e-08
-5.39385e-08
-3.39436e-08
-4.78455e-08
-2.36744e-08
-4.14455e-08
-1.50753e-08
-3.45395e-08
-8.34159e-09
-2.69582e-08
-3.61241e-09
-1.88855e-08
-8.86608e-10
-1.08621e-08
-3.52581e-09
-1.1517e-09
4.6242e-09
-4.69114e-09
1.42479e-08
-1.08256e-08
2.47625e-08
-1.95423e-08
3.53132e-08
-3.06371e-08
4.51734e-08
-4.38226e-08
5.40854e-08
-5.883e-08
6.22475e-08
-7.54062e-08
6.9886e-08
-9.3224e-08
7.68703e-08
-1.11792e-07
8.2641e-08
-1.30414e-07
8.62926e-08
-1.48205e-07
8.66457e-08
-1.64154e-07
8.22839e-08
-1.77205e-07
7.15357e-08
-1.86268e-07
5.23193e-08
-1.90025e-07
2.16901e-08
-1.872e-07
-1.88988e-08
-1.78908e-07
-5.01587e-08
-1.66436e-07
-7.00872e-08
-1.50846e-07
-8.15414e-08
-1.33186e-07
-8.65327e-08
-1.14488e-07
-8.6682e-08
-9.56808e-08
-8.33832e-08
-7.75151e-08
-7.78192e-08
-6.05365e-08
-7.09172e-08
-4.51186e-08
-6.32634e-08
-3.1551e-08
-5.50132e-08
-2.01284e-08
-4.59621e-08
-1.11535e-08
-3.59331e-08
-4.83636e-09
-2.52027e-08
-1.18884e-09
-1.45096e-08
-4.71465e-09
-1.37082e-09
5.99503e-09
-5.57562e-09
1.84527e-08
-1.28471e-08
3.20339e-08
-2.31448e-08
4.56109e-08
-3.61817e-08
5.82104e-08
-5.15446e-08
6.94483e-08
-6.88052e-08
7.95081e-08
-8.75127e-08
8.85934e-08
-1.071e-07
9.64573e-08
-1.26813e-07
1.02355e-07
-1.45732e-07
1.05211e-07
-1.62867e-07
1.03781e-07
-1.77316e-07
9.67324e-08
-1.88397e-07
8.26167e-08
-1.95669e-07
5.95911e-08
-1.9867e-07
2.46916e-08
-1.96762e-07
-2.08072e-08
-1.90463e-07
-5.64572e-08
-1.80207e-07
-8.03431e-08
-1.6637e-07
-9.53789e-08
-1.49572e-07
-1.03331e-07
-1.30694e-07
-1.0556e-07
-1.10751e-07
-1.03327e-07
-9.07251e-08
-9.78448e-08
-7.14507e-08
-9.01915e-08
-5.35758e-08
-8.11383e-08
-3.76215e-08
-7.09675e-08
-2.40689e-08
-5.95147e-08
-1.3363e-08
-4.6639e-08
-5.80321e-09
-3.27626e-08
-1.42879e-09
-1.88841e-08
-6.14344e-09
-1.64606e-09
7.64109e-09
-6.68925e-09
2.34959e-08
-1.5388e-08
4.07327e-08
-2.76476e-08
5.78705e-08
-4.30418e-08
7.36046e-08
-6.09462e-08
8.73527e-08
-8.06655e-08
9.92275e-08
-1.01435e-07
1.09363e-07
-1.22347e-07
1.17369e-07
-1.42343e-07
1.22351e-07
-1.60325e-07
1.23193e-07
-1.75355e-07
1.18811e-07
-1.86864e-07
1.08242e-07
-1.94778e-07
9.05303e-08
-1.99457e-07
6.42704e-08
-2.01381e-07
2.66156e-08
-2.00617e-07
-2.1571e-08
-1.97062e-07
-6.00123e-08
-1.90234e-07
-8.71716e-08
-1.79676e-07
-1.05937e-07
-1.65334e-07
-1.17673e-07
-1.4767e-07
-1.23224e-07
-1.27582e-07
-1.23415e-07
-1.06205e-07
-1.19221e-07
-8.46975e-08
-1.11699e-07
-6.40951e-08
-1.01741e-07
-4.52938e-08
-8.97688e-08
-2.9096e-08
-7.57124e-08
-1.61944e-08
-5.95407e-08
-7.04268e-09
-4.19143e-08
-1.73525e-09
-2.41915e-08
-7.87869e-09
-2.00772e-09
9.64881e-09
-8.14604e-09
2.96342e-08
-1.86913e-08
5.12779e-08
-3.34441e-08
7.26234e-08
-5.17401e-08
9.19005e-08
-7.26035e-08
1.08216e-07
-9.49119e-08
1.21536e-07
-1.17443e-07
1.31894e-07
-1.38876e-07
1.38802e-07
-1.57892e-07
1.41366e-07
-1.73397e-07
1.38698e-07
-1.84777e-07
1.30191e-07
-1.92065e-07
1.1553e-07
-1.95944e-07
9.44091e-08
-1.97572e-07
6.58982e-08
-1.9825e-07
2.72937e-08
-1.98683e-07
-2.11378e-08
-1.9824e-07
-6.04557e-08
-1.9567e-07
-8.97411e-08
-1.89726e-07
-1.11881e-07
-1.79539e-07
-1.2786e-07
-1.64855e-07
-1.37907e-07
-1.46118e-07
-1.42151e-07
-1.24364e-07
-1.40975e-07
-1.00982e-07
-1.35081e-07
-7.7469e-08
-1.25254e-07
-5.52724e-08
-1.11965e-07
-3.57281e-08
-9.52568e-08
-1.99596e-08
-7.53091e-08
-8.69762e-09
-5.31763e-08
-2.14531e-09
-3.07438e-08
-1.0024e-08
-2.50201e-09
1.21508e-08
-1.01281e-08
3.72604e-08
-2.31479e-08
6.42977e-08
-4.11543e-08
9.06297e-08
-6.30608e-08
1.13807e-07
-8.73072e-08
1.32463e-07
-1.12124e-07
1.46353e-07
-1.35706e-07
1.55475e-07
-1.56352e-07
1.59449e-07
-1.72707e-07
1.57721e-07
-1.8403e-07
1.50021e-07
-1.90377e-07
1.36538e-07
-1.92587e-07
1.1774e-07
-1.9209e-07
9.39126e-08
-1.90648e-07
6.44556e-08
-1.90098e-07
2.67438e-08
-1.91601e-07
-1.96345e-08
-1.94175e-07
-5.78817e-08
-1.9611e-07
-8.7806e-08
-1.95616e-07
-1.12375e-07
-1.91073e-07
-1.32403e-07
-1.8133e-07
-1.47651e-07
-1.6598e-07
-1.57502e-07
-1.45496e-07
-1.61459e-07
-1.21163e-07
-1.59414e-07
-9.48377e-08
-1.5158e-07
-6.86673e-08
-1.38136e-07
-4.48232e-08
-1.19101e-07
-2.51865e-08
-9.49458e-08
-1.10074e-08
-6.73553e-08
-2.71804e-09
-3.90332e-08
-1.2742e-08
-3.20766e-09
1.53585e-08
-1.29357e-08
4.69884e-08
-2.9376e-08
8.07381e-08
-5.16985e-08
1.12952e-07
-7.80597e-08
1.40168e-07
-1.05957e-07
1.6036e-07
-1.32736e-07
1.73132e-07
-1.56006e-07
1.78745e-07
-1.73964e-07
1.77407e-07
-1.85675e-07
1.69432e-07
-1.9122e-07
1.55566e-07
-1.91611e-07
1.36929e-07
-1.88508e-07
1.14637e-07
-1.83878e-07
8.92829e-08
-1.79751e-07
6.03285e-08
-1.78149e-07
2.51422e-08
-1.80469e-07
-1.73152e-08
-1.85564e-07
-5.27867e-08
-1.9162e-07
-8.17498e-08
-1.9669e-07
-1.07305e-07
-1.98711e-07
-1.30382e-07
-1.95707e-07
-1.50655e-07
-1.86158e-07
-1.67051e-07
-1.69412e-07
-1.78205e-07
-1.45988e-07
-1.82838e-07
-1.17631e-07
-1.79936e-07
-8.71146e-08
-1.68652e-07
-5.77726e-08
-1.48443e-07
-3.27806e-08
-1.19938e-07
-1.43968e-08
-8.57391e-08
-3.56076e-09
-4.98691e-08
-1.63028e-08
-4.26922e-09
1.96277e-08
-1.70964e-08
5.98155e-08
-3.83968e-08
1.02039e-07
-6.64612e-08
1.41017e-07
-9.81045e-08
1.71811e-07
-1.29419e-07
1.91675e-07
-1.56759e-07
2.00472e-07
-1.77482e-07
1.99467e-07
-1.9031e-07
1.90236e-07
-1.95385e-07
1.74507e-07
-1.94016e-07
1.54197e-07
-1.88219e-07
1.31131e-07
-1.80235e-07
1.06654e-07
-1.72197e-07
8.12445e-08
-1.66036e-07
5.41677e-08
-1.63653e-07
2.27589e-08
-1.6648e-07
-1.44879e-08
-1.7336e-07
-4.59069e-08
-1.82655e-07
-7.24542e-08
-1.92647e-07
-9.7313e-08
-2.01295e-07
-1.21735e-07
-2.06196e-07
-1.45754e-07
-2.04821e-07
-1.68425e-07
-1.95011e-07
-1.88015e-07
-1.75662e-07
-2.02188e-07
-1.47397e-07
-2.08201e-07
-1.12953e-07
-2.03097e-07
-7.6886e-08
-1.8451e-07
-4.43954e-08
-1.52428e-07
-1.9689e-08
-1.10446e-07
-4.88935e-09
-6.46687e-08
-2.11921e-08
-5.97124e-09
2.55989e-08
-2.35626e-08
7.74069e-08
-5.18613e-08
1.30337e-07
-8.73475e-08
1.76503e-07
-1.24603e-07
2.09067e-07
-1.57948e-07
2.25019e-07
-1.83111e-07
2.25635e-07
-1.98091e-07
2.14447e-07
-2.031e-07
1.95245e-07
-1.9996e-07
1.71367e-07
-1.91305e-07
1.45542e-07
-1.79845e-07
1.19671e-07
-1.67947e-07
9.47557e-08
-1.57493e-07
7.07904e-08
-1.50036e-07
4.67113e-08
-1.47158e-07
1.98812e-08
-1.50194e-07
-1.14529e-08
-1.58059e-07
-3.80411e-08
-1.69449e-07
-6.10649e-08
-1.83124e-07
-8.36377e-08
-1.97513e-07
-1.07345e-07
-2.10407e-07
-1.32859e-07
-2.18854e-07
-1.59979e-07
-2.19365e-07
-1.87504e-07
-2.08624e-07
-2.12929e-07
-1.84735e-07
-2.3209e-07
-1.48759e-07
-2.39072e-07
-1.05585e-07
-2.27684e-07
-6.29287e-08
-1.95084e-07
-2.84991e-08
-1.44875e-07
-7.16591e-09
-8.60019e-08
-2.83581e-08
-8.85538e-09
3.44543e-08
-3.38798e-08
1.02431e-07
-7.19226e-08
1.6838e-07
-1.15979e-07
2.2056e-07
-1.57443e-07
2.50531e-07
-1.8917e-07
2.56746e-07
-2.07579e-07
2.44045e-07
-2.12816e-07
2.19684e-07
-2.07537e-07
1.89967e-07
-1.95402e-07
1.59231e-07
-1.79945e-07
1.30084e-07
-1.6394e-07
1.03666e-07
-1.4935e-07
8.01661e-08
-1.37495e-07
5.89354e-08
-1.29404e-07
3.86206e-08
-1.26265e-07
1.67423e-08
-1.29242e-07
-8.47662e-09
-1.3736e-07
-2.99229e-08
-1.49659e-07
-4.87653e-08
-1.65454e-07
-6.78428e-08
-1.83896e-07
-8.89035e-08
-2.03543e-07
-1.13213e-07
-2.21918e-07
-1.41604e-07
-2.35162e-07
-1.7426e-07
-2.38116e-07
-2.09975e-07
-2.25418e-07
-2.44789e-07
-1.94048e-07
-2.70442e-07
-1.46532e-07
-2.752e-07
-9.20731e-08
-2.49543e-07
-4.34482e-08
-1.935e-07
-1.12758e-08
-1.18174e-07
-3.96339e-08
-1.37544e-08
4.82087e-08
-4.9694e-08
1.38371e-07
-9.93818e-08
2.18068e-07
-1.50115e-07
2.71293e-07
-1.90135e-07
2.90551e-07
-2.12839e-07
2.7945e-07
-2.17832e-07
2.49038e-07
-2.09006e-07
2.10857e-07
-1.91725e-07
1.72686e-07
-1.70802e-07
1.38309e-07
-1.49727e-07
1.09009e-07
-1.30574e-07
8.4513e-08
-1.14489e-07
6.40809e-08
-1.02079e-07
4.65258e-08
-9.38391e-08
3.03806e-08
-9.05749e-08
1.34781e-08
-9.32557e-08
-5.79579e-09
-1.0101e-07
-2.21684e-08
-1.13149e-07
-3.66268e-08
-1.2944e-07
-5.15518e-08
-1.49747e-07
-6.85966e-08
-1.73654e-07
-8.93059e-08
-1.99925e-07
-1.15332e-07
-2.25737e-07
-1.48447e-07
-2.45794e-07
-1.89918e-07
-2.52138e-07
-2.38444e-07
-2.36203e-07
-2.86378e-07
-1.94019e-07
-3.17383e-07
-1.31883e-07
-3.1168e-07
-6.66747e-08
-2.58708e-07
-1.83945e-08
-1.66455e-07
-5.80284e-08
-2.15021e-08
6.97108e-08
-7.06843e-08
1.87553e-07
-1.28801e-07
2.76185e-07
-1.76549e-07
3.19041e-07
-2.0224e-07
3.16242e-07
-2.04234e-07
2.81444e-07
-1.88154e-07
2.32958e-07
-1.62011e-07
1.84715e-07
-1.32626e-07
1.433e-07
-1.04337e-07
1.10021e-07
-7.94252e-08
8.40969e-08
-5.86414e-08
6.37293e-08
-4.21453e-08
4.75848e-08
-2.98572e-08
3.42376e-08
-2.1814e-08
2.23374e-08
-1.84972e-08
1.01612e-08
-2.0687e-08
-3.60594e-09
-2.7593e-08
-1.52624e-08
-3.86858e-08
-2.55339e-08
-5.40059e-08
-3.62318e-08
-7.39022e-08
-4.87002e-08
-9.88316e-08
-6.43766e-08
-1.28987e-07
-8.51773e-08
-1.63607e-07
-1.13827e-07
-1.99553e-07
-1.53972e-07
-2.29533e-07
-2.08464e-07
-2.41535e-07
-2.74376e-07
-2.22862e-07
-3.36056e-07
-1.69618e-07
-3.64924e-07
-9.53714e-08
-3.32955e-07
-2.91214e-08
-2.32705e-07
-8.71498e-08
-3.22487e-08
1.0196e-07
-9.14393e-08
2.46744e-07
-1.4337e-07
3.28115e-07
-1.67047e-07
3.42718e-07
-1.59257e-07
3.08451e-07
-1.2858e-07
2.50767e-07
-8.71179e-08
1.91495e-07
-4.4461e-08
1.42058e-07
-5.94794e-09
1.04787e-07
2.63937e-08
7.7679e-08
5.26876e-08
5.7803e-08
7.32971e-08
4.31198e-08
8.90356e-08
3.18463e-08
1.00497e-07
2.27759e-08
1.07964e-07
1.48704e-08
1.11203e-07
6.92228e-09
1.09607e-07
-2.00949e-09
1.03887e-07
-9.54255e-09
9.44941e-08
-1.61409e-08
8.12881e-08
-2.30258e-08
6.37193e-08
-3.11314e-08
4.08967e-08
-4.15539e-08
1.15944e-08
-5.5875e-08
-2.53752e-08
-7.68577e-08
-7.03951e-08
-1.08952e-07
-1.20615e-07
-1.58243e-07
-1.66593e-07
-2.28398e-07
-1.91041e-07
-3.11609e-07
-1.75661e-07
-3.80304e-07
-1.17262e-07
-3.91354e-07
-4.21224e-08
-3.07844e-07
-1.29272e-07
-4.38904e-08
1.4585e-07
-9.85484e-08
3.01402e-07
-1.15053e-07
3.4462e-07
-8.72904e-08
3.14956e-07
-3.11114e-08
2.52272e-07
3.44043e-08
1.85251e-07
9.59112e-08
1.29988e-07
1.47501e-07
9.04685e-08
1.88397e-07
6.38911e-08
2.20004e-07
4.6072e-08
2.44101e-07
3.37062e-08
2.62353e-07
2.48682e-08
2.75958e-07
1.8241e-08
2.85735e-07
1.29991e-08
2.92107e-07
8.49792e-09
2.95003e-07
4.02657e-09
2.93971e-07
-9.77685e-10
2.89614e-07
-5.18553e-09
2.82322e-07
-8.84875e-09
2.71964e-07
-1.26682e-08
2.5802e-07
-1.71866e-08
2.39534e-07
-2.30687e-08
2.15001e-07
-3.13421e-08
1.8211e-07
-4.3966e-08
1.37756e-07
-6.45981e-08
7.90493e-08
-9.95369e-08
7.16958e-09
-1.56519e-07
-6.6023e-08
-2.38416e-07
-1.14843e-07
-3.31483e-07
-1.1052e-07
-3.95677e-07
-5.22815e-08
-3.66083e-07
-1.81554e-07
-5.13698e-08
1.9722e-07
-6.54507e-08
3.15483e-07
-8.24683e-09
2.87416e-07
8.59115e-08
2.20797e-07
1.83977e-07
1.54207e-07
2.68088e-07
1.01141e-07
3.33013e-07
6.50627e-08
3.8077e-07
4.27118e-08
4.15497e-07
2.91642e-08
4.40899e-07
2.06697e-08
4.5962e-07
1.49859e-08
4.73486e-07
1.10014e-08
4.83682e-07
8.04541e-09
4.90956e-07
5.72486e-09
4.95707e-07
3.74718e-09
4.97939e-07
1.79458e-09
4.97347e-07
-3.8579e-10
4.94378e-07
-2.21621e-09
4.89332e-07
-3.8037e-09
4.82123e-07
-5.4588e-09
4.72359e-07
-7.42224e-09
4.59289e-07
-9.99933e-09
4.41625e-07
-1.36778e-08
4.17099e-07
-1.94404e-08
3.81792e-07
-2.92904e-08
3.2949e-07
-4.72352e-08
2.5297e-07
-7.99984e-08
1.50241e-07
-1.35687e-07
3.63535e-08
-2.17596e-07
-4.76105e-08
-3.11713e-07
-5.17508e-08
-3.61942e-07
-2.33304e-07
-2.72987e-08
2.24519e-07
6.999e-08
2.18194e-07
2.17424e-07
1.39981e-07
3.51208e-07
8.70141e-08
4.53628e-07
5.17862e-08
5.25095e-07
2.96741e-08
5.72827e-07
1.73307e-08
6.04761e-07
1.07783e-08
6.26727e-07
7.19807e-09
6.42323e-07
5.0736e-09
6.53632e-07
3.67639e-09
6.61932e-07
2.70184e-09
6.68e-07
1.97746e-09
6.72317e-07
1.40762e-09
6.75142e-07
9.22219e-10
6.76494e-07
4.42718e-10
6.76201e-07
-9.24643e-11
6.74526e-07
-5.41748e-10
6.71654e-07
-9.31513e-10
6.67535e-07
-1.33943e-09
6.61937e-07
-1.82516e-09
6.54407e-07
-2.46851e-09
6.44127e-07
-3.39815e-09
6.29571e-07
-4.88457e-09
6.0779e-07
-7.50955e-09
5.73122e-07
-1.25667e-08
5.15844e-07
-2.27203e-08
4.22984e-07
-4.28271e-08
2.85509e-07
-8.01211e-08
1.17353e-07
-1.43557e-07
-9.3716e-09
-2.35218e-07
-2.42676e-07
2.24519e-07
4.42712e-07
5.82694e-07
6.69708e-07
7.21494e-07
7.51168e-07
7.68499e-07
7.79277e-07
7.86475e-07
7.91549e-07
7.95225e-07
7.97927e-07
7.99904e-07
8.01312e-07
8.02234e-07
8.02677e-07
8.02585e-07
8.02043e-07
8.01111e-07
7.99772e-07
7.97947e-07
7.95478e-07
7.9208e-07
7.87195e-07
7.79686e-07
7.67119e-07
7.44399e-07
7.01572e-07
6.21451e-07
4.77894e-07
2.42676e-07
)
;

boundaryField
{
    movingWall
    {
        type            calculated;
        value           uniform 0;
    }
    fixedWalls
    {
        type            calculated;
        value           uniform 0;
    }
    frontAndBack
    {
        type            empty;
        value           nonuniform List<scalar> 0();
    }
}


// ************************************************************************* //
