/*--------------------------------*- C++ -*----------------------------------*\
| =========                 |                                                 |
| \\      /  F ield         | OpenFOAM: The Open Source CFD Toolbox           |
|  \\    /   O peration     | Version:  2212                                  |
|   \\  /    A nd           | Website:  www.openfoam.com                      |
|    \\/     M anipulation  |                                                 |
\*---------------------------------------------------------------------------*/
FoamFile
{
    version     2.0;
    format      ascii;
    arch        "LSB;label=64;scalar=64";
    class       volScalarField::Internal;
    location    "840";
    object      dGco2;
}
// * * * * * * * * * * * * * * * * * * * * * * * * * * * * * * * * * * * * * //

dimensions      [1 -3 -1 0 0 0 0];

value           nonuniform List<scalar> 
1024
(
0.000149326
0.000149424
0.000149661
0.000150083
0.000150724
0.000151593
0.000152665
0.000153873
0.00015513
0.000156345
0.000157425
0.000158283
0.000158864
0.000159138
0.000159068
0.000158599
0.000157695
0.00015649
0.000155159
0.00015375
0.000152277
0.000150736
0.000149141
0.000147547
0.000146041
0.000144716
0.000143633
0.000142812
0.000142239
0.000141875
0.000141674
0.000141591
0.000149345
0.000149445
0.00014969
0.000150124
0.000150781
0.00015167
0.000152759
0.000153982
0.00015525
0.000156474
0.000157562
0.00015842
0.000158995
0.000159261
0.000159184
0.000158709
0.0001578
0.000156592
0.00015526
0.000153853
0.000152384
0.000150848
0.000149256
0.000147657
0.000146142
0.0001448
0.000143698
0.000142861
0.000142276
0.000141903
0.000141698
0.000141614
0.000149387
0.000149492
0.000149749
0.000150204
0.000150892
0.000151817
0.000152943
0.000154202
0.000155508
0.000156771
0.00015789
0.000158758
0.000159322
0.000159566
0.000159463
0.000158961
0.000158027
0.000156802
0.000155463
0.000154058
0.000152597
0.000151074
0.00014949
0.000147889
0.000146355
0.000144982
0.000143844
0.000142972
0.000142359
0.000141969
0.000141753
0.000141666
0.000149456
0.000149566
0.000149837
0.000150318
0.000151045
0.000152019
0.000153205
0.000154534
0.000155923
0.000157276
0.000158475
0.000159376
0.000159925
0.000160124
0.00015996
0.000159391
0.000158393
0.00015712
0.000155754
0.000154344
0.000152895
0.000151393
0.000149829
0.000148233
0.00014668
0.000145265
0.000144074
0.00014315
0.000142496
0.000142078
0.000141848
0.000141754
0.00014955
0.000149665
0.000149949
0.000150456
0.000151226
0.000152264
0.000153535
0.000154979
0.000156513
0.000158031
0.000159374
0.000160347
0.000160882
0.000161007
0.000160734
0.000160035
0.000158907
0.000157532
0.000156107
0.000154675
0.000153235
0.00015176
0.000150229
0.00014865
0.000147087
0.000145631
0.000144379
0.000143392
0.000142686
0.000142232
0.000141982
0.00014188
0.000149667
0.000149785
0.000150079
0.00015061
0.000151424
0.000152537
0.000153926
0.000155538
0.000157294
0.000159062
0.000160625
0.000161717
0.000162248
0.000162269
0.000161826
0.000160917
0.000159567
0.000158012
0.000156475
0.000154993
0.000153551
0.000152107
0.000150619
0.000149075
0.000147517
0.000146032
0.000144725
0.000143675
0.000142913
0.00014242
0.000142148
0.000142039
0.000149807
0.000149926
0.000150226
0.000150776
0.000151635
0.000152835
0.000154373
0.000156211
0.000158268
0.000160373
0.000162228
0.000163489
0.00016403
0.000163917
0.000163239
0.000162024
0.000160339
0.000158503
0.000156788
0.000155219
0.000153759
0.000152345
0.00015091
0.000149418
0.000147888
0.000146396
0.000145053
0.000143955
0.000143146
0.00014262
0.000142329
0.000142213
0.000149975
0.000150093
0.000150396
0.000150962
0.000151865
0.000153163
0.00015488
0.000157
0.00015943
0.000161945
0.000164149
0.000165615
0.000166173
0.000165895
0.000164914
0.000163288
0.00016114
0.000158909
0.00015694
0.000155247
0.000153756
0.000152371
0.000150999
0.000149576
0.0001481
0.000146634
0.00014529
0.000144173
0.000143342
0.000142797
0.000142496
0.000142374
0.000150187
0.000150304
0.000150608
0.000151186
0.000152136
0.000153544
0.00015547
0.000157918
0.000160783
0.000163762
0.000166344
0.000168022
0.000168578
0.000168092
0.000166736
0.000164593
0.00016184
0.000159088
0.000156791
0.000154943
0.000153417
0.000152072
0.00015078
0.00014945
0.000148059
0.000146659
0.000145359
0.000144267
0.000143449
0.00014291
0.000142609
0.000142487
0.000150478
0.000150593
0.000150898
0.000151492
0.000152495
0.000154029
0.000156194
0.000159019
0.000162368
0.000165838
0.000168795
0.000170645
0.000171144
0.00017039
0.000168586
0.000165816
0.000162306
0.000158889
0.000156183
0.000154159
0.000152611
0.000151334
0.000150154
0.00014895
0.000147684
0.000146399
0.000145197
0.000144182
0.000143419
0.000142911
0.000142624
0.000142504
0.000150916
0.000151029
0.000151338
0.000151957
0.000153029
0.000154717
0.000157163
0.000160415
0.000164285
0.000168246
0.000171526
0.000173465
0.000173824
0.000172742
0.000170436
0.000166944
0.000162518
0.000158257
0.00015503
0.000152798
0.000151242
0.000150068
0.000149042
0.00014801
0.000146919
0.000145805
0.000144759
0.000143874
0.000143204
0.000142751
0.000142487
0.000142373
0.000151617
0.000151731
0.000152052
0.000152713
0.000153886
0.000155775
0.000158563
0.000162295
0.000166703
0.000171103
0.000174603
0.000176518
0.000176665
0.000175249
0.00017246
0.000168223
0.000162761
0.000157443
0.000153491
0.00015093
0.000149326
0.000148262
0.000147422
0.000146607
0.000145745
0.000144856
0.000144019
0.000143304
0.000142753
0.000142367
0.00014213
0.000142022
0.000152759
0.000152879
0.000153227
0.000153961
0.000155289
0.000157451
0.000160652
0.000164903
0.000169808
0.00017453
0.000178098
0.000179883
0.000179831
0.000178207
0.000175119
0.000170318
0.000163894
0.000157354
0.000152313
0.00014905
0.000147152
0.000146071
0.000145377
0.000144793
0.000144194
0.000143571
0.000142968
0.000142434
0.000142
0.000141679
0.000141471
0.000141372
0.000154557
0.000154689
0.000155087
0.000155938
0.000157489
0.000160003
0.000163676
0.000168428
0.00017371
0.000178561
0.000182031
0.000183659
0.000183575
0.00018208
0.000179156
0.000174352
0.000167491
0.000159892
0.000153404
0.00014873
0.000145804
0.000144143
0.00014323
0.000142678
0.00014225
0.000141846
0.000141453
0.000141103
0.000140827
0.000140641
0.000140536
0.000140493
0.000157195
0.000157349
0.00015782
0.000158833
0.000160663
0.00016358
0.000167711
0.000172843
0.000178279
0.000183021
0.000186271
0.000187842
0.000188055
0.000187221
0.000185256
0.000181616
0.00017577
0.00016833
0.000160892
0.000154441
0.000149405
0.000145831
0.000143398
0.00014185
0.00014096
0.000140537
0.000140452
0.000140611
0.000140923
0.000141282
0.000141584
0.000141751
0.000160654
0.000160839
0.000161396
0.000162574
0.000164658
0.000167878
0.000172258
0.00017745
0.000182705
0.000187126
0.000190143
0.000191804
0.000192553
0.000192773
0.000192544
0.000191594
0.00018931
0.000185291
0.000180106
0.000174542
0.000169239
0.000164625
0.000160757
0.000157734
0.000155608
0.000154312
0.000153779
0.000153868
0.000154364
0.000155005
0.000155553
0.000155855
0.000163845
0.000164036
0.000164599
0.00016577
0.000167802
0.000170873
0.000174955
0.000179707
0.000184492
0.00018857
0.000191443
0.000193106
0.000193969
0.000194557
0.000195346
0.000196753
0.000198829
0.000200773
0.000201825
0.000201901
0.000201188
0.000199916
0.000198271
0.00019642
0.000194518
0.000192673
0.000191047
0.000189774
0.000188927
0.000188486
0.000188331
0.000188319
0.000166002
0.000166182
0.000166698
0.00016775
0.000169556
0.000172266
0.000175853
0.000180032
0.000184271
0.000187918
0.000190463
0.000191759
0.000192046
0.000191797
0.000191626
0.000192341
0.000194783
0.000198808
0.000203406
0.00020789
0.000211847
0.000215056
0.000217398
0.00021882
0.000219346
0.000219086
0.000218236
0.000217057
0.000215845
0.000214857
0.000214227
0.000213961
0.000167256
0.000167422
0.000167879
0.000168791
0.000170339
0.00017266
0.000175748
0.000179384
0.000183129
0.000186417
0.000188739
0.000189835
0.000189773
0.000188886
0.000187711
0.000187062
0.000188084
0.000191239
0.000195853
0.000201237
0.000206788
0.000212045
0.000216678
0.000220468
0.000223294
0.000225136
0.000226073
0.000226281
0.000226013
0.000225555
0.000225151
0.000224939
0.000167887
0.000168042
0.000168446
0.000169228
0.000170537
0.000172492
0.000175113
0.000178243
0.000181538
0.000184518
0.000186709
0.000187798
0.00018773
0.00018671
0.000185164
0.000183784
0.000183691
0.000185639
0.000189361
0.000194427
0.000200343
0.00020658
0.000212621
0.000218018
0.000222451
0.000225766
0.000227968
0.000229201
0.000229699
0.000229743
0.000229605
0.000229487
0.000168081
0.000168226
0.000168588
0.000169264
0.000170368
0.000172002
0.000174198
0.000176854
0.000179711
0.00018238
0.000184451
0.000185615
0.000185757
0.000184991
0.00018365
0.000182299
0.000181876
0.000183129
0.000186029
0.000190396
0.000195955
0.000202315
0.000208975
0.000215384
0.000221033
0.000225566
0.000228835
0.000230899
0.000231977
0.000232371
0.0002324
0.000232333
0.000167991
0.000168123
0.000168446
0.000169031
0.000169966
0.000171329
0.000173152
0.000175368
0.00017779
0.000180124
0.000182048
0.000183303
0.000183774
0.00018353
0.000182824
0.000182093
0.00018202
0.000183173
0.00018562
0.000189355
0.000194291
0.000200218
0.000206774
0.000213472
0.00021976
0.00022514
0.000229285
0.000232105
0.000233736
0.000234466
0.00023465
0.000234624
0.000167847
0.000167949
0.000168206
0.000168684
0.000169456
0.000170579
0.000172077
0.0001739
0.000175921
0.000177937
0.000179732
0.000181133
0.000182059
0.000182554
0.00018279
0.000183059
0.000183755
0.000185207
0.000187516
0.000190796
0.000195095
0.000200355
0.000206368
0.000212781
0.000219131
0.000224895
0.00022962
0.000233049
0.000235184
0.000236246
0.000236591
0.000236608
0.000168065
0.000168095
0.000168215
0.000168509
0.00016906
0.000169928
0.000171129
0.000172626
0.000174342
0.000176163
0.000177977
0.00017969
0.000181247
0.000182656
0.000183994
0.000185403
0.000187001
0.000188897
0.000191218
0.000194161
0.00019787
0.000202396
0.000207658
0.000213436
0.000219394
0.000225088
0.000230042
0.000233872
0.000236418
0.000237789
0.000238301
0.000238364
0.000169242
0.000169142
0.00016902
0.000169001
0.000169222
0.000169777
0.000170702
0.000171985
0.000173588
0.000175466
0.000177564
0.000179819
0.000182162
0.000184541
0.000186937
0.00018937
0.000191746
0.00019402
0.000196352
0.000198996
0.000202147
0.000205926
0.000210349
0.000215312
0.000220598
0.000225869
0.000230705
0.000234684
0.000237509
0.000239143
0.000239817
0.000239933
0.000172003
0.000171721
0.000171273
0.000170852
0.00017067
0.000170901
0.000171632
0.000172883
0.000174636
0.000176854
0.000179473
0.000182398
0.000185513
0.000188704
0.000191889
0.000195016
0.000197871
0.000200328
0.000202579
0.000204906
0.000207523
0.00021058
0.000214149
0.000218214
0.000222665
0.000227277
0.000231718
0.000235586
0.000238518
0.00024034
0.000241161
0.000241335
0.000176808
0.00017633
0.000175584
0.000174838
0.00017437
0.000174426
0.000175152
0.000176579
0.000178674
0.000181353
0.000184499
0.000187959
0.000191575
0.000195208
0.00019875
0.000202128
0.000205095
0.000207498
0.000209546
0.000211521
0.000213626
0.000216012
0.000218772
0.000221941
0.000225489
0.000229294
0.000233131
0.000236661
0.00023951
0.000241413
0.000242349
0.000242582
0.000183871
0.000183255
0.000182424
0.000181687
0.000181288
0.000181472
0.000182398
0.000184085
0.000186471
0.000189431
0.0001928
0.000196399
0.000200061
0.000203653
0.00020708
0.000210277
0.000213015
0.000215155
0.000216893
0.000218486
0.000220109
0.000221893
0.00022393
0.000226274
0.000228936
0.000231875
0.000234968
0.000237971
0.000240552
0.000242404
0.000243398
0.000243683
0.00019325
0.000192656
0.00019214
0.000191889
0.000191964
0.000192515
0.000193671
0.000195461
0.000197828
0.000200649
0.000203763
0.000207006
0.000210235
0.000213343
0.000216259
0.000218938
0.000221196
0.000222922
0.000224282
0.000225482
0.000226661
0.000227923
0.000229342
0.000230969
0.000232833
0.000234932
0.000237221
0.000239561
0.000241704
0.000243357
0.000244326
0.000244645
0.000205043
0.00020475
0.000204958
0.000205446
0.000206076
0.000206919
0.00020809
0.000209655
0.0002116
0.000213841
0.000216264
0.000218746
0.000221183
0.000223501
0.000225653
0.00022761
0.000229244
0.000230476
0.000231428
0.000232246
0.000233029
0.000233848
0.000234755
0.000235788
0.000236974
0.000238326
0.000239837
0.00024145
0.00024302
0.000244325
0.000245162
0.000245476
0.000219603
0.00021989
0.000220729
0.000221571
0.000222339
0.000223105
0.000223967
0.000225001
0.000226228
0.000227613
0.000229093
0.000230598
0.000232065
0.000233452
0.000234732
0.000235889
0.00023685
0.00023757
0.000238119
0.000238583
0.00023902
0.000239469
0.00023996
0.000240515
0.000241151
0.000241879
0.000242703
0.000243608
0.000244533
0.000245359
0.000245942
0.000246191
0.000237458
0.000237719
0.000238194
0.000238604
0.000238946
0.000239253
0.000239567
0.000239922
0.000240332
0.00024079
0.000241278
0.000241773
0.000242254
0.000242707
0.000243124
0.0002435
0.000243811
0.000244044
0.00024422
0.000244368
0.000244506
0.000244647
0.0002448
0.000244971
0.000245167
0.000245391
0.000245645
0.000245926
0.000246221
0.000246497
0.000246708
0.00024681
)
;


// ************************************************************************* //
