/*--------------------------------*- C++ -*----------------------------------*\
| =========                 |                                                 |
| \\      /  F ield         | OpenFOAM: The Open Source CFD Toolbox           |
|  \\    /   O peration     | Version:  2212                                  |
|   \\  /    A nd           | Website:  www.openfoam.com                      |
|    \\/     M anipulation  |                                                 |
\*---------------------------------------------------------------------------*/
FoamFile
{
    version     2.0;
    format      ascii;
    arch        "LSB;label=64;scalar=64";
    class       volScalarField;
    location    "840";
    object      Gh2;
}
// * * * * * * * * * * * * * * * * * * * * * * * * * * * * * * * * * * * * * //

dimensions      [1 -3 0 0 0 0 0];

internalField   nonuniform List<scalar> 
1024
(
1.27275e-05
1.27255e-05
1.27209e-05
1.27126e-05
1.27e-05
1.26829e-05
1.2662e-05
1.26383e-05
1.26138e-05
1.25902e-05
1.25693e-05
1.25528e-05
1.25419e-05
1.25372e-05
1.25393e-05
1.25494e-05
1.2568e-05
1.25924e-05
1.26191e-05
1.2647e-05
1.26762e-05
1.27067e-05
1.27383e-05
1.27699e-05
1.27998e-05
1.28262e-05
1.28478e-05
1.28642e-05
1.28756e-05
1.28829e-05
1.28869e-05
1.28885e-05
1.27271e-05
1.27251e-05
1.27203e-05
1.27118e-05
1.26989e-05
1.26814e-05
1.26601e-05
1.26362e-05
1.26115e-05
1.25877e-05
1.25667e-05
1.25502e-05
1.25394e-05
1.25348e-05
1.2537e-05
1.25473e-05
1.2566e-05
1.25905e-05
1.26171e-05
1.2645e-05
1.26741e-05
1.27045e-05
1.2736e-05
1.27677e-05
1.27979e-05
1.28246e-05
1.28465e-05
1.28632e-05
1.28749e-05
1.28823e-05
1.28864e-05
1.28881e-05
1.27263e-05
1.27242e-05
1.27192e-05
1.27102e-05
1.26967e-05
1.26786e-05
1.26565e-05
1.26319e-05
1.26065e-05
1.2582e-05
1.25604e-05
1.25438e-05
1.25332e-05
1.2529e-05
1.25318e-05
1.25425e-05
1.25618e-05
1.25865e-05
1.26133e-05
1.26411e-05
1.267e-05
1.27001e-05
1.27314e-05
1.27632e-05
1.27936e-05
1.2821e-05
1.28436e-05
1.2861e-05
1.28732e-05
1.2881e-05
1.28853e-05
1.28871e-05
1.27249e-05
1.27228e-05
1.27175e-05
1.2708e-05
1.26938e-05
1.26747e-05
1.26515e-05
1.26255e-05
1.25985e-05
1.25722e-05
1.25491e-05
1.25319e-05
1.25217e-05
1.25184e-05
1.25224e-05
1.25345e-05
1.2555e-05
1.25806e-05
1.26078e-05
1.26357e-05
1.26643e-05
1.2694e-05
1.27248e-05
1.27564e-05
1.27872e-05
1.28154e-05
1.28391e-05
1.28575e-05
1.28705e-05
1.28789e-05
1.28835e-05
1.28853e-05
1.27231e-05
1.27209e-05
1.27153e-05
1.27053e-05
1.26902e-05
1.26699e-05
1.26451e-05
1.26169e-05
1.25871e-05
1.25577e-05
1.25319e-05
1.25133e-05
1.25035e-05
1.25018e-05
1.2508e-05
1.25226e-05
1.25456e-05
1.25732e-05
1.26014e-05
1.26296e-05
1.26579e-05
1.26869e-05
1.27171e-05
1.27483e-05
1.27793e-05
1.28081e-05
1.2833e-05
1.28527e-05
1.28668e-05
1.28758e-05
1.28808e-05
1.28828e-05
1.27208e-05
1.27185e-05
1.27128e-05
1.27023e-05
1.26864e-05
1.26646e-05
1.26375e-05
1.26061e-05
1.25721e-05
1.25379e-05
1.25079e-05
1.24872e-05
1.24776e-05
1.2478e-05
1.24877e-05
1.25065e-05
1.25338e-05
1.25647e-05
1.2595e-05
1.2624e-05
1.26522e-05
1.26805e-05
1.27096e-05
1.274e-05
1.27708e-05
1.28003e-05
1.28262e-05
1.28471e-05
1.28623e-05
1.28721e-05
1.28775e-05
1.28797e-05
1.27181e-05
1.27158e-05
1.27099e-05
1.26991e-05
1.26823e-05
1.26589e-05
1.26289e-05
1.25932e-05
1.25533e-05
1.25127e-05
1.24772e-05
1.24535e-05
1.24439e-05
1.24472e-05
1.24617e-05
1.24866e-05
1.25204e-05
1.25566e-05
1.25901e-05
1.26205e-05
1.26488e-05
1.26763e-05
1.27043e-05
1.27335e-05
1.27637e-05
1.27932e-05
1.28198e-05
1.28416e-05
1.28577e-05
1.28681e-05
1.28739e-05
1.28762e-05
1.27149e-05
1.27126e-05
1.27066e-05
1.26956e-05
1.26779e-05
1.26526e-05
1.26192e-05
1.25781e-05
1.2531e-05
1.24826e-05
1.24406e-05
1.24131e-05
1.24036e-05
1.24105e-05
1.24312e-05
1.24643e-05
1.25071e-05
1.25507e-05
1.25888e-05
1.26213e-05
1.26499e-05
1.26765e-05
1.27031e-05
1.27308e-05
1.27597e-05
1.27886e-05
1.28152e-05
1.28373e-05
1.28538e-05
1.28646e-05
1.28706e-05
1.2873e-05
1.27108e-05
1.27085e-05
1.27026e-05
1.26912e-05
1.26727e-05
1.26453e-05
1.26079e-05
1.25604e-05
1.25051e-05
1.24479e-05
1.23988e-05
1.23677e-05
1.23587e-05
1.23701e-05
1.23985e-05
1.2442e-05
1.24964e-05
1.25498e-05
1.25938e-05
1.26289e-05
1.26578e-05
1.26833e-05
1.2708e-05
1.27337e-05
1.27608e-05
1.27883e-05
1.28139e-05
1.28355e-05
1.28517e-05
1.28624e-05
1.28684e-05
1.28709e-05
1.27051e-05
1.27029e-05
1.2697e-05
1.26854e-05
1.26658e-05
1.2636e-05
1.2594e-05
1.25394e-05
1.24748e-05
1.24083e-05
1.23524e-05
1.23185e-05
1.23112e-05
1.23285e-05
1.23661e-05
1.24219e-05
1.2491e-05
1.25568e-05
1.26081e-05
1.26461e-05
1.26749e-05
1.26988e-05
1.27211e-05
1.27441e-05
1.27686e-05
1.27937e-05
1.28173e-05
1.28373e-05
1.28524e-05
1.28625e-05
1.28682e-05
1.28706e-05
1.26967e-05
1.26944e-05
1.26884e-05
1.26764e-05
1.26556e-05
1.26228e-05
1.25754e-05
1.25126e-05
1.24382e-05
1.23625e-05
1.23009e-05
1.22659e-05
1.22621e-05
1.22864e-05
1.23343e-05
1.24044e-05
1.24909e-05
1.25725e-05
1.26332e-05
1.26746e-05
1.27031e-05
1.27246e-05
1.27436e-05
1.27631e-05
1.27841e-05
1.28057e-05
1.28262e-05
1.28436e-05
1.28568e-05
1.28658e-05
1.2871e-05
1.28733e-05
1.2683e-05
1.26808e-05
1.26746e-05
1.26617e-05
1.2639e-05
1.26024e-05
1.25485e-05
1.24765e-05
1.23919e-05
1.23083e-05
1.2243e-05
1.22093e-05
1.22104e-05
1.22419e-05
1.22997e-05
1.23843e-05
1.24905e-05
1.25918e-05
1.26657e-05
1.27127e-05
1.27418e-05
1.27609e-05
1.2776e-05
1.27912e-05
1.28075e-05
1.28247e-05
1.2841e-05
1.28551e-05
1.28659e-05
1.28736e-05
1.28783e-05
1.28804e-05
1.26607e-05
1.26584e-05
1.26517e-05
1.26375e-05
1.26117e-05
1.25699e-05
1.25081e-05
1.24264e-05
1.23325e-05
1.22432e-05
1.21774e-05
1.2147e-05
1.21528e-05
1.21891e-05
1.2253e-05
1.23487e-05
1.24732e-05
1.25973e-05
1.26913e-05
1.27511e-05
1.27853e-05
1.28044e-05
1.28166e-05
1.28272e-05
1.28384e-05
1.28503e-05
1.2862e-05
1.28725e-05
1.28811e-05
1.28874e-05
1.28916e-05
1.28936e-05
1.26256e-05
1.2623e-05
1.26153e-05
1.25989e-05
1.25689e-05
1.25204e-05
1.24497e-05
1.23585e-05
1.22579e-05
1.21667e-05
1.21035e-05
1.2077e-05
1.20841e-05
1.21184e-05
1.21798e-05
1.2276e-05
1.2409e-05
1.25532e-05
1.26744e-05
1.27605e-05
1.28136e-05
1.28433e-05
1.28594e-05
1.28691e-05
1.28769e-05
1.28846e-05
1.28922e-05
1.28992e-05
1.29047e-05
1.29086e-05
1.29109e-05
1.29118e-05
1.25739e-05
1.2571e-05
1.25619e-05
1.25424e-05
1.25071e-05
1.24509e-05
1.23716e-05
1.22734e-05
1.21703e-05
1.20818e-05
1.20234e-05
1.19984e-05
1.20002e-05
1.20223e-05
1.20661e-05
1.21411e-05
1.22562e-05
1.23985e-05
1.25384e-05
1.26582e-05
1.2751e-05
1.28163e-05
1.28606e-05
1.28886e-05
1.29048e-05
1.29126e-05
1.29144e-05
1.29118e-05
1.29063e-05
1.29e-05
1.28946e-05
1.28917e-05
1.25061e-05
1.25026e-05
1.24919e-05
1.24693e-05
1.24292e-05
1.23672e-05
1.22832e-05
1.21841e-05
1.20846e-05
1.20025e-05
1.19485e-05
1.19216e-05
1.19129e-05
1.19151e-05
1.19265e-05
1.19522e-05
1.20025e-05
1.20833e-05
1.21834e-05
1.22887e-05
1.23878e-05
1.24734e-05
1.25447e-05
1.26002e-05
1.26391e-05
1.26627e-05
1.26723e-05
1.26704e-05
1.26611e-05
1.26492e-05
1.26391e-05
1.26335e-05
1.24432e-05
1.24396e-05
1.24288e-05
1.24063e-05
1.23671e-05
1.2308e-05
1.22295e-05
1.21384e-05
1.20474e-05
1.19708e-05
1.19185e-05
1.18903e-05
1.18785e-05
1.18728e-05
1.18648e-05
1.18469e-05
1.18175e-05
1.179e-05
1.17774e-05
1.17811e-05
1.17978e-05
1.18237e-05
1.18554e-05
1.18902e-05
1.19253e-05
1.19589e-05
1.19882e-05
1.2011e-05
1.20259e-05
1.20335e-05
1.20361e-05
1.20362e-05
1.24002e-05
1.23967e-05
1.23868e-05
1.23666e-05
1.23317e-05
1.22793e-05
1.22099e-05
1.21293e-05
1.20478e-05
1.19782e-05
1.19305e-05
1.19075e-05
1.19045e-05
1.19128e-05
1.19213e-05
1.19153e-05
1.18793e-05
1.18146e-05
1.17387e-05
1.1664e-05
1.15979e-05
1.15444e-05
1.15056e-05
1.14825e-05
1.14746e-05
1.14801e-05
1.14956e-05
1.15166e-05
1.1538e-05
1.15553e-05
1.15664e-05
1.1571e-05
1.23746e-05
1.23714e-05
1.23626e-05
1.2345e-05
1.2315e-05
1.227e-05
1.22099e-05
1.21392e-05
1.20664e-05
1.20026e-05
1.19578e-05
1.1937e-05
1.1939e-05
1.19576e-05
1.19832e-05
1.20012e-05
1.19907e-05
1.1942e-05
1.18665e-05
1.17768e-05
1.16838e-05
1.15957e-05
1.15181e-05
1.14548e-05
1.14075e-05
1.13766e-05
1.13608e-05
1.13572e-05
1.13616e-05
1.13692e-05
1.13759e-05
1.13795e-05
1.23611e-05
1.23581e-05
1.23504e-05
1.23353e-05
1.23099e-05
1.22717e-05
1.22205e-05
1.21592e-05
1.20945e-05
1.20359e-05
1.19926e-05
1.19709e-05
1.19718e-05
1.19918e-05
1.20232e-05
1.20538e-05
1.2063e-05
1.2036e-05
1.19767e-05
1.1893e-05
1.17942e-05
1.16896e-05
1.15885e-05
1.14983e-05
1.14244e-05
1.13691e-05
1.13323e-05
1.13114e-05
1.13027e-05
1.13015e-05
1.13034e-05
1.13052e-05
1.23562e-05
1.23535e-05
1.23465e-05
1.23335e-05
1.2312e-05
1.228e-05
1.22369e-05
1.21845e-05
1.2128e-05
1.2075e-05
1.20335e-05
1.20098e-05
1.20061e-05
1.20207e-05
1.20477e-05
1.20772e-05
1.2092e-05
1.20773e-05
1.20327e-05
1.19615e-05
1.18691e-05
1.17626e-05
1.1651e-05
1.15439e-05
1.14497e-05
1.13743e-05
1.13201e-05
1.12857e-05
1.12675e-05
1.12605e-05
1.12596e-05
1.12605e-05
1.23571e-05
1.23546e-05
1.23483e-05
1.2337e-05
1.23188e-05
1.22921e-05
1.22562e-05
1.22123e-05
1.21641e-05
1.21175e-05
1.20787e-05
1.20531e-05
1.20431e-05
1.20478e-05
1.2063e-05
1.20809e-05
1.2089e-05
1.20757e-05
1.20391e-05
1.1979e-05
1.18975e-05
1.17986e-05
1.16888e-05
1.15769e-05
1.14721e-05
1.13828e-05
1.13142e-05
1.12675e-05
1.12403e-05
1.1228e-05
1.12246e-05
1.12248e-05
1.23596e-05
1.23576e-05
1.23525e-05
1.23432e-05
1.2328e-05
1.23059e-05
1.22763e-05
1.22401e-05
1.21999e-05
1.21596e-05
1.21236e-05
1.20956e-05
1.20776e-05
1.2069e-05
1.2067e-05
1.20667e-05
1.20605e-05
1.20415e-05
1.20069e-05
1.19547e-05
1.18842e-05
1.17967e-05
1.16963e-05
1.15892e-05
1.14835e-05
1.13878e-05
1.13098e-05
1.12533e-05
1.1218e-05
1.12003e-05
1.11944e-05
1.11939e-05
1.23565e-05
1.23557e-05
1.2353e-05
1.23468e-05
1.23357e-05
1.23184e-05
1.22945e-05
1.22648e-05
1.22308e-05
1.21949e-05
1.21594e-05
1.21266e-05
1.20978e-05
1.20732e-05
1.20516e-05
1.20307e-05
1.2008e-05
1.19804e-05
1.1945e-05
1.18983e-05
1.18378e-05
1.17629e-05
1.16752e-05
1.15789e-05
1.14798e-05
1.13855e-05
1.13038e-05
1.12408e-05
1.1199e-05
1.11764e-05
1.11678e-05
1.11665e-05
1.23374e-05
1.23388e-05
1.23402e-05
1.23394e-05
1.23341e-05
1.23225e-05
1.23039e-05
1.22787e-05
1.22476e-05
1.22118e-05
1.21725e-05
1.21311e-05
1.20891e-05
1.20478e-05
1.20076e-05
1.19683e-05
1.19311e-05
1.18961e-05
1.18598e-05
1.18178e-05
1.17666e-05
1.17043e-05
1.16308e-05
1.15483e-05
1.14605e-05
1.13733e-05
1.12936e-05
1.12284e-05
1.11822e-05
1.11554e-05
1.11442e-05
1.11421e-05
1.22915e-05
1.2296e-05
1.2303e-05
1.23092e-05
1.23108e-05
1.2305e-05
1.22903e-05
1.22664e-05
1.22337e-05
1.2193e-05
1.21458e-05
1.20937e-05
1.2039e-05
1.19839e-05
1.19299e-05
1.1878e-05
1.18318e-05
1.17927e-05
1.17571e-05
1.17199e-05
1.16774e-05
1.16272e-05
1.15682e-05
1.15007e-05
1.14269e-05
1.13507e-05
1.12777e-05
1.12143e-05
1.11665e-05
1.11368e-05
1.11234e-05
1.11204e-05
1.22111e-05
1.22189e-05
1.2231e-05
1.22428e-05
1.22495e-05
1.2247e-05
1.22329e-05
1.22066e-05
1.21689e-05
1.21213e-05
1.20659e-05
1.20055e-05
1.19427e-05
1.18802e-05
1.18199e-05
1.17632e-05
1.17143e-05
1.16755e-05
1.16426e-05
1.16109e-05
1.15768e-05
1.15377e-05
1.14922e-05
1.14397e-05
1.1381e-05
1.13182e-05
1.12552e-05
1.11975e-05
1.11511e-05
1.11202e-05
1.1105e-05
1.11011e-05
1.20925e-05
1.21027e-05
1.21163e-05
1.21281e-05
1.21339e-05
1.21296e-05
1.21126e-05
1.20825e-05
1.20406e-05
1.19889e-05
1.19304e-05
1.18682e-05
1.1805e-05
1.17433e-05
1.16849e-05
1.1631e-05
1.15855e-05
1.15505e-05
1.15223e-05
1.14966e-05
1.14703e-05
1.14412e-05
1.14077e-05
1.1369e-05
1.1325e-05
1.12766e-05
1.12258e-05
1.11767e-05
1.11348e-05
1.11049e-05
1.10888e-05
1.10842e-05
1.1935e-05
1.19449e-05
1.19533e-05
1.1957e-05
1.19551e-05
1.1945e-05
1.19245e-05
1.18932e-05
1.18522e-05
1.18034e-05
1.17498e-05
1.16939e-05
1.16385e-05
1.15852e-05
1.15355e-05
1.14901e-05
1.14524e-05
1.14239e-05
1.14018e-05
1.13824e-05
1.13632e-05
1.13427e-05
1.13194e-05
1.12926e-05
1.12619e-05
1.12273e-05
1.11897e-05
1.11515e-05
1.11168e-05
1.10901e-05
1.10746e-05
1.10694e-05
1.17371e-05
1.17419e-05
1.17382e-05
1.17298e-05
1.17187e-05
1.1704e-05
1.16837e-05
1.16566e-05
1.16231e-05
1.15846e-05
1.1543e-05
1.15004e-05
1.14586e-05
1.14189e-05
1.13822e-05
1.1349e-05
1.13216e-05
1.13012e-05
1.12856e-05
1.12723e-05
1.12596e-05
1.12463e-05
1.12315e-05
1.12145e-05
1.11949e-05
1.11727e-05
1.11479e-05
1.11216e-05
1.10962e-05
1.10752e-05
1.10618e-05
1.10567e-05
1.14929e-05
1.14881e-05
1.14739e-05
1.14596e-05
1.14465e-05
1.14333e-05
1.14185e-05
1.14007e-05
1.13796e-05
1.13559e-05
1.13305e-05
1.13047e-05
1.12796e-05
1.12558e-05
1.1234e-05
1.12143e-05
1.11982e-05
1.11862e-05
1.11772e-05
1.11697e-05
1.11626e-05
1.11553e-05
1.11473e-05
1.11381e-05
1.11277e-05
1.11157e-05
1.11022e-05
1.10874e-05
1.10725e-05
1.10592e-05
1.10499e-05
1.10459e-05
1.11938e-05
1.11895e-05
1.11815e-05
1.11745e-05
1.11687e-05
1.11635e-05
1.11581e-05
1.1152e-05
1.1145e-05
1.11371e-05
1.11288e-05
1.11203e-05
1.1112e-05
1.11043e-05
1.10972e-05
1.10908e-05
1.10855e-05
1.10817e-05
1.10788e-05
1.10764e-05
1.10741e-05
1.10718e-05
1.10693e-05
1.10665e-05
1.10633e-05
1.10596e-05
1.10555e-05
1.10509e-05
1.10461e-05
1.10417e-05
1.10383e-05
1.10367e-05
)
;

boundaryField
{
    movingWall
    {
        type            fixedValue;
        value           uniform 1.1032e-05;
    }
    fixedWalls
    {
        type            zeroGradient;
    }
    floor
    {
        type            zeroGradient;
    }
    frontAndBack
    {
        type            empty;
    }
}


// ************************************************************************* //
