/*--------------------------------*- C++ -*----------------------------------*\
| =========                 |                                                 |
| \\      /  F ield         | OpenFOAM: The Open Source CFD Toolbox           |
|  \\    /   O peration     | Version:  2212                                  |
|   \\  /    A nd           | Website:  www.openfoam.com                      |
|    \\/     M anipulation  |                                                 |
\*---------------------------------------------------------------------------*/
FoamFile
{
    version     2.0;
    format      ascii;
    arch        "LSB;label=64;scalar=64";
    class       volScalarField;
    location    "840";
    object      Xli;
}
// * * * * * * * * * * * * * * * * * * * * * * * * * * * * * * * * * * * * * //

dimensions      [1 -3 0 0 0 0 0];

internalField   nonuniform List<scalar> 
1024
(
0.0423674
0.0423688
0.0423721
0.0423781
0.0423872
0.0423995
0.0424147
0.0424318
0.0424495
0.0424666
0.0424817
0.0424936
0.0425015
0.042505
0.0425035
0.0424962
0.0424828
0.0424652
0.042446
0.0424257
0.0424047
0.0423827
0.0423598
0.042337
0.0423154
0.0422963
0.0422807
0.0422689
0.0422607
0.0422554
0.0422525
0.0422513
0.0423676
0.0423691
0.0423725
0.0423787
0.042388
0.0424006
0.0424161
0.0424333
0.0424512
0.0424684
0.0424836
0.0424955
0.0425033
0.0425067
0.0425051
0.0424977
0.0424842
0.0424666
0.0424474
0.0424272
0.0424062
0.0423842
0.0423615
0.0423386
0.0423168
0.0422975
0.0422817
0.0422696
0.0422612
0.0422558
0.0422528
0.0422516
0.0423682
0.0423697
0.0423734
0.0423798
0.0423896
0.0424027
0.0424186
0.0424364
0.0424548
0.0424725
0.0424882
0.0425002
0.0425078
0.0425109
0.0425089
0.0425012
0.0424873
0.0424695
0.0424501
0.04243
0.0424092
0.0423874
0.0423648
0.0423419
0.0423199
0.0423001
0.0422838
0.0422712
0.0422624
0.0422568
0.0422536
0.0422524
0.0423692
0.0423708
0.0423746
0.0423814
0.0423917
0.0424055
0.0424223
0.0424411
0.0424606
0.0424796
0.0424963
0.0425088
0.0425162
0.0425185
0.0425157
0.042507
0.0424922
0.0424737
0.0424541
0.0424339
0.0424133
0.0423919
0.0423696
0.0423467
0.0423245
0.0423042
0.042287
0.0422738
0.0422643
0.0422583
0.042255
0.0422537
0.0423705
0.0423722
0.0423762
0.0423834
0.0423943
0.042409
0.0424269
0.0424473
0.0424688
0.0424901
0.0425088
0.0425222
0.0425293
0.0425306
0.0425262
0.0425156
0.042499
0.0424791
0.0424587
0.0424383
0.0424179
0.0423969
0.0423751
0.0423526
0.0423303
0.0423094
0.0422914
0.0422772
0.0422671
0.0422605
0.0422569
0.0422555
0.0423722
0.0423738
0.042378
0.0423855
0.0423971
0.0424128
0.0424324
0.0424551
0.0424797
0.0425044
0.0425261
0.0425411
0.0425481
0.0425478
0.0425409
0.0425273
0.0425076
0.0424853
0.0424634
0.0424424
0.042422
0.0424016
0.0423805
0.0423586
0.0423363
0.0423151
0.0422963
0.0422813
0.0422703
0.0422632
0.0422593
0.0422577
0.0423741
0.0423758
0.0423801
0.0423879
0.0424
0.0424169
0.0424386
0.0424644
0.0424933
0.0425226
0.0425483
0.0425655
0.0425725
0.0425701
0.0425597
0.0425417
0.0425173
0.0424912
0.042467
0.042445
0.0424245
0.0424046
0.0423844
0.0423633
0.0423415
0.0423202
0.042301
0.0422852
0.0422736
0.0422661
0.0422619
0.0422602
0.0423765
0.0423782
0.0423824
0.0423904
0.0424032
0.0424215
0.0424456
0.0424754
0.0425094
0.0425444
0.0425749
0.0425947
0.0426017
0.0425967
0.0425818
0.042558
0.042527
0.0424955
0.042468
0.0424445
0.0424238
0.0424045
0.0423853
0.0423653
0.0423444
0.0423235
0.0423043
0.0422883
0.0422764
0.0422686
0.0422643
0.0422625
0.0423794
0.0423811
0.0423854
0.0423936
0.0424069
0.0424268
0.0424538
0.0424881
0.0425281
0.0425695
0.0426051
0.0426276
0.0426342
0.042626
0.0426055
0.0425742
0.0425349
0.0424962
0.0424644
0.042439
0.0424181
0.0423997
0.0423818
0.0423632
0.0423436
0.0423237
0.0423052
0.0422896
0.0422779
0.0422702
0.0422658
0.0422641
0.0423835
0.0423851
0.0423894
0.0423978
0.0424119
0.0424335
0.0424639
0.0425034
0.0425501
0.0425982
0.0426387
0.0426633
0.0426686
0.0426562
0.0426291
0.0425888
0.0425389
0.0424913
0.0424542
0.0424267
0.0424058
0.0423885
0.0423724
0.0423557
0.042338
0.0423198
0.0423028
0.0422883
0.0422774
0.0422701
0.042266
0.0422643
0.0423897
0.0423912
0.0423956
0.0424043
0.0424194
0.042443
0.0424773
0.0425227
0.0425766
0.0426313
0.042676
0.0427014
0.0427042
0.0426867
0.0426522
0.0426016
0.0425391
0.0424801
0.0424361
0.0424062
0.0423854
0.0423699
0.0423561
0.042342
0.0423268
0.0423112
0.0422964
0.0422838
0.0422742
0.0422678
0.042264
0.0422623
0.0423995
0.0424011
0.0424056
0.0424149
0.0424313
0.0424578
0.0424968
0.0425488
0.04261
0.0426706
0.0427179
0.0427424
0.0427417
0.042719
0.0426774
0.0426163
0.0425395
0.0424663
0.0424127
0.0423786
0.0423576
0.0423437
0.0423327
0.0423217
0.0423099
0.0422975
0.0422857
0.0422755
0.0422677
0.0422622
0.0422588
0.0422572
0.0424156
0.0424173
0.0424222
0.0424324
0.042451
0.0424813
0.042526
0.0425851
0.042653
0.0427177
0.0427654
0.0427875
0.0427834
0.0427574
0.0427113
0.0426422
0.0425522
0.0424624
0.0423943
0.0423509
0.0423261
0.0423123
0.0423034
0.0422957
0.0422876
0.042279
0.0422705
0.0422629
0.0422567
0.0422521
0.0422492
0.0422477
0.042441
0.0424429
0.0424484
0.0424603
0.042482
0.0425171
0.0425682
0.0426342
0.042707
0.042773
0.0428189
0.0428382
0.0428333
0.0428086
0.0427644
0.0426949
0.0425987
0.0424944
0.0424066
0.0423442
0.0423057
0.0422842
0.0422725
0.0422654
0.0422598
0.0422542
0.0422487
0.0422437
0.0422397
0.0422369
0.0422352
0.0422346
0.0424784
0.0424805
0.042487
0.0425012
0.0425267
0.0425673
0.0426247
0.0426957
0.0427704
0.0428345
0.0428768
0.0428951
0.042894
0.0428782
0.0428467
0.0427926
0.0427094
0.0426065
0.0425052
0.0424184
0.0423511
0.0423038
0.0422718
0.0422514
0.0422397
0.042234
0.0422327
0.0422347
0.0422386
0.0422432
0.0422471
0.0422493
0.0425273
0.0425299
0.0425376
0.042554
0.042583
0.0426278
0.0426886
0.0427603
0.0428323
0.0428918
0.042931
0.0429506
0.0429571
0.0429557
0.0429477
0.0429293
0.0428931
0.0428348
0.0427624
0.0426862
0.0426144
0.0425524
0.0425007
0.0424605
0.0424323
0.0424152
0.0424083
0.0424096
0.0424163
0.042425
0.0424323
0.0424364
0.0425728
0.0425754
0.0425832
0.0425995
0.0426278
0.0426706
0.0427274
0.0427933
0.0428592
0.0429146
0.0429525
0.042973
0.0429817
0.042986
0.0429921
0.0430053
0.0430269
0.0430472
0.0430566
0.0430541
0.043042
0.0430233
0.0430004
0.0429752
0.0429498
0.0429254
0.0429041
0.0428876
0.0428768
0.0428712
0.0428694
0.0428693
0.0426039
0.0426064
0.0426135
0.0426282
0.0426534
0.0426913
0.0427415
0.0427998
0.0428587
0.042909
0.0429436
0.0429603
0.0429625
0.0429566
0.0429507
0.0429553
0.0429817
0.043029
0.0430844
0.0431388
0.0431869
0.0432259
0.0432542
0.043271
0.0432768
0.0432728
0.0432616
0.0432463
0.0432308
0.0432182
0.0432101
0.0432068
0.0426224
0.0426247
0.042631
0.0426437
0.0426654
0.042698
0.0427414
0.0427925
0.0428452
0.0428912
0.0429236
0.0429387
0.0429372
0.0429238
0.0429054
0.0428926
0.0429006
0.0429363
0.0429914
0.0430567
0.0431244
0.0431886
0.0432451
0.0432913
0.0433257
0.0433482
0.0433596
0.0433622
0.043359
0.0433535
0.0433486
0.043346
0.0426321
0.0426342
0.0426398
0.0426507
0.0426691
0.0426967
0.0427337
0.042778
0.0428247
0.0428671
0.0428983
0.042914
0.0429133
0.0428989
0.0428762
0.0428542
0.0428478
0.0428678
0.0429111
0.0429721
0.0430442
0.0431203
0.043194
0.0432597
0.0433135
0.0433537
0.0433806
0.0433957
0.0434021
0.0434029
0.0434015
0.0434002
0.0426355
0.0426375
0.0426426
0.042652
0.0426675
0.0426906
0.0427218
0.0427596
0.0428004
0.0428387
0.0428686
0.0428858
0.0428884
0.0428778
0.0428583
0.0428371
0.0428267
0.0428377
0.0428703
0.0429222
0.0429896
0.0430672
0.0431485
0.0432265
0.0432951
0.04335
0.0433895
0.0434146
0.0434279
0.0434329
0.0434335
0.0434329
0.0426349
0.0426367
0.0426412
0.0426494
0.0426626
0.0426819
0.0427078
0.0427395
0.0427743
0.0428079
0.0428359
0.0428544
0.0428616
0.0428581
0.0428473
0.0428345
0.0428288
0.0428387
0.0428657
0.0429095
0.0429689
0.043041
0.0431209
0.0432025
0.0432788
0.0433439
0.0433939
0.0434279
0.0434477
0.0434567
0.0434592
0.043459
0.042633
0.0426345
0.0426382
0.0426449
0.0426559
0.0426718
0.0426932
0.0427193
0.0427484
0.0427775
0.0428035
0.0428236
0.0428367
0.0428429
0.0428445
0.0428449
0.0428496
0.0428637
0.0428891
0.0429272
0.0429786
0.0430424
0.0431155
0.0431935
0.0432706
0.0433402
0.0433971
0.0434383
0.043464
0.0434769
0.0434812
0.0434816
0.0426353
0.0426359
0.0426379
0.0426423
0.0426503
0.0426628
0.04268
0.0427015
0.0427261
0.042752
0.0427776
0.0428013
0.0428222
0.0428401
0.0428559
0.0428712
0.042888
0.0429082
0.0429341
0.0429683
0.0430124
0.043067
0.0431309
0.043201
0.0432733
0.043342
0.0434016
0.0434475
0.0434779
0.0434944
0.0435007
0.0435016
0.0426493
0.0426483
0.0426472
0.0426477
0.0426515
0.0426599
0.0426733
0.0426915
0.042714
0.0427399
0.0427684
0.0427984
0.0428288
0.0428589
0.0428882
0.0429169
0.042944
0.0429696
0.0429962
0.0430269
0.0430643
0.0431097
0.0431632
0.0432234
0.0432873
0.0433509
0.043409
0.0434566
0.0434902
0.0435098
0.0435179
0.0435194
0.0426827
0.0426794
0.0426743
0.0426698
0.0426685
0.0426727
0.0426833
0.0427006
0.0427243
0.0427538
0.0427881
0.0428259
0.0428656
0.0429057
0.042945
0.0429828
0.0430165
0.0430451
0.0430711
0.0430983
0.0431292
0.0431659
0.0432089
0.043258
0.0433118
0.0433674
0.0434206
0.0434668
0.0435017
0.0435233
0.0435331
0.0435353
0.0427413
0.0427356
0.0427268
0.0427182
0.0427132
0.042715
0.0427252
0.0427442
0.0427716
0.0428061
0.0428464
0.0428903
0.042936
0.0429814
0.0430253
0.0430666
0.0431022
0.0431306
0.0431546
0.0431777
0.0432026
0.0432311
0.0432643
0.0433025
0.0433453
0.0433911
0.0434371
0.0434791
0.0435129
0.0435355
0.0435466
0.0435494
0.0428276
0.0428202
0.0428103
0.0428017
0.0427974
0.0428005
0.0428129
0.0428347
0.0428651
0.0429027
0.0429452
0.0429905
0.0430364
0.0430813
0.0431238
0.043163
0.0431962
0.0432217
0.0432423
0.043261
0.0432802
0.0433015
0.0433259
0.0433541
0.0433862
0.0434215
0.0434585
0.0434943
0.0435248
0.0435467
0.0435584
0.0435618
0.0429423
0.0429351
0.042929
0.0429263
0.0429277
0.042935
0.0429499
0.0429726
0.0430024
0.0430379
0.0430769
0.0431175
0.0431579
0.0431966
0.0432328
0.0432658
0.0432933
0.043314
0.0433302
0.0433444
0.0433583
0.0433733
0.0433903
0.0434098
0.0434322
0.0434574
0.0434848
0.0435127
0.043538
0.0435575
0.0435688
0.0435726
0.0430865
0.043083
0.0430856
0.0430918
0.0430998
0.0431105
0.0431253
0.043145
0.0431693
0.0431974
0.0432276
0.0432586
0.043289
0.0433179
0.0433446
0.0433687
0.0433887
0.0434036
0.0434149
0.0434246
0.0434339
0.0434436
0.0434544
0.0434668
0.0434811
0.0434973
0.0435154
0.0435345
0.0435531
0.0435684
0.0435782
0.0435819
0.0432643
0.0432678
0.0432781
0.0432885
0.0432981
0.0433077
0.0433185
0.0433314
0.0433467
0.043364
0.0433825
0.0434012
0.0434195
0.0434368
0.0434527
0.043467
0.0434787
0.0434874
0.043494
0.0434995
0.0435047
0.04351
0.0435159
0.0435225
0.0435302
0.0435389
0.0435487
0.0435595
0.0435704
0.0435801
0.0435869
0.0435898
0.0434821
0.0434853
0.0434911
0.0434962
0.0435004
0.0435042
0.0435081
0.0435126
0.0435177
0.0435234
0.0435295
0.0435356
0.0435416
0.0435473
0.0435525
0.0435571
0.0435609
0.0435637
0.0435659
0.0435676
0.0435692
0.0435709
0.0435727
0.0435748
0.0435771
0.0435798
0.0435829
0.0435862
0.0435897
0.0435929
0.0435954
0.0435966
)
;

boundaryField
{
    movingWall
    {
        type            fixedValue;
        value           uniform 0.0436;
    }
    fixedWalls
    {
        type            zeroGradient;
    }
    floor
    {
        type            zeroGradient;
    }
    frontAndBack
    {
        type            empty;
    }
}


// ************************************************************************* //
