/*--------------------------------*- C++ -*----------------------------------*\
| =========                 |                                                 |
| \\      /  F ield         | OpenFOAM: The Open Source CFD Toolbox           |
|  \\    /   O peration     | Version:  2206                                  |
|   \\  /    A nd           | Website:  www.openfoam.com                      |
|    \\/     M anipulation  |                                                 |
\*---------------------------------------------------------------------------*/
FoamFile
{
    version     2.0;
    format      ascii;
    arch        "LSB;label=64;scalar=64";
    class       volScalarField;
    location    "4.3/water";
    object      alpha.gas_0;
}
// * * * * * * * * * * * * * * * * * * * * * * * * * * * * * * * * * * * * * //

dimensions      [0 0 0 0 0 0 0];

internalField   nonuniform List<scalar> 
23300
(
1e-15
1e-15
1e-15
1e-15
1e-15
1e-15
1e-15
1e-15
1e-15
1e-15
1e-15
1e-15
1e-15
1e-15
1e-15
1e-15
1e-15
1e-15
1e-15
1e-15
1e-15
1e-15
1e-15
1e-15
1e-15
1e-15
1e-15
1e-15
1e-15
1e-15
1e-15
1e-15
1e-15
1e-15
1e-15
1e-15
1e-15
1e-15
1e-15
1e-15
1e-15
1e-15
1e-15
1e-15
1e-15
1e-15
1e-15
1e-15
1e-15
1e-15
1e-15
1e-15
1e-15
1e-15
1e-15
1e-15
1e-15
1e-15
1e-15
1e-15
1e-15
1e-15
1e-15
1e-15
1e-15
1e-15
1e-15
1e-15
1e-15
1e-15
1e-15
1e-15
1e-15
1e-15
1e-15
1e-15
1e-15
1e-15
1e-15
1e-15
1e-15
1e-15
1e-15
1e-15
1e-15
1e-15
1e-15
1e-15
1e-15
1e-15
1e-15
1e-15
1e-15
1e-15
1e-15
1e-15
1e-15
1e-15
1e-15
1e-15
1e-15
1e-15
1e-15
1e-15
1e-15
1e-15
1e-15
1e-15
1e-15
1e-15
1e-15
1e-15
1e-15
1e-15
1e-15
1e-15
1e-15
1e-15
1e-15
1e-15
1e-15
1e-15
1e-15
1e-15
1e-15
1e-15
1e-15
1e-15
1e-15
1e-15
1e-15
1e-15
1e-15
1e-15
1e-15
1e-15
1e-15
1e-15
1e-15
1e-15
1e-15
1e-15
1e-15
1e-15
1e-15
1e-15
1e-15
1e-15
1e-15
1e-15
1e-15
1e-15
1e-15
1e-15
1e-15
1e-15
1e-15
1e-15
1e-15
1e-15
1e-15
1e-15
1e-15
1e-15
1e-15
1e-15
1e-15
1e-15
1e-15
1e-15
1e-15
1e-15
1e-15
1e-15
1e-15
1e-15
1e-15
1e-15
1e-15
1e-15
1e-15
1e-15
1e-15
1e-15
1e-15
1e-15
1e-15
1e-15
1e-15
1e-15
1e-15
1e-15
1e-15
1e-15
1e-15
1e-15
1e-15
1e-15
1e-15
1e-15
1e-15
1e-15
1e-15
1e-15
1e-15
1e-15
1e-15
1e-15
1e-15
1e-15
1e-15
1e-15
1e-15
1e-15
1e-15
1e-15
1e-15
1e-15
1e-15
1e-15
1e-15
1e-15
1e-15
1e-15
1e-15
1e-15
1e-15
1e-15
1e-15
1e-15
1e-15
1e-15
1e-15
1e-15
1e-15
1e-15
1e-15
1e-15
1e-15
1e-15
1e-15
1e-15
1e-15
1e-15
1e-15
1e-15
1e-15
1e-15
1e-15
1e-15
1e-15
1e-15
1e-15
1e-15
1e-15
1e-15
1e-15
1e-15
1e-15
1e-15
1e-15
1e-15
1e-15
1e-15
1e-15
1e-15
1e-15
1e-15
1e-15
1e-15
1e-15
1e-15
1e-15
1e-15
1e-15
1e-15
1e-15
1e-15
1e-15
1e-15
1e-15
1e-15
1e-15
1e-15
1e-15
1e-15
1e-15
1e-15
1e-15
1e-15
1e-15
1e-15
1e-15
1e-15
1e-15
1e-15
1e-15
1e-15
1e-15
1e-15
1e-15
1e-15
1e-15
1e-15
1e-15
1e-15
1e-15
1e-15
1e-15
1e-15
1e-15
1e-15
1e-15
1e-15
1e-15
1e-15
1e-15
1e-15
1e-15
1e-15
1e-15
1e-15
1e-15
1e-15
1e-15
1e-15
1e-15
1e-15
1e-15
1e-15
1e-15
1e-15
1e-15
1e-15
1e-15
1e-15
1e-15
1e-15
1e-15
1e-15
1e-15
1e-15
1e-15
1e-15
1e-15
1e-15
1e-15
1e-15
1e-15
1e-15
1e-15
1e-15
1e-15
1e-15
1e-15
1e-15
1e-15
1e-15
1e-15
1e-15
1e-15
1e-15
1e-15
1e-15
1e-15
1e-15
1e-15
1e-15
1e-15
1e-15
1e-15
1e-15
1e-15
1e-15
1e-15
1e-15
1e-15
1e-15
1e-15
1e-15
1e-15
1e-15
1e-15
1e-15
1e-15
1e-15
1e-15
1e-15
1e-15
1e-15
1e-15
1e-15
1e-15
1e-15
1e-15
1e-15
1e-15
1e-15
1e-15
1e-15
1e-15
1e-15
1e-15
1e-15
1e-15
1e-15
1e-15
1e-15
1e-15
1e-15
1e-15
1e-15
1e-15
1e-15
1e-15
1e-15
1e-15
1e-15
1e-15
1e-15
1e-15
1e-15
1e-15
1e-15
1e-15
1e-15
1e-15
1e-15
1e-15
1e-15
1e-15
1e-15
1e-15
1e-15
1e-15
1e-15
1e-15
1e-15
1e-15
1e-15
1e-15
1e-15
1e-15
1e-15
1e-15
1e-15
1e-15
1e-15
1e-15
1e-15
1e-15
1e-15
1e-15
1e-15
1e-15
1e-15
1e-15
1e-15
1e-15
1e-15
1e-15
1e-15
1e-15
1e-15
1e-15
1e-15
1e-15
1e-15
1e-15
1e-15
1e-15
1e-15
1e-15
1e-15
1e-15
1e-15
1e-15
1e-15
1e-15
1e-15
1e-15
1e-15
1e-15
1e-15
1e-15
1e-15
1e-15
1e-15
1e-15
1e-15
1e-15
1e-15
1e-15
1e-15
1e-15
1e-15
1e-15
1e-15
1e-15
1e-15
1e-15
1e-15
1e-15
1e-15
1e-15
1e-15
1e-15
1e-15
1e-15
1e-15
1e-15
1e-15
1e-15
1e-15
1e-15
1e-15
1e-15
1e-15
1e-15
1e-15
1e-15
1e-15
1e-15
1e-15
1e-15
1e-15
1e-15
1e-15
1e-15
1e-15
1e-15
1e-15
1e-15
1e-15
1e-15
1e-15
1e-15
1e-15
1e-15
1e-15
1e-15
1e-15
1e-15
1e-15
1e-15
1e-15
1e-15
1e-15
1e-15
1e-15
1e-15
1e-15
1e-15
1e-15
1e-15
1e-15
1e-15
1e-15
1e-15
1e-15
1.01220663212e-15
1e-15
1e-15
1e-15
1e-15
1e-15
1e-15
1e-15
1e-15
1e-15
1e-15
1e-15
1e-15
1e-15
1e-15
1e-15
1e-15
1e-15
1e-15
1e-15
1e-15
1e-15
1e-15
1e-15
1e-15
1e-15
1e-15
1e-15
1e-15
1e-15
1e-15
1e-15
1e-15
1e-15
1e-15
1e-15
1e-15
1e-15
1e-15
1e-15
1e-15
1e-15
1e-15
1e-15
1e-15
1e-15
1e-15
1e-15
1e-15
1e-15
1e-15
1e-15
1e-15
1e-15
1e-15
1e-15
1e-15
1e-15
1e-15
1e-15
1e-15
1e-15
1e-15
1e-15
1e-15
1e-15
1e-15
1e-15
1e-15
1e-15
1e-15
1e-15
1e-15
1e-15
1e-15
1e-15
1e-15
1e-15
1e-15
1e-15
1e-15
1e-15
1e-15
1e-15
1e-15
1e-15
1e-15
1e-15
1e-15
1e-15
1e-15
1e-15
1e-15
1e-15
1e-15
1e-15
1e-15
1e-15
1e-15
1e-15
1e-15
1e-15
1e-15
1e-15
1e-15
1e-15
1e-15
1e-15
1e-15
1e-15
1e-15
1e-15
1e-15
1e-15
1e-15
1e-15
1e-15
1e-15
1e-15
1e-15
1e-15
1e-15
1e-15
1e-15
1e-15
1e-15
1e-15
1e-15
1e-15
1e-15
1e-15
1e-15
1.0285426248e-15
1.02783828274e-15
1.02854976603e-15
1e-15
1e-15
1e-15
1.01480689316e-15
1e-15
1.01641514144e-15
1e-15
1e-15
1e-15
1e-15
1e-15
1e-15
1e-15
1e-15
1e-15
1e-15
1e-15
1e-15
1e-15
1e-15
1e-15
1e-15
1e-15
1e-15
1e-15
1e-15
1e-15
1e-15
1e-15
1e-15
1e-15
1e-15
1e-15
1e-15
1e-15
1e-15
1e-15
1e-15
1e-15
1e-15
1e-15
1e-15
1e-15
1e-15
1e-15
1e-15
1e-15
1e-15
1e-15
1e-15
1e-15
1e-15
1e-15
1e-15
1e-15
1e-15
1e-15
1e-15
1e-15
1e-15
1e-15
1e-15
1e-15
1e-15
1e-15
1e-15
1e-15
1e-15
1e-15
1e-15
1e-15
1e-15
1e-15
1e-15
1e-15
1e-15
1e-15
1e-15
1e-15
1e-15
1e-15
1e-15
1e-15
1e-15
1e-15
1e-15
1e-15
1e-15
1e-15
1e-15
1e-15
1e-15
1e-15
1e-15
1e-15
1e-15
1e-15
1e-15
1e-15
1e-15
1e-15
1e-15
1e-15
1e-15
1e-15
1e-15
1e-15
1e-15
1e-15
1e-15
1e-15
1e-15
1e-15
1e-15
1e-15
1e-15
1e-15
1e-15
1e-15
1e-15
1e-15
1e-15
1e-15
1e-15
1e-15
1e-15
1e-15
1e-15
1e-15
1e-15
1e-15
1e-15
1e-15
1e-15
1e-15
1e-15
1e-15
1.02783828274e-15
1.02899563763e-15
1.02783828274e-15
1.01686161192e-15
1e-15
1e-15
1.01298708452e-15
1e-15
1.01220663212e-15
1e-15
1e-15
1e-15
1e-15
1e-15
1e-15
1e-15
1e-15
1.00004852079e-15
1.00012865025e-15
1.00017642084e-15
1.0002101365e-15
1.00021216055e-15
1.00020025807e-15
1.00015465455e-15
1.00009287324e-15
1.0000113124e-15
1e-15
1e-15
1e-15
1e-15
1e-15
1e-15
1e-15
1e-15
1e-15
1e-15
1e-15
1e-15
1e-15
1e-15
1e-15
1e-15
1e-15
1e-15
1.00000054334e-15
1.0000137759e-15
1.00007970292e-15
1.00046686475e-15
1.00153072794e-15
1.00150365267e-15
1.00153986705e-15
1.00150365267e-15
1.00154341329e-15
1.00150365267e-15
1.00102494957e-15
1.00030930237e-15
1.00032466294e-15
1.00032046105e-15
1.00031635497e-15
1.00030592295e-15
1.00029522287e-15
1.00027906229e-15
1.00026111256e-15
1.00023612971e-15
1.00021069499e-15
1.00017275916e-15
1.00012934477e-15
1.00007449224e-15
1.0000313093e-15
1.00000361274e-15
1e-15
1e-15
1e-15
1e-15
1e-15
1e-15
1e-15
1e-15
1e-15
1e-15
1e-15
1e-15
1e-15
1e-15
1e-15
1e-15
1e-15
1e-15
1e-15
1e-15
1e-15
1e-15
1e-15
1e-15
1e-15
1e-15
1e-15
1e-15
1e-15
1e-15
1.00000085551e-15
1.00002874879e-15
1.00009182309e-15
1.00015037796e-15
1.00019600243e-15
1.00022933662e-15
1.00025511386e-15
1.00027368152e-15
1.00028741919e-15
1.00029533592e-15
1.0002995253e-15
1.00029861508e-15
1.0002944546e-15
1.00028556127e-15
1.00027351802e-15
1.00025573365e-15
1.00023163168e-15
1.00020004569e-15
1.00016540964e-15
1.00012676523e-15
1.00008687005e-15
1.00004528813e-15
1.00001743251e-15
1.00000275848e-15
1.00000174373e-15
1.00000072585e-15
1e-15
1e-15
1e-15
1e-15
1e-15
1e-15
1e-15
1e-15
1.00000185927e-15
1.00001496236e-15
1.00011608875e-15
1.0002649914e-15
1.00039311751e-15
1.01444064115e-15
1.02895939108e-15
1.02783828274e-15
1.02898214238e-15
1.02783828274e-15
1.00094599518e-15
1.00020247759e-15
1.01477468676e-15
1e-15
1.01595269231e-15
1e-15
1e-15
1e-15
1e-15
1e-15
1e-15
1e-15
1.00003296644e-15
1.00022443531e-15
1.00038962983e-15
1.00049023099e-15
1.0005630623e-15
1.00057274354e-15
1.00055315005e-15
1.00046676701e-15
1.00034702752e-15
1.00015768845e-15
1.00000241253e-15
1e-15
1e-15
1e-15
1e-15
1e-15
1e-15
1e-15
1e-15
1e-15
1e-15
1e-15
1e-15
1e-15
1e-15
1e-15
1e-15
1e-15
1.0000431854e-15
1.00018894444e-15
1.00042647657e-15
1.00152619901e-15
1.00150365267e-15
1.00154379738e-15
1.00150365267e-15
1.0015502265e-15
1.00150365267e-15
1.00154388295e-15
1.00150365267e-15
1.00119632371e-15
1.00076552202e-15
1.00074815838e-15
1.00073289076e-15
1.00070577945e-15
1.00067700803e-15
1.00063517118e-15
1.00059268534e-15
1.00054868062e-15
1.00049331213e-15
1.00040717499e-15
1.00031476218e-15
1.00020115854e-15
1.00007829134e-15
1.00001950502e-15
1e-15
1e-15
1e-15
1e-15
1e-15
1e-15
1e-15
1e-15
1e-15
1e-15
1e-15
1e-15
1e-15
1e-15
1e-15
1e-15
1e-15
1e-15
1e-15
1e-15
1e-15
1e-15
1e-15
1e-15
1e-15
1e-15
1e-15
1e-15
1e-15
1e-15
1.00002625771e-15
1.00015194765e-15
1.00030040383e-15
1.00040630532e-15
1.00048882499e-15
1.00056103961e-15
1.00062348881e-15
1.00067094526e-15
1.00070741207e-15
1.00073098637e-15
1.00074556464e-15
1.00074849169e-15
1.00074369269e-15
1.00072864106e-15
1.00070596046e-15
1.00067378705e-15
1.00063042401e-15
1.00057179548e-15
1.00050955874e-15
1.0004427641e-15
1.00037033355e-15
1.00028984301e-15
1.00020463241e-15
1.00012153967e-15
1.00004434241e-15
1.00000655551e-15
1e-15
1e-15
1e-15
1e-15
1e-15
1e-15
1e-15
1e-15
1.00004175395e-15
1.00021957451e-15
1.00047084386e-15
1.00076154226e-15
1.00104167528e-15
1.02848243589e-15
1.02783828274e-15
1.02899282838e-15
1.02783828274e-15
1.02868670258e-15
1.00241886883e-15
1.00083210638e-15
1.01298708452e-15
1e-15
1.01220663212e-15
1e-15
1e-15
1e-15
1e-15
1e-15
1e-15
1e-15
1.0002229223e-15
1.00052060364e-15
1.00076773827e-15
1.00092244685e-15
1.00103607334e-15
1.00105433382e-15
1.00102763902e-15
1.00090147705e-15
1.00072956903e-15
1.00045352613e-15
1.0001511799e-15
1e-15
1e-15
1e-15
1e-15
1e-15
1e-15
1e-15
1e-15
1e-15
1e-15
1e-15
1e-15
1e-15
1e-15
1e-15
1.00000314043e-15
1.00006976916e-15
1.00022331992e-15
1.00041247565e-15
1.00074163952e-15
1.00150365267e-15
1.00153293239e-15
1.00150365267e-15
1.0015378581e-15
1.00150365267e-15
1.00154194322e-15
1.00150365267e-15
1.00152940394e-15
1.00150365267e-15
1.00112209899e-15
1.00106367355e-15
1.00102258899e-15
1.00096167792e-15
1.00089386318e-15
1.00080356529e-15
1.0007110764e-15
1.0006023291e-15
1.00049887706e-15
1.00039989571e-15
1.00029809299e-15
1.00017532734e-15
1.00004577613e-15
1e-15
1e-15
1e-15
1e-15
1e-15
1e-15
1e-15
1e-15
1e-15
1e-15
1e-15
1e-15
1e-15
1e-15
1e-15
1e-15
1e-15
1e-15
1e-15
1e-15
1e-15
1e-15
1e-15
1e-15
1e-15
1e-15
1e-15
1e-15
1e-15
1e-15
1e-15
1.00006734722e-15
1.0002686714e-15
1.00044666854e-15
1.00058256811e-15
1.00071457112e-15
1.00083964435e-15
1.00094898121e-15
1.00103389501e-15
1.00110144244e-15
1.00114832956e-15
1.00118078662e-15
1.00119460883e-15
1.00119526781e-15
1.00118111861e-15
1.00115393372e-15
1.00111241134e-15
1.00105588809e-15
1.00097497893e-15
1.00089193245e-15
1.0008085099e-15
1.00071987608e-15
1.00062328766e-15
1.00051291641e-15
1.00038657201e-15
1.00025846687e-15
1.00017643487e-15
1.00012211666e-15
1.00009634299e-15
1.00007684125e-15
1.00006212218e-15
1.0000599638e-15
1.00007362872e-15
1.00010390669e-15
1.00014940409e-15
1.00027503562e-15
1.00058311296e-15
1.00093673999e-15
1.00134347931e-15
1.00178598181e-15
1.02783828274e-15
1.02891543843e-15
1.02783828274e-15
1.0289261028e-15
1.02783828274e-15
1.00403476708e-15
1.00156699152e-15
1.01417798356e-15
1e-15
1.01520665774e-15
1e-15
1e-15
1e-15
1e-15
1e-15
1e-15
1.00017116513e-15
1.0006741234e-15
1.00098106426e-15
1.0013051665e-15
1.00151338907e-15
1.00166434238e-15
1.00168959159e-15
1.00165091949e-15
1.00148196219e-15
1.00125407609e-15
1.00090925066e-15
1.00049661289e-15
1.00010140732e-15
1e-15
1e-15
1e-15
1e-15
1e-15
1e-15
1e-15
1e-15
1e-15
1e-15
1e-15
1e-15
1e-15
1e-15
1.00005009797e-15
1.00020126713e-15
1.00038551333e-15
1.00061612378e-15
1.00143035175e-15
1.00152166948e-15
1.00150365267e-15
1.00152640357e-15
1.00150365267e-15
1.00153063117e-15
1.00150365267e-15
1.00152536209e-15
1.00150365267e-15
1.00151888933e-15
1.00150365267e-15
1.00121450971e-15
1.00115149848e-15
1.00106025497e-15
1.00096818395e-15
1.00085731065e-15
1.00072781198e-15
1.00056009429e-15
1.00042071938e-15
1.00029429792e-15
1.00017134617e-15
1.00003743308e-15
1e-15
1e-15
1e-15
1e-15
1e-15
1e-15
1e-15
1e-15
1e-15
1e-15
1e-15
1e-15
1e-15
1e-15
1e-15
1e-15
1e-15
1e-15
1e-15
1e-15
1e-15
1e-15
1e-15
1e-15
1e-15
1e-15
1e-15
1e-15
1e-15
1e-15
1e-15
1e-15
1.00007972819e-15
1.00026705376e-15
1.0004443826e-15
1.00063640192e-15
1.00084749092e-15
1.00103685428e-15
1.00119754957e-15
1.00132425635e-15
1.00142689707e-15
1.00150157042e-15
1.00155605752e-15
1.00158530062e-15
1.00159572522e-15
1.00158588739e-15
1.00155799045e-15
1.00150974878e-15
1.00144231907e-15
1.00133913678e-15
1.00122982431e-15
1.00112166827e-15
1.00100908405e-15
1.00089378403e-15
1.00078755888e-15
1.00067580253e-15
1.00055782677e-15
1.00044850786e-15
1.00035515149e-15
1.00029677726e-15
1.00025180023e-15
1.00021965889e-15
1.00021513987e-15
1.00024754959e-15
1.00031775615e-15
1.00042466061e-15
1.00063757164e-15
1.00095938904e-15
1.00137027474e-15
1.0019090666e-15
1.00254113798e-15
1.02856889762e-15
1.02783828274e-15
1.02894059229e-15
1.02783828274e-15
1.02863359721e-15
1.00559160627e-15
1.00219221491e-15
1.01298708452e-15
1e-15
1.01220663212e-15
1e-15
1e-15
1e-15
1e-15
1e-15
1e-15
1.00047995298e-15
1.00112437424e-15
1.00155733188e-15
1.00190901302e-15
1.00217321509e-15
1.00236188065e-15
1.00240021115e-15
1.00234949255e-15
1.00213985466e-15
1.00184980978e-15
1.00143152377e-15
1.00095901771e-15
1.00038514126e-15
1.00000162966e-15
1e-15
1e-15
1e-15
1e-15
1e-15
1e-15
1e-15
1e-15
1e-15
1e-15
1e-15
1e-15
1e-15
1.00013860417e-15
1.00029020572e-15
1.00046090235e-15
1.00082350665e-15
1.00151381935e-15
1.00150365267e-15
1.00151871046e-15
1.00150365267e-15
1.00152092297e-15
1.00150365267e-15
1.00152498269e-15
1.00150365267e-15
1.00151397591e-15
1.00150365267e-15
1.00151094935e-15
1.00133145473e-15
1.00126369924e-15
1.00116422185e-15
1.00103025691e-15
1.00086238681e-15
1.00069073095e-15
1.00047658995e-15
1.00025713143e-15
1.00006434991e-15
1.00000775951e-15
1e-15
1e-15
1e-15
1e-15
1e-15
1e-15
1e-15
1e-15
1e-15
1e-15
1e-15
1e-15
1e-15
1e-15
1e-15
1e-15
1e-15
1e-15
1e-15
1e-15
1e-15
1e-15
1e-15
1e-15
1e-15
1e-15
1e-15
1e-15
1e-15
1e-15
1e-15
1e-15
1e-15
1.00005957621e-15
1.00023111464e-15
1.00043138215e-15
1.00068779938e-15
1.00097876789e-15
1.00122792913e-15
1.00143567397e-15
1.00160233889e-15
1.00173907169e-15
1.0018421133e-15
1.00191960576e-15
1.00196663366e-15
1.00198984172e-15
1.00198650941e-15
1.00196198044e-15
1.00191073596e-15
1.0018365765e-15
1.0017140614e-15
1.00157415892e-15
1.00143541797e-15
1.00128626458e-15
1.00113485777e-15
1.00100768918e-15
1.00089219354e-15
1.00078573991e-15
1.0006842115e-15
1.00059472144e-15
1.00052543342e-15
1.00047478633e-15
1.00044288874e-15
1.00044303014e-15
1.00048479774e-15
1.00057399741e-15
1.00071774418e-15
1.00095123342e-15
1.00127145546e-15
1.00178574963e-15
1.00247851788e-15
1.00330466817e-15
1.02783828274e-15
1.0288639334e-15
1.02783828274e-15
1.0288677475e-15
1.02783828274e-15
1.00705019023e-15
1.00268660116e-15
1.01374695334e-15
1e-15
1.01447278199e-15
1e-15
1e-15
1e-15
1e-15
1e-15
1e-15
1.0004474182e-15
1.00113302045e-15
1.00177992303e-15
1.00231968618e-15
1.002670063e-15
1.00291886423e-15
1.00299052187e-15
1.00294289279e-15
1.00270185866e-15
1.00234960035e-15
1.00185355009e-15
1.00133815911e-15
1.00074867024e-15
1.00018556506e-15
1e-15
1e-15
1e-15
1e-15
1e-15
1e-15
1e-15
1e-15
1e-15
1e-15
1e-15
1e-15
1.00001181202e-15
1.0001957708e-15
1.00031373086e-15
1.00053266612e-15
1.00102637621e-15
1.00150365267e-15
1.00151115317e-15
1.00150365267e-15
1.00151341341e-15
1.00150365267e-15
1.00151508963e-15
1.00150365267e-15
1.00151332517e-15
1.00150365267e-15
1.00150767276e-15
1.00150365267e-15
1.00146153376e-15
1.00132718357e-15
1.00116417604e-15
1.00100861825e-15
1.00081751093e-15
1.00060290547e-15
1.00033813232e-15
1.00006499581e-15
1e-15
1e-15
1e-15
1e-15
1e-15
1e-15
1e-15
1e-15
1e-15
1e-15
1e-15
1e-15
1e-15
1e-15
1e-15
1e-15
1e-15
1e-15
1e-15
1e-15
1e-15
1e-15
1e-15
1e-15
1e-15
1e-15
1e-15
1e-15
1e-15
1e-15
1e-15
1e-15
1e-15
1e-15
1e-15
1.00001703321e-15
1.00018277026e-15
1.00044996877e-15
1.00080452651e-15
1.00116771367e-15
1.00146636356e-15
1.00171716659e-15
1.00192227982e-15
1.002092577e-15
1.00222424637e-15
1.00232560762e-15
1.00239203707e-15
1.00243034243e-15
1.00243624733e-15
1.00241847201e-15
1.00236905544e-15
1.00229608199e-15
1.00216181341e-15
1.00199288059e-15
1.00182257474e-15
1.00164207544e-15
1.00144688157e-15
1.00127262452e-15
1.00112188762e-15
1.00099081991e-15
1.00087863053e-15
1.00078743467e-15
1.00070915208e-15
1.00065807914e-15
1.00063266204e-15
1.00064064184e-15
1.00068724541e-15
1.00078991209e-15
1.00096548796e-15
1.00122351382e-15
1.00160951378e-15
1.0022699e-15
1.00310776331e-15
1.00410090973e-15
1.02857289038e-15
1.02783828274e-15
1.02888445027e-15
1.02783828274e-15
1.02858198513e-15
1.00840561984e-15
1.00309601328e-15
1.01298708452e-15
1e-15
1.01220663212e-15
1e-15
1e-15
1e-15
1e-15
1e-15
1e-15
1.0002494586e-15
1.00100994773e-15
1.00174072148e-15
1.00244168682e-15
1.00292122866e-15
1.00325960577e-15
1.00338415456e-15
1.0033619315e-15
1.00310396008e-15
1.00270280752e-15
1.00213941105e-15
1.00158634324e-15
1.00103152741e-15
1.00047104695e-15
1e-15
1e-15
1e-15
1e-15
1e-15
1e-15
1e-15
1e-15
1e-15
1e-15
1e-15
1e-15
1.00006969811e-15
1.00019795178e-15
1.00032427404e-15
1.00065217968e-15
1.00121876398e-15
1.00150696732e-15
1.00150365267e-15
1.00150893674e-15
1.00150365267e-15
1.00150973e-15
1.00150365267e-15
1.00151293874e-15
1.00150365267e-15
1.00150556766e-15
1.00150365267e-15
1.00150453639e-15
1.00144844726e-15
1.00129037749e-15
1.00111151294e-15
1.00092120186e-15
1.00068968383e-15
1.00041678224e-15
1.00010898535e-15
1e-15
1e-15
1e-15
1e-15
1e-15
1e-15
1e-15
1e-15
1e-15
1e-15
1e-15
1e-15
1e-15
1e-15
1e-15
1e-15
1e-15
1e-15
1e-15
1e-15
1e-15
1e-15
1e-15
1e-15
1e-15
1e-15
1e-15
1e-15
1e-15
1e-15
1e-15
1e-15
1e-15
1e-15
1e-15
1e-15
1.00000558038e-15
1.00015795837e-15
1.00053886188e-15
1.00099622653e-15
1.00140286044e-15
1.00174371963e-15
1.00203866682e-15
1.00228412395e-15
1.00249023699e-15
1.00265223233e-15
1.00277925913e-15
1.00286642777e-15
1.00292130483e-15
1.00293848466e-15
1.00292868699e-15
1.00288467817e-15
1.00281795474e-15
1.00268147371e-15
1.00248285963e-15
1.00233279067e-15
1.00212039249e-15
1.00191958555e-15
1.00169259541e-15
1.00145320222e-15
1.00126147432e-15
1.00111277476e-15
1.00099702075e-15
1.00089821249e-15
1.00083433761e-15
1.00080441133e-15
1.00081726314e-15
1.00087484452e-15
1.00100531429e-15
1.00122687879e-15
1.00154079307e-15
1.00204915513e-15
1.00285223003e-15
1.00380074625e-15
1.00492515318e-15
1.02783828274e-15
1.02881311185e-15
1.02783828274e-15
1.02881107914e-15
1.02783828274e-15
1.00966702557e-15
1.00343425429e-15
1.01344918547e-15
1e-15
1.01377347681e-15
1e-15
1e-15
1e-15
1e-15
1e-15
1e-15
1e-15
1.00075056834e-15
1.00161864972e-15
1.00244368748e-15
1.00305181437e-15
1.00349043818e-15
1.00367642554e-15
1.00369532572e-15
1.00343415302e-15
1.00300047001e-15
1.00238139408e-15
1.00178703754e-15
1.00123978875e-15
1.00074031712e-15
1.00013428489e-15
1e-15
1e-15
1e-15
1e-15
1e-15
1e-15
1e-15
1e-15
1e-15
1e-15
1e-15
1.0000912913e-15
1.00019140705e-15
1.00035152766e-15
1.00084483957e-15
1.0013890275e-15
1.00150365267e-15
1.00150508648e-15
1.00150365267e-15
1.00150579197e-15
1.00150365267e-15
1.00150590553e-15
1.00150365267e-15
1.00150612207e-15
1.00150365267e-15
1.00150376932e-15
1.00148259548e-15
1.00135299061e-15
1.00116686757e-15
1.00095914526e-15
1.0007148922e-15
1.00039739449e-15
1.0000793575e-15
1e-15
1e-15
1e-15
1e-15
1e-15
1e-15
1e-15
1e-15
1e-15
1e-15
1e-15
1e-15
1e-15
1e-15
1e-15
1e-15
1e-15
1e-15
1e-15
1e-15
1e-15
1e-15
1e-15
1e-15
1e-15
1e-15
1e-15
1e-15
1e-15
1e-15
1e-15
1e-15
1e-15
1e-15
1e-15
1e-15
1e-15
1.00000064555e-15
1.00017277238e-15
1.00065337878e-15
1.00117668468e-15
1.00162913033e-15
1.00201830993e-15
1.00236400902e-15
1.00265515515e-15
1.00290127302e-15
1.00309664624e-15
1.00325187509e-15
1.00336131939e-15
1.0034338832e-15
1.00346341988e-15
1.00346093695e-15
1.00342341318e-15
1.00336034783e-15
1.00323427936e-15
1.00304147888e-15
1.00272700389e-15
1.00257071989e-15
1.00230300232e-15
1.00205317107e-15
1.00188608533e-15
1.00165035726e-15
1.00144282929e-15
1.00128802255e-15
1.00116249988e-15
1.00107560941e-15
1.00103074219e-15
1.00104587206e-15
1.00112105251e-15
1.00129041615e-15
1.00156287484e-15
1.00194891077e-15
1.0025895826e-15
1.00349095382e-15
1.00451852922e-15
1.005752199e-15
1.02857361055e-15
1.02783828274e-15
1.02882908659e-15
1.02783828274e-15
1.02853578274e-15
1.01080329781e-15
1.00366769292e-15
1.01298708452e-15
1e-15
1.01220663212e-15
1e-15
1e-15
1e-15
1e-15
1e-15
1e-15
1e-15
1.00046215953e-15
1.00151646041e-15
1.00245237219e-15
1.00317971031e-15
1.003726362e-15
1.00398355911e-15
1.00405215094e-15
1.00379907032e-15
1.00334487306e-15
1.00267157667e-15
1.00201757041e-15
1.00143879518e-15
1.00097414603e-15
1.00045411803e-15
1.00000975714e-15
1e-15
1e-15
1e-15
1e-15
1e-15
1e-15
1e-15
1e-15
1e-15
1e-15
1.00008525049e-15
1.00017294704e-15
1.00036404235e-15
1.0009577861e-15
1.00140772479e-15
1.00150388779e-15
1.00150365267e-15
1.00150421727e-15
1.00150365267e-15
1.00150433108e-15
1.00150365267e-15
1.00150521517e-15
1.00150365267e-15
1.00142702616e-15
1.00138842408e-15
1.00131442623e-15
1.00114056972e-15
1.00092369753e-15
1.00064563094e-15
1.00030131894e-15
1.00002450117e-15
1e-15
1e-15
1e-15
1e-15
1e-15
1e-15
1e-15
1e-15
1e-15
1e-15
1e-15
1e-15
1e-15
1e-15
1e-15
1e-15
1e-15
1e-15
1e-15
1e-15
1e-15
1e-15
1e-15
1e-15
1e-15
1e-15
1e-15
1e-15
1e-15
1e-15
1e-15
1e-15
1e-15
1e-15
1e-15
1e-15
1e-15
1e-15
1.00001299298e-15
1.00016272598e-15
1.00075677877e-15
1.00132594439e-15
1.00181448472e-15
1.00227063823e-15
1.00267496699e-15
1.0030135954e-15
1.0033025963e-15
1.00353408369e-15
1.00371947875e-15
1.0038527045e-15
1.00394410165e-15
1.0039868069e-15
1.0039916488e-15
1.003960444e-15
1.00389252564e-15
1.0037577935e-15
1.00348983611e-15
1.00763349601e-15
1.01157007835e-15
1.01117641191e-15
1.00786238389e-15
1.00239418293e-15
1.00207989985e-15
1.00186222547e-15
1.00167378193e-15
1.00152512106e-15
1.00141783178e-15
1.00135804761e-15
1.00137487458e-15
1.00146743118e-15
1.00166982236e-15
1.00198167443e-15
1.00243931561e-15
1.00317318483e-15
1.00412774214e-15
1.00522221375e-15
1.00656118597e-15
1.02783828274e-15
1.02876467208e-15
1.02783828274e-15
1.02875953298e-15
1.02783828274e-15
1.01181056168e-15
1.00378550791e-15
1.01325125871e-15
1e-15
1.01314891601e-15
1e-15
1e-15
1e-15
1e-15
1e-15
1e-15
1e-15
1.00016238725e-15
1.00142721805e-15
1.00255796031e-15
1.00337444438e-15
1.00404070884e-15
1.00438118508e-15
1.00450708297e-15
1.00427194348e-15
1.00380754717e-15
1.00307779414e-15
1.00233232e-15
1.00167437612e-15
1.00119639601e-15
1.0007443629e-15
1.0002485552e-15
1e-15
1e-15
1e-15
1e-15
1e-15
1e-15
1e-15
1e-15
1e-15
1.00000090426e-15
1.00006658972e-15
1.00013924521e-15
1.0003478705e-15
1.00094273809e-15
1.00136958988e-15
1.00148684021e-15
1.00148796209e-15
1.00149027211e-15
1.00148384899e-15
1.00148167957e-15
1.0014770269e-15
1.00148172187e-15
1.001385977e-15
1.00120388418e-15
1.00109333377e-15
1.0009952646e-15
1.0007895682e-15
1.00046767414e-15
1.00012023601e-15
1e-15
1e-15
1e-15
1e-15
1e-15
1e-15
1e-15
1e-15
1e-15
1e-15
1e-15
1e-15
1e-15
1e-15
1e-15
1e-15
1e-15
1e-15
1e-15
1e-15
1e-15
1e-15
1e-15
1e-15
1e-15
1e-15
1e-15
1e-15
1e-15
1e-15
1e-15
1e-15
1e-15
1e-15
1e-15
1e-15
1e-15
1e-15
1e-15
1e-15
1.00000052372e-15
1.00018829114e-15
1.00081657972e-15
1.00138860127e-15
1.00201293121e-15
1.00252091748e-15
1.00297179129e-15
1.00336544403e-15
1.00369759411e-15
1.00396438339e-15
1.00418072249e-15
1.00433869137e-15
1.00444959814e-15
1.00450625761e-15
1.00451911721e-15
1.00449022915e-15
1.00444892648e-15
1.00457493638e-15
1.0116468902e-15
1.01167120677e-15
1.01189383466e-15
1.01167120677e-15
1.01188230086e-15
1.0086380402e-15
1.00273613953e-15
1.00233146473e-15
1.00211375245e-15
1.00194927037e-15
1.00183247547e-15
1.00176751016e-15
1.0017870983e-15
1.00188988501e-15
1.00210954131e-15
1.00244958024e-15
1.00296681327e-15
1.00374091299e-15
1.00473002717e-15
1.00589435885e-15
1.0073424759e-15
1.02857092501e-15
1.02783828274e-15
1.02877916534e-15
1.02783828274e-15
1.02849545675e-15
1.01267306065e-15
1.00375397339e-15
1.01298403344e-15
1e-15
1.01220663212e-15
1e-15
1e-15
1e-15
1e-15
1e-15
1e-15
1e-15
1e-15
1.00127789336e-15
1.00265504778e-15
1.00366908979e-15
1.0044451751e-15
1.00488155043e-15
1.00507488892e-15
1.00486628541e-15
1.00440242595e-15
1.00362625191e-15
1.00276683799e-15
1.0019779475e-15
1.00143830729e-15
1.00099918638e-15
1.00056614725e-15
1.00011107095e-15
1e-15
1e-15
1e-15
1e-15
1e-15
1e-15
1e-15
1e-15
1.00000451256e-15
1.00003415734e-15
1.00008873656e-15
1.0002955675e-15
1.00086513532e-15
1.00123171448e-15
1.00134208964e-15
1.00133669372e-15
1.00133227727e-15
1.00130817574e-15
1.00129747377e-15
1.0012869977e-15
1.00128504074e-15
1.00109702972e-15
1.00086381456e-15
1.00065882955e-15
1.00047908078e-15
1.00019462466e-15
1.00000998649e-15
1e-15
1e-15
1e-15
1e-15
1e-15
1e-15
1e-15
1e-15
1e-15
1e-15
1e-15
1e-15
1e-15
1e-15
1e-15
1e-15
1e-15
1e-15
1e-15
1e-15
1e-15
1e-15
1e-15
1e-15
1e-15
1e-15
1e-15
1e-15
1e-15
1e-15
1e-15
1e-15
1e-15
1e-15
1e-15
1e-15
1e-15
1e-15
1e-15
1e-15
1e-15
1.00002047947e-15
1.00023546334e-15
1.00085058692e-15
1.00149896407e-15
1.00219663411e-15
1.00277713441e-15
1.00330923181e-15
1.00372663728e-15
1.00409845526e-15
1.00440684674e-15
1.00465247766e-15
1.00483410118e-15
1.00496483015e-15
1.00503600408e-15
1.00505801245e-15
1.00505035895e-15
1.00489094026e-15
1.01178220124e-15
1.01167120677e-15
1.01188116092e-15
1.01167120677e-15
1.01188751345e-15
1.01167120677e-15
1.01187606494e-15
1.0034039846e-15
1.00274177758e-15
1.00255586612e-15
1.00238399768e-15
1.00226315888e-15
1.00219946889e-15
1.00222264339e-15
1.00233088574e-15
1.00256055933e-15
1.00292602533e-15
1.00348261464e-15
1.00426797163e-15
1.00529852721e-15
1.00654040731e-15
1.008098942e-15
1.02783828274e-15
1.02871847206e-15
1.02783828274e-15
1.02871339237e-15
1.02783828274e-15
1.01341186819e-15
1.00366008503e-15
1.01312450128e-15
1e-15
1.01264728033e-15
1e-15
1e-15
1e-15
1e-15
1e-15
1e-15
1e-15
1e-15
1.00098949837e-15
1.00258658315e-15
1.00392301777e-15
1.00485190423e-15
1.00541299094e-15
1.00569415933e-15
1.00552273065e-15
1.00506899027e-15
1.0042756959e-15
1.0033248111e-15
1.00237573624e-15
1.00172379931e-15
1.00125104166e-15
1.00084578339e-15
1.00040923522e-15
1.00013268517e-15
1e-15
1e-15
1e-15
1e-15
1e-15
1e-15
1e-15
1e-15
1e-15
1.00001548069e-15
1.00019427748e-15
1.0006955112e-15
1.00097613533e-15
1.00104484122e-15
1.00102420546e-15
1.00100686506e-15
1.00096825591e-15
1.00095166465e-15
1.00093972771e-15
1.00093456749e-15
1.00076870043e-15
1.00039756781e-15
1.00005581063e-15
1e-15
1e-15
1e-15
1e-15
1e-15
1e-15
1e-15
1e-15
1e-15
1e-15
1e-15
1e-15
1e-15
1e-15
1e-15
1e-15
1e-15
1e-15
1e-15
1e-15
1e-15
1e-15
1e-15
1e-15
1e-15
1e-15
1e-15
1e-15
1e-15
1e-15
1e-15
1e-15
1e-15
1e-15
1e-15
1e-15
1e-15
1e-15
1e-15
1e-15
1e-15
1e-15
1e-15
1e-15
1.00004761703e-15
1.00027253633e-15
1.00094337972e-15
1.00166037345e-15
1.00242175355e-15
1.00306181078e-15
1.00361778596e-15
1.0041396474e-15
1.00455264227e-15
1.00486951325e-15
1.00514795555e-15
1.00535911135e-15
1.00550793226e-15
1.00559343271e-15
1.00562342871e-15
1.00552014883e-15
1.01056503278e-15
1.01167120677e-15
1.01185979541e-15
1.01167120677e-15
1.01187125779e-15
1.01167120677e-15
1.01187640293e-15
1.01167120677e-15
1.01119787526e-15
1.00346165592e-15
1.00298165009e-15
1.00280341284e-15
1.00267996694e-15
1.00261657607e-15
1.00264299586e-15
1.00275683957e-15
1.00299790893e-15
1.00338665511e-15
1.00396614673e-15
1.00476867342e-15
1.00585838476e-15
1.00718020901e-15
1.00883909182e-15
1.02856475602e-15
1.02783828274e-15
1.02873272379e-15
1.02783828274e-15
1.02846105026e-15
1.0140362506e-15
1.00350856795e-15
1.0129820208e-15
1e-15
1.01220571717e-15
1e-15
1e-15
1e-15
1e-15
1e-15
1e-15
1e-15
1e-15
1.00048230885e-15
1.00235557133e-15
1.00390206315e-15
1.0051384736e-15
1.00588310649e-15
1.00628350373e-15
1.00616773663e-15
1.00573050863e-15
1.00494796263e-15
1.00396953464e-15
1.00288341624e-15
1.00207388722e-15
1.00152052083e-15
1.00109979884e-15
1.00066710923e-15
1.00037181334e-15
1.00017112867e-15
1.00003006583e-15
1e-15
1e-15
1e-15
1e-15
1e-15
1e-15
1e-15
1e-15
1.00002146302e-15
1.00039138846e-15
1.00059713302e-15
1.00062011296e-15
1.00056733271e-15
1.000522867e-15
1.00045517836e-15
1.00041571126e-15
1.00038764471e-15
1.00037426843e-15
1.00023850181e-15
1.00002662573e-15
1e-15
1e-15
1e-15
1e-15
1e-15
1e-15
1e-15
1e-15
1e-15
1e-15
1e-15
1e-15
1e-15
1e-15
1e-15
1e-15
1e-15
1e-15
1e-15
1e-15
1e-15
1e-15
1e-15
1e-15
1e-15
1e-15
1e-15
1e-15
1e-15
1e-15
1e-15
1e-15
1e-15
1e-15
1e-15
1e-15
1e-15
1e-15
1e-15
1e-15
1e-15
1e-15
1e-15
1e-15
1e-15
1.00005587265e-15
1.0003131257e-15
1.00108080367e-15
1.00190591484e-15
1.00272263308e-15
1.00333729027e-15
1.00396898451e-15
1.00454948514e-15
1.00496543307e-15
1.00539397053e-15
1.00569312621e-15
1.00590716837e-15
1.00608131904e-15
1.00618577674e-15
1.00623680566e-15
1.00783246535e-15
1.01167120677e-15
1.01183453689e-15
1.01167120677e-15
1.01184830166e-15
1.01167120677e-15
1.01185769155e-15
1.01167120677e-15
1.01186297229e-15
1.01167120677e-15
1.004255199e-15
1.00340587011e-15
1.0032183188e-15
1.00309010681e-15
1.00302303413e-15
1.00305145374e-15
1.00317141033e-15
1.00342546546e-15
1.00383368364e-15
1.00443368101e-15
1.00527858182e-15
1.00643984217e-15
1.00783196422e-15
1.00957542845e-15
1.02783828274e-15
1.02867571733e-15
1.02783828274e-15
1.02866976107e-15
1.02783828274e-15
1.0145763787e-15
1.00331286234e-15
1.01304875138e-15
1e-15
1.0123173792e-15
1e-15
1e-15
1e-15
1e-15
1e-15
1e-15
1e-15
1e-15
1e-15
1.001913933e-15
1.00377487917e-15
1.00529602044e-15
1.00628037689e-15
1.00683093508e-15
1.00679527978e-15
1.00637868017e-15
1.00560928437e-15
1.00465393736e-15