/*--------------------------------*- C++ -*----------------------------------*\
| =========                 |                                                 |
| \\      /  F ield         | OpenFOAM: The Open Source CFD Toolbox           |
|  \\    /   O peration     | Version:  2206                                  |
|   \\  /    A nd           | Website:  www.openfoam.com                      |
|    \\/     M anipulation  |                                                 |
\*---------------------------------------------------------------------------*/
FoamFile
{
    version     2.0;
    format      ascii;
    arch        "LSB;label=64;scalar=64";
    class       volScalarField;
    location    "4.3/water";
    object      Ct2;
}
// * * * * * * * * * * * * * * * * * * * * * * * * * * * * * * * * * * * * * //

dimensions      [0 0 0 0 0 0 0];

internalField   nonuniform List<scalar> 
23300
(
8.96894036815
8.96907301338
8.96923402917
8.96943062133
8.96965676776
8.96990656009
8.97017497328
8.97045744957
8.97074983258
8.97104809693
8.97134847623
8.9716473415
8.97194139917
8.97222763499
8.9725034897
8.97276680476
8.9730159337
8.97324966055
8.97346724609
8.97366832191
8.97385289411
8.97402123121
8.97417385148
8.974311422
8.97443474754
8.97454468946
8.9746421636
8.97472807937
8.97480334671
8.97486883102
8.9749253662
8.97497372063
8.97501461362
8.975048689
8.97507653378
8.97509865735
8.97511551164
8.9751274743
8.97513486946
8.97513795286
8.97513693168
8.97513194919
8.97512310116
8.9751104394
8.97509403257
8.97507388053
8.9750499439
8.97502213397
8.97499033115
8.97495436996
8.97491405498
8.97486914423
8.97481936432
8.97476439301
8.97470387426
8.97463740055
8.97456452873
8.97448476288
8.97439757249
8.97430237716
8.97419856942
8.97408550378
8.97396252785
8.9738289795
8.97368423182
8.97352770398
8.97335892763
8.9731775788
8.97298357565
8.9727771422
8.97255895444
8.97233026133
8.97209312591
8.97185068362
8.97160762068
8.97137081228
8.97115044941
8.97096169679
8.97082702033
8.97077462889
8.97081017289
8.97091053187
8.97105458428
8.97122710427
8.97141728603
8.97161727927
8.97182130794
8.97202504209
8.97222526468
8.97241958135
8.97260627438
8.97278413321
8.97295237515
8.97311053072
8.97325839587
8.97339595019
8.9735233276
8.97364075703
8.97374854519
8.97384703367
8.9739365902
8.97401757784
8.97409035188
8.97415523757
8.97421252999
8.97426247696
8.97430527914
8.97434107405
8.97436993112
8.97439183118
8.97440674238
8.97441453503
8.97441498079
8.97440773762
8.97439234078
8.97436818166
8.97433449216
8.97429031823
8.97423449982
8.97416564314
8.97408210362
8.97398196913
8.97386306512
8.97372297596
8.97355910918
8.97336880052
8.97314948859
8.97289895203
8.97261562609
8.97229896505
8.97194982834
8.97157080581
8.97116641052
8.97074303648
8.97030866771
8.96987244458
8.96944452169
8.96903720115
8.96866796598
8.96837853044
8.96461323208
8.96471689244
8.96489593654
8.96513643118
8.96542813624
8.96576213769
8.96613051501
8.96652602584
8.96694194388
8.96737189028
8.96780984168
8.96825010899
8.96868743743
8.96911704592
8.96953473145
8.96993689684
8.97032060606
8.97068356653
8.97102412461
8.97134120517
8.97163426515
8.97190321188
8.97214834089
8.97237025479
8.97256980496
8.97274802375
8.97290607837
8.97304521893
8.97316674457
8.97327196421
8.97336217198
8.97343861757
8.97350248929
8.97355489327
8.97359684445
8.97362925466
8.97365293149
8.97366857411
8.97367677805
8.97367803585
8.97367274477
8.97366120946
8.97364365107
8.97362021851
8.97359105047
8.97355620326
8.97351566303
8.97346935082
8.97341713043
8.97335880922
8.97329414296
8.97322283454
8.97314453758
8.97305885438
8.97296533958
8.97286349859
8.97275279277
8.97263263989
8.97250242281
8.97236149432
8.97220919234
8.97204485262
8.97186783489
8.97167754843
8.97147349538
8.97125531587
8.97102285607
8.97077624081
8.97051597518
8.97024305416
8.96995911145
8.96966658684
8.96936895731
8.96907101522
8.96877925038
8.96850229408
8.96825140285
8.96804067433
8.96788629234
8.9678027968
8.96779485684
8.96785480363
8.96797021115
8.96812846916
8.96831836198
8.96853044708
8.96875699245
8.96899175163
8.96922973917
8.96946701074
8.96970048647
8.96992779128
8.9701471306
8.97035717989
8.97055699853
8.97074595304
8.97092365577
8.97108990996
8.97124466467
8.97138797502
8.97151996875
8.97164081777
8.97175071331
8.97184984543
8.97193838383
8.97201646203
8.97208416053
8.972141492
8.97218838376
8.97222465063
8.97225006619
8.97226428423
8.97226681786
8.97225702204
8.97223407254
8.97219694582
8.97214439598
8.97207493518
8.9719868158
8.971878023
8.97174627947
8.97158907448
8.97140372302
8.97118747061
8.97093765161
8.97065191489
8.97032851798
8.96996668764
8.96956702184
8.96913189105
8.96866576246
8.96817534432
8.96766941901
8.96715822732
8.96665227556
8.96616043465
8.9656870354
8.96522693187
8.96475534587
8.96420649638
8.96685164129
8.96690158208
8.96700411305
8.96715248578
8.9673409518
8.96756404939
8.96781655754
8.96809341994
8.96838972265
8.96870067092
8.96902162444
8.96934812642
8.96967597877
8.97000129323
8.97032056581
8.97063071248
8.97092911271
8.97121361063
8.97148252027
8.97173459446
8.97196900193
8.97218527795
8.9723832889
8.97256317895
8.97272533417
8.97287033342
8.9729989171
8.97311194417
8.97321036543
8.97329518545
8.97336743934
8.97342815932
8.97347835592
8.97351899107
8.97355096636
8.97357510484
8.97359214774
8.97360274513
8.97360746012
8.97360676617
8.97360105629
8.97359064442
8.97357577835
8.97355661607
8.97353328039
8.97350583749
8.9734743032
8.97343864319
8.97339878163
8.97335460043
8.97330594657
8.97325263027
8.97319443156
8.9731310981
8.97306235183
8.97298788742
8.97290738013
8.97282048599
8.97272685229
8.97262612115
8.97251794458
8.97240199352
8.97227798008
8.97214567502
8.97200494033
8.97185575844
8.97169827846
8.97153285994
8.97136013465
8.97118106564
8.97099702444
8.97080986443
8.97062201246
8.97043655428
8.97025733023
8.97008899669
8.96993702953
8.96980754674
8.96970678732
8.96963986263
8.96960921863
8.96961381124
8.96965006187
8.96971331748
8.9697986658
8.969901405
8.97001727755
8.97014255294
8.97027403989
8.9704090488
8.97054534448
8.97068108612
8.9708147763
8.9709452081
8.97107142385
8.97119267337
8.97130838181
8.97141811645
8.97152156121
8.97161848994
8.97170874615
8.9717922216
8.97186884013
8.97193854036
8.97200126241
8.97205693321
8.97210545487
8.97214669123
8.97218045709
8.97220650599
8.9722245129
8.97223408062
8.97223471601
8.9722258157
8.97220665392
8.97217637064
8.97213396374
8.97207828497
8.9720080449
8.97192182877
8.97181813021
8.97169540682
8.97155216585
8.97138708414
8.97119916846
8.97098795554
8.97075374806
8.97049787098
8.97022292369
8.96993298517
8.9696337162
8.96933228339
8.96903702116
8.96875674581
8.96849966014
8.96827182981
8.96807525526
8.96790543681
8.96774620376
8.96758936274
8.9674964004
8.96753748123
8.96761913013
8.96773864118
8.96789247663
8.96807667857
8.96828711354
8.96851957483
8.96876986218
8.96903383102
8.96930745384
8.96958686616
8.96986842826
8.97014876807
8.97042483226
8.9706939125
8.97095367329
8.97120215408
8.97143777173
8.97165930149
8.97186586118
8.97205688007
8.97223207465
8.97239141397
8.97253509395
8.97266350359
8.97277719992
8.97287687525
8.97296333199
8.97303744984
8.97310016024
8.97315241456
8.97319516084
8.97322931659
8.97325575189
8.97327527061
8.97328860248
8.97329639371
8.97329920769
8.97329752324
8.97329174143
8.97328218865
8.97326912716
8.97325272191
8.97323307246
8.97321023249
8.97318421598
8.97315499637
8.97312251292
8.97308667181
8.97304735195
8.97300440543
8.97295766287
8.97290693352
8.97285201077
8.9727926727
8.97272868845
8.97265982019
8.9725858314
8.97250649129
8.9724215863
8.97233092841
8.97223437148
8.97213182511
8.97202327759
8.97190881706
8.97178866253
8.97166319322
8.9715329876
8.97139885919
8.97126190001
8.97112351674
8.97098546941
8.97084989416
8.97071931547
8.97059661947
8.970484979
8.97038768072
8.97030782849
8.97024786908
8.97020913634
8.9701917664
8.97019459963
8.97021563921
8.97025252006
8.97030272992
8.97036380698
8.97043344773
8.97050956716
8.97059031624
8.97067408252
8.97075947382
8.97084530121
8.97093055618
8.97101439183
8.97109610125
8.97117510043
8.97125090885
8.97132313426
8.97139145556
8.97145560936
8.97151537506
8.97157056314
8.97162100205
8.97166652791
8.97170697289
8.9717421559
8.97177187225
8.97179588576
8.97181392034
8.97182560196
8.97183050129
8.97182811678
8.97181786483
8.9717990734
8.97177097789
8.97173272308
8.97168337141
8.97162192258
8.97154734609
8.97145863267
8.9713548672
8.97123532865
8.97109961803
8.97094781624
8.9707806666
8.97059977419
8.97040780438
8.97020865658
8.97000757746
8.96981117063
8.96962724953
8.96946447877
8.969331756
8.96923732358
8.96918768532
8.96918655742
8.96923410466
8.96932200499
8.96945178791
8.96814866257
8.96818249083
8.96824915203
8.96834702338
8.96847371573
8.96862631254
8.96880159134
8.96899614759
8.96920649564
8.96942914645
8.96966067989
8.96989780115
8.970137397
8.9703765768
8.97061271116
8.97084345457
8.97106676381
8.97128090142
8.97148443579
8.97167622993
8.97185542953
8.9720214438
8.97217392813
8.97231276239
8.97243803194
8.97255000501
8.97264911216
8.97273592163
8.9728111158
8.97287546354
8.97292979402
8.97297496801
8.9730118525
8.97304129558
8.97306410675
8.97308103957
8.97309278085
8.97309994248
8.97310305929
8.97310258854
8.97309891391
8.97309234949
8.97308314549
8.97307149059
8.97305743591
8.97304101917
8.97302224602
8.97300108999
8.97297749735
8.97295138995
8.97292266925
8.97289121849
8.97285690631
8.97281958858
8.97277911201
8.97273531626
8.97268803805
8.97263711416
8.97258238678
8.97252370811
8.97246094774
8.97239399961
8.97232279245
8.97224729995
8.97216755497
8.97208366382
8.97199582463
8.9719043456
8.97180966665
8.97171237943
8.97161324851
8.9715132271
8.97141346924
8.97131532978
8.97122035239
8.97113023408
8.97104676364
8.97097171986
8.97090672951
8.97085309721
8.97081158169
8.97078247375
8.97076558912
8.97076014277
8.97076506871
8.97077915873
8.97080113717
8.97082973635
8.97086374501
8.97090203516
8.97094357686
8.97098744188
8.97103280333
8.97107893041
8.97112518264
8.97117100177
8.97121590412
8.97125947153
8.97130134312
8.97134120609
8.97137878749
8.9714138453
8.97144616043
8.97147552834
8.97150175145
8.97152463122
8.97154396125
8.97155952026
8.97157106651
8.97157833263
8.97158094735
8.97157849564
8.97157050986
8.97155646526
8.97153577894
8.971507813
8.97147188412
8.97142728141
8.97137329576
8.97130926314
8.97123462552
8.97114901173
8.97105234078
8.97094494747
8.97082772861
8.97070230341
8.970571178
8.97043789752
8.97030716395
8.97018489086
8.97007816159
8.96999505177
8.96994427621
8.96993462352
8.969974164
8.97006927553
8.97022365489
8.97043758665
8.97070578743
8.9710250783
8.96866206322
8.96869049952
8.96874649979
8.96882886838
8.9689357832
8.96906495277
8.96921377051
8.9693794199
8.96955896938
8.96974945225
8.96994793933
8.97015159816
8.97035774544
8.97056388608
8.97076774543
8.97096728882
8.97116073473
8.97134655793
8.97152348814
8.97169050228
8.97184681499
8.97199186589
8.97212530683
8.97224698755
8.97235694146
8.97245536964
8.97254262375
8.97261918652
8.97268565014
8.97274269237
8.9727910513
8.9728314995
8.97286481914
8.97289177908
8.97291311528
8.97292951501
8.97294160561
8.97294994729
8.97295502997
8.97295727332
8.97295702942
8.97295458704
8.97295017708
8.9729439814
8.97293603789
8.97292636143
8.97291494402
8.97290175367
8.97288673793
8.9728698269
8.97285093633
8.97282997008
8.9728068228
8.97278138206
8.97275353092
8.9727231501
8.97269012083
8.97265432746
8.97261566104
8.97257402284
8.97252932916
8.97248151616
8.97243054637
8.97237641529
8.97231915991
8.97225886729
8.97219568504
8.9721298315
8.97206160718
8.97199140475
8.97191971868
8.97184715093
8.97177441332
8.97170232208
8.97163178495
8.97156377569
8.97149929692
8.97143932699
8.97138475575
8.97133631233
8.97129448935
8.97125948696
8.97123140791
8.97121011261
8.97119515397
8.97118599722
8.97118204488
8.97118266334
8.97118721294
8.97119506856
8.97120563361
8.97121834834
8.97123269492
8.9712481991
8.97126443053
8.971281001
8.97129756226
8.97131380248
8.97132944259
8.9713442318
8.97135794312
8.97137036843
8.97138131357
8.97139059316
8.97139802571
8.97140342845
8.97140661279
8.97140737989
8.97140551729
8.9714007963
8.97139288651
8.9713814213
8.97136599741
8.97134617486
8.97132148092
8.97129141883
8.9712554836
8.97121318643
8.97116409068
8.97110786128
8.97104433032
8.97097358015
8.97089604493
8.97081262933
8.97072484088
8.97063492909
8.97054602061
8.97046223511
8.97038876215
8.97033187443
8.97029884881
8.97029776205
8.97033712463
8.97042531301
8.97056976557
8.97077593877
8.97104611844
8.97137836224
8.9717652422
8.9721965484
8.96909380902
8.96911814566
8.96916613277
8.96923677266
8.96932857802
8.96943965187
8.96956780892
8.96971066122
8.969865701
8.97003037553
8.97020215529
8.97037859031
8.97055735858
8.97073630185
8.97091345304
8.97108705269
8.97125555858
8.97141764753
8.97157221307
8.97171835897
8.97185539126
8.97198280864
8.97210029276
8.97220769775
8.97230503915
8.97239248157
8.97247032432
8.97253898489
8.97259897979
8.97265090336
8.97269540488
8.97273316552
8.97276487575
8.97279121493
8.97281283363
8.97283033972
8.97284428806
8.9728551743
8.97286343181
8.97286943182
8.9728734856
8.97287584843
8.97287672448
8.97287627678
8.97287455365
8.97287154671
8.97286723314
8.97286157352
8.97285451429
8.97284599022
8.97283592672
8.97282424205
8.97281084926
8.97279565807
8.9727785767
8.97275951354
8.97273837916
8.9727150881
8.97268956127
8.97266172821
8.97263153011
8.97259892274
8.97256388037
8.97252639961
8.97248650422
8.97244424984
8.97239972964
8.9723530795
8.97230448374
8.97225417956
8.97220246126
8.97214968165
8.97209625179
8.97204263609
8.97198934388
8.9719369147
8.97188589891
8.97183683173
8.97179020409
8.97174643099
8.97170583025
8.97166857212
8.97163469741
8.97160432523
8.97157740141
8.97155369942
8.97153297776
8.97151496243
8.97149936002
8.97148586751
8.97147418305
8.97146401205
8.97145507256
8.97144709806
8.97143983956
8.97143306612
8.97142656495
8.9714201404
8.97141361276
8.97140681626
8.971399597
8.97139181031
8.97138331806
8.97137398571
8.97136367937
8.97135226279
8.9713395947
8.97132552647
8.97130990071
8.97129255094
8.97127321821
8.97125161076
8.97122741404
8.97120029406
8.97116990535
8.97113590413
8.97109796848
8.97105582724
8.9710092998
8.97095834847
8.9709031451
8.97084415281
8.97078222239
8.97071870152
8.97065555232
8.97059547005
8.97054199241
8.970499585
8.97047368475
8.97047067895
8.97049779338
8.97056285813
8.9706739137
8.97083861208
8.97106336112
8.97135217131
8.97170523875
8.97211751247
8.97257751802
8.97306829424
8.96945850792
8.9694796731
8.96952154741
8.96958319737
8.96966334423
8.96976035001
8.96987231923
8.9699971724
8.97013272015
8.97027673107
8.97042699432
8.97058137209
8.97073784317
8.97089453479
8.97104974585
8.97120195988
8.97134985157
8.97149228664
8.97162831827
8.9717571805
8.97187828064
8.97199119098
8.97209564047
8.97219150614
8.97227880382
8.97235767782
8.97242838859
8.97249129841
8.97254685469
8.97259557146
8.97263800951
8.9726747564
8.97270640703
8.97273354617
8.97275673341
8.9727764913
8.97279329669
8.9728075754
8.97281969966
8.97282998824
8.9728387083
8.97284607868
8.97285227357
8.97285743544
8.97286163809
8.97286485131
8.97286703921
8.97286815489
8.97286814297
8.97286694094
8.97286448101
8.97286069164
8.97285549909
8.97284882865
8.97284060599
8.97283075815
8.97281921497
8.97280591006
8.97279078238
8.97277377738
8.97275484891
8.97273396071
8.97271108865
8.97268622265
8.97265936942
8.97263055459
8.9725998258
8.9725672549
8.97253294084
8.97249701131
8.97245962458
8.97242096942
8.97238126462
8.97234075572
8.97229971069
8.97225841228
8.972217149
8.97217620298
8.97213583735
8.97209628266
8.97205772442
8.97202030233
8.97198406314
8.97194900686
8.97191529166
8.97188292569
8.97185181129
8.97182186024
8.97179296842
8.97176502212
8.97173790023
8.97171147982
8.97168563935
8.97166026068
8.97163523108
8.971610444
8.97158579978
8.97156120547
8.97153657468
8.97151182665
8.97148688546
8.97146167861
8.97143613572
8.97141018685
8.97138376104
8.97135678466
8.9713291803
8.97130086591
8.97127175506
8.9712417587
8.97121071151
8.97117841371
8.97114465526
8.97110922165
8.9710719049
8.97103251993
8.97099092774
8.970947067
8.97090099565
8.97085294394
8.97080337991
8.97075308729
8.9707032551
8.97065557618
8.9706123499
8.97057658177
8.97055206964
8.97054346294
8.9705562777
8.97059684647
8.97067217753
8.97078969234
8.97095680246
8.97118027633
8.97146533329
8.97181439759
8.97222549451
8.97269047918
8.97319362568
8.97371197336
8.96977195092
8.96979062681
8.96982777877
8.96988245904
8.96995352251
8.9700395038
8.97013870852
8.97024927989
8.97036926603
8.97049668336
8.97062957436
8.9707660554
8.97090435593
8.9710428462
8.97118005605
8.9713146844
8.97144560236
8.97157185074
8.9716926346
8.97180731557
8.97191540374
8.97201654933
8.9721105348
8.97219726687
8.97227676832
8.97234916889
8.9724146947
8.97247365596
8.9725264329
8.97257346016
8.9726152103
8.97265217716
8.9726848599
8.97271374864
8.97273931215
8.97276198812
8.97278217611
8.97280023307
8.97281647137
8.97283115864
8.97284451945
8.97285673774
8.97286796041
8.97287829591
8.97288785791
8.97289661587
8.97290451085
8.97291149085
8.97291749866
8.97292247349
8.97292635252
8.97292907172
8.97293056706
8.972930775
8.97292963357
8.97292708265
8.97292306503
8.97291752663
8.97291041757
8.97290169253
8.97289131186
8.97287924215
8.97286545744
8.97284994001
8.97283268176
8.97281368509
8.97279296442
8.97277054696
8.97274647415
8.97272080201
8.97269360211
8.97266496104
8.97263498026
8.97260377423
8.97257146863
8.97253819663
8.97250409534
8.97246930028
8.97243394043
8.97239813215
8.97236197503
8.97232554565
8.97228890431
8.9722520471
8.97221496287
8.97217781948
8.97214066916
8.97210348506
8.9720662531
8.9720289546
8.97199156794
8.97195406846
8.97191643036
8.97187862882
8.9718406406
8.97180244471
8.97176402315
8.97172536076
8.9716864454
8.9716472674
8.97160781941
8.97156809547
8.97152809058
8.97148779968
8.97144721721
8.97140633628
8.97136514869
8.97132364517
8.97128181686
8.97123965908
8.97119711449
8.97115408379
8.97111046942
8.97106618255
8.97102115643
8.97097536485
8.9709288472
8.97088174131
8.97083432558
8.97078707104
8.97074070419
8.9706962799
8.97065526334
8.9706196175
8.97059189173
8.9705753038
8.97057380577
8.97059212069
8.97063573405
8.97071082002
8.97082407792
8.97098244819
8.97119266833
8.97146061625
8.97179036999
8.97218289541
8.97263429289
8.9731337122
8.97366153813
8.97418942456
8.97004570558
8.97006240767
8.97009588885
8.970145135
8.97020908495
8.97028638834
8.97037548945
8.97047469073
8.97058221738
8.97069627688
8.97081511296
8.97093705008
8.97106052802
8.97118412541
8.97130657417
8.97142676496
8.97154374674
8.97165672128
8.97176503524
8.97186817081
8.97196573625
8.97205745694
8.9721431671
8.97222280207
8.97229639076
8.97236404761
8.97242596382
8.97248239728
8.97253366123
8.97258011189
8.97262213537
8.97266013454
8.97269451648
8.97272568104
8.97275401114
8.97277986491
8.97280357003
8.97282542002
8.97284567251
8.97286454897
8.97288223605
8.97289888766
8.97291462849
8.97292954885
8.97294373742
8.9729572284
8.97296994275
8.97298181935
8.97299279781
8.97300281806
8.97301182086
8.97301974785
8.97302654224
8.97303214884
8.97303651468
8.9730395889
8.97304132335
8.97304167245
8.97304059376
8.97303804788
8.97303399907
8.97302841518
8.97302126841
8.97301253525
8.97300219731
8.9729902414
8.97297666029
8.97296145278
8.97294462448
8.97292618761
8.9729061616
8.97288457256
8.97286145346
8.97283684305
8.97281078548
8.97278332857
8.97275452277
8.97272441879
8.97269306603
8.97266051004
8.97262679093
8.97259194163
8.97255598508
8.97251894059
8.97248078265
8.97244149171
8.97240120524
8.9723600171
8.97231793793
8.9722749813
8.97223116815
8.97218651721
8.97214105273
8.97209479764
8.9720477779
8.97200002195
8.97195156132
8.97190243057
8.97185266757
8.97180231316
8.9717514112
8.97170000803
8.97164815247
8.97159589529
8.97154328932
8.97149038931
8.97143725264
8.97138394032
8.97133051947
8.97127706879
8.97122364618
8.97117025371
8.97111690707
8.97106364288
8.97101053348
8.97095770665
8.97090537175
8.97085385278
8.97080363
8.97075539008
8.97071008543
8.97066900161
8.97063383125
8.97060675113
8.97059049755
8.97058843285
8.9706045938
8.97064370969
8.97071117516
8.97081295891
8.97095542498
8.97114503656
8.97138790237
8.97168911041
8.97205176928
8.97247564585
8.97295527489
8.97347754634
8.97401934975
8.97454725835
8.97028903322
8.97030415686
8.9703347736
8.97037976627
8.97043812346
8.97050856801
8.9705896377
8.97067974818
8.97077725569
8.97088051538
8.97098793271
8.97109800427
8.97120934854
8.97132072505
8.97143104414
8.97153936825
8.9716449073
8.9717470099
8.97184515249
8.97193892777
8.9720280336
8.97211226299
8.97219149527
8.97226568855
8.97233487278
8.97239914314
8.97245865308
8.97251360682
8.97256425099
8.97261086548
8.97265375382
8.97269323335
8.97272962577
8.97276324833
8.9727944063
8.97282338665
8.9728504535
8.97287584473
8.97289977051
8.97292241259
8.97294392518
8.9729644362
8.97298404912
8.97300284521
8.97302089859
8.97303828652
8.9730549271
8.97307075354
8.97308570254
8.97309971455
8.9731127331
8.97312470422
8.97313557677
8.97314530201
8.97315383391
8.97316112864
8.97316714494
8.97317184361
8.97317518779
8.97317714261
8.97317767544
8.97317675553
8.97317435441
8.97317044551
8.97316500459
8.97315800946
8.97314944041
8.97313927988
8.97312751299
8.97311412713
8.97309911238
8.97308246109
8.97306416821
8.97304423067
8.97302264756
8.97299941946
8.97297454834
8.97294803671
8.9729198874
8.97289010257
8.97285868351
8.97282562957
8.97279093836
8.97275460311
8.97271661798
8.97267694868
8.97263556544
8.97259253479
8.97254800526
8.97250200402
8.97245453356
8.9724056399
8.97235535407
8.97230371782
8.97225077545
8.97219657505
8.97214117029
8.97208461961
8.97202698697
8.97196834169
8.97190875878
8.97184831873
8.97178710779
8.97172521792
8.97166274737
8.97159980098
8.97153649152
8.97147294115
8.9714092845
8.97134567565
8.97128228824
8.97121922044
8.97115659642
8.97109457238
8.97103335255
8.97097320967
8.9709145113
8.97085775271
8.97080359713
8.97075292359
8.97070688229
8.97066695643
8.97063502848
8.9706134476
8.97060509336
8.97061342892
8.97064253502
8.97069711342
8.97078244609
8.97090429246
8.97106870298
8.97128171947
8.97154892234
8.9718747655
8.97226160896
8.97270831016
8.97320818611
8.97374622959
8.97429608177
8.97481927163
8.97050933841
8.97052318767
8.97055156068
8.97059320989
8.97064714776
8.97071214057
8.97078678607
8.97086957804
8.97095896995
8.97105343229
8.97115150194
8.97125182061
8.9713531612
8.97145444266
8.97155473478
8.97165325484
8.97174935861
8.97184252783
8.97193235615
8.97201853511
8.9721008413
8.9721791252
8.97225330203
8.97232334445
8.97238927665
8.97245116933
8.97250913504
8.97256332339
8.97261391575
8.97266111934
8.97270516081
8.97274627944
8.97278472029
8.97282072762
8.97285453904
8.97288638033
8.97291646154
8.97294497389
8.97297208812
8.97299795344
8.9730226978
8.97304642834
8.97306923272
8.97309117997
8.97311231818
8.97313278424
8.973152511
8.97317141232
8.97318942516
8.97320649074
8.97322255488
8.97323756724
8.97325148132
8.97326425364
8.97327584381
8.97328621375
8.97329532782
8.97330315208
8.97330965444
8.97331480403
8.97331857134
8.97332092767
8.9733218453
8.97332129699
8.97331925624
8.97331569677
8.97331059281
8.97330391869
8.97329564914
8.97328575887
8.97327422291
8.97326101624
8.97324611415
8.9732294919
8.97321112508
8.97319098931
8.97316906062
8.97314531507
8.97311972914
8.97309227931
8.9730629424
8.97303169508
8.97299851411
8.97296337584
8.97292625526
8.97288712739
8.97284595674
8.97280269726
8.97275733089
8.9727100617
8.97266089905
8.97260984893
8.97255695528
8.97250225002
8.97244577277
8.97238757372
8.97232770676
8.9722662336
8.97220322413
8.97213875634
8.9720729172
8.97200580283
8.97193751925
8.97186818276
8.97179792102
8.9717268739
8.97165519527
8.97158305496
8.97151064198
8.97143817072
8.97136592244
8.97129408595
8.9712228837
8.97115258114
8.97108350309
8.97101605449
8.97095074673
8.97088822978
8.97082933085
8.97077509959
8.97072685958
8.97068626465
8.9706553583
8.9706366325
8.97063308148
8.97064824388
8.97068622541
8.97075169142
8.97084981697
8.97098617809
8.97116656357
8.97139667882
8.97168170075
8.97202562017
8.97243026827
8.97289385627
8.97340876698
8.97395834219
8.97451306382
8.97502930058
8.97071267284
8.97072547943
8.97075208186
8.97079108125
8.97084149524
8.97090211018
8.97097155884
8.97104838791
8.97113112243
8.97121832425
8.97130863999
8.97140083639
8.97149382278
8.97158666123
8.97167856595
8.97176889512
8.97185713702
8.9719428937
8.97202586346
8.97210582456
8.97218262047
8.97225614805
8.97232634819
8.97239319925
8.97245671253
8.9725169293
8.97257391865
8.97262777557
8.97267861875
8.97272658769
8.9727718392
8.97281454307
8.97285487748
8.97289302403
8.97292916311
8.9729634695
8.97299610877
8.97302723423
8.97305698505
8.97308548472
8.97311284087
8.97313914522
8.97316447477
8.97318889369
8.97321243957
8.97323520653
8.9732572418
8.97327843569
8.97329871878
8.97331803073
8.97333631852
8.97335353457
8.97336963611
8.97338458405
8.97339834274
8.97341087901
8.97342216208
8.97343216268
8.97344085303
8.97344820615
8.97345419584
8.97345879605
8.97346198097
8.97346372445
8.97346400014
8.97346278094
8.97346003923
8.97345574635
8.97344987288
8.9734423882
8.97343326079
8.97342245789
8.97340994585
8.97339568987
8.97337965443
8.97336180309
8.97334209899
8.97332050466
8.97329698253
8.97327149475
8.97324400363
8.97321447142
8.97318286062
8.9731491336
8.97311325274
8.97307517961
8.9730348727
8.9729922988
8.97294738742
8.97290009553
8.97285055415
8.9727988147
8.97274489419
8.97268879986
8.97263057085
8.97257023422
8.97250783362
8.97244342024
8.9723770539
8.97230880581
8.97223875891
8.97216700858
8.97209366411
8.97201884964
8.97194270578
8.9718653912
8.97178708503
8.97170798947
8.97162833358
8.97154837399
8.97146846367
8.97138889906
8.97130998199
8.97123207286
8.97115560198
8.97108109072
8.97100917766
8.97094064965
8.9708764788
8.97081786494
8.97076628341
8.97072353648
8.97069180662
8.97067370804
8.97067233224
8.9706912815
8.9707346829
8.97080717355
8.97091384526
8.97106013407
8.97125163468
8.97149381202
8.97179156748
8.97214859046
8.97256637672
8.97304270598
8.97356923601
8.97412780249
8.97468570689
8.97519400327
8.9709040925
8.9709160284
8.97094121162
8.97097807581
8.97102562884
8.97108266073
8.97114782075
8.97121968917
8.97129684498
8.97137792464
8.97146166883
8.97154695559
8.97163281812
8.97171844977
8.97180319792
8.97188655039
8.9719681167
8.9720476076
8.97212481427
8.97219958973
8.97227183269
8.97234147528
8.97240847396
8.97247280431
8.97253445814
8.97259344313
8.97264978326
8.97270351994
8.97275471272
8.97280343915
8.97284979378
8.9728938859
8.97293583655
8.97297577478
8.97301383378
8.97305014683
8.97308484387
8.97311804822
8.97314987435
8.97318042592
8.97320979505
8.9732380617
8.97326529421
8.9732915494
8.97331686924
8.97334131062
8.97336499454
8.97338781557
8.97340970097
8.97343058831
8.9734504253
8.9734691664
8.97348677188
8.97350320631
8.97351843814
8.97353243848
8.97354518086
8.97355664026
8.97356679297
8.97357561576
8.97358308588
8.97358918032
8.97359387587
8.97359714853
8.97359897358
8.97359932501
8.97359817577
8.97359549719
8.97359125925
8.97358543017
8.97357797665
8.97356886353
8.9735580542
8.97354551024
8.97353119192
8.97351505798
8.97349706609
8.97347717274
8.97345533367
8.97343150379
8.97340563759
8.9733776889
8.97334761133
8.97331535788
8.97328088122
8.97324413304
8.97320506532
8.97316362487
8.97311976373
8.97307341386
8.97302451834
8.97297306784
8.97291920952
8.97286293377
8.97280422949
8.97274313035
8.97267965311
8.97261382376
8.97254568686
8.97247529574
8.972402717
8.97232803279
8.97225134198
8.97217276209
8.9720924316
8.97201051229
8.97192719248
8.97184269059
8.97175726031
8.97167119457
8.97158485055
8.97149866271
8.97141299203
8.97132827502
8.9712450297
8.97116387608
8.97108556174
8.97101099171
8.97094126375
8.97087770836
8.97082193315
8.97077587007
8.97074182348
8.97072251569
8.97072112602
8.97074131765
8.97078724569
8.97086353759
8.97097523569
8.97112768775
8.97132636693
8.97157659302
8.97188311078
8.97224944942
8.97267692785
8.97316305847
8.97369891852
8.97426491018
8.97482507635
8.97532504357
8.97108794353
8.97109913026
8.97112314007
8.97115822782
8.97120338175
8.97125738257
8.97131888308
8.97138648482
8.97145880818
8.97153455323
8.97161254549
8.97169176567
8.97177136297
8.97185065448
8.97192911285
8.97200634717
8.97208207894
8.97215611762
8.97222833658
8.97229865259
8.97236700856
8.97243336138
8.97249767375
8.97255991066
8.97262003878
8.97267802883
8.97273385894
8.97278751868
8.97283901248
8.972888362
8.97293560703
8.97298080495
8.97302402879
8.97306536429
8.97310490639
8.97314275532
8.97317901302
8.97321377957
8.9732471506
8.97327921487
8.97331005297
8.97333973615
8.97336832628
8.97339587509
8.97342242501
8.97344799535
8.97347276907
8.97349667917
8.97351962641
8.97354155096
8.97356240166
8.97358213481
8.97360071328
8.97361810486
8.97363428158
8.97364921836
8.97366289261
8.97367528318
8.97368637013
8.97369613382
8.9737045549
8.97371161351
8.97371728934
8.973721561
8.97372440611
8.97372580074
8.97372571961
8.97372413555
8.9737210198
8.97371634152
8.97371006808
8.97370216474
8.97369259497
8.97368132015
8.97366829998
8.97365349223
8.97363685321
8.97361833752
8.97359789855
8.9735754882
8.97355105737
8.97352455566
8.97349593168
8.97346513281
8.97343210532
8.97339679415
8.97335914262
8.97331909301
8.97327658428
8.97323155049
8.97318393512
8.97313365402
8.97308063882
8.97302498316
8.97296671797
8.97290584595
8.97284234151
8.97277623552
8.97270753743
8.97263627506
8.97256249454
8.97248625502
8.97240763493
8.97232673403
8.97224367611
8.97215861234
8.97207172523
8.97198323298
8.97189339498
8.9718025188
8.97171097499
8.97161928773
8.97152786859
8.97143721456
8.97134791326
8.97126066477
8.97117630647
8.97109584213
8.97102047574
8.97095164938
8.97089108487
8.97084082739
8.97080328935
8.9707812913
8.97077809598
8.97079743052
8.97084349046
8.9709209178
8.97103474341
8.97119028059
8.97139295179
8.97164801999
8.97196017792
8.97233291242
8.97276749044