/*--------------------------------*- C++ -*----------------------------------*\
| =========                 |                                                 |
| \\      /  F ield         | OpenFOAM: The Open Source CFD Toolbox           |
|  \\    /   O peration     | Version:  2206                                  |
|   \\  /    A nd           | Website:  www.openfoam.com                      |
|    \\/     M anipulation  |                                                 |
\*---------------------------------------------------------------------------*/
FoamFile
{
    version     2.0;
    format      ascii;
    arch        "LSB;label=64;scalar=64";
    class       volScalarField;
    location    "4.3/water";
    object      d.gas;
}
// * * * * * * * * * * * * * * * * * * * * * * * * * * * * * * * * * * * * * //

dimensions      [0 1 0 0 0 0 0];

internalField   nonuniform List<scalar> 
23300
(
0.00498783384604
0.00498783300358
0.00498783317155
0.00498783341138
0.00498783371943
0.00498783408869
0.00498783451137
0.00498783497728
0.00498783547747
0.00498783600131
0.0049878365401
0.00498783708411
0.00498783762602
0.00498783815822
0.00498783867577
0.00498783917399
0.00498783965092
0.00498784010499
0.00498784053702
0.00498784094809
0.00498784134104
0.00498784171852
0.00498784208425
0.00498784244124
0.0049878427929
0.00498784314147
0.00498784348913
0.00498784383666
0.00498784418459
0.00498784453207
0.00498784487811
0.00498784522055
0.0049878455574
0.00498784588585
0.00498784620358
0.00498784650779
0.00498784679645
0.00498784706731
0.00498784731904
0.00498784755024
0.00498784776046
0.00498784794922
0.00498784811708
0.00498784826467
0.00498784839353
0.00498784850486
0.00498784860078
0.00498784868316
0.00498784875473
0.00498784881787
0.00498784887571
0.00498784893098
0.00498784898705
0.00498784904682
0.00498784911376
0.00498784919079
0.00498784928135
0.00498784938826
0.00498784951483
0.00498784966368
0.00498784983786
0.00498785003969
0.0049878502719
0.00498785053638
0.00498785083543
0.00498785117037
0.00498785154284
0.00498785195336
0.00498785240259
0.00498785288979
0.00498785341413
0.00498785397299
0.00498785456332
0.00498785517987
0.00498785581674
0.00498785646574
0.00498785711887
0.00498785776869
0.00498785841533
0.00498785905951
0.00498785969768
0.00498786032085
0.0049878609249
0.00498786151368
0.00498786209469
0.00498786267425
0.00498786325818
0.00498786385002
0.00498786445255
0.00498786506663
0.00498786569268
0.00498786632968
0.00498786697647
0.00498786763087
0.00498786829082
0.0049878689535
0.0049878696164
0.00498787027652
0.0049878709312
0.00498787157751
0.0049878722129
0.00498787283467
0.00498787344056
0.0049878740282
0.00498787459572
0.0049878751412
0.00498787566324
0.00498787616045
0.00498787663195
0.00498787707691
0.00498787749501
0.00498787788597
0.00498787824996
0.00498787858724
0.00498787889845
0.0049878791843
0.00498787944585
0.00498787968415
0.00498787990051
0.00498788009608
0.00498788027211
0.00498788042951
0.00498788056896
0.00498788069056
0.00498788079386
0.00498788087754
0.00498788093948
0.00498788097665
0.0049878809854
0.00498788096166
0.00498788090167
0.00498788080263
0.00498788066379
0.00498788048743
0.00498788028012
0.00498788005379
0.0049878798272
0.0049878796274
0.00498787948901
0.00498787839215
0.0049879658702
0.00498796500649
0.00498796509319
0.0049879652369
0.00498796543185
0.00498796567244
0.00498796595321
0.00498796626739
0.00498796660899
0.00498796697133
0.00498796734909
0.00498796773679
0.00498796813062
0.004987968527
0.00498796892418
0.00498796932078
0.00498796971708
0.0049879701137
0.00498797051255
0.00498797091555
0.00498797132544
0.00498797174452
0.00498797217539
0.00498797261979
0.00498797307929
0.00498797355431
0.00498797404482
0.00498797454957
0.00498797506684
0.00498797559384
0.00498797612755
0.00498797666422
0.00498797720023
0.00498797773162
0.00498797825492
0.00498797876662
0.00498797926398
0.00498797974439
0.00498798020611
0.00498798064759
0.00498798106817
0.00498798146733
0.00498798184538
0.00498798220282
0.0049879825409
0.00498798286072
0.00498798316403
0.00498798345246
0.00498798372815
0.00498798399306
0.00498798424957
0.00498798449978
0.00498798474613
0.00498798499069
0.00498798523583
0.00498798548346
0.00498798573571
0.00498798599422
0.00498798626079
0.00498798653669
0.00498798682331
0.00498798712148
0.00498798743217
0.00498798775573
0.00498798809269
0.00498798844297
0.00498798880667
0.00498798918333
0.00498798957271
0.00498798997404
0.00498799038683
0.00498799081016
0.00498799124357
0.00498799168648
0.00498799213942
0.00498799260391
0.00498799308455
0.00498799358985
0.00498799413366
0.0049879947249
0.00498799536131
0.00498799602963
0.00498799671301
0.0049879973985
0.00498799807893
0.00498799875015
0.00498799941041
0.00498800005866
0.00498800069477
0.00498800131853
0.00498800193016
0.00498800252954
0.0049880031168
0.00498800369168
0.00498800425408
0.00498800480353
0.00498800533967
0.00498800586183
0.00498800636942
0.0049880068616
0.00498800733762
0.00498800779651
0.00498800823747
0.0049880086595
0.0049880090618
0.00498800944348
0.00498800980385
0.00498801014221
0.0049880104581
0.00498801075118
0.00498801102139
0.00498801126869
0.00498801149332
0.00498801169567
0.00498801187642
0.00498801203641
0.00498801217678
0.00498801229884
0.00498801240415
0.0049880124944
0.00498801257143
0.00498801263708
0.00498801269317
0.00498801274124
0.0049880127825
0.00498801281755
0.00498801284626
0.00498801286755
0.00498801287941
0.00498801287883
0.00498801286218
0.00498801282557
0.00498801276559
0.00498801268023
0.00498801256999
0.00498801243912
0.00498801229721
0.00498801216136
0.00498801206187
0.00498801094349
0.00498809938045
0.00498809854009
0.00498809861984
0.00498809875522
0.00498809894031
0.00498809916887
0.00498809943509
0.00498809973222
0.00498810005407
0.00498810039401
0.00498810074658
0.0049881011064
0.00498810146968
0.00498810183312
0.00498810219519
0.004988102555
0.00498810291332
0.00498810327143
0.00498810363192
0.00498810399751
0.00498810437167
0.00498810475754
0.00498810515843
0.0049881055768
0.00498810601483
0.00498810647347
0.00498810695311
0.0049881074528
0.004988107971
0.004988108505
0.0049881090517
0.00498810960721
0.00498811016765
0.00498811072872
0.00498811128653
0.00498811183712
0.00498811237723
0.0049881129037
0.00498811341421
0.00498811390664
0.00498811437969
0.00498811483224
0.00498811526395
0.00498811567488
0.00498811606575
0.00498811643705
0.00498811678984
0.00498811712511
0.00498811744434
0.00498811774885
0.00498811804035
0.00498811832032
0.00498811859057
0.00498811885259
0.00498811910817
0.00498811935872
0.00498811960588
0.00498811985091
0.00498812009525
0.00498812033994
0.00498812058623
0.00498812083496
0.00498812108715
0.00498812134351
0.00498812160496
0.00498812187212
0.00498812214593
0.00498812242709
0.00498812271674
0.00498812301584
0.00498812332593
0.00498812364853
0.00498812398594
0.00498812434074
0.00498812471679
0.00498812511889
0.00498812555398
0.00498812603063
0.00498812655878
0.00498812714347
0.00498812778059
0.00498812846116
0.00498812917439
0.00498812990749
0.00498813065062
0.00498813139598
0.00498813213797
0.00498813287211
0.0049881335952
0.00498813430455
0.00498813499832
0.00498813567484
0.00498813633301
0.00498813697178
0.00498813759048
0.00498813818842
0.00498813876518
0.00498813932025
0.00498813985333
0.00498814036401
0.00498814085206
0.0049881413171
0.00498814175895
0.00498814217729
0.00498814257198
0.00498814294281
0.00498814328976
0.00498814361276
0.00498814391199
0.00498814418768
0.00498814444034
0.00498814467046
0.00498814487884
0.00498814506633
0.00498814523411
0.00498814538348
0.00498814551604
0.0049881456335
0.00498814573782
0.00498814583104
0.0049881459153
0.00498814599264
0.00498814606496
0.00498814613378
0.00498814620007
0.00498814626401
0.00498814632483
0.00498814638059
0.00498814642816
0.00498814646325
0.0049881464807
0.00498814647497
0.00498814644086
0.00498814637452
0.00498814627458
0.00498814614357
0.00498814598952
0.0049881458287
0.00498814568955
0.00498814449926
0.00498823251289
0.00498823168776
0.00498823177554
0.00498823191559
0.00498823210378
0.00498823233412
0.00498823260073
0.00498823289683
0.00498823321624
0.00498823355233
0.00498823389962
0.00498823425277
0.00498823460799
0.00498823496208
0.00498823531359
0.00498823566181
0.00498823600772
0.00498823635291
0.00498823670027
0.00498823705293
0.00498823741478
0.00498823778941
0.00498823818059
0.00498823859122
0.0049882390239
0.00498823947996
0.00498823996011
0.00498824046363
0.00498824098918
0.00498824153415
0.00498824209549
0.00498824266925
0.00498824325145
0.0049882438376
0.0049882444236
0.0049882450052
0.00498824557879
0.00498824614086
0.00498824668868
0.00498824721969
0.00498824773215
0.00498824822446
0.00498824869574
0.00498824914566
0.00498824957463
0.00498824998265
0.0049882503703
0.00498825073809
0.00498825108703
0.00498825141798
0.00498825173223
0.00498825203086
0.00498825231531
0.00498825258675
0.00498825284668
0.00498825309629
0.00498825333706
0.00498825357016
0.004988253797
0.00498825401871
0.00498825423666
0.00498825445195
0.00498825466598
0.0049882548799
0.00498825509521
0.00498825531323
0.00498825553572
0.00498825576432
0.00498825600119
0.00498825624845
0.00498825650885
0.00498825678519
0.00498825708103
0.00498825740013
0.0049882577472
0.00498825812743
0.0049882585471
0.00498825901268
0.00498825953039
0.00498826010367
0.00498826072767
0.00498826139509
0.00498826210032
0.00498826283387
0.00498826358675
0.00498826435079
0.00498826511929
0.00498826588632
0.00498826664713
0.00498826739749
0.00498826813412
0.00498826885404
0.00498826955504
0.0049882702351
0.00498827089279
0.0049882715268
0.00498827213627
0.0049882727204
0.00498827327873
0.0049882738108
0.00498827431643
0.00498827479543
0.0049882752478
0.00498827567353
0.00498827607281
0.00498827644578
0.00498827679282
0.00498827711427
0.00498827741069
0.00498827768274
0.00498827793135
0.00498827815741
0.00498827836207
0.00498827854658
0.00498827871244
0.00498827886126
0.00498827899491
0.00498827911536
0.00498827922475
0.00498827932525
0.00498827941904
0.00498827950816
0.00498827959437
0.00498827967896
0.00498827976261
0.00498827984504
0.004988279925
0.00498827999994
0.00498828006611
0.00498828011854
0.00498828015137
0.00498828015829
0.00498828013327
0.00498828007148
0.00498827997042
0.00498827983118
0.00498827965983
0.00498827946963
0.00498827928309
0.00498827805302
0.00498836544598
0.00498836462429
0.00498836472038
0.00498836486835
0.00498836506434
0.00498836530251
0.00498836557694
0.00498836588081
0.00498836620784
0.00498836655135
0.00498836690579
0.00498836726576
0.00498836762741
0.00498836798749
0.00498836834452
0.00498836869779
0.00498836904832
0.00498836939776
0.00498836974911
0.00498837010566
0.0049883704715
0.00498837085042
0.00498837124642
0.00498837166265
0.00498837210193
0.00498837256581
0.00498837305518
0.0049883735695
0.00498837410755
0.00498837466679
0.00498837524424
0.00498837583595
0.00498837643792
0.00498837704558
0.00498837765471
0.00498837826089
0.00498837886035
0.00498837944932
0.00498838002484
0.00498838058404
0.0049883811249
0.00498838164547
0.00498838214459
0.00498838262152
0.00498838307638
0.00498838350903
0.00498838391972
0.00498838430862
0.00498838467644
0.00498838502373
0.00498838535153
0.00498838566068
0.00498838595242
0.00498838622779
0.00498838648816
0.00498838673468
0.0049883869688
0.00498838719176
0.00498838740509
0.00498838761007
0.00498838780835
0.00498838800131
0.00498838819073
0.0049883883782
0.00498838856571
0.00498838875514
0.0049883889488
0.00498838914898
0.00498838935845
0.00498838957998
0.0049883898169
0.00498839007257
0.00498839035096
0.00498839065608
0.00498839099261
0.00498839136526
0.00498839177925
0.00498839223931
0.00498839274958
0.00498839331196
0.00498839392401
0.00498839457794
0.00498839526845
0.00498839599067
0.00498839673695
0.00498839749985
0.00498839827273
0.00498839904938
0.00498839982447
0.00498840059311
0.0049884013512
0.00498840209503
0.00498840282158
0.00498840352814
0.00498840421262
0.00498840487313
0.00498840550832
0.00498840611699
0.00498840669836
0.00498840725175
0.00498840777684
0.00498840827335
0.0049884087413
0.00498840918071
0.00498840959188
0.00498840997512
0.00498841033097
0.00498841065999
0.00498841096296
0.00498841124079
0.00498841149468
0.00498841172578
0.00498841193548
0.00498841212524
0.00498841229678
0.00498841245188
0.00498841259257
0.00498841272092
0.00498841283914
0.0049884129494
0.00498841305384
0.00498841315437
0.0049884132526
0.00498841334957
0.00498841344565
0.00498841354027
0.00498841363179
0.00498841371734
0.00498841379279
0.00498841385283
0.00498841389121
0.0049884139012
0.00498841387618
0.00498841381053
0.00498841370065
0.00498841354606
0.00498841335076
0.00498841312467
0.00498841288504
0.00498841165457
0.00498849823789
0.00498849741679
0.00498849752118
0.00498849767856
0.00498849788498
0.0049884981347
0.00498849842179
0.00498849873933
0.00498849908093
0.00498849943985
0.00498849981035
0.00498850018694
0.0049885005656
0.00498850094294
0.00498850131735
0.00498850168801
0.00498850205582
0.00498850242236
0.00498850279061
0.00498850316382
0.00498850354612
0.00498850394131
0.00498850435347
0.00498850478579
0.0049885052412
0.00498850572128
0.00498850622702
0.00498850675794
0.0049885073129
0.00498850788938
0.00498850848449
0.00498850909428
0.00498850971478
0.00498851034141
0.00498851096994
0.00498851159589
0.00498851221542
0.00498851282463
0.00498851342045
0.00498851399985
0.00498851456063
0.00498851510066
0.0049885156186
0.00498851611334
0.00498851658486
0.00498851703308
0.00498851745805
0.00498851785971
0.0049885182386
0.00498851859508
0.00498851893007
0.00498851924426
0.00498851953884
0.00498851981476
0.00498852007341
0.00498852031593
0.00498852054388
0.00498852075857
0.00498852096171
0.00498852115478
0.00498852133964
0.00498852151798
0.00498852169188
0.00498852186326
0.00498852203448
0.00498852220779
0.0049885223859
0.00498852257144
0.00498852276753
0.00498852297725
0.00498852320417
0.00498852345182
0.0049885237242
0.00498852402524
0.00498852435929
0.00498852473049
0.00498852514315
0.0049885256008
0.00498852610632
0.00498852666062
0.00498852726294
0.00498852790726
0.00498852858629
0.00498852929612
0.00498853003233
0.00498853078819
0.00498853155754
0.00498853233435
0.00498853311324
0.00498853388912
0.00498853465757
0.0049885354145
0.00498853615645
0.00498853688026
0.00498853758339
0.00498853826352
0.00498853891889
0.00498853954793
0.00498854014956
0.00498854072282
0.00498854126717
0.00498854178216
0.0049885422677
0.00498854272375
0.00498854315058
0.00498854354851
0.00498854391812
0.00498854426004
0.00498854457516
0.00498854486449
0.00498854512941
0.00498854537119
0.00498854559135
0.00498854579145
0.00498854597332
0.00498854613883
0.00498854629005
0.00498854642906
0.00498854655808
0.0049885466792
0.00498854679447
0.00498854690565
0.00498854701417
0.00498854712085
0.00498854722582
0.00498854732827
0.00498854742631
0.00498854751685
0.00498854759557
0.00498854765693
0.00498854769448
0.00498854770116
0.00498854766991
0.00498854759442
0.0049885474701
0.00498854729519
0.00498854707199
0.00498854680816
0.00498854651811
0.00498854532381
0.00498863090598
0.00498863008588
0.00498863019937
0.0049886303679
0.00498863058751
0.00498863085244
0.00498863115671
0.00498863149338
0.00498863185589
0.00498863223732
0.00498863263178
0.00498863303355
0.0049886334384
0.00498863384271
0.00498863424464
0.00498863464314
0.00498863503892
0.00498863543337
0.00498863582932
0.00498863622986
0.00498863663901
0.00498863706048
0.00498863749827
0.0049886379555
0.00498863843505
0.00498863893845
0.0049886394667
0.00498864001929
0.0049886405951
0.00498864119166
0.0049886418061
0.00498864243454
0.00498864307308
0.00498864371718
0.00498864436269
0.00498864500512
0.00498864564068
0.00498864626545
0.00498864687634
0.00498864747027
0.00498864804498
0.00498864859826
0.00498864912868
0.00498864963474
0.00498865011647
0.00498865057398
0.00498865100721
0.00498865141597
0.00498865180072
0.00498865216173
0.00498865249984
0.00498865281572
0.00498865311051
0.00498865338519
0.00498865364116
0.00498865387966
0.00498865410232
0.00498865431059
0.00498865450632
0.00498865469119
0.00498865486726
0.00498865503645
0.00498865520107
0.00498865536331
0.00498865552578
0.00498865569096
0.0049886558618
0.00498865604114
0.00498865623226
0.00498865643836
0.00498865666307
0.0049886569099
0.00498865718272
0.00498865748523
0.0049886578214
0.00498865819479
0.00498865860898
0.00498865906667
0.0049886595699
0.00498866011914
0.00498866071341
0.00498866135005
0.00498866202187
0.00498866272215
0.00498866344838
0.00498866419592
0.00498866495912
0.00498866573228
0.00498866651021
0.00498866728785
0.00498866806075
0.00498866882463
0.00498866957587
0.00498867031102
0.00498867102726
0.00498867172199
0.00498867239315
0.00498867303888
0.00498867365782
0.00498867424876
0.00498867481095
0.00498867534375
0.00498867584691
0.00498867632025
0.00498867676398
0.00498867717833
0.00498867756386
0.00498867792117
0.00498867825115
0.00498867855484
0.0049886788337
0.00498867908905
0.00498867932245
0.0049886795355
0.00498867973004
0.00498867990794
0.00498868007125
0.00498868022204
0.00498868036241
0.00498868049439
0.00498868061989
0.0049886807405
0.00498868085746
0.00498868097141
0.00498868108227
0.00498868118904
0.00498868128966
0.0049886813809
0.00498868145831
0.00498868151625
0.00498868154813
0.00498868154668
0.00498868150454
0.00498868141488
0.00498868127243
0.00498868107459
0.00498868082275
0.00498868052365
0.00498868019112
0.0049886790593
0.0049887634609
0.00498876264427
0.00498876276781
0.00498876294936
0.00498876318484
0.00498876346854
0.00498876379441
0.00498876415534
0.00498876454466
0.00498876495526
0.00498876538096
0.00498876581578
0.00498876625518
0.00498876669523
0.00498876713378
0.00498876756946
0.0049887680027
0.00498876843459
0.00498876886771
0.0049887693049
0.00498876974997
0.0049887702064
0.00498877067804
0.00498877116782
0.00498877167849
0.00498877221147
0.00498877276768
0.00498877334652
0.00498877394692
0.00498877456637
0.00498877520211
0.0049887758503
0.00498877650717
0.00498877716826
0.00498877782956
0.00498877848667
0.0049887791359
0.00498877977341
0.00498878039616
0.00498878100109
0.00498878158599
0.00498878214862
0.00498878268759
0.00498878320091
0.00498878368881
0.00498878415168
0.00498878458944
0.00498878500185
0.00498878538933
0.00498878575214
0.00498878609109
0.00498878640683
0.00498878670055
0.00498878697325
0.0049887872264
0.00498878746131
0.00498878767971
0.00498878788319
0.00498878807373
0.00498878825317
0.00498878842374
0.00498878858755
0.00498878874709
0.00498878890472
0.00498878906323
0.00498878922528
0.00498878939393
0.00498878957212
0.00498878976323
0.00498878997044
0.00498879019736
0.00498879044738
0.00498879072419
0.00498879103121
0.004988791372
0.00498879174967
0.00498879216718
0.00498879262663
0.00498879312953
0.00498879367598
0.0049887942651
0.00498879489437
0.00498879556053
0.00498879625573
0.00498879697431
0.00498879771412
0.00498879847085
0.00498879923921
0.00498880001427
0.00498880079112
0.00498880156537
0.00498880233276
0.00498880308955
0.00498880383221
0.00498880455775
0.00498880526337
0.0049888059468
0.00498880660599
0.00498880723935
0.00498880784548
0.00498880842342
0.00498880897236
0.00498880949189
0.00498880998171
0.00498881044187
0.00498881087254
0.00498881127417
0.00498881164732
0.00498881199281
0.00498881231164
0.00498881260527
0.00498881287506
0.00498881312254
0.00498881334929
0.00498881355709
0.00498881374778
0.00498881392334
0.00498881408574
0.004988814237
0.004988814379
0.00498881451349
0.00498881464191
0.00498881476531
0.00498881488416
0.0049888149982
0.00498881510626
0.00498881520619
0.00498881529464
0.00498881536711
0.00498881541793
0.00498881544045
0.00498881542734
0.00498881537105
0.00498881526453
0.00498881510217
0.00498881488102
0.00498881460234
0.00498881427312
0.00498881390838
0.00498881285422
0.0049888959088
0.00498889509968
0.00498889523425
0.00498889543065
0.00498889568475
0.00498889599071
0.00498889634241
0.00498889673266
0.00498889715453
0.00498889760064
0.00498889806455
0.0049888985399
0.00498889902177
0.00498889950582
0.0049888999895
0.00498890047105
0.0049889009505
0.00498890142856
0.00498890190748
0.00498890238977
0.00498890287893
0.00498890337815
0.00498890389103
0.00498890442026
0.00498890496838
0.00498890553665
0.00498890612588
0.00498890673538
0.00498890736406
0.00498890800944
0.00498890866882
0.00498890933847
0.00498891001478
0.00498891069341
0.00498891137053
0.0049889120419
0.00498891270398
0.00498891335304
0.00498891398619
0.00498891460045
0.0049889151937
0.00498891576376
0.00498891630933
0.00498891682806
0.00498891732013
0.00498891778626
0.00498891822658
0.00498891864087
0.00498891902955
0.00498891939285
0.00498891973162
0.00498892004653
0.0049889203388
0.00498892060948
0.00498892086012
0.0049889210921
0.00498892130726
0.0049889215073
0.00498892169433
0.00498892187032
0.00498892203765
0.00498892219855
0.00498892235567
0.00498892251152
0.00498892266898
0.00498892283083
0.0049889230002
0.00498892318009
0.00498892337386
0.0049889235847
0.00498892381609
0.00498892407129
0.00498892435378
0.00498892466672
0.0049889250133
0.00498892539622
0.00498892581796
0.00498892628019
0.004988926784
0.00498892732931
0.00498892791521
0.00498892853946
0.00498892919909
0.00498892989014
0.00498893060532
0.00498893133927
0.00498893209016
0.00498893285363
0.00498893362519
0.00498893440006
0.00498893517402
0.00498893594284
0.00498893670282
0.00498893745036
0.00498893818238
0.00498893889599
0.00498893958879
0.00498894025857
0.00498894090359
0.00498894152228
0.00498894211355
0.00498894267641
0.00498894321032
0.00498894371485
0.00498894418993
0.00498894463561
0.00498894505227
0.00498894544034
0.00498894580059
0.00498894613389
0.0049889464417
0.0049889467254
0.00498894698643
0.00498894722631
0.00498894744676
0.00498894764952
0.00498894783648
0.00498894800948
0.00498894817042
0.00498894832101
0.00498894846288
0.00498894859726
0.00498894872505
0.00498894884653
0.00498894896131
0.0049889490681
0.00498894916464
0.00498894924755
0.00498894931233
0.00498894935333
0.00498894936397
0.00498894933694
0.00498894926473
0.00498894914028
0.00498894895798
0.00498894871502
0.00498894841309
0.00498894806032
0.00498894767397
0.00498894670358
0.00498902825229
0.00498902745598
0.0049890276027
0.00498902781588
0.00498902809126
0.004989028423
0.00498902880485
0.00498902922939
0.0049890296895
0.0049890301775
0.00498903068651
0.00498903120976
0.00498903174187
0.00498903227799
0.00498903281508
0.00498903335086
0.00498903388491
0.00498903441747
0.00498903495038
0.00498903548571
0.00498903602663
0.00498903657597
0.00498903713701
0.00498903771215
0.00498903830373
0.00498903891278
0.00498903953998
0.00498904018457
0.00498904084542
0.0049890415201
0.004989042206
0.00498904289951
0.00498904359719
0.0049890442949
0.004989044989
0.00498904567544
0.00498904635088
0.00498904701175
0.00498904765534
0.00498904827877
0.00498904888004
0.00498904945705
0.0049890500085
0.00498905053288
0.00498905102922
0.00498905149768
0.00498905193987
0.00498905235548
0.0049890527449
0.00498905310841
0.00498905344686
0.00498905376096
0.00498905405197
0.004989054321
0.00498905456967
0.00498905479944
0.00498905501226
0.0049890552099
0.00498905539461
0.00498905556846
0.00498905573395
0.00498905589345
0.0049890560497
0.00498905620531
0.00498905636326
0.00498905652639
0.00498905669789
0.00498905688077
0.00498905707836
0.0049890572938
0.00498905753047
0.00498905779147
0.00498905808009
0.00498905839921
0.00498905875174
0.00498905914
0.00498905956613
0.00498906003143
0.00498906053672
0.00498906108175
0.0049890616656
0.00498906228621
0.00498906294093
0.00498906362615
0.00498906433786
0.00498906506951
0.00498906581604
0.00498906657503
0.00498906734275
0.00498906811498
0.00498906888756
0.00498906965641
0.00498907041782
0.00498907116822
0.00498907190449
0.00498907262368
0.0049890733233
0.00498907400105
0.00498907465509
0.00498907528373
0.00498907588574
0.00498907646003
0.00498907700592
0.00498907752288
0.00498907801073
0.00498907846941
0.0049890788992
0.00498907930045
0.00498907967383
0.00498908002005
0.00498908034052
0.00498908063665
0.00498908090981
0.00498908116142
0.00498908139311
0.00498908160649
0.00498908180335
0.0049890819854
0.00498908215437
0.00498908231185
0.00498908245926
0.00498908259771
0.00498908272791
0.00498908284998
0.00498908296342
0.00498908306684
0.00498908315793
0.00498908323331
0.00498908328853
0.00498908331805
0.00498908331542
0.0049890832735
0.00498908318497
0.00498908304298
0.00498908284221
0.0049890825803
0.00498908225981
0.00498908189044
0.00498908149224
0.00498908060566
0.00498916049134
0.00498915971433
0.00498915987434
0.00498916010624
0.00498916040574
0.00498916076686
0.00498916118319
0.00498916164721
0.00498916215142
0.00498916268776
0.00498916324894
0.00498916382763
0.00498916441787
0.00498916501423
0.00498916561304
0.00498916621144
0.00498916680843
0.00498916740373
0.00498916799866
0.00498916859484
0.00498916919502
0.00498916980161
0.00498917041758
0.00498917104501
0.00498917168599
0.00498917234133
0.00498917301159
0.00498917369592
0.00498917439321
0.00498917510103
0.00498917581694
0.00498917653743
0.00498917725928
0.00498917797854
0.00498917869181
0.00498917939525
0.00498918008575
0.00498918075992
0.00498918141525
0.004989182049
0.00498918265933
0.00498918324423
0.00498918380255
0.00498918433294
0.0049891848337
0.00498918530523
0.00498918574978
0.00498918616711
0.00498918655769
0.0049891869218
0.00498918726036
0.0049891875741
0.00498918786435
0.00498918813227
0.00498918837956
0.00498918860775
0.00498918881887
0.0049891890148
0.00498918919789
0.00498918937031
0.00498918953467
0.00498918969343
0.00498918984944
0.00498919000538
0.00498919016432
0.00498919032913
0.00498919050304
0.00498919068906
0.0049891908905
0.00498919111042
0.0049891913521
0.00498919161851
0.00498919191273
0.00498919223743
0.00498919259524
0.0049891929882
0.00498919341816
0.00498919388613
0.00498919439274
0.0049891949376
0.00498919551979
0.00498919613736
0.00498919678788
0.00498919746803
0.00498919817424
0.00498919890213
0.00498919964675
0.00498920040247
0.00498920116636
0.00498920193517
0.00498920270542
0.00498920347306
0.0049892042344
0.00498920498589
0.00498920572443
0.00498920644701
0.00498920715114
0.00498920783442
0.00498920849494
0.00498920913093
0.00498920974107
0.00498921032418
0.00498921087949
0.00498921140635
0.0049892119045
0.00498921237378
0.00498921281439
0.0049892132266
0.00498921361098
0.00498921396806
0.00498921429912
0.00498921460569
0.00498921488903
0.00498921515046
0.0049892153915
0.00498921561365
0.00498921581857
0.00498921600782
0.00498921618299
0.0049892163455
0.00498921649664
0.00498921663733
0.00498921676814
0.00498921688907
0.00498921699951
0.00498921709799
0.00498921718221
0.00498921724882
0.00498921729348
0.0049892173108
0.00498921729456
0.00498921723789
0.0049892171338
0.00498921697582
0.00498921675911
0.00498921648198
0.00498921614803
0.00498921576874
0.00498921536701
0.0049892145608
0.00498929262381
0.00498929187351
0.0049892920481
0.00498929230084
0.00498929262731
0.00498929302156
0.00498929347702
0.00498929398585
0.0049892945403
0.00498929513184
0.00498929575261
0.00498929639465
0.00498929705132
0.00498929771643
0.00498929838562
0.00498929905531
0.00498929972385
0.00498930039032
0.00498930105548
0.00498930172044
0.00498930238748
0.00498930305859
0.00498930373639
0.00498930442262
0.00498930511914
0.00498930582655
0.0049893065453
0.00498930727446
0.00498930801293
0.00498930875835
0.00498930950841
0.00498931025976
0.00498931100939
0.00498931175356
0.00498931248914
0.00498931321247
0.00498931392071
0.00498931461067
0.00498931528002
0.0049893159262
0.00498931654753
0.00498931714214
0.00498931770901
0.004989318247
0.00498931875367
0.00498931922953
0.0049893196774
0.00498932009732
0.00498932048984
0.00498932085529
0.00498932119461
0.0049893215086
0.00498932179864
0.00498932206595
0.00498932231229
0.00498932253927
0.00498932274903
0.00498932294352
0.00498932312518
0.00498932329628
0.00498932345954
0.0049893236175
0.0049893237731
0.00498932392911
0.00498932408864
0.00498932425463
0.00498932443032
0.00498932461872
0.00498932482311
0.00498932504648
0.00498932529204
0.00498932556261
0.00498932586111
0.00498932619002
0.00498932655174
0.00498932694807
0.00498932738062
0.00498932785021
0.00498932835726
0.00498932890132
0.00498932948145
0.00498933009579
0.00498933074205
0.00498933141715
0.00498933211777
0.00498933284001
0.00498933357964
0.00498933433317
0.00498933509394
0.00498933585856
0.00498933662582
0.00498933739092
0.00498933815069
0.00498933890154
0.00498933964042
0.00498934036432
0.00498934107071
0.00498934175715
0.0049893424217
0.00498934306252
0.00498934367822
0.00498934426753
0.00498934482963
0.00498934536378
0.00498934586964
0.00498934634699
0.00498934679593
0.00498934721666
0.00498934760969
0.00498934797532
0.00498934831468
0.00498934862944
0.00498934892076
0.00498934918986
0.00498934943816
0.00498934966705
0.00498934987803
0.00498935007254
0.00498935025204
0.00498935041779
0.00498935057092
0.00498935071222
0.00498935084211
0.00498935096051
0.00498935106669
0.00498935115919
0.0049893512357
0.00498935129296
0.00498935132677
0.00498935133197
0.00498935130263
0.00498935123224
0.00498935111421
0.00498935094258
0.00498935071308
0.00498935042482
0.00498935008251
0.00498934969935
0.00498934930084
0.00498934856993
0.00498942464573
0.00498942393054
0.00498942412103
0.00498942439675
0.00498942475334
0.00498942518468
0.00498942568409
0.00498942624354
0.00498942685482
0.00498942750888
0.00498942819724
0.00498942891115
0.00498942964314
0.00498943038617
0.004989431135
0.00498943188523
0.00498943263444
0.00498943338099
0.00498943412505
0.00498943486712
0.00498943560901
0.00498943635228
0.00498943709918
0.00498943785113
0.00498943860977
0.0049894393755
0.00498944014868
0.00498944092832
0.00498944171337
0.00498944250152
0.00498944329061
0.00498944407747
0.0049894448593
0.00498944563258
0.00498944639442
0.00498944714139
0.00498944787089
0.00498944857991
0.00498944926634
0.00498944992778
0.00498945056271
0.00498945116936
0.00498945174684