/*--------------------------------*- C++ -*----------------------------------*\
| =========                 |                                                 |
| \\      /  F ield         | OpenFOAM: The Open Source CFD Toolbox           |
|  \\    /   O peration     | Version:  2206                                  |
|   \\  /    A nd           | Website:  www.openfoam.com                      |
|    \\/     M anipulation  |                                                 |
\*---------------------------------------------------------------------------*/
FoamFile
{
    version     2.0;
    format      ascii;
    arch        "LSB;label=64;scalar=64";
    class       volScalarField;
    location    "4.3/water";
    object      epsilonm;
}
// * * * * * * * * * * * * * * * * * * * * * * * * * * * * * * * * * * * * * //

dimensions      [0 2 -3 0 0 0 0];

internalField   nonuniform List<scalar> 
23300
(
0.000684255493174
0.000696549919049
0.000712000094046
0.000731920015981
0.000756289785161
0.00078518491001
0.000818811921418
0.000857464046348
0.000901510167211
0.00095135248242
0.00100742525447
0.00107015090453
0.00113993985388
0.00121714160606
0.0013020424682
0.00139481218182
0.00149550213127
0.00160399197721
0.00171999625552
0.00184301903387
0.00197237974483
0.00210718446891
0.00224637925721
0.00238874108041
0.00253295756201
0.00267762976401
0.00282136542228
0.00296277668794
0.00310056869728
0.00323351664259
0.00336053819545
0.00348064590253
0.00359300483058
0.00369686805313
0.00379162850095
0.00387674826704
0.00395181194825
0.00401645593643
0.00407042466659
0.00411350040991
0.00414555900937
0.00416649654259
0.00417627643535
0.00417492492001
0.00416273420419
0.00413995232565
0.00410687909305
0.00406382374826
0.00401116609167
0.003949304371
0.00387870713703
0.00379986257977
0.00371332511273
0.00361966829526
0.00351952659175
0.0034135520691
0.0033024510746
0.00318694428185
0.00306779797198
0.00294578678512
0.00282171943143
0.00269640354379
0.00257066595589
0.00244531933558
0.00232117766717
0.00219902486113
0.00207962674007
0.00196370265052
0.00185193641547
0.00174495378243
0.0016433375471
0.00154761777857
0.00145830201176
0.00137589319528
0.00130095799616
0.00123420898453
0.00117667588454
0.00112996459425
0.00109666791066
0.00108028035862
0.00108067357755
0.00109352024575
0.00111548620614
0.00114441922374
0.00117889933903
0.00121791474901
0.00126068734276
0.00130655652536
0.00135492850436
0.00140523071871
0.00145690273908
0.00150937506735
0.00156207584506
0.00161441980283
0.00166582233109
0.00171569329495
0.0017634543087
0.00180853430061
0.00185038719654
0.0018884873368
0.00192234594416
0.00195150558992
0.00197555472854
0.00199412107518
0.00200688395428
0.00201356656047
0.00201394567292
0.00200784182055
0.0019951234548
0.00197569385619
0.00194958274096
0.00191686425763
0.0018776697182
0.00183218512956
0.00178066083072
0.00172340955635
0.00166081595397
0.00159333634088
0.00152150829443
0.00144595115027
0.00136737338477
0.00128656969107
0.00120442005275
0.00112187546125
0.00103994010245
0.000959638271669
0.00088197626831
0.000807893746758
0.000738217150495
0.000673615192102
0.000614568218783
0.000561351126897
0.000514035398252
0.000472506085109
0.000436494356397
0.000405623586592
0.000379476992716
0.000357708104801
0.00034025229065
0.000327763219337
0.000789583903484
0.000796671107418
0.000809088931718
0.000826439149942
0.000848533815402
0.000875338274227
0.000906932415037
0.000943477257023
0.000985189360833
0.00103231486296
0.0010851086117
0.0011438094721
0.00120861941868
0.0012796773711
0.00135703724435
0.00144064139761
0.00153030076471
0.00162567313004
0.00172625260382
0.00183136134761
0.00194015780895
0.00205165039427
0.00216473063464
0.00227821044987
0.00239087598421
0.00250153728514
0.00260908533305
0.00271253239132
0.00281104967765
0.00290397929802
0.00299084055416
0.00307131101255
0.003145208279
0.00321245445106
0.00327305102781
0.00332704435283
0.00337450771955
0.00341551713606
0.00345014465433
0.00347844457084
0.00350045530551
0.00351619272013
0.00352565803737
0.00352884274925
0.00352579530043
0.00351654271897
0.00350110660445
0.00347950812895
0.00345178086389
0.00341797297363
0.00337815724101
0.00333243207608
0.00328092998138
0.00322381812696
0.00316130557765
0.00309364341017
0.0030211304746
0.00294411260258
0.00286298640291
0.0027781969185
0.00269023888907
0.00259965225175
0.00250702047378
0.00241296359537
0.00231813367318
0.00222320562671
0.00212887050881
0.00203582526829
0.0019447656906
0.00185637784289
0.00177133495913
0.00169029675324
0.00161391875975
0.00154287003973
0.0014778663272
0.00141971490872
0.00136936932489
0.001327964269
0.00129675329585
0.00127673672322
0.00126776381641
0.00126839379952
0.00127691026472
0.00129177202012
0.00131170286939
0.00133565902412
0.00136277353733
0.00139230527259
0.00142360201523
0.00145607333257
0.00148917373365
0.0015223906889
0.001555238982
0.00158725704834
0.00161800731809
0.00164707667946
0.00167407922728
0.00169865784048
0.00172048692855
0.00173927337832
0.00175475815186
0.0017667159728
0.00177495551709
0.00177931784256
0.00177967532429
0.00177592904543
0.00176800670607
0.00175585922214
0.00173945815856
0.00171878812621
0.00169388354365
0.00166479942261
0.00163161076367
0.0015944134313
0.00155332717939
0.00150849958463
0.00146011210743
0.00140838720061
0.00135359726634
0.00129607396887
0.001236217754
0.00117450520876
0.00111149297142
0.00104781524524
0.000984173504589
0.000921316655949
0.000860012460305
0.000801011898154
0.00074501069185
0.000692612367795
0.000644297626363
0.000600402692753
0.000561107459297
0.000526431218201
0.000496231556041
0.000470198158256
0.000447825391782
0.000428326076793
0.00041039667063
0.000391724306469
0.000892642930193
0.000897526132128
0.000907554971505
0.000922459369019
0.000942095743882
0.000966422239685
0.000995473526685
0.00102933814193
0.00106813797914
0.00111200767996
0.00116107493792
0.0012154397354
0.00127515427957
0.00134020187776
0.00141047738652
0.00148576792363
0.00156573755095
0.001649915072
0.00173768962048
0.00182831305833
0.00192091402001
0.00201452108173
0.00210809854956
0.00220058907522
0.00229096410124
0.00237827265215
0.0024616880011
0.00254054141731
0.00261434462775
0.00268279283761
0.0027457552267
0.00280324899507
0.00285540836671
0.00290244630673
0.0029446209324
0.00298220248883
0.00301545055951
0.00304459446321
0.00306982422122
0.00309128348454
0.00310907094567
0.00312324179272
0.00313381590939
0.0031407534463
0.00314398448481
0.00314342122358
0.00313896359697
0.00313050371991
0.00311793368756
0.00310115050765
0.00308006335518
0.00305459811184
0.00302470396627
0.00299035766444
0.00295156953956
0.00290838741783
0.00286090189256
0.00280924953042
0.00275361693528
0.00269424267014
0.00263141949449
0.00256549433638
0.0024968681079
0.00242599319789
0.0023533705231
0.00227954437816
0.00220509684367
0.00213064040483
0.0020568105629
0.00198425762423
0.00191363973908
0.00184561707499
0.00178084946716
0.00171999741154
0.00166372719735
0.00161271648235
0.00156765394087
0.00152921771926
0.00149800844033
0.00147439411937
0.00145830319463
0.00144916613921
0.00144611384417
0.00144819767497
0.00145449995697
0.00146417990965
0.00147648476268
0.00149074485501
0.00150636358953
0.00152280638593
0.00153959127266
0.00155628126401
0.0015724792281
0.00158782439236
0.00160199061711
0.0016146853274
0.00162564919206
0.0016346555876
0.00164151014257
0.00164604964757
0.00164814081287
0.00164767832918
0.0016445827999
0.00163879808728
0.00163028866064
0.00161903654383
0.00160503846512
0.00158830290803
0.00156884777614
0.00154669851052
0.00152188343974
0.00149444099545
0.00146441513716
0.00143185596759
0.00139682201385
0.0013593839467
0.00131963015415
0.0012776738576
0.00123366187705
0.00118778429208
0.00114028438868
0.00109146736089
0.00104170632751
0.000991443645996
0.000941186088477
0.000891492759631
0.000842956031209
0.000796176797086
0.000751736743299
0.000710170699577
0.000671942015026
0.000637422503047
0.000606876659502
0.000580447515678
0.000558139506899
0.000539791867769
0.000525033545474
0.000513201115709
0.000503091085428
0.000494085839425
0.000971971647426
0.000976651589132
0.000986047506524
0.00100010667281
0.00101877855324
0.00104203993832
0.0010698982917
0.00110238470547
0.00113954247527
0.00118141251414
0.00122801783602
0.00127934654999
0.00133533521574
0.0013958517708
0.00146068036227
0.00152950747916
0.00160191246005
0.00167736193799
0.00175521183986
0.00183471606714
0.00191504522125
0.00199531286854
0.00207461126643
0.00215205123186
0.00222680605289
0.00229815148154
0.00236550103545
0.0024284283777
0.00248667840924
0.00254016164209
0.00258893801029
0.00263318813119
0.0026731814157
0.0027092399615
0.00274170752489
0.00277092061198
0.0027971888104
0.00282077894372
0.00284190826649
0.00286074003321
0.00287738593898
0.00289190880888
0.00290433012784
0.00291460363814
0.00292260598174
0.00292819776091
0.00293122689255
0.00293153162302
0.00292894643762
0.00292330611937
0.00291445174872
0.00290223480781
0.00288652295685
0.00286720413155
0.00284419210582
0.00281743053559
0.00278689818413
0.00275261266454
0.00271463499045
0.00267307256158
0.00262808252634
0.00257987342456
0.0025287067835
0.00247489684575
0.00241880991797
0.00236086179342
0.00230151462042
0.00224127193298
0.00218067315816
0.00212028659645
0.0020607022239
0.00200252361674
0.00194636031356
0.00189281977001
0.00184249917379
0.00179597435127
0.00175378276873
0.00171639431311
0.00168416500491
0.00165727260371
0.00163565626717
0.00161904230342
0.00160693214015
0.0015987219343
0.00159377425997
0.0015914631351
0.0015911997252
0.00159244400381
0.00159470814857
0.00159755506197
0.00160059512961
0.00160348228279
0.00160591066411
0.00160761167606
0.00160835185582
0.00160793090302
0.00160618011654
0.00160296058416
0.00159816146523
0.00159169784345
0.00158350858417
0.00157355377179
0.00156181220207
0.00154827856159
0.0015329607774
0.001515877217
0.00149705423616
0.00147652383464
0.00145432197633
0.0014304874675
0.00140504405084
0.00137801785068
0.00134943500856
0.00131932237566
0.00128770959383
0.00125463242429
0.00122013767271
0.00118428946771
0.00114717696291
0.0011089228562
0.00106969224491
0.00102970064588
0.000989220124346
0.00094858206827
0.000908175628058
0.000868441068856
0.000829858308196
0.00079293160214
0.000758172327207
0.000726082034589
0.000697137886829
0.000671781565055
0.000650411361945
0.000633375402544
0.000620962900893
0.000613391266439
0.000610791604446
0.000613190673107
0.000620091559063
0.000632082353557
0.00104782320094
0.00105234349877
0.00106138209111
0.00107492124088
0.00109293885766
0.0011154168797
0.00114234361683
0.0011737099404
0.00120950191602
0.00124969011774
0.00129421786091
0.00134298789425
0.00139584974108
0.00145258698542
0.00151290700037
0.00157643243004
0.00164269736501
0.00171114739479
0.00178114667751
0.00185199051874
0.0019229261441
0.00199317858164
0.00206198311409
0.00212861900053
0.00219244461879
0.00225292705557
0.00230966636568
0.00236240788202
0.00241104517235
0.00245560944454
0.00249625149869
0.00253321443507
0.00256680531879
0.00259736430583
0.00262523900062
0.00265076089649
0.00267422989578
0.0026959018928
0.00271598396928
0.00273463126983
0.00275194950252
0.00276799708384
0.00278279071447
0.00279630551085
0.00280839009068
0.00281888672156
0.00282762467005
0.00283442332709
0.00283909721523
0.00284145916611
0.00284132526709
0.00283851814342
0.00283287183779
0.00282423521484
0.00281247679718
0.00279748827121
0.00277918920692
0.00275753050242
0.00273249875793
0.00270411933238
0.00267245998875
0.0026376331027
0.00259979809646
0.00255916228168
0.00251598158865
0.00247055956342
0.00242324597159
0.00237443356497
0.00232455423512
0.00227407325865
0.00222348276768
0.00217329328729
0.0021240243786
0.00207619324523
0.00203030199384
0.00198682199358
0.00194617533194
0.00190871167925
0.00187468174221
0.00184420987337
0.00181727509498
0.00179373149268
0.00177333195875
0.00175570814868
0.00174044868266
0.00172712952426
0.00171533627558
0.00170467805619
0.00169479537148
0.00168536334706
0.00167609259449
0.00166672836984
0.0016570493394
0.00164686581867
0.00163601817522
0.00162437491513
0.00161183093608
0.00159830542851
0.00158373988903
0.00156809578283
0.00155135232903
0.00153350399953
0.00151455820079
0.00149453277061
0.00147345374638
0.00145135308019
0.0014282667529
0.00140423302395
0.00137929128076
0.00135348129096
0.00132682110984
0.00129932752984
0.00127101572661
0.0012419002359
0.00121199703392
0.00118132659665
0.00114991825134
0.0011178155987
0.00108508308175
0.00105181320224
0.00101813405802
0.000984216330055
0.000950279034742
0.000916593051112
0.00088348188631
0.000851319294896
0.00082052418299
0.000791553712048
0.000764896325126
0.000741066673316
0.000720604622369
0.000704080051524
0.000692104488907
0.000685349471848
0.000684570667474
0.000690637370069
0.000704572032422
0.000727609315923
0.000761047270098
0.000807527567631
0.00112110909169
0.00112553018435
0.00113436410279
0.00114759522351
0.00116520169512
0.00118715619377
0.00121342502894
0.00124396397397
0.0012787122948
0.00131758428116
0.00136046040136
0.00140717737227
0.00145751941538
0.0015112098614
0.00156790563587
0.00162719362905
0.00168859171844
0.00175155310197
0.00181547668681
0.00187972139357
0.00194362664758
0.00200653556033
0.0020678222159
0.00212691798353
0.00218333763567
0.00223669927902
0.00228673942481
0.00233331780902
0.00237641535476
0.00241612170079
0.00245261818204
0.00248615416164
0.00251702385042
0.00254554143053
0.00257202112086
0.00259675870031
0.00262001982156
0.00264203031515
0.0026629727919
0.00268298413172
0.00270215772244
0.00272054506953
0.00273816061454
0.00275498500938
0.00277088672943
0.00278569932506
0.00279924640635
0.00281134320579
0.00282180038157
0.00283042627891
0.00283703097095
0.00284142876348
0.00284344226788
0.00284290507939
0.00283966586791
0.00283359120469
0.00282456962081
0.00281251447052
0.00279736780189
0.00277910302792
0.00275772833801
0.00273328883655
0.00270586912537
0.00267559448808
0.0026426322113
0.00260719135219
0.00256952233866
0.00252991483725
0.00248869514482
0.00244622163777
0.00240287942388
0.00235907283126
0.00231521682243
0.0022717261212
0.00222900317244
0.00218742397533
0.00214732313192
0.00210897776939
0.0020725925799
0.0020382871849
0.00200608962333
0.00197593793579
0.00194773778175
0.00192132808946
0.00189647836577
0.00187293879591
0.00185045549327
0.00182878164685
0.00180768539596
0.00178695447139
0.00176639902051
0.00174585263421
0.00172517267501
0.00170423964124
0.00168295635921
0.00166124657573
0.00163905357674
0.00161633836631
0.00159307795933
0.00156926334104
0.00154489760568
0.00151999385966
0.00149457336692
0.00146866355717
0.00144229634404
0.00141550641473
0.00138832991852
0.00136080326849
0.00133296247383
0.00130484276614
0.00127645606278
0.00124781130415
0.00121891594248
0.00118977719588
0.00116040418571
0.00113081081915
0.0011010196977
0.00107106684038
0.00104100731345
0.0010109213607
0.000980920848621
0.000951155405399
0.000921817882166
0.000893148537897
0.000865437799386
0.000839027572158
0.000814311796926
0.000791737364977
0.000771807321143
0.000755088757983
0.000742228525687
0.000733980352688
0.000731247711521
0.000735147450181
0.000747100384774
0.000768957532033
0.000803178797747
0.000853101897549
0.000923249832139
0.00102082212464
0.00119227899843
0.00119666459409
0.00120542282862
0.0012185311637
0.00123595685272
0.00125765513322
0.00128356679673
0.00131361359776
0.00134769302327
0.00138567145176
0.00142737777447
0.0014725964952
0.00152106266469
0.00157245748139
0.00162640704798
0.00168248288046
0.00174020671689
0.00179905775284
0.00185848473079
0.00191792023029
0.00197679923649
0.00203457828496
0.00209075682087
0.00214489606072
0.00219663690015
0.002245711753
0.00229195263285
0.00233529094266
0.00237575290182
0.00241344724172
0.00244855073361
0.00248128893448
0.00251191839929
0.0025407074865
0.00256792158971
0.00259380898862
0.00261859228123
0.00264246072897
0.00266556779606
0.0026880288338
0.00270992285961
0.00273129342375
0.00275215241494
0.00277248219119
0.00279219388217
0.0028111171403
0.00282907485506
0.00284588343545
0.00286135556201
0.00287530162891
0.00288753304642
0.00289786408145
0.00290611526819
0.00291211544021
0.00291570516851
0.00291673893515
0.0029150885499
0.00291064537772
0.00290332362215
0.00289306244198
0.00287982891117
0.00286361978019
0.00284446384486
0.00282242303395
0.00279759384942
0.00277010739806
0.00274012950416
0.00270785924554
0.00267352728119
0.00263739240143
0.00259973757824
0.00256086405521
0.00252108473873
0.0024807156318
0.00244006670633
0.00239943132727
0.00235907594206
0.00231922965386
0.00228007573006
0.00224174498206
0.00220431294791
0.0021678002119
0.00213217719922
0.00209745100689
0.00206356272598
0.00203040923792
0.00199787742569
0.00196585149231
0.00193421905713
0.00190287530071
0.00187172615112
0.00184069000537
0.00180969888381
0.00177869854387
0.0017476483697
0.00171652056199
0.00168529932728
0.00165397958325
0.00162256579036
0.00159107044343
0.00155951276819
0.00152791718761
0.00149631205092
0.00146472822724
0.00143319801401
0.0014017540049
0.0013704283369
0.00133925201396
0.00130825470598
0.00127746476841
0.00124688816451
0.00121652640574
0.00118638036335
0.0011564517524
0.0011267453325
0.00109727166865
0.00106805070889
0.0010391159763
0.00101051948955
0.000982337086352
0.000954674087367
0.000927670882378
0.000901508321452
0.00087641262957
0.000852660026925
0.000830581372643
0.00081056785486
0.000793079215465
0.000778656967047
0.000767945938583
0.000761729004638
0.000760981776234
0.000766957249649
0.000781315182808
0.00080631860662
0.000845132179233
0.000902280671054
0.000984380322058
0.00110131837085
0.00126905968345
0.00126186867855
0.00126628223605
0.00127509025874
0.00128825914551
0.00130573996031
0.00132746592881
0.00135334960227
0.00138327836981
0.00141711013988
0.00145466801758
0.00149573625663
0.00154005625643
0.00158732491134
0.0016371938382
0.00168927184698
0.00174312878824
0.00179830312133
0.00185431081549
0.00191065781202
0.00196685300122
0.00202242380086
0.00207693058762
0.00212998202945
0.0021812470273
0.00223046560166
0.0022774543154
0.00232210935698
0.00236440326431
0.00240437954693
0.00244214175939
0.0024778422491
0.00251166737588
0.00254382477367
0.00257452915058
0.00260399193532
0.00263241066236
0.00265996289751
0.00268680008527
0.00271304569956
0.00273879286143
0.0027641055428
0.00278901854964
0.00281354025525
0.00283765360067
0.00286132455608
0.00288438095384
0.00290664637162
0.00292793940133
0.002948075721
0.00296686895777
0.00298413345478
0.00299968556849
0.00301334655267
0.00302494403595
0.00303431491951
0.00304130697245
0.00304578169234
0.00304761594102
0.00304670468026
0.00304296252343
0.00303632621216
0.00302675591109
0.00301423724293
0.00299878210341
0.00298043001968
0.00295924821007
0.00293533197644
0.00290880368374
0.00287981185257
0.002848528709
0.00281514764945
0.002779879078
0.00274294607266
0.00270457852399
0.00266500730615
0.00262445741001
0.0025831417726
0.00254125499709
0.00249896870048
0.00245642762278
0.00241374783074
0.00237101583568
0.00232828928943
0.00228559894541
0.00224306568981
0.00220073164591
0.00215860555998
0.0021166884587
0.00207497729615
0.00203346767415
0.00199215637273
0.00195104295238
0.00191013111039
0.00186942912652
0.00182895021625
0.0017887122157
0.00174873733299
0.00170905141902
0.00166968340565
0.00163066439859
0.00159202699895
0.0015538043824
0.00151602964895
0.00147873501787
0.00144195132961
0.00140570747854
0.00137003020085
0.00133494389845
0.00130047089609
0.00126663186333
0.00123342759953
0.00120085202349
0.0011688994427
0.00113756622592
0.00110685306166
0.00107676763142
0.00104732794175
0.00101856612309
0.000990532835787
0.000963302027223
0.000936976081391
0.00091169110547
0.00088762243879
0.000864990356191
0.000844066425592
0.000825181151308
0.00080873428166
0.000795209746737
0.000785198421291
0.000779433338453
0.000778844549524
0.00078464471977
0.000798463413749
0.000822559579316
0.000860161982981
0.000916022855054
0.000997336131113
0.00111530996487
0.00128797872509
0.00154616599191
0.00133050417028
0.0013350115605
0.00134399974068
0.00135742137723
0.00137520796567
0.00139726734475
0.00142348119221
0.00145370111483
0.00148774547215
0.00152539579994
0.00156639518084
0.00161044707464
0.00165721696798
0.00170633490622
0.0017574011584
0.00180999266885
0.00186367245732
0.00191799912735
0.00197253862715
0.00202687494886
0.00208062203547
0.00213343321422
0.00218501073939
0.00223511155951
0.00228355240949
0.00233021032634
0.00237502236296
0.00241798070636
0.00245912764987
0.00249854670198
0.00253635475852
0.00257269152932
0.00260771131817
0.00264157308167
0.00267443377762
0.0027064406023
0.00273772691227
0.00276840718233
0.00279857556753
0.00282830331714
0.00285763937759
0.00288660939712
0.00291521712772
0.00294344342236
0.00297130721051
0.00299864777364
0.00302528911649
0.00305105026287
0.00307574798149
0.00309919743288
0.00312121451498
0.00314161665814
0.00316022525894
0.00317686666589
0.00319137463204
0.00320359141043
0.00321337015946
0.00322057606745
0.00322508863334
0.00322680271946
0.00322563061185
0.00322150288165
0.00321437011054
0.00320420341965
0.00319099572014
0.00317476174147
0.00315553863666
0.00313338531617
0.00310838221831
0.00308062975706
0.00305024709856
0.00301736961222
0.00298214663651
0.00294473804758
0.00290531130675
0.00286403764472
0.00282108908481
0.00277663505815
0.00273084017427
0.00268386178135
0.0026358485607
0.00258693865527
0.0025372585585
0.00248692112164
0.00243602536004
0.00238479443533
0.00233337088504
0.00228185897637
0.00223035468087
0.00217894621075
0.00212771551683
0.00207673932871
0.00202609031519
0.00197583747592
0.00192604668984
0.00187678070339
0.00182809931581
0.00178005912435
0.00173271351079
0.0016861122916
0.00164030163578
0.00159532373034
0.00155121672998
0.001508014529
0.00146574683452
0.00142443913807
0.00138411302217
0.00134478646411
0.00130647454287
0.00126919026843
0.00123293073954
0.00119768185449
0.00116343082948
0.00113016802856
0.00109788927383
0.00106659845618
0.0010363106873
0.00100705581146
0.000978882445676
0.000951862350587
0.000926095260291
0.000901714043694
0.000878890442748
0.000857841559694
0.000838837782336
0.000822213056896
0.000808379238191
0.000797846998542
0.000791257328527
0.000789429739712
0.000793437084068
0.00080472318512
0.000825291005414
0.0008580100015
0.000907130786724
0.000979170747777
0.00108448423869
0.00124014887006
0.00147553303982
0.00184426096843
0.00139887164136
0.00140354284008
0.00141284985852
0.00142672929201
0.00144508997526
0.00146781100994
0.00149473995481
0.00152568988501
0.00156043777471
0.0015987228742
0.00164024770006
0.00168467985159
0.00173165687998
0.00178079188857
0.00183168194755
0.00188391648183
0.00193708768654
0.00199079972474
0.00204467891111
0.00209838140049
0.00215160099028
0.00220407349216
0.0022555808715
0.00230595161957
0.00235506117039
0.00240282877229
0.00244921510258
0.00249421682912
0.00253786268229
0.00258020692364
0.00262132491611
0.00266130638463
0.00270025117758
0.00273826292704
0.00277544550185
0.00281189755178
0.00284771005149
0.00288296209522
0.00291771977698
0.00295203341384
0.00298593780925
0.00301945090282
0.0030525753665
0.00308529878532
0.00311759684737
0.00314943107649
0.00318060882001
0.0032109412986
0.00324024157132
0.00326832282239
0.00329499956359
0.00332008769891
0.00334340648877
0.00336477906956
0.00338403453587
0.00340100860577
0.00341554566948
0.00342749949116
0.00343673514463
0.00344312966399
0.00344657379765
0.00344697252718
0.00344424657795
0.00343833273091
0.00342918502872
0.00341677480347
0.00340109151147
0.00338214239722
0.00335995289013
0.0033345658406
0.00330604144384
0.00327445604593
0.00323990164871
0.00320248440296
0.0031623238802
0.00311955149304
0.00307430978367
0.00302675096051
0.0029770362256
0.00292533419691
0.00287181976013
0.002816671703
0.00276007047449
0.00270219485903
0.0026432186042
0.00258330751469
0.00252275764518
0.00246181922432
0.0024006770277
0.00233950423775
0.00227846141817
0.00221769799762
0.00215735279025
0.00209755395773
0.0020384194816
0.00198005724386
0.00192256547256
0.00186603280784
0.00181053870691
0.00175615353572
0.00170293898726
0.00165094824966
0.00160022648843
0.00155081113569
0.00150273248721
0.00145601416989
0.0014106739328
0.0013667244015
0.00132417421918
0.00128302928821
0.00124328525938
0.00120491953124
0.00116791151493
0.00113224457985
0.00109790840892
0.0010649015725
0.00103323455688
0.00100293307312
0.000974041842271
0.000946628708246
0.000920789278341
0.000896652063659
0.000874384489775
0.000854200105485
0.000836367864573
0.000821224627992
0.000809192940883
0.000800807070618
0.000796752191073
0.00079792436067
0.000805524075067
0.000821205098032
0.000847317199178
0.000887313809354
0.000946460310184
0.00103311161944
0.00116111152075
0.00135450229543
0.00165726550895
0.00215525804818
0.00146769403265
0.00147260383569
0.00148237787598
0.00149693415902
0.00151615545854
0.00153988809045
0.00156794123855
0.00160008533952
0.00163605229155
0.00167553621843
0.00171819739156
0.00176366716416
0.00181155613963
0.00186146266131
0.0019129835852
0.00196572401024
0.00201930796629
0.00207338649643
0.00212764552075
0.00218180993537
0.00223564702413
0.00228896581346
0.00234161623386
0.00239348481972
0.00244449141283
0.00249458340706
0.00254373223775
0.00259192813296
0.00263917777511
0.00268550027224
0.00273092601172
0.00277549338534
0.00281924806567
0.00286223972429
0.00290452111401
0.00294614448853
0.00298716047514
0.00302761447583
0.00306754574556
0.00310698429278
0.00314595062059
0.00318445348565
0.00322249038085
0.00326004580887
0.00329709138515
0.00333367821973
0.00336960514204
0.00340467631471
0.00343869898488
0.00347148130782
0.00350283313652
0.0035325656171
0.00356049281418
0.00358643183258
0.00361020460843
0.0036316382097
0.00365056661877
0.00366683109533
0.00368028187576
0.00369077852252
0.00369819149208
0.00370240241885
0.00370330552912
0.00370080783243
0.00369483037934
0.00368530835106
0.0036721921701
0.00365544749047
0.00363505617889
0.00361101622289
0.00358334261754
0.00355206723554
0.00351723967917
0.00347892717612
0.00343721544633
0.00339220862879
0.00334403007457
0.00329282207542
0.00323874616269
0.00318198203018
0.00312272659746
0.00306119140742
0.00299759995913
0.00293218347484
0.00286517696863
0.00279681389538
0.00272732239975
0.00265702472738
0.00258629976504
0.00251539841677
0.00244455157963
0.00237397637071
0.00230387493718
0.00223443307921
0.00216582045905
0.00209819063144
0.00203168157515
0.00196641592497
0.00190250164498
0.00184003241263
0.0017790884031
0.00171973683683
0.00166203289019
0.00160602041137
0.00155173296716
0.0014991947415
0.00144842175582
0.00139942301908
0.00135220205449
0.00130675853013
0.00126308975039
0.00122116431785
0.00118095323392
0.00114243186347
0.00110558234552
0.00107039617849
0.00103687718946
0.00100504471428
0.000974937214025
0.000946616220911
0.000920170874293
0.000895723095888
0.000873433871279
0.00085351108501
0.00083621993217
0.00082189725127
0.000810972118588
0.000803996153717
0.000801689228175
0.000805009709244
0.00081526484383
0.000834288544357
0.000864736553494
0.000910594196982
0.00097808655539
0.00107738680277
0.00122598746645
0.0014557202135
0.00182825110226
0.00247196548063
0.00153772455497
0.00154295297411
0.00155335241674
0.00156881933429
0.00158920629883
0.00161432190475
0.00164393144661
0.00167775699742
0.00171547996191
0.00175674454991
0.00180116501385
0.00184833406166
0.00189783439588
0.00194924999207
0.00200217889946
0.00205624375163
0.00211110204471
0.00216645235489
0.00222203922186
0.00227765315806
0.00233312945403
0.00238834259261
0.00244320083397
0.00249763787236
0.00255160662973
0.00260507168565
0.00265800539381
0.00271038336864
0.00276218407509
0.00281338736531
0.00286397649229
0.00291393798455
0.00296326406436
0.00301195199364
0.00306000541675
0.00310743231523
0.0031542449783
0.0032004568193
0.00324608155216
0.00329112967328
0.00333560763231
0.00337951463447
0.0034228420134
0.00346556973964
0.00350766370027
0.00354925605412
0.00359015274686
0.00363015146957
0.00366905058534
0.00370664938898
0.0037427492445
0.00377715286835
0.00380966567418
0.00384009552464
0.003868254285
0.00389395780596
0.003917027515
0.00393729051036
0.00395458111995
0.00396874103914
0.00397962082348
0.0039870800371
0.00399098868254
0.00399122736449
0.00398768869279
0.00398027749498
0.00396891224829
0.00395352539062
0.00393406484402
0.00391049447899
0.00388279578685
0.00385096854132
0.00381503264552
0.00377502897773
0.00373102133393
0.00368309728217
0.00363136988602
0.00357597809402
0.00351708759889
0.00345488999983
0.0033896020055
0.00332146271279
0.00325073078234
0.00317767988991
0.00310259434443
0.00302576363727
0.00294747745185
0.00286802068608
0.00278768311138
0.00270701761299
0.00262629942564
0.00254581145688
0.00246581783481
0.00238656039181
0.00230825999351
0.00223111643083
0.00215530884298
0.00208099598749
0.00200831704661
0.00193739215865
0.00186832342454
0.00180119569459
0.00173607778168
0.00167302348958
0.0016120730137
0.00155325418638
0.0014965840504
0.00144207031519
0.00138971313395
0.00133950687571
0.001291453711
0.00124551431029
0.00120165113383
0.0011598306823
0.00112002617192
0.00108222025356
0.00104640800486
0.00101260004983
0.000980826074248
0.00095113867062
0.000923617825683
0.000898376158044
0.000875565447306
0.000855384991952
0.000838092934707
0.000824022059788
0.000813602644898
0.000807396224834
0.00080614668632
0.000810859192304
0.000822925191736
0.000844326118467
0.000877976972409
0.000928329742769
0.00100248423719
0.00111234493615
0.00127906338481
0.00154278590334
0.00198549625763
0.00278851422785
0.0016097558776
0.0016153886451
0.0016265829538
0.00164321013941
0.00166508759785
0.00169197998333
0.00172360171583
0.00175961914672
0.00179965579688
0.00184329917271
0.001890111839
0.00193964361642
0.00199144676156
0.00204508997642
0.00210017293232
0.0021563370259
0.00221327456281
0.00227073237612
0.00232851308068
0.00238647051078
0.0024445037111
0.00250254646851
0.00256055766919
0.0026185094437
0.00267637872338
0.00273413851519
0.00279175425177
0.00284918043978