/*--------------------------------*- C++ -*----------------------------------*\
| =========                 |                                                 |
| \\      /  F ield         | OpenFOAM: The Open Source CFD Toolbox           |
|  \\    /   O peration     | Version:  2206                                  |
|   \\  /    A nd           | Website:  www.openfoam.com                      |
|    \\/     M anipulation  |                                                 |
\*---------------------------------------------------------------------------*/
FoamFile
{
    version     2.0;
    format      ascii;
    arch        "LSB;label=64;scalar=64";
    class       volScalarField;
    location    "4.3/water";
    object      p_rgh;
}
// * * * * * * * * * * * * * * * * * * * * * * * * * * * * * * * * * * * * * //

dimensions      [1 -1 -2 0 0 0 0];

internalField   nonuniform List<scalar> 
23300
(
100737.765244
100737.816158
100737.8059
100737.791236
100737.772406
100737.749818
100737.723971
100737.695458
100737.664855
100737.632779
100737.599794
100737.566461
100737.533261
100737.500624
100737.468887
100737.438301
100737.409022
100737.381109
100737.354548
100737.329239
100737.305046
100737.281769
100737.259219
100737.237177
100737.215472
100737.193928
100737.172453
100737.150957
100737.129449
100737.107938
100737.086525
100737.065299
100737.04442
100737.02402
100737.004278
100736.985323
100736.967318
100736.950361
100736.934571
100736.919995
100736.906699
100736.894673
100736.883924
100736.874374
100736.865969
100736.8586
100736.852175
100736.846546
100736.841583
100736.837108
100736.832965
100736.828957
100736.824912
100736.820624
100736.815914
100736.810575
100736.804429
100736.797275
100736.788943
100736.779246
100736.768028
100736.75512
100736.740385
100736.723681
100736.704897
100736.683926
100736.660695
100736.635148
100736.60727
100736.577081
100736.544658
100736.510134
100736.47372
100736.435709
100736.396484
100736.356517
100736.316317
100736.276309
100736.236507
100736.196848
100736.157573
100736.119206
100736.082016
100736.045746
100736.009966
100735.974269
100735.938326
100735.901902
100735.864849
100735.827096
100735.788636
100735.749514
100735.709818
100735.669662
100735.62919
100735.588555
100735.547925
100735.507468
100735.467358
100735.42776
100735.388842
100735.350753
100735.313644
100735.277646
100735.242884
100735.209462
100735.177478
100735.147003
100735.118103
100735.090816
100735.065173
100735.04118
100735.018836
100734.998117
100734.978993
100734.961411
100734.945318
100734.930638
100734.917304
100734.905234
100734.894363
100734.884628
100734.875994
100734.868449
100734.862026
100734.8568
100734.852903
100734.850516
100734.849863
100734.851187
100734.85472
100734.860627
100734.868958
100734.879571
100734.892071
100734.905732
100734.919421
100734.931497
100734.939864
100735.006314
100737.845247
100737.897444
100737.892102
100737.883257
100737.871271
100737.856477
100737.839221
100737.819903
100737.798906
100737.776621
100737.753393
100737.729541
100737.705317
100737.680922
100737.656485
100737.632072
100737.607686
100737.583271
100737.558732
100737.53393
100737.508721
100737.482942
100737.456457
100737.429138
100737.40091
100737.371724
100737.341603
100737.310601
100737.278842
100737.246472
100737.213696
100737.180718
100737.14778
100737.1151
100737.082908
100737.051396
100737.020752
100736.991112
100736.962603
100736.935298
100736.90926
100736.884498
100736.861016
100736.838762
100736.817683
100736.797691
100736.778703
100736.760599
100736.74327
100736.726578
100736.7104
100736.69459
100736.679018
100736.663542
100736.648037
100736.63237
100736.616428
100736.600098
100736.583286
100736.5659
100736.547871
100736.529134
100736.509646
100736.489371
100736.468292
100736.4464
100736.423702
100736.400214
100736.375963
100736.350983
100736.325318
100736.29901
100736.272101
100736.244613
100736.216526
100736.187736
100736.157976
100736.126715
100736.093128
100736.056666
100736.017483
100735.976374
100735.93437
100735.892244
100735.850439
100735.809196
100735.768631
100735.728797
100735.689713
100735.651381
100735.6138
100735.576964
100735.540879
100735.505549
100735.470991
100735.437223
100735.404277
100735.372185
100735.34099
100735.310736
100735.281476
100735.25326
100735.226146
100735.200186
100735.175435
100735.151941
100735.129753
100735.108906
100735.089433
100735.071351
100735.054668
100735.039381
100735.025481
100735.012939
100735.001718
100734.991764
100734.983011
100734.975376
100734.968768
100734.963081
100734.958207
100734.954031
100734.950447
100734.947358
100734.944693
100734.942413
100734.94053
100734.939104
100734.938263
100734.938184
100734.939089
100734.941215
100734.944766
100734.949866
100734.956483
100734.964361
100734.972917
100734.981118
100734.987127
100735.054874
100737.836109
100737.886889
100737.881966
100737.873624
100737.862233
100737.848166
100737.831789
100737.813504
100737.793703
100737.772779
100737.751081
100737.728925
100737.706558
100737.684168
100737.661867
100737.639693
100737.617617
100737.595547
100737.573341
100737.550819
100737.527785
100737.504031
100737.479374
100737.453644
100737.426728
100737.398546
100737.369095
100737.338411
100737.306606
100737.273825
100737.240272
100737.206164
100737.171755
100737.137286
100737.103012
100737.069153
100737.035926
100737.003504
100736.972045
100736.941662
100736.912449
100736.884459
100736.85773
100736.832242
100736.807968
100736.784863
100736.762879
100736.741941
100736.721976
100736.70289
100736.684593
100736.666982
100736.649964
100736.633432
100736.617295
100736.601452
100736.58582
100736.570308
100736.554843
100736.539348
100736.523763
100736.508023
100736.492079
100736.475876
100736.459372
100736.442516
100736.425264
100736.407561
100736.389352
100736.370566
100736.351122
100736.330916
100736.309821
100736.28767
100736.264239
100736.239227
100736.212224
100736.1827
100736.150064
100736.114004
100736.074782
100736.032933
100735.989122
100735.944113
100735.898513
100735.852782
100735.80727
100735.762239
100735.717891
100735.67438
100735.631828
100735.590326
100735.54995
100735.510756
100735.472792
100735.436092
100735.400689
100735.366608
100735.333872
100735.302501
100735.272515
100735.24393
100735.216765
100735.191031
100735.166743
100735.143909
100735.122535
100735.10262
100735.084159
100735.067131
100735.051513
100735.037267
100735.024353
100735.012711
100735.002277
100734.992966
100734.984687
100734.977331
100734.970783
100734.964916
100734.959605
100734.954722
100734.950154
100734.945808
100734.941627
100734.937597
100734.933768
100734.930255
100734.927249
100734.92501
100734.92385
100734.924104
100734.926088
100734.930035
100734.936028
100734.943913
100734.953205
100734.962916
100734.971327
100735.043422
100737.850581
100737.900436
100737.895027
100737.886403
100737.874826
100737.860654
100737.844258
100737.826041
100737.806397
100737.785715
100737.764349
100737.742609
100737.720744
100737.698936
100737.677289
100737.655833
100737.634525
100737.613254
100737.591859
100737.570136
100737.547863
100737.524805
100737.500751
100737.475505
100737.448927
100737.420917
100737.391449
100737.360547
100737.32831
100737.294876
100737.260449
100737.225248
100737.189533
100737.153555
100737.117584
100737.081856
100737.04661
100737.01204
100736.97833
100736.945616
100736.914024
100736.883631
100736.854511
100736.826665
100736.800087
100736.774761
100736.750669
100736.727764
100736.706002
100736.685315
100736.665642
100736.646902
100736.629024
100736.611922
100736.595521
100736.579735
100736.564489
100736.549699
100736.535292
100736.521189
100736.507319
100736.493603
100736.47997
100736.466337
100736.452625
100736.438744
100736.424599
100736.41008
100736.395067
100736.37942
100736.362984
100736.34558
100736.327003
100736.307015
100736.285339
100736.261654
100736.235587
100736.206738
100736.174741
100736.13938
100736.100959
100736.059914
100736.016592
100735.97156
100735.925373
100735.878515
100735.831402
100735.784382
100735.737754
100735.691764
100735.64662
100735.602493
100735.559527
100735.517836
100735.477514
100735.438632
100735.401252
100735.365413
100735.331151
100735.298488
100735.267439
100735.238011
100735.21021
100735.184031
100735.159467
100735.136505
100735.115127
100735.095308
100735.077018
100735.060212
100735.044839
100735.030841
100735.018152
100735.006692
100734.996374
100734.987097
100734.978752
100734.971215
100734.96436
100734.958053
100734.952164
100734.946568
100734.941159
100734.935858
100734.930626
100734.925476
100734.920488
100734.915814
100734.911682
100734.908392
100734.9063
100734.905788
100734.907222
100734.910892
100734.916952
100734.925335
100734.935673
100734.947163
100734.958444
100735.03294
100737.877848
100737.927492
100737.921582
100737.91248
100737.900436
100737.885796
100737.868935
100737.850258
100737.830164
100737.809048
100737.787265
100737.76513
100737.742894
100737.720742
100737.698782
100737.67704
100737.655474
100737.633966
100737.61235
100737.590411
100737.567917
100737.54462
100737.520294
100737.494728
100737.467769
100737.439304
100737.409296
100737.377757
100737.34478
100737.310498
100737.275111
100737.238837
100737.201939
100737.164673
100737.127313
100737.090109
100737.053307
100737.017118
100736.981739
100736.947327
100736.914022
100736.881925
100736.851124
100736.821648
100736.793508
100736.766694
100736.74121
100736.717029
100736.694126
100736.672451
100736.651958
100736.632582
100736.614262
100736.596922
100736.580494
100736.564895
100736.55005
100736.535872
100736.522283
100736.50919
100736.49651
100736.484144
100736.471998
100736.459964
100736.447934
100736.435783
100736.423382
100736.410582
100736.397226
100736.383136
100736.368121
100736.351968
100736.334447
100736.315305
100736.29427
100736.271045
100736.245326
100736.216816
100736.185275
100736.150579
100736.112889
100736.072667
100736.030242
100735.985902
100735.940119
100735.893334
100735.845959
100735.798361
100735.750871
100735.703778
100735.657338
100735.611767
100735.567257
100735.523964
100735.482023
100735.44154
100735.402605
100735.365283
100735.329628
100735.295675
100735.263451
100735.232965
100735.204223
100735.177216
100735.151934
100735.128352
100735.106442
100735.086165
100735.06748
100735.050325
100735.034633
100735.02033
100735.007337
100734.99556
100734.984899
100734.975242
100734.96647
100734.958455
100734.951066
100734.944168
100734.937635
100734.931347
100734.925211
100734.91916
100734.913175
100734.907288
100734.901599
100734.896283
100734.891589
100734.887839
100734.885411
100734.884713
100734.886146
100734.89005
100734.896644
100734.905955
100734.917743
100734.931406
100734.9459
100735.020412
100737.914375
100737.963981
100737.957571
100737.947905
100737.935236
100737.919906
100737.90229
100737.8828
100737.86184
100737.83981
100737.817075
100737.793956
100737.770715
100737.747542
100737.724555
100737.701787
100737.6792
100737.656683
100737.634071
100737.611149
100737.587684
100737.563427
100737.538148
100737.511632
100737.483721
100737.454298
100737.42332
100737.390798
100737.356818
100737.321513
100737.285075
100737.247725
100737.209722
100737.171323
100737.132804
100737.094416
100737.056413
100737.01901
100736.982413
100736.946787
100736.912285
100736.879018
100736.847085
100736.816536
100736.787392
100736.75964
100736.733295
100736.708345
100736.684773
100736.662544
100736.641617
100736.621935
100736.603443
100736.58607
100736.569745
100736.554386
100736.539914
100736.526235
100736.51326
100736.500887
100736.489016
100736.477532
100736.466324
100736.455261
100736.444215
100736.433036
100736.421574
100736.409658
100736.39711
100736.383733
100736.369322
100736.353654
100736.336496
100736.317601
100736.296716
100736.27358
100736.247944
100736.219582
100736.188333
100736.154132
100736.117036
100736.0774
100736.035675
100735.99209
100735.94692
100735.900566
100735.853408
100735.805804
100735.758088
100735.71056
100735.663495
100735.617135
100735.571696
100735.527361
100735.484294
100735.442626
100735.402471
100735.363918
100735.327039
100735.291886
100735.258498
100735.226895
100735.197089
100735.169078
100735.142849
100735.118379
100735.095637
100735.07458
100735.05516
100735.03731
100735.020952
100735.006003
100734.992377
100734.979974
100734.968688
100734.958402
100734.948993
100734.940332
100734.93229
100734.924734
100734.917545
100734.910613
100734.903853
100734.897215
100734.890692
100734.884331
100734.878248
100734.87263
100734.867738
100734.863908
100734.861531
100734.861033
100734.862844
100734.867343
100734.874811
100734.885352
100734.898828
100734.914774
100734.93232
100735.004633
100737.9591
100738.008643
100738.001686
100737.991353
100737.977896
100737.961658
100737.943017
100737.922388
100737.900184
100737.876814
100737.852654
100737.828037
100737.80324
100737.778465
100737.753843
100737.729421
100737.705174
100737.681
100737.656743
100737.632199
100737.607141
100737.581324
100737.554524
100737.52653
100737.497187
100737.46638
100737.434068
100737.40026
100737.365043
100737.328546
100737.290961
100737.252504
100737.213428
100737.173991
100737.134461
100737.095093
100737.056133
100737.017802
100736.980305
100736.943811
100736.908475
100736.874415
100736.841734
100736.810507
100736.780751
100736.752441
100736.7256
100736.700222
100736.676298
100736.653796
100736.63268
100736.612897
100736.594392
100736.577093
100736.560928
100736.545811
100736.531657
100736.518364
100736.505834
100736.493955
100736.482612
100736.47168
100736.461029
100736.450517
100736.439997
100736.429307
100736.418282
100736.406738
100736.394488
100736.381327
100736.367048
100736.351428
100736.334242
100736.315257
100736.294244
100736.270976
100736.245248
100736.216886
100736.185778
100736.151887
100736.115281
100736.076113
100736.034828
100735.991825
100735.947263
100735.901415
100735.854633
100735.807254
100735.759599
100735.711968
100735.664637
100735.617859
100735.571861
100735.526843
100735.482984
100735.440435
100735.399328
100735.359767
100735.321843
100735.285621
100735.251155
100735.218476
100735.187606
100735.158549
100735.1313
100735.105837
100735.082133
100735.060146
100735.039827
100735.021108
100735.003907
100734.988138
100734.97371
100734.960524
100734.948472
100734.937435
100734.927295
100734.917922
100734.909192
100734.900979
100734.893171
100734.885668
100734.878398
100734.87132
100734.86444
100734.857818
100734.851579
100734.845919
100734.841107
100734.837484
100734.835451
100734.835445
100734.837915
100734.843272
100734.851836
100734.863765
100734.878974
100734.897054
100734.91717
100734.985692
100738.011367
100738.060698
100738.05314
100738.042029
100738.027623
100738.010266
100737.990338
100737.968262
100737.944461
100737.919355
100737.893335
100737.866752
100737.839898
100737.812996
100737.786196
100737.759562
100737.733087
100737.706685
100737.680219
100737.653495
100737.626302
100737.598406
100737.569594
100737.539666
100737.508474
100737.475911
100737.441939
100737.406573
100737.369897
100737.332043
100737.293195
100737.253567
100737.213406
100737.172962
100737.132497
100737.092258
100737.052488
100737.013401
100736.9752
100736.938053
100736.902112
100736.867494
100736.834304
100736.802645
100736.772521
100736.743891
100736.71678
100736.691184
100736.667096
100736.644486
100736.62332
100736.603545
100736.585103
100736.567922
100736.551926
100736.537024
100736.523124
100736.510118
100736.497899
100736.486344
100736.475331
100736.46472
100736.454373
100736.444135
100736.43385
100736.423346
100736.41245
100736.400971
100736.388718
100736.375487
100736.361072
100736.345255
100736.327826
100736.308567
100736.287272
100736.263745
100736.237816
100736.209349
100736.178263
100736.144542
100736.10825
100736.06953
100736.028591
100735.985898
100735.941802
100735.896425
100735.850039
100735.802952
100735.755474
100735.707894
100735.660484
100735.613497
100735.567165
100735.521696
100735.477278
100735.434073
100735.392225
100735.351852
100735.313058
100735.275919
100735.240502
100735.206848
100735.174989
100735.144937
100735.116694
100735.090245
100735.065567
100735.042622
100735.021366
100735.001733
100734.983638
100734.966995
100734.951716
100734.937701
100734.924846
100734.913036
100734.902154
100734.892078
100734.88269
100734.873871
100734.865519
100734.857544
100734.849884
100734.84251
100734.835438
100734.828738
100734.822542
100734.81705
100734.812538
100734.809347
100734.80788
100734.80858
100734.811906
100734.818283
100734.828052
100734.84139
100734.858223
100734.878125
100734.900188
100734.964002
100738.070795
100738.119669
100738.111451
100738.099452
100738.083938
100738.065253
100738.043785
100738.019964
100737.994224
100737.967003
100737.938709
100737.909713
100737.880331
100737.85081
100737.821323
100737.791959
100737.762734
100737.733585
100737.704393
100737.674986
100737.64517
100737.61473
100737.583466
100737.551194
100737.517776
100737.483116
100737.447184
100737.409999
100737.371646
100737.332255
100737.292007
100737.251109
100737.209798
100737.168317
100737.126917
100737.085837
100737.045308
100737.005539
100736.966724
100736.929025
100736.89259
100736.857534
100736.823953
100736.791973
100736.761603
100736.732781
100736.705517
100736.67981
100736.655652
100736.633012
100736.611856
100736.59213
100736.573774
100736.556712
100736.540866
100736.526137
100736.512429
100736.499626
100736.487615
100736.476264
100736.465442
100736.455001
100736.444795
100736.43466
100736.424434
100736.413937
100736.402992
100736.391406
100736.378988
100736.365534
100736.350844
100736.334711
100736.316934
100736.297315
100736.275668
100736.251822
100736.225636
100736.197001
100736.16586
100736.132209
100736.096114
100736.0577
100736.017157
100735.974716
100735.930829
100735.88581
100735.839779
100735.792991
100735.745729
100735.698271
100735.650882
100735.603811
100735.557289
100735.511528
100735.46672
100735.423034
100735.380622
100735.339611
100735.300114
100735.262217
100735.225995
100735.191501
100735.158773
100735.127832
100735.098688
100735.071332
100735.045747
100735.0219
100734.999752
100734.979243
100734.960291
100734.942807
100734.926709
100734.9119
100734.898279
100734.885739
100734.874168
100734.863451
100734.853477
100734.844138
100734.83534
100734.827004
100734.819079
100734.811546
100734.80443
100734.797807
100734.791817
100734.786661
100734.782615
100734.780018
100734.779271
100734.780814
100734.785103
100734.792565
100734.803539
100734.818197
100734.836434
100734.85776
100734.881129
100734.939864
100738.137211
100738.185306
100738.176363
100738.163364
100738.146581
100738.126361
100738.103099
100738.077236
100738.04922
100738.019506
100737.988526
100737.956679
100737.924307
100737.891687
100737.859022
100737.826431
100737.793957
100737.761565
100737.729161
100737.696599
100737.663705
100737.630285
100737.596157
100737.561156
100737.525157
100737.488076
100737.449889
100737.410623
100737.370363
100737.329236
100737.287418
100737.245109
100737.202535
100737.159927
100737.117525
100737.075555
100737.034239
100736.993774
100736.954344
100736.916105
100736.879197
100736.843731
100736.809803
100736.777488
100736.746864
100736.717905
100736.690532
100736.664747
100736.640543
100736.61789
100736.596752
100736.577072
100736.55879
100736.541824
100736.526092
100736.511491
100736.49792
100736.485257
100736.473381
100736.462153
100736.451435
100736.441074
100736.430914
100736.420787
100736.410525
100736.399944
100736.388865
100736.377093
100736.364438
100736.3507
100736.335686
100736.319198
100736.301048
100736.28105
100736.259042
100736.23487
100736.208418
100736.179596
100736.148365
100736.114731
100736.07876
100736.040567
100736.000323
100735.958237
100735.914561
100735.869683
100735.823919
100735.777405
100735.730377
100735.683081
100735.635779
100735.588709
100735.542104
100735.496172
100735.45111
100735.407089
100735.364267
100735.322776
100735.282735
100735.244239
100735.20737
100735.172186
100735.138735
100735.107044
100735.077128
100735.048987
100735.022609
100734.997966
100734.975024
100734.953734
100734.934017
100734.915782
100734.89895
100734.883432
100734.869132
100734.855949
100734.84378
100734.832516
100734.822056
100734.812301
100734.803167
100734.794585
100734.786515
100734.778946
100734.771912
100734.765494
100734.759834
100734.755134
100734.751667
100734.749765
100734.749821
100734.752265
100734.757541
100734.766064
100734.778155
100734.793958
100734.813317
100734.835645
100734.859729
100734.913385
100738.210599
100738.257525
100738.247789
100738.233675
100738.215457
100738.193489
100738.168175
100738.139964
100738.109325
100738.076735
100738.042652
100738.007506
100737.971675
100737.935472
100737.899135
100737.862819
100737.826601
100737.790478
100737.754387
100737.718207
100737.68179
100737.644966
100737.607575
100737.569468
100737.530535
100737.490706
100737.449965
100737.408341
100737.365922
100737.322832
100737.279238
100737.235333
100737.19133
100737.147449
100737.103915
100737.060942
100737.018737
100736.977487
100736.937364
100736.898515
100736.861072
100736.825138
100736.790803
100736.758132
100736.727245
100736.698104
100736.670589
100736.6447
100736.620426
100736.597734
100736.576587
100736.556925
100736.538684
100736.52178
100736.506125
100736.491615
100736.478139
100736.465572
100736.453786
100736.442637
100736.43198
100736.421656
100736.411503
100736.401349
100736.391019
100736.38033
100736.369097
100736.357128
100736.344234
100736.33022
100736.314897
100736.298077
100736.279583
100736.259245
100736.236913
100736.212454
100736.185768
100736.156783
100736.125471
100736.091847
100736.055977
100736.017968
100735.977979
100735.936201
100735.892859
100735.84821
100735.802563
100735.756249
100735.709455
100735.662369
100735.615211
100735.568216
100735.521619
100735.475623
100735.430427
100735.386203
100735.343111
100735.301288
100735.260858
100735.221919
100735.18456
100735.148845
100735.114826
100735.082538
100735.052001
100735.02322
100734.996188
100734.970884
100734.947277
100734.925332
100734.904975
100734.886109
100734.868662
100734.852549
100734.837685
100734.823972
100734.811315
100734.799616
100734.788781
100734.778722
100734.769363
100734.760647
100734.75254
100734.74504
100734.738188
100734.732069
100734.726825
100734.722657
100734.719829
100734.718666
100734.719545
100734.722881
100734.729099
100734.738588
100734.751643
100734.768366
100734.788537
100734.811462
100734.835757
100734.884543
100738.291072
100738.33638
100738.325776
100738.310424
100738.290601
100738.266664
100738.239025
100738.20815
100738.174525
100738.138653
100738.101027
100738.062115
100738.022336
100737.982044
100737.941523
100737.900969
100737.860498
100737.820145
100737.77988
100737.739613
100737.699224
100737.658568
100737.617505
100737.575907
100737.533678
100737.490759
100737.447142
100737.402861
100737.358
100737.312683
100737.267067
100737.221335
100737.175689
100737.130334
100737.085481
100737.041331
100736.998077
100736.955893
100736.914939
100736.875354
100736.837257
100736.800746
100736.765902
100736.732776
100736.701536
100736.672135
100736.644419
100736.618373
100736.593978
100736.571202
100736.550004
100736.530321
100736.512086
100736.495212
100736.479607
100736.465161
100736.451759
100736.43927
100736.427562
100736.416483
100736.405884
100736.395598
100736.385461
100736.375294
100736.36492
100736.354151
100736.342803
100736.330682
100736.317603
100736.303372
100736.287809
100736.270731
100736.251973
100736.231375
100736.208803
100736.184136
100736.157291
100736.128205
100736.096865
100736.063288
100736.027542
100735.989729
100735.949998
100735.908525
100735.865523
100735.821217
100735.775873
100735.729695
100735.683091
100735.636261
100735.589286
100735.542448
100735.495948
100735.449994
100735.40478
100735.360479
100735.317253
100735.275241
100735.234569
100735.195341
100735.157648
100735.121559
100735.087132
100735.054404
100735.023403
100734.994135
100734.966601
100734.940782
100734.916654
100734.894192
100734.873334
100734.853974
100734.836045
100734.819469
100734.804166
100734.790046
100734.777023
100734.765006
100734.75391
100734.743655
100734.734176
100734.725424
100734.717373
100734.710028
100734.703433
100734.697677
100734.6929
100734.689298
100734.687126
100734.686696
100734.688368
100734.692534
100734.699594
100734.709909
100734.723736
100734.74113
100734.761805
100734.784963
100734.80906
100734.853283
100738.378849
100738.422033
100738.410484
100738.393766
100738.372155
100738.346016
100738.315767
100738.281886
100738.244885
100738.2053
100738.16366
100738.120478
100738.076223
100738.031303
100737.98605
100737.940712
100737.895449
100737.850339
100737.805389
100737.760543
100737.71571
100737.670771
100737.625608
100737.580109
100737.534195
100737.487817
100737.440973
100737.393699
100737.346079
100737.298229
100737.250301
100737.202465
100737.154912
100737.107832
100737.061423
100737.015871
100736.971356
100736.92804
100736.886072
100736.845578
100736.806671
100736.76944
100736.733961
100736.700285
100736.668502
100736.638673
100736.610704
100736.584439
100736.559868
100736.536958
100736.515667
100736.495928
100736.477673
100736.46081
100736.445243
100736.430857
100736.417535
100736.405137
100736.393527
100736.382547
100736.372043
100736.361842
100736.351774
100736.341657
100736.331309
100736.320541
100736.309165
100736.296988
100736.283826
100736.269489
100736.253801
100736.236586
100736.217688
100736.196956
100736.174268
100736.149515
100736.122623
100736.093544
100736.062269
100736.02882
100735.993266
100735.955706
100735.916281
100735.875155
100735.832529
100735.788615
100735.743641
100735.697852
100735.651489
100735.604863
100735.558188
100735.511565
100735.465276
100735.419479
100735.374366
100735.330117
100735.286892
100735.244832
100735.204064
100735.164697
100735.126823
100735.090515
100735.055836
100735.022826
100734.991515
100734.961916
100734.934032
100734.90785
100734.883348
100734.860507
100734.839284
100734.81957
100734.801297
100734.784391
100734.768779
100734.754378
100734.741108
100734.728886
100734.717637
100734.707289
100734.697784
100734.689081
100734.681161
100734.674034
100734.667749
100734.662392
100734.658102
100734.655069
100734.653535
100734.653796
100734.656193
100734.661092
100734.668865
100734.679837
100734.694227
100734.712042
100734.732933
100734.756004
100734.77958
100734.81958
100738.474244
100738.514748
100738.502168
100738.483947
100738.460361
100738.431771
100738.398603
100738.361353
100738.320557
100738.276784
100738.230612
100738.182609
100738.133301
100738.08316
100738.032578
100737.98186
100737.931219
100737.880782
100737.830595
100737.780639
100737.730853
100737.681144
100737.631413
100737.58157
100737.531544
100737.481299
100737.430834
100737.38019
100737.329445
100737.278713
100737.228134
100737.17787
100737.128096
100737.078993
100737.030743
100736.983519
100736.937488
100736.892799
100736.849589
100736.807977
100736.768065
100736.729934
100736.693653
100736.659269
100736.626822
100736.596471
100736.568129
100736.541558
100736.516744
100736.49365
100736.472227
100736.452409
100736.434123
100736.417272
100736.401757
100736.387458
100736.37425
100736.361993
100736.350539
100736.339729
100736.3294
100736.319374
100736.309477
100736.29952
100736.289319
100736.278679
100736.267412
100736.255325
100736.242232
100736.227947
100736.212296
100736.195111
100736.17624
100736.155543
100736.132905
100736.108228
100736.081446
100736.05252
100736.021447
100735.988252
100735.953005
100735.915801
100735.876775
100735.836085
100735.793919
100735.750478
100735.705984
100735.660663
100735.614749
100735.568511
100735.52211
100735.475846
100735.429879
100735.384335
100735.339456
100735.29539
100735.252304
100735.210337
100735.169619
100735.130258
100735.092353
100735.055978
100735.021197
100734.988055
100734.956586
100734.926805
100734.89872
100734.87232
100734.847589
100734.824498
100734.803035
100734.78311
100734.764627
100734.747521
100734.731724
100734.71716
100734.703756
100734.691437
100734.680133
100734.669781
100734.660332
100734.651748
100734.644018
100734.637156
100734.63121
100734.626268
100734.622463
100734.619976
100734.619037
100734.619923
100734.622954
100734.628468
100734.636805
100734.648256
100734.663
100734.680999
100734.701843
100734.724559
100734.747365
100734.783478
100738.577647
100738.614868
100738.601173
100738.581311
100738.555548
100738.524244
100738.487831
100738.446815
100738.401761
100738.353282
100738.302006
100738.248567
100738.193564
100738.137542
100738.080965
100738.024206
100737.967539
100737.911143
100737.855109
100737.799457
100737.744155
100737.689136
100737.634323
100737.579638
100737.525024
100737.470451
100737.415923
100737.361479
100737.307195
100737.253178
100737.199561
100737.146493
100737.09414
100737.042669
100736.992248
100736.94304
100736.895197
100736.84886
100736.804153
100736.761184
100736.720048
100736.680818
100736.643553
100736.608292
100736.575054
100736.544058
100736.515224
100736.488275
100736.463166
100736.43985
100736.418278
100736.398379
100736.380076
100736.363267
100736.347849
100736.333697
100736.32068
100736.308649
100736.297455
100736.286928
100736.276901
100736.267189
100736.257612
100736.247975
100736.23809
100736.227758
100736.216788
100736.204984
100736.192162
100736.178134
100736.162732
100736.145789
100736.12716
100736.106711
100736.084334
100736.059939
100736.033467
100736.004884
100735.974193
100735.941422
100735.90664
100735.869941
100735.831453
100735.791329
100735.749748
100735.706903
100735.663007
100735.618277
100735.572942
100735.52722
100735.481356
100735.43553
100735.389981
100735.34489
100735.300336
100735.256608
100735.213809
100735.172078
100735.131555
100735.092349
100735.054559
100735.018263
100734.983527
100734.950398
100734.918914
100734.889093
100734.860944
100734.834462
100734.809631
100734.786424
100734.764851
100734.74484
100734.726269
100734.70908
100734.693211
100734.678592
100734.665156
100734.652833
100734.641562
100734.631285
100734.621958
100734.61355
100734.606054
100734.599485
100734.593894
100734.589365
100734.586026
100734.584046
100734.583642
100734.585074
100734.588634
100734.594637
100734.603387
100734.615141
100734.630039
100734.648001