/*--------------------------------*- C++ -*----------------------------------*\
| =========                 |                                                 |
| \\      /  F ield         | OpenFOAM: The Open Source CFD Toolbox           |
|  \\    /   O peration     | Version:  2212                                  |
|   \\  /    A nd           | Website:  www.openfoam.com                      |
|    \\/     M anipulation  |                                                 |
\*---------------------------------------------------------------------------*/
FoamFile
{
    version     2.0;
    format      ascii;
    arch        "LSB;label=64;scalar=64";
    class       volScalarField;
    location    "5000";
    object      p;
}
// * * * * * * * * * * * * * * * * * * * * * * * * * * * * * * * * * * * * * //

dimensions      [0 2 -2 0 0 0 0];

internalField   nonuniform List<scalar> 
125000
(
-0.025159884668
-0.0254000024367
-0.0251607617079
-0.0262469171888
-0.0325787329394
-0.025399248137
-0.0256106079882
-0.0251607357464
-0.0262478585899
-0.0285843083355
-0.0446168455065
-0.0325788484149
-0.0327524070405
-0.0253991653133
-0.0256097828257
-0.0283107955737
-0.0251607620103
-0.0262478323551
-0.0285848929118
-0.0310044006139
-0.0539811513768
-0.0446170896037
-0.0444359211044
-0.0325788844708
-0.032752479175
-0.034597243775
-0.025399248025
-0.0256097004813
-0.028310198213
-0.031273851982
-0.025159884685
-0.0262478588792
-0.0285848664542
-0.0310047825023
-0.0326502478839
-0.061145926419
-0.0539810953336
-0.0536396774128
-0.0446170614197
-0.0444361370409
-0.0451637496429
-0.0325788482013
-0.0327525151134
-0.0345973921771
-0.0368324788047
-0.0254000027822
-0.025609782721
-0.0283101163948
-0.0312733249993
-0.0335539390761
-0.0262469172244
-0.0285848931791
-0.031004756245
-0.0326509525935
-0.0337986948269
-0.066565934637
-0.0611459788922
-0.060717911658
-0.0539810385861
-0.0536396084402
-0.0538048231882
-0.044617089607
-0.0444361086256
-0.0451639858048
-0.046336286721
-0.0325787333078
-0.0327524789523
-0.0345974266512
-0.0368326298922
-0.0389515072145
-0.0256106083179
-0.0283101981236
-0.0312732429925
-0.0335532803831
-0.0352301400269
-0.0285843084642
-0.0310047827598
-0.0326509266799
-0.0337996780906
-0.0348450784866
-0.0703139616225
-0.0665659712995
-0.0660845917726
-0.0611459878774
-0.0607179552003
-0.0605195596867
-0.0539810951592
-0.0536395533841
-0.0538047634786
-0.0544383224766
-0.0446168451928
-0.044436137052
-0.0451639584586
-0.0463365136948
-0.0476917512554
-0.0327524073844
-0.0345973919315
-0.0368326622343
-0.0389516742755
-0.0407241077102
-0.0283107958627
-0.031273324929
-0.0335531973103
-0.0352293002149
-0.0365762727058
-0.0310044009068
-0.0326509528497
-0.0337996514005
-0.0348461474862
-0.0359595271266
-0.0729220407673
-0.0703138917872
-0.0698449641051
-0.0665659580206
-0.0660846210095
-0.0656672406828
-0.0611459779156
-0.0607179634802
-0.0605195887661
-0.0607893657823
-0.0539811503469
-0.0536396082497
-0.0538047120695
-0.0544382687317
-0.0553354114448
-0.0444359207922
-0.0451639857842
-0.0463364884849
-0.0476919897618
-0.0489540797143
-0.0345972440011
-0.0368326296169
-0.0389517051405
-0.0407243081604
-0.0421220506639
-0.0312738521898
-0.0335532803156
-0.035229215798
-0.0365752877998
-0.0377892940579
-0.0326502483706
-0.0337996783561
-0.0348461184918
-0.0359606239775
-0.0371656378926
-0.0748312559411
-0.0729220502886
-0.0724945229404
-0.0703138372534
-0.0698448926556
-0.0693576974433
-0.0665659715096
-0.0660846060822
-0.0656672486276
-0.0656995630532
-0.0611459265447
-0.0607179542451
-0.060519593143
-0.0607893902972
-0.0613675791573
-0.0536396764254
-0.0538047632869
-0.0544382211319
-0.0553353688946
-0.0562447985106
-0.0451637493589
-0.0463365136246
-0.047691967175
-0.0489543323563
-0.0499798090914
-0.0368324788483
-0.0389516739538
-0.0407243386736
-0.0421222858568
-0.0432444886358
-0.0335539391809
-0.0352293001508
-0.0365752021547
-0.0377881958512
-0.0389744741533
-0.0337986954947
-0.0348461477531
-0.0359605915972
-0.0371667941419
-0.0384476690227
-0.0762300717821
-0.0748313391068
-0.074447763729
-0.072922045729
-0.072494536469
-0.0720032274312
-0.0703138928445
-0.0698448383528
-0.0693576210049
-0.069264884415
-0.0665659359613
-0.0660846212718
-0.0656672294253
-0.0656995715863
-0.0660415182852
-0.0607179118077
-0.0605195879104
-0.0607893889235
-0.0613675973689
-0.0620330707597
-0.0538048223696
-0.0544382685833
-0.0553353241448
-0.0562447642181
-0.0569981345958
-0.0463362865129
-0.0476919896454
-0.0489543121093
-0.0499800687188
-0.0507700459216
-0.0389515070648
-0.0407243078003
-0.0421223171027
-0.0432447564037
-0.0442190714497
-0.0352301400289
-0.0365752877285
-0.0377881090088
-0.0389732678253
-0.0401839314922
-0.0348450792922
-0.0359606242397
-0.0371667577325
-0.0384489191974
-0.0397898231124
-0.0773112666714
-0.0762300741917
-0.0758883313332
-0.0748313692349
-0.0744478477385
-0.0739772122721
-0.0729220493085
-0.0724945339665
-0.0720032426949
-0.0718372152014
-0.0703139608257
-0.0698448936947
-0.0693575710287
-0.0692648313017
-0.0694599930727
-0.0660845930787
-0.0656672489806
-0.0656995480007
-0.0660415225681
-0.0665114814655
-0.0605195598243
-0.0607893895718
-0.0613675895774
-0.0620330799619
-0.0626203450961
-0.0544383219043
-0.0553353688251
-0.0562447212729
-0.0569981045098
-0.0575422837162
-0.0476917511587
-0.0489543322148
-0.0499800500763
-0.0507703101374
-0.0513912720093
-0.0407241073912
-0.0421222854648
-0.0432447892941
-0.0442193716058
-0.0451399018884
-0.0365762726241
-0.0377881957851
-0.038973179403
-0.0401826123383
-0.0414338301708
-0.0359595280065
-0.037166794377
-0.0384488783442
-0.0397911846832
-0.0411812789305
-0.0781538572569
-0.077311154523
-0.0770089582871
-0.076230060975
-0.0758883265898
-0.0754542532982
-0.0748313377661
-0.0744478778379
-0.0739772771484
-0.0737703411811
-0.0729220383578
-0.0724945353796
-0.0720032463663
-0.0718372517422
-0.0719354046684
-0.0698449632202
-0.0693576218461
-0.0692647887053
-0.0694599567263
-0.0698027469069
-0.0656672418388
-0.0656995719651
-0.0660414958108
-0.0665114799764
-0.0669671078734
-0.060789365851
-0.0613675967674
-0.0620330661647
-0.0626203472882
-0.0630450098202
-0.0553354111297
-0.0562447642448
-0.0569980626068
-0.0575422544606
-0.0579101630642
-0.0489540797441
-0.0499800685684
-0.0507702922895
-0.0513915422232
-0.0519153105571
-0.0421220502256
-0.0432447560087
-0.0442194069132
-0.0451402320377
-0.0460632875633
-0.0377892939235
-0.0389732677616
-0.0401825215367
-0.0414323936306
-0.0427231379617
-0.0371656387818
-0.0384489193936
-0.0397911391605
-0.0411827595948
-0.0426135113262
-0.0787967026298
-0.0781538681414
-0.0778852613975
-0.0773110880895
-0.0770088532661
-0.0766068151304
-0.0762300750986
-0.0758883096535
-0.0754542233731
-0.0752333880987
-0.0748312560247
-0.074447846467
-0.0739773014641
-0.0737703953859
-0.0738006851737
-0.0724945204947
-0.0720032413725
-0.0718372616518
-0.0719354523889
-0.0721908161286
-0.0693576963622
-0.0692648318705
-0.0694599226429
-0.069802724132
-0.0701714612457
-0.0656995639369
-0.0660415229144
-0.0665114514771
-0.0669671041451
-0.0673178172995
-0.0613675790914
-0.0620330794498
-0.0626203286171
-0.0630450077265
-0.0632959028999
-0.0562447984228
-0.0569981046162
-0.0575422130898
-0.0579101332633
-0.058165827404
-0.0499798092315
-0.0507703099981
-0.0513915245405
-0.0519155875666
-0.0524013485454
-0.043244488126
-0.0442193712244
-0.0451402704503
-0.0460636443424
-0.0470150693432
-0.0389744740014
-0.0401826122933
-0.0414322993241
-0.0427215830502
-0.0440461928728
-0.038447669855
-0.039791184822
-0.0411827094459
-0.0426151149824
-0.0440783129739
-0.0793130798286
-0.0787968633158
-0.0785578547595
-0.0781538712248
-0.0778852797521
-0.07751372713
-0.0773111576503
-0.0770087903795
-0.0766067275655
-0.0763716040498
-0.0762300750723
-0.0758883277226
-0.0754541980934
-0.0752333464278
-0.0752194705228
-0.074447764073
-0.0739772763206
-0.0737704100677
-0.0738007184166
-0.0739909892358
-0.0720032251565
-0.0718372502665
-0.0719354669576
-0.07219086857
-0.0725002237948
-0.0692648832102
-0.0694599570198
-0.069802698335
-0.0701714514232
-0.0704759876837
-0.0660415188673
-0.066511480242
-0.0669670751685
-0.0673178149187
-0.067523093033
-0.0620330705311
-0.0626203468363
-0.0630449855434
-0.0632958979724
-0.0634072703737
-0.0569981346761
-0.0575422546269
-0.0579100919989
-0.0581657992478
-0.0583614818877
-0.0507700461443
-0.0513915420901
-0.0519155696418
-0.0524016330759
-0.0528906524261
-0.0442190709189
-0.0451402316989
-0.0460636864482
-0.04701544882
-0.0480012424274
-0.0401839313559
-0.0414323936015
-0.0427214838785
-0.0440445231764
-0.0453967175517
-0.0397898238417
-0.0411827596761
-0.0426150605661
-0.0440800405619
-0.0455671431264
-0.0797236539408
-0.0793130352322
-0.0790997625351
-0.0787969378939
-0.0785580070726
-0.078217767628
-0.0781538662254
-0.0778852859795
-0.077513752684
-0.0772740995013
-0.0773112679275
-0.0770088560431
-0.0766066775527
-0.0763715512763
-0.0763215588204
-0.0758883345692
-0.0754542248556
-0.075233313234
-0.0752194162945
-0.0753621186742
-0.0739772132908
-0.0737703951395
-0.073800721455
-0.0739909999891
-0.074255343337
-0.0718372133011
-0.07193545085
-0.0721908855826
-0.0725002772111
-0.0727814873123
-0.0694599918432
-0.0698027242041
-0.0701714327613
-0.0704759882584
-0.070666367046
-0.0665114817606
-0.0669671043183
-0.0673177864513
-0.0675230937373
-0.0675853815824
-0.0626203447024
-0.0630450073046
-0.0632958735092
-0.0634072629977
-0.0634300272713
-0.0575422839151
-0.0579101334581
-0.0581657577423
-0.0583614567945
-0.0585341675888
-0.0513912722655
-0.0519155874419
-0.0524016147585
-0.052890944885
-0.0534089410052
-0.0451399013766
-0.0460636440562
-0.0470154950799
-0.0480016386365
-0.0490200739958
-0.0414338300703
-0.0427215830469
-0.0440444175968
-0.045394941176
-0.0467684471941
-0.0411812795207
-0.0426151150059
-0.0440799825577
-0.0455689918401
-0.0470711499298
-0.0800357628102
-0.0797234782557
-0.0795317090483
-0.0793130030708
-0.0790997136829
-0.0787870274482
-0.0787968573531
-0.0785580768744
-0.0782178808666
-0.0779813435617
-0.0781538505578
-0.0778852777102
-0.0775137644758
-0.0772741415386
-0.0771982159519
-0.0770089590548
-0.0766067292488
-0.0763715179202
-0.0763215401631
-0.076423992185
-0.0754542559981
-0.0752333481479
-0.0752193777452
-0.0753620570498
-0.0755903555121
-0.0737703428238
-0.0738007187728
-0.0739909916444
-0.0742553353505
-0.0745165414647
-0.0719354032364
-0.0721908670709
-0.072500294386
-0.0727815381156
-0.0729810906002
-0.0698027457562
-0.0701714513306
-0.0704759750234
-0.0706663740795
-0.0707300891346
-0.0669671079388
-0.0673178149893
-0.0675230665384
-0.0675853852833
-0.0675367998563
-0.06304500929
-0.0632958975797
-0.0634072372798
-0.0634300186467
-0.063409536669
-0.05791016332
-0.0581657994502
-0.0583614147492
-0.0585341457577
-0.0587121609987
-0.051915310804
-0.0524016329483
-0.0528909263142
-0.0534092428119
-0.0539680429804
-0.046063287105
-0.0470154486028
-0.048001689304
-0.0490204793978
-0.0500680064772
-0.0427231379107
-0.0440445231904
-0.0453948275769
-0.0467665767859
-0.0481551034819
-0.0426135117693
-0.0440800405438
-0.0455689312239
-0.0470731125008
-0.0485814056599
-0.0802695681365
-0.0800359174876
-0.0798623706245
-0.0797233883064
-0.079531546303
-0.07924254335
-0.0793130401863
-0.0790996793168
-0.0787869726091
-0.0785523634753
-0.0787966996041
-0.0785580015928
-0.0782179329982
-0.0779814146183
-0.0778877360531
-0.0778852550204
-0.0775137506251
-0.0772741591521
-0.0771982669285
-0.0772660082576
-0.0766068147367
-0.0763715516623
-0.0763215248611
-0.076424004566
-0.076618231018
-0.0752333900151
-0.0752194180964
-0.0753620161976
-0.075590292926
-0.0758324981303
-0.0738006872603
-0.073991000848
-0.0742553172805
-0.074516519762
-0.0747182812391
-0.0721908151852
-0.0725002758235
-0.0727815534737
-0.0729811359228
-0.073072567717
-0.0701714602459
-0.0704759880797
-0.0706663642214
-0.0707300993116
-0.0706791367059
-0.0673178171848
-0.0675230937192
-0.0675853598173
-0.0675368063872
-0.067418642477
-0.0632959022816
-0.0634072626334
-0.0634299924238
-0.063409529701
-0.0633751784205
-0.0581658276818
-0.0583614569856
-0.0585341029685
-0.0587121429636
-0.0589159306676
-0.0524013487437
-0.0528909447591
-0.0534092243772
-0.0539683556416
-0.0545709851348
-0.0470150689626
-0.0480016384853
-0.049020534453
-0.0500684125978
-0.0511409772551
-0.0440461928678
-0.0453949412079
-0.0467664536062
-0.0481531562254
-0.0495502845376
-0.0440783132731
-0.0455689917946
-0.0470730504916
-0.0485834700534
-0.0500891347565
-0.0804456171118
-0.0802697058383
-0.0801125426681
-0.0800359946894
-0.0798625276675
-0.0795949979322
-0.079723486018
-0.0795314626193
-0.0792424167837
-0.0790121950502
-0.0793130918043
-0.0790997187165
-0.0787869381406
-0.0785523101816
-0.0784409493192
-0.0785578522759
-0.0782178770488
-0.0779814439807
-0.0778877613927
-0.0779283674985
-0.0775137221057
-0.0772741395857
-0.077198287795
-0.0772660605815
-0.0774296374461
-0.0763716024077
-0.0763215392648
-0.0764240056913
-0.076618269126
-0.0768408904152
-0.0752194715714
-0.0753620587836
-0.0755902525285
-0.0758324393034
-0.076033032743
-0.0739909915338
-0.0742553365589
-0.074516494596
-0.0747182513174
-0.0748301431722
-0.07250022327
-0.0727815369007
-0.072981147943
-0.0730726055791
-0.0730529232549
-0.070475986904
-0.0706663738736
-0.0707300908246
-0.0706791467569
-0.070539969146
-0.0675230928187
-0.0675853851841
-0.0675367828645
-0.0674186519996
-0.0672661911736
-0.0634072697243
-0.0634300183221
-0.0634095034076
-0.0633751742172
-0.0633471339431
-0.0583614821489
-0.0585341459268
-0.0587120992929
-0.0589159175218
-0.0591581480399
-0.0528906525593
-0.0534092426848
-0.053968337979
-0.0545713091666
-0.055217354179
-0.0480012421355
-0.0490204793121
-0.0500684716519
-0.0511413749371
-0.0522346145721
-0.0453967175866
-0.0467665768253
-0.0481530221192
-0.0495482818019
-0.0509474274875
-0.045567143306
-0.0470731124487
-0.0485834080382
-0.0500912842488
-0.0515858850084
-0.0805649630272
-0.0804453681009
-0.0803028911912
-0.0802697669234
-0.0801126667807
-0.0798654231898
-0.0800359057398
-0.0798626054722
-0.0795951395932
-0.079372138877
-0.0797236544989
-0.0795315533236
-0.0792423529617
-0.0790121195118
-0.0788885425664
-0.0790997740508
-0.0787869770591
-0.0785522768726
-0.0784409004596
-0.078456327851
-0.0782177664833
-0.0779814128501
-0.0778877674115
-0.0779283521267
-0.0780666435683
-0.0772740962133
-0.0771982652527
-0.0772660811804
-0.0774296860021
-0.0776332143839
-0.0763215561445
-0.0764240026262
-0.0766182836658
-0.0768409463343
-0.077040331498
-0.0753621188744
-0.0755902944911
-0.0758324015804
-0.0760329807365
-0.076159496148
-0.0742553456431
-0.074516521139
-0.0747182223249
-0.0748301105225
-0.0748440096425
-0.0727814871225
-0.0729811348999
-0.0730726134207
-0.0730529525464
-0.0729361783073
-0.070666366489
-0.0707300991354
-0.0706791379867
-0.0705399758321
-0.0703451640077
-0.0675853813137
-0.0675368062237
-0.0674186303368
-0.067266204471
-0.0671031668467
-0.0634300266443
-0.0634095294197
-0.0633751480456
-0.063347132193
-0.063341082079
-0.0585341678215
-0.0587121431023
-0.0589158729022
-0.059158141585
-0.0594445716397
-0.0534089410665
-0.053968355523
-0.0545712930711
-0.0552176894752
-0.0559052511829
-0.0490200737969
-0.0500684125633
-0.0511414371966
-0.0522349944017
-0.0533442503355
-0.0467684472507
-0.0481531562686
-0.0495481357954
-0.0509453940676
-0.0523398523611
-0.0470711500175
-0.048583470008
-0.0500912236705
-0.0515880987471
-0.0530636587466
-0.080643318153
-0.0805649277039
-0.0804348674514
-0.0804452404954
-0.0803026450379
-0.0800738723382
-0.0802697028499
-0.0801127208813
-0.0798655086333
-0.0796508185273
-0.0800357443056
-0.0798625161503
-0.0795952104262
-0.0793722591836
-0.0792428912244
-0.0795317088559
-0.079242421775
-0.0790120806555
-0.078888515789
-0.0788825617025
-0.0787870366569
-0.0785523136661
-0.0784408708002
-0.0784562891304
-0.0785706967214
-0.0779813439936
-0.0778877616165
-0.0779283377915
-0.0780665961439
-0.0782532797961
-0.0771982145244
-0.0772660593472
-0.0774297036939
-0.0776332558142
-0.0778277003864
-0.0764239888626
-0.07661826644
-0.0768409701185
-0.0770403961047
-0.0771810666131
-0.0755903550029
-0.0758324406403
-0.0760329472192
-0.0761594525568
-0.0761994194254
-0.074516543575
-0.0747182526789
-0.0748300809037
-0.0748439794952
-0.0747658170922
-0.072981090597
-0.0730726047568
-0.0730529558395
-0.0729361985503
-0.0727463114668
-0.0707300888097
-0.0706791466357
-0.0705399656876
-0.0703451662461
-0.0701227182075
-0.0675367995864
-0.0674186517839
-0.0672661843648
-0.0671031842556
-0.0669450085782
-0.0634095361018
-0.0633751739864
-0.0633471060712
-0.0633410825269
-0.0633684576829
-0.0587121611827
-0.0589159176248
-0.059158096057
-0.0594445731936
-0.059777446906
-0.0539680429825
-0.0545713090598
-0.0552176758193
-0.055905596956
-0.0566318022344
-0.0500680063586
-0.0511413749419
-0.0522350586409
-0.0533446032239
-0.0544649267331
-0.0481551035477
-0.0495482818429
-0.050945235715
-0.052337815361
-0.0537208526874
-0.0485814056884
-0.0500912842204
-0.0515880409887
-0.05306591271
-0.0545150207639
-0.080678718489
-0.080643595759
-0.0805241395849
-0.0805649120338
-0.0804348434231
-0.0802224218843
-0.0804453846451
-0.080302518745
-0.0800736462212
-0.0798671491837
-0.080269579115
-0.0801126645641
-0.0798655451173
-0.0796508634906
-0.0795163397049
-0.0798623531656
-0.0795951296505
-0.0793723179849
-0.0792429834493
-0.0792216937546
-0.0792425420767
-0.0790121221346
-0.078888501431
-0.0788825761569
-0.0789741442111
-0.0785523695744
-0.0784409027728
-0.0784562659752
-0.0785706719437
-0.0787406673325
-0.0778877377889
-0.0779283539573
-0.0780665657423
-0.0782532109079
-0.0784414414929
-0.0772660085637
-0.0774296852573
-0.0776332691503
-0.0778277335493
-0.0779770273769
-0.076618227423
-0.0768409432491
-0.0770404242215
-0.0771811314253
-0.0772449662814
-0.0758324971186
-0.0760329818383
-0.0761594238971
-0.0761993846328
-0.0761544973456
-0.0747182830279
-0.0748301117157
-0.0748439518691
-0.0747657935796
-0.0746083553906
-0.0730725678036
-0.073052951911
-0.0729361973646
-0.0727463224444
-0.0725103183781
-0.0706791365543
-0.0705399757755
-0.0703451541675
-0.0701227174492
-0.0698911316916
-0.0674186422139
-0.0672662042243
-0.0671031652515
-0.066945028906
-0.0668043216093
-0.0633751779403
-0.0633471320124
-0.0633410562166
-0.0633684607707
-0.063436031133
-0.0589159308021
-0.0591581416534
-0.0594445269103
-0.0597774574264
-0.0601572976954
-0.054570985093
-0.0552176893884
-0.0559055865799
-0.0566321569167
-0.0573933305413
-0.0511409772035
-0.0522349944297
-0.0533446678295
-0.0544652444885
-0.055591432255
-0.0495502845964
-0.0509453941046
-0.0523376448663
-0.0537188401224
-0.0550838076282
-0.0500891347525
-0.0515880987385
-0.0530658589722
-0.0545172890094
-0.0559331853471
-0.080680409301
-0.0806786978897
-0.0805692988737
-0.0806437299954
-0.0805244257387
-0.0803264029842
-0.0805649221784
-0.0804348331413
-0.0802224262033
-0.0800242083209
-0.0804456341099
-0.0803026611396
-0.0800735315454
-0.079866961707
-0.0797284461644
-0.080112553987
-0.0798655080436
-0.0796508799273
-0.0795163464933
-0.0794805148136
-0.0795949839176
-0.0793722515622
-0.0792430273692
-0.079221756169
-0.079293438804
-0.0790121928279
-0.0788885162026
-0.0788825824599
-0.078974190054
-0.079125576128
-0.0784409521862
-0.0784562901617
-0.0785706568191
-0.0787406569052
-0.0789218786561
-0.0779283700478
-0.078066599157
-0.0782531698365
-0.0784413624087
-0.078595660631
-0.0774296391842
-0.0776332555341
-0.0778277422536
-0.0779770525317
-0.0780602761191
-0.0768408868708
-0.0770403929667
-0.0771811594571
-0.0772450244093
-0.0772284297922
-0.0760330315124
-0.0761594534443
-0.076199360915
-0.0761544710685
-0.0760340517913
-0.0748301445464
-0.0748439804177
-0.0747657695997
-0.0746083396886
-0.0743898220896
-0.0730529233186
-0.0729361980885
-0.0727463172122
-0.0725103209388
-0.0722510353083
-0.0705399691437
-0.070345166242
-0.0701227034256
-0.0698911299544
-0.0696621335791
-0.0672661909397
-0.0671031839975
-0.0669450104966
-0.0668043437884
-0.0666911874944
-0.0633471335584
-0.0633410823957
-0.0633684339585
-0.0634360372512
-0.063547555365
-0.0591581481194
-0.0594445732292
-0.0597774106537
-0.060157317889
-0.0605834243924
-0.0552173541172
-0.0559055968918
-0.0566321505368
-0.0573936917846
-0.0581854486327
-0.0522346145618
-0.0533446032625
-0.0544653075406
-0.0555917081401
-0.0567183564476
-0.0509474275333
-0.0523378153938
-0.0537186584064
-0.0550818468981
-0.0564223026255
-0.0515858849915
-0.0530659127187
-0.054517240225
-0.0559354413764
-0.0573120779849
-0.0806558242618
-0.0806800747685
-0.0805799315926
-0.080678682955
-0.080569261262
-0.0803850942939
-0.0806435797447
-0.0805245638399
-0.0803266689333
-0.0801364659914
-0.0805649406236
-0.0804348372818
-0.0802224307141
-0.0800242432022
-0.0798839918209
-0.0803029071185
-0.0800736601735
-0.0798668665949
-0.0797283035105
-0.0796797059975
-0.0798654342861
-0.079650864489
-0.0795163447368
-0.0794804901707
-0.0795347757312
-0.079372129197
-0.0792429783232
-0.0792217844387
-0.0792934728012
-0.0794267451566
-0.0788885397529
-0.078882574854
-0.0789742117836
-0.0791256421137
-0.079296593211
-0.0784563278024
-0.078570671763
-0.0787406496798
-0.0789218798716
-0.0790786070608
-0.0780666464769
-0.0782532145924
-0.0784413165837
-0.0785955812777
-0.0786936853358
-0.0776332171034
-0.0778277336003
-0.0779770571116
-0.078060294423
-0.0780698488882
-0.0770403282686
-0.0771811285341
-0.0772450488746
-0.0772284763435
-0.0771385900998
-0.0761594949395
-0.0761993853401
-0.0761544519629
-0.0760340339027
-0.0758499459604
-0.0748440105989
-0.0747657941894
-0.0746083199758
-0.0743898121688
-0.0741320917916
-0.0729361783255
-0.0727463221318
-0.0725103123197
-0.0722510320876
-0.0719831558101
-0.0703451640803
-0.0701227174755
-0.0698911142825
-0.0696621317657
-0.0694455390392
-0.0671031666356
-0.0669450286565
-0.0668043254682
-0.0666912111387
-0.0666126171503
-0.0633410817888
-0.0633684606822
-0.0634360096605
-0.0635475646878
-0.0637051891375
-0.0594445716748
-0.0597774574384
-0.0601572709816
-0.0605834546166
-0.0610540678162
-0.0559052511161
-0.0566321568754
-0.0573936899066
-0.0581858133901
-0.0590031551876
-0.0533442503492
-0.0544652445287
-0.0555917675501
-0.0567185856231
-0.0578401548169
-0.0523398523881
-0.053718840151
-0.0550816556026
-0.0564204190402
-0.0577302507669
-0.0530636587277
-0.0545172890306
-0.0559353981546
-0.0573142960571
-0.0586463691897
-0.080606263036
-0.0806559500163
-0.0805632669807
-0.0806799094557
-0.0805795948175
-0.0804084977477
-0.0806787104266
-0.0805692380055
-0.0803850181733
-0.0802036385352
-0.080643310032
-0.0805244094392
-0.0803267976628
-0.0801366864142
-0.0799959844092
-0.0804348448255
-0.080222418885
-0.0800242620236
-0.0798840500211
-0.0798251502328
-0.0800738847556
-0.0798669725338
-0.0797282315983
-0.0796796097305
-0.0797178547633
-0.0796508287225
-0.0795163487745
-0.0794804736637
-0.0795347287397
-0.07965323774
-0.0792428858414
-0.079221753448
-0.0792934861676
-0.0794267544106
-0.0795862381463
-0.0788825587364
-0.0789741875801
-0.0791256736399
-0.0792966684894
-0.0794530509536
-0.0785706942361
-0.0787406557231
-0.07892187895
-0.0790786156217
-0.079187663541
-0.0782532827132
-0.0784413663002
-0.0785955357973
-0.0786936133572
-0.0787252483148
-0.0778277035673
-0.077977052767
-0.0780602957285
-0.0780698617222
-0.0780080634472
-0.0771810638593
-0.0772450219673
-0.0772284950885
-0.0771386232641
-0.0769868717577
-0.0761994184302
-0.0761544716258
-0.0760340187939
-0.0758499356573
-0.07561598766
-0.0747658176451
-0.0746083399986
-0.0743897964041
-0.0741320856297
-0.0738538743483
-0.0727463114038
-0.0725103207512
-0.0722510208075
-0.0719831495294
-0.0717159576456
-0.0701227183297
-0.0698911299872
-0.069662114846
-0.0694455377924
-0.0692500036702
-0.066945008396
-0.0668043435647
-0.066691192464
-0.0666126422047
-0.0665732094704
-0.0633684574746
-0.0634360371972
-0.0635475361148
-0.0637052018481
-0.0639099030139
-0.0597774469035
-0.0601573178837
-0.0605834080143
-0.0610541080753
-0.0615664793689
-0.0566318021772
-0.0573936917641
-0.0581858162438
-0.0590035198332
-0.0598409499087
-0.0544649267499
-0.055591708176
-0.0567186393057
-0.0578403346426
-0.0589512229076
-0.0537208526983
-0.0550818469247
-0.0564202204493
-0.0577284662921
-0.0590020071903
-0.0545150207465
-0.0559354414034
-0.0573142586813
-0.0586485254472
-0.059931482541
-0.08053916533
-0.0806066692796
-0.0805208230312
-0.0806560157389
-0.0805634139169
-0.0804034119867
-0.0806800914733
-0.0805794280679
-0.0804081989603
-0.0802355780393
-0.080678752223
-0.080569274771
-0.0803849773309
-0.0802035349191
-0.0800644837165
-0.0805241317758
-0.0803266546532
-0.0801367922485
-0.0799961457423
-0.0799297547287
-0.0802224002322
-0.0800242352653
-0.0798840798662
-0.0798252236486
-0.0798489769311
-0.0798671572945
-0.0797283109565
-0.0796795617375
-0.0797178023112
-0.0798216510301
-0.0795163485878
-0.079480493311
-0.0795347019146
-0.0796531778006
-0.0798030912404
-0.0792216921455
-0.0792934721544
-0.0794267549772
-0.0795862284327
-0.0797400288945
-0.0789741416202
-0.0791256390205
-0.0792967043936
-0.079453126465
-0.0795702547464
-0.0787406631595
-0.0789218780574
-0.0790786186475
-0.0791876755334
-0.079236920733
-0.0784414441431
-0.0785955849731
-0.0786935720908
-0.0787251885503
-0.078689464264
-0.0779770305241
-0.0780602946968
-0.0780698606497
-0.0780080715423
-0.0778838609373
-0.077244964098
-0.0772284744662
-0.0771386354556
-0.076986893177
-0.0767838729275
-0.0761544966568
-0.0760340343327
-0.0758499238398
-0.0756159821307
-0.0753488211715
-0.0746083556084
-0.0743898122347
-0.074132072915
-0.073853870958
-0.0735671944305
-0.0725103182704
-0.0722510320004
-0.0719831363202
-0.0717159499952
-0.0714571482905
-0.0698911318055
-0.0696621317868
-0.0694455199545
-0.0692500039058
-0.0690823237071
-0.0668043214502
-0.0666912109522
-0.0666126228553
-0.0665732358584
-0.0665761993023
-0.0634360309904
-0.0635475646583
-0.0637051721891
-0.0639099192068
-0.0641615894074
-0.0601572976714
-0.0605834546048
-0.0610540622788
-0.0615665293524
-0.0621169883306
-0.0573933304955
-0.0581858133846
-0.0590035273356
-0.0598413104101
-0.0606929613558
-0.0555914322673
-0.0567185856537
-0.0578403807022
-0.0589513530435
-0.0600459815943
-0.0550838076247
-0.0564204190645
-0.0577282631947
-0.059000339543
-0.0602324677044
-0.0559331853313
-0.0573142960857
-0.0586484939057
-0.0599335558559
-0.0611635825121
-0.0804521710441
-0.0805388992513
-0.080460095929
-0.080606864578
-0.0805212090395
-0.0803716270318
-0.0806559245194
-0.0805634896821
-0.0804035859557
-0.0802385890506
-0.0806804091749
-0.0805796111697
-0.080408051524
-0.0802353508822
-0.0800981599887
-0.0805693329628
-0.0803850325899
-0.0802034810012
-0.0800643649171
-0.0799930990704
-0.0803263984289
-0.0801366758001
-0.0799962224172
-0.0799298529574
-0.0799416977716
-0.0800241891163
-0.0798840421189
-0.0798252605389
-0.0798490572125
-0.0799391362063
-0.0797284500039
-0.0796796138934
-0.079717776659
-0.0798216357202
-0.0799618319282
-0.0794805221196
-0.079534732288
-0.0796531451815
-0.0798030267694
-0.0799533403834
-0.079293440273
-0.0794267554278
-0.0795862193528
-0.0797400075342
-0.0798625583809
-0.0791255741305
-0.079296665193
-0.0794531622109
-0.0795703233945
-0.0796340252401
-0.0789218735723
-0.0790786135406
-0.0791876802912
-0.0792369330728
-0.0792232344714
-0.0785956629121
-0.0786936165983
-0.0787251538693
-0.0786894187334
-0.0785918579828
-0.0780602788725
-0.0780698619399
-0.0780080688022
-0.0778838647611
-0.077708524483
-0.0772284281841
-0.077138621962
-0.0769868991381
-0.0767838851903
-0.076540357479
-0.0760340514294
-0.0758499359712
-0.0756159728362
-0.0753488181296
-0.075063197179
-0.0743898220424
-0.0741320855294
-0.0738538601743
-0.0735671929637
-0.073279626073
-0.0722510351663
-0.0719831495106
-0.0717159355113
-0.0714571402706
-0.0712140275985
-0.0696621336736
-0.0694455377957
-0.0692499853661
-0.0690823263083
-0.0689474955501
-0.0666911873596
-0.0666126420624
-0.0665732156551
-0.0665762271313
-0.0666237465393
-0.0635475552713
-0.0637052018349
-0.0639098884525
-0.0641616090191
-0.0644590857966
-0.0605834243556
-0.0610541080618
-0.0615664849115
-0.0621170474693
-0.0627010939866
-0.0581854486002
-0.0590035198388
-0.0598413221566
-0.0606933134713
-0.0615530799035
-0.056718356448
-0.0578403346673
-0.0589513899542
-0.060046063905
-0.0611189739507
-0.056422302613
-0.0577284663154
-0.0590001350398
-0.0602309298535
-0.0614171436778
-0.0573120779688
-0.0586485254734
-0.059933529905
-0.0611655550378
-0.0623395485679
-0.0803473179883
-0.0804518505074
-0.0803787061872
-0.0805387632817
-0.0804598153736
-0.0803205150318
-0.0806066552808
-0.0805213945077
-0.0803719348059
-0.0802147619897
-0.0806557745299
-0.0805633878637
-0.0804036750692
-0.0802387765955
-0.0801034070829
-0.0805799302084
-0.0804082117378
-0.0802352385387
-0.0800980141618
-0.0800212640998
-0.0803851258747
-0.0802035489017
-0.080064304485
-0.0799929783676
-0.0799951555375
-0.0801364657096
-0.0799961392327
-0.0799298984107
-0.079941737499
-0.0800183698057
-0.0798839760832
-0.0798252163706
-0.0798490969233
-0.0799392156097
-0.0800693905182
-0.0796797060458
-0.079717803609
-0.0798216288443
-0.0799618449453
-0.0801082257817
-0.0795347811085
-0.0796531813462
-0.0798029924865
-0.079953278219
-0.0800793312983
-0.0794267488176
-0.0795862305542
-0.0797399926031
-0.0798625318099
-0.079937896997
-0.0792965918784
-0.0794531233108
-0.0795703555105
-0.0796340823974
-0.0796391871665
-0.0790786018408
-0.0791876735163
-0.0792369378377
-0.0792232453107
-0.0791498305529
-0.0786936871683
-0.078725191165
-0.0786893916142
-0.0785918259475
-0.0784417757983
-0.0780698510169
-0.0780080716596
-0.0778838607892
-0.0777085256166
-0.0774914874859
-0.0771385890393
-0.0769868923936
-0.0767838860134
-0.0765403622662
-0.0762689582327
-0.0758499458713
-0.0756159823356
-0.075348810509
-0.0750631957865
-0.0747688536767
-0.0741320915722
-0.0738538707689
-0.0735671830805
-0.0732796254651
-0.072997402583
-0.0719831556749
-0.0717159500178
-0.0714571249784
-0.0712140202672
-0.0709928475905
-0.0694455390876
-0.0692500038891
-0.0690823071799