/*--------------------------------*- C++ -*----------------------------------*\
| =========                 |                                                 |
| \\      /  F ield         | OpenFOAM: The Open Source CFD Toolbox           |
|  \\    /   O peration     | Version:  2212                                  |
|   \\  /    A nd           | Website:  www.openfoam.com                      |
|    \\/     M anipulation  |                                                 |
\*---------------------------------------------------------------------------*/
FoamFile
{
    version     2.0;
    format      ascii;
    arch        "LSB;label=64;scalar=64";
    class       volScalarField;
    location    "1730";
    object      p_rgh;
}
// * * * * * * * * * * * * * * * * * * * * * * * * * * * * * * * * * * * * * //

dimensions      [0 2 -2 0 0 0 0];

internalField   nonuniform List<scalar> 
1024
(
0.0431943
0.0431938
0.0431931
0.0431924
0.0431922
0.0431928
0.0431943
0.0431963
0.0431988
0.0432016
0.0432048
0.0432089
0.0432149
0.0432243
0.0432394
0.0432613
0.0432846
0.04329
0.0432686
0.0432225
0.0431642
0.0431123
0.0430766
0.0430553
0.0430435
0.0430373
0.0430343
0.0430334
0.0430339
0.0430354
0.0430372
0.0430383
0.0431955
0.0431951
0.0431944
0.0431939
0.0431939
0.0431945
0.0431959
0.043198
0.0432005
0.0432033
0.0432066
0.0432108
0.0432169
0.0432264
0.0432415
0.0432633
0.0432863
0.0432912
0.0432695
0.0432236
0.0431658
0.0431145
0.0430794
0.0430584
0.0430468
0.0430405
0.0430374
0.0430363
0.0430365
0.0430376
0.043039
0.0430402
0.0431982
0.0431975
0.0431969
0.0431966
0.0431968
0.0431976
0.0431992
0.0432014
0.0432041
0.0432071
0.0432105
0.043215
0.0432214
0.0432311
0.0432464
0.0432686
0.0432917
0.0432963
0.0432743
0.0432283
0.0431704
0.043119
0.043084
0.0430633
0.0430517
0.0430454
0.043042
0.0430404
0.0430401
0.0430407
0.0430421
0.0430436
0.0432022
0.0432013
0.0432006
0.0432004
0.0432009
0.0432022
0.0432043
0.043207
0.0432101
0.0432136
0.0432175
0.0432224
0.0432292
0.0432394
0.0432553
0.0432781
0.0433018
0.0433065
0.043284
0.0432374
0.0431785
0.0431258
0.0430901
0.0430692
0.0430575
0.0430509
0.043047
0.0430449
0.043044
0.0430443
0.0430457
0.0430476
0.0432075
0.0432064
0.0432055
0.0432056
0.0432067
0.0432088
0.0432119
0.0432155
0.0432195
0.0432237
0.0432283
0.0432338
0.0432413
0.0432522
0.0432689
0.0432927
0.043317
0.0433215
0.0432977
0.0432498
0.0431893
0.0431343
0.0430968
0.0430753
0.0430632
0.0430561
0.0430516
0.0430487
0.0430472
0.0430471
0.0430486
0.0430507
0.0432137
0.0432124
0.0432116
0.0432121
0.0432141
0.0432176
0.0432222
0.0432275
0.043233
0.0432384
0.0432439
0.0432503
0.0432587
0.0432705
0.0432879
0.043312
0.0433359
0.0433392
0.0433129
0.0432629
0.0432005
0.0431426
0.0431024
0.0430798
0.043067
0.0430592
0.0430538
0.0430501
0.0430479
0.0430473
0.0430486
0.0430506
0.0432202
0.0432188
0.0432182
0.0432194
0.0432229
0.0432284
0.0432356
0.0432434
0.0432511
0.0432582
0.0432651
0.0432726
0.0432817
0.043294
0.0433114
0.0433343
0.0433557
0.0433558
0.0433262
0.0432737
0.0432091
0.043148
0.0431047
0.0430806
0.0430669
0.043058
0.0430515
0.0430468
0.0430438
0.0430427
0.0430434
0.043045
0.0432259
0.0432245
0.0432243
0.0432267
0.0432323
0.0432409
0.0432517
0.0432631
0.0432738
0.0432833
0.0432919
0.0433003
0.0433098
0.0433215
0.043337
0.0433561
0.0433723
0.0433677
0.043335
0.0432803
0.043214
0.0431498
0.0431033
0.0430762
0.0430612
0.043051
0.0430433
0.0430376
0.0430339
0.0430322
0.0430322
0.0430331
0.0432291
0.0432278
0.0432282
0.0432323
0.0432409
0.0432538
0.0432694
0.0432857
0.0433005
0.0433128
0.043323
0.0433319
0.0433404
0.0433497
0.0433606
0.0433732
0.0433826
0.0433733
0.0433391
0.043284
0.0432176
0.0431528
0.0431006
0.0430688
0.043052
0.04304
0.0430309
0.0430242
0.0430199
0.0430177
0.0430169
0.0430169
0.0432276
0.0432266
0.043228
0.0432343
0.0432468
0.0432651
0.0432871
0.0433094
0.043329
0.0433444
0.0433558
0.043364
0.0433698
0.0433742
0.0433782
0.0433828
0.0433853
0.0433733
0.043341
0.0432903
0.043228
0.0431642
0.0431091
0.0430698
0.043047
0.0430316
0.0430204
0.0430125
0.0430075
0.0430047
0.0430034
0.0430027
0.0432191
0.0432183
0.0432209
0.0432299
0.0432471
0.0432721
0.0433016
0.043331
0.043356
0.0433743
0.043386
0.0433921
0.0433936
0.0433914
0.0433874
0.0433838
0.0433809
0.0433693
0.0433437
0.0433045
0.0432555
0.0432019
0.0431488
0.0431003
0.0430621
0.0430385
0.0430225
0.0430118
0.0430053
0.0430019
0.0430004
0.0429995
0.0432004
0.0432
0.0432039
0.0432159
0.0432384
0.0432709
0.0433089
0.0433461
0.0433766
0.0433975
0.0434088
0.0434119
0.0434082
0.0433993
0.0433876
0.0433768
0.0433696
0.0433609
0.0433463
0.0433257
0.0433003
0.0432707
0.0432349
0.0431901
0.0431371
0.0430891
0.0430587
0.0430394
0.0430288
0.043024
0.0430224
0.043022
0.0431679
0.0431679
0.0431731
0.0431882
0.0432162
0.0432564
0.0433034
0.0433487
0.0433849
0.0434083
0.0434192
0.0434195
0.0434111
0.0433965
0.0433786
0.0433612
0.0433497
0.0433441
0.0433414
0.0433413
0.0433437
0.0433461
0.0433428
0.0433265
0.0432911
0.0432362
0.0431747
0.0431319
0.0431086
0.0430977
0.0430941
0.0430935
0.0431175
0.0431181
0.0431245
0.0431422
0.0431751
0.0432228
0.0432786
0.0433323
0.0433748
0.0434015
0.043413
0.0434117
0.0434001
0.0433812
0.0433582
0.0433353
0.043319
0.0433138
0.0433184
0.043332
0.0433541
0.0433811
0.0434069
0.0434238
0.0434249
0.0434067
0.0433701
0.0433209
0.0432766
0.0432494
0.0432374
0.0432335
0.0430468
0.0430479
0.0430552
0.0430747
0.0431112
0.0431649
0.0432292
0.0432919
0.0433422
0.0433743
0.0433885
0.0433879
0.0433755
0.0433545
0.0433283
0.0433015
0.0432808
0.0432724
0.0432762
0.0432912
0.0433169
0.0433507
0.0433873
0.0434203
0.0434439
0.0434552
0.0434539
0.0434423
0.0434245
0.0434057
0.0433916
0.043385
0.0429581
0.0429597
0.0429675
0.0429874
0.0430254
0.0430831
0.0431546
0.0432271
0.0432877
0.0433284
0.0433489
0.0433524
0.0433425
0.043323
0.0432976
0.0432706
0.0432478
0.0432352
0.0432311
0.0432357
0.0432501
0.043274
0.0433041
0.0433355
0.0433629
0.043383
0.0433945
0.0433988
0.0433981
0.0433947
0.0433906
0.0433872
0.042869
0.042871
0.0428786
0.0428976
0.0429343
0.0429927
0.0430688
0.0431504
0.0432228
0.0432753
0.0433055
0.0433164
0.0433124
0.043298
0.0432782
0.0432586
0.0432443
0.0432299
0.043216
0.0432042
0.0431979
0.0432003
0.0432122
0.043231
0.0432519
0.0432701
0.0432827
0.0432892
0.0432912
0.0432904
0.0432879
0.0432852
0.0428065
0.0428088
0.0428162
0.0428337
0.0428675
0.0429224
0.0429972
0.0430832
0.0431665
0.043232
0.0432735
0.0432934
0.0432964
0.043288
0.0432744
0.0432631
0.0432631
0.043254
0.0432386
0.0432175
0.0431931
0.0431719
0.0431598
0.0431591
0.0431671
0.0431784
0.043188
0.0431934
0.0431945
0.0431928
0.0431895
0.0431859
0.0427757
0.0427782
0.0427854
0.0428014
0.0428321
0.0428824
0.0429534
0.0430388
0.043126
0.0432007
0.0432533
0.0432826
0.0432925
0.0432887
0.0432783
0.0432696
0.0432711
0.0432714
0.0432653
0.0432478
0.0432195
0.043185
0.0431529
0.0431322
0.0431249
0.0431268
0.0431319
0.0431355
0.0431358
0.0431331
0.0431284
0.0431237
0.042768
0.0427707
0.0427775
0.0427921
0.0428199
0.042866
0.0429322
0.0430144
0.0431022
0.0431815
0.0432415
0.043278
0.043293
0.0432917
0.0432812
0.0432701
0.0432671
0.0432707
0.0432722
0.0432666
0.0432505
0.0432196
0.0431781
0.0431432
0.0431234
0.0431172
0.0431187
0.0431213
0.0431212
0.0431178
0.0431118
0.0431058
0.0427746
0.0427772
0.0427837
0.0427971
0.0428226
0.0428651
0.0429271
0.0430055
0.0430914
0.0431716
0.0432347
0.0432746
0.0432916
0.0432902
0.0432772
0.0432613
0.0432533
0.0432574
0.0432644
0.0432684
0.0432645
0.0432483
0.0432195
0.0431796
0.0431536
0.043144
0.0431458
0.0431506
0.0431524
0.0431496
0.0431427
0.043135
0.0427886
0.0427911
0.042797
0.0428095
0.0428333
0.0428737
0.0429329
0.0430085
0.0430916
0.0431697
0.0432313
0.04327
0.0432851
0.0432805
0.043263
0.0432414
0.0432287
0.0432324
0.0432438
0.043256
0.0432639
0.043263
0.0432514
0.0432306
0.0432089
0.0432019
0.0432104
0.0432236
0.0432319
0.0432324
0.0432254
0.043216
0.0428053
0.0428073
0.0428125
0.0428245
0.0428478
0.0428877
0.0429463
0.0430206
0.0431009
0.0431747
0.0432306
0.0432631
0.0432719
0.043261
0.0432371
0.0432095
0.0431924
0.0431944
0.0432101
0.0432299
0.0432494
0.0432647
0.0432739
0.0432779
0.0432812
0.0432893
0.0433113
0.0433411
0.043364
0.0433727
0.0433678
0.0433571
0.0428217
0.0428228
0.0428273
0.0428394
0.0428639
0.0429055
0.0429659
0.0430404
0.0431177
0.0431848
0.0432314
0.0432533
0.0432517
0.0432314
0.0431996
0.0431656
0.0431448
0.0431457
0.0431639
0.0431904
0.0432211
0.0432533
0.0432862
0.0433206
0.043359
0.0434022
0.043451
0.0435063
0.0435545
0.04358
0.043581
0.0435705
0.0428354
0.0428352
0.0428392
0.0428526
0.0428804
0.0429266
0.0429907
0.0430662
0.0431397
0.0431977
0.0432315
0.0432394
0.0432245
0.0431925
0.0431512
0.0431106
0.0430861
0.0430861
0.0431057
0.0431386
0.0431801
0.0432297
0.0432882
0.0433576
0.0434394
0.0435317
0.0436286
0.0437235
0.0438093
0.0438651
0.0438797
0.0438735
0.0428439
0.0428421
0.0428464
0.0428635
0.0428975
0.0429497
0.0430194
0.0430957
0.0431636
0.0432097
0.0432281
0.0432195
0.0431892
0.0431442
0.0430928
0.0430454
0.0430177
0.0430175
0.0430389
0.0430773
0.0431291
0.0431959
0.0432809
0.0433878
0.0435188
0.0436705
0.043833
0.0439913
0.044131
0.0442368
0.0442804
0.0442873
0.042841
0.0428381
0.042845
0.0428696
0.0429137
0.0429746
0.0430483
0.0431244
0.0431841
0.043216
0.0432171
0.043191
0.0431448
0.0430866
0.0430255
0.0429722
0.0429426
0.0429429
0.042967
0.0430107
0.0430724
0.0431555
0.043266
0.0434101
0.0435921
0.0438089
0.0440491
0.0442924
0.0445142
0.0446954
0.0447954
0.044832
0.0428126
0.0428123
0.0428276
0.0428665
0.0429255
0.0429968
0.0430739
0.0431465
0.0431953
0.0432113
0.0431949
0.043152
0.0430911
0.0430213
0.0429522
0.042895
0.0428653
0.0428675
0.0428951
0.0429443
0.0430154
0.0431132
0.0432463
0.043424
0.0436532
0.0439339
0.0442566
0.0446006
0.0449359
0.045226
0.0454245
0.0455209
0.0427321
0.0427461
0.0427856
0.0428513
0.0429304
0.0430125
0.0430921
0.0431572
0.0431928
0.0431932
0.0431609
0.0431038
0.0430314
0.0429532
0.0428793
0.0428209
0.0427931
0.0427982
0.0428298
0.0428845
0.0429638
0.0430737
0.0432249
0.0434294
0.043697
0.0440323
0.0444315
0.0448807
0.045354
0.0458067
0.0461593
0.0463858
0.0425446
0.0426199
0.0427243
0.0428333
0.0429334
0.0430247
0.0431023
0.0431569
0.0431793
0.0431661
0.0431216
0.0430543
0.0429743
0.0428915
0.0428158
0.0427585
0.0427336
0.0427422
0.0427775
0.0428371
0.0429226
0.043041
0.0432046
0.0434271
0.0437209
0.0440946
0.0445524
0.045094
0.0457127
0.0463804
0.0470106
0.0475608
0.0420512
0.0424429
0.0426877
0.0428426
0.042954
0.0430443
0.0431137
0.0431564
0.0431667
0.043143
0.0430898
0.0430161
0.0429318
0.0428469
0.0427711
0.0427155
0.0426933
0.0427046
0.0427427
0.0428054
0.0428945
0.0430174
0.0431874
0.0434188
0.0437255
0.0441189
0.0446097
0.0452121
0.0459498
0.0468573
0.0479636
0.049221
0.0410308
0.0422668
0.0427326
0.042886
0.0429894
0.0430728
0.043132
0.0431642
0.0431657
0.0431349
0.0430763
0.0429987
0.042912
0.0428261
0.0427503
0.0426955
0.0426745
0.0426871
0.0427264
0.0427904
0.0428806
0.043005
0.0431765
0.04341
0.0437196
0.0441179
0.0446195
0.0452498
0.0460614
0.0471618
0.0487689
0.0510302
)
;

boundaryField
{
    movingWall
    {
        type            fixedFluxPressure;
        gradient        uniform 0;
        value           nonuniform List<scalar> 
32
(
0.0410308
0.0422668
0.0427326
0.042886
0.0429894
0.0430728
0.043132
0.0431642
0.0431657
0.0431349
0.0430763
0.0429987
0.042912
0.0428261
0.0427503
0.0426955
0.0426745
0.0426871
0.0427264
0.0427904
0.0428806
0.043005
0.0431765
0.04341
0.0437196
0.0441179
0.0446195
0.0452498
0.0460614
0.0471618
0.0487689
0.0510302
)
;
    }
    fixedWalls
    {
        type            fixedFluxPressure;
        gradient        uniform 0;
        value           nonuniform List<scalar> 
64
(
0.0431943
0.0431955
0.0431982
0.0432022
0.0432075
0.0432137
0.0432202
0.0432259
0.0432291
0.0432276
0.0432191
0.0432004
0.0431679
0.0431175
0.0430468
0.0429581
0.042869
0.0428065
0.0427757
0.042768
0.0427746
0.0427886
0.0428053
0.0428217
0.0428354
0.0428439
0.042841
0.0428126
0.0427321
0.0425446
0.0420512
0.0410308
0.0430383
0.0430402
0.0430436
0.0430476
0.0430507
0.0430506
0.043045
0.0430331
0.0430169
0.0430027
0.0429995
0.043022
0.0430935
0.0432335
0.043385
0.0433872
0.0432852
0.0431859
0.0431237
0.0431058
0.043135
0.043216
0.0433571
0.0435705
0.0438735
0.0442873
0.044832
0.0455209
0.0463858
0.0475608
0.049221
0.0510302
)
;
    }
    floor
    {
        type            fixedFluxPressure;
        gradient        uniform 0;
        value           nonuniform List<scalar> 
32
(
0.0431943
0.0431938
0.0431931
0.0431924
0.0431922
0.0431928
0.0431943
0.0431963
0.0431988
0.0432016
0.0432048
0.0432089
0.0432149
0.0432243
0.0432394
0.0432613
0.0432846
0.04329
0.0432686
0.0432225
0.0431642
0.0431123
0.0430766
0.0430553
0.0430435
0.0430373
0.0430343
0.0430334
0.0430339
0.0430354
0.0430372
0.0430383
)
;
    }
    frontAndBack
    {
        type            empty;
    }
}


// ************************************************************************* //
