/*--------------------------------*- C++ -*----------------------------------*\
| =========                 |                                                 |
| \\      /  F ield         | OpenFOAM: The Open Source CFD Toolbox           |
|  \\    /   O peration     | Version:  2212                                  |
|   \\  /    A nd           | Website:  www.openfoam.com                      |
|    \\/     M anipulation  |                                                 |
\*---------------------------------------------------------------------------*/
FoamFile
{
    version     2.0;
    format      ascii;
    arch        "LSB;label=64;scalar=64";
    class       volScalarField;
    location    "1730";
    object      Sco2;
}
// * * * * * * * * * * * * * * * * * * * * * * * * * * * * * * * * * * * * * //

dimensions      [1 -3 0 0 0 0 0];

internalField   nonuniform List<scalar> 
1024
(
0.00591144
0.00591385
0.00591977
0.00593063
0.00594818
0.00597438
0.00601122
0.00606032
0.00612241
0.00619689
0.00628145
0.00637223
0.00646427
0.0065523
0.00663125
0.0066958
0.00673524
0.00674275
0.00672277
0.00668162
0.00662507
0.00655828
0.00648689
0.00641694
0.00635386
0.00630118
0.00626022
0.00623046
0.00621029
0.00619773
0.00619086
0.00618807
0.00591223
0.00591466
0.00592064
0.00593161
0.00594934
0.00597581
0.00601302
0.00606255
0.00612509
0.00619997
0.00628485
0.00637583
0.00646797
0.00655602
0.00663497
0.00669957
0.00673913
0.0067468
0.00672686
0.00668566
0.006629
0.00656207
0.00649044
0.0064201
0.00635651
0.00630328
0.00626183
0.00623168
0.00621125
0.00619854
0.0061916
0.00618878
0.00591416
0.00591664
0.00592274
0.00593395
0.00595208
0.00597915
0.00601715
0.00606762
0.00613116
0.00620698
0.0062926
0.00638407
0.00647645
0.00656462
0.00664369
0.00670857
0.00674862
0.00675671
0.00673673
0.00669501
0.00663764
0.00657001
0.00649766
0.00642648
0.00636188
0.00630761
0.00626522
0.00623436
0.00621345
0.00620046
0.00619338
0.00619052
0.00591763
0.00592019
0.00592649
0.00593808
0.00595685
0.00598488
0.00602417
0.00607621
0.00614142
0.0062188
0.00630569
0.00639802
0.00649092
0.00657943
0.00665896
0.00672466
0.00676588
0.00677483
0.00675451
0.00671126
0.00665189
0.00658239
0.00650846
0.00643582
0.00636976
0.00631407
0.00627045
0.00623865
0.00621712
0.00620378
0.00619654
0.00619361
0.00592311
0.00592577
0.00593234
0.00594447
0.00596414
0.00599354
0.00603468
0.00608896
0.00615661
0.00623632
0.00632513
0.00641886
0.0065127
0.00660202
0.00668264
0.0067501
0.00679357
0.00680397
0.00678279
0.0067364
0.00667291
0.00659957
0.00652262
0.00644764
0.00637965
0.00632231
0.00627737
0.00624461
0.00622249
0.00620883
0.00620146
0.0061985
0.00593109
0.00593387
0.00594078
0.0059536
0.00597445
0.00600563
0.00604922
0.0061065
0.00617743
0.00626033
0.00635188
0.00644771
0.00654319
0.00663411
0.00671687
0.00678748
0.00683469
0.00684724
0.00682446
0.00677283
0.00670231
0.00662229
0.00654017
0.00646154
0.00639103
0.00633195
0.00628584
0.00625237
0.0062299
0.00621614
0.00620878
0.00620587
0.00594206
0.00594497
0.00595228
0.00596591
0.0059882
0.00602159
0.00606822
0.00612928
0.00620443
0.00629153
0.00638681
0.00648573
0.00658384
0.00667754
0.00676393
0.0068395
0.0068922
0.00690764
0.00688253
0.00682347
0.00674261
0.00665231
0.00656205
0.00647793
0.00640408
0.00634317
0.00629623
0.00626257
0.00624024
0.00622677
0.0062197
0.00621696
0.00595645
0.0059595
0.00596724
0.00598181
0.00600575
0.00604174
0.00609201
0.00615766
0.00623801
0.00633043
0.00643066
0.00653392
0.00663603
0.00673404
0.00682585
0.00690838
0.0069684
0.00698768
0.0069601
0.00689226
0.00679818
0.00669378
0.00659168
0.00649945
0.00642098
0.006358
0.00631061
0.00627738
0.00625588
0.00624327
0.00623689
0.00623452
0.00597465
0.00597784
0.00598604
0.00600161
0.00602739
0.00606631
0.00612075
0.00619177
0.00627836
0.00637735
0.00648393
0.00659304
0.00670073
0.00680471
0.00690369
0.00699498
0.00706405
0.00708887
0.00706057
0.0069851
0.00687718
0.00675581
0.00663786
0.00653403
0.00644878
0.00638282
0.00633496
0.00630265
0.00628262
0.0062715
0.00626627
0.00626452
0.00599696
0.00600028
0.00600892
0.00602553
0.00605327
0.00609537
0.00615445
0.00623156
0.00632541
0.00643223
0.00654659
0.00666303
0.00677772
0.00688899
0.00699628
0.00709742
0.00717716
0.00721095
0.00718745
0.00711057
0.00699352
0.00685647
0.00672036
0.00660061
0.00650462
0.0064331
0.00638348
0.00635171
0.00633331
0.00632405
0.00632031
0.00631938
0.00602353
0.00602697
0.00603604
0.00605369
0.00608343
0.00612886
0.00619288
0.00627661
0.0063785
0.00649415
0.00661736
0.00674209
0.00686443
0.00698317
0.00709848
0.00720919
0.00730111
0.00734989
0.0073421
0.00727766
0.00716521
0.00702266
0.00687258
0.00673519
0.0066233
0.00654086
0.0064854
0.00645156
0.00643334
0.00642523
0.00642273
0.00642255
0.00605431
0.00605785
0.00606733
0.00608595
0.0061176
0.00616628
0.00623522
0.00632566
0.00643576
0.00656047
0.00669261
0.00682531
0.00695428
0.00707853
0.00719907
0.00731675
0.00742138
0.00749267
0.00751584
0.00748522
0.00740209
0.00727792
0.00713211
0.00698632
0.0068584
0.00675894
0.00668995
0.00664733
0.00662437
0.00661419
0.00661107
0.00661085
0.00608882
0.00609244
0.00610223
0.00612164
0.00615486
0.00620629
0.00627949
0.00637578
0.0064931
0.00662561
0.00676501
0.00690327
0.00703528
0.00715993
0.00727919
0.00739712
0.00751104
0.00760898
0.00767618
0.00770122
0.00767704
0.00760569
0.0074983
0.00737194
0.00724514
0.00713374
0.0070473
0.00698804
0.00695231
0.00693386
0.00692625
0.00692428
0.00612573
0.0061294
0.00613934
0.00615913
0.00619317
0.00624612
0.00632181
0.00642167
0.00654336
0.00668034
0.00682305
0.00696191
0.00709041
0.00720675
0.00731367
0.00741912
0.00753081
0.00764919
0.00776136
0.00785111
0.00790412
0.00791337
0.00787997
0.00781204
0.00772258
0.00762678
0.00753874
0.00746826
0.0074189
0.00738899
0.00737393
0.00736861
0.00616249
0.00616613
0.00617594
0.00619543
0.00622897
0.0062813
0.00635635
0.00645566
0.0065768
0.00671267
0.00685259
0.00698514
0.00710172
0.00719891
0.00727953
0.00735503
0.00744481
0.00756558
0.00770838
0.00785301
0.00797895
0.008072
0.00812558
0.00813976
0.00812004
0.00807617
0.00802034
0.00796468
0.00791841
0.00788593
0.00786721
0.00785958
0.00619479
0.00619832
0.00620765
0.00622594
0.00625721
0.00630593
0.00637598
0.00646903
0.00658291
0.00671057
0.00684071
0.00696026
0.00705804
0.00712803
0.00717182
0.00720262
0.00725062
0.00735156
0.00750419
0.00768596
0.00787002
0.00803442
0.0081656
0.00825791
0.00831189
0.00833269
0.00832872
0.00831011
0.00828674
0.00826609
0.00825216
0.00824575
0.00621528
0.00621865
0.00622725
0.00624371
0.0062714
0.00631418
0.00637562
0.00645753
0.00655836
0.0066719
0.00678735
0.00689111
0.00697004
0.00701528
0.00702575
0.0070133
0.00701347
0.0070778
0.00721811
0.00741665
0.00764403
0.00786955
0.00806931
0.00822947
0.00834556
0.00842014
0.00846028
0.0084754
0.00847539
0.00846894
0.00846219
0.00845835
0.00622076
0.00622398
0.00623193
0.00624664
0.00627078
0.00630749
0.00635981
0.00642959
0.00651595
0.00661391
0.00671411
0.00680378
0.00686951
0.00690088
0.00689441
0.00685898
0.00682921
0.00686054
0.00697459
0.00716521
0.00741057
0.00767857
0.00793636
0.00815897
0.00833295
0.0084557
0.0085326
0.00857356
0.00859007
0.00859291
0.00859048
0.00858804
0.00621475
0.00621786
0.00622529
0.00623863
0.00625991
0.00629155
0.00633603
0.00639499
0.00646805
0.00655149
0.00663762
0.00671542
0.00677254
0.00679857
0.00678885
0.00674996
0.00671385
0.00673167
0.00682621
0.00699949
0.00723968
0.00752178
0.00781298
0.00808157
0.00830484
0.00847244
0.00858515
0.0086514
0.00868352
0.00869443
0.0086952
0.00869352
0.00620158
0.00620453
0.00621145
0.00622362
0.0062426
0.0062702
0.00630828
0.00635817
0.00641969
0.00649005
0.00656325
0.00663034
0.00668101
0.0067062
0.00670162
0.00667307
0.00664899
0.00667185
0.00676069
0.00692074
0.00714708
0.00742368
0.00772443
0.00801777
0.0082755
0.00847975
0.00862504
0.00871621
0.00876462
0.00878427
0.0087885
0.00878756
0.00618694
0.00618948
0.00619549
0.00620612
0.0062227
0.00624665
0.00627933
0.00632163
0.0063733
0.00643221
0.00649382
0.00655145
0.00659744
0.00662521
0.00663223
0.00662478
0.00662644
0.00666776
0.00676201
0.00691533
0.0071273
0.00738874
0.00768129
0.00797929
0.00825466
0.00848451
0.00865676
0.008771
0.00883582
0.00886488
0.00887304
0.00887294
0.00618009
0.00618166
0.00618569
0.00619339
0.00620622
0.00622562
0.00625274
0.0062881
0.00633132
0.0063807
0.00643309
0.00648422
0.00652943
0.00656511
0.00659094
0.00661369
0.00665013
0.00671719
0.00682223
0.0069718
0.00716917
0.00741093
0.00768491
0.00797193
0.00824859
0.00849144
0.00868325
0.00881744
0.00889813
0.00893714
0.00894975
0.00895068
0.00619438
0.00619408
0.00619434
0.00619665
0.00620301
0.00621547
0.00623553
0.00626379
0.00629992
0.00634279
0.00639068
0.00644153
0.00649332
0.0065448
0.00659695
0.00665587
0.00673003
0.00682335
0.00693894
0.0070841
0.0072649
0.00748282
0.00773164
0.00799762
0.00826231
0.00850534
0.00870775
0.00885735
0.00895255
0.00900169
0.00901927
0.00902144
0.00624524
0.00624198
0.00623636
0.00623045
0.00622726
0.00623005
0.00624145
0.00626288
0.00629462
0.00633627
0.00638726
0.00644689
0.00651438
0.00658915
0.00667192
0.00676691
0.00687447
0.00698852
0.00711006
0.00724763
0.00740915
0.00759965
0.00781789
0.00805556
0.00829887
0.00853101
0.00873419
0.00889307
0.00900024
0.00905916
0.00908213
0.00908579
0.00634667
0.00633944
0.0063264
0.00631076
0.00629694
0.00628979
0.00629356
0.00631114
0.00634378
0.00639158
0.00645414
0.00653062
0.00661972
0.00672003
0.00683088
0.00695431
0.00708459
0.00720967
0.00733026
0.00745609
0.00759606
0.00775705
0.00794135
0.00814535
0.00836005
0.00857245
0.00876698
0.00892766
0.00904278
0.00911026
0.00913875
0.00914419
0.00650843
0.00649661
0.00647637
0.00645301
0.00643246
0.00642055
0.00642264
0.00644297
0.00648331
0.00654349
0.00662223
0.00671745
0.00682644
0.00694643
0.00707541
0.00721382
0.00735269
0.00747782
0.00759042
0.0077008
0.00781797
0.00794924
0.00809877
0.00826634
0.00844724
0.0086327
0.00881018
0.00896464
0.00908219
0.00915585
0.00918951
0.00919697
0.00673552
0.00671934
0.00669524
0.00667139
0.00665414
0.00664827
0.00665836
0.00668883
0.00674111
0.00681432
0.00690623
0.00701361
0.00713271
0.00725998
0.00739275
0.00753071
0.00766414
0.00777946
0.00787837
0.00797086
0.00806523
0.00816822
0.00828448
0.00841573
0.00856045
0.00871378
0.00886703
0.00900748
0.00912092
0.00919701
0.00923476
0.00924436
0.00703034
0.00701159
0.00699111
0.00697882
0.00697802
0.00698956
0.0070155
0.00705902
0.00712099
0.00720062
0.00729563
0.00740266
0.00751794
0.00763798
0.00776021
0.00788409
0.00800087
0.00809906
0.00818059
0.00825415
0.00832679
0.00840409
0.00849031
0.00858785
0.00869702
0.00881593
0.00893968
0.00905915
0.00916165
0.00923526
0.00927497
0.0092865
0.00739659
0.00737971
0.00737419
0.00738547
0.00740948
0.00744229
0.00748352
0.0075351
0.00759823
0.00767319
0.00775864
0.00785207
0.00795046
0.00805104
0.00815169
0.00825192
0.0083448
0.00842154
0.0084839
0.00853872
0.00859143
0.00864624
0.00870654
0.00877457
0.00885137
0.00893672
0.00902861
0.00912178
0.0092068
0.00927234
0.00931082
0.00932355
0.00784358
0.00783706
0.00785669
0.00789328
0.00793644
0.00798135
0.00802728
0.00807596
0.00812938
0.00818889
0.00825433
0.00832436
0.00839703
0.00847047
0.00854315
0.00861472
0.00868032
0.00873396
0.00877697
0.00881409
0.00884904
0.00888469
0.00892338
0.00896676
0.00901586
0.00907105
0.00913192
0.00919624
0.0092585
0.00931016
0.00934329
0.00935573
0.00838983
0.00840294
0.00844122
0.00848379
0.00852512
0.00856349
0.00859892
0.00863306
0.00866787
0.00870491
0.00874464
0.0087866
0.00882979
0.00887316
0.00891585
0.0089576
0.00899564
0.00902656
0.00905118
0.00907217
0.00909165
0.00911124
0.00913225
0.00915564
0.00918206
0.00921187
0.00924516
0.00928131
0.009318
0.00935066
0.00937366
0.00938349
0.00905806
0.00906838
0.00908819
0.00910695
0.00912388
0.00913891
0.00915217
0.00916434
0.00917626
0.00918862
0.0092017
0.00921542
0.00922949
0.00924358
0.00925741
0.0092709
0.00928315
0.00929309
0.00930098
0.00930766
0.00931382
0.00931996
0.0093265
0.00933375
0.0093419
0.00935108
0.00936136
0.00937263
0.00938433
0.00939524
0.00940355
0.00940757
)
;

boundaryField
{
    movingWall
    {
        type            fixedValue;
        value           uniform 0.00942;
    }
    fixedWalls
    {
        type            zeroGradient;
    }
    floor
    {
        type            zeroGradient;
    }
    frontAndBack
    {
        type            empty;
    }
}


// ************************************************************************* //
