/*--------------------------------*- C++ -*----------------------------------*\
| =========                 |                                                 |
| \\      /  F ield         | OpenFOAM: The Open Source CFD Toolbox           |
|  \\    /   O peration     | Version:  2212                                  |
|   \\  /    A nd           | Website:  www.openfoam.com                      |
|    \\/     M anipulation  |                                                 |
\*---------------------------------------------------------------------------*/
FoamFile
{
    version     2.0;
    format      ascii;
    arch        "LSB;label=64;scalar=64";
    class       volVectorField;
    location    "1730";
    object      U;
}
// * * * * * * * * * * * * * * * * * * * * * * * * * * * * * * * * * * * * * //

dimensions      [0 1 -1 0 0 0 0];

internalField   nonuniform List<vector> 
1024
(
(3.39492e-06 -3.39371e-06 0)
(6.95552e-07 -7.71523e-08 0)
(-2.60757e-05 4.83552e-06 0)
(-8.18706e-05 8.12244e-06 0)
(-0.000160981 8.99182e-06 0)
(-0.000250851 7.89557e-06 0)
(-0.000337657 5.85402e-06 0)
(-0.000412537 3.93554e-06 0)
(-0.000475349 2.81469e-06 0)
(-0.000533664 2.55616e-06 0)
(-0.000598133 2.87632e-06 0)
(-0.00067659 3.29767e-06 0)
(-0.000770376 3.554e-06 0)
(-0.000871329 3.29565e-06 0)
(-0.000946199 1.66379e-06 0)
(-0.000923236 -2.45772e-06 0)
(-0.000649186 -1.10338e-05 0)
(-4.68271e-05 -2.09104e-05 0)
(0.000809004 -2.66776e-05 0)
(0.00154718 -2.21317e-05 0)
(0.00197117 -6.23587e-06 0)
(0.002009 1.11233e-05 0)
(0.00179335 2.05788e-05 0)
(0.00147792 2.33314e-05 0)
(0.00115617 2.31084e-05 0)
(0.00086184 2.21549e-05 0)
(0.000601779 2.1499e-05 0)
(0.000377025 2.07158e-05 0)
(0.000194183 1.79994e-05 0)
(6.59915e-05 1.11655e-05 0)
(1.67842e-06 3.28139e-07 0)
(-7.42422e-06 -7.53753e-06 0)
(1.85716e-07 -9.2539e-07 0)
(-2.969e-05 2.88394e-05 0)
(-0.000118178 6.79479e-05 0)
(-0.000276916 9.66705e-05 0)
(-0.000495183 0.00010622 0)
(-0.0007454 9.75696e-05 0)
(-0.000994287 7.83788e-05 0)
(-0.00121817 5.83974e-05 0)
(-0.00141376 4.47246e-05 0)
(-0.0015975 3.92262e-05 0)
(-0.00179461 3.95734e-05 0)
(-0.00202378 4.1313e-05 0)
(-0.0022856 4.06055e-05 0)
(-0.00255197 3.26661e-05 0)
(-0.00272893 1.01837e-05 0)
(-0.00263038 -3.8286e-05 0)
(-0.00187605 -0.000125213 0)
(-0.000287487 -0.000232031 0)
(0.00197297 -0.000287499 0)
(0.00389401 -0.000239393 0)
(0.00506102 -0.000101835 0)
(0.00529322 5.84696e-05 0)
(0.0048661 0.000171262 0)
(0.00412362 0.000230366 0)
(0.00330311 0.000255387 0)
(0.0025135 0.00026421 0)
(0.00179596 0.00026533 0)
(0.00117032 0.000255733 0)
(0.000659508 0.000223832 0)
(0.000290622 0.000159994 0)
(7.85502e-05 7.27635e-05 0)
(1.05566e-06 1.69876e-06 0)
(-5.22762e-06 2.68692e-05 0)
(-7.57334e-05 0.000119013 0)
(-0.000237546 0.000220475 0)
(-0.000502925 0.000294394 0)
(-0.000855823 0.000319926 0)
(-0.0012592 0.000297477 0)
(-0.00166718 0.000245371 0)
(-0.00204524 0.000189035 0)
(-0.00238587 0.000148149 0)
(-0.00270921 0.000128956 0)
(-0.00304827 0.000125717 0)
(-0.00342686 0.000126298 0)
(-0.00384052 0.000119012 0)
(-0.00423796 9.00018e-05 0)
(-0.00447146 2.03544e-05 0)
(-0.00426924 -0.000119787 0)
(-0.00310416 -0.000361498 0)
(-0.000775937 -0.000664457 0)
(0.00255807 -0.000819164 0)
(0.00539497 -0.000692176 0)
(0.00724444 -0.000338542 0)
(0.00781636 9.15629e-05 0)
(0.00739244 0.000420813 0)
(0.0064291 0.000619889 0)
(0.00526625 0.000725659 0)
(0.00408642 0.000777395 0)
(0.00297939 0.000794919 0)
(0.00199694 0.000772385 0)
(0.0011819 0.000686381 0)
(0.000572249 0.000520487 0)
(0.000190623 0.000294574 0)
(1.49418e-05 7.52185e-05 0)
(-1.05149e-05 9.2396e-05 0)
(-0.000124946 0.000299659 0)
(-0.000365962 0.000498949 0)
(-0.00074222 0.000638335 0)
(-0.00122863 0.000684996 0)
(-0.00177982 0.000640128 0)
(-0.00234226 0.000537253 0)
(-0.00287524 0.000423972 0)
(-0.00336778 0.000338193 0)
(-0.00383945 0.000293071 0)
(-0.004324 0.000278237 0)
(-0.00484372 0.000270287 0)
(-0.00538511 0.000245053 0)
(-0.00587412 0.000175058 0)
(-0.00612301 2.55139e-05 0)
(-0.00580958 -0.000257759 0)
(-0.00434756 -0.000728155 0)
(-0.00160638 -0.0013241 0)
(0.00233641 -0.0016394 0)
(0.00579799 -0.00141932 0)
(0.00825308 -0.000780927 0)
(0.00930294 4.22025e-05 0)
(0.0090834 0.000715691 0)
(0.00811169 0.00116103 0)
(0.00679606 0.0014295 0)
(0.00537777 0.0015818 0)
(0.00399509 0.00164941 0)
(0.00273643 0.00162368 0)
(0.00166789 0.00146932 0)
(0.000842392 0.00116184 0)
(0.000299406 0.000726017 0)
(2.78956e-05 0.000240752 0)
(-1.51997e-05 0.00020503 0)
(-0.000171529 0.000596123 0)
(-0.000490593 0.000937925 0)
(-0.000976525 0.00116425 0)
(-0.00159292 0.00123406 0)
(-0.00228545 0.00115481 0)
(-0.00299545 0.000981454 0)
(-0.00367946 0.00078948 0)
(-0.00432407 0.000638966 0)
(-0.00494525 0.000551514 0)
(-0.00557147 0.000511124 0)
(-0.00621789 0.000480464 0)
(-0.00686025 0.000419233 0)
(-0.00740736 0.00028334 0)
(-0.00765097 1.98225e-05 0)
(-0.0072565 -0.00045078 0)
(-0.00565727 -0.00120352 0)
(-0.00281889 -0.0021523 0)
(0.00115135 -0.00269855 0)
(0.00496393 -0.0024273 0)
(0.00791304 -0.0014876 0)
(0.00952465 -0.000181496 0)
(0.00968842 0.000963844 0)
(0.00889565 0.00177083 0)
(0.00761694 0.00230026 0)
(0.00613592 0.00263122 0)
(0.00462881 0.00280353 0)
(0.00321726 0.00280399 0)
(0.00199185 0.0025841 0)
(0.00102403 0.00210624 0)
(0.000372085 0.00138797 0)
(3.64166e-05 0.000506629 0)
(-1.91564e-05 0.000372939 0)
(-0.000212156 0.00103154 0)
(-0.000601418 0.00157168 0)
(-0.00118768 0.00191092 0)
(-0.00192377 0.00200483 0)
(-0.00274651 0.00187592 0)
(-0.00359312 0.00160936 0)
(-0.00441899 0.00131454 0)
(-0.00520878 0.00107635 0)
(-0.00597309 0.000925192 0)
(-0.00673159 0.000838604 0)
(-0.00748976 0.000763973 0)
(-0.00821459 0.000643042 0)
(-0.00880784 0.000414143 0)
(-0.00906263 5.68386e-06 0)
(-0.00866597 -0.000683126 0)
(-0.00712175 -0.00174936 0)
(-0.00443765 -0.0030626 0)
(-0.000935611 -0.00390176 0)
(0.00291909 -0.00370522 0)
(0.00619935 -0.0025114 0)
(0.00837033 -0.000677992 0)
(0.00907223 0.00105968 0)
(0.00860047 0.00234781 0)
(0.00751784 0.00324204 0)
(0.00614331 0.00383845 0)
(0.00467827 0.00418086 0)
(0.00326981 0.0042471 0)
(0.00202975 0.00397215 0)
(0.0010441 0.00330068 0)
(0.000379248 0.00223644 0)
(3.71776e-05 0.000851039 0)
(-2.21534e-05 0.000602314 0)
(-0.000243736 0.00162375 0)
(-0.00068922 0.00242805 0)
(-0.00135804 0.00291248 0)
(-0.00219512 0.00303344 0)
(-0.00313022 0.00283854 0)
(-0.00409719 0.00245375 0)
(-0.00505061 0.00202921 0)
(-0.00597346 0.00167703 0)
(-0.00687076 0.00143617 0)
(-0.00775333 0.00127726 0)
(-0.00861824 0.00113251 0)
(-0.00942903 0.000925933 0)
(-0.010092 0.000579257 0)
(-0.0104196 3.59537e-06 0)
(-0.0101404 -0.000919918 0)
(-0.00884266 -0.00231277 0)
(-0.00652023 -0.00397611 0)
(-0.0035819 -0.00513708 0)
(-0.000165939 -0.00518823 0)
(0.00324136 -0.0038889 0)
(0.00589029 -0.00155214 0)
(0.00725648 0.000889884 0)
(0.00720213 0.00278156 0)
(0.00642997 0.00413784 0)
(0.00530503 0.0050785 0)
(0.0040423 0.00564697 0)
(0.00280488 0.00580687 0)
(0.00171721 0.00547592 0)
(0.000866644 0.00458682 0)
(0.000307346 0.00313984 0)
(2.86229e-05 0.00121237 0)
(-2.39051e-05 0.000895423 0)
(-0.000263506 0.00238104 0)
(-0.000746365 0.00352263 0)
(-0.0014732 0.00419175 0)
(-0.00238548 0.00434813 0)
(-0.00340902 0.00407371 0)
(-0.00447574 0.00354615 0)
(-0.00553987 0.00296414 0)
(-0.00658334 0.00247009 0)
(-0.00760737 0.00211163 0)
(-0.00861668 0.00185259 0)
(-0.00960399 0.00161116 0)
(-0.0105352 0.00129538 0)
(-0.0113293 0.000812165 0)
(-0.0118258 5.67283e-05 0)
(-0.0117887 -0.00110891 0)
(-0.0108818 -0.00283366 0)
(-0.0090395 -0.00484656 0)
(-0.00661023 -0.00633559 0)
(-0.00379289 -0.00670273 0)
(-0.000724576 -0.0056046 0)
(0.00222906 -0.00291433 0)
(0.00433241 0.000350984 0)
(0.00482439 0.00296138 0)
(0.00445371 0.00485164 0)
(0.00370078 0.00618802 0)
(0.00278539 0.00700585 0)
(0.0018778 0.00725245 0)
(0.00110127 0.0068387 0)
(0.000525652 0.00570997 0)
(0.000173334 0.00389393 0)
(1.32866e-05 0.00149891 0)
(-2.42874e-05 0.00124916 0)
(-0.000270317 0.00329929 0)
(-0.000769656 0.00485571 0)
(-0.00152701 0.00575735 0)
(-0.00248547 0.00596694 0)
(-0.00357116 0.00560735 0)
(-0.00471644 0.00491798 0)
(-0.00587667 0.00415447 0)
(-0.00703445 0.00349374 0)
(-0.00818999 0.00299301 0)
(-0.00934569 0.00260961 0)
(-0.0104935 0.00224911 0)
(-0.0116039 0.00180537 0)
(-0.0126085 0.00117123 0)
(-0.0133675 0.000225092 0)
(-0.0136571 -0.00119262 0)
(-0.0132072 -0.00325763 0)
(-0.0118836 -0.00563784 0)
(-0.00995677 -0.0074684 0)
(-0.00762955 -0.00815924 0)
(-0.00504757 -0.0073324 0)
(-0.00237648 -0.00484564 0)
(0.000176582 -0.000896827 0)
(0.00165855 0.00272275 0)
(0.00184426 0.00522333 0)
(0.00159872 0.00696793 0)
(0.00115956 0.00800794 0)
(0.000707895 0.00829016 0)
(0.000351622 0.00774871 0)
(0.000128361 0.00638357 0)
(2.43561e-05 0.00428832 0)
(-2.65424e-06 0.00162431 0)
(-2.34831e-05 0.00165578 0)
(-0.000265586 0.00436365 0)
(-0.000762354 0.00641431 0)
(-0.00152475 0.00760598 0)
(-0.00250245 0.00790029 0)
(-0.00362647 0.00746377 0)
(-0.00483294 0.0066057 0)
(-0.00608062 0.00564711 0)
(-0.00735488 0.00480425 0)
(-0.00865703 0.00414499 0)
(-0.00998888 0.00361997 0)
(-0.0113415 0.0031225 0)
(-0.0126864 0.00253276 0)
(-0.0139592 0.00172852 0)
(-0.015028 0.000570107 0)
(-0.0156657 -0.00112278 0)
(-0.0156633 -0.00354075 0)
(-0.014851 -0.0063073 0)
(-0.0134345 -0.00850459 0)
(-0.0115825 -0.00955495 0)
(-0.00939728 -0.0090428 0)
(-0.00697838 -0.00677611 0)
(-0.0044562 -0.00296413 0)
(-0.00204967 0.00150427 0)
(-0.00101467 0.00486396 0)
(-0.000595327 0.00709504 0)
(-0.000448329 0.00833132 0)
(-0.000380546 0.00860144 0)
(-0.000301425 0.00793027 0)
(-0.000194573 0.00641321 0)
(-8.72652e-05 0.00422102 0)
(-1.2384e-05 0.00156175 0)
(-2.18878e-05 0.00210569 0)
(-0.000252414 0.00555456 0)
(-0.00073193 0.0081794 0)
(-0.00147911 0.00972925 0)
(-0.00245426 0.0101571 0)
(-0.00359761 0.00967128 0)
(-0.00485218 0.00865598 0)
(-0.00618182 0.0075048 0)
(-0.00757518 0.00647732 0)
(-0.00903412 0.00565228 0)
(-0.0105581 0.0049724 0)
(-0.0121336 0.00431801 0)
(-0.0137263 0.00355526 0)
(-0.0152677 0.00254651 0)
(-0.0166278 0.00113689 0)
(-0.017584 -0.000865048 0)
(-0.0179669 -0.00364754 0)
(-0.017631 -0.00680505 0)
(-0.0167203 -0.00938834 0)
(-0.0153427 -0.0108553 0)
(-0.0135258 -0.0107985 0)
(-0.0112936 -0.00899337 0)
(-0.00872942 -0.00553562 0)
(-0.00605048 -0.00102433 0)
(-0.00376314 0.00327107 0)
(-0.00249182 0.00606663 0)
(-0.00168858 0.00757844 0)
(-0.00112561 0.00793662 0)
(-0.000695628 0.00727326 0)
(-0.000363993 0.00578808 0)
(-0.000136026 0.00372932 0)
(-1.48248e-05 0.00134364 0)
(-1.97488e-05 0.0025891 0)
(-0.000232617 0.00685089 0)
(-0.000682671 0.0101291 0)
(-0.00139713 0.0121163 0)
(-0.00235009 0.0127459 0)
(-0.00349417 0.0122608 0)
(-0.00478067 0.01112 0)
(-0.00617761 0.00979395 0)
(-0.00767419 0.00858817 0)
(-0.00926961 0.00759207 0)
(-0.0109579 0.00673955 0)
(-0.0127182 0.00589807 0)
(-0.0145076 0.00492129 0)
(-0.016253 0.00365979 0)
(-0.0178326 0.00195187 0)
(-0.0190493 -0.000391864 0)
(-0.0197255 -0.00355142 0)
(-0.0198008 -0.00708555 0)
(-0.0193562 -0.0100664 0)
(-0.0184223 -0.0120227 0)
(-0.0169497 -0.0125952 0)
(-0.0148961 -0.0115599 0)
(-0.0123 -0.00891362 0)
(-0.00934064 -0.00496201 0)
(-0.00633716 -0.000377666 0)
(-0.00392132 0.00348798 0)
(-0.00238036 0.00558852 0)
(-0.00138624 0.0063139 0)
(-0.000744155 0.00592888 0)
(-0.000337768 0.00473132 0)
(-0.000108049 0.00302656 0)
(-8.70553e-06 0.00107641 0)
(-1.67892e-05 0.00309037 0)
(-0.000203632 0.00821662 0)
(-0.000607754 0.0122213 0)
(-0.00126578 0.0147347 0)
(-0.0021687 0.0156553 0)
(-0.00328375 0.0152437 0)
(-0.00456948 0.0140253 0)
(-0.00599366 0.0125483 0)
(-0.00754062 0.0111678 0)
(-0.00920326 0.00998736 0)
(-0.0109696 0.00893439 0)
(-0.0128133 0.00786627 0)
(-0.0146873 0.00662828 0)
(-0.0165198 0.00506511 0)
(-0.0182075 0.00301524 0)
(-0.0196055 0.000302657 0)
(-0.0204911 -0.00324162 0)
(-0.0208834 -0.00711913 0)
(-0.0208372 -0.0105009 0)
(-0.0203026 -0.0130216 0)
(-0.019173 -0.0143961 0)
(-0.0173699 -0.0144119 0)
(-0.0149114 -0.0129782 0)
(-0.0119444 -0.0101806 0)
(-0.00874051 -0.00633323 0)
(-0.00567629 -0.00202427 0)
(-0.00320886 0.00171174 0)
(-0.00161821 0.00370267 0)
(-0.000709231 0.00418291 0)
(-0.000247416 0.00365076 0)
(-5.23056e-05 0.0024721 0)
(1.63708e-06 0.000923564 0)
(-1.22884e-05 0.00357283 0)
(-0.000158896 0.00956443 0)
(-0.000489502 0.0143447 0)
(-0.0010511 0.0174776 0)
(-0.00185572 0.0188019 0)
(-0.00288816 0.0185613 0)
(-0.00411261 0.0173256 0)
(-0.00549066 0.0157178 0)
(-0.00699542 0.0141536 0)
(-0.00861088 0.0127627 0)
(-0.0103214 0.0114746 0)
(-0.0121013 0.0101408 0)
(-0.0139081 0.00860189 0)
(-0.0156805 0.00670106 0)
(-0.0173393 0.00428026 0)
(-0.0187806 0.00118209 0)
(-0.0198414 -0.00270901 0)
(-0.0204584 -0.00688499 0)
(-0.0207486 -0.0106479 0)
(-0.0205942 -0.0137726 0)
(-0.0198532 -0.0160618 0)
(-0.0184235 -0.0173057 0)
(-0.0163046 -0.0173087 0)
(-0.0136182 -0.0159449 0)
(-0.0105926 -0.0132383 0)
(-0.00752792 -0.00946371 0)
(-0.00475645 -0.00521462 0)
(-0.00258097 -0.00133449 0)
(-0.00117366 0.0011989 0)
(-0.000421891 0.00213515 0)
(-9.48657e-05 0.00187189 0)
(3.90588e-07 0.000824924 0)
(-5.72709e-06 0.00396178 0)
(-9.33395e-05 0.0107117 0)
(-0.000312676 0.0162538 0)
(-0.000720291 0.0200862 0)
(-0.00135364 0.0219511 0)
(-0.00222095 0.0220149 0)
(-0.0032946 0.0208427 0)
(-0.00452659 0.0191236 0)
(-0.00587303 0.0173549 0)
(-0.0073061 0.0157199 0)
(-0.00880903 0.0141661 0)
(-0.010364 0.0125449 0)
(-0.0119433 0.0106943 0)
(-0.0135076 0.00845943 0)
(-0.0150068 0.00569081 0)
(-0.0163756 0.00224954 0)
(-0.0175231 -0.00194973 0)
(-0.0182706 -0.00636113 0)
(-0.018858 -0.0104296 0)
(-0.0191112 -0.014118 0)
(-0.0188626 -0.017339 0)
(-0.017978 -0.0198972 0)
(-0.0164127 -0.0215029 0)
(-0.0142329 -0.0218289 0)
(-0.0116082 -0.0206072 0)
(-0.0087862 -0.0177642 0)
(-0.00605543 -0.0135797 0)
(-0.00369623 -0.00878691 0)
(-0.00192013 -0.00441974 0)
(-0.000792659 -0.0013237 0)
(-0.000218211 0.000205461 0)
(-1.05083e-05 0.000397533 0)
(2.02941e-06 0.00414723 0)
(-1.3778e-05 0.0113773 0)
(-9.02899e-05 0.0175473 0)
(-0.000285307 0.022104 0)
(-0.000661 0.0246592 0)
(-0.00125744 0.0252172 0)
(-0.00206614 0.0242484 0)
(-0.00303485 0.0224701 0)
(-0.00410085 0.0204842 0)
(-0.00521905 0.0185733 0)
(-0.00636816 0.0167362 0)
(-0.00754002 0.014835 0)
(-0.0087285 0.0127047 0)
(-0.0099265 0.0101887 0)
(-0.0111241 0.00713974 0)
(-0.0122998 0.00342317 0)
(-0.013446 -0.00102122 0)
(-0.014252 -0.00554224 0)
(-0.0151098 -0.00972857 0)
(-0.015821 -0.0137928 0)
(-0.0161978 -0.0177922 0)
(-0.0160576 -0.0215907 0)
(-0.0152797 -0.0248543 0)
(-0.013843 -0.027102 0)
(-0.0118328 -0.0278064 0)
(-0.00942919 -0.0265371 0)
(-0.00688376 -0.0231531 0)
(-0.00448572 -0.0180256 0)
(-0.00250716 -0.0121395 0)
(-0.00112015 -0.00677773 0)
(-0.000336133 -0.00284361 0)
(-2.07288e-05 -0.000525907 0)
(8.84942e-06 0.00404876 0)
(6.13907e-05 0.0113074 0)
(0.000125835 0.0177621 0)
(0.000151907 0.0228587 0)
(6.82342e-05 0.0261225 0)
(-0.000195198 0.0273457 0)
(-0.000664472 0.0267659 0)
(-0.00130519 0.0250515 0)
(-0.00203968 0.0228954 0)
(-0.00279276 0.0207172 0)
(-0.00352651 0.0186098 0)
(-0.0042319 0.0164709 0)
(-0.00491313 0.0141414 0)
(-0.0055837 0.0114667 0)
(-0.00626433 0.00830506 0)
(-0.00696234 0.00452037 0)
(-0.00770607 4.15209e-05 0)
(-0.0085919 -0.00440184 0)
(-0.00963509 -0.00840712 0)
(-0.0107844 -0.0124803 0)
(-0.0118547 -0.0168747 0)
(-0.0126189 -0.0216013 0)
(-0.0128532 -0.0263704 0)
(-0.0124135 -0.0306128 0)
(-0.0112737 -0.0335846 0)
(-0.00952699 -0.0345086 0)
(-0.00737272 -0.0327693 0)
(-0.00509249 -0.0282042 0)
(-0.00300952 -0.0214242 0)
(-0.00141284 -0.0138528 0)
(-0.000444882 -0.00706297 0)
(-3.11442e-05 -0.00189463 0)
(1.42704e-05 0.00372242 0)
(0.00012337 0.0106249 0)
(0.000306908 0.0170362 0)
(0.000522962 0.0224038 0)
(0.000697187 0.026184 0)
(0.000750254 0.0280376 0)
(0.000626117 0.0280124 0)
(0.000324017 0.0265725 0)
(-9.64178e-05 0.0243442 0)
(-0.000530336 0.0219258 0)
(-0.000902297 0.0195663 0)
(-0.00118433 0.0172203 0)
(-0.00137946 0.0147457 0)
(-0.00151374 0.0119865 0)
(-0.00162855 0.00879697 0)
(-0.00176688 0.00504432 0)
(-0.00177617 0.000726508 0)
(-0.00268076 -0.00332295 0)
(-0.00374655 -0.00683841 0)
(-0.0050801 -0.0104587 0)
(-0.00660185 -0.0146256 0)
(-0.00812773 -0.0196204 0)
(-0.00935985 -0.0253475 0)
(-0.0100114 -0.0312581 0)
(-0.00991368 -0.0364705 0)
(-0.00903807 -0.0399173 0)
(-0.00749525 -0.040519 0)
(-0.0055239 -0.03749 0)
(-0.00346523 -0.0307954 0)
(-0.00170971 -0.0215897 0)
(-0.000559775 -0.011942 0)
(-4.18669e-05 -0.00354561 0)
(1.73546e-05 0.00327683 0)
(0.000167164 0.00957783 0)
(0.000444053 0.0156997 0)
(0.000816527 0.0211177 0)
(0.00121002 0.0252442 0)
(0.00153869 0.0276262 0)
(0.00173052 0.0281419 0)
(0.00175916 0.0270745 0)
(0.00166189 0.0249691 0)
(0.00153489 0.0224313 0)
(0.00148359 0.0198391 0)
(0.00157176 0.0172786 0)
(0.00180591 0.0146643 0)
(0.00214372 0.0118499 0)
(0.00250716 0.00867629 0)
(0.00277753 0.00498791 0)
(0.00295668 0.00107309 0)
(0.00218103 -0.00240123 0)
(0.00112895 -0.00546057 0)
(-0.00021501 -0.00860205 0)
(-0.00182587 -0.0121608 0)
(-0.00367825 -0.0167285 0)
(-0.00557369 -0.0226309 0)
(-0.00712947 -0.029505 0)
(-0.00802579 -0.0364597 0)
(-0.00808667 -0.0422556 0)
(-0.00729291 -0.0454421 0)
(-0.00579201 -0.0446457 0)
(-0.0038902 -0.0390499 0)
(-0.00203452 -0.0291279 0)
(-0.000696018 -0.017025 0)
(-5.55811e-05 -0.00534182 0)
(1.80898e-05 0.00280461 0)
(0.000189255 0.0083982 0)
(0.000525339 0.014078 0)
(0.00100976 0.0193737 0)
(0.00157494 0.023685 0)
(0.0021346 0.0264719 0)
(0.0026087 0.0274682 0)
(0.0029541 0.026795 0)
(0.00318784 0.0248909 0)
(0.00339051 0.0223337 0)
(0.00367242 0.0195826 0)
(0.00411573 0.0168463 0)
(0.00473596 0.0141241 0)
(0.00547679 0.0113037 0)
(0.00621843 0.00823225 0)
(0.00676792 0.00476912 0)
(0.00689721 0.0013086 0)
(0.00611015 -0.00172103 0)
(0.00495618 -0.00443342 0)
(0.00358419 -0.00707061 0)
(0.00204001 -0.00995508 0)
(0.000223903 -0.0137758 0)
(-0.00192537 -0.0192722 0)
(-0.00408552 -0.0263974 0)
(-0.00581537 -0.0344445 0)
(-0.00678472 -0.0421666 0)
(-0.00681208 -0.0478692 0)
(-0.00590866 -0.049689 0)
(-0.00429135 -0.0460109 0)
(-0.00240363 -0.0363224 0)
(-0.000865392 -0.0222922 0)
(-7.28e-05 -0.00729349 0)
(1.68507e-05 0.00236927 0)
(0.000189818 0.0072596 0)
(0.000546815 0.0124312 0)
(0.00108958 0.0174844 0)
(0.00176661 0.0218361 0)
(0.00250129 0.0248894 0)
(0.00321605 0.0262624 0)
(0.00386173 0.0259401 0)
(0.0044409 0.0242577 0)
(0.0050134 0.0217515 0)
(0.00567216 0.0189244 0)
(0.00649198 0.0160807 0)
(0.00748457 0.0133073 0)
(0.0085804 0.0105418 0)
(0.00962656 0.00765475 0)
(0.0103725 0.00453539 0)
(0.0104715 0.00157118 0)
(0.00964205 -0.000993587 0)
(0.00834962 -0.00334962 0)
(0.00679314 -0.00569926 0)
(0.00510518 -0.0082833 0)
(0.00332226 -0.0114764 0)
(0.00138447 -0.0158884 0)
(-0.00101196 -0.0227312 0)
(-0.00333306 -0.0311797 0)
(-0.0051248 -0.0402403 0)
(-0.00601888 -0.0481439 0)
(-0.00583906 -0.0526872 0)
(-0.00465362 -0.0515327 0)
(-0.0028325 -0.0430183 0)
(-0.00109082 -0.0277439 0)
(-9.76033e-05 -0.00943265 0)
(1.37611e-05 0.00201053 0)
(0.000167717 0.006282 0)
(0.000502251 0.0109527 0)
(0.00104008 0.015694 0)
(0.00175702 0.0199608 0)
(0.00260042 0.0231302 0)
(0.00350926 0.0247384 0)
(0.00444027 0.0246675 0)
(0.00538663 0.0231721 0)
(0.00638082 0.0207507 0)
(0.00747761 0.017925 0)
(0.00871795 0.0150609 0)
(0.010092 0.0123127 0)
(0.0115156 0.00966646 0)
(0.0128162 0.00702117 0)
(0.013714 0.00428738 0)
(0.0138226 0.00179679 0)
(0.0130018 -0.000328457 0)
(0.0116419 -0.00229577 0)
(0.00994903 -0.00430163 0)
(0.00807206 -0.00659421 0)
(0.00612199 -0.00950604 0)
(0.00414555 -0.0134717 0)
(0.00200105 -0.0191021 0)
(-0.000541374 -0.0272634 0)
(-0.00298955 -0.0370057 0)
(-0.00477157 -0.0466014 0)
(-0.00546013 -0.0537275 0)
(-0.0048978 -0.0554797 0)
(-0.00330023 -0.0490225 0)
(-0.00139264 -0.0333686 0)
(-0.000135485 -0.0118205 0)
(8.22173e-06 0.00175634 0)
(0.000116098 0.00555481 0)
(0.00037269 0.00979099 0)
(0.000828186 0.0141909 0)
(0.00150329 0.0182588 0)
(0.00238786 0.0213797 0)
(0.00345195 0.0230493 0)
(0.00466674 0.0230903 0)
(0.00601517 0.0217103 0)
(0.00749049 0.0193821 0)
(0.00908912 0.0166271 0)
(0.0107971 0.0138355 0)
(0.0125697 0.0111983 0)
(0.014308 0.00873524 0)
(0.0158342 0.00637018 0)
(0.016869 0.00402529 0)
(0.0170278 0.0019629 0)
(0.0163596 0.000263465 0)
(0.0149834 -0.00132925 0)
(0.0132528 -0.00299345 0)
(0.0112917 -0.00497537 0)
(0.00921221 -0.00759692 0)
(0.00708868 -0.0112533 0)
(0.00490481 -0.0163935 0)
(0.00251265 -0.0234274 0)
(-0.000249771 -0.03289 0)
(-0.00286019 -0.0435347 0)
(-0.00456578 -0.052873 0)
(-0.00487605 -0.0576791 0)
(-0.00374147 -0.0540492 0)
(-0.00178679 -0.0390584 0)
(-0.00019632 -0.0145274 0)
(-2.25254e-06 0.00163539 0)
(1.18508e-05 0.00516372 0)
(0.000105487 0.00907646 0)
(0.000380762 0.0131221 0)
(0.000934814 0.016865 0)
(0.0018154 0.0197475 0)
(0.00302593 0.0212821 0)
(0.00455073 0.021278 0)
(0.00635344 0.019932 0)
(0.00837043 0.0176999 0)
(0.010523 0.0150807 0)
(0.0127324 0.0124511 0)
(0.0149165 0.0100066 0)
(0.0169666 0.00778253 0)
(0.0187136 0.00572054 0)
(0.0199036 0.00374793 0)
(0.0201843 0.00205907 0)
(0.01966 0.000721582 0)
(0.0184474 -0.000524426 0)
(0.0168547 -0.00187074 0)
(0.0149851 -0.00354291 0)
(0.0129248 -0.00585365 0)
(0.0107317 -0.00917118 0)
(0.00840968 -0.0138785 0)
(0.00590005 -0.0202969 0)
(0.00309052 -0.0286503 0)
(-7.51868e-05 -0.0391878 0)
(-0.00288859 -0.0501675 0)
(-0.00437008 -0.0579254 0)
(-0.00403952 -0.0577271 0)
(-0.00227755 -0.0445707 0)
(-0.000297888 -0.0176316 0)
(-2.28349e-05 0.00171092 0)
(-0.00018729 0.00525427 0)
(-0.000380961 0.00895628 0)
(-0.000407039 0.0125656 0)
(-4.46643e-05 0.0158042 0)
(0.000839724 0.0182531 0)
(0.00224765 0.0194564 0)
(0.00414659 0.0192632 0)
(0.00647093 0.0178876 0)
(0.00908294 0.0157671 0)
(0.0118216 0.0133471 0)
(0.0145492 0.0109574 0)
(0.0171564 0.00877155 0)
(0.0195358 0.00682539 0)
(0.0215417 0.00507196 0)
(0.0229659 0.00344111 0)
(0.0234982 0.00207251 0)
(0.0232461 0.00102516 0)
(0.0224018 7.34801e-05 0)
(0.021085 -0.000994958 0)
(0.0194702 -0.00237819 0)
(0.0175872 -0.00436433 0)
(0.0154454 -0.00728869 0)
(0.0130186 -0.0114921 0)
(0.0102606 -0.0172652 0)
(0.00713284 -0.0248185 0)
(0.00362254 -0.0342836 0)
(-0.000144225 -0.0456429 0)
(-0.00309019 -0.0559969 0)
(-0.00401006 -0.0596207 0)
(-0.00283398 -0.0495179 0)
(-0.00046774 -0.0212049 0)
(-7.14926e-05 0.00208965 0)
(-0.000574141 0.00600245 0)
(-0.0012108 0.00957128 0)
(-0.00162289 0.0125994 0)
(-0.00145874 0.0150408 0)
(-0.000543803 0.0167817 0)
(0.00118944 0.0175255 0)
(0.00357374 0.0170522 0)
(0.00649793 0.0156252 0)
(0.00974993 0.0136515 0)
(0.0130964 0.0114896 0)
(0.0163625 0.0093979 0)
(0.0194308 0.00751212 0)
(0.0222099 0.00586005 0)
(0.0245882 0.00440253 0)
(0.0264132 0.00307325 0)
(0.0273918 0.0019721 0)
(0.0275925 0.00115025 0)
(0.0272439 0.000427147 0)
(0.0263644 -0.000399803 0)
(0.025146 -0.00152069 0)
(0.0235647 -0.0031757 0)
(0.0215709 -0.00565409 0)
(0.0190905 -0.00925727 0)
(0.0160558 -0.014261 0)
(0.0124461 -0.0209026 0)
(0.0083139 -0.0293972 0)
(0.00380078 -0.0398693 0)
(-0.000669355 -0.0516814 0)
(-0.00336322 -0.0592555 0)
(-0.00334292 -0.0533766 0)
(-0.00073391 -0.0252532 0)
(-0.000188832 0.00298755 0)
(-0.0013017 0.0076185 0)
(-0.00252067 0.0109147 0)
(-0.00329922 0.0130607 0)
(-0.00321087 0.014448 0)
(-0.00211375 0.0152707 0)
(4.76131e-05 0.0154114 0)
(0.00311095 0.0146314 0)
(0.00672572 0.0131873 0)
(0.0106735 0.011412 0)
(0.0146764 0.00955398 0)
(0.0185521 0.007792 0)
(0.0221926 0.0062208 0)
(0.0255276 0.00485817 0)
(0.0284762 0.00367253 0)
(0.0309287 0.00260622 0)
(0.0325579 0.00173197 0)
(0.0333613 0.00109275 0)
(0.0335675 0.000550324 0)
(0.0332269 -7.61121e-05 0)
(0.0324627 -0.000957863 0)
(0.0312204 -0.00227876 0)
(0.0294037 -0.00427289 0)
(0.0268924 -0.00719575 0)
(0.0235829 -0.0113051 0)
(0.0194365 -0.0168667 0)
(0.0145151 -0.0241878 0)
(0.00899688 -0.0336241 0)
(0.00324184 -0.0451684 0)
(-0.0016327 -0.0561464 0)
(-0.00354072 -0.0555179 0)
(-0.00109065 -0.029647 0)
(-0.000442486 0.00474773 0)
(-0.0025219 0.0102504 0)
(-0.00429898 0.0127905 0)
(-0.00519496 0.0136259 0)
(-0.00486155 0.0137476 0)
(-0.00328756 0.0135704 0)
(-0.000447727 0.0130469 0)
(0.00349336 0.0119793 0)
(0.00791986 0.0106008 0)
(0.0126653 0.00907622 0)
(0.0174436 0.00754774 0)
(0.0220808 0.00612398 0)
(0.0264757 0.00486451 0)
(0.0305636 0.00377989 0)
(0.0342709 0.00284713 0)
(0.0375007 0.00202182 0)
(0.0398528 0.00135596 0)
(0.0412639 0.000879432 0)
(0.041983 0.000486799 0)
(0.0421389 2.99384e-05 0)
(0.0417538 -0.00062542 0)
(0.0407796 -0.00161358 0)
(0.0390945 -0.00310998 0)
(0.0365463 -0.005315 0)
(0.0329921 -0.00845174 0)
(0.0283462 -0.0127919 0)
(0.0226236 -0.0187109 0)
(0.0159742 -0.0267505 0)
(0.00876586 -0.0374659 0)
(0.00185794 -0.0498855 0)
(-0.00293635 -0.055238 0)
(-0.00144139 -0.0341361 0)
(-0.00089292 0.00784655 0)
(-0.00419031 0.0137134 0)
(-0.00602209 0.0145862 0)
(-0.00630201 0.0137153 0)
(-0.00503517 0.0125423 0)
(-0.00243842 0.0114329 0)
(0.00161512 0.0102871 0)
(0.00652374 0.00908968 0)
(0.0119153 0.00786873 0)
(0.0175861 0.00663517 0)
(0.0232678 0.00544979 0)
(0.0287822 0.0043677 0)
(0.0340118 0.00342174 0)
(0.0388722 0.00261741 0)
(0.0432756 0.0019386 0)
(0.0471221 0.00135448 0)
(0.0499679 0.000896467 0)
(0.051751 0.000576336 0)
(0.0527653 0.0003161 0)
(0.053191 1.06458e-05 0)
(0.0530115 -0.000429805 0)
(0.0521709 -0.00109852 0)
(0.0505437 -0.0021148 0)
(0.0479638 -0.0036188 0)
(0.0442585 -0.00578036 0)
(0.0392829 -0.00883875 0)
(0.0329545 -0.0131812 0)
(0.0253042 -0.0194589 0)
(0.0165944 -0.0286215 0)
(0.00756042 -0.041059 0)
(-0.000688339 -0.051617 0)
(-0.00149172 -0.0381557 0)
(-0.00162247 0.0130366 0)
(-0.00559401 0.017114 0)
(-0.00572877 0.0151212 0)
(-0.00370317 0.0124921 0)
(-0.000179361 0.0102659 0)
(0.0044434 0.00850788 0)
(0.00985396 0.00713768 0)
(0.0158533 0.00600753 0)
(0.0221992 0.00502258 0)
(0.0286806 0.00411911 0)
(0.0350544 0.00329905 0)
(0.0411314 0.00257718 0)
(0.0467748 0.00196418 0)
(0.0518874 0.00145854 0)
(0.0563874 0.00104659 0)
(0.0601994 0.000707423 0)
(0.0629462 0.000452436 0)
(0.0646391 0.000278309 0)
(0.0655947 0.000135278 0)
(0.0659976 -3.52483e-05 0)
(0.0658089 -0.000284455 0)
(0.064982 -0.000668683 0)
(0.0633901 -0.00125751 0)
(0.060866 -0.00213343 0)
(0.0572263 -0.00340373 0)
(0.0522818 -0.00524065 0)
(0.0458379 -0.00796825 0)
(0.0377118 -0.0122191 0)
(0.0278459 -0.0191305 0)
(0.0165481 -0.0301087 0)
(0.00441762 -0.0435056 0)
(-0.000168057 -0.0396365 0)
(-0.00121595 0.0183229 0)
(-0.00299453 0.0181698 0)
(0.00328359 0.0125571 0)
(0.0102526 0.00917069 0)
(0.017069 0.0068202 0)
(0.0237539 0.00509939 0)
(0.0303875 0.00387543 0)
(0.0369725 0.00299718 0)
(0.0434393 0.00233655 0)
(0.0496795 0.00180683 0)
(0.0555396 0.00137277 0)
(0.0608868 0.00101974 0)
(0.0656322 0.000739519 0)
(0.0697315 0.000522643 0)
(0.0731666 0.000356402 0)
(0.0759314 0.000227817 0)
(0.0778254 0.000136125 0)
(0.078933 7.42317e-05 0)
(0.0795062 1.99809e-05 0)
(0.0796611 -4.69618e-05 0)
(0.0793722 -0.000149815 0)
(0.0785797 -0.000313819 0)
(0.0771626 -0.000569021 0)
(0.0749715 -0.000951076 0)
(0.0718409 -0.00150953 0)
(0.0675793 -0.00233552 0)
(0.061926 -0.0036296 0)
(0.0544818 -0.00584719 0)
(0.0446439 -0.00995658 0)
(0.0316591 -0.0176518 0)
(0.0155245 -0.0297982 0)
(0.00632075 -0.0334705 0)
(0.0208081 0.0113771 0)
(0.0272125 0.00929973 0)
(0.0402583 0.0054218 0)
(0.0508236 0.0032796 0)
(0.0587055 0.00203872 0)
(0.064927 0.0012555 0)
(0.0700502 0.000772915 0)
(0.0743854 0.000484123 0)
(0.0781276 0.00031038 0)
(0.0813812 0.000201036 0)
(0.084182 0.000129806 0)
(0.0865467 8.26386e-05 0)
(0.0884997 5.15651e-05 0)
(0.0900766 3.13411e-05 0)
(0.0913145 1.79071e-05 0)
(0.0922445 8.68899e-06 0)
(0.0928321 2.7962e-06 0)
(0.0931363 -1.46013e-06 0)
(0.0932468 -6.75394e-06 0)
(0.0931864 -1.41832e-05 0)
(0.092937 -2.77696e-05 0)
(0.0924452 -5.13318e-05 0)
(0.0916323 -8.92028e-05 0)
(0.090409 -0.000146523 0)
(0.0886785 -0.000230948 0)
(0.0863168 -0.000359049 0)
(0.083111 -0.000573845 0)
(0.0786219 -0.000987323 0)
(0.0718928 -0.00187895 0)
(0.0609166 -0.00399448 0)
(0.0433054 -0.00920163 0)
(0.0286008 -0.0145385 0)
)
;

boundaryField
{
    movingWall
    {
        type            fixedValue;
        value           uniform (0.1 0 0);
    }
    fixedWalls
    {
        type            noSlip;
    }
    floor
    {
        type            noSlip;
    }
    frontAndBack
    {
        type            empty;
    }
}


// ************************************************************************* //
