/*--------------------------------*- C++ -*----------------------------------*\
| =========                 |                                                 |
| \\      /  F ield         | OpenFOAM: The Open Source CFD Toolbox           |
|  \\    /   O peration     | Version:  2212                                  |
|   \\  /    A nd           | Website:  www.openfoam.com                      |
|    \\/     M anipulation  |                                                 |
\*---------------------------------------------------------------------------*/
FoamFile
{
    version     2.0;
    format      ascii;
    arch        "LSB;label=64;scalar=64";
    class       volScalarField;
    location    "1730";
    object      Xpr;
}
// * * * * * * * * * * * * * * * * * * * * * * * * * * * * * * * * * * * * * //

dimensions      [1 -3 0 0 0 0 0];

internalField   nonuniform List<scalar> 
1024
(
0.0819867
0.0819885
0.081993
0.0820011
0.0820142
0.0820337
0.0820611
0.0820975
0.0821434
0.0821981
0.0822597
0.0823252
0.0823905
0.0824517
0.082505
0.082547
0.0825709
0.0825729
0.0825566
0.0825263
0.0824857
0.0824381
0.0823873
0.0823374
0.0822923
0.0822546
0.0822252
0.0822038
0.0821893
0.0821803
0.0821753
0.0821733
0.0819873
0.0819892
0.0819936
0.0820018
0.082015
0.0820347
0.0820624
0.0820991
0.0821453
0.0822003
0.0822622
0.0823277
0.0823931
0.0824542
0.0825076
0.0825496
0.0825734
0.0825755
0.0825593
0.0825289
0.0824883
0.0824407
0.0823897
0.0823396
0.0822941
0.082256
0.0822263
0.0822047
0.08219
0.0821808
0.0821758
0.0821738
0.0819888
0.0819906
0.0819952
0.0820035
0.082017
0.0820372
0.0820654
0.0821028
0.0821498
0.0822054
0.0822677
0.0823336
0.082399
0.0824601
0.0825135
0.0825556
0.0825797
0.082582
0.0825658
0.0825351
0.082494
0.082446
0.0823946
0.0823439
0.0822978
0.082259
0.0822287
0.0822065
0.0821915
0.0821821
0.082177
0.082175
0.0819914
0.0819933
0.081998
0.0820066
0.0820206
0.0820414
0.0820706
0.0821091
0.0821572
0.082214
0.0822771
0.0823435
0.0824091
0.0824703
0.0825238
0.0825663
0.0825911
0.082594
0.0825774
0.0825457
0.0825034
0.0824542
0.0824018
0.0823502
0.0823032
0.0822634
0.0822322
0.0822094
0.082194
0.0821844
0.0821792
0.0821771
0.0819954
0.0819974
0.0820023
0.0820113
0.082026
0.0820478
0.0820783
0.0821185
0.0821683
0.0822266
0.082291
0.0823582
0.0824243
0.0824858
0.0825398
0.0825833
0.0826095
0.0826131
0.0825959
0.0825621
0.082517
0.0824654
0.0824111
0.0823581
0.0823098
0.082269
0.0822369
0.0822135
0.0821976
0.0821878
0.0821825
0.0821804
0.0820014
0.0820034
0.0820086
0.0820181
0.0820336
0.0820567
0.082089
0.0821313
0.0821834
0.0822439
0.0823101
0.0823785
0.0824455
0.0825078
0.0825629
0.0826083
0.0826367
0.0826416
0.0826231
0.0825857
0.082536
0.08248
0.0824225
0.0823671
0.0823173
0.0822754
0.0822426
0.0822187
0.0822026
0.0821927
0.0821875
0.0821854
0.0820095
0.0820117
0.0820171
0.0820272
0.0820437
0.0820685
0.0821029
0.0821479
0.082203
0.0822663
0.082335
0.0824053
0.0824737
0.0825375
0.0825948
0.0826431
0.0826748
0.0826813
0.0826611
0.0826186
0.0825619
0.0824991
0.0824363
0.0823775
0.0823257
0.0822826
0.0822494
0.0822254
0.0822095
0.0821999
0.0821948
0.0821928
0.0820202
0.0820225
0.0820282
0.082039
0.0820567
0.0820833
0.0821203
0.0821685
0.0822272
0.0822942
0.0823661
0.0824391
0.0825099
0.0825762
0.0826366
0.0826892
0.0827254
0.0827341
0.0827118
0.0826633
0.0825977
0.0825256
0.0824551
0.0823911
0.0823363
0.0822921
0.0822587
0.0822352
0.0822199
0.0822109
0.0822063
0.0822046
0.0820337
0.0820361
0.0820421
0.0820536
0.0820726
0.0821013
0.0821413
0.0821933
0.0822563
0.0823278
0.0824039
0.0824805
0.0825546
0.0826245
0.0826893
0.0827472
0.0827889
0.0828008
0.0827778
0.0827239
0.082649
0.0825656
0.0824846
0.0824131
0.0823541
0.0823082
0.0822746
0.0822519
0.0822377
0.0822298
0.0822261
0.0822248
0.0820502
0.0820527
0.0820591
0.0820713
0.0820917
0.0821226
0.0821659
0.0822221
0.0822902
0.082367
0.0824482
0.0825295
0.0826079
0.0826821
0.0827519
0.0828158
0.0828641
0.0828815
0.0828614
0.0828064
0.0827254
0.0826315
0.0825385
0.0824566
0.0823907
0.0823413
0.0823069
0.0822847
0.0822718
0.0822653
0.0822626
0.0822619
0.0820699
0.0820725
0.0820791
0.0820921
0.0821139
0.0821471
0.0821939
0.0822547
0.0823283
0.0824111
0.0824981
0.0825847
0.0826678
0.0827465
0.0828211
0.0828909
0.0829467
0.0829736
0.0829636
0.0829168
0.0828389
0.0827415
0.0826394
0.082546
0.0824698
0.0824135
0.0823754
0.0823521
0.0823394
0.0823338
0.082332
0.0823318
0.0820927
0.0820953
0.0821022
0.0821159
0.082139
0.0821745
0.0822247
0.0822902
0.0823694
0.0824583
0.0825513
0.0826429
0.0827301
0.082812
0.0828896
0.0829634
0.0830272
0.0830685
0.0830787
0.0830542
0.0829959
0.082911
0.0828123
0.0827138
0.0826274
0.0825601
0.0825133
0.0824844
0.0824687
0.0824618
0.0824596
0.0824595
0.0821183
0.0821209
0.0821281
0.0821422
0.0821664
0.0822038
0.0822569
0.0823265
0.0824107
0.0825049
0.0826026
0.0826979
0.0827867
0.0828686
0.0829449
0.0830185
0.0830878
0.0831462
0.0831849
0.0831968
0.0831774
0.0831279
0.0830553
0.0829706
0.0828858
0.0828113
0.0827534
0.0827138
0.0826898
0.0826775
0.0826724
0.0826711
0.0821457
0.0821484
0.0821556
0.0821699
0.0821947
0.0822331
0.0822879
0.0823599
0.0824471
0.0825444
0.0826444
0.0827401
0.0828265
0.0829027
0.0829706
0.0830356
0.0831028
0.0831738
0.0832411
0.0832946
0.0833253
0.0833287
0.0833052
0.0832599
0.0832009
0.0831379
0.08308
0.0830337
0.0830013
0.0829816
0.0829718
0.0829683
0.0821731
0.0821758
0.0821829
0.082197
0.0822213
0.0822592
0.0823135
0.0823851
0.082472
0.0825687
0.0826671
0.0827588
0.0828376
0.0829013
0.0829519
0.0829969
0.0830494
0.083121
0.083207
0.0832946
0.0833713
0.083428
0.0834605
0.0834688
0.083456
0.083428
0.0833926
0.0833572
0.0833277
0.0833071
0.0832952
0.0832903
0.0821976
0.0822001
0.0822069
0.0822201
0.0822427
0.0822781
0.0823288
0.0823961
0.0824781
0.0825695
0.0826618
0.0827454
0.0828125
0.0828588
0.0828856
0.0829017
0.0829269
0.0829852
0.0830765
0.0831865
0.0832985
0.0833989
0.0834793
0.0835363
0.0835701
0.0835838
0.0835823
0.0835718
0.0835581
0.0835458
0.0835375
0.0835337
0.0822138
0.0822162
0.0822224
0.0822343
0.0822544
0.0822854
0.0823301
0.0823896
0.0824627
0.0825448
0.0826278
0.0827018
0.0827574
0.0827885
0.0827945
0.0827832
0.0827779
0.0828128
0.082896
0.0830161
0.0831544
0.0832919
0.0834136
0.0835114
0.0835827
0.083629
0.0836546
0.0836651
0.0836664
0.0836635
0.08366
0.083658
0.0822192
0.0822215
0.0822272
0.0822378
0.0822553
0.0822821
0.0823203
0.0823713
0.0824344
0.0825059
0.082579
0.0826443
0.0826923
0.0827154
0.0827115
0.0826861
0.0826622
0.0826762
0.0827429
0.082858
0.0830076
0.0831712
0.0833285
0.0834641
0.08357
0.083645
0.0836924
0.0837182
0.0837293
0.083732
0.0837312
0.0837301
0.0822161
0.0822183
0.0822237
0.0822333
0.0822488
0.0822719
0.0823045
0.0823478
0.0824016
0.0824632
0.0825268
0.0825846
0.0826274
0.082648
0.0826428
0.082616
0.0825885
0.0825942
0.0826487
0.0827531
0.0828997
0.0830723
0.0832501
0.0834138
0.0835495
0.0836513
0.08372
0.0837608
0.083781
0.0837885
0.0837896
0.0837889
0.0822076
0.0822097
0.0822147
0.0822235
0.0822374
0.0822576
0.0822855
0.0823224
0.082368
0.0824203
0.0824751
0.0825256
0.0825644
0.0825849
0.0825837
0.0825641
0.0825448
0.0825542
0.0826054
0.0827019
0.0828402
0.0830097
0.0831937
0.0833725
0.0835291
0.0836529
0.083741
0.0837965
0.0838263
0.0838389
0.0838421
0.0838418
0.0821975
0.0821994
0.0822038
0.0822116
0.0822237
0.0822413
0.0822655
0.0822968
0.0823354
0.0823795
0.0824259
0.0824698
0.0825053
0.0825274
0.082534
0.0825285
0.0825262
0.0825479
0.0826031
0.0826959
0.0828257
0.0829861
0.0831653
0.0833472
0.0835145
0.0836537
0.0837578
0.0838269
0.0838663
0.0838844
0.0838899
0.0838901
0.0821919
0.0821931
0.0821963
0.0822022
0.0822119
0.0822264
0.0822466
0.0822731
0.0823054
0.0823426
0.0823822
0.0824209
0.0824552
0.0824821
0.0825007
0.0825149
0.0825354
0.0825743
0.082637
0.082728
0.0828491
0.0829977
0.0831658
0.083341
0.0835092
0.0836561
0.0837718
0.0838527
0.0839015
0.0839253
0.0839334
0.0839343
0.0821995
0.0821995
0.0822003
0.0822027
0.0822082
0.0822182
0.0822337
0.0822551
0.0822822
0.0823143
0.08235
0.0823875
0.0824252
0.0824615
0.0824967
0.0825342
0.0825793
0.0826356
0.0827057
0.0827946
0.0829058
0.0830399
0.0831926
0.0833551
0.0835161
0.0836631
0.083785
0.083875
0.0839322
0.083962
0.0839729
0.0839745
0.0822301
0.0822283
0.0822253
0.0822225
0.0822219
0.0822256
0.0822353
0.0822519
0.0822756
0.082306
0.0823426
0.0823846
0.0824312
0.0824816
0.082536
0.0825964
0.0826633
0.0827334
0.082808
0.0828926
0.0829922
0.0831095
0.0832436
0.0833889
0.0835369
0.0836773
0.0837996
0.083895
0.0839592
0.0839946
0.0840087
0.0840112
0.0822927
0.0822884
0.0822807
0.0822717
0.0822643
0.0822615
0.082266
0.0822797
0.0823033
0.0823367
0.0823796
0.0824312
0.0824906
0.0825564
0.0826281
0.0827066
0.0827883
0.0828659
0.0829405
0.0830182
0.0831047
0.0832039
0.0833172
0.083442
0.0835726
0.0837011
0.0838182
0.0839145
0.0839833
0.0840237
0.0840409
0.0840444
0.0823931
0.0823859
0.0823737
0.0823598
0.082348
0.082342
0.0823451
0.08236
0.0823877
0.0824281
0.0824803
0.0825428
0.0826138
0.0826915
0.0827742
0.0828621
0.0829495
0.0830276
0.0830975
0.0831659
0.0832384
0.0833194
0.0834114
0.0835139
0.083624
0.0837363
0.0838431
0.0839356
0.0840057
0.0840496
0.0840698
0.0840745
0.0825345
0.0825245
0.0825098
0.0824955
0.0824856
0.082483
0.0824908
0.0825115
0.0825461
0.082594
0.0826536
0.082723
0.0827997
0.0828813
0.0829661
0.0830536
0.0831377
0.0832099
0.0832716
0.083329
0.0833875
0.0834511
0.0835226
0.0836029
0.0836911
0.0837839
0.0838762
0.0839603
0.0840279
0.0840731
0.0840956
0.0841014
0.082718
0.0827064
0.0826939
0.0826866
0.0826868
0.0826948
0.0827121
0.0827405
0.0827806
0.0828319
0.0828928
0.0829614
0.0830351
0.0831117
0.0831895
0.083268
0.0833417
0.0834033
0.0834542
0.0835
0.0835451
0.0835928
0.0836459
0.0837056
0.0837721
0.0838442
0.0839187
0.0839902
0.0840512
0.0840949
0.0841184
0.0841253
0.0829457
0.0829353
0.082932
0.0829393
0.0829547
0.0829757
0.0830021
0.0830352
0.0830755
0.0831234
0.0831778
0.0832373
0.0833
0.083364
0.0834279
0.0834915
0.0835501
0.0835983
0.0836373
0.0836715
0.0837042
0.0837381
0.0837753
0.0838169
0.0838638
0.0839155
0.0839709
0.0840267
0.0840772
0.084116
0.0841387
0.0841463
0.0832233
0.0832193
0.0832316
0.0832545
0.0832816
0.0833099
0.0833389
0.0833698
0.0834037
0.0834415
0.0834831
0.0835276
0.0835737
0.0836204
0.0836665
0.0837119
0.0837533
0.083787
0.083814
0.0838372
0.0838589
0.0838809
0.0839048
0.0839314
0.0839613
0.0839948
0.0840315
0.08407
0.0841071
0.0841376
0.0841571
0.0841644
0.0835621
0.0835703
0.0835941
0.0836206
0.0836464
0.0836704
0.0836927
0.0837142
0.0837362
0.0837597
0.0837849
0.0838115
0.0838389
0.0838665
0.0838935
0.08392
0.083944
0.0839635
0.0839789
0.0839921
0.0840042
0.0840163
0.0840293
0.0840436
0.0840597
0.0840778
0.0840979
0.0841196
0.0841414
0.0841607
0.0841742
0.0841799
0.0839761
0.0839825
0.0839947
0.0840064
0.084017
0.0840264
0.0840347
0.0840423
0.0840499
0.0840577
0.084066
0.0840747
0.0840836
0.0840925
0.0841013
0.0841099
0.0841176
0.0841239
0.0841288
0.084133
0.0841368
0.0841406
0.0841447
0.0841491
0.0841541
0.0841597
0.0841659
0.0841726
0.0841796
0.084186
0.0841909
0.0841932
)
;

boundaryField
{
    movingWall
    {
        type            fixedValue;
        value           uniform 0.0842;
    }
    fixedWalls
    {
        type            zeroGradient;
    }
    floor
    {
        type            zeroGradient;
    }
    frontAndBack
    {
        type            empty;
    }
}


// ************************************************************************* //
