/*--------------------------------*- C++ -*----------------------------------*\
| =========                 |                                                 |
| \\      /  F ield         | OpenFOAM: The Open Source CFD Toolbox           |
|  \\    /   O peration     | Version:  2212                                  |
|   \\  /    A nd           | Website:  www.openfoam.com                      |
|    \\/     M anipulation  |                                                 |
\*---------------------------------------------------------------------------*/
FoamFile
{
    version     2.0;
    format      ascii;
    arch        "LSB;label=64;scalar=64";
    class       volScalarField;
    location    "380";
    object      SIC;
}
// * * * * * * * * * * * * * * * * * * * * * * * * * * * * * * * * * * * * * //

dimensions      [1 -3 0 0 0 0 0];

internalField   nonuniform List<scalar> 
1024
(
0.0917769
0.0917763
0.091777
0.0917789
0.0917821
0.0917865
0.091792
0.091798
0.091804
0.0918097
0.0918148
0.0918189
0.0918216
0.0918218
0.0918179
0.0918072
0.0917882
0.091766
0.0917452
0.091727
0.0917114
0.0916985
0.091688
0.0916793
0.091672
0.091666
0.091661
0.0916572
0.0916544
0.0916525
0.0916515
0.0916511
0.091776
0.0917761
0.0917771
0.0917792
0.0917825
0.091787
0.0917926
0.0917987
0.0918047
0.0918104
0.0918155
0.0918196
0.0918224
0.0918227
0.0918189
0.0918081
0.0917891
0.0917667
0.0917459
0.0917275
0.0917119
0.091699
0.0916884
0.0916797
0.0916724
0.0916663
0.0916613
0.0916574
0.0916545
0.0916526
0.0916515
0.0916511
0.0917757
0.0917762
0.0917774
0.0917797
0.0917833
0.0917881
0.0917938
0.0918
0.0918061
0.0918118
0.091817
0.0918213
0.0918242
0.0918249
0.0918214
0.0918108
0.0917914
0.0917685
0.0917473
0.0917287
0.0917129
0.0916998
0.091689
0.0916803
0.0916729
0.0916668
0.0916617
0.0916577
0.0916547
0.0916527
0.0916516
0.0916511
0.0917759
0.0917765
0.0917779
0.0917806
0.0917845
0.0917896
0.0917956
0.0918019
0.0918082
0.091814
0.0918193
0.091824
0.0918275
0.091829
0.0918262
0.0918159
0.0917958
0.0917719
0.0917498
0.0917306
0.0917143
0.0917008
0.0916898
0.0916808
0.0916734
0.0916672
0.0916621
0.091658
0.0916549
0.0916528
0.0916516
0.0916511
0.0917764
0.0917771
0.0917787
0.0917817
0.091786
0.0917915
0.0917977
0.0918042
0.0918106
0.0918167
0.0918225
0.0918279
0.0918326
0.0918355
0.0918343
0.0918244
0.0918032
0.0917772
0.0917537
0.0917333
0.0917161
0.0917019
0.0916904
0.0916811
0.0916736
0.0916674
0.0916622
0.0916581
0.091655
0.0916528
0.0916516
0.0916511
0.0917771
0.0917779
0.0917797
0.0917828
0.0917875
0.0917933
0.0917999
0.0918066
0.0918133
0.0918198
0.0918264
0.0918331
0.0918396
0.0918449
0.091846
0.0918372
0.0918143
0.0917853
0.0917592
0.0917369
0.0917182
0.0917028
0.0916905
0.0916807
0.091673
0.0916668
0.0916618
0.0916578
0.0916548
0.0916527
0.0916514
0.0916509
0.0917779
0.0917787
0.0917806
0.0917839
0.0917888
0.0917949
0.0918016
0.0918087
0.0918157
0.0918229
0.0918306
0.091839
0.0918481
0.0918567
0.0918614
0.0918544
0.0918297
0.0917968
0.091767
0.0917416
0.0917206
0.0917034
0.0916898
0.0916794
0.0916715
0.0916654
0.0916607
0.091657
0.0916541
0.0916522
0.091651
0.0916505
0.0917786
0.0917794
0.0917813
0.0917847
0.0917896
0.0917958
0.0918027
0.09181
0.0918175
0.0918254
0.0918343
0.0918448
0.0918569
0.0918699
0.0918795
0.0918757
0.0918493
0.0918119
0.0917772
0.0917477
0.0917233
0.0917036
0.0916883
0.091677
0.0916688
0.091663
0.0916587
0.0916555
0.091653
0.0916513
0.0916502
0.0916497
0.091779
0.0917798
0.0917817
0.091785
0.0917898
0.0917959
0.0918028
0.0918101
0.0918178
0.0918263
0.0918363
0.0918486
0.091864
0.0918821
0.0918985
0.0918996
0.0918725
0.0918305
0.0917901
0.0917553
0.0917265
0.0917035
0.091686
0.0916736
0.0916651
0.0916596
0.0916559
0.0916533
0.0916513
0.0916499
0.0916489
0.0916485
0.0917791
0.0917798
0.0917816
0.0917847
0.0917891
0.0917948
0.0918013
0.0918083
0.0918158
0.0918243
0.0918347
0.0918484
0.0918669
0.0918911
0.091916
0.0919241
0.0918977
0.0918514
0.091805
0.0917641
0.0917301
0.0917032
0.0916831
0.0916693
0.0916605
0.0916554
0.0916523
0.0916503
0.0916489
0.0916478
0.091647
0.0916466
0.0917785
0.0917792
0.0917808
0.0917836
0.0917875
0.0917924
0.0917981
0.0918042
0.0918107
0.0918184
0.0918283
0.0918425
0.0918639
0.0918951
0.091931
0.091948
0.0919231
0.0918729
0.0918203
0.091773
0.0917335
0.0917024
0.0916795
0.0916643
0.0916552
0.0916504
0.091648
0.0916467
0.0916458
0.0916451
0.0916444
0.091644
0.0917771
0.0917778
0.0917792
0.0917815
0.0917846
0.0917885
0.0917929
0.0917974
0.0918023
0.0918081
0.0918166
0.0918307
0.0918552
0.0918957
0.0919451
0.0919716
0.091947
0.0918921
0.0918332
0.0917797
0.091735
0.0916999
0.0916746
0.0916582
0.091649
0.0916446
0.091643
0.0916424
0.091642
0.0916415
0.0916409
0.0916405
0.0917743
0.0917749
0.0917762
0.091778
0.0917803
0.091783
0.0917857
0.0917883
0.091791
0.0917945
0.0918011
0.0918152
0.0918449
0.0918984
0.0919637
0.0919972
0.0919683
0.0919054
0.0918393
0.0917802
0.0917314
0.0916936
0.0916669
0.0916502
0.0916414
0.0916379
0.0916371
0.0916372
0.0916372
0.0916369
0.0916364
0.0916361
0.0917698
0.0917704
0.0917716
0.0917731
0.0917747
0.0917762
0.0917774
0.0917781
0.0917785
0.0917798
0.0917854
0.0918021
0.0918424
0.0919144
0.0919954
0.0920279
0.0919847
0.0919075
0.0918322
0.0917684
0.0917177
0.0916797
0.0916538
0.0916385
0.0916314
0.0916294
0.0916297
0.0916306
0.091631
0.0916309
0.0916305
0.0916301
0.0917617
0.0917622
0.0917634
0.091765
0.0917668
0.0917682
0.0917688
0.0917682
0.0917669
0.0917675
0.0917758
0.0918033
0.0918646
0.0919606
0.0920497
0.0920634
0.0919895
0.0918895
0.0918031
0.0917364
0.0916875
0.0916534
0.0916321
0.0916213
0.0916179
0.0916188
0.0916212
0.0916231
0.0916241
0.0916241
0.0916236
0.0916232
0.0917615
0.0917598
0.0917566
0.0917527
0.0917491
0.0917466
0.0917455
0.0917464
0.0917511
0.091764
0.0917935
0.0918523
0.0919484
0.0920627
0.0921312
0.092092
0.0919676
0.0918396
0.0917442
0.0916797
0.0916382
0.0916136
0.0916013
0.0915977
0.0915995
0.0916038
0.0916081
0.0916112
0.0916127
0.0916129
0.0916125
0.0916121
0.091896
0.091892
0.0918835
0.0918712
0.0918574
0.091845
0.0918378
0.0918396
0.0918546
0.0918884
0.0919474
0.0920357
0.0921415
0.0922202
0.0922078
0.0920841
0.0919116
0.0917707
0.0916789
0.0916241
0.0915949
0.091583
0.0915823
0.0915875
0.0915942
0.0915992
0.0916015
0.0916017
0.091601
0.0916008
0.0916011
0.0916016
0.0921603
0.0921579
0.0921521
0.0921425
0.09213
0.0921177
0.09211
0.0921124
0.0921302
0.0921672
0.0922238
0.0922904
0.0923382
0.0923244
0.0922272
0.0920707
0.091912
0.0917941
0.0917193
0.0916712
0.0916372
0.0916107
0.0915898
0.091575
0.0915672
0.0915675
0.0915766
0.0915937
0.0916162
0.0916395
0.0916579
0.0916676
0.0923729
0.0923728
0.092372
0.0923698
0.0923659
0.0923614
0.0923589
0.0923623
0.0923752
0.0923984
0.0924274
0.0924495
0.0924443
0.0923982
0.092316
0.0922144
0.0921208
0.0920623
0.0920407
0.0920391
0.0920457
0.0920543
0.0920632
0.0920732
0.0920862
0.0921051
0.0921312
0.0921639
0.0921992
0.0922317
0.0922554
0.0922671
0.0924986
0.0924992
0.0925001
0.0925011
0.0925021
0.0925036
0.0925071
0.0925144
0.0925273
0.0925452
0.0925643
0.0925773
0.0925774
0.0925632
0.0925412
0.0925252
0.0925382
0.0926003
0.0927066
0.0928379
0.0929767
0.0931083
0.0932232
0.0933156
0.0933847
0.0934295
0.0934503
0.0934496
0.0934329
0.0934094
0.0933893
0.0933792
0.0925752
0.0925757
0.0925771
0.0925796
0.0925839
0.092591
0.092602
0.0926181
0.0926397
0.0926662
0.0926954
0.0927242
0.0927506
0.0927761
0.0928082
0.0928642
0.0929704
0.0931394
0.0933533
0.0935857
0.0938116
0.094012
0.0941766
0.0943037
0.0943939
0.0944467
0.0944631
0.094447
0.0944063
0.094355
0.0943106
0.0942866
0.0926322
0.0926325
0.0926339
0.0926374
0.0926445
0.0926566
0.0926753
0.0927013
0.0927348
0.0927749
0.0928203
0.0928691
0.09292
0.0929738
0.0930369
0.0931277
0.093274
0.0934837
0.0937284
0.0939739
0.0941927
0.0943707
0.0945065
0.0946089
0.0946843
0.0947369
0.0947683
0.094779
0.0947707
0.0947488
0.0947235
0.094707
0.0926873
0.0926871
0.0926877
0.0926913
0.0926998
0.0927156
0.0927405
0.0927756
0.0928207
0.0928748
0.0929363
0.0930032
0.0930734
0.0931456
0.0932231
0.0933204
0.0934633
0.0936611
0.0938856
0.0941016
0.0942837
0.0944249
0.0945322
0.0946175
0.0946889
0.0947495
0.0947983
0.0948326
0.0948513
0.0948556
0.0948507
0.0948445
0.0927529
0.0927513
0.0927502
0.0927524
0.0927611
0.0927794
0.0928097
0.092853
0.0929088
0.0929757
0.0930516
0.0931339
0.0932194
0.0933051
0.0933902
0.0934832
0.0936038
0.093765
0.0939486
0.094126
0.094276
0.0943949
0.0944911
0.0945749
0.094653
0.0947264
0.0947914
0.0948426
0.0948767
0.094894
0.0948985
0.0948971
0.0928403
0.0928366
0.0928325
0.0928323
0.0928408
0.0928617
0.0928976
0.0929493
0.0930155
0.093094
0.0931818
0.0932761
0.0933731
0.0934684
0.0935585
0.0936463
0.0937435
0.0938649
0.0940046
0.0941447
0.094269
0.0943738
0.0944642
0.0945478
0.0946294
0.09471
0.0947854
0.0948489
0.0948946
0.0949209
0.0949311
0.0949319
0.0929605
0.0929538
0.0929459
0.0929436
0.092953
0.0929785
0.0930221
0.0930831
0.0931593
0.0932472
0.0933435
0.0934451
0.0935479
0.0936477
0.0937398
0.0938231
0.0939024
0.093991
0.0940927
0.0941997
0.094301
0.094392
0.0944747
0.0945536
0.0946323
0.0947118
0.0947891
0.094858
0.0949113
0.0949447
0.0949595
0.0949621
0.0931225
0.0931124
0.0931016
0.0930999
0.093114
0.0931477
0.0932009
0.0932714
0.0933553
0.0934485
0.0935476
0.0936498
0.0937516
0.0938493
0.0939384
0.094016
0.0940821
0.094147
0.0942192
0.0942981
0.0943774
0.0944526
0.0945238
0.0945932
0.0946631
0.0947348
0.0948067
0.0948739
0.0949293
0.0949669
0.0949854
0.0949896
0.0933337
0.0933207
0.0933109
0.0933155
0.0933396
0.0933842
0.0934467
0.0935232
0.0936092
0.0937008
0.0937952
0.0938902
0.0939833
0.0940718
0.0941521
0.0942209
0.0942757
0.0943236
0.094374
0.0944301
0.0944891
0.0945475
0.0946045
0.0946609
0.0947182
0.0947775
0.0948385
0.0948981
0.0949503
0.0949884
0.0950091
0.0950148
0.0936
0.0935873
0.0935859
0.0936036
0.0936406
0.0936942
0.0937603
0.0938349
0.0939143
0.0939957
0.0940772
0.0941575
0.0942351
0.0943082
0.0943742
0.0944306
0.0944739
0.0945086
0.0945429
0.094581
0.0946224
0.0946646
0.0947066
0.0947486
0.0947916
0.0948363
0.0948832
0.0949309
0.0949752
0.09501
0.0950308
0.0950375
0.0939293
0.0939235
0.0939384
0.0939706
0.094015
0.0940682
0.0941273
0.0941895
0.094253
0.094316
0.0943777
0.0944374
0.0944945
0.0945479
0.094596
0.0946371
0.0946681
0.0946916
0.0947135
0.0947376
0.0947642
0.0947919
0.0948198
0.0948479
0.0948766
0.0949066
0.0949385
0.0949719
0.0950048
0.0950326
0.0950508
0.0950576
0.0943342
0.0943431
0.094371
0.0944046
0.0944415
0.0944806
0.094521
0.0945616
0.0946017
0.0946408
0.0946784
0.0947143
0.0947484
0.0947801
0.0948087
0.0948331
0.0948514
0.0948648
0.0948768
0.0948899
0.0949044
0.0949196
0.0949351
0.0949507
0.0949666
0.0949832
0.0950009
0.0950199
0.0950394
0.0950571
0.0950699
0.0950755
0.0948308
0.0948381
0.0948525
0.0948668
0.0948811
0.0948955
0.0949097
0.0949237
0.0949373
0.0949504
0.0949628
0.0949747
0.0949858
0.0949962
0.0950055
0.0950135
0.0950194
0.0950237
0.0950275
0.0950316
0.0950361
0.0950409
0.0950458
0.0950507
0.0950557
0.0950608
0.0950664
0.0950723
0.0950785
0.0950845
0.0950891
0.0950914
)
;

boundaryField
{
    movingWall
    {
        type            fixedValue;
        value           uniform 0.0951;
    }
    fixedWalls
    {
        type            zeroGradient;
    }
    floor
    {
        type            zeroGradient;
    }
    frontAndBack
    {
        type            empty;
    }
}


// ************************************************************************* //
