/*--------------------------------*- C++ -*----------------------------------*\
| =========                 |                                                 |
| \\      /  F ield         | OpenFOAM: The Open Source CFD Toolbox           |
|  \\    /   O peration     | Version:  2212                                  |
|   \\  /    A nd           | Website:  www.openfoam.com                      |
|    \\/     M anipulation  |                                                 |
\*---------------------------------------------------------------------------*/
FoamFile
{
    version     2.0;
    format      ascii;
    arch        "LSB;label=64;scalar=64";
    class       volScalarField;
    location    "380";
    object      Xch;
}
// * * * * * * * * * * * * * * * * * * * * * * * * * * * * * * * * * * * * * //

dimensions      [1 -3 0 0 0 0 0];

internalField   nonuniform List<scalar> 
1024
(
0.0200456
0.0200454
0.0200454
0.0200457
0.0200461
0.0200468
0.0200475
0.0200484
0.0200492
0.02005
0.0200507
0.0200513
0.0200516
0.0200515
0.0200508
0.0200491
0.0200461
0.0200426
0.0200394
0.0200366
0.0200342
0.0200322
0.0200306
0.0200293
0.0200282
0.0200273
0.0200265
0.020026
0.0200256
0.0200253
0.0200251
0.0200251
0.0200453
0.0200453
0.0200454
0.0200457
0.0200462
0.0200468
0.0200476
0.0200485
0.0200493
0.0200501
0.0200508
0.0200514
0.0200517
0.0200516
0.0200509
0.0200492
0.0200462
0.0200427
0.0200395
0.0200367
0.0200342
0.0200323
0.0200306
0.0200293
0.0200282
0.0200273
0.0200266
0.020026
0.0200256
0.0200253
0.0200251
0.0200251
0.0200453
0.0200453
0.0200455
0.0200458
0.0200463
0.020047
0.0200478
0.0200487
0.0200495
0.0200503
0.020051
0.0200516
0.020052
0.020052
0.0200513
0.0200496
0.0200465
0.020043
0.0200397
0.0200368
0.0200344
0.0200324
0.0200307
0.0200294
0.0200283
0.0200274
0.0200266
0.020026
0.0200256
0.0200253
0.0200251
0.0200251
0.0200453
0.0200453
0.0200455
0.0200459
0.0200465
0.0200472
0.0200481
0.020049
0.0200498
0.0200506
0.0200514
0.020052
0.0200525
0.0200526
0.020052
0.0200503
0.0200472
0.0200435
0.0200401
0.0200371
0.0200346
0.0200325
0.0200308
0.0200295
0.0200283
0.0200274
0.0200267
0.0200261
0.0200256
0.0200253
0.0200251
0.0200251
0.0200453
0.0200454
0.0200457
0.0200461
0.0200467
0.0200475
0.0200484
0.0200493
0.0200502
0.0200511
0.0200519
0.0200526
0.0200532
0.0200536
0.0200532
0.0200516
0.0200483
0.0200443
0.0200406
0.0200375
0.0200348
0.0200326
0.0200309
0.0200295
0.0200283
0.0200274
0.0200267
0.0200261
0.0200256
0.0200253
0.0200251
0.0200251
0.0200454
0.0200455
0.0200458
0.0200463
0.0200469
0.0200478
0.0200487
0.0200497
0.0200506
0.0200515
0.0200525
0.0200534
0.0200543
0.020055
0.020055
0.0200535
0.0200499
0.0200454
0.0200414
0.020038
0.0200351
0.0200327
0.0200308
0.0200294
0.0200282
0.0200273
0.0200266
0.020026
0.0200256
0.0200253
0.0200251
0.020025
0.0200455
0.0200457
0.0200459
0.0200464
0.0200471
0.020048
0.020049
0.02005
0.020051
0.020052
0.0200531
0.0200543
0.0200556
0.0200568
0.0200573
0.0200561
0.0200522
0.0200471
0.0200425
0.0200386
0.0200354
0.0200328
0.0200307
0.0200291
0.0200279
0.0200271
0.0200264
0.0200259
0.0200255
0.0200252
0.020025
0.020025
0.0200456
0.0200458
0.020046
0.0200465
0.0200472
0.0200481
0.0200492
0.0200502
0.0200513
0.0200525
0.0200538
0.0200553
0.020057
0.0200588
0.0200601
0.0200593
0.0200551
0.0200493
0.020044
0.0200395
0.0200357
0.0200327
0.0200304
0.0200287
0.0200275
0.0200267
0.0200261
0.0200256
0.0200253
0.020025
0.0200249
0.0200248
0.0200457
0.0200458
0.0200461
0.0200466
0.0200473
0.0200482
0.0200492
0.0200503
0.0200514
0.0200527
0.0200541
0.0200559
0.0200581
0.0200607
0.0200629
0.0200628
0.0200585
0.020052
0.0200458
0.0200405
0.0200361
0.0200326
0.0200299
0.0200281
0.0200269
0.0200261
0.0200256
0.0200253
0.020025
0.0200248
0.0200247
0.0200246
0.0200457
0.0200458
0.0200461
0.0200466
0.0200472
0.0200481
0.020049
0.0200501
0.0200512
0.0200524
0.020054
0.020056
0.0200587
0.0200621
0.0200656
0.0200665
0.0200622
0.0200551
0.020048
0.0200417
0.0200365
0.0200324
0.0200294
0.0200274
0.0200261
0.0200254
0.020025
0.0200248
0.0200246
0.0200245
0.0200244
0.0200243
0.0200457
0.0200458
0.020046
0.0200464
0.020047
0.0200477
0.0200486
0.0200495
0.0200505
0.0200517
0.0200531
0.0200552
0.0200583
0.0200628
0.0200678
0.02007
0.0200659
0.0200582
0.0200501
0.0200429
0.0200369
0.0200322
0.0200287
0.0200265
0.0200252
0.0200246
0.0200243
0.0200242
0.0200241
0.020024
0.0200239
0.0200239
0.0200455
0.0200456
0.0200458
0.0200461
0.0200466
0.0200472
0.0200479
0.0200486
0.0200493
0.0200502
0.0200515
0.0200535
0.0200571
0.0200629
0.0200699
0.0200733
0.0200693
0.0200609
0.0200519
0.0200438
0.020037
0.0200317
0.0200279
0.0200255
0.0200242
0.0200236
0.0200235
0.0200235
0.0200235
0.0200234
0.0200234
0.0200233
0.0200451
0.0200452
0.0200454
0.0200457
0.020046
0.0200464
0.0200468
0.0200473
0.0200477
0.0200483
0.0200492
0.0200513
0.0200556
0.0200633
0.0200725
0.0200769
0.0200722
0.0200626
0.0200526
0.0200437
0.0200363
0.0200306
0.0200266
0.0200241
0.0200229
0.0200225
0.0200225
0.0200227
0.0200227
0.0200227
0.0200227
0.0200226
0.0200445
0.0200446
0.0200447
0.020045
0.0200452
0.0200455
0.0200456
0.0200458
0.0200459
0.0200461
0.0200469
0.0200494
0.0200552
0.0200656
0.020077
0.0200811
0.0200743
0.0200626
0.0200512
0.0200416
0.020034
0.0200283
0.0200245
0.0200223
0.0200213
0.0200212
0.0200214
0.0200216
0.0200217
0.0200217
0.0200217
0.0200216
0.0200433
0.0200434
0.0200436
0.0200438
0.0200441
0.0200443
0.0200444
0.0200443
0.0200442
0.0200443
0.0200455
0.0200495
0.0200584
0.0200722
0.0200846
0.0200858
0.0200744
0.0200594
0.0200465
0.0200366
0.0200293
0.0200242
0.0200211
0.0200196
0.0200192
0.0200195
0.02002
0.0200204
0.0200206
0.0200206
0.0200206
0.0200205
0.0200434
0.0200431
0.0200426
0.0200421
0.0200415
0.0200411
0.020041
0.0200411
0.0200419
0.0200438
0.0200481
0.0200566
0.0200705
0.0200867
0.0200958
0.0200892
0.0200705
0.0200515
0.0200374
0.0200278
0.0200217
0.0200181
0.0200164
0.020016
0.0200164
0.0200172
0.020018
0.0200186
0.0200188
0.0200189
0.0200188
0.0200188
0.0200632
0.0200626
0.0200614
0.0200596
0.0200575
0.0200557
0.0200546
0.0200549
0.0200571
0.020062
0.0200705
0.0200831
0.020098
0.0201087
0.0201058
0.020087
0.0200614
0.0200408
0.0200274
0.0200194
0.0200152
0.0200136
0.0200137
0.0200146
0.0200157
0.0200165
0.020017
0.0200171
0.020017
0.020017
0.0200171
0.0200171
0.0201018
0.0201014
0.0201006
0.0200991
0.0200973
0.0200955
0.0200943
0.0200946
0.0200971
0.0201023
0.0201102
0.0201193
0.0201253
0.0201223
0.0201073
0.0200841
0.0200609
0.0200438
0.020033
0.0200262
0.0200214
0.0200178
0.0200149
0.0200129
0.0200119
0.0200121
0.0200134
0.0200159
0.0200191
0.0200224
0.020025
0.0200263
0.0201324
0.0201324
0.0201323
0.0201319
0.0201313
0.0201305
0.02013
0.0201304
0.0201319
0.0201349
0.0201385
0.0201409
0.0201393
0.0201318
0.0201193
0.0201042
0.0200905
0.020082
0.0200788
0.0200786
0.0200795
0.0200808
0.020082
0.0200835
0.0200853
0.020088
0.0200917
0.0200964
0.0201014
0.020106
0.0201093
0.020111
0.0201503
0.0201504
0.0201505
0.0201505
0.0201506
0.0201506
0.0201509
0.0201516
0.020153
0.0201551
0.0201572
0.0201584
0.0201577
0.020155
0.0201514
0.0201486
0.02015
0.0201585
0.0201734
0.0201917
0.0202112
0.0202296
0.0202456
0.0202585
0.0202681
0.0202743
0.0202772
0.0202772
0.0202749
0.0202716
0.0202688
0.0202674
0.0201611
0.0201612
0.0201613
0.0201616
0.020162
0.0201628
0.0201641
0.020166
0.0201686
0.0201719
0.0201755
0.0201791
0.0201823
0.0201855
0.0201896
0.0201971
0.0202117
0.0202352
0.0202651
0.0202975
0.020329
0.0203568
0.0203795
0.020397
0.0204093
0.0204164
0.0204185
0.0204162
0.0204106
0.0204035
0.0203973
0.020394
0.0201691
0.0201692
0.0201693
0.0201697
0.0201705
0.020172
0.0201744
0.0201777
0.020182
0.0201873
0.0201933
0.0201997
0.0202066
0.0202138
0.0202224
0.0202349
0.0202552
0.0202844
0.0203186
0.0203528
0.0203831
0.0204075
0.0204259
0.0204396
0.0204495
0.0204563
0.0204602
0.0204615
0.0204603
0.0204573
0.0204539
0.0204516
0.0201769
0.0201768
0.0201769
0.0201773
0.0201783
0.0201803
0.0201836
0.0201882
0.0201942
0.0202014
0.0202097
0.0202188
0.0202284
0.0202383
0.0202489
0.0202624
0.0202823
0.0203099
0.0203413
0.0203713
0.0203964
0.0204157
0.02043
0.0204411
0.0204502
0.0204578
0.0204639
0.0204682
0.0204705
0.0204711
0.0204705
0.0204697
0.020186
0.0201857
0.0201856
0.0201858
0.0201869
0.0201893
0.0201933
0.0201991
0.0202066
0.0202156
0.020226
0.0202372
0.0202489
0.0202606
0.0202724
0.0202853
0.0203021
0.0203247
0.0203504
0.020375
0.0203957
0.0204118
0.0204245
0.0204354
0.0204453
0.0204546
0.0204627
0.0204691
0.0204734
0.0204756
0.0204762
0.0204761
0.020198
0.0201975
0.0201969
0.0201968
0.0201979
0.0202007
0.0202055
0.0202124
0.0202214
0.020232
0.020244
0.0202568
0.0202701
0.0202832
0.0202956
0.0203077
0.0203213
0.0203384
0.0203579
0.0203774
0.0203945
0.0204087
0.0204207
0.0204315
0.020442
0.0204522
0.0204617
0.0204697
0.0204754
0.0204787
0.02048
0.0204802
0.0202143
0.0202134
0.0202123
0.020212
0.0202132
0.0202166
0.0202225
0.0202307
0.020241
0.0202529
0.020266
0.0202798
0.0202939
0.0203075
0.0203201
0.0203316
0.0203427
0.0203552
0.0203694
0.0203843
0.0203982
0.0204106
0.0204216
0.0204319
0.020442
0.0204522
0.020462
0.0204706
0.0204773
0.0204815
0.0204834
0.0204837
0.0202362
0.0202348
0.0202334
0.0202331
0.020235
0.0202395
0.0202466
0.0202561
0.0202675
0.0202801
0.0202935
0.0203074
0.0203213
0.0203346
0.0203468
0.0203574
0.0203666
0.0203757
0.0203859
0.0203969
0.0204078
0.020418
0.0204275
0.0204366
0.0204457
0.0204549
0.020464
0.0204725
0.0204794
0.0204841
0.0204865
0.020487
0.0202646
0.0202628
0.0202615
0.0202621
0.0202653
0.0202713
0.0202797
0.02029
0.0203016
0.0203139
0.0203267
0.0203396
0.0203522
0.0203643
0.0203752
0.0203846
0.0203922
0.0203989
0.020406
0.0204138
0.0204219
0.0204299
0.0204375
0.020445
0.0204524
0.0204601
0.0204679
0.0204754
0.0204819
0.0204867
0.0204893
0.02049
0.0203002
0.0202985
0.0202983
0.0203007
0.0203056
0.0203128
0.0203217
0.0203317
0.0203424
0.0203533
0.0203643
0.0203752
0.0203857
0.0203956
0.0204046
0.0204123
0.0204183
0.0204231
0.020428
0.0204333
0.020439
0.0204447
0.0204503
0.0204559
0.0204615
0.0204673
0.0204733
0.0204794
0.0204849
0.0204893
0.0204918
0.0204927
0.0203442
0.0203434
0.0203454
0.0203497
0.0203556
0.0203627
0.0203706
0.020379
0.0203875
0.020396
0.0204043
0.0204124
0.0204201
0.0204273
0.0204339
0.0204395
0.0204437
0.020447
0.0204501
0.0204535
0.0204571
0.0204609
0.0204646
0.0204684
0.0204721
0.020476
0.0204801
0.0204844
0.0204885
0.020492
0.0204942
0.0204951
0.0203982
0.0203993
0.0204031
0.0204075
0.0204125
0.0204177
0.0204231
0.0204285
0.0204339
0.0204391
0.0204442
0.0204491
0.0204537
0.020458
0.0204619
0.0204652
0.0204677
0.0204695
0.0204712
0.0204731
0.0204751
0.0204771
0.0204792
0.0204813
0.0204834
0.0204856
0.0204878
0.0204902
0.0204927
0.0204949
0.0204965
0.0204972
0.0204642
0.0204652
0.0204671
0.020469
0.0204709
0.0204728
0.0204748
0.0204766
0.0204784
0.0204802
0.0204819
0.0204835
0.020485
0.0204864
0.0204877
0.0204887
0.0204896
0.0204902
0.0204907
0.0204913
0.0204919
0.0204925
0.0204932
0.0204938
0.0204945
0.0204952
0.0204959
0.0204966
0.0204974
0.0204982
0.0204987
0.020499
)
;

boundaryField
{
    movingWall
    {
        type            fixedValue;
        value           uniform 0.0205;
    }
    fixedWalls
    {
        type            zeroGradient;
    }
    floor
    {
        type            zeroGradient;
    }
    frontAndBack
    {
        type            empty;
    }
}


// ************************************************************************* //
