/*--------------------------------*- C++ -*----------------------------------*\
| =========                 |                                                 |
| \\      /  F ield         | OpenFOAM: The Open Source CFD Toolbox           |
|  \\    /   O peration     | Version:  2206                                  |
|   \\  /    A nd           | Website:  www.openfoam.com                      |
|    \\/     M anipulation  |                                                 |
\*---------------------------------------------------------------------------*/
FoamFile
{
    version     2.0;
    format      ascii;
    arch        "LSB;label=64;scalar=64";
    class       volScalarField;
    location    "3.8/water";
    object      Ct2;
}
// * * * * * * * * * * * * * * * * * * * * * * * * * * * * * * * * * * * * * //

dimensions      [0 0 0 0 0 0 0];

internalField   nonuniform List<scalar> 
23300
(
8.96911267636
8.96924788076
8.96942368176
8.96964003719
8.96988815838
8.97016011181
8.97044940629
8.97075038016
8.97105809701
8.97136799573
8.97167602612
8.97197848213
8.97227219483
8.97255443251
8.97282304793
8.97307637932
8.97331332315
8.9735332178
8.9737358571
8.97392136724
8.9740901904
8.9742429721
8.97438053936
8.97450380965
8.97461377654
8.97471144271
8.97479781632
8.97487386455
8.97494051881
8.97499864333
8.97504904603
8.97509245724
8.97512954386
8.97516089485
8.97518703706
8.97520842504
8.97522545758
8.97523846981
8.97524774939
8.97525352942
8.97525600345
8.97525531764
8.97525158361
8.97524486781
8.97523519932
8.97522262194
8.97520716052
8.97518879376
8.97516747413
8.97514312064
8.9751156311
8.97508487147
8.9750506865
8.97501288785
8.97497126414
8.97492556834
8.9748755275
8.97482082982
8.9747611342
8.9746960575
8.97462518434
8.97454805524
8.97446417766
8.97437301603
8.97427400572
8.9741665469
8.97405002392
8.97392380614
8.97378727658
8.9736398443
8.97348098805
8.97331028677
8.97312748598
8.97293255509
8.97272578667
8.97250789165
8.97228014535
8.97204454015
8.97180401463
8.97156273936
8.97132659452
8.97110393189
8.97090694111
8.97075379542
8.97067021953
8.97067553461
8.97075353734
8.97088136051
8.97104173365
8.97122235948
8.97141449071
8.97161183725
8.97180983274
8.97200512118
8.97219523141
8.97237834558
8.97255315471
8.97271874389
8.97287451593
8.9730201207
8.97315540447
8.97328035952
8.97339508714
8.97349976069
8.97359459859
8.97367983789
8.97375571462
8.97382244476
8.9738802091
8.97392913802
8.97396929688
8.97400066868
8.9740231535
8.9740365829
8.97404066669
8.97403497897
8.97401894008
8.97399179676
8.97395259917
8.97390017816
8.97383312287
8.97374976457
8.97364817022
8.97352615591
8.97338132888
8.97321117307
8.97301319024
8.97278511068
8.97252517688
8.97223249361
8.97190741353
8.97155190285
8.97116980253
8.97076689014
8.9703506768
8.96993000123
8.96951480347
8.96911714858
8.96875444005
8.96846819187
8.96492658696
8.96503657489
8.96523023683
8.96549128407
8.9658071523
8.96616681131
8.96656051904
8.96697953718
8.96741593052
8.96786241926
8.96831234775
8.96875968721
8.96919908363
8.96962590382
8.97003626826
8.97042706859
8.97079594518
8.97114125647
8.97146200688
8.97175778256
8.97202865516
8.97227510822
8.97249794151
8.97269820621
8.97287712391
8.97303603829
8.9731763525
8.97329949722
8.97340688432
8.97349988837
8.9735798136
8.97364788624
8.97370523279
8.97375288141
8.9737917497
8.97382265313
8.97384629977
8.97386330297
8.97387418
8.973879366
8.97387921376
8.97387400667
8.97386395791
8.97384922173
8.97382989342
8.97380606246
8.97377778258
8.97374505553
8.97370783247
8.97366602359
8.97361949667
8.97356808309
8.97351157443
8.97344972656
8.97338225543
8.9733088401
8.97322911848
8.97314269002
8.97304911192
8.97294790231
8.97283853786
8.97272045865
8.97259306847
8.97245574328
8.97230783641
8.97214869335
8.97197766507
8.97179413325
8.97159753627
8.9713874105
8.97116343545
8.97092549859
8.97067376807
8.97040879031
8.97013160009
8.96984386061
8.9695480201
8.96924750294
8.9689469232
8.96865234312
8.96837157064
8.96811450625
8.96789343347
8.96772286489
8.9676175786
8.96758649349
8.9676255404
8.96772308365
8.96786605505
8.96804252446
8.96824251163
8.96845799941
8.96868264359
8.9689114415
8.96914043572
8.96936649632
8.96958715045
8.96980046543
8.9700049478
8.97019947158
8.97038320647
8.97055556584
8.97071615009
8.97086470671
8.97100108476
8.97112520429
8.97123701951
8.97133649496
8.97142357461
8.97149816145
8.97156008895
8.9716091002
8.97164482739
8.97166681752
8.97167446271
8.97166698006
8.97164338555
8.97160247482
8.97154280058
8.97146266134
8.97136009524
8.97123289663
8.97107865393
8.97089482992
8.97067888752
8.97042848238
8.97014172247
8.96981750402
8.96945590207
8.96905858802
8.96862920277
8.96817359452
8.96769978242
8.9672174867
8.96673702371
8.96626732573
8.96581270893
8.96536755982
8.96490651403
8.96436419536
8.96712520514
8.96718040615
8.96729247142
8.967453986
8.96765829389
8.96789885783
8.96816935432
8.96846368769
8.96877600666
8.96910073038
8.96943259424
8.96976670866
8.97009862202
8.97042437894
8.97074056157
8.97104431504
8.97133334757
8.9716059156
8.97186078719
8.97209719886
8.97231479889
8.97251359338
8.97269388591
8.97285622593
8.97300135448
8.97313016082
8.97324363711
8.973342844
8.97342887371
8.97350282386
8.97356576866
8.97361874085
8.9736627116
8.97369858111
8.97372716725
8.97374920435
8.97376533915
8.97377613565
8.97378207584
8.97378356781
8.97378094862
8.9737744935
8.97376441941
8.97375089447
8.97373404214
8.97371392541
8.9736905884
8.97366404082
8.9736342564
8.97360117814
8.97356471825
8.97352476233
8.97348116829
8.97343376954
8.97338237332
8.97332676335
8.97326669813
8.97320191361
8.97313212195
8.97305701482
8.97297626338
8.97288952313
8.97279643604
8.97269663825
8.97258976581
8.97247546704
8.97235341383
8.97222332103
8.97208496594
8.97193821765
8.97178306785
8.97161967348
8.97144840209
8.97126989062
8.97108510707
8.97089542493
8.97070269703
8.97050933601
8.97031838257
8.97013356329
8.96995930971
8.9698007269
8.96966345118
8.96955330623
8.96947547157
8.96943307028
8.96942594184
8.96945096882
8.96950356049
8.96957877894
8.96967190937
8.96977873177
8.96989558199
8.97001932875
8.97014730889
8.97027727051
8.97040731306
8.97053584575
8.97066154224
8.9707833095
8.97090024997
8.97101163548
8.97111687395
8.97121548697
8.97130708063
8.97139132656
8.9714679364
8.97153664565
8.97159719092
8.97164929552
8.97169264865
8.97172689205
8.97175159298
8.97176625002
8.97177026688
8.97176294004
8.97174344376
8.97171082441
8.97166399585
8.97160174902
8.97152277066
8.97142568554
8.97130912003
8.97117180208
8.97101269586
8.97083118263
8.97062727966
8.97040189495
8.97015709055
8.96989632416
8.96962460935
8.96934852662
8.96907599028
8.968815669
8.9685759359
8.96836322226
8.96817967655
8.96802015201
8.96786724221
8.96771167935
8.96779296454
8.96783755861
8.9679259002
8.96805474871
8.96821995777
8.96841683683
8.96864047015
8.96888587339
8.96914811681
8.9694224144
8.96970420971
8.9699892442
8.97027362268
8.97055385978
8.97082691641
8.97109021552
8.97134164496
8.97157954351
8.97180267675
8.97201020362
8.9722016378
8.97237680687
8.97253581042
8.97267898022
8.97280684072
8.97292007336
8.97301948074
8.97310595484
8.97318044468
8.97324392861
8.97329738629
8.97334177676
8.97337801706
8.9734069682
8.97342942199
8.9734460956
8.97345762623
8.9734645727
8.9734674158
8.97346656437
8.97346235872
8.97345507878
8.97344494872
8.97343214595
8.97341680679
8.97339897039
8.97337865976
8.97335587247
8.97333057803
8.97330272188
8.97327222522
8.97323898874
8.97320289198
8.97316379657
8.97312154519
8.97307596451
8.97302686414
8.97297403969
8.97291727211
8.97285633132
8.97279097649
8.97272096103
8.97264603445
8.97256594958
8.97248046714
8.97238936628
8.97229245311
8.97218957616
8.97208064034
8.97196562888
8.9718446245
8.9717178394
8.97158564482
8.97144860972
8.97130753808
8.97116351333
8.97101793685
8.97087256634
8.97072953588
8.9705913589
8.9704608892
8.97034123546
8.97023559772
8.97014701353
8.97007798705
8.9700299869
8.97000332958
8.96999708788
8.97000935076
8.97003782337
8.97008006627
8.97013369365
8.9701964686
8.97026635016
8.97034150119
8.97042028838
8.97050126778
8.97058317491
8.97066490591
8.97074550544
8.9708241468
8.97090011913
8.97097280762
8.97104168089
8.97110627208
8.97116616693
8.97122098605
8.97127037384
8.97131398188
8.97135145867
8.97138243443
8.97140651235
8.97142323983
8.97143209665
8.97143250093
8.97142380312
8.97140527989
8.97137613832
8.9713355242
8.97128254584
8.97121630937
8.97113597732
8.97104084803
8.97093046661
8.97080476373
8.97066422772
8.97051009888
8.97034457881
8.97017102786
8.96999412256
8.96981992451
8.96965581074
8.96951020105
8.96939202309
8.9693098551
8.96927071382
8.96927853788
8.969332588
8.96942230148
8.96954687963
8.96845131857
8.96848769223
8.96855924307
8.96866398578
8.96879908634
8.96896108379
8.96914616562
8.96935032685
8.96956951088
8.96979971539
8.97003709173
8.97027801567
8.97051915364
8.97075750275
8.97099042482
8.97121565702
8.97143131717
8.9716358909
8.97182821671
8.9720074594
8.97217308499
8.9723248294
8.97246267074
8.97258679829
8.97269758506
8.97279555797
8.97288137055
8.97295577372
8.97301958848
8.97307367792
8.97311892171
8.97315619209
8.97318633344
8.97321014523
8.9732283692
8.97324168064
8.9732506833
8.97325590805
8.97325781366
8.97325679051
8.9732531648
8.97324720478
8.97323912645
8.97322910069
8.97321726071
8.97320363206
8.97318821427
8.97317098869
8.9731519162
8.97313093959
8.97310798427
8.97308296066
8.97305576454
8.97302627933
8.97299437612
8.97295991579
8.97292274902
8.97288271851
8.97283965923
8.97279340117
8.97274377015
8.97269059152
8.97263369217
8.97257290568
8.97250807614
8.97243906555
8.97236576017
8.972288081
8.97220599346
8.97211952174
8.97202876256
8.97193390386
8.97183524272
8.97173320798
8.97162838072
8.97152151748
8.97141356776
8.97130568868
8.97119924589
8.97109580149
8.97099707552
8.97090488177
8.9708210259
8.9707471727
8.97068468356
8.9706344273
8.97059672109
8.97057150127
8.97055811016
8.9705555361
8.97056263661
8.97057818964
8.97060096545
8.97062977109
8.97066347394
8.97070101828
8.97074142992
8.97078382026
8.97082738254
8.97087139015
8.97091518883
8.97095819205
8.97099987126
8.97103974984
8.97107739257
8.97111239891
8.97114439228
8.97117301315
8.97119790845
8.971218725
8.97123509986
8.97124665548
8.97125297484
8.9712535746
8.97124793574
8.97123550328
8.97121568859
8.97118788128
8.97115146767
8.97110586392
8.97105056195
8.97098519633
8.97090963047
8.97082406855
8.9707291892
8.97062630186
8.97051751463
8.97040590385
8.97029566143
8.97019219472
8.97010214
8.97003325004
8.96999410823
8.96999362541
8.97004027237
8.97014100428
8.97029984821
8.97051623727
8.97078203424
8.97109058983
8.96896302978
8.96899343303
8.96905315754
8.96914076221
8.96925408079
8.96939039441
8.96954663179
8.96971949964
8.96990561143
8.97010158824
8.97030415569
8.97051021234
8.97071689265
8.97092160306
8.97112205325
8.97131626446
8.97150257543
8.97167963121
8.97184637308
8.97200201729
8.97214603779
8.97227814199
8.97239825151
8.97250647787
8.9726031024
8.97268855137
8.97276337413
8.97282821681
8.9728837986
8.97293088502
8.97297026473
8.97300272556
8.97302903556
8.97304992519
8.97306607529
8.97307810718
8.97308657783
8.9730919772
8.97309472915
8.9730951937
8.97309367147
8.97309040859
8.97308560258
8.97307940793
8.97307194679
8.97306324561
8.97305327964
8.97304201359
8.97302939729
8.97301536802
8.97299985139
8.97298276283
8.97296400847
8.9729434866
8.97292108827
8.97289669864
8.97287019758
8.97284146109
8.97281036196
8.9727767716
8.97274056108
8.97270160352
8.97265977593
8.97261496258
8.97256705789
8.97251597123
8.97246163142
8.97240399325
8.97234304397
8.97227881195
8.97221137531
8.97214087269
8.97206751374
8.97199159124
8.97191349188
8.97183370723
8.97175284097
8.97167161312
8.9715908562
8.97151150338
8.97143456327
8.97136108213
8.97129209037
8.97122853811
8.9711712225
8.97112073193
8.9710773444
8.97104116531
8.97101218939
8.97099005234
8.97097425419
8.97096423673
8.97095938894
8.97095907941
8.97096267608
8.97096956144
8.97097914132
8.97099085202
8.97100416269
8.97101857753
8.97103363445
8.97104890443
8.97106398785
8.97107851218
8.97109212703
8.97110450073
8.97111531471
8.97112425957
8.97113102921
8.97113531708
8.97113681113
8.97113519225
8.97113011712
8.97112117616
8.97110794397
8.97108998363
8.97106685592
8.97103813722
8.97100344527
8.97096247843
8.97091506798
8.97086124866
8.97080134664
8.97073608794
8.97066672357
8.97059516923
8.97052414915
8.97045733276
8.97039944312
8.97035631338
8.97033485803
8.97034292283
8.97038897056
8.97048155749
8.97062854742
8.97083599678
8.97110662738
8.97143787306
8.9718193934
8.97223670244
8.96938711892
8.96941303095
8.96946394047
8.96953867803
8.96963547913
8.96975210053
8.96988597971
8.97003434092
8.97019430612
8.97036298651
8.97053757071
8.97071538804
8.9708939656
8.9710710611
8.97124469005
8.97141313294
8.97157494
8.97172892156
8.97187413985
8.97200989166
8.972135695
8.97225126996
8.97235652407
8.97245153294
8.97253652438
8.97261185769
8.97267800515
8.97273552895
8.97278506012
8.97282727438
8.97286287101
8.97289255088
8.97291699897
8.97293686788
8.97295276661
8.97296525117
8.97297482006
8.97298191133
8.97298690343
8.97299011687
8.97299181824
8.97299222452
8.9729915084
8.97298980358
8.97298720899
8.97298377161
8.97297945127
8.9729741906
8.97296792988
8.97296060092
8.97295212838
8.97294243094
8.97293142213
8.9729190113
8.97290510428
8.97288960425
8.97287241237
8.97285342862
8.97283255256
8.97280968433
8.97278472563
8.97275758112
8.9727281598
8.97269637707
8.97266215671
8.97262543374
8.97258615736
8.9725442948
8.97249983531
8.97245279513
8.97240322257
8.97235120391
8.97229686924
8.97224039861
8.97218202748
8.97212205164
8.97206083002
8.97199878531
8.97193640055
8.97187421133
8.97181279191
8.97175273561
8.97169462893
8.97163902146
8.97158639461
8.9715371326
8.97149149492
8.97144958533
8.97141151318
8.97137734754
8.97134692241
8.97132001529
8.97129637576
8.9712757207
8.9712577475
8.97124214477
8.97122859914
8.97121680069
8.97120644651
8.97119724332
8.97118890858
8.97118117121
8.97117377096
8.97116645786
8.97115899042
8.97115113422
8.97114265947
8.97113333915
8.97112294642
8.9711112531
8.97109802799
8.97108303742
8.971066041
8.97104673078
8.97102479751
8.97099994009
8.97097187956
8.97094038147
8.97090528662
8.97086655396
8.970824316
8.97077894998
8.97073116411
8.97068209978
8.97063344619
8.97058756317
8.97054760256
8.97051761585
8.97050262922
8.97050866291
8.97054266442
8.97061232006
8.9707257012
8.97089069535
8.97111415978
8.97140071708
8.97175108529
8.97215986992
8.97261298017
8.97308878558
8.96974059865
8.96976307009
8.9698073102
8.96987226288
8.96995641699
8.97005784391
8.97017433166
8.9703034758
8.97044277687
8.97058972276
8.97074186775
8.97089689045
8.97105264411
8.97120718574
8.97135879881
8.97150599858
8.97164753466
8.97178238173
8.97190973138
8.97202897691
8.97213970164
8.97224166288
8.97233477974
8.97241911705
8.97249487209
8.97256235704
8.97262198306
8.97267424028
8.97271967933
8.97275889018
8.97279248352
8.97282107148
8.97284525216
8.97286559526
8.97288263207
8.97289684727
8.97290867483
8.97291849544
8.97292663714
8.97293337677
8.97293894347
8.97294352241
8.97294725954
8.97295026641
8.97295262023
8.97295438356
8.97295551766
8.97295594741
8.97295560394
8.97295441398
8.97295230101
8.97294918607
8.97294498833
8.97293962569
8.97293301518
8.97292507352
8.97291571749
8.97290486449
8.97289243291
8.97287834282
8.97286251651
8.97284487929
8.97282536035
8.97280389392
8.97278042046
8.97275488824
8.9727272551
8.97269749055
8.9726655781
8.97263151787
8.97259532952
8.97255705522
8.97251676282
8.97247454886
8.9724305413
8.97238490159
8.97233782593
8.97228954497
8.97224032189
8.97219044809
8.9721402365
8.97209001213
8.97204010033
8.97199081312
8.97194243512
8.97189521029
8.97184933499
8.97180493295
8.97176205499
8.9717208328
8.97168138997
8.97164367816
8.97160762303
8.9715731397
8.97154012426
8.9715084598
8.97147802034
8.9714486747
8.97142028845
8.97139272592
8.97136585157
8.97133953073
8.97131363005
8.97128801746
8.97126256196
8.97123713307
8.97121160026
8.97118583232
8.97115969692
8.97113306068
8.97110578981
8.97107775219
8.97104882253
8.97101881783
8.97098755799
8.97095488707
8.97092069061
8.97088492102
8.97084763144
8.97080902029
8.97076948771
8.97072970515
8.97069069783
8.9706539395
8.97062145558
8.97059592977
8.97058080452
8.97058036295
8.97059977463
8.97064508271
8.9707231035
8.97084120299
8.97100690557
8.97122728014
8.97150803389
8.97185222298
8.97225845824
8.97271849457
8.97321439736
8.9737184439
8.9700405459
8.97006034227
8.97009947228
8.9701568987
8.97023127344
8.9703208782
8.97042374368
8.97053773174
8.9706606233
8.9707901945
8.97092428828
8.97106086665
8.97119805486
8.97133416621
8.97146771984
8.97159744337
8.97172227244
8.97184134047
8.9719539694
8.97205965499
8.97215805559
8.97224897754
8.97233236427
8.97240828234
8.97247690994
8.97253852196
8.97259347626
8.97264219681
8.97268515783
8.97272286593
8.9727558443
8.97278461644
8.97280969309
8.97283156011
8.97285067007
8.97286743531
8.97288222446
8.9728953603
8.97290712023
8.97291773757
8.97292740445
8.97293627512
8.97294446998
8.97295207954
8.97295916899
8.97296579042
8.97297193461
8.97297751606
8.97298245648
8.97298667784
8.97299010257
8.97299265365
8.97299425481
8.97299483074
8.97299430722
8.97299261133
8.9729896716
8.97298541816
8.97297978297
8.97297270004
8.97296410572
8.97295393903
8.9729421421
8.9729286607
8.9729134449
8.97289644979
8.97287763649
8.9728569731
8.97283443601
8.97281001116
8.97278369561
8.97275549893
8.9727254449
8.97269357287
8.9726599392
8.9726246181
8.97258770234
8.97254930295
8.97250954849
8.97246858298
8.97242656318
8.97238365432
8.97234002528
8.97229584252
8.97225126422
8.97220643434
8.97216147734
8.9721164989
8.97207156204
8.97202669624
8.97198202994
8.97193772922
8.97189381127
8.9718502762
8.97180712683
8.97176435447
8.97172194716
8.97167988558
8.97163814714
8.97159670606
8.97155553438
8.97151460235
8.97147387892
8.97143333179
8.97139292764
8.97135263204
8.97131240969
8.97127222461
8.97123204086
8.97119182375
8.97115154205
8.97111117165
8.97107070325
8.97103009482
8.97098929972
8.97094830945
8.97090717266
8.9708660223
8.97082511109
8.97078485647
8.97074589631
8.97070915575
8.97067592475
8.97064794468
8.97062750021
8.9706175106
8.9706216114
8.97064421405
8.97069052667
8.97076651459
8.97087877289
8.9710342761
8.97123995957
8.9715020744
8.97182523854
8.97221107991
8.97265632907
8.97315020669
8.97367125548
8.97418642857
8.97029929295
8.97031698749
8.97035217577
8.97040377698
8.97047054588
8.97055090424
8.97064304977
8.97074503407
8.97085484592
8.9709704826
8.97109001585
8.97121163941
8.97133370722
8.97145475348
8.97157350552
8.97168888266
8.97179999229
8.97190611754
8.97200670615
8.97210135523
8.97218979943
8.97227189703
8.97234761954
8.97241703922
8.97248031903
8.97253770002
8.97258948993
8.97263604924
8.97267777835
8.97271510296
8.97274846126
8.97277829078
8.97280501769
8.97282904703
8.97285075575
8.9728704871
8.97288854767
8.97290520565
8.97292069111
8.97293519708
8.97294888186
8.97296187176
8.9729742644
8.97298613201
8.97299752457
8.97300848345
8.97301904445
8.9730291137
8.97303860466
8.97304743605
8.97305552981
8.97306281068
8.97306920623
8.97307464668
8.97307906484
8.97308239593
8.97308457752
8.97308554938
8.97308525347
8.97308363391
8.97308063698
8.97307621116
8.9730703073
8.97306287869
8.97305388139
8.97304327442
8.97303102028
8.97301708528
8.97300144021
8.9729840608
8.97296492857
8.97294403138
8.97292136431
8.97289693021
8.97287074052
8.97284281556
8.97281318505
8.97278188799
8.9727489726
8.97271449549
8.97267852085
8.97264111876
8.97260236356
8.97256233134
8.97252109786
8.97247873574
8.972435313
8.97239089021
8.97234552333
8.97229924467
8.97225206916
8.9722040855
8.97215550524
8.97210637847
8.97205672854
8.97200660967
8.97195606056
8.97190512467
8.97185384286
8.97180225582
8.97175040491
8.97169833151
8.97164607774
8.97159368624
8.97154120066
8.97148866566
8.97143612763
8.97138363525
8.97133124103
8.97127900308
8.97122698843
8.9711752776
8.97112397428
8.97107318233
8.97102298607
8.97097352088
8.97092499227
8.97087770402
8.97083209409
8.97078877897
8.97074860769
8.97071272516
8.97068264429
8.97066032446
8.97064825281
8.97064952177
8.97066789455
8.97070784601
8.97077456353
8.9708738872
8.97101216333
8.97119597721
8.97143171999
8.97172492808
8.97207930873
8.97249532774
8.9729681804
8.97348492872
8.97402088634
8.97453803466
8.97052655947
8.97054258763
8.97057472232
8.97062179523
8.9706826225
8.97075571578
8.97083938553
8.97093181792
8.97103115547
8.9711355662
8.97124330543
8.97135275861
8.97146247425
8.97157117889
8.97167778468
8.97178138399
8.97188124156
8.97197677918
8.97206756233
8.97215328352
8.97223374959
8.9723088678
8.97237863572
8.97244312997
8.97250249763
8.97255694584
8.97260673292
8.97265215742
8.97269354832
8.97273125374
8.97276563112
8.97279703689
8.97282581822
8.97285230521
8.97287680531
8.9728995988
8.97292093623
8.97294103695
8.97296008913
8.97297825056
8.97299565042
8.97301239135
8.97302855209
8.97304419015
8.97305934493
8.97307403144
8.97308832753
8.97310217019
8.9731154509
8.97312808708
8.97314000023
8.97315111658
8.9731613669
8.97317068609
8.97317901274
8.97318628867
8.97319245864
8.97319746999
8.97320127242
8.97320381771
8.97320505959
8.97320495355
8.97320345677
8.97320052802
8.97319612769
8.97319021772
8.97318276182
8.97317372544
8.97316307609
8.97315078338
8.9731368195
8.97312115925
8.97310378059
8.97308466473
8.97306379663
8.97304116508
8.97301676315
8.97299058805
8.97296264154
8.97293292952
8.97290146222
8.97286825355
8.97283332096
8.97279668448
8.97275836635
8.97271838981
8.97267677878
8.97263355705
8.97258874756
8.97254237336
8.9724944502
8.97244497613
8.97239397801
8.97234171373
8.9722882308
8.9722335686
8.97217780206
8.97212099141
8.97206320487
8.97200451608
8.97194500161
8.97188474314
8.97182382726
8.97176234528
8.971700394
8.97163807586
8.97157549997
8.97151278302
8.9714500513
8.97138744299
8.97132511211
8.97126323356
8.97120201434
8.97114170252
8.97108250528
8.97102469352
8.97096861944
8.97091474509
8.97086367803
8.97081621443
8.97077339079
8.9707365434
8.970707375
8.97068802571
8.9706811446
8.97068995559
8.97071830928
8.9707707092
8.97085229772
8.97096878229
8.9711262777
8.97133103128
8.97158898621
8.97190511756
8.97228244329
8.97272055892
8.97321346332
8.97374637048
8.97429151027
8.97480592153
8.97073005497
8.97074474892
8.97077450925
8.97081804739
8.97087421011
8.97094156322
8.97101849029
8.97110327087
8.97119416169
8.97128946413
8.97138758286
8.97148706478
8.97158662657
8.97168516428
8.97178175558
8.97187564943
8.97196625396
8.97205311789
8.97213591435
8.97221442264
8.97228851436
8.97235813935
8.97242331591
8.97248412078
8.97254068213
8.97259317157
8.97264179781
8.9726867989
8.97272843538
8.97276698222
8.97280272174
8.97283593596
8.97286690038
8.97289587786
8.97292311423
8.97294883444
8.97297324038
8.97299650938
8.97301879407
8.97304022266
8.97306090028
8.97308091048
8.97310031737
8.97311916799
8.97313749561
8.97315531081
8.97317264785
8.97318954352
8.97320587519
8.97322155345
8.97323649769
8.97325063492
8.97326389848
8.97327622715
8.97328756428
8.97329785721
8.97330705662
8.97331511605
8.97332199144
8.97332764077
8.97333202372
8.9733351014
8.9733368361
8.97333719104
8.97333613033
8.97333361868
8.97332962145
8.97332410448
8.97331703416
8.97330837735
8.97329810155
8.97328617476
8.97327256581
8.97325724425
8.97324018069
8.97322134671
8.97320071528
8.97317826063
8.97315395873
8.97312778715
8.9730997255
8.97306975529
8.97303786028
8.97300402624
8.97296824122
8.97293049517
8.97289078015
8.97284908989
8.97280542014
8.97275976801
8.97271213103
8.97266251482
8.97261089511
8.97255727266
8.97250185324
8.97244471834
8.97238592435
8.97232553584
8.97226362517
8.97220026562
8.97213554672
8.9720695645
8.97200242435
8.9719342421
8.97186514428
8.97179526884
8.97172476667
8.9716538028
8.971582559
8.97151123649
8.9714400604
8.97136928497
8.97129920477
8.97123020174
8.97116259749
8.97109678652
8.97103325407
8.97097260557
8.9709156015
8.97086319882
8.97081660012
8.97077730925
8.97074719275
8.97072854392
8.97072414621
8.97073732923
8.97077201004
8.97083270837
8.97092452225
8.97105304611
8.97122420823
8.97144399571
8.97171802172
8.9720508653
8.97244507177
8.97289962914
8.97340761904
8.97395262177
8.9745037937
8.97501309011
8.97091604981
8.970929661
8.97095756311
8.97099832171
8.97105079195
8.97111356662
8.97118507313
8.97126365479
8.97134765301
8.97143547501
8.97152565004
8.97161686393
8.97170798162
8.97179805109
8.97188629976
8.97197211918
8.97205504815
8.97213475062
8.97221099667
8.97228364243
8.97235261524
8.97241789941
8.97247952709
8.97253756955
8.97259213216
8.97264334887
8.9726913787
8.97273640097
8.97277861145
8.97281821725
8.97285543223
8.97289047164
8.97292354756
8.97295486415
8.97298461409
8.97301297517
8.97304010832
8.9730661559
8.97309124128
8.97311546868
8.97313892392
8.97316167537
8.97318377544
8.97320526213
8.97322616049
8.97324648475
8.97326625229
8.97328554687
8.97330425939
8.97332229429
8.97333957053
8.97335601625
8.97337156696
8.97338616466
8.9733997568
8.97341229536
8.97342373611
8.97343403783
8.9734431618
8.97345107125
8.97345773096
8.97346310682
8.97346716558
8.97346987449
8.97347120113
8.9734711131
8.97346957798
8.97346656302
8.9734620352
8.97345596094
8.97344830625
8.97343903649
8.97342811652
8.97341551053
8.97340118232
8.97338509508
8.97336721175
8.9733474949
8.97332590717
8.97330241117
8.97327696999
8.97324954715
8.97322010717
8.97318861548
8.97315503897
8.97311934587
8.97308150621
8.97304149166
8.97299927598
8.97295483467
8.97290814626
8.97285918876
8.97280794995
8.97275439866
8.97269852207
8.97264039623
8.97258019362
8.97251796389
8.97245374096
8.97238761371
8.97231965414
8.97224995109
8.97217861155
8.97210575427
8.97203151468
8.9719560457
8.97187951941
8.97180212912
8.97172409253
8.9716456551
8.97156709521
8.97148872987
8.97141091732
8.97133414577
8.97125886041
8.9711855585
8.97111484266
8.97104744472
8.97098426029
8.97092638851
8.97087517851
8.97083228135
8.97079970676
8.97077988132
8.97077570489
8.97079059899
8.97082854
8.97089406675
8.97099224994
8.97112860655
8.97130893737
8.97153905657
8.97182436703
8.97216920631
8.97257583556
8.97304284838
8.97356261732
8.97411721807
8.97467266107
8.97517564172
8.97108976773
8.97110248194
8.97112890935
8.97116744931
8.97121694809
8.97127600616
8.97134307324
8.97141653418
8.9714947945
8.97157634797
8.97165983051
8.97174405121
8.97182800899
8.9719108907
8.97199206147
8.97207104383
8.97214749616
8.97222118679
8.97229197218
8.97235977519
8.97242456934
8.97248636481
8.97254520016
8.97260113537
8.97265424904
8.9727046355
8.97275240426
8.97279767816
8.97284059241
8.972881292
8.97291992941
8.97295666099
8.97299164381
8.97302503184
8.9730569729
8.97308760558
8.97311705709
8.97314544147
8.97317285868
8.97319939408
8.97322511862
8.97325008931
8.97327435012
8.97329793295
8.97332085894
8.97334314007
8.97336476508
8.97338585657
8.97340636197
8.97342616005
8.97344517111
8.97346332391
8.97348055574
8.97349681134
8.9735120417
8.97352620291
8.97353925517
8.97355116191
8.97356188909
8.97357140459
8.97357967767
8.97358667856
8.97359237804
8.97359674712
8.97359975676
8.9736013776
8.97360157979
8.97360033272
8.97359760496
8.97359336404
8.97358757643
8.97358020733
8.97357122077
8.97356057938
8.97354824454
8.97353417624
8.97351833331
8.97350067327
8.97348115271
8.97345972716
8.97343635155
8.97341098017
8.97338356717
8.97335406654
8.97332243265
8.97328862016
8.97325258463
8.97321428235
8.97317367086
8.97313070891
8.97308535671
8.97303757675
8.97298733253
8.97293458954
8.97287932002
8.97282148971
8.97276106762
8.97269826455
8.97263311779
8.9725656793
8.97249600663
8.97242418208
8.97235028792
8.97227443286
8.97219674547
8.97211737498
8.97203649645
8.97195431273
8.97187105825
8.97178700353
8.97170246135
8.97161779394
8.97153341917
8.97144984281
8.97136768125
8.97128750975
8.97121002789
8.97113607512
8.97106666353
8.9710030159
8.97094660952
8.97089922487
8.97086299815
8.97084047472
8.97083465988
8.9708490615
8.97088771741
8.97095519824
8.97105657373
8.97119732674
8.97138319408
8.97161990323
8.97191275709
8.97226598546
8.97268171847
8.97315831747
8.97368759139
8.97425017941
8.97480884128
8.97530489074
8.9712556926
8.97126764037
8.97129286328
8.97132957888
8.97137661276
8.97143255834
8.97149587247
8.97156496699
8.97163829701
8.97171443
8.97179209759
8.97187022189
8.97194792661
8.97202452872
8.97209952232
8.9721725521
8.97224338678
8.97231188954
8.97237799349
8.9724416785
8.97250295498
8.97256185048
8.97261840273
8.97267265479
8.97272465469
8.97277445555
8.97282211783
8.97286771043
8.97291131227
8.97295301205
8.9729929077
8.97303110427
8.9730677117
8.97310284163
8.97313660461
8.97316910708
8.97320044902
8.97323072184
8.9732600071
8.97328837551
8.97331588675
8.9733425894
8.9733685216
8.9733937118
8.97341818015
8.97344194114
8.97346498564
8.97348735154
8.97350913095
8.97353018809
8.97355043628
8.97356980193
8.97358822293
8.97360564605
8.97362202515
8.97363731982
8.97365149414
8.97366451563
8.97367635443
8.97368698256
8.97369637338
8.973704501
8.97371133995
8.97371686473
8.97372104959
8.97372386817
8.97372529336
8.973725297
8.97372384986
8.97372092132
8.9737164794
8.97371049053
8.97370291959
8.9736937297
8.97368288234
8.97367033716
8.97365605216
8.97363998352
8.9736220859
8.97360231226
8.97358061427
8.97355694215
8.97353124513
8.97350347136
8.97347356835
8.97344148288
8.97340716153
8.97337055051
8.97333159617
8.97329024489
8.97324644362
8.97320013964
8.97315128143
8.97309981936
8.97304570153
8.9729888955
8.97292934191
8.97286700882
8.97280193817
8.97273429093
8.97266409301
8.97259137906
8.97251623799
8.97243874934
8.97235901477
8.97227717
8.97219337808
8.97210783422
8.9720207722
8.97193246893
8.9718432513
8.9717535039
8.97166367942
8.97157431633
8.97148614104
8.97139980173
8.97131607868
8.97123590015
8.97116037614
8.97109083469
8.97102886361
8.97097635654
8.97093556206
8.97090913331
8.97090017456
8.97091227965
8.97094955564
8.97101662306
8.97111858138
8.97126092494
8.97144938874
8.97168969319
8.97198713771
8.97234595511
8.97276826417
8.97325231276