/*--------------------------------*- C++ -*----------------------------------*\
| =========                 |                                                 |
| \\      /  F ield         | OpenFOAM: The Open Source CFD Toolbox           |
|  \\    /   O peration     | Version:  2206                                  |
|   \\  /    A nd           | Website:  www.openfoam.com                      |
|    \\/     M anipulation  |                                                 |
\*---------------------------------------------------------------------------*/
FoamFile
{
    version     2.0;
    format      ascii;
    arch        "LSB;label=64;scalar=64";
    class       volScalarField;
    location    "3.8/water";
    object      nut.gas;
}
// * * * * * * * * * * * * * * * * * * * * * * * * * * * * * * * * * * * * * //

dimensions      [0 2 -1 0 0 0 0];

internalField   nonuniform List<scalar> 
23300
(
0.000136484740299
0.000134028800921
0.000130884445896
0.000127007024265
0.000122562819351
0.000117691546998
0.000112505683246
0.00010710272362
0.000101567344274
9.59782170184e-05
9.04055101489e-05
8.49143672547e-05
7.95611315506e-05
7.43955468134e-05
6.94575924319e-05
6.47795690318e-05
6.03841719904e-05
5.62868337271e-05
5.2494867878e-05
4.90099246908e-05
4.58277410927e-05
4.29404136904e-05
4.03363306604e-05
3.8002056424e-05
3.59222083431e-05
3.40809073854e-05
3.24615400841e-05
3.10478478255e-05
2.98236104496e-05
2.87734814637e-05
2.78826406611e-05
2.71374555042e-05
2.6525118855e-05
2.60341772578e-05
2.56541483909e-05
2.53759397971e-05
2.51914437582e-05
2.50938742949e-05
2.50773500651e-05
2.51371841255e-05
2.52694741208e-05
2.54713817507e-05
2.57407584327e-05
2.6076467617e-05
2.64781192643e-05
2.69451759805e-05
2.74774342792e-05
2.80756736604e-05
2.87411683587e-05
2.94759370383e-05
3.02823870377e-05
3.11636257288e-05
3.21231339405e-05
3.31651002151e-05
3.42941051098e-05
3.55154680148e-05
3.68349364241e-05
3.82590374848e-05
3.97947660934e-05
4.14499321072e-05
4.3232835218e-05
4.51525934832e-05
4.72187839273e-05
4.94417272288e-05
5.18320588079e-05
5.44009283461e-05
5.71594446371e-05
6.0118725289e-05
6.32891297866e-05
6.66800621873e-05
7.02988708037e-05
7.41502619507e-05
7.82347006716e-05
8.25472474725e-05
8.70752421167e-05
9.17963219336e-05
9.66750864707e-05
0.000101659869017
0.000106677597215
0.000111627677165
0.000116371487088
0.000120716050216
0.000124384906236
0.000126974748684
0.000127929113548
0.000126852270433
0.000124134943948
0.000120309653489
0.000115781588988
0.000110839982341
0.000105689451078
0.000100475461978
9.53016967992e-05
9.02424644947e-05
8.53505435409e-05
8.06629277463e-05
7.62043594412e-05
7.19902710477e-05
6.80286505353e-05
6.43218638548e-05
6.08678411999e-05
5.76613415643e-05
5.4694758098e-05
5.19590037796e-05
4.94440428478e-05
4.71394904491e-05
4.50349446349e-05
4.3120381681e-05
4.13863603818e-05
3.98242929777e-05
3.84265969788e-05
3.71869397682e-05
3.61001663505e-05
3.51621078337e-05
3.43702012242e-05
3.372360897e-05
3.32233320724e-05
3.28723841942e-05
3.26759497853e-05
3.26415730483e-05
3.27792991921e-05
3.31017835733e-05
3.36242687745e-05
3.43644030986e-05
3.5341765308e-05
3.65770295836e-05
3.80906211614e-05
3.99008179322e-05
4.20212426921e-05
4.44578913983e-05
4.72059498608e-05
5.02469521979e-05
5.35469621571e-05
5.70565902569e-05
6.0713239527e-05
6.44448162443e-05
6.81710218434e-05
7.1791751548e-05
7.51391775787e-05
7.78523301112e-05
0.000117873019947
0.000116776195274
0.000114873060938
0.000112306420747
0.000109200584114
0.000105663012244
0.000101787352492
9.76569995589e-05
9.33473946077e-05
8.89277865476e-05
8.4461621893e-05
8.0006789858e-05
7.56150867873e-05
7.13319918069e-05
6.7196157425e-05
6.3239417968e-05
5.94867418456e-05
5.59566732761e-05
5.26617339327e-05
4.9609164526e-05
4.68015530536e-05
4.42376442875e-05
4.19129702665e-05
3.98205576507e-05
3.7951439201e-05
3.62952017459e-05
3.48403643663e-05
3.35747922156e-05
3.24859801119e-05
3.15613770451e-05
3.07886069597e-05
3.01557235094e-05
2.96513691965e-05
2.9264953862e-05
2.89867399755e-05
2.88079385445e-05
2.87207207579e-05
2.87182433116e-05
2.87946058472e-05
2.89448327654e-05
2.91648051647e-05
2.94512286455e-05
2.98015646885e-05
3.02140012844e-05
3.06873785716e-05
3.12205338701e-05
3.18126383398e-05
3.2463516457e-05
3.31735453804e-05
3.39436108005e-05
3.47750458221e-05
3.56696210788e-05
3.66295084708e-05
3.76572889948e-05
3.87559277692e-05
3.99287891513e-05
4.11796144023e-05
4.25125360545e-05
4.39320497915e-05
4.54430184722e-05
4.70506265816e-05
4.87603596875e-05
5.05779236635e-05
5.25091776502e-05
5.45599910197e-05
5.673609716e-05
5.90428486554e-05
6.14849452115e-05
6.40660317938e-05
6.67882364182e-05
6.9651536361e-05
7.26530203745e-05
7.57859265335e-05
7.90385242931e-05
8.23927149098e-05
8.5822428539e-05
8.92916939029e-05
9.27524716976e-05
9.61421100842e-05
9.93804802368e-05
0.000102366602044
0.000104975045032
0.00010705333868
0.00010842596452
0.000108920366949
0.00010844272949
0.000107060530005
0.000104933047343
0.000102236943178
9.91324085449e-05
9.57525670888e-05
9.22036228442e-05
8.85687909709e-05
8.49128887634e-05
8.12862466866e-05
7.77277743694e-05
7.4267217959e-05
7.0926901806e-05
6.77230636035e-05
6.46669735101e-05
6.17658525515e-05
5.90236849659e-05
5.64418999763e-05
5.40199785908e-05
5.17559582643e-05
4.96468774019e-05
4.76891402614e-05
4.58788375369e-05
4.4212010567e-05
4.26848889452e-05
4.12940946334e-05
4.00368374944e-05
3.89110236528e-05
3.79150807377e-05
3.70484190594e-05
3.63115553895e-05
3.57062203847e-05
3.52354578167e-05
3.49036997864e-05
3.47168081647e-05
3.4682051979e-05
3.48079938496e-05
3.51042382512e-05
3.55809973596e-05
3.6248416459e-05
3.71156159135e-05
3.81894174743e-05
3.94727739365e-05
4.0962982627e-05
4.26498734018e-05
4.45142828068e-05
4.65272819455e-05
4.865076744e-05
5.08401786357e-05
5.30502582061e-05
5.52450677588e-05
5.74142230203e-05
5.95998185347e-05
6.19475949179e-05
6.48155159917e-05
0.000104257747336
0.000103655730105
0.000102451286793
0.000100716431286
9.85230443832e-05
9.59406385503e-05
9.30358295776e-05
8.9872351e-05
8.65111043449e-05
8.30100681989e-05
7.94239506574e-05
7.58036991708e-05
7.21959182595e-05
6.86423553012e-05
6.51794972164e-05
6.18383695591e-05
5.86445202006e-05
5.56182023234e-05
5.27746963859e-05
5.01247467506e-05
4.76750477423e-05
4.54287535957e-05
4.3385968315e-05
4.15442073694e-05
3.9898814708e-05
3.84433436152e-05
3.71699030099e-05
3.60694818761e-05
3.51322565121e-05
3.43478850444e-05
3.37057877129e-05
3.31954065008e-05
3.28064384541e-05
3.25290324668e-05
3.23539474668e-05
3.2272665717e-05
3.22774669266e-05
3.23614624573e-05
3.25186010085e-05
3.27436474246e-05
3.30321470351e-05
3.33803755129e-05
3.37852831802e-05
3.42444279314e-05
3.47558989271e-05
3.53183147578e-05
3.59304169376e-05
3.65914493199e-05
3.73011139874e-05
3.80595249459e-05
3.88671696536e-05
3.97248764398e-05
4.06337895962e-05
4.1595348168e-05
4.26112685925e-05
4.36835279267e-05
4.48143469552e-05
4.60061705706e-05
4.72616435719e-05
4.8583579466e-05
4.99749188771e-05
5.14386748644e-05
5.29778598501e-05
5.45953907466e-05
5.62939648576e-05
5.80759021855e-05
5.99429445754e-05
6.18960064186e-05
6.39348654737e-05
6.60577880321e-05
6.8261075982e-05
7.05385311465e-05
7.28808265258e-05
7.52747865596e-05
7.77025773853e-05
8.01408305975e-05
8.25597338031e-05
8.49221607904e-05
8.7182940951e-05
8.92884319961e-05
9.11766240607e-05
9.27781576044e-05
9.40189075935e-05
9.48253900458e-05
9.51354860453e-05
9.49162322816e-05
9.41796791736e-05
9.29755786304e-05
9.13733233174e-05
8.94475598331e-05
8.72694905573e-05
8.49029120952e-05
8.24031388898e-05
7.98173219255e-05
7.7185260022e-05
7.45402871192e-05
7.19100824711e-05
6.93173849001e-05
6.67806240221e-05
6.43144926014e-05
6.19304707542e-05
5.96373105904e-05
5.74414809939e-05
5.53475739613e-05
5.33586712232e-05
5.14766729863e-05
4.97025902557e-05
4.80368042965e-05
4.6479296625e-05
4.5029853269e-05
4.36882462032e-05
4.24543944873e-05
4.13285679189e-05
4.03113654923e-05
3.94038897075e-05
3.86078495208e-05
3.79256357941e-05
3.73603639627e-05
3.69158735993e-05
3.65966687761e-05
3.64077781611e-05
3.63545087243e-05
3.64420638668e-05
3.66749965109e-05
3.70564734182e-05
3.75873413552e-05
3.82650126943e-05
3.9082230491e-05
4.00258326131e-05
4.10757094029e-05
4.2204233993e-05
4.33765309202e-05
4.45520305656e-05
4.56878371206e-05
4.6744526516e-05
4.76950692568e-05
4.85374483255e-05
4.93109218277e-05
5.01230479227e-05
5.10303145298e-05
9.56987127709e-05
9.52295387655e-05
9.43036940865e-05
9.29543709399e-05
9.1224694838e-05
8.91627166041e-05
8.68185741075e-05
8.4242798381e-05
8.14851987738e-05
7.85940210413e-05
7.56152410822e-05
7.25919438256e-05
6.95637950722e-05
6.65666244622e-05
6.36321460765e-05
6.07878215251e-05
5.80568657927e-05
5.54583710578e-05
5.30075263123e-05
5.07158943379e-05
4.85917225016e-05
4.66402557516e-05
4.48640432024e-05
4.32632232402e-05
4.18357962042e-05
4.05778821583e-05
3.94839814125e-05
3.85472358119e-05
3.77597046076e-05
3.71126434015e-05
3.65967904485e-05
3.62026392485e-05
3.59206969167e-05
3.57417059618e-05
3.56568329019e-05
3.56578075899e-05
3.573702475e-05
3.58875988921e-05
3.61033899377e-05
3.63789943525e-05
3.67097202212e-05
3.7091540577e-05
3.75210408291e-05
3.79953519985e-05
3.85120826758e-05
3.90698135364e-05
3.96670773097e-05
4.03028089149e-05
4.09763148063e-05
4.16872352628e-05
4.24355126704e-05
4.32213592898e-05
4.40452323552e-05
4.49078086357e-05
4.58099642878e-05
4.6752752427e-05
4.77373830404e-05
4.87651982083e-05
4.98376461427e-05
5.09562473864e-05
5.21225554719e-05
5.33381054771e-05
5.46043514706e-05
5.59225861326e-05
5.72938422517e-05
5.87187691625e-05
6.01974827515e-05
6.1729382048e-05
6.33129304362e-05
6.49453949742e-05
6.66225422731e-05
6.83382864477e-05
7.00842909065e-05
7.1849526421e-05
7.36197987738e-05
7.537726807e-05
7.71000029793e-05
7.87616359243e-05
8.03312208917e-05
8.17734316551e-05
8.30492797665e-05
8.41175624575e-05
8.49372675634e-05
8.54711338087e-05
8.56904145733e-05
8.55801807771e-05
8.51428813627e-05
8.43976703259e-05
8.33750527864e-05
8.21114047018e-05
8.06447870086e-05
7.90122530772e-05
7.72483945864e-05
7.53846965387e-05
7.34493473653e-05
7.1467278267e-05
6.94603126106e-05
6.74473670197e-05
6.54446796716e-05
6.34660520484e-05
6.15230978551e-05
5.96254916965e-05
5.77812138194e-05
5.59967852735e-05
5.42774918785e-05
5.26275935898e-05
5.10505197896e-05
4.95490488501e-05
4.81254735347e-05
4.67817508513e-05
4.55196368503e-05
4.4340802451e-05
4.32470579028e-05
4.22404771812e-05
4.13233218234e-05
4.04981034866e-05
3.9767615678e-05
3.9134923918e-05
3.86033032005e-05
3.81761070973e-05
3.78565518738e-05
3.76473957653e-05
3.75504956074e-05
3.7566225925e-05
3.76927565926e-05
3.79252011867e-05
3.82546755235e-05
3.86673411848e-05
3.91435550863e-05
3.96572961261e-05
4.01760902603e-05
4.06616942158e-05
4.1071819878e-05
4.13631791174e-05
4.14960984553e-05
4.14408400056e-05
4.11853193212e-05
4.07430641548e-05
4.0180687028e-05
3.94976153198e-05
8.90296256965e-05
8.86543087296e-05
8.79143375297e-05
8.68309211086e-05
8.54332193421e-05
8.37559069991e-05
8.18370761275e-05
7.97165640258e-05
7.74346412708e-05
7.50309664268e-05
7.25437546021e-05
7.00091148263e-05
6.7460547249e-05
6.49285818546e-05
6.24405582614e-05
6.00205246462e-05
5.7689244903e-05
5.54642813926e-05
5.33601357607e-05
5.13884145719e-05
4.95580087405e-05
4.78752647431e-05
4.63441517563e-05
4.49664172259e-05
4.37417482361e-05
4.2667938651e-05
4.17410822379e-05
4.09557873463e-05
4.0305425385e-05
3.97823967999e-05
3.93784161117e-05
3.90847905116e-05
3.8892689642e-05
3.87933811711e-05
3.87784348342e-05
3.88398768787e-05
3.89703062601e-05
3.91629624402e-05
3.94117623036e-05
3.97113001912e-05
4.0056830065e-05
4.04442240362e-05
4.0869924524e-05
4.13308831396e-05
4.18245023278e-05
4.23493911604e-05
4.29040605971e-05
4.34873465427e-05
4.40983832242e-05
4.47365706426e-05
4.54015474365e-05
4.60931616716e-05
4.68114476583e-05
4.75566010811e-05
4.83289589369e-05
4.91289769521e-05
4.99572097283e-05
5.08142868052e-05
5.1700888824e-05
5.26177174682e-05
5.35654623697e-05
5.45447590039e-05
5.55561398081e-05
5.65999727586e-05
5.76763888059e-05
5.87851926154e-05
5.99257574737e-05
6.10968992341e-05
6.22967301562e-05
6.35224884873e-05
6.47703456117e-05
6.60351889403e-05
6.73103856468e-05
6.85875313118e-05
6.98561974814e-05
7.11036961555e-05
7.23148949331e-05
7.34721274323e-05
7.45552643547e-05
7.55420221614e-05
7.64085972963e-05
7.71307000595e-05
7.76850257787e-05
7.80511154236e-05
7.82134223389e-05
7.81631843452e-05
7.7899480194e-05
7.74291048237e-05
7.67653863396e-05
7.59257881088e-05
7.49300944633e-05
7.37989860947e-05
7.2553044051e-05
7.12121063118e-05
6.9794878009e-05
6.83187107052e-05
6.67994949158e-05
6.52516273235e-05
6.36880309122e-05
6.21202107146e-05
6.05583358604e-05
5.90113379254e-05
5.7487020942e-05
5.5992176462e-05
5.45327016695e-05
5.31137161293e-05
5.17396767833e-05
5.04144880117e-05
4.91416069258e-05
4.79241407291e-05
4.67649349242e-05
4.56666460075e-05
4.46319393064e-05
4.36637297185e-05
4.27649206944e-05
4.19384232664e-05
4.11871440991e-05
4.05139296997e-05
3.99214554248e-05
3.94120451961e-05
3.89874090153e-05
3.8648284224e-05
3.83939710024e-05
3.82217576167e-05
3.81262435647e-05
3.80985845828e-05
3.8125708208e-05
3.81895773413e-05
3.82666147195e-05
3.83274358864e-05
3.83370701317e-05
3.82558677614e-05
3.80412956684e-05
3.76508105484e-05
3.70459873374e-05
3.61980824646e-05
3.50951364979e-05
3.37501894672e-05
3.2216096146e-05
3.05240177063e-05
8.37601768821e-05
8.34543969345e-05
8.28508996158e-05
8.19650846553e-05
8.08184378876e-05
7.94372220506e-05
7.78510710577e-05
7.60916700762e-05
7.41915999347e-05
7.21833584612e-05
7.00985698017e-05
6.79673633511e-05
6.58179191378e-05
6.36761544748e-05
6.15655416739e-05
5.95070245726e-05
5.75190172538e-05
5.56174497054e-05
5.3815845481e-05
5.21254029174e-05
5.05550767731e-05
4.9111645985e-05
4.77997800137e-05
4.66221023549e-05
4.55792736597e-05
4.46700963554e-05
4.38916616556e-05
4.32395325984e-05
4.2707973163e-05
4.22902037401e-05
4.1978682053e-05
4.17653813771e-05
4.16420624241e-05
4.16005121959e-05
4.16327522133e-05
4.17311974648e-05
4.18887774252e-05
4.20990085767e-05
4.23560359298e-05
4.26546372535e-05
4.29902090823e-05
4.33587287234e-05
4.37567098467e-05
4.41811452626e-05
4.46294539761e-05
4.51002808428e-05
4.5592270138e-05
4.61043229011e-05
4.66355732192e-05
4.71853603808e-05
4.77532062113e-05
4.83387897959e-05
4.89419275064e-05
4.95625508891e-05
5.0200689021e-05
5.08564484279e-05
5.15299959961e-05
5.22215385222e-05
5.29313033279e-05
5.36595141424e-05
5.44063658271e-05
5.51719926315e-05
5.59564328213e-05
5.67595847686e-05
5.75811567692e-05
5.84206060908e-05
5.9277069226e-05
6.01492794583e-05
6.10354739051e-05
6.19332872069e-05
6.28396350252e-05
6.37505865548e-05
6.46612317773e-05
6.55655468414e-05
6.6456268993e-05
6.73247926636e-05
6.81611086732e-05
6.89538110063e-05
6.96902061919e-05
7.0356559739e-05
7.0938515045e-05
7.14217019919e-05
7.17925267531e-05
7.20390847039e-05
7.21520854674e-05
7.21256244414e-05
7.19576242802e-05
7.16497880335e-05
7.1207327255e-05
7.06383293484e-05
6.99527396746e-05
6.91616710346e-05
6.82768386485e-05
6.73101262195e-05
6.62732683832e-05
6.51776242168e-05
6.40340228019e-05
6.28526624794e-05
6.16430530195e-05
6.04139891844e-05
5.91735499198e-05
5.79291153834e-05
5.66873988612e-05
5.54544880675e-05
5.42358946067e-05
5.30366074988e-05
5.186115042e-05
5.07136392103e-05
4.95978394254e-05
4.85172202542e-05
4.74750029017e-05
4.64741959296e-05
4.55177284774e-05
4.46088057516e-05
4.3750505724e-05
4.29457594657e-05
4.21973011402e-05
4.15075748543e-05
4.08785877626e-05
4.03116972779e-05
3.98073227976e-05
3.9364572653e-05
3.89807829107e-05
3.86509707149e-05
3.83672178052e-05
3.81180147197e-05
3.788761824e-05
3.76554986374e-05
3.73959822047e-05
3.70782219768e-05
3.66666556251e-05
3.61221270201e-05
3.54038578256e-05
3.44724596549e-05
3.32941981931e-05
3.18467910757e-05
3.01271162511e-05
2.81608825508e-05
2.60145049316e-05
2.37653213526e-05
7.95699468852e-05
7.93174865091e-05
7.88188249305e-05
7.80858521475e-05
7.71352545553e-05
7.59876807462e-05
7.466674197e-05
7.31979903304e-05
7.16079698975e-05
6.99233821394e-05
6.81704014994e-05
6.63741373388e-05
6.45582465141e-05
6.27446714218e-05
6.09534915621e-05
5.92028533051e-05
5.75089600451e-05
5.58860876591e-05
5.4346613372e-05
5.29010337886e-05
5.15579750408e-05
5.03241864732e-05
4.92045363288e-05
4.82020121149e-05
4.73177513189e-05
4.65511050627e-05
4.5899755385e-05
4.53598776463e-05
4.49263560445e-05
4.45930297366e-05
4.43529669765e-05
4.41987374839e-05
4.41226790579e-05
4.41171313747e-05
4.41746398027e-05
4.42881106407e-05
4.44509295114e-05
4.46570322605e-05
4.490094593e-05
4.51777932784e-05
4.54832797992e-05
4.5813657183e-05
4.61656804255e-05
4.65365512866e-05
4.69238625643e-05
4.73262480448e-05
4.77426279448e-05
4.81720887375e-05
4.86138859402e-05
4.90674256559e-05
4.95322470357e-05
5.00080011848e-05
5.04944350151e-05
5.09913728989e-05
5.1498702658e-05
5.20163592603e-05
5.25443116949e-05
5.30825470269e-05
5.3631056183e-05
5.41898160763e-05
5.475877187e-05
5.53378145432e-05
5.59267569569e-05
5.65253040711e-05
5.71330200721e-05
5.77492885425e-05
5.83732682374e-05
5.90038412042e-05
5.96395559963e-05
6.02785636302e-05
6.09185498048e-05
6.15566625486e-05
6.21894405157e-05
6.28127437118e-05
6.34216950642e-05
6.40106388873e-05
6.4573129528e-05
6.51019615314e-05
6.55892588865e-05
6.60266362447e-05
6.64054454557e-05
6.6717107377e-05
6.6953518021e-05
6.71074940085e-05
6.71732063075e-05
6.71465356243e-05
6.70252946314e-05
6.68092885324e-05
6.65001148793e-05
6.61010838732e-05
6.56169389489e-05
6.50533807218e-05
6.44167709759e-05
6.37138800762e-05
6.29516832286e-05
6.2137199903e-05
6.12773708952e-05
6.0378964708e-05
5.94485098745e-05
5.84922470221e-05
5.75160988923e-05
5.65256533495e-05
5.55261585918e-05
5.45225265729e-05
5.35193445267e-05
5.25208912084e-05
5.15311579622e-05
5.055387141e-05
4.9592517681e-05
4.86503646452e-05
4.77304804738e-05
4.68357411885e-05
4.59688677508e-05
4.51329110255e-05
4.43307374222e-05
4.35649769144e-05
4.28379418023e-05
4.21515051357e-05
4.1506929116e-05
4.09046331151e-05
4.03438945869e-05
3.9822477456e-05
3.93361892538e-05
3.88783747753e-05
3.84393668082e-05
3.80059283746e-05
3.75607409223e-05
3.70820139152e-05
3.65433166973e-05
3.59137581996e-05
3.51586660936e-05
3.42409395869e-05
3.31232716843e-05
3.17714580434e-05
3.01590465298e-05
2.82736617787e-05
2.61254679542e-05
2.37580657586e-05
2.12606583913e-05
1.87536082021e-05
7.62182466868e-05
7.60079288624e-05
7.55923220263e-05
7.49809641204e-05
7.41872654839e-05
7.32279094518e-05
7.21220880259e-05
7.08906879166e-05
6.95555161445e-05
6.81386078925e-05
6.66616583457e-05
6.51455785745e-05
6.36101822029e-05
6.20739782437e-05
6.05540581594e-05
5.90660411455e-05
5.76240606878e-05
5.62407586838e-05
5.49272786919e-05
5.36932379047e-05
5.25466859538e-05
5.14940463901e-05
5.05400638198e-05
4.96877620189e-05
4.89384406448e-05
4.8291712872e-05
4.77456038891e-05
4.72966994895e-05
4.69403509591e-05
4.66709115483e-05
4.64820009877e-05
4.63667674169e-05
4.63181431022e-05
4.63290671344e-05
4.63926788371e-05
4.65024636996e-05
4.66523641739e-05
4.68368447413e-05
4.70509289425e-05
4.72902016425e-05
4.75507954112e-05
4.78293549337e-05
4.81229970991e-05
4.84292611842e-05
4.87460686682e-05
4.90717318053e-05
4.94057960643e-05
4.974755733e-05
5.00964574893e-05
5.04520504527e-05
5.08139818159e-05
5.11819695389e-05
5.15557911555e-05
5.19352694332e-05
5.23202624752e-05
5.27106516604e-05
5.31063328173e-05
5.3507204873e-05
5.39131605933e-05
5.43240743079e-05
5.47397905589e-05
5.51601091499e-05
5.55847700083e-05
5.60134338533e-05
5.64456617164e-05
5.68808897843e-05
5.73184024452e-05
5.77573005382e-05
5.8196467795e-05
5.86345331759e-05
5.90698325786e-05
5.95003686414e-05
5.99237731245e-05
6.03372720976e-05
6.0737660054e-05
6.11212852197e-05
6.14840542057e-05
6.18214601717e-05
6.21286436186e-05
6.24004893077e-05
6.26317648717e-05
6.28172973209e-05
6.29521813966e-05
6.30320010781e-05
6.30530427922e-05
6.30124713412e-05
6.29084489961e-05
6.27401880008e-05
6.2507950087e-05
6.22128256321e-05
6.18567614447e-05
6.14425070789e-05
6.0973339306e-05
6.04529210966e-05
5.98851822664e-05
5.92742206389e-05
5.86242238339e-05
5.79394047652e-05
5.72239503788e-05
5.64819801024e-05
5.57175146532e-05
5.49344521208e-05
5.41365520886e-05
5.33274249202e-05
5.25105269873e-05
5.16891590535e-05
5.08664683852e-05
5.00454516814e-05
4.92289589795e-05
4.84196952649e-05
4.76202187847e-05
4.68329304663e-05
4.60600499352e-05
4.53040918948e-05
4.45674236157e-05
4.38521288628e-05
4.31599026834e-05
4.24919105473e-05
4.1848602189e-05
4.1229471203e-05
4.06327561856e-05
4.00550812574e-05
3.94910408609e-05
3.89327403581e-05
3.83693163638e-05
3.77864737837e-05
3.71660949936e-05
3.64859956739e-05
3.57199252096e-05
3.48379331259e-05
3.38072500931e-05
3.25938595283e-05
3.11649671015e-05
2.94926094523e-05
2.75586890185e-05
2.53617948113e-05
2.2926284e-05
2.03140202689e-05
1.76374281967e-05
1.50530956576e-05
7.3520834622e-05
7.33446877665e-05
7.29965408419e-05
7.24842458171e-05
7.18188356909e-05
7.10140558247e-05
7.00857427711e-05
6.90511510357e-05
6.79283111713e-05
6.67354583205e-05
6.54905705596e-05
6.421101516e-05
6.29133092131e-05
6.16129683842e-05
6.03244316958e-05
5.90610260563e-05
5.78349549393e-05
5.6657279368e-05
5.55378863357e-05
5.44854278733e-05
5.35072434325e-05
5.26092649681e-05
5.17959311769e-05
5.10701177927e-05
5.04331125878e-05
4.98846364876e-05
4.94229296879e-05
4.90448898069e-05
4.87462668678e-05
4.8521888761e-05
4.83659133459e-05
4.82720763195e-05
4.82339320977e-05
4.82450615126e-05
4.82992511897e-05
4.83906269602e-05
4.85137543051e-05
4.86636952861e-05
4.88360397383e-05
4.90269036829e-05
4.92329135714e-05
4.94511697616e-05
4.96792060801e-05
4.99149380853e-05
5.01566146636e-05
5.0402764486e-05
5.06529848082e-05
5.09069114977e-05
5.11642510032e-05
5.14247680073e-05
5.16882741257e-05
5.19546142029e-05
5.2223658327e-05
5.24952921908e-05
5.27694117002e-05
5.30459153174e-05
5.33246994744e-05
5.36056514937e-05
5.38886446782e-05
5.41735306795e-05
5.44601331764e-05
5.47482385471e-05
5.503758709e-05
5.53278609824e-05
5.56186722044e-05
5.59095470666e-05
5.61999104049e-05
5.648906652e-05
5.67761799582e-05
5.70602537176e-05
5.73401082476e-05
5.76143594693e-05
5.78813997273e-05
5.81393807267e-05
5.83862031477e-05
5.86195129164e-05
5.88367095937e-05
5.90349674297e-05
5.92112745059e-05
5.93624896101e-05
5.94854200164e-05
5.95769160503e-05
5.96339802666e-05
5.96538808583e-05
5.96342610327e-05
5.9573230083e-05
5.94694284425e-05
5.93220603654e-05
5.9130902509e-05
5.8896303753e-05
5.86189638662e-05
5.82999545505e-05
5.79408644778e-05
5.75435792305e-05
5.71102063652e-05
5.66430124237e-05
5.61443772766e-05
5.56167562987e-05
5.50626491386e-05
5.44845723929e-05
5.38850376918e-05
5.32665328355e-05
5.26315075349e-05
5.19823614623e-05
5.13214358943e-05
5.06510065033e-05
4.99732781566e-05
4.9290379014e-05
4.8604354258e-05
4.79171563911e-05
4.72306314475e-05
4.65464959052e-05
4.58662985663e-05
4.51917429095e-05
4.45245062906e-05
4.38659569341e-05
4.32170349916e-05
4.25781011713e-05
4.19487444801e-05
4.13275418065e-05
4.07117673868e-05
4.00970526807e-05
3.9477004381e-05
3.88427948668e-05
3.81827513541e-05
3.74819822344e-05
3.67220962897e-05
3.58810880417e-05
3.49334843094e-05
3.38508696051e-05
3.26029354186e-05
3.1159228961e-05
2.94918151227e-05
2.75791105633e-05
2.54112065881e-05
2.29970755251e-05
2.03741643535e-05
1.76208436329e-05
1.48704973527e-05
1.23099096907e-05
7.13336410521e-05
7.11858602782e-05
7.08937792662e-05
7.04639742159e-05
6.99056636111e-05
6.92303184425e-05
6.84511314403e-05
6.75824402526e-05
6.66391855528e-05
6.5636437887e-05
6.45890291031e-05
6.35112821064e-05
6.24168421074e-05
6.13185807554e-05
6.02285599754e-05
5.91580186597e-05
5.81173680936e-05
5.71161661679e-05
5.61630691119e-05
5.52657473112e-05
5.44307819838e-05
5.36635449248e-05
5.29680904638e-05
5.23470673081e-05
5.18016793262e-05
5.13316953783e-05
5.09355259779e-05
5.06103518481e-05
5.03523082091e-05
5.01566973554e-05
5.00182259205e-05
4.99312361469e-05
4.98899295777e-05
4.98885577411e-05
4.9921585876e-05
4.998381257e-05
5.00704589079e-05
5.01772165678e-05
5.0300272657e-05
5.04363038947e-05
5.05824584807e-05
5.07363186262e-05
5.08958601581e-05
5.10594011839e-05
5.12255537536e-05
5.139317101e-05
5.15617574409e-05
5.17312965927e-05
5.19017825309e-05
5.20732187294e-05
5.22456127393e-05
5.24189671946e-05
5.25932765398e-05
5.27685222238e-05
5.29446719368e-05
5.31216763262e-05
5.32994684447e-05
5.34779605147e-05
5.36570427241e-05
5.38365793275e-05
5.40164061706e-05
5.41963254582e-05
5.43761014326e-05
5.45554532604e-05
5.47340484922e-05
5.49114938012e-05
5.50873261969e-05
5.52610017822e-05
5.54318852264e-05
5.55992373804e-05
5.57622043354e-05
5.59198057443e-05
5.60709259775e-05
5.62143063665e-05
5.63485424574e-05
5.6472084923e-05
5.65832483025e-05
5.66802263053e-05
5.6761117583e-05
5.68239599908e-05
5.68667759014e-05
5.68876246454e-05
5.68846621167e-05
5.68562009212e-05
5.68007686407e-05
5.67171560952e-05
5.66044531697e-05
5.6462066528e-05
5.62897232431e-05
5.60874667102e-05
5.58556647836e-05
5.55948371008e-05
5.53054913362e-05
5.49885558136e-05
5.46451339581e-05
5.42764324022e-05
5.38837376651e-05
5.34683941932e-05
5.30317858988e-05
5.25753206422e-05
5.21004182787e-05
5.1608499517e-05
5.11009772787e-05
5.05792484471e-05
5.00446875206e-05
4.94986398759e-05
4.89424156355e-05
4.83772815106e-05
4.78044510456e-05
4.72250703404e-05
4.66401988535e-05
4.6050780454e-05
4.54575991093e-05
4.48614018084e-05
4.42630664133e-05
4.36631466743e-05
4.30617468925e-05
4.24583670863e-05
4.18517114338e-05
4.12394543252e-05
4.06179639794e-05
3.99819863295e-05
3.93242990689e-05
3.86353521613e-05
3.79029225093e-05
3.71118219094e-05
3.6243713399e-05
3.5277107289e-05
3.41876284398e-05
3.29486677069e-05
3.15325575361e-05
2.9912444033e-05
2.80650717623e-05
2.59747550874e-05
2.36388887116e-05
2.10754558387e-05
1.83331275468e-05
1.55045414927e-05
1.27416770118e-05
1.02573767088e-05
6.95412110317e-05
6.94175416768e-05
6.91731546085e-05
6.88136112837e-05
6.83466780318e-05
6.77819855579e-05
6.71305579167e-05
6.64043037662e-05
6.56155511077e-05
6.47766562583e-05
6.38997174542e-05
6.29963811986e-05
6.2077740916e-05
6.11542952837e-05
6.0235951566e-05
5.93320363313e-05
5.84513007621e-05
5.76018925716e-05
5.67912967513e-05
5.60262348362e-05
5.53125431263e-05
5.46550343205e-05
5.40573737669e-05
5.35219782069e-05
5.30499661039e-05
5.26411582201e-05
5.22941452691e-05
5.20064060706e-05
5.17744795695e-05
5.15941626497e-05
5.1460730789e-05
5.13691513177e-05
5.13142889907e-05
5.1291079203e-05
5.12946760018e-05
5.13205581594e-05
5.13646073899e-05
5.14231480328e-05
5.14929659517e-05
5.15712988785e-05
5.16558163078e-05
5.17445816131e-05
5.18360126648e-05
5.19288328876e-05
5.20220265872e-05
5.21147899145e-05
5.22065370484e-05
5.22975091985e-05
5.23879901245e-05
5.24782301603e-05
5.25684422119e-05
5.26587963066e-05
5.27494209003e-05
5.28404029508e-05
5.29317918135e-05
5.30236002558e-05
5.31158077486e-05
5.32083607195e-05
5.33011745494e-05
5.33941327125e-05
5.34870872801e-05
5.35798566921e-05
5.36722245835e-05
5.37639360078e-05
5.3854694557e-05
5.39441570839e-05
5.40319293571e-05
5.41175596505e-05
5.42005335386e-05
5.42802671532e-05
5.43561022157e-05
5.44273003354e-05
5.44930400092e-05
5.45524140277e-05
5.46044308638e-05
5.46480178908e-05
5.46820300422e-05
5.47052616826e-05
5.47164650216e-05
5.47143723176e-05
5.46977243813e-05
5.46653015562e-05
5.46159584092e-05
5.4548657096e-05
5.44624996244e-05
5.43567535436e-05
5.42308713856e-05
5.40844993099e-05
5.39174771589e-05
5.37298298851e-05
5.35217605182e-05
5.32936548152e-05
5.30460500477e-05
5.27790285054e-05
5.24932217471e-05
5.21892743192e-05
5.18678722158e-05
5.15297286716e-05
5.11755641939e-05
5.08060947922e-05
5.04220263143e-05
5.0024049009e-05
4.96128337563e-05
4.91890276903e-05
4.87532507795e-05
4.83060911674e-05
4.78481003625e-05
4.73797856725e-05
4.69016003438e-05
4.64139285508e-05
4.59170650469e-05
4.5411185038e-05
4.48962987503e-05
4.43721421839e-05
4.38387565657e-05
4.32958447279e-05
4.27426461667e-05
4.21777840518e-05
4.15990794877e-05
4.10033288279e-05
4.03860454392e-05
3.97411702835e-05
3.90607627956e-05
3.83346896753e-05
3.75503399727e-05
3.66924054317e-05
3.5742779825e-05
3.46806458398e-05
3.34828368319e-05
3.21245808908e-05
3.05807612225e-05
2.88278608007e-05
2.68468092339e-05
2.46270223325e-05
2.21720333495e-05
1.95072700926e-05
1.66907293605e-05
1.38273321594e-05
1.10859314313e-05
8.70289143187e-06
6.80485604915e-05
6.79459166517e-05
6.77431395406e-05
6.74449419906e-05
6.70578699851e-05
6.65899947813e-05
6.60504819334e-05
6.5449132675e-05
6.47959812369e-05
6.41009748066e-05
6.33737620701e-05
6.26235721984e-05
6.18591784128e-05
6.10889096479e-05
6.03206935483e-05
5.95620922008e-05
5.88203192379e-05
5.81022122096e-05
5.74141659151e-05
5.67620192329e-05
5.61509192025e-05
5.558516857e-05
5.50680896218e-05
5.46019120224e-05
5.41877136388e-05
5.3825411624e-05
5.3513819906e-05
5.32507552604e-05
5.30331952845e-05
5.28574599476e-05
5.27194146582e-05
5.26146651623e-05
5.25387452463e-05
5.24872732094e-05
5.24560852002e-05
5.24413289014e-05
5.24395319942e-05
5.24476345014e-05
5.24630026607e-05
5.24834161362e-05
5.25070463985e-05
5.25324185404e-05
5.25583724557e-05
5.25840148597e-05
5.26086755828e-05
5.26318604335e-05
5.26532171553e-05
5.26728107142e-05
5.26912638082e-05
5.27090843924e-05
5.27266893004e-05
5.27444114102e-05
5.27625078698e-05
5.27811654506e-05
5.28005091404e-05
5.28206074261e-05
5.28414793536e-05
5.28630980792e-05
5.28853957708e-05
5.29082653517e-05
5.29315634338e-05
5.29551103991e-05
5.29786915528e-05
5.30020556945e-05
5.30249147537e-05
5.3046941152e-05
5.30677663708e-05
5.30869776239e-05
5.31041160361e-05
5.31186734054e-05
5.31300909416e-05
5.3137757198e-05
5.31410086252e-05
5.31391300589e-05
5.31313586079e-05
5.31168882709e-05
5.3094878703e-05
5.30644653248e-05
5.30247739437e-05
5.29749366962e-05
5.2914111936e-05
5.2841504246e-05
5.27563864882e-05
5.26581194956e-05
5.25461709039e-05
5.24201287352e-05