/*--------------------------------*- C++ -*----------------------------------*\
| =========                 |                                                 |
| \\      /  F ield         | OpenFOAM: The Open Source CFD Toolbox           |
|  \\    /   O peration     | Version:  2206                                  |
|   \\  /    A nd           | Website:  www.openfoam.com                      |
|    \\/     M anipulation  |                                                 |
\*---------------------------------------------------------------------------*/
FoamFile
{
    version     2.0;
    format      ascii;
    arch        "LSB;label=64;scalar=64";
    class       volScalarField;
    location    "3.8/water";
    object      p;
}
// * * * * * * * * * * * * * * * * * * * * * * * * * * * * * * * * * * * * * //

dimensions      [1 -1 -2 0 0 0 0];

internalField   nonuniform List<scalar> 
23300
(
100731.911968
100731.969041
100731.959044
100731.945072
100731.927371
100731.906392
100731.882683
100731.856856
100731.829507
100731.801239
100731.772615
100731.744148
100731.716291
100731.689399
100731.663762
100731.63954
100731.616845
100731.595654
100731.575931
100731.55752
100731.540296
100731.524043
100731.508618
100731.493821
100731.479553
100731.465681
100731.452194
100731.439051
100731.426333
100731.414089
100731.402473
100731.391592
100731.381641
100731.372747
100731.365106
100731.358834
100731.354097
100731.350975
100731.349586
100731.34996
100731.352161
100731.356163
100731.361976
100731.369525
100731.378753
100731.389524
100731.401743
100731.415251
100731.42992
100731.445558
100731.462005
100731.479046
100731.496499
100731.514135
100731.531761
100731.54914
100731.566076
100731.582335
100731.597723
100731.612016
100731.625032
100731.636562
100731.646441
100731.65448
100731.660536
100731.664448
100731.666096
100731.665349
100731.662118
100731.656307
100731.647864
100731.636737
100731.622922
100731.606425
100731.587311
100731.565672
100731.541672
100731.515527
100731.487542
100731.458093
100731.427653
100731.396737
100731.365831
100731.335142
100731.304542
100731.274032
100731.244088
100731.215109
100731.187025
100731.159498
100731.132167
100731.104728
100731.07696
100731.048719
100731.019938
100730.990606
100730.960767
100730.930503
100730.899929
100730.869179
100730.838405
100730.807764
100730.77742
100730.747529
100730.71825
100730.689725
100730.662093
100730.635475
100730.609984
100730.58571
100730.562732
100730.541107
100730.520879
100730.50207
100730.48469
100730.46873
100730.45417
100730.440974
100730.429098
100730.418485
100730.409081
100730.400826
100730.393674
100730.387591
100730.382571
100730.37864
100730.375867
100730.374365
100730.374293
100730.375837
100730.379195
100730.384528
100730.391917
100730.401288
100730.412344
100730.424475
100730.436657
100730.447343
100730.45449
100730.520611
100723.919949
100723.978596
100723.974217
100723.966793
100723.956686
100723.944212
100723.929706
100723.913546
100723.8961
100723.877729
100723.85876
100723.83947
100723.820089
100723.80077
100723.78162
100723.76266
100723.743884
100723.725207
100723.706544
100723.687754
100723.668727
100723.649324
100723.629466
100723.609068
100723.588127
100723.566644
100723.54471
100723.522422
100723.499956
100723.477481
100723.455231
100723.433408
100723.412261
100723.39199
100723.372819
100723.354914
100723.338451
100723.32354
100723.310299
100723.298778
100723.289032
100723.281053
100723.274838
100723.270329
100723.267467
100723.266142
100723.266257
100723.267674
100723.270268
100723.273878
100723.278359
100723.283533
100723.289244
100723.295309
100723.301567
100723.307837
100723.313965
100723.319779
100723.325137
100723.329886
100723.333902
100723.337057
100723.339251
100723.340383
100723.340384
100723.339183
100723.336741
100723.333018
100723.328007
100723.321696
100723.314105
100723.305249
100723.295171
100723.283907
100723.271515
100723.258045
100723.24356
100723.228112
100723.211749
100723.194487
100723.176296
100723.157028
100723.13635
100723.113638
100723.08823
100723.060031
100723.029653
100722.998045
100722.966103
100722.934372
100722.903159
100722.872611
100722.842799
100722.813746
100722.78546
100722.75794
100722.731189
100722.705212
100722.680021
100722.655632
100722.63207
100722.609362
100722.587541
100722.566642
100722.546706
100722.52777
100722.509876
100722.493059
100722.477357
100722.462798
100722.449406
100722.437195
100722.42617
100722.416322
100722.407637
100722.400084
100722.393623
100722.388199
100722.383742
100722.380171
100722.377393
100722.375307
100722.373808
100722.372794
100722.372175
100722.37188
100722.371875
100722.372168
100722.372824
100722.373962
100722.375753
100722.378399
100722.382101
100722.387008
100722.393149
100722.400347
100722.408115
100722.415509
100722.420799
100722.487898
100715.827857
100715.884905
100715.881044
100715.874287
100715.865011
100715.853567
100715.840298
100715.825561
100715.809717
100715.793115
100715.776075
100715.758864
100715.7417
100715.72472
100715.708008
100715.69156
100715.675333
100715.659208
100715.643054
100715.626688
100715.609955
100715.592671
100715.574714
100715.555964
100715.53638
100715.515941
100715.494713
100715.472781
100715.450311
100715.427475
100715.404506
100715.381624
100715.359085
100715.337112
100715.315948
100715.295786
100715.276822
100715.259199
100715.243057
100715.228478
100715.215542
100715.204276
100715.194702
100715.186796
100715.180524
100715.175801
100715.172553
100715.17068
100715.170086
100715.170647
100715.172249
100715.174753
100715.178031
100715.181939
100715.186346
100715.191106
100715.196094
100715.201171
100715.206219
100715.211113
100715.215751
100715.220021
100715.223841
100715.227117
100715.229786
100715.231773
100715.233031
100715.233503
100715.233156
100715.231943
100715.229838
100715.226801
100715.222801
100715.217794
100715.211739
100715.204573
100715.19623
100715.186612
100715.175607
100715.163051
100715.148737
100715.132368
100715.113554
100715.091818
100715.066749
100715.03848
100715.0075
100714.974395
100714.93996
100714.904845
100714.869557
100714.83447
100714.799863
100714.76594
100714.73286
100714.700741
100714.669676
100714.639735
100714.610975
100714.583436
100714.557153
100714.532149
100714.508445
100714.486053
100714.464984
100714.445244
100714.426836
100714.409757
100714.394002
100714.37956
100714.366413
100714.354536
100714.343894
100714.334442
100714.326127
100714.318885
100714.312641
100714.307309
100714.302791
100714.298977
100714.295754
100714.293001
100714.290603
100714.288453
100714.286468
100714.284596
100714.282833
100714.281233
100714.279917
100714.279078
100714.27897
100714.279889
100714.282141
100714.285979
100714.291542
100714.298761
100714.307247
100714.316114
100714.323746
100714.394453
100707.759702
100707.815728
100707.811362
100707.804306
100707.794843
100707.783318
100707.770078
100707.75548
100707.739883
100707.72363
100707.70704
100707.690376
100707.673852
100707.657598
100707.641691
100707.626112
100707.610805
100707.595629
100707.580432
100707.565007
100707.549168
100707.532707
100707.515473
100707.497318
100707.478178
100707.458011
100707.436865
100707.414812
100707.392007
100707.368619
100707.344878
100707.321007
100707.297267
100707.273892
100707.251134
100707.229201
100707.208304
100707.188605
100707.170263
100707.153382
100707.138062
100707.124353
100707.112303
100707.101913
100707.093171
100707.086015
100707.080385
100707.076208
100707.073415
100707.071908
100707.071597
100707.072368
100707.074118
100707.076725
100707.080078
100707.084052
100707.088538
100707.093412
100707.09857
100707.103894
100707.109287
100707.114643
100707.119874
100707.124883
100707.129592
100707.133913
100707.137776
100707.141097
100707.14381
100707.145831
100707.147088
100707.147491
100707.146955
100707.145375
100707.142646
100707.138636
100707.133214
100707.126212
100707.117457
100707.106735
100707.093814
100707.07841
100707.060227
100707.038959
100707.014401
100706.986713
100706.956352
100706.923727
100706.88933
100706.853745
100706.817486
100706.780978
100706.744583
100706.708593
100706.673255
100706.638768
100706.6053
100706.572981
100706.541919
100706.512198
100706.483881
100706.457014
100706.43163
100706.407748
100706.385377
100706.364517
100706.345159
100706.327285
100706.310873
100706.295889
100706.282295
100706.270044
100706.259075
100706.24932
100706.240703
100706.233139
100706.226533
100706.22078
100706.215766
100706.211372
100706.207473
100706.203946
100706.200677
100706.197569
100706.19455
100706.191589
100706.18871
100706.185995
100706.183602
100706.181762
100706.180768
100706.180961
100706.182692
100706.186269
100706.191896
100706.199589
100706.209076
100706.219651
100706.230044
100706.302439
100699.704422
100699.760195
100699.755268
100699.747658
100699.737645
100699.725569
100699.711785
100699.696653
100699.680542
100699.663798
100699.646747
100699.629654
100699.61274
100699.596136
100699.579921
100699.564075
100699.548538
100699.533164
100699.517792
100699.502205
100699.486203
100699.469566
100699.452126
100699.433722
100699.414276
100699.393733
100699.37213
100699.34953
100699.32608
100699.301944
100699.277347
100699.252513
100699.227703
100699.203154
100699.179121
100699.155821
100699.133473
100699.112249
100699.092318
100699.073801
100699.05681
100699.041413
100699.027672
100699.015606
100699.005229
100698.996486
100698.989327
100698.983695
100698.979541
100698.976784
100698.975351
100698.975146
100698.97608
100698.978043
100698.98094
100698.984653
100698.989083
100698.994111
100698.999635
100699.005539
100699.011724
100699.018076
100699.024501
100699.030888
100699.037145
100699.043165
100699.048855
100699.054107
100699.058826
100699.062896
100699.066213
100699.068652
100699.070092
100699.070391
100699.069411
100699.066986
100699.062955
100699.057129
100699.04932
100699.039315
100699.026901
100699.011845
100698.993935
100698.972986
100698.94892
100698.921789
100698.892064
100698.860169
100698.826377
100698.791151
100698.754953
100698.718199
100698.681261
100698.644462
100698.608088
100698.57238
100698.537547
100698.503764
100698.471178
100698.439904
100698.41004
100698.381655
100698.354803
100698.329518
100698.305821
100698.283716
100698.263197
100698.244247
100698.226836
100698.210927
100698.196472
100698.183413
100698.171678
100698.161184
100698.151845
100698.143565
100698.136238
100698.129751
100698.123984
100698.118813
100698.114114
100698.109766
100698.105662
100698.101714
100698.097865
100698.094101
100698.090463
100698.087054
100698.084054
100698.081712
100698.080345
100698.080318
100698.082012
100698.08578
100698.091886
100698.100434
100698.111277
100698.123905
100698.137347
100698.209136
100691.658324
100691.714079
100691.708566
100691.70028
100691.68951
100691.676594
100691.661891
100691.645772
100691.628615
100691.610776
100691.592592
100691.57434
100691.556253
100691.538472
100691.521086
100691.504084
100691.487413
100691.470932
100691.454483
100691.437849
100691.420831
100691.403205
100691.384801
100691.365454
100691.34508
100691.32362
100691.301106
100691.277595
100691.25323
100691.228171
100691.202638
100691.176852
100691.151071
100691.12553
100691.100485
100691.076152
100691.052754
100691.030466
100691.009463
100690.98987
100690.971808
100690.955354
100690.940579
100690.927512
100690.91619
100690.906563
100690.898572
100690.892175
100690.887334
100690.883978
100690.882046
100690.88145
100690.882111
100690.883927
100690.886805
100690.890636
100690.895319
100690.900738
100690.906789
100690.913351
100690.92032
100690.927574
100690.935007
100690.942497
100690.949935
100690.957199
100690.964176
100690.970739
100690.976771
100690.982136
100690.986707
100690.990336
100690.992883
100690.994187
100690.994092
100690.992422
100690.989004
100690.98365
100690.976175
100690.966382
100690.954087
100690.939103
100690.92128
100690.900506
100690.876758
100690.85011
100690.820847
100690.789461
100690.756283
100690.721556
100690.685691
100690.649072
100690.612059
100690.574977
100690.538121
100690.50175
100690.466097
100690.431357
100690.397705
100690.365279
100690.334201
100690.304562
100690.276434
100690.249869
100690.224902
100690.201547
100690.179809
100690.159672
100690.141115
100690.124098
100690.108574
100690.094485
100690.081754
100690.070291
100690.060007
100690.0508
100690.042565
100690.035184
100690.028539
100690.022506
100690.016965
100690.011802
100690.006917
100690.002232
100689.997705
100689.993333
100689.989171
100689.985338
100689.982025
100689.979494
100689.978076
100689.978154
100689.980133
100689.984402
100689.991279
100690.000939
100690.013332
100690.02808
100690.044366
100690.113504
100683.620163
100683.675925
100683.669755
100683.660653
100683.648911
100683.634872
100683.618901
100683.601376
100683.582689
100683.56321
100683.543295
100683.523237
100683.503288
100683.483605
100683.464298
100683.445371
100683.426787
100683.40842
100683.390123
100683.37169
100683.352931
100683.333629
100683.313618
100683.29274
100683.270911
100683.248074
100683.22426
100683.199527
100683.174014
100683.147876
100683.121331
100683.094591
100683.06791
100683.041518
100683.015666
100682.990566
100682.966436
100682.943452
100682.921785
100682.901563
100682.882908
100682.865898
100682.850606
100682.837065
100682.825335
100682.815365
100682.807087
100682.80046
100682.795448
100682.79199
100682.790027
100682.789478
100682.790266
100682.792293
100682.795469
100682.799683
100682.804834
100682.810802
100682.81748
100682.824741
100682.832474
100682.840547
100682.848844
100682.857231
100682.865588
100682.873775
100682.881669
100682.889125
100682.896012
100682.902179
100682.907485
100682.91177
100682.914884
100682.916656
100682.916926
100682.915513
100682.91225
100682.906953
100682.899453
100682.889572
100682.877157
100682.862059
100682.844176
100682.82344
100682.799867
100682.773549
100682.744673
100682.713606
100682.68081
100682.646544
100682.611046
100682.574668
100682.537752
100682.500609
100682.463534
100682.426789
100682.390615
100682.35522
100682.320792
100682.287487
100682.255441
100682.224763
100682.195541
100682.167841
100682.141712
100682.117181
100682.09426
100682.072946
100682.053222
100682.035055
100682.018403
100682.00321
100681.989402
100681.976887
100681.965575
100681.955368
100681.946161
100681.93784
100681.930289
100681.92339
100681.917029
100681.911101
100681.905514
100681.900203
100681.895134
100681.890319
100681.885822
100681.881772
100681.878369
100681.875884
100681.874656
100681.875079
100681.877576
100681.882562
100681.890389
100681.901279
100681.915232
100681.931924
100681.950562
100682.015645
100675.58918
100675.644835
100675.63793
100675.627862
100675.614935
100675.599492
100675.581909
100675.562576
100675.541899
100675.520269
100675.498064
100675.475599
100675.453152
100675.430905
100675.408994
100675.387447
100675.366252
100675.345303
100675.324474
100675.303578
100675.282441
100675.26086
100675.238682
100675.215759
100675.192016
100675.167402
100675.14195
100675.11572
100675.088848
100675.061487
100675.033846
100675.006133
100674.978592
100674.951445
100674.924932
100674.899258
100674.874634
100674.851228
100674.829205
100674.808689
100674.789797
100674.772606
100674.757188
100674.743577
100674.73181
100674.721877
100674.713725
100674.707263
100674.702462
100674.699262
100674.697608
100674.697419
100674.69862
100674.701113
100674.704805
100674.709586
100674.715349
100674.721973
100674.729343
100674.737328
100674.745806
100674.754639
100674.7637
100674.772846
100674.781945
100674.790848
100674.799417
100674.8075
100674.814953
100674.821616
100674.82734
100674.831958
100674.835315
100674.837238
100674.837567
100674.836126
100674.832754
100674.82728
100674.81955
100674.809409
100674.79673
100674.781398
100674.763343
100674.742533
100674.719006
100674.692858
100674.664271
100674.633474
100674.600862
100674.566847
100674.531656
100674.495511
100674.458728
100674.421606
100674.384428
100674.347455
100674.310929
100674.275063
100674.240051
100674.20606
100674.173237
100674.141701
100674.111555
100674.082873
100674.055718
100674.030127
100674.006124
100673.983712
100673.962885
100673.943617
100673.925872
100673.9096
100673.894735
100673.881184
100673.86886
100673.857671
100673.847514
100673.838282
100673.829867
100673.822156
100673.815045
100673.808436
100673.80225
100673.79643
100673.790955
100673.785845
100673.781175
100673.77708
100673.773766
100673.771509
100673.770651
100673.771593
100673.774763
100673.780589
100673.789441
100673.801554
100673.816938
100673.835251
100673.855633
100673.9159
100667.564992
100667.620316
100667.61259
100667.601406
100667.587073
100667.569945
100667.550407
100667.528864
100667.505744
100667.481461
100667.456419
100667.430965
100667.405408
100667.379964
100667.354799
100667.329977
100667.305515
100667.281337
100667.257344
100667.233375
100667.209278
100667.184871
100667.160019
100667.134589
100667.108518
100667.081764
100667.054365
100667.026384
100666.997954
100666.969224
100666.940395
100666.911666
100666.883269
100666.855416
100666.828333
100666.802213
100666.777254
100666.753614
100666.731448
100666.710871
100666.691992
100666.674882
100666.659606
100666.646195
100666.634677
100666.625072
100666.617321
100666.611297
100666.606969
100666.604278
100666.603167
100666.603555
100666.605365
100666.608497
100666.612856
100666.618328
100666.624803
100666.632154
100666.640262
100666.648986
100666.658201
100666.667758
100666.677524
100666.687344
100666.69708
100666.706573
100666.715677
100666.72423
100666.732082
100666.739067
100666.745031
100666.749803
100666.753227
100666.755131
100666.755359
100666.753743
100666.750129
100666.744361
100666.736302
100666.725817
100666.712803
100666.697172
100666.67888
100666.65792
100666.634343
100666.608252
100666.579816
100666.549248
100666.516811
100666.482869
100666.447811
100666.411846
100666.375186
100666.338104
100666.300876
100666.263755
100666.226979
100666.190764
100666.155308
100666.12078
100666.087336
100666.055101
100666.024186
100665.994678
100665.966645
100665.940135
100665.915181
100665.891795
100665.869978
100665.849712
100665.830969
100665.813706
100665.797866
100665.783359
100665.770102
100665.758007
100665.746979
100665.736918
100665.727724
100665.719293
100665.71153
100665.704347
100665.697676
100665.691469
100665.685716
100665.680445
100665.675739
100665.671738
100665.668652
100665.666755
100665.66639
100665.667954
100665.671875
100665.678579
100665.688432
100665.701662
100665.718249
100665.737791
100665.7593
100665.814488
100659.547513
100659.602192
100659.59355
100659.581085
100659.565117
100659.546008
100659.52416
100659.499994
100659.473965
100659.446513
100659.41808
100659.389046
100659.359763
100659.330486
100659.301425
100659.272681
100659.24431
100659.216275
100659.18851
100659.160884
100659.133274
100659.105524
100659.077521
100659.04915
100659.020362
100658.991126
100658.961486
100658.931507
100658.901319
100658.871066
100658.840939
100658.811126
100658.781844
100658.75329
100658.725674
100658.699175
100658.673975
100658.650217
100658.628043
100658.607555
100658.588852
100658.571994
100658.557038
100658.544007
100658.532919
100658.523833
100658.51667
100658.511269
100658.507594
100658.505582
100658.505174
100658.506285
100658.508837
100658.512727
100658.517856
100658.524105
100658.531362
100658.539493
100658.548373
100658.557857
100658.567811
100658.578081
100658.588524
100658.598981
100658.609303
100658.619325
100658.628895
100658.637845
100658.646018
100658.653244
100658.659367
100658.664215
100658.667633
100658.669451
100658.669519
100658.667675
100658.663778
100658.657684
100658.649272
100658.638426
100658.625064
100658.60912
100658.590571
100658.569427
100658.545752
100658.51965
100658.491284
100658.46085
100658.428592
100658.394774
100658.359717
100658.323793
100658.287226
100658.250196
100658.212951
100658.175734
100658.138786
100658.102318
100658.066528
100658.031589
100657.997659
100657.964869
100657.933336
100657.903153
100657.874395
100657.847118
100657.821361
100657.797144
100657.774476
100657.753347
100657.733734
100657.715602
100657.698907
100657.683564
100657.669488
100657.6566
100657.644813
100657.634034
100657.624173
100657.615134
100657.606832
100657.59919
100657.592149
100657.585672
100657.579757
100657.57444
100657.569808
100657.566006
100657.563242
100657.561787
100657.56198
100657.564206
100657.568884
100657.576426
100657.58718
100657.601345
100657.618853
100657.639214
100657.66129
100657.711454
100651.536894
100651.590535
100651.580869
100651.566943
100651.549089
100651.527683
100651.503142
100651.47591
100651.446473
100651.415306
100651.382891
100651.349657
100651.316001
100651.282231
100651.248605
100651.215274
100651.182342
100651.149814
100651.117665
100651.085801
100651.054132
100651.022531
100650.990909
100650.959171
100650.927286
100650.895232
100650.863058
100650.830831
100650.798678
100650.766733
100650.735178
100650.704184
100650.673954
100650.644665
100650.616511
100650.58965
100650.564247
100650.540429
100650.51832
100650.498009
100650.479579
100650.463079
100650.448555
100650.43602
100650.425479
100650.417003
100650.410532
100650.405887
100650.402991
100650.401775
100650.40218
100650.404117
100650.407505
100650.412235
100650.418209
100650.425301
100650.433395
100650.442352
100650.452041
100650.462313
100650.473026
100650.48402
100650.495147
100650.506239
100650.517142
100650.527685
100650.537711
100650.547044
100650.555526
100650.562984
100650.569259
100650.57418
100650.577592
100650.579331
100650.579251
100650.5772
100650.573045
100650.566656
100650.557926
100650.546757
100650.533084
100650.516859
100650.498077
100650.47676
100650.452983
100650.426851
100650.398522
100650.368183
100650.336061
100650.302396
100650.267467
100650.231516
100650.194949
100650.157984
100650.120741
100650.083484
100650.046431
100650.009797
100649.973775
100649.93854
100649.904251
100649.871042
100649.839034
100649.808323
100649.778992
100649.751101
100649.724695
100649.699802
100649.676434
100649.654588
100649.63425
100649.615389
100649.597976
100649.581935
100649.567175
100649.553625
100649.541206
100649.529836
100649.519429
100649.509902
100649.501179
100649.493192
100649.485891
100649.479249
100649.47327
100649.467998
100649.463523
100649.459988
100649.457601
100649.456625
100649.457386
100649.460258
100649.46564
100649.47392
100649.485419
100649.500296
100649.518422
100649.539212
100649.561376
100649.606745
100643.533492
100643.58563
100643.574813
100643.559224
100643.539208
100643.515152
100643.487495
100643.45671
100643.423316
100643.387833
100643.350792
100643.312678
100643.273948
100643.234971
100643.196064
100643.157439
100643.119254
100643.081565
100643.044395
100643.007691
100642.971401
100642.935428
100642.899711
100642.864176
100642.828804
100642.793588
100642.758579
100642.723843
100642.689501
100642.655679
100642.622541
100642.590245
100642.558973
100642.528883
100642.500147
100642.472904
100642.447295
100642.42343
100642.401415
100642.38132
100642.363214
100642.347133
100642.33311
100642.321147
100642.311248
100642.303397
100642.297643
100642.293858
100642.29183
100642.291498
100642.292796
100642.295636
100642.299931
100642.305571
100642.312452
100642.320445
100642.32943
100642.339263
100642.349808
100642.36091
100642.372423
100642.38418
100642.396026
100642.407789
100642.41931
100642.43041
100642.440928
100642.450685
100642.45952
100642.467255
100642.473732
100642.478781
100642.482248
100642.483974
100642.483816
100642.481632
100642.477299
100642.470698
100642.461735
100642.450327
100642.436424
100642.419994
100642.401045
100642.379611
100642.355772
100642.329638
100642.301362
100642.271123
100642.239136
100642.20563
100642.170854
100642.135065
100642.098517
100642.061547
100642.024378
100641.987119
100641.950046
100641.913338
100641.877188
100641.841771
100641.807246
100641.773749
100641.741405
100641.710312
100641.680557
100641.652203
100641.625302
100641.599884
100641.57597
100641.553559
100641.532644
100641.5132
100641.495211
100641.478614
100641.46331
100641.449234
100641.436316
100641.424481
100641.413653
100641.403757
100641.394725
100641.386498
100641.379036
100641.372319
100641.366357
100641.361197
100641.356932
100641.353703
100641.351711
100641.35121
100641.352512
100641.35597
100641.361959
100641.37084
100641.382896
100641.398243
100641.416688
100641.437553
100641.459414
100641.500295
100635.537859
100635.58796
100635.575847
100635.558364
100635.535869
100635.508767
100635.47752
100635.44263
100635.404662
100635.364185
100635.321794
100635.27804
100635.233452
100635.188473
100635.143495
100635.098798
100635.054605
100635.011032
100634.968156
100634.92597
100634.88446
100634.843566
100634.803251
100634.763464
100634.724199
100634.685458
100634.647293
100634.609769
100634.572996
100634.537088
100634.502194
100634.468451
100634.436019
100634.405035
100634.375645
100634.347968
100634.322121
100634.298192
100634.276266
100634.256396
100634.238631
100634.222994
100634.2095
100634.198142
100634.188908
100634.181762
100634.17681
100634.173912
100634.172806
100634.173416
100634.17567
100634.179475
100634.184741
100634.191354
100634.199205
100634.208163
100634.218102
100634.228874
100634.240339
100634.252336
100634.264714
100634.277301
100634.289936
100634.302443
100634.314655
100634.326391
100634.337484
100634.347752
100634.357029
100634.365139
100634.371919
100634.377202
100634.380835
100634.382662
100634.382548
100634.380355
100634.375971
100634.369285
100634.360218
100634.348698
100634.334688
100634.318169
100634.299161
100634.277707
100634.253893
100634.227829
100634.199667
100634.169582
100634.137778
100634.104475
100634.069912
100634.034329
100633.997978
100633.961127
100633.923995
100633.886837
100633.849817
100633.813136
100633.776971
100633.741487
100633.70685
100633.673197
100633.640651
100633.609317
100633.579281
100633.550612
100633.523364
100633.497572
100633.47326
100633.450433
100633.429088
100633.409204
100633.390776
100633.373756
100633.358044
100633.343576
100633.330289
100633.318112
100633.30698
100633.296825
100633.287588
100633.279216
100633.271678
100633.264959
100633.259074
100633.254074
100633.250049
100633.247138
100633.245533
100633.245475
100633.247258
100633.251213
100633.257687
100633.267008
100633.279422
100633.294997
100633.313482
100633.334115
100633.35536
100633.392083
100627.550746
100627.598207
100627.584629
100627.564987
100627.539656
100627.509054
100627.473669
100627.434046
100627.390795
100627.34455
100627.295978
100627.245714
100627.194374
100627.142493
100627.090548
100627.038903
100626.987858
100626.937598
100626.888258
100626.839883
100626.792502
100626.746089
100626.700633
100626.656103
100626.612507
100626.56985
100626.528185
100626.48757
100626.448103
100626.409883
100626.373037
100626.337684
100626.303955
100626.271965
100626.241834
100626.213654
100626.187518
100626.163491
100626.141634
100626.121981
100626.104563
100626.089381
100626.07644
100626.065714
100626.057179
100626.050781
100626.046637
100626.044644
100626.04453
100626.046149
100626.049428
100626.054267
100626.060575
100626.068233
100626.077131
100626.087131
100626.098105
100626.109901
100626.122373
100626.135357
100626.148696
100626.162213
100626.175743
100626.189103
100626.202122
100626.214614
100626.226408
100626.237318
100626.247175
100626.255801
100626.263033
100626.268702
100626.272659
100626.274751
100626.274846
100626.272813
100626.268548
100626.261951
100626.252949
100626.241485
100626.227532
100626.211081
100626.192163
100626.170826
100626.147163
100626.121285
100626.093345
100626.06351
100626.03198
100625.998967
100625.964701
100625.929415
100625.893353
100625.856749
100625.819863
100625.78284
100625.745989
100625.709476
100625.673366
100625.637941
100625.603321
100625.56964
100625.537029
100625.505591
100625.475415
100625.446572
100625.419119
100625.393096
100625.368528
100625.345427
100625.323792
100625.303609
100625.284858
100625.267531
100625.251547
100625.236814
100625.223277
100625.210874
100625.199545
100625.189231
100625.179879
100625.171444
100625.1639
100625.157236
100625.151474
100625.146661
100625.142888
100625.140287
100625.139039
100625.139373
100625.14156
100625.145907
100625.152732
100625.162327
100625.174899
100625.190473
100625.208745
100625.228884
100625.24927
100625.282157
100619.573111
100619.617263
100619.602025
100619.579922
100619.551339
100619.516715
100619.476568
100619.431481
100619.382126
100619.329212
100619.273495
100619.21571
100619.156584
100619.096757
100619.036815
100618.977221
100618.918363
100618.860504
100618.803846
100618.748492
100618.694512
100618.641918
100618.590723
100618.540914
100618.492507
100618.44551
100618.399971
100618.355938
100618.313493
100618.272715
100618.233709
100618.196567
100618.161396
100618.128279
100618.097309
100618.068551
100618.042071
100618.017908
100617.996099
100617.976655
100617.959587
100617.944878
100617.932516
100617.922461
100617.914678
100617.909112
100617.905729
100617.904607
100617.905578
100617.908288
100617.912672
100617.918631
100617.926067
100617.934862
100617.9449
100617.956043
100617.968157
100617.981087
100617.994684
100618.008778
100618.023207
100618.037791
100618.052357
100618.06672
100618.080702
100618.094114
100618.106779
100618.118507
100618.129128
100618.138459
100618.146336
100618.152592
100618.157077
100618.15964
100618.160156
100618.158497
100618.154566
100618.148269
100618.139546
100618.128347
100618.114653
100618.098467
100618.079826
100618.058785
100618.035441
100618.009907
100617.982334
100617.952888
100617.921763
100617.889164
100617.855315
100617.820441
100617.784777
100617.748554
100617.711995
100617.675318
100617.638779
100617.602487
100617.566664
100617.531427
100617.496939
100617.463371
100617.430831
100617.399426
100617.369248
100617.340367
100617.312846
100617.286725
100617.262035
100617.238788
100617.21699
100617.196627
100617.177681
100617.160168
100617.144025
100617.129137
100617.115456
100617.102927
100617.091496
100617.081109
100617.071719
100617.063289
100617.055794
100617.049231
100617.043619
100617.039009
100617.035485
100617.033172
100617.032241
100617.032902
100617.035408
100617.040036
100617.047074
100617.05678
100617.069323