/*--------------------------------*- C++ -*----------------------------------*\
| =========                 |                                                 |
| \\      /  F ield         | OpenFOAM: The Open Source CFD Toolbox           |
|  \\    /   O peration     | Version:  2206                                  |
|   \\  /    A nd           | Website:  www.openfoam.com                      |
|    \\/     M anipulation  |                                                 |
\*---------------------------------------------------------------------------*/
FoamFile
{
    version     2.0;
    format      ascii;
    arch        "LSB;label=64;scalar=64";
    class       surfaceScalarField;
    location    "3.8/water";
    object      phi;
}
// * * * * * * * * * * * * * * * * * * * * * * * * * * * * * * * * * * * * * //

dimensions      [0 3 -1 0 0 0 0];

oriented        oriented;

internalField   nonuniform List<scalar> 
46280
(
-4.21731556517e-10
4.21686834449e-10
-8.5645868657e-10
4.34717267404e-10
-1.30706488873e-09
4.50530974585e-10
-1.77851076883e-09
4.71440327214e-10
-2.27631243599e-09
4.97719357797e-10
-2.80562157437e-09
5.29309642862e-10
-3.37181817993e-09
5.6610008802e-10
-3.97981195018e-09
6.07997521585e-10
-4.63472903957e-09
6.54816210682e-10
-5.34103370958e-09
7.06312650643e-10
-6.103207331e-09
7.62076712427e-10
-6.92478437117e-09
8.21589243627e-10
-7.809002582e-09
8.84128809869e-10
-8.75782892298e-09
9.48842521595e-10
-9.77258300787e-09
1.01467217248e-09
-1.08530037377e-08
1.08044005251e-09
-1.19978797902e-08
1.14480001681e-09
-1.3204200378e-08
1.20634244627e-09
-1.44678436893e-08
1.26357143864e-09
-1.57828459717e-08
1.31502650402e-09
-1.71421921885e-08
1.35927719482e-09
-1.85372149647e-08
1.39504933876e-09
-1.99585011605e-08
1.42121909173e-09
-2.1395397087e-08
1.43692479555e-09
-2.28370027337e-08
1.44153979653e-09
-2.4271724918e-08
1.43475311778e-09
-2.56882980412e-08
1.41650801601e-09
-2.70753121995e-08
1.38704672491e-09
-2.84221941529e-08
1.34681719401e-09
-2.97186534769e-08
1.29649286526e-09
-3.09555819912e-08
1.23686379437e-09
-3.21243994013e-08
1.16885113978e-09
-3.32178659944e-08
1.09340170601e-09
-3.4229345983e-08
1.01151300705e-09
-3.51535532213e-08
9.2414208216e-10
-3.59857680121e-08
8.3224619347e-10
-3.67225398899e-08
7.3670647737e-10
-3.73608918649e-08
6.38380887692e-10
-3.78989953945e-08
5.38038040261e-10
-3.83353862717e-08
4.36416551937e-10
-3.86696159169e-08
3.3416435371e-10
-3.89014936009e-08
2.31899529872e-10
-3.90317103209e-08
1.30152031635e-10
-3.90611174266e-08
2.94247491449e-11
-3.89913497261e-08
-6.98312839858e-11
-3.88241466364e-08
-1.67189792493e-10
-3.85619108543e-08
-2.62297691269e-10
-3.82070942003e-08
-3.54807596373e-10
-3.77627385548e-08
-4.44415286519e-10
-3.72319241201e-08
-5.30809280812e-10
-3.66182599742e-08
-6.13720938281e-10
-3.59253832125e-08
-6.92874973108e-10
-3.51574010791e-08
-7.68035554947e-10
-3.43184421847e-08
-8.38959781891e-10
-3.3413050314e-08
-9.05441490898e-10
-3.24457844946e-08
-9.67268598024e-10
-3.14215648651e-08
-1.02426514013e-09
-3.03453162828e-08
-1.07625243972e-09
-2.92222679981e-08
-1.12308951517e-09
-2.80576345103e-08
-1.16463764359e-09
-2.6856872244e-08
-1.20079918898e-09
-2.56253910042e-08
-1.231485e-09
-2.43687720242e-08
-1.25665170186e-09
-2.30925035302e-08
-1.27627128673e-09
-2.18021653543e-08
-1.29036691975e-09
-2.05031827372e-08
-1.29898402087e-09
-1.92009832401e-08
-1.30222457791e-09
-1.79007640219e-08
-1.30021896608e-09
-1.66076271654e-08
-1.29315864958e-09
-1.53263572022e-08
-1.28126793896e-09
-1.40615412203e-08
-1.26483489545e-09
-1.28173551009e-08
-1.24418233024e-09
-1.15976747177e-08
-1.21969682706e-09
-1.04058706368e-08
-1.19179863379e-09
-9.24491596144e-09
-1.16096904061e-09
-8.11718965526e-09
-1.12771937643e-09
-7.02458462665e-09
-1.09261766572e-09
-5.96831791841e-09
-1.05625852811e-09
-4.94903541583e-09
-1.01929370843e-09
-3.96661243661e-09
-9.82413812522e-10
-3.02021521814e-09
-9.46407215032e-10
-2.10800317105e-09
-9.12202149795e-10
-1.2269835033e-09
-8.81028604087e-10
-3.72423658102e-10
-8.54549404716e-10
4.62234966933e-10
-8.34666619948e-10
1.28444673589e-09
-8.22200895164e-10
2.1002509151e-09
-8.1581133934e-10
2.91326391299e-09
-8.13001763182e-10
3.72490065617e-09
-8.1164315275e-10
4.53510285e-09
-8.10190678833e-10
5.34266825367e-09
-8.07571125503e-10
6.14569092734e-09
-8.03010968314e-10
6.94163678385e-09
-7.95950939394e-10
7.72760001646e-09
-7.8595143729e-10
8.50026905951e-09
-7.72673527272e-10
9.25611538004e-09
-7.55834536808e-10
9.99133086159e-09
-7.35219399261e-10
1.0701998334e-08
-7.10655798723e-10
1.13840284271e-08
-6.82033470139e-10
1.20333242235e-08
-6.49284319639e-10
1.26457225872e-08
-6.1240122068e-10
1.32171525847e-08
-5.71418793367e-10
1.37435801497e-08
-5.26429920292e-10
1.42211578013e-08
-4.775667824e-10
1.46461713361e-08
-4.25015406748e-10
1.50151792938e-08
-3.68997475482e-10
1.53249613496e-08
-3.09783464179e-10
1.55726469904e-08
-2.47675588314e-10
1.57556657524e-08
-1.83019728415e-10
1.58718646939e-08
-1.16189353948e-10
1.59194598912e-08
-4.75957441673e-11
1.58971423934e-08
2.23265944182e-11
1.58040277406e-08
9.31145048211e-11
1.56397612521e-08
1.64275076054e-10
1.54044903993e-08
2.35271086937e-10
1.50989717089e-08
3.05526760409e-10
1.47245571435e-08
3.74415170053e-10
1.42833005864e-08
4.41264108079e-10
1.37779577729e-08
5.05343783772e-10
1.32120921095e-08
5.65872703229e-10
1.25900830913e-08
6.22010355665e-10
1.19172191776e-08
6.72870458124e-10
1.1199692277e-08
7.17528609631e-10
1.04446432867e-08
7.55055071902e-10
9.66009551481e-09
7.84549862258e-10
8.85489661856e-09
8.05204558404e-10
8.03853264796e-09
8.16366451088e-10
7.22091978352e-09
8.17618193772e-10
6.41207882188e-09
8.08843869739e-10
5.6217988379e-09
7.90285091331e-10
4.85924090795e-09
7.62561322925e-10
4.1325829107e-09
7.26662933909e-10
3.4486752756e-09
6.83911466396e-10
2.81276452367e-09
6.3591565634e-10
2.22822093817e-09
5.84547939913e-10
1.69622895924e-09
5.31996840562e-10
1.21527574829e-09
4.80957391567e-10
7.80232817872e-10
4.3504681616e-10
3.80731552995e-10
3.99505156923e-10
3.80732636158e-10
-4.60577146184e-10
8.8222234408e-10
-9.26085769858e-10
9.00195592363e-10
-1.40524378583e-09
9.29630098574e-10
-1.90442115686e-09
9.70589785507e-10
-2.42963485098e-09
1.0228703426e-09
-2.98647587675e-09
1.08612621541e-09
-3.58046719177e-09
1.16002414221e-09
-4.21671733841e-09
1.24422568939e-09
-4.90024864504e-09
1.33828105909e-09
-5.63552753106e-09
1.44157262343e-09
-6.4267491689e-09
1.55323552607e-09
-7.27731205062e-09
1.67213770378e-09
-8.19007303118e-09
1.79683283642e-09
-9.16681142566e-09
1.92557038374e-09
-1.02084700391e-08
2.05627932203e-09
-1.13146491521e-08
2.18661175652e-09
-1.24838633957e-08
2.31396710983e-09
-1.37131014386e-08
2.43557561606e-09
-1.49981387381e-08
2.54856478983e-09
-1.63331921002e-08
2.65007724342e-09
-1.77113212669e-08
2.73736486957e-09
-1.91241908607e-08
2.80791842676e-09
-2.05625706604e-08
2.85955929937e-09
-2.20161912318e-08
2.8905468295e-09
-2.34743220238e-08
2.8996324907e-09
-2.49256798073e-08
2.88611406338e-09
-2.63590378074e-08
2.84982898961e-09
-2.77631308629e-08
2.79114422126e-09
-2.91272406893e-08
2.71089068746e-09
-3.04410470443e-08
2.61030438593e-09
-3.16951471309e-08
2.49092782579e-09
-3.28808255125e-08
2.3545347625e-09
-3.39904916545e-08
2.20303172618e-09
-3.50173699829e-08
2.03839596436e-09
-3.59558636102e-08
1.86259919353e-09
-3.68011864065e-08
1.67757232991e-09
-3.75496735828e-08
1.4851565442e-09
-3.81983845659e-08
1.28709332207e-09
-3.87453812606e-08
1.0849969097e-09
-3.91893272401e-08
8.80361609602e-10
-3.95297484376e-08
6.74547050847e-10
-3.97666474492e-08
4.68794927366e-10
-3.99007557021e-08
2.64221252544e-10
-3.99331784633e-08
6.18410633144e-11
-3.98656099855e-08
-1.37439027448e-10
-3.96999914726e-08
-3.32817523324e-10
-3.94387664388e-08
-5.23561842067e-10
-3.90845879741e-08
-7.08997802582e-10
-3.86405312412e-08
-8.88510506664e-10
-3.81098320272e-08
-1.06152233843e-09
-3.7496088986e-08
-1.22750133095e-09
-3.6803035606e-08
-1.38594374914e-09
-3.60347226934e-08
-1.53638415838e-09
-3.51953186594e-08
-1.67838012377e-09
-3.42892695976e-08
-1.81152410734e-09
-3.33211240381e-08
-1.93543070551e-09
-3.22956696523e-08
-2.04975052824e-09
-3.12177783019e-08
-2.15415992184e-09
-3.00925193777e-08
-2.24837658258e-09
-2.89250207436e-08
-2.3321514054e-09
-2.77205596015e-08
-2.40528541538e-09
-2.6484434997e-08
-2.46762323956e-09
-2.52220378014e-08
-2.51907085185e-09
-2.3938730801e-08
-2.55959006779e-09
-2.26399000629e-08
-2.58921651919e-09
-2.13308393382e-08
-2.60805444336e-09
-2.00167856649e-08
-2.61629416517e-09
-1.87028058562e-08
-2.61420629533e-09
-1.73938198271e-08
-2.60215786456e-09
-1.60944881612e-08
-2.58060496934e-09
-1.48092270495e-08
-2.55010674727e-09
-1.35420969596e-08
-2.51131574427e-09
-1.22968130171e-08
-2.46498936921e-09
-1.1076635186e-08
-2.41197792929e-09
-9.88437695772e-09
-2.35323404762e-09
-8.72229679896e-09
-2.28979936543e-09
-7.59210593671e-09
-2.22281378708e-09
-6.49485876443e-09
-2.15350414715e-09
-5.43095684279e-09
-2.08319965188e-09
-4.40003327703e-09
-2.01333470342e-09
-3.4009519296e-09
-1.94549157552e-09
-2.4317067562e-09
-1.88144376598e-09
-1.48951472572e-09
-1.82322281183e-09
-5.71021707359e-10
-1.77303817072e-09
3.27086067644e-10
-1.73277585168e-09
1.20802179736e-09
-1.70313180269e-09
2.07486196062e-09
-1.68265232821e-09
2.93028392525e-09
-1.66841842056e-09
3.77603693884e-09
-1.65739642888e-09
4.61282796933e-09
-1.64697598413e-09
5.44036676544e-09
-1.63510968631e-09
6.25758624747e-09
-1.62022437569e-09
7.06275153305e-09
-1.60111554751e-09
7.85364624639e-09
-1.57683979853e-09
8.62762679752e-09
-1.54665301577e-09
9.38175664361e-09
-1.50995782883e-09
1.011282504e-08
-1.46628639505e-09
1.08174552691e-08
-1.41527934345e-09
1.14921099489e-08
-1.35668645665e-09
1.21331881742e-08
-1.29035579707e-09
1.2737026834e-08
-1.21623792938e-09
1.32999914951e-08
-1.13437670114e-09
1.38184764023e-08
-1.04491265223e-09
1.42889899741e-08
-9.48073646961e-10
1.47081541252e-08
-8.44177185571e-10
1.50727845216e-08
-7.33621255054e-10
1.53798897977e-08
-6.16886199781e-10
1.56267470494e-08
-4.94526353867e-10
1.5810901913e-08
-3.67171907664e-10
1.59302403187e-08
-2.35521438722e-10
1.59829910656e-08
-1.00343688165e-10
1.59677936533e-08
3.75301334389e-11
1.58837014282e-08
1.77209632272e-10
1.57302492477e-08
3.17733167624e-10
1.5507474636e-08
4.58048685178e-10
1.52159932952e-08
5.97013783258e-10
1.48570245466e-08
7.33386982203e-10
1.44324682322e-08
8.65825870784e-10
1.39449340775e-08
9.92881079038e-10
1.3397811714e-08
1.11300028586e-09
1.2795290868e-08
1.22453442621e-09
1.21424056306e-08
1.32576069886e-09
1.14450205646e-08
1.41491699733e-09
1.07098194712e-08
1.49026097809e-09
9.94422551578e-09
1.55014725132e-09
9.15630543049e-09
1.59312930621e-09
8.35460313753e-09
1.61807232206e-09
7.54795407021e-09
1.62427184773e-09
6.74524573592e-09
1.61155598882e-09
5.95517540562e-09
1.58036003036e-09
5.18598478216e-09
1.53175599016e-09
4.44521289472e-09
1.46743953017e-09
3.73944611491e-09
1.38968257174e-09
3.07408157212e-09
1.30128494335e-09
2.453064914e-09
1.20556932538e-09
1.87857884573e-09
1.10648777582e-09
1.35061961337e-09
1.00892093897e-09
8.66423038985e-10
9.1924727501e-10
4.19945694146e-10
8.45986348314e-10
8.00679390794e-10
-5.04006196235e-10
1.38617961784e-09
-1.01073872339e-09
1.4068928927e-09
-1.52951536848e-09
1.44834354297e-09
-2.06769620083e-09
1.50873934211e-09
-2.63189131416e-09
1.5870014429e-09
-3.22810095814e-09
1.68230856873e-09
-3.86211103085e-09
1.79397215081e-09
-4.53920359502e-09
1.92129574557e-09
-5.26441341338e-09
2.06343014792e-09
-6.04212268252e-09
2.21926409585e-09
-6.87628195358e-09
2.38733924074e-09
-7.76996333278e-09
2.56580470651e-09
-8.72556054491e-09
2.75237963818e-09
-9.74435012733e-09
2.94434878412e-09
-1.08266871955e-08
3.13857050189e-09
-1.19716038155e-08
3.33151976837e-09
-1.31770297951e-08
3.51935076781e-09
-1.44394556375e-08
3.69799496738e-09
-1.57542089883e-08
3.86327858639e-09
-1.71152024479e-08
4.01106618529e-09
-1.85152872963e-08
4.13741238247e-09
-1.99460912988e-08
4.23871981752e-09
-2.13984526294e-08
4.31188511523e-09
-2.28623327319e-08
4.35442614484e-09
-2.43273105999e-08
4.36457631144e-09
-2.57825359341e-08
4.34134017806e-09
-2.72172450386e-08
4.28450514603e-09
-2.86207083698e-08
4.19460951748e-09
-2.99827228017e-08
4.07287287596e-09
-3.12935113233e-08
3.921095505e-09
-3.25441560373e-08
3.74154059548e-09
-3.37264261057e-08
3.53680744897e-09
-3.48331366423e-08
3.30971023104e-09
-3.58579047325e-08
3.06316601718e-09
-3.67954402802e-08
2.80010228993e-09
-3.76412484151e-08
2.52338114279e-09
-3.83918704683e-08
2.23574548092e-09
-3.90445584097e-08
1.93978008235e-09
-3.95974856695e-08
1.63789025766e-09
-4.00494173213e-08
1.33228979094e-09
-4.03999054368e-08
1.02500045808e-09
-4.06489722703e-08
7.1785571484e-10
-4.07972977932e-08
4.12511407284e-10
-4.08459222849e-08
1.10456842464e-10
-4.07964246794e-08
-1.86972394902e-10
-4.06506510771e-08
-4.78602415511e-10
-4.04108815149e-08
-7.63367181299e-10
-4.00795978137e-08
-1.04029509181e-09
-3.96596498652e-08
-1.30849378937e-09
-3.91540492642e-08
-1.56713839672e-09
-3.85661231106e-08
-1.81546187208e-09
-3.78993358514e-08
-2.05274777968e-09
-3.71574281498e-08
-2.27832479001e-09
-3.63442627977e-08
-2.49156293686e-09
-3.54639459446e-08
-2.69187195556e-09
-3.4520693161e-08
-2.87870098735e-09
-3.3518931801e-08
-3.0515405383e-09
-3.24631833135e-08
-3.2099253227e-09
-3.13581465405e-08
-3.35343934708e-09
-3.02085923517e-08
-3.48172136793e-09
-2.90194284492e-08
-3.59447244851e-09
-2.77956024913e-08
-3.69146338251e-09
-2.65421495587e-08
-3.77254397064e-09
-2.52641002535e-08
-3.8376516395e-09
-2.39665124911e-08
-3.88682155096e-09
-2.26543816286e-08
-3.92019545742e-09
-2.13326587199e-08
-3.93803155467e-09
-2.00061605959e-08
-3.9407123811e-09
-1.86795772161e-08
-3.92875314224e-09
-1.73573806388e-08
-3.90280735695e-09
-1.60438244921e-08
-3.86367247067e-09
-1.47428517599e-08
-3.81229225714e-09
-1.34580895605e-08
-3.74975911462e-09
-1.21927564163e-08
-3.67731301274e-09
-1.09496555069e-08
-3.59634077139e-09
-9.73108300082e-09
-3.50837219463e-09
-8.53882383243e-09
-3.41507732512e-09
-7.37406596781e-09
-3.3182609706e-09
-6.23740921264e-09
-3.21985959526e-09
-5.12880555397e-09
-3.12193620802e-09
-4.047622488e-09
-3.02667687042e-09
-2.99269081632e-09
-2.93637240294e-09
-1.96256380771e-09
-2.85335126196e-09
-9.55835479397e-10
-2.77976276792e-09
2.84985047984e-11
-2.71711060992e-09
9.90958226927e-10
-2.66558723457e-09
1.93232048796e-09
-2.62401478084e-09
2.85380257084e-09
-2.58989574947e-09
3.75643399997e-09
-2.56002753208e-09
4.64085973732e-09
-2.53139658037e-09
5.50715213897e-09
-2.5014013022e-09
6.35482694856e-09
-2.4678937242e-09
7.1828472668e-09
-2.42913467461e-09
7.98973160835e-09
-2.38371842822e-09
8.77358888157e-09
-2.33050874503e-09
9.53222698593e-09
-2.268590036e-09
1.02631790775e-08
-2.19723663789e-09
1.09637980548e-08
-2.11589230218e-09
1.16312723273e-08
-2.02415861871e-09
1.22627088048e-08
-1.92178619065e-09
1.28551422447e-08
-1.80866903433e-09
1.34056102561e-08
-1.68483861463e-09
1.39111592969e-08
-1.55045916651e-09
1.4368913855e-08
-1.40582213669e-09
1.47760810074e-08
-1.25134164979e-09
1.51300151871e-08
-1.08754943643e-09
1.54282227478e-08
-9.15090938539e-10
1.56684235418e-08
-7.34721255051e-10
1.58485568876e-08
-5.47302324305e-10
1.59668412606e-08
-3.53800056889e-10
1.6021782901e-08
-1.55282316447e-10
1.60122344574e-08
4.70841676555e-11
1.59374081411e-08
2.52039023537e-10
1.57969312174e-08
4.58215497261e-10
1.55908664031e-08
6.64116623582e-10
1.53197753237e-08
8.68110073124e-10
1.49847430281e-08
1.06842244522e-09
1.45874383436e-08
1.26313556816e-09
1.41301360622e-08
1.4501865743e-09
1.36157654489e-08
1.62737572215e-09
1.30479178424e-08
1.7923853035e-09
1.24308683118e-08
1.9428148803e-09
1.17695520161e-08
2.07623663727e-09
1.10695427847e-08
2.19027471548e-09
1.03369849718e-08
2.28270850147e-09
9.57852180439e-09
2.35159688411e-09
8.8011835576e-09
2.39541414164e-09
8.01227561086e-09
2.41318418425e-09
7.21923968471e-09
2.40459568301e-09
6.4295217366e-09
2.37008243975e-09
5.6504234288e-09
2.31085834608e-09
4.88895872608e-09
2.22890877769e-09
4.15169051799e-09
2.12695511193e-09
3.44455206716e-09
2.0084281579e-09
2.77261973471e-09
1.87750630817e-09
2.13981396053e-09
1.73929840344e-09
1.54845853439e-09
1.60028072308e-09
9.98562692054e-10
1.46914696088e-09
4.8619604505e-10
1.35835681861e-09
1.28687646143e-09
-5.46854916686e-10
1.93298015314e-09
-1.09788355863e-09
1.95788363546e-09
-1.66110925875e-09
2.01150164772e-09
-2.24402593512e-09
2.09162129231e-09
-2.85355851946e-09
2.19646837582e-09
-3.4959709928e-09
2.324694892e-09
-4.17723637726e-09
2.47517421188e-09
-4.90271953049e-09
2.64675839983e-09
-5.67742053534e-09
2.83807446569e-09
-6.50556042694e-09
3.04738752639e-09
-7.39078142326e-09
3.27250792868e-09
-8.33572597666e-09
3.51073710584e-09
-9.342233322e-09
3.75883965549e-09
-1.04109390989e-08
4.01304544104e-09
-1.15414873781e-08
4.26907564755e-09
-1.27321790329e-08
4.52220459431e-09
-1.39802192833e-08
4.76735110935e-09
-1.52814345904e-08
4.99920536796e-09
-1.66305763623e-08
5.21238294189e-09
-1.80211153602e-08
5.40160210244e-09
-1.94456118777e-08
5.56187351695e-09
-2.08955828446e-08
5.68868952237e-09
-2.23619330294e-08
5.7782016063e-09
-2.38348750737e-08
5.82736865994e-09
-2.53043999813e-08
5.83406890291e-09
-2.67602177492e-08
5.79715991253e-09
-2.81922335776e-08
5.71648967614e-09
-2.95904716251e-08
5.59285061651e-09
-3.09455215849e-08
5.42789217034e-09
-3.22484143417e-08
5.22399185276e-09
-3.34910134158e-08
4.98410922199e-09
-3.46658273981e-08
4.71162492188e-09
-3.57663376914e-08
4.41018991117e-09
-3.67867512773e-08
4.08358232716e-09
-3.77222717285e-08
3.7355916226e-09
-3.85688093654e-08
3.36992009467e-09
-3.93232109477e-08
2.99011520278e-09
-3.99829492428e-08
2.59951773035e-09
-4.05463272624e-08
2.20123554575e-09
-4.10121671578e-08
1.79812665157e-09
-4.13800004637e-08
1.39280017629e-09
-4.16497705517e-08
9.87620126718e-10
-4.18220136906e-08
5.84720246837e-10
-4.18975822346e-08
1.86016995233e-10
-4.18778185166e-08
-2.06770840347e-10
-4.17643141956e-08
-5.92117719607e-10
-4.15590514731e-08
-9.68664672439e-10
-4.12641884904e-08
-1.33517135202e-09
-4.08822194637e-08
-1.69049715754e-09
-4.04157845969e-08
-2.03358838286e-09
-3.98678154272e-08
-2.36346445234e-09
-3.9241370457e-08
-2.67920914783e-09
-3.85397652637e-08
-2.97996195219e-09
-3.77664311867e-08
-3.26491405829e-09
-3.69250281951e-08
-3.53330500657e-09
-3.60193229565e-08
-3.78442327102e-09
-3.5053283592e-08
-4.01760765241e-09
-3.40309734663e-08
-4.23225187992e-09
-3.29566279234e-08
-4.42781003143e-09
-3.18345601302e-08
-4.60380444196e-09
-3.06692206099e-08
-4.75983431296e-09
-2.94651115716e-08
-4.89558611723e-09
-2.82268305528e-08
-5.01084446722e-09
-2.69589899171e-08
-5.10550407797e-09
-2.56662463007e-08
-5.17958181619e-09
-2.43532224237e-08
-5.23322906107e-09
-2.30245243254e-08
-5.26674360831e-09
-2.16846633185e-08
-5.2805809796e-09
-2.03380633131e-08
-5.27536461618e-09
-1.89889816527e-08
-5.25189451906e-09
-1.76415091824e-08
-5.21115418229e-09
-1.62994898201e-08
-5.15431516127e-09
-1.49665165894e-08
-5.08273964163e-09
-1.36458512872e-08
-4.99798008486e-09
-1.23404208929e-08
-4.90177680596e-09
-1.10527413911e-08
-4.7960519207e-09
-9.78492238111e-09
-4.68290059194e-09
-8.53860568138e-09
-4.56457659031e-09
-7.31499611577e-09
-4.4434722835e-09
-6.11484317863e-09
-4.3220869993e-09
-4.93854286225e-09
-4.20297938438e-09
-3.78622671654e-09
-4.08868554961e-09
-2.65800305971e-09
-3.98157636009e-09
-1.55415414369e-09
-3.88360800798e-09
-4.75320755404e-10
-3.79594480602e-09
5.77573393366e-10
-3.71847716762e-09
1.60375357484e-09
-3.65019522907e-09
2.60302246213e-09
-3.589159989e-09
3.57545042822e-09
-3.53245529148e-09
4.52116835662e-09
-3.47710951461e-09
5.4401108484e-09
-3.42034317217e-09
6.33195230515e-09
-3.35972991621e-09
7.19602160242e-09
-3.29320298531e-09
8.03133962324e-09
-3.21903098246e-09
8.83661042634e-09
-3.13577824454e-09
9.61029528853e-09
-3.04226929354e-09
1.03506221245e-08
-2.93756189433e-09
1.10556625351e-08
-2.82092702659e-09
1.17233406964e-08
-2.69183496199e-09
1.2351504527e-08
-2.54994430364e-09
1.29379309745e-08
-2.39509345684e-09
1.34803908444e-08
-2.22729277835e-09
1.39766515171e-08
-2.0467176366e-09
1.4424536717e-08
-1.85370168055e-09
1.48219282218e-08
-1.64873080021e-09
1.51668218933e-08
-1.43243753593e-09
1.54573297655e-08
-1.20559633052e-09
1.56917334834e-08
-9.69119516591e-10
1.58684879599e-08
-7.24054218871e-10
1.59862732147e-08
-4.71579998913e-10
1.60440006186e-08
-2.13007059476e-10
1.60408642538e-08
5.02256781606e-11
1.59763507827e-08
3.16555216468e-10
1.58502821985e-08
5.8428904364e-10
1.56628289563e-08
8.51572636687e-10
1.54145599739e-08
1.1163838267e-09
1.51064569085e-08
1.37652832814e-09
1.47399586011e-08
1.62963845823e-09
1.43169702016e-08
1.87317784404e-09
1.38398946098e-08
2.10445572083e-09
1.33116279974e-08
2.320654855e-09
1.27355696182e-08
2.51887751389e-09
1.21155961924e-08
2.69621308867e-09
1.14560454322e-08
2.8498296118e-09
1.07616689449e-08
2.97708812932e-09
1.00375947483e-08
3.07567515163e-09
9.28926889836e-09
3.14374328489e-09
8.52241062982e-09
3.18004652449e-09
7.74295555588e-09
3.18405426757e-09
6.95701159631e-09
3.15603057399e-09
6.17080225706e-09
3.09707146309e-09
5.3906099048e-09
3.0091055039e-09
4.6226905494e-09
2.89487856144e-09
3.87315871331e-09
2.75796445273e-09
3.147802929e-09
2.60286663139e-09
2.45179418172e-09
2.4353117717e-09
1.78918649858e-09
2.26289252037e-09
1.16202419161e-09
2.09631300021e-09
5.68585043676e-10
1.95179964065e-09
1.85546246186e-09
-5.89871186439e-10
2.52279171886e-09
-1.18509475475e-09
2.55306671337e-09
-1.79363592378e-09
2.61997031297e-09
-2.42293359648e-09
2.72088584618e-09
-3.0800444578e-09
2.85350990757e-09
-3.77136093584e-09
3.01598418662e-09
-4.50293885081e-09
3.20669086156e-09
-5.28014207877e-09
3.42394173732e-09
-6.10785829979e-09
3.66573344876e-09
-6.99006975865e-09
3.92958528488e-09
-7.93005638084e-09
4.21244437858e-09
-8.92997165242e-09
4.51064224275e-09
-9.99105605073e-09
4.81987921048e-09
-1.11132624383e-08
5.13524474061e-09
-1.22954953403e-08
5.45126779801e-09
-1.35352998753e-08
5.7620043851e-09
-1.48291465559e-08
6.0611600933e-09
-1.61721919185e-08
6.34224793379e-09
-1.7558619914e-08
6.59877558841e-09
-1.8981472029e-08
6.82445325586e-09
-2.04330444215e-08
7.01341246837e-09
-2.19047731205e-08
7.1604190595e-09
-2.3387673165e-08
7.26106979553e-09
-2.48722541075e-08
7.31195213133e-09
-2.63489769274e-08
7.31076114006e-09
-2.78081691635e-08
7.25635609495e-09
-2.92404707007e-08
7.1487615466e-09
-3.06367194119e-08
6.98910425431e-09
-3.19883606795e-08
6.77950428863e-09
-3.32872841552e-08
6.52292065559e-09
-3.45261827709e-08
6.22297878992e-09
-3.56983355478e-08
5.88378276797e-09
-3.67979146869e-08
5.50973971069e-09
-3.78197223833e-08
5.10539414862e-09
-3.87594541023e-08
4.67529337833e-09
-3.96134052356e-08
4.22387376571e-09
-4.03787026857e-08
3.75538183209e-09
-4.10529992338e-08
3.27381467751e-09
-4.16346847102e-08
2.78288923502e-09
-4.21225836974e-08
2.28602349369e-09
-4.25161539196e-08
1.78633767469e-09
-4.28151984832e-08
1.28665976931e-09
-4.30200547391e-08
7.89543013924e-10
-4.3131326092e-08
2.97280611665e-10
-4.31500597441e-08
-1.88071140205e-10
-4.3077531692e-08
-6.64656168684e-10
-4.29153706565e-08
-1.1308597113e-09
-4.26653554022e-08
-1.58519933196e-09
-4.23295779633e-08
-2.02630817156e-09
-4.19102596052e-08
-2.45292131724e-09
-4.14098965806e-08
-2.86386010917e-09
-4.0831100808e-08
-3.25802076183e-09
-4.01767297242e-08
-3.63436421656e-09
-3.94497492903e-08
-3.99191095627e-09
-3.86533463073e-08
-4.32973725496e-09
-3.77908104325e-08
-4.64697558296e-09
-3.68656285902e-08
-4.94281645907e-09
-3.5881382597e-08
-5.21651367624e-09
-3.48418261851e-08
-5.46739082339e-09
-3.37507948305e-08
-5.6948504401e-09
-3.26122665746e-08
-5.8983841957e-09
-3.14302807565e-08
-6.07758500334e-09
-3.02089842715e-08
-6.23215977376e-09
-2.89525561512e-08
-6.3619433997e-09
-2.76652411818e-08
-6.46691285672e-09
-2.63512776739e-08
-6.54720174078e-09
-2.50149205251e-08
-6.60311422441e-09
-2.36603700974e-08
-6.63513850582e-09
-2.22917869609e-08
-6.64395883141e-09
-2.09132206071e-08
-6.63046595636e-09
-1.95286184177e-08
-6.59576532253e-09
-1.81417541413e-08
-6.54118264302e-09
-1.67562344117e-08
-6.46826647481e-09
-1.53754288433e-08
-6.37878717244e-09
-1.40024792142e-08
-6.27473197226e-09
-1.2640236406e-08
-6.15829478453e-09
-1.12912812505e-08
-6.03185998122e-09
-9.95787977149e-09
-5.8979768954e-09
-8.64203253535e-09
-5.75932268489e-09
-7.34547053695e-09
-5.61864681861e-09
-6.06976124608e-09
-5.47869096959e-09
-4.81637296624e-09
-5.34207084538e-09
-3.58684362534e-09
-5.21110728307e-09
-2.38285477367e-09
-5.08759323729e-09
-1.20628734325e-09
-4.9725132283e-09
-5.89278470865e-11
-4.86583254036e-09
1.05719091139e-09
-4.76631448214e-09
2.14054057981e-09
-4.67250514427e-09
3.19045009646e-09
-4.58236487658e-09
4.20638456293e-09
-4.49303917118e-09
5.18792251506e-09
-4.40188082383e-09
6.13461519787e-09
-4.3064175716e-09
7.0458803705e-09
-4.2044675369e-09
7.92099409283e-09
-4.09413952996e-09
8.75904491696e-09
-3.97382816881e-09
9.55897732472e-09
-3.84219643964e-09
1.03195763725e-08
-3.69815979887e-09
1.10395258456e-08
-3.540871203e-09
1.17174012393e-08
-3.36970899925e-09
1.23517284908e-08
-3.18426626694e-09
1.29409782424e-08
-2.98434166471e-09
1.34836215503e-08
-2.76993084345e-09
1.39781242271e-08
-2.54121860601e-09
1.44229992319e-08
-2.29857151972e-09
1.48168015328e-08
-2.04253125229e-09
1.51581776892e-08
-1.77380863269e-09
1.54458619389e-08
-1.49327861155e-09
1.56787235441e-08
-1.20197619429e-09
1.58557647272e-08
-9.01093335008e-10
1.59761662629e-08
-5.91976763049e-10
1.60392877955e-08
-2.76126446197e-10
1.60447124819e-08
4.48055886579e-11
1.59922504647e-08
3.69019443002e-10
1.58819682386e-08
6.94575680167e-10
1.57141917969e-08
1.01935134315e-09
1.54895443681e-08
1.3410354773e-09
1.5208948579e-08
1.65712643848e-09
1.48736573137e-08
1.9649337647e-09
1.44852501176e-08
2.26158742837e-09
1.4045651894e-08
2.54405782451e-09
1.35571189849e-08
2.809190239e-09
1.30222426668e-08
3.05375757933e-09
1.24439242459e-08
3.27453409313e-09
1.18253663233e-08
3.46839119058e-09
1.11700438985e-08
3.63241327466e-09
1.04816945546e-08
3.76402810638e-09
9.76429887968e-09
3.86114184931e-09
9.02208271903e-09
3.92226632751e-09
8.2595155158e-09
3.94662458934e-09
7.48132577528e-09
3.93422408281e-09
6.69250754866e-09
3.88589312952e-09
5.89832801943e-09
3.80328891519e-09
5.104309411e-09
3.68890092163e-09
4.31618288685e-09
3.5460951747e-09
3.53978086819e-09
3.37927274057e-09
2.78083900548e-09
3.19425795656e-09
2.0446300617e-09
2.99910535272e-09
1.33528680363e-09
2.80565968342e-09
6.54581884464e-10
2.63250796802e-09
2.51004520721e-09
-6.31368625045e-10
3.1540986548e-09
-1.26924265077e-09
3.19090110781e-09
-1.92174813561e-09
3.27240178699e-09
-2.59644289914e-09
3.39554490935e-09
-3.30049465076e-09
3.55749242874e-09
-4.04039131907e-09
3.75585619998e-09
-4.82223654718e-09
3.988471653e-09
-5.65134238393e-09
4.25302982729e-09
-6.53245119042e-09
4.54678806556e-09
-7.46928132911e-09
4.8664023603e-09
-8.46472628197e-09
5.20784078254e-09
-9.52044411567e-09
5.56635189843e-09
-1.06370834122e-08
5.93647551514e-09
-1.18139320898e-08
6.31208850298e-09
-1.30491883246e-08
6.68648533266e-09
-1.43396837511e-08
7.05249733069e-09
-1.56812075071e-08
7.40264826614e-09
-1.70683040612e-08
7.72934403966e-09
-1.84946519504e-08
8.02509022573e-09
-1.99529230363e-08
8.28272578866e-09
-2.14352054377e-08
8.49566346928e-09
-2.29329006661e-08
8.65811755805e-09
-2.44371700189e-08
8.76530925154e-09
-2.59388404292e-08
8.81362747542e-09
-2.74288485853e-08
8.80074056942e-09
-2.88981271118e-08
8.72564089992e-09
-3.03380227591e-08
8.58862926244e-09
-3.17401424119e-08
8.39123104393e-09
-3.30967303584e-08
8.13606468548e-09
-3.44004661181e-08
7.82666379416e-09
-3.56447968701e-08
7.46728194752e-09
-3.68236909968e-08
7.06268382311e-09
-3.79319302231e-08
6.61795090162e-09
-3.89648302735e-08
6.13829997433e-09
-3.9918501139e-08
5.6289354399e-09
-4.07895490749e-08
5.09492567142e-09
-4.15753136797e-08
4.54111664508e-09
-4.22735651297e-08
3.97206774985e-09
-4.28827249644e-08
3.39201820102e-09
-4.3401570274e-08
2.80486768973e-09
-4.38294423955e-08
2.2141779079e-09
-4.41659667507e-08
1.62318007612e-09
-4.44112511457e-08
1.0347947003e-09
-4.4565629089e-08
4.51651566678e-10
-4.4629833621e-08
-1.23899806099e-10
-4.46048070704e-08
-6.89692450308e-10
-4.44918087852e-08
-1.24389124731e-09
-4.42922293976e-08
-1.78479082433e-09
-4.40077559369e-08
-2.3108144376e-09
-4.36401891432e-08
-2.82050207733e-09
-4.3191591268e-08
-3.31248982084e-09
-4.26641309199e-08
-3.78549632851e-09
-4.20602136985e-08
-4.23831179576e-09
-4.13823487121e-08
-4.66979175534e-09
-4.06332611678e-08
-5.07885322339e-09
-3.98157776006e-08
-5.46447490348e-09
-3.89329205882e-08
-5.82569959075e-09
-3.79878095116e-08
-6.16163984454e-09
-3.69837383493e-08
-6.47148553702e-09
-3.59240887812e-08
-6.75451392604e-09
-3.48123926456e-08
-7.01010116806e-09
-3.36522543356e-08
-7.23773565934e-09
-3.2447399918e-08
-7.43703228354e-09
-3.12016060349e-08
-7.60774778717e-09
-2.99187379104e-08
-7.74979640337e-09
-2.86026823608e-08
-7.86326581066e-09
-2.72573769847e-08
-7.9484325146e-09
-2.58867454001e-08
-8.00577660166e-09
-2.44947199424e-08
-8.03599492069e-09
-2.30851779733e-08
-8.04001250048e-09
-2.16619606074e-08
-8.01899130245e-09
-2.02288100802e-08
-7.97433595623e-09
-1.87893877516e-08
-7.90769568004e-09
-1.7347214418e-08
-7.82096169925e-09
-1.59056925153e-08
-7.71625928982e-09
-1.44680542399e-08
-7.59593288278e-09
-1.30373957654e-08
-7.46252266352e-09
-1.16166420532e-08
-7.31872928782e-09
-1.02086043767e-08
-7.16736358658e-09
-8.81597365801e-09
-7.01127529136e-09
-7.44141116206e-09
-6.85325589459e-09
-6.08757080115e-09
-6.69590822581e-09
-4.75719923316e-09
-6.54148063322e-09
-3.45311904935e-09
-6.39166986746e-09
-2.1782102768e-09
-6.24742325213e-09
-9.35260397856e-10
-6.10877842602e-09
2.73246653072e-10
-5.97482234215e-09
1.44473011833e-09
-5.84398428757e-09
2.57723924862e-09
-5.71487444228e-09
3.6697701666e-09
-5.58556553121e-09