/*--------------------------------*- C++ -*----------------------------------*\
| =========                 |                                                 |
| \\      /  F ield         | OpenFOAM: The Open Source CFD Toolbox           |
|  \\    /   O peration     | Version:  2206                                  |
|   \\  /    A nd           | Website:  www.openfoam.com                      |
|    \\/     M anipulation  |                                                 |
\*---------------------------------------------------------------------------*/
FoamFile
{
    version     2.0;
    format      ascii;
    arch        "LSB;label=64;scalar=64";
    class       volScalarField;
    location    "3.8/water";
    object      reactingEulerHtcModel(T.liquid);
}
// * * * * * * * * * * * * * * * * * * * * * * * * * * * * * * * * * * * * * //

dimensions      [1 0 -3 -1 0 0 0];

internalField   uniform 0;

boundaryField
{
    maxY
    {
        type            calculated;
        value           uniform 0;
    }
    symmetric
    {
        type            symmetry;
    }
    maxX
    {
        type            calculated;
        value           uniform 0;
    }
    minY
    {
        type            calculated;
        value           uniform 0;
    }
    emptyPatch
    {
        type            empty;
    }
    water_to_solid
    {
        type            calculated;
        value           nonuniform List<scalar> 
70
(
-93.4342146924
-93.6541195737
-93.8738831198
-94.097490378
-97.2684555902
-105.250940754
-119.548994466
-144.939210621
-188.972530542
-226.70541368
-238.8777728
-238.763362101
-240.537799126
-244.59792243
-226.391544556
-221.410784534
-217.361280787
-220.637803934
-213.997084632
-220.735794259
-214.119899488
-219.965343686
-213.961322995
-220.105925019
-214.634827152
-220.593573436
-216.365874803
-221.277903368
-219.270271641
-221.622257529
-224.549209978
-239.851283139
-246.675654315
-244.488587752
-240.749724926
-239.591356715
-241.539188999
-246.567268377
-134.721607638
-110.160073853
-116.298337236
-105.370064475
-114.485915956
-104.25694721
-113.803474367
-104.450621619
-113.58505994
-105.685946858
-113.422129993
-107.101562247
-113.310557469
-108.377109898
-113.182847092
-109.520235437
-113.022993521
-111.008587402
-113.42034278
-113.196100134
-138.614613161
-230.588573479
-231.44166888
-231.877220923
-232.25853715
-232.581559832
-232.740063026
-232.899967686
-234.143435576
-234.193209913
-227.067691189
-233.968931778
)
;
    }
}


// ************************************************************************* //
