/*--------------------------------*- C++ -*----------------------------------*\
| =========                 |                                                 |
| \\      /  F ield         | OpenFOAM: The Open Source CFD Toolbox           |
|  \\    /   O peration     | Version:  2212                                  |
|   \\  /    A nd           | Website:  www.openfoam.com                      |
|    \\/     M anipulation  |                                                 |
\*---------------------------------------------------------------------------*/
FoamFile
{
    version     2.0;
    format      ascii;
    arch        "LSB;label=64;scalar=64";
    class       volScalarField;
    location    "500";
    object      epsilon;
}
// * * * * * * * * * * * * * * * * * * * * * * * * * * * * * * * * * * * * * //

dimensions      [0 2 -3 0 0 0 0];

internalField   nonuniform List<scalar> 
125000
(
1.23726253715
1.26431580974
1.23726250845
0.448403272291
1.27069511877
1.26431574349
0.480594952526
1.2372625085
0.448403271633
0.240348221441
1.26858243797
1.27069509969
0.489487745627
1.26431574101
0.480594956578
0.255256039417
1.23726250858
0.448403271537
0.240348225187
0.160233668602
1.26274227346
1.26858242648
0.491682625631
1.27069510202
0.489487753925
0.262042162932
1.26431574387
0.480594956033
0.255256047021
0.165986235237
1.23726253693
0.448403271814
0.240348224979
0.160233673399
0.118863273481
1.25472302461
1.26274225917
0.49166143683
1.26858242802
0.491682626792
0.265069820292
1.27069510037
0.489487753816
0.262042171582
0.169692259871
1.26431581042
0.480594956831
0.255256046824
0.165986237684
0.120951244004
0.448403272156
0.240348225271
0.160233673308
0.11886328925
0.0933718014695
1.2477326744
1.25472299967
0.491200477068
1.26274225995
0.491661434431
0.266283124207
1.2685824269
0.491682626407
0.26506982498
0.17187545092
1.2706951197
0.489487754247
0.26204217155
0.169692264508
0.122720289756
0.480594953078
0.255256047097
0.165986237537
0.120951242777
0.0941102536119
0.240348220625
0.160233673437
0.118863289278
0.0933718636202
0.0759393335667
1.24225677006
1.24773264422
0.490631644451
1.25472300056
0.491200468937
0.266798746577
1.26274225998
0.491661434287
0.266283125812
0.173029064472
1.26858243871
0.491682627147
0.265069824701
0.171875454512
0.123989751099
0.4894877464
0.262042171628
0.169692264508
0.122720291585
0.0949162830538
0.255256039388
0.165986237703
0.120951242658
0.0941102237234
0.0762248637681
0.160233667353
0.118863289262
0.0933718639748
0.075939348579
0.0632546265811
1.23803827307
1.24225673374
0.490348389909
1.2477326456
0.490631633354
0.267093999668
1.25472300015
0.491200468812
0.266798745352
0.173622042183
1.2627422754
0.491661434839
0.266283125626
0.173029066629
0.124784703181
0.491682626495
0.265069825049
0.171875454364
0.123989753066
0.0955848282268
0.262042163087
0.169692264515
0.122720291574
0.0949162807217
0.076587278841
0.165986234738
0.120951242793
0.0941102234655
0.0762248628067
0.063377690253
0.118863272309
0.0933718636075
0.0759393486488
0.0632546306693
0.0536223970282
1.23472292035
1.23803823437
0.490204637048
1.24225673464
0.490348376578
0.267409338032
1.24773264477
0.490631633193
0.267093996318
0.173965421076
1.2547230261
0.49120046928
0.266798745173
0.173622042922
0.12523454737
0.491661437841
0.266283125887
0.173029066487
0.124784704651
0.0960631348467
0.26506982052
0.171875454522
0.123989752981
0.0955848289342
0.0769230985793
0.16969225975
0.122720291588
0.0949162806904
0.076587279615
0.0635481483573
0.120951243373
0.0941102237348
0.0762248627504
0.0633776903521
0.0536811915341
0.0933717988659
0.0759393485767
0.063254630692
0.0536223985072
0.046074158622
1.2321451259
1.23472288037
0.490100344739
1.2380382354
0.490204622925
0.26775482035
1.24225673398
0.49034837625
0.267409333033
0.174247998358
1.24773267658
0.490631633775
0.26709399608
0.173965420527
0.125485971485
0.491200477993
0.266798745426
0.17362204277
0.125234548213
0.096355781831
0.266283124457
0.173029066648
0.124784704553
0.096063135661
0.0771926117624
0.171875450916
0.123989753069
0.0955848288805
0.0769230993599
0.0637162984488
0.122720289502
0.0949162807219
0.0765872796089
0.0635481489395
0.0537670715358
0.0941102544603
0.0762248628101
0.063377690309
0.0536811912949
0.0461055078812
0.0759393331025
0.0632546306671
0.0536223985246
0.046074159415
0.0400135307014
1.23002038044
1.23214508531
0.490035083564
1.23472288123
0.490100330022
0.268121638159
1.23803823455
0.490204622626
0.267754814483
0.174526368709
1.24225677145
0.490348376913
0.267409332705
0.174247996663
0.125657243601
0.490631645623
0.267093996397
0.17396542033
0.125485971649
0.0965166503768
0.266798746853
0.173622042937
0.125234548096
0.0963557823855
0.0773693817746
0.173029064531
0.124784704659
0.0960631355983
0.0771926122945
0.0638651203061
0.123989751011
0.0955848289335
0.0769230993261
0.0637162989079
0.0538545601683
0.0949162830032
0.0765872796141
0.0635481489319
0.0537670716386
0.0461513618968
0.0762248636641
0.0633776903522
0.0536811912584
0.0461055076315
0.0400322554708
0.0632546265274
0.0536223985052
0.0460741594333
0.0400135312333
0.035052237628
1.22824942102
1.23002033975
0.489944178505
1.2321450859
0.490035068614
0.268474159678
1.23472288049
0.490100329674
0.268121631666
0.174826187396
1.2380382747
0.490204623232
0.26775481413
0.174526366265
0.125804259305
0.490348390811
0.2674093331
0.174247996398
0.125657243097
0.0966050155681
0.267093999959
0.17396542055
0.125485971497
0.0965166505839
0.0774679153223
0.173622042257
0.125234548219
0.0963557823004
0.0773693820757
0.0639695975134
0.12478470316
0.0960631356654
0.0771926122523
0.0638651205805
0.0539376837065
0.0955848281508
0.0769230993594
0.0637162988813
0.0538545602748
0.046199717974
0.0765872787431
0.0635481489381
0.0537670716271
0.0461513618076
0.040057969731
0.0633776902064
0.0536811912961
0.046105507602
0.0400322553015
0.0350644937093
0.0536223970423
0.0460741594142
0.0400135312517
0.0350522380047
0.030926251699
1.22672517587
1.22824938042
0.489838539549
1.23002034027
0.489944163447
0.268794664207
1.23214508511
0.490035068188
0.268474152876
0.175134599833
1.23472292157
0.490100330262
0.268121631239
0.174826184382
0.125960565183
0.490204637994
0.267754814544
0.174526365962
0.125804258278
0.0966605937764
0.267409338297
0.174247996679
0.125657242893
0.0966050154088
0.0775087363751
0.173965421176
0.12548597166
0.0965166504719
0.0774679154207
0.0640314606467
0.125234547379
0.0963557823865
0.07736938201
0.063969597609
0.0540002565737
0.0960631348148
0.0771926122973
0.063865120549
0.0539376837562
0.046247482417
0.0769230985144
0.0637162989065
0.05385456025
0.0461997178938
0.0400861025548
0.063548148308
0.0537670716381
0.0461513617943
0.0400579696067
0.035079754222
0.0536811915351
0.0461055076322
0.0400322552783
0.0350644936059
0.0309347140405
0.0460741586372
0.0400135312336
0.0350522380205
0.0309262519625
0.0274496348058
1.22538691414
1.22672513555
0.489709991926
1.22824938029
0.489838524462
0.269086700665
1.23002033972
0.489944162978
0.268794657191
0.175438553242
1.23214512677
0.490035068722
0.268474152411
0.175134596471
0.126133200383
0.490100345428
0.268121631712
0.174826184009
0.125960563744
0.0967127625731
0.267754820604
0.174526366286
0.125804258036
0.096660593271
0.0775172685512
0.174247998447
0.125657243102
0.0966050152576
0.0775087362483
0.0640479615734
0.125485971515
0.0965166505905
0.0774679153356
0.0640314606331
0.0540414610329
0.0963557818132
0.0773693820767
0.0639695975546
0.0540002565183
0.0462861231242
0.0771926117309
0.063865120582
0.0539376837284
0.0462474823325
0.0401145685111
0.0637162984135
0.0538545602743
0.0461997178702
0.0400861024165
0.0350966788748
0.0537670715227
0.0461513618068
0.040057969593
0.0350797541099
0.0309443839464
0.0461055078923
0.0400322553024
0.0350644935867
0.0309347139797
0.0274556234843
0.0400135307091
0.0350522380044
0.0309262519756
0.0274496349832
0.0244876299011
1.22418616305
1.22538687411
0.489560702884
1.22672513553
0.489709976905
0.269339115409
1.22824937973
0.489838523786
0.269086693537
0.175737830593
1.23002038122
0.489944163521
0.268794656666
0.175438549633
0.126316643186
0.490035084063
0.2684741529
0.175134596053
0.126133198643
0.0967755263218
0.268121638375
0.174826184392
0.125960563446
0.0967127618266
0.0775159572135
0.174526368813
0.125804258289
0.0966605930809
0.0775172681923
0.0640410235914
0.125657243638
0.0966050154111
0.0775087361293
0.0640479613732
0.0540495907954
0.0965166503844
0.0774679154251
0.0640314605674
0.0540414609243
0.046314789479
0.0773693817545
0.0639695976092
0.05400025647
0.0462861229838
0.0401392078402
0.0638651202842
0.0539376837572
0.0462474823059
0.0401145683717
0.0351141996975
0.0538545601558
0.0461997178932
0.0400861023954
0.0350966787385
0.0309548917064
0.0461513618972
0.0400579696064
0.0350797540954
0.0309443838534
0.0274621239724
0.0400322554806
0.0350644936063
0.0309347139642
0.0274556234541
0.0244919241474
0.0350522376324
0.0309262519615
0.0274496349941
0.0244876300138
0.0219401950832
1.22311270646
1.22418612348
0.489395151687
1.22538687367
0.489560687899
0.269552363006
1.22672513532
0.489709976253
0.269339108251
0.176018823462
1.22824942099
0.489838524278
0.269086692949
0.175737826832
0.12651098292
0.489944178836
0.268794657186
0.175438549151
0.126316641228
0.096850043081
0.268474159836
0.17513459648
0.126133198301
0.096775525339
0.0775155746019
0.174826187475
0.125960563747
0.096712761598
0.0775159567592
0.0640216141379
0.125804259355
0.096660593278
0.0775172680372
0.0640410233196
0.0540416447269
0.0966050155757
0.0775087362504
0.0640479612703
0.0540495905566
0.0463227398869
0.0774679153199
0.0640314606358
0.0540414608691
0.0463147893131
0.0401591741489
0.0639695975012
0.0540002565189
0.0462861229398
0.0401392076695
0.035130288097
0.0539376836955
0.0462474823329
0.0401145683455
0.0351141995541
0.030965892286
0.0461997179738
0.0400861024165
0.0350966787192
0.03095489159
0.0274689164721
0.040057969734
0.0350797541094
0.0309443838388
0.0274621238999
0.0244964776088
0.0350644937167
0.03093471398
0.0274556234414
0.0244919241406
0.0219433123323
0.0309262517006
0.0274496349828
0.024487630023
0.0219401951491
0.0197315097457
1.22213788637
1.22311266721
0.489224430563
1.22418612301
0.489395136824
0.269729732648
1.22538687353
0.489560687196
0.26955235582
0.176280832815
1.2267251762
0.489709976787
0.269339107611
0.176018819616
0.126707888114
0.489838539553
0.269086693499
0.175737826306
0.126510980816
0.0969379333833
0.268794664306
0.175438549627
0.126316640826
0.0968500419445
0.0775200973477
0.175134599904
0.126133198649
0.0967755250653
0.0775155739486
0.0639923985788
0.125960565228
0.0967127618272
0.0775159565835
0.0640216137624
0.0540211160074
0.0966605938041
0.0775172681978
0.0640410232007
0.0540416444549
0.0463176380235
0.0775087363759
0.0640479613757
0.0540495904672
0.0463227396386
0.04016882101
0.0640314606396
0.0540414609262
0.0463147892633
0.0401591739632
0.0351440052517
0.0540002565685
0.0462861229842
0.0401392076295
0.0351302879326
0.0309765329392
0.0462474824126
0.040114568372
0.0351141995287
0.0309658921612
0.0274759472798
0.0400861025585
0.0350966787382
0.0309548915726
0.0274689163811
0.0245010655339
0.0350797542248
0.0309443838531
0.0274621238853
0.0244964775566
0.0219465825032
0.0309347140454
0.0274556234547
0.0244919241305
0.0219433123442
0.0197338042339
0.0274496348055
0.0244876300137
0.0219401951559
0.0197315097784
0.0178030619654
1.2212511526
1.22213784767
0.48904619925
1.22311266641
0.489224415801
0.26987896626
1.22418612332
0.489395136136
0.269729725486
0.176520953881
1.225386914
0.489560687731
0.269552355164
0.176280828904
0.126903780935
0.489709991934
0.269339108192
0.176018819048
0.126707885912
0.0970381135721
0.269086700707
0.175737826822
0.126510980373
0.0969379321334
0.0775335247659
0.17543855328
0.12631664122
0.0968500416249
0.0775200966287
0.063963798317
0.126133200427
0.096775525343
0.0775155737247
0.0639923980985
0.0539872822128
0.0967127625914
0.0775159567597
0.0640216136165
0.0540211156724
0.0463032876482
0.0775172685698
0.0640410233219
0.0540416443544
0.0463176377557
0.0401670103892
0.0640479615786
0.0540495905593
0.0463227395603
0.0401688207749
0.0351537623673
0.0540414610275
0.0463147893142
0.0401591739164
0.0351440050743
0.0309859635892
0.0462861231245
0.0401392076701
0.0351302878961
0.0309765327985
0.0274829973894
0.04011456851
0.0351141995541
0.0309658921374
0.0274759471824
0.0245056848458
0.0350966788791
0.03095489159
0.0274689163649
0.0245010654681
0.021949798909
0.0309443839485
0.0274621238996
0.0244964775427
0.0219465824712
0.0197361914438
0.0274556234877
0.0244919241411
0.0219433123362
0.0197338042596
0.017804774757
0.0244876298994
0.0219401951488
0.0197315097832
0.0178030619753
0.0161089711126
1.22043866418
1.22125111425
0.488866493856
1.22213784664
0.48904618466
0.270000145
1.22311266685
0.489224415016
0.269878959122
0.176741066233
1.22418616329
0.489395136781
0.26972972479
0.176520949956
0.127095694468
0.489560702781
0.269552355775
0.176280828308
0.126903778656
0.0971466908181
0.269339115415
0.176018819598
0.126707885419
0.0970381122283
0.077560865468
0.175737830623
0.126510980812
0.0969379317788
0.0775335239629
0.063939046953
0.126316643212
0.0968500419391
0.0775200963773
0.0639637977763
0.0539495174876
0.0967755263497
0.0775155739518
0.0639923979203
0.053987281817
0.0462761643346
0.0775159572247
0.064021613762
0.0540211155495
0.046303287344
0.040159399593
0.0640410235954
0.0540416444562
0.0463176376681
0.0401670101407
0.0351551691228
0.0540495908019
0.0463227396402
0.0401688207064
0.0351537621665
0.0309938928592
0.0463147894748
0.040159173964
0.035144005029
0.0309859634373
0.0274895058252
0.0401392078431
0.0351302879329
0.0309765327655
0.0274829972806
0.0245103553788
0.0351141996973
0.0309658921613
0.0274759471604
0.0245056847773
0.0219529430232
0.03095489171
0.0274689163812
0.0245010654535
0.0219497988678
0.0197385076486
0.0274621239739
0.0244964775564
0.0219465824582
0.0197361914298
0.0178065407312
0.0244919241497
0.0219433123447
0.0197338042537
0.0178047747925
0.0161102657537
0.0219401950813
0.0197315097777
0.0178030619786
0.0161089711077
0.0146127488585
1.21968953697
1.22043862645
0.488685378467
1.22125111298
0.488866479365
0.270099127942
1.22213784755
0.489046183816
0.270000137934
0.176939289795
1.22311270641
0.489224415691
0.269878958385
0.176741062298
0.127281114637
0.489395151681
0.269729725457
0.176520949314
0.127095692163
0.0972620005857
0.269552363007
0.176280828902
0.126903778134
0.0971466894065
0.0775983530878
0.176018823469
0.126707885894
0.0970381118253
0.07756086457
0.0639224605528
0.126510982945
0.0969379321325
0.0775335236817
0.063939046363
0.0539110103081
0.0968500430931
0.0775200966243
0.0639637975682
0.0539495170508
0.046242466231
0.0775155746236
0.0639923981005
0.05398728167
0.0462761639934
0.0401426285174
0.0640216141452
0.0540211156721
0.0463032872384
0.0401593993257
0.0351522785222
0.0540416447285
0.0463176377563
0.0401670100631
0.0351551689025
0.0309979699598
0.0463227398933
0.0401688207765
0.0351537621093
0.0309938926968
0.0274953498596
0.040159174147
0.0351440050746
0.030985963395
0.0274895057075
0.0245148371881
0.0351302881004
0.030976532799
0.0274829972508
0.0245103553032
0.0219560730259
0.0309658922865
0.0274759471821
0.0245056847576
0.0219529429827
0.019740721347
0.027468916475
0.0245010654683
0.0219497988548
0.0197385076291
0.0178082407027
0.0244964776099
0.0219465824712
0.0197361914183
0.0178065407329
0.0161115882715
0.0219433123337
0.01973380426
0.0178047747884
0.0161102657949
0.0146137375501
0.0197315097437
0.0178030619748
0.0161089711099
0.0146127488453
0.0132850092489
1.21900229666
1.21968949971
0.48850543643
1.22043862483
0.488685364197
0.270178090463
1.22125111404
0.488866478494
0.270099120909
0.177118267659
1.22213788656
0.489046184611
0.27000013714
0.17693928589
0.127456961112
0.489224430479
0.269878959086
0.17674106162
0.127281112308
0.0973807243745
0.269729732653
0.17652094995
0.127095691592
0.0972619991477
0.0776462767001
0.176280832832
0.126903778653
0.0971466889736
0.0775983521474
0.0639141950124
0.126707888122
0.0970381122183
0.0775608642366
0.0639224599174
0.0538754745947
0.0969379334032
0.0775335239628
0.0639390461288
0.0539110098396
0.0462049557077
0.0775200973569
0.0639637977724
0.0539495168767
0.0462424658654
0.0401179520976
0.063992398589
0.0539872818187
0.0462761638679
0.0401426282239
0.0351442055306
0.0540211160139
0.0463032873435
0.0401593992344
0.035152278296
0.0309975715596
0.0463176380229
0.0401670101414
0.0351551688286
0.030997969782
0.027499775129
0.0401688210163
0.035153762167
0.030993892647
0.0274953497374
0.0245189973097
0.0351440052504
0.0309859634377
0.0274895056693
0.0245148371063
0.0219591395209
0.0309765329423
0.0274829972811
0.024510355277
0.0219560729822
0.0197428707022
0.0274759472799
0.0245056847771
0.0219529429656
0.0197407213314
0.017809841643
0.0245010655363
0.0219497988679
0.019738507618
0.0178082407018
0.0161128546614
0.0219465825041
0.0197361914298
0.017806540723
0.0161115882854
0.014614739187
0.0197338042347
0.0178047747929
0.0161102657925
0.0146137375942
0.0132857705708
0.0178030619635
0.0161089711073
0.0146127488464
0.0132850092316
0.0121018185052
1.21836768429
1.21900225988
0.48833029113
1.21968949783
0.488505422296
0.270240203001
1.22043862636
0.488685363222
0.270178083523
0.177278993293
1.22125115261
0.488866479326
0.270099120094
0.177118263763
0.127623807134
0.48904619922
0.270000137897
0.176939285169
0.127456958794
0.0974998428673
0.269878966255
0.176741062294
0.127281111706
0.0973807229142
0.0777012342407
0.176520953883
0.127095692153
0.0972619986706
0.077646275743
0.0639157825467
0.12690378095
0.0971466894085
0.0775983517846
0.0639141943404
0.0538441319586
0.0970381135758
0.0775608645597
0.063922459651
0.0538754741054
0.0461665699763
0.0775335247853
0.0639390463626
0.0539110096428
0.046204955323
0.0400882901364
0.0639637983232
0.0539495170472
0.0462424657177
0.0401179517916
0.0351290284692
0.0539872822203
0.0462761639943
0.0401426281142
0.0351442052917
0.0309946429554
0.0463032876539
0.0401593993259
0.0351522782151
0.0309975713788
0.0275015368206
0.0401670103893
0.0351551689027
0.0309979697167
0.0274997749988
0.0245226363446
0.0351537623707
0.0309938926973
0.0274953496924
0.0245189972268
0.0219620620386
0.0309859635893
0.0274895057073
0.0245148370732
0.0219591394739
0.0197449724048
0.0274829973919
0.0245103553037
0.0219560729596
0.0197428706868
0.017811360897
0.0245056848461
0.0219529429826
0.0197407213172
0.0178098416485
0.0161140359775
0.0219497989106
0.0197385076294
0.0178082406926
0.0161128546749
0.0146156947211
0.0197361914446
0.0178065407331
0.0161115882774
0.0146147392101
0.0132865367572
0.0178047747573
0.0161102657952
0.014613737593
0.0132857706146
0.0121024087107
0.0161089711109
0.0146127488448
0.0132850092319
0.0121018184868
0.0110434851452
1.21777878299
1.21836764802
0.488158481385
1.21900225774
0.488330277152
0.270289244031
1.21968949956
0.488505421247
0.270240196132
0.17742298124
1.22043866432
0.488685364206
0.270178082661
0.177278989445
0.127780639348
0.488866493812
0.270099120884
0.177118263018
0.127623804817
0.0976186924097
0.270000144991
0.176939285881
0.12745695815
0.0974998414148
0.077762247663
0.176741066239
0.127281112305
0.097380722408
0.0777012332703
0.0639229795969
0.127095694474
0.0972619991434
0.0776462753468
0.0639157818694
0.0538192377046
0.0971466908345
0.077598352146
0.0639141940383
0.05384413145
0.0461288523009
0.0775608654703
0.0639224599115
0.0538754738829
0.0461665695831
0.0400555748203
0.0639390469627
0.0539110098389
0.0462049551566
0.0400882898206
0.0351088776161
0.0539495174929
0.0462424658623
0.0401179516645
0.0351290282219
0.0309874845894
0.0462761643376
0.0401426282243
0.0351442051977
0.0309946427705
0.0275009528003
0.0401593996006
0.0351522782959
0.0309975713072
0.0275015366864
0.024525188174
0.0351551691227
0.0309979697825
0.0274997749443
0.0245226362592
0.0219647745088
0.030993892862
0.0274953497378
0.0245189971875
0.0219620619926
0.0197470087759
0.0274895058249
0.0245148371063
0.0219591394458
0.0197449723888
0.017812822904
0.0245103553811
0.0219560729825
0.0197428706682
0.0178113609053
0.0161151382117
0.0219529430235
0.0197407213313
0.0178098416371
0.0161140359991
0.0146165804377
0.01973850765
0.0178082407021
0.0161128546677
0.0146156947453
0.0132872659182
0.0178065407318
0.0161115882857
0.0146147392039
0.0132865367859
0.0121029998024
0.0161102657538
0.0146137375943
0.0132857706146
0.0121024087523
0.0110439452657
0.014612748857
0.013285009231
0.0121018184865
0.0110434851275
0.0100936589668
1.21722987995
1.21777874739
0.487990378077
1.21836764561
0.488158467595
0.270325993503
1.21900225983
0.488330276026
0.270289237248
0.177552470232
1.219689537
0.488505422272
0.270240195222
0.177422977431
0.127927464911
0.488685378472
0.270178083508
0.177278988667
0.127780637064
0.0977355653192
0.270099127938
0.177118263765
0.127623804147
0.0976186909543
0.0778281057195
0.17693928979
0.12745695878
0.0974998408698
0.077762246701
0.0639387519107
0.127281114645
0.0973807229159
0.0777012328489
0.0639229789149
0.0537994663234
0.0972620005893
0.0776462757378
0.063915781549
0.053819237195
0.0460938856626
0.0775983531011
0.0639141943401
0.0538441312023
0.0461288518999
0.0400211752465
0.0639224605574
0.0538754740998
0.0461665693957
0.0400555745023
0.0350849139788
0.0539110103155
0.0462049553223
0.0400882896785
0.0351088773641
0.030975568296
0.0462424662347
0.0401179517892
0.0351290281127
0.0309874843993
0.0274984482871
0.0401426285183
0.0351442052916
0.0309946426899
0.0275009526664
0.024526112394
0.0351522785266
0.0309975713789
0.0275015366213
0.0245251880863
0.02196707684
0.0309979699606
0.0274997749984
0.024522636213
0.0219647744637
0.019748955172
0.0274953498618
0.0245189972273
0.0219620619594
0.0197470087627
0.0178142405291
0.0245148371882
0.0219591394738
0.019744972366
0.0178128229142
0.0161161786142
0.0219560730273
0.0197428706872
0.0178113608907
0.0161151382382
0.014617397165
0.0197407213475
0.0178098416485
0.0161140359907
0.014616580471
0.0132879391199
0.0178082407035
0.0161128546752
0.0146156947398
0.013287265949
0.0121035617125
0.016111588272
0.0146147392103
0.0132865367815
0.0121029998342
0.0110444045724
0.0146137375501
0.0132857706146
0.0121024087531
0.0110439453037
0.0100940193787
0.0132850092478
0.0121018184863
0.011043485127
0.0100936589508
0.00923865061957
1.21671902541
1.21722984487
0.487826522388
1.21777874463
0.487990364526
0.270352579793
1.21836764791
0.488158466411
0.27032598679
0.177667974743
1.21900229678
0.488330277139
0.270289236299
0.177552466487
0.12806480332
0.488505436404
0.270240196111
0.177422976613
0.127927462652
0.0978498419781
0.270178090467
0.177278989444
0.127780636364
0.0977355638942
0.0778974135907
0.177118267664
0.127623804815
0.097618690384
0.0778281047567
0.063961069888
0.12745696111
0.097499841408
0.0777622462412
0.063938751235
0.0537862448611
0.0973807243855
0.0777012332697
0.0639229785702
0.0537994658138
0.0460618802214
0.0776462767052
0.0639157818675
0.0538192369238
0.0460938852659
0.0399867213149
0.0639141950211
0.0538441314489
0.0461288516945
0.0400211749274
0.0350581197477
0.0538754745993
0.0461665695791
0.0400555743426
0.0350849137282
0.0309601115858
0.0462049557112
0.0400882898198
0.0351088772425
0.0309755681047
0.027492849848
0.0401179521011
0.0351290282199
0.0309874843052
0.0274984481531
0.0245256241976
0.0351442055299
0.0309946427702
0.0275009525963
0.0245261123083
0.0219686761296
0.0309975715636
0.0275015366865
0.0245251880329
0.0219670767953
0.0197507432585
0.0274997751284
0.024522636259
0.021964774425
0.0197489551616
0.0178156151819
0.0245189973119
0.0219620619929
0.0197470087359
0.0178142405433
0.0161171760587
0.0219591395209
0.0197449723888
0.0178128228964
0.0161161786445
0.0146181552988
0.0197428707035
0.0178113609056
0.0161151382275
0.0146173972046
0.0132885547926
0.0178098416435
0.0161140359992
0.0146165804654
0.0132879391602
0.0121040795304
0.0161128546622
0.0146156947455
0.0132872659453
0.0121035617468
0.0110448412507
0.0146147391873
0.0132865367861
0.0121029998312
0.0110444046046
0.0100943784568
0.0132857705708
0.0121024087523
0.011043945305
0.0100940194124
0.00923893408235
0.0121018185043
0.0110434851271
0.0100936589501
0.00923865060588
0.00846691119235
1.21623941012
1.21671899097
0.487667593751
1.2172298419
0.487826509012
0.270370201833
1.21777874735
0.487990363245
0.27035257321
0.177771362202
1.21836768433
0.488158467601
0.270325985807
0.17766797103
0.128192275104
0.488330291112
0.270289237221
0.177552465643
0.128064801111
0.0979603281242
0.270240203001
0.177422977429
0.127927461919
0.0978498405707
0.0779690951495
0.177278993292
0.127780637057
0.0977355632934
0.0778974126576
0.0639894872903
0.127623807138
0.097618690958
0.0778281042747
0.0639610692172
0.053778377811
0.0974998428656
0.0777622466929
0.0639387508525
0.0537862443663
0.0460340084211
0.0777012342516
0.0639229789148
0.0537994655251
0.0460618798286
0.0399529729487
0.063915782554
0.0538192371917
0.0460938850393
0.0399867210033
0.0350296211113
0.053844131966
0.0461288518999
0.0400211747538
0.0350581194995
0.0309416468285
0.0461665699805
0.0400555744988
0.0350849135925
0.0309601113978
0.0274841149027
0.0400882901392
0.0351088773633
0.0309755680008
0.0274928497145
0.0245237725525
0.0351290284716
0.0309874843981
0.0274984480751
0.0245256241138
0.021969272319
0.0309946429545
0.0275009526654
0.0245261122469
0.021968676087
0.0197522595286
0.0275015368231
0.0245251880865
0.0219670767515
0.0197507432506
0.0178169244715
0.0245226363445
0.0219647744634
0.0197489551307
0.0178156152001
0.0161181433235
0.0219620620399
0.019747008763
0.0178142405228
0.0161171760942
0.0146188704397
0.0197449724051
0.0178128229142
0.0161161786316
0.0146181553433
0.0132891190404
0.0178113608977
0.0161151382384
0.0146173971974
0.01328855484
0.0121045505146
0.016114035978
0.0146165804712
0.013287939157
0.0121040795741
0.0110452436823
0.0146156947215
0.0132872659492
0.0121035617446
0.0110448412856
0.0100947202377
0.0132865367575
0.0121029998343
0.011044404603
0.0100943784879
0.00923921624489
0.0121024087104
0.0110439453036
0.010094019414
0.00923893411135
0.00846713492748
0.0110434851445
0.0100936589504
0.00923865060514
0.00846691118096
0.00776862956803
1.2157923775
1.21623937631
0.487513241348
1.21671898768
0.487667580606
0.270380563995
1.21722984479
0.487826507646
0.270370195334
0.177863396145
1.21777878308
0.487990364555
0.270352572189
0.177771358576
0.128310891293
0.488158481374
0.270325986769
0.177667970162
0.128192272918
0.0980665130617
0.270289244027
0.17755246648
0.128064800353
0.0979603267576
0.078041507284
0.177422981241
0.127927462649
0.097849839942
0.0779690942339
0.0640221636473
0.127780639349
0.0977355638914
0.0778974121467
0.0639894866503
0.0537777755336
0.0976186924173
0.0778281047571
0.0639610688177
0.0537783773224
0.0460098919235
0.0777622476634
0.063938751231
0.053786244049
0.0460340080454
0.0399209946569
0.063922979605
0.0537994658135
0.0460618795872
0.0399529726438
0.0350002011166
0.053819237711
0.0460938852636
0.0399867208125
0.0350296208716
0.030920837215
0.046128852306
0.0400211749268
0.0350581193528
0.0309416466449
0.0274727807401
0.0400555748241
0.0350849137256
0.0309601112828
0.0274841147732
0.0245197692591
0.0351088776169
0.030975568104
0.0274928496266
0.0245237724717
0.0219689555189
0.0309874845928
0.0274984481527
0.0245256240484
0.0219692722811
0.0197533306648
0.0275009527991
0.0245261123077
0.0219686760377
0.019752259524
0.0178181288821
0.024525188176
0.0219670767954
0.0197507432159
0.0178169244936
0.016119079442
0.0219647745086
0.0197489551614
0.0178156151766
0.016118143364
0.0146195569058
0.0197470087771
0.0178142405435
0.0161171760797
0.0146188704903
0.0132896429393
0.0178128229043
0.0161161786446
0.014618155335
0.0132891190936
0.0121049781575
0.0161151382124
0.0146173972047
0.013288554836
0.0121045505654
0.0110456086359
0.0146165804381
0.0132879391604
0.0121040795728
0.0110452437261
0.0100950357458
0.0132872659186
0.0121035617469
0.0110448412847
0.0100947202714
0.00923948535786
0.0121029998026
0.0110444046046
0.0100943784874
0.00923921627352
0.00846735761022
0.0110439452655
0.0100940194123
0.00923893411311
0.00846713495188
0.00776880671567
0.0100936589662
0.00923865060559
0.00846691118028
0.00776862955882
0.00713541757105
1.21537238212
1.21579234425
0.487364660577
1.21623937279
0.487513228418
0.27038421859
1.21671899096
0.487667579151
0.270380557618
0.177945518872
1.21722987998
0.487826509009
0.27037019427
0.177863392569
0.12842071953
0.487990378083
0.270352573201
0.177771357683
0.128310889171
0.0981685281797
0.270325993502
0.177667971029
0.128192272139
0.0980665117194
0.0781141467605
0.177552470228
0.128064801099
0.097960326106
0.0780415064048
0.0640580708564
0.127927464913
0.0978498405729
0.0779690936994
0.0640221630246
0.0537805186843
0.0977355653184
0.0778974126533
0.0639894862235
0.053777775078
0.0459907380343
0.0778281057271
0.0639610692194
0.0537783769904
0.046009891558
0.0398910261751
0.0639387519139
0.0537862443619
0.0460340077827
0.0399209943687
0.0349707313713
0.053799466331
0.0460618798293
0.0399529724406
0.0350002008851
0.0308982635412
0.0460938856683
0.0399867210008
0.0350296207117
0.0309208370398
0.027459156432
0.0400211752505
0.0350581194991
0.0309416465211
0.0274727806159
0.0245136557824
0.0350849139816
0.0309601113957
0.027484114677
0.0245197691828
0.0219677277907
0.0309755682969
0.0274928497132
0.0245237724009
0.0219689554841
0.0197537985885
0.0274984482904
0.0245256241134
0.0219692722261
0.0197533306641
0.0178191608992
0.0245261123937
0.0219686760864
0.0197522594856
0.0178181289083
0.0161199720757
0.021967076841
0.0197507432508
0.0178169244674
0.0161190794868
0.0146202216426
0.0197489551723
0.0178156152
0.0161181433475
0.0146195569618
0.0132901384117
0.0178142405296
0.0161171760944
0.014618870481
0.0132896429989
0.0121053700074
0.0161161786146
0.0146181553434
0.0132891190892
0.0121049782146
0.0110459379063
0.0146173971654
0.0132885548402
0.0121045505641
0.0110456086868
0.0100953216965
0.0132879391203
0.0121040795743
0.0110452437265
0.0100950357875
0.00923973453058
0.0121035617128
0.0110448412857
0.0100947202715
0.00923948538886