/*--------------------------------*- C++ -*----------------------------------*\
| =========                 |                                                 |
| \\      /  F ield         | OpenFOAM: The Open Source CFD Toolbox           |
|  \\    /   O peration     | Version:  2206                                  |
|   \\  /    A nd           | Website:  www.openfoam.com                      |
|    \\/     M anipulation  |                                                 |
\*---------------------------------------------------------------------------*/
FoamFile
{
    version     2.0;
    format      ascii;
    arch        "LSB;label=64;scalar=64";
    class       surfaceScalarField;
    location    "507600";
    object      phi;
}
// * * * * * * * * * * * * * * * * * * * * * * * * * * * * * * * * * * * * * //

dimensions      [0 3 -1 0 0 0 0];

oriented        oriented;

internalField   nonuniform List<scalar> 
24
(
2.62517e-10
-2.62517e-10
2.71071e-10
-8.5541e-12
2.54336e-10
1.67343e-11
2.54336e-10
2.77626e-11
-2.90279e-10
2.55838e-11
-6.37528e-12
3.53347e-11
6.9834e-12
2.89671e-10
-1.18431e-10
-1.71848e-10
-1.18841e-10
-5.96564e-12
-1.15599e-10
3.74118e-12
1.74072e-10
-1.71848e-10
-1.77813e-10
-1.74072e-10
)
;

boundaryField
{
    movingWall
    {
        type            calculated;
        value           nonuniform List<scalar> 4(0 0 0 -2.01948e-28);
    }
    fixedWalls
    {
        type            calculated;
        value           uniform 0;
    }
    frontAndBack
    {
        type            empty;
        value           nonuniform List<scalar> 0();
    }
}


// ************************************************************************* //
