/*--------------------------------*- C++ -*----------------------------------*\
| =========                 |                                                 |
| \\      /  F ield         | OpenFOAM: The Open Source CFD Toolbox           |
|  \\    /   O peration     | Version:  2206                                  |
|   \\  /    A nd           | Website:  www.openfoam.com                      |
|    \\/     M anipulation  |                                                 |
\*---------------------------------------------------------------------------*/
FoamFile
{
    version     2.0;
    format      ascii;
    arch        "LSB;label=64;scalar=64";
    class       volVectorField;
    location    "507600";
    object      U;
}
// * * * * * * * * * * * * * * * * * * * * * * * * * * * * * * * * * * * * * //

dimensions      [0 1 -1 0 0 0 0];

internalField   nonuniform List<vector> 
16
(
(1.00028e-07 -7.46648e-08 0)
(1.08226e-07 -3.16096e-09 0)
(1.08212e-07 9.50758e-09 0)
(9.49752e-08 7.03068e-08 0)
(1.41503e-08 -1.33672e-07 0)
(8.39212e-09 -3.78882e-09 0)
(1.14974e-08 3.89638e-09 0)
(1.73125e-08 1.31855e-07 0)
(-4.92699e-08 -9.77395e-08 0)
(-4.49365e-08 -1.1461e-09 0)
(-4.93945e-08 1.45415e-09 0)
(-4.38162e-08 1.00223e-07 0)
(-6.78951e-08 -3.91397e-08 0)
(-6.85933e-08 -3.49309e-09 0)
(-7.30398e-08 1.48486e-09 0)
(-6.59729e-08 3.82909e-08 0)
)
;

boundaryField
{
    movingWall
    {
        type            noSlip;
    }
    fixedWalls
    {
        type            noSlip;
    }
    frontAndBack
    {
        type            empty;
    }
}


// ************************************************************************* //
