/*--------------------------------*- C++ -*----------------------------------*\
| =========                 |                                                 |
| \\      /  F ield         | OpenFOAM: The Open Source CFD Toolbox           |
|  \\    /   O peration     | Version:  2212                                  |
|   \\  /    A nd           | Website:  www.openfoam.com                      |
|    \\/     M anipulation  |                                                 |
\*---------------------------------------------------------------------------*/
FoamFile
{
    version     2.0;
    format      ascii;
    arch        "LSB;label=64;scalar=64";
    class       volScalarField;
    location    "4000";
    object      p;
}
// * * * * * * * * * * * * * * * * * * * * * * * * * * * * * * * * * * * * * //

dimensions      [0 2 -2 0 0 0 0];

internalField   nonuniform List<scalar> 
125000
(
-0.134097497648
-0.171860214141
-0.134103027603
-0.169022758558
-0.196561576581
-0.171856412478
-0.185191518861
-0.134102940812
-0.169016610835
-0.175738277273
-0.198168788117
-0.196562143511
-0.199436982405
-0.171856234195
-0.185191407185
-0.181444960532
-0.134103027652
-0.16901651176
-0.17574154859
-0.174663354524
-0.19603955101
-0.198168529586
-0.198502551457
-0.19656221933
-0.199438471296
-0.196207310024
-0.171856412641
-0.185191238849
-0.181442903124
-0.180822553375
-0.13409749766
-0.169016610881
-0.175741452575
-0.174669903874
-0.174551234004
-0.194073711551
-0.196039363865
-0.195741460467
-0.19816847427
-0.198502499183
-0.196860108114
-0.196562143561
-0.199438546711
-0.196208058818
-0.19622164123
-0.171860214152
-0.185191407358
-0.181442735735
-0.180819152128
-0.181649185339
-0.16902275857
-0.175741548631
-0.174669806295
-0.174555671761
-0.175565269592
-0.191768181374
-0.194073777413
-0.193670922985
-0.196039347253
-0.195741333869
-0.194900480502
-0.198168529122
-0.198502443399
-0.196859746792
-0.197200459063
-0.196561576566
-0.199438471346
-0.196208131683
-0.196222686315
-0.196328257138
-0.185191518872
-0.181442903314
-0.180818982907
-0.181645667299
-0.182227429879
-0.175738277284
-0.174669903906
-0.174555564514
-0.175568235348
-0.176734923003
-0.1895449848
-0.19176817522
-0.19141246512
-0.194073782202
-0.193671003221
-0.193191891407
-0.196039363255
-0.195741317768
-0.194900255185
-0.195266732802
-0.198168788051
-0.198502498707
-0.196859690001
-0.197200281451
-0.197393059344
-0.19943698239
-0.19620805887
-0.196222757976
-0.196329413477
-0.195796867838
-0.181444960545
-0.180819152327
-0.181645502137
-0.182224200998
-0.182501558372
-0.174663354532
-0.174555671776
-0.175568120906
-0.176737784467
-0.1778245544
-0.187666964388
-0.189544972294
-0.189265071777
-0.19176816539
-0.1914124602
-0.191120359073
-0.194073777314
-0.193671007947
-0.193191930144
-0.193494150136
-0.196039550964
-0.195741333245
-0.194900239995
-0.195266624921
-0.195580612467
-0.198502551391
-0.196859746297
-0.197200223896
-0.197392827341
-0.197109502219
-0.196207310009
-0.196222686371
-0.196329483689
-0.195798025816
-0.194971291757
-0.180822553388
-0.181645667484
-0.182224043617
-0.182498523871
-0.182737022822
-0.17455123401
-0.175568235336
-0.176737667715
-0.177827528516
-0.178864039695
-0.186076668735
-0.187666974411
-0.187454444763
-0.189544965918
-0.189265059108
-0.189079473644
-0.191768176169
-0.191412450436
-0.191120331804
-0.191368788333
-0.1940737116
-0.193671003122
-0.193191934667
-0.193494246861
-0.193837227915
-0.19574146042
-0.194900254548
-0.195266610759
-0.195580489181
-0.195594168181
-0.196860108049
-0.197200280958
-0.197392768437
-0.197109192067
-0.196560470041
-0.196221641217
-0.196329413552
-0.19579809363
-0.194972481225
-0.19409656763
-0.181649185352
-0.182224201134
-0.182498373858
-0.182734078853
-0.183013634764
-0.175565269595
-0.176737784432
-0.177827411216
-0.178866945388
-0.179863692439
-0.184718734543
-0.186076678289
-0.185915976521
-0.187666971154
-0.187454454319
-0.187329950569
-0.189544973833
-0.189265052865
-0.189079449453
-0.189287305407
-0.191768181539
-0.191412461181
-0.191120322079
-0.191368788391
-0.191715211336
-0.193670923033
-0.193191930036
-0.193494250984
-0.193837316692
-0.194000212654
-0.194900480454
-0.1952666243
-0.195580475824
-0.195594029835
-0.195370120588
-0.197200459
-0.197392826893
-0.197109131643
-0.19656013134
-0.195884883272
-0.196328257129
-0.195798025929
-0.194972546086
-0.194097805761
-0.193233498912
-0.18222742989
-0.182498523963
-0.182733935015
-0.183010765931
-0.183320508064
-0.176734923003
-0.17782752846
-0.178866827929
-0.179866447155
-0.180805169951
-0.183545812332
-0.184718743109
-0.18459475288
-0.186076674132
-0.185915985632
-0.185828193858
-0.187666974896
-0.187454451122
-0.187329952449
-0.187501891028
-0.189544984963
-0.189265060679
-0.189079443377
-0.189287297154
-0.189620640257
-0.191412465285
-0.191120332813
-0.191368778601
-0.191715205174
-0.191971612982
-0.193191891452
-0.193494246712
-0.193837320229
-0.194000296168
-0.193964449699
-0.195266732754
-0.195580488609
-0.195594017345
-0.195369987556
-0.194982466598
-0.197393059286
-0.197109191716
-0.196560069401
-0.195884528225
-0.195143747432
-0.195796867835
-0.194972481385
-0.194097867553
-0.193234774788
-0.192399138928
-0.18250155838
-0.182734078914
-0.183010627827
-0.183317732322
-0.183639971311
-0.177824554396
-0.178866945317
-0.1798663305
-0.180807777269
-0.181670153471
-0.182511858467
-0.183545820785
-0.183448352469
-0.184718739176
-0.184594761071
-0.18452915847
-0.186076676738
-0.185915981521
-0.185828197404
-0.185969018492
-0.187666964336
-0.187454454795
-0.18732994929
-0.187501901819
-0.187805990748
-0.189265071942
-0.189079451079
-0.189287291195
-0.189620630465
-0.189925203234
-0.191120359238
-0.191368789361
-0.191715195234
-0.191971602356
-0.192076621126
-0.193494150174
-0.193837316454
-0.194000299151
-0.193964536788
-0.193765245707
-0.19558061242
-0.195594029351
-0.195369975921
-0.194982336566
-0.194485783229
-0.19710950217
-0.196560131128
-0.195884464665
-0.195143375548
-0.194375010608
-0.194971291762
-0.194097805972
-0.193234833595
-0.192400439548
-0.191606926428
-0.182737022826
-0.183010765915
-0.183317599801
-0.183637303647
-0.18396000329
-0.178864039689
-0.179866447084
-0.18080766298
-0.181672621034
-0.182446901024
-0.181567132075
-0.18251186329
-0.182432338286
-0.183545817472
-0.18344836057
-0.18339654665
-0.184718740525
-0.184594757178
-0.184529162555
-0.184642592496
-0.186076668439
-0.18591598403
-0.185828193322
-0.185969027192
-0.186238220004
-0.187454444712
-0.187329952938
-0.187501898643
-0.187806001001
-0.18811896342
-0.189079473812
-0.18928729883
-0.189620624577
-0.18992519271
-0.190122848525
-0.191368788491
-0.191715205997
-0.191971592271
-0.192076610089
-0.192030012085
-0.193837227941
-0.194000295811
-0.193964539272
-0.193765336469
-0.193444723619
-0.195594168136
-0.195369987181
-0.194982325606
-0.194485648958
-0.193923657037
-0.196560470005
-0.195884528197
-0.195143310252
-0.194374630008
-0.193602609407
-0.194096567644
-0.193234775037
-0.192400495561
-0.19160823952
-0.190864963371
-0.183013634761
-0.183317732209
-0.183637176359
-0.183957454023
-0.184270435861
-0.179863692432
-0.180807777227
-0.18167251077
-0.182449223146
-0.183127909733
-0.180678934053
-0.181567133981
-0.181500267194
-0.182511860281
-0.182432342838
-0.18238731874
-0.183545819369
-0.183448357283
-0.183396551433
-0.183488336758
-0.184718734233
-0.184594758443
-0.184529158702
-0.184642599577
-0.184875957993
-0.185915976225
-0.185828195739
-0.185969023098
-0.186238228466
-0.186539988368
-0.187329950522
-0.187501902389
-0.187805997762
-0.188118973306
-0.188361480527
-0.18928730558
-0.189620632157
-0.189925186888
-0.190122839055
-0.19019029593
-0.191715211479
-0.191971602896
-0.192076599852
-0.192029999436
-0.191862344235
-0.194000212663
-0.193964536329
-0.193765338505
-0.193444816883
-0.19303947494
-0.195370120548
-0.194982336292
-0.194485638401
-0.193923514949
-0.193325987278
-0.195884883255
-0.195143375748
-0.194374562965
-0.193602232936
-0.192839521543
-0.193233498934
-0.192400439791
-0.191608293
-0.190866273244
-0.190176056886
-0.183320508053
-0.183637303459
-0.183957331431
-0.18426801634
-0.184560893603
-0.180805169946
-0.181672621042
-0.182449118455
-0.183130076711
-0.183708397306
-0.179836567449
-0.180678935277
-0.180622071629
-0.181567131203
-0.181500268816
-0.181459374598
-0.182511864496
-0.182432339841
-0.182387320537
-0.182460268582
-0.183545812319
-0.183448359153
-0.183396548169
-0.183488343381
-0.183689752118
-0.184594752569
-0.184529159855
-0.184642595739
-0.184875965006
-0.185156617923
-0.185828193563
-0.18596902554
-0.186238224326
-0.186539996632
-0.186799791918
-0.187501890994
-0.187806001748
-0.188118969997
-0.188361490578
-0.188499261702
-0.189620640434
-0.18992519432
-0.190122833288
-0.190190286691
-0.190140241196
-0.1919716131
-0.192076610242
-0.192029989025
-0.191862330095
-0.191605877229
-0.193964449689
-0.193765335941
-0.193444818558
-0.193039569669
-0.192578597193
-0.194982466562
-0.194485648777
-0.193923504455
-0.193325835274
-0.192709284083
-0.195143747438
-0.194374630414
-0.193602164261
-0.192839162627
-0.192092136377
-0.192399138953
-0.191608239687
-0.190866324492
-0.190177344292
-0.189540187197
-0.183639971293
-0.183957453793
-0.184267897889
-0.184558617173
-0.184821088064
-0.18167015347
-0.182449223199
-0.183129979011
-0.183710400989
-0.18418593223
-0.179023408174
-0.179836569826
-0.179786863564
-0.180678932757
-0.180622072608
-0.180585315961
-0.181567137237
-0.181500266043
-0.181459373722
-0.181516743281
-0.182511858853
-0.182432344093
-0.182387317542
-0.182460271614
-0.18263305138
-0.183448352454
-0.183396549989
-0.183488340123
-0.183689758939
-0.183945087352
-0.184529158156
-0.18464259682
-0.184875961153
-0.18515662522
-0.185417304087
-0.185969018206
-0.18623822697
-0.186539992436
-0.1867997999
-0.186977271835
-0.187805990737
-0.18811897431
-0.188361487203
-0.188499271775
-0.188530788079
-0.189925203411
-0.190122840422
-0.190190280962
-0.190140231118
-0.189999990926
-0.192076621206
-0.192029999201
-0.191862319509
-0.191605862786
-0.19128449051
-0.193765245678
-0.193444816284
-0.193039571083
-0.192578692337
-0.192081660538
-0.194485783199
-0.193923514894
-0.193325824413
-0.192709119888
-0.192082454284
-0.194375010637
-0.193602233455
-0.19283909259
-0.192091808239
-0.191364037752
-0.191606926448
-0.190866273276
-0.190177393624
-0.189541430858
-0.188955565761
-0.183960003266
-0.184268016119
-0.184558502396
-0.184818968518
-0.185041329702
-0.182446901028
-0.183130076787
-0.183710311527
-0.184187766947
-0.184560237529
-0.178228859149
-0.179023412414
-0.178979249373
-0.179836567545
-0.179786865768
-0.179752525071
-0.180678938354
-0.180622070085
-0.18058531482
-0.180631138557
-0.181567132645
-0.181500272135
-0.181459370946
-0.181516743033
-0.181664615488
-0.182432338673
-0.182387321835
-0.182460268613
-0.182633054762
-0.182862568472
-0.183396546629
-0.183488341847
-0.183689755663
-0.183945094758
-0.18419618428
-0.18464259218
-0.184875962254
-0.185156621329
-0.185417311443
-0.185615159185
-0.186238219738
-0.186539995495
-0.186799795644
-0.186977278908
-0.187062623255
-0.188118963442
-0.188361491845
-0.188499268348
-0.188530797938
-0.18847245154
-0.190122848691
-0.19019028766
-0.190140225401
-0.189999980534
-0.189792607955
-0.192030012124
-0.191862329577
-0.191605852037
-0.191284475698
-0.190917103487
-0.193444723573
-0.193039569059
-0.192578693587
-0.192081754783
-0.191560040634
-0.193923657018
-0.193325835398
-0.192709108137
-0.192082276511
-0.191450633723
-0.193602609453
-0.192839163147
-0.192091737312
-0.19136375311
-0.190657628839
-0.190864963381
-0.19017734419
-0.189541478533
-0.188956743758
-0.188418670837
-0.184270435836
-0.184558617005
-0.184818857093
-0.185039379664
-0.185212891356
-0.183127909739
-0.183710401066
-0.184187686708
-0.184561900235
-0.184832880823
-0.177447368879
-0.17822886492
-0.178189234641
-0.179023410392
-0.178979253515
-0.178946747045
-0.179836571037
-0.17978686348
-0.179752525495
-0.1797888026
-0.180678934434
-0.180622075716
-0.180585312287
-0.180631137711
-0.180758262756
-0.181500267767
-0.181459377133
-0.181516740248
-0.181664615419
-0.181869897205
-0.182387319122
-0.182460272858
-0.182633051739
-0.182862572583
-0.183099044799
-0.183488336724
-0.183689757237
-0.183945091439
-0.184196192284
-0.184400845433
-0.184875957677
-0.185156622616
-0.185417307498
-0.18561516575
-0.185734132835
-0.186539988139
-0.186799799326
-0.186977274601
-0.187062629529
-0.187063357718
-0.18836148059
-0.188499273193
-0.188530794476
-0.188472460837
-0.18834611643
-0.190190296072
-0.19014023164
-0.189999974798
-0.189792597493
-0.189534422708
-0.191862344236
-0.191605862083
-0.191284464804
-0.190917088765
-0.190516334419
-0.193039474883
-0.192578691868
-0.192081755954
-0.191560132209
-0.191020180388
-0.193325987279
-0.192709120205
-0.192082263275
-0.191450442515
-0.190817212728
-0.192839521596
-0.192091808656
-0.191363682009
-0.190657398848
-0.189974522647
-0.190176056883
-0.189541430666
-0.188956789911
-0.188419762043
-0.187924188808
-0.184560893582
-0.184818968421
-0.185039271464
-0.18521112109
-0.18532834175
-0.183708397313
-0.184187767007
-0.184561829862
-0.184834371333
-0.185006889392
-0.176675838101
-0.177447374347
-0.177411604097
-0.17822886323
-0.178189240342
-0.178158464417
-0.179023410884
-0.178979251481
-0.178946749683
-0.178975395836
-0.179836567447
-0.179786866963
-0.179752523186
-0.17978880319
-0.179898429205
-0.180622072012
-0.180585317995
-0.180631135164
-0.180758261839
-0.180941709703
-0.181459375171
-0.181516746476
-0.181664612615
-0.181869897681
-0.182090202373
-0.182460268948
-0.18263305579
-0.182862569523
-0.183099049926
-0.183302455836
-0.18368975206
-0.183945092838
-0.184196188902
-0.184400853408
-0.184538880723
-0.185156617615
-0.185417309204
-0.185615161747
-0.185734138217
-0.185776079836
-0.186799791746
-0.186977279016
-0.187062625191
-0.187063363114
-0.186995407998
-0.188499261801
-0.188530799299
-0.188472457355
-0.188346125945
-0.188168057764
-0.190140241304
-0.189999980579
-0.189792591705
-0.189534411237
-0.189238312109
-0.191605877195
-0.191284474881
-0.190917077759
-0.190516320516
-0.190089503557
-0.192578597141
-0.192081754563
-0.191560133355
-0.191020267187
-0.190465953884
-0.192709284106
-0.192082276961
-0.191450427165
-0.190817009953
-0.190184794743
-0.192092136425
-0.191363753364
-0.19065732855
-0.189974355644
-0.18931551446
-0.189540187183
-0.188956743542
-0.188419806617
-0.187925174534
-0.187465151587
-0.18482108805
-0.18503937963
-0.185211016234
-0.185326758283
-0.18538184757
-0.184185932236
-0.184561900273
-0.184834311069
-0.185008210287
-0.185086353278
-0.175912802464
-0.17667584214
-0.176643469354
-0.177447373016
-0.177411609485
-0.177382596553
-0.178228861255
-0.178189238638
-0.178158468803
-0.178181208765
-0.179023407782
-0.178979251922
-0.178946747625
-0.17897539862
-0.179070410403
-0.179786863563
-0.179752526701
-0.179788800859
-0.17989842956
-0.180062402276
-0.180585316348
-0.180631140971
-0.180758259269
-0.180941708939
-0.181145756234
-0.181516743846
-0.18166461876
-0.181869894846
-0.182090203812
-0.182288349434
-0.182633051713
-0.182862573182
-0.18309904681
-0.183302461739
-0.18345031122
-0.18394508726
-0.18419619018
-0.18440084995
-0.184538888104
-0.184607264209
-0.185417303802
-0.185615164124
-0.185734134165
-0.185776084264
-0.185750794797
-0.186977271737
-0.18706263029
-0.187063358768
-0.18699541262
-0.186875075053
-0.188530788199
-0.188472461943
-0.188346122458
-0.188168067701
-0.187949452194
-0.189999990988
-0.189792597023
-0.189534405351
-0.189238299334
-0.188912305875
-0.191284490446
-0.19091708795
-0.190516309464
-0.190089491251
-0.189640567815
-0.192081660504
-0.191560132273
-0.191020268308
-0.190466033508
-0.189900097542
-0.192082454327
-0.19145044299
-0.190816991887
-0.190184584122
-0.189555529889
-0.191364037788
-0.19065739894
-0.18997428737
-0.189315414886
-0.188680461501
-0.188955565741
-0.188419761854
-0.187925217249
-0.187466017272
-0.1870332581
-0.185041329695
-0.185211121095
-0.185326657171
-0.185380454131
-0.185369379115
-0.184560237532
-0.184834371351
-0.185008159967
-0.185087509344
-0.185076059043
-0.175157601818
-0.175912804395
-0.175883489899
-0.176675841138
-0.176643473298
-0.176616307814
-0.177447370724
-0.177411608137
-0.177382600733
-0.177400825491
-0.178228858586
-0.178189236614
-0.178158467073
-0.178181213306
-0.178264133524
-0.178979248981
-0.178946748024
-0.178975396533
-0.179070412956
-0.179217327291
-0.179752525077
-0.179788804499
-0.179898427199
-0.180062402387
-0.180250700427
-0.180631138952
-0.180758265175
-0.180941706339
-0.18114575597
-0.181336423985
-0.181664616035
-0.1818699007
-0.182090200935
-0.182288351882
-0.182440807834
-0.18286256875
-0.183099049894
-0.183302458551
-0.183450317516
-0.183535848433
-0.184196184151
-0.184400851275
-0.184538884567
-0.18460727082
-0.184612208599
-0.185615158946
-0.185734137401
-0.185776080181
-0.1857507979
-0.185672106675
-0.187062623238
-0.187063364374
-0.186995408287
-0.186875079802
-0.186713629287
-0.188472451664
-0.188346126646
-0.188168064221
-0.187949461756
-0.187699104387
-0.189792607959
-0.189534410338
-0.189238293298
-0.188912291563
-0.188560788896
-0.190917103405
-0.19051631984
-0.190089480247
-0.189640557872
-0.189171734825
-0.191560040626
-0.191020267491
-0.190466034519
-0.189900167415
-0.189324936299
-0.191450633775
-0.190817010357
-0.190184562844
-0.189555316967
-0.188931122971
-0.19065762886
-0.189974355621
-0.189315350034
-0.188680429122
-0.188068182133
-0.188418670818
-0.187925174399
-0.187466057615
-0.18703399475
-0.186619327175
-0.185212891354
-0.185326758305
-0.185380357448
-0.185368174936
-0.18528877531
-0.184832880824
-0.185008210293
-0.185087468417
-0.185077056428
-0.184981184948
-0.174410447489
-0.175157601123
-0.175131078568
-0.175912803673
-0.17588349171
-0.17585825319
-0.176675839848
-0.176643472277
-0.176616310647
-0.176631141109
-0.177447368542
-0.177411605829
-0.177382599356
-0.17740082981
-0.177473754066
-0.178189234076
-0.178158464989
-0.178181211545
-0.178264137912
-0.178396299128
-0.178946746658
-0.178975396994
-0.179070410832
-0.179217329434
-0.179390964896
-0.179788802626
-0.179898431097
-0.180062399988
-0.180250700466
-0.180432646041
-0.180758263162
-0.180941712279
-0.181145753336
-0.181336424321
-0.181490038806
-0.181869897716
-0.182090206222
-0.182288348954
-0.182440811219
-0.182537965731
-0.183099044999
-0.183302460972
-0.183450314249
-0.183535854811
-0.183562238532
-0.184400845273
-0.184538886198
-0.184607267214
-0.184612214336
-0.184563854164
-0.185734132666
-0.185776084337
-0.185750793807
-0.185672108642
-0.185552324622
-0.187063357778
-0.186995414158
-0.186875075504
-0.186713634259
-0.186519442723
-0.188346116536
-0.188168067889
-0.187949458284
-0.187699113311
-0.187422234075
-0.189534422656
-0.189238298187
-0.188912285328
-0.18856077296
-0.188185866818
-0.190516334336
-0.190089490814
-0.189640547037
-0.189171727899
-0.18868452374
-0.191020180408
-0.190466033949
-0.189900168125
-0.189324993942
-0.188742621277
-0.190817212778
-0.190184584403
-0.189555292187
-0.188930914793
-0.188312730048
-0.189974522654
-0.189315414807
-0.188680369155
-0.18806821173
-0.187476418436
-0.187924188793
-0.18746601719
-0.187034032023
-0.186619932316
-0.186213831768
-0.185328341751
-0.185380454156
-0.18536808362
-0.185287755749
-0.185139657513
-0.185006889393
-0.185087509345
-0.185077024025
-0.184982030349
-0.184807075572
-0.173671775294
-0.174410444644
-0.17438649428
-0.175157600613
-0.175131077735
-0.175107814878
-0.175912804272
-0.175883490967
-0.175858253958
-0.175870571716
-0.176675838177
-0.176643471006
-0.176616309594
-0.176631144105
-0.176695819833
-0.177411603758
-0.177382597024
-0.177400828399
-0.17747375831
-0.17759321224
-0.178158463854
-0.178181209471
-0.17826413611
-0.178396303153
-0.178556605169
-0.178975395467
-0.179070411533
-0.179217327263
-0.179390966595
-0.179563819945
-0.179898429265
-0.180062404266
-0.180250698027
-0.180432646045
-0.180585078881
-0.18094171012
-0.181145759145
-0.181336421651
-0.181490039808
-0.181594949554
-0.182090202825
-0.182288353392
-0.182440808232
-0.182537969921
-0.182580144872
-0.18330245594
-0.18345031608
-0.18353585146
-0.183562244888
-0.183536893137
-0.184538880551
-0.184607269427
-0.184612210679
-0.184563858624
-0.184473681208
-0.185776079756
-0.185750798799
-0.185672104556
-0.185552326415
-0.185399295282
-0.186995408121
-0.186875081341
-0.186713630015
-0.186519447871
-0.186298353464
-0.188168057833
-0.187949461432
-0.187699109843
-0.187422242018
-0.187121331372
-0.189238312012
-0.188912290379
-0.188560766486
-0.188185849397
-0.187788472291
-0.190089503488
-0.189640557697
-0.189171717372
-0.188684520218
-0.18818033386
-0.190465953925
-0.189900167878
-0.189324994048
-0.188742664685
-0.188155098585
-0.190184794783
-0.189555317124
-0.188930886525
-0.188312534476
-0.187700858756
-0.189315514459
-0.188680429035
-0.188068158018
-0.187476500131
-0.186901877709
-0.187465151577
-0.187033994709
-0.186619965722
-0.186214309702
-0.185807458271
-0.185381847572
-0.185368174955
-0.185287670936
-0.185138814407
-0.184923209815
-0.185086353278
-0.185077056427
-0.184982005375
-0.184807775731
-0.184559097564
-0.172941912485
-0.173671771192
-0.173650194842
-0.174410444272
-0.174386491298
-0.17436522682
-0.175157603672
-0.175131077202
-0.17510781306
-0.175118297702
-0.175912803031
-0.175883491622
-0.175858253181
-0.175870572644
-0.175928425341
-0.176643469429
-0.176616308326
-0.176631143015
-0.176695822897
-0.176804369605
-0.177382596212
-0.177400826063
-0.177473756855
-0.177593216269
-0.177741548039
-0.178181208214
-0.17826413419
-0.178396301297
-0.178556608739
-0.178720534176
-0.179070410069
-0.179217328448
-0.179390964372
-0.179563821
-0.179713614059
-0.180062402386
-0.180250702718
-0.180432643567
-0.180585078953
-0.180694990088
-0.181145756653
-0.181336427075
-0.1814900371
-0.181594951326
-0.181648978753
-0.182288349794
-0.182440811628
-0.182537966868
-0.182580149724
-0.182572822837
-0.183450311223
-0.18353585295
-0.18356224146
-0.183536898925
-0.183469348017
-0.184607264053
-0.184612213666
-0.184563854941
-0.184473684696
-0.184350634297
-0.185750794813
-0.185672110171
-0.185552322359
-0.185399296787
-0.185219312147
-0.186875075214
-0.186713635536
-0.186519443696
-0.186298358829
-0.186053544114
-0.187949452213
-0.187699112588
-0.187422238544
-0.187121337909
-0.186797232627
-0.188912305754
-0.188560771919
-0.188185842658
-0.187788453755
-0.187369130802
-0.18964056777
-0.189171727936
-0.18868451014
-0.188180333731
-0.18766065042
-0.189900097591
-0.18932499434
-0.188742663792
-0.188155126639
-0.187563979412
-0.189555529916
-0.188930914859
-0.188312503113
-0.18770068349
-0.187095312452
-0.188680461497
-0.188068211661
-0.187476453765
-0.186901997979
-0.186340357627
-0.187033258094
-0.186619932298
-0.186214338475
-0.185807819528
-0.185391628376
-0.185369379117
-0.185287755762
-0.185138737328
-0.18492253195
-0.184641866185
-0.185076059043
-0.184982030347
-0.184807756976
-0.184559659229
-0.184242562901
-0.172221283176
-0.172941908074
-0.172922523049
-0.173671770892
-0.173650190618
-0.173630906555
-0.174410449371
-0.174386490902
-0.174365222933
-0.174374410664
-0.17515760287
-0.175131080343
-0.17510781249
-0.175118296011
-0.175170475549
-0.175883490465
-0.175858253879
-0.175870571828
-0.175928426426
-0.176027584599
-0.176616307883
-0.176631141695
-0.176695821761
-0.176804372726
-0.176942034497
-0.17740082515
-0.177473754572
-0.177593214754
-0.177741551849
-0.177896995091
-0.178264132995
-0.17839629977
-0.178556606817
-0.178720536985
-0.178867018995
-0.179217327016
-0.179390966298
-0.179563818724
-0.17971361431
-0.179826566085
-0.180250700598
-0.180432648555
-0.180585076443
-0.180694990446
-0.180758200643
-0.181336424385
-0.181490041844
-0.181594948579
-0.181648981393
-0.181655609259
-0.182440808077
-0.182537969203
-0.1825801466
-0.182572828238
-0.182522995287
-0.183535848348
-0.183562242963
-0.183536895435
-0.183469352951
-0.183368306803
-0.18461220849
-0.18456385875
-0.184473681014
-0.18435063738
-0.184200435643
-0.185672106781
-0.185552328275
-0.185399292778
-0.185219313656
-0.185016182134
-0.186713629453
-0.186519448725
-0.18629835474
-0.186053549627
-0.185786201306
-0.187699104357
-0.187422241079
-0.187121334417
-0.186797237377
-0.186449971199
-0.188560788772
-0.188185848603
-0.187788446751
-0.187369111724
-0.18692839276
-0.189171734805
-0.18868452038
-0.188180324221
-0.187660653213
-0.187127032748
-0.189324936346
-0.188742664981
-0.188155124304
-0.18756399223
-0.186970408708
-0.188931122988
-0.18831253449
-0.187700649831
-0.187095163904
-0.186495182986
-0.188068182129
-0.187476500085
-0.186901959605
-0.186340500931
-0.185786954193
-0.186619327172
-0.186214309696
-0.185807843084
-0.185391888394
-0.18495892379
-0.185288775313
-0.185138814415
-0.184922463814
-0.184641339815
-0.184298958429
-0.184981184948
-0.18480777573
-0.18455964547
-0.184242993197
-0.183862696682
-0.171510219834
-0.172221279294
-0.172203915889
-0.172941907805
-0.172922518538
-0.172905165333
-0.173671777093
-0.173650190292
-0.173630901513
-0.173639196435
-0.174410448847
-0.17438649609
-0.174365222498
-0.174374406876
-0.174421865561
-0.17513107962
-0.175107815709
-0.175118295401
-0.175170474019
-0.175261514488
-0.175858253747
-0.175870572457
-0.175928425564
-0.17602758595
-0.176155720459
-0.17663114116
-0.176695820328
-0.176804371529
-0.176942037808
-0.17708947827
-0.177473753723
-0.177593212662
-0.17774155026
-0.177896998503
-0.178039789534
-0.178396298641
-0.178556605996
-0.17872053499
-0.178867020716
-0.178981852184
-0.179390964708
-0.179563821579
-0.17971361199
-0.179826565648
-0.17989695064
-0.18043264627
-0.180585081447
-0.18069498791
-0.180758201519
-0.180776471279
-0.181490039156
-0.181594952391
-0.181648978601
-0.181655612806
-0.181620800245
-0.182537965839
-0.182580148076
-0.182572825045
-0.182523000426
-0.182438911895
-0.183562238391
-0.183536897293
-0.183469349421
-0.183368311146
-0.183239845598
-0.184563854123
-0.184473685541
-0.184350633726
-0.184200438246
-0.184027410661
-0.185552324796
-0.18539929865
-0.185219309707
-0.185016183834
-0.184791621128
-0.186519442867
-0.186298359236
-0.186053545642
-0.185786206778
-0.185496308764
-0.187422234007
-0.187121336948
-0.186797233846
-0.186449973881
-0.186079356804
-0.18818586671
-0.187788453226
-0.187369104477
-0.186928373843
-0.18646700432
-0.188684523739
-0.18818033393
-0.187660644344
-0.187127037571
-0.18658100306
-0.188742621317
-0.188155126834
-0.187563988038
-0.186970407814
-0.186374974538
-0.188312730057
-0.187700683482
-0.187095129119
-0.186495065259
-0.185898888373
-0.187476418434
-0.186901997953
-0.18634047063
-0.185787104918
-0.185236342227
-0.186213831767
-0.185807819527
-0.185391906468
-0.184959101037
-0.184503369172
-0.185139657515
-0.184922531955
-0.184641281677
-0.184298567817
-0.183898379682
-0.184807075572
-0.184559659228
-0.184242983292
-0.183863003677
-0.183424625482
-0.170808857055
-0.171510217016
-0.171494713538
-0.17222127904
-0.172203911931
-0.17218841899
-0.172941914067
-0.172922518242
-0.172905160096
-0.172912864366
-0.1736717767
-0.173650196571
-0.173630901146
-0.173639191465
-0.173682696245
-0.174386495639
-0.174365227771
-0.174374406397
-0.174421861907
-0.174505881523
-0.175107815919
-0.175118298566
-0.175170473362
-0.175261513292
-0.175381129608
-0.175870572244
-0.175928425976
-0.176027585029
-0.176155722359
-0.176295707992
-0.176695819851
-0.176804369965
-0.176942036532
-0.177089481662
-0.177228169273
-0.177593211899
-0.177741548574
-0.177896996826
-0.178039792387
-0.178155640006
-0.178556604751
-0.178720535201
-0.178867018645
-0.178981852654
-0.179058048096
-0.17956381987
-0.179713615797
-0.179826563297
-0.179896949892
-0.179924865806
-0.18058507915
-0.180694992576
-0.180758198962
-0.180776472892
-0.180754575965
-0.18159494982
-0.181648981362
-0.181655609967
-0.18162080429
-0.181551737082
-0.182580144849
-0.182572826029
-0.182522997174
-0.182438916394
-0.18232773106
-0.183536892978
-0.183469351864
-0.183368307608
-0.183239849164
-0.183088827852
-0.184473681246
-0.184350638724
-0.184200434644
-0.184027413042
-0.183833977869
-0.185399295492
-0.18521931527
-0.185016179955
-0.184791623075
-0.184545877984
-0.186298353569
-0.186053549669
-0.185786202919
-0.185496313952
-0.185183296715
-0.187121331286
-0.186797236536
-0.186449970287
-0.186079357274
-0.185685304227
-0.187788472206
-0.187369111413
-0.186928366413
-0.186466986303
-0.185985915913
-0.188180333869
-0.187660653394
-0.18712702935
-0.186581008737
-0.18602391021
-0.188155098614
-0.187563992347
-0.186970401476
-0.18637496277
-0.185777670589
-0.187700858761
-0.187095163892
-0.186495030767
-0.185898802587
-0.185304252977
-0.186901877708
-0.186340500917
-0.185787082184
-0.185236486582
-0.184683104439
-0.185807458271
-0.185391888395
-0.184959113772
-0.184503483034
-0.184020554118
-0.184923209816
-0.184641339817
-0.184298520451
-0.183898107706
-0.18344430599
-0.184559097564
-0.184242993197
-0.183862996626
-0.183424818672
-0.182933368913
-0.170117280512
-0.170808855481
-0.170795061804
-0.171510216767
-0.171494710662
-0.171480989022
-0.172221284486
-0.172203911651
-0.172188414396
-0.172195756945
-0.172941913717
-0.172922524562
-0.172905159759
-0.172912859178
-0.172953029049
-0.17365019625
-0.1736309075
-0.173639191053
-0.173682691355
-0.173760601733
-0.174365228171
-0.17437441163
-0.17442186138
-0.174505878193
-0.174617898743
-0.175118298711
-0.175170476289
-0.175261512579
-0.175381129132
-0.175514189462
-0.175928425817
-0.176027585072
-0.176155721364
-0.176295710456
-0.176430399772
-0.176804369577
-0.176942034911
-0.177089480294
-0.177228172411
-0.177344124072
-0.177741547712
-0.17789699577
-0.178039790616
-0.178155642002
-0.178236632814
-0.178720533859
-0.178867020136
-0.178981850517
-0.17905804742
-0.179094400605
-0.179713614111
-0.179826567822
-0.179896947523
-0.179924865199
-0.179913799989
-0.180694990363
-0.180758202971
-0.180776470313
-0.180754578567
-0.180697926656
-0.181648978907
-0.181655611758
-0.1816208014
-0.181551741295
-0.181454847163
-0.182572822707
-0.182522998086
-0.1824389131
-0.182327735276
-0.182193802819
-0.183469347879
-0.183368310697