/*--------------------------------*- C++ -*----------------------------------*\
| =========                 |                                                 |
| \\      /  F ield         | OpenFOAM: The Open Source CFD Toolbox           |
|  \\    /   O peration     | Version:  2206                                  |
|   \\  /    A nd           | Website:  www.openfoam.com                      |
|    \\/     M anipulation  |                                                 |
\*---------------------------------------------------------------------------*/
FoamFile
{
    version     2.0;
    format      ascii;
    arch        "LSB;label=64;scalar=64";
    class       volScalarField;
    location    "1";
    object      p;
}
// * * * * * * * * * * * * * * * * * * * * * * * * * * * * * * * * * * * * * //

dimensions      [0 2 -2 0 0 0 0];

internalField   nonuniform List<scalar> 
1024
(
2.48919e-12
-1.66224e-09
5.28396e-09
2.62096e-08
6.69001e-08
1.35222e-07
2.41895e-07
4.01197e-07
6.31819e-07
9.57795e-07
1.40934e-06
2.02326e-06
2.84236e-06
3.91278e-06
5.27767e-06
6.96469e-06
8.82158e-06
1.0509e-05
1.18744e-05
1.29454e-05
1.3765e-05
1.43794e-05
1.48313e-05
1.51575e-05
1.53884e-05
1.55478e-05
1.56546e-05
1.5723e-05
1.57637e-05
1.57847e-05
1.57916e-05
1.579e-05
1.67952e-09
8.20971e-12
7.28359e-09
2.83357e-08
6.9061e-08
1.37366e-07
2.43996e-07
4.03238e-07
6.33781e-07
9.59656e-07
1.41107e-06
2.02483e-06
2.84371e-06
3.91385e-06
5.27839e-06
6.96494e-06
8.82131e-06
1.05082e-05
1.18733e-05
1.2944e-05
1.37634e-05
1.43776e-05
1.48294e-05
1.51556e-05
1.53863e-05
1.55457e-05
1.56525e-05
1.57208e-05
1.57616e-05
1.57827e-05
1.579e-05
1.57883e-05
-5.24169e-09
-7.25794e-09
1.99197e-11
2.1152e-08
6.19666e-08
1.3036e-07
2.371e-07
3.96495e-07
6.27258e-07
9.53446e-07
1.40529e-06
2.01963e-06
2.83928e-06
3.91041e-06
5.27616e-06
6.96416e-06
8.82208e-06
1.05104e-05
1.18767e-05
1.29484e-05
1.37686e-05
1.43834e-05
1.48356e-05
1.51621e-05
1.53931e-05
1.55526e-05
1.56595e-05
1.57279e-05
1.57688e-05
1.57899e-05
1.57972e-05
1.57952e-05
-2.6137e-08
-2.83014e-08
-2.10685e-08
1.23606e-10
4.10972e-08
1.09729e-07
2.16806e-07
3.76679e-07
6.08114e-07
9.35235e-07
1.38836e-06
2.0044e-06
2.82629e-06
3.90028e-06
5.2696e-06
6.96186e-06
8.82435e-06
1.0517e-05
1.18868e-05
1.29614e-05
1.37839e-05
1.44004e-05
1.48539e-05
1.51813e-05
1.54129e-05
1.55729e-05
1.56801e-05
1.57488e-05
1.57898e-05
1.58111e-05
1.58183e-05
1.58161e-05
-6.68789e-08
-6.91097e-08
-6.18888e-08
-4.06161e-08
5.92014e-10
6.96304e-08
1.77331e-07
3.38115e-07
5.70847e-07
8.99776e-07
1.35537e-06
1.97473e-06
2.80096e-06
3.88052e-06
5.25678e-06
6.95736e-06
8.82881e-06
1.05298e-05
1.19066e-05
1.29867e-05
1.38135e-05
1.44334e-05
1.48893e-05
1.52186e-05
1.54515e-05
1.56124e-05
1.57203e-05
1.57894e-05
1.58306e-05
1.58519e-05
1.58591e-05
1.58569e-05
-1.3561e-07
-1.37869e-07
-1.30602e-07
-1.09163e-07
-6.75741e-08
2.12426e-09
1.10853e-07
2.73156e-07
5.08063e-07
8.40028e-07
1.29977e-06
1.9247e-06
2.75824e-06
3.84717e-06
5.23511e-06
6.94972e-06
8.83638e-06
1.05514e-05
1.19399e-05
1.30294e-05
1.38636e-05
1.4489e-05
1.49491e-05
1.52814e-05
1.55165e-05
1.5679e-05
1.57878e-05
1.58576e-05
1.58992e-05
1.59207e-05
1.5928e-05
1.59257e-05
-2.43745e-07
-2.46027e-07
-2.38654e-07
-2.16918e-07
-1.74723e-07
-1.03995e-07
6.33833e-09
1.71019e-07
4.09334e-07
7.46062e-07
1.21232e-06
1.84598e-06
2.69099e-06
3.79462e-06
5.20092e-06
6.93766e-06
8.84832e-06
1.05855e-05
1.19924e-05
1.30967e-05
1.39423e-05
1.45764e-05
1.50431e-05
1.53802e-05
1.56187e-05
1.57836e-05
1.5894e-05
1.59648e-05
1.60071e-05
1.60288e-05
1.60362e-05
1.60339e-05
-4.0713e-07
-4.09442e-07
-4.01898e-07
-3.79691e-07
-3.36567e-07
-2.64282e-07
-1.5153e-07
1.6735e-08
2.60189e-07
6.04103e-07
1.0802e-06
1.72703e-06
2.58933e-06
3.71514e-06
5.14914e-06
6.91937e-06
8.86644e-06
1.06371e-05
1.20718e-05
1.31983e-05
1.40612e-05
1.47086e-05
1.51851e-05
1.55294e-05
1.57731e-05
1.59415e-05
1.60544e-05
1.61268e-05
1.617e-05
1.61922e-05
1.61997e-05
1.61974e-05
-6.47782e-07
-6.50144e-07
-6.42345e-07
-6.19428e-07
-5.74925e-07
-5.00339e-07
-3.84022e-07
-2.10477e-07
4.05465e-08
3.95044e-07
8.85612e-07
1.55184e-06
2.43958e-06
3.59803e-06
5.07279e-06
6.89238e-06
8.89319e-06
1.07132e-05
1.21887e-05
1.33479e-05
1.42364e-05
1.49032e-05
1.53943e-05
1.57491e-05
1.60004e-05
1.61742e-05
1.62906e-05
1.63653e-05
1.64099e-05
1.64328e-05
1.64406e-05
1.64383e-05
-9.96506e-07
-9.98947e-07
-9.90777e-07
-9.6682e-07
-9.20306e-07
-8.42372e-07
-7.20873e-07
-5.39659e-07
-2.77644e-07
9.22138e-08
6.03781e-07
1.29813e-06
2.22273e-06
3.42841e-06
4.96217e-06
6.85324e-06
8.93197e-06
1.08236e-05
1.23581e-05
1.35647e-05
1.44901e-05
1.51851e-05
1.56972e-05
1.60675e-05
1.63298e-05
1.65113e-05
1.66329e-05
1.6711e-05
1.67575e-05
1.67815e-05
1.67897e-05
1.67873e-05
-1.49688e-06
-1.49944e-06
-1.49074e-06
-1.46527e-06
-1.41585e-06
-1.33308e-06
-1.20411e-06
-1.01183e-06
-7.33968e-07
-3.41985e-07
1.99802e-07
9.34566e-07
1.91209e-06
3.18548e-06
4.80372e-06
6.79716e-06
8.9875e-06
1.09816e-05
1.26007e-05
1.38751e-05
1.48536e-05
1.55891e-05
1.61316e-05
1.65241e-05
1.68023e-05
1.69948e-05
1.7124e-05
1.72069e-05
1.72564e-05
1.72819e-05
1.72906e-05
1.72881e-05
-2.21152e-06
-2.21426e-06
-2.20479e-06
-2.17714e-06
-2.12352e-06
-2.03377e-06
-1.894e-06
-1.68578e-06
-1.38511e-06
-9.61301e-07
-3.7612e-07
4.16576e-07
1.46978e-06
2.83981e-06
4.57836e-06
6.7174e-06
9.06644e-06
1.12062e-05
1.29459e-05
1.43171e-05
1.53715e-05
1.61652e-05
1.67511e-05
1.71756e-05
1.74767e-05
1.76853e-05
1.78253e-05
1.79152e-05
1.79689e-05
1.79966e-05
1.80061e-05
1.80033e-05
-3.23224e-06
-3.23522e-06
-3.22464e-06
-3.19382e-06
-3.13409e-06
-3.03421e-06
-2.87878e-06
-2.64744e-06
-2.31374e-06
-1.84397e-06
-1.19625e-06
-3.20306e-07
8.41295e-07
2.34921e-06
4.25883e-06
6.60434e-06
9.17823e-06
1.15247e-05
1.34357e-05
1.49452e-05
1.61082e-05
1.69854e-05
1.76342e-05
1.81048e-05
1.84391e-05
1.86708e-05
1.88265e-05
1.89266e-05
1.89865e-05
1.90174e-05
1.9028e-05
1.9025e-05
-4.69714e-06
-4.70049e-06
-4.68826e-06
-4.65275e-06
-4.58402e-06
-4.4692e-06
-4.29074e-06
-4.02547e-06
-3.64339e-06
-3.10646e-06
-2.3677e-06
-1.37111e-06
-5.32378e-08
1.65231e-06
3.80572e-06
6.44416e-06
9.33644e-06
1.19761e-05
1.41314e-05
1.5839e-05
1.71588e-05
1.81571e-05
1.88972e-05
1.94353e-05
1.98182e-05
2.0084e-05
2.02629e-05
2.0378e-05
2.04469e-05
2.04825e-05
2.04948e-05
2.04914e-05
-6.82065e-06
-6.82456e-06
-6.80984e-06
-6.76726e-06
-6.68494e-06
-6.54761e-06
-6.3345e-06
-6.01828e-06
-5.56381e-06
-4.92681e-06
-4.05312e-06
-2.87893e-06
-1.33291e-06
6.58546e-07
3.16143e-06
6.21671e-06
9.56069e-06
1.26176e-05
1.51231e-05
1.71174e-05
1.86662e-05
1.98428e-05
2.07185e-05
2.13571e-05
2.18127e-05
2.21298e-05
2.23435e-05
2.24812e-05
2.25638e-05
2.26065e-05
2.26213e-05
2.26175e-05
-9.94844e-06
-9.95328e-06
-9.93472e-06
-9.88116e-06
-9.77776e-06
-9.60545e-06
-9.33848e-06
-8.94322e-06
-8.37678e-06
-7.58587e-06
-6.50632e-06
-5.06405e-06
-3.17814e-06
-7.66917e-07
2.24157e-06
5.89278e-06
9.87923e-06
1.35328e-05
1.6545e-05
1.89603e-05
2.08504e-05
2.22963e-05
2.33789e-05
2.41723e-05
2.47406e-05
2.51373e-05
2.54052e-05
2.55781e-05
2.5682e-05
2.57357e-05
2.57544e-05
2.57496e-05
-1.43528e-05
-1.43592e-05
-1.43347e-05
-1.42642e-05
-1.41282e-05
-1.39018e-05
-1.35516e-05
-1.30345e-05
-1.22968e-05
-1.12728e-05
-9.88613e-06
-8.05133e-06
-5.67875e-06
-2.68134e-06
1.016e-06
5.46305e-06
1.03002e-05
1.47506e-05
1.84532e-05
2.14568e-05
2.38356e-05
2.56763e-05
2.7068e-05
2.8096e-05
2.88369e-05
2.93563e-05
2.97082e-05
2.99357e-05
3.00724e-05
3.01433e-05
3.0168e-05
3.01617e-05
-1.98007e-05
-1.98093e-05
-1.9776e-05
-1.96805e-05
-1.94965e-05
-1.9191e-05
-1.87203e-05
-1.8029e-05
-1.705e-05
-1.57045e-05
-1.39047e-05
-1.15582e-05
-8.57349e-06
-4.86658e-06
-3.66108e-07
4.98162e-06
1.07696e-05
1.61216e-05
2.06291e-05
2.43447e-05
2.73387e-05
2.96941e-05
3.15019e-05
3.28542e-05
3.38386e-05
3.4534e-05
3.50077e-05
3.53151e-05
3.55004e-05
3.55966e-05
3.56302e-05
3.56218e-05
-2.59228e-05
-2.59341e-05
-2.58882e-05
-2.57571e-05
-2.55057e-05
-2.509e-05
-2.44535e-05
-2.3527e-05
-2.22298e-05
-2.04725e-05
-1.81622e-05
-1.52091e-05
-1.15317e-05
-7.05994e-06
-1.73262e-06
4.50948e-06
1.12274e-05
1.74745e-05
2.28103e-05
2.72931e-05
3.0983e-05
3.39491e-05
3.62716e-05
3.80396e-05
3.93458e-05
4.02792e-05
4.09207e-05
4.13398e-05
4.15935e-05
4.17259e-05
4.17724e-05
4.17613e-05
-3.26796e-05
-3.26946e-05
-3.26302e-05
-3.24478e-05
-3.20999e-05
-3.15286e-05
-3.06623e-05
-2.9417e-05
-2.77013e-05
-2.54225e-05
-2.24939e-05
-1.88422e-05
-1.44096e-05
-9.14915e-06
-3.01203e-06
4.07146e-06
1.16496e-05
1.87382e-05
2.48844e-05
3.01577e-05
3.46059e-05
3.82749e-05
4.1221e-05
4.35162e-05
4.5246e-05
4.65027e-05
4.73778e-05
4.7955e-05
4.83069e-05
4.84916e-05
4.85571e-05
4.85425e-05
-4.00574e-05
-4.00772e-05
-3.99849e-05
-3.97266e-05
-3.92377e-05
-3.84433e-05
-3.72549e-05
-3.55772e-05
-3.33161e-05
-3.03887e-05
-2.67315e-05
-2.23036e-05
-1.70813e-05
-1.10439e-05
-4.15123e-06
3.6851e-06
1.20196e-05
1.98604e-05
2.67617e-05
3.28123e-05
3.80522e-05
4.25015e-05
4.61821e-05
4.91332e-05
5.14162e-05
5.31125e-05
5.43154e-05
5.51204e-05
5.56162e-05
5.58787e-05
5.59728e-05
5.59537e-05
-4.80741e-05
-4.81002e-05
-4.79647e-05
-4.75907e-05
-4.68913e-05
-4.57721e-05
-4.4131e-05
-4.18708e-05
-3.89113e-05
-3.52002e-05
-3.07159e-05
-2.54619e-05
-1.94514e-05
-1.26845e-05
-5.11976e-06
3.35952e-06
1.23291e-05
2.08116e-05
2.83833e-05
3.5162e-05
4.11902e-05
4.6468e-05
5.09815e-05
5.47248e-05
5.77164e-05
6.0006e-05
6.16713e-05
6.28088e-05
6.35206e-05
6.39019e-05
6.40409e-05
6.4016e-05
-5.67885e-05
-5.68224e-05
-5.66169e-05
-5.60613e-05
-5.50409e-05
-5.3445e-05
-5.11704e-05
-4.81395e-05
-4.43127e-05
-3.96916e-05
-3.4311e-05
-2.8221e-05
-2.14632e-05
-1.40445e-05
-5.90901e-06
3.09622e-06
1.25773e-05
2.15842e-05
2.97238e-05
3.7151e-05
4.39239e-05
5.00375e-05
5.54508e-05
6.01123e-05
6.39838e-05
6.70592e-05
6.93733e-05
7.10007e-05
7.20433e-05
7.26123e-05
7.28242e-05
7.27923e-05
-6.63139e-05
-6.63561e-05
-6.60321e-05
-6.51818e-05
-6.36636e-05
-6.1368e-05
-5.82214e-05
-5.42023e-05
-4.9343e-05
-4.37173e-05
-3.74173e-05
-3.05276e-05
-2.30988e-05
-1.51264e-05
-6.52747e-06
2.8911e-06
1.27688e-05
2.21871e-05
3.07867e-05
3.87627e-05
4.62012e-05
5.31105e-05
5.94425e-05
6.5114e-05
7.00306e-05
7.41134e-05
7.73223e-05
7.96714e-05
8.12295e-05
8.21048e-05
8.24407e-05
8.2402e-05
-7.68444e-05
-7.68902e-05
-7.63539e-05
-7.50098e-05
-7.27126e-05
-6.94028e-05
-6.50924e-05
-5.98615e-05
-5.38379e-05
-4.71673e-05
-3.99812e-05
-3.23715e-05
-2.43735e-05
-1.59537e-05
-6.99446e-06
2.73678e-06
1.29112e-05
2.26403e-05
3.15962e-05
4.00137e-05
4.80138e-05
5.56348e-05
6.28465e-05
6.95619e-05
7.56513e-05
8.0966e-05
8.53693e-05
8.87677e-05
9.11368e-05
9.25284e-05
9.30876e-05
9.30484e-05
-8.87085e-05
-8.8731e-05
-8.77905e-05
-8.55967e-05
-8.20851e-05
-7.73468e-05
-7.15533e-05
-6.49193e-05
-5.76651e-05
-4.99799e-05
-4.19963e-05
-3.3779e-05
-2.53251e-05
-1.65617e-05
-7.33435e-06
2.62456e-06
1.30132e-05
2.29683e-05
3.21885e-05
4.09432e-05
4.939e-05
5.76068e-05
6.56031e-05
7.33227e-05
8.06412e-05
8.73732e-05
9.32937e-05
9.81715e-05
0.00010181
0.000104096
0.000105083
0.000105074
-0.000102495
-0.000102381
-0.000100622
-9.69471e-05
-9.15835e-05
-8.49231e-05
-7.735e-05
-6.92016e-05
-6.07422e-05
-5.21465e-05
-4.34974e-05
-3.48013e-05
-2.60038e-05
-1.69901e-05
-7.57218e-06
2.54585e-06
1.30833e-05
2.3196e-05
3.26032e-05
4.16021e-05
5.03829e-05
5.90645e-05
6.7708e-05
7.63172e-05
8.48234e-05
9.30668e-05
0.000100792
0.000107654
0.000113233
0.000117088
0.000118948
0.000119094
-0.000119382
-0.000118702
-0.000115198
-0.000108949
-0.000100872
-9.17802e-05
-8.22292e-05
-7.25831e-05
-6.30486e-05
-5.37074e-05
-4.45484e-05
-3.55022e-05
-2.64626e-05
-1.7277e-05
-7.73093e-06
2.49295e-06
1.31291e-05
2.33464e-05
3.28789e-05
4.20439e-05
5.10576e-05
6.00747e-05
6.92066e-05
7.85318e-05
8.80778e-05
9.77874e-05
0.000107485
0.000116827
0.00012524
0.000131832
0.000135571
0.000136357
-0.000142052
-0.000139221
-0.000131831
-0.000121211
-0.000109402
-9.74926e-05
-8.59682e-05
-7.50083e-05
-6.46229e-05
-5.47376e-05
-4.52267e-05
-3.59471e-05
-2.67507e-05
-1.74562e-05
-7.83005e-06
2.45944e-06
1.31567e-05
2.34389e-05
3.3049e-05
4.23183e-05
5.14806e-05
6.07178e-05
7.018e-05
8.00158e-05
9.03641e-05
0.000101325
0.000112937
0.000125088
0.000137347
0.000148579
0.000156531
0.000159746
-0.000177703
-0.00016636
-0.000150136
-0.000132615
-0.000116265
-0.000101574
-8.8409e-05
-7.64929e-05
-6.55448e-05
-5.5326e-05
-4.56082e-05
-3.61936e-05
-2.69091e-05
-1.75544e-05
-7.88467e-06
2.44047e-06
1.31713e-05
2.34886e-05
3.31407e-05
4.24665e-05
5.17108e-05
6.10724e-05
7.07235e-05
8.08628e-05
9.17243e-05
0.000103565
0.000116714
0.000131548
0.000148376
0.000166857
0.000184335
0.000196895
-0.000244918
-0.000201485
-0.000167065
-0.000140746
-0.0001203
-0.000103659
-8.95413e-05
-7.71411e-05
-6.59342e-05
-5.55657e-05
-4.57594e-05
-3.62913e-05
-2.69716e-05
-1.75932e-05
-7.90664e-06
2.43236e-06
1.31765e-05
2.35077e-05
3.31757e-05
4.25232e-05
5.17991e-05
6.1208e-05
7.09369e-05
8.12066e-05
9.2293e-05
0.000104559
0.000118565
0.000135231
0.000156116
0.000183798
0.000220783
0.000267528
-0.000370398
-0.000241641
-0.000178121
-0.000143919
-0.000121249
-0.000103944
-8.96234e-05
-7.71599e-05
-6.59335e-05
-5.55589e-05
-4.57518e-05
-3.62852e-05
-2.69671e-05
-1.75905e-05
-7.90561e-06
2.43202e-06
1.31754e-05
2.35054e-05
3.31716e-05
4.25167e-05
5.17895e-05
6.11946e-05
7.09201e-05
8.11885e-05
9.22804e-05
0.000104583
0.000118741
0.000136
0.000159144
0.000195467
0.000263214
0.000397342
)
;

boundaryField
{
    movingWall
    {
        type            zeroGradient;
    }
    fixedWalls
    {
        type            zeroGradient;
    }
    frontAndBack
    {
        type            empty;
    }
}


// ************************************************************************* //
