/*--------------------------------*- C++ -*----------------------------------*\
| =========                 |                                                 |
| \\      /  F ield         | OpenFOAM: The Open Source CFD Toolbox           |
|  \\    /   O peration     | Version:  2206                                  |
|   \\  /    A nd           | Website:  www.openfoam.com                      |
|    \\/     M anipulation  |                                                 |
\*---------------------------------------------------------------------------*/
FoamFile
{
    version     2.0;
    format      ascii;
    arch        "LSB;label=64;scalar=64";
    class       surfaceScalarField;
    location    "1";
    object      phi;
}
// * * * * * * * * * * * * * * * * * * * * * * * * * * * * * * * * * * * * * //

dimensions      [0 3 -1 0 0 0 0];

oriented        oriented;

internalField   nonuniform List<scalar> 
1984
(
-1.35141e-11
1.35079e-11
-4.55933e-11
3.20789e-11
-8.77115e-11
4.21179e-11
-1.37096e-10
4.93839e-11
-1.93962e-10
5.68659e-11
-2.5905e-10
6.50873e-11
-3.33078e-10
7.40278e-11
-4.16562e-10
8.34835e-11
-5.09626e-10
9.30635e-11
-6.1172e-10
1.02093e-10
-7.212e-10
1.09479e-10
-8.34729e-10
1.13529e-10
-9.46478e-10
1.11748e-10
-1.0471e-09
1.0062e-10
-1.12258e-09
7.54823e-11
-1.15322e-09
3.06365e-11
-1.12266e-09
-3.05622e-11
-1.04723e-09
-7.54299e-11
-9.46636e-10
-1.00591e-10
-8.34898e-10
-1.11739e-10
-7.21364e-10
-1.13534e-10
-6.11872e-10
-1.09493e-10
-5.0976e-10
-1.02112e-10
-4.16676e-10
-9.30846e-11
-3.33172e-10
-8.35046e-11
-2.59126e-10
-7.40475e-11
-1.94022e-10
-6.51045e-11
-1.37142e-10
-5.68802e-11
-8.77456e-11
-4.9397e-11
-4.56138e-11
-4.21323e-11
-1.35191e-11
-3.20952e-11
-1.35193e-11
-3.21029e-11
4.56105e-11
-1.03864e-10
1.0384e-10
-1.97304e-10
1.35557e-10
-3.07789e-10
1.59869e-10
-4.35705e-10
1.84782e-10
-5.82517e-10
2.11898e-10
-7.49717e-10
2.41227e-10
-9.38393e-10
2.72158e-10
-1.14877e-09
3.03444e-10
-1.37959e-09
3.32906e-10
-1.6271e-09
3.56987e-10
-1.88376e-09
3.70189e-10
-2.13639e-09
3.64382e-10
-2.36389e-09
3.28113e-10
-2.53457e-09
2.46162e-10
-2.60384e-09
9.99104e-11
-2.53471e-09
-9.96956e-11
-2.36413e-09
-2.46011e-10
-2.13669e-09
-3.2803e-10
-1.88408e-09
-3.64355e-10
-1.62741e-09
-3.70204e-10
-1.37987e-09
-3.57028e-10
-1.14903e-09
-3.32961e-10
-9.38608e-10
-3.03505e-10
-7.49895e-10
-2.72219e-10
-5.82659e-10
-2.41284e-10
-4.35817e-10
-2.11948e-10
-3.07874e-10
-1.84824e-10
-1.97363e-10
-1.59908e-10
-1.039e-10
-1.35597e-10
-3.21143e-11
-1.03881e-10
-4.56337e-11
-4.22753e-11
8.78857e-11
-1.36002e-10
1.97567e-10
-2.56867e-10
2.56421e-10
-3.99779e-10
3.0278e-10
-5.65454e-10
3.50456e-10
-7.5577e-10
4.02214e-10
-9.72612e-10
4.58069e-10
-1.21735e-09
5.16897e-10
-1.49026e-09
5.76352e-10
-1.78966e-09
6.32307e-10
-2.11069e-09
6.78019e-10
-2.44356e-09
7.03052e-10
-2.77115e-09
6.91974e-10
-3.06608e-09
6.23039e-10
-3.28724e-09
4.67328e-10
-3.37695e-09
1.8962e-10
-3.2874e-09
-1.89243e-10
-3.06635e-09
-4.67064e-10
-2.77149e-09
-6.22894e-10
-2.44392e-09
-6.91926e-10
-2.11105e-09
-7.03076e-10
-1.78999e-09
-6.78089e-10
-1.49055e-09
-6.32401e-10
-1.21759e-09
-5.76457e-10
-9.72812e-10
-5.17002e-10
-7.5593e-10
-4.58167e-10
-5.65578e-10
-4.02301e-10
-3.9987e-10
-3.50532e-10
-2.56929e-10
-3.0285e-10
-1.36038e-10
-2.56489e-10
-4.22869e-11
-1.97632e-10
-8.79207e-11
-4.99108e-11
1.37796e-10
-1.61506e-10
3.09162e-10
-3.0542e-10
4.00334e-10
-4.75396e-10
4.72756e-10
-6.72398e-10
5.47457e-10
-8.98737e-10
6.28552e-10
-1.15667e-09
7.16006e-10
-1.44784e-09
8.08059e-10
-1.77254e-09
9.01054e-10
-2.12878e-09
9.8855e-10
-2.51079e-09
1.06002e-09
-2.9069e-09
1.09916e-09
-3.29679e-09
1.08187e-09
-3.64791e-09
9.74157e-10
-3.91139e-09
7.30809e-10
-4.01835e-09
2.9658e-10
-3.91158e-09
-2.96019e-10
-3.64823e-09
-7.30416e-10
-3.29718e-09
-9.73941e-10
-2.90731e-09
-1.0818e-09
-2.51119e-09
-1.0992e-09
-2.12916e-09
-1.06012e-09
-1.77287e-09
-9.88691e-10
-1.44812e-09
-9.0121e-10
-1.15691e-09
-8.08215e-10
-8.98921e-10
-7.16153e-10
-6.72539e-10
-6.28685e-10
-4.75497e-10
-5.47575e-10
-3.05486e-10
-4.72862e-10
-1.61542e-10
-4.00433e-10
-4.99218e-11
-3.09253e-10
-1.37843e-10
-5.81888e-11
1.95985e-10
-1.88997e-10
4.3997e-10
-3.57917e-10
5.69254e-10
-5.57379e-10
6.72217e-10
-7.88478e-10
7.78556e-10
-1.05396e-09
8.94036e-10
-1.35652e-09
1.01856e-09
-1.69805e-09
1.1496e-09
-2.07895e-09
1.28195e-09
-2.49685e-09
1.40645e-09
-2.94497e-09
1.50814e-09
-3.40964e-09
1.56384e-09
-3.86706e-09
1.53929e-09
-4.27908e-09
1.38618e-09
-4.58844e-09
1.04016e-09
-4.71411e-09
4.22256e-10
-4.58866e-09
-4.21474e-10
-4.27946e-09
-1.03962e-09
-3.86753e-09
-1.38587e-09
-3.41014e-09
-1.53919e-09
-2.94545e-09
-1.56389e-09
-2.49729e-09
-1.50828e-09
-2.07934e-09
-1.40664e-09
-1.69839e-09
-1.28216e-09
-1.35679e-09
-1.14981e-09
-1.05418e-09
-1.01876e-09
-7.88642e-10
-8.94222e-10
-5.57495e-10
-7.78723e-10
-3.57991e-10
-6.72366e-10
-1.89036e-10
-5.69389e-10
-5.82008e-11
-4.40089e-10
-1.96044e-10
-6.79476e-11
2.63932e-10
-2.21103e-10
5.93125e-10
-4.19062e-10
7.67212e-10
-6.52845e-10
9.05999e-10
-9.23674e-10
1.04938e-09
-1.23476e-09
1.20512e-09
-1.58926e-09
1.37305e-09
-1.98942e-09
1.54976e-09
-2.43567e-09
1.7282e-09
-2.92524e-09
1.89602e-09
-3.45016e-09
2.03306e-09
-3.99443e-09
2.10811e-09
-4.53015e-09
2.07501e-09
-5.01271e-09
1.86873e-09
-5.37512e-09
1.40257e-09
-5.52241e-09
5.69545e-10
-5.37539e-09
-5.68502e-10
-5.01316e-09
-1.40184e-09
-4.53071e-09
-1.86833e-09
-3.99502e-09
-2.07488e-09
-3.45074e-09
-2.10817e-09
-2.92577e-09
-2.03325e-09
-2.43614e-09
-1.89628e-09
-1.98982e-09
-1.72848e-09
-1.58958e-09
-1.55005e-09
-1.23502e-09
-1.37333e-09
-9.23869e-10
-1.20537e-09
-6.52983e-10
-1.04961e-09
-4.1915e-10
-9.06199e-10
-2.2115e-10
-7.67389e-10
-6.7962e-11
-5.93278e-10
-2.64006e-10
-7.96789e-11
3.4361e-10
-2.59501e-10
7.72946e-10
-4.92034e-10
9.99744e-10
-7.66689e-10
1.18065e-09
-1.08486e-09
1.36755e-09
-1.45028e-09
1.57055e-09
-1.86666e-09
1.78943e-09
-2.33661e-09
2.01971e-09
-2.86062e-09
2.2522e-09
-3.4354e-09
2.47079e-09
-4.05154e-09
2.64921e-09
-4.69023e-09
2.74679e-09
-5.3187e-09
2.70349e-09
-5.88468e-09
2.4347e-09
-6.30969e-09
1.82758e-09
-6.48243e-09
7.4229e-10
-6.31001e-09
-7.40926e-10
-5.88522e-09
-1.82663e-09
-5.31938e-09
-2.43418e-09
-4.69094e-09
-2.70331e-09
-4.05224e-09
-2.74687e-09
-3.43604e-09
-2.64945e-09
-2.86119e-09
-2.47113e-09
-2.3371e-09
-2.25258e-09
-1.86705e-09
-2.02009e-09
-1.4506e-09
-1.78979e-09
-1.08509e-09
-1.57088e-09
-7.66857e-10
-1.36785e-09
-4.92143e-10
-1.18091e-09
-2.59559e-10
-9.99973e-10
-7.96971e-11
-7.73141e-10
-3.43703e-10
-9.40029e-11
4.37612e-10
-3.06263e-10
9.85206e-10
-5.80799e-10
1.27428e-09
-9.0508e-10
1.50493e-09
-1.28072e-09
1.74319e-09
-1.71211e-09
2.00194e-09
-2.20357e-09
2.28089e-09
-2.75816e-09
2.57431e-09
-3.3764e-09
2.87044e-09
-4.05431e-09
3.14871e-09
-4.78073e-09
3.37562e-09
-5.53334e-09
3.4994e-09
-6.27353e-09
3.44367e-09
-6.93972e-09
3.10089e-09
-7.43974e-09
2.32761e-09
-7.64293e-09
9.45471e-10
-7.44014e-09
-9.43712e-10
-6.94039e-09
-2.32638e-09
-6.27436e-09
-3.10021e-09
-5.53424e-09
-3.44344e-09
-4.7816e-09
-3.49951e-09
-4.05512e-09
-3.37594e-09
-3.37711e-09
-3.14914e-09
-2.75877e-09
-2.87092e-09
-2.20407e-09
-2.57479e-09
-1.7125e-09
-2.28135e-09
-1.28102e-09
-2.00236e-09
-9.05291e-10
-1.74357e-09
-5.80936e-10
-1.50527e-09
-3.06338e-10
-1.27457e-09
-9.40263e-11
-9.85453e-10
-4.37729e-10
-1.11841e-10
5.49453e-10
-3.64417e-10
1.23778e-09
-6.91116e-10
1.60098e-09
-1.07699e-09
1.89081e-09
-1.52394e-09
2.19013e-09
-2.03713e-09
2.51513e-09
-2.62166e-09
2.86542e-09
-3.28108e-09
3.23372e-09
-4.01587e-09
3.60523e-09
-4.82119e-09
3.95403e-09
-5.68357e-09
4.238e-09
-6.57635e-09
4.39218e-09
-7.45358e-09
4.3209e-09
-8.24235e-09
3.88966e-09
-8.83384e-09
2.9191e-09
-9.07404e-09
1.18567e-09
-8.83435e-09
-1.18341e-09
-8.24321e-09
-2.91751e-09
-7.45465e-09
-3.88877e-09
-6.5775e-09
-4.3206e-09
-5.68469e-09
-4.39231e-09
-4.82223e-09
-4.2384e-09
-4.01679e-09
-3.95458e-09
-3.28186e-09
-3.60585e-09
-2.6223e-09
-3.23435e-09
-2.03764e-09
-2.86601e-09
-1.52432e-09
-2.51568e-09
-1.07727e-09
-2.19063e-09
-6.91294e-10
-1.89124e-09
-3.64514e-10
-1.60135e-09
-1.11872e-10
-1.2381e-09
-5.49601e-10
-1.34599e-10
6.84051e-10
-4.38552e-10
1.54173e-09
-8.31698e-10
1.99412e-09
-1.296e-09
2.35511e-09
-1.83367e-09
2.72781e-09
-2.45089e-09
3.13235e-09
-3.15366e-09
3.56819e-09
-3.94611e-09
4.02618e-09
-4.82862e-09
4.48774e-09
-5.79508e-09
4.92049e-09
-6.829e-09
5.27191e-09
-7.89806e-09
5.46125e-09
-8.94702e-09
5.36986e-09
-9.88875e-09
4.83139e-09
-1.05939e-08
3.62428e-09
-1.088e-08
1.47177e-09
-1.05946e-08
-1.46884e-09
-9.88989e-09
-3.62222e-09
-8.94842e-09
-4.83024e-09
-7.89957e-09
-5.36946e-09
-6.83048e-09
-5.4614e-09
-5.79645e-09
-5.27243e-09
-4.82983e-09
-4.9212e-09
-3.94714e-09
-4.48854e-09
-3.15451e-09
-4.02699e-09
-2.45156e-09
-3.56896e-09
-1.83418e-09
-3.13306e-09
-1.29636e-09
-2.72845e-09
-8.31936e-10
-2.35567e-09
-4.38682e-10
-1.99461e-09
-1.3464e-10
-1.54214e-09
-6.84242e-10
-1.64469e-10
8.48518e-10
-5.35811e-10
1.91307e-09
-1.01609e-09
2.4744e-09
-1.58317e-09
2.92218e-09
-2.23967e-09
3.38431e-09
-2.99301e-09
3.88569e-09
-3.85034e-09
4.42551e-09
-4.81641e-09
4.99226e-09
-5.89131e-09
5.56264e-09
-7.06708e-09
6.09626e-09
-8.32304e-09
6.52787e-09
-9.61931e-09
6.75752e-09
-1.08885e-08
6.63904e-09
-1.20253e-08
5.96824e-09
-1.28748e-08
4.47371e-09
-1.32189e-08
1.81588e-09
-1.28757e-08
-1.81205e-09
-1.20269e-08
-4.471e-09
-1.08904e-08
-5.96671e-09
-9.62138e-09
-6.63851e-09
-8.32507e-09
-6.75771e-09
-7.06896e-09
-6.52853e-09
-5.89298e-09
-6.09718e-09
-4.81784e-09
-5.56368e-09
-3.85151e-09
-4.99332e-09
-2.99394e-09
-4.42653e-09
-2.24038e-09
-3.88662e-09
-1.58367e-09
-3.38515e-09
-1.01642e-09
-2.92292e-09
-5.35992e-10
-2.47504e-09
-1.64526e-10
-1.9136e-09
-8.48767e-10
-2.04961e-10
1.05348e-09
-6.6763e-10
2.37574e-09
-1.26596e-09
3.07273e-09
-1.97221e-09
3.62843e-09
-2.78949e-09
4.20159e-09
-3.72677e-09
4.82297e-09
-4.79262e-09
5.49136e-09
-5.99246e-09
6.19209e-09
-7.32564e-09
6.89582e-09
-8.78135e-09
7.55197e-09
-1.03328e-08
8.07937e-09
-1.19297e-08
8.35442e-09
-1.34882e-08
8.19755e-09
-1.48794e-08
7.35942e-09
-1.59155e-08
5.50982e-09
-1.63344e-08
2.23472e-09
-1.59168e-08
-2.22961e-09
-1.48816e-08
-5.5062e-09
-1.3491e-08
-7.35736e-09
-1.19327e-08
-8.1968e-09
-1.03358e-08
-8.35464e-09
-8.78406e-09
-8.08024e-09
-7.32804e-09
-7.5532e-09
-5.99451e-09
-6.89721e-09
-4.79431e-09
-6.19351e-09
-3.72812e-09
-5.49273e-09
-2.79051e-09
-4.82423e-09
-1.97295e-09
-4.20272e-09
-1.26644e-09
-3.62943e-09
-6.67892e-10
-3.07359e-09
-2.05044e-10
-2.37645e-09
-1.05381e-09
-2.6189e-10
1.31537e-09
-8.5293e-10
2.96678e-09
-1.61718e-09
3.83698e-09
-2.51886e-09
4.53011e-09
-3.56163e-09
5.24435e-09
-4.7565e-09
6.01785e-09
-6.11372e-09
6.84858e-09
-7.63918e-09
7.71755e-09
-9.33068e-09
8.58732e-09
-1.11727e-08
9.39395e-09
-1.31291e-08
1.00358e-08
-1.51342e-08
1.03596e-08
-1.70816e-08
1.01449e-08
-1.88108e-08
9.08863e-09
-2.00924e-08
6.79141e-09
-2.06088e-08
2.75111e-09
-2.00943e-08
-2.74413e-09
-1.88141e-08
-6.78643e-09
-1.70857e-08
-9.08575e-09
-1.51386e-08
-1.01438e-08
-1.31334e-08
-1.03598e-08
-1.11767e-08
-1.00369e-08
-9.33431e-09
-9.39563e-09
-7.64229e-09
-8.58923e-09
-6.11629e-09
-7.71952e-09
-4.75855e-09
-6.85047e-09
-3.56318e-09
-6.01959e-09
-2.51998e-09
-5.24592e-09
-1.61791e-09
-4.53149e-09
-8.5333e-10
-3.83817e-09
-2.62017e-10
-2.96777e-09
-1.31583e-09
-3.45285e-10
1.66065e-09
-1.12436e-09
3.74585e-09
-2.13158e-09
4.8442e-09
-3.31914e-09
5.71768e-09
-4.69122e-09
6.61643e-09
-6.2614e-09
7.58803e-09
-8.04175e-09
8.62893e-09
-1.0038e-08
9.71378e-09
-1.22443e-08
1.07937e-08
-1.46367e-08
1.17864e-08
-1.7164e-08
1.25631e-08
-1.97371e-08
1.29327e-08
-2.22169e-08
1.26247e-08
-2.44009e-08
1.12726e-08
-2.60073e-08
8.39782e-09
-2.66513e-08
3.39515e-09
-2.60101e-08
-3.3853e-09
-2.44059e-08
-8.39071e-09
-2.22232e-08
-1.12684e-08
-1.9744e-08
-1.2623e-08
-1.71709e-08
-1.29329e-08
-1.46432e-08
-1.25647e-08
-1.22501e-08
-1.17887e-08
-1.00429e-08
-1.07964e-08
-8.04587e-09
-9.7166e-09
-6.26469e-09
-8.63165e-09
-4.69373e-09
-7.59056e-09
-3.32094e-09
-6.61871e-09
-2.13276e-09
-5.71968e-09
-1.125e-09
-4.84593e-09
-3.4549e-10
-3.74728e-09
-1.66132e-09
-4.73426e-10
2.13408e-09
-1.54138e-09
4.81381e-09
-2.92181e-09
6.22463e-09
-4.54778e-09
7.34365e-09
-6.42365e-09
8.49229e-09
-8.56599e-09
9.73037e-09
-1.09882e-08
1.10512e-08
-1.36936e-08
1.24192e-08
-1.6668e-08
1.37681e-08
-1.98709e-08
1.49892e-08
-2.32243e-08
1.59165e-08
-2.66015e-08
1.63098e-08
-2.98155e-08
1.58387e-08
-3.26086e-08
1.40657e-08
-3.46379e-08
1.04272e-08
-3.5445e-08
4.2022e-09
-3.46425e-08
-4.1878e-09
-3.26166e-08
-1.04166e-08
-2.98257e-08
-1.40593e-08
-2.66128e-08
-1.58359e-08
-2.32358e-08
-1.631e-08
-1.98818e-08
-1.59187e-08
-1.66778e-08
-1.49926e-08
-1.37021e-08
-1.37721e-08
-1.09953e-08
-1.24234e-08
-8.57164e-09
-1.10553e-08
-6.42797e-09
-9.73423e-09
-4.55089e-09
-8.49578e-09
-2.92384e-09
-7.34673e-09
-1.5425e-09
-6.22727e-09
-4.73777e-10
-4.816e-09
-2.13509e-09
-6.82277e-10
2.81636e-09
-2.22056e-09
6.3521e-09
-4.20766e-09
8.21173e-09
-6.54533e-09
9.68133e-09
-9.23674e-09
1.11837e-08
-1.23008e-08
1.27944e-08
-1.57489e-08
1.44993e-08
-1.95747e-08
1.62449e-08
-2.37427e-08
1.79361e-08
-2.81768e-08
1.94234e-08
-3.27482e-08
2.04879e-08
-3.72659e-08
2.08275e-08
-4.14728e-08
2.00457e-08
-4.50458e-08
1.76386e-08
-4.75875e-08
1.29689e-08
-4.85843e-08
5.19902e-09
-4.75949e-08
-5.17714e-09
-4.50591e-08
-1.29524e-08
-4.14903e-08
-1.76281e-08
-3.72856e-08
-2.00407e-08
-3.27685e-08
-2.08271e-08
-2.81964e-08
-2.04908e-08
-2.37606e-08
-1.94285e-08
-1.95903e-08
-1.79424e-08
-1.5762e-08
-1.62517e-08
-1.23113e-08
-1.4506e-08
-9.24481e-09
-1.28007e-08
-6.55115e-09
-1.11895e-08
-4.21147e-09
-9.68641e-09
-2.22264e-09
-8.2161e-09
-6.82935e-10
-6.35571e-09
-2.81803e-09
-8.99498e-10
3.71586e-09
-2.92535e-09
8.37795e-09
-5.5384e-09
1.08248e-08
-8.60731e-09
1.27502e-08
-1.21295e-08
1.47059e-08
-1.61183e-08
1.67831e-08
-2.0571e-08
1.8952e-08
-2.54539e-08
2.11278e-08
-3.06885e-08
2.31707e-08
-3.61395e-08
2.48744e-08
-4.16081e-08
2.59564e-08
-4.68357e-08
2.60552e-08
-5.15211e-08
2.4731e-08
-5.53417e-08
2.14593e-08
-5.79594e-08
1.55866e-08
-5.89608e-08
6.20034e-09
-5.797e-08
-6.16787e-09
-5.53612e-08
-1.55613e-08
-5.15473e-08
-2.1442e-08
-4.68664e-08
-2.47216e-08
-4.16407e-08
-2.60528e-08
-3.61718e-08
-2.59596e-08
-3.07186e-08
-2.48816e-08
-2.54806e-08
-2.31804e-08
-2.05937e-08
-2.11386e-08
-1.61367e-08
-1.8963e-08
-1.21437e-08
-1.67937e-08
-8.61754e-09
-1.47156e-08
-5.54513e-09
-1.27589e-08
-2.92903e-09
-1.08322e-08
-9.00661e-10
-8.3841e-09
-3.71869e-09
-1.05881e-09
4.77467e-09
-3.44038e-09
1.07595e-08
-6.50592e-09
1.38903e-08
-1.0095e-08
1.63393e-08
-1.41913e-08
1.88022e-08
-1.87888e-08
2.13807e-08
-2.38526e-08
2.40158e-08
-2.93004e-08
2.65757e-08
-3.49899e-08
2.88602e-08
-4.07136e-08
3.05981e-08
-4.6209e-08
3.14519e-08
-5.11878e-08
3.1034e-08
-5.53795e-08
2.89226e-08
-5.85734e-08
2.46533e-08
-6.06253e-08
1.76384e-08
-6.13764e-08
6.95151e-09
-6.06374e-08
-6.90693e-09
-5.85965e-08
-1.76022e-08
-5.5412e-08
-2.46264e-08
-5.12277e-08
-2.89059e-08
-4.62534e-08
-3.10271e-08
-4.07593e-08
-3.14538e-08
-3.5034e-08
-3.06069e-08
-2.93407e-08
-2.88738e-08
-2.38874e-08
-2.65919e-08
-1.88174e-08
-2.4033e-08
-1.42135e-08
-2.13976e-08
-1.01111e-08
-1.8818e-08
-6.51652e-09
-1.63535e-08
-3.44618e-09
-1.39026e-08
-1.06065e-09
-1.07697e-08
-4.77934e-09
-1.25483e-09
6.0295e-09
-4.07322e-09
1.35779e-08
-7.69139e-09
1.75085e-08
-1.19055e-08
2.05534e-08
-1.6673e-08
2.35697e-08
-2.19506e-08
2.66582e-08
-2.7647e-08
2.97122e-08
-3.36035e-08
3.25322e-08
-3.95886e-08
3.48453e-08
-4.53115e-08
3.6321e-08
-5.04602e-08
3.66005e-08
-5.47602e-08
3.5334e-08
-5.80389e-08
3.22014e-08
-6.02644e-08
2.68788e-08
-6.15298e-08
1.89038e-08
-6.19522e-08
7.37394e-09
-6.15422e-08
-7.31691e-09
-6.02891e-08
-1.88553e-08
-5.80757e-08
-2.68398e-08
-5.48081e-08
-3.21735e-08
-5.05167e-08
-3.53185e-08
-4.53729e-08
-3.65976e-08
-3.96506e-08
-3.63292e-08
-3.36621e-08
-3.48623e-08
-2.76991e-08
-3.25549e-08
-2.19943e-08
-2.97378e-08
-1.67075e-08
-2.66844e-08
-1.19308e-08
-2.35947e-08
-7.70811e-09
-2.05762e-08
-4.08235e-09
-1.75284e-08
-1.25768e-09
-1.35944e-08
-6.03702e-09
-1.50395e-09
7.53345e-09
-4.87501e-09
1.6949e-08
-9.18552e-09
2.1819e-08
-1.41672e-08
2.55351e-08
-1.97289e-08
2.91314e-08
-2.57607e-08
3.26901e-08
-3.20797e-08
3.60312e-08
-3.84171e-08
3.88696e-08
-4.44348e-08
4.08631e-08
-4.97724e-08
4.16585e-08
-5.41192e-08
4.09473e-08
-5.72946e-08
3.85094e-08
-5.93009e-08
3.42077e-08
-6.0327e-08
2.79048e-08
-6.06966e-08
1.92733e-08
-6.0762e-08
7.43936e-09
-6.0708e-08
-7.37086e-09
-6.03509e-08
-1.92124e-08
-5.9339e-08
-2.78517e-08
-5.73477e-08
-3.41647e-08
-5.41865e-08
-3.84798e-08
-4.98504e-08
-4.09336e-08
-4.45183e-08
-4.16614e-08
-3.84998e-08
-4.08807e-08
-3.21561e-08
-3.88986e-08
-2.58267e-08
-3.60673e-08
-1.97819e-08
-3.27291e-08
-1.42066e-08
-2.91701e-08
-9.21167e-09
-2.55711e-08
-4.88929e-09
-2.18508e-08
-1.50838e-09
-1.69752e-08
-7.5454e-09
-1.83057e-09
9.36402e-09
-5.92193e-09
2.10403e-08
-1.11224e-08
2.70194e-08
-1.70627e-08
3.14754e-08
-2.35646e-08
3.56333e-08
-3.04052e-08
3.95307e-08
-3.72635e-08
4.28895e-08
-4.37338e-08
4.53399e-08
-4.93839e-08
4.65131e-08
-5.38446e-08
4.61192e-08
-5.69064e-08
4.40091e-08
-5.85798e-08
4.01828e-08
-5.9097e-08
3.47249e-08
-5.88587e-08
2.76665e-08
-5.83559e-08
1.87705e-08
-5.80898e-08
7.17324e-09
-5.83653e-08
-7.09533e-09
-5.88794e-08
-1.86983e-08
-5.91326e-08
-2.75985e-08
-5.86338e-08
-3.46635e-08
-5.69806e-08
-4.01329e-08
-5.39378e-08
-4.39764e-08
-4.94911e-08
-4.61081e-08
-4.3847e-08
-4.65249e-08
-3.73735e-08
-4.53721e-08
-3.05039e-08
-4.29368e-08
-2.36462e-08
-3.95868e-08
-1.71243e-08
-3.5692e-08
-1.11637e-08
-3.15317e-08
-5.94446e-09
-2.70699e-08
-1.8375e-09
-2.10822e-08
-9.3829e-09
-2.27204e-09
1.16361e-08
-7.32897e-09
2.60973e-08
-1.36985e-08
3.3389e-08
-2.08456e-08
3.86225e-08
-2.84384e-08
4.3226e-08
-3.60733e-08
4.71657e-08
-4.32471e-08
5.00633e-08
-4.94249e-08
5.15177e-08
-5.41548e-08
5.12431e-08
-5.71869e-08
4.91513e-08
-5.85401e-08
4.53623e-08
-5.84906e-08
4.01333e-08
-5.7496e-08
3.37303e-08
-5.60999e-08
2.62703e-08
-5.48609e-08
1.75315e-08
-5.43284e-08
6.64072e-09
-5.48676e-08
-6.55607e-09
-5.61157e-08
-1.74502e-08
-5.75257e-08
-2.61886e-08
-5.85402e-08
-3.3649e-08
-5.86153e-08
-4.00578e-08
-5.72906e-08
-4.53011e-08
-5.42849e-08
-4.91138e-08
-4.95733e-08
-5.12365e-08
-4.34012e-08
-5.15442e-08
-3.62191e-08
-5.0119e-08
-2.85637e-08
-4.72421e-08
-2.09428e-08
-4.33129e-08
-1.37645e-08
-3.871e-08
-7.36504e-09
-3.34693e-08
-2.28305e-09
-2.61641e-08
-1.16659e-08
-2.88853e-09
1.45246e-08
-9.27745e-09
3.24862e-08
-1.72105e-08
4.1322e-08
-2.5868e-08
4.728e-08
-3.46554e-08
5.20134e-08
-4.29107e-08
5.5421e-08
-4.9944e-08
5.70966e-08
-5.51839e-08
5.67575e-08
-5.83281e-08
5.43873e-08
-5.94185e-08
5.02417e-08
-5.88045e-08
4.47482e-08
-5.70278e-08
3.83566e-08
-5.46925e-08
3.13951e-08
-5.23754e-08
2.39532e-08
-5.0601e-08
1.57571e-08
-4.98854e-08
5.92517e-09
-5.06049e-08
-5.83655e-09
-5.23856e-08
-1.56696e-08
-5.4714e-08
-2.38602e-08
-5.70682e-08
-3.12948e-08
-5.88732e-08
-3.82528e-08
-5.95243e-08
-4.465e-08
-5.84751e-08
-5.0163e-08
-5.53682e-08
-5.43434e-08
-5.01522e-08
-5.67602e-08
-4.31221e-08
-5.71491e-08
-3.48476e-08
-5.55166e-08
-2.60228e-08
-5.21376e-08
-1.73179e-08
-4.74149e-08
-9.33647e-09
-4.14507e-08
-2.90632e-09
-3.25943e-08
-1.45723e-08
-3.78396e-09
1.83086e-08
-1.20694e-08
4.07716e-08
-2.21194e-08
5.1372e-08
-3.26117e-08
5.77723e-08
-4.25355e-08
6.19372e-08
-5.09342e-08
6.38197e-08
-5.70485e-08
6.32109e-08
-6.05065e-08
6.02155e-08
-6.14018e-08
5.52826e-08
-6.02118e-08
4.90517e-08
-5.76197e-08
4.21561e-08
-5.43332e-08
3.50701e-08
-5.09709e-08
2.80328e-08
-4.8032e-08
2.10143e-08
-4.59364e-08
1.36616e-08
-4.51202e-08
5.1089e-09
-4.59379e-08
-5.01878e-09
-4.80366e-08
-1.35709e-08
-5.09832e-08
-2.09136e-08
-5.43612e-08
-2.79169e-08
-5.76751e-08
-3.49389e-08
-6.03089e-08
-4.20162e-08
-6.15539e-08
-4.8918e-08
-6.07198e-08
-5.51775e-08
-5.73156e-08
-6.01644e-08
-5.12314e-08
-6.32333e-08
-4.28271e-08
-6.39208e-08
-3.28606e-08
-6.21041e-08
-2.22985e-08
-5.79771e-08
-1.2169e-08
-5.15802e-08
-3.81352e-09
-4.09497e-08
-1.83858e-08
-5.15437e-09
2.34629e-08
-1.6238e-08
5.18553e-08
-2.91541e-08
6.42881e-08
-4.17006e-08
7.03189e-08
-5.23166e-08
7.25532e-08
-5.98984e-08
7.14014e-08
-6.39709e-08
6.72834e-08
-6.4738e-08
6.09826e-08
-6.29045e-08
5.34491e-08
-5.93905e-08
4.55378e-08
-5.50765e-08
3.7842e-08
-5.06627e-08
3.06564e-08
-4.66488e-08
2.40189e-08
-4.3385e-08
1.77505e-08
-4.11587e-08
1.14353e-08
-4.03107e-08
4.2609e-09
-4.11583e-08
-4.17122e-09
-4.3385e-08
-1.13442e-08
-4.66524e-08
-1.76461e-08
-5.06771e-08
-2.38923e-08
-5.51135e-08
-3.05024e-08
-5.94682e-08
-3.76615e-08
-6.30451e-08
-4.5341e-08
-6.4963e-08
-5.32597e-08
-6.42897e-08
-6.08376e-08
-6.02963e-08
-6.72267e-08
-5.2749e-08
-7.14681e-08
-4.21021e-08
-7.27511e-08
-2.94609e-08
-7.06183e-08
-1.64137e-08
-6.46274e-08
-5.20592e-09
-5.21575e-08
-2.35917e-08
-7.40943e-09
3.08724e-08
-2.27687e-08
6.72146e-08
-3.94418e-08
8.09612e-08
-5.38211e-08
8.46982e-08
-6.39414e-08
8.26734e-08
-6.91316e-08
7.65917e-08
-6.98359e-08
6.79877e-08
-6.71867e-08
5.83335e-08
-6.25113e-08
4.87737e-08
-5.69696e-08
3.99961e-08
-5.13955e-08
3.22679e-08
-4.6307e-08
2.55679e-08
-4.2003e-08
1.97149e-08
-3.86648e-08
1.44124e-08
-3.64548e-08
9.22526e-09
-3.56258e-08
3.43193e-09
-3.6453e-08
-3.34411e-09
-3.86611e-08
-9.13598e-09
-4.19993e-08
-1.4308e-08
-4.63084e-08
-1.95831e-08
-5.14122e-08
-2.53986e-08
-5.70196e-08
-3.20541e-08
-6.26227e-08
-3.9738e-08
-6.73965e-08
-4.84859e-08
-7.01804e-08
-5.80537e-08
-6.96261e-08
-6.77811e-08
-6.45541e-08
-7.65401e-08
-5.44609e-08
-8.28443e-08
-3.998e-08
-8.50992e-08
-2.30975e-08
-8.15099e-08
-7.50814e-09
-6.77469e-08
-3.10998e-08
-1.14711e-08
4.23434e-08
-3.3468e-08
8.92115e-08
-5.451e-08
1.02003e-07
-6.9333e-08
9.95213e-08
-7.66034e-08
8.99438e-08
-7.73064e-08
7.72947e-08
-7.34595e-08
6.41407e-08
-6.71417e-08
5.20157e-08
-5.99688e-08
4.16008e-08
-5.29689e-08
3.29962e-08
-4.66853e-08
2.59843e-08
-4.13522e-08
2.02347e-08
-3.70541e-08
1.54168e-08
-3.38257e-08
1.1184e-08
-3.17318e-08
7.13131e-09
-3.09547e-08
2.65487e-09
-3.17288e-08
-2.56998e-09
-3.38191e-08
-7.04575e-09
-3.70442e-08
-1.10829e-08
-4.13418e-08
-1.52855e-08
-4.66813e-08
-2.00591e-08
-5.2986e-08
-2.57495e-08
-6.00345e-08
-3.26894e-08
-6.73021e-08
-4.12183e-08
-7.37789e-08
-5.15769e-08
-7.78514e-08
-6.37085e-08
-7.73999e-08
-7.69917e-08
-7.03051e-08
-8.9939e-08
-5.54526e-08
-9.99517e-08
-3.41194e-08
-1.02843e-07
-1.16908e-08
-9.01754e-08
-4.27906e-08
-1.93328e-08
6.16762e-08
-5.11066e-08
1.20985e-07
-7.53367e-08
1.26233e-07
-8.67611e-08
1.10946e-07
-8.74676e-08
9.06502e-08
-8.15351e-08
7.13622e-08
-7.25772e-08
5.51828e-08
-6.29921e-08
4.24307e-08
-5.40484e-08
3.26572e-08
-4.62773e-08
2.52251e-08
-3.98011e-08
1.95081e-08
-3.45649e-08
1.49986e-08
-3.048e-08
1.13318e-08
-2.74769e-08
8.18089e-09
-2.55558e-08
5.21025e-09
-2.48479e-08
1.94688e-09
-2.55514e-08
-1.8664e-09
-2.74666e-08
-5.13062e-09
-3.04627e-08
-8.08673e-09
-3.45411e-08
-1.12071e-08
-3.97732e-08
-1.48269e-08
-4.62535e-08
-1.92692e-08
-5.40486e-08
-2.48943e-08
-6.30582e-08
-3.22087e-08
-7.27862e-08
-4.18489e-08
-8.20049e-08
-5.44898e-08
-8.83283e-08
-7.06684e-08
-8.80558e-08
-9.02115e-08
-7.68663e-08
-1.11141e-07
-5.23875e-08
-1.27322e-07
-1.9884e-08
-1.22679e-07
-6.26746e-08
-3.42886e-08
9.59648e-08
-7.68452e-08
1.63542e-07
-9.71347e-08
1.46523e-07
-9.73589e-08
1.1117e-07
-8.69813e-08
8.02727e-08
-7.31085e-08
5.74894e-08
-5.95008e-08
4.1575e-08
-4.76308e-08
3.05607e-08
-3.78071e-08
2.28334e-08
-2.98963e-08
1.73142e-08
-2.36193e-08
1.32311e-08
-1.87016e-08
1.00809e-08
-1.49453e-08
7.57554e-09
-1.22211e-08
5.45674e-09
-1.04927e-08
3.48178e-09
-9.8572e-09
1.31139e-09
-1.04848e-08
-1.23879e-09
-1.22032e-08
-3.41223e-09
-1.49146e-08
-5.37534e-09
-1.86553e-08
-7.46645e-09
-2.35542e-08
-9.92803e-09
-2.98107e-08
-1.30127e-08
-3.77053e-08
-1.69996e-08
-4.75331e-08
-2.23809e-08
-5.94631e-08
-2.99189e-08
-7.32534e-08
-4.06995e-08
-8.75231e-08
-5.63987e-08
-9.85568e-08
-7.91777e-08
-9.90519e-08
-1.10646e-07
-7.89567e-08
-1.47417e-07
-3.5538e-08
-1.66098e-07
-9.82126e-08
-5.67791e-08
1.52744e-07
-9.52697e-08
2.02033e-07
-9.10704e-08
1.42323e-07
-6.89157e-08
8.90151e-08
-4.45196e-08
5.58766e-08
-2.35196e-08
3.64894e-08
-6.90012e-09
2.49556e-08
5.89651e-09
1.77641e-08
1.56916e-08
1.30384e-08
2.32568e-08
9.74906e-09
2.91122e-08
7.37569e-09
3.35883e-08
5.60476e-09
3.69616e-08
4.20225e-09
3.93903e-08
3.02802e-09
4.09288e-08
1.94334e-09
4.14975e-08
7.42668e-10
4.09439e-08
-6.85204e-10
3.94231e-08
-1.89141e-09
3.70168e-08
-2.96901e-09
3.36731e-08
-4.12275e-09
2.92374e-08
-5.49233e-09
2.34374e-08
-7.21269e-09
1.59464e-08
-9.50865e-09
6.24448e-09
-1.26789e-08
-6.45258e-09
-1.72219e-08
-2.30123e-08
-2.41398e-08
-4.41059e-08
-3.5305e-08
-6.89389e-08
-5.43448e-08
-9.19952e-08
-8.75899e-08
-9.70909e-08
-1.42321e-07
-5.8398e-08
-2.04791e-07
-1.56611e-07
-5.53491e-08
2.08093e-07
-2.29819e-08
1.69665e-07
3.65369e-08
8.28046e-08
8.46727e-08
4.08794e-08
1.18557e-07
2.19919e-08
1.41856e-07
1.31904e-08
1.58154e-07
8.65823e-09
1.6987e-07
6.04748e-09
1.78513e-07
4.39518e-09
1.84995e-07
3.26716e-09
1.89909e-07
2.46163e-09
1.93649e-07
1.86534e-09
1.96454e-07
1.39757e-09
1.98471e-07
1.01008e-09
1.99759e-07
6.56181e-10
2.00243e-07
2.5821e-10
1.99785e-07
-2.26849e-10
1.98524e-07
-6.30881e-10
1.96539e-07
-9.83361e-10
1.93777e-07
-1.36162e-09
1.901e-07
-1.81447e-09
1.85274e-07
-2.38751e-09
1.78922e-07
-3.15643e-09
1.70469e-07
-4.22534e-09
1.59025e-07
-5.77865e-09
1.43102e-07
-8.21694e-09
1.20246e-07
-1.24487e-08
8.67058e-08
-2.08045e-08
3.84844e-08
-3.93685e-08
-2.15228e-08
-8.23141e-08
-5.47985e-08
-1.71515e-07
-2.11409e-07
2.08093e-07
3.77758e-07
4.60563e-07
5.01442e-07
5.23434e-07
5.36625e-07
5.45283e-07
5.5133e-07
5.55726e-07
5.58993e-07
5.61454e-07
5.6332e-07
5.64717e-07
5.65727e-07
5.66384e-07
5.66642e-07
5.66415e-07
5.65784e-07
5.64801e-07
5.63439e-07
5.61625e-07
5.59237e-07
5.56081e-07
5.51855e-07
5.46077e-07
5.3786e-07
5.25411e-07
5.04607e-07
4.65238e-07
3.82924e-07
2.11409e-07
)
;

boundaryField
{
    movingWall
    {
        type            calculated;
        value           uniform 0;
    }
    fixedWalls
    {
        type            calculated;
        value           uniform 0;
    }
    frontAndBack
    {
        type            empty;
        value           nonuniform List<scalar> 0();
    }
}


// ************************************************************************* //
