/*--------------------------------*- C++ -*----------------------------------*\
| =========                 |                                                 |
| \\      /  F ield         | OpenFOAM: The Open Source CFD Toolbox           |
|  \\    /   O peration     | Version:  2206                                  |
|   \\  /    A nd           | Website:  www.openfoam.com                      |
|    \\/     M anipulation  |                                                 |
\*---------------------------------------------------------------------------*/
FoamFile
{
    version     2.0;
    format      ascii;
    arch        "LSB;label=64;scalar=64";
    class       volScalarField;
    location    "1";
    object      Sch4;
}
// * * * * * * * * * * * * * * * * * * * * * * * * * * * * * * * * * * * * * //

dimensions      [0 0 0 0 0 0 0];

internalField   nonuniform List<scalar> 
1024
(
1.40734e-33
1.58604e-32
8.77703e-31
3.24707e-29
7.41944e-28
1.07872e-26
1.04335e-25
7.04414e-25
3.47577e-24
1.30571e-23
3.86723e-23
9.30156e-23
1.86401e-22
3.18326e-22
4.70624e-22
5.96923e-22
6.13493e-22
5.23334e-22
4.03209e-22
2.8809e-22
1.92609e-22
1.2119e-22
7.22116e-23
4.10335e-23
2.23974e-23
1.18235e-23
6.07303e-24
3.05088e-24
1.50653e-24
7.41744e-25
4.03313e-25
3.77568e-25
6.6537e-32
9.60383e-31
3.23604e-29
7.12969e-28
1.01824e-26
9.83566e-26
6.73411e-25
3.41711e-24
1.33696e-23
4.17105e-23
1.06692e-22
2.2899e-22
4.20642e-22
6.72961e-22
9.48749e-22
1.16751e-21
1.19063e-21
1.02549e-21
8.03267e-22
5.85558e-22
4.00234e-22
2.57762e-22
1.57306e-22
9.15774e-23
5.12125e-23
2.7695e-23
1.45697e-23
7.49498e-24
3.79225e-24
1.92368e-24
1.09326e-24
1.02132e-24
5.00153e-30
5.67383e-29
1.16757e-27
1.6328e-26
1.55986e-25
1.06459e-24
5.42574e-24
2.14883e-23
6.84328e-23
1.80312e-22
4.0233e-22
7.74767e-22
1.30828e-21
1.96378e-21
2.64299e-21
3.15916e-21
3.20065e-21
2.78776e-21
2.22434e-21
1.65808e-21
1.16158e-21
7.67816e-22
4.81307e-22
2.87908e-22
1.65449e-22
9.19311e-23
4.96806e-23
2.62509e-23
1.366e-23
7.17606e-24
4.27697e-24
3.98582e-24
2.60344e-28
2.05676e-27
2.68349e-26
2.5294e-25
1.72322e-24
8.84131e-24
3.55152e-23
1.15534e-22
3.13176e-22
7.24223e-22
1.4562e-21
2.58489e-21
4.10147e-21
5.87799e-21
7.65471e-21
8.96927e-21
9.05442e-21
7.96109e-21
6.44907e-21
4.89701e-21
3.50225e-21
2.36669e-21
1.51802e-21
9.29605e-22
5.47011e-22
3.11247e-22
1.72239e-22
9.32168e-23
4.97746e-23
2.70175e-23
1.67716e-23
1.55964e-23
8.90212e-27
4.90276e-26
4.27314e-25
2.87833e-24
1.47842e-23
5.993e-23
1.98117e-22
5.49383e-22
1.30848e-21
2.72897e-21
5.06089e-21
8.44442e-21
1.2794e-20
1.77312e-20
2.25615e-20
2.60827e-20
2.6283e-20
2.32875e-20
1.90977e-20
1.47241e-20
1.07145e-20
7.37787e-21
4.82683e-21
3.01684e-21
1.81252e-21
1.05323e-21
5.95332e-22
3.29303e-22
1.8014e-22
1.00838e-22
6.48544e-23
6.01961e-23
2.09568e-25
8.35872e-25
5.14387e-24
2.6141e-23
1.06332e-22
3.55415e-22
1.00292e-21
2.44576e-21
5.25631e-21
1.01142e-20
1.7635e-20
2.81001e-20
4.11662e-20
5.5704e-20
6.97421e-20
7.98997e-20
8.04468e-20
7.17129e-20
5.9391e-20
4.63635e-20
3.42278e-20
2.39459e-20
1.59332e-20
1.01353e-20
6.20036e-21
3.66992e-21
2.11382e-21
1.19256e-21
6.67196e-22
3.843e-22
2.54842e-22
2.36144e-22
3.65694e-24
1.10964e-23
5.08356e-23
2.04441e-22
6.87024e-22
1.96387e-21
4.88049e-21
1.07507e-20
2.1333e-20
3.86168e-20
6.43308e-20
9.91474e-20
1.41812e-19
1.88679e-19
2.33574e-19
2.65943e-19
2.67668e-19
2.39738e-19
2.00106e-19
1.57804e-19
1.17896e-19
8.35837e-20
5.64138e-20
3.64259e-20
2.26309e-20
1.36093e-20
7.96862e-21
4.57556e-21
2.61293e-21
1.54442e-21
1.05111e-21
9.72578e-22
5.12557e-23
1.24301e-22
4.44848e-22
1.47465e-21
4.24331e-21
1.06992e-20
2.40486e-20
4.89583e-20
9.14587e-20
1.58268e-19
2.55128e-19
3.83989e-19
5.39925e-19
7.09681e-19
8.71381e-19
9.87749e-19
9.9398e-19
8.93573e-19
7.5062e-19
5.96937e-19
4.50459e-19
3.22955e-19
2.20619e-19
1.44266e-19
9.08128e-20
5.53557e-20
3.28752e-20
1.91719e-20
1.11514e-20
6.7436e-21
4.69038e-21
4.33455e-21
6.23831e-22
1.26405e-21
3.6877e-21
1.04285e-20
2.6477e-20
6.0441e-20
1.25659e-19
2.40966e-19
4.30486e-19
7.21067e-19
1.13536e-18
1.67993e-18
2.33268e-18
3.03794e-18
3.70659e-18
4.1872e-18
4.21305e-18
3.79895e-18
3.20851e-18
2.57015e-18
1.95635e-18
1.41626e-18
9.77589e-19
6.46229e-19
4.11364e-19
2.53665e-19
1.52498e-19
9.01444e-20
5.32899e-20
3.28712e-20
2.32771e-20
2.14886e-20
7.08128e-21
1.24498e-20
3.0723e-20
7.62829e-20
1.75194e-19
3.69975e-19
7.24655e-19
1.32894e-18
2.29794e-18
3.75973e-18
5.82024e-18
8.50369e-18
1.16934e-17
1.51151e-17
1.83448e-17
2.0664e-17
2.07884e-17
1.87937e-17
1.59496e-17
1.28602e-17
9.86582e-18
7.20461e-18
5.0192e-18
3.34965e-18
2.15305e-18
1.34096e-18
8.14686e-19
4.87275e-19
2.92155e-19
1.8329e-19
1.31717e-19
1.21492e-19
7.98472e-20
1.25625e-19
2.70657e-19
6.04447e-19
1.28167e-18
2.54799e-18
4.77024e-18
8.46334e-18
1.42903e-17
2.29851e-17
3.51372e-17
5.08359e-17
6.93441e-17
8.90521e-17
1.07571e-16
1.20857e-16
1.21561e-16
1.10151e-16
9.39059e-17
7.61847e-17
5.88778e-17
4.33472e-17
3.04568e-17
2.05022e-17
1.32926e-17
8.35154e-18
5.12055e-18
3.09409e-18
1.87784e-18
1.19506e-18
8.69148e-19
8.01145e-19
9.44378e-19
1.36288e-18
2.6327e-18
5.39554e-18
1.07381e-17
2.03727e-17
3.68595e-17
6.38082e-17
1.05872e-16
1.68157e-16
2.54599e-16
3.65404e-16
4.94926e-16
6.31758e-16
7.59733e-16
8.51469e-16
8.56217e-16
7.77517e-16
6.65756e-16
5.43379e-16
4.22963e-16
3.13856e-16
2.22326e-16
1.50877e-16
9.85997e-17
6.24361e-17
3.85908e-17
2.35258e-17
1.44274e-17
9.29158e-18
6.8235e-18
6.28695e-18
1.22728e-17
1.65644e-17
2.93245e-17
5.60626e-17
1.06083e-16
1.94072e-16
3.42091e-16
5.81366e-16
9.52002e-16
1.49677e-15
2.24458e-15
3.186e-15
4.25767e-15
5.35287e-15
6.33963e-15
7.01632e-15
7.03187e-15
6.42482e-15
5.55874e-15
4.59278e-15
3.62143e-15
2.72197e-15
1.95186e-15
1.33958e-15
8.84418e-16
5.65291e-16
3.5251e-16
2.16848e-16
1.34307e-16
8.74324e-17
6.47641e-17
5.96886e-17
1.82289e-16
2.33553e-16
3.85592e-16
6.96645e-16
1.26566e-15
2.2497e-15
3.88558e-15
6.50673e-15
1.05255e-14
1.63252e-14
2.40305e-14
3.32681e-14
4.31649e-14
5.26462e-14
6.0679e-14
6.58959e-14
6.58465e-14
6.08403e-14
5.35543e-14
4.51406e-14
3.6349e-14
2.7895e-14
2.03994e-14
1.42524e-14
9.55948e-15
6.19549e-15
3.91168e-15
2.43448e-15
1.52558e-15
1.00501e-15
7.51648e-16
6.94031e-16
3.19884e-15
3.93413e-15
6.13885e-15
1.05849e-14
1.85953e-14
3.22761e-14
5.47665e-14
9.02603e-14
1.43211e-13
2.16163e-13
3.0693e-13
4.07633e-13
5.07378e-13
5.96546e-13
6.6823e-13
7.13368e-13
7.12357e-13
6.67049e-13
5.99085e-13
5.17245e-13
4.27592e-13
3.37125e-13
2.53119e-13
1.81249e-13
1.24299e-13
8.21601e-14
5.279e-14
3.3386e-14
2.12482e-14
1.4213e-14
1.07652e-14
9.98164e-15
6.81847e-14
8.11487e-14
1.20853e-13
2.00253e-13
3.41621e-13
5.79725e-13
9.63052e-13
1.54667e-12
2.36959e-12
3.42148e-12
4.62385e-12
5.85163e-12
6.98463e-12
7.94632e-12
8.69705e-12
9.16805e-12
9.1624e-12
8.6881e-12
7.95445e-12
7.03544e-12
5.97965e-12
4.8578e-12
3.76029e-12
2.77346e-12
1.95524e-12
1.32526e-12
8.71124e-13
5.62667e-13
3.65485e-13
2.49427e-13
1.92129e-13
1.79361e-13
1.68757e-12
1.95467e-12
2.79676e-12
4.4697e-12
7.40262e-12
1.22155e-11
1.96412e-11
3.02659e-11
4.4119e-11
6.0375e-11
7.74941e-11
9.38058e-11
1.08114e-10
1.19895e-10
1.28991e-10
1.34759e-10
1.34813e-10
1.29159e-10
1.20213e-10
1.08662e-10
9.48294e-11
7.9389e-11
6.34584e-11
4.83493e-11
3.51728e-11
2.45543e-11
1.65903e-11
1.09992e-11
7.3305e-12
5.13142e-12
4.03777e-12
3.80463e-12
3.8407e-11
4.34654e-11
5.9952e-11
9.23267e-11
1.47507e-10
2.34032e-10
3.59387e-10
5.25625e-10
7.25551e-10
9.42835e-10
1.15722e-09
1.35173e-09
1.51703e-09
1.65095e-09
1.75406e-09
1.82025e-09
1.82213e-09
1.75937e-09
1.65903e-09
1.52703e-09
1.36397e-09
1.17412e-09
9.68319e-10
7.62554e-10
5.73494e-10
4.13534e-10
2.88253e-10
1.9701e-10
1.35367e-10
9.76589e-11
7.87825e-11
7.50598e-11
6.73776e-10
7.46654e-10
9.92364e-10
1.46421e-09
2.23457e-09
3.37353e-09
4.91326e-09
6.81222e-09
8.94371e-09
1.11255e-08
1.31785e-08
1.49796e-08
1.64786e-08
1.76802e-08
1.86036e-08
1.92012e-08
1.92251e-08
1.86723e-08
1.7787e-08
1.6612e-08
1.51296e-08
1.33461e-08
1.13282e-08
9.20973e-09
7.1617e-09
5.34156e-09
3.85065e-09
2.72195e-09
1.93526e-09
1.44352e-09
1.19601e-09
1.15282e-09
9.20102e-09
9.99133e-09
1.27573e-08
1.7911e-08
2.592e-08
3.70771e-08
5.12385e-08
6.76671e-08
8.51154e-08
1.02161e-07
1.17625e-07
1.30843e-07
1.41661e-07
1.50251e-07
1.56834e-07
1.61116e-07
1.61309e-07
1.574e-07
1.51161e-07
1.42853e-07
1.3223e-07
1.19132e-07
1.03779e-07
8.69393e-08
6.98589e-08
5.39267e-08
4.02698e-08
2.95082e-08
2.17578e-08
1.68006e-08
1.42933e-08
1.3929e-08
9.77784e-08
1.04114e-07
1.27544e-07
1.69976e-07
2.3301e-07
3.16402e-07
4.16806e-07
5.27545e-07
6.39895e-07
7.45446e-07
8.38288e-07
9.1588e-07
9.78454e-07
1.02771e-06
1.06534e-06
1.0899e-06
1.09103e-06
1.0687e-06
1.03327e-06
9.86063e-07
9.25208e-07
8.48829e-07
7.56719e-07
6.51783e-07
5.40511e-07
4.31742e-07
3.34169e-07
2.54058e-07
1.94347e-07
1.55202e-07
1.3529e-07
1.33058e-07
8.08805e-07
8.46128e-07
9.97518e-07
1.26638e-06
1.65148e-06
2.13969e-06
2.7019e-06
3.29553e-06
3.87399e-06
4.3988e-06
4.84782e-06
5.21567e-06
5.50845e-06
5.7371e-06
5.91123e-06
6.02522e-06
6.03025e-06
5.9264e-06
5.76276e-06
5.54491e-06
5.26261e-06
4.90381e-06
4.46146e-06
3.94107e-06
3.36661e-06
2.7794e-06
2.22834e-06
1.75654e-06
1.39206e-06
1.14666e-06
1.0208e-06
1.01093e-06
5.25709e-06
5.41869e-06
6.18374e-06
7.5294e-06
9.40221e-06
1.16921e-05
1.42269e-05
1.67986e-05
1.9212e-05
2.13319e-05
2.31006e-05
2.45243e-05
2.56444e-05
2.65132e-05
2.71731e-05
2.76062e-05
2.76239e-05
2.72269e-05
2.66058e-05
2.578e-05
2.47062e-05
2.33293e-05
2.16032e-05
1.95181e-05
1.71329e-05
1.45903e-05
1.20964e-05
9.86875e-06
8.08248e-06
6.84452e-06
6.2021e-06
6.17203e-06
2.7354e-05
2.78526e-05
3.09507e-05
3.64016e-05
4.38144e-05
5.2586e-05
6.19361e-05
7.10588e-05
7.93146e-05
8.63499e-05
9.20887e-05
9.66381e-05
0.000100183
0.000102917
0.000104989
0.000106352
0.000106403
0.000105143
0.000103185
0.000100584
9.71947e-05
9.28206e-05
8.72677e-05
8.04164e-05
7.23342e-05
6.33801e-05
5.42145e-05
4.56707e-05
3.85492e-05
3.34579e-05
3.07761e-05
3.07328e-05
0.000116428
0.000117373
0.000127656
0.000145924
0.00017026
0.000198117
0.000226673
0.000253453
0.000276848
0.000296238
0.00031175
0.000323893
0.000333283
0.000340488
0.000345942
0.00034954
0.000349657
0.000346303
0.000341122
0.000334247
0.000325266
0.000313622
0.0002987
0.000279979
0.000257319
0.000231333
0.000203631
0.000176683
0.000153302
0.000136028
0.000126787
0.000126978
0.000413967
0.000414099
0.000442724
0.000494312
0.000561458
0.000635513
0.000708299
0.00077388
0.000829305
0.000874141
0.000909437
0.000936793
0.000957817
0.000973891
0.000986045
0.000994085
0.000994317
0.000986755
0.000975138
0.000959733
0.000939571
0.000913329
0.000879459
0.000836415
0.000783207
0.00072032
0.000650687
0.00058005
0.0005162
0.000467403
0.000440978
0.000442933
0.00125377
0.00124714
0.0013152
0.00143928
0.00159592
0.00176136
0.00191687
0.00205164
0.00216222
0.00224989
0.00231805
0.00237048
0.00241058
0.00244116
0.00246426
0.00247959
0.00247998
0.00246545
0.00244323
0.00241377
0.00237516
0.00232474
0.00225929
0.00217529
0.00206969
0.00194162
0.00179485
0.00163983
0.00149385
0.00137847
0.00131564
0.00132534
0.00328988
0.0032604
0.00339989
0.00365444
0.00396277
0.00427274
0.0045512
0.00478409
0.0049705
0.005116
0.00522806
0.00531378
0.00537913
0.00542884
0.00546639
0.00549138
0.00549195
0.00546809
0.00543177
0.00538363
0.00532042
0.00523765
0.00512974
0.00499016
0.00481234
0.00459204
0.00433173
0.00404617
0.00376627
0.00353774
0.00341379
0.00344795
0.00758009
0.00749828
0.00774444
0.00818488
0.00869029
0.00917197
0.00958649
0.00992281
0.0101869
0.0103906
0.0105465
0.0106653
0.0107556
0.0108242
0.010876
0.0109106
0.0109113
0.0108782
0.0108278
0.0107611
0.0106733
0.0105581
0.0104074
0.0102112
0.00995872
0.00964041
0.00925425
0.00881545
0.00836813
0.00799118
0.00779053
0.00788324
0.0154801
0.0153163
0.0156812
0.0163011
0.0169675
0.0175698
0.0180692
0.0184649
0.0187713
0.0190059
0.0191845
0.0193202
0.0194233
0.0195014
0.0195604
0.0196
0.0196009
0.0195628
0.0195052
0.0194289
0.0193284
0.0191962
0.0190228
0.018796
0.0185017
0.0181256
0.0176589
0.0171111
0.0165298
0.0160226
0.0157618
0.0159588
0.0281446
0.0279151
0.0283263
0.0289689
0.0296139
0.0301703
0.0306186
0.030968
0.031236
0.0314402
0.0315951
0.0317126
0.0318017
0.0318692
0.0319203
0.0319546
0.0319555
0.0319226
0.0318727
0.0318066
0.0317194
0.0316047
0.0314538
0.0312557
0.0309972
0.0306632
0.030241
0.0297305
0.0291649
0.0286465
0.0283846
0.0286902
0.0453758
0.0451902
0.0454232
0.0457569
0.0460706
0.046331
0.0465363
0.0466946
0.0468152
0.0469068
0.0469762
0.0470287
0.0470685
0.0470987
0.0471215
0.0471369
0.0471375
0.0471228
0.0471005
0.047071
0.047032
0.0469807
0.046913
0.0468239
0.0467072
0.0465551
0.0463602
0.0461179
0.0458362
0.0455553
0.0453933
0.0456234
)
;

boundaryField
{
    movingWall
    {
        type            fixedValue;
        value           uniform 0.0555;
    }
    fixedWalls
    {
        type            zeroGradient;
    }
    frontAndBack
    {
        type            empty;
    }
}


// ************************************************************************* //
