/*--------------------------------*- C++ -*----------------------------------*\
| =========                 |                                                 |
| \\      /  F ield         | OpenFOAM: The Open Source CFD Toolbox           |
|  \\    /   O peration     | Version:  2206                                  |
|   \\  /    A nd           | Website:  www.openfoam.com                      |
|    \\/     M anipulation  |                                                 |
\*---------------------------------------------------------------------------*/
FoamFile
{
    version     2.0;
    format      ascii;
    arch        "LSB;label=64;scalar=64";
    class       volVectorField;
    location    "1";
    object      U;
}
// * * * * * * * * * * * * * * * * * * * * * * * * * * * * * * * * * * * * * //

dimensions      [0 1 -1 0 0 0 0];

internalField   nonuniform List<vector> 
1024
(
(-6.49067e-08 6.4869e-08 0)
(-3.16053e-07 1.28405e-07 0)
(-7.31272e-07 1.46375e-07 0)
(-1.23822e-06 1.49754e-07 0)
(-1.82468e-06 1.50864e-07 0)
(-2.497e-06 1.50932e-07 0)
(-3.26391e-06 1.49933e-07 0)
(-4.1325e-06 1.4759e-07 0)
(-5.10652e-06 1.43548e-07 0)
(-6.18392e-06 1.37355e-07 0)
(-7.35303e-06 1.28451e-07 0)
(-8.58697e-06 1.16165e-07 0)
(-9.8359e-06 9.9743e-08 0)
(-1.1017e-05 7.84015e-08 0)
(-1.20021e-05 5.14615e-08 0)
(-1.26011e-05 1.82868e-08 0)
(-1.26015e-05 -1.82481e-08 0)
(-1.20032e-05 -5.14301e-08 0)
(-1.10185e-05 -7.83814e-08 0)
(-9.8377e-06 -9.9735e-08 0)
(-8.5888e-06 -1.16169e-07 0)
(-7.35477e-06 -1.28464e-07 0)
(-6.18549e-06 -1.37376e-07 0)
(-5.10788e-06 -1.43575e-07 0)
(-4.13365e-06 -1.4762e-07 0)
(-3.26485e-06 -1.49962e-07 0)
(-2.49774e-06 -1.50959e-07 0)
(-1.82526e-06 -1.50887e-07 0)
(-1.23866e-06 -1.49787e-07 0)
(-7.31577e-07 -1.46441e-07 0)
(-3.16207e-07 -1.28506e-07 0)
(-6.49681e-08 -6.49502e-08 0)
(-1.28525e-07 3.1595e-07 0)
(-6.3107e-07 6.30549e-07 0)
(-1.43752e-06 7.19428e-07 0)
(-2.42071e-06 7.39053e-07 0)
(-3.5668e-06 7.44223e-07 0)
(-4.88561e-06 7.43777e-07 0)
(-6.39277e-06 7.37961e-07 0)
(-8.10121e-06 7.25566e-07 0)
(-1.00177e-05 7.0488e-07 0)
(-1.21378e-05 6.73697e-07 0)
(-1.44382e-05 6.29261e-07 0)
(-1.68659e-05 5.68285e-07 0)
(-1.93227e-05 4.87073e-07 0)
(-2.16454e-05 3.81833e-07 0)
(-2.35823e-05 2.49325e-07 0)
(-2.47598e-05 8.80711e-08 0)
(-2.47605e-05 -8.78546e-08 0)
(-2.35842e-05 -2.4915e-07 0)
(-2.1648e-05 -3.81721e-07 0)
(-1.93256e-05 -4.87029e-07 0)
(-1.68689e-05 -5.68306e-07 0)
(-1.44411e-05 -6.29337e-07 0)
(-1.21404e-05 -6.73818e-07 0)
(-1.00199e-05 -7.05035e-07 0)
(-8.10309e-06 -7.25744e-07 0)
(-6.3943e-06 -7.38152e-07 0)
(-4.88682e-06 -7.4397e-07 0)
(-3.56774e-06 -7.4441e-07 0)
(-2.4214e-06 -7.3925e-07 0)
(-1.43798e-06 -7.19669e-07 0)
(-6.31318e-07 -6.30844e-07 0)
(-1.28629e-07 -3.16155e-07 0)
(-1.46944e-07 7.31978e-07 0)
(-7.22177e-07 1.43798e-06 0)
(-1.63238e-06 1.62791e-06 0)
(-2.73936e-06 1.67346e-06 0)
(-4.03105e-06 1.68621e-06 0)
(-5.51885e-06 1.68495e-06 0)
(-7.22016e-06 1.67088e-06 0)
(-9.14924e-06 1.64176e-06 0)
(-1.13134e-05 1.59397e-06 0)
(-1.37075e-05 1.52263e-06 0)
(-1.6305e-05 1.42158e-06 0)
(-1.90458e-05 1.28341e-06 0)
(-2.1819e-05 1.09978e-06 0)
(-2.44402e-05 8.62109e-07 0)
(-2.66251e-05 5.62987e-07 0)
(-2.79528e-05 1.98881e-07 0)
(-2.79535e-05 -1.98473e-07 0)
(-2.6627e-05 -5.62658e-07 0)
(-2.44428e-05 -8.61901e-07 0)
(-2.18219e-05 -1.0997e-06 0)
(-1.90487e-05 -1.28346e-06 0)
(-1.63078e-05 -1.42173e-06 0)
(-1.371e-05 -1.52286e-06 0)
(-1.13156e-05 -1.59427e-06 0)
(-9.15109e-06 -1.64211e-06 0)
(-7.22167e-06 -1.67125e-06 0)
(-5.52004e-06 -1.68532e-06 0)
(-4.03195e-06 -1.68658e-06 0)
(-2.74e-06 -1.67385e-06 0)
(-1.63279e-06 -1.62836e-06 0)
(-7.22396e-07 -1.4385e-06 0)
(-1.47033e-07 -7.32302e-07 0)
(-1.51365e-07 1.24234e-06 0)
(-7.46986e-07 2.42718e-06 0)
(-1.68969e-06 2.73828e-06 0)
(-2.83598e-06 2.81532e-06 0)
(-4.1733e-06 2.83808e-06 0)
(-5.7135e-06 2.83667e-06 0)
(-7.47495e-06 2.81315e-06 0)
(-9.47245e-06 2.764e-06 0)
(-1.17135e-05 2.68329e-06 0)
(-1.41926e-05 2.56293e-06 0)
(-1.68821e-05 2.3926e-06 0)
(-1.97198e-05 2.15988e-06 0)
(-2.25907e-05 1.85075e-06 0)
(-2.53039e-05 1.45077e-06 0)
(-2.75649e-05 9.47432e-07 0)
(-2.89384e-05 3.347e-07 0)
(-2.89391e-05 -3.34054e-07 0)
(-2.75667e-05 -9.46912e-07 0)
(-2.53065e-05 -1.45044e-06 0)
(-2.25936e-05 -1.85063e-06 0)
(-1.97228e-05 -2.15996e-06 0)
(-1.6885e-05 -2.39284e-06 0)
(-1.41951e-05 -2.5633e-06 0)
(-1.17157e-05 -2.68377e-06 0)
(-9.47432e-06 -2.76455e-06 0)
(-7.47647e-06 -2.81374e-06 0)
(-5.71468e-06 -2.83728e-06 0)
(-4.17417e-06 -2.8387e-06 0)
(-2.83658e-06 -2.81596e-06 0)
(-1.69006e-06 -2.73897e-06 0)
(-7.47174e-07 -2.42793e-06 0)
(-1.51431e-07 -1.24278e-06 0)
(-1.54366e-07 1.8384e-06 0)
(-7.61561e-07 3.59135e-06 0)
(-1.72373e-06 4.04644e-06 0)
(-2.89445e-06 4.16036e-06 0)
(-4.26038e-06 4.19508e-06 0)
(-5.83312e-06 4.19397e-06 0)
(-7.63162e-06 4.15981e-06 0)
(-9.67109e-06 4.08746e-06 0)
(-1.19592e-05 3.96823e-06 0)
(-1.44901e-05 3.79025e-06 0)
(-1.72356e-05 3.53834e-06 0)
(-2.01319e-05 3.19419e-06 0)
(-2.30616e-05 2.73709e-06 0)
(-2.58297e-05 2.14574e-06 0)
(-2.81357e-05 1.40158e-06 0)
(-2.9536e-05 4.95264e-07 0)
(-2.95367e-05 -4.94338e-07 0)
(-2.81375e-05 -1.40084e-06 0)
(-2.58323e-05 -2.14526e-06 0)
(-2.30646e-05 -2.73691e-06 0)
(-2.0135e-05 -3.19429e-06 0)
(-1.72385e-05 -3.53868e-06 0)
(-1.44927e-05 -3.79078e-06 0)
(-1.19614e-05 -3.9689e-06 0)
(-9.673e-06 -4.08824e-06 0)
(-7.63317e-06 -4.16066e-06 0)
(-5.83433e-06 -4.19484e-06 0)
(-4.26127e-06 -4.19598e-06 0)
(-2.89505e-06 -4.16129e-06 0)
(-1.72409e-06 -4.04741e-06 0)
(-7.61741e-07 -3.59235e-06 0)
(-1.54418e-07 -1.83898e-06 0)
(-1.57525e-07 2.53282e-06 0)
(-7.76461e-07 4.95268e-06 0)
(-1.75715e-06 5.57772e-06 0)
(-2.95126e-06 5.73472e-06 0)
(-4.3449e-06 5.78307e-06 0)
(-5.94927e-06 5.78209e-06 0)
(-7.78368e-06 5.73544e-06 0)
(-9.86366e-06 5.63593e-06 0)
(-1.21969e-05 5.47161e-06 0)
(-1.47776e-05 5.22617e-06 0)
(-1.75765e-05 4.87875e-06 0)
(-2.05285e-05 4.40417e-06 0)
(-2.35135e-05 3.77397e-06 0)
(-2.6333e-05 2.95883e-06 0)
(-2.86806e-05 1.93313e-06 0)
(-3.01055e-05 6.83295e-07 0)
(-3.01063e-05 -6.82037e-07 0)
(-2.86826e-05 -1.93211e-06 0)
(-2.63357e-05 -2.95818e-06 0)
(-2.35167e-05 -3.77373e-06 0)
(-2.05317e-05 -4.40431e-06 0)
(-1.75795e-05 -4.87921e-06 0)
(-1.47803e-05 -5.22689e-06 0)
(-1.21993e-05 -5.47252e-06 0)
(-9.86565e-06 -5.63698e-06 0)
(-7.78529e-06 -5.73659e-06 0)
(-5.95052e-06 -5.78329e-06 0)
(-4.34581e-06 -5.7843e-06 0)
(-2.95188e-06 -5.73599e-06 0)
(-1.75752e-06 -5.57902e-06 0)
(-7.76648e-07 -4.95398e-06 0)
(-1.5757e-07 -2.53355e-06 0)
(-1.61289e-07 3.34512e-06 0)
(-7.94273e-07 6.548e-06 0)
(-1.79641e-06 7.37333e-06 0)
(-3.0173e-06 7.58113e-06 0)
(-4.44263e-06 7.64533e-06 0)
(-6.08331e-06 7.64434e-06 0)
(-7.95898e-06 7.58289e-06 0)
(-1.00854e-05 7.45139e-06 0)
(-1.24704e-05 7.23406e-06 0)
(-1.51076e-05 6.90933e-06 0)
(-1.79672e-05 6.44971e-06 0)
(-2.0982e-05 5.82201e-06 0)
(-2.40293e-05 4.98875e-06 0)
(-2.69059e-05 3.9113e-06 0)
(-2.92996e-05 2.55583e-06 0)
(-3.07514e-05 9.03623e-07 0)
(-3.07522e-05 -9.01964e-07 0)
(-2.93016e-05 -2.55449e-06 0)
(-2.69088e-05 -3.91045e-06 0)
(-2.40326e-05 -4.98843e-06 0)
(-2.09854e-05 -5.82219e-06 0)
(-1.79704e-05 -6.45031e-06 0)
(-1.51106e-05 -6.91027e-06 0)
(-1.2473e-05 -7.23526e-06 0)
(-1.00875e-05 -7.45278e-06 0)
(-7.96069e-06 -7.58441e-06 0)
(-6.08464e-06 -7.64594e-06 0)
(-4.4436e-06 -7.64698e-06 0)
(-3.01796e-06 -7.5828e-06 0)
(-1.79681e-06 -7.37502e-06 0)
(-7.94475e-07 -6.54966e-06 0)
(-1.61332e-07 -3.34604e-06 0)
(-1.66025e-07 4.3004e-06 0)
(-8.16957e-07 8.42568e-06 0)
(-1.8464e-06 9.48742e-06 0)
(-3.10101e-06 9.75528e-06 0)
(-4.56601e-06 9.83816e-06 0)
(-6.25219e-06 9.83699e-06 0)
(-8.17955e-06 9.75788e-06 0)
(-1.03642e-05 9.58843e-06 0)
(-1.28138e-05 9.30831e-06 0)
(-1.55215e-05 8.8898e-06 0)
(-1.84563e-05 8.29759e-06 0)
(-2.15487e-05 7.48915e-06 0)
(-2.46724e-05 6.41651e-06 0)
(-2.7619e-05 5.03031e-06 0)
(-3.00685e-05 3.28719e-06 0)
(-3.15529e-05 1.16237e-06 0)
(-3.15538e-05 -1.16022e-06 0)
(-3.00707e-05 -3.28545e-06 0)
(-2.76221e-05 -5.0292e-06 0)
(-2.4676e-05 -6.41609e-06 0)
(-2.15524e-05 -7.48937e-06 0)
(-1.84598e-05 -8.29836e-06 0)
(-1.55247e-05 -8.89101e-06 0)
(-1.28165e-05 -9.30987e-06 0)
(-1.03665e-05 -9.59024e-06 0)
(-8.18141e-06 -9.75985e-06 0)
(-6.25363e-06 -9.83907e-06 0)
(-4.56707e-06 -9.8403e-06 0)
(-3.10173e-06 -9.75746e-06 0)
(-1.84684e-06 -9.4896e-06 0)
(-8.1718e-07 -8.42779e-06 0)
(-1.66069e-07 -4.30156e-06 0)
(-1.7224e-07 5.43203e-06 0)
(-8.47073e-07 1.06507e-05 0)
(-1.9131e-06 1.19929e-05 0)
(-3.21257e-06 1.23321e-05 0)
(-4.73012e-06 1.2437e-05 0)
(-6.47648e-06 1.24354e-05 0)
(-8.47222e-06 1.2335e-05 0)
(-1.07337e-05 1.212e-05 0)
(-1.32685e-05 1.17648e-05 0)
(-1.6069e-05 1.12342e-05 0)
(-1.91024e-05 1.04839e-05 0)
(-2.22963e-05 9.4604e-06 0)
(-2.55194e-05 8.10349e-06 0)
(-2.85564e-05 6.35144e-06 0)
(-3.10779e-05 4.15004e-06 0)
(-3.26042e-05 1.46751e-06 0)
(-3.26052e-05 -1.46473e-06 0)
(-3.10804e-05 -4.1478e-06 0)
(-2.85599e-05 -6.35001e-06 0)
(-2.55234e-05 -8.10293e-06 0)
(-2.23004e-05 -9.46067e-06 0)
(-1.91063e-05 -1.04849e-05 0)
(-1.60725e-05 -1.12358e-05 0)
(-1.32715e-05 -1.17668e-05 0)
(-1.07362e-05 -1.21223e-05 0)
(-8.47429e-06 -1.23375e-05 0)
(-6.47809e-06 -1.24381e-05 0)
(-4.73131e-06 -1.24398e-05 0)
(-3.21339e-06 -1.23349e-05 0)
(-1.9136e-06 -1.19957e-05 0)
(-8.47327e-07 -1.06534e-05 0)
(-1.72287e-07 -5.4335e-06 0)
(-1.80651e-07 6.78599e-06 0)
(-8.88186e-07 1.3313e-05 0)
(-2.00461e-06 1.49909e-05 0)
(-3.36567e-06 1.54153e-05 0)
(-4.95511e-06 1.55464e-05 0)
(-6.78377e-06 1.55438e-05 0)
(-8.87289e-06 1.54171e-05 0)
(-1.12392e-05 1.51467e-05 0)
(-1.389e-05 1.47003e-05 0)
(-1.68166e-05 1.40342e-05 0)
(-1.99837e-05 1.3093e-05 0)
(-2.33144e-05 1.18104e-05 0)
(-2.66709e-05 1.01122e-05 0)
(-2.98286e-05 7.92259e-06 0)
(-3.24459e-05 5.17496e-06 0)
(-3.40279e-05 1.82967e-06 0)
(-3.40289e-05 -1.82608e-06 0)
(-3.24487e-05 -5.17206e-06 0)
(-2.98326e-05 -7.92073e-06 0)
(-2.66755e-05 -1.01115e-05 0)
(-2.33192e-05 -1.18107e-05 0)
(-1.99882e-05 -1.30942e-05 0)
(-1.68207e-05 -1.40362e-05 0)
(-1.38935e-05 -1.47029e-05 0)
(-1.12421e-05 -1.51497e-05 0)
(-8.87529e-06 -1.54204e-05 0)
(-6.78564e-06 -1.55473e-05 0)
(-4.95649e-06 -1.555e-05 0)
(-3.36663e-06 -1.54189e-05 0)
(-2.00519e-06 -1.49945e-05 0)
(-8.88481e-07 -1.33165e-05 0)
(-1.80704e-07 -6.78786e-06 0)
(-1.9228e-07 8.42772e-06 0)
(-9.45374e-07 1.6541e-05 0)
(-2.13237e-06 1.86256e-05 0)
(-3.57954e-06 1.91531e-05 0)
(-5.26927e-06 1.93154e-05 0)
(-7.21264e-06 1.93107e-05 0)
(-9.43178e-06 1.9151e-05 0)
(-1.19438e-05 1.88115e-05 0)
(-1.47556e-05 1.82522e-05 0)
(-1.78566e-05 1.74187e-05 0)
(-2.12079e-05 1.62429e-05 0)
(-2.47263e-05 1.46432e-05 0)
(-2.82647e-05 1.25294e-05 0)
(-3.15859e-05 9.80955e-06 0)
(-3.43323e-05 6.40364e-06 0)
(-3.59891e-05 2.26329e-06 0)
(-3.59903e-05 -2.25863e-06 0)
(-3.43357e-05 -6.39986e-06 0)
(-3.15907e-05 -9.8071e-06 0)
(-2.82702e-05 -1.25284e-05 0)
(-2.47319e-05 -1.46436e-05 0)
(-2.12133e-05 -1.62445e-05 0)
(-1.78615e-05 -1.74213e-05 0)
(-1.47598e-05 -1.82555e-05 0)
(-1.19473e-05 -1.88154e-05 0)
(-9.43467e-06 -1.91553e-05 0)
(-7.21489e-06 -1.93153e-05 0)
(-5.27094e-06 -1.93201e-05 0)
(-3.58069e-06 -1.91579e-05 0)
(-2.13308e-06 -1.86303e-05 0)
(-9.4573e-07 -1.65454e-05 0)
(-1.92342e-07 -8.43014e-06 0)
(-2.08629e-07 1.04534e-05 0)
(-1.02611e-06 2.05234e-05 0)
(-2.3132e-06 2.31097e-05 0)
(-3.88232e-06 2.37638e-05 0)
(-5.71393e-06 2.39634e-05 0)
(-7.81938e-06 2.39545e-05 0)
(-1.0222e-05 2.37514e-05 0)
(-1.29392e-05 2.33233e-05 0)
(-1.5977e-05 2.26202e-05 0)
(-1.9322e-05 2.15751e-05 0)
(-2.29296e-05 2.01039e-05 0)
(-2.67075e-05 1.81076e-05 0)
(-3.04955e-05 1.54774e-05 0)
(-3.40389e-05 1.21043e-05 0)
(-3.69592e-05 7.89375e-06 0)
(-3.87161e-05 2.78822e-06 0)
(-3.87176e-05 -2.78205e-06 0)
(-3.69633e-05 -7.88873e-06 0)
(-3.40448e-05 -1.2101e-05 0)
(-3.05023e-05 -1.54761e-05 0)
(-2.67145e-05 -1.81081e-05 0)
(-2.29363e-05 -2.01059e-05 0)
(-1.93281e-05 -2.15785e-05 0)
(-1.59823e-05 -2.26246e-05 0)
(-1.29437e-05 -2.33285e-05 0)
(-1.02256e-05 -2.37571e-05 0)
(-7.82222e-06 -2.39605e-05 0)
(-5.71603e-06 -2.39696e-05 0)
(-3.88377e-06 -2.377e-05 0)
(-2.31409e-06 -2.31159e-05 0)
(-1.02656e-06 -2.05294e-05 0)
(-2.08706e-07 -1.04566e-05 0)
(-2.31989e-07 1.30094e-05 0)
(-1.14186e-06 2.55478e-05 0)
(-2.57279e-06 2.87665e-05 0)
(-4.31704e-06 2.9579e-05 0)
(-6.35212e-06 2.98237e-05 0)
(-8.6897e-06 2.98061e-05 0)
(-1.13545e-05 2.95436e-05 0)
(-1.43641e-05 2.89972e-05 0)
(-1.77227e-05 2.81043e-05 0)
(-2.1412e-05 2.67818e-05 0)
(-2.53785e-05 2.49268e-05 0)
(-2.95165e-05 2.24199e-05 0)
(-3.36465e-05 1.9132e-05 0)
(-3.74904e-05 1.49364e-05 0)
(-4.06424e-05 9.72532e-06 0)
(-4.25312e-05 3.43168e-06 0)
(-4.25332e-05 -3.42332e-06 0)
(-4.06477e-05 -9.71847e-06 0)
(-3.7498e-05 -1.49319e-05 0)
(-3.36553e-05 -1.91301e-05 0)
(-2.95256e-05 -2.24204e-05 0)
(-2.53873e-05 -2.49295e-05 0)
(-2.142e-05 -2.67863e-05 0)
(-1.77297e-05 -2.81102e-05 0)
(-1.437e-05 -2.90042e-05 0)
(-1.13593e-05 -2.95514e-05 0)
(-8.69346e-06 -2.98143e-05 0)
(-6.35491e-06 -2.98322e-05 0)
(-4.31897e-06 -2.95876e-05 0)
(-2.57397e-06 -2.8775e-05 0)
(-1.14246e-06 -2.55559e-05 0)
(-2.32089e-07 -1.30137e-05 0)
(-2.66028e-07 1.63264e-05 0)
(-1.31108e-06 3.20679e-05 0)
(-2.95256e-06 3.61065e-05 0)
(-4.95298e-06 3.71222e-05 0)
(-7.28519e-06 3.74212e-05 0)
(-9.96102e-06 3.73858e-05 0)
(-1.30066e-05 3.70366e-05 0)
(-1.64391e-05 3.63234e-05 0)
(-2.02587e-05 3.51671e-05 0)
(-2.44387e-05 3.34643e-05 0)
(-2.89109e-05 3.10893e-05 0)
(-3.35483e-05 2.78997e-05 0)
(-3.81439e-05 2.37464e-05 0)
(-4.23876e-05 1.84881e-05 0)
(-4.58405e-05 1.20077e-05 0)
(-4.78974e-05 4.23014e-06 0)
(-4.79e-05 -4.2185e-06 0)
(-4.58476e-05 -1.1998e-05 0)
(-4.23978e-05 -1.84816e-05 0)
(-3.81558e-05 -2.37435e-05 0)
(-3.35608e-05 -2.79002e-05 0)
(-2.8923e-05 -3.10929e-05 0)
(-2.44498e-05 -3.34706e-05 0)
(-2.02685e-05 -3.51755e-05 0)
(-1.64474e-05 -3.63333e-05 0)
(-1.30134e-05 -3.70476e-05 0)
(-9.96628e-06 -3.73975e-05 0)
(-7.2891e-06 -3.74333e-05 0)
(-4.95569e-06 -3.71344e-05 0)
(-2.95422e-06 -3.61186e-05 0)
(-1.31191e-06 -3.20794e-05 0)
(-2.66167e-07 -1.63326e-05 0)
(-3.17007e-07 2.0785e-05 0)
(-1.56552e-06 4.08321e-05 0)
(-3.52375e-06 4.59719e-05 0)
(-5.90914e-06 4.72561e-05 0)
(-8.68689e-06 4.76193e-05 0)
(-1.18683e-05 4.75463e-05 0)
(-1.54805e-05 4.70601e-05 0)
(-1.95377e-05 4.60945e-05 0)
(-2.40318e-05 4.45477e-05 0)
(-2.89196e-05 4.22901e-05 0)
(-3.41079e-05 3.91696e-05 0)
(-3.94349e-05 3.50211e-05 0)
(-4.46526e-05 2.96816e-05 0)
(-4.94097e-05 2.30064e-05 0)
(-5.32324e-05 1.48819e-05 0)
(-5.54877e-05 5.22901e-06 0)
(-5.54913e-05 -5.21221e-06 0)
(-5.32423e-05 -1.48679e-05 0)
(-4.94242e-05 -2.29966e-05 0)
(-4.46697e-05 -2.96768e-05 0)
(-3.94529e-05 -3.50214e-05 0)
(-3.41256e-05 -3.91746e-05 0)
(-2.8936e-05 -4.22991e-05 0)
(-2.40462e-05 -4.45599e-05 0)
(-1.955e-05 -4.61091e-05 0)
(-1.54906e-05 -4.70764e-05 0)
(-1.18762e-05 -4.75637e-05 0)
(-8.69277e-06 -4.76374e-05 0)
(-5.91321e-06 -4.72744e-05 0)
(-3.52624e-06 -4.599e-05 0)
(-1.56676e-06 -4.08494e-05 0)
(-3.17213e-07 -2.07942e-05 0)
(-3.97604e-07 2.70653e-05 0)
(-1.96425e-06 5.31751e-05 0)
(-4.41861e-06 5.98607e-05 0)
(-7.40592e-06 6.15105e-05 0)
(-1.0879e-05 6.19424e-05 0)
(-1.48462e-05 6.17817e-05 0)
(-1.93328e-05 6.10524e-05 0)
(-2.43436e-05 5.96628e-05 0)
(-2.985e-05 5.7479e-05 0)
(-3.57755e-05 5.43385e-05 0)
(-4.19793e-05 5.0063e-05 0)
(-4.8241e-05 4.44759e-05 0)
(-5.42523e-05 3.74238e-05 0)
(-5.96137e-05 2.87915e-05 0)
(-6.38303e-05 1.84996e-05 0)
(-6.62777e-05 6.47214e-06 0)
(-6.62829e-05 -6.44701e-06 0)
(-6.38447e-05 -1.84781e-05 0)
(-5.96349e-05 -2.87758e-05 0)
(-5.42779e-05 -3.74154e-05 0)
(-4.82686e-05 -4.44752e-05 0)
(-4.20067e-05 -5.00697e-05 0)
(-3.58013e-05 -5.43517e-05 0)
(-2.9873e-05 -5.74974e-05 0)
(-2.43634e-05 -5.96854e-05 0)
(-1.93491e-05 -6.1078e-05 0)
(-1.4859e-05 -6.18093e-05 0)
(-1.08885e-05 -6.19712e-05 0)
(-7.41254e-06 -6.15397e-05 0)
(-4.42266e-06 -5.98896e-05 0)
(-1.96627e-06 -5.32027e-05 0)
(-3.97939e-07 -2.708e-05 0)
(-5.25521e-07 3.56798e-05 0)
(-2.5884e-06 7.00887e-05 0)
(-5.81825e-06 7.88709e-05 0)
(-9.74352e-06 8.09884e-05 0)
(-1.42959e-05 8.1459e-05 0)
(-1.94739e-05 8.10932e-05 0)
(-2.52904e-05 7.99095e-05 0)
(-3.1722e-05 7.77784e-05 0)
(-3.8692e-05 7.45245e-05 0)
(-4.60531e-05 6.99543e-05 0)
(-5.35752e-05 6.38826e-05 0)
(-6.09431e-05 5.61628e-05 0)
(-6.77707e-05 4.67133e-05 0)
(-7.36287e-05 3.5519e-05 0)
(-7.80642e-05 2.25881e-05 0)
(-8.05643e-05 7.85084e-06 0)
(-8.05716e-05 -7.81327e-06 0)
(-7.80849e-05 -2.25549e-05 0)
(-7.36601e-05 -3.54934e-05 0)
(-6.78099e-05 -4.66978e-05 0)
(-6.09866e-05 -5.61589e-05 0)
(-5.36199e-05 -6.38904e-05 0)
(-4.60961e-05 -6.99732e-05 0)
(-3.87312e-05 -7.45528e-05 0)
(-3.17561e-05 -7.78143e-05 0)
(-2.53187e-05 -7.99511e-05 0)
(-1.94963e-05 -8.11387e-05 0)
(-1.43127e-05 -8.15069e-05 0)
(-9.75518e-06 -8.10373e-05 0)
(-5.8254e-06 -7.89194e-05 0)
(-2.59195e-06 -7.01349e-05 0)
(-5.2611e-07 -3.57045e-05 0)
(-7.11539e-07 4.63846e-05 0)
(-3.498e-06 9.10747e-05 0)
(-7.85501e-06 0.000102416 0)
(-1.31369e-05 0.000105046 0)
(-1.92355e-05 0.000105451 0)
(-2.61216e-05 0.000104658 0)
(-3.37701e-05 0.000102671 0)
(-4.20903e-05 9.93105e-05 0)
(-5.09049e-05 9.43646e-05 0)
(-5.99366e-05 8.76375e-05 0)
(-6.88134e-05 7.89977e-05 0)
(-7.70983e-05 6.84193e-05 0)
(-8.43488e-05 5.59978e-05 0)
(-9.01845e-05 4.19083e-05 0)
(-9.43283e-05 2.62917e-05 0)
(-9.65485e-05 9.061e-06 0)
(-9.65581e-05 -9.00789e-06 0)
(-9.43562e-05 -2.62429e-05 0)
(-9.02285e-05 -4.1868e-05 0)
(-8.44061e-05 -5.59701e-05 0)
(-7.7165e-05 -6.84077e-05 0)
(-6.88847e-05 -7.9004e-05 0)
(-6.00078e-05 -8.7662e-05 0)
(-5.09716e-05 -9.44057e-05 0)
(-4.21497e-05 -9.93657e-05 0)
(-3.38203e-05 -0.000102737 0)
(-2.61618e-05 -0.000104732 0)
(-1.92659e-05 -0.00010553 0)
(-1.3158e-05 -0.000105127 0)
(-7.86797e-06 -0.000102497 0)
(-3.50445e-06 -9.11519e-05 0)
(-7.12608e-07 -4.64257e-05 0)
(-9.67733e-07 5.90435e-05 0)
(-4.76026e-06 0.000115857 0)
(-1.06746e-05 0.000130156 0)
(-1.78177e-05 0.000133269 0)
(-2.60073e-05 0.000133393 0)
(-3.51494e-05 0.000131792 0)
(-4.51316e-05 0.000128439 0)
(-5.5729e-05 0.000123113 0)
(-6.65866e-05 0.000115599 0)
(-7.72287e-05 0.000105779 0)
(-8.71058e-05 9.36948e-05 0)
(-9.5684e-05 7.95799e-05 0)
(-0.000102557 6.38244e-05 0)
(-0.000107541 4.68535e-05 0)
(-0.000110696 2.89275e-05 0)
(-0.000112226 9.87282e-06 0)
(-0.000112237 -9.8029e-06 0)
(-0.00011073 -2.88605e-05 0)
(-0.000107597 -4.67936e-05 0)
(-0.000102634 -6.37776e-05 0)
(-9.5779e-05 -7.95527e-05 0)
(-8.72131e-05 -9.36925e-05 0)
(-7.73409e-05 -0.000105805 0)
(-6.66963e-05 -0.000115653 0)
(-5.58297e-05 -0.000123193 0)
(-4.52187e-05 -0.00012854 0)
(-3.52205e-05 -0.000131908 0)
(-2.60616e-05 -0.000133519 0)
(-1.78558e-05 -0.000133401 0)
(-1.06981e-05 -0.000130288 0)
(-4.77183e-06 -0.000115983 0)
(-9.69624e-07 -5.91103e-05 0)
(-1.33073e-06 7.41218e-05 0)
(-6.55041e-06 0.000145328 0)
(-1.46593e-05 0.000163036 0)
(-2.43979e-05 0.000166513 0)
(-3.54458e-05 0.00016595 0)
(-4.75711e-05 0.000162874 0)
(-6.04806e-05 0.000157232 0)
(-7.37046e-05 0.000148797 0)
(-8.66081e-05 0.000137458 0)
(-9.84594e-05 0.000123333 0)
(-0.000108556 0.000106827 0)
(-0.000116386 8.85883e-05 0)
(-0.000121765 6.93736e-05 0)
(-0.000124897 4.9828e-05 0)
(-0.000126326 3.02306e-05 0)
(-0.000126769 1.02115e-05 0)
(-0.000126781 -1.01252e-05 0)
(-0.000126363 -3.01442e-05 0)
(-0.000124962 -4.97444e-05 0)
(-0.00012186 -6.92997e-05 0)
(-0.000116512 -8.8534e-05 0)
(-0.000108708 -0.000106803 0)
(-9.86281e-05 -0.00012335 0)
(-8.67818e-05 -0.000137519 0)
(-7.3871e-05 -0.000148903 0)
(-6.06295e-05 -0.000157376 0)
(-4.76955e-05 -0.000163049 0)
(-3.55424e-05 -0.000166147 0)
(-2.44663e-05 -0.000166722 0)
(-1.47014e-05 -0.000163248 0)
(-6.57114e-06 -0.000145529 0)
(-1.3341e-06 -7.42283e-05 0)
(-1.85793e-06 9.23219e-05 0)
(-9.1522e-06 0.000180817 0)
(-2.04217e-05 0.00020244 0)
(-3.3842e-05 0.000205975 0)
(-4.88276e-05 0.000203974 0)
(-6.48656e-05 0.00019827 0)
(-8.13189e-05 0.000188841 0)
(-9.73165e-05 0.000175594 0)
(-0.00011185 0.000158744 0)
(-0.000123956 0.000138917 0)
(-0.000132941 0.0001171 0)
(-0.000138573 9.44517e-05 0)
(-0.000141148 7.20375e-05 0)
(-0.000141434 5.05588e-05 0)
(-0.000140507 3.01312e-05 0)
(-0.000139568 1.00747e-05 0)
(-0.000139579 -9.97414e-06 0)
(-0.000140543 -3.00261e-05 0)
(-0.000141502 -5.0449e-05 0)
(-0.000141256 -7.19288e-05 0)
(-0.000138726 -9.43564e-05 0)
(-0.000133142 -0.000117036 0)
(-0.000124196 -0.000138903 0)
(-0.000112115 -0.000158795 0)
(-9.75844e-05 -0.000175718 0)
(-8.15694e-05 -0.000189036 0)
(-6.5082e-05 -0.000198526 0)
(-4.89995e-05 -0.000204275 0)
(-3.39654e-05 -0.000206303 0)
(-2.0498e-05 -0.000202776 0)
(-9.18962e-06 -0.000181137 0)
(-1.86397e-06 -9.24903e-05 0)
(-2.64437e-06 0.000114676 0)
(-1.30355e-05 0.00022426 0)
(-2.89605e-05 0.000250323 0)
(-4.76807e-05 0.000253243 0)
(-6.80906e-05 0.000248418 0)
(-8.91287e-05 0.000238122 0)
(-0.000109563 0.000222564 0)
(-0.000127961 0.00020212 0)
(-0.00014296 0.000177737 0)
(-0.000153597 0.000150882 0)
(-0.000159564 0.000123258 0)
(-0.00016128 9.64445e-05 0)
(-0.000159769 7.15614e-05 0)
(-0.000156416 4.90819e-05 0)
(-0.000152741 2.87555e-05 0)
(-0.00015028 9.52498e-06 0)
(-0.000150289 -9.41328e-06 0)
(-0.000152772 -2.86343e-05 0)
(-0.000156478 -4.89462e-05 0)
(-0.000159878 -7.14129e-05 0)
(-0.000161452 -9.62945e-05 0)
(-0.00015981 -0.000123129 0)
(-0.00015392 -0.000150804 0)
(-0.000143345 -0.000177745 0)
(-0.000128379 -0.000202238 0)
(-0.000109977 -0.000222805 0)
(-8.95031e-05 -0.000238478 0)
(-6.83977e-05 -0.000248865 0)
(-4.79055e-05 -0.000253752 0)
(-2.91008e-05 -0.000250855 0)
(-1.31041e-05 -0.00022477 0)
(-2.65535e-06 -0.000114942 0)
(-3.85385e-06 0.000142733 0)
(-1.90083e-05 0.000278514 0)
(-4.19507e-05 0.000309447 0)
(-6.83787e-05 0.000310322 0)
(-9.61561e-05 0.000300128 0)
(-0.000123215 0.00028197 0)
(-0.000147436 0.000256818 0)
(-0.000166822 0.000226165 0)
(-0.000179999 0.000192229 0)
(-0.000186577 0.000157531 0)
(-0.000187203 0.000124349 0)
(-0.000183307 9.42889e-05 0)
(-0.000176713 6.80975e-05 0)
(-0.000169287 4.57096e-05 0)
(-0.000162768 2.63707e-05 0)
(-0.000158805 8.6649e-06 0)
(-0.000158811 -8.5458e-06 0)
(-0.00016279 -2.62374e-05 0)
(-0.000169337 -4.55511e-05 0)
(-0.00017681 -6.79085e-05 0)
(-0.000183479 -9.40744e-05 0)
(-0.000187479 -0.00012413 0)
(-0.000186977 -0.000157347 0)
(-0.000180524 -0.000192135 0)
(-0.000167444 -0.000226222 0)
(-0.000148102 -0.000257068 0)
(-0.000123856 -0.000282429 0)
(-9.67067e-05 -0.000300775 0)
(-6.87943e-05 -0.000311105 0)
(-4.2214e-05 -0.000310292 0)
(-1.91365e-05 -0.000279331 0)
(-3.87417e-06 -0.000143154 0)
(-5.78485e-06 0.000178897 0)
(-2.85325e-05 0.00034791 0)
(-6.23048e-05 0.000383707 0)
(-9.99603e-05 0.000379539 0)
(-0.000137345 0.000359356 0)
(-0.000170751 0.00032812 0)
(-0.000197093 0.000288699 0)
(-0.000214342 0.000244635 0)
(-0.000222044 0.000199787 0)
(-0.000221291 0.000157495 0)
(-0.000214233 0.000119988 0)
(-0.000203413 8.82353e-05 0)
(-0.00019124 6.21517e-05 0)
(-0.00017973 4.09303e-05 0)
(-0.000170541 2.33065e-05 0)
(-0.00016523 7.60897e-06 0)
(-0.000165232 -7.48605e-06 0)
(-0.000170552 -2.31657e-05 0)
(-0.00017976 -4.07546e-05 0)
(-0.000191312 -6.19265e-05 0)
(-0.000203563 -8.79541e-05 0)
(-0.000214508 -0.000119661 0)
(-0.000221743 -0.00015716 0)
(-0.000222708 -0.000199516 0)
(-0.000215217 -0.00024453 0)
(-0.000198121 -0.000288869 0)
(-0.000171826 -0.000328643 0)
(-0.000138332 -0.000360244 0)
(-0.000100741 -0.000380726 0)
(-6.28122e-05 -0.000385057 0)
(-2.87798e-05 -0.000349235 0)
(-5.82349e-06 -0.000179573 0)
(-9.02454e-06 0.000227125 0)
(-4.44311e-05 0.000439244 0)
(-9.52821e-05 0.000478511 0)
(-0.000149015 0.000463042 0)
(-0.000197757 0.000424729 0)
(-0.000235755 0.000372753 0)
(-0.000259832 0.000313693 0)
(-0.000269551 0.000253846 0)
(-0.000266935 0.000198295 0)
(-0.000255455 0.000150143 0)
(-0.000238896 0.000110501 0)
(-0.000220544 7.90019e-05 0)
(-0.00020288 5.44451e-05 0)
(-0.00018765 3.52875e-05 0)
(-0.000176165 1.98838e-05 0)
(-0.000169733 6.46163e-06 0)
(-0.000169732 -6.33794e-06 0)
(-0.000176163 -1.97401e-05 0)
(-0.000187657 -3.51015e-05 0)
(-0.000202915 -5.41924e-05 0)
(-0.000220649 -7.86607e-05 0)
(-0.000239132 -0.000110061 0)
(-0.000255907 -0.000149622 0)
(-0.000267696 -0.000197761 0)
(-0.000270687 -0.000253436 0)
(-0.000261332 -0.000313603 0)
(-0.000237497 -0.000373194 0)
(-0.000199509 -0.000425836 0)
(-0.000150503 -0.000464793 0)
(-9.6295e-05 -0.000480684 0)
(-4.49313e-05 -0.000441441 0)
(-9.1017e-06 -0.000228229 0)
(-1.48514e-05 0.000294473 0)
(-7.25834e-05 0.000563605 0)
(-0.000150655 0.000600916 0)
(-0.000226061 0.00056131 0)
(-0.000285124 0.00049145 0)
(-0.000321414 0.00040903 0)
(-0.0003348 0.000325899 0)
(-0.000329391 0.000250308 0)
(-0.000311257 0.000186618 0)
(-0.000286394 0.000135851 0)
(-0.000259542 9.68754e-05 0)
(-0.000233886 6.75929e-05 0)
(-0.000211337 4.57499e-05 0)
(-0.00019301 2.92802e-05 0)
(-0.000179703 1.63702e-05 0)
(-0.000172409 5.30551e-06 0)
(-0.000172404 -5.18336e-06 0)
(-0.000179688 -1.62276e-05 0)
(-0.000192991 -2.90907e-05 0)
(-0.000211329 -4.54806e-05 0)
(-0.000233925 -6.72062e-05 0)
(-0.000259696 -9.63338e-05 0)
(-0.000286773 -0.000135134 0)
(-0.000312019 -0.000185755 0)
(-0.000330715 -0.000249425 0)
(-0.000336812 -0.000325266 0)
(-0.000324078 -0.000409053 0)
(-0.000288149 -0.00049256 0)
(-0.000228914 -0.000563729 0)
(-0.000152759 -0.000604409 0)
(-7.36722e-05 -0.000567368 0)
(-1.50204e-05 -0.000296359 0)
(-2.63375e-05 0.000394963 0)
(-0.000125981 0.000739485 0)
(-0.000246314 0.000758313 0)
(-0.000346174 0.000669542 0)
(-0.000406505 0.00054878 0)
(-0.000426923 0.000426829 0)
(-0.000416726 0.000319131 0)
(-0.000387635 0.000231859 0)
(-0.00034985 0.000165132 0)
(-0.00031052 0.000115985 0)
(-0.000273836 8.05098e-05 0)
(-0.000241842 5.50716e-05 0)
(-0.000215356 3.67549e-05 0)
(-0.000194669 2.33044e-05 0)
(-0.00018003 1.29612e-05 0)
(-0.000172125 4.19827e-06 0)
(-0.000172116 -4.07943e-06 0)
(-0.000180003 -1.2823e-05 0)
(-0.000194621 -2.31179e-05 0)
(-0.000215296 -3.64808e-05 0)
(-0.000241797 -5.46589e-05 0)
(-0.000273863 -7.98937e-05 0)
(-0.000310735 -0.000115094 0)
(-0.000350457 -0.00016392 0)
(-0.000388938 -0.00023037 0)
(-0.000419091 -0.000317612 0)
(-0.000430615 -0.000425854 0)
(-0.000411398 -0.000549262 0)
(-0.000351504 -0.000672414 0)
(-0.000250792 -0.000763776 0)
(-0.000128584 -0.000746182 0)
(-2.67643e-05 -0.000398482 0)
(-5.09208e-05 0.000559177 0)
(-0.000232569 0.000995822 0)
(-0.000409958 0.000951426 0)
(-0.000522102 0.00077025 0)
(-0.000557289 0.000577583 0)
(-0.000537337 0.000414028 0)
(-0.000487985 0.000288896 0)
(-0.000428213 0.000198686 0)
(-0.000369188 0.000135758 0)
(-0.000316255 9.25344e-05 0)
(-0.000271272 6.28804e-05 0)
(-0.00023435 4.23656e-05 0)
(-0.000204985 2.79859e-05 0)
(-0.000182655 1.76319e-05 0)
(-0.000167124 9.78038e-06 0)
(-0.000158816 3.17421e-06 0)
(-0.000158802 -3.06064e-06 0)
(-0.000167076 -9.6501e-06 0)
(-0.000182566 -1.74551e-05 0)
(-0.000204853 -2.77196e-05 0)
(-0.000234182 -4.19508e-05 0)
(-0.0002711 -6.22312e-05 0)
(-0.000316166 -9.15319e-05 0)
(-0.000369375 -0.000134261 0)
(-0.000429052 -0.000196581 0)
(-0.000490095 -0.000286244 0)
(-0.000541513 -0.000411353 0)
(-0.000564095 -0.000576243 0)
(-0.000531072 -0.000772505 0)
(-0.000419029 -0.000959261 0)
(-0.000239098 -0.00100807 0)
(-5.211e-05 -0.000566729 0)
(-0.000102365 0.000857744 0)
(-0.000437269 0.00136355 0)
(-0.000652465 0.00115092 0)
(-0.000719254 0.000821369 0)
(-0.000674545 0.000550373 0)
(-0.000581635 0.000360109 0)
(-0.000479852 0.000234563 0)
(-0.000386881 0.000153577 0)
(-0.000308256 0.000101416 0)
(-0.000244168 6.75771e-05 0)
(-0.000192955 4.52287e-05 0)
(-0.000152559 3.01404e-05 0)
(-0.000121255 1.97719e-05 0)
(-9.78547e-05 1.24114e-05 0)
(-8.1748e-05 6.88544e-06 0)
(-7.31668e-05 2.24662e-06 0)
(-7.31386e-05 -2.14193e-06 0)
(-8.16554e-05 -6.76833e-06 0)
(-9.768e-05 -1.22532e-05 0)
(-0.000120978 -1.953e-05 0)
(-0.000152157 -2.97549e-05 0)
(-0.00019241 -4.46051e-05 0)
(-0.000243487 -6.65677e-05 0)
(-0.000307525 -9.98013e-05 0)
(-0.000386373 -0.000151071 0)
(-0.000480217 -0.000230906 0)
(-0.00058411 -0.000355413 0)
(-0.000680855 -0.000545934 0)
(-0.000730473 -0.000820792 0)
(-0.000667075 -0.00115995 0)
(-0.000451546 -0.00138474 0)
(-0.000105027 -0.000875251 0)
(-0.000172838 0.00141915 0)
(-0.000726491 0.00180148 0)
(-0.000802871 0.00124621 0)
(-0.000673323 0.000750698 0)
(-0.000469716 0.000441385 0)
(-0.000277653 0.000263294 0)
(-0.000121067 0.000161375 0)
(5.5071e-07 0.000101669 0)
(9.3938e-05 6.55461e-05 0)
(0.000165658 4.29838e-05 0)
(0.000220823 2.84637e-05 0)
(0.000263304 1.88493e-05 0)
(0.000295724 1.23162e-05 0)
(0.000319725 7.72286e-06 0)
(0.00033618 4.29933e-06 0)
(0.000344986 1.4173e-06 0)
(0.000345048 -1.32834e-06 0)
(0.000336375 -4.20397e-06 0)
(0.000320081 -7.59634e-06 0)
(0.000296291 -1.21211e-05 0)
(0.000264156 -1.85342e-05 0)
(0.000222066 -2.79436e-05 0)
(0.000167427 -4.21154e-05 0)
(9.63844e-05 -6.40896e-05 0)
(3.77193e-06 -9.92387e-05 0)
(-0.000117229 -0.000157422 0)
(-0.000274062 -0.000257313 0)
(-0.000468548 -0.000433887 0)
(-0.00067767 -0.000745641 0)
(-0.000813613 -0.00125405 0)
(-0.000742938 -0.00183515 0)
(-0.000172543 -0.0014603 0)
(-5.01022e-05 0.00225499 0)
(-0.000543111 0.00206588 0)
(7.17355e-05 0.00106029 0)
(0.000601675 0.000511977 0)
(0.000992553 0.000258871 0)
(0.00126123 0.000140912 0)
(0.00144688 8.20781e-05 0)
(0.00157845 5.03036e-05 0)
(0.00167434 3.19437e-05 0)
(0.00174575 2.07102e-05 0)
(0.00179965 1.36018e-05 0)
(0.00184064 8.98193e-06 0)
(0.00187166 5.85824e-06 0)
(0.00189455 3.67896e-06 0)
(0.00191029 2.06636e-06 0)
(0.00191885 6.96477e-07 0)
(0.00191898 -6.2825e-07 0)
(0.00191066 -1.99844e-06 0)
(0.00189519 -3.5925e-06 0)
(0.00187265 -5.72445e-06 0)
(0.00184211 -8.76448e-06 0)
(0.00180182 -1.32388e-05 0)
(0.00174892 -2.00918e-05 0)
(0.00167897 -3.08702e-05 0)
(0.00158517 -4.84059e-05 0)
(0.00145646 -7.86771e-05 0)
(0.00127427 -0.000134877 0)
(0.00100845 -0.00024908 0)
(0.000617291 -0.000500411 0)
(8.55622e-05 -0.00106145 0)
(-0.000529089 -0.00209356 0)
(-1.37362e-05 -0.00229618 0)
(0.00270115 0.00109563 0)
(0.0032987 0.000770329 0)
(0.00466298 0.000303129 0)
(0.00533346 0.000128515 0)
(0.00566434 5.94099e-05 0)
(0.00584906 3.08564e-05 0)