/*--------------------------------*- C++ -*----------------------------------*\
| =========                 |                                                 |
| \\      /  F ield         | OpenFOAM: The Open Source CFD Toolbox           |
|  \\    /   O peration     | Version:  2212                                  |
|   \\  /    A nd           | Website:  www.openfoam.com                      |
|    \\/     M anipulation  |                                                 |
\*---------------------------------------------------------------------------*/
FoamFile
{
    version     2.0;
    format      ascii;
    arch        "LSB;label=64;scalar=64";
    class       volScalarField;
    location    "1470";
    object      Xli;
}
// * * * * * * * * * * * * * * * * * * * * * * * * * * * * * * * * * * * * * //

dimensions      [1 -3 0 0 0 0 0];

internalField   nonuniform List<scalar> 
1024
(
0.0423281
0.0423285
0.0423299
0.0423324
0.0423364
0.0423423
0.0423501
0.04236
0.0423714
0.0423837
0.0423959
0.0424068
0.0424155
0.0424212
0.0424234
0.0424213
0.0424144
0.0424029
0.0423881
0.0423705
0.042351
0.0423306
0.0423109
0.0422929
0.0422775
0.0422652
0.0422559
0.0422492
0.0422448
0.042242
0.0422405
0.0422399
0.0423282
0.0423287
0.0423301
0.0423326
0.0423367
0.0423426
0.0423506
0.0423606
0.0423721
0.0423845
0.0423968
0.0424077
0.0424164
0.042422
0.0424241
0.0424221
0.0424151
0.0424036
0.0423888
0.0423713
0.0423518
0.0423314
0.0423115
0.0422935
0.042278
0.0422656
0.0422562
0.0422494
0.0422449
0.0422421
0.0422406
0.04224
0.0423285
0.0423291
0.0423305
0.0423332
0.0423374
0.0423435
0.0423516
0.0423619
0.0423737
0.0423864
0.0423988
0.0424099
0.0424185
0.0424241
0.042426
0.0424238
0.0424168
0.0424053
0.0423905
0.042373
0.0423534
0.042333
0.042313
0.0422947
0.042279
0.0422664
0.0422568
0.0422499
0.0422453
0.0422425
0.0422409
0.0422403
0.0423293
0.0423299
0.0423314
0.0423341
0.0423384
0.0423448
0.0423533
0.0423639
0.0423762
0.0423895
0.0424026
0.0424139
0.0424226
0.0424279
0.0424295
0.042427
0.0424198
0.0424081
0.0423932
0.0423756
0.042356
0.0423355
0.0423153
0.0422967
0.0422807
0.0422677
0.0422578
0.0422507
0.0422459
0.042243
0.0422414
0.0422407
0.0423305
0.0423311
0.0423326
0.0423354
0.04234
0.0423466
0.0423556
0.0423668
0.04238
0.0423943
0.0424084
0.0424205
0.0424292
0.0424342
0.0424352
0.0424321
0.0424243
0.0424123
0.0423971
0.0423793
0.0423595
0.0423388
0.0423184
0.0422994
0.0422829
0.0422695
0.0422592
0.0422518
0.0422469
0.0422438
0.0422421
0.0422415
0.0423323
0.0423329
0.0423345
0.0423374
0.0423421
0.0423491
0.0423587
0.0423709
0.0423853
0.0424013
0.042417
0.0424303
0.0424392
0.0424436
0.0424437
0.0424396
0.042431
0.0424182
0.0424023
0.0423839
0.0423638
0.0423428
0.0423219
0.0423025
0.0422855
0.0422716
0.0422609
0.0422532
0.0422481
0.0422449
0.0422432
0.0422425
0.042335
0.0423356
0.0423372
0.0423401
0.0423451
0.0423525
0.0423628
0.0423762
0.0423926
0.0424108
0.0424289
0.0424438
0.0424533
0.042457
0.0424558
0.0424503
0.0424403
0.0424261
0.0424089
0.0423895
0.0423686
0.042347
0.0423256
0.0423057
0.0422882
0.0422739
0.0422629
0.0422549
0.0422496
0.0422463
0.0422445
0.0422438
0.0423391
0.0423397
0.0423412
0.0423442
0.0423493
0.0423572
0.0423685
0.0423835
0.0424022
0.0424234
0.0424445
0.0424616
0.0424718
0.0424749
0.0424722
0.0424649
0.042453
0.0424366
0.0424173
0.0423961
0.0423737
0.0423511
0.042329
0.0423086
0.0422907
0.042276
0.0422648
0.0422567
0.0422513
0.042248
0.0422463
0.0422456
0.0423454
0.042346
0.0423474
0.0423505
0.0423558
0.0423642
0.0423766
0.0423935
0.0424151
0.0424399
0.0424644
0.042484
0.0424951
0.0424977
0.0424936
0.0424843
0.0424701
0.0424508
0.0424282
0.042404
0.0423794
0.042355
0.0423319
0.0423108
0.0422926
0.0422779
0.0422666
0.0422587
0.0422534
0.0422503
0.0422486
0.042248
0.0423552
0.0423557
0.0423572
0.0423603
0.0423659
0.0423749
0.0423886
0.0424079
0.0424327
0.0424613
0.0424893
0.0425113
0.0425235
0.0425258
0.0425207
0.04251
0.0424935
0.0424706
0.0424437
0.042415
0.0423868
0.0423598
0.0423349
0.0423129
0.0422945
0.0422798
0.042269
0.0422615
0.0422567
0.0422539
0.0422526
0.042252
0.0423704
0.042371
0.0423725
0.0423758
0.0423818
0.0423917
0.0424071
0.0424288
0.0424569
0.0424891
0.0425204
0.0425445
0.0425578
0.0425605
0.0425556
0.0425449
0.0425272
0.042501
0.0424689
0.0424344
0.0424007
0.0423694
0.0423415
0.0423179
0.0422988
0.0422844
0.0422743
0.0422676
0.0422637
0.0422617
0.0422609
0.0422606
0.0423934
0.0423939
0.0423957
0.0423993
0.0424061
0.0424173
0.0424346
0.042459
0.0424903
0.0425256
0.0425592
0.042585
0.0425997
0.0426044
0.0426024
0.0425951
0.0425794
0.0425524
0.0425164
0.0424756
0.0424346
0.0423965
0.0423632
0.0423358
0.0423147
0.0422998
0.0422902
0.0422847
0.0422821
0.0422813
0.0422814
0.0422817
0.0424257
0.0424264
0.0424284
0.0424328
0.0424406
0.0424536
0.0424733
0.0425006
0.0425349
0.0425726
0.0426079
0.0426353
0.0426529
0.0426629
0.0426686
0.0426706
0.0426641
0.0426435
0.0426098
0.0425669
0.04252
0.0424735
0.0424311
0.0423955
0.0423683
0.0423498
0.0423388
0.0423335
0.0423319
0.0423324
0.0423336
0.0423344
0.0424667
0.0424676
0.0424702
0.0424756
0.0424851
0.0425006
0.0425235
0.0425543
0.0425916
0.0426315
0.0426686
0.0426991
0.042723
0.0427434
0.0427632
0.0427824
0.0427952
0.0427936
0.0427758
0.042744
0.042702
0.042654
0.0426048
0.0425587
0.0425196
0.0424902
0.0424706
0.0424597
0.0424552
0.0424545
0.0424554
0.0424563
0.0425121
0.0425131
0.0425162
0.0425226
0.0425338
0.0425517
0.0425776
0.0426114
0.0426515
0.0426942
0.0427354
0.042773
0.042808
0.0428435
0.0428816
0.0429223
0.0429605
0.0429871
0.0429988
0.0429957
0.0429787
0.0429494
0.0429107
0.0428666
0.0428215
0.0427802
0.0427459
0.0427209
0.042705
0.0426967
0.0426933
0.0426926
0.0425548
0.0425559
0.0425591
0.0425658
0.0425777
0.0425965
0.0426236
0.0426592
0.0427018
0.0427485
0.0427959
0.0428424
0.0428883
0.0429355
0.0429852
0.0430375
0.0430886
0.0431328
0.043169
0.0431968
0.0432147
0.0432214
0.0432162
0.0431996
0.0431737
0.0431418
0.0431085
0.0430783
0.0430544
0.0430383
0.0430294
0.043026
0.0425874
0.0425885
0.0425915
0.0425979
0.0426091
0.0426269
0.0426529
0.0426877
0.0427302
0.0427783
0.0428286
0.0428786
0.0429272
0.0429742
0.043019
0.0430611
0.0430988
0.0431343
0.0431718
0.0432116
0.0432509
0.0432862
0.0433144
0.0433334
0.0433422
0.0433413
0.0433328
0.0433196
0.0433054
0.0432936
0.0432857
0.0432822
0.0426079
0.0426089
0.0426116
0.0426172
0.0426271
0.042643
0.0426663
0.042698
0.0427376
0.0427834
0.0428322
0.0428806
0.042926
0.0429664
0.0429999
0.043025
0.0430425
0.0430611
0.0430898
0.04313
0.0431781
0.0432287
0.0432764
0.043317
0.0433483
0.0433696
0.0433816
0.043386
0.0433854
0.0433825
0.0433795
0.0433778
0.0426192
0.0426202
0.0426226
0.0426275
0.0426361
0.0426498
0.04267
0.0426977
0.042733
0.0427745
0.0428194
0.0428642
0.0429053
0.0429397
0.0429648
0.0429793
0.0429851
0.0429937
0.0430157
0.0430543
0.0431071
0.0431684
0.0432309
0.0432879
0.043335
0.0433701
0.0433934
0.0434068
0.0434128
0.0434144
0.0434139
0.0434133
0.042625
0.0426259
0.0426281
0.0426323
0.0426397
0.0426513
0.0426685
0.0426922
0.0427228
0.0427592
0.0427992
0.0428395
0.0428764
0.0429066
0.0429276
0.0429381
0.0429411
0.0429476
0.0429671
0.0430033
0.0430557
0.0431204
0.0431909
0.0432596
0.0433198
0.0433674
0.043401
0.043422
0.043433
0.0434374
0.0434382
0.0434379
0.0426282
0.0426289
0.0426307
0.0426343
0.0426404
0.0426502
0.0426646
0.0426847
0.0427106
0.0427419
0.0427767
0.0428122
0.0428453
0.0428731
0.0428932
0.0429051
0.0429119
0.0429224
0.0429436
0.042979
0.0430294
0.0430929
0.0431648
0.0432385
0.0433067
0.0433637
0.0434063
0.0434345
0.0434504
0.0434576
0.0434596
0.0434595
0.0426323
0.0426327
0.0426339
0.0426364
0.0426411
0.0426488
0.0426606
0.0426773
0.0426991
0.0427256
0.0427556
0.042787
0.0428173
0.0428443
0.0428664
0.0428837
0.0428984
0.0429164
0.0429418
0.0429779
0.0430263
0.0430863
0.0431554
0.0432285
0.0432993
0.0433616
0.0434108
0.0434451
0.0434658
0.0434758
0.0434791
0.0434793
0.0426415
0.0426414
0.0426414
0.0426423
0.042645
0.0426503
0.0426594
0.0426729
0.0426912
0.042714
0.0427405
0.0427694
0.0427988
0.0428274
0.042854
0.042879
0.0429036
0.0429297
0.0429597
0.0429965
0.0430423
0.0430976
0.0431614
0.0432302
0.0432991
0.0433626
0.0434154
0.0434545
0.0434793
0.0434922
0.0434968
0.0434975
0.0426605
0.0426595
0.042658
0.0426566
0.0426566
0.0426591
0.0426654
0.0426764
0.0426923
0.0427133
0.0427386
0.0427673
0.0427983
0.0428304
0.0428629
0.0428962
0.0429298
0.0429627
0.0429958
0.0430322
0.0430743
0.0431238
0.0431806
0.0432427
0.0433066
0.0433677
0.0434213
0.0434631
0.0434913
0.0435069
0.043513
0.043514
0.0426934
0.0426913
0.0426877
0.0426838
0.042681
0.0426811
0.0426855
0.0426952
0.0427108
0.0427322
0.0427587
0.0427895
0.0428236
0.04286
0.0428979
0.0429377
0.0429775
0.0430141
0.043048
0.0430824
0.0431199
0.0431625
0.0432111
0.0432649
0.0433216
0.0433778
0.0434292
0.0434717
0.0435022
0.04352
0.0435276
0.0435291
0.0427431
0.0427397
0.0427342
0.0427283
0.0427241
0.0427235
0.0427279
0.0427387
0.042756
0.0427797
0.0428088
0.0428424
0.0428793
0.0429186
0.0429596
0.0430023
0.0430442
0.0430811
0.0431134
0.0431443
0.0431764
0.0432117
0.0432515
0.043296
0.043344
0.0433932
0.0434403
0.0434812
0.0435123
0.0435318
0.0435407
0.0435427
0.0428112
0.0428065
0.0428
0.0427942
0.0427914
0.042793
0.0428002
0.042814
0.0428343
0.0428605
0.0428915
0.0429264
0.0429639
0.0430033
0.0430437
0.0430853
0.0431251
0.0431593
0.043188
0.0432144
0.0432406
0.0432687
0.0433
0.043335
0.0433736
0.0434143
0.043455
0.0434923
0.0435223
0.0435424
0.0435524
0.043555
0.0428985
0.0428931
0.0428876
0.0428853
0.0428873
0.0428941
0.0429059
0.0429231
0.0429455
0.0429724
0.0430029
0.0430361
0.0430711
0.043107
0.0431433
0.0431801
0.0432148
0.0432439
0.0432678
0.0432889
0.0433094
0.0433307
0.0433541
0.0433803
0.0434095
0.0434412
0.043474
0.0435057
0.0435328
0.0435523
0.0435628
0.0435658
0.0430065
0.0430016
0.0430004
0.0430047
0.0430137
0.0430261
0.0430418
0.0430606
0.0430825
0.0431071
0.0431339
0.0431622
0.0431915
0.043221
0.0432505
0.0432801
0.0433075
0.0433303
0.0433486
0.0433645
0.0433795
0.0433947
0.0434112
0.0434296
0.0434502
0.0434729
0.0434974
0.0435221
0.0435446
0.0435619
0.043572
0.0435754
0.043138
0.043136
0.043142
0.0431534
0.0431674
0.0431825
0.0431985
0.0432155
0.0432336
0.0432529
0.0432732
0.0432943
0.0433157
0.0433371
0.0433583
0.0433792
0.0433986
0.0434145
0.0434272
0.043438
0.043448
0.043458
0.0434686
0.0434804
0.0434936
0.0435083
0.0435245
0.0435416
0.043558
0.0435717
0.0435804
0.0435836
0.0432983
0.0433021
0.0433134
0.0433262
0.043339
0.0433513
0.0433631
0.0433747
0.0433864
0.0433983
0.0434107
0.0434233
0.043436
0.0434486
0.043461
0.0434732
0.0434844
0.0434936
0.0435009
0.043507
0.0435126
0.0435181
0.0435239
0.0435303
0.0435374
0.0435454
0.0435542
0.0435638
0.0435735
0.0435821
0.0435882
0.0435907
0.0434941
0.0434971
0.0435029
0.0435085
0.0435136
0.0435184
0.0435227
0.0435268
0.0435308
0.0435348
0.0435388
0.043543
0.0435471
0.0435512
0.0435552
0.0435592
0.0435628
0.0435657
0.043568
0.04357
0.0435718
0.0435735
0.0435753
0.0435773
0.0435795
0.0435819
0.0435847
0.0435877
0.0435908
0.0435936
0.0435958
0.0435969
)
;

boundaryField
{
    movingWall
    {
        type            fixedValue;
        value           uniform 0.0436;
    }
    fixedWalls
    {
        type            zeroGradient;
    }
    floor
    {
        type            zeroGradient;
    }
    frontAndBack
    {
        type            empty;
    }
}


// ************************************************************************* //
