/*--------------------------------*- C++ -*----------------------------------*\
| =========                 |                                                 |
| \\      /  F ield         | OpenFOAM: The Open Source CFD Toolbox           |
|  \\    /   O peration     | Version:  2212                                  |
|   \\  /    A nd           | Website:  www.openfoam.com                      |
|    \\/     M anipulation  |                                                 |
\*---------------------------------------------------------------------------*/
FoamFile
{
    version     2.0;
    format      ascii;
    arch        "LSB;label=64;scalar=64";
    class       volScalarField;
    location    "0.29";
    object      alpha.air;
}
// * * * * * * * * * * * * * * * * * * * * * * * * * * * * * * * * * * * * * //

dimensions      [0 0 0 0 0 0 0];

internalField   nonuniform List<scalar> 
32768
(
3.29268e-121
3.09429e-118
1.00273e-115
1.89809e-113
2.57004e-111
2.73093e-109
2.38325e-107
1.74927e-105
1.09462e-103
5.8897e-102
2.74072e-100
1.10746e-98
3.89598e-97
1.19472e-95
3.19312e-94
7.42629e-93
1.49808e-91
2.60792e-90
3.89113e-89
4.93215e-88
5.24961e-87
4.61997e-86
3.29646e-85
1.86013e-84
8.0105e-84
2.49348e-83
5.25861e-83
6.80983e-83
4.51372e-83
1.08022e-83
8.58473e-85
4.61757e-86
1.8897e-87
1.60859e-87
1.05391e-86
2.11998e-87
2.48893e-88
2.28559e-89
1.81375e-90
1.29311e-91
8.40968e-93
5.02366e-94
2.7765e-95
1.41805e-96
6.70403e-98
2.93702e-99
1.19177e-100
4.47897e-102
1.55184e-103
4.93501e-105
1.44162e-106
3.82861e-108
9.21252e-110
1.98803e-111
3.7967e-113
6.34568e-115
9.11075e-117
1.09663e-118
1.06979e-120
8.04542e-123
4.27707e-125
1.33768e-127
1.36649e-130
5.77426e-132
2.20378e-129
5.39617e-127
9.43157e-125
1.25935e-122
1.34824e-120
1.19641e-118
9.01495e-117
5.8751e-115
3.36164e-113
1.70954e-111
7.80663e-110
3.23198e-108
1.22382e-106
4.26468e-105
1.37626e-103
4.13279e-102
1.16265e-100
3.07805e-99
7.69099e-98
1.81972e-96
4.07976e-95
8.6655e-94
1.74735e-92
3.3429e-91
6.11708e-90
1.07731e-88
1.82886e-87
2.8797e-86
3.68751e-85
2.75238e-84
8.00891e-86
1.4269e-85
4.56594e-84
7.02454e-83
3.88807e-82
7.95569e-82
7.97022e-82
4.66293e-82
1.77639e-82
4.79108e-83
9.67008e-84
1.52076e-84
1.91982e-85
1.98897e-86
1.7225e-87
1.26368e-88
7.93833e-90
4.30421e-91
2.02559e-92
8.30764e-94
2.97756e-95
9.33802e-97
2.56212e-98
6.14207e-100
1.28314e-101
2.3266e-103
3.6398e-105
4.87026e-107
5.49762e-109
5.11166e-111
3.74116e-113
1.96543e-115
6.06083e-118
6.5017e-121
5.68115e-118
6.20565e-115
2.29803e-112
4.95267e-110
7.61632e-108
9.1155e-106
8.85521e-104
7.20676e-102
5.03968e-100
3.06832e-98
1.63337e-96
7.61671e-95
3.1138e-93
1.115e-91
3.49139e-90
9.53979e-89
2.26709e-87
4.66454e-86
8.26646e-85
1.24957e-83
1.59444e-82
1.69256e-81
1.46492e-80
1.00987e-79
5.38534e-79
2.1171e-78
5.74593e-78
9.89335e-78
9.59456e-78
4.53792e-78
8.89207e-79
7.89599e-80
5.1677e-81
8.17167e-82
1.71113e-82
1.69128e-83
1.33075e-84
9.33055e-86
6.06665e-87
3.70212e-88
2.12774e-89
1.14896e-90
5.83836e-92
2.77667e-93
1.23555e-94
5.13644e-96
1.99288e-97
7.20339e-99
2.41323e-100
7.45886e-102
2.12497e-103
5.53212e-105
1.30933e-106
2.79067e-108
5.28333e-110
8.77609e-112
1.25689e-113
1.51441e-115
1.48465e-117
1.12684e-119
6.07976e-122
1.95391e-124
2.15905e-127
7.44427e-129
2.89189e-126
7.15683e-124
1.25414e-121
1.67541e-119
1.79451e-117
1.59459e-115
1.20507e-113
7.89393e-112
4.5511e-110
2.3376e-108
1.08137e-106
4.54932e-105
1.75587e-103
6.25723e-102
2.07362e-100
6.41846e-99
1.87061e-97
5.15661e-96
1.35003e-94
3.36723e-93
8.02229e-92
1.82631e-90
3.99667e-89
8.44245e-88
1.74627e-86
3.5989e-85
7.48729e-84
1.53093e-82
2.80656e-81
3.97597e-80
3.31648e-79
9.95122e-79
8.93362e-78
4.94214e-77
1.27836e-76
1.62222e-76
1.14223e-76
5.01638e-77
1.49648e-77
3.23113e-78
5.29879e-79
6.84855e-80
7.1763e-81
6.23058e-82
4.55635e-83
2.8417e-84
1.52563e-85
7.09999e-87
2.87944e-88
1.02128e-89
3.17544e-91
8.66421e-93
2.07623e-94
4.36791e-96
8.05527e-98
1.29835e-99
1.81987e-101
2.18593e-103
2.18999e-105
1.77299e-107
1.11399e-109
4.99135e-112
1.30436e-114
1.16322e-117
2.32003e-115
2.95069e-112
1.34221e-109
3.69757e-107
7.48575e-105
1.18416e-102
1.45701e-100
1.40214e-98
1.10243e-96
7.34277e-95
4.21493e-93
2.10237e-91
9.12413e-90
3.44583e-88
1.13183e-86
3.23337e-85
8.01698e-84
1.7176e-82
3.16603e-81
4.98842e-80
6.6572e-79
7.43279e-78
6.82718e-77
5.04806e-76
2.9175e-75
1.26619e-74
3.90717e-74
7.95432e-74
9.62758e-74
6.0255e-74
1.69861e-74
2.41783e-75
2.62263e-76
2.04533e-77
1.31492e-78
7.75902e-80
4.41827e-81
2.4687e-82
1.35497e-83
7.25098e-85
3.74446e-86
1.85069e-87
8.72475e-89
3.89122e-90
1.63876e-91
6.49888e-93
2.41949e-94
8.43906e-96
2.74221e-97
8.25817e-99
2.30047e-100
5.88342e-102
1.3727e-103
2.896e-105
5.44558e-107
9.01207e-109
1.2905e-110
1.56022e-112
1.54117e-114
1.18411e-116
6.51122e-119
2.16397e-121
2.61251e-124
6.57473e-126
2.80401e-123
7.03041e-121
1.2309e-118
1.64096e-116
1.75462e-114
1.55831e-112
1.17901e-110
7.74916e-109
4.493e-107
2.32567e-105
1.08741e-103
4.63606e-102
1.81844e-100
6.60486e-99
2.23988e-97
7.11766e-96
2.1395e-94
6.10889e-93
1.66573e-91
4.34999e-90
1.09235e-88
2.64018e-87
6.19321e-86
1.42153e-84
3.25869e-83
7.64858e-82
1.8717e-80
4.64747e-79
1.0794e-77
2.12416e-76
3.21573e-75
3.38715e-74
2.19533e-73
7.54835e-73
1.34212e-72
1.31048e-72
7.58242e-73
2.85652e-73
7.53779e-74
1.47472e-74
2.23404e-75
2.70392e-76
2.67961e-77
2.21727e-78
1.55314e-79
9.31256e-81
4.81329e-82
2.15576e-83
8.40192e-85
2.85692e-86
8.48077e-88
2.2006e-89
4.98788e-91
9.85067e-93
1.69019e-94
2.51134e-96
3.18559e-98
3.32502e-100
2.70112e-102
1.6825e-104
8.09761e-107
2.84428e-109
6.03431e-112
4.59187e-115
1.39774e-112
1.85159e-109
8.99465e-107
2.7121e-104
6.15248e-102
1.10543e-99
1.51452e-97
1.56179e-95
1.27527e-93
8.7252e-92
5.11613e-90
2.59314e-88
1.1347e-86
4.29349e-85
1.41079e-83
4.03055e-82
1.00102e-80
2.15757e-79
4.02127e-78
6.44345e-77
8.80499e-76
1.01461e-74
9.72424e-74
7.60033e-73
4.71394e-72
2.23782e-71
7.74609e-71
1.82901e-70
2.68666e-70
2.16606e-70
8.27738e-71
1.41646e-71
1.28673e-72
7.86243e-74
4.00693e-75
1.94598e-76
9.50334e-78
4.72233e-79
2.36633e-80
1.17324e-81
5.67957e-83
2.65658e-84
1.19216e-85
5.09361e-87
2.06684e-88
7.93517e-90
2.87225e-91
9.78144e-93
3.11369e-94
9.2224e-96
2.5334e-97
6.41544e-99
1.48647e-100
3.12508e-102
5.87757e-104
9.76046e-106
1.40775e-107
1.72049e-109
1.72636e-111
1.35557e-113
7.69104e-116
2.69655e-118
3.67725e-121
6.21351e-123
2.74951e-120
6.95815e-118
1.21909e-115
1.62162e-113
1.72892e-111
1.53161e-109
1.15706e-107
7.60504e-106
4.41713e-104
2.29221e-102
1.07689e-100
4.62222e-99
1.82867e-97
6.7064e-96
2.30381e-94
7.42585e-93
2.27153e-91
6.61337e-90
1.8455e-88
4.94763e-87
1.28025e-85
3.2014e-84
7.80864e-83
1.87544e-81
4.53172e-80
1.13413e-78
3.00516e-77
8.17064e-76
2.0814e-74
4.46904e-73
7.32315e-72
8.21482e-71
5.48143e-70
1.83314e-69
2.94566e-69
2.52515e-69
1.3031e-69
4.45773e-70
1.08653e-70
1.99147e-71
2.85842e-72
3.3135e-73
3.17741e-74
2.56403e-75
1.76434e-76
1.04495e-77
5.36029e-79
2.39309e-80
9.32185e-82
3.17182e-83
9.42263e-85
2.43998e-86
5.48102e-88
1.06714e-89
1.80175e-91
2.61075e-93
3.16972e-95
3.08361e-97
2.24273e-99
1.24287e-101
5.42418e-104
1.7684e-106
3.55934e-109
2.62644e-112
7.27907e-110
9.59203e-107
4.67715e-104
1.42653e-101
3.30577e-99
6.14761e-97
8.83087e-95
9.34179e-93
7.61047e-91
5.15712e-89
2.99039e-87
1.49844e-85
6.47203e-84
2.42348e-82
7.8997e-81
2.24614e-79
5.57183e-78
1.20406e-76
2.2594e-75
3.66227e-74
5.08907e-73
6.00007e-72
5.91937e-71
4.79673e-70
3.11457e-69
1.5671e-68
5.83736e-68
1.51157e-67
2.4925e-67
2.3165e-67
1.03919e-67
2.02708e-68
1.97013e-69
1.20657e-70
5.92121e-72
2.73754e-73
1.29081e-74
6.34542e-76
3.17963e-77
1.57904e-78
7.64459e-80
3.56803e-81
1.59432e-82
6.78953e-84
2.74251e-85
1.04811e-86
3.77711e-88
1.2814e-89
4.06837e-91
1.20445e-92
3.31301e-94
8.41507e-96
1.95935e-97
4.1451e-99
7.86808e-101
1.32296e-102
1.93513e-104
2.40341e-106
2.45806e-108
1.97383e-110
1.1518e-112
4.2015e-115
6.21441e-118
8.05708e-120
3.58228e-117
9.00657e-115
1.56116e-112
2.05188e-110
2.16148e-108
1.89277e-106
1.41439e-104
9.2067e-103
5.3027e-101
2.72754e-99
1.27184e-97
5.4219e-96
2.13271e-94
7.76517e-93
2.65257e-91
8.49946e-90
2.58621e-88
7.47579e-87
2.07139e-85
5.52507e-84
1.41993e-82
3.5353e-81
8.57842e-80
2.05079e-78
4.91615e-77
1.21988e-75
3.23189e-74
8.93338e-73
2.3337e-71
5.09868e-70
8.34985e-69
9.09259e-68
5.63648e-67
1.6748e-66
2.38236e-66
1.83728e-66
8.68762e-67
2.76797e-67
6.37127e-68
1.11583e-68
1.54586e-69
1.74453e-70
1.63939e-71
1.30406e-72
8.88723e-74
5.23509e-75
2.68151e-76
1.19921e-77
4.69333e-79
1.60856e-80
4.82325e-82
1.2621e-83
2.86872e-85
5.64765e-87
9.63791e-89
1.41105e-90
1.71735e-92
1.64257e-94
1.16203e-96
6.25933e-99
2.682e-101
8.68892e-104
1.75593e-106
1.31353e-109
2.698e-107
3.48089e-104
1.66922e-101
5.03126e-99
1.16171e-96
2.17819e-94
3.16198e-92
3.2104e-90
2.53317e-88
1.67629e-86
9.54122e-85
4.71198e-83
2.01244e-81
7.4713e-80
2.42132e-78
6.86601e-77
1.70427e-75
3.69879e-74
6.99914e-73
1.14927e-71
1.62615e-70
1.96364e-69
1.99746e-68
1.68222e-67
1.14601e-66
6.12022e-66
2.45473e-65
6.96871e-65
1.28863e-64
1.38031e-64
7.31946e-65
1.6719e-65
1.79776e-66
1.16039e-67
5.84013e-69
2.74443e-70
1.33712e-71
6.9086e-73
3.64022e-74
1.89729e-75
9.63882e-77
4.71489e-78
2.2049e-79
9.81276e-81
4.13984e-82
1.64751e-83
6.16094e-85
2.1598e-86
7.07458e-88
2.15631e-89
6.08994e-91
1.58342e-92
3.76526e-94
8.11959e-96
1.57054e-97
2.68849e-99
4.00353e-101
5.06957e-103
5.28996e-105
4.34242e-107
2.59995e-109
9.80589e-112
1.53925e-114
1.62897e-116
7.19303e-114
1.78553e-111
3.04457e-109
3.9293e-107
4.06266e-105
3.48945e-103
2.55237e-101
1.62671e-99
9.16359e-98
4.61417e-96
2.10174e-94
8.72562e-93
3.33587e-91
1.1801e-89
3.89856e-88
1.20728e-86
3.5278e-85
9.78714e-84
2.59325e-82
6.60123e-81
1.61632e-79
3.83572e-78
8.88469e-77
2.0244e-75
4.6206e-74
1.08897e-72
2.74552e-71
7.33543e-70
1.88528e-68
4.03898e-67
6.37528e-66
6.49998e-65
3.61192e-64
9.30821e-64
1.15742e-63
7.9684e-64
3.43273e-64
1.01367e-64
2.1935e-65
3.65451e-66
4.86455e-67
5.31904e-68
4.87748e-69
3.80874e-70
2.56123e-71
1.49528e-72
7.62043e-74
3.40246e-75
1.3336e-76
4.59048e-78
1.38601e-79
3.6606e-81
8.41769e-83
1.68347e-84
2.9313e-86
4.39687e-88
5.53042e-90
5.48936e-92
3.85915e-94
2.08295e-96
9.03772e-99
2.98367e-101
6.1678e-104
4.73707e-107
7.47164e-105
9.34572e-102
4.35827e-99
1.28135e-96
2.90416e-94
5.44246e-92
7.57463e-90
7.40728e-88
5.69698e-86
3.69508e-84
2.07032e-82
1.00983e-80
4.27486e-79
1.57673e-77
5.08958e-76
1.44152e-74
3.58489e-73
7.82191e-72
1.49379e-70
2.48628e-69
3.58352e-68
4.43278e-67
4.64926e-66
4.06814e-65
2.90594e-64
1.64555e-63
7.09635e-63
2.20437e-62
4.5608e-62
5.6204e-62
3.53196e-62
9.61036e-63
1.17077e-63
8.19482e-65
4.38645e-66
2.18266e-67
1.14746e-68
6.44086e-70
3.68801e-71
2.09628e-72
1.16932e-73
6.2898e-75
3.23492e-76
1.5838e-77
7.33668e-79
3.19889e-80
1.31001e-81
5.02685e-83
1.80219e-84
6.01444e-86
1.85987e-87
5.29877e-89
1.38104e-90
3.26439e-92
6.92315e-94
1.2999e-95
2.12443e-97
2.95537e-99
3.3941e-101
3.07684e-103
2.04779e-105
8.71473e-108
1.62945e-110
1.05489e-112
4.50589e-110
1.06899e-107
1.71915e-105
2.07686e-103
1.99899e-101
1.59284e-99
1.07956e-97
6.35085e-96
3.29429e-94
1.5259e-92
6.37805e-91
2.42733e-89
8.47736e-88
2.73601e-86
8.21355e-85
2.30748e-83
6.10223e-82
1.53659e-80
3.71247e-79
8.65121e-78
1.946e-76
4.23369e-75
8.97728e-74
1.87453e-72
3.92757e-71
8.50783e-70
1.97156e-68
4.90936e-67
1.20168e-65
2.45697e-64
3.64661e-63
3.3984e-62
1.65346e-61
3.65026e-61
3.95068e-61
2.42459e-61
9.51095e-62
2.6025e-62
5.29358e-63
8.38865e-64
1.07258e-64
1.13585e-65
1.01575e-66
7.78037e-68
5.15755e-69
2.98082e-70
1.50946e-71
6.7187e-73
2.63294e-74
9.08553e-76
2.75662e-77
7.33199e-79
1.70221e-80
3.45139e-82
6.11629e-84
9.3666e-86
1.21094e-87
1.24978e-89
9.1343e-92
4.99242e-94
2.22018e-96
7.54969e-99
1.61135e-101
1.28121e-104
1.63997e-102
1.97148e-99
8.86354e-97
2.51772e-94
5.53815e-92
1.02527e-89
1.35569e-87
1.28349e-85
9.64829e-84
6.14519e-82
3.39344e-80
1.63629e-78
6.86993e-77
2.51849e-75
8.09942e-74
2.29155e-72
5.70932e-71
1.25211e-69
2.41242e-68
4.06795e-67
5.96872e-66
7.5575e-65
8.16535e-64
7.41504e-63
5.54634e-62
3.32482e-61
1.53857e-60
5.21725e-60
1.20454e-59
1.7036e-59
1.26926e-59
4.16403e-60
5.86634e-61
4.5512e-62
2.66068e-63
1.44602e-64
8.44974e-66
5.27974e-67
3.37795e-68
2.17021e-69
1.36122e-70
8.22926e-72
4.72291e-73
2.56253e-74
1.31195e-75
6.32758e-77
2.86973e-78
1.22103e-79
4.85951e-81
1.80205e-82
6.19631e-84
1.96373e-85
5.69409e-87
1.49726e-88
3.53177e-90
7.37426e-92
1.34024e-93
2.07443e-95
2.65439e-97
2.6894e-99
2.01415e-101
9.80651e-104
2.22852e-106
8.48446e-109
3.40474e-106
7.69989e-104
1.16357e-101
1.31087e-99
1.17096e-97
8.62984e-96
5.39571e-94
2.92199e-92
1.3927e-90
5.91793e-89
2.26573e-87
7.88614e-86
2.51487e-84
7.39904e-83
2.02117e-81
5.15697e-80
1.23604e-78
2.7984e-77
6.01606e-76
1.23413e-74
2.42864e-73
4.68098e-72
8.87382e-71
1.65233e-69
3.08466e-68
5.96034e-67
1.23587e-65
2.78526e-64
6.31184e-63
1.20488e-61
1.64915e-60
1.37882e-59
5.76794e-59
1.08291e-58
1.01889e-58
5.5773e-59
1.99429e-59
5.06258e-60
9.69047e-61
1.46217e-61
1.79749e-62
1.84501e-63
1.61002e-64
1.21024e-65
7.91086e-67
4.52698e-68
2.27793e-69
1.0107e-70
3.95934e-72
1.36923e-73
4.1729e-75
1.11714e-76
2.6179e-78
5.37842e-80
9.68506e-82
1.51209e-83
2.00432e-85
2.14063e-87
1.6472e-89
9.18342e-92
4.22994e-94
1.4936e-96
3.31574e-99
2.74863e-102
2.95998e-100
3.4013e-97
1.46643e-94
4.00281e-92
8.47215e-90
1.52396e-87
1.92483e-85
1.76832e-83
1.30078e-81
8.14368e-80
4.43498e-78
2.11496e-76
8.80645e-75
3.20833e-73
1.02769e-71
2.90333e-70
7.24288e-69
1.59548e-67
3.09864e-66
5.28853e-65
7.89066e-64
1.02145e-62
1.13533e-61
1.06842e-60
8.35415e-60
5.29117e-59
2.62144e-58
9.67829e-58
2.48609e-57
4.02345e-57
3.5503e-57
1.41605e-57
2.35196e-58
2.05937e-59
1.34414e-60
8.19783e-62
5.44278e-63
3.86415e-64
2.83383e-65
2.07714e-66
1.48058e-67
1.00424e-68
6.45557e-70
3.92564e-71
2.25497e-72
1.22167e-73
6.22974e-75
2.98214e-76
1.33539e-77
5.56938e-79
2.15183e-80
7.65314e-82
2.48673e-83
7.31645e-85
1.92856e-86
4.49579e-88
9.12017e-90
1.57668e-91
2.25797e-93
2.57125e-95
2.18214e-97
1.22567e-99
3.40375e-102
8.15079e-105
2.82609e-102
6.05975e-100
8.55118e-98
8.93065e-96
7.36326e-94
4.99381e-92
2.86655e-90
1.42226e-88
6.19893e-87
2.40412e-85
8.38446e-84
2.6529e-82
7.67381e-81
2.04309e-79
5.03774e-78
1.15712e-76
2.48973e-75
5.04607e-74
9.68596e-73
1.77013e-71
3.09499e-70
5.20013e-69
8.48589e-68
1.38537e-66
2.25847e-65
3.79869e-64
6.89853e-63
1.37185e-61
2.80142e-60
4.89705e-59
6.07803e-58
4.4862e-57
1.58966e-56
2.5274e-56
2.06808e-56
1.01131e-56
3.30234e-57
7.79132e-58
1.4059e-58
2.0231e-59
2.39472e-60
2.38558e-61
2.03373e-62
1.50172e-63
9.68754e-65
5.49288e-66
2.74815e-67
1.21606e-68
4.76395e-70
1.65154e-71
5.05666e-73
1.36267e-74
3.22379e-76
6.70835e-78
1.2268e-79
1.95159e-81
2.64916e-83
2.9214e-85
2.35752e-87
1.35687e-89
6.51719e-92
2.40656e-94
5.59552e-97
4.8709e-100
4.50333e-98
4.9203e-95
2.02413e-92
5.28698e-90
1.07232e-87
1.85709e-85
2.24594e-83
2.00422e-81
1.44343e-79
8.88713e-78
4.77467e-76
2.25219e-74
9.29738e-73
3.36467e-71
1.07291e-69
3.02459e-68
7.54908e-67
1.66873e-65
3.26334e-64
5.63036e-63
8.531e-62
1.12738e-60
1.28705e-59
1.25295e-58
1.02217e-57
6.82512e-57
3.61122e-56
1.44744e-55
4.12331e-55
7.60992e-55
7.93507e-55
3.86779e-55
7.71542e-56
7.74986e-57
5.75589e-58
4.0258e-59
3.09257e-60
2.53886e-61
2.16466e-62
1.83269e-63
1.48783e-64
1.14796e-65
8.39651e-67
5.8114e-68
3.79929e-69
2.34128e-70
1.35643e-71
7.36433e-73
3.73234e-74
1.75778e-75
7.65238e-77
3.06088e-78
1.11704e-79
3.68898e-81
1.0917e-82
2.86058e-84
6.5374e-86
1.27756e-87
2.07817e-89
2.70625e-91
2.65346e-93
1.75414e-95
6.0346e-98
1.0904e-100
2.76866e-98
5.50576e-96
7.09444e-94
6.72491e-92
5.02058e-90
3.08099e-88
1.60037e-86
7.18762e-85
2.83659e-83
9.96198e-82
3.14524e-80
9.00281e-79
2.35296e-77
5.65023e-76
1.25363e-74
2.58344e-73
4.97005e-72
8.97168e-71
1.52759e-69
2.46653e-68
3.79697e-67
5.60097e-66
7.95447e-65
1.10181e-63
1.54922e-62
2.22922e-61
3.46428e-60
5.93837e-59
1.06728e-57
1.67756e-56
1.85958e-55
1.19351e-54
3.53868e-54
4.75462e-54
3.38848e-54
1.4836e-54
4.43444e-55
9.74563e-56
1.66128e-56
2.2844e-57
2.6083e-58
2.52584e-59
2.10666e-60
1.53003e-61
9.75192e-63
5.48422e-64
2.73054e-65
1.20597e-66
4.72774e-68
1.64397e-69
5.05925e-71
1.37288e-72
3.27974e-74
6.91221e-76
1.28376e-77
2.08025e-79
2.8907e-81
3.28856e-83
2.77741e-85
1.66459e-87
8.38199e-90
3.24853e-92
7.93986e-95
7.28477e-98
5.86041e-96
6.06713e-93
2.37417e-90
5.91404e-88
1.14504e-85
1.89919e-83
2.20261e-81
1.91025e-79
1.34728e-77
8.15984e-76
4.32532e-74
2.01822e-72
8.25614e-71
2.96631e-69
9.40984e-68
2.64489e-66
6.59848e-65
1.4621e-63
2.87548e-62
5.00828e-61
7.6943e-60
1.0363e-58
1.21295e-57
1.21915e-56
1.03549e-55
7.27168e-55
4.09788e-54
1.77767e-53
5.59615e-53
1.17327e-52
1.44098e-52
8.60431e-53
2.09786e-53
2.45157e-54
2.10765e-55
1.72418e-56
1.55758e-57
1.50879e-58
1.51282e-59
1.48886e-60
1.39756e-61
1.24511e-62
1.04958e-63
8.35054e-65
6.25612e-66
4.40334e-67
2.90443e-68
1.79036e-69
1.02814e-70
5.4806e-72
2.70044e-73
1.22377e-74
5.07001e-76
1.90612e-77
6.44367e-79
1.936e-80
5.09299e-82
1.15023e-83
2.17128e-85
3.29714e-87
3.79636e-89
2.98771e-91
1.27379e-93
2.1788e-96
3.53356e-94
6.44303e-92
7.45448e-90
6.28162e-88
4.14624e-86
2.24315e-84
1.02605e-82
4.05886e-81
1.41251e-79
4.38248e-78
1.2251e-76
3.11195e-75
7.23286e-74
1.547e-72
3.05979e-71
5.62054e-70
9.6269e-69
1.54358e-67
2.32644e-66
3.31055e-65
4.46937e-64
5.75354e-63
7.09886e-62
8.44174e-61
9.964e-60
1.21173e-58
1.57775e-57
2.28282e-56
3.52883e-55
4.89933e-54
4.77796e-53
2.62661e-52
6.45314e-52
7.32497e-52
4.55721e-52
1.79147e-52
4.91477e-53
1.00874e-53
1.62836e-54
2.14444e-55
2.36663e-56
2.23196e-57
1.82423e-58
1.30507e-59
8.22932e-61
4.59561e-62
2.27947e-63
1.00579e-64
3.94908e-66
1.37839e-67
4.26635e-69
1.16644e-70
2.81492e-72
6.00852e-74
1.13319e-75
1.87074e-77
2.66061e-79
3.12122e-81
2.75537e-83
1.72785e-85
9.1465e-88
3.72932e-90
9.61362e-93
9.33157e-96
6.62796e-94
6.47263e-91
2.3983e-88
5.67515e-86
1.04715e-83
1.65717e-81
1.84428e-79
1.55466e-77
1.07389e-75
6.3992e-74
3.34703e-72
1.54468e-70
6.25809e-69
2.23075e-67
7.03448e-66
1.9697e-64
4.90687e-63
1.0886e-61
2.15021e-60
3.77489e-59
5.87045e-58
8.04326e-57
9.63309e-56
9.97545e-55
8.8005e-54
6.48308e-53
3.87991e-52
1.81557e-51
6.29194e-51
1.49211e-50
2.14954e-50
1.57227e-50
4.75946e-51
6.55306e-52
6.62717e-53
6.46661e-54
6.98803e-55
8.13593e-56
9.73464e-57
1.12639e-57
1.23667e-58
1.2813e-59
1.24881e-60
1.14288e-61
9.8107e-63
7.8934e-64
5.94758e-65
4.19197e-66
2.75877e-67
1.69071e-68
9.61255e-70
5.0445e-71
2.42752e-72
1.06243e-73
4.18619e-75
1.46657e-76
4.4979e-78
1.18399e-79
2.60572e-81
4.62109e-83
6.24368e-85
5.83424e-87
3.05829e-89
5.68798e-92
5.21137e-90
8.77568e-88
9.17611e-86
6.91451e-84
4.05258e-82
1.93591e-80
7.78096e-79
2.69293e-77
8.16884e-76
2.20271e-74
5.34094e-73
1.17574e-71
2.3689e-70
4.39812e-69
7.56736e-68
1.21235e-66
1.81563e-65
2.55028e-64
3.36989e-63
4.20141e-62
4.95795e-61
5.55754e-60
5.9412e-59
6.08464e-58
6.02475e-57
6.11459e-56
6.55924e-55
7.85342e-54
1.02057e-52
1.22861e-51
1.03851e-50
4.81401e-50
9.73009e-50
9.34113e-50
5.0888e-50
1.8019e-50
4.55132e-51
8.7493e-52
1.34105e-52
1.69554e-53
1.81269e-54
1.66824e-55
1.33857e-56
9.4482e-58
5.90277e-59
3.27764e-60
1.62153e-61
7.15551e-63
2.8165e-64
9.8759e-66
3.07656e-67
8.48033e-69
2.06784e-70
4.4709e-72
8.56341e-74
1.44044e-75
2.09679e-77
2.53611e-79
2.33824e-81
1.53856e-83
8.5766e-86
3.69399e-88
1.00782e-90
1.03847e-93
6.52732e-92
6.0026e-89
2.10275e-86
4.72039e-84
8.28386e-82
1.2481e-79
1.33331e-77
1.09235e-75
7.38986e-74
4.3327e-72
2.23608e-70
1.02059e-68
4.09237e-67
1.44626e-65
4.52997e-64
1.26243e-62
3.13707e-61
6.95977e-60
1.37871e-58
2.43583e-57
3.82756e-56
5.3244e-55
6.51102e-54
6.93045e-53
6.33483e-52
4.8819e-51
3.09308e-50
1.55573e-49
5.91084e-49
1.57804e-48
2.65332e-48
2.37204e-48
9.02959e-49
1.48256e-49
1.79388e-50
2.13286e-51
2.81616e-52
4.01446e-53
5.78088e-54
7.90981e-55
1.01658e-55
1.22337e-56
1.37839e-57
1.45604e-58
1.44443e-59
1.34729e-60
1.18179e-61
9.73667e-63
7.51451e-64
5.41035e-65
3.61457e-66
2.2264e-67
1.25501e-68
6.41944e-70
2.95048e-71
1.20436e-72
4.30366e-74
1.32168e-75
3.40322e-77
7.09467e-79
1.13524e-80
1.27286e-82
8.25913e-85
1.88146e-87
8.92862e-86
1.35536e-83
1.25373e-81
8.30699e-80
4.27347e-78
1.79168e-76
6.32251e-75
1.92135e-73
5.1145e-72
1.20836e-70
2.56066e-69
4.90963e-68
8.58055e-67
1.37592e-65
2.03636e-64
2.79682e-63
3.58277e-62
4.30073e-61
4.85828e-60
5.1844e-59
5.24401e-58
5.04304e-57
4.62369e-56
4.05263e-55
3.40915e-54
2.85066e-53
2.49898e-52
2.4307e-51
2.5968e-50
2.65679e-49
1.91723e-48
7.37307e-48
1.22037e-47
9.9327e-48
4.75564e-48
1.52239e-48
3.55256e-49
6.41678e-50
9.36608e-51
1.13992e-51
1.18341e-52
1.0651e-53
8.40633e-55
5.86442e-56
3.63569e-57
2.01016e-58
9.93149e-60
4.38798e-61
1.73317e-62
6.11052e-64
1.91736e-65
5.33192e-67
1.31408e-68
2.87817e-70
5.59968e-72
9.59889e-74
1.43031e-75
1.78365e-77
1.71691e-79
1.18797e-81
6.98733e-84
3.18139e-86
9.20062e-89
1.00833e-91
5.6415e-90
4.87303e-87
1.61014e-84
3.42271e-82
5.70928e-80
8.1783e-78
8.3897e-76
6.68006e-74
4.42598e-72
2.55328e-70
1.30019e-68
5.86765e-67
2.32713e-65
8.14769e-64
2.53277e-62
7.01848e-61
1.73784e-59
3.85079e-58
7.63965e-57
1.35606e-55
2.14904e-54
3.0288e-53
3.77308e-52
4.11788e-51
3.88931e-50
3.1262e-49
2.08995e-48
1.12558e-47
4.66781e-47
1.39572e-46
2.7234e-46
2.96334e-46
1.43137e-46
2.83986e-47
4.1913e-48
6.20939e-49
1.02209e-49
1.80329e-50
3.11614e-51
5.03733e-52
7.5932e-53
1.07001e-53
1.41532e-54
1.76333e-55
2.07302e-56
2.29911e-57
2.40061e-58
2.35209e-59
2.15364e-60
1.83444e-61
1.44647e-62
1.05015e-63
6.97683e-65
4.21086e-66
2.28836e-67
1.10738e-68
4.70484e-70
1.72302e-71
5.30691e-73
1.328e-74
2.56351e-76
3.49951e-78
2.83063e-80
8.30616e-83
2.08847e-81
2.78649e-79
2.21303e-77
1.24681e-75
5.43027e-74
1.92511e-72
5.75033e-71
1.4833e-69
3.36503e-68
6.80718e-67
1.24093e-65
2.05511e-64
3.11132e-63
4.32707e-62
5.55015e-61
6.58818e-60
7.26076e-59
7.45427e-58
7.15552e-57
6.44952e-56
5.48451e-55
4.42282e-54
3.39926e-53
2.50057e-52
1.76644e-51
1.21283e-50
8.66696e-50
6.76161e-49
5.82401e-48
4.95946e-47
3.0102e-46
9.44824e-46
1.27804e-45
8.85049e-46
3.74032e-46
1.08697e-46
2.35226e-47
4.00595e-48
5.58582e-49
6.563e-50
6.6332e-51
5.85189e-52
4.55236e-53
3.1446e-54
1.93776e-55
1.06838e-56
5.27833e-58
2.33766e-59
9.27491e-61
3.2908e-62
1.0409e-63
2.92226e-65
7.28143e-67
1.6157e-68
3.1934e-70
5.57934e-72
8.51031e-74
1.09417e-75
1.09928e-77
8.01144e-80
4.97797e-82
2.39857e-84
7.36145e-87
8.59183e-90
4.29042e-88
3.48086e-85
1.08484e-82
2.18245e-80
3.45242e-78
4.69295e-76
4.62313e-74
3.57711e-72
2.32129e-70
1.31778e-68
6.62158e-67
2.95331e-65
1.15772e-63
4.01265e-62
1.23691e-60
3.40499e-59
8.39207e-58
1.855e-56
3.68033e-55
6.55232e-54
1.04522e-52
1.48922e-51
1.88527e-50
2.10408e-49
2.04753e-48
1.71114e-47
1.20275e-46
6.90793e-46
3.11211e-45
1.03643e-44
2.33186e-44
3.07011e-44
1.89042e-44
4.61445e-45
8.49642e-46
1.59864e-46
3.31449e-47
7.20548e-48
1.48979e-48
2.86187e-49
5.1316e-50
8.64213e-51
1.37271e-51
2.05942e-52
2.91594e-53
3.88846e-54
4.87105e-55
5.71643e-56
6.26632e-57
6.39487e-58
6.05089e-59
5.28178e-60
4.22661e-61
3.07682e-62
2.01841e-63
1.17945e-64
6.05137e-66
2.67642e-67
9.95982e-69
3.01535e-70
7.06447e-72
1.17897e-73
1.18851e-75
4.57299e-78
6.51136e-77
7.62116e-75
5.18645e-73
2.47748e-71
9.08955e-70
2.70174e-68
6.74129e-67
1.44838e-65
2.73127e-64
4.58833e-63
6.94853e-62
9.5767e-61
1.21042e-59
1.41144e-58
1.52531e-57
1.53263e-56
1.43493e-55
1.25354e-54
1.02286e-53
7.80554e-53
5.58229e-52
3.75483e-51
2.3882e-50
1.44627e-49
8.39965e-49
4.71314e-48
2.70245e-47
1.67565e-46
1.14678e-45
7.97462e-45
4.01396e-44
1.01272e-43
1.12006e-43
6.63033e-44
2.48552e-44
6.58716e-45
1.32745e-45
2.13952e-46
2.85964e-47
3.25348e-48
3.21005e-49
2.78263e-50
2.13825e-51
1.46532e-52
8.99041e-54
4.95039e-55
2.44895e-56
1.08845e-57
4.34237e-59
1.55188e-60
4.95207e-62
1.40461e-63
3.53918e-65
7.95669e-67
1.59759e-68
2.84517e-70
4.44197e-72
5.88689e-74
6.1689e-76
4.73564e-78
3.1079e-80
1.58824e-82
5.1836e-85
6.45897e-88
2.88204e-86
2.19069e-83
6.42675e-81
1.22166e-78
1.83542e-76
2.36706e-74
2.24052e-72
1.68484e-70
1.07101e-68
5.98453e-67
2.96802e-65
1.30739e-63
5.06222e-62
1.73563e-60
5.3009e-59
1.44827e-57
3.5492e-56
7.81648e-55
1.54867e-53
2.76085e-52
4.42436e-51
6.35828e-50
8.15897e-49
9.28552e-48
9.28113e-47
8.03696e-46
5.91713e-45
3.60858e-44
1.7572e-43
6.47884e-43
1.6689e-42
2.63901e-42
2.0716e-42
6.38791e-43
1.51203e-43
3.68494e-44
9.6982e-45
2.59801e-45
6.5216e-46
1.52315e-46
3.32786e-47
6.82719e-48
1.3176e-48
2.39405e-49
4.09643e-50
6.59965e-51
1.00031e-51
1.42413e-52
1.8996e-53
2.3656e-54
2.73786e-55
2.9284e-56
2.87505e-57
2.56985e-58
2.07089e-59
1.48671e-60
9.37041e-62
5.09034e-63
2.32663e-64
8.65649e-66
2.4972e-67
5.1584e-69
6.53355e-71
3.32816e-73
3.04318e-72
3.0644e-70
1.75126e-68
6.94511e-67
2.10044e-65
5.12129e-64
1.04463e-62
1.83081e-61
2.81315e-60
3.85002e-59
4.75224e-58
5.34365e-57
5.51728e-56
5.26348e-55
4.6623e-54
3.84901e-53
2.97e-52
2.14634e-51
1.45448e-50
9.24678e-50
5.51507e-49
3.08618e-48
1.62212e-47
8.03531e-47
3.7763e-46
1.70115e-45
7.6419e-45
3.69181e-44
1.97737e-43
1.09958e-42
4.52765e-42
9.06734e-42
8.22343e-42
4.18491e-42
1.39933e-42
3.39904e-43
6.40748e-44
9.81343e-45
1.26184e-45
1.39465e-46
1.34714e-47
1.15035e-48
8.75116e-50
5.96132e-51
3.64805e-52
2.00918e-53
9.96562e-55
4.45014e-56
1.78697e-57
6.43831e-59
2.07426e-60
5.94842e-62
1.51612e-63
3.45344e-65
7.04378e-67
1.2787e-68
2.04311e-70
2.79068e-72
3.04928e-74
2.46848e-76
1.71354e-78
9.2802e-81
3.21837e-83
4.27738e-86
1.70816e-84
1.21746e-81
3.3641e-79
6.04318e-77
8.61622e-75
1.0534e-72
9.5835e-71
7.00566e-69
4.36383e-67
2.40049e-65
1.17529e-63
5.10903e-62
1.95264e-60
6.61757e-59
2.00084e-57
5.42041e-56
1.31945e-54
2.89179e-53
5.7137e-52
1.01827e-50
1.63612e-49
2.36616e-48
3.06951e-47
3.55165e-46
3.63433e-45
3.24922e-44
2.49559e-43
1.60861e-42
8.42123e-42
3.41548e-41
9.99481e-41
1.88152e-40
1.87473e-40
7.5235e-41
2.33994e-41
7.43068e-42
2.48964e-42
8.29739e-43
2.57099e-43
7.40094e-44
1.9879e-44
5.00451e-45
1.18574e-45
2.65267e-46
5.61357e-47
1.12406e-47
2.12732e-48
3.79582e-49
6.3629e-50
9.97381e-51
1.45363e-51
1.95668e-52
2.41369e-53
2.70438e-54
2.72403e-55
2.43717e-56
1.90899e-57
1.28572e-58
7.27392e-60
3.34794e-61
1.19611e-62
3.0732e-64
4.90248e-66
3.29174e-68
2.05336e-67
1.7616e-65
8.38353e-64
2.73755e-62
6.76386e-61
1.33841e-59
2.20219e-58
3.09549e-57
3.79494e-56
4.12576e-55
4.03307e-54
3.58671e-53
2.93095e-52
2.21896e-51
1.56652e-50
1.03609e-49
6.43907e-49
3.76604e-48
2.07397e-47
1.07529e-46
5.24621e-46
2.4069e-45
1.03754e-44
4.20025e-44
1.59854e-43
5.74734e-43
1.99252e-42
7.31259e-42
2.99169e-41
1.29378e-40
4.29298e-40
6.76757e-40
5.05916e-40
2.22823e-40
6.6871e-41
1.49698e-41
2.65267e-42
3.87737e-43
4.81484e-44
5.18731e-45
4.92013e-46
4.14954e-47
3.13235e-48
2.12531e-49
1.29948e-50
7.1694e-52
3.57007e-53
1.60352e-54
6.48732e-56
2.35838e-57
7.67719e-59
2.22753e-60
5.74501e-62
1.32564e-63
2.74685e-65
5.08136e-67
8.30729e-69
1.16889e-70
1.33059e-72
1.13482e-74
8.31421e-77
4.76791e-79
1.75751e-81
2.49383e-84
8.9263e-83
5.96225e-80
1.55176e-77
2.63786e-75
3.57478e-73
4.14452e-71
3.62709e-69
2.57884e-67
1.57474e-65
8.5292e-64
4.12463e-62
1.76748e-60
6.66345e-59
2.23054e-57
6.67092e-56
1.79031e-54
4.32442e-53
9.42104e-52
1.85384e-50
3.29754e-49
5.3022e-48
7.69884e-47
1.00695e-45
1.1809e-44
1.23282e-43
1.13357e-42
9.04373e-42
6.13134e-41
3.43109e-40
1.52026e-39
5.01148e-39
1.11181e-38
1.3944e-38
7.44119e-39
3.06675e-39
1.27645e-39
5.52262e-40
2.32128e-40
9.00708e-41
3.23869e-41
1.08723e-41
3.43231e-42
1.02477e-42
2.90448e-43
7.82935e-44
2.00746e-44
4.88738e-45
1.12577e-45
2.44044e-46
4.9459e-47
9.30007e-48
1.60926e-48
2.54024e-49
3.62394e-50
4.62477e-51
5.21824e-52
5.13384e-53
4.32853e-54
3.05809e-55
1.75531e-56
7.82226e-58
2.51433e-59
5.06718e-61
4.46078e-63
2.08984e-62
1.51793e-60
5.99124e-59
1.60566e-57
3.23227e-56
5.17783e-55
6.85378e-54
7.6997e-53
7.49165e-52
6.41606e-51
4.90278e-50
3.38272e-49
2.13026e-48
1.23677e-47
6.6808e-47
3.38515e-46
1.61942e-45
7.34617e-45
3.16598e-44
1.29572e-43
5.02504e-43
1.84112e-42
6.35379e-42
2.06031e-41
6.26786e-41
1.78896e-40
4.81595e-40
1.31741e-39
3.97455e-39
1.2942e-38
3.39468e-38
4.20006e-38
2.60711e-38
1.00145e-38
2.71601e-39
5.63721e-40
9.43959e-41
1.32295e-41
1.59299e-42
1.67887e-43
1.56848e-44
1.31002e-45
9.83539e-47
6.66029e-48
4.07584e-49
2.25593e-50
1.12921e-51
5.10701e-53
2.08357e-54
7.64911e-56
2.51784e-57
7.3968e-59
1.93132e-60
4.51434e-62
9.49726e-64
1.78993e-65
2.99262e-67
4.3351e-69
5.1373e-71
4.61541e-73
3.57191e-75
2.17073e-77
8.50246e-80
1.28753e-82
4.12785e-81
2.5856e-78
6.34168e-76
1.01884e-73
1.31192e-71
1.44355e-69
1.21624e-67
8.41701e-66
5.04288e-64
2.69038e-62
1.28579e-60
5.42551e-59
2.01636e-57
6.6618e-56
1.96913e-54
5.2306e-53
1.25245e-51
2.70922e-50
5.30259e-49
9.39981e-48
1.50973e-46
2.19601e-45
2.88799e-44
3.42193e-43
3.6314e-42
3.42014e-41
2.82142e-40
2.00147e-39
1.18997e-38
5.71812e-38
2.10414e-37
5.43949e-37
8.48551e-37
6.08973e-37
3.3311e-37
1.83106e-37
1.02974e-37
5.48038e-38
2.68228e-38
1.22028e-38
5.21999e-39
2.11885e-39
8.21492e-40
3.05473e-40
1.09091e-40
3.73433e-41
1.21894e-41
3.76494e-42
1.09052e-42
2.93477e-43
7.2723e-44
1.64511e-44
3.36896e-45
6.19197e-46
1.01186e-46
1.45443e-47
1.81507e-48
1.93465e-49
1.72362e-50
1.2458e-51
6.99045e-53
2.83587e-54
7.27064e-56
8.37765e-58
2.91255e-57
1.77454e-55
5.77109e-54
1.26229e-52
2.05999e-51
2.65927e-50
2.81963e-49
2.52111e-48
1.93851e-47
1.30163e-46
7.72935e-46
4.10417e-45
1.96868e-44
8.61715e-44
3.47774e-43
1.30819e-42
4.63654e-42
1.56352e-41
5.05213e-41
1.569e-40
4.67652e-40
1.33121e-39
3.59546e-39
9.15688e-39
2.1892e-38
4.90271e-38
1.0292e-37
2.10359e-37
4.60454e-37
1.09429e-36
2.21909e-36
2.16133e-36
1.12448e-36
3.80013e-37
9.38441e-38
1.81772e-38
2.89265e-39
3.90617e-40
4.58035e-41
4.7396e-42
4.3753e-43
3.62881e-44
2.716e-45
1.83924e-46
1.12841e-47
6.27452e-49
3.16083e-50
1.4409e-51
5.9336e-53
2.20154e-54
7.3333e-56
2.1828e-57
5.77402e-59
1.36699e-60
2.91847e-62
5.60009e-64
9.56967e-66
1.42573e-67