/*--------------------------------*- C++ -*----------------------------------*\
| =========                 |                                                 |
| \\      /  F ield         | OpenFOAM: The Open Source CFD Toolbox           |
|  \\    /   O peration     | Version:  2212                                  |
|   \\  /    A nd           | Website:  www.openfoam.com                      |
|    \\/     M anipulation  |                                                 |
\*---------------------------------------------------------------------------*/
FoamFile
{
    version     2.0;
    format      ascii;
    arch        "LSB;label=64;scalar=64";
    class       surfaceScalarField;
    location    "0.29";
    object      phi;
}
// * * * * * * * * * * * * * * * * * * * * * * * * * * * * * * * * * * * * * //

dimensions      [0 3 -1 0 0 0 0];

oriented        oriented;

internalField   nonuniform List<scalar> 
65152
(
-2.11827e-12
2.11827e-12
-6.23545e-12
4.11718e-12
-1.04979e-11
4.26241e-12
-1.4199e-11
3.70114e-12
-1.73415e-11
3.14253e-12
-2.01278e-11
2.7863e-12
-2.27249e-11
2.59706e-12
-2.52226e-11
2.49774e-12
-2.76577e-11
2.43508e-12
-3.00406e-11
2.38289e-12
-3.23714e-11
2.33078e-12
-3.46466e-11
2.27522e-12
-3.6862e-11
2.21535e-12
-3.9013e-11
2.15105e-12
-4.10954e-11
2.0824e-12
-4.31047e-11
2.00932e-12
-4.50367e-11
1.93198e-12
-4.68872e-11
1.85045e-12
-4.86514e-11
1.76426e-12
-5.03257e-11
1.67429e-12
-5.19057e-11
1.57996e-12
-5.33873e-11
1.48159e-12
-5.47657e-11
1.37842e-12
-5.60368e-11
1.27118e-12
-5.71966e-11
1.15976e-12
-5.8241e-11
1.04443e-12
-5.91658e-11
9.24722e-13
-5.99665e-11
8.00749e-13
-6.06391e-11
6.72597e-13
-6.11794e-11
5.40274e-13
-6.15831e-11
4.03754e-13
-6.18457e-11
2.62541e-13
-6.19639e-11
1.18226e-13
-6.19346e-11
-2.9311e-14
-6.17546e-11
-1.79954e-13
-6.14227e-11
-3.31907e-13
-6.09381e-11
-4.84564e-13
-6.03006e-11
-6.37527e-13
-5.951e-11
-7.90643e-13
-5.85655e-11
-9.44512e-13
-5.74679e-11
-1.09761e-12
-5.62179e-11
-1.25e-12
-5.48165e-11
-1.40142e-12
-5.3265e-11
-1.55146e-12
-5.15654e-11
-1.69959e-12
-4.97196e-11
-1.84579e-12
-4.77312e-11
-1.98846e-12
-4.56035e-11
-2.12771e-12
-4.33406e-11
-2.2629e-12
-4.09475e-11
-2.39312e-12
-3.84292e-11
-2.51829e-12
-3.57919e-11
-2.63732e-12
-3.30419e-11
-2.74996e-12
-3.01861e-11
-2.85581e-12
-2.72324e-11
-2.95373e-12
-2.41888e-11
-3.04359e-12
-2.10639e-11
-3.12497e-12
-1.78665e-11
-3.1974e-12
-1.4606e-11
-3.26045e-12
-1.12922e-11
-3.31385e-12
-7.93486e-12
-3.35731e-12
-4.54456e-12
-3.3903e-12
-1.13292e-12
-3.41164e-12
2.28686e-12
-3.41978e-12
5.70107e-12
-3.41421e-12
9.09731e-12
-3.39623e-12
1.2465e-11
-3.36774e-12
1.57949e-11
-3.32985e-12
1.90777e-11
-3.28284e-12
2.23046e-11
-3.22689e-12
2.54667e-11
-3.16203e-12
2.85551e-11
-3.08839e-12
3.15613e-11
-3.00616e-12
3.44771e-11
-2.91581e-12
3.72948e-11
-2.81771e-12
4.00068e-11
-2.71201e-12
4.26063e-11
-2.59944e-12
4.5087e-11
-2.48068e-12
4.7443e-11
-2.35602e-12
4.9669e-11
-2.22599e-12
5.17602e-11
-2.09117e-12
5.37124e-11
-1.95216e-12
5.55218e-11
-1.80945e-12
5.71854e-11
-1.66357e-12
5.87006e-11
-1.51511e-12
6.00653e-11
-1.36465e-12
6.12775e-11
-1.21225e-12
6.23358e-11
-1.05826e-12
6.32395e-11
-9.03609e-13
6.39878e-11
-7.48335e-13
6.45805e-11
-5.9259e-13
6.50171e-11
-4.36582e-13
6.52976e-11
-2.80501e-13
6.54224e-11
-1.24695e-13
6.53927e-11
2.97089e-14
6.52105e-11
1.82198e-13
6.48797e-11
3.30904e-13
6.44056e-11
4.74096e-13
6.37928e-11
6.12874e-13
6.30456e-11
7.47278e-13
6.21679e-11
8.77712e-13
6.11646e-11
1.00332e-12
6.00401e-11
1.12461e-12
5.87982e-11
1.24188e-12
5.74432e-11
1.35508e-12
5.59791e-11
1.46413e-12
5.44098e-11
1.56938e-12
5.27399e-11
1.67001e-12
5.09734e-11
1.76653e-12
4.91147e-11
1.85876e-12
4.7168e-11
1.94674e-12
4.51372e-11
2.03085e-12
4.30266e-11
2.11065e-12
4.08407e-11
2.18598e-12
3.8584e-11
2.25682e-12
3.62604e-11
2.32368e-12
3.38747e-11
2.38571e-12
3.14314e-11
2.44338e-12
2.89339e-11
2.4976e-12
2.63821e-11
2.55184e-12
2.37656e-11
2.61657e-12
2.10474e-11
2.71834e-12
1.81361e-11
2.91128e-12
1.48617e-11
3.27452e-12
1.10144e-11
3.84733e-12
6.5819e-12
4.43261e-12
2.27224e-12
4.30975e-12
2.27226e-12
-2.20259e-12
4.32086e-12
-6.21229e-12
8.12688e-12
-9.84141e-12
7.89153e-12
-1.23547e-11
6.2144e-12
-1.39112e-11
4.69908e-12
-1.48888e-11
3.76387e-12
-1.55762e-11
3.28453e-12
-1.61312e-11
3.05272e-12
-1.66245e-11
2.9284e-12
-1.70838e-11
2.84216e-12
-1.75187e-11
2.7657e-12
-1.79323e-11
2.68881e-12
-1.83261e-11
2.6092e-12
-1.87007e-11
2.52562e-12
-1.90562e-11
2.43789e-12
-1.93927e-11
2.34582e-12
-1.97099e-11
2.24924e-12
-2.00084e-11
2.14888e-12
-2.02884e-11
2.04429e-12
-2.05488e-11
1.93474e-12
-2.07895e-11
1.82059e-12
-2.10093e-11
1.70143e-12
-2.1209e-11
1.57808e-12
-2.13874e-11
1.44961e-12
-2.15436e-11
1.31598e-12
-2.16761e-11
1.17695e-12
-2.17843e-11
1.03294e-12
-2.18673e-11
8.83733e-13
-2.19239e-11
7.29234e-13
-2.1953e-11
5.6937e-13
-2.19536e-11
4.04391e-13
-2.19261e-11
2.34961e-13
-2.18683e-11
6.04897e-14
-2.17787e-11
-1.18955e-13
-2.16562e-11
-3.02445e-13
-2.14998e-11
-4.88329e-13
-2.13071e-11
-6.77227e-13
-2.10757e-11
-8.68888e-13
-2.08036e-11
-1.06278e-12
-2.04904e-11
-1.25769e-12
-2.01333e-11
-1.45476e-12
-1.97303e-11
-1.65303e-12
-1.92801e-11
-1.85155e-12
-1.87819e-11
-2.04973e-12
-1.82347e-11
-2.24677e-12
-1.76392e-11
-2.44126e-12
-1.6994e-11
-2.63368e-12
-1.62991e-11
-2.82263e-12
-1.55555e-11
-3.00655e-12
-1.47632e-11
-3.18535e-12
-1.39237e-11
-3.35782e-12
-1.30381e-11
-3.52296e-12
-1.21082e-11
-3.67988e-12
-1.11368e-11
-3.82718e-12
-1.01257e-11
-3.96484e-12
-9.07792e-12
-4.09137e-12
-7.99675e-12
-4.20615e-12
-6.8857e-12
-4.30845e-12
-5.74853e-12
-4.39762e-12
-4.58906e-12
-4.47332e-12
-3.41168e-12
-4.53469e-12
-2.22111e-12
-4.58087e-12
-1.02238e-12
-4.61037e-12
1.79142e-13
-4.6213e-12
1.37887e-12
-4.61393e-12
2.57268e-12
-4.59004e-12
3.75671e-12
-4.55176e-12
4.92698e-12
-4.50012e-12
6.08005e-12
-4.4359e-12
7.21247e-12
-4.35931e-12
8.32095e-12
-4.2705e-12
9.40228e-12
-4.1697e-12
1.04536e-11
-4.05744e-12
1.14719e-11
-3.9341e-12
1.24543e-11
-3.80016e-12
1.33994e-11
-3.65706e-12
1.43052e-11
-3.50517e-12
1.51693e-11
-3.34476e-12
1.599e-11
-3.17676e-12
1.67662e-11
-3.00216e-12
1.74969e-11
-2.8218e-12
1.81815e-11
-2.63668e-12
1.88193e-11
-2.44729e-12
1.94103e-11
-2.25455e-12
1.99544e-11
-2.05911e-12
2.04516e-11
-1.86187e-12
2.09033e-11
-1.66385e-12
2.13102e-11
-1.46513e-12
2.16722e-11
-1.26562e-12
2.19901e-11
-1.06618e-12
2.22651e-11
-8.67488e-13
2.24984e-11
-6.69891e-13
2.26919e-11
-4.73942e-13
2.28478e-11
-2.80538e-13
2.29672e-11
-8.96612e-14
2.30502e-11
9.92659e-14
2.31011e-11
2.80117e-13
2.31188e-11
4.56381e-13
2.31045e-11
6.27311e-13
2.30594e-11
7.92353e-13
2.29856e-11
9.51654e-13
2.28833e-11
1.10566e-12
2.27536e-11
1.25441e-12
2.25976e-11
1.3979e-12
2.24162e-11
1.53654e-12
2.221e-11
1.67039e-12
2.19805e-11
1.79898e-12
2.17274e-11
1.92314e-12
2.14515e-11
2.0425e-12
2.1153e-11
2.15735e-12
2.08322e-11
2.26764e-12
2.049e-11
2.37314e-12
2.01246e-11
2.47614e-12
1.97373e-11
2.57333e-12
1.93277e-11
2.66649e-12
1.88955e-11
2.75596e-12
1.84405e-11
2.84085e-12
1.79614e-11
2.92257e-12
1.74551e-11
3.00398e-12
1.69118e-11
3.09517e-12
1.63041e-11
3.22437e-12
1.55606e-11
3.46192e-12
1.45217e-11
3.95033e-12
1.28933e-11
4.90297e-12
1.0287e-11
6.45375e-12
6.52821e-12
8.19149e-12
2.34851e-12
8.48954e-12
4.62079e-12
-1.94733e-12
6.26819e-12
-5.13985e-12
1.13194e-11
-7.61945e-12
1.03711e-11
-8.83469e-12
7.42963e-12
-9.03782e-12
4.90221e-12
-8.64535e-12
3.3714e-12
-7.963e-12
2.60218e-12
-7.15697e-12
2.2467e-12
-6.30172e-12
2.07315e-12
-5.42863e-12
1.96907e-12
-4.55065e-12
1.88772e-12
-3.67402e-12
1.81218e-12
-2.80305e-12
1.73823e-12
-1.94148e-12
1.66405e-12
-1.09173e-12
1.58814e-12
-2.57122e-13
1.51121e-12
5.58856e-13
1.43327e-12
1.35462e-12
1.35312e-12
2.1279e-12
1.27102e-12
2.87584e-12
1.18681e-12
3.59624e-12
1.10019e-12
4.28662e-12
1.01105e-12
4.94581e-12
9.18898e-13
5.57184e-12
8.23584e-13
6.16279e-12
7.25029e-13
6.71667e-12
6.23073e-13
7.23207e-12
5.17548e-13
7.7074e-12
4.08407e-13
8.14095e-12
2.95689e-13
8.53153e-12
1.78795e-13
8.87762e-12
5.8309e-14
9.17847e-12
-6.58891e-14
9.43202e-12
-1.93051e-13
9.63744e-12
-3.24372e-13
9.79457e-12
-4.59568e-13
9.90476e-12
-5.9852e-13
9.96879e-12
-7.41255e-13
9.98755e-12
-8.8765e-13
9.9619e-12
-1.03713e-12
9.89444e-12
-1.19024e-12
9.78552e-12
-1.34584e-12
9.63583e-12
-1.50335e-12
9.44792e-12
-1.66364e-12
9.22267e-12
-1.82449e-12
8.96153e-12
-1.98564e-12
8.66697e-12
-2.14671e-12
8.34005e-12
-2.30676e-12
7.98253e-12
-2.46512e-12
7.59666e-12
-2.62068e-12
7.18293e-12
-2.77163e-12
6.74468e-12
-2.91958e-12
6.28248e-12
-3.06077e-12
5.79914e-12
-3.19655e-12
5.29649e-12
-3.32453e-12
4.77487e-12
-3.44322e-12
4.23751e-12
-3.55401e-12
3.68529e-12
-3.65393e-12
3.11979e-12
-3.74295e-12
2.54241e-12
-3.82024e-12
1.9542e-12
-3.88512e-12
1.35728e-12
-3.93776e-12
7.52887e-13
-3.97647e-12
1.43348e-13
-4.00083e-12
-4.67819e-13
-4.01013e-12
-1.07709e-12
-4.00466e-12
-1.6812e-12
-3.98593e-12
-2.27762e-12
-3.95533e-12
-2.86408e-12
-3.91366e-12
-3.43871e-12
-3.86126e-12
-3.99971e-12
-3.7983e-12
-4.54522e-12
-3.72499e-12
-5.07328e-12
-3.64163e-12
-5.58211e-12
-3.54859e-12
-6.06984e-12
-3.44636e-12
-6.53446e-12
-3.33552e-12
-6.97474e-12
-3.21676e-12
-7.38849e-12
-3.0914e-12
-7.77382e-12
-2.95941e-12
-8.12914e-12
-2.82142e-12
-8.45312e-12
-2.67815e-12
-8.74438e-12
-2.53052e-12
-9.00172e-12
-2.37931e-12
-9.22405e-12
-2.22492e-12
-9.40968e-12
-2.06888e-12
-9.55782e-12
-1.91093e-12
-9.66791e-12
-1.75174e-12
-9.73938e-12
-1.59234e-12
-9.77193e-12
-1.43254e-12
-9.76401e-12
-1.27349e-12
-9.71518e-12
-1.11497e-12
-9.62501e-12
-9.57609e-13
-9.49284e-12
-8.0201e-13
-9.31819e-12
-6.48543e-13
-9.10077e-12
-4.97908e-13
-8.83977e-12
-3.50601e-13
-8.53302e-12
-2.07428e-13
-8.18436e-12
-6.84918e-14
-7.79326e-12
6.53389e-14
-7.36209e-12
1.96209e-13
-6.89236e-12
3.22683e-13
-6.38501e-12
4.44362e-13
-5.84191e-12
5.62623e-13
-5.26415e-12
6.76711e-13
-4.65284e-12
7.86659e-13
-4.01051e-12
8.94278e-13
-3.33951e-12
9.99459e-13
-2.6401e-12
1.09964e-12
-1.9159e-12
1.19901e-12
-1.16736e-12
1.29403e-12
-3.98207e-13
1.38827e-12
3.89452e-13
1.48006e-12
1.19297e-12
1.5697e-12
2.01279e-12
1.65641e-12
2.84283e-12
1.74338e-12
3.68073e-12
1.82867e-12
4.52649e-12
1.91028e-12
5.37329e-12
1.99414e-12
6.21739e-12
2.07857e-12
7.05357e-12
2.16789e-12
7.86864e-12
2.2802e-12
8.63122e-12
2.46188e-12
9.26591e-12
2.82733e-12
9.60527e-12
3.61105e-12
9.33924e-12
5.16909e-12
8.04069e-12
7.75239e-12
5.44204e-12
1.07902e-11
2.08986e-12
1.18418e-11
6.71066e-12
-1.89894e-12
8.16714e-12
-4.89157e-12
1.4312e-11
-7.0512e-12
1.25308e-11
-7.88921e-12
8.26764e-12
-7.69673e-12
4.70973e-12
-6.90563e-12
2.58031e-12
-5.82775e-12
1.5243e-12
-4.62962e-12
1.04857e-12
-3.38679e-12
8.30318e-13
-2.1281e-12
7.10385e-13
-8.7139e-13
6.31008e-13
3.75983e-13
5.64813e-13
1.61414e-12
5.00079e-13
2.83221e-12
4.45978e-13
4.03263e-12
3.87715e-13
5.20871e-12
3.35138e-13
6.35638e-12
2.85601e-13
7.4721e-12
2.37399e-13
8.55396e-12
1.89161e-13
9.59765e-12
1.43122e-13
1.06006e-11
9.72128e-14
1.15584e-11
5.33238e-14
1.24705e-11
6.73498e-15
1.33348e-11
-4.07049e-14
1.41481e-11
-8.81998e-14
1.49072e-11
-1.36094e-13
1.561e-11
-1.85254e-13
1.62545e-11
-2.3602e-13
1.68388e-11
-2.8862e-13
1.73608e-11
-3.43236e-13
1.78191e-11
-3.99955e-13
1.82121e-11
-4.58862e-13
1.85391e-11
-5.20099e-13
1.8799e-11
-5.84273e-13
1.89911e-11
-6.51658e-13
1.9115e-11
-7.224e-13
1.91705e-11
-7.96769e-13
1.91579e-11
-8.75054e-13
1.9078e-11
-9.57187e-13
1.89295e-11
-1.04178e-12
1.8714e-11
-1.13026e-12
1.84327e-11
-1.22213e-12
1.80865e-11
-1.31744e-12
1.76756e-11
-1.41355e-12
1.72022e-11
-1.51225e-12
1.66679e-11
-1.61247e-12
1.60749e-11
-1.71376e-12
1.54261e-11
-1.81629e-12
1.47227e-11
-1.91731e-12
1.3967e-11
-2.01589e-12
1.31604e-11
-2.11303e-12
1.23074e-11
-2.20778e-12
1.14101e-11
-2.29926e-12
1.04732e-11
-2.38759e-12
9.49873e-12
-2.46875e-12
8.48738e-12
-2.54266e-12
7.44425e-12
-2.6108e-12
6.37265e-12
-2.67135e-12
5.27618e-12
-2.72376e-12
4.15901e-12
-2.76794e-12
3.02367e-12
-2.80242e-12
1.87395e-12
-2.82675e-12
7.14696e-13
-2.84157e-12
-4.48288e-13
-2.84714e-12
-1.60926e-12
-2.84368e-12
-2.76254e-12
-2.83264e-12
-3.90304e-12
-2.81481e-12
-5.02626e-12
-2.79044e-12
-6.12803e-12
-2.75947e-12
-7.20448e-12
-2.72184e-12
-8.25184e-12
-2.67762e-12
-9.26631e-12
-2.62714e-12
-1.02443e-11
-2.57063e-12
-1.11826e-11
-2.50803e-12
-1.20778e-11
-2.44024e-12
-1.29267e-11
-2.36788e-12
-1.37266e-11
-2.29143e-12
-1.4475e-11
-2.21103e-12
-1.51682e-11
-2.12822e-12
-1.58061e-11
-2.04022e-12
-1.6386e-11
-1.95059e-12
-1.69058e-11
-1.85942e-12
-1.73627e-11
-1.76798e-12
-1.77579e-11
-1.67365e-12
-1.80882e-11
-1.58065e-12
-1.8355e-11
-1.4849e-12
-1.8556e-11
-1.39125e-12
-1.86917e-11
-1.2968e-12
-1.87615e-11
-1.20371e-12
-1.8766e-11
-1.11041e-12
-1.87049e-11
-1.01866e-12
-1.85786e-11
-9.28298e-13
-1.83873e-11
-8.39768e-13
-1.81317e-11
-7.53497e-13
-1.78121e-11
-6.70151e-13
-1.74294e-11
-5.90035e-13
-1.69848e-11
-5.13008e-13
-1.64803e-11
-4.3908e-13
-1.59162e-11
-3.67921e-13
-1.5294e-11
-2.99406e-13
-1.46163e-11
-2.33334e-13
-1.38842e-11
-1.69334e-13
-1.31003e-11
-1.07155e-13
-1.22671e-11
-4.64621e-14
-1.13861e-11
1.32693e-14
-1.04638e-11
7.73131e-14
-9.49806e-12
1.33921e-13
-8.49403e-12
1.95055e-13
-7.45454e-12
2.54613e-13
-6.37825e-12
3.12051e-13
-5.27327e-12
3.75153e-13
-4.14291e-12
4.39419e-13
-2.98853e-12
5.02095e-13
-1.81391e-12
5.68841e-13
-6.25202e-13
6.40044e-13
5.76368e-13
7.08798e-13
1.78834e-12
7.82251e-13
3.00215e-12
8.64839e-13
4.21448e-12
9.55655e-13
5.40769e-12
1.08707e-12
6.55308e-12
1.31658e-12
7.5737e-12
1.80679e-12
8.2995e-12
2.88534e-12
8.42044e-12
5.04823e-12
7.49022e-12
8.6827e-12
5.20255e-12
1.3078e-11
2.04457e-12
1.49999e-11
8.75526e-12
-1.96641e-12
1.01335e-11
-5.03042e-12
1.7376e-11
-7.20964e-12
1.471e-11
-8.01215e-12
9.07016e-12
-7.75138e-12
4.44896e-12
-6.87789e-12
1.70683e-12
-5.71171e-12
3.58121e-13
-4.41892e-12
-2.44228e-13
-3.08118e-12
-5.07414e-13
-1.73396e-12
-6.36837e-13
-3.87947e-13
-7.14999e-13
9.49637e-13
-7.72768e-13
2.26938e-12
-8.19656e-13
3.57361e-12
-8.5825e-13
4.8518e-12
-8.90473e-13
6.10323e-12
-9.16291e-13
7.32502e-12
-9.36188e-13
8.51323e-12
-9.508e-13
9.66308e-12
-9.60684e-13
1.07724e-11
-9.66153e-13
1.18373e-11
-9.67761e-13
1.28566e-11
-9.65965e-13
1.3825e-11
-9.61602e-13
1.47393e-11
-9.55034e-13
1.55977e-11
-9.46553e-13
1.63982e-11
-9.36581e-13
1.71385e-11
-9.25623e-13
1.78167e-11
-9.14155e-13
1.84307e-11
-9.02609e-13
1.89788e-11
-8.91376e-13
1.94597e-11
-8.80811e-13
1.98721e-11
-8.71252e-13
2.0215e-11
-8.63042e-13
2.04875e-11
-8.56688e-13
2.0689e-11
-8.53187e-13
2.08189e-11
-8.52279e-13
2.08768e-11
-8.54706e-13
2.08624e-11
-8.60601e-13
2.07751e-11
-8.69916e-13
2.06161e-11
-8.82791e-13
2.03857e-11
-8.9986e-13
2.00838e-11
-9.20208e-13
1.97114e-11
-9.45014e-13
1.92715e-11
-9.7369e-13
1.87635e-11
-1.00425e-12
1.81899e-11
-1.03888e-12
1.75526e-11
-1.0765e-12
1.68543e-11
-1.11798e-12
1.60965e-11
-1.15949e-12
1.52823e-11
-1.20164e-12
1.44146e-11
-1.24532e-12
1.34957e-11
-1.28892e-12
1.25287e-11
-1.33222e-12
1.15159e-11
-1.37485e-12
1.04618e-11
-1.41462e-12
9.37108e-12
-1.45194e-12
8.24588e-12
-1.4856e-12
7.08884e-12
-1.51431e-12
5.90424e-12
-1.53916e-12
4.69542e-12
-1.55911e-12
3.4668e-12
-1.5738e-12
2.22337e-12
-1.58331e-12
9.70007e-13
-1.5882e-12
-2.87854e-13
-1.58927e-12
-1.54401e-12
-1.58752e-12
-2.79272e-12
-1.58391e-12
-4.02856e-12
-1.57896e-12
-5.24637e-12
-1.57262e-12
-6.44122e-12
-1.5646e-12
-7.60882e-12
-1.55424e-12
-8.7454e-12
-1.54103e-12
-9.84601e-12
-1.52652e-12
-1.09052e-11
-1.51139e-12
-1.19237e-11
-1.48953e-12
-1.28962e-11
-1.4677e-12
-1.38189e-11
-1.44523e-12
-1.46859e-11
-1.42438e-12
-1.55004e-11
-1.39654e-12
-1.62552e-11
-1.3734e-12
-1.69505e-11
-1.34483e-12
-1.75802e-11
-1.32087e-12
-1.81465e-11
-1.29313e-12
-1.86477e-11
-1.26673e-12
-1.90791e-11
-1.24217e-12
-1.94435e-11
-1.21628e-12
-1.97371e-11
-1.19126e-12
-1.99623e-11
-1.16596e-12
-2.01168e-11
-1.14227e-12
-2.02013e-11
-1.11916e-12
-2.02151e-11
-1.09659e-12
-2.01588e-11
-1.07491e-12
-2.00331e-11
-1.05392e-12
-1.98387e-11
-1.03416e-12
-1.95762e-11
-1.01589e-12
-1.92464e-11
-9.99961e-13
-1.88501e-11
-9.86255e-13
-1.83884e-11
-9.7464e-13
-1.78625e-11
-9.64953e-13
-1.72736e-11
-9.56807e-13
-1.66232e-11
-9.49744e-13
-1.59132e-11
-9.43258e-13
-1.51456e-11
-9.36816e-13
-1.43229e-11
-9.29866e-13
-1.34474e-11
-9.21823e-13
-1.25221e-11
-9.12053e-13
-1.15448e-11
-8.99855e-13
-1.05252e-11
-8.85603e-13
-9.46197e-12
-8.6815e-13
-8.3599e-12
-8.47383e-13
-7.22493e-12
-8.22848e-13
-6.05619e-12
-7.93511e-13
-4.85738e-12
-7.59319e-13
-3.63504e-12
-7.20169e-13
-2.39081e-12
-6.75308e-13
-1.12625e-12
-6.24443e-13
1.50251e-13
-5.67619e-13
1.4358e-12
-5.03211e-13
2.72893e-12
-4.28209e-13
4.01803e-12
-3.33367e-13
5.29338e-12
-1.88192e-13
6.51758e-12
9.2458e-14
7.61212e-12
7.12342e-13
8.41141e-12
2.08613e-12
8.58105e-12
4.87867e-12
7.67204e-12
9.59178e-12
5.35452e-12
1.53956e-11
2.11601e-12
1.82385e-11
1.08713e-11
-2.06416e-12
1.21977e-11
-5.2754e-12
2.05873e-11
-7.56076e-12
1.69953e-11
-8.40897e-12
9.91838e-12
-8.14576e-12
4.18575e-12
-7.25032e-12
8.1139e-13
-6.03843e-12
-8.53765e-13
-4.70321e-12
-1.57944e-12
-3.32315e-12
-1.88747e-12
-1.93152e-12
-2.02846e-12
-5.42513e-13
-2.10401e-12
8.35462e-13
-2.15074e-12
2.19734e-12
-2.18153e-12
3.53897e-12
-2.19989e-12
4.85582e-12
-2.20731e-12
6.14407e-12
-2.20454e-12
7.40005e-12
-2.19216e-12
8.62003e-12
-2.17077e-12
9.80034e-12
-2.141e-12
1.09376e-11
-2.10344e-12
1.20286e-11
-2.05876e-12
1.30703e-11
-2.00761e-12
1.40594e-11
-1.95071e-12
1.49931e-11
-1.88869e-12
1.58687e-11
-1.82221e-12
1.66841e-11
-1.75191e-12
1.74369e-11
-1.67845e-12
1.81252e-11
-1.60248e-12
1.87473e-11
-1.52464e-12
1.93015e-11
-1.44554e-12
1.97864e-11
-1.36579e-12
2.02011e-11
-1.28595e-12
2.05447e-11
-1.20655e-12
2.08162e-11
-1.12823e-12
2.10153e-11
-1.05229e-12
2.11415e-11
-9.78462e-13
2.11948e-11
-9.07971e-13
2.11744e-11
-8.40247e-13
2.10811e-11
-7.76568e-13
2.0915e-11
-7.16658e-13
2.06768e-11
-6.61671e-13
2.03665e-11
-6.09923e-13
1.99881e-11
-5.66582e-13
1.95386e-11
-5.24203e-13
1.90214e-11
-4.87108e-13
1.84408e-11
-4.58268e-13
1.7797e-11
-4.32644e-13
1.70889e-11
-4.09866e-13
1.63217e-11
-3.9235e-13
1.55002e-11
-3.801e-13
1.46286e-11
-3.73714e-13
1.37047e-11
-3.6503e-13
1.27322e-11
-3.59779e-13
1.17149e-11
-3.57526e-13
1.06569e-11
-3.56643e-13
9.56141e-12
-3.56398e-13
8.43201e-12
-3.56204e-13
7.27321e-12
-3.55499e-13
6.08787e-12
-3.53819e-13
4.87961e-12
-3.50844e-13
3.65237e-12
-3.46555e-13
2.41048e-12
-3.41415e-13
1.15871e-12
-3.36429e-13
-9.77153e-14
-3.32843e-13
-1.3535e-12
-3.31725e-13
-2.60321e-12
-3.34197e-13
-3.84127e-12
-3.40892e-13
-5.06225e-12
-3.51638e-13
-6.25926e-12
-3.67579e-13
-7.4276e-12
-3.85881e-13
-8.56951e-12
-3.99102e-13
-9.67621e-12
-4.19812e-13
-1.07442e-11
-4.43399e-13
-1.17692e-11
-4.64492e-13
-1.27474e-11
-4.89447e-13
-1.36781e-11
-5.14557e-13
-1.45547e-11
-5.47763e-13
-1.53773e-11
-5.73921e-13
-1.61431e-11
-6.07571e-13
-1.68469e-11
-6.40964e-13
-1.74902e-11
-6.77596e-13
-1.80673e-11
-7.15954e-13
-1.85787e-11
-7.55294e-13
-1.90218e-11
-7.9902e-13
-1.93985e-11
-8.39537e-13
-1.97051e-11
-8.84633e-13
-1.99394e-11
-9.31623e-13
-2.01046e-11
-9.77051e-13
-2.01983e-11
-1.0254e-12
-2.02216e-11
-1.07323e-12
-2.01744e-11
-1.1221e-12
-2.00565e-11
-1.17171e-12
-1.98686e-11
-1.22201e-12
-1.96111e-11
-1.27334e-12
-1.92848e-11
-1.32626e-12
-1.88903e-11
-1.38071e-12
-1.84285e-11
-1.43631e-12
-1.79007e-11
-1.49272e-12
-1.73081e-11
-1.54936e-12
-1.66523e-11
-1.60552e-12
-1.5935e-11
-1.66046e-12
-1.51584e-11
-1.71342e-12
-1.43245e-11
-1.76368e-12
-1.34358e-11
-1.81048e-12
-1.24946e-11
-1.85312e-12
-1.15035e-11
-1.8909e-12
-1.04658e-11
-1.92325e-12
-9.3844e-12
-1.94951e-12
-8.26263e-12
-1.96908e-12
-7.10405e-12
-1.98136e-12
-5.91174e-12
-1.98575e-12
-4.68925e-12
-1.98174e-12
-3.44044e-12
-1.9689e-12
-2.16893e-12
-1.94674e-12
-8.78442e-13
-1.91485e-12
4.2671e-13
-1.87269e-12
1.74258e-12
-1.819e-12
3.06335e-12
-1.74889e-12
4.38217e-12
-1.65211e-12
5.68463e-12
-1.49057e-12
6.93822e-12
-1.16105e-12
8.06255e-12
-4.119e-13
8.86535e-12
1.28341e-12
9.02526e-12
4.71883e-12
8.05409e-12
1.0563e-11
5.61548e-12
1.78343e-11
2.21886e-12
2.16352e-11
1.30902e-11
-2.17941e-12
1.43771e-11
-5.57049e-12
2.39784e-11
-7.9909e-12
1.94158e-11
-8.90749e-12
1.0835e-11
-8.65628e-12
3.93454e-12
-7.72154e-12
-1.23351e-13
-6.47007e-12
-2.10523e-12
-5.08524e-12
-2.96427e-12
-3.65264e-12
-3.32007e-12
-2.20888e-12
-3.47222e-12
-7.68984e-13
-3.5439e-12
6.59257e-13
-3.57898e-12
2.06995e-12
-3.59222e-12
3.45848e-12
-3.58842e-12
4.82057e-12
-3.56939e-12
6.1521e-12
-3.53607e-12
7.44913e-12
-3.48919e-12
8.70785e-12
-3.42949e-12
9.92457e-12
-3.35771e-12
1.10958e-11
-3.27463e-12
1.22181e-11
-3.18106e-12
1.32883e-11
-3.07782e-12
1.43033e-11
-2.96577e-12
1.52604e-11
-2.84577e-12
1.61569e-11
-2.71868e-12
1.69904e-11
-2.58536e-12
1.77586e-11
-2.44669e-12
1.84597e-11
-2.30355e-12
1.90918e-11
-2.15678e-12
1.96535e-11
-2.00725e-12
2.01436e-11
-1.85579e-12
2.05608e-11
-1.70321e-12
2.09046e-11
-1.55027e-12
2.11739e-11
-1.39756e-12
2.1369e-11
-1.24735e-12
2.14894e-11
-1.09885e-12
2.15348e-11
-9.53407e-13
2.15066e-11
-8.12005e-13
2.14043e-11
-6.74262e-13
2.1228e-11
-5.40396e-13
2.09784e-11
-4.12024e-13
2.06581e-11
-2.89652e-13
2.02652e-11
-1.7369e-13
1.98041e-11
-6.311e-14
1.92766e-11
4.04552e-14
1.86823e-11
1.36e-13
1.80251e-11
2.24523e-13
1.73091e-11
3.06204e-13
1.65358e-11
3.80936e-13
1.57069e-11
4.48826e-13
1.48229e-11
5.1025e-13
1.38917e-11
5.66148e-13
1.29154e-11
6.16535e-13
1.18962e-11
6.61724e-13
1.08373e-11
7.02283e-13
9.74208e-12
7.38786e-13
8.61409e-12
7.71791e-13
7.45677e-12
8.01823e-13
6.27364e-12
8.29323e-13
5.06827e-12
8.54532e-13
3.84441e-12
8.77316e-13
2.60601e-12
8.96989e-13
1.35743e-12
9.12157e-13
1.03871e-13
9.20726e-13
-1.1489e-12
9.21061e-13
-2.39513e-12
9.12033e-13
-3.62941e-12
8.93404e-13
-4.84691e-12
8.65871e-13
-6.04496e-12
8.30485e-13
-7.21936e-12
7.88537e-13
-8.3595e-12
7.41054e-13
-9.46677e-12
6.87476e-13
-1.05384e-11
6.28265e-13
-1.15669e-11
5.64026e-13
-1.25509e-11
4.9452e-13
-1.34853e-11
4.19925e-13
-1.43732e-11
3.40136e-13
-1.52032e-11
2.56135e-13
-1.59781e-11
1.67366e-13
-1.66932e-11
7.4136e-14
-1.73449e-11
-2.58517e-14
-1.79342e-11
-1.26641e-13
-1.84573e-11
-2.32187e-13
-1.8917e-11
-3.39281e-13
-1.93057e-11
-4.50763e-13
-1.96243e-11
-5.66002e-13
-1.98747e-11
-6.81166e-13
-2.00513e-11
-8.00376e-13
-2.01587e-11
-9.18028e-13
-2.0194e-11
-1.03786e-12
-2.01578e-11
-1.15828e-12
-2.00497e-11
-1.27977e-12
-1.98702e-11
-1.40146e-12
-1.96194e-11
-1.52411e-12
-1.92975e-11
-1.64805e-12
-1.89054e-11
-1.77282e-12
-1.84438e-11
-1.89784e-12
-1.79139e-11
-2.02258e-12
-1.7317e-11
-2.14621e-12
-1.66546e-11
-2.26779e-12
-1.59287e-11
-2.38634e-12
-1.51412e-11
-2.50091e-12
-1.42942e-11
-2.61055e-12
-1.33903e-11
-2.71434e-12
-1.2432e-11
-2.81139e-12
-1.1422e-11
-2.90082e-12
-1.03634e-11
-2.98182e-12
-9.25921e-12
-3.05359e-12
-8.11286e-12
-3.11536e-12
-6.92775e-12
-3.16641e-12
-5.70738e-12
-3.20604e-12
-4.45543e-12
-3.23362e-12
-3.1757e-12
-3.24855e-12
-1.87208e-12
-3.25029e-12
-5.48603e-13
-3.23825e-12
7.90451e-13
-3.21167e-12
2.14033e-12
-3.1688e-12
3.49779e-12
-3.10628e-12
4.85323e-12
-3.00746e-12
6.19138e-12
-2.82864e-12
7.47742e-12
-2.44701e-12
8.62489e-12
-1.55928e-12
9.43967e-12
4.68697e-13
9.57222e-12
4.58636e-12
8.51907e-12
1.16163e-11
5.92898e-12
2.04245e-11
2.34006e-12
2.52242e-11
1.54302e-11
-2.31392e-12
1.6691e-11
-5.91432e-12
2.75788e-11
-8.49225e-12
2.19937e-11
-9.47491e-12
1.18176e-11
-9.22856e-12
3.6882e-12
-8.25943e-12
-1.09247e-12
-6.95016e-12
-3.4145e-12
-5.4987e-12
-4.41572e-12
-3.99684e-12
-4.82192e-12
-2.48318e-12
-4.98588e-12
-9.74475e-13
-5.0526e-12
5.21121e-13
-5.07457e-12
1.99723e-12
-5.06832e-12
3.44909e-12
-5.04027e-12
4.87224e-12
-4.99253e-12
6.26238e-12
-4.9262e-12
7.61537e-12
-4.84219e-12
8.92725e-12
-4.74136e-12
1.01942e-11
-4.62463e-12
1.14125e-11
-4.49293e-12
1.25787e-11
-4.34727e-12
1.36895e-11
-4.18864e-12
1.47419e-11
-4.0181e-12
1.57328e-11
-3.83671e-12
1.66597e-11
-3.64556e-12
1.75201e-11
-3.44573e-12
1.83117e-11
-3.23835e-12
1.90327e-11
-3.02451e-12
1.96812e-11
-2.80532e-12
2.02559e-11
-2.58188e-12
2.07554e-11
-2.35529e-12
2.11788e-11
-2.12661e-12
2.15254e-11
-1.89683e-12
2.17947e-11
-1.66688e-12
2.19865e-11
-1.4392e-12
2.21012e-11
-1.21349e-12
2.21387e-11
-9.90872e-13
2.20993e-11
-7.72621e-13
2.19844e-11
-5.5941e-13
2.17939e-11
-3.49823e-13
2.1529e-11
-1.47162e-13
2.11899e-11
4.94504e-14
2.07788e-11
2.37425e-13
2.02988e-11
4.16915e-13
1.97518e-11
5.87401e-13
1.91394e-11
7.48427e-13
1.84641e-11
8.99853e-13
1.77287e-11
1.04161e-12
1.69359e-11
1.17368e-12
1.60886e-11
1.29616e-12
1.51896e-11
1.40926e-12
1.42424e-11
1.51332e-12
1.32503e-11
1.60865e-12
1.22164e-11
1.69563e-12
1.1144e-11
1.77474e-12
1.00363e-11
1.84647e-12
8.89672e-12
1.91137e-12
7.7286e-12
1.96995e-12
6.53529e-12
2.02264e-12
5.32021e-12
2.06961e-12
4.08697e-12
2.11057e-12
2.83943e-12
2.14453e-12
1.58194e-12
2.16966e-12
3.19379e-13
2.1833e-12
-9.42822e-13
2.18327e-12
-2.19913e-12
2.16835e-12
-3.44418e-12
2.13847e-12
-4.67301e-12
2.09471e-12
-5.88112e-12
2.03861e-12
-7.06409e-12
1.97153e-12
-8.21736e-12
1.89434e-12
-9.33739e-12
1.80752e-12
-1.04206e-11
1.71147e-12
-1.14631e-11
1.60654e-12
-1.24615e-11
1.49299e-12
-1.34127e-11
1.37109e-12
-1.43137e-11
1.24117e-12
-1.51611e-11
1.10359e-12
-1.59523e-11
9.58641e-13
-1.66848e-11
8.06637e-13
-1.73585e-11
6.47907e-13
-1.79685e-11
4.83367e-13
-1.85139e-11
3.13274e-13
-1.89912e-11
1.38028e-13
-1.93965e-11
-4.54648e-14
-1.97339e-11
-2.2856e-13
-2.00011e-11
-4.13916e-13
-2.01974e-11
-6.04042e-13
-2.03181e-11
-7.9725e-13
-2.03677e-11
-9.88249e-13
-2.03432e-11
-1.18271e-12
-2.0246e-11
-1.37694e-12
-2.00748e-11
-1.57262e-12
-1.98298e-11
-1.76899e-12
-1.95109e-11
-1.96694e-12
-1.91188e-11
-2.16489e-12
-1.86542e-11
-2.36229e-12
-1.81185e-11
-2.55832e-12
-1.75127e-11
-2.75189e-12
-1.68386e-11
-2.94182e-12
-1.6098e-11
-3.12691e-12
-1.52929e-11
-3.30597e-12
-1.44255e-11
-3.47785e-12
-1.34984e-11
-3.64141e-12
-1.25142e-11
-3.79556e-12
-1.14757e-11
-3.93924e-12
-1.0386e-11
-4.07144e-12
-9.24832e-12
-4.19119e-12
-8.06606e-12
-4.29755e-12
-6.84275e-12
-4.38965e-12
-5.58206e-12
-4.46666e-12
-4.28779e-12
-4.52781e-12
-2.96389e-12
-4.57239e-12
-1.61438e-12
-4.59971e-12
-2.4346e-13
-4.6091e-12
1.14454e-12
-4.59959e-12
2.54533e-12
-4.56951e-12
3.95257e-12
-4.51343e-12
5.35786e-12
-4.41268e-12
6.74585e-12
-4.21655e-12
8.07696e-12
-3.77804e-12
9.2593e-12
-2.74155e-12
1.01003e-11
-3.722e-13
1.0203e-11
4.48368e-12
9.05407e-12
1.27653e-11
6.29093e-12
2.31877e-11
2.47998e-12
2.90352e-11
1.79102e-11
-2.46808e-12
1.91591e-11
-6.30701e-12
3.14177e-11
-9.06169e-12
2.47484e-11
-1.01239e-11
1.28798e-11
-9.8704e-12
3.43474e-12
-8.85406e-12
-2.10881e-12
-7.47054e-12
-4.79802e-12
-5.934e-12
-5.95225e-12
-4.34331e-12
-6.41261e-12
-2.74027e-12
-6.58892e-12
-1.14332e-12
-6.64954e-12
4.37689e-13
-6.65558e-12
1.99747e-12
-6.6281e-12
3.53067e-12
-6.57346e-12
5.03245e-12
-6.49431e-12
6.49827e-12
-6.39202e-12
7.92376e-12
-6.26767e-12
9.30472e-12
-6.12232e-12
1.06371e-11
-5.95704e-12
1.19172e-11
-5.77297e-12
1.31412e-11
-5.57129e-12
1.43058e-11
-5.35323e-12
1.54078e-11
-5.12004e-12
1.64441e-11
-4.87301e-12
1.7412e-11
-4.61346e-12
1.8309e-11
-4.34274e-12
1.91329e-11
-4.0622e-12
1.98816e-11
-3.7732e-12
2.05534e-11
-3.47712e-12
2.11468e-11
-3.17532e-12
2.16607e-11
-2.86917e-12
2.20941e-11
-2.56001e-12
2.24464e-11
-2.24912e-12
2.27169e-11
-1.93739e-12
2.29063e-11
-1.6286e-12
2.30145e-11
-1.32164e-12
2.30421e-11
-1.01852e-12
2.29902e-11
-7.20696e-13
2.28601e-11
-4.2929e-13
2.26513e-11
-1.41025e-13
2.23644e-11
1.39743e-13
2.20031e-11
4.10759e-13
2.15686e-11
6.71981e-13
2.10629e-11
9.22554e-13
2.04886e-11
1.16174e-12
1.9848e-11
1.38898e-12
1.9144e-11
1.60388e-12
1.83795e-11
1.80619e-12
1.75574e-11
1.99579e-12
1.66808e-11
2.17268e-12
1.57531e-11
2.33696e-12
1.47776e-11
2.48887e-12
1.37575e-11
2.62871e-12
1.26963e-11
2.75688e-12
1.15972e-11
2.87383e-12
1.04636e-11
2.98012e-12
9.29868e-12
3.07628e-12
8.10576e-12
3.16288e-12
6.88805e-12
3.24036e-12
5.64881e-12
3.30885e-12
4.39148e-12
3.36792e-12
3.11979e-12
3.41623e-12
1.83805e-12
3.45142e-12
5.51122e-13
3.47023e-12
-7.35608e-13
3.47002e-12
-2.01655e-12
3.4493e-12
-3.2862e-12
3.40814e-12
-4.53949e-12
3.34801e-12
-5.77178e-12
3.27093e-12
-6.97884e-12
3.1786e-12
-8.15664e-12
3.07216e-12
-9.30142e-12
2.95233e-12
-1.04096e-11
2.81963e-12
-1.14775e-11
2.67451e-12
-1.25019e-11
2.51738e-12
-1.34794e-11
2.34865e-12
-1.4407e-11
2.16876e-12
-1.52815e-11
1.97818e-12
-1.61002e-11
1.77739e-12
-1.68605e-11
1.56692e-12
-1.75599e-11
1.34733e-12
-1.81957e-11
1.11926e-12
-1.87657e-11
8.83325e-13
-1.92678e-11
6.40141e-13
-1.97035e-11
3.90287e-13
-2.00669e-11
1.34881e-13
-2.03539e-11
-1.26914e-13
-2.05688e-11
-3.89076e-13
-2.07109e-11
-6.55118e-13
-2.07765e-11
-9.22607e-13
-2.07674e-11
-1.19169e-12
-2.06814e-11
-1.46295e-12
-2.05183e-11
-1.73562e-12
-2.02778e-11
-2.00946e-12
-1.99601e-11
-2.28457e-12
-1.95655e-11
-2.55945e-12
-1.90948e-11
-2.83297e-12
-1.8549e-11
-3.10406e-12
-1.79295e-11
-3.37136e-12
-1.72378e-11
-3.63341e-12
-1.64759e-11
-3.88877e-12
-1.56458e-11
-4.13601e-12
-1.47498e-11
-4.37375e-12
-1.37906e-11
-4.60063e-12
-1.27707e-11
-4.81535e-12
-1.16932e-11
-5.01665e-12
-1.05613e-11
-5.20331e-12
-9.37825e-12
-5.37418e-12
-8.14759e-12
-5.52814e-12
-6.873e-12
-5.66417e-12
-5.55832e-12
-5.78127e-12
-4.20752e-12
-5.87853e-12
-2.82474e-12
-5.9551e-12
-1.4142e-12
-6.01018e-12
1.9739e-14
-6.04296e-12
1.47257e-12
-6.05234e-12
2.93864e-12
-6.0355e-12
4.412e-12
-5.98671e-12
5.88561e-12
-5.88621e-12
7.33966e-12
-5.67052e-12
8.73295e-12
-5.17125e-12
9.96679e-12
-3.97532e-12
1.0827e-11
-1.23229e-12
1.09114e-11
4.39932e-12
9.67025e-12
1.40065e-11
6.70827e-12
2.61497e-11
2.64245e-12
3.31011e-11
2.05527e-11
-2.64404e-12
2.18032e-11
-6.75275e-12
3.55264e-11
-9.70234e-12
2.7698e-11
-1.08483e-11
1.40258e-11
-1.05925e-11
3.17887e-12
-9.51051e-12
-3.19077e-12
-8.03369e-12
-6.27483e-12
-6.39188e-12
-7.59406e-12
-4.69211e-12
-8.11237e-12
-2.98006e-12
-8.30098e-12
-1.27516e-12
-8.35443e-12
4.13189e-13
-8.34392e-12
2.07696e-12
-8.29187e-12
3.71094e-12
-8.20743e-12
5.31014e-12
-8.09351e-12
6.86978e-12
-7.95165e-12
8.38524e-12
-7.78313e-12
9.85209e-12
-7.58916e-12