/*--------------------------------*- C++ -*----------------------------------*\
| =========                 |                                                 |
| \\      /  F ield         | OpenFOAM: The Open Source CFD Toolbox           |
|  \\    /   O peration     | Version:  2212                                  |
|   \\  /    A nd           | Website:  www.openfoam.com                      |
|    \\/     M anipulation  |                                                 |
\*---------------------------------------------------------------------------*/
FoamFile
{
    version     2.0;
    format      ascii;
    arch        "LSB;label=64;scalar=64";
    class       volScalarField;
    location    "1000";
    object      p;
}
// * * * * * * * * * * * * * * * * * * * * * * * * * * * * * * * * * * * * * //

dimensions      [0 2 -2 0 0 0 0];

internalField   nonuniform List<scalar> 
125000
(
-0.151458718285
-0.189221049909
-0.151465657812
-0.186384004173
-0.213922791388
-0.1892192762
-0.202552340488
-0.151465347051
-0.186379217497
-0.193099560999
-0.215530317568
-0.213924549115
-0.216798194313
-0.189218933365
-0.202554283241
-0.198805746957
-0.151463974667
-0.186378898343
-0.19310412491
-0.192024683116
-0.213401259847
-0.215530630761
-0.215864081548
-0.213924505262
-0.216800880658
-0.21356851747
-0.189216943457
-0.202553952332
-0.198805813367
-0.198183288768
-0.151457741042
-0.186377580894
-0.193103815658
-0.192032455106
-0.191912600499
-0.211435510695
-0.213401308144
-0.213103170333
-0.215530479724
-0.215864601354
-0.21422164009
-0.21392303388
-0.21680083746
-0.213570472912
-0.213582850152
-0.189219986873
-0.202551923132
-0.198805487295
-0.198182116953
-0.199009882612
-0.186383029563
-0.193102553169
-0.192032153536
-0.191918222106
-0.192926664309
-0.209130023927
-0.211435648258
-0.211032723022
-0.213401209436
-0.213103278465
-0.212262191851
-0.215529754002
-0.215864450413
-0.214221847543
-0.214561997038
-0.213921816385
-0.216799358713
-0.21357042906
-0.213585095371
-0.213689489758
-0.20255128106
-0.198803381947
-0.198181794278
-0.199008676242
-0.199588169405
-0.193098592801
-0.192030948966
-0.191917922435
-0.192930786543
-0.194096355232
-0.206906852618
-0.209130022714
-0.208774308512
-0.211435583345
-0.211032874515
-0.210553692087
-0.21340079901
-0.213103180602
-0.212262198005
-0.212628446823
-0.215529528645
-0.21586372415
-0.214221696546
-0.214562372424
-0.214754611952
-0.216797223709
-0.213568941658
-0.213585052719
-0.213691784052
-0.213158173862
-0.198804696588
-0.198179577502
-0.199008364008
-0.199587122774
-0.199862562199
-0.192023726335
-0.191916750028
-0.192930492564
-0.194100197229
-0.195186049897
-0.205028847922
-0.206906821961
-0.206626940377
-0.209129954477
-0.208774308337
-0.208482203232
-0.211435351307
-0.211032809717
-0.210553800585
-0.210855951696
-0.213400658433
-0.21310277026
-0.212262101622
-0.212628561495
-0.212942331939
-0.215863296231
-0.214220973595
-0.214562221803
-0.214754891761
-0.214471087166
-0.213567557356
-0.213583570673
-0.213691742705
-0.213160299753
-0.212332742749
-0.198182255247
-0.199006051915
-0.199586825375
-0.199861002683
-0.200098621456
-0.191911660498
-0.192929338369
-0.194099914822
-0.195189685333
-0.196225545484
-0.20343857195
-0.205028835611
-0.204816329183
-0.206906769265
-0.206626909556
-0.206441342987
-0.209129839631
-0.208774240305
-0.208482180155
-0.208730633269
-0.211435080289
-0.211032578177
-0.210553735904
-0.210856114594
-0.211199031612
-0.213102571859
-0.212261693621
-0.212628466821
-0.212942413152
-0.212955900658
-0.214220863029
-0.214561514512
-0.214754741026
-0.214471213771
-0.213922117567
-0.213581908454
-0.213690321832
-0.213160258945
-0.212334644181
-0.211458180654
-0.199008876756
-0.199584626095
-0.199860720217
-0.200095989663
-0.20037573069
-0.192925747437
-0.194098922545
-0.19518941619
-0.196228909617
-0.197225170972
-0.202080658941
-0.203438560582
-0.203277880621
-0.205028796973
-0.204816316421
-0.204691836223
-0.206906707479
-0.206626857088
-0.206441300637
-0.206649175466
-0.209129722921
-0.208774125731
-0.208482112432
-0.208730636276
-0.209077057481
-0.211032294534
-0.210553506188
-0.210856049913
-0.211199179979
-0.211362022728
-0.21226159973
-0.212628067106
-0.212942320038
-0.212955938486
-0.212731880844
-0.214561234092
-0.214754075792
-0.214471062772
-0.213922122794
-0.213246593893
-0.213688576436
-0.213159008565
-0.212334603676
-0.211459843568
-0.210595259735
-0.199587206004
-0.19985921313
-0.200095721127
-0.200372355767
-0.200682684897
-0.194095468261
-0.195188728935
-0.196228653847
-0.19722833165
-0.198166670174
-0.20090776041
-0.202080650611
-0.201956678394
-0.203438530625
-0.203277868807
-0.203190099288
-0.205028760629
-0.204816277922
-0.204691815869
-0.204863777999
-0.206906649479
-0.206626795275
-0.20644124853
-0.206649148937
-0.206982511335
-0.208774008844
-0.208481998705
-0.208730568846
-0.209077052079
-0.209333462996
-0.210553267599
-0.210855824627
-0.211199115201
-0.211362156024
-0.211326273855
-0.212627865024
-0.212941938523
-0.212955847013
-0.212731889411
-0.212344256966
-0.214753870175
-0.214470474444
-0.213921971656
-0.213246484601
-0.212505512748
-0.213157300854
-0.212333610854
-0.211459803434
-0.210596653215
-0.209761022074
-0.199861658227
-0.200095364902
-0.200372100918
-0.200679207899
-0.201002075696
-0.195185200236
-0.196228156678
-0.197228088913
-0.198169627515
-0.199031717245
-0.199873832944
-0.200907757407
-0.200810301571
-0.20208062845
-0.201956669685
-0.201891085663
-0.203438511734
-0.203277838955
-0.203190081962
-0.203330925398
-0.205028711648
-0.204816241576
-0.204691777579
-0.204863766743
-0.20516787943
-0.206626738025
-0.206441186807
-0.206649097219
-0.20698248296
-0.207287077328
-0.208481906252
-0.208730456998
-0.209076984964
-0.209333449887
-0.209438479776
-0.210855533606
-0.211198897937
-0.211362091244
-0.211326398402
-0.211127086325
-0.212941765045
-0.212955494703
-0.212731799656
-0.212344229693
-0.211847599163
-0.214470374705
-0.213921478888
-0.213246333338
-0.212505270117
-0.211736836269
-0.212331922671
-0.211459100999
-0.210596613691
-0.209762197121
-0.208968862202
-0.200097791578
-0.200372552408
-0.200678966128
-0.200998798516
-0.201322018992
-0.196224739761
-0.197227634238
-0.198169398162
-0.199034436565
-0.199808540392
-0.1989291337
-0.199873832098
-0.199794313626
-0.200907741529
-0.200810298247
-0.2007584975
-0.202080618159
-0.201956647609
-0.201891072865
-0.202004521519
-0.203438482307
-0.203277820006
-0.203190052267
-0.20333091342
-0.203600128757
-0.204816193415
-0.204691741302
-0.204863728674
-0.205167867942
-0.205480855309
-0.206441142167
-0.206649035937
-0.206982431682
-0.207287047609
-0.207484728849
-0.208730340422
-0.20907687628
-0.209333383175
-0.209438462013
-0.20939188139
-0.211198622657
-0.211361885798
-0.211326333787
-0.211127199762
-0.210806578172
-0.21295535379
-0.212731483638
-0.212344141562
-0.211847521157
-0.211285499986
-0.213921442918
-0.213245943019
-0.212505118799
-0.211736466245
-0.210964475651
-0.211457424377
-0.210596223257
-0.209762158473
-0.208969940389
-0.208226903369
-0.20037497995
-0.200679604632
-0.200998568945
-0.201319016453
-0.20163238386
-0.197224415941
-0.198168990654
-0.199034220803
-0.199811001814
-0.200489617212
-0.198040963307
-0.198929134242
-0.198862269603
-0.199873820643
-0.199794312578
-0.19974929554
-0.200907736248
-0.200810282429
-0.200758490894
-0.200850289538
-0.202080599757
-0.201956637266
-0.201891050927
-0.202004511804
-0.202237889163
-0.203277791255
-0.203190033254
-0.203330883895
-0.203600116938
-0.203901900138
-0.204691701416
-0.20486369262
-0.205167830137
-0.205480843843
-0.205723377787
-0.206648976974
-0.206982371281
-0.207286996848
-0.207484699162
-0.20755218421
-0.209076770364
-0.209333279029
-0.20943839582
-0.209391856723
-0.209224222525
-0.211361626
-0.211326143327
-0.211127135476
-0.210806676261
-0.210401342326
-0.212731359374
-0.212343867406
-0.211847434566
-0.211285364245
-0.210687850572
-0.213245964826
-0.212504851124
-0.211736315111
-0.2109640265
-0.210201405449
-0.210594573332
-0.20976201794
-0.208969902964
-0.208227961314
-0.207537981609
-0.200682009286
-0.20099911063
-0.20131879788
-0.201629644445
-0.201922798548
-0.198165972379
-0.199033905117
-0.199810800193
-0.200491826176
-0.201070157602
-0.197198626866
-0.198040964618
-0.197984101608
-0.198929125813
-0.198862269939
-0.198821378429
-0.199873818173
-0.199794301159
-0.199749291823
-0.199822247144
-0.200907721626
-0.200810277094
-0.200758475169
-0.200850284783
-0.201051707187
-0.201956619384
-0.201891040512
-0.202004490021
-0.202237879582
-0.202518552198
-0.203190010433
-0.203330864865
-0.20360008762
-0.203901888769
-0.204161708326
-0.204863644604
-0.205167794474
-0.20548080636
-0.205723366852
-0.205861165767
-0.206982316045
-0.20728693785
-0.207484649024
-0.207552153231
-0.207502136944
-0.209333183375
-0.20943829761
-0.209391791139
-0.209224190045
-0.208967762671
-0.211325892623
-0.211126963336
-0.210806612578
-0.21040142248
-0.209940474163
-0.212343765992
-0.211847211517
-0.211285279111
-0.210687663907
-0.210071158682
-0.212504934722
-0.211736174188
-0.210963876
-0.210200933687
-0.209454023889
-0.209760406512
-0.208969880446
-0.208227925435
-0.20753904388
-0.206902093848
-0.201001468144
-0.201319182428
-0.201629435951
-0.20192029402
-0.202182969112
-0.199031082824
-0.199810592449
-0.20049163918
-0.201072135175
-0.201547729855
-0.196385497441
-0.197198628639
-0.197148923587
-0.198040958497
-0.197984102719
-0.197947347313
-0.198929125156
-0.198862261537
-0.19882137639
-0.198878748806
-0.199873807081
-0.199794298657
-0.199749280459
-0.199822244678
-0.199995032231
-0.200810262879
-0.200758469751
-0.200850269164
-0.201051702606
-0.201307045581
-0.201891026964
-0.202004479546
-0.20223785798
-0.2025185433
-0.202779242733
-0.203330837292
-0.203600068626
-0.203901859702
-0.204161697555
-0.204339194096
-0.205167747931
-0.20548077128
-0.205723329791
-0.205861155041
-0.205892698909
-0.207286886233
-0.207484592021
-0.207552103802
-0.207502103183
-0.207361892724
-0.209438209546
-0.209391700545
-0.209224125238
-0.208967723036
-0.208646381159
-0.21112672383
-0.210806462741
-0.21040135974
-0.209940537777
-0.209443543107
-0.211847142721
-0.211285112455
-0.210687580181
-0.210070934528
-0.209444333607
-0.211736312107
-0.210963828092
-0.210200784428
-0.209453573765
-0.208725923084
-0.20896831412
-0.208227931007
-0.207539010047
-0.206903151633
-0.206317458055
-0.201321473751
-0.201629689933
-0.201920094864
-0.202180679638
-0.202403199346
-0.199807972691
-0.200491526834
-0.201071963528
-0.201549500038
-0.201922060437
-0.195590978665
-0.196385499145
-0.196341339161
-0.197198624057
-0.197148925182
-0.197114586218
-0.198040958661
-0.197984096611
-0.197947346397
-0.197993171535
-0.198929116293
-0.19886226085
-0.198821368029
-0.198878747476
-0.199026623131
-0.199794287823
-0.199749277914
-0.199822233377
-0.199995029996
-0.200224552471
-0.200758458961
-0.20085026366
-0.201051687107
-0.201307041555
-0.20155814675
-0.202004463261
-0.202237847465
-0.202518521898
-0.202779234551
-0.20297710315
-0.203600041643
-0.203901840814
-0.204161668811
-0.204339183425
-0.204424551562
-0.205480726237
-0.205723295512
-0.205861118485
-0.205892687875
-0.205834368163
-0.207484543019
-0.207552049582
-0.207502054586
-0.207361856466
-0.207154513892
-0.209391622458
-0.209224044085
-0.208967659207
-0.208646335009
-0.208278997337
-0.210806237181
-0.210401234834
-0.209940476428
-0.209443594356
-0.208921925944
-0.211285080778
-0.210687462889
-0.210070852087
-0.209444085367
-0.208812514606
-0.210964005271
-0.210200788114
-0.209453426655
-0.20872552427
-0.208019510961
-0.208226417398
-0.207539001871
-0.206903120352
-0.206318487345
-0.205780553969
-0.201631896585
-0.201920263457
-0.2021804895
-0.202401116594
-0.202574757107
-0.200489116868
-0.2010719192
-0.201549344297
-0.201923643486
-0.202194721302
-0.194809516538
-0.195590980218
-0.195551354561
-0.196385495732
-0.196341340712
-0.196308837823
-0.197198624729
-0.197148920606
-0.197114586065
-0.197150865067
-0.198040951204
-0.197984096758
-0.197947340313
-0.197993171034
-0.198120297719
-0.198862252229
-0.198821367298
-0.198878739162
-0.19902662194
-0.199231907767
-0.19974926984
-0.199822230782
-0.199995018772
-0.200224550663
-0.200461032958
-0.200850251216
-0.201051681521
-0.201307026184
-0.201558143367
-0.201762812964
-0.202237831471
-0.202518511371
-0.202779213393
-0.202977095114
-0.203096082299
-0.203901814304
-0.204161650114
-0.204339155062
-0.204424541073
-0.204425291373
-0.205723251722
-0.205861085319
-0.205892651952
-0.205834356246
-0.205708037419
-0.207552004762
-0.207502004014
-0.20736180882
-0.207154475552
-0.206896331203
-0.209223976611
-0.208967588874
-0.208646272454
-0.208278947099
-0.207878230132
-0.21040102499
-0.209940375104
-0.209443534856
-0.208921969279
-0.208382067335
-0.210687469677
-0.210070770418
-0.209444004101
-0.208812252775
-0.20817909442
-0.210200986592
-0.209453452057
-0.208725380491
-0.208019181491
-0.207336402844
-0.207537551782
-0.206903087788
-0.20631845915
-0.205781527087
-0.205286067589
-0.201922366189
-0.20218060882
-0.202400935407
-0.202572880083
-0.202690208315
-0.201069722004
-0.201549340227
-0.201923504129
-0.202196132128
-0.202368743487
-0.194038012475
-0.194809517955
-0.194773752057
-0.195590977565
-0.195551355986
-0.195520585151
-0.196385496565
-0.196341337295
-0.196308837819
-0.19633748779
-0.197198618239
-0.197148921268
-0.197114581498
-0.197150865208
-0.197260493313
-0.197984089532
-0.197947340436
-0.197993164977
-0.198120297263
-0.198303747339
-0.198821361106
-0.198878738378
-0.199026613679
-0.199231906877
-0.199452216853
-0.199822221582
-0.199995016125
-0.200224539516
-0.200461031696
-0.200664448947
-0.201051669139
-0.201307020531
-0.201558128151
-0.201762809792
-0.201900853511
-0.202518495222
-0.202779202886
-0.202977074233
-0.203096074235
-0.203138034217
-0.204161624078
-0.204339136693
-0.204424513185
-0.204425280848
-0.204357345995
-0.205861043321
-0.205892620241
-0.205834321065
-0.205708025342
-0.205529981821
-0.207501964922
-0.207361762665
-0.207154429036
-0.206896290586
-0.206600222359
-0.208967531223
-0.208646213007
-0.208278886141
-0.207878179123
-0.20745140092
-0.209940181794
-0.209443452668
-0.208921912121
-0.208382105749
-0.20782784266
-0.210070815713
-0.209443944993
-0.20881217254
-0.208178826635
-0.207546677933
-0.20945365279
-0.208725411315
-0.208019042565
-0.207336152245
-0.206677394914
-0.206901714848
-0.206318405448
-0.205781502324
-0.205286959436
-0.204827030105
-0.202182588545
-0.202401028273
-0.202572708153
-0.202688538191
-0.202743718369
-0.201547354602
-0.201923518155
-0.202196009279
-0.202369992796
-0.202448219731
-0.193275001061
-0.194038013709
-0.194005643919
-0.194809515945
-0.194773753364
-0.194744745175
-0.195590978438
-0.195551353324
-0.195520585183
-0.195543330506
-0.196385490997
-0.196341338126
-0.196308834397
-0.196337487984
-0.196432503807
-0.197148914976
-0.197114582144
-0.197150860654
-0.197260493473
-0.197424468582
-0.197947335279
-0.197993165068
-0.198120291236
-0.198303747079
-0.198507797422
-0.198878731555
-0.199026612841
-0.199231898664
-0.199452216409
-0.199650368693
-0.199995006837
-0.200224536823
-0.200461020641
-0.200664447924
-0.200812309536
-0.201307007889
-0.201558122444
-0.201762794747
-0.201900850271
-0.201969241798
-0.20277918663
-0.202977063801
-0.203096053692
-0.203138026453
-0.20311275316
-0.204339111779
-0.204424495294
-0.204425253514
-0.204357335371
-0.204237016481
-0.205892580672
-0.205834291163
-0.205707991068
-0.205529969947
-0.20531137864
-0.207361729079
-0.207154387619
-0.206896245365
-0.206600180307
-0.206274217955
-0.208646165243
-0.208278836389
-0.207878120174
-0.207451352317
-0.207002467476
-0.209443276197
-0.208921843672
-0.208382051349
-0.207827877056
-0.207261989128
-0.209444026888
-0.20881212715
-0.208178747357
-0.20754641026
-0.206917415969
-0.208725595605
-0.20801907176
-0.2073360199
-0.206677226376
-0.20604234467
-0.206317125028
-0.205781434935
-0.205286938243
-0.204827821033
-0.204395139834
-0.20240286735
-0.20257278652
-0.202688376067
-0.202742254964
-0.20273125709
-0.201921739633
-0.202196027321
-0.202369886264
-0.202449315507
-0.20243793828
-0.192519822753
-0.193275002177
-0.193245688588
-0.194038012121
-0.194005645059
-0.193978482873
-0.194809516711
-0.19477375134
-0.194744745225
-0.194762974984
-0.195590973645
-0.1955513542
-0.19552058251
-0.195543330684
-0.195626256517
-0.196341332732
-0.196308835226
-0.196337484557
-0.196432503994
-0.196579422569
-0.197114577632
-0.197150861275
-0.197260488933
-0.197424468858
-0.197612769659
-0.197993159558
-0.198120291295
-0.198303741074
-0.198507797536
-0.198698469533
-0.199026605962
-0.199231897778
-0.199452208251
-0.199650368477
-0.199802832297
-0.200224527285
-0.200461017908
-0.200664436963
-0.20081230847
-0.200897851598
-0.201558109492
-0.201762789014
-0.201900835437
-0.201969238624
-0.201974190143
-0.202977048102
-0.203096043397
-0.203138006293
-0.203112745293
-0.203034068282
-0.204424471505
-0.204425236278
-0.204357308707
-0.204237006495
-0.20407557357
-0.205834254699
-0.205707963188
-0.205529936728
-0.205311366566
-0.20506103328
-0.207154359397
-0.206896208564
-0.206600136592
-0.206274175427
-0.205922703542
-0.208278797611
-0.20787807818
-0.207451295785
-0.207002423776
-0.206533637961
-0.208921684125
-0.208381992197
-0.207827825771
-0.207262018547
-0.20668683204
-0.208812241811
-0.208178710965
-0.207546331913
-0.206917154328
-0.20629301369
-0.208019222891
-0.207336045488
-0.206677102489
-0.206042255956
-0.205430070467
-0.205780262769
-0.205286863974
-0.204827803215
-0.204395817038
-0.203981215229
-0.202574469771
-0.202688445762
-0.202742103467
-0.202729997069
-0.202650663208
-0.202194448901
-0.202369900699
-0.202449224675
-0.202438886958
-0.202343078322
-0.191772688675
-0.192519823705
-0.192493299503
-0.193275000964
-0.19324568962
-0.193220452235
-0.194038012777
-0.194005643455
-0.193978482878
-0.193993316904
-0.194809512412
-0.194773752115
-0.19474474318
-0.194762975143
-0.194835904679
-0.195551349552
-0.19552058339
-0.195543328
-0.195626256669
-0.195758423696
-0.196308831418
-0.196337485378
-0.196432500564
-0.196579422799
-0.196753062595
-0.197150856516
-0.197260489529
-0.197424464324
-0.197612770245
-0.197794718945
-0.198120285806
-0.198303741106
-0.198507791554
-0.198698469871
-0.198852089204
-0.199231890709
-0.199452207323
-0.19965036037
-0.199802832062
-0.199899995229
-0.200461008021
-0.200664434203
-0.200812297631
-0.200897850457
-0.20092424578
-0.201762776246
-0.201900829706
-0.201969224029
-0.201974187154
-0.201925838953
-0.20309602848
-0.203137996216
-0.203112725591
-0.203034060351
-0.202914289164
-0.204425213916
-0.204357292259
-0.204236980602
-0.204075564226
-0.20388138996
-0.205707929225
-0.205529910928
-0.205311334595
-0.205061021285
-0.204784166041
-0.206896186466
-0.20660010391
-0.206274133399
-0.205922661421
-0.205547785196
-0.207878046776
-0.20745125965
-0.207002370122
-0.206533600741
-0.206046431727
-0.208381849677
-0.207827773003
-0.207261970564
-0.206686854458
-0.206104522713
-0.20817885283
-0.207546302841
-0.206917077051
-0.206292764553
-0.205674627269
-0.207336150395
-0.206677124213
-0.206042142338
-0.205430054356
-0.204838314334
-0.205285814265
-0.204827727409
-0.204395802122
-0.203981773283
-0.203575728985
-0.202689961579
-0.202742166928
-0.202729857169
-0.202649599639
-0.202501557947
-0.202368513391
-0.20244923273
-0.202438810862
-0.202343885431
-0.202168984856
-0.191034035548
-0.191772689525
-0.1917487354
-0.192519822738
-0.19249330038
-0.19247003603
-0.193275001463
-0.193245688386
-0.193220452238
-0.193232771404
-0.194038008973
-0.194005644122
-0.193978481248
-0.193993316994
-0.194057996654
-0.194773747943
-0.194744743969
-0.194762973076
-0.19483590479
-0.194955364259
-0.195520580159
-0.195543328877
-0.195626253975
-0.195758423839
-0.195918731683
-0.196337481417
-0.196432501376
-0.196579419356
-0.196753063072
-0.196925920618
-0.1972604848
-0.1974244649
-0.197612765714
-0.197794719754
-0.197947156023
-0.198303735506
-0.198507791566
-0.198698463903
-0.19885208955
-0.198957004833
-0.199452199923
-0.199650359409
-0.199802824019
-0.199899994855
-0.199942178735
-0.200664424314
-0.200812294853
-0.20089783975
-0.200924244839
-0.200898903587
-0.201900817421
-0.20196921834
-0.201974172853
-0.201925835835
-0.201835668856
-0.203137981811
-0.203112715807
-0.203034041157
-0.202914281897
-0.202761262923
-0.204357271447
-0.204236965032
-0.204075539245
-0.203881381248
-0.203660304232
-0.205529879338
-0.205311310765
-0.205060990717
-0.204784154332
-0.204483267412
-0.206600087741
-0.206274104265
-0.205922621292
-0.20554774421
-0.20515039573
-0.207451233751
-0.207002338323
-0.206533550375
-0.206046401647
-0.205542248165
-0.207827647802
-0.207261922826
-0.206686809816
-0.206104535928
-0.20551700731
-0.207546464888
-0.206917055023
-0.206292688656
-0.205674397602
-0.205062764409
-0.206677174542
-0.206042160321
-0.205429952602
-0.204838359148
-0.204263783479
-0.204826811083
-0.204395728565
-0.203981760538
-0.203576169814
-0.203169367307
-0.202743507921
-0.202729915412
-0.202649472403
-0.202500680541
-0.202285125229
-0.202448026484
-0.202438812412
-0.202343822776
-0.202169655449
-0.201921024672
-0.190304190771
-0.191034036305
-0.191012454971
-0.191772688796
-0.19174873618
-0.191727468056
-0.192519823107
-0.192493299391
-0.192470035971
-0.192480519384
-0.193274997943
-0.1932456889
-0.193220450972
-0.193232771475
-0.193290626015
-0.194005640426
-0.193978481933
-0.193993315339
-0.19405799668
-0.194166547767
-0.194744741078
-0.194762973872
-0.194835902701
-0.194955364312
-0.195103701782
-0.195543325538
-0.195626254848
-0.195758421125
-0.195918732023
-0.196082662993
-0.196432497469
-0.196579420162
-0.196753059612
-0.196925921313
-0.197075718138
-0.197424460121
-0.197612766276
-0.197794715215
-0.197947156882
-0.198057071661
-0.19850778568
-0.198698463901
-0.198852083604
-0.198957005064
-0.199011038516
-0.199650351929
-0.199802823034
-0.199899986881
-0.199942178307
-0.199934860158
-0.20081228525
-0.20089783697
-0.200924234302
-0.200898902664
-0.200831361096
-0.20196920645
-0.201974167242
-0.201925821863
-0.201835665851
-0.201712624808
-0.203112702344
-0.203034031737
-0.202914263305
-0.202761255966
-0.202581283457
-0.204236945154
-0.204075524566
-0.203881357298
-0.20366029635
-0.203415499292
-0.205311282205
-0.205060968694
-0.204784125346
-0.204483255997
-0.204159173901
-0.206274093621
-0.205922595197
-0.205547706143
-0.205150356458
-0.204731060705
-0.207002315985
-0.20653352197
-0.206046354962
-0.205542225076
-0.205022572501
-0.207261815592
-0.206686766769
-0.206104494456
-0.205517009735
-0.204925897071
-0.206917228873
-0.206292673839
-0.205674323662
-0.205062560965
-0.204457228458
-0.206042153267
-0.205429966707
-0.204838270404
-0.20426387415
-0.203702275503
-0.204394951619
-0.203981692058
-0.203576158409
-0.203169699475
-0.20275355169
-0.202731078868
-0.202649525601
-0.202500566997
-0.202284420864
-0.202003798838
-0.202437776891
-0.202343819114
-0.202169604736
-0.201921563779
-0.201604509718
-0.189583579044
-0.190304191434
-0.190284801174
-0.191034035727
-0.191012455662
-0.190993166707
-0.191772689023
-0.191748735426
-0.191727467988
-0.191736652344
-0.192519819945
-0.192493299776
-0.192470034949
-0.192480519376
-0.192532698136
-0.193245685479
-0.19322045151
-0.193232770176
-0.193290626008
-0.193389786618
-0.193978479392
-0.193993316036
-0.194057994998
-0.194166547699
-0.194304214313
-0.194762970912
-0.194835903504
-0.194955362192
-0.195103701981
-0.195259150882
-0.195626251574
-0.195758421999
-0.195918729284
-0.196082663534
-0.196229150422
-0.196579416277
-0.19675306042
-0.196925917826
-0.197075718903
-0.197188673816
-0.197612761254
-0.197794715772
-0.197947152337
-0.19805707245
-0.198120286441
-0.198698457904
-0.198852083593
-0.198956999137
-0.199011038639
-0.199017672834
-0.199802815718
-0.199899985881
-0.199942170423
-0.199934859955
-0.199885035385
-0.200897827718
-0.200924231536
-0.200898892314
-0.200831360153
-0.200730322479
-0.201974155631
-0.201925816371
-0.201835652268
-0.201712622287
-0.201562429562
-0.203034019249
-0.202914254288
-0.20276123804
-0.202581276938
-0.202378157957
-0.20407550573
-0.203881343491
-0.20366027358
-0.203415492386
-0.203148161904
-0.205060943143
-0.204784104961
-0.204483228711
-0.204159162638
-0.203811918954
-0.205922589443
-0.205547682787
-0.205150320632
-0.20473102364
-0.204290330509
-0.206533501489
-0.206046329428
-0.205542182345
-0.205022555606
-0.204488964073
-0.206686678259
-0.206104456378
-0.205516971131
-0.204925888288
-0.204332336949
-0.206292850208
-0.205674315926
-0.205062489804
-0.20445705677
-0.203857111261
-0.205429905119
-0.204838280413
-0.204263798975
-0.203702395171
-0.203148886306
-0.203981054627
-0.203576097008
-0.203169688606
-0.202753789015
-0.202320863655
-0.202650513325
-0.20250061491
-0.202284321909
-0.202003252134
-0.201660910362
-0.202342944499
-0.202169597554
-0.201921523388
-0.201604922947
-0.201224664981
-0.188872532649
-0.189583579632
-0.189566211571
-0.190304191005
-0.190284801772
-0.190267443428
-0.19103403585
-0.191012455059
-0.190993166627
-0.191001456948
-0.191772686052
-0.191748735673
-0.191727467197
-0.191736652314
-0.191784108086
-0.192493296702
-0.19247003536
-0.19248051832
-0.192532698036
-0.19262373838
-0.193220449138
-0.193232770732
-0.193290624675
-0.193389786494
-0.193517924159
-0.193993313444
-0.194057995707
-0.194166545982
-0.194304214355
-0.194451659978
-0.194835900633
-0.194955363006
-0.195103699824
-0.19525915126
-0.195401947664
-0.195758418791
-0.195918730165
-0.196082660759
-0.196229151073
-0.19634398637
-0.196753056353
-0.196925918641
-0.197075715388
-0.197188674537
-0.197259062049
-0.197794710615
-0.197947152893
-0.198057067896
-0.198120287101
-0.198138560829
-0.198852077696
-0.198956999122
-0.199011032746
-0.199017673002
-0.198982866909
-0.199899978875
-0.199942169416
-0.199934852172
-0.199885035031
-0.199800954471
-0.200924222354
-0.200898889583
-0.200831350033
-0.200730321863
-0.200601864271
-0.201925805408
-0.201835646929
-0.201712609133
-0.201562427187
-0.20138940883
-0.202914242097
-0.202761229459
-0.20258125978
-0.202378152012
-0.202153602407
-0.20388132585
-0.203660260603
-0.20341547091
-0.203148155985
-0.202858275862
-0.204784082333
-0.204483209881
-0.204159137166
-0.203811907609
-0.203441312289
-0.205547681168
-0.205150299866
-0.204730990181
-0.204290296118
-0.203828951284
-0.206046309491
-0.205542159477
-0.205022517
-0.204488952109
-0.203942945077
-0.206104387215
-0.205516938468
-0.204925852137
-0.204332317967
-0.20373691503
-0.205674485206
-0.205062488552
-0.204456989456
-0.203856974651
-0.203260830784
-0.204838172449
-0.204263804721
-0.203702333411
-0.203149018253
-0.202598290602
-0.203575592953
-0.203169635641
-0.202753778078
-0.202321023284
-0.201865327655
-0.202501432926
-0.202284363968
-0.202003168397
-0.201660504245
-0.201260352735
-0.202168874783
-0.20192151434
-0.20160489126
-0.201224959157
-0.200786616883
-0.188171186753
-0.18887253319
-0.188857026151
-0.189583579303
-0.189566212096
-0.189550714591
-0.190304191024
-0.190284801317
-0.190267443325
-0.190275142768
-0.191034033119
-0.191012455202
-0.190993165986
-0.191001456893
-0.191044957529
-0.191748732783
-0.191727467472
-0.191736651484
-0.191784107956
-0.191868125327
-0.192470033237
-0.192480518752
-0.192532696944
-0.192623738145
-0.192743355194
-0.193232768328
-0.193290625251
-0.193389785118
-0.193517924111
-0.193657913598
-0.194057993214
-0.194166546706
-0.194304212596
-0.194451660201
-0.194590352947
-0.19495536025
-0.195103700657
-0.195259149055
-0.195401948155
-0.195517800516
-0.195918726815
-0.196082661655
-0.196229148258
-0.196343987032
-0.196420185037
-0.19692591444
-0.197075716217
-0.197188670988
-0.19725906268
-0.19728698066
-0.19794714777
-0.198057068455
-0.198120282547
-0.198138561416
-0.198116668713
-0.198956993468
-0.199011032731
-0.199017667146
-0.198982867008
-0.198913806333
-0.199942162627
-0.19993485117
-0.199885027378
-0.199800953953
-0.199689776209
-0.200898880687
-0.200831347357
-0.200730311999
-0.200601863713
-0.200450850256
-0.201835636395
-0.201712603981
-0.201562414529
-0.201389406636
-0.201195981236
-0.202761218011
-0.202581251648
-0.202378135688
-0.202153597125
-0.201907865695
-0.203660244031
-0.203415458743
-0.203148135927
-0.202858270818
-0.202545271406
-0.204483190196
-0.20415911988
-0.203811883992
-0.203441300618
-0.203047268702
-0.205150301489
-0.204730971978
-0.204290265154
-0.203828920024
-0.203347873428
-0.205542139381
-0.205022496722
-0.204488917625
-0.20394293652
-0.203385864385
-0.205516888652
-0.204925825314
-0.204332283884
-0.203736888221
-0.203139624982
-0.205062641797
-0.204456993544
-0.203856912369
-0.203260729693
-0.202666211337
-0.204263662623
-0.203702335045
-0.203148969058
-0.202598420125
-0.202045070968
-0.203169253092
-0.202753734204
-0.202321011981
-0.201865427915
-0.201382533086
-0.202285021885
-0.202003203898
-0.201660436001
-0.201260069015
-0.200806301794
-0.201920935037
-0.201604881694
-0.201224934633
-0.200786800514
-0.20029538485
-0.187479626572
-0.188171187219
-0.18815739128
-0.188872532964
-0.188857026628
-0.188843301523
-0.189583579248
-0.189566211742
-0.189550714481
-0.189558052783
-0.190304188447
-0.190284801356
-0.19026744283
-0.190275142675
-0.19031530816
-0.191012452546
-0.190993166159
-0.191001456212
-0.191044957366
-0.191122864241
-0.191727465449
-0.191736651784
-0.191784107084
-0.191868125053
-0.191980144265
-0.192480516608
-0.192532697398
-0.192623737008
-0.192743355002
-0.19287641703
-0.193290622962
-0.193389785715
-0.193517922686
-0.193657913707
-0.193792607327
-0.194166544358
-0.194304213342
-0.19445165839
-0.194590353266
-0.194706309669
-0.195103697811
-0.195259149911
-0.195401945899
-0.195517801037
-0.19559879551
-0.196082658177
-0.196229149176
-0.196343984172
-0.196420185628
-0.196456540231
-0.197075712022
-0.197188671832
-0.197259059105
-0.197286981211
-0.197275917909
-0.198057063504
-0.198120283112
-0.198138556864
-0.198116669494
-0.198060022161
-0.199011027299
-0.199017667132
-0.19898286121
-0.198913806421
-0.198816918908
-0.199934844345
-0.19988502639
-0.199800946446
-0.199689776097
-0.199555851084