/*--------------------------------*- C++ -*----------------------------------*\
| =========                 |                                                 |
| \\      /  F ield         | OpenFOAM: The Open Source CFD Toolbox           |
|  \\    /   O peration     | Version:  2212                                  |
|   \\  /    A nd           | Website:  www.openfoam.com                      |
|    \\/     M anipulation  |                                                 |
\*---------------------------------------------------------------------------*/
FoamFile
{
    version     2.0;
    format      ascii;
    arch        "LSB;label=64;scalar=64";
    class       volScalarField;
    location    "410";
    object      Gch4;
}
// * * * * * * * * * * * * * * * * * * * * * * * * * * * * * * * * * * * * * //

dimensions      [1 -3 0 0 0 0 0];

internalField   nonuniform List<scalar> 
1024
(
1.90693
1.90687
1.90672
1.90646
1.90606
1.90551
1.90482
1.90403
1.90319
1.90233
1.90148
1.90066
1.89994
1.89943
1.89935
1.90006
1.90176
1.90385
1.90601
1.90805
1.90984
1.91131
1.9125
1.91346
1.91427
1.91496
1.91553
1.91598
1.91631
1.91653
1.91665
1.9167
1.90691
1.90685
1.9067
1.90642
1.90601
1.90544
1.90474
1.90394
1.90308
1.90221
1.90135
1.90053
1.89979
1.89926
1.89917
1.89989
1.90161
1.90373
1.90591
1.90796
1.90976
1.91124
1.91243
1.9134
1.91421
1.91491
1.91548
1.91595
1.91629
1.91651
1.91664
1.91669
1.90687
1.9068
1.90664
1.90635
1.9059
1.9053
1.90457
1.90374
1.90286
1.90197
1.90108
1.90022
1.89944
1.89886
1.89874
1.89948
1.90128
1.90345
1.90568
1.90777
1.90959
1.91109
1.91229
1.91327
1.91409
1.9148
1.9154
1.91588
1.91624
1.91648
1.91661
1.91667
1.9068
1.90673
1.90655
1.90623
1.90574
1.90509
1.90431
1.90344
1.90253
1.90159
1.90065
1.89971
1.89882
1.89814
1.89794
1.89872
1.90068
1.90299
1.90532
1.90748
1.90933
1.91085
1.91206
1.91306
1.91391
1.91465
1.91528
1.91579
1.91617
1.91643
1.91658
1.91664
1.90671
1.90663
1.90643
1.90607
1.90554
1.90483
1.90399
1.90306
1.90209
1.90108
1.90003
1.89895
1.89789
1.897
1.89667
1.89752
1.89973
1.90229
1.9048
1.90706
1.90897
1.91051
1.91175
1.91277
1.91366
1.91445
1.91512
1.91568
1.91609
1.91637
1.91652
1.91659
1.90659
1.9065
1.90628
1.90589
1.90531
1.90454
1.90363
1.90263
1.90157
1.90044
1.89923
1.89792
1.89657
1.89538
1.89483
1.89577
1.89838
1.9013
1.90409
1.9065
1.90849
1.91007
1.91135
1.91242
1.91337
1.91422
1.91495
1.91555
1.916
1.91629
1.91646
1.91653
1.90646
1.90637
1.90613
1.90571
1.90507
1.90425
1.90326
1.90217
1.90099
1.89969
1.89825
1.89662
1.89486
1.89322
1.89238
1.89345
1.89658
1.89999
1.90313
1.90576
1.90786
1.90952
1.91087
1.91202
1.91306
1.91398
1.91478
1.91542
1.9159
1.91622
1.91639
1.91646
1.90632
1.90623
1.90598
1.90554
1.90487
1.90398
1.90292
1.90173
1.90039
1.89888
1.89713
1.89508
1.89278
1.89055
1.88933
1.89058
1.89434
1.89834
1.9019
1.9048
1.90707
1.90885
1.91032
1.9116
1.91274
1.91375
1.91462
1.91531
1.91581
1.91614
1.91632
1.91639
1.90619
1.9061
1.90585
1.90539
1.9047
1.90378
1.90265
1.90134
1.89983
1.89807
1.89595
1.8934
1.89042
1.88745
1.88579
1.88731
1.89179
1.89643
1.90043
1.90363
1.90612
1.9081
1.90974
1.91118
1.91245
1.91356
1.91449
1.91521
1.91574
1.91607
1.91625
1.91633
1.90608
1.90598
1.90574
1.90529
1.9046
1.90365
1.90246
1.90105
1.89937
1.89734
1.89482
1.89166
1.88786
1.88399
1.88187
1.8838
1.8891
1.89441
1.89884
1.90236
1.90512
1.90734
1.90921
1.91082
1.91223
1.91343
1.9144
1.91515
1.91568
1.91602
1.9162
1.91627
1.906
1.9059
1.90566
1.90523
1.90455
1.9036
1.90239
1.90089
1.89906
1.89676
1.89379
1.88991
1.88507
1.88011
1.8776
1.88022
1.88654
1.89256
1.89741
1.90123
1.90428
1.90676
1.90885
1.91063
1.91214
1.91339
1.91439
1.91514
1.91566
1.91599
1.91617
1.91624
1.90595
1.90586
1.90563
1.90522
1.90457
1.90365
1.90243
1.90089
1.89893
1.89635
1.89285
1.88805
1.88186
1.87555
1.87284
1.8766
1.88427
1.89116
1.89646
1.90059
1.90389
1.90659
1.90883
1.91071
1.91225
1.9135
1.91447
1.91519
1.91569
1.916
1.91618
1.91625
1.90595
1.90587
1.90565
1.90526
1.90465
1.90378
1.90259
1.90103
1.89894
1.89604
1.89183
1.88575
1.87774
1.86987
1.86729
1.87274
1.88216
1.89012
1.89601
1.90053
1.90411
1.907
1.90934
1.91121
1.91269
1.91384
1.91472
1.91536
1.9158
1.91609
1.91625
1.91632
1.90603
1.90594
1.90574
1.90538
1.90482
1.904
1.90285
1.90127
1.89901
1.89562
1.89037
1.88246
1.87201
1.86245
1.86041
1.86786
1.87907
1.88814
1.89485
1.90011
1.90433
1.90768
1.91026
1.91216
1.91353
1.91451
1.91521
1.91573
1.91608
1.91632
1.91647
1.91653
1.90619
1.9061
1.90591
1.90558
1.90505
1.90428
1.90316
1.9015
1.89893
1.89476
1.88794
1.87743
1.86391
1.85253
1.85099
1.85975
1.87152
1.88094
1.88857
1.89533
1.90133
1.90639
1.9103
1.91297
1.91458
1.9155
1.91604
1.91639
1.91664
1.9168
1.91689
1.91692
1.90646
1.90637
1.90618
1.90586
1.90537
1.90462
1.90347
1.90163
1.89854
1.89318
1.88412
1.87019
1.8529
1.83906
1.83633
1.84317
1.85169
1.85886
1.86635
1.87478
1.88383
1.89273
1.90066
1.90703
1.91153
1.91439
1.91595
1.91652
1.91646
1.91609
1.91569
1.91545
1.9069
1.90681
1.90661
1.9063
1.90582
1.90509
1.90391
1.90187
1.89821
1.89156
1.88007
1.86242
1.84074
1.82238
1.81385
1.81218
1.81081
1.80981
1.81157
1.81618
1.82322
1.83194
1.84149
1.85105
1.85993
1.86763
1.87385
1.87837
1.88124
1.88275
1.88336
1.88351
1.90744
1.90734
1.90714
1.90684
1.9064
1.90574
1.90467
1.90277
1.89918
1.89234
1.87998
1.86035
1.83519
1.8108
1.79282
1.77913
1.76527
1.75292
1.74412
1.73846
1.73562
1.73536
1.73747
1.74176
1.74794
1.75553
1.76403
1.77268
1.7806
1.7869
1.791
1.79285
1.90811
1.90801
1.90781
1.9075
1.90709
1.90652
1.90568
1.90423
1.90152
1.89622
1.88615
1.86889
1.84434
1.81745
1.79305
1.77213
1.75269
1.73666
1.72497
1.71606
1.70875
1.70249
1.69729
1.6935
1.69154
1.69172
1.6941
1.69838
1.70377
1.70912
1.71323
1.71532
1.9087
1.90866
1.90853
1.9083
1.90794
1.90746
1.9068
1.90579
1.90401
1.90062
1.89406
1.88224
1.86344
1.83934
1.81281
1.78798
1.76568
1.74863
1.73711
1.72896
1.72221
1.71562
1.70877
1.70186
1.6955
1.69026
1.6866
1.6847
1.68443
1.68529
1.68652
1.68735
1.90801
1.90815
1.90836
1.90852
1.90853
1.90832
1.9079
1.90723
1.90612
1.9041
1.90023
1.89298
1.88057
1.86283
1.8395
1.81306
1.78766
1.768
1.75432
1.74447
1.73635
1.72843
1.71999
1.71108
1.70239
1.69471
1.68866
1.68447
1.68206
1.68103
1.68086
1.68098
1.90422
1.90466
1.9055
1.90655
1.9075
1.90812
1.90833
1.90815
1.90759
1.90647
1.90427
1.90002
1.89222
1.87966
1.86057
1.83511
1.80809
1.78578
1.76935
1.75701
1.7469
1.73746
1.72773
1.71743
1.70703
1.69739
1.68937
1.68353
1.67992
1.67814
1.67756
1.67752
1.89623
1.897
1.89861
1.90087
1.90333
1.90547
1.90696
1.90776
1.90794
1.90756
1.90641
1.90391
1.89888
1.88969
1.87365
1.84926
1.82131
1.79713
1.77867
1.7644
1.7527
1.74213
1.7317
1.7209
1.70987
1.69924
1.68992
1.68272
1.67797
1.67545
1.67452
1.67439
1.88422
1.88527
1.88762
1.8912
1.89548
1.89965
1.90302
1.90531
1.90659
1.90699
1.90653
1.90483
1.90096
1.89319
1.87844
1.85443
1.82591
1.80075
1.78124
1.76598
1.75345
1.74238
1.73178
1.72107
1.71015
1.6994
1.68958
1.68157
1.67598
1.67282
1.67155
1.67133
1.86899
1.87028
1.8733
1.87811
1.8842
1.89054
1.89606
1.90011
1.90261
1.90369
1.90342
1.90157
1.89739
1.88927
1.87435
1.85033
1.82191
1.79683
1.77733
1.76205
1.74955
1.73866
1.72848
1.71839
1.70816
1.69794
1.6883
1.68006
1.67397
1.67031
1.66873
1.66842
1.8512
1.85272
1.85626
1.86195
1.86938
1.87746
1.88483
1.8904
1.89379
1.89503
1.89424
1.89132
1.88575
1.87631
1.86071
1.83712
1.80995
1.7862
1.76778
1.75339
1.74168
1.7316
1.72234
1.71332
1.70423
1.69503
1.68609
1.67813
1.67192
1.66795
1.6661
1.66568
1.83112
1.83281
1.83648
1.84223
1.84982
1.8584
1.86661
1.8729
1.87644
1.87723
1.87542
1.87109
1.86402
1.85345
1.83784
1.81585
1.79133
1.77013
1.75376
1.741
1.73069
1.72189
1.71393
1.70628
1.69862
1.6908
1.68301
1.67575
1.66978
1.66572
1.66369
1.66317
1.80865
1.81032
1.81338
1.81787
1.82394
1.83129
1.83883
1.84472
1.84776
1.84786
1.8452
1.84001
1.83233
1.82182
1.80753
1.78854
1.76791
1.75023
1.7366
1.726
1.71748
1.71027
1.70382
1.69771
1.69164
1.68541
1.67904
1.67287
1.66751
1.66362
1.6615
1.66089
1.78329
1.78459
1.78607
1.78808
1.79133
1.79605
1.80155
1.80615
1.80844
1.80814
1.80537
1.8004
1.79343
1.78436
1.77267
1.75774
1.74179
1.72816
1.71767
1.70952
1.70299
1.69751
1.69265
1.68811
1.68363
1.67904
1.67426
1.66944
1.66501
1.66157
1.65954
1.65887
1.75397
1.7544
1.75368
1.75298
1.75338
1.75527
1.75831
1.76127
1.76285
1.76257
1.76042
1.7566
1.75136
1.74471
1.73639
1.72598
1.71493
1.7055
1.69824
1.69261
1.68811
1.68435
1.68105
1.678
1.67502
1.67197
1.66877
1.66543
1.66219
1.65949
1.65775
1.6571
1.71899
1.7181
1.71583
1.71387
1.71285
1.71299
1.71414
1.71564
1.71657
1.71648
1.71525
1.71301
1.70992
1.70604
1.70123
1.69527
1.68895
1.68355
1.67939
1.67616
1.67359
1.67146
1.6696
1.66789
1.66623
1.66455
1.66278
1.6609
1.65899
1.65729
1.65608
1.65556
1.6765
1.67581
1.67458
1.67357
1.67295
1.67277
1.673
1.67343
1.67374
1.67374
1.67337
1.67266
1.67166
1.67041
1.66887
1.66697
1.66495
1.66322
1.66188
1.66085
1.66003
1.65935
1.65876
1.65822
1.6577
1.65718
1.65663
1.65604
1.65543
1.65486
1.65442
1.65421
)
;

boundaryField
{
    movingWall
    {
        type            fixedValue;
        value           uniform 1.6535;
    }
    fixedWalls
    {
        type            zeroGradient;
    }
    floor
    {
        type            zeroGradient;
    }
    frontAndBack
    {
        type            empty;
    }
}


// ************************************************************************* //
