/*--------------------------------*- C++ -*----------------------------------*\
| =========                 |                                                 |
| \\      /  F ield         | OpenFOAM: The Open Source CFD Toolbox           |
|  \\    /   O peration     | Version:  2212                                  |
|   \\  /    A nd           | Website:  www.openfoam.com                      |
|    \\/     M anipulation  |                                                 |
\*---------------------------------------------------------------------------*/
FoamFile
{
    version     2.0;
    format      ascii;
    arch        "LSB;label=64;scalar=64";
    class       volScalarField;
    location    "410";
    object      Gh2;
}
// * * * * * * * * * * * * * * * * * * * * * * * * * * * * * * * * * * * * * //

dimensions      [1 -3 0 0 0 0 0];

internalField   nonuniform List<scalar> 
1024
(
1.25201e-05
1.25198e-05
1.25189e-05
1.25172e-05
1.25148e-05
1.25114e-05
1.25072e-05
1.25024e-05
1.24972e-05
1.2492e-05
1.24868e-05
1.24819e-05
1.24777e-05
1.24747e-05
1.24745e-05
1.24793e-05
1.24902e-05
1.25036e-05
1.25174e-05
1.25305e-05
1.25421e-05
1.25516e-05
1.25593e-05
1.25656e-05
1.25708e-05
1.25753e-05
1.2579e-05
1.25819e-05
1.2584e-05
1.25854e-05
1.25862e-05
1.25865e-05
1.252e-05
1.25196e-05
1.25187e-05
1.2517e-05
1.25145e-05
1.2511e-05
1.25067e-05
1.25018e-05
1.24965e-05
1.24913e-05
1.24861e-05
1.24811e-05
1.24767e-05
1.24737e-05
1.24734e-05
1.24783e-05
1.24893e-05
1.25028e-05
1.25168e-05
1.253e-05
1.25416e-05
1.25512e-05
1.25589e-05
1.25652e-05
1.25705e-05
1.25749e-05
1.25787e-05
1.25817e-05
1.25839e-05
1.25853e-05
1.25861e-05
1.25865e-05
1.25198e-05
1.25194e-05
1.25183e-05
1.25165e-05
1.25138e-05
1.25101e-05
1.25056e-05
1.25005e-05
1.24952e-05
1.24898e-05
1.24844e-05
1.24792e-05
1.24746e-05
1.24712e-05
1.24708e-05
1.24757e-05
1.24872e-05
1.25011e-05
1.25154e-05
1.25288e-05
1.25405e-05
1.25502e-05
1.2558e-05
1.25643e-05
1.25697e-05
1.25743e-05
1.25782e-05
1.25813e-05
1.25836e-05
1.25851e-05
1.2586e-05
1.25864e-05
1.25194e-05
1.25189e-05
1.25178e-05
1.25158e-05
1.25128e-05
1.25088e-05
1.2504e-05
1.24987e-05
1.24931e-05
1.24874e-05
1.24817e-05
1.2476e-05
1.24708e-05
1.24668e-05
1.24659e-05
1.24711e-05
1.24836e-05
1.24983e-05
1.25132e-05
1.2527e-05
1.25389e-05
1.25487e-05
1.25566e-05
1.2563e-05
1.25685e-05
1.25733e-05
1.25774e-05
1.25807e-05
1.25832e-05
1.25848e-05
1.25858e-05
1.25861e-05
1.25188e-05
1.25183e-05
1.2517e-05
1.25148e-05
1.25116e-05
1.25072e-05
1.25021e-05
1.24964e-05
1.24904e-05
1.24843e-05
1.24779e-05
1.24714e-05
1.2465e-05
1.24598e-05
1.24581e-05
1.24637e-05
1.24778e-05
1.2494e-05
1.251e-05
1.25244e-05
1.25366e-05
1.25466e-05
1.25546e-05
1.25613e-05
1.2567e-05
1.25721e-05
1.25764e-05
1.258e-05
1.25826e-05
1.25844e-05
1.25854e-05
1.25858e-05
1.25181e-05
1.25175e-05
1.25162e-05
1.25137e-05
1.25101e-05
1.25054e-05
1.24998e-05
1.24937e-05
1.24871e-05
1.24803e-05
1.24729e-05
1.2465e-05
1.24568e-05
1.24497e-05
1.24468e-05
1.2453e-05
1.24695e-05
1.2488e-05
1.25056e-05
1.2521e-05
1.25337e-05
1.25439e-05
1.25521e-05
1.25591e-05
1.25652e-05
1.25707e-05
1.25754e-05
1.25792e-05
1.25821e-05
1.2584e-05
1.2585e-05
1.25855e-05
1.25172e-05
1.25167e-05
1.25152e-05
1.25126e-05
1.25087e-05
1.25036e-05
1.24975e-05
1.24908e-05
1.24835e-05
1.24756e-05
1.24667e-05
1.24569e-05
1.24462e-05
1.24364e-05
1.24317e-05
1.24388e-05
1.24585e-05
1.248e-05
1.24998e-05
1.25165e-05
1.25299e-05
1.25405e-05
1.25492e-05
1.25566e-05
1.25633e-05
1.25692e-05
1.25743e-05
1.25784e-05
1.25815e-05
1.25835e-05
1.25846e-05
1.25851e-05
1.25164e-05
1.25158e-05
1.25143e-05
1.25115e-05
1.25074e-05
1.25019e-05
1.24954e-05
1.2488e-05
1.24797e-05
1.24705e-05
1.24598e-05
1.24473e-05
1.24334e-05
1.24201e-05
1.2413e-05
1.24213e-05
1.24449e-05
1.247e-05
1.24924e-05
1.25107e-05
1.25251e-05
1.25365e-05
1.25459e-05
1.25541e-05
1.25614e-05
1.25679e-05
1.25734e-05
1.25778e-05
1.2581e-05
1.25831e-05
1.25842e-05
1.25847e-05
1.25156e-05
1.2515e-05
1.25134e-05
1.25106e-05
1.25063e-05
1.25006e-05
1.24936e-05
1.24855e-05
1.24762e-05
1.24654e-05
1.24524e-05
1.24368e-05
1.24188e-05
1.24011e-05
1.23915e-05
1.24015e-05
1.24295e-05
1.24585e-05
1.24835e-05
1.25037e-05
1.25194e-05
1.2532e-05
1.25425e-05
1.25516e-05
1.25597e-05
1.25668e-05
1.25726e-05
1.25772e-05
1.25805e-05
1.25827e-05
1.25838e-05
1.25843e-05
1.25148e-05
1.25142e-05
1.25127e-05
1.25099e-05
1.25056e-05
1.24997e-05
1.24924e-05
1.24836e-05
1.24732e-05
1.24607e-05
1.24453e-05
1.24261e-05
1.24031e-05
1.238e-05
1.23678e-05
1.23805e-05
1.24136e-05
1.24466e-05
1.24742e-05
1.24962e-05
1.25136e-05
1.25276e-05
1.25395e-05
1.25497e-05
1.25586e-05
1.25661e-05
1.25722e-05
1.2577e-05
1.25803e-05
1.25824e-05
1.25836e-05
1.2584e-05
1.25143e-05
1.25137e-05
1.25122e-05
1.25095e-05
1.25053e-05
1.24994e-05
1.24918e-05
1.24825e-05
1.24712e-05
1.24571e-05
1.24389e-05
1.24153e-05
1.23861e-05
1.23564e-05
1.23421e-05
1.23592e-05
1.23986e-05
1.2436e-05
1.2466e-05
1.24898e-05
1.25089e-05
1.25245e-05
1.25376e-05
1.25488e-05
1.25582e-05
1.25661e-05
1.25723e-05
1.2577e-05
1.25803e-05
1.25823e-05
1.25835e-05
1.25839e-05
1.25139e-05
1.25134e-05
1.2512e-05
1.25094e-05
1.25053e-05
1.24996e-05
1.2492e-05
1.24824e-05
1.24703e-05
1.24545e-05
1.24331e-05
1.24039e-05
1.23666e-05
1.2329e-05
1.23137e-05
1.2338e-05
1.23858e-05
1.24284e-05
1.24611e-05
1.24867e-05
1.25072e-05
1.2524e-05
1.2538e-05
1.25497e-05
1.25593e-05
1.2567e-05
1.2573e-05
1.25775e-05
1.25806e-05
1.25825e-05
1.25836e-05
1.25841e-05
1.25139e-05
1.25134e-05
1.2512e-05
1.25096e-05
1.25058e-05
1.25003e-05
1.24929e-05
1.24832e-05
1.24703e-05
1.24525e-05
1.24269e-05
1.239e-05
1.23417e-05
1.22948e-05
1.22806e-05
1.23156e-05
1.23742e-05
1.24234e-05
1.24597e-05
1.24875e-05
1.25096e-05
1.25274e-05
1.25418e-05
1.25533e-05
1.25624e-05
1.25694e-05
1.25748e-05
1.25787e-05
1.25815e-05
1.25832e-05
1.25842e-05
1.25847e-05
1.25143e-05
1.25138e-05
1.25125e-05
1.25103e-05
1.25067e-05
1.25016e-05
1.24945e-05
1.24846e-05
1.24707e-05
1.245e-05
1.24181e-05
1.23701e-05
1.23071e-05
1.22501e-05
1.22396e-05
1.22871e-05
1.23568e-05
1.24128e-05
1.24541e-05
1.24864e-05
1.25122e-05
1.25326e-05
1.25483e-05
1.25598e-05
1.2568e-05
1.25739e-05
1.25781e-05
1.25812e-05
1.25834e-05
1.25849e-05
1.25858e-05
1.25862e-05
1.25152e-05
1.25147e-05
1.25135e-05
1.25114e-05
1.25081e-05
1.25033e-05
1.24963e-05
1.24861e-05
1.24703e-05
1.24448e-05
1.24033e-05
1.23396e-05
1.2258e-05
1.21902e-05
1.21831e-05
1.22389e-05
1.23121e-05
1.23702e-05
1.24171e-05
1.24584e-05
1.24949e-05
1.25256e-05
1.25492e-05
1.25653e-05
1.25749e-05
1.25803e-05
1.25835e-05
1.25856e-05
1.25872e-05
1.25882e-05
1.25887e-05
1.25889e-05
1.25168e-05
1.25163e-05
1.25151e-05
1.25131e-05
1.251e-05
1.25054e-05
1.24983e-05
1.24869e-05
1.24679e-05
1.24352e-05
1.23801e-05
1.22955e-05
1.21911e-05
1.21085e-05
1.20944e-05
1.21384e-05
1.21918e-05
1.22363e-05
1.22825e-05
1.23341e-05
1.23892e-05
1.24432e-05
1.24913e-05
1.25298e-05
1.25569e-05
1.25741e-05
1.25835e-05
1.2587e-05
1.25867e-05
1.25844e-05
1.2582e-05
1.25806e-05
1.25195e-05
1.25189e-05
1.25177e-05
1.25158e-05
1.25128e-05
1.25083e-05
1.25009e-05
1.24884e-05
1.2466e-05
1.24254e-05
1.23554e-05
1.22481e-05
1.21168e-05
1.20066e-05
1.1957e-05
1.19489e-05
1.19421e-05
1.19374e-05
1.19492e-05
1.19781e-05
1.20215e-05
1.20749e-05
1.21331e-05
1.21912e-05
1.22449e-05
1.22915e-05
1.23292e-05
1.23565e-05
1.23738e-05
1.23829e-05
1.23866e-05
1.23875e-05
1.25228e-05
1.25222e-05
1.2521e-05
1.25191e-05
1.25164e-05
1.25123e-05
1.25057e-05
1.2494e-05
1.2472e-05
1.24302e-05
1.23547e-05
1.22352e-05
1.20822e-05
1.19348e-05
1.18271e-05
1.17456e-05
1.16629e-05
1.15896e-05
1.1538e-05
1.15055e-05
1.149e-05
1.14899e-05
1.15039e-05
1.15307e-05
1.15686e-05
1.16147e-05
1.16661e-05
1.17182e-05
1.17658e-05
1.18038e-05
1.18284e-05
1.18395e-05
1.2527e-05
1.25263e-05
1.25251e-05
1.25232e-05
1.25206e-05
1.25171e-05
1.25119e-05
1.2503e-05
1.24863e-05
1.24539e-05
1.23923e-05
1.22869e-05
1.21371e-05
1.19737e-05
1.18261e-05
1.17e-05
1.1583e-05
1.14873e-05
1.14183e-05
1.13667e-05
1.13251e-05
1.129e-05
1.12613e-05
1.12406e-05
1.12305e-05
1.12326e-05
1.12474e-05
1.12732e-05
1.13054e-05
1.13373e-05
1.13617e-05
1.13741e-05
1.25307e-05
1.25304e-05
1.25296e-05
1.25281e-05
1.25259e-05
1.25229e-05
1.25188e-05
1.25126e-05
1.25017e-05
1.24808e-05
1.24407e-05
1.23683e-05
1.22533e-05
1.21061e-05
1.19446e-05
1.1794e-05
1.16592e-05
1.15566e-05
1.14882e-05
1.14409e-05
1.14028e-05
1.13663e-05
1.13285e-05
1.12905e-05
1.12552e-05
1.12262e-05
1.12057e-05
1.1195e-05
1.11934e-05
1.11983e-05
1.12053e-05
1.12101e-05
1.25263e-05
1.25272e-05
1.25285e-05
1.25295e-05
1.25296e-05
1.25283e-05
1.25257e-05
1.25215e-05
1.25147e-05
1.25023e-05
1.24785e-05
1.2434e-05
1.23579e-05
1.22491e-05
1.21065e-05
1.19456e-05
1.17914e-05
1.16726e-05
1.15905e-05
1.15323e-05
1.14855e-05
1.14407e-05
1.13935e-05
1.1344e-05
1.12957e-05
1.12532e-05
1.12195e-05
1.11961e-05
1.11824e-05
1.11763e-05
1.11751e-05
1.11756e-05
1.25029e-05
1.25056e-05
1.25108e-05
1.25172e-05
1.25231e-05
1.2527e-05
1.25283e-05
1.25272e-05
1.25238e-05
1.25169e-05
1.25034e-05
1.24772e-05
1.24292e-05
1.2352e-05
1.2235e-05
1.20797e-05
1.19157e-05
1.17807e-05
1.16817e-05
1.16081e-05
1.15488e-05
1.14944e-05
1.14391e-05
1.13811e-05
1.1323e-05
1.12692e-05
1.12246e-05
1.11921e-05
1.11719e-05
1.11618e-05
1.11583e-05
1.11579e-05
1.2454e-05
1.24587e-05
1.24686e-05
1.24824e-05
1.24975e-05
1.25106e-05
1.25198e-05
1.25247e-05
1.25259e-05
1.25236e-05
1.25165e-05
1.25011e-05
1.24701e-05
1.24135e-05
1.23152e-05
1.21667e-05
1.19972e-05
1.1851e-05
1.17398e-05
1.16545e-05
1.15853e-05
1.15237e-05
1.14637e-05
1.14024e-05
1.13402e-05
1.12807e-05
1.12287e-05
1.11887e-05
1.11622e-05
1.1148e-05
1.11426e-05
1.11417e-05
1.23815e-05
1.23878e-05
1.2402e-05
1.24237e-05
1.24497e-05
1.2475e-05
1.24956e-05
1.25096e-05
1.25175e-05
1.252e-05
1.25172e-05
1.25068e-05
1.24831e-05
1.24355e-05
1.23454e-05
1.21997e-05
1.20273e-05
1.18756e-05
1.17583e-05
1.1667e-05
1.15926e-05
1.15276e-05
1.14663e-05
1.1405e-05
1.13431e-05
1.12826e-05
1.12277e-05
1.11831e-05
1.1152e-05
1.11343e-05
1.11271e-05
1.11257e-05
1.22905e-05
1.22982e-05
1.23163e-05
1.23451e-05
1.23818e-05
1.242e-05
1.24534e-05
1.2478e-05
1.24933e-05
1.25e-05
1.24985e-05
1.24874e-05
1.24621e-05
1.24129e-05
1.23225e-05
1.21775e-05
1.20063e-05
1.18555e-05
1.17385e-05
1.16471e-05
1.15728e-05
1.15087e-05
1.14494e-05
1.13914e-05
1.13331e-05
1.12754e-05
1.12213e-05
1.11754e-05
1.11415e-05
1.11212e-05
1.11123e-05
1.11104e-05
1.2185e-05
1.21941e-05
1.22152e-05
1.22492e-05
1.22936e-05
1.2342e-05
1.23862e-05
1.24198e-05
1.24404e-05
1.24482e-05
1.24437e-05
1.24265e-05
1.23933e-05
1.23367e-05
1.2243e-05
1.21013e-05
1.19382e-05
1.17957e-05
1.16854e-05
1.15993e-05
1.15298e-05
1.14703e-05
1.14162e-05
1.13641e-05
1.13121e-05
1.126e-05
1.12097e-05
1.11652e-05
1.11307e-05
1.11087e-05
1.10984e-05
1.1096e-05
1.20667e-05
1.20768e-05
1.20986e-05
1.21329e-05
1.21781e-05
1.22293e-05
1.22783e-05
1.23161e-05
1.23375e-05
1.23427e-05
1.23323e-05
1.23069e-05
1.22651e-05
1.22022e-05
1.2109e-05
1.19774e-05
1.18307e-05
1.17038e-05
1.16059e-05
1.15297e-05
1.14684e-05
1.14164e-05
1.13698e-05
1.13254e-05
1.12815e-05
1.12371e-05
1.11931e-05
1.11525e-05
1.11194e-05
1.10969e-05
1.10856e-05
1.10827e-05
1.1935e-05
1.1945e-05
1.19631e-05
1.19899e-05
1.20261e-05
1.20698e-05
1.21148e-05
1.21501e-05
1.21685e-05
1.21696e-05
1.21542e-05
1.21238e-05
1.20786e-05
1.20164e-05
1.19314e-05
1.18182e-05
1.1695e-05
1.15893e-05
1.15079e-05
1.14447e-05
1.1394e-05
1.13514e-05
1.13135e-05
1.1278e-05
1.1243e-05
1.12075e-05
1.11716e-05
1.1137e-05
1.11072e-05
1.10857e-05
1.10741e-05
1.10706e-05
1.17868e-05
1.17946e-05
1.18035e-05
1.18156e-05
1.18352e-05
1.18634e-05
1.18962e-05
1.19237e-05
1.19376e-05
1.19363e-05
1.19203e-05
1.18912e-05
1.18502e-05
1.17967e-05
1.17274e-05
1.16386e-05
1.15434e-05
1.14621e-05
1.13994e-05
1.13509e-05
1.1312e-05
1.12796e-05
1.12511e-05
1.12246e-05
1.11987e-05
1.11725e-05
1.11454e-05
1.11184e-05
1.10938e-05
1.10748e-05
1.10637e-05
1.106e-05
1.16159e-05
1.16185e-05
1.16145e-05
1.16108e-05
1.16135e-05
1.1625e-05
1.16432e-05
1.16609e-05
1.16705e-05
1.16692e-05
1.16568e-05
1.16345e-05
1.16038e-05
1.15646e-05
1.15153e-05
1.14535e-05
1.13877e-05
1.13314e-05
1.12881e-05
1.12545e-05
1.12277e-05
1.12055e-05
1.11861e-05
1.11683e-05
1.1151e-05
1.11335e-05
1.11154e-05
1.10967e-05
1.10787e-05
1.10638e-05
1.10542e-05
1.10507e-05
1.14124e-05
1.14072e-05
1.13941e-05
1.13829e-05
1.13772e-05
1.13783e-05
1.13853e-05
1.13943e-05
1.14e-05
1.13996e-05
1.13925e-05
1.13795e-05
1.13614e-05
1.13385e-05
1.13101e-05
1.12747e-05
1.12371e-05
1.12049e-05
1.118e-05
1.11608e-05
1.11455e-05
1.11329e-05
1.11219e-05
1.11119e-05
1.11023e-05
1.10927e-05
1.10826e-05
1.1072e-05
1.10614e-05
1.1052e-05
1.10454e-05
1.10426e-05
1.11655e-05
1.11615e-05
1.11544e-05
1.11486e-05
1.1145e-05
1.1144e-05
1.11455e-05
1.11481e-05
1.115e-05
1.115e-05
1.11479e-05
1.11438e-05
1.11379e-05
1.11306e-05
1.11215e-05
1.11102e-05
1.10981e-05
1.10878e-05
1.10799e-05
1.10737e-05
1.10688e-05
1.10648e-05
1.10613e-05
1.10582e-05
1.10551e-05
1.10521e-05
1.1049e-05
1.10457e-05
1.10423e-05
1.10392e-05
1.10368e-05
1.10356e-05
)
;

boundaryField
{
    movingWall
    {
        type            fixedValue;
        value           uniform 1.1032e-05;
    }
    fixedWalls
    {
        type            zeroGradient;
    }
    floor
    {
        type            zeroGradient;
    }
    frontAndBack
    {
        type            empty;
    }
}


// ************************************************************************* //
