/*--------------------------------*- C++ -*----------------------------------*\
| =========                 |                                                 |
| \\      /  F ield         | OpenFOAM: The Open Source CFD Toolbox           |
|  \\    /   O peration     | Version:  2212                                  |
|   \\  /    A nd           | Website:  www.openfoam.com                      |
|    \\/     M anipulation  |                                                 |
\*---------------------------------------------------------------------------*/
FoamFile
{
    version     2.0;
    format      ascii;
    arch        "LSB;label=64;scalar=64";
    class       volScalarField;
    location    "410";
    object      Sco2;
}
// * * * * * * * * * * * * * * * * * * * * * * * * * * * * * * * * * * * * * //

dimensions      [1 -3 0 0 0 0 0];

internalField   nonuniform List<scalar> 
1024
(
0.00583013
0.00583101
0.00583308
0.00583675
0.00584235
0.00585001
0.00585958
0.00587058
0.00588238
0.0058944
0.0059063
0.00591768
0.00592779
0.00593502
0.00593625
0.00592646
0.00590293
0.00587385
0.00584377
0.00581542
0.00579066
0.00577026
0.00575386
0.00574054
0.00572934
0.00571983
0.00571191
0.00570564
0.00570103
0.00569799
0.00569627
0.00569555
0.00583041
0.0058313
0.00583344
0.00583725
0.00584305
0.00585095
0.00586075
0.00587193
0.00588386
0.00589601
0.00590804
0.00591958
0.0059299
0.00593735
0.0059387
0.0059288
0.00590492
0.00587556
0.00584525
0.0058167
0.00579178
0.00577127
0.00575479
0.0057414
0.00573015
0.00572054
0.0057125
0.00570609
0.00570136
0.00569821
0.00569643
0.00569568
0.00583099
0.00583194
0.00583424
0.00583832
0.00584453
0.00585289
0.00586314
0.00587469
0.00588693
0.00589938
0.00591179
0.00592384
0.0059348
0.00594295
0.00594476
0.00593457
0.00590965
0.0058794
0.00584839
0.00581936
0.00579412
0.00577341
0.00575679
0.00574327
0.00573183
0.005722
0.00571368
0.00570698
0.00570199
0.00569866
0.00569676
0.00569597
0.00583194
0.00583297
0.00583549
0.00583999
0.00584676
0.00585579
0.00586668
0.00587881
0.00589158
0.00590463
0.00591783
0.00593096
0.00594333
0.005953
0.00595586
0.00594516
0.00591809
0.00588592
0.00585343
0.0058235
0.00579778
0.00577681
0.00575999
0.0057462
0.00573442
0.00572416
0.00571539
0.00570826
0.00570292
0.00569934
0.0056973
0.00569645
0.00583325
0.00583438
0.00583718
0.00584216
0.00584962
0.00585945
0.00587116
0.00588407
0.00589767
0.00591175
0.00592637
0.00594147
0.00595636
0.00596881
0.00597359
0.00596205
0.00593134
0.00589578
0.00586075
0.00582933
0.00580289
0.00578156
0.00576441
0.00575019
0.00573782
0.00572692
0.00571752
0.00570985
0.00570408
0.00570021
0.00569802
0.00569712
0.00583489
0.00583611
0.00583918
0.00584466
0.00585283
0.00586353
0.00587618
0.00589012
0.00590494
0.00592064
0.00593754
0.00595575
0.00597465
0.00599147
0.00599929
0.00598653
0.00595038
0.0059097
0.00587088
0.00583723
0.0058097
0.00578777
0.00577005
0.0057551
0.00574189
0.00573012
0.00571993
0.00571161
0.00570538
0.00570123
0.0056989
0.00569796
0.00583673
0.00583803
0.00584132
0.00584722
0.00585605
0.0058676
0.00588129
0.00589651
0.00591299
0.00593101
0.00595116
0.00597384
0.00599845
0.00602154
0.00603366
0.00601919
0.00597579
0.00592824
0.00588443
0.00584775
0.00581856
0.00579557
0.00577683
0.00576073
0.00574634
0.00573348
0.00572238
0.00571339
0.00570672
0.00570232
0.00569988
0.0056989
0.00583863
0.00583997
0.0058434
0.0058496
0.00585893
0.00587124
0.00588599
0.00590269
0.00592126
0.00594226
0.00596664
0.00599515
0.0060273
0.00605869
0.00607632
0.00605948
0.00600728
0.00595149
0.00590184
0.00586138
0.0058298
0.00580499
0.00578454
0.00576676
0.00575084
0.0057367
0.00572465
0.00571502
0.00570799
0.00570341
0.00570089
0.00569988
0.00584044
0.00584179
0.00584526
0.00585158
0.0058612
0.00587407
0.00588981
0.00590806
0.00592899
0.00595346
0.00598288
0.00601852
0.00606008
0.00610187
0.00612593
0.00610563
0.00604342
0.00597862
0.00592278
0.00587804
0.00584325
0.00581568
0.00579271
0.0057727
0.00575495
0.00573945
0.0057265
0.00571636
0.00570907
0.00570439
0.00570183
0.00570081
0.005842
0.00584333
0.00584675
0.00585303
0.00586269
0.00587586
0.00589235
0.00591203
0.00593532
0.00596349
0.00599854
0.00604255
0.00609563
0.00615017
0.00618095
0.00615516
0.00608152
0.00600733
0.00594539
0.00589618
0.00585754
0.00582644
0.00580033
0.00577777
0.00575812
0.00574136
0.0057277
0.00571724
0.00570985
0.00570516
0.00570261
0.00570159
0.00584316
0.00584447
0.00584778
0.00585385
0.00586331
0.00587646
0.00589334
0.00591411
0.00593951
0.00597137
0.00601262
0.0060666
0.00613411
0.00620428
0.00624105
0.00620594
0.00611819
0.00603384
0.0059659
0.00591229
0.00586967
0.00583486
0.00580563
0.00578072
0.00575954
0.00574197
0.00572799
0.0057175
0.00571019
0.0057056
0.00570309
0.00570208
0.00584378
0.00584505
0.0058482
0.00585396
0.00586301
0.0058758
0.00589264
0.00591402
0.00594117
0.0059768
0.00602529
0.006092
0.00617848
0.00626777
0.0063081
0.00625749
0.00615078
0.00605425
0.00597978
0.00592179
0.00587551
0.00583759
0.00580605
0.00577977
0.00575807
0.00574054
0.00572689
0.0057168
0.00570985
0.00570546
0.00570305
0.00570205
0.00584368
0.00584491
0.0058479
0.00585329
0.00586175
0.00587389
0.00589028
0.00591186
0.00594065
0.00598073
0.00603881
0.00612316
0.00623532
0.00634716
0.00638642
0.00631255
0.0061811
0.00606934
0.00598647
0.00592298
0.00587268
0.00583208
0.00579923
0.00577296
0.00575217
0.00573596
0.0057236
0.00571455
0.00570831
0.00570432
0.00570206
0.00570109
0.00584255
0.00584376
0.00584659
0.00585158
0.00585938
0.00587071
0.00588647
0.00590826
0.00593931
0.0059859
0.0060582
0.00616799
0.00631442
0.00645101
0.00648364
0.00638155
0.00622449
0.0060968
0.00600228
0.00592848
0.0058694
0.00582249
0.00578641
0.00575976
0.00574057
0.00572676
0.00571677
0.00570955
0.00570449
0.00570114
0.00569914
0.00569824
0.00584026
0.00584145
0.00584414
0.00584877
0.00585595
0.00586652
0.00588188
0.00590459
0.00593976
0.00599694
0.00609086
0.00623671
0.00642671
0.00658985
0.00661602
0.00649481
0.00632867
0.00619537
0.0060879
0.00599342
0.0059098
0.00583943
0.00578519
0.00574812
0.00572573
0.00571299
0.00570546
0.00570044
0.0056969
0.00569459
0.00569337
0.00569292
0.00583635
0.00583757
0.00584023
0.00584466
0.00585143
0.0058616
0.0058772
0.00590223
0.00594436
0.00601765
0.00614237
0.00633598
0.00657945
0.00677823
0.00682062
0.00672455
0.00660213
0.00649951
0.0063938
0.00627563
0.00614935
0.00602552
0.00591536
0.00582721
0.00576532
0.00572606
0.00570479
0.00569702
0.005698
0.00570321
0.00570879
0.00571214
0.00583008
0.00583135
0.00583404
0.00583836
0.00584487
0.00585477
0.00587072
0.00589817
0.0059479
0.00603863
0.00619676
0.00644244
0.00674809
0.00701041
0.00713301
0.00715473
0.00717018
0.00718155
0.0071553
0.00708954
0.00698988
0.00686704
0.00673305
0.00659924
0.00647557
0.00636859
0.00628264
0.00622064
0.00618169
0.0061615
0.0061536
0.00615179
0.00582244
0.00582378
0.00582649
0.00583066
0.00583664
0.00584551
0.00585987
0.00588543
0.00593386
0.00602701
0.00619713
0.00647041
0.00682506
0.0071719
0.00742742
0.00761926
0.00781265
0.00798591
0.0081097
0.00818926
0.00822867
0.00823165
0.00820104
0.00813986
0.00805228
0.00794502
0.00782547
0.00770405
0.0075931
0.007505
0.00744781
0.0074221
0.00581292
0.00581429
0.0058171
0.00582131
0.00582697
0.00583461
0.00584597
0.00586533
0.00590186
0.00597392
0.00611241
0.00635279
0.00669863
0.00708044
0.00742748
0.00772369
0.00799875
0.00822675
0.00839389
0.00852152
0.00862605
0.00871509
0.00878847
0.00884146
0.00886812
0.00886435
0.00882925
0.00876744
0.00869001
0.0086135
0.008555
0.00852523
0.00580479
0.0058054
0.00580705
0.00581017
0.00581497
0.00582154
0.00583047
0.00584404
0.00586789
0.00591405
0.00600416
0.00616876
0.00643369
0.00677603
0.0071537
0.00750628
0.00782232
0.00806463
0.0082288
0.00834515
0.00844145
0.00853525
0.00863252
0.00873023
0.00882013
0.00889378
0.00894496
0.00897096
0.00897383
0.00896066
0.00894252
0.00893034
0.00581561
0.00581356
0.00581035
0.00580767
0.00580719
0.0058097
0.00581524
0.00582425
0.00583914
0.00586657
0.00591989
0.00602106
0.0061962
0.00644894
0.00678204
0.00715816
0.00751765
0.00779537
0.00798843
0.00812742
0.00824189
0.0083536
0.00847286
0.00859879
0.00872182
0.00883054
0.00891631
0.00897545
0.00900949
0.00902375
0.00902588
0.00902396
0.0058709
0.00586453
0.00585235
0.00583717
0.00582313
0.00581369
0.0058101
0.00581202
0.00581934
0.00583456
0.00586484
0.00592441
0.00603515
0.00621504
0.00648904
0.00685221
0.00723424
0.00754791
0.00777838
0.00795122
0.00809304
0.00822576
0.00836306
0.0085087
0.00865606
0.00879285
0.00890658
0.00898934
0.0090405
0.00906564
0.00907372
0.00907414
0.0059853
0.00597437
0.00595146
0.00591911
0.00588372
0.00585269
0.00583076
0.00581882
0.00581552
0.00582039
0.00583614
0.0058714
0.0059434
0.00607611
0.00630788
0.00665686
0.00705196
0.00739093
0.00764883
0.00784792
0.00801161
0.00815981
0.0083068
0.00845951
0.00861584
0.00876672
0.00889907
0.00900133
0.00906873
0.00910448
0.00911764
0.00911939
0.00615582
0.00614104
0.00610785
0.00605711
0.00599616
0.0059365
0.00588794
0.00585469
0.00583592
0.00582961
0.00583587
0.00585992
0.00591569
0.00602868
0.00624278
0.00658714
0.00699037
0.00734253
0.00761445
0.00782701
0.00800182
0.00815697
0.0083061
0.00845737
0.00861197
0.0087646
0.00890418
0.00901796
0.00909745
0.00914236
0.00916032
0.00916335
0.00637131
0.00635318
0.00631077
0.00624286
0.00615648
0.00606629
0.00598751
0.0059293
0.00589322
0.00587742
0.00588097
0.00590729
0.00596761
0.00608545
0.00630211
0.00664682
0.00704885
0.00739984
0.00767135
0.00788392
0.00805806
0.00821038
0.00835347
0.00849574
0.00864051
0.00878556
0.00892261
0.00903974
0.00912636
0.00917845
0.00920089
0.0092053
0.00662274
0.00660138
0.00655166
0.0064714
0.00636646
0.00625208
0.00614733
0.00606773
0.00601916
0.00600101
0.0060119
0.00605334
0.0061331
0.00626951
0.0064953
0.00683378
0.00721836
0.00755095
0.0078073
0.0080074
0.00817034
0.00831115
0.00844111
0.00856819
0.00869681
0.00882724
0.00895418
0.00906751
0.00915591
0.00921249
0.00923874
0.00924461
0.00690651
0.00688272
0.00683113
0.00675029
0.0066435
0.00652232
0.00640586
0.00631636
0.00626557
0.00625386
0.00627912
0.00634042
0.00644115
0.00659297
0.00681827
0.00713353
0.00748079
0.00777784
0.00800583
0.00818315
0.00832664
0.00844939
0.00856106
0.00866867
0.00877691
0.00888764
0.0089984
0.00910162
0.00918654
0.00924441
0.00927343
0.00928078
0.00722405
0.00720053
0.00715775
0.00709484
0.00700966
0.00690629
0.00679965
0.0067158
0.00667221
0.00667013
0.00670724
0.00678053
0.00688961
0.00704017
0.00724586
0.00751795
0.00781024
0.00805829
0.0082482
0.00839548
0.00851403
0.00861453
0.00870487
0.00879077
0.00887652
0.00896472
0.00905504
0.00914284
0.00921917
0.00927465
0.00930481
0.0093135
0.00758265
0.00756434
0.00754381
0.00751606
0.00747084
0.00740476
0.00732717
0.00726183
0.00722891
0.00723246
0.0072711
0.00734115
0.00744008
0.00756964
0.00773746
0.00795131
0.00817755
0.00836888
0.00851524
0.00862854
0.00871932
0.0087957
0.00886363
0.00892744
0.00899061
0.00905562
0.00912341
0.00919195
0.00925501
0.00930408
0.00933308
0.0093426
0.00799745
0.00799144
0.00800196
0.00801235
0.00800728
0.00798111
0.00793855
0.00789662
0.00787382
0.0078773
0.0079073
0.00796089
0.00803522
0.00813007
0.00824944
0.00839852
0.0085552
0.00868771
0.0087891
0.00886748
0.00893005
0.00898235
0.00902846
0.0090713
0.00911332
0.00915643
0.00920185
0.00924927
0.00929535
0.0093339
0.00935878
0.0093681
0.00849256
0.00850527
0.00853757
0.00856561
0.00858034
0.00857882
0.00856278
0.00854164
0.00852818
0.00852928
0.00854631
0.00857771
0.00862144
0.00867684
0.00874575
0.00883114
0.0089208
0.00899674
0.00905488
0.00909977
0.00913551
0.00916522
0.00919125
0.0092152
0.00923851
0.00926227
0.00928737
0.0093141
0.00934124
0.00936558
0.00938287
0.00939027
0.00909426
0.00910399
0.00912152
0.00913584
0.00914473
0.00914744
0.00914433
0.00913825
0.00913375
0.00913369
0.00913887
0.00914884
0.00916289
0.00918069
0.00920277
0.00923007
0.00925877
0.00928309
0.00930171
0.00931609
0.00932751
0.00933697
0.00934523
0.00935279
0.0093601
0.0093675
0.0093753
0.00938365
0.00939231
0.00940044
0.0094067
0.00940974
)
;

boundaryField
{
    movingWall
    {
        type            fixedValue;
        value           uniform 0.00942;
    }
    fixedWalls
    {
        type            zeroGradient;
    }
    floor
    {
        type            zeroGradient;
    }
    frontAndBack
    {
        type            empty;
    }
}


// ************************************************************************* //
