/*--------------------------------*- C++ -*----------------------------------*\
| =========                 |                                                 |
| \\      /  F ield         | OpenFOAM: The Open Source CFD Toolbox           |
|  \\    /   O peration     | Version:  2206                                  |
|   \\  /    A nd           | Website:  www.openfoam.com                      |
|    \\/     M anipulation  |                                                 |
\*---------------------------------------------------------------------------*/
FoamFile
{
    version     2.0;
    format      ascii;
    arch        "LSB;label=64;scalar=64";
    class       volVectorField;
    location    "464400";
    object      U;
}
// * * * * * * * * * * * * * * * * * * * * * * * * * * * * * * * * * * * * * //

dimensions      [0 1 -1 0 0 0 0];

internalField   nonuniform List<vector> 
16
(
(-1.10589e-07 8.32269e-08 0)
(-2.0065e-08 -6.0972e-08 0)
(1.33845e-07 -4.44579e-08 0)
(3.12084e-08 2.7751e-08 0)
(1.59672e-08 4.71814e-08 0)
(1.36006e-07 -1.83492e-07 0)
(1.2602e-07 -7.64929e-09 0)
(9.78665e-10 1.38718e-07 0)
(5.25051e-08 -6.73912e-08 0)
(1.86727e-08 -1.73908e-07 0)
(-7.60865e-08 9.00015e-08 0)
(-2.80418e-08 1.52831e-07 0)
(3.83837e-08 -2.39109e-08 0)
(-1.31677e-07 -5.13095e-08 0)
(-1.84471e-07 3.993e-08 0)
(-4.69169e-09 3.6124e-08 0)
)
;

boundaryField
{
    movingWall
    {
        type            noSlip;
    }
    fixedWalls
    {
        type            noSlip;
    }
    frontAndBack
    {
        type            empty;
    }
}


// ************************************************************************* //
