/*--------------------------------*- C++ -*----------------------------------*\
| =========                 |                                                 |
| \\      /  F ield         | OpenFOAM: The Open Source CFD Toolbox           |
|  \\    /   O peration     | Version:  2212                                  |
|   \\  /    A nd           | Website:  www.openfoam.com                      |
|    \\/     M anipulation  |                                                 |
\*---------------------------------------------------------------------------*/
FoamFile
{
    version     2.0;
    format      ascii;
    arch        "LSB;label=64;scalar=64";
    class       volScalarField::Internal;
    location    "1140";
    object      dGch4;
}
// * * * * * * * * * * * * * * * * * * * * * * * * * * * * * * * * * * * * * //

dimensions      [1 -3 -1 0 0 0 0];

value           nonuniform List<scalar> 
1024
(
0.000892846
0.00089304
0.000893515
0.000894378
0.000895745
0.000897722
0.000900372
0.000903682
0.000907545
0.000911778
0.000916136
0.000920307
0.000923839
0.000926055
0.000926437
0.000924866
0.000921439
0.000916894
0.000911936
0.000906809
0.000901674
0.00089667
0.000891956
0.000887698
0.000884039
0.000881061
0.000878774
0.000877121
0.000876002
0.000875305
0.000874925
0.000874769
0.000892875
0.000893073
0.000893558
0.00089444
0.000895837
0.000897855
0.000900552
0.00090391
0.000907818
0.000912091
0.00091649
0.000920706
0.00092428
0.000926507
0.000926866
0.000925263
0.000921806
0.000917236
0.000912256
0.00090711
0.000901956
0.000896933
0.000892193
0.000887903
0.000884207
0.000881192
0.000878871
0.000877191
0.000876053
0.000875345
0.000874958
0.0008748
0.000892942
0.000893148
0.000893652
0.000894571
0.000896026
0.000898121
0.000900909
0.000904363
0.000908367
0.000912742
0.000917262
0.000921625
0.000925341
0.000927615
0.000927914
0.000926214
0.000922658
0.000918005
0.000912959
0.000907759
0.00090256
0.000897491
0.000892697
0.00088834
0.000884568
0.000881475
0.000879084
0.000877348
0.000876171
0.000875438
0.000875037
0.000874874
0.00089305
0.000893266
0.000893798
0.000894767
0.0008963
0.000898501
0.000901416
0.000905011
0.000909174
0.000913744
0.00091852
0.000923205
0.000927241
0.000929637
0.000929823
0.000927915
0.000924138
0.000919298
0.000914104
0.000908792
0.000903504
0.000898356
0.000893476
0.000889019
0.000885132
0.000881922
0.000879425
0.000877603
0.000876365
0.000875593
0.000875173
0.000875002
0.000893196
0.000893423
0.000893985
0.000895009
0.000896629
0.000898949
0.000902016
0.000905799
0.000910201
0.000915099
0.000920332
0.000925602
0.000930215
0.00093286
0.000932881
0.000930605
0.00092642
0.000921223
0.00091575
0.000910226
0.000904781
0.000899506
0.000894505
0.000889914
0.00088588
0.000882521
0.000879887
0.000877955
0.000876638
0.000875818
0.000875371
0.00087519
0.000893363
0.0008936
0.000894188
0.000895261
0.00089696
0.000899398
0.000902631
0.000906646
0.000911387
0.00091679
0.000922752
0.000928953
0.000934478
0.000937554
0.00093738
0.000934547
0.000929697
0.0009239
0.000917945
0.000912058
0.000906349
0.000900877
0.00089571
0.000890957
0.000886754
0.000883226
0.000880441
0.000878385
0.00087698
0.000876104
0.000875628
0.000875436
0.000893527
0.00089377
0.000894372
0.000895476
0.000897232
0.000899769
0.000903167
0.000907459
0.000912654
0.000918778
0.000925801
0.000933349
0.000940172
0.000943917
0.000943568
0.000939985
0.000934162
0.000927444
0.000920729
0.000914259
0.000908129
0.000902359
0.000896969
0.000892026
0.000887646
0.000883952
0.000881019
0.000878846
0.000877356
0.000876428
0.000875924
0.000875722
0.00089366
0.000893902
0.000894503
0.00089561
0.000897386
0.000899986
0.000903536
0.00090814
0.000913911
0.000921
0.000929461
0.000938828
0.000947361
0.000952044
0.0009516
0.000947098
0.000939974
0.000931949
0.000924113
0.000916764
0.00091
0.000903793
0.000898104
0.000892948
0.0008884
0.000884567
0.000881521
0.000879261
0.000877711
0.000876746
0.000876223
0.000876014
0.000893747
0.00089398
0.000894561
0.000895638
0.000897388
0.000900003
0.000903677
0.000908619
0.000915088
0.000923402
0.000933724
0.000945423
0.000956087
0.000961971
0.000961525
0.000955983
0.000947243
0.00093748
0.000928082
0.000919479
0.000911801
0.000904978
0.000898901
0.00089351
0.000888826
0.000884912
0.000881819
0.000879533
0.00087797
0.000876997
0.000876471
0.000876259
0.000893838
0.000894051
0.000894587
0.000895596
0.000897273
0.000899852
0.000903615
0.000908916
0.000916217
0.000926061
0.000938732
0.000953317
0.000966504
0.000973783
0.000973391
0.000966731
0.000956111
0.000944157
0.00093268
0.000922345
0.000913389
0.000905716
0.000899137
0.000893498
0.000888729
0.000884825
0.000881785
0.000879563
0.000878054
0.000877119
0.000876614
0.000876411
0.000894167
0.000894339
0.000894796
0.000895697
0.000897255
0.000899761
0.000903603
0.000909323
0.00091765
0.000929425
0.000945035
0.000963068
0.000979066
0.000987795
0.000987456
0.000979699
0.000967064
0.000952492
0.000938332
0.000925634
0.000914878
0.000906
0.000898734
0.000892802
0.000888004
0.000884218
0.000881354
0.000879308
0.000877946
0.000877117
0.000876677
0.000876504
0.000895426
0.00089553
0.000895862
0.000896603
0.000898014
0.000900458
0.000904461
0.00091079
0.000920499
0.000934764
0.000953957
0.000975846
0.000994675
0.00100474
0.00100455
0.000996053
0.000981676
0.000964309
0.000946853
0.000930916
0.000917485
0.000906705
0.000898288
0.000891826
0.000886941
0.000883331
0.000880762
0.000879037
0.000877969
0.000877383
0.000877116
0.000877031
0.000899222
0.000899232
0.000899395
0.000899942
0.000901216
0.00090371
0.000908141
0.00091554
0.000927275
0.000944715
0.000967911
0.000993537
0.00101477
0.00102603
0.00102657
0.00101864
0.00100396
0.000984694
0.000963915
0.000943872
0.000926343
0.000912124
0.000901245
0.000893271
0.000887709
0.000884039
0.000881805
0.00088063
0.000880195
0.000880201
0.000880387
0.000880544
0.000908313
0.000908234
0.00090825
0.000908661
0.000909937
0.000912769
0.000918137
0.000927368
0.00094201
0.000963195
0.00099018
0.00101858
0.00104137
0.00105407
0.00105721
0.00105303
0.00104197
0.00102453
0.00100314
0.000980219
0.000958048
0.000938354
0.000922416
0.000910226
0.000901828
0.000896802
0.000894399
0.000893866
0.000894473
0.000895555
0.000896574
0.00089717
0.000925528
0.000925427
0.000925454
0.000926008
0.000927719
0.000931517
0.000938673
0.000950748
0.000969227
0.000994445
0.00102423
0.00105354
0.00107687
0.0010923
0.00110159
0.00110647
0.00110599
0.00109859
0.00108498
0.00106683
0.00104606
0.00102464
0.00100443
0.000986434
0.000971891
0.00096157
0.000955143
0.000952105
0.000951535
0.000952313
0.00095342
0.000954156
0.000950703
0.000950703
0.000951028
0.000952208
0.000955049
0.000960671
0.000970471
0.000985885
0.00100775
0.00103527
0.00106549
0.00109436
0.00111912
0.0011398
0.00115817
0.00117542
0.00119034
0.00120035
0.00120465
0.00120355
0.00119754
0.0011873
0.00117376
0.00115813
0.00114174
0.00112607
0.00111224
0.00110135
0.00109389
0.00108961
0.00108771
0.00108719
0.000975653
0.000975757
0.000976338
0.000977979
0.000981515
0.000988032
0.000998759
0.00101477
0.00103647
0.00106303
0.00109225
0.00112131
0.00114823
0.00117276
0.00119575
0.00121808
0.00123913
0.00125802
0.00127484
0.00128946
0.00130111
0.001309
0.00131253
0.00131145
0.001306
0.00129699
0.00128589
0.00127442
0.00126432
0.00125679
0.00125227
0.0012504
0.000993578
0.000993742
0.000994421
0.000996154
0.000999704
0.00100604
0.00101622
0.00103115
0.00105115
0.0010756
0.00110281
0.00113044
0.00115645
0.00117976
0.0012001
0.00121754
0.00123204
0.00124556
0.00126061
0.00127759
0.0012955
0.0013129
0.00132836
0.00134069
0.00134911
0.00135338
0.00135381
0.0013513
0.00134721
0.00134303
0.00133992
0.00133839
0.00100503
0.00100523
0.00100592
0.00100757
0.00101082
0.00101652
0.0010256
0.00103884
0.00105661
0.00107848
0.00110309
0.00112841
0.0011523
0.00117315
0.00118996
0.00120226
0.00121034
0.00121788
0.00122906
0.001245
0.00126482
0.00128671
0.00130856
0.00132833
0.00134456
0.00135653
0.00136421
0.00136814
0.00136928
0.0013688
0.00136783
0.00136716
0.00101226
0.00101247
0.00101312
0.00101462
0.00101749
0.00102244
0.00103027
0.0010417
0.0010571
0.00107621
0.00109796
0.00112059
0.0011421
0.00116072
0.00117517
0.00118479
0.00119009
0.00119514
0.0012042
0.00121894
0.00123916
0.00126349
0.00128979
0.00131536
0.00133779
0.00135551
0.00136801
0.00137565
0.00137946
0.00138071
0.00138069
0.00138039
0.00101706
0.00101724
0.00101781
0.00101907
0.00102151
0.0010257
0.00103233
0.00104203
0.00105514
0.00107151
0.00109034
0.0011102
0.00112937
0.00114624
0.00115957
0.00116882
0.00117457
0.00118034
0.00118949
0.00120371
0.00122335
0.00124781
0.00127558
0.00130419
0.00133088
0.00135332
0.00137018
0.00138131
0.0013875
0.00139013
0.00139071
0.00139058
0.00102125
0.00102133
0.00102167
0.00102257
0.00102443
0.0010278
0.00103325
0.00104133
0.00105233
0.00106618
0.0010823
0.00109961
0.00111679
0.00113255
0.00114592
0.00115658
0.001165
0.00117349
0.00118428
0.00119886
0.0012179
0.00124142
0.00126861
0.0012977
0.00132624
0.00135161
0.00137181
0.00138598
0.00139446
0.00139848
0.00139968
0.0013997
0.0010269
0.00102677
0.00102667
0.00102692
0.00102796
0.00103032
0.00103455
0.00104113
0.00105033
0.00106211
0.00107609
0.00109153
0.00110749
0.00112305
0.00113754
0.00115084
0.00116304
0.00117496
0.00118786
0.00120307
0.00122148
0.00124355
0.00126902
0.0012968
0.00132503
0.00135139
0.00137359
0.0013901
0.00140061
0.001406
0.00140786
0.00140804
0.00103621
0.00103573
0.00103495
0.00103426
0.00103418
0.00103535
0.00103837
0.00104371
0.00105163
0.00106213
0.00107496
0.0010896
0.00110539
0.0011217
0.00113804
0.00115441
0.00117033
0.00118526
0.00119981
0.00121528
0.00123269
0.0012528
0.00127582
0.00130119
0.00132762
0.00135327
0.00137603
0.00139396
0.0014061
0.00141276
0.00141532
0.00141568
0.00105121
0.00105024
0.00104859
0.0010468
0.00104556
0.00104566
0.00104781
0.00105251
0.00106001
0.00107029
0.00108309
0.00109798
0.00111445
0.00113197
0.00115016
0.00116901
0.00118754
0.00120427
0.00121947
0.00123447
0.00125036
0.00126805
0.00128804
0.00131023
0.00133385
0.00135756
0.00137955
0.00139788
0.00141109
0.00141883
0.00142207
0.00142266
0.00107339
0.00107185
0.00106934
0.00106669
0.00106481
0.00106457
0.00106672
0.00107175
0.00107982
0.00109077
0.00110427
0.00111988
0.00113709
0.00115545
0.00117461
0.00119454
0.00121396
0.00123093
0.00124563
0.00125938
0.00127328
0.00128824
0.00130489
0.00132342
0.00134353
0.00136436
0.00138451
0.00140221
0.00141577
0.00142428
0.00142816
0.00142899
0.00110365
0.00110155
0.00109857
0.00109593
0.00109463
0.00109536
0.00109868
0.00110498
0.00111419
0.00112603
0.0011401
0.00115596
0.00117313
0.0011912
0.00120987
0.00122913
0.00124762
0.00126339
0.0012766
0.00128849
0.00130009
0.0013122
0.00132546
0.0013402
0.00135643
0.00137373
0.00139117
0.00140729
0.0014204
0.00142923
0.0014336
0.00143469
0.00114252
0.00114007
0.00113754
0.00113639
0.00113721
0.00114018
0.0011455
0.00115328
0.00116334
0.00117539
0.00118908
0.00120402
0.00121983
0.00123619
0.00125287
0.00126985
0.00128594
0.00129942
0.00131046
0.00132013
0.0013293
0.00133863
0.00134867
0.00135979
0.00137213
0.0013856
0.0013997
0.00141343
0.00142528
0.00143383
0.00143845
0.00143977
0.00119063
0.00118841
0.00118777
0.00118959
0.00119348
0.00119899
0.00120598
0.00121444
0.00122422
0.0012352
0.00124717
0.00125987
0.00127303
0.00128645
0.00129995
0.00131354
0.00132628
0.00133683
0.00134534
0.00135266
0.00135944
0.00136619
0.00137334
0.0013812
0.00138995
0.00139965
0.00141013
0.00142083
0.00143066
0.00143828
0.00144277
0.00144425
0.00124929
0.00124841
0.00125101
0.001256
0.00126214
0.00126885
0.00127599
0.00128358
0.00129166
0.00130027
0.00130935
0.00131877
0.00132839
0.00133808
0.00134774
0.00135739
0.00136635
0.00137373
0.00137963
0.00138462
0.00138918
0.00139364
0.00139829
0.00140335
0.00140898
0.00141527
0.00142222
0.00142961
0.00143681
0.00144282
0.0014467
0.00144815
0.00132094
0.00132264
0.00132765
0.00133331
0.00133897
0.00134443
0.0013497
0.00135488
0.00136009
0.00136544
0.00137095
0.00137658
0.00138228
0.00138798
0.00139363
0.00139924
0.00140442
0.00140868
0.00141206
0.0014149
0.00141746
0.00141993
0.00142248
0.00142523
0.00142827
0.00143168
0.00143548
0.00143963
0.00144388
0.00144768
0.00145038
0.00145153
0.00140856
0.00140991
0.0014125
0.00141497
0.00141726
0.00141936
0.00142129
0.00142311
0.00142489
0.00142668
0.00142849
0.00143034
0.00143219
0.00143404
0.00143587
0.00143768
0.00143935
0.00144072
0.0014418
0.00144271
0.00144352
0.0014443
0.00144509
0.00144595
0.00144689
0.00144794
0.00144912
0.00145041
0.00145176
0.00145303
0.00145401
0.00145448
)
;


// ************************************************************************* //
