/*--------------------------------*- C++ -*----------------------------------*\
| =========                 |                                                 |
| \\      /  F ield         | OpenFOAM: The Open Source CFD Toolbox           |
|  \\    /   O peration     | Version:  2212                                  |
|   \\  /    A nd           | Website:  www.openfoam.com                      |
|    \\/     M anipulation  |                                                 |
\*---------------------------------------------------------------------------*/
FoamFile
{
    version     2.0;
    format      ascii;
    arch        "LSB;label=64;scalar=64";
    class       volScalarField;
    location    "1140";
    object      Saa;
}
// * * * * * * * * * * * * * * * * * * * * * * * * * * * * * * * * * * * * * //

dimensions      [1 -3 0 0 0 0 0];

internalField   nonuniform List<scalar> 
1024
(
0.00546123
0.00546125
0.0054613
0.00546139
0.00546153
0.00546173
0.005462
0.00546233
0.00546271
0.00546313
0.00546356
0.00546396
0.00546429
0.00546448
0.00546447
0.00546426
0.00546385
0.00546334
0.00546279
0.00546222
0.00546166
0.00546112
0.0054606
0.00546013
0.00545973
0.0054594
0.00545915
0.00545897
0.00545884
0.00545877
0.00545872
0.00545871
0.00546124
0.00546126
0.00546131
0.0054614
0.00546154
0.00546174
0.00546201
0.00546235
0.00546274
0.00546317
0.0054636
0.005464
0.00546433
0.00546452
0.00546451
0.0054643
0.00546389
0.00546337
0.00546282
0.00546225
0.00546169
0.00546114
0.00546062
0.00546015
0.00545975
0.00545942
0.00545916
0.00545897
0.00545885
0.00545877
0.00545873
0.00545871
0.00546124
0.00546126
0.00546132
0.00546141
0.00546156
0.00546177
0.00546205
0.0054624
0.0054628
0.00546323
0.00546367
0.00546409
0.00546444
0.00546463
0.00546461
0.00546439
0.00546397
0.00546344
0.00546289
0.00546232
0.00546175
0.0054612
0.00546068
0.0054602
0.00545979
0.00545945
0.00545918
0.00545899
0.00545886
0.00545878
0.00545873
0.00545872
0.00546125
0.00546128
0.00546133
0.00546143
0.00546158
0.00546181
0.0054621
0.00546246
0.00546288
0.00546333
0.0054638
0.00546425
0.00546462
0.00546482
0.0054648
0.00546455
0.00546411
0.00546357
0.005463
0.00546242
0.00546185
0.00546129
0.00546076
0.00546027
0.00545984
0.00545949
0.00545922
0.00545902
0.00545888
0.00545879
0.00545875
0.00545873
0.00546127
0.00546129
0.00546135
0.00546145
0.00546162
0.00546185
0.00546216
0.00546254
0.00546298
0.00546347
0.00546398
0.00546448
0.00546491
0.00546513
0.00546509
0.0054648
0.00546432
0.00546374
0.00546315
0.00546255
0.00546197
0.0054614
0.00546086
0.00546036
0.00545992
0.00545955
0.00545927
0.00545905
0.00545891
0.00545882
0.00545877
0.00545875
0.00546129
0.00546131
0.00546137
0.00546148
0.00546165
0.0054619
0.00546223
0.00546263
0.0054631
0.00546364
0.00546422
0.00546481
0.00546533
0.00546558
0.00546551
0.00546516
0.00546462
0.00546398
0.00546335
0.00546272
0.00546211
0.00546153
0.00546098
0.00546047
0.00546001
0.00545963
0.00545932
0.0054591
0.00545894
0.00545885
0.00545879
0.00545877
0.00546131
0.00546133
0.00546139
0.0054615
0.00546168
0.00546194
0.00546228
0.00546271
0.00546323
0.00546384
0.00546452
0.00546525
0.00546588
0.00546619
0.00546608
0.00546566
0.00546501
0.00546429
0.00546359
0.00546291
0.00546227
0.00546167
0.0054611
0.00546057
0.0054601
0.0054597
0.00545938
0.00545914
0.00545898
0.00545888
0.00545882
0.0054588
0.00546132
0.00546135
0.00546141
0.00546152
0.0054617
0.00546196
0.00546232
0.00546279
0.00546336
0.00546406
0.00546489
0.00546578
0.00546657
0.00546695
0.00546682
0.00546629
0.00546552
0.00546467
0.00546387
0.00546311
0.00546242
0.00546178
0.00546119
0.00546065
0.00546017
0.00545975
0.00545943
0.00545918
0.00545901
0.00545891
0.00545885
0.00545883
0.00546133
0.00546136
0.00546142
0.00546152
0.0054617
0.00546197
0.00546234
0.00546284
0.00546348
0.00546431
0.00546531
0.00546642
0.0054674
0.00546788
0.00546772
0.00546707
0.00546613
0.00546512
0.00546417
0.00546331
0.00546255
0.00546186
0.00546124
0.00546068
0.00546019
0.00545978
0.00545945
0.0054592
0.00545903
0.00545893
0.00545887
0.00545885
0.00546135
0.00546137
0.00546142
0.00546152
0.0054617
0.00546196
0.00546234
0.00546287
0.0054636
0.00546457
0.0054658
0.00546718
0.00546838
0.00546896
0.00546878
0.005468
0.00546686
0.00546564
0.00546451
0.0054635
0.00546263
0.00546187
0.00546122
0.00546065
0.00546016
0.00545975
0.00545943
0.00545919
0.00545903
0.00545893
0.00545888
0.00545885
0.00546139
0.0054614
0.00546145
0.00546154
0.0054617
0.00546195
0.00546234
0.00546292
0.00546375
0.00546491
0.00546641
0.00546811
0.00546954
0.00547022
0.00547001
0.00546909
0.00546774
0.00546628
0.0054649
0.00546369
0.00546267
0.00546182
0.00546111
0.00546053
0.00546005
0.00545966
0.00545936
0.00545915
0.005459
0.00545891
0.00545887
0.00545885
0.00546153
0.00546154
0.00546157
0.00546164
0.00546179
0.00546203
0.00546244
0.00546307
0.00546404
0.00546543
0.00546727
0.00546931
0.00547097
0.00547173
0.00547148
0.00547045
0.00546891
0.00546719
0.00546552
0.00546403
0.00546278
0.00546177
0.00546098
0.00546036
0.00545989
0.00545953
0.00545927
0.00545909
0.00545897
0.00545891
0.00545888
0.00545887
0.00546193
0.00546193
0.00546195
0.005462
0.00546213
0.00546238
0.00546282
0.00546356
0.00546471
0.0054664
0.0054686
0.00547095
0.00547279
0.0054736
0.00547336
0.00547234
0.00547075
0.00546884
0.00546687
0.00546502
0.00546342
0.00546212
0.00546113
0.00546039
0.00545987
0.00545952
0.0054593
0.00545918
0.00545913
0.00545912
0.00545913
0.00545914
0.00546289
0.00546288
0.00546288
0.00546291
0.00546304
0.00546331
0.00546384
0.00546475
0.00546617
0.00546819
0.00547071
0.00547326
0.00547517
0.00547605
0.00547601
0.0054753
0.005474
0.00547222
0.00547018
0.00546806
0.00546606
0.0054643
0.00546287
0.00546178
0.00546103
0.00546057
0.00546035
0.00546029
0.00546034
0.00546043
0.00546051
0.00546056
0.00546467
0.00546466
0.00546465
0.0054647
0.00546486
0.00546522
0.0054659
0.00546706
0.00546881
0.00547117
0.00547388
0.00547645
0.00547835
0.00547945
0.00547995
0.00548002
0.00547962
0.00547867
0.00547725
0.00547551
0.0054736
0.00547168
0.0054699
0.00546832
0.00546706
0.00546617
0.00546561
0.00546535
0.0054653
0.00546537
0.00546547
0.00546553
0.00546724
0.00546724
0.00546726
0.00546736
0.00546761
0.00546813
0.00546905
0.00547048
0.00547251
0.00547503
0.00547772
0.00548021
0.00548224
0.00548383
0.00548516
0.00548632
0.00548721
0.00548765
0.00548765
0.00548724
0.00548649
0.00548545
0.0054842
0.00548283
0.00548143
0.00548012
0.00547897
0.00547808
0.00547747
0.00547713
0.00547698
0.00547694
0.00546979
0.00546979
0.00546983
0.00546997
0.00547028
0.00547088
0.00547186
0.00547334
0.00547533
0.00547775
0.00548037
0.00548292
0.00548521
0.00548722
0.00548903
0.00549067
0.00549207
0.00549316
0.00549402
0.0054947
0.00549517
0.00549542
0.0054954
0.00549511
0.00549456
0.0054938
0.00549291
0.00549203
0.00549126
0.0054907
0.00549036
0.00549022
0.00547165
0.00547166
0.00547171
0.00547185
0.00547217
0.00547274
0.00547367
0.00547504
0.00547689
0.00547914
0.00548162
0.00548411
0.00548642
0.00548845
0.00549016
0.00549153
0.00549249
0.00549316
0.00549379
0.00549447
0.00549518
0.00549587
0.00549649
0.00549699
0.00549733
0.00549748
0.00549745
0.00549727
0.00549701
0.00549676
0.00549657
0.00549648
0.00547289
0.0054729
0.00547295
0.00547308
0.00547337
0.00547388
0.00547471
0.00547594
0.00547759
0.00547963
0.00548192
0.00548426
0.00548647
0.00548839
0.00548992
0.005491
0.00549156
0.00549188
0.00549227
0.00549285
0.0054936
0.00549445
0.00549531
0.00549609
0.00549674
0.00549724
0.00549759
0.00549779
0.00549787
0.00549789
0.00549787
0.00549785
0.00547371
0.00547372
0.00547377
0.00547389
0.00547414
0.00547458
0.0054753
0.00547636
0.00547781
0.00547961
0.00548167
0.00548382
0.00548588
0.00548767
0.00548907
0.00549
0.00549043
0.00549063
0.00549094
0.0054915
0.0054923
0.00549329
0.00549436
0.00549539
0.0054963
0.00549701
0.00549752
0.00549785
0.00549804
0.00549813
0.00549817
0.00549817
0.00547427
0.00547428
0.00547433
0.00547443
0.00547464
0.00547502
0.00547563
0.00547653
0.00547777
0.00547933
0.00548114
0.00548307
0.00548494
0.0054866
0.00548794
0.00548886
0.00548934
0.00548962
0.00548999
0.00549058
0.0054914
0.00549244
0.0054936
0.00549479
0.00549587
0.00549678
0.00549746
0.00549791
0.00549819
0.00549832
0.00549838
0.00549839
0.00547472
0.00547473
0.00547476
0.00547484
0.005475
0.00547531
0.00547582
0.00547658
0.00547763
0.00547896
0.00548052
0.00548221
0.0054839
0.00548545
0.00548676
0.00548776
0.00548842
0.00548891
0.00548943
0.00549009
0.00549094
0.00549198
0.00549316
0.00549439
0.00549557
0.0054966
0.00549741
0.00549798
0.00549833
0.00549851
0.00549858
0.0054986
0.00547521
0.0054752
0.00547521
0.00547524
0.00547535
0.00547558
0.00547599
0.00547662
0.0054775
0.00547863
0.00547997
0.00548146
0.00548299
0.00548446
0.0054858
0.00548694
0.00548785
0.00548857
0.00548926
0.00549001
0.00549088
0.0054919
0.00549303
0.00549423
0.00549542
0.0054965
0.00549739
0.00549804
0.00549846
0.00549869
0.00549878
0.00549881
0.00547587
0.00547585
0.00547581
0.00547579
0.00547583
0.00547598
0.00547629
0.0054768
0.00547755
0.00547853
0.00547972
0.00548106
0.00548249
0.00548394
0.00548533
0.00548662
0.00548775
0.00548868
0.0054895
0.00549032
0.00549118
0.00549214
0.00549319
0.00549431
0.00549543
0.00549649
0.00549741
0.00549811
0.00549859
0.00549886
0.00549897
0.005499
0.00547684
0.00547679
0.0054767
0.00547661
0.00547658
0.00547665
0.00547689
0.00547734
0.00547801
0.00547891
0.00548001
0.00548128
0.00548266
0.00548409
0.00548553
0.00548693
0.0054882
0.00548926
0.00549015
0.00549097
0.00549179
0.00549265
0.00549359
0.00549458
0.0054956
0.00549659
0.00549748
0.0054982
0.00549871
0.00549901
0.00549915
0.00549919
0.00547821
0.00547812
0.00547798
0.00547784
0.00547777
0.00547781
0.00547803
0.00547847
0.00547912
0.00548
0.00548106
0.00548229
0.00548362
0.00548503
0.00548646
0.00548788
0.00548919
0.00549026
0.00549114
0.00549191
0.00549265
0.0054934
0.0054942
0.00549504
0.00549592
0.0054968
0.00549762
0.00549831
0.00549883
0.00549916
0.00549931
0.00549935
0.00548001
0.00547989
0.00547973
0.00547959
0.00547954
0.00547964
0.00547991
0.00548038
0.00548106
0.00548193
0.00548296
0.00548412
0.00548538
0.00548669
0.00548803
0.00548937
0.00549059
0.0054916
0.00549239
0.00549308
0.00549371
0.00549433
0.00549497
0.00549566
0.00549638
0.00549711
0.00549783
0.00549846
0.00549896
0.00549929
0.00549945
0.0054995
0.00548229
0.00548215
0.00548201
0.00548195
0.00548202
0.00548224
0.0054826
0.00548313
0.00548382
0.00548465
0.0054856
0.00548664
0.00548775
0.0054889
0.00549006
0.00549122
0.00549228
0.00549314
0.00549381
0.00549438
0.00549489
0.00549537
0.00549587
0.00549639
0.00549695
0.00549753
0.00549811
0.00549865
0.0054991
0.00549941
0.00549958
0.00549963
0.00548506
0.00548493
0.0054849
0.00548501
0.00548525
0.0054856
0.00548604
0.00548659
0.00548722
0.00548795
0.00548875
0.0054896
0.0054905
0.00549142
0.00549235
0.00549326
0.0054941
0.00549478
0.0054953
0.00549573
0.00549611
0.00549647
0.00549683
0.00549721
0.0054976
0.00549802
0.00549846
0.00549888
0.00549925
0.00549953
0.00549969
0.00549974
0.0054884
0.00548835
0.0054885
0.00548879
0.00548915
0.00548955
0.00548999
0.00549046
0.00549097
0.00549152
0.00549211
0.00549274
0.00549338
0.00549404
0.00549469
0.00549534
0.00549593
0.0054964
0.00549677
0.00549707
0.00549733
0.00549757
0.0054978
0.00549805
0.00549831
0.00549858
0.00549887
0.00549917
0.00549944
0.00549965
0.00549979
0.00549984
0.00549245
0.00549254
0.00549283
0.00549315
0.00549348
0.0054938
0.00549411
0.00549442
0.00549475
0.00549509
0.00549544
0.00549581
0.00549619
0.00549657
0.00549695
0.00549733
0.00549767
0.00549794
0.00549815
0.00549832
0.00549847
0.00549861
0.00549874
0.00549887
0.00549901
0.00549916
0.00549932
0.00549949
0.00549965
0.00549979
0.00549988
0.00549991
0.00549736
0.00549743
0.00549758
0.00549772
0.00549785
0.00549797
0.00549809
0.00549819
0.0054983
0.00549842
0.00549853
0.00549865
0.00549878
0.0054989
0.00549902
0.00549914
0.00549925
0.00549934
0.00549941
0.00549946
0.00549951
0.00549955
0.0054996
0.00549964
0.00549968
0.00549973
0.00549978
0.00549983
0.00549988
0.00549993
0.00549996
0.00549997
)
;

boundaryField
{
    movingWall
    {
        type            fixedValue;
        value           uniform 0.0055;
    }
    fixedWalls
    {
        type            zeroGradient;
    }
    floor
    {
        type            zeroGradient;
    }
    frontAndBack
    {
        type            empty;
    }
}


// ************************************************************************* //
