/*--------------------------------*- C++ -*----------------------------------*\
| =========                 |                                                 |
| \\      /  F ield         | OpenFOAM: The Open Source CFD Toolbox           |
|  \\    /   O peration     | Version:  2212                                  |
|   \\  /    A nd           | Website:  www.openfoam.com                      |
|    \\/     M anipulation  |                                                 |
\*---------------------------------------------------------------------------*/
FoamFile
{
    version     2.0;
    format      ascii;
    arch        "LSB;label=64;scalar=64";
    class       volScalarField;
    location    "1140";
    object      SIC;
}
// * * * * * * * * * * * * * * * * * * * * * * * * * * * * * * * * * * * * * //

dimensions      [1 -3 0 0 0 0 0];

internalField   nonuniform List<scalar> 
1024
(
0.0910573
0.0910587
0.0910622
0.0910684
0.0910782
0.0910925
0.0911116
0.0911355
0.0911633
0.0911938
0.0912252
0.0912552
0.0912807
0.0912966
0.0912993
0.091288
0.0912633
0.0912306
0.0911949
0.091158
0.0911211
0.091085
0.0910511
0.0910205
0.0909941
0.0909727
0.0909562
0.0909444
0.0909363
0.0909313
0.0909286
0.0909274
0.0910576
0.091059
0.0910625
0.0910688
0.0910789
0.0910935
0.0911129
0.0911371
0.0911653
0.0911961
0.0912277
0.0912581
0.0912838
0.0912998
0.0913024
0.0912909
0.091266
0.0912331
0.0911972
0.0911602
0.0911231
0.0910869
0.0910528
0.0910219
0.0909953
0.0909736
0.0909569
0.0909449
0.0909367
0.0909316
0.0909288
0.0909277
0.091058
0.0910595
0.0910632
0.0910698
0.0910803
0.0910954
0.0911155
0.0911404
0.0911692
0.0912007
0.0912333
0.0912647
0.0912915
0.0913078
0.09131
0.0912977
0.0912721
0.0912386
0.0912023
0.0911649
0.0911274
0.091091
0.0910564
0.0910251
0.0909979
0.0909757
0.0909585
0.090946
0.0909375
0.0909322
0.0909294
0.0909282
0.0910588
0.0910604
0.0910642
0.0910712
0.0910823
0.0910981
0.0911191
0.091145
0.091175
0.091208
0.0912424
0.0912761
0.0913052
0.0913224
0.0913237
0.0913099
0.0912828
0.0912479
0.0912105
0.0911723
0.0911342
0.0910972
0.0910621
0.09103
0.091002
0.0909789
0.0909609
0.0909478
0.0909389
0.0909334
0.0909303
0.0909291
0.0910599
0.0910615
0.0910656
0.091073
0.0910846
0.0911014
0.0911235
0.0911507
0.0911825
0.0912178
0.0912555
0.0912934
0.0913266
0.0913456
0.0913457
0.0913293
0.0912992
0.0912618
0.0912224
0.0911826
0.0911434
0.0911055
0.0910695
0.0910364
0.0910074
0.0909832
0.0909643
0.0909504
0.0909409
0.090935
0.0909318
0.0909305
0.0910611
0.0910628
0.091067
0.0910748
0.091087
0.0911046
0.0911279
0.0911569
0.091191
0.09123
0.0912729
0.0913176
0.0913573
0.0913794
0.0913781
0.0913577
0.0913227
0.091281
0.0912381
0.0911958
0.0911547
0.0911153
0.0910781
0.0910439
0.0910137
0.0909883
0.0909682
0.0909534
0.0909433
0.090937
0.0909336
0.0909322
0.0910623
0.091064
0.0910684
0.0910763
0.091089
0.0911073
0.0911318
0.0911627
0.0912002
0.0912443
0.0912949
0.0913493
0.0913984
0.0914252
0.0914226
0.0913968
0.0913548
0.0913065
0.0912582
0.0912116
0.0911675
0.091126
0.0910872
0.0910516
0.0910201
0.0909935
0.0909724
0.0909568
0.090946
0.0909394
0.0909357
0.0909343
0.0910632
0.091065
0.0910693
0.0910773
0.0910901
0.0911089
0.0911345
0.0911677
0.0912093
0.0912604
0.0913214
0.0913888
0.0914502
0.0914837
0.0914804
0.0914479
0.0913966
0.0913389
0.0912825
0.0912296
0.0911809
0.0911363
0.0910953
0.0910582
0.0910255
0.0909979
0.090976
0.0909597
0.0909486
0.0909416
0.0909379
0.0909364
0.0910639
0.0910655
0.0910697
0.0910775
0.0910901
0.091109
0.0911355
0.0911712
0.0912178
0.0912778
0.0913522
0.0914364
0.091513
0.0915552
0.0915518
0.0915118
0.0914489
0.0913786
0.091311
0.0912491
0.0911939
0.0911448
0.091101
0.0910623
0.0910286
0.0910004
0.0909781
0.0909617
0.0909504
0.0909435
0.0909397
0.0909381
0.0910645
0.091066
0.0910699
0.0910772
0.0910893
0.0911079
0.0911351
0.0911734
0.091226
0.091297
0.0913883
0.0914933
0.091588
0.0916402
0.0916371
0.091589
0.0915126
0.0914265
0.091344
0.0912696
0.0912052
0.09115
0.0911027
0.0910622
0.0910279
0.0909998
0.0909779
0.0909619
0.0909511
0.0909443
0.0909407
0.0909392
0.0910668
0.091068
0.0910713
0.0910779
0.0910891
0.0911072
0.091135
0.0911763
0.0912364
0.0913213
0.0914338
0.0915635
0.0916784
0.0917409
0.0917382
0.0916822
0.0915912
0.0914864
0.0913845
0.0912932
0.0912159
0.091152
0.0910998
0.0910571
0.0910226
0.0909954
0.0909748
0.0909601
0.0909503
0.0909443
0.0909411
0.0909399
0.0910756
0.0910764
0.0910788
0.0910842
0.0910944
0.0911121
0.091141
0.0911867
0.0912568
0.0913596
0.0914979
0.0916555
0.0917907
0.0918627
0.091861
0.0917997
0.0916961
0.0915712
0.0914457
0.0913311
0.0912345
0.091157
0.0910965
0.0910501
0.091015
0.090989
0.0909705
0.0909581
0.0909504
0.0909462
0.0909443
0.0909437
0.0911025
0.0911026
0.0911038
0.0911078
0.0911171
0.0911351
0.0911671
0.0912205
0.0913052
0.091431
0.0915981
0.0917826
0.0919351
0.0920157
0.0920192
0.0919619
0.0918562
0.0917176
0.0915682
0.0914242
0.0912982
0.091196
0.0911178
0.0910605
0.0910205
0.0909941
0.090978
0.0909696
0.0909665
0.0909665
0.0909678
0.090969
0.0911671
0.0911666
0.0911667
0.0911697
0.091179
0.0911995
0.0912382
0.0913049
0.0914105
0.0915633
0.0917578
0.0919623
0.092126
0.092217
0.0922392
0.092209
0.0921293
0.0920039
0.0918502
0.0916855
0.0915261
0.0913846
0.0912701
0.0911825
0.0911221
0.091086
0.0910687
0.0910648
0.0910692
0.091077
0.0910843
0.0910886
0.0912899
0.0912892
0.0912894
0.0912934
0.0913058
0.0913332
0.0913848
0.0914719
0.0916053
0.0917871
0.0920018
0.0922129
0.0923806
0.0924913
0.0925578
0.0925927
0.0925892
0.0925359
0.0924382
0.0923078
0.0921586
0.0920047
0.0918595
0.0917303
0.0916258
0.0915516
0.0915054
0.0914835
0.0914794
0.0914849
0.0914928
0.0914981
0.0914702
0.0914701
0.0914724
0.0914809
0.0915014
0.0915418
0.0916125
0.0917236
0.0918813
0.0920797
0.0922975
0.0925054
0.0926834
0.0928318
0.0929635
0.0930872
0.0931942
0.0932661
0.0932969
0.0932891
0.093246
0.0931725
0.0930754
0.0929632
0.0928455
0.092733
0.0926336
0.0925554
0.0925017
0.092471
0.0924573
0.0924535
0.0916494
0.0916501
0.0916542
0.091666
0.0916914
0.0917382
0.0918154
0.0919308
0.0920871
0.0922785
0.0924889
0.092698
0.0928915
0.0930675
0.0932324
0.0933925
0.0935434
0.0936788
0.0937996
0.0939046
0.0939883
0.094045
0.0940705
0.0940629
0.0940238
0.0939592
0.0938796
0.0937973
0.0937248
0.0936707
0.0936383
0.0936248
0.0917785
0.0917796
0.0917845
0.0917968
0.0918223
0.0918678
0.091941
0.0920484
0.0921924
0.0923684
0.0925642
0.092763
0.0929498
0.0931171
0.0932629
0.0933879
0.0934918
0.0935887
0.0936967
0.0938187
0.0939474
0.0940723
0.0941834
0.094272
0.0943325
0.0943632
0.0943664
0.0943484
0.0943191
0.0942892
0.0942669
0.0942559
0.0918611
0.0918625
0.0918674
0.0918792
0.0919025
0.0919434
0.0920086
0.0921038
0.0922316
0.0923889
0.0925659
0.092748
0.0929196
0.0930693
0.0931899
0.093278
0.0933358
0.0933899
0.0934702
0.0935847
0.093727
0.0938843
0.0940411
0.0941831
0.0942998
0.0943857
0.0944409
0.0944692
0.0944773
0.0944739
0.0944669
0.0944622
0.0919133
0.0919148
0.0919195
0.0919301
0.0919507
0.0919862
0.0920424
0.0921245
0.0922352
0.0923726
0.0925289
0.0926917
0.0928462
0.0929799
0.0930835
0.0931526
0.0931905
0.0932267
0.0932918
0.0933977
0.0935428
0.0937176
0.0939065
0.09409
0.0942511
0.0943784
0.0944681
0.094523
0.0945504
0.0945594
0.0945592
0.0945571
0.0919481
0.0919493
0.0919533
0.0919624
0.0919798
0.0920099
0.0920575
0.0921271
0.0922212
0.0923389
0.0924742
0.092617
0.0927548
0.0928759
0.0929715
0.0930379
0.0930792
0.0931206
0.0931863
0.0932885
0.0934295
0.0936051
0.0938045
0.0940099
0.0942015
0.0943626
0.0944837
0.0945636
0.0946081
0.094627
0.0946312
0.0946302
0.0919784
0.0919789
0.0919813
0.0919877
0.092001
0.0920251
0.0920643
0.0921222
0.0922012
0.0923007
0.0924165
0.092541
0.0926644
0.0927776
0.0928736
0.0929501
0.0930106
0.0930715
0.093149
0.0932537
0.0933904
0.0935593
0.0937545
0.0939634
0.0941683
0.0943504
0.0944954
0.0945972
0.0946581
0.0946869
0.0946956
0.0946957
0.092019
0.0920181
0.0920174
0.0920191
0.0920265
0.0920434
0.0920738
0.092121
0.092187
0.0922716
0.092372
0.0924829
0.0925976
0.0927094
0.0928135
0.092909
0.0929966
0.0930821
0.0931748
0.093284
0.0934162
0.0935746
0.0937575
0.0939569
0.0941596
0.0943489
0.0945083
0.0946268
0.0947022
0.0947409
0.0947543
0.0947556
0.092086
0.0920825
0.092077
0.0920719
0.0920713
0.0920797
0.0921013
0.0921396
0.0921964
0.0922719
0.092364
0.0924691
0.0925826
0.0926997
0.0928171
0.0929346
0.0930489
0.0931562
0.0932607
0.0933717
0.0934967
0.0936411
0.0938063
0.0939885
0.0941782
0.0943624
0.0945257
0.0946545
0.0947416
0.0947894
0.0948078
0.0948104
0.0921938
0.0921868
0.092175
0.092162
0.0921531
0.0921538
0.0921691
0.0922029
0.0922567
0.0923305
0.0924224
0.0925294
0.0926476
0.0927735
0.0929041
0.0930395
0.0931726
0.0932927
0.0934018
0.0935095
0.0936236
0.0937506
0.0938941
0.0940534
0.094223
0.0943932
0.094551
0.0946826
0.0947774
0.094833
0.0948563
0.0948605
0.0923531
0.092342
0.092324
0.0923049
0.0922914
0.0922896
0.092305
0.092341
0.0923989
0.0924775
0.0925745
0.0926866
0.0928102
0.0929421
0.0930797
0.0932228
0.0933622
0.0934841
0.0935896
0.0936884
0.0937882
0.0938956
0.0940151
0.0941481
0.0942925
0.094442
0.0945867
0.0947137
0.094811
0.0948721
0.0949
0.0949059
0.0925704
0.0925553
0.0925339
0.0925149
0.0925055
0.0925107
0.0925345
0.0925796
0.0926457
0.0927307
0.0928318
0.0929456
0.0930689
0.0931987
0.0933329
0.0934711
0.0936039
0.0937171
0.0938119
0.0938974
0.0939806
0.0940676
0.0941627
0.0942686
0.0943851
0.0945093
0.0946345
0.0947502
0.0948443
0.0949076
0.094939
0.0949468
0.0928494
0.0928318
0.0928137
0.0928054
0.0928113
0.0928326
0.0928707
0.0929265
0.0929986
0.0930851
0.0931834
0.0932907
0.0934043
0.0935218
0.0936415
0.0937635
0.093879
0.0939758
0.094055
0.0941245
0.0941903
0.0942573
0.0943294
0.0944092
0.0944978
0.0945945
0.0946957
0.0947942
0.0948793
0.0949407
0.0949738
0.0949833
0.0931949
0.0931789
0.0931743
0.0931874
0.0932153
0.0932547
0.0933049
0.0933655
0.0934358
0.0935146
0.0936005
0.0936917
0.0937862
0.0938826
0.0939795
0.0940772
0.0941686
0.0942444
0.0943055
0.094358
0.0944067
0.0944551
0.0945065
0.0945628
0.0946257
0.0946953
0.0947706
0.0948474
0.094918
0.0949727
0.0950049
0.0950155
0.093616
0.0936096
0.0936283
0.0936641
0.0937082
0.0937563
0.0938075
0.093862
0.09392
0.0939818
0.0940469
0.0941146
0.0941837
0.0942533
0.0943227
0.0943919
0.0944563
0.0945093
0.0945516
0.0945875
0.0946201
0.0946522
0.0946855
0.0947219
0.0947623
0.0948075
0.0948574
0.0949104
0.0949621
0.0950053
0.0950331
0.0950435
0.0941303
0.0941425
0.0941784
0.0942191
0.0942597
0.0942989
0.0943367
0.0943739
0.0944113
0.0944496
0.0944892
0.0945296
0.0945705
0.0946115
0.0946521
0.0946923
0.0947296
0.0947601
0.0947844
0.0948048
0.0948231
0.0948409
0.0948592
0.0948789
0.0949008
0.0949252
0.0949526
0.0949824
0.0950128
0.0950401
0.0950595
0.0950677
0.0947593
0.0947689
0.0947875
0.0948053
0.0948217
0.0948368
0.0948507
0.0948637
0.0948765
0.0948893
0.0949023
0.0949156
0.0949289
0.0949422
0.0949553
0.0949683
0.0949803
0.0949901
0.0949979
0.0950044
0.0950102
0.0950158
0.0950215
0.0950277
0.0950344
0.095042
0.0950504
0.0950597
0.0950694
0.0950785
0.0950855
0.0950889
)
;

boundaryField
{
    movingWall
    {
        type            fixedValue;
        value           uniform 0.0951;
    }
    fixedWalls
    {
        type            zeroGradient;
    }
    floor
    {
        type            zeroGradient;
    }
    frontAndBack
    {
        type            empty;
    }
}


// ************************************************************************* //
