/*--------------------------------*- C++ -*----------------------------------*\
| =========                 |                                                 |
| \\      /  F ield         | OpenFOAM: The Open Source CFD Toolbox           |
|  \\    /   O peration     | Version:  2212                                  |
|   \\  /    A nd           | Website:  www.openfoam.com                      |
|    \\/     M anipulation  |                                                 |
\*---------------------------------------------------------------------------*/
FoamFile
{
    version     2.0;
    format      ascii;
    arch        "LSB;label=64;scalar=64";
    class       volScalarField;
    location    "1140";
    object      T;
}
// * * * * * * * * * * * * * * * * * * * * * * * * * * * * * * * * * * * * * //

dimensions      [0 0 0 1 0 0 0];

internalField   nonuniform List<scalar> 
1024
(
309.997
309.997
309.996
309.996
309.995
309.995
309.994
309.993
309.992
309.991
309.989
309.988
309.987
309.987
309.988
309.99
309.991
309.992
309.992
309.993
309.994
309.994
309.995
309.995
309.996
309.996
309.997
309.997
309.997
309.997
309.997
309.997
309.99
309.989
309.989
309.988
309.986
309.983
309.981
309.978
309.974
309.971
309.967
309.962
309.959
309.959
309.963
309.967
309.971
309.974
309.976
309.978
309.98
309.982
309.983
309.985
309.986
309.988
309.989
309.99
309.991
309.991
309.992
309.992
309.982
309.982
309.98
309.978
309.975
309.971
309.966
309.961
309.955
309.949
309.941
309.934
309.929
309.929
309.935
309.942
309.948
309.953
309.957
309.961
309.964
309.967
309.97
309.973
309.975
309.978
309.98
309.983
309.984
309.985
309.985
309.986
309.974
309.973
309.972
309.968
309.963
309.957
309.95
309.942
309.934
309.925
309.915
309.906
309.899
309.9
309.907
309.915
309.924
309.931
309.937
309.942
309.947
309.951
309.955
309.959
309.963
309.967
309.971
309.974
309.976
309.978
309.978
309.979
309.965
309.965
309.962
309.958
309.951
309.943
309.933
309.923
309.913
309.902
309.891
309.882
309.874
309.873
309.88
309.889
309.899
309.907
309.915
309.922
309.928
309.934
309.939
309.945
309.95
309.955
309.96
309.965
309.968
309.97
309.971
309.971
309.957
309.956
309.953
309.948
309.94
309.93
309.918
309.906
309.894
309.883
309.872
309.863
309.855
309.854
309.859
309.867
309.875
309.884
309.893
309.901
309.908
309.915
309.922
309.929
309.936
309.943
309.949
309.955
309.959
309.962
309.963
309.964
309.949
309.948
309.945
309.939
309.93
309.918
309.906
309.893
309.881
309.87
309.86
309.851
309.844
309.841
309.844
309.85
309.857
309.864
309.873
309.881
309.889
309.897
309.905
309.913
309.921
309.93
309.938
309.945
309.95
309.954
309.955
309.956
309.942
309.941
309.938
309.932
309.922
309.91
309.897
309.884
309.873
309.863
309.854
309.846
309.837
309.834
309.835
309.839
309.844
309.849
309.856
309.864
309.872
309.881
309.889
309.898
309.908
309.917
309.927
309.935
309.942
309.946
309.947
309.948
309.936
309.935
309.933
309.927
309.918
309.906
309.893
309.881
309.87
309.861
309.853
309.843
309.834
309.83
309.831
309.833
309.836
309.84
309.845
309.851
309.859
309.867
309.876
309.885
309.896
309.907
309.917
309.927
309.934
309.938
309.94
309.941
309.931
309.93
309.928
309.923
309.916
309.905
309.893
309.882
309.872
309.863
309.853
309.841
309.832
309.828
309.828
309.831
309.833
309.836
309.84
309.844
309.85
309.858
309.866
309.876
309.887
309.899
309.91
309.92
309.927
309.932
309.933
309.934
309.926
309.926
309.924
309.921
309.915
309.906
309.896
309.886
309.877
309.867
309.854
309.839
309.829
309.826
309.828
309.83
309.833
309.837
309.839
309.842
309.847
309.853
309.862
309.871
309.883
309.894
309.906
309.915
309.922
309.926
309.927
309.928
309.92
309.92
309.92
309.918
309.914
309.907
309.899
309.891
309.882
309.869
309.852
309.836
309.827
309.825
309.827
309.831
309.835
309.839
309.842
309.845
309.849
309.855
309.862
309.872
309.883
309.894
309.905
309.913
309.918
309.921
309.922
309.922
309.912
309.913
309.913
309.912
309.91
309.906
309.9
309.892
309.882
309.867
309.847
309.83
309.824
309.824
309.827
309.83
309.835
309.841
309.847
309.852
309.856
309.862
309.869
309.878
309.887
309.897
309.905
309.911
309.914
309.916
309.917
309.917
309.898
309.899
309.9
309.901
309.9
309.898
309.893
309.884
309.872
309.855
309.836
309.823
309.82
309.821
309.823
309.826
309.831
309.837
309.845
309.854
309.862
309.87
309.877
309.884
309.891
309.898
309.903
309.907
309.909
309.91
309.91
309.91
309.874
309.875
309.877
309.879
309.88
309.879
309.873
309.863
309.846
309.828
309.818
309.814
309.813
309.813
309.813
309.814
309.815
309.819
309.824
309.832
309.841
309.851
309.863
309.875
309.884
309.89
309.894
309.896
309.897
309.897
309.896
309.896
309.844
309.846
309.848
309.85
309.851
309.849
309.842
309.831
309.817
309.806
309.8
309.796
309.793
309.791
309.79
309.789
309.788
309.788
309.789
309.791
309.794
309.798
309.803
309.809
309.816
309.827
309.837
309.846
309.853
309.856
309.857
309.857
309.824
309.825
309.827
309.829
309.829
309.827
309.822
309.813
309.804
309.796
309.79
309.786
309.782
309.778
309.774
309.772
309.77
309.77
309.771
309.772
309.773
309.774
309.776
309.777
309.779
309.781
309.783
309.786
309.789
309.793
309.795
309.796
309.813
309.814
309.815
309.816
309.817
309.815
309.811
309.805
309.798
309.791
309.786
309.781
309.776
309.772
309.768
309.765
309.763
309.763
309.764
309.765
309.767
309.769
309.77
309.772
309.773
309.774
309.775
309.775
309.776
309.776
309.776
309.777
309.806
309.807
309.808
309.809
309.809
309.808
309.805
309.8
309.795
309.789
309.783
309.778
309.773
309.769
309.764
309.761
309.758
309.758
309.759
309.761
309.763
309.766
309.768
309.77
309.772
309.774
309.775
309.775
309.775
309.775
309.775
309.775
309.802
309.802
309.803
309.804
309.805
309.804
309.802
309.798
309.793
309.788
309.783
309.778
309.773
309.768
309.764
309.76
309.757
309.755
309.756
309.758
309.76
309.763
309.766
309.769
309.772
309.773
309.775
309.775
309.776
309.776
309.776
309.776
309.799
309.8
309.8
309.801
309.801
309.801
309.799
309.796
309.792
309.787
309.783
309.778
309.773
309.768
309.764
309.76
309.757
309.756
309.756
309.757
309.759
309.762
309.765
309.768
309.771
309.773
309.775
309.776
309.776
309.776
309.776
309.776
309.797
309.797
309.798
309.798
309.799
309.799
309.797
309.795
309.791
309.787
309.783
309.778
309.774
309.77
309.765
309.762
309.759
309.758
309.758
309.758
309.76
309.762
309.764
309.767
309.77
309.773
309.775
309.776
309.777
309.777
309.777
309.777
309.796
309.796
309.796
309.797
309.797
309.797
309.796
309.794
309.791
309.787
309.783
309.779
309.775
309.771
309.767
309.764
309.762
309.761
309.76
309.761
309.761
309.763
309.765
309.767
309.77
309.773
309.775
309.776
309.777
309.777
309.777
309.777
309.794
309.795
309.795
309.795
309.796
309.796
309.795
309.793
309.79
309.787
309.784
309.78
309.777
309.773
309.77
309.767
309.765
309.764
309.763
309.763
309.764
309.765
309.767
309.768
309.771
309.773
309.775
309.776
309.777
309.778
309.778
309.778
309.793
309.794
309.794
309.794
309.795
309.794
309.794
309.792
309.79
309.787
309.784
309.781
309.778
309.775
309.772
309.77
309.768
309.767
309.767
309.767
309.767
309.767
309.769
309.77
309.772
309.773
309.775
309.776
309.777
309.778
309.778
309.778
309.793
309.793
309.793
309.794
309.794
309.794
309.793
309.792
309.79
309.788
309.785
309.782
309.78
309.777
309.775
309.773
309.771
309.77
309.77
309.77
309.77
309.77
309.771
309.772
309.773
309.774
309.776
309.777
309.778
309.778
309.778
309.778
309.792
309.792
309.793
309.793
309.793
309.793
309.792
309.791
309.79
309.788
309.786
309.783
309.781
309.779
309.777
309.776
309.774
309.774
309.773
309.773
309.773
309.773
309.773
309.774
309.775
309.775
309.776
309.777
309.778
309.778
309.779
309.779
309.792
309.792
309.792
309.792
309.792
309.792
309.792
309.791
309.789
309.788
309.786
309.785
309.783
309.781
309.78
309.778
309.777
309.777
309.776
309.776
309.776
309.775
309.776
309.776
309.776
309.777
309.777
309.778
309.778
309.778
309.779
309.779
309.792
309.792
309.792
309.792
309.792
309.792
309.791
309.791
309.79
309.789
309.787
309.786
309.785
309.784
309.782
309.781
309.78
309.779
309.779
309.778
309.778
309.778
309.778
309.778
309.778
309.778
309.778
309.778
309.778
309.779
309.779
309.779
309.791
309.792
309.792
309.792
309.792
309.791
309.791
309.791
309.79
309.789
309.788
309.787
309.786
309.785
309.784
309.783
309.782
309.781
309.781
309.78
309.78
309.779
309.779
309.779
309.779
309.779
309.779
309.779
309.779
309.779
309.779
309.779
309.791
309.791
309.791
309.791
309.791
309.791
309.791
309.791
309.79
309.79
309.789
309.789
309.788
309.787
309.786
309.785
309.784
309.783
309.782
309.781
309.781
309.78
309.78
309.78
309.78
309.779
309.779
309.779
309.779
309.779
309.779
309.779
309.791
309.791
309.791
309.791
309.791
309.791
309.791
309.791
309.791
309.79
309.79
309.789
309.788
309.787
309.786
309.785
309.784
309.783
309.783
309.782
309.781
309.781
309.781
309.78
309.78
309.78
309.78
309.78
309.779
309.779
309.779
309.779
)
;

boundaryField
{
    movingWall
    {
        type            zeroGradient;
    }
    fixedWalls
    {
        type            zeroGradient;
    }
    floor
    {
        type            fixedValue;
        value           uniform 310;
    }
    frontAndBack
    {
        type            empty;
    }
}


// ************************************************************************* //
