/*--------------------------------*- C++ -*----------------------------------*\
| =========                 |                                                 |
| \\      /  F ield         | OpenFOAM: The Open Source CFD Toolbox           |
|  \\    /   O peration     | Version:  2212                                  |
|   \\  /    A nd           | Website:  www.openfoam.com                      |
|    \\/     M anipulation  |                                                 |
\*---------------------------------------------------------------------------*/
FoamFile
{
    version     2.0;
    format      ascii;
    arch        "LSB;label=64;scalar=64";
    class       volScalarField;
    location    "1140";
    object      Xpr;
}
// * * * * * * * * * * * * * * * * * * * * * * * * * * * * * * * * * * * * * //

dimensions      [1 -3 0 0 0 0 0];

internalField   nonuniform List<scalar> 
1024
(
0.0815385
0.0815396
0.0815421
0.0815467
0.0815539
0.0815644
0.0815785
0.081596
0.0816165
0.0816388
0.0816616
0.0816834
0.0817016
0.0817128
0.081714
0.0817048
0.0816856
0.0816606
0.0816335
0.0816055
0.0815776
0.0815504
0.0815247
0.0815016
0.0814816
0.0814654
0.0814529
0.0814438
0.0814377
0.0814339
0.0814319
0.081431
0.0815387
0.0815397
0.0815423
0.081547
0.0815544
0.0815651
0.0815795
0.0815972
0.0816179
0.0816404
0.0816635
0.0816855
0.0817039
0.0817151
0.0817163
0.0817068
0.0816875
0.0816623
0.0816351
0.0816071
0.0815791
0.0815518
0.081526
0.0815027
0.0814825
0.0814661
0.0814534
0.0814442
0.081438
0.0814341
0.081432
0.0814312
0.0815391
0.0815401
0.0815428
0.0815477
0.0815554
0.0815666
0.0815814
0.0815996
0.0816208
0.0816439
0.0816676
0.0816903
0.0817095
0.0817209
0.0817217
0.0817118
0.0816919
0.0816664
0.0816388
0.0816105
0.0815823
0.0815548
0.0815287
0.081505
0.0814845
0.0814676
0.0814545
0.0814451
0.0814386
0.0814346
0.0814325
0.0814316
0.0815396
0.0815408
0.0815436
0.0815488
0.0815569
0.0815686
0.081584
0.0816031
0.0816251
0.0816492
0.0816742
0.0816986
0.0817195
0.0817315
0.0817316
0.0817206
0.0816996
0.081673
0.0816448
0.0816159
0.0815873
0.0815593
0.0815329
0.0815086
0.0814875
0.08147
0.0814564
0.0814464
0.0814397
0.0814355
0.0814332
0.0814322
0.0815404
0.0815416
0.0815446
0.0815501
0.0815587
0.081571
0.0815872
0.0816073
0.0816305
0.0816563
0.0816838
0.0817113
0.081735
0.0817483
0.0817475
0.0817345
0.0817113
0.0816829
0.0816532
0.0816234
0.0815939
0.0815654
0.0815383
0.0815134
0.0814915
0.0814732
0.0814588
0.0814483
0.0814411
0.0814367
0.0814342
0.0814332
0.0815413
0.0815426
0.0815457
0.0815514
0.0815604
0.0815734
0.0815905
0.0816118
0.0816369
0.0816653
0.0816966
0.0817289
0.0817574
0.0817727
0.0817708
0.0817547
0.0817281
0.0816966
0.0816644
0.0816327
0.081602
0.0815725
0.0815446
0.0815189
0.0814961
0.0814769
0.0814618
0.0814506
0.081443
0.0814382
0.0814356
0.0814345
0.0815422
0.0815435
0.0815467
0.0815526
0.0815619
0.0815754
0.0815934
0.0816162
0.0816436
0.0816759
0.0817127
0.081752
0.0817871
0.0818057
0.0818027
0.0817826
0.0817508
0.0817145
0.0816785
0.0816438
0.081611
0.0815801
0.0815511
0.0815244
0.0815008
0.0814808
0.0814648
0.081453
0.0814449
0.0814399
0.0814371
0.081436
0.081543
0.0815442
0.0815474
0.0815533
0.0815628
0.0815766
0.0815954
0.0816198
0.0816503
0.0816877
0.081732
0.0817807
0.0818246
0.0818478
0.081844
0.0818188
0.0817801
0.081737
0.0816953
0.0816562
0.0816203
0.0815872
0.0815568
0.0815291
0.0815046
0.0814839
0.0814674
0.0814552
0.0814468
0.0814415
0.0814387
0.0814375
0.0815435
0.0815447
0.0815478
0.0815535
0.0815628
0.0815767
0.0815963
0.0816225
0.0816566
0.0817004
0.0817545
0.0818153
0.08187
0.081899
0.0818947
0.0818638
0.0818165
0.0817644
0.0817147
0.0816693
0.0816288
0.0815927
0.0815604
0.0815317
0.0815066
0.0814855
0.0814689
0.0814565
0.081448
0.0814428
0.0814399
0.0814388
0.081544
0.0815451
0.081548
0.0815534
0.0815623
0.081576
0.081596
0.0816241
0.0816627
0.0817145
0.0817808
0.0818564
0.0819239
0.0819597
0.0819551
0.0819179
0.0818605
0.0817971
0.0817367
0.0816827
0.0816358
0.0815955
0.0815609
0.081531
0.0815056
0.0814847
0.0814684
0.0814565
0.0814483
0.0814432
0.0814405
0.0814394
0.0815458
0.0815468
0.0815492
0.081554
0.0815623
0.0815756
0.081596
0.0816264
0.0816703
0.0817322
0.0818138
0.0819071
0.0819886
0.0820312
0.0820262
0.0819827
0.0819145
0.0818375
0.0817635
0.0816976
0.0816417
0.0815956
0.0815576
0.0815265
0.0815011
0.081481
0.0814657
0.0814548
0.0814474
0.0814429
0.0814405
0.0814396
0.0815526
0.0815532
0.0815549
0.0815589
0.0815664
0.0815794
0.0816006
0.0816341
0.0816854
0.0817602
0.0818603
0.0819732
0.0820687
0.0821173
0.0821121
0.0820641
0.0819866
0.0818951
0.0818043
0.081722
0.0816528
0.0815972
0.0815537
0.0815201
0.0814946
0.0814756
0.081462
0.0814528
0.081447
0.0814438
0.0814423
0.0814418
0.0815729
0.081573
0.0815738
0.0815767
0.0815834
0.0815967
0.0816201
0.0816592
0.0817209
0.0818122
0.0819327
0.0820644
0.0821713
0.0822251
0.0822227
0.0821768
0.0820973
0.0819958
0.0818881
0.0817851
0.0816953
0.0816225
0.0815667
0.0815258
0.0814971
0.081478
0.0814663
0.08146
0.0814575
0.0814574
0.0814582
0.081459
0.0816213
0.0816208
0.0816209
0.081623
0.0816297
0.0816446
0.0816728
0.0817213
0.081798
0.0819084
0.0820479
0.0821929
0.0823067
0.0823668
0.082377
0.0823498
0.0822881
0.0821955
0.0820844
0.0819666
0.0818533
0.0817531
0.081672
0.08161
0.0815672
0.0815415
0.0815291
0.0815262
0.0815291
0.0815345
0.0815396
0.0815426
0.0817127
0.0817121
0.0817121
0.0817149
0.0817237
0.0817435
0.0817808
0.0818438
0.0819399
0.0820703
0.0822231
0.0823716
0.0824872
0.0825608
0.0826021
0.0826206
0.0826119
0.0825691
0.0824964
0.082402
0.0822955
0.0821864
0.082084
0.0819931
0.0819198
0.0818677
0.0818354
0.08182
0.0818172
0.0818211
0.0818267
0.0818304
0.081846
0.0818459
0.0818474
0.0818533
0.0818678
0.0818968
0.0819474
0.0820271
0.0821399
0.0822813
0.0824353
0.0825809
0.0827037
0.0828043
0.0828921
0.0829731
0.0830413
0.0830844
0.0830995
0.0830886
0.0830543
0.0830002
0.0829306
0.0828515
0.0827693
0.0826912
0.0826225
0.0825685
0.0825316
0.0825105
0.0825011
0.0824986
0.0819784
0.0819788
0.0819816
0.0819898
0.0820077
0.0820411
0.0820962
0.0821786
0.0822902
0.0824264
0.0825754
0.0827226
0.0828576
0.0829791
0.0830916
0.0831989
0.0832974
0.083383
0.0834573
0.0835207
0.0835702
0.0836024
0.0836146
0.0836059
0.083577
0.083532
0.0834775
0.0834217
0.0833726
0.0833363
0.0833145
0.0833054
0.0820743
0.082075
0.0820783
0.0820869
0.0821049
0.0821372
0.0821894
0.0822661
0.082369
0.0824947
0.0826342
0.0827752
0.0829072
0.0830248
0.0831262
0.0832115
0.0832791
0.0833385
0.0834026
0.0834744
0.08355
0.0836235
0.0836889
0.0837412
0.0837768
0.0837946
0.0837956
0.0837837
0.0837649
0.0837457
0.0837314
0.0837244
0.0821364
0.0821373
0.0821406
0.0821488
0.0821652
0.0821942
0.0822407
0.0823089
0.0824004
0.0825132
0.0826401
0.0827704
0.0828932
0.0830002
0.0830861
0.083148
0.0831863
0.0832183
0.0832645
0.083331
0.0834142
0.0835063
0.0835983
0.0836818
0.0837505
0.0838015
0.0838346
0.083852
0.0838575
0.083856
0.0838523
0.0838496
0.0821764
0.0821773
0.0821805
0.0821878
0.0822023
0.0822274
0.0822676
0.0823265
0.082406
0.0825049
0.0826176
0.082735
0.0828467
0.0829436
0.083019
0.083069
0.083095
0.0831163
0.0831537
0.0832154
0.0833009
0.083404
0.0835155
0.0836238
0.0837187
0.0837937
0.0838467
0.0838795
0.0838963
0.0839023
0.0839028
0.0839018
0.0822033
0.0822041
0.0822068
0.0822131
0.0822253
0.0822466
0.0822806
0.0823306
0.0823985
0.0824835
0.0825815
0.0826852
0.0827854
0.0828739
0.0829441
0.0829926
0.0830213
0.0830466
0.0830853
0.0831457
0.0832294
0.0833338
0.0834522
0.0835738
0.0836869
0.0837819
0.0838532
0.0839004
0.083927
0.0839387
0.0839417
0.0839415
0.082226
0.0822264
0.0822281
0.0822326
0.082242
0.0822592
0.0822873
0.082329
0.0823861
0.0824582
0.0825423
0.0826328
0.0827228
0.0828054
0.0828754
0.0829304
0.0829716
0.08301
0.0830571
0.0831201
0.0832022
0.0833033
0.0834198
0.083544
0.0836653
0.0837727
0.0838581
0.083918
0.083954
0.0839714
0.0839769
0.0839773
0.0822544
0.0822539
0.0822536
0.0822551
0.0822606
0.082273
0.082295
0.0823291
0.0823769
0.0824381
0.0825109
0.0825913
0.0826742
0.0827548
0.0828292
0.082896
0.0829547
0.0830094
0.0830669
0.0831337
0.0832138
0.0833094
0.0834191
0.0835381
0.0836584
0.0837702
0.083864
0.0839336
0.083978
0.084001
0.0840092
0.0840103
0.0822989
0.0822968
0.0822934
0.0822905
0.0822909
0.0822976
0.0823136
0.0823414
0.0823824
0.0824366
0.0825025
0.0825775
0.0826582
0.0827408
0.0828227
0.082903
0.0829788
0.0830477
0.0831134
0.0831821
0.0832586
0.0833462
0.0834458
0.0835548
0.0836677
0.0837767
0.0838729
0.0839485
0.0839996
0.0840278
0.0840388
0.0840406
0.0823688
0.0823644
0.082357
0.0823492
0.0823442
0.0823458
0.0823575
0.0823818
0.08242
0.0824719
0.0825362
0.0826109
0.082693
0.0827798
0.082869
0.08296
0.0830475
0.0831249
0.083194
0.0832612
0.0833316
0.0834091
0.0834959
0.0835916
0.0836927
0.0837936
0.0838866
0.0839638
0.0840193
0.0840519
0.0840657
0.0840684
0.0824708
0.0824639
0.0824525
0.0824408
0.0824328
0.0824328
0.0824441
0.0824694
0.0825093
0.0825631
0.0826293
0.0827057
0.0827897
0.082879
0.0829714
0.0830666
0.0831579
0.0832365
0.0833036
0.0833656
0.0834275
0.0834934
0.083566
0.0836461
0.0837324
0.0838212
0.0839065
0.083981
0.0840379
0.0840735
0.0840899
0.0840936
0.082609
0.0825995
0.0825861
0.0825744
0.082569
0.0825731
0.0825895
0.08262
0.0826643
0.0827212
0.0827888
0.082865
0.0829474
0.0830341
0.0831232
0.0832145
0.0833011
0.0833742
0.0834347
0.0834886
0.0835405
0.083594
0.0836521
0.083716
0.0837858
0.0838596
0.0839336
0.0840015
0.0840564
0.0840932
0.0841115
0.0841162
0.0827857
0.0827747
0.0827633
0.0827583
0.0827624
0.0827766
0.0828017
0.0828383
0.0828858
0.0829427
0.0830076
0.0830784
0.0831535
0.0832313
0.0833103
0.0833905
0.0834657
0.0835282
0.0835789
0.0836228
0.083664
0.0837055
0.0837496
0.0837979
0.0838511
0.0839087
0.0839685
0.0840264
0.084076
0.0841116
0.0841308
0.0841364
0.0830037
0.0829937
0.0829909
0.0829993
0.0830172
0.0830426
0.083075
0.0831142
0.0831598
0.0832112
0.0832673
0.083327
0.0833891
0.0834525
0.0835162
0.0835802
0.0836397
0.0836887
0.0837278
0.0837612
0.0837917
0.0838218
0.0838533
0.0838875
0.0839253
0.0839669
0.0840114
0.0840566
0.0840977
0.0841294
0.084148
0.0841541
0.0832689
0.0832649
0.0832767
0.0832993
0.0833273
0.0833579
0.0833906
0.0834256
0.083463
0.083503
0.0835453
0.0835894
0.0836346
0.0836802
0.0837257
0.083771
0.0838129
0.0838472
0.0838743
0.0838972
0.0839177
0.0839377
0.0839582
0.0839803
0.0840047
0.0840317
0.0840613
0.0840924
0.0841225
0.0841475
0.0841635
0.0841695
0.083592
0.0835997
0.0836223
0.0836479
0.0836735
0.0836984
0.0837224
0.0837461
0.0837701
0.0837949
0.0838205
0.0838468
0.0838735
0.0839003
0.0839269
0.0839532
0.0839775
0.0839972
0.0840128
0.0840258
0.0840374
0.0840485
0.0840597
0.0840718
0.084085
0.0840996
0.0841158
0.0841334
0.0841511
0.0841669
0.084178
0.0841827
0.0839866
0.0839926
0.0840043
0.0840155
0.0840258
0.0840354
0.0840442
0.0840525
0.0840607
0.0840689
0.0840773
0.0840859
0.0840946
0.0841033
0.0841119
0.0841204
0.0841282
0.0841346
0.0841396
0.0841437
0.0841474
0.0841509
0.0841544
0.0841582
0.0841623
0.0841668
0.0841718
0.0841773
0.0841829
0.0841882
0.0841922
0.0841941
)
;

boundaryField
{
    movingWall
    {
        type            fixedValue;
        value           uniform 0.0842;
    }
    fixedWalls
    {
        type            zeroGradient;
    }
    floor
    {
        type            zeroGradient;
    }
    frontAndBack
    {
        type            empty;
    }
}


// ************************************************************************* //
