/*--------------------------------*- C++ -*----------------------------------*\
| =========                 |                                                 |
| \\      /  F ield         | OpenFOAM: The Open Source CFD Toolbox           |
|  \\    /   O peration     | Version:  2212                                  |
|   \\  /    A nd           | Website:  www.openfoam.com                      |
|    \\/     M anipulation  |                                                 |
\*---------------------------------------------------------------------------*/
FoamFile
{
    version     2.0;
    format      ascii;
    arch        "LSB;label=64;scalar=64";
    class       volVectorField;
    location    "0.02";
    object      U;
}
// * * * * * * * * * * * * * * * * * * * * * * * * * * * * * * * * * * * * * //

dimensions      [0 1 -1 0 0 0 0];

internalField   nonuniform List<vector> 
32768
(
(4.13413e-05 -8.79087e-05 0)
(0.000145601 -0.000105742 0)
(0.000255902 -0.000106895 0)
(0.000367481 -0.00010662 0)
(0.000478576 -0.000106095 0)
(0.000588994 -0.000105385 0)
(0.000698581 -0.000104503 0)
(0.000807168 -0.000103454 0)
(0.000914579 -0.000102238 0)
(0.00102064 -0.000100853 0)
(0.00112518 -9.92986e-05 0)
(0.00122802 -9.75708e-05 0)
(0.00132897 -9.56667e-05 0)
(0.00142786 -9.35829e-05 0)
(0.00152448 -9.13157e-05 0)
(0.00161865 -8.88614e-05 0)
(0.00171018 -8.62163e-05 0)
(0.00179886 -8.33767e-05 0)
(0.00188448 -8.03392e-05 0)
(0.00196684 -7.71004e-05 0)
(0.00204572 -7.36575e-05 0)
(0.00212091 -7.00078e-05 0)
(0.0021922 -6.61493e-05 0)
(0.00225936 -6.20803e-05 0)
(0.00232217 -5.78001e-05 0)
(0.00238041 -5.33085e-05 0)
(0.00243385 -4.86065e-05 0)
(0.00248229 -4.36957e-05 0)
(0.00252549 -3.85791e-05 0)
(0.00256324 -3.32606e-05 0)
(0.00259534 -2.77457e-05 0)
(0.00262158 -2.20411e-05 0)
(0.00264175 -1.61554e-05 0)
(0.00265569 -1.00984e-05 0)
(0.00266321 -3.88197e-06 0)
(0.00266416 2.47971e-06 0)
(0.00265838 8.97845e-06 0)
(0.00264569 1.56003e-05 0)
(0.00262602 2.23256e-05 0)
(0.00259925 2.91329e-05 0)
(0.00256533 3.59999e-05 0)
(0.00252419 4.29035e-05 0)
(0.00247581 4.98187e-05 0)
(0.0024202 5.67193e-05 0)
(0.00235738 6.35773e-05 0)
(0.0022874 7.03637e-05 0)
(0.00221037 7.70482e-05 0)
(0.00212641 8.35998e-05 0)
(0.00203566 8.99866e-05 0)
(0.00193833 9.61765e-05 0)
(0.00183463 0.000102137 0)
(0.00172481 0.000107836 0)
(0.00160918 0.000113242 0)
(0.00148806 0.000118324 0)
(0.0013618 0.000123051 0)
(0.00123078 0.000127396 0)
(0.00109543 0.000131332 0)
(0.000956177 0.000134834 0)
(0.000813501 0.000137879 0)
(0.000667885 0.000140448 0)
(0.000519839 0.000142524 0)
(0.000369885 0.000144093 0)
(0.000218573 0.000145145 0)
(6.65327e-05 0.000145666 0)
(-8.61393e-05 0.000145658 0)
(-0.000238109 0.000145119 0)
(-0.00038939 0.000144048 0)
(-0.000539292 0.000142459 0)
(-0.000687267 0.000140362 0)
(-0.000832791 0.000137772 0)
(-0.000975357 0.000134706 0)
(-0.00111447 0.000131183 0)
(-0.00124968 0.000127226 0)
(-0.00138052 0.000122861 0)
(-0.00150659 0.000118113 0)
(-0.00162751 0.000113012 0)
(-0.00174291 0.000107587 0)
(-0.00185247 0.00010187 0)
(-0.00195591 9.58929e-05 0)
(-0.00205297 8.96874e-05 0)
(-0.00214342 8.32863e-05 0)
(-0.00222707 7.67217e-05 0)
(-0.00230378 7.00257e-05 0)
(-0.00237342 6.32292e-05 0)
(-0.0024359 5.63627e-05 0)
(-0.00249116 4.9455e-05 0)
(-0.00253918 4.25343e-05 0)
(-0.00257995 3.56266e-05 0)
(-0.00261351 2.87571e-05 0)
(-0.0026399 2.19489e-05 0)
(-0.0026592 1.52246e-05 0)
(-0.00267151 8.60582e-06 0)
(-0.00267691 2.11101e-06 0)
(-0.00267557 -4.24842e-06 0)
(-0.00266768 -1.0464e-05 0)
(-0.00265337 -1.65201e-05 0)
(-0.00263282 -2.24049e-05 0)
(-0.00260621 -2.81085e-05 0)
(-0.00257374 -3.36223e-05 0)
(-0.00253562 -3.89396e-05 0)
(-0.00249204 -4.40549e-05 0)
(-0.00244324 -4.89643e-05 0)
(-0.00238942 -5.36647e-05 0)
(-0.0023308 -5.81545e-05 0)
(-0.00226762 -6.24328e-05 0)
(-0.00220009 -6.64997e-05 0)
(-0.00212844 -7.03559e-05 0)
(-0.00205287 -7.40033e-05 0)
(-0.00197362 -7.74436e-05 0)
(-0.00189089 -8.06798e-05 0)
(-0.00180491 -8.37146e-05 0)
(-0.00171587 -8.65514e-05 0)
(-0.00162398 -8.91938e-05 0)
(-0.00152945 -9.16454e-05 0)
(-0.00143246 -9.391e-05 0)
(-0.00133322 -9.59915e-05 0)
(-0.00123192 -9.78933e-05 0)
(-0.00112873 -9.96191e-05 0)
(-0.00102384 -0.000101172 0)
(-0.000917426 -0.000102555 0)
(-0.000809668 -0.000103771 0)
(-0.000700739 -0.00010482 0)
(-0.00059081 -0.000105703 0)
(-0.000480042 -0.000106415 0)
(-0.000368603 -0.000106949 0)
(-0.000256726 -0.00010723 0)
(-0.000146088 -0.000106076 0)
(-4.15178e-05 -8.82183e-05 0)
(4.03904e-05 -0.000275592 0)
(0.000155545 -0.000339315 0)
(0.000272624 -0.000343445 0)
(0.000391634 -0.000342471 0)
(0.00051013 -0.000340694 0)
(0.000627847 -0.000338384 0)
(0.000744659 -0.000335557 0)
(0.000860405 -0.000332211 0)
(0.000974913 -0.000328341 0)
(0.001088 -0.00032394 0)
(0.0011995 -0.000318999 0)
(0.00130921 -0.000313507 0)
(0.00141694 -0.000307454 0)
(0.00152251 -0.000300827 0)
(0.00162571 -0.000293614 0)
(0.00172633 -0.000285802 0)
(0.00182418 -0.00027738 0)
(0.00191903 -0.000268334 0)
(0.00201067 -0.000258652 0)
(0.00209887 -0.000248324 0)
(0.00218342 -0.000237339 0)
(0.00226407 -0.000225688 0)
(0.00234061 -0.000213362 0)
(0.00241278 -0.000200357 0)
(0.00248036 -0.000186668 0)
(0.00254311 -0.000172295 0)
(0.00260078 -0.000157238 0)
(0.00265313 -0.000141502 0)
(0.00269994 -0.000125095 0)
(0.00274096 -0.000108029 0)
(0.00277597 -9.03202e-05 0)
(0.00280474 -7.19888e-05 0)
(0.00282706 -5.30606e-05 0)
(0.00284272 -3.35654e-05 0)
(0.00285152 -1.35394e-05 0)
(0.00285331 6.97743e-06 0)
(0.00284788 2.79403e-05 0)
(0.00283505 4.93021e-05 0)
(0.00281472 7.10008e-05 0)
(0.00278678 9.29708e-05 0)
(0.00275114 0.000115141 0)
(0.00270775 0.000137438 0)
(0.00265656 0.000159778 0)
(0.00259757 0.000182079 0)
(0.00253081 0.000204248 0)
(0.00245633 0.000226192 0)
(0.00237422 0.000247813 0)
(0.0022846 0.00026901 0)
(0.00218765 0.000289679 0)
(0.00208355 0.000309715 0)
(0.00197254 0.000329014 0)
(0.0018549 0.00034747 0)
(0.00173094 0.000364979 0)
(0.00160101 0.000381442 0)
(0.00146548 0.00039676 0)
(0.00132478 0.000410841 0)
(0.00117935 0.000423597 0)
(0.00102968 0.000434948 0)
(0.000876276 0.000444821 0)
(0.000719661 0.00045315 0)
(0.000560393 0.000459883 0)
(0.000399042 0.000464972 0)
(0.000236204 0.000468383 0)
(7.25712e-05 0.00047009 0)
(-9.17762e-05 0.000470063 0)
(-0.000255327 0.000468303 0)
(-0.000418124 0.000464835 0)
(-0.00057941 0.000459688 0)
(-0.000738591 0.000452896 0)
(-0.000895096 0.000444505 0)
(-0.00104837 0.000434571 0)
(-0.00119789 0.000423159 0)
(-0.00134314 0.000410342 0)
(-0.00148364 0.000396202 0)
(-0.00161895 0.000380825 0)
(-0.00174865 0.000364305 0)
(-0.00187235 0.000346741 0)
(-0.00198972 0.000328233 0)
(-0.00210043 0.000308885 0)
(-0.00220422 0.000288802 0)
(-0.00230086 0.000268091 0)
(-0.00239013 0.000246855 0)
(-0.0024719 0.000225199 0)
(-0.00254602 0.000203223 0)
(-0.00261241 0.000181026 0)
(-0.00267102 0.000158702 0)
(-0.00272182 0.000136342 0)
(-0.00276483 0.00011403 0)
(-0.00280007 9.18482e-05 0)
(-0.00282761 6.98704e-05 0)
(-0.00284755 4.81681e-05 0)
(-0.00285997 2.68063e-05 0)
(-0.002865 5.84732e-06 0)
(-0.00286281 -1.46635e-05 0)
(-0.00285362 -3.46848e-05 0)
(-0.00283757 -5.41764e-05 0)
(-0.00281487 -7.31014e-05 0)
(-0.00278571 -9.14299e-05 0)
(-0.00275033 -0.000109135 0)
(-0.00270893 -0.000126198 0)
(-0.00266175 -0.000142601 0)
(-0.00260903 -0.000158333 0)
(-0.00255099 -0.000173385 0)
(-0.00248789 -0.000187754 0)
(-0.00241996 -0.000201437 0)
(-0.00234744 -0.000214437 0)
(-0.00227057 -0.000226755 0)
(-0.00218957 -0.0002384 0)
(-0.0021047 -0.000249377 0)
(-0.00201616 -0.000259698 0)
(-0.0019242 -0.000269372 0)
(-0.00182903 -0.00027841 0)
(-0.00173088 -0.000286824 0)
(-0.00162994 -0.000294628 0)
(-0.00152644 -0.000301833 0)
(-0.00142057 -0.000308453 0)
(-0.00131254 -0.0003145 0)
(-0.00120253 -0.000319985 0)
(-0.00109074 -0.000324921 0)
(-0.000977363 -0.000329316 0)
(-0.000862568 -0.000333182 0)
(-0.000746537 -0.000336524 0)
(-0.00062944 -0.000339349 0)
(-0.00051143 -0.000341658 0)
(-0.000392642 -0.000343437 0)
(-0.000273392 -0.000344412 0)
(-0.000156027 -0.000340268 0)
(-4.05891e-05 -0.000276511 0)
(4.1054e-05 -0.000466786 0)
(0.000157785 -0.000575066 0)
(0.000276013 -0.000581879 0)
(0.000396363 -0.000580083 0)
(0.000516276 -0.000577015 0)
(0.000635446 -0.000573097 0)
(0.000753737 -0.000568337 0)
(0.000870984 -0.000562721 0)
(0.000987015 -0.000556235 0)
(0.00110165 -0.000548861 0)
(0.00121472 -0.000540583 0)
(0.00132603 -0.000531381 0)
(0.0014354 -0.000521236 0)
(0.00154263 -0.000510126 0)
(0.00164752 -0.00049803 0)
(0.00174988 -0.000484924 0)
(0.00184948 -0.000470787 0)
(0.00194612 -0.000455597 0)
(0.00203957 -0.000439332 0)
(0.00212962 -0.000421972 0)
(0.00221603 -0.000403498 0)
(0.00229857 -0.000383893 0)
(0.00237701 -0.000363143 0)
(0.00245109 -0.000341236 0)
(0.00252059 -0.000318165 0)
(0.00258524 -0.000293925 0)
(0.00264481 -0.000268518 0)
(0.00269904 -0.000241949 0)
(0.00274769 -0.000214231 0)
(0.00279051 -0.000185381 0)
(0.00282726 -0.000155425 0)
(0.00285771 -0.000124395 0)
(0.00288163 -9.23332e-05 0)
(0.00289879 -5.92884e-05 0)
(0.00290899 -2.53201e-05 0)
(0.00291205 9.50076e-06 0)
(0.00290778 4.51044e-05 0)
(0.00289596 8.13972e-05 0)
(0.00287646 0.000118283 0)
(0.00284915 0.000155653 0)
(0.00281395 0.00019339 0)
(0.00277078 0.000231365 0)
(0.00271957 0.000269442 0)
(0.00266032 0.000307473 0)
(0.00259304 0.000345304 0)
(0.00251777 0.000382774 0)
(0.00243459 0.000419712 0)
(0.00234362 0.000455946 0)
(0.00224502 0.000491297 0)
(0.00213898 0.000525583 0)
(0.00202574 0.000558623 0)
(0.00190558 0.000590236 0)
(0.0017788 0.00062024 0)
(0.00164578 0.000648462 0)
(0.00150689 0.000674732 0)
(0.00136258 0.000698887 0)
(0.00121331 0.000720777 0)
(0.00105958 0.00074026 0)
(0.000901924 0.000757209 0)
(0.000740889 0.000771513 0)
(0.000577061 0.000783075 0)
(0.000411038 0.000791817 0)
(0.000243448 0.000797678 0)
(7.50231e-05 0.000800614 0)
(-9.41596e-05 0.000800564 0)
(-0.000262502 0.000797529 0)
(-0.000430052 0.000791566 0)
(-0.000596011 0.00078272 0)
(-0.000759753 0.000771052 0)
(-0.000920678 0.00075664 0)
(-0.00107821 0.000739583 0)
(-0.00123178 0.000719992 0)
(-0.00138088 0.000697996 0)
(-0.00152499 0.000673736 0)
(-0.00166366 0.000647365 0)
(-0.00179644 0.000619044 0)
(-0.00192296 0.000588945 0)
(-0.00204285 0.000557243 0)
(-0.0021558 0.000524118 0)
(-0.00226153 0.000489752 0)
(-0.0023598 0.000454329 0)
(-0.00245043 0.000418028 0)
(-0.00253326 0.00038103 0)
(-0.00260817 0.000343508 0)
(-0.00267508 0.000305631 0)
(-0.00273395 0.000267561 0)
(-0.00278477 0.000229453 0)
(-0.00282755 0.000191452 0)
(-0.00286236 0.000153698 0)
(-0.00288926 0.000116316 0)
(-0.00290837 7.94267e-05 0)
(-0.00291979 4.3136e-05 0)
(-0.00292365 7.54082e-06 0)
(-0.00292018 -2.72688e-05 0)
(-0.00290958 -6.12252e-05 0)
(-0.00289202 -9.42579e-05 0)
(-0.00286772 -0.000126307 0)
(-0.00283688 -0.000157324 0)
(-0.00279974 -0.000187266 0)
(-0.00275654 -0.000216102 0)
(-0.00270752 -0.000243806 0)
(-0.00265292 -0.000270359 0)
(-0.002593 -0.00029575 0)
(-0.00252799 -0.000319972 0)
(-0.00245814 -0.000343026 0)
(-0.00238371 -0.000364915 0)
(-0.00230494 -0.000385646 0)
(-0.00222206 -0.000405232 0)
(-0.00213532 -0.000423687 0)
(-0.00204495 -0.000441029 0)
(-0.00195117 -0.000457275 0)
(-0.00185422 -0.000472448 0)
(-0.00175431 -0.000486567 0)
(-0.00165165 -0.000499655 0)
(-0.00154646 -0.000511736 0)
(-0.00143894 -0.000522831 0)
(-0.00132928 -0.000532962 0)
(-0.00121768 -0.00054215 0)
(-0.00110432 -0.000550416 0)
(-0.0009894 -0.000557779 0)
(-0.000873088 -0.000564256 0)
(-0.000755563 -0.000569864 0)
(-0.000636994 -0.000574618 0)
(-0.000517536 -0.00057853 0)
(-0.00039734 -0.000581595 0)
(-0.000276759 -0.000583386 0)
(-0.000158251 -0.000576556 0)
(-4.12578e-05 -0.000468285 0)
(4.17537e-05 -0.000661788 0)
(0.000160419 -0.000815112 0)
(0.000280542 -0.000824839 0)
(0.000402842 -0.000822359 0)
(0.00052473 -0.000818077 0)
(0.000645906 -0.000812606 0)
(0.000766233 -0.000805959 0)
(0.000885552 -0.000798119 0)
(0.00100369 -0.000789063 0)
(0.00112049 -0.000778767 0)
(0.00123575 -0.000767206 0)
(0.00134931 -0.00075435 0)
(0.00146098 -0.00074017 0)
(0.00157056 -0.000724635 0)
(0.00167786 -0.000707711 0)
(0.00178267 -0.000689365 0)
(0.00188478 -0.000669565 0)
(0.00198399 -0.000648275 0)
(0.00208007 -0.000625465 0)
(0.00217278 -0.000601103 0)
(0.00226191 -0.000575158 0)
(0.0023472 -0.000547606 0)
(0.00242842 -0.000518423 0)
(0.00250532 -0.000487588 0)
(0.00257764 -0.000455089 0)
(0.00264512 -0.000420916 0)
(0.00270751 -0.000385068 0)
(0.00276455 -0.000347549 0)
(0.00281597 -0.000308372 0)
(0.00286151 -0.000267561 0)
(0.00290091 -0.000225147 0)
(0.00293393 -0.000181174 0)
(0.0029603 -0.000135695 0)
(0.00297978 -8.87769e-05 0)
(0.00299215 -4.04985e-05 0)
(0.00299722 9.0462e-06 0)
(0.00299477 5.96992e-05 0)
(0.00298452 0.000111395 0)
(0.00296634 0.000163991 0)
(0.0029401 0.000217329 0)
(0.00290566 0.000271241 0)
(0.00286292 0.000325544 0)
(0.00281182 0.000380041 0)
(0.0027523 0.000434522 0)
(0.00268436 0.000488763 0)
(0.00260804 0.000542531 0)
(0.00252338 0.000595581 0)
(0.00243051 0.000647661 0)
(0.00232957 0.000698511 0)
(0.00222074 0.000747867 0)
(0.00210427 0.000795463 0)
(0.00198044 0.000841034 0)
(0.00184956 0.000884315 0)
(0.00171201 0.000925049 0)
(0.0015682 0.000962987 0)
(0.00141857 0.00099789 0)
(0.00126363 0.00102953 0)
(0.0011039 0.00105771 0)
(0.000939945 0.00108224 0)
(0.000772361 0.00110294 0)
(0.000601768 0.00111968 0)
(0.000428811 0.00113234 0)
(0.000254165 0.00114083 0)
(7.8622e-05 0.00114509 0)
(-9.77457e-05 0.00114501 0)
(-0.000273203 0.00114062 0)
(-0.00044781 0.00113198 0)
(-0.000620703 0.00111917 0)
(-0.000791209 0.00110228 0)
(-0.000958684 0.00108143 0)
(-0.00112251 0.00105675 0)
(-0.00128208 0.00102842 0)
(-0.00143685 0.000996623 0)
(-0.00158627 0.000961572 0)
(-0.00172987 0.00092349 0)
(-0.00186718 0.000882617 0)
(-0.00199779 0.000839202 0)
(-0.00212135 0.000793505 0)
(-0.00223752 0.00074579 0)
(-0.00234603 0.000696322 0)
(-0.00244664 0.00064537 0)
(-0.00253917 0.000593196 0)
(-0.00262347 0.000540063 0)
(-0.00269943 0.000486221 0)
(-0.00276699 0.000431915 0)
(-0.00282613 0.000377381 0)
(-0.00287684 0.00032284 0)
(-0.00291918 0.000268503 0)
(-0.00295322 0.000214567 0)
(-0.00297905 0.000161214 0)
(-0.00299682 0.000108614 0)
(-0.00300667 5.69218e-05 0)
(-0.00300872 6.28124e-06 0)
(-0.00300324 -4.32493e-05 0)
(-0.00299047 -9.15112e-05 0)
(-0.00297059 -0.000138411 0)
(-0.00294382 -0.00018387 0)
(-0.00291042 -0.000227822 0)
(-0.00287063 -0.000270213 0)
(-0.0028247 -0.000310999 0)
(-0.00277291 -0.00035015 0)
(-0.0027155 -0.000387643 0)
(-0.00265275 -0.000423464 0)
(-0.00258491 -0.000457608 0)
(-0.00251224 -0.000490078 0)
(-0.002435 -0.000520883 0)
(-0.00235344 -0.000550036 0)
(-0.00226781 -0.000577558 0)
(-0.00217836 -0.000603473 0)
(-0.00208533 -0.000627805 0)
(-0.00198893 -0.000650587 0)
(-0.00188942 -0.000671847 0)
(-0.001787 -0.000691621 0)
(-0.00168189 -0.00070994 0)
(-0.00157429 -0.000726839 0)
(-0.00146442 -0.000742351 0)
(-0.00135247 -0.000756509 0)
(-0.00123863 -0.000769345 0)
(-0.00112308 -0.000780888 0)
(-0.00100601 -0.000791168 0)
(-0.000887595 -0.00080021 0)
(-0.000768003 -0.000808039 0)
(-0.000647404 -0.000814677 0)
(-0.000525947 -0.000820142 0)
(-0.000403781 -0.000824419 0)
(-0.000281259 -0.000826895 0)
(-0.00016086 -0.000817146 0)
(-4.19536e-05 -0.000663847 0)
(4.2657e-05 -0.00086052 0)
(0.000163826 -0.00105958 0)
(0.000286487 -0.00107228 0)
(0.00041139 -0.00106915 0)
(0.000535905 -0.00106371 0)
(0.000659739 -0.00105676 0)
(0.000782766 -0.0010483 0)
(0.000904833 -0.00103832 0)
(0.00102578 -0.00102679 0)
(0.00114543 -0.00101368 0)
(0.00126362 -0.000998946 0)
(0.00138017 -0.000982556 0)
(0.00149489 -0.000964467 0)
(0.00160761 -0.000944636 0)
(0.00171813 -0.000923018 0)
(0.00182623 -0.000899566 0)
(0.00193172 -0.000874234 0)
(0.00203438 -0.000846976 0)
(0.00213399 -0.000817745 0)
(0.0022303 -0.000786496 0)
(0.0023231 -0.000753188 0)
(0.00241212 -0.000717781 0)
(0.00249712 -0.00068024 0)
(0.00257783 -0.000640536 0)
(0.002654 -0.000598643 0)
(0.00272535 -0.000554546 0)
(0.00279161 -0.000508236 0)
(0.0028525 -0.000459714 0)
(0.00290773 -0.00040899 0)
(0.00295702 -0.00035609 0)
(0.0030001 -0.000301048 0)
(0.00303667 -0.000243916 0)
(0.00306647 -0.000184757 0)
(0.00308923 -0.000123655 0)
(0.00310468 -6.07058e-05 0)
(0.00311251 3.97301e-06 0)
(0.00311256 7.01861e-05 0)
(0.00310463 0.000137844 0)
(0.00308841 0.000206763 0)
(0.00306374 0.000276739 0)
(0.00303047 0.000347554 0)
(0.00298846 0.000418967 0)
(0.00293761 0.00049072 0)
(0.00287785 0.000562534 0)
(0.00280914 0.000634115 0)
(0.00273149 0.000705151 0)
(0.00264493 0.000775316 0)
(0.00254956 0.000844272 0)
(0.00244551 0.000911669 0)
(0.00233296 0.000977152 0)
(0.00221215 0.00104036 0)
(0.00208335 0.00110093 0)
(0.0019469 0.00115851 0)
(0.00180318 0.00121275 0)
(0.00165263 0.0012633 0)
(0.00149572 0.00130984 0)
(0.001333 0.00135207 0)
(0.00116502 0.00138969 0)
(0.000992396 0.00142245 0)
(0.000815785 0.00145011 0)
(0.000635861 0.00147249 0)
(0.000453331 0.00148943 0)
(0.000268938 0.00150079 0)
(8.35606e-05 0.00150649 0)
(-0.000102739 0.0015064 0)
(-0.000288027 0.00150051 0)
(-0.00047238 0.00148896 0)
(-0.000654844 0.00147183 0)
(-0.00083468 0.00144926 0)
(-0.00101118 0.00142139 0)
(-0.00118366 0.00138843 0)
(-0.00135148 0.00135061 0)
(-0.00151403 0.0013082 0)
(-0.00167073 0.00126146 0)
(-0.00182105 0.00121072 0)
(-0.00196452 0.00115631 0)
(-0.0021007 0.00109855 0)
(-0.00222921 0.00103782 0)
(-0.00234972 0.000974453 0)
(-0.00246195 0.000908827 0)
(-0.00256566 0.000841298 0)
(-0.00266068 0.000772222 0)
(-0.00274687 0.00070195 0)
(-0.00282415 0.000630819 0)
(-0.00289248 0.000559156 0)
(-0.00295184 0.000487272 0)
(-0.00300229 0.000415463 0)
(-0.00304389 0.000344007 0)
(-0.00307675 0.000273161 0)
(-0.00310101 0.000203164 0)
(-0.00311681 0.000134236 0)
(-0.00312433 6.65796e-05 0)
(-0.00312388 3.76466e-07 0)
(-0.00311563 -6.42775e-05 0)
(-0.00309977 -0.0001272 0)
(-0.00307661 -0.000188275 0)
(-0.00304641 -0.000247403 0)
(-0.00300944 -0.000304504 0)
(-0.00296598 -0.000359512 0)
(-0.0029163 -0.000412377 0)
(-0.00286069 -0.000463063 0)
(-0.00279944 -0.000511547 0)
(-0.00273282 -0.000557817 0)
(-0.00266111 -0.000601872 0)
(-0.00258459 -0.000643723 0)
(-0.00250353 -0.000683385 0)
(-0.0024182 -0.000720883 0)
(-0.00232884 -0.000756247 0)
(-0.00223573 -0.000789513 0)
(-0.0021391 -0.00082072 0)
(-0.00203918 -0.00084991 0)
(-0.00193622 -0.000877129 0)
(-0.00183043 -0.000902422 0)
(-0.00172203 -0.000925837 0)
(-0.00161123 -0.000947421 0)
(-0.00149822 -0.00096722 0)
(-0.00138322 -0.000985279 0)
(-0.00126639 -0.00100164 0)
(-0.00114793 -0.00101635 0)
(-0.00102801 -0.00102944 0)
(-0.000906798 -0.00104095 0)
(-0.000784468 -0.00105092 0)
(-0.000661178 -0.00105936 0)
(-0.00053707 -0.00106631 0)
(-0.000412287 -0.00107175 0)
(-0.000287173 -0.00107487 0)
(-0.000164243 -0.00106214 0)
(-4.28524e-05 -0.000863106 0)
(4.37651e-05 -0.00106394 0)
(0.000168011 -0.00130973 0)
(0.0002938 -0.0013255 0)
(0.000421914 -0.00132178 0)
(0.000549673 -0.00131525 0)
(0.000676794 -0.00130689 0)
(0.000803159 -0.00129673 0)
(0.000928624 -0.00128473 0)
(0.00105303 -0.00127086 0)
(0.00117623 -0.00125507 0)
(0.00129805 -0.00123732 0)
(0.00141832 -0.00121756 0)
(0.00153687 -0.00119573 0)
(0.00165351 -0.00117178 0)
(0.00176805 -0.00114566 0)
(0.00188028 -0.00111728 0)
(0.00199001 -0.00108661 0)
(0.00209702 -0.00105356 0)
(0.00220107 -0.00101809 0)
(0.00230194 -0.000980119 0)
(0.00239939 -0.000939602 0)
(0.00249314 -0.000896478 0)
(0.00258296 -0.000850699 0)
(0.00266855 -0.000802217 0)
(0.00274966 -0.000750996 0)
(0.00282597 -0.000697006 0)
(0.00289721 -0.000640228 0)
(0.00296307 -0.000580654 0)
(0.00302324 -0.000518288 0)
(0.00307742 -0.00045315 0)
(0.00312528 -0.000385276 0)
(0.00316652 -0.00031472 0)
(0.00320082 -0.000241555 0)
(0.00322788 -0.000165875 0)
(0.00324739 -8.77992e-05 0)
(0.00325903 -7.47094e-06 0)
(0.00326256 7.49514e-05 0)
(0.00325773 0.000159301 0)
(0.0032442 0.000245348 0)
(0.00322174 0.000332843 0)
(0.00319017 0.000421516 0)
(0.00314931 0.000511072 0)
(0.003099 0.000601188 0)
(0.00303914 0.000691515 0)
(0.00296964 0.000781679 0)
(0.00289048 0.000871284 0)
(0.00280166 0.000959913 0)
(0.00270324 0.00104713 0)
(0.00259535 0.0011325 0)
(0.00247814 0.00121554 0)
(0.00235185 0.00129579 0)
(0.00221675 0.00137279 0)
(0.00207319 0.00144607 0)
(0.00192158 0.00151516 0)
(0.00176236 0.00157963 0)
(0.00159607 0.00163903 0)
(0.00142327 0.00169296 0)
(0.0012446 0.00174105 0)
(0.00106073 0.00178296 0)
(0.000872379 0.00181837 0)
(0.000680304 0.00184703 0)
(0.000485298 0.00186872 0)
(0.000288193 0.00188329 0)
(8.99835e-05 0.0018906 0)
(-0.000109281 0.00189049 0)
(-0.000307395 0.00188295 0)
(-0.000504459 0.00186815 0)
(-0.000699397 0.00184621 0)
(-0.000891379 0.00181731 0)
(-0.00107961 0.00178165 0)
(-0.00126334 0.0017395 0)
(-0.00144185 0.00169116 0)
(-0.00161445 0.00163698 0)
(-0.00178053 0.00157734 0)
(-0.00193951 0.00151265 0)
(-0.00209086 0.00144333 0)
(-0.00223414 0.00136984 0)
(-0.00236894 0.00129264 0)
(-0.00249491 0.0012122 0)
(-0.00261178 0.00112898 0)
(-0.00271932 0.00104346 0)
(-0.00281737 0.000956088 0)
(-0.00290581 0.000867327 0)
(-0.00298458 0.000777607 0)
(-0.00305368 0.000687344 0)
(-0.00311314 0.000596934 0)
(-0.00316303 0.00050675 0)
(-0.00320347 0.000417142 0)
(-0.00323462 0.000328431 0)
(-0.00325665 0.000240912 0)
(-0.00326977 0.000154854 0)
(-0.00327417 7.05057e-05 0)
(-0.00327022 -1.19007e-05 0)
(-0.00325815 -9.21962e-05 0)
(-0.00323823 -0.000170238 0)
(-0.00321077 -0.00024588 0)
(-0.00317606 -0.000319006 0)
(-0.00313442 -0.000389519 0)
(-0.00308617 -0.000457347 0)
(-0.00303161 -0.000522437 0)
(-0.00297106 -0.000584752 0)
(-0.00290483 -0.000644275 0)
(-0.00283323 -0.000700999 0)
(-0.00275655 -0.000754933 0)
(-0.0026751 -0.000806098 0)
(-0.00258917 -0.000854523 0)
(-0.00249902 -0.000900246 0)
(-0.00240494 -0.000943312 0)
(-0.00230718 -0.000983774 0)
(-0.002206 -0.00102169 0)
(-0.00210164 -0.00105711 0)
(-0.00199433 -0.0010901 0)
(-0.00188431 -0.00112073 0)
(-0.00177179 -0.00114905 0)
(-0.00165697 -0.00117514 0)
(-0.00154006 -0.00119904 0)
(-0.00142124 -0.00122083 0)
(-0.0013007 -0.00124055 0)
(-0.00117862 -0.00125827 0)
(-0.00105516 -0.00127403 0)
(-0.000930497 -0.00128789 0)
(-0.00080478 -0.00129987 0)
(-0.000678162 -0.00131002 0)
(-0.00055078 -0.00131837 0)
(-0.000422763 -0.0013249 0)
(-0.000294451 -0.00132861 0)
(-0.000168404 -0.0013128 0)
(-4.39558e-05 -0.00106701 0)
(4.50696e-05 -0.00127298 0)
(0.00017293 -0.00156671 0)
(0.000302396 -0.00158569 0)
(0.000434288 -0.00158145 0)
(0.000565868 -0.00157391 0)
(0.000696862 -0.00156425 0)
(0.000827166 -0.00155251 0)
(0.000956648 -0.00153863 0)
(0.00108516 -0.00152258 0)
(0.00121257 -0.0015043 0)
(0.0013387 -0.00148374 0)
(0.0014634 -0.00146082 0)
(0.0015865 -0.00143549 0)
(0.00170783 -0.00140766 0)
(0.00182719 -0.00137726 0)
(0.00194439 -0.00134422 0)
(0.00205923 -0.00130845 0)
(0.00217148 -0.00126987 0)
(0.00228093 -0.00122839 0)
(0.00238733 -0.00118394 0)
(0.00249043 -0.00113643 0)
(0.00258997 -0.00108579 0)
(0.00268568 -0.00103195 0)
(0.00277728 -0.000974837 0)
(0.00286446 -0.000914402 0)
(0.00294693 -0.000850594 0)
(0.00302435 -0.000783376 0)
(0.00309641 -0.000712725 0)
(0.00316276 -0.000638633 0)
(0.00322306 -0.000561111 0)
(0.00327697 -0.000480185 0)
(0.00332412 -0.000395907 0)
(0.00336415 -0.000308351 0)
(0.00339672 -0.000217617 0)
(0.00342146 -0.000123833 0)
(0.00343802 -2.71603e-05 0)
(0.00344615 7.22034e-05 0)
(0.00344551 0.000174089 0)
(0.00343558 0.000278219 0)
(0.00341616 0.000384301 0)
(0.00338701 0.000492014 0)
(0.00334788 0.000601002 0)
(0.00329856 0.000710872 0)
(0.00323889 0.000821201 0)
(0.00316873 0.000931528 0)
(0.003088 0.00104136 0)
(0.00299667 0.00115019 0)
(0.00289475 0.00125747 0)
(0.00278233 0.00136262 0)
(0.00265956 0.00146509 0)
(0.00252665 0.00156426 0)
(0.00238388 0.00165955 0)
(0.0022316 0.00175035 0)
(0.00207023 0.00183608 0)
(0.00190028 0.00191616 0)
(0.00172231 0.00199003 0)
(0.00153694 0.00205718 0)
(0.00134488 0.0021171 0)
(0.00114689 0.00216936 0)
(0.000943767 0.00221355 0)
(0.000736387 0.00224935 0)
(0.000525645 0.00227645 0)
(0.000312495 0.00229466 0)
(9.80837e-05 0.00230381 0)
(-0.000117563 0.00230368 0)
(-0.000331871 0.00229425 0)
(-0.000544978 0.00227576 0)
(-0.000755647 0.00224836 0)
(-0.000962929 0.00221228 0)
(-0.00116592 0.00216778 0)
(-0.00136377 0.00211523 0)
(-0.00155565 0.00205501 0)
(-0.00174081 0.00198757 0)
(-0.00191856 0.00191341 0)
(-0.00208826 0.00183305 0)
(-0.00224934 0.00174706 0)
(-0.00240132 0.001656 0)
(-0.00254377 0.00156047 0)
(-0.00267635 0.00146107 0)
(-0.00279876 0.0013584 0)
(-0.00291081 0.00125305 0)
(-0.00301234 0.0011456 0)
(-0.00310327 0.00103662 0)
(-0.00318359 0.000926649 0)
(-0.00325333 0.000816207 0)
(-0.00331258 0.000705782 0)
(-0.00336146 0.000595834 0)
(-0.00340015 0.000486788 0)
(-0.00342887 0.000379035 0)
(-0.00344786 0.000272929 0)
(-0.00345735 0.000168791 0)
(-0.00345756 6.69107e-05 0)
(-0.00344898 -3.24254e-05 0)
(-0.00343199 -0.000129062 0)
(-0.00340683 -0.000222804 0)
(-0.00337385 -0.000313492 0)
(-0.00333341 -0.000400997 0)
(-0.00328586 -0.00048522 0)
(-0.00323156 -0.000566086 0)
(-0.00317087 -0.000643546 0)
(-0.00310414 -0.000717573 0)
(-0.00303171 -0.000788156 0)
(-0.00295392 -0.000855304 0)
(-0.00287111 -0.000919041 0)
(-0.00278358 -0.000979404 0)
(-0.00269165 -0.00103644 0)
(-0.00259561 -0.00109021 0)
(-0.00249574 -0.00114078 0)
(-0.00239233 -0.00118821 0)
(-0.00228562 -0.0012326 0)
(-0.00217588 -0.00127401 0)
(-0.00206334 -0.00131252 0)
(-0.00194822 -0.00134823 0)
(-0.00183074 -0.00138122 0)
(-0.00171111 -0.00141156 0)
(-0.00158952 -0.00143933 0)
(-0.00146616 -0.00146462 0)
(-0.0013412 -0.00148749 0)
(-0.00121482 -0.00150802 0)
(-0.00108717 -0.00152627 0)
(-0.000958413 -0.00154229 0)
(-0.000828692 -0.00155614 0)
(-0.000698149 -0.00156787 0)
(-0.000566907 -0.00157752 0)
(-0.000435083 -0.00158505 0)
(-0.000303008 -0.00158929 0)
(-0.000173298 -0.00157026 0)
(-4.5255e-05 -0.00127651 0)
(4.65549e-05 -0.00148851 0)
(0.000178519 -0.00183157 0)
(0.000312162 -0.00185391 0)
(0.000448348 -0.00184923 0)
(0.000584274 -0.00184079 0)
(0.00071968 -0.00182998 0)
(0.000854478 -0.00181681 0)
(0.000988551 -0.00180125 0)
(0.00112177 -0.00178323 0)
(0.00125399 -0.0017627 0)
(0.00138509 -0.00173957 0)
(0.0015149 -0.00171377 0)
(0.00164327 -0.00168521 0)
(0.00177002 -0.00165381 0)
(0.00189499 -0.00161946 0)
(0.00201798 -0.00158207 0)
(0.00213879 -0.00154153 0)
(0.0022572 -0.00149774 0)
(0.00237299 -0.00145058 0)
(0.00248592 -0.00139996 0)
(0.00259573 -0.00134577 0)
(0.00270215 -0.00128789 0)
(0.00280491 -0.00122625 0)
(0.00290369 -0.00116073 0)
(0.00299818 -0.00109127 0)
(0.00308806 -0.00101779 0)
(0.00317298 -0.000940216 0)
(0.00325257 -0.000858515 0)
(0.00332648 -0.000772655 0)
(0.00339432 -0.000682627 0)
(0.00345568 -0.000588442 0)
(0.00351017 -0.00049014 0)
(0.00355738 -0.000387786 0)
(0.00359688 -0.000281475 0)
(0.00362825 -0.000171337 0)
(0.00365107 -5.75375e-05 0)
(0.00366509 5.96968e-05 0)
(0.00366988 0.000180077 0)
(0.00366474 0.000303399 0)
(0.00364944 0.000429337 0)
(0.00362368 0.000557507 0)
(0.00358712 0.000687486 0)
(0.00353949 0.000818812 0)
(0.00348052 0.000950973 0)
(0.00341003 0.00108342 0)
(0.00332785 0.00121555 0)
(0.0032339 0.00134674 0)
(0.00312813 0.00147632 0)
(0.0030106 0.00160359 0)
(0.0028814 0.00172783 0)
(0.00274074 0.0018483 0)
(0.00258888 0.00196425 0)
(0.00242618 0.00207492 0)
(0.00225309 0.00217958 0)
(0.00207014 0.00227747 0)
(0.00187795 0.00236791 0)
(0.00167723 0.00245021 0)
(0.00146876 0.00252374 0)
(0.0012534 0.00258792 0)
(0.00103208 0.00264226 0)
(0.000805804 0.00268629 0)
(0.000575603 0.00271967 0)
(0.00034259 0.0027421 0)
(0.000108115 0.00275339 0)
(-0.000127837 0.00275322 0)
(-0.000362198 0.00274162 0)
(-0.000595164 0.00271885 0)
(-0.000825286 0.00268513 0)
(-0.00105146 0.00264075 0)
(-0.00127264 0.00258606 0)
(-0.00148783 0.00252152 0)
(-0.00169611 0.00244764 0)
(-0.00189661 0.002365 0)
(-0.00208855 0.00227423 0)
(-0.00227123 0.002176 0)
(-0.00244402 0.00207103 0)
(-0.0026064 0.00196006 0)
(-0.00275791 0.00184383 0)
(-0.00289821 0.00172309 0)
(-0.00302702 0.00159861 0)
(-0.00314416 0.00147112 0)
(-0.00324951 0.00134134 0)
(-0.00334304 0.00120998 0)
(-0.00342479 0.00107769 0)
(-0.00349484 0.000945115 0)
(-0.00355335 0.000812847 0)
(-0.00360053 0.000681438 0)
(-0.00363663 0.000551396 0)
(-0.00366194 0.000423185 0)
(-0.00367678 0.000297227 0)
(-0.00368148 0.000173908 0)
(-0.00367625 5.35482e-05 0)
(-0.00366177 -6.3656e-05 0)
(-0.0036385 -0.000177414 0)
(-0.0036067 -0.000287501 0)
(-0.00356678 -0.000393753 0)
(-0.00351917 -0.000496043 0)
(-0.00346427 -0.000594275 0)
(-0.00340251 -0.000688384 0)
(-0.00333428 -0.000778334 0)
(-0.00326 -0.000864111 0)
(-0.00318003 -0.000945726 0)
(-0.00309475 -0.00102321 0)
(-0.00300452 -0.00109661 0)
(-0.00290969 -0.00116598 0)
(-0.00281057 -0.0012314 0)
(-0.0027075 -0.00129296 0)
(-0.00260076 -0.00135074 0)
(-0.00249065 -0.00140485 0)
(-0.00237742 -0.00145539 0)
(-0.00226135 -0.00150246 0)
(-0.00214265 -0.00154617 0)
(-0.00202157 -0.00158663 0)
(-0.00189832 -0.00162395 0)
(-0.0017731 -0.00165823 0)
(-0.00164609 -0.00168957 0)
(-0.00151747 -0.00171807 0)
(-0.00138742 -0.00174382 0)
(-0.00125609 -0.0017669 0)
(-0.00112363 -0.00178739 0)
(-0.00099019 -0.00180537 0)
(-0.000855894 -0.00182091 0)
(-0.000720873 -0.00183406 0)
(-0.000585235 -0.00184486 0)
(-0.000449081 -0.00185329 0)
(-0.00031273 -0.00185797 0)
(-0.00017886 -0.00183557 0)
(-4.67341e-05 -0.00149245 0)
(4.82008e-05 -0.00171131 0)
(0.000184699 -0.00210525 0)
(0.000322955 -0.00213113 0)
(0.000463887 -0.00212611 0)
(0.000604625 -0.00211691 0)
(0.000744922 -0.0021051 0)
(0.00088471 -0.00209071 0)
(0.00102389 -0.00207369 0)
(0.00116235 -0.00205397 0)
(0.00129997 -0.00203146 0)
(0.00143663 -0.00200609 0)
(0.00157219 -0.00197775 0)
(0.00170649 -0.00194634 0)
(0.0018394 -0.00191174 0)
(0.00197074 -0.00187384 0)
(0.00210032 -0.00183252 0)
(0.00222796 -0.00178763 0)
(0.00235344 -0.00173905 0)
(0.00247654 -0.00168665 0)
(0.00259702 -0.00163027 0)
(0.00271462 -0.0015698 0)
(0.00282906 -0.00150508 0)
(0.00294005 -0.00143599 0)
(0.00304727 -0.0013624 0)