/*--------------------------------*- C++ -*----------------------------------*\
| =========                 |                                                 |
| \\      /  F ield         | OpenFOAM: The Open Source CFD Toolbox           |
|  \\    /   O peration     | Version:  2206                                  |
|   \\  /    A nd           | Website:  www.openfoam.com                      |
|    \\/     M anipulation  |                                                 |
\*---------------------------------------------------------------------------*/
FoamFile
{
    version     2.0;
    format      ascii;
    arch        "LSB;label=64;scalar=64";
    class       surfaceScalarField;
    location    "46800";
    object      phi;
}
// * * * * * * * * * * * * * * * * * * * * * * * * * * * * * * * * * * * * * //

dimensions      [0 3 -1 0 0 0 0];

oriented        oriented;

internalField   nonuniform List<scalar> 
24
(
1.3568e-10
-1.3568e-10
3.40985e-10
-2.05305e-10
3.16992e-10
2.39925e-11
3.16992e-10
3.94416e-11
-1.75122e-10
1.61417e-10
-3.27281e-10
2.00035e-10
-1.46255e-11
5.17028e-10
-6.48323e-11
-1.10289e-10
-1.69408e-10
-2.22705e-10
-1.43007e-10
-4.10268e-11
3.74021e-10
-1.10289e-10
-3.32994e-10
-3.74021e-10
)
;

boundaryField
{
    movingWall
    {
        type            calculated;
        value           uniform 0;
    }
    fixedWalls
    {
        type            calculated;
        value           uniform 0;
    }
    frontAndBack
    {
        type            empty;
        value           nonuniform List<scalar> 0();
    }
}


// ************************************************************************* //
