/*--------------------------------*- C++ -*----------------------------------*\
| =========                 |                                                 |
| \\      /  F ield         | OpenFOAM: The Open Source CFD Toolbox           |
|  \\    /   O peration     | Version:  2206                                  |
|   \\  /    A nd           | Website:  www.openfoam.com                      |
|    \\/     M anipulation  |                                                 |
\*---------------------------------------------------------------------------*/
FoamFile
{
    version     2.0;
    format      ascii;
    arch        "LSB;label=64;scalar=64";
    class       surfaceScalarField;
    location    "442800";
    object      phi;
}
// * * * * * * * * * * * * * * * * * * * * * * * * * * * * * * * * * * * * * //

dimensions      [0 3 -1 0 0 0 0];

oriented        oriented;

internalField   nonuniform List<scalar> 
24
(
1.72048e-10
-1.72048e-10
5.10154e-10
-3.38106e-10
3.77035e-10
1.3312e-10
3.77035e-10
1.22089e-10
-2.94136e-10
3.29721e-10
-5.45738e-10
2.18997e-10
2.43843e-10
5.96032e-10
-1.10047e-10
-1.8409e-10
-3.10621e-10
-3.45164e-10
-2.34401e-10
1.67623e-10
3.6163e-10
-1.8409e-10
-5.29254e-10
-3.6163e-10
)
;

boundaryField
{
    movingWall
    {
        type            calculated;
        value           uniform 0;
    }
    fixedWalls
    {
        type            calculated;
        value           uniform 0;
    }
    frontAndBack
    {
        type            empty;
        value           nonuniform List<scalar> 0();
    }
}


// ************************************************************************* //
