/*--------------------------------*- C++ -*----------------------------------*\
| =========                 |                                                 |
| \\      /  F ield         | OpenFOAM: The Open Source CFD Toolbox           |
|  \\    /   O peration     | Version:  2206                                  |
|   \\  /    A nd           | Website:  www.openfoam.com                      |
|    \\/     M anipulation  |                                                 |
\*---------------------------------------------------------------------------*/
FoamFile
{
    version     2.0;
    format      ascii;
    arch        "LSB;label=64;scalar=64";
    class       surfaceScalarField;
    location    "118800";
    object      phi;
}
// * * * * * * * * * * * * * * * * * * * * * * * * * * * * * * * * * * * * * //

dimensions      [0 3 -1 0 0 0 0];

oriented        oriented;

internalField   nonuniform List<scalar> 
24
(
2.60894e-10
-2.60894e-10
3.22488e-10
-6.15943e-11
2.45441e-10
7.70468e-11
2.45441e-10
-1.82024e-11
-2.42692e-10
-8.56841e-11
5.88732e-12
6.52451e-11
-7.38824e-11
3.10687e-10
-1.34499e-10
-1.08192e-10
-2.09633e-10
8.10208e-11
-1.50061e-10
-1.33454e-10
1.60626e-10
-1.08192e-10
-2.71715e-11
-1.60626e-10
)
;

boundaryField
{
    movingWall
    {
        type            calculated;
        value           nonuniform List<scalar> 4(0 0 -1.00974e-28 0);
    }
    fixedWalls
    {
        type            calculated;
        value           uniform 0;
    }
    frontAndBack
    {
        type            empty;
        value           nonuniform List<scalar> 0();
    }
}


// ************************************************************************* //
