/*--------------------------------*- C++ -*----------------------------------*\
| =========                 |                                                 |
| \\      /  F ield         | OpenFOAM: The Open Source CFD Toolbox           |
|  \\    /   O peration     | Version:  2212                                  |
|   \\  /    A nd           | Website:  www.openfoam.com                      |
|    \\/     M anipulation  |                                                 |
\*---------------------------------------------------------------------------*/
FoamFile
{
    version     2.0;
    format      ascii;
    arch        "LSB;label=64;scalar=64";
    class       volScalarField::Internal;
    location    "900";
    object      dGco2;
}
// * * * * * * * * * * * * * * * * * * * * * * * * * * * * * * * * * * * * * //

dimensions      [1 -3 -1 0 0 0 0];

value           nonuniform List<scalar> 
1024
(
0.000154169
0.000154192
0.000154247
0.000154345
0.000154498
0.00015471
0.000154979
0.000155293
0.000155632
0.000155974
0.000156303
0.000156599
0.000156832
0.000156963
0.000156953
0.000156775
0.000156436
0.000156014
0.000155563
0.000155083
0.000154555
0.000153966
0.000153322
0.000152657
0.000152018
0.000151451
0.000150987
0.000150636
0.000150391
0.000150235
0.000150149
0.000150114
0.000154169
0.000154192
0.000154249
0.000154349
0.000154505
0.00015472
0.000154993
0.000155308
0.000155648
0.000155989
0.000156318
0.000156614
0.000156848
0.000156977
0.000156965
0.000156784
0.000156443
0.000156021
0.000155572
0.000155096
0.000154573
0.000153989
0.00015335
0.000152687
0.000152047
0.000151476
0.000151007
0.000150651
0.000150402
0.000150244
0.000150157
0.000150121
0.000154169
0.000154193
0.000154251
0.000154356
0.000154516
0.000154737
0.000155014
0.000155332
0.000155672
0.000156014
0.000156346
0.000156648
0.000156886
0.000157013
0.000156992
0.000156801
0.000156453
0.00015603
0.000155585
0.000155117
0.000154605
0.000154035
0.000153406
0.000152748
0.000152106
0.000151529
0.00015105
0.000150684
0.000150428
0.000150265
0.000150174
0.000150138
0.000154166
0.000154191
0.000154252
0.000154361
0.000154526
0.000154752
0.000155033
0.000155353
0.000155695
0.000156042
0.000156386
0.000156705
0.000156955
0.000157078
0.000157039
0.000156825
0.000156461
0.000156032
0.000155592
0.000155136
0.000154643
0.000154093
0.000153484
0.000152837
0.000152195
0.000151609
0.000151117
0.000150738
0.00015047
0.000150299
0.000150205
0.000150166
0.000154158
0.000154185
0.000154248
0.000154359
0.000154527
0.000154756
0.000155038
0.000155359
0.000155706
0.000156066
0.000156435
0.000156787
0.000157063
0.000157182
0.00015711
0.000156852
0.000156454
0.000156013
0.000155576
0.000155136
0.000154669
0.00015415
0.000153568
0.00015294
0.000152304
0.000151711
0.000151204
0.000150809
0.000150528
0.000150348
0.000150248
0.000150208
0.000154141
0.000154167
0.000154231
0.000154342
0.000154509
0.000154735
0.000155015
0.000155337
0.000155693
0.000156078
0.000156491
0.000156901
0.000157218
0.000157331
0.000157206
0.000156873
0.000156417
0.000155949
0.000155513
0.000155091
0.000154656
0.000154177
0.000153635
0.000153037
0.000152415
0.00015182
0.000151302
0.000150892
0.000150597
0.000150407
0.000150303
0.00015026
0.000154107
0.000154133
0.000154194
0.000154301
0.000154462
0.00015468
0.000154953
0.000155276
0.000155648
0.000156075
0.000156557
0.000157051
0.000157428
0.000157531
0.000157323
0.000156875
0.000156325
0.000155812
0.000155369
0.000154968
0.000154572
0.000154143
0.000153652
0.000153095
0.0001525
0.000151915
0.000151393
0.000150974
0.000150669
0.000150472
0.000150363
0.000150319
0.000154049
0.000154075
0.000154132
0.000154231
0.00015438
0.000154584
0.000154847
0.000155172
0.000155571
0.000156059
0.000156641
0.000157251
0.0001577
0.000157779
0.000157449
0.000156833
0.000156147
0.000155565
0.000155108
0.000154729
0.000154378
0.000154008
0.000153579
0.000153079
0.000152524
0.000151964
0.000151454
0.000151035
0.000150728
0.000150529
0.000150418
0.000150373
0.000153967
0.00015399
0.000154042
0.00015413
0.000154263
0.00015445
0.000154703
0.000155036
0.000155477
0.000156055
0.000156774
0.000157526
0.000158048
0.000158073
0.000157563
0.000156716
0.000155845
0.000155169
0.000154689
0.000154333
0.000154036
0.000153735
0.000153381
0.000152951
0.000152455
0.000151938
0.000151456
0.000151055
0.000150758
0.000150563
0.000150454
0.000150409
0.000153878
0.000153896
0.000153939
0.000154014
0.000154132
0.000154305
0.000154555
0.000154913
0.000155423
0.000156129
0.000157021
0.000157928
0.000158499
0.000158409
0.000157641
0.00015649
0.000155386
0.000154592
0.000154082
0.000153752
0.000153515
0.000153293
0.000153026
0.000152681
0.000152261
0.000151808
0.000151376
0.000151011
0.000150736
0.000150554
0.000150451
0.000150408
0.000153863
0.000153874
0.000153903
0.000153963
0.000154068
0.000154238
0.000154507
0.000154923
0.000155546
0.000156424
0.000157507
0.000158542
0.000159088
0.000158781
0.000157663
0.000156142
0.000154769
0.000153843
0.000153294
0.000152987
0.000152811
0.000152674
0.000152502
0.000152253
0.000151926
0.000151556
0.000151194
0.000150881
0.000150642
0.00015048
0.000150385
0.000150344
0.000154147
0.000154149
0.000154164
0.000154209
0.00015431
0.0001545
0.000154826
0.000155349
0.000156132
0.000157195
0.000158426
0.000159481
0.000159852
0.00015919
0.000157635
0.00015572
0.000154084
0.000153021
0.000152416
0.000152106
0.00015197
0.000151903
0.00015182
0.000151672
0.000151447
0.000151174
0.000150895
0.000150647
0.000150451
0.000150312
0.000150226
0.000150187
0.000155165
0.000155165
0.00015518
0.000155231
0.000155355
0.000155598
0.000156017
0.000156671
0.000157598
0.000158763
0.000159976
0.000160824
0.000160799
0.000159654
0.000157664
0.000155447
0.000153632
0.00015244
0.000151722
0.000151324
0.000151141
0.000151075
0.000151038
0.000150967
0.000150837
0.00015066
0.000150466
0.000150283
0.000150128
0.000150011
0.000149935
0.000149899
0.000157401
0.000157417
0.000157463
0.000157562
0.00015775
0.000158072
0.000158575
0.000159295
0.000160225
0.000161268
0.000162175
0.00016253
0.000161938
0.000160344
0.000158156
0.000155949
0.000154158
0.000152851
0.000151888
0.000151191
0.000150727
0.000150451
0.000150301
0.000150205
0.000150111
0.000149998
0.00014987
0.000149744
0.000149639
0.000149563
0.000149518
0.000149498
0.000160873
0.000160913
0.000161006
0.00016117
0.000161425
0.000161798
0.000162309
0.00016296
0.000163698
0.000164384
0.000164771
0.000164554
0.000163573
0.000162006
0.000160263
0.000158674
0.000157315
0.000156033
0.00015473
0.000153457
0.000152275
0.000151272
0.000150497
0.000149954
0.000149609
0.000149427
0.000149374
0.000149421
0.000149531
0.000149666
0.000149782
0.000149847
0.000164758
0.000164811
0.00016493
0.000165125
0.000165408
0.000165791
0.000166273
0.000166827
0.000167377
0.00016779
0.000167918
0.000167685
0.000167197
0.000166724
0.000166514
0.000166619
0.000166777
0.000166553
0.000165821
0.00016464
0.000163112
0.000161429
0.000159777
0.000158353
0.000157211
0.000156431
0.000156038
0.000155992
0.000156191
0.000156496
0.000156773
0.000156931
0.000167813
0.000167871
0.000168008
0.000168248
0.000168619
0.00016914
0.000169812
0.000170609
0.000171476
0.000172361
0.000173269
0.000174289
0.000175596
0.000177384
0.000179802
0.000182906
0.00018635
0.00018935
0.000191494
0.000192799
0.000193307
0.00019311
0.000192319
0.000191089
0.000189502
0.000187744
0.000186013
0.00018451
0.000183385
0.000182689
0.000182356
0.000182258
0.000169617
0.000169676
0.000169829
0.000170119
0.000170597
0.000171307
0.000172278
0.00017351
0.000174985
0.000176692
0.000178669
0.00018102
0.000183891
0.00018743
0.000191754
0.000196935
0.000202561
0.0002077
0.000211922
0.000215389
0.000218144
0.000220175
0.000221439
0.000221899
0.000221558
0.000220495
0.00021888
0.000216984
0.000215139
0.000213655
0.000212706
0.000212295
0.000170629
0.000170688
0.000170844
0.000171149
0.000171662
0.000172449
0.000173559
0.000175022
0.000176839
0.000179003
0.000181534
0.000184492
0.000187968
0.000192042
0.00019674
0.000202009
0.000207297
0.000211777
0.00021541
0.000218603
0.000221548
0.000224281
0.000226727
0.000228755
0.000230229
0.000231054
0.000231218
0.000230814
0.000230046
0.000229194
0.00022852
0.000228177
0.00017119
0.000171247
0.000171398
0.000171691
0.000172189
0.000172958
0.000174062
0.000175543
0.000177415
0.00017967
0.000182301
0.000185326
0.000188781
0.000192691
0.000197023
0.000201639
0.000205945
0.000209325
0.000212052
0.00021468
0.000217487
0.000220521
0.000223664
0.00022669
0.000229347
0.000231441
0.000232879
0.000233675
0.000233942
0.000233865
0.000233662
0.000233514
0.000171505
0.000171556
0.00017169
0.000171953
0.000172401
0.000173101
0.000174116
0.000175492
0.000177249
0.000179378
0.000181859
0.00018468
0.000187847
0.00019136
0.000195176
0.000199158
0.000202782
0.000205603
0.000207969
0.000210422
0.000213273
0.000216615
0.00022035
0.000224206
0.000227821
0.000230872
0.000233163
0.000234659
0.000235461
0.00023576
0.00023578
0.000235725
0.000171802
0.000171836
0.000171933
0.000172139
0.000172509
0.000173105
0.000173989
0.000175206
0.000176779
0.000178699
0.000180946
0.000183498
0.000186348
0.000189493
0.000192909
0.000196506
0.000199874
0.000202654
0.000205099
0.000207639
0.000210564
0.000214015
0.000217973
0.000222238
0.000226453
0.000230226
0.000233244
0.000235359
0.000236615
0.000237192
0.000237346
0.00023733
0.00017238
0.000172378
0.000172405
0.000172511
0.00017276
0.000173219
0.000173952
0.000175004
0.000176399
0.000178134
0.000180192
0.000182553
0.000185207
0.000188152
0.000191382
0.000194862
0.000198281
0.000201284
0.000203982
0.000206696
0.000209677
0.000213091
0.000216991
0.000221271
0.000225667
0.000229811
0.000233322
0.000235941
0.000237609
0.000238455
0.000238738
0.000238756
0.00017361
0.000173545
0.000173456
0.000173408
0.000173488
0.000173783
0.000174369
0.000175298
0.000176594
0.000178258
0.000180271
0.000182608
0.000185251
0.000188191
0.000191427
0.000194967
0.000198556
0.000201804
0.00020471
0.000207526
0.000210473
0.00021373
0.000217392
0.000221427
0.000225669
0.00022983
0.000233551
0.000236501
0.000238502
0.000239598
0.000240013
0.000240067
0.000175864
0.00017571
0.000175463
0.000175224
0.000175117
0.000175265
0.000175765
0.000176677
0.000178019
0.000179778
0.000181917
0.000184394
0.000187171
0.000190223
0.000193545
0.000197167
0.000200864
0.000204217
0.000207167
0.000209932
0.000212712
0.000215684
0.000218968
0.000222587
0.000226455
0.000230368
0.00023403
0.000237104
0.000239327
0.000240633
0.000241176
0.000241271
0.000179448
0.000179183
0.000178768
0.000178364
0.000178142
0.000178252
0.000178807
0.000179862
0.000181406
0.000183393
0.000185757
0.000188431
0.000191357
0.000194497
0.000197838
0.000201422
0.000205041
0.000208285
0.000211084
0.000213636
0.000216123
0.000218709
0.000221516
0.000224602
0.000227945
0.000231423
0.000234813
0.00023781
0.000240118
0.000241571
0.000242232
0.000242371
0.000184556
0.00018418
0.000183657
0.000183224
0.000183077
0.000183354
0.00018415
0.000185481
0.000187297
0.000189517
0.000192055
0.000194827
0.000197769
0.000200839
0.000204023
0.000207365
0.000210683
0.000213611
0.000216092
0.000218305
0.000220411
0.00022255
0.000224832
0.000227331
0.000230062
0.000232975
0.000235926
0.000238671
0.000240914
0.00024243
0.000243181
0.000243367
0.000191301
0.000190851
0.00019038
0.000190171
0.000190364
0.000191016
0.000192162
0.00019377
0.000195765
0.000198061
0.000200573
0.000203225
0.000205958
0.000208739
0.000211556
0.000214452
0.000217277
0.000219733
0.000221785
0.000223585
0.000225266
0.000226939
0.000228697
0.000230608
0.000232707
0.00023499
0.000237386
0.000239728
0.000241761
0.000243234
0.000244031
0.000244258
0.000199788
0.000199369
0.000199215
0.000199507
0.000200212
0.00020128
0.000202691
0.000204393
0.000206329
0.000208438
0.00021066
0.00021294
0.000215236
0.000217524
0.0002198
0.000222099
0.000224308
0.000226207
0.000227777
0.000229136
0.000230387
0.000231611
0.000232878
0.000234244
0.000235744
0.000237397
0.000239183
0.000241012
0.000242701
0.000244015
0.000244791
0.000245046
0.000210219
0.00021004
0.000210461
0.000211312
0.000212401
0.000213647
0.000215031
0.000216527
0.000218118
0.000219779
0.000221479
0.000223186
0.000224877
0.000226538
0.000228168
0.000229793
0.000231337
0.000232654
0.000233735
0.000234663
0.000235505
0.000236319
0.000237151
0.000238038
0.00023901
0.000240087
0.000241274
0.000242538
0.000243774
0.000244812
0.000245483
0.000245734
0.000223002
0.000223291
0.000224158
0.00022514
0.00022614
0.000227135
0.000228134
0.000229139
0.000230159
0.000231193
0.00023223
0.000233258
0.000234266
0.000235247
0.000236202
0.000237146
0.000238036
0.000238791
0.000239408
0.000239935
0.000240409
0.000240862
0.00024132
0.000241805
0.000242333
0.000242918
0.000243569
0.000244279
0.000245008
0.000245664
0.000246131
0.000246331
0.000238651
0.000238888
0.000239341
0.000239774
0.000240177
0.000240556
0.000240917
0.000241268
0.000241615
0.000241961
0.000242304
0.000242642
0.000242971
0.00024329
0.0002436
0.000243904
0.00024419
0.000244432
0.00024463
0.000244797
0.000244948
0.000245091
0.000245234
0.000245386
0.000245549
0.00024573
0.000245931
0.000246152
0.000246385
0.000246604
0.000246773
0.000246855
)
;


// ************************************************************************* //
