/*--------------------------------*- C++ -*----------------------------------*\
| =========                 |                                                 |
| \\      /  F ield         | OpenFOAM: The Open Source CFD Toolbox           |
|  \\    /   O peration     | Version:  2212                                  |
|   \\  /    A nd           | Website:  www.openfoam.com                      |
|    \\/     M anipulation  |                                                 |
\*---------------------------------------------------------------------------*/
FoamFile
{
    version     2.0;
    format      ascii;
    arch        "LSB;label=64;scalar=64";
    class       volScalarField;
    location    "900";
    object      p_rgh;
}
// * * * * * * * * * * * * * * * * * * * * * * * * * * * * * * * * * * * * * //

dimensions      [0 2 -2 0 0 0 0];

internalField   nonuniform List<scalar> 
1024
(
0.0431951
0.0431915
0.0431878
0.0431866
0.0431894
0.0431973
0.0432126
0.0432393
0.0432832
0.0433502
0.0434388
0.0435265
0.0435807
0.0435757
0.0435167
0.0434213
0.0433258
0.0432527
0.0432029
0.0431702
0.0431495
0.0431371
0.04313
0.0431262
0.0431239
0.0431221
0.0431208
0.04312
0.0431204
0.0431218
0.0431238
0.0431251
0.0432029
0.0431994
0.0431965
0.0431963
0.0431997
0.0432078
0.0432231
0.0432495
0.0432931
0.0433597
0.0434479
0.0435351
0.0435892
0.0435847
0.043526
0.0434304
0.0433345
0.0432609
0.0432108
0.0431777
0.0431567
0.0431439
0.0431366
0.0431324
0.0431298
0.0431279
0.0431262
0.0431252
0.0431252
0.0431262
0.0431278
0.0431292
0.0432162
0.0432121
0.0432098
0.0432112
0.0432163
0.0432257
0.043242
0.0432693
0.0433137
0.0433815
0.0434709
0.0435586
0.043613
0.0436089
0.0435495
0.0434526
0.0433551
0.0432801
0.0432287
0.0431946
0.0431726
0.043159
0.0431508
0.0431459
0.0431425
0.0431397
0.0431372
0.0431352
0.0431343
0.0431346
0.0431361
0.0431378
0.0432305
0.0432257
0.0432242
0.043228
0.0432362
0.0432487
0.0432677
0.0432975
0.0433443
0.0434148
0.0435062
0.043595
0.0436502
0.0436479
0.0435883
0.0434902
0.0433906
0.0433132
0.0432596
0.0432236
0.0431998
0.0431845
0.0431748
0.0431684
0.0431635
0.043159
0.0431545
0.0431506
0.0431479
0.0431471
0.0431486
0.043151
0.0432384
0.0432338
0.043234
0.0432414
0.0432545
0.0432724
0.0432963
0.0433302
0.0433801
0.0434524
0.0435443
0.0436331
0.04369
0.043693
0.0436368
0.0435406
0.0434411
0.0433616
0.0433055
0.0432668
0.0432404
0.0432225
0.0432104
0.0432016
0.0431943
0.0431869
0.0431791
0.0431717
0.043166
0.0431634
0.0431646
0.0431676
0.0432318
0.0432284
0.0432314
0.0432439
0.0432639
0.0432895
0.0433203
0.0433592
0.0434116
0.0434822
0.0435716
0.0436591
0.0437189
0.0437306
0.0436829
0.0435951
0.0435008
0.0434227
0.0433654
0.0433243
0.0432948
0.0432737
0.0432583
0.0432461
0.043235
0.0432231
0.0432101
0.0431972
0.0431868
0.0431812
0.0431813
0.0431847
0.043206
0.0432045
0.0432108
0.0432288
0.043257
0.0432918
0.0433306
0.0433741
0.0434264
0.0434927
0.0435784
0.0436656
0.0437296
0.0437502
0.0437144
0.0436406
0.0435585
0.0434881
0.0434333
0.0433918
0.0433602
0.0433358
0.0433164
0.0432996
0.043283
0.0432646
0.043244
0.043223
0.0432056
0.0431953
0.0431935
0.0431968
0.0431641
0.0431646
0.0431734
0.0431955
0.0432308
0.0432746
0.0433212
0.0433682
0.0434187
0.0434806
0.0435653
0.0436549
0.0437234
0.0437502
0.0437253
0.0436674
0.043602
0.0435458
0.0434989
0.0434609
0.0434294
0.0434027
0.0433792
0.0433567
0.0433327
0.0433052
0.0432738
0.0432418
0.0432148
0.0431981
0.0431933
0.0431959
0.0431191
0.0431209
0.0431304
0.0431534
0.0431919
0.0432412
0.0432931
0.0433424
0.0433915
0.0434533
0.0435429
0.0436364
0.0437081
0.0437368
0.0437187
0.0436737
0.043625
0.0435849
0.043551
0.043521
0.0434929
0.0434657
0.0434386
0.0434095
0.043376
0.0433361
0.0432906
0.0432442
0.0432052
0.0431806
0.0431719
0.0431733
0.043091
0.0430934
0.0431021
0.0431229
0.0431584
0.0432056
0.0432571
0.0433069
0.0433587
0.0434303
0.043526
0.0436242
0.0436947
0.0437196
0.043702
0.0436647
0.0436291
0.0436036
0.043584
0.0435646
0.0435425
0.0435167
0.0434864
0.0434497
0.0434042
0.0433486
0.0432852
0.0432216
0.0431691
0.0431364
0.0431239
0.0431237
0.0430983
0.0431002
0.0431065
0.0431228
0.0431524
0.0431933
0.0432395
0.0432876
0.0433478
0.0434348
0.0435391
0.043635
0.0436947
0.0437073
0.0436834
0.0436483
0.0436214
0.0436072
0.0435999
0.0435906
0.043575
0.043551
0.0435171
0.043471
0.0434106
0.0433358
0.0432516
0.0431699
0.0431051
0.0430661
0.0430508
0.0430492
0.0431579
0.0431581
0.0431603
0.0431702
0.0431921
0.0432264
0.04327
0.0433242
0.0434035
0.0435034
0.0436045
0.0436818
0.0437158
0.0437055
0.0436687
0.0436317
0.0436102
0.0436042
0.0436062
0.0436037
0.0435919
0.0435673
0.0435272
0.0434686
0.0433899
0.0432931
0.0431886
0.0430927
0.0430212
0.0429805
0.0429647
0.0429621
0.0432914
0.0432895
0.0432876
0.0432916
0.0433078
0.0433404
0.0433918
0.0434715
0.043565
0.0436564
0.0437284
0.0437641
0.0437559
0.0437139
0.0436603
0.0436193
0.0436002
0.0435986
0.0436043
0.0436029
0.0435888
0.0435584
0.0435078
0.0434338
0.0433351
0.0432181
0.0431036
0.0430082
0.0429423
0.0429065
0.0428926
0.0428895
0.0435382
0.0435374
0.0435378
0.0435454
0.0435694
0.0436175
0.0436886
0.0437624
0.043824
0.043866
0.0438796
0.0438561
0.0437974
0.0437239
0.0436571
0.0436097
0.0435829
0.0435715
0.0435665
0.0435533
0.043529
0.0434894
0.0434302
0.0433495
0.0432501
0.0431417
0.0430406
0.04296
0.0429069
0.0428793
0.0428687
0.0428659
0.0439422
0.04395
0.0439643
0.043984
0.0440066
0.0440289
0.0440482
0.0440599
0.0440579
0.0440357
0.0439887
0.0439126
0.0438156
0.0437251
0.0436477
0.0435792
0.0435201
0.0434703
0.0434311
0.0434042
0.0433817
0.0433547
0.0433165
0.0432628
0.0431936
0.0431162
0.0430431
0.0429859
0.0429501
0.0429335
0.0429283
0.0429271
0.0442347
0.044238
0.0442422
0.0442454
0.0442454
0.0442403
0.0442282
0.0442046
0.0441631
0.0440989
0.0440145
0.043921
0.0438291
0.0437362
0.0436393
0.0435425
0.0434595
0.043404
0.0433824
0.0433741
0.0433722
0.0433716
0.0433675
0.0433606
0.043333
0.0432871
0.0432361
0.0431947
0.0431718
0.0431664
0.0431702
0.0431744
0.0444723
0.0444673
0.0444587
0.0444459
0.0444283
0.0444061
0.0443804
0.0443513
0.0443185
0.0442817
0.0442411
0.0441976
0.0441533
0.044114
0.0440829
0.0440678
0.0440879
0.0441477
0.0442312
0.0443298
0.0444319
0.0445241
0.0445859
0.0445934
0.0445474
0.0444525
0.0443213
0.0441766
0.0440491
0.0439673
0.0439381
0.0439326
0.0445827
0.0445766
0.0445674
0.0445562
0.0445448
0.0445352
0.0445293
0.0445274
0.0445287
0.044531
0.0445332
0.0445354
0.0445395
0.0445492
0.0445687
0.0446037
0.0446664
0.0447422
0.0448087
0.0448901
0.0449921
0.0451077
0.0452248
0.045329
0.045406
0.0454464
0.0454472
0.0454119
0.0453482
0.0452696
0.0451954
0.0451594
0.0445928
0.044587
0.0445783
0.0445694
0.0445629
0.0445618
0.0445683
0.0445828
0.0446044
0.0446303
0.044659
0.0446892
0.0447203
0.0447516
0.0447819
0.0448099
0.0448419
0.0448704
0.0448891
0.0449212
0.0449753
0.0450484
0.0451348
0.045226
0.0453115
0.0453812
0.0454294
0.0454553
0.0454629
0.045458
0.0454463
0.0454354
0.0445625
0.044557
0.0445482
0.0445393
0.0445342
0.044537
0.0445507
0.0445759
0.0446107
0.0446518
0.0446957
0.04474
0.044782
0.0448189
0.0448469
0.0448616
0.0448691
0.0448735
0.0448746
0.0448843
0.0449081
0.0449443
0.0449932
0.0450534
0.0451209
0.0451877
0.0452448
0.0452862
0.0453114
0.0453238
0.0453269
0.0453241
0.0445421
0.0445367
0.0445273
0.044517
0.0445105
0.0445128
0.0445279
0.0445566
0.0445973
0.0446452
0.0446954
0.0447438
0.0447873
0.0448214
0.0448423
0.044846
0.04484
0.0448367
0.0448424
0.0448559
0.0448769
0.0448998
0.0449249
0.0449566
0.0449995
0.0450518
0.0451054
0.0451506
0.0451817
0.0451989
0.0452048
0.0452033
0.0445392
0.0445334
0.0445231
0.0445113
0.044503
0.0445037
0.0445179
0.0445468
0.0445879
0.0446364
0.0446862
0.0447321
0.0447719
0.0447988
0.0448094
0.044802
0.0447828
0.0447711
0.0447836
0.0448136
0.0448525
0.0448885
0.0449134
0.0449357
0.0449639
0.0450037
0.0450525
0.0450998
0.0451358
0.0451565
0.0451635
0.0451616
0.0445508
0.0445445
0.044533
0.04452
0.0445107
0.0445108
0.0445245
0.0445528
0.0445927
0.0446388
0.0446838
0.0447228
0.0447517
0.0447665
0.0447639
0.0447441
0.0447134
0.0446982
0.0447164
0.0447593
0.0448146
0.0448707
0.0449196
0.0449616
0.0449947
0.0450339
0.045085
0.0451395
0.0451844
0.0452112
0.04522
0.0452176
0.0445695
0.0445623
0.04455
0.0445367
0.0445281
0.0445297
0.0445451
0.0445741
0.0446122
0.0446532
0.0446901
0.0447178
0.0447329
0.044733
0.044716
0.0446838
0.0446448
0.044628
0.044649
0.0447004
0.044768
0.0448431
0.0449189
0.0449923
0.0450599
0.0451274
0.0451926
0.0452638
0.0453269
0.0453667
0.04538
0.0453784
0.0445891
0.0445808
0.0445682
0.0445563
0.0445511
0.044557
0.0445765
0.0446075
0.0446436
0.0446774
0.0447038
0.0447179
0.0447177
0.0447019
0.0446699
0.0446252
0.0445786
0.0445594
0.0445811
0.0446364
0.0447127
0.0448042
0.0449067
0.0450174
0.0451328
0.0452496
0.0453607
0.0454654
0.0455594
0.0456245
0.0456492
0.0456517
0.0446034
0.0445938
0.044582
0.0445747
0.0445768
0.0445903
0.0446164
0.0446501
0.0446831
0.0447085
0.044722
0.0447211
0.0447046
0.0446721
0.0446245
0.0445666
0.0445118
0.0444881
0.0445081
0.0445647
0.0446478
0.0447543
0.044883
0.0450333
0.0452017
0.045382
0.0455621
0.0457294
0.0458738
0.0459841
0.0460349
0.0460494
0.044606
0.0445956
0.0445871
0.0445892
0.0446038
0.0446284
0.044662
0.0446982
0.0447265
0.0447413
0.0447406
0.0447236
0.0446899
0.0446403
0.0445767
0.044505
0.044441
0.0444117
0.0444289
0.0444858
0.0445751
0.0446957
0.0448493
0.0450381
0.0452606
0.0455102
0.0457725
0.0460277
0.0462541
0.0464368
0.0465414
0.046584
0.0445843
0.0445769
0.0445785
0.044598
0.0446312
0.0446699
0.0447108
0.044747
0.0447682
0.0447706
0.0447546
0.0447208
0.0446699
0.0446036
0.0445243
0.0444395
0.0443667
0.0443324
0.044347
0.0444047
0.0445001
0.0446334
0.044809
0.0450319
0.0453037
0.0456202
0.0459688
0.0463281
0.0466698
0.0469621
0.047163
0.0472639
0.0445141
0.0445222
0.0445514
0.0446017
0.0446595
0.0447133
0.0447596
0.044792
0.044803
0.0447921
0.0447607
0.0447106
0.0446438
0.0445625
0.0444698
0.044374
0.0442945
0.0442566
0.04427
0.0443294
0.0444305
0.0445742
0.0447671
0.0450165
0.0453275
0.0456999
0.0461272
0.0465943
0.0470766
0.0475329
0.0478879
0.0481183
0.0443409
0.0444123
0.0445109
0.0446094
0.0446927
0.0447598
0.0448066
0.0448312
0.0448306
0.0448059
0.04476
0.0446958
0.0446159
0.0445227
0.04442
0.0443165
0.0442328
0.0441932
0.0442065
0.0442681
0.0443733
0.0445241
0.0447285
0.0449952
0.0453319
0.0457427
0.0462291
0.0467898
0.0474194
0.0480927
0.0487267
0.0492812
0.0438604
0.0442508
0.0444949
0.0446451
0.044744
0.0448132
0.0448536
0.0448669
0.0448539
0.0448166
0.0447588
0.0446836
0.0445941
0.0444928
0.0443837
0.0442757
0.0441897
0.0441494
0.0441631
0.044226
0.0443334
0.0444875
0.0446972
0.0449719
0.0453206
0.0457502
0.0462691
0.0468909
0.0476405
0.0485551
0.0496672
0.0509302
0.0428461
0.044084
0.0445538
0.0447066
0.0448
0.0448635
0.0448942
0.0448967
0.0448734
0.0448272
0.0447613
0.0446795
0.0445844
0.0444787
0.0443664
0.0442563
0.0441691
0.0441285
0.0441422
0.0442053
0.044313
0.0444678
0.0446784
0.0449545
0.0453052
0.045739
0.0462681
0.0469175
0.0477412
0.0488494
0.0504634
0.0527319
)
;

boundaryField
{
    movingWall
    {
        type            fixedFluxPressure;
        gradient        uniform 0;
        value           nonuniform List<scalar> 
32
(
0.0428461
0.044084
0.0445538
0.0447066
0.0448
0.0448635
0.0448942
0.0448967
0.0448734
0.0448272
0.0447613
0.0446795
0.0445844
0.0444787
0.0443664
0.0442563
0.0441691
0.0441285
0.0441422
0.0442053
0.044313
0.0444678
0.0446784
0.0449545
0.0453052
0.045739
0.0462681
0.0469175
0.0477412
0.0488494
0.0504634
0.0527319
)
;
    }
    fixedWalls
    {
        type            fixedFluxPressure;
        gradient        uniform 0;
        value           nonuniform List<scalar> 
64
(
0.0431951
0.0432029
0.0432162
0.0432305
0.0432384
0.0432318
0.043206
0.0431641
0.0431191
0.043091
0.0430983
0.0431579
0.0432914
0.0435382
0.0439422
0.0442347
0.0444723
0.0445827
0.0445928
0.0445625
0.0445421
0.0445392
0.0445508
0.0445695
0.0445891
0.0446034
0.044606
0.0445843
0.0445141
0.0443409
0.0438604
0.0428461
0.0431251
0.0431292
0.0431378
0.043151
0.0431676
0.0431847
0.0431968
0.0431959
0.0431733
0.0431237
0.0430492
0.0429621
0.0428895
0.0428659
0.0429271
0.0431744
0.0439326
0.0451594
0.0454354
0.0453241
0.0452033
0.0451616
0.0452176
0.0453784
0.0456517
0.0460494
0.046584
0.0472639
0.0481183
0.0492812
0.0509302
0.0527319
)
;
    }
    floor
    {
        type            fixedFluxPressure;
        gradient        uniform 0;
        value           nonuniform List<scalar> 
32
(
0.0431951
0.0431915
0.0431878
0.0431866
0.0431894
0.0431973
0.0432126
0.0432393
0.0432832
0.0433502
0.0434388
0.0435265
0.0435807
0.0435757
0.0435167
0.0434213
0.0433258
0.0432527
0.0432029
0.0431702
0.0431495
0.0431371
0.04313
0.0431262
0.0431239
0.0431221
0.0431208
0.04312
0.0431204
0.0431218
0.0431238
0.0431251
)
;
    }
    frontAndBack
    {
        type            empty;
    }
}


// ************************************************************************* //
