/*--------------------------------*- C++ -*----------------------------------*\
| =========                 |                                                 |
| \\      /  F ield         | OpenFOAM: The Open Source CFD Toolbox           |
|  \\    /   O peration     | Version:  2212                                  |
|   \\  /    A nd           | Website:  www.openfoam.com                      |
|    \\/     M anipulation  |                                                 |
\*---------------------------------------------------------------------------*/
FoamFile
{
    version     2.0;
    format      ascii;
    arch        "LSB;label=64;scalar=64";
    class       surfaceScalarField;
    location    "900";
    object      phi;
}
// * * * * * * * * * * * * * * * * * * * * * * * * * * * * * * * * * * * * * //

dimensions      [0 3 -1 0 0 0 0];

oriented        oriented;

internalField   nonuniform List<scalar> 
1984
(
-1.42228e-09
1.42132e-09
-1.65061e-08
1.50839e-08
-4.68657e-08
3.03597e-08
-8.68237e-08
3.99581e-08
-1.30924e-07
4.41003e-08
-1.76249e-07
4.53251e-08
-2.20718e-07
4.44692e-08
-2.60282e-07
3.95632e-08
-2.86203e-07
2.59212e-08
-2.81764e-07
-4.43832e-09
-2.23909e-07
-5.78551e-08
-1.04746e-07
-1.19163e-07
4.42653e-08
-1.49011e-07
1.6558e-07
-1.21315e-07
2.38055e-07
-7.24752e-08
2.63204e-07
-2.51492e-08
2.57205e-07
5.99867e-09
2.38316e-07
1.8889e-08
2.14134e-07
2.41823e-08
1.88244e-07
2.58905e-08
1.62365e-07
2.58785e-08
1.37726e-07
2.46385e-08
1.1531e-07
2.24166e-08
9.55281e-08
1.97819e-08
7.79451e-08
1.75832e-08
6.13527e-08
1.65925e-08
4.46211e-08
1.67316e-08
2.79226e-08
1.66985e-08
1.32258e-08
1.46969e-08
3.28363e-09
9.9422e-09
-4.87087e-10
3.77086e-09
-4.87056e-10
-1.74809e-08
1.89023e-08
-7.53414e-08
7.29445e-08
-1.71658e-07
1.26676e-07
-2.93815e-07
1.62116e-07
-4.27338e-07
1.77623e-07
-5.61008e-07
1.78996e-07
-6.84699e-07
1.6816e-07
-7.83888e-07
1.38752e-07
-8.34182e-07
7.62157e-08
-7.94876e-07
-4.37443e-08
-6.15622e-07
-2.3711e-07
-2.74163e-07
-4.60622e-07
1.51613e-07
-5.74787e-07
5.07804e-07
-4.77505e-07
7.34054e-07
-2.98725e-07
8.30465e-07
-1.21561e-07
8.29881e-07
6.58295e-09
7.83145e-07
6.5625e-08
7.15033e-07
9.22948e-08
6.37687e-07
1.03236e-07
5.57472e-07
1.06093e-07
4.78765e-07
1.03346e-07
4.04846e-07
9.63355e-08
3.37292e-07
8.73361e-08
2.7539e-07
7.94849e-08
2.16638e-07
7.53446e-08
1.59e-07
7.43705e-08
1.03678e-07
7.20203e-08
5.58073e-08
6.25676e-08
2.1642e-08
4.41077e-08
4.07255e-09
2.13403e-08
3.58562e-09
-4.2179e-08
6.10814e-08
-1.56964e-07
1.8773e-07
-3.31057e-07
3.00769e-07
-5.42742e-07
3.73801e-07
-7.68457e-07
4.03338e-07
-9.87023e-07
3.97562e-07
-1.17764e-06
3.58779e-07
-1.31417e-06
2.75285e-07
-1.3589e-06
1.2094e-07
-1.25556e-06
-1.47083e-07
-9.43102e-07
-5.49567e-07
-3.91872e-07
-1.01185e-06
2.86588e-07
-1.25325e-06
8.70832e-07
-1.06175e-06
1.27067e-06
-6.98561e-07
1.47247e-06
-3.23361e-07
1.50582e-06
-2.67678e-08
1.44766e-06
1.23786e-07
1.34364e-06
1.96314e-07
1.21617e-06
2.30705e-07
1.07781e-06
2.4445e-07
9.37169e-07
2.43989e-07
8.00536e-07
2.32969e-07
6.71402e-07
2.1647e-07
5.49881e-07
2.01006e-07
4.3368e-07
1.91545e-07
3.2117e-07
1.86881e-07
2.14938e-07
1.78252e-07
1.22624e-07
1.54883e-07
5.34484e-08
1.13283e-07
1.28687e-08
6.19203e-08
1.64543e-08
-6.75536e-08
1.28635e-07
-2.41315e-07
3.61491e-07
-4.93853e-07
5.53308e-07
-7.91518e-07
6.71465e-07
-1.10028e-06
7.12102e-07
-1.38834e-06
6.85619e-07
-1.62402e-06
5.94464e-07
-1.77071e-06
4.21975e-07
-1.78071e-06
1.30935e-07
-1.59301e-06
-3.34783e-07
-1.14998e-06
-9.92593e-07
-4.25933e-07
-1.73591e-06
4.43006e-07
-2.12219e-06
1.21791e-06
-1.83665e-06
1.79575e-06
-1.2764e-06
2.13503e-06
-6.62639e-07
2.23967e-06
-1.31414e-07
2.19811e-06
1.65351e-07
2.07799e-06
3.16436e-07
1.91249e-06
3.96206e-07
1.72112e-06
4.35812e-07
1.51746e-06
4.47654e-07
1.31146e-06
4.38972e-07
1.10942e-06
4.18505e-07
9.13781e-07
3.96645e-07
7.24301e-07
3.81026e-07
5.4117e-07
3.70012e-07
3.68714e-07
3.50707e-07
2.16955e-07
3.06641e-07
9.8995e-08
2.31244e-07
2.54289e-08
1.35486e-07
4.18832e-08
-8.42817e-08
2.12917e-07
-2.99829e-07
5.77038e-07
-6.1138e-07
8.6486e-07
-9.75344e-07
1.03543e-06
-1.34652e-06
1.08327e-06
-1.68175e-06
1.02085e-06
-1.93907e-06
8.51788e-07
-2.07356e-06
5.5647e-07
-2.03077e-06
8.81405e-08
-1.75525e-06
-6.10303e-07
-1.20008e-06
-1.54777e-06
-3.57784e-07
-2.5782e-06
6.18449e-07
-3.09842e-06
1.52516e-06
-2.74336e-06
2.25968e-06
-2.01092e-06
2.74928e-06
-1.15224e-06
2.9592e-06
-3.41339e-07
2.96934e-06
1.5521e-07
2.86267e-06
4.23108e-07
2.68231e-06
5.76566e-07
2.4541e-06
6.64019e-07
2.19636e-06
7.05395e-07
1.92288e-06
7.12451e-07
1.64347e-06
6.97924e-07
1.36415e-06
6.7596e-07
1.08846e-06
6.56714e-07
8.19927e-07
6.38547e-07
5.65596e-07
6.05039e-07
3.38794e-07
5.33444e-07
1.58134e-07
4.11903e-07
4.17538e-08
2.51867e-07
8.36369e-08
-8.32684e-08
2.96185e-07
-3.04165e-07
7.97935e-07
-6.34005e-07
1.1947e-06
-1.02782e-06
1.42925e-06
-1.43143e-06
1.48688e-06
-1.78976e-06
1.37917e-06
-2.05042e-06
1.11245e-06
-2.16218e-06
6.68234e-07
-2.06623e-06
-7.81795e-09
-1.71691e-06
-9.59614e-07
-1.07687e-06
-2.18781e-06
-1.77424e-07
-3.47765e-06
8.2545e-07
-4.10129e-06
1.79914e-06
-3.71705e-06
2.64084e-06
-2.85262e-06
3.2592e-06
-1.7706e-06
3.58589e-06
-6.6803e-07
3.67602e-06
6.50789e-08
3.61333e-06
4.85795e-07
3.44711e-06
7.42795e-07
3.20676e-06
9.04369e-07
2.91372e-06
9.98427e-07
2.5849e-06
1.04127e-06
2.23358e-06
1.04925e-06
1.87005e-06
1.03949e-06
1.50263e-06
1.02413e-06
1.13957e-06
1.00161e-06
7.92349e-07
9.52266e-07
4.79398e-07
8.46395e-07
2.26513e-07
6.64787e-07
6.07051e-08
4.17675e-07
1.44342e-07
-6.06718e-08
3.56857e-07
-2.38883e-07
9.76146e-07
-5.29249e-07
1.48507e-06
-9.00324e-07
1.80032e-06
-1.29676e-06
1.88332e-06
-1.65301e-06
1.73542e-06
-1.90485e-06
1.36429e-06
-1.99209e-06
7.55475e-07
-1.86083e-06
-1.39076e-07
-1.46064e-06
-1.35981e-06
-7.64591e-07
-2.88386e-06
1.27717e-07
-4.36995e-06
1.08949e-06
-5.06307e-06
2.07007e-06
-4.69762e-06
2.95104e-06
-3.73359e-06
3.64245e-06
-2.46201e-06
4.06113e-06
-1.08672e-06
4.23569e-06
-1.09474e-07
4.23608e-06
4.85407e-07
4.10893e-06
8.69941e-07
3.8824e-06
1.13089e-06
3.57793e-06
1.3029e-06
3.21366e-06
1.40554e-06
2.80545e-06
1.45745e-06
2.36756e-06
1.47739e-06
1.9133e-06
1.47839e-06
1.4567e-06
1.45821e-06
1.01569e-06
1.39327e-06
6.16098e-07
1.24599e-06
2.92031e-07
9.88854e-07
7.86425e-08
6.31064e-07
2.22984e-07
-2.12233e-08
3.7808e-07
-1.10462e-07
1.06538e-06
-2.94319e-07
1.66892e-06
-5.73054e-07
2.07906e-06
-9.06674e-07
2.21694e-06
-1.22749e-06
2.05624e-06
-1.46035e-06
1.59715e-06
-1.53272e-06
8.27846e-07
-1.37898e-06
-2.92817e-07
-9.49942e-07
-1.78884e-06
-2.40965e-07
-3.59283e-06
5.74163e-07
-5.18508e-06
1.44549e-06
-5.9344e-06
2.36826e-06
-5.62039e-06
3.21244e-06
-4.57777e-06
3.90217e-06
-3.15174e-06
4.35624e-06
-1.54078e-06
4.58783e-06
-3.41072e-07
4.65033e-06
4.22909e-07
4.57389e-06
9.46385e-07
4.37994e-06
1.32484e-06
4.08589e-06
1.59695e-06
3.70834e-06
1.78309e-06
3.26396e-06
1.90184e-06
2.76979e-06
1.97156e-06
2.2438e-06
2.00438e-06
1.7066e-06
1.99541e-06
1.1847e-06
1.91516e-06
7.13534e-07
1.71716e-06
3.35399e-07
1.36699e-06
8.95743e-08
8.76888e-07
3.12559e-07
2.35065e-08
3.54574e-07
4.89822e-08
1.03991e-06
2.77002e-08
1.69021e-06
-7.60317e-08
2.18279e-06
-2.60249e-07
2.40116e-06
-4.81021e-07
2.27701e-06
-6.63341e-07
1.77947e-06
-7.16421e-07
8.80926e-07
-5.42931e-07
-4.66307e-07
-9.66151e-08
-2.23516e-06
5.1041e-07
-4.19986e-06
1.18117e-06
-5.85584e-06
1.91787e-06
-6.6711e-06
2.70042e-06
-6.40294e-06
3.42306e-06
-5.30042e-06
4.03165e-06
-3.76033e-06
4.45699e-06
-1.96612e-06
4.70048e-06
-5.84564e-07
4.80078e-06
3.22609e-07
4.76894e-06
9.7822e-07
4.61392e-06
1.47987e-06
4.34476e-06
1.8661e-06
3.97322e-06
2.15463e-06
3.51434e-06
2.36072e-06
2.98632e-06
2.49958e-06
2.4113e-06
2.5794e-06
1.81756e-06
2.58915e-06
1.24254e-06
2.49018e-06
7.3276e-07
2.22694e-06
3.35991e-07
1.76376e-06
8.73202e-08
1.12556e-06
3.99879e-07
6.13143e-08
2.9326e-07
1.98914e-07
9.02309e-07
3.60331e-07
1.52879e-06
4.89945e-07
2.05318e-06
5.48193e-07
2.34291e-06
5.36702e-07
2.2885e-06
5.028e-07
1.81337e-06
5.28692e-07
8.55033e-07
7.12794e-07
-6.50408e-07
1.06463e-06
-2.587e-06
1.50308e-06
-4.63831e-06
1.98048e-06
-6.33323e-06
2.49338e-06
-7.184e-06
3.02945e-06
-6.93901e-06
3.52975e-06
-5.80071e-06
3.97529e-06
-4.20587e-06
4.31507e-06
-2.3059e-06
4.52889e-06
-7.98392e-07
4.63736e-06
2.1414e-07
4.63495e-06
9.80637e-07
4.51623e-06
1.59859e-06
4.27919e-06
2.10314e-06
3.92816e-06
2.50566e-06
3.47431e-06
2.81457e-06
2.93569e-06
3.03819e-06
2.33897e-06
3.17612e-06
1.72257e-06
3.20555e-06
1.13763e-06
3.07512e-06
6.41131e-07
2.72344e-06
2.78675e-07
2.12621e-06
6.81118e-08
1.33612e-06
4.67991e-07
8.37951e-08
2.09465e-07
3.05123e-07
6.80981e-07
6.24132e-07
1.20978e-06
9.81342e-07
1.69597e-06
1.31789e-06
2.00636e-06
1.5992e-06
2.00719e-06
1.82779e-06
1.58479e-06
2.03375e-06
6.49068e-07
2.26254e-06
-8.79196e-07
2.50855e-06
-2.83301e-06
2.73573e-06
-4.86549e-06
2.92627e-06
-6.52378e-06
3.0887e-06
-7.34643e-06
3.24637e-06
-7.09667e-06
3.40464e-06
-5.95898e-06
3.60146e-06
-4.40269e-06
3.81134e-06
-2.51577e-06
3.97373e-06
-9.60783e-07
4.07693e-06
1.10941e-07
4.09583e-06
9.61731e-07
4.01195e-06
1.68247e-06
3.81213e-06
2.30296e-06
3.49271e-06
2.82508e-06
3.06038e-06
3.2469e-06
2.53369e-06
3.56488e-06
1.94693e-06
3.76289e-06
1.35494e-06
3.79754e-06
8.24675e-07
3.60538e-06
4.16329e-07
3.13178e-06
1.57543e-07
2.385e-06
3.21206e-08
1.46154e-06
5.00111e-07
8.46738e-08
1.24791e-07
3.35273e-07
4.30382e-07
7.41245e-07
8.03808e-07
1.26033e-06
1.17688e-06
1.83203e-06
1.43466e-06
2.40018e-06
1.43904e-06
2.92962e-06
1.05535e-06
3.4128e-06
1.65885e-07
3.79223e-06
-1.25862e-06
3.98858e-06
-3.02936e-06
3.98312e-06
-4.86003e-06
3.79398e-06
-6.33464e-06
3.47506e-06
-7.02751e-06
3.11654e-06
-6.73816e-06
2.80977e-06
-5.65221e-06
2.67827e-06
-4.27119e-06
2.72978e-06
-2.56729e-06
2.84374e-06
-1.07474e-06
2.95654e-06
-1.86101e-09
3.00278e-06
9.15497e-07
2.95862e-06
1.72663e-06
2.80189e-06
2.45968e-06
2.52336e-06
3.10361e-06
2.12889e-06
3.64137e-06
1.64262e-06
4.05115e-06
1.11329e-06
4.29222e-06
6.29762e-07
4.28107e-06
2.66813e-07
3.96833e-06
5.76103e-08
3.34099e-06
-1.78358e-08
2.46045e-06
-1.63891e-08
1.4601e-06
4.83722e-07
6.66866e-08
5.8104e-08
2.88351e-07
2.08717e-07
6.89519e-07
4.0264e-07
1.26553e-06
6.00873e-07
1.9821e-06
7.18089e-07
2.78859e-06
6.32544e-07
3.62171e-06
2.22235e-07
4.37759e-06
-5.89998e-07
4.87272e-06
-1.75375e-06
5.00328e-06
-3.15993e-06
4.73144e-06
-4.58819e-06
4.09076e-06
-5.69395e-06
3.18317e-06
-6.11992e-06
2.20343e-06
-5.75842e-06
1.34768e-06
-4.79646e-06
8.37074e-07
-3.76058e-06
7.01795e-07
-2.43201e-06
7.84668e-07
-1.15762e-06
9.04393e-07
-1.21586e-07
9.85841e-07
8.34049e-07
9.85669e-07
1.7268e-06
8.79066e-07
2.56629e-06
6.591e-07
3.32358e-06
3.48593e-07
3.95188e-06
2.46146e-09
4.39728e-06
-3.06613e-07
4.6013e-06
-4.90547e-07
4.465e-06
-5.13823e-07
3.99161e-06
-4.01604e-07
3.22877e-06
-2.2609e-07
2.28493e-06
-7.01568e-08
1.30416e-06
4.13565e-07
5.19854e-08
6.1186e-09
2.42308e-07
1.83951e-08
6.17787e-07
2.71598e-08
1.20664e-06
1.2016e-08
1.99261e-06
-6.78718e-08
2.907e-06
-2.81852e-07
3.82739e-06
-6.98151e-07
4.56231e-06
-1.32492e-06
4.94273e-06
-2.13417e-06
4.83487e-06
-3.05207e-06
4.17786e-06
-3.93118e-06
3.00079e-06
-4.51689e-06
1.42504e-06
-4.54416e-06
-2.216e-07
-4.11178e-06
-1.58364e-06
-3.43442e-06
-2.49051e-06
-2.85372e-06
-2.91651e-06
-2.00601e-06
-3.02066e-06
-1.05347e-06
-2.9808e-06
-1.61443e-07
-2.88998e-06
7.43226e-07
-2.79272e-06
1.62955e-06
-2.72013e-06
2.49369e-06
-2.67438e-06
3.27783e-06
-2.62307e-06
3.90056e-06
-2.51015e-06
4.28436e-06
-2.27032e-06
4.36147e-06
-1.89769e-06
4.09238e-06
-1.41763e-06
3.51154e-06
-8.99689e-07
2.71083e-06
-4.3815e-07
1.82339e-06
-1.19959e-07
9.85974e-07
2.93606e-07
5.87515e-08
-5.26328e-08
2.50224e-07
-1.73078e-07
5.96559e-07
-3.19175e-07
1.10013e-06
-4.91557e-07
1.72822e-06
-6.95959e-07
2.39075e-06
-9.4438e-07
2.94679e-06
-1.25419e-06
3.25156e-06
-1.62969e-06
3.15152e-06
-2.03413e-06
2.49236e-06
-2.3929e-06
1.17461e-06
-2.61344e-06
-7.40484e-07
-2.60179e-06
-2.93095e-06
-2.3537e-06
-5.03157e-06
-2.01117e-06
-6.83839e-06
-1.62759e-06
-8.39109e-06
-1.30102e-06
-9.45767e-06
-9.39432e-07
-9.95161e-06
-5.59526e-07
-1.00197e-05
-9.33176e-08
-9.69165e-06
4.15137e-07
-9.10764e-06
1.04554e-06
-8.35833e-06
1.74438e-06
-7.4907e-06
2.4102e-06
-6.5124e-06
2.92226e-06
-5.45007e-06
3.22204e-06
-4.33595e-06
3.24735e-06
-3.22198e-06
2.97841e-06
-2.17214e-06
2.4617e-06
-1.26279e-06
1.80148e-06
-5.70081e-07
1.13069e-06
-1.45349e-07
5.61242e-07
1.48257e-07
4.12971e-08
-9.393e-08
1.33578e-07
-2.65359e-07
2.53343e-07
-4.38939e-07
3.64676e-07
-6.0289e-07
4.09942e-07
-7.41225e-07
3.0987e-07
-8.44308e-07
-3.43277e-08
-9.09991e-07
-7.33355e-07
-9.30665e-07
-1.8922e-06
-8.75287e-07
-3.57879e-06
-7.06316e-07
-5.78197e-06
-4.10259e-07
-8.36452e-06
-1.92412e-08
-1.11049e-05
3.86661e-07
-1.38481e-05
7.32104e-07
-1.64385e-05
9.6277e-07
-1.87291e-05
9.89539e-07
-2.02477e-05
5.79212e-07
-2.08203e-05
1.30476e-08
-2.04473e-05
-4.66254e-07
-1.93274e-05
-7.04859e-07
-1.75925e-05
-6.89299e-07
-1.53897e-05
-4.58457e-07
-1.2915e-05
-6.44489e-08
-1.02795e-05
2.86697e-07
-7.69073e-06
6.333e-07
-5.34369e-06
9.00308e-07
-3.39388e-06
1.0286e-06
-1.92486e-06
9.92687e-07
-9.33366e-07
8.09983e-07
-3.48354e-07
5.45674e-07
-7.02651e-08
2.83152e-07
7.79916e-08
-1.27624e-07
3.36938e-08
-5.0101e-07
1.08027e-07
-1.14031e-06
2.00364e-07
-2.05612e-06
3.12917e-07
-3.24683e-06
4.49487e-07
-4.70691e-06
6.15769e-07
-6.4315e-06
8.14601e-07
-8.40547e-06
1.0433e-06
-1.05774e-05
1.29669e-06
-1.28545e-05
1.57073e-06
-1.51358e-05
1.87103e-06
-1.73505e-05
2.19549e-06
-1.9488e-05
2.52416e-06
-2.15861e-05
2.83017e-06
-2.36472e-05
3.02386e-06
-2.55783e-05
2.92064e-06
-2.68877e-05
1.88868e-06
-2.71807e-05
3.06021e-07
-2.66611e-05
-9.85856e-07
-2.53662e-05
-1.99979e-06
-2.33195e-05
-2.73597e-06
-2.0581e-05
-3.19693e-06
-1.72582e-05
-3.38729e-06
-1.36674e-05
-3.30404e-06
-1.00673e-05
-2.96682e-06
-6.74962e-06
-2.41739e-06
-3.99057e-06
-1.73045e-06
-1.98037e-06
-1.01751e-06
-7.56407e-07
-4.13981e-07
-1.7508e-07
-3.56528e-08
-3.56508e-09
1.11637e-07
7.44266e-08
-1.29945e-07
1.63638e-07
-5.23148e-07
5.01231e-07
-1.1894e-06
8.66611e-07
-2.10906e-06
1.23258e-06
-3.23799e-06
1.57841e-06
-4.52226e-06
1.90004e-06
-5.91633e-06
2.20867e-06
-7.39254e-06
2.51951e-06
-8.93806e-06
2.84221e-06
-1.05471e-05
3.17977e-06
-1.22068e-05
3.53078e-06
-1.39003e-05
3.88895e-06
-1.56122e-05
4.2361e-06
-1.73109e-05
4.52881e-06
-1.89539e-05
4.66686e-06
-2.04746e-05
4.44133e-06
-2.15421e-05
2.95622e-06
-2.1956e-05
7.19896e-07
-2.17884e-05
-1.15347e-06
-2.11426e-05
-2.64562e-06
-2.00353e-05
-3.84327e-06
-1.84576e-05
-4.77458e-06
-1.64212e-05
-5.42374e-06
-1.39809e-05
-5.74434e-06
-1.12555e-05
-5.69217e-06
-8.42649e-06
-5.24641e-06
-5.72335e-06
-4.4336e-06
-3.39633e-06
-3.34453e-06
-1.65877e-06
-2.15154e-06
-6.01437e-07
-1.09298e-06
-1.14509e-07
-3.75291e-07
-4.00823e-08
-7.55121e-08
2.3915e-07
-3.00777e-07
7.26496e-07
-6.86955e-07
1.25279e-06
-1.23723e-06
1.78285e-06
-1.94306e-06
2.28425e-06
-2.78444e-06
2.74142e-06
-3.73388e-06
3.15811e-06
-4.76238e-06
3.54801e-06
-5.84376e-06
3.92359e-06
-6.95569e-06
4.2917e-06
-8.07847e-06
4.65356e-06
-9.19367e-06
5.00415e-06
-1.0284e-05
5.32639e-06
-1.13308e-05
5.57562e-06
-1.23134e-05
5.64943e-06
-1.32056e-05
5.33355e-06
-1.38689e-05
3.61955e-06
-1.42388e-05
1.08976e-06
-1.43524e-05
-1.03987e-06
-1.42876e-05
-2.71038e-06
-1.405e-05
-4.0809e-06
-1.35747e-05
-5.24985e-06
-1.27829e-05
-6.21549e-06
-1.16201e-05
-6.90716e-06
-1.00784e-05
-7.23389e-06
-8.21646e-06
-7.10836e-06
-6.16006e-06
-6.49e-06
-4.10189e-06
-5.4027e-06
-2.28487e-06
-3.96856e-06
-9.48411e-07
-2.42944e-06
-2.10217e-07
-1.11348e-06
-2.503e-07
-2.2469e-08
2.61619e-07
-1.07389e-07
8.11416e-07
-2.79261e-07
1.42466e-06
-5.57119e-07
2.06071e-06
-9.47097e-07
2.67423e-06
-1.43933e-06
3.23366e-06
-2.01124e-06
3.73002e-06
-2.63469e-06
4.17145e-06
-3.28171e-06
4.57062e-06
-3.92667e-06
4.93666e-06
-4.54686e-06
5.27375e-06
-5.12288e-06
5.58017e-06
-5.63823e-06
5.84174e-06
-6.08049e-06
6.01788e-06
-6.44092e-06
6.00987e-06
-6.70862e-06
5.60126e-06
-6.89347e-06
3.80439e-06
-7.08787e-06
1.28415e-06
-7.31088e-06
-8.16856e-07
-7.59069e-06
-2.43056e-06
-7.92524e-06
-3.74636e-06
-8.22764e-06
-4.94746e-06
-8.37496e-06
-6.06817e-06
-8.25082e-06
-7.0313e-06
-7.75073e-06
-7.73397e-06
-6.83604e-06
-8.02304e-06
-5.54144e-06
-7.78461e-06
-3.99429e-06
-6.94985e-06
-2.41234e-06
-5.55051e-06
-1.08232e-06
-3.75947e-06
-2.57899e-07
-1.93791e-06
-5.08199e-07
6.57923e-09
2.5504e-07
6.3294e-09
8.11666e-07
-2.64199e-08
1.45741e-06
-1.17347e-07
2.15164e-06
-2.83005e-07
2.83989e-06
-5.22439e-07
3.47309e-06
-8.15902e-07
4.02348e-06
-1.13229e-06
4.48784e-06
-1.44085e-06
4.87918e-06
-1.7155e-06
5.21131e-06
-1.9361e-06
5.49435e-06
-2.0882e-06
5.73227e-06
-2.1616e-06
5.91514e-06
-2.15035e-06
6.00664e-06
-2.05711e-06
5.91662e-06
-1.87803e-06
5.42218e-06
-1.68692e-06
3.61328e-06
-1.68126e-06
1.27849e-06
-1.9233e-06
-5.74809e-07
-2.34758e-06
-2.00629e-06
-2.92645e-06
-3.16749e-06
-3.60451e-06
-4.26939e-06
-4.27975e-06
-5.39293e-06
-4.84091e-06
-6.47015e-06
-5.11974e-06
-7.45513e-06
-5.00894e-06
-8.13385e-06
-4.45361e-06
-8.33994e-06
-3.4997e-06
-7.90376e-06
-2.29855e-06
-6.75166e-06
-1.11839e-06
-4.93962e-06
-2.86439e-07
-2.76985e-06
-7.94638e-07
1.70519e-08
2.37988e-07
5.29459e-08
7.75772e-07
8.91558e-08
1.4212e-06
1.04024e-07
2.13677e-06
8.03645e-08
2.86355e-06
1.50908e-08
3.53836e-06
-7.59976e-08
4.11457e-06
-1.64151e-07
4.57599e-06
-2.18874e-07
4.9339e-06
-2.16352e-07
5.20879e-06
-1.4199e-07
5.41999e-06
1.06194e-08
5.57966e-06
2.51862e-07
5.6739e-06
5.69428e-07
5.68908e-06
9.5268e-07
5.53337e-06
1.38701e-06
4.98785e-06
1.7276e-06
3.27269e-06
1.78219e-06
1.22391e-06
1.5426e-06
-3.3522e-07
1.09431e-06
-1.558e-06
4.90581e-07
-2.56375e-06
-2.49897e-07
-3.52892e-06
-1.08681e-06
-4.55602e-06
-1.95195e-06
-5.605e-06
-2.68865e-06
-6.71844e-06
-3.1599e-06
-7.66259e-06
-3.219e-06
-8.28084e-06
-2.8277e-06
-8.29507e-06
-2.04881e-06
-7.53054e-06
-1.09177e-06
-5.89667e-06
-3.02699e-07
-3.55892e-06
-1.09734e-06
1.61794e-08
2.21809e-07
5.60308e-08
7.35921e-07
1.09748e-07
1.36748e-06
1.65797e-07
2.08072e-06
2.15866e-07
2.81348e-06
2.61213e-07
3.49302e-06
3.1549e-07
4.0603e-06
4.01521e-07
4.48996e-06
5.42979e-07
4.79244e-06
7.56003e-07
4.99576e-06
1.04753e-06
5.12846e-06
1.41794e-06
5.20924e-06
1.85687e-06
5.23497e-06
2.35736e-06
5.18859e-06
2.89832e-06
4.99241e-06
3.43908e-06
4.44708e-06
3.78886e-06
2.92291e-06
3.81165e-06
1.20111e-06
3.56274e-06
-8.63147e-08
3.11942e-06
-1.11468e-06
2.55106e-06
-1.99539e-06
1.88418e-06
-2.86203e-06
1.10627e-06
-3.77811e-06
2.46403e-07
-4.74514e-06
-6.56881e-07
-5.81515e-06
-1.47795e-06
-6.84151e-06
-1.99581e-06
-7.76299e-06
-2.09395e-06
-8.19693e-06
-1.73109e-06
-7.8934e-06
-1.03211e-06
-6.59565e-06
-3.16757e-07
-4.27428e-06
-1.41409e-06
6.51753e-09
2.15292e-07
2.48832e-08
7.17555e-07
5.84816e-08
1.33389e-06
1.12871e-07
2.02633e-06
1.93078e-07
2.73327e-06
3.06708e-07
3.37939e-06
4.67208e-07
3.8998e-06
6.89416e-07
4.26775e-06
9.83495e-07
4.49836e-06
1.35247e-06
4.62679e-06
1.79354e-06
4.68739e-06
2.29986e-06
4.70292e-06
2.85912e-06
4.67571e-06
3.45796e-06
4.58975e-06
4.07015e-06
4.38022e-06
4.6381e-06
3.87913e-06
4.97569e-06
2.58532e-06
5.00677e-06
1.17004e-06
4.79002e-06
1.30432e-07
4.38484e-06
-7.09499e-07
3.85569e-06
-1.46625e-06
3.23145e-06
-2.23779e-06
2.52701e-06
-3.07367e-06
1.76467e-06
-3.98279e-06
9.06659e-07
-4.95714e-06
4.6415e-09
-5.9395e-06
-8.30295e-07
-6.92805e-06
-1.33783e-06
-7.68939e-06
-1.37133e-06
-7.8599e-06
-9.51917e-07
-7.01506e-06
-3.35886e-07
-4.89031e-06
-1.74998e-06
-1.23154e-08
2.27607e-07
-3.84771e-08
7.43717e-07
-5.38012e-08
1.34921e-06
-2.72101e-08
1.99974e-06
6.27743e-08
2.64329e-06
2.25523e-07
3.21664e-06
4.70518e-07
3.6548e-06
8.01987e-07
3.93628e-06
1.21335e-06
4.087e-06
1.6939e-06
4.14624e-06
2.23292e-06
4.14837e-06
2.82025e-06
4.11559e-06
3.44377e-06
4.05219e-06
4.08905e-06
3.94447e-06
4.72861e-06
3.74067e-06
5.30124e-06
3.3065e-06
5.642e-06
2.24456e-06
5.70718e-06
1.10486e-06
5.5569e-06
2.80717e-07
5.24074e-06
-3.93346e-07
4.80275e-06
-1.02826e-06
4.2609e-06
-1.69593e-06
3.62303e-06
-2.43581e-06
2.89659e-06
-3.25636e-06
2.08297e-06
-4.14352e-06
1.20689e-06
-5.06341e-06
2.68331e-07
-5.9895e-06
-5.48725e-07
-6.87234e-06
-9.63546e-07
-7.44508e-06
-8.46856e-07
-7.13175e-06
-3.61458e-07
-5.37571e-06
-2.11144e-06
-4.51202e-08
2.72727e-07
-1.38992e-07
8.37588e-07
-2.20485e-07
1.4307e-06
-2.2987e-07
2.00913e-06
-1.31814e-07
2.54523e-06
7.95043e-08
3.00532e-06
4.02029e-07
3.33228e-06
8.24797e-07
3.51352e-06
1.32526e-06
3.58654e-06
1.88307e-06
3.58843e-06
2.48395e-06
3.54749e-06
3.11794e-06
3.48159e-06
3.7754e-06
3.39473e-06
4.44394e-06
3.27593e-06
5.09864e-06
3.08597e-06
5.68302e-06
2.72212e-06
6.05259e-06
1.87498e-06
6.17715e-06
9.80299e-07
6.1165e-06
3.41367e-07
5.91184e-06
-1.88684e-07
5.58798e-06
-7.04401e-07
5.14914e-06
-1.25709e-06
4.59149e-06
-1.87815e-06
3.91234e-06
-2.57721e-06
3.11529e-06
-3.34647e-06
2.21914e-06
-4.16726e-06
1.2531e-06
-5.02346e-06
2.76004e-07
-5.89524e-06
-4.81831e-07
-6.68724e-06
-6.98547e-07
-6.91503e-06
-3.86452e-07
-5.6878e-06
-2.49789e-06
-1.02106e-07
3.74833e-07
-2.84922e-07
1.0204e-06
-4.30086e-07
1.57587e-06
-4.57423e-07
2.03646e-06
-3.34532e-07
2.42234e-06
-6.39063e-08
2.73469e-06
3.39144e-07
2.92923e-06
8.42938e-07
3.00972e-06
1.41328e-06
3.0162e-06
2.02744e-06
2.97427e-06
2.67209e-06
2.90284e-06
3.33945e-06
2.81424e-06
4.02275e-06
2.71143e-06
4.71222e-06
2.58646e-06
5.38666e-06
2.41153e-06
5.99636e-06
2.11243e-06
6.41034e-06
1.46101e-06
6.60323e-06
7.87401e-07
6.63326e-06
3.11344e-07
6.53326e-06
-8.86841e-08
6.31456e-06
-4.85708e-07
5.97215e-06
-9.14681e-07
5.49422e-06
-1.40021e-06
4.86983e-06
-1.95282e-06
4.09608e-06
-2.57272e-06
3.1855e-06
-3.25668e-06
2.16851e-06
-4.00646e-06
1.10235e-06
-4.82908e-06
1.10737e-07
-5.69563e-06
-4.73028e-07
-6.33127e-06
-3.92357e-07
-5.76847e-06
-2.89025e-06
-1.94025e-07
5.68858e-07
-4.7197e-07
1.29835e-06
-6.4625e-07
1.75015e-06
-6.44148e-07
2.03436e-06
-4.56787e-07
2.23498e-06
-1.00315e-07
2.37822e-06
3.93826e-07
2.43508e-06
9.75016e-07
2.42853e-06
1.60772e-06
2.38349e-06
2.27271e-06
2.30928e-06
2.95893e-06
2.21663e-06
3.6599e-06
2.11326e-06
4.3699e-06
2.00143e-06
5.07998e-06
1.87637e-06
5.77149e-06
1.72002e-06
6.40032e-06
1.48359e-06
6.84574e-06
1.01558e-06
7.08677e-06
5.46376e-07
7.18113e-06
2.1698e-07
7.15422e-06
-6.17674e-08
7.00936e-06
-3.40847e-07
6.73886e-06
-6.44181e-07
6.3283e-06
-9.89663e-07
5.76207e-06
-1.38659e-06
5.0296e-06
-1.84025e-06
4.13215e-06
-2.35924e-06
3.08866e-06
-2.96297e-06
1.94381e-06
-3.68424e-06
7.94579e-07
-4.5464e-06
-1.15337e-07
-5.42135e-06
-3.48245e-07
-5.53557e-06
-3.23849e-06
-3.1629e-07
8.85148e-07
-6.52295e-07
1.63435e-06
-7.63595e-07
1.86145e-06
-6.43109e-07
1.91388e-06
-3.24346e-07
1.91621e-06
1.60432e-07
1.89344e-06
7.57564e-07
1.83795e-06
1.41473e-06
1.77136e-06
2.10841e-06
1.68981e-06
2.82181e-06
1.59588e-06
3.54396e-06
1.49447e-06
4.2674e-06
1.38983e-06
4.9852e-06
1.28364e-06
5.68801e-06
1.17356e-06
6.35909e-06
1.04895e-06
6.96072e-06
8.81959e-07
7.38846e-06
5.87843e-07
7.63043e-06
3.0441e-07
7.74194e-06
1.05468e-07
7.74311e-06
-6.29304e-08
7.6345e-06
-2.32243e-07
7.4094e-06
-4.19082e-07
7.05408e-06
-6.34342e-07
6.55171e-06
-8.84217e-07
5.88631e-06
-1.17485e-06
5.04666e-06
-1.51959e-06
4.03141e-06
-1.94772e-06
2.85924e-06
-2.51208e-06
1.59414e-06
-3.28129e-06
4.16884e-07
-4.2441e-06
-2.11749e-07
-4.90693e-06
-3.45024e-06
-4.41734e-07
1.32688e-06
-6.68866e-07
1.86149e-06
-5.203e-07
1.71288e-06
-1.34595e-07
1.52817e-06
4.00099e-07
1.38152e-06
1.0329e-06
1.26064e-06
1.72064e-06
1.15021e-06
2.43869e-06
1.05331e-06
3.16709e-06
9.61415e-07
3.89077e-06
8.72199e-07
4.59884e-06
7.86402e-07
5.28341e-06
7.05257e-07
5.93793e-06
6.29114e-07
6.55513e-06
5.5636e-07
7.12305e-06
4.81024e-07
7.61481e-06
3.90199e-07
7.95443e-06
2.4823e-07
8.14186e-06
1.16974e-07
8.22328e-06
2.40458e-08
8.21486e-06
-5.45039e-08
8.11725e-06
-1.34639e-07
7.92441e-06
-2.26237e-07
7.62411e-06
-3.34047e-07
7.20079e-06
-4.6089e-07
6.63691e-06
-6.1097e-07
5.91287e-06
-7.95556e-07
5.00676e-06
-1.04161e-06
3.89807e-06
-1.40338e-06
2.58854e-06
-1.97176e-06
1.18718e-06
-2.84274e-06
1.15515e-07
-3.83527e-06
-3.33472e-06
-3.79555e-07
1.70644e-06
1.49729e-08
1.46696e-06
7.32885e-07
9.94969e-07
1.46498e-06
7.96074e-07
2.19359e-06
6.52914e-07
2.91933e-06
5.34903e-07
3.62693e-06
4.42609e-07
4.30843e-06
3.71814e-07
4.95551e-06
3.14331e-07
5.56142e-06
2.6629e-07
6.1219e-06
2.2592e-07
6.63511e-06
1.92044e-07
7.10073e-06
1.63499e-07
7.51835e-06
1.38742e-07
7.8843e-06
1.15067e-07
8.18585e-06
8.86559e-08
8.38251e-06
5.15672e-08
8.48117e-06
1.83102e-08
8.51086e-06
-5.63973e-09
8.48236e-06
-2.60097e-08
8.39587e-06
-4.81394e-08
8.24481e-06
-7.51772e-08
8.0189e-06
-1.08141e-07
7.70569e-06
-1.47678e-07
7.29016e-06
-1.95439e-07
6.75147e-06
-2.56868e-07
6.05644e-06
-3.46584e-07
5.15112e-06
-4.98051e-07
3.95712e-06
-7.77758e-07
2.41182e-06
-1.29744e-06
7.43575e-07
-2.16703e-06
-2.59115e-06
1.70644e-06
3.17339e-06
4.16836e-06
4.96444e-06
5.61735e-06
6.15225e-06
6.59486e-06
6.96668e-06
7.28101e-06
7.5473e-06
7.77322e-06
7.96526e-06
8.12876e-06
8.2675e-06
8.38257e-06
8.47123e-06
8.52279e-06
8.54111e-06
8.53547e-06
8.50946e-06
8.46132e-06
8.38614e-06
8.278e-06
8.13032e-06
7.93488e-06
7.67801e-06
7.33143e-06
6.83338e-06
6.05562e-06
4.75818e-06
2.59115e-06
)
;

boundaryField
{
    movingWall
    {
        type            calculated;
        value           uniform 0;
    }
    fixedWalls
    {
        type            calculated;
        value           uniform 0;
    }
    floor
    {
        type            calculated;
        value           uniform 0;
    }
    frontAndBack
    {
        type            empty;
        value           nonuniform List<scalar> 0();
    }
}


// ************************************************************************* //
