/*--------------------------------*- C++ -*----------------------------------*\
| =========                 |                                                 |
| \\      /  F ield         | OpenFOAM: The Open Source CFD Toolbox           |
|  \\    /   O peration     | Version:  2212                                  |
|   \\  /    A nd           | Website:  www.openfoam.com                      |
|    \\/     M anipulation  |                                                 |
\*---------------------------------------------------------------------------*/
FoamFile
{
    version     2.0;
    format      ascii;
    arch        "LSB;label=64;scalar=64";
    class       volScalarField;
    location    "900";
    object      Sch4;
}
// * * * * * * * * * * * * * * * * * * * * * * * * * * * * * * * * * * * * * //

dimensions      [1 -3 0 0 0 0 0];

internalField   nonuniform List<scalar> 
1024
(
0.0366753
0.03668
0.0366912
0.0367111
0.0367419
0.0367847
0.0368391
0.0369024
0.0369708
0.0370397
0.0371059
0.0371656
0.0372126
0.0372388
0.0372367
0.0372006
0.0371318
0.0370465
0.0369556
0.0368588
0.0367524
0.0366338
0.0365042
0.0363704
0.0362417
0.0361276
0.0360341
0.0359634
0.035914
0.0358827
0.0358653
0.0358582
0.0366754
0.0366802
0.0366916
0.0367119
0.0367433
0.0367868
0.0368418
0.0369054
0.0369738
0.0370427
0.0371089
0.0371687
0.0372158
0.0372417
0.0372391
0.0372023
0.0371332
0.0370479
0.0369574
0.0368613
0.036756
0.0366385
0.0365099
0.0363764
0.0362475
0.0361326
0.0360381
0.0359664
0.0359163
0.0358845
0.0358669
0.0358597
0.0366754
0.0366803
0.0366922
0.0367133
0.0367457
0.0367902
0.036846
0.0369101
0.0369787
0.0370478
0.0371147
0.0371756
0.0372236
0.037249
0.0372446
0.0372058
0.0371353
0.0370498
0.0369601
0.0368656
0.0367626
0.0366476
0.0365211
0.0363887
0.0362595
0.0361432
0.0360468
0.0359732
0.0359215
0.0358886
0.0358705
0.035863
0.036675
0.0366801
0.0366925
0.0367144
0.0367478
0.0367934
0.0368499
0.0369144
0.0369834
0.0370535
0.0371227
0.037187
0.0372375
0.0372622
0.0372542
0.0372107
0.0371368
0.0370503
0.0369614
0.0368694
0.0367701
0.0366595
0.0365367
0.0364065
0.0362774
0.0361594
0.0360603
0.0359839
0.0359299
0.0358955
0.0358765
0.0358688
0.0366736
0.0366789
0.0366916
0.036714
0.036748
0.0367941
0.0368509
0.0369158
0.0369857
0.0370584
0.0371327
0.0372038
0.0372594
0.0372833
0.0372686
0.0372161
0.0371355
0.0370463
0.0369582
0.0368694
0.0367752
0.0366707
0.0365537
0.0364273
0.0362992
0.0361798
0.0360778
0.0359982
0.0359415
0.0359053
0.0358852
0.0358771
0.0366701
0.0366755
0.0366882
0.0367106
0.0367443
0.0367899
0.0368463
0.0369114
0.0369832
0.0370609
0.0371442
0.0372268
0.0372908
0.0373136
0.0372881
0.0372206
0.0371281
0.0370335
0.0369453
0.0368603
0.0367726
0.0366762
0.0365671
0.0364467
0.0363214
0.0362018
0.0360975
0.0360148
0.0359554
0.0359173
0.0358962
0.0358876
0.0366633
0.0366686
0.036681
0.0367025
0.0367349
0.0367788
0.0368339
0.0368991
0.0369743
0.0370603
0.0371576
0.0372573
0.0373333
0.037354
0.0373119
0.037221
0.0371097
0.0370059
0.0369164
0.0368354
0.0367556
0.0366691
0.0365703
0.0364583
0.0363384
0.0362207
0.0361157
0.0360312
0.0359698
0.0359302
0.0359082
0.0358994
0.0366518
0.0366569
0.0366685
0.0366884
0.0367184
0.0367596
0.0368126
0.0368783
0.0369587
0.0370572
0.0371748
0.0372978
0.0373884
0.0374045
0.0373375
0.0372128
0.0370739
0.0369562
0.0368637
0.0367871
0.0367164
0.0366418
0.0365555
0.0364549
0.0363433
0.0362306
0.0361278
0.0360436
0.0359818
0.0359416
0.0359193
0.0359103
0.0366353
0.0366399
0.0366503
0.0366681
0.0366949
0.0367327
0.0367837
0.036851
0.0369399
0.0370566
0.0372016
0.0373535
0.0374592
0.0374643
0.0373611
0.0371896
0.0370133
0.0368764
0.0367792
0.0367073
0.0366473
0.0365866
0.0365154
0.0364289
0.0363291
0.0362251
0.0361281
0.0360475
0.0359876
0.0359484
0.0359264
0.0359175
0.0366174
0.0366211
0.0366297
0.0366449
0.0366686
0.0367036
0.0367539
0.0368261
0.0369291
0.0370717
0.0372517
0.0374349
0.0375506
0.0375326
0.0373776
0.0371448
0.0369213
0.0367605
0.0366571
0.0365902
0.0365423
0.0364976
0.0364438
0.0363744
0.0362899
0.0361988
0.0361119
0.0360384
0.0359832
0.0359465
0.0359257
0.035917
0.0366145
0.0366167
0.0366227
0.0366347
0.0366558
0.0366902
0.0367445
0.0368284
0.0369542
0.0371314
0.0373501
0.0375594
0.0376702
0.0376088
0.037383
0.0370755
0.0367977
0.0366099
0.0364986
0.0364361
0.0364004
0.0363727
0.036338
0.0362881
0.0362223
0.036148
0.0360751
0.0360123
0.0359642
0.0359315
0.0359123
0.035904
0.0366724
0.0366728
0.0366757
0.0366849
0.0367051
0.0367435
0.0368092
0.0369147
0.0370726
0.0372873
0.037536
0.0377497
0.0378253
0.0376925
0.0373788
0.0369918
0.0366608
0.0364453
0.0363224
0.0362592
0.0362312
0.0362174
0.0362007
0.0361709
0.0361258
0.036071
0.0360149
0.035965
0.0359255
0.0358975
0.0358802
0.0358723
0.0368789
0.0368789
0.0368818
0.0368921
0.036917
0.036966
0.0370504
0.0371824
0.0373694
0.0376047
0.0378499
0.038022
0.0380181
0.0377879
0.0373868
0.036939
0.0365717
0.03633
0.036184
0.0361027
0.0360648
0.036051
0.0360433
0.0360289
0.0360028
0.0359674
0.0359284
0.0358914
0.0358603
0.0358367
0.0358214
0.0358141
0.037332
0.0373351
0.0373443
0.0373644
0.0374023
0.037467
0.0375684
0.0377137
0.0379014
0.0381121
0.0382955
0.0383684
0.0382502
0.0379298
0.0374889
0.0370435
0.0366817
0.0364165
0.0362206
0.0360783
0.035983
0.0359264
0.0358953
0.0358756
0.0358566
0.0358338
0.0358081
0.0357829
0.0357617
0.0357465
0.0357374
0.0357336
0.038035
0.0380431
0.038062
0.038095
0.0381465
0.0382216
0.0383248
0.038456
0.0386049
0.0387436
0.0388223
0.0387798
0.0385835
0.0382689
0.0379186
0.0375991
0.0373252
0.0370656
0.0368009
0.0365416
0.0363007
0.0360962
0.0359382
0.0358274
0.0357572
0.0357201
0.0357095
0.0357191
0.0357418
0.0357693
0.0357929
0.0358063
0.0388214
0.0388323
0.0388562
0.0388956
0.0389528
0.0390301
0.0391274
0.0392393
0.0393505
0.0394346
0.0394614
0.039416
0.0393199
0.0392273
0.0391883
0.0392127
0.0392471
0.0392029
0.0390551
0.0388154
0.0385052
0.0381631
0.0378276
0.0375381
0.0373059
0.0371472
0.0370669
0.0370571
0.0370972
0.0371588
0.0372149
0.0372468
0.0394397
0.0394514
0.0394791
0.0395278
0.0396029
0.0397083
0.0398445
0.0400061
0.0401822
0.0403627
0.0405479
0.0407567
0.0410238
0.0413888
0.0418818
0.0425134
0.0432129
0.0438219
0.0442567
0.0445211
0.0446239
0.0445835
0.0444231
0.0441734
0.0438517
0.043495
0.0431437
0.0428385
0.0426101
0.0424688
0.042401
0.042381
0.0398049
0.0398168
0.0398477
0.0399065
0.0400032
0.0401471
0.0403439
0.0405938
0.0408931
0.0412399
0.0416417
0.0421193
0.0427026
0.0434212
0.0442983
0.0453485
0.0464877
0.0475276
0.0483814
0.0490825
0.04964
0.050051
0.0503071
0.0504005
0.0503319
0.050117
0.0497904
0.0494067
0.0490336
0.0487333
0.0485412
0.048458
0.0400099
0.0400218
0.0400534
0.0401151
0.0402191
0.0403784
0.0406035
0.0409001
0.0412686
0.0417078
0.0422213
0.0428216
0.0435269
0.0443528
0.0453045
0.0463711
0.04744
0.0483449
0.0490786
0.0497237
0.0503195
0.0508726
0.051368
0.0517792
0.0520782
0.052246
0.0522798
0.0521987
0.0520439
0.0518718
0.0517358
0.0516665
0.0401237
0.0401353
0.0401658
0.0402252
0.0403259
0.0404818
0.0407055
0.0410057
0.0413852
0.0418426
0.0423764
0.0429899
0.0436906
0.044483
0.0453601
0.0462938
0.0471636
0.0478457
0.0483961
0.0489272
0.0494952
0.0501097
0.0507465
0.0513597
0.0518982
0.0523227
0.0526142
0.0527757
0.05283
0.0528147
0.0527738
0.052744
0.0401879
0.0401982
0.0402253
0.0402785
0.0403693
0.040511
0.0407165
0.0409955
0.0413517
0.0417834
0.0422866
0.0428589
0.0435009
0.0442128
0.0449854
0.0457907
0.0465225
0.0470918
0.0475695
0.0480654
0.0486425
0.0493193
0.0500757
0.050857
0.0515894
0.0522075
0.0526716
0.0529747
0.0531373
0.0531979
0.0532021
0.053191
0.0402484
0.0402552
0.0402749
0.0403165
0.0403913
0.040512
0.040691
0.0409378
0.0412565
0.0416459
0.0421015
0.042619
0.0431967
0.0438341
0.0445257
0.0452534
0.0459338
0.046495
0.046989
0.0475028
0.0480948
0.0487936
0.0495952
0.0504589
0.0513125
0.0520768
0.052688
0.0531166
0.0533708
0.0534877
0.0535189
0.0535159
0.0403659
0.0403653
0.0403708
0.0403922
0.0404425
0.0405354
0.0406838
0.040897
0.0411796
0.0415313
0.0419485
0.0424272
0.042965
0.0435617
0.0442156
0.0449198
0.045611
0.0462179
0.0467635
0.0473126
0.0479159
0.0486072
0.0493969
0.0502636
0.0511538
0.0519929
0.0527039
0.0532344
0.0535721
0.0537436
0.0538009
0.0538046
0.0406151
0.040602
0.0405838
0.0405741
0.0405901
0.0406498
0.0407683
0.0409564
0.0412191
0.0415561
0.041964
0.0424376
0.0429731
0.0435686
0.0442238
0.0449402
0.0456662
0.0463232
0.0469111
0.0474809
0.0480775
0.0487369
0.0494784
0.0502954
0.0511543
0.0519969
0.0527504
0.0533477
0.053753
0.0539749
0.0540589
0.0540698
0.0410718
0.0410406
0.0409904
0.0409419
0.0409202
0.04095
0.0410511
0.0412357
0.0415075
0.0418635
0.0422968
0.0427985
0.0433609
0.043979
0.0446517
0.045385
0.0461333
0.0468117
0.0474088
0.0479682
0.0485311
0.0491329
0.0497977
0.0505305
0.0513137
0.052106
0.0528475
0.0534699
0.0539201
0.0541844
0.0542946
0.0543137
0.0417975
0.041744
0.0416599
0.041578
0.0415328
0.0415549
0.0416672
0.0418805
0.042193
0.0425952
0.0430739
0.0436153
0.0442078
0.0448435
0.0455201
0.0462458
0.0469786
0.0476352
0.0482018
0.0487183
0.0492219
0.0497454
0.0503138
0.0509387
0.0516156
0.0523198
0.053006
0.053613
0.0540802
0.0543745
0.0545083
0.0545364
0.042832
0.0427558
0.0426497
0.0425621
0.0425321
0.0425881
0.0427489
0.0430182
0.0433856
0.043835
0.0443487
0.04491
0.0455057
0.0461272
0.046772
0.0474488
0.0481207
0.0487133
0.0492157
0.0496637
0.0500902
0.0505232
0.0509854
0.0514913
0.0520443
0.0526341
0.0532316
0.0537872
0.0542414
0.0545483
0.0547005
0.054738
0.0441976
0.0441064
0.0440109
0.0439687
0.0440074
0.0441393
0.044371
0.0446964
0.0451001
0.0455648
0.0460732
0.0466101
0.0471636
0.0477265
0.048297
0.0488834
0.0494555
0.0499528
0.0503684
0.0507329
0.0510733
0.051412
0.051768
0.0521548
0.0525798
0.053042
0.0535271
0.0540012
0.0544129
0.0547111
0.0548724
0.0549184
0.0459157
0.0458309
0.0457998
0.0458587
0.0460014
0.0462175
0.0465028
0.0468472
0.0472389
0.0476659
0.0481157
0.0485772
0.049042
0.0495053
0.0499662
0.0504316
0.050879
0.0512635
0.0515815
0.0518568
0.05211
0.0523578
0.0526145
0.0528909
0.0531947
0.0535294
0.053891
0.0542614
0.0546032
0.0548693
0.0550264
0.0550779
0.0480275
0.0479912
0.0480766
0.0482487
0.0484691
0.0487212
0.0490012
0.0493041
0.0496261
0.0499622
0.0503061
0.0506517
0.050994
0.0513304
0.0516605
0.0519895
0.0523023
0.0525689
0.0527879
0.0529757
0.0531463
0.0533111
0.0534795
0.0536592
0.053856
0.054074
0.0543143
0.0545701
0.0548206
0.0550306
0.0551664
0.0552172
0.0506153
0.0506739
0.0508494
0.0510482
0.0512505
0.051452
0.0516541
0.0518575
0.052064
0.0522731
0.0524831
0.0526912
0.0528952
0.0530938
0.0532872
0.0534782
0.0536585
0.0538115
0.0539365
0.0540431
0.0541391
0.0542309
0.0543237
0.0544219
0.0545288
0.0546472
0.0547789
0.0549227
0.0550702
0.0552031
0.0552977
0.0553382
0.0537834
0.0538313
0.0539231
0.0540107
0.0540922
0.0541689
0.0542421
0.0543131
0.0543833
0.0544533
0.0545228
0.0545911
0.0546578
0.0547224
0.0547851
0.0548467
0.0549046
0.0549536
0.0549936
0.0550276
0.0550581
0.055087
0.0551161
0.0551467
0.0551799
0.0552165
0.0552571
0.055302
0.055349
0.0553934
0.0554276
0.0554443
)
;

boundaryField
{
    movingWall
    {
        type            fixedValue;
        value           uniform 0.0555;
    }
    fixedWalls
    {
        type            zeroGradient;
    }
    floor
    {
        type            zeroGradient;
    }
    frontAndBack
    {
        type            empty;
    }
}


// ************************************************************************* //
