/*--------------------------------*- C++ -*----------------------------------*\
| =========                 |                                                 |
| \\      /  F ield         | OpenFOAM: The Open Source CFD Toolbox           |
|  \\    /   O peration     | Version:  2212                                  |
|   \\  /    A nd           | Website:  www.openfoam.com                      |
|    \\/     M anipulation  |                                                 |
\*---------------------------------------------------------------------------*/
FoamFile
{
    version     2.0;
    format      ascii;
    arch        "LSB;label=64;scalar=64";
    class       volScalarField;
    location    "900";
    object      Xli;
}
// * * * * * * * * * * * * * * * * * * * * * * * * * * * * * * * * * * * * * //

dimensions      [1 -3 0 0 0 0 0];

internalField   nonuniform List<scalar> 
1024
(
0.0424438
0.0424441
0.0424448
0.0424461
0.0424481
0.0424508
0.0424543
0.0424584
0.0424628
0.0424671
0.0424712
0.0424748
0.0424775
0.0424788
0.0424782
0.0424754
0.0424705
0.0424646
0.0424584
0.0424519
0.0424447
0.0424365
0.0424275
0.042418
0.0424089
0.0424008
0.0423941
0.042389
0.0423855
0.0423832
0.042382
0.0423814
0.0424438
0.0424441
0.0424448
0.0424461
0.0424481
0.042451
0.0424545
0.0424586
0.042463
0.0424673
0.0424714
0.042475
0.0424777
0.042479
0.0424783
0.0424754
0.0424705
0.0424646
0.0424585
0.042452
0.0424449
0.0424368
0.0424278
0.0424184
0.0424093
0.0424011
0.0423944
0.0423892
0.0423856
0.0423833
0.0423821
0.0423815
0.0424437
0.0424441
0.0424448
0.0424462
0.0424483
0.0424512
0.0424548
0.0424589
0.0424633
0.0424676
0.0424717
0.0424754
0.0424781
0.0424793
0.0424786
0.0424755
0.0424705
0.0424647
0.0424586
0.0424523
0.0424453
0.0424374
0.0424286
0.0424193
0.0424101
0.0424019
0.042395
0.0423897
0.042386
0.0423836
0.0423823
0.0423818
0.0424437
0.042444
0.0424448
0.0424462
0.0424484
0.0424514
0.042455
0.0424591
0.0424635
0.0424679
0.0424722
0.042476
0.0424789
0.04248
0.042479
0.0424756
0.0424704
0.0424645
0.0424585
0.0424524
0.0424457
0.0424381
0.0424296
0.0424205
0.0424114
0.042403
0.0423959
0.0423904
0.0423866
0.0423841
0.0423827
0.0423822
0.0424436
0.0424439
0.0424448
0.0424462
0.0424484
0.0424514
0.0424551
0.0424592
0.0424636
0.0424682
0.0424727
0.042477
0.0424801
0.0424811
0.0424795
0.0424756
0.0424699
0.0424639
0.042458
0.0424521
0.0424458
0.0424387
0.0424307
0.0424219
0.0424129
0.0424044
0.0423971
0.0423914
0.0423874
0.0423848
0.0423834
0.0423828
0.0424433
0.0424437
0.0424445
0.042446
0.0424481
0.0424511
0.0424547
0.0424589
0.0424634
0.0424683
0.0424734
0.0424783
0.0424819
0.0424826
0.0424803
0.0424753
0.0424688
0.0424625
0.0424566
0.0424511
0.0424453
0.0424389
0.0424314
0.0424231
0.0424143
0.0424059
0.0423985
0.0423926
0.0423884
0.0423856
0.0423841
0.0423835
0.0424429
0.0424432
0.042444
0.0424454
0.0424475
0.0424503
0.0424539
0.042458
0.0424628
0.0424682
0.0424742
0.0424801
0.0424843
0.0424847
0.0424811
0.0424744
0.0424667
0.0424598
0.042454
0.0424488
0.0424437
0.042438
0.0424314
0.0424237
0.0424154
0.0424071
0.0423997
0.0423937
0.0423893
0.0423865
0.042385
0.0423843
0.0424421
0.0424424
0.0424432
0.0424445
0.0424464
0.0424491
0.0424525
0.0424567
0.0424618
0.0424679
0.0424752
0.0424825
0.0424875
0.0424873
0.0424817
0.0424727
0.0424632
0.0424554
0.0424495
0.0424448
0.0424404
0.0424357
0.04243
0.0424232
0.0424156
0.0424077
0.0424005
0.0423945
0.0423901
0.0423873
0.0423857
0.0423851
0.0424409
0.0424412
0.0424419
0.0424431
0.0424448
0.0424473
0.0424505
0.0424549
0.0424605
0.0424679
0.0424769
0.042486
0.0424916
0.0424903
0.042482
0.0424696
0.0424576
0.0424487
0.0424426
0.0424384
0.0424349
0.0424313
0.0424268
0.0424211
0.0424143
0.0424071
0.0424004
0.0423947
0.0423905
0.0423877
0.0423862
0.0423855
0.0424397
0.04244
0.0424405
0.0424415
0.0424431
0.0424453
0.0424486
0.0424532
0.0424598
0.0424689
0.0424801
0.0424911
0.042497
0.0424937
0.0424816
0.0424649
0.0424497
0.0424393
0.042433
0.0424292
0.0424268
0.0424244
0.0424213
0.0424169
0.0424113
0.0424051
0.0423991
0.042394
0.0423901
0.0423875
0.042386
0.0423854
0.0424395
0.0424397
0.0424401
0.0424409
0.0424422
0.0424445
0.042448
0.0424534
0.0424616
0.0424729
0.0424865
0.0424989
0.0425041
0.0424975
0.0424802
0.0424583
0.0424395
0.0424274
0.0424207
0.0424175
0.042416
0.042415
0.0424133
0.0424104
0.0424062
0.0424013
0.0423963
0.042392
0.0423886
0.0423863
0.042385
0.0423844
0.0424435
0.0424435
0.0424437
0.0424443
0.0424456
0.0424481
0.0424524
0.0424593
0.0424695
0.0424832
0.0424986
0.0425109
0.0425132
0.0425014
0.042478
0.0424507
0.0424284
0.0424146
0.0424074
0.0424043
0.0424035
0.0424036
0.0424032
0.0424018
0.0423991
0.0423956
0.0423918
0.0423884
0.0423857
0.0423837
0.0423825
0.042382
0.0424575
0.0424575
0.0424577
0.0424583
0.0424599
0.0424631
0.0424686
0.0424772
0.0424892
0.0425039
0.0425187
0.0425277
0.0425244
0.0425058
0.0424766
0.0424453
0.0424208
0.0424054
0.0423968
0.0423926
0.0423913
0.0423915
0.0423919
0.0423915
0.0423902
0.042388
0.0423855
0.042383
0.0423809
0.0423792
0.0423781
0.0423776
0.0424882
0.0424884
0.042489
0.0424903
0.0424927
0.0424968
0.0425033
0.0425124
0.0425241
0.0425367
0.0425468
0.0425488
0.0425376
0.0425132
0.0424816
0.042451
0.0424271
0.0424103
0.0423985
0.0423903
0.0423851
0.0423824
0.0423812
0.0423806
0.0423797
0.0423784
0.0423767
0.042375
0.0423735
0.0423724
0.0423717
0.0423714
0.0425355
0.042536
0.0425372
0.0425392
0.0425424
0.042547
0.0425532
0.042561
0.0425694
0.0425766
0.0425792
0.0425733
0.0425573
0.042534
0.0425092
0.0424875
0.0424697
0.0424532
0.0424366
0.0424204
0.0424054
0.0423927
0.0423829
0.0423761
0.0423718
0.0423695
0.0423688
0.0423693
0.0423707
0.0423723
0.0423738
0.0423746
0.0425877
0.0425884
0.0425898
0.0425921
0.0425954
0.0425997
0.042605
0.0426109
0.0426163
0.0426194
0.0426186
0.0426131
0.0426047
0.0425972
0.0425939
0.0425952
0.0425974
0.0425945
0.0425847
0.042569
0.0425488
0.0425265
0.0425048
0.042486
0.0424709
0.0424606
0.0424554
0.0424547
0.0424572
0.0424612
0.0424648
0.0424668
0.0426282
0.0426289
0.0426304
0.0426331
0.0426372
0.042643
0.0426504
0.0426592
0.0426688
0.0426788
0.0426895
0.042702
0.0427187
0.0427422
0.0427741
0.0428151
0.0428601
0.0428988
0.042926
0.0429421
0.0429477
0.0429443
0.0429332
0.0429166
0.0428955
0.0428723
0.0428496
0.0428299
0.0428152
0.0428061
0.0428017
0.0428005
0.0426529
0.0426535
0.0426553
0.0426586
0.0426642
0.0426725
0.0426841
0.042699
0.0427171
0.0427387
0.0427642
0.042795
0.0428331
0.0428801
0.0429374
0.0430055
0.0430788
0.0431447
0.0431979
0.0432408
0.0432744
0.0432986
0.0433131
0.0433176
0.0433122
0.0432979
0.0432768
0.0432522
0.0432285
0.0432095
0.0431973
0.0431921
0.0426676
0.0426683
0.0426701
0.0426736
0.0426798
0.0426893
0.042703
0.0427212
0.0427443
0.0427723
0.0428056
0.0428449
0.0428914
0.0429459
0.0430084
0.0430779
0.0431468
0.0432038
0.0432487
0.0432869
0.0433214
0.0433529
0.0433808
0.0434039
0.0434205
0.0434296
0.043431
0.0434258
0.0434162
0.0434057
0.0433974
0.0433932
0.0426766
0.0426772
0.042679
0.0426824
0.0426884
0.0426979
0.0427117
0.0427304
0.0427545
0.0427839
0.0428188
0.0428593
0.0429058
0.0429584
0.0430164
0.0430778
0.0431342
0.0431773
0.0432106
0.0432415
0.0432737
0.0433081
0.0433436
0.0433777
0.0434078
0.0434316
0.043448
0.0434573
0.0434606
0.0434599
0.0434578
0.0434561
0.0426823
0.0426829
0.0426844
0.0426875
0.0426929
0.0427016
0.0427143
0.0427318
0.0427546
0.0427825
0.0428155
0.0428534
0.0428962
0.0429437
0.0429951
0.0430483
0.0430961
0.0431322
0.0431613
0.0431903
0.0432233
0.0432616
0.0433042
0.043348
0.043389
0.0434235
0.0434495
0.0434666
0.043476
0.0434797
0.0434802
0.0434797
0.0426876
0.0426879
0.042689
0.0426914
0.0426958
0.0427032
0.0427143
0.0427299
0.0427503
0.0427756
0.0428055
0.0428397
0.0428782
0.0429207
0.0429667
0.0430148
0.0430591
0.0430948
0.0431251
0.0431556
0.0431899
0.04323
0.0432755
0.0433243
0.0433723
0.0434151
0.0434493
0.0434733
0.0434877
0.0434945
0.0434965
0.0434965
0.042696
0.0426959
0.0426962
0.0426973
0.0427003
0.042706
0.0427152
0.0427287
0.0427468
0.0427695
0.0427968
0.0428283
0.0428639
0.0429033
0.0429465
0.0429926
0.0430372
0.0430755
0.0431091
0.0431421
0.0431775
0.0432176
0.0432628
0.0433121
0.0433623
0.0434095
0.0434493
0.043479
0.0434979
0.0435077
0.0435111
0.0435114
0.0427122
0.0427113
0.0427101
0.0427094
0.0427103
0.042714
0.0427214
0.0427333
0.04275
0.0427716
0.042798
0.0428288
0.0428636
0.0429024
0.042945
0.0429912
0.0430376
0.0430788
0.043115
0.0431494
0.0431848
0.0432233
0.0432661
0.0433128
0.0433615
0.043409
0.0434512
0.0434846
0.0435072
0.0435197
0.0435246
0.0435253
0.0427405
0.0427386
0.0427355
0.0427325
0.0427311
0.042733
0.0427393
0.0427509
0.042768
0.0427905
0.042818
0.04285
0.042886
0.0429255
0.0429686
0.0430153
0.0430625
0.0431048
0.0431415
0.0431754
0.043209
0.0432444
0.043283
0.043325
0.0433696
0.0434144
0.043456
0.0434908
0.0435159
0.0435307
0.0435369
0.0435381
0.0427847
0.0427814
0.0427763
0.0427713
0.0427686
0.04277
0.0427769
0.0427901
0.0428095
0.0428346
0.0428645
0.0428984
0.0429357
0.0429758
0.0430185
0.0430642
0.04311
0.0431508
0.0431856
0.0432169
0.0432471
0.043278
0.0433112
0.0433472
0.0433859
0.0434257
0.0434644
0.0434983
0.0435243
0.0435407
0.0435482
0.0435498
0.042847
0.0428424
0.042836
0.0428307
0.0428289
0.0428323
0.0428421
0.0428586
0.0428811
0.0429087
0.0429404
0.0429752
0.0430122
0.0430509
0.0430912
0.0431335
0.0431753
0.0432119
0.0432428
0.04327
0.0432956
0.0433213
0.0433484
0.0433776
0.0434093
0.0434428
0.0434765
0.0435075
0.0435328
0.0435498
0.0435583
0.0435604
0.0429288
0.0429234
0.0429176
0.0429151
0.0429174
0.0429253
0.0429393
0.042959
0.0429835
0.0430118
0.0430429
0.0430759
0.04311
0.0431448
0.0431801
0.0432166
0.043252
0.0432827
0.0433082
0.0433304
0.0433509
0.043371
0.0433919
0.0434144
0.0434388
0.0434651
0.0434925
0.043519
0.0435419
0.0435584
0.0435673
0.0435699
0.0430314
0.0430263
0.0430244
0.0430279
0.0430364
0.0430493
0.0430664
0.0430871
0.0431108
0.0431367
0.043164
0.0431922
0.0432207
0.0432492
0.0432776
0.0433064
0.043334
0.0433577
0.0433772
0.043394
0.0434093
0.0434241
0.0434392
0.0434553
0.0434728
0.0434919
0.0435123
0.0435331
0.0435521
0.0435668
0.0435754
0.0435782
0.043157
0.0431549
0.0431599
0.0431701
0.0431832
0.0431982
0.043215
0.0432331
0.0432525
0.0432728
0.0432936
0.0433146
0.0433356
0.0433562
0.0433765
0.0433968
0.0434161
0.0434325
0.043446
0.0434574
0.0434677
0.0434776
0.0434875
0.043498
0.0435094
0.0435219
0.0435355
0.0435498
0.0435637
0.0435753
0.0435827
0.0435855
0.0433107
0.0433141
0.0433245
0.0433363
0.0433483
0.0433603
0.0433724
0.0433846
0.0433969
0.0434095
0.0434222
0.0434349
0.0434473
0.0434595
0.0434713
0.0434831
0.0434942
0.0435037
0.0435113
0.0435178
0.0435236
0.0435291
0.0435346
0.0435404
0.0435466
0.0435534
0.0435608
0.0435689
0.0435771
0.0435844
0.0435896
0.0435918
0.0434984
0.0435012
0.0435067
0.0435119
0.0435167
0.0435213
0.0435256
0.0435299
0.0435341
0.0435383
0.0435425
0.0435466
0.0435507
0.0435547
0.0435585
0.0435623
0.0435659
0.0435689
0.0435714
0.0435734
0.0435753
0.043577
0.0435787
0.0435805
0.0435824
0.0435845
0.0435869
0.0435894
0.043592
0.0435944
0.0435963
0.0435972
)
;

boundaryField
{
    movingWall
    {
        type            fixedValue;
        value           uniform 0.0436;
    }
    fixedWalls
    {
        type            zeroGradient;
    }
    floor
    {
        type            zeroGradient;
    }
    frontAndBack
    {
        type            empty;
    }
}


// ************************************************************************* //
