/*--------------------------------*- C++ -*----------------------------------*\
| =========                 |                                                 |
| \\      /  F ield         | OpenFOAM: The Open Source CFD Toolbox           |
|  \\    /   O peration     | Version:  2206                                  |
|   \\  /    A nd           | Website:  www.openfoam.com                      |
|    \\/     M anipulation  |                                                 |
\*---------------------------------------------------------------------------*/
FoamFile
{
    version     2.0;
    format      ascii;
    arch        "LSB;label=64;scalar=64";
    class       volScalarField;
    location    "2.2/water";
    object      km;
}
// * * * * * * * * * * * * * * * * * * * * * * * * * * * * * * * * * * * * * //

dimensions      [0 2 -2 0 0 0 0];

internalField   nonuniform List<scalar> 
23300
(
8.58645191305e-06
1.02138995947e-05
1.27463981382e-05
1.63040013402e-05
3.11493380294e-05
8.30688768655e-05
0.000140339587086
0.000193221431058
0.000245440462032
0.000298931745242
0.00035437919394
0.000411668759769
0.000470359665259
0.000529897599528
0.000589706716208
0.000649233339187
0.000707971070329
0.000765475843327
0.000821375991633
0.000875377261135
0.000927265136039
0.00097690295806
0.0010242280279
0.00106924393223
0.00111201176988
0.00115263860087
0.00119126632138
0.00122805921906
0.00126319364742
0.0012968476613
0.00132919393679
0.00136039317243
0.00139059104175
0.00141991531032
0.00144847606026
0.0014763653208
0.00150365912787
0.00153041825886
0.00155669085077
0.00158251323164
0.00160791232737
0.0016329060903
0.00165750535963
0.00168171371061
0.001705528624
0.00172894060541
0.00175193331015
0.00177448117156
0.00179656350274
0.00181816101316
0.0018392459273
0.00185978511498
0.00187974220381
0.00189907754065
0.00191774892197
0.00193571112162
0.00195291644049
0.00196931433134
0.00198485201714
0.00199947432531
0.00201312444774
0.00202574402322
0.0020372740851
0.00204765541909
0.00205682973602
0.00206474032051
0.00207133344357
0.00207655928385
0.00208037354229
0.00208273855054
0.00208362496322
0.00208301287153
0.00208089334346
0.00207726926377
0.00207215640985
0.00206558368846
0.00205759342029
0.00204824066926
0.00203759246066
0.00202572595075
0.00201272631613
0.00199868345299
0.0019836881407
0.00196782674401
0.00195117480022
0.00193378770299
0.0019156853327
0.0018968187296
0.00187700267154
0.00185601264625
0.00183370905741
0.00181001350693
0.00178488820266
0.00175832530877
0.00173034225629
0.00170097911852
0.00167029711581
0.00163837669261
0.00160531562833
0.00157122626099
0.00153623270217
0.00150046724287
0.00146406698619
0.00142716989724
0.00138991138781
0.00135242057272
0.00131481734643
0.00127720932252
0.00123968974892
0.00120233529775
0.00116520472551
0.00112833709212
0.00109175025225
0.00105543781451
0.00101936434463
0.000983455406083
0.000947648523691
0.00091187454085
0.000876037970307
0.000840017151181
0.000803663511171
0.000766799765577
0.000729218433298
0.000690680610477
0.000650916763774
0.000609630353364
0.000566506892992
0.000521230496929
0.000473511766743
0.000423131071939
0.000370004148831
0.000314280354541
0.000256492997283
0.000197798356953
0.000140375815702
8.81000605325e-05
4.72104221518e-05
2.33147218537e-05
1.36583779028e-05
1.10122027103e-05
1.34283611685e-05
1.39618095253e-05
1.53897911244e-05
2.12978670704e-05
4.48348617802e-05
9.06648045039e-05
0.000144685328245
0.000199663566738
0.000254654868478
0.000310317129639
0.000367053686676
0.000424845520992
0.00048339577628
0.000542264820989
0.00060095842506
0.000658981773685
0.000715873426412
0.000771226529748
0.000824702454881
0.00087603831973
0.000925050444601
0.00097163343179
0.00101575629872
0.00105745509699
0.00109682368975
0.00113400226958
0.00116916562125
0.00120251073284
0.0012342458156
0.00126458003207
0.00129371572894
0.00132184195775
0.00134913071147
0.00137573420495
0.00140178440186
0.00142739290361
0.00145265239402
0.00147763776833
0.00150240825681
0.00152700879136
0.00155147204529
0.00157581952474
0.00160006320343
0.00162420619497
0.00164824396779
0.00167216473232
0.00169595052911
0.00171957789905
0.00174300601691
0.00176618197913
0.00178905338749
0.00181156616935
0.00183366403362
0.00185528783006
0.00187637559745
0.00189686229326
0.00191668006685
0.00193575823285
0.00195402373088
0.00197140133231
0.00198781429847
0.00200318483481
0.00201743497244
0.00203048728892
0.00204226603602
0.00205269813592
0.00206171455636
0.00206925155693
0.00207525226191
0.00207966806441
0.00208246026248
0.00208360143097
0.00208307687919
0.00208088569568
0.00207704169226
0.00207157375774
0.00206452591546
0.00205595661594
0.00204593754271
0.00203455145704
0.00202188927949
0.00200804581682
0.00199311410643
0.00197717751493
0.00196029925884
0.00194250850689
0.00192378406104
0.00190403977213
0.00188317189687
0.00186103365561
0.00183750577661
0.00181250326739
0.00178597274334
0.00175788914436
0.00172825365792
0.00169709222304
0.00166445445292
0.00163041221817
0.00159505805517
0.00155850290849
0.00152087360779
0.00148230970888
0.001442960223
0.00140297991098
0.00136252573328
0.00132175313328
0.00128081275771
0.00123984724044
0.00119898860278
0.00115835579959
0.00111805287229
0.00107816714652
0.00103876788854
0.000999904953293
0.000961608279652
0.000923889214941
0.000886723445623
0.000850077950791
0.000813893099439
0.000778080251445
0.000742519187345
0.000707055112817
0.000671495934714
0.000635610092717
0.000599126209972
0.000561735638843
0.000523099974554
0.000482865591453
0.000440688247138
0.000396271177851
0.000349421927294
0.000300135961508
0.000248721821987
0.000195994260541
0.000143577129963
9.4344433222e-05
5.28437842329e-05
2.47452617858e-05
1.24589429717e-05
1.08636254519e-05
4.18421977845e-05
4.45463302993e-05
5.11654319114e-05
6.49372701332e-05
8.97324058256e-05
0.000126960655049
0.000173670478811
0.000225601572354
0.000280218978924
0.000336433047334
0.000393745602471
0.000451793874394
0.000510198817461
0.000568542413228
0.000626386649763
0.00068330011919
0.0007388820905
0.00079278078267
0.000844706472659
0.000894439209253
0.000941832436773
0.000986812192735
0.00102937322508
0.00106957171341
0.00110751621043
0.00114335661783
0.00117727303107
0.00120946421222
0.00124013746946
0.0012694993666
0.00129774873864
0.00132507096646
0.00135163464849
0.00137758925116
0.00140306469204
0.00142817128612
0.00145300101088
0.00147762855164
0.00150211318192
0.00152650005063
0.00155082202892
0.00157510080391
0.00159934842536
0.00162356809921
0.0016477554562
0.00167189921337
0.0016959824621
0.00171998358569
0.00174385397733
0.00176753015121
0.00179095050898
0.00181405311444
0.00183677471267
0.00185904983517
0.00188081061871
0.00190198648158
0.00192250431651
0.00194228849139
0.00196126128035
0.00197934311468
0.00199645322181
0.00201251011441
0.00202743244277
0.00204113972786
0.00205355343791
0.00206459796605
0.00207420192514
0.00208229934192
0.00208883112059
0.00209374636714
0.00209700389705
0.00209857351442
0.00209843733848
0.00209659075775
0.00209304324781
0.00208781862943
0.00208095497387
0.00207250373061
0.00206252825217
0.00205110126533
0.00203830139111
0.00202420818954
0.00200889576321
0.00199242449035
0.00197483141978
0.00195612027755
0.0019362542947
0.0019151565157
0.00189275806448
0.00186898888938
0.00184376678528
0.00181703004374
0.00178874035678
0.00175888364708
0.00172747031367
0.0016945347835
0.0016601347534
0.00162434977288
0.00158727949379
0.00154904126938
0.00150976749676
0.00146960242791
0.00142869890896
0.00138721480154
0.00134530958437
0.00130314088761
0.00126086145222
0.0012186162244
0.00117654002419
0.00113475542855
0.00109337123873
0.00105248112548
0.00101216280374
0.00097247739478
0.000933469456815
0.000895167525766
0.000857570019324
0.000820655104883
0.000784378350878
0.00074867000179
0.000713432271939
0.000678536335825
0.000643819476017
0.000609082588284
0.000574089026197
0.000538565678277
0.000502207998804
0.000464690798456
0.000425687486782
0.000384900897119
0.000342110322166
0.000297241322213
0.000250468460702
0.000202364176495
0.000154102317727
0.000107690382425
6.61279797006e-05
3.34986228326e-05
1.55051373021e-05
1.64535327399e-05
8.99888906446e-05
9.46294829815e-05
0.00010450249188
0.0001211126629
0.000145803106586
0.0001794212466
0.000221219726682
0.000269239287362
0.000321461898461
0.000376368818819
0.000432922697763
0.000490386989705
0.000548182115815
0.00060580770334
0.000662811661366
0.000718783727955
0.000773360083366
0.000826230763859
0.000877146811105
0.000925924694676
0.000972448083091
0.0010166660472
0.0010585887587
0.00109828028712
0.0011358500319
0.00117144258124
0.00120522771492
0.00123739023836
0.00126812125461
0.00129761021714
0.0013260390832
0.00135357750363
0.00138038010003
0.00140658447795
0.0014323109041
0.00145766219507
0.00148272476527
0.00150756941763
0.0015322529088
0.00155681896328
0.00158129984324
0.00160571724223
0.00163008364639
0.00165440302085
0.00167867197477
0.0017028803584
0.00172701241277
0.00175104743344
0.00177494182125
0.00179862933084
0.00182204544681
0.00184512562691
0.00186780446208
0.00189001481989
0.00191168765732
0.00193275169943
0.00195313363253
0.00197275811523
0.00199154821476
0.0020094256603
0.0020263114724
0.00204212642764
0.00205679186889
0.0020702303717
0.00208236673152
0.00209312882009
0.0021024487335
0.00211026380435
0.00211651785948
0.00212116230654
0.00212415738877
0.0021254731907
0.00212509069153
0.00212300244178
0.00211921311976
0.00211373953526
0.00210661030192
0.00209786473763
0.00208755118266
0.00207572428852
0.0020624414553
0.00204775802509
0.00203172157028
0.00201436530892
0.00199570181731
0.00197571839085
0.00195437661953
0.0019316174241
0.00190737123683
0.00188164235311
0.00185440009743
0.00182562020809
0.00179529667646
0.00176344320348
0.00173009386907
0.00169530306972
0.00165914494234
0.00162171199875
0.00158311339354
0.00154347256692
0.00150292470548
0.00146161376573
0.00141968952297
0.00137730439707
0.00133461052483
0.00129175681929
0.0012488864612
0.00120613452562
0.00116362613481
0.00112147479079
0.00107978121874
0.0010386323413
0.000998100674733
0.00095824376122
0.000919103877429
0.000880707525383
0.000843058878002
0.000806139322545
0.000769910976807
0.000734314612601
0.000699267511931
0.000664661008928
0.00063035808904
0.000596191145147
0.000561960639449
0.000527435324467
0.000492355406562
0.000456440155736
0.000419402322455
0.000380972177108
0.000340935200949
0.000299188487293
0.000255822039797
0.000211229468789
0.000166243135226
0.000122265379419
8.13564115566e-05
4.64028479949e-05
2.27690580455e-05
2.7701004683e-05
0.000147900170276
0.000153637603516
0.000165323334172
0.000183291308758
0.000207969824015
0.000239865110493
0.000278769173666
0.000323705037951
0.000373306158336
0.000426216854687
0.000481287953922
0.000537601822789
0.000594427750763
0.000651169954329
0.000707330666848
0.000762489173083
0.000816292654815
0.000868453047266
0.000918746808889
0.000967014432469
0.00101315911154
0.00105714314387
0.00109898282056
0.0011387411779
0.00117651998909
0.00121245063035
0.00124668538899
0.00127938874359
0.00131073007555
0.00134087703162
0.00136999076186
0.00139822192279
0.00142570847721
0.00145257396886
0.00147892723219
0.00150486215094
0.00153045845599
0.00155578221066
0.00158088704121
0.00160581483293
0.00163059700165
0.00165525513607
0.00167980213993
0.00170424274377
0.00172857451273
0.00175278830374
0.00177686926266
0.00180079733805
0.00182454187351
0.00184803609542
0.00187121484792
0.00189401306085
0.00191636509504
0.00193820400853
0.00195946144287
0.00198006734582
0.00199995019362
0.002019037019
0.00203725385743
0.0020545259944
0.00207077857766
0.00208593704011
0.00209992785087
0.00211267908903
0.00212412131491
0.00213418826969
0.00214281783876
0.00214995283453
0.0021555419967
0.00215954077895
0.00216191228361
0.00216262791673
0.00216166808855
0.00215902252963
0.00215469051288
0.00214868054794
0.00214100980956
0.00213170286844
0.00212078997422
0.0021083044908
0.0020942797876
0.0020787453386
0.00206172260544
0.00204322093448
0.00202323470581
0.00200174263281
0.00197871055712
0.00195409742055
0.0019278628929
0.00189997719397
0.00187051715496
0.00183949961299
0.0018069569302
0.00177293727323
0.00173750479162
0.00170073900765
0.00166273411763
0.0016235976298
0.00158344876082
0.00154241633038
0.00150063658586
0.00145825068181
0.00141540226852
0.00137223491844
0.00132888983546
0.00128550356215
0.00124220609494
0.00119911909135
0.00115635452738
0.00111401345603
0.00107218517235
0.00103094641335
0.000990360850253
0.000950478481021
0.000911335106466
0.000872951421424
0.000835329952991
0.000798452105564
0.000762282730391
0.000726768605001
0.000691836863396
0.000657393131477
0.000623319680798
0.000589473628008
0.000555685757801
0.000521760425582
0.000487477637475
0.000452598511663
0.00041687611315
0.000380074040161
0.000341996057996
0.000302530443979
0.000261712579997
0.000219806527265
0.000177399500678
0.00013549528244
9.56100869136e-05
5.99558885753e-05
3.26737830595e-05
4.32946646643e-05
0.00021134580024
0.000217674530439
0.000230096132628
0.000248515438045
0.0002731219695
0.000304084169922
0.000341250423598
0.000384020152723
0.000431439452269
0.000482408546109
0.000535859997824
0.000590851496043
0.000646589684967
0.000702418873386
0.000757800253531
0.000812292797703
0.000865539799786
0.000917259762769
0.000967240616066
0.00101533480004
0.00106145478541
0.0011055674898
0.00114768818936
0.00118787309942
0.00122621183398
0.00126281917937
0.00129782758859
0.00133137974774
0.00136362254706
0.00139470155348
0.00142475714988
0.00145392118518
0.00148231517668
0.00151004875765
0.00153721937969
0.00156391192309
0.00159019925933
0.00161614244914
0.00164179167206
0.00166718662778
0.00169235753814
0.00171732554969
0.00174210366895
0.00176669709116
0.00179110403788
0.00181531604141
0.00183931877287
0.00186309243711
0.00188662374287
0.00190984690517
0.00193269737687
0.00195511059628
0.00197702164223
0.00199836469953
0.00201907305366
0.00203907886171
0.00205831339932
0.0020767070926
0.00209418996125
0.00211069184257
0.00212614297031
0.00214047433691
0.00215361836827
0.00216550938643
0.00217608434885
0.00218528337484
0.00219305051142
0.00219933427368
0.0022040883788
0.00220727222411
0.00220885149735
0.00220879847777
0.00220709238732
0.00220371935554
0.00219867233255
0.0021919505207
0.00218355864495
0.00217350565225
0.00216180317345
0.00214846340137
0.00213349680962
0.00211690954565
0.00209870117918
0.00207886299346
0.0020573778424
0.00203422187831
0.00200936869965
0.00198279489793
0.00195448583395
0.00192443893338
0.00189266331455
0.00185931009562
0.00182444513605
0.00178815157834
0.00175052455535
0.00171166952526
0.00167170166349
0.00163074421865
0.00158892699707
0.00154638453155
0.00150325433263
0.00145967490064
0.00141578392522
0.00137171636147
0.00132760280486
0.00128356784783
0.00123972880125
0.00119619444507
0.00115306414429
0.00111042697778
0.00106836117209
0.00102693347751
0.000986198734978
0.000946199258707
0.000906964216319
0.000868508586886
0.000830831906804
0.000793913798882
0.000757720067367
0.000722200915213
0.000687289883627
0.000652902476602
0.000618934796087
0.000585262176904
0.000551738284105
0.000518194987447
0.000484443886788
0.000450280424317
0.000415492203193
0.000379873405218
0.000343247875866
0.000305503487919
0.000266640031137
0.000226830992586
0.000186497395618
0.000146394814752
0.000107732494971
7.22984854401e-05
4.34543538766e-05
6.24645647651e-05
0.000276968360606
0.000283420144634
0.00029608346931
0.000314765708998
0.000339385063057
0.000369873418728
0.000406020062459
0.00044735781591
0.000493161343312
0.000542539771635
0.000594556624204
0.000648323090407
0.000703049174981
0.000758060535024
0.000812796393346
0.000866799347324
0.000919704144904
0.000971227223776
0.00102115819944
0.00106935207204
0.00111572236775
0.00116023389324
0.00120289575867
0.00124375373847
0.00128288307089
0.00132038094898
0.00135635997513
0.00139094176015
0.00142425190285
0.00145641533436
0.00148755316065
0.0015177798021
0.00154720149692
0.00157591486255
0.00160400657857
0.00163155286212
0.00165861983525
0.0016852634813
0.00171153032898
0.00173745760641
0.00176307402236
0.00178839996563
0.00181344826959
0.00183822438202
0.0018627270507
0.00188694841039
0.00191087450012
0.00193448505834
0.00195778121537
0.00198070618223
0.00200319687749
0.002025189611
0.00204662058947
0.00206742564348
0.00208754029023
0.00210689950463
0.00212543795498
0.00214309000674
0.00215979013658
0.00217547310699
0.00219007448983
0.00220353094591
0.00221578080648
0.00222676440937
0.00223642469778
0.00224470756865
0.00225156244526
0.00225694258546
0.00226080557106
0.00226311350688
0.00226383334978
0.00226293690863
0.00226040091514
0.00225620671855
0.00225033999103
0.00224279001497
0.00223354893981
0.00222261061506
0.00220996941816
0.0021956187608
0.00217954978565
0.00216175009044
0.00214220316629
0.00212088857264
0.00209778361101
0.00207286633943
0.00204612007445
0.00201753819399
0.00198712830142
0.0019549142878
0.00192093579144
0.00188524803771
0.00184803031321
0.00180941821568
0.00176953534935
0.00172851035094
0.00168647825747
0.00164357776013
0.00159994961985
0.00155573496892
0.00151107394072
0.00146610413762
0.00142095938157
0.00137576836767
0.00133065363297
0.0012857304812
0.00124110622971
0.00119687942279
0.00115313933351
0.00110996539947
0.0010674268807
0.00102558238645
0.000984479523435
0.000944154315646
0.00090463060707
0.000865919117814
0.000828016384452
0.000790900400338
0.000754536733202
0.000718877366442
0.000683859889135
0.000649406481492
0.000615422932896
0.000581797647218
0.000548401020322
0.000515085405199
0.000481686367292
0.000448025941832
0.000413919181522
0.00037918545327
0.000343666477468
0.000307253117112
0.000269922936016
0.000231790290784
0.00019317242305
0.000154681633627
0.000117350392062
8.2640055783e-05
5.38115508043e-05
8.43185866476e-05
0.000342222044746
0.000348835750938
0.00036179267616
0.000380801289415
0.000405610883985
0.000435989651919
0.00047164584763
0.000512146202801
0.000556885703957
0.000605120489491
0.000656038306149
0.00070883106961
0.000762748778422
0.000817129361907
0.000871409960805
0.000925126145479
0.000977905687455
0.00102945974542
0.00107957405093
0.00112809993067
0.00117494613704
0.00122007053775
0.00126347252633
0.00130518521849
0.00134526850582
0.00138380208322
0.00142087963362
0.00145660320644
0.00149107896234
0.00152441316939
0.0015567095738
0.00158806689769
0.00161857756483
0.00164832633638
0.00167738997531
0.00170583660933
0.00173372594755
0.00176110904348
0.0017880287892
0.00181451987089
0.00184060937826
0.00186631684083
0.00189165486729
0.00191662921232
0.00194123942121
0.00196547896331
0.00198933602288
0.00201279408694
0.00203583362363
0.00205844746477
0.00208056854233
0.0021021326135
0.00212307691599
0.00214333922812
0.0021628576941
0.00218157048726
0.00219941598639
0.00221633271621
0.00223225970406
0.00224713657763
0.00226090401107
0.0022735039016
0.00228487984442
0.00229497733283
0.0023037442168
0.00231113088004
0.00231709063878
0.00232157984674
0.00232455818464
0.0023259886369
0.00232583761452
0.00232407474246
0.00232067275785
0.00231560705517
0.00230885532157
0.00230039682451
0.00229021180673
0.00227828059386
0.00226458290604
0.00224909705116
0.00223179956345
0.00221266506776
0.00219166701591
0.00216877912412
0.00214397807419
0.00211724702319
0.00208857993932
0.00205798561095
0.00202549081595
0.00199114153656
0.00195500276272
0.00191715685037
0.00187770350603
0.0018367800221
0.00179463581403
0.00175140603853
0.00170724542807
0.00166230687609
0.00161674181244
0.0015706986205
0.00152432163272
0.00147774980793
0.00143111595888
0.00138454580403
0.00133815739967
0.00129206049598
0.00124635618998
0.00120113649576
0.00115648414149
0.00111247224203
0.0010691641353
0.00102661303663
0.00098486177454
0.000943942279931
0.000903875057193
0.000864668322437
0.00082631699136
0.000788798066368
0.000752076344378
0.000716104524394
0.000680822597777
0.00064615710232
0.000612020440443
0.00057831018805
0.000544908722462
0.000511683313375
0.000478487250278
0.000445162542612
0.000411545220008
0.000377474367608
0.000342806529608
0.000307437289883
0.000271332463359
0.000234572574466
0.000197417952907
0.0001604051439
0.000124450656238
9.07340190749e-05
6.30638809515e-05
0.000107974789874
0.000406397866264
0.000413202188003
0.00042651197581
0.000445952516429
0.000471146979747
0.000501733419458
0.000537333798841
0.000577501950343
0.000621689284885
0.000669247855192
0.000719466172343
0.000771618340714
0.000825009674189
0.000879008925977
0.000933066485491
0.000986720620599
0.00103959642728
0.00109139999003
0.00114191083057
0.00119097310685
0.00123848714505
0.00128440072364
0.00132870123806
0.00137140787181
0.00141256488535
0.00145223505299
0.00149049439358
0.00152742711731
0.00156312193198
0.00159766850768
0.00163115523171
0.00166366695775
0.00169528389112
0.00172608026837
0.00175612400507
0.00178547596608
0.00181419006832
0.00184231289084
0.00186988402476
0.0018969358699
0.00192349410988
0.00194957761077
0.00197519895006
0.00200036436713
0.00202507430401
0.00204932339755
0.0020731010733
0.00209639170849
0.00211917537403
0.00214147432807
0.00216322340669
0.00218436034564
0.00220482458392
0.00222455643497
0.00224349699658
0.00226158781958
0.00227877104767
0.002294989281
0.00231018585502
0.00232430483798
0.00233729138214
0.00234909178251
0.00235965383944
0.00236892692213
0.00237686229786
0.00238341315642
0.00238853486813
0.00239218492885
0.00239432310989
0.00239491128464
0.00239391343594
0.00239129533327
0.00238702437728
0.00238106912166
0.00237339897313
0.00236398360889
0.00235279262842
0.00233979502136
0.00232495900019
0.0023082518357
0.00228964028662
0.00226909131318
0.00224657367619
0.00222206007551
0.00219553027763
0.00216697460736
0.00213639783883
0.00210382243713
0.00206929094405
0.00203286664583
0.00199463291041
0.00195469116034
0.00191315788614
0.00187016095062
0.00182582774089
0.00178039725206
0.00173408687001
0.00168705375686
0.0016394600956
0.00159146116726
0.0015432067613
0.00149483905209
0.00144649270424
0.00139829379481
0.00135035966235
0.00130279851477
0.00125570934153
0.00120918173392
0.0011632958691
0.00111812234135
0.00107372212489
0.0010301463198
0.000987435963919
0.000945621595469
0.000904722807598
0.000864747494506
0.000825690984596
0.000787530791379
0.000750230857031
0.000713744022425
0.000678011604798
0.000642962874391
0.000608514616987
0.000574570693322
0.000541021883979
0.000507746111739
0.000474609520052
0.000441468816602
0.000408175727105
0.000374584494556
0.000340563897476
0.000306015681831
0.00027090250909
0.000235290670717
0.000199416219123
0.000163778346119
0.000129199137948
9.66216084118e-05
7.0999749608e-05
0.000132640073096
0.000469128269316
0.000476156418273
0.000489888246134
0.00050988062432
0.000535654104992
0.000566735246444
0.000602658738302
0.000642940330436
0.000687047776318
0.000734389965428
0.000784330045439
0.000836214271319
0.000889405602453
0.000943312234964
0.000997407547238
0.00105124031893
0.0011044377558
0.00115670277316
0.00120780845419
0.00125759031438
0.00130593832573
0.00135278838449
0.0013981146063
0.00144192165681
0.00148423831539
0.00152511125528
0.00156460019383
0.00160277324989
0.00163970365357
0.00167546653418
0.0017101369433
0.00174378776775
0.00177648872089
0.00180830503764
0.00183929710328
0.00186951964248
0.00189902173427
0.00192784629848
0.00195603033602
0.00198360459783
0.00201059395705
0.00203701719496
0.00206288744267
0.00208821202975
0.00211299292696
0.00213722657724
0.00216090422128
0.0021840115322
0.00220652848192
0.00222849917117
0.00224986925184
0.00227058080111
0.00229057599408
0.00230979772043
0.00232818995466
0.00234569747208
0.00236226592735
0.00237784160813
0.00239237161007
0.00240580371268
0.00241808662354
0.00242916991222
0.00243900426352
0.00244754141377
0.00245473437176
0.00246053731947
0.00246490577192
0.00246779641397
0.00246916717705
0.00246897699171
0.00246718576914
0.00246375406495
0.00245864297623
0.00245181374586
0.0024432276315
0.00243284554113
0.00242062800795
0.00240653504193
0.00239052645267
0.0023725622178
0.00235260350592
0.00233061394153
0.00230656168525
0.00228042184257
0.00225217961088
0.00222183344981
0.00218939839588
0.00215490856837
0.00211841890017
0.00208000532268
0.00203976385169
0.00199780824236
0.00195426705673
0.00190928013405
0.00186299557952
0.00181557115545
0.00176714108928
0.0017179885861
0.00166831211774
0.00161826397016
0.00156800317165
0.00151767505657
0.00146741908885
0.00141736431671
0.00136763081345
0.00131832901728
0.00126955972877
0.00122141418143
0.00117397403557
0.00112731129214
0.00108148833237
0.0010365576974
0.000992561944526
0.000949533270163
0.000907493146987
0.000866451695306
0.000826407003621
0.000787340007602
0.000749214075348
0.000711982064139
0.000675586056771
0.000639957028766
0.000605014620298
0.000570666911372
0.000536810460136
0.000503330659352
0.000470102824374
0.000436994338271
0.000403868590052
0.000370591549591
0.000337042443373
0.000303130657227
0.000268822592999
0.000234184519017
0.000199448710226
0.000165094980915
0.000131855181819
0.000100501437253
7.7708604312e-05
0.00015760533293
0.000530250675046
0.00053754053594
0.000551771940748
0.000572443390047
0.000598987499564
0.000630831004658
0.000667421460882
0.000708221277847
0.000752687577916
0.0008002562075
0.000850340635666
0.000902344800806
0.000955684434273
0.0010098089262
0.00106421951055
0.00111848073733
0.00117222603329
0.00122515759207
0.00127704298382
0.001327708941
0.00137703440352
0.00142494263051
0.00147139396078
0.00151637849869
0.0015599100299
0.00160202012825
0.00164275365053
0.00168216439445
0.00172031209451
0.00175725942011
0.00179307017295
0.00182780728955
0.00186153189005
0.00189430195898
0.00192617194571
0.00195719187469
0.00198740728667
0.0020168586197
0.00204558136282
0.00207360561917
0.00210095639894
0.0021276533147
0.00215371096479
0.00217913872363
0.00220394117857
0.00222811800667
0.00225166451345
0.00227457178578
0.00229682787211
0.00231842486882
0.00233939847645
0.0023596844188
0.00237922396601
0.00239796134042
0.00241584282657
0.00243281597044
0.00244882942298
0.00246383252172
0.00247777533719
0.00249060841327
0.00250228290172
0.00251275037302
0.00252196297283
0.00252987324834
0.00253643428977
0.00254159954181
0.00254532291159
0.00254755854921
0.00254826091462
0.00254738452337
0.00254488397851
0.00254071369708
0.00253482793846
0.00252718056166
0.00251772512551
0.00250641478206
0.00249320258872
0.0024780417156
0.00246088618379
0.00244169163084
0.00242041673179
0.00239702476141
0.00237148586773
0.00234377946044
0.00231389713754
0.00228184538695
0.00224764829603
0.00221134938741
0.00217301279998
0.00213272310174
0.0020905842328
0.00204671721472
0.00200125741276
0.00195435127387
0.00190615345697
0.00185682358771
0.00180652312175
0.00175542183082
0.00170365640882
0.00165148346189
0.00159912067223
0.00154669444342
0.00149435935936
0.00144224695164
0.00139048312396
0.00133918387869
0.00128845504242
0.00123839334423
0.00118908572582
0.00114060935257
0.00109303178087
0.00104641062876
0.00100079342898
0.000956217292938
0.000912708601368
0.000870282477188
0.000828942283744
0.000788677063712
0.00074945027492
0.000711215122451
0.000673914391514
0.000637480279214
0.000601834358905
0.000566887554702
0.000532540364137
0.000498683359666
0.000465198342085
0.00043196042549
0.000398841739724
0.000365717582558
0.000332476565197
0.000299037137147
0.000265374613972
0.000231564602861
0.000197846604176
0.000164686321666
0.000132725440201
0.000102654350514
8.3455880254e-05
0.000182219560923
0.000589725551441
0.000597318938158
0.000612134285986
0.000633618116023
0.000661124336911
0.000693987160611
0.00073156688346
0.00077326202959
0.000818499593296
0.00086671895839
0.000917362410639
0.000969875986933
0.00102371965426
0.0010783813989
0.00113339150632
0.00118833316787
0.00124284905294
0.00129664298856
0.00134947848323
0.00140117415853
0.00145159810903
0.00150066097872
0.00154830945715
0.00159451950334
0.00163929070851
0.00168264074664
0.00172460117692
0.00176521332957
0.00180452550174
0.00184259007693
0.00187946181874
0.00191519589772
0.0019498469507
0.00198346771487
0.00201610858351
0.00204781663062
0.00207863548212
0.00210860459876
0.00213775935529
0.00216613050891
0.00219374442397
0.00222062268249
0.00224678240763
0.00227223597463
0.00229699137967
0.00232105199976
0.00234441695692
0.00236708091083
0.00238903441194
0.00241026346241
0.00243083920401
0.0024507054534
0.00246980736772
0.00248809182155
0.00250550744339
0.00252200410476
0.00253753278787
0.00255204506685
0.00256549304512
0.0025778289649
0.00258900523942
0.00259897415061
0.00260768792681
0.00261509848117
0.00262115750455
0.00262581622193
0.002629025491
0.00263073557114
0.00263089623162
0.00262945654138
0.00262636500505
0.00262156940075
0.0026150169854
0.00260665443809
0.00259642821249
0.0025842846864
0.00257017078569
0.00255403448798
0.00253582588308
0.00251549820249
0.00249300947386
0.00246832419042
0.00244141558643
0.00241226783614
0.00238087864701
0.00234726145427
0.00231144756701
0.00227348742877
0.00223345136181
0.00219142910636
0.00214752872572
0.00210187444619
0.00205460421157
0.00200586669735
0.00195581853118
0.00190462142095
0.00185244001274
0.00179943961897
0.00174578329729
0.00169164001141
0.00163715363051
0.00158248767206
0.00152793299284
0.0014735833211
0.0014195779129
0.00136604315895
0.00131309035457
0.00126082631507
0.00120934647782
0.00115873635132
0.00110907239024
0.00106042087107
0.00101283772456
0.000966368320278
0.000921047113637
0.000876897111727
0.000833929399173
0.000792147202094
0.000751515801669
0.000711989652023
0.000673512649852
0.000636018215397
0.00059942946334
0.000563659376254
0.000528611214602
0.000494179183156
0.000460249707566
0.000426703583118
0.000393419674489
0.000360281036871
0.000327185117284
0.000294060626305
0.0002608952828
0.000227779321476
0.000194963603691
0.000162898018049
0.000132136314197
0.000103397343716
8.85957017257e-05
0.000205877861577
0.000647588963354
0.000655531449416
0.000671021713059
0.000693457999958
0.000722120939774
0.000756256192815
0.000795135693265
0.000838085655017