/*--------------------------------*- C++ -*----------------------------------*\
| =========                 |                                                 |
| \\      /  F ield         | OpenFOAM: The Open Source CFD Toolbox           |
|  \\    /   O peration     | Version:  2206                                  |
|   \\  /    A nd           | Website:  www.openfoam.com                      |
|    \\/     M anipulation  |                                                 |
\*---------------------------------------------------------------------------*/
FoamFile
{
    version     2.0;
    format      ascii;
    arch        "LSB;label=64;scalar=64";
    class       volScalarField;
    location    "2.2/water";
    object      p_rgh;
}
// * * * * * * * * * * * * * * * * * * * * * * * * * * * * * * * * * * * * * //

dimensions      [1 -1 -2 0 0 0 0];

internalField   nonuniform List<scalar> 
23300
(
100724.453583
100724.456504
100724.463511
100724.474079
100724.486262
100724.493994
100724.495042
100724.494798
100724.496265
100724.499199
100724.503106
100724.507841
100724.513534
100724.520388
100724.528606
100724.538391
100724.549898
100724.563291
100724.578663
100724.596135
100724.615748
100724.637587
100724.661655
100724.688018
100724.716658
100724.747639
100724.780938
100724.816629
100724.854696
100724.89523
100724.938223
100724.983781
100725.031901
100725.082694
100725.136151
100725.19238
100725.251356
100725.313169
100725.377769
100725.44522
100725.515438
100725.588457
100725.664155
100725.74253
100725.823418
100725.906783
100725.992419
100726.080227
100726.169918
100726.261362
100726.354272
100726.448501
100726.543721
100726.639749
100726.736223
100726.832931
100726.929486
100727.025654
100727.121028
100727.215364
100727.308246
100727.399429
100727.488499
100727.575218
100727.659187
100727.740187
100727.817843
100727.891965
100727.962212
100728.028433
100728.09033
100728.147797
100728.200589
100728.248657
100728.291821
100728.330103
100728.363413
100728.391877
100728.415537
100728.434678
100728.449552
100728.460698
100728.468671
100728.47433
100728.478454
100728.481703
100728.483877
100728.485066
100728.48583
100728.486745
100728.48763
100728.487771
100728.486284
100728.482588
100728.476204
100728.466977
100728.454821
100728.439895
100728.422362
100728.40256
100728.380787
100728.357464
100728.332945
100728.307679
100728.282031
100728.25644
100728.231261
100728.206904
100728.183693
100728.161993
100728.142083
100728.12427
100728.108771
100728.095817
100728.085542
100728.078087
100728.073495
100728.071808
100728.072988
100728.077003
100728.083745
100728.093103
100728.104904
100728.118972
100728.135081
100728.153012
100728.172512
100728.193341
100728.21524
100728.237963
100728.261246
100728.284823
100728.308378
100728.331507
100728.353541
100728.373248
100728.388832
100728.399357
100728.405705
100728.408791
100724.440343
100724.444221
100724.45308
100724.466239
100724.481115
100724.492069
100724.497488
100724.501065
100724.506041
100724.513318
100724.522619
100724.533594
100724.546066
100724.559985
100724.57535
100724.592197
100724.610541
100724.630415
100724.651809
100724.674739
100724.699171
100724.72511
100724.752514
100724.781397
100724.811727
100724.843544
100724.876841
100724.911692
100724.948122
100724.986236
100725.026082
100725.067786
100725.111408
100725.157077
100725.204846
100725.254832
100725.307066
100725.361641
100725.418556
100725.47787
100725.539543
100725.603596
100725.669948
100725.73858
100725.809368
100725.882256
100725.957079
100726.033725
100726.111959
100726.191644
100726.272538
100726.354481
100726.437205
100726.520526
100726.604154
100726.687889
100726.771426
100726.854553
100726.936962
100727.01844
100727.098682
100727.177488
100727.254567
100727.32974
100727.402747
100727.473439
100727.541596
100727.607114
100727.66982
100727.729665
100727.786533
100727.840432
100727.891308
100727.939228
100727.9842
100728.026343
100728.065717
100728.10248
100728.136718
100728.168594
100728.198163
100728.225499
100728.250477
100728.272839
100728.291889
100728.306494
100728.315056
100728.317164
100728.313611
100728.305888
100728.295642
100728.283962
100728.271408
100728.258334
100728.244885
100728.231199
100728.217315
100728.203317
100728.189229
100728.175132
100728.161067
100728.147133
100728.133399
100728.119994
100728.10702
100728.094638
100728.082982
100728.072234
100728.062551
100728.054127
100728.047121
100728.04172
100728.038066
100728.036318
100728.036585
100728.038956
100728.043437
100728.050038
100728.058732
100728.069478
100728.082175
100728.096701
100728.112884
100728.130537
100728.149434
100728.169349
100728.190041
100728.211286
100728.232869
100728.25461
100728.27635
100728.297958
100728.319285
100728.34011
100728.359991
100728.378124
100728.393345
100728.404594
100728.411795
100728.415552
100724.421638
100724.426505
100724.435861
100724.448949
100724.463141
100724.474265
100724.481521
100724.487037
100724.493086
100724.500858
100724.510669
100724.522478
100724.536185
100724.551721
100724.569029
100724.588078
100724.608818
100724.631215
100724.6552
100724.680731
100724.707725
100724.736138
100724.765888
100724.796949
100724.829259
100724.862827
100724.897624
100724.9337
100724.971065
100725.009808
100725.049971
100725.091669
100725.134961
100725.179973
100725.226763
100725.275451
100725.326078
100725.378745
100725.433466
100725.490311
100725.549261
100725.610353
100725.673529
100725.73879
100725.806043
100725.875253
100725.946294
100726.019072
100726.093379
100726.169099
100726.246034
100726.32406
100726.402956
100726.482578
100726.562688
100726.643126
100726.723645
100726.804077
100726.884172
100726.963764
100727.042607
100727.120545
100727.197345
100727.272871
100727.346913
100727.419359
100727.490031
100727.55885
100727.625671
100727.690449
100727.753077
100727.813541
100727.871763
100727.927753
100727.981448
100728.032862
100728.081923
100728.128614
100728.172817
100728.214432
100728.253222
100728.288918
100728.321048
100728.349019
100728.371947
100728.388805
100728.398475
100728.400752
100728.396458
100728.386626
100728.372368
100728.354946
100728.335294
100728.314195
100728.292211
100728.269835
100728.247414
100728.225269
100728.203615
100728.182666
100728.162555
100728.14343
100728.125377
100728.108512
100728.092904
100728.078655
100728.065834
100728.054544
100728.044858
100728.03688
100728.030686
100728.026376
100728.024015
100728.023687
100728.025436
100728.029308
100728.035252
100728.043216
100728.053151
100728.064991
100728.078627
100728.093932
100728.11074
100728.128873
100728.148126
100728.168297
100728.189173
100728.210563
100728.232288
100728.2542
100728.276168
100728.298077
100728.319784
100728.341062
100728.361512
100728.380505
100728.397218
100728.410765
100728.420485
100728.425812
100724.408788
100724.414995
100724.423391
100724.435108
100724.447843
100724.45925
100724.468377
100724.476045
100724.483727
100724.492534
100724.503041
100724.515462
100724.529846
100724.546188
100724.564449
100724.584596
100724.606559
100724.630281
100724.655663
100724.682635
100724.711081
100724.74093
100724.772071
100724.804452
100724.837987
100724.87266
100724.908424
100724.945307
100724.983305
100725.02249
100725.062891
100725.104613
100725.147706
100725.19229
100725.238421
100725.286217
100725.335722
100725.387043
100725.440202
100725.495281
100725.552273
100725.611231
100725.672119
100725.734957
100725.799676
100725.866268
100725.934633
100726.004711
100726.076314
100726.149338
100726.223622
100726.299072
100726.375505
100726.452809
100726.530785
100726.609306
100726.688161
100726.767217
100726.846256
100726.925144
100727.003666
100727.081692
100727.159015
100727.235516
100727.311004
100727.385376
100727.458459
100727.53017
100727.600355
100727.668949
100727.735816
100727.8009
100727.864072
100727.925275
100727.984368
100728.04127
100728.095803
100728.147828
100728.197094
100728.243364
100728.286262
100728.325394
100728.360197
100728.39006
100728.414207
100728.431889
100728.442431
100728.445571
100728.442059
100728.432933
100728.418769
100728.40052
100728.379119
100728.355436
100728.33018
100728.304011
100728.277445
100728.250965
100728.224932
100728.199685
100728.175464
100728.152501
100728.13095
100728.110967
100728.092649
100728.076107
100728.061407
100728.048633
100728.037832
100728.029074
100728.022395
100728.01785
100728.015462
100728.015268
100728.017271
100728.021489
100728.027832
100728.036202
100728.046529
100728.058736
100728.072704
100728.08831
100728.105392
100728.123788
100728.143311
100728.16378
100728.185005
100728.206818
100728.229053
100728.251571
100728.274239
100728.296925
100728.319462
100728.341609
100728.363008
100728.383179
100728.401596
100728.417867
100728.430834
100728.438086
100724.401502
100724.410202
100724.417063
100724.42696
100724.438198
100724.449135
100724.45892
100724.467775
100724.476545
100724.486093
100724.497029
100724.509691
100724.524241
100724.540747
100724.559213
100724.579624
100724.601918
100724.626038
100724.65188
100724.679362
100724.708359
100724.738784
100724.770514
100724.803483
100724.837588
100724.872801
100724.909059
100724.946377
100724.984735
100725.024192
100725.064765
100725.106547
100725.149577
100725.193967
100725.239766
100725.287089
100725.335979
100725.386542
100725.438804
100725.492854
100725.548695
100725.606393
100725.665921
100725.72732
100725.790537
100725.855583
100725.922379
100725.990907
100726.06099
100726.132519
100726.205359
100726.279442
100726.35461
100726.430778
100726.507768
100726.585481
100726.663725
100726.74239
100726.821277
100726.90027
100726.979166
100727.057848
100727.136117
100727.213858
100727.29088
100727.367075
100727.44226
100727.516335
100727.589126
100727.660539
100727.730402
100727.798618
100727.86501
100727.929466
100727.991785
100728.05182
100728.109324
100728.164092
100728.215804
100728.264165
100728.308753
100728.349153
100728.38482
100728.415214
100728.439705
100728.457765
100728.468947
100728.473148
100728.47056
100728.462301
100728.449189
100728.431632
100728.410422
100728.386387
100728.360253
100728.332717
100728.304366
100728.275757
100728.247337
100728.21953
100728.192656
100728.16702
100728.142841
100728.120331
100728.099631
100728.080886
100728.064181
100728.049616
100728.037241
100728.027122
100728.019283
100728.013765
100728.010571
100728.009718
100728.011188
100728.014985
100728.021
100728.029104
100728.039213
100728.051246
100728.065081
100728.080599
100728.097645
100728.11607
100728.135701
100728.156372
100728.177908
100728.20015
100728.222938
100728.24613
100728.269579
100728.293132
100728.316604
100728.339754
100728.362267
100728.383777
100728.404006
100728.423203
100728.43986
100728.449361
100724.396348
100724.40835
100724.413833
100724.422122
100724.431921
100724.442003
100724.451661
100724.46085
100724.470036
100724.479833
100724.49078
100724.503254
100724.517485
100724.533604
100724.551659
100724.571668
100724.593589
100724.617381
100724.642947
100724.670211
100724.699048
100724.729374
100724.761061
100724.79404
100724.828203
100724.863513
100724.899899
100724.937367
100724.975885
100725.015502
100725.056222
100725.098125
100725.141241
100725.18567
100725.231453
100725.278697
100725.327439
100725.377784
100725.429756
100725.483446
100725.538861
100725.59607
100725.655059
100725.715875
100725.778476
100725.842887
100725.909041
100725.976971
100726.046501
100726.117504
100726.18986
100726.26352
100726.338342
100726.414257
100726.491104
100726.568799
100726.647164
100726.726099
100726.805417
100726.885008
100726.964676
100727.044306
100727.123697
100727.202732
100727.281211
100727.359015
100727.435947
100727.511888
100727.586639
100727.66008
100727.732008
100727.802293
100727.870719
100727.937134
100728.001297
100728.063021
100728.122021
100728.178056
100728.23078
100728.27988
100728.324933
100728.365546
100728.401219
100728.431502
100728.455889
100728.474002
100728.485539
100728.490471
100728.48897
100728.481491
100728.469112
100728.452561
100728.432115
100728.40857
100728.382577
100728.354828
100728.325912
100728.296415
100728.266821
100728.237596
100728.209113
100728.181726
100728.155703
100728.131303
100728.108709
100728.088102
100728.069597
100728.053317
100728.039328
100728.027707
100728.018484
100728.011701
100728.007358
100728.005468
100728.006007
100728.008964
100728.014236
100728.021686
100728.031211
100728.042728
100728.056121
100728.071272
100728.088038
100728.106278
100728.125829
100728.146536
100728.168234
100728.190766
100728.213972
100728.237701
100728.261791
100728.286074
100728.310348
100728.334374
100728.357872
100728.380567
100728.402461
100728.424479
100728.444631
100728.456167
100724.390339
100724.406118
100724.410456
100724.417363
100724.425846
100724.43495
100724.444076
100724.453067
100724.462162
100724.471782
100724.482372
100724.4943
100724.507828
100724.523133
100724.54031
100724.559414
100724.580433
100724.603351
100724.628091
100724.654595
100724.682749
100724.712478
100724.743663
100724.776235
100724.81009
100724.845189
100724.881456
100724.918891
100724.957454
100724.997182
100725.038068
100725.080182
100725.123539
100725.168229
100725.214278
100725.261787
100725.310781
100725.36136
100725.413541
100725.467414
100725.522982
100725.580318
100725.639406
100725.700301
100725.762965
100725.827428
100725.893626
100725.961638
100726.031308
100726.102485
100726.175041
100726.248937
100726.324043
100726.4003
100726.477559
100726.555743
100726.634682
100726.714284
100726.794364
100726.874816
100726.955444
100727.036129
100727.116669
100727.196938
100727.276725
100727.355901
100727.434251
100727.511638
100727.587844
100727.662725
100727.736052
100727.80767
100727.877335
100727.944868
100728.010003
100728.072528
100728.13214
100728.188582
100728.241503
100728.290594
100728.335452
100728.375715
100728.410945
100728.440769
100728.464783
100728.482718
100728.494367
100728.49975
100728.499017
100728.492568
100728.480911
100728.464968
100728.445364
100728.42255
100728.397144
100728.369727
100728.340882
100728.3112
100728.281168
100728.251276
100728.221919
100728.193482
100728.166266
100728.140564
100728.116589
100728.094554
100728.074602
100728.056878
100728.04147
100728.028469
100728.017917
100728.009866
100728.00432
100728.001297
100728.000772
100728.002735
100728.007098
100728.013719
100728.022482
100728.033304
100728.046075
100728.060684
100728.076994
100728.094872
100728.114164
100728.134722
100728.156385
100728.178997
100728.202395
100728.226417
100728.250888
100728.275624
100728.300412
100728.325013
100728.349173
100728.372717
100728.395992
100728.420461
100728.443329
100728.456192
100724.380815
100724.400535
100724.403997
100724.409789
100724.417132
100724.425261
100724.433669
100724.442151
100724.450815
100724.459946
100724.469901
100724.481016
100724.493563
100724.507757
100724.523728
100724.541574
100724.561321
100724.582986
100724.606519
100724.631889
100724.659001
100724.6878
100724.718176
100724.750074
100724.783392
100724.818095
100724.854104
100724.891416
100724.929982
100724.969831
100725.010942
100725.053373
100725.097124
100725.142271
100725.188827
100725.236879
100725.286442
100725.337603
100725.390372
100725.44483
100725.500977
100725.558881
100725.618526
100725.679965
100725.743162
100725.808152
100725.874879
100725.943367
100726.013577
100726.085406
100726.158607
100726.233157
100726.308936
100726.385894
100726.463889
100726.542849
100726.62261
100726.703082
100726.784083
100726.865505
100726.947151
100727.028899
100727.11054
100727.191939
100727.272878
100727.353212
100727.432714
100727.511232
100727.588529
100727.664442
100727.738725
100727.8112
100727.881606
100727.949745
100728.015334
100728.07815
100728.137879
100728.194262
100728.246955
100728.29566
100728.340001
100728.379658
100728.414245
100728.44346
100728.46698
100728.484617
100728.496231
100728.501874
100728.501696
100728.496046
100728.485345
100728.470212
100728.451168
100728.429068
100728.404387
100728.377511
100728.34909
100728.31963
100728.289625
100728.259567
100728.229858
100728.2009
100728.173013
100728.14651
100728.121628
100728.098601
100728.077594
100728.058773
100728.042242
100728.028109
100728.016429
100728.007263
100728.000627
100727.996541
100727.99499
100727.995965
100727.999405
100728.005167
100728.013118
100728.023181
100728.035249
100728.049217
100728.064956
100728.08234
100728.101219
100728.121451
100728.142875
100728.165338
100728.188669
100728.212699
100728.23724
100728.262094
100728.28704
100728.31184
100728.33627
100728.360279
100728.384592
100728.41092
100728.435395
100728.44867
100724.365897
100724.389536
100724.392302
100724.397174
100724.403523
100724.410716
100724.418313
100724.4261
100724.434104
100724.442517
100724.451625
100724.461728
100724.4731
100724.485975
100724.500522
100724.516879
100724.535112
100724.555277
100724.57736
100724.601361
100724.627213
100724.654881
100724.684275
100724.715351
100724.748016
100724.78224
100724.817942
100724.855116
100724.893702
100724.933722
100724.97514
100725.017999
100725.062284
100725.108056
100725.15531
100725.204119
100725.254482
100725.306475
100725.360095
100725.415414
100725.472422
100725.531183
100725.591674
100725.653945
100725.717959
100725.78375
100725.851261
100725.920508
100725.991541
100726.064253
100726.13833
100726.213755
100726.29041
100726.368252
100726.447142
100726.527013
100726.607705
100726.689127
100726.7711
100726.853514
100726.936169
100727.01894
100727.10161
100727.184038
100727.265996
100727.347329
100727.427797
100727.507234
100727.585391
100727.662088
100727.737064
100727.810126
100727.881
100727.949475
100728.015258
100728.078118
100728.13774
100728.193869
100728.246169
100728.294362
100728.338099
100728.377098
100728.411025
100728.439636
100728.462671
100728.480005
100728.491544
100728.497369
100728.497625
100728.492633
100728.482763
100728.468512
100728.450414
100728.429043
100728.405
100728.378896
100728.351067
100728.322081
100728.292437
100728.26257
100728.232898
100728.203828
100728.175688
100728.148804
100728.123426
100728.099805
100728.07812
100728.058552
100728.04122
100728.026246
100728.013695
100728.003639
100727.996101
100727.991109
100727.988654
100727.988731
100727.991314
100727.996271
100728.003439
100728.012747
100728.024093
100728.037379
100728.052479
100728.069272
100728.087614
100728.107365
100728.128366
100728.150461
100728.173474
100728.197229
100728.221529
100728.246167
100728.270914
100728.295539
100728.319859
100728.343966
100728.368939
100728.396381
100728.421289
100728.43414
100724.344149
100724.371512
100724.373706
100724.377795
100724.383255
100724.389548
100724.396285
100724.403247
100724.410421
100724.417937
100724.426024
100724.434954
100724.444996
100724.456403
100724.469374
100724.484088
100724.500653
100724.519168
100724.539659
100724.562161
100724.586636
100724.613078
100724.641414
100724.671616
100724.7036
100724.737337
100724.772748
100724.80982
100724.848486
100724.888752
100724.930571
100724.973968
100725.01891
100725.065441
100725.113539
100725.163257
100725.214581
100725.26757
100725.322207
100725.378555
100725.436592
100725.496375
100725.557873
100725.621133
100725.686113
100725.752844
100725.821267
100725.891387
100725.96333
100726.037014
100726.112074
100726.188469
100726.266083
100726.344877
100726.424717
100726.50554
100726.587186
100726.66957
100726.75251
100726.835896
100726.919526
100727.00327
100727.086908
100727.17029
100727.253182
100727.335417
100727.416748
100727.496996
100727.575898
100727.653265
100727.728822
100727.802366
100727.873609
100727.942334
100728.008242
100728.071096
100728.130584
100728.186457
100728.23839
100728.286125
100728.32934
100728.367789
100728.40118
100728.429318
100728.451995
100728.469132
100728.480673
100728.486718
100728.487412
100728.483055
100728.473981
100728.46065
100728.443516
100728.423118
100728.400044
100728.374719
100728.347694
100728.319523
100728.290434
100728.26101
100728.231704
100728.202857
100728.174811
100728.147903
100728.122387
100728.098522
100728.076501
100728.056515
100728.038693
100728.023165
100728.010009
100727.999302
100727.991075
100727.985363
100727.982159
100727.981464
100727.983295
100727.987535
100727.993987
100728.002584
100728.013227
100728.025822
100728.040247
100728.056385
100728.074095
100728.093239
100728.113658
100728.135193
100728.157667
100728.180896
100728.204678
100728.228799
100728.253028
100728.277148
100728.301024
100728.324905
100728.350122
100728.37787
100728.402166
100728.413971
100724.314425
100724.345192
100724.346895
100724.350294
100724.354941
100724.360354
100724.366185
100724.372221
100724.378422
100724.384877
100724.391781
100724.399386
100724.407955
100724.417762
100724.429034
100724.441992
100724.456785
100724.473559
100724.492379
100724.513319
100724.536375
100724.561565
100724.588837
100724.618177
100724.649509
100724.682808
100724.717989
100724.755033
100724.793862
100724.834467
100724.876784
100724.920821
100724.966525
100725.01392
100725.062965
100725.113696
100725.166079
100725.220159
100725.275905
100725.333367
100725.392512
100725.453389
100725.515962
100725.580271
100725.646272
100725.713996
100725.783384
100725.854456
100725.927177
100726.001705
100726.077813
100726.155205
100726.23379
100726.313539
100726.394322
100726.476083
100726.558666
100726.641988
100726.725867
100726.810195
100726.894768
100726.979452
100727.064023
100727.148327
100727.23212
100727.315231
100727.3974
100727.478441
100727.55808
100727.636117
100727.712267
100727.786317
100727.857972
100727.927006
100727.993115
100728.056063
100728.11554
100728.171301
100728.223036
100728.270505
100728.313411
100728.351538
100728.384631
100728.412535
100728.435085
100728.452236
100728.463961
100728.470377
100728.471628
100728.468001
100728.459804
100728.447461
100728.431392
100728.412106
100728.390066
100728.365797
100728.339867
100728.312631
100728.284486
100728.255981
100728.227302
100728.198899
100728.17128
100728.144669
100728.119328
100728.095537
100728.073489
100728.053384
100728.035357
100728.019548
100728.006039
100727.994914
100727.986211
100727.979967
100727.976179
100727.974847
100727.976037
100727.979662
100727.985476
100727.993419
100728.003394
100728.015309
100728.029045
100728.044487
100728.061497
100728.079936
100728.099646
100728.120467
100728.142219
100728.164715
100728.187748
100728.211101
100728.234549
100728.257888
100728.281044
100728.304405
100728.329427
100728.356695
100728.379569
100728.38994
100724.275834
100724.309574
100724.310837
100724.313605
100724.317472
100724.322004
100724.326876
100724.331879
100724.336962
100724.342192
100724.347741
100724.353851
100724.360792
100724.368857
100724.378305
100724.389398
100724.402332
100724.417295
100724.434397
100724.45375
100724.475383
100724.499339
100724.525585
100724.55412
100724.584871
100724.617812
100724.652855
100724.689968
100724.729059
100724.770104
100724.813017
100724.857788
100724.904341
100724.952681
100725.002745
100725.05455
100725.108046
100725.163259
100725.220147
100725.278744
100725.33901
100725.400982
100725.46462
100725.529959
100725.596952
100725.665627
100725.735927
100725.807871
100725.881383
100725.956747
100726.033778
100726.112093
100726.191589
100726.272236
100726.353911
100726.436563
100726.520041
100726.604263
100726.689052
100726.774298
100726.859797
100726.945414
100727.030921
100727.116159
100727.200879
100727.284902
100727.367961
100727.449859
100727.530315
100727.609119
100727.685977
100727.760666
100727.832884
100727.9024
100727.968905
100728.032163
100728.091866
100728.147776
100728.199594
100728.247096
100728.290008
100728.328139
100728.361267
100728.389269
100728.412011
100728.429478
100728.441667
100728.448703
100728.450734
100728.448035
100728.440895
100728.429712
100728.414877
100728.396861
100728.376106
100728.353116
100728.32833
100728.302232
100728.275323
100728.247967
100728.22033
100728.192992
100728.166184
100728.140073
100728.115187
100728.091774
100728.069987
100728.050039
100728.032078
100728.016241
100728.002617
100727.991297
100727.98232
100727.975728
100727.97152
100727.969692
100727.970345
100727.973438
100727.978695
100727.986048
100727.995399
100728.006656
100728.019704
100728.034427
100728.050689
100728.068353
100728.087259
100728.107248
100728.128136
100728.149736
100728.171838
100728.194228
100728.216684
100728.239027
100728.261235
100728.283808
100728.308183
100728.334274
100728.355179
100728.363933
100724.227706
100724.263883
100724.264727
100724.266881
100724.269972
100724.273585
100724.277414
100724.281258
100724.285055
100724.288866
100724.292855
100724.297268
100724.302387
100724.308532
100724.316002
100724.3251
100724.336071
100724.349151
100724.364494
100724.382247
100724.402471
100724.425233
100724.450516
100724.478326
100724.508591
100724.541281
100724.576297
100724.613593
100724.653058
100724.694649
100724.738257
100724.783849
100724.831328
100724.880676
100724.931808
100724.984723
100725.039351
100725.095703
100725.153723
100725.213433
100725.274783
100725.337804
100725.40245
100725.468752
100725.536663
100725.60621
100725.677338
100725.750065
100725.824312
100725.90033
100725.978089
100726.057265
100726.137597
100726.219071
100726.301575
100726.385061
100726.469386
100726.554473
100726.640149
100726.726304
100726.812737
100726.899309
100726.985792
100727.072022
100727.157745
100727.242775
100727.326838
100727.40973
100727.49116
100727.570908
100727.648672
100727.724221
100727.797246
100727.867509
100727.934698
100727.998575
100728.058834
100728.115243
100728.167514
100728.215436
100728.258752
100728.297296
100728.33087
100728.359377
100728.382709
100728.400874
100728.413885
100728.421877
100728.424999
100728.423518
100728.417707
100728.407942
100728.39459
100728.378095
100728.358874
100728.337399
100728.314097
100728.289436
100728.263816
100728.237657
100728.211361
100728.185363
100728.159709
100728.134778
100728.110907
100728.08817
100728.066839
100728.04733
100728.029705
100728.014082
100728.000572
100727.989273
100727.980221
100727.973463
100727.969003
100727.966844
100727.967018
100727.96961
100727.974412
100727.981248
100727.990026
100728.000657
100728.013027
100728.027024
100728.042511
100728.059352
100728.077388
100728.096459
100728.116381
100728.136965
100728.158003
100728.179282
100728.200588
100728.221763
100728.242835
100728.264364
100728.287655
100728.311998
100728.330631
100728.337739
100724.169561
100724.207538
100724.207955
100724.209478
100724.211744
100724.214358
100724.217019
100724.219527
100724.221826
100724.223976
100724.226146
100724.228598
100724.231639
100724.235629
100724.240911
100724.24784
100724.25671
100724.267809
100724.281331
100724.297465
100724.316296
100724.337912
100724.362306
100724.389488
100724.41938
100724.451943
100724.48706
100724.524667
100724.56463
100724.606882
100724.651289
100724.697793
100724.746271
100724.796681
100724.848918
100724.90296
100724.958718
100725.01619
100725.075303
100725.136073
100725.198439
100725.262427
100725.327987
100725.395151
100725.46387
100725.534177
100725.606018
100725.679421
100725.754328
100725.830777
100725.909043
100725.988977
100726.070045
100726.152257
100726.235508
100726.319763
100726.404886
100726.490807
100726.577356
100726.664428
100726.751823
100726.839402
100726.926935
100727.014254
100727.101101
100727.187285
100727.272523
100727.356603
100727.439227
100727.520163
100727.599104
100727.675806
100727.749955
100727.821305
100727.889542
100727.954423
100728.015645
100728.07298
100728.126145
100728.174944
100728.219134
100728.258566
100728.293063
100728.322548
100728.346935
100728.366248
100728.380513
100728.389872
100728.394473
100728.394577
100728.390445
100728.382433
100728.370889
100728.356233
100728.338859
100728.319216
100728.297711
100728.274788
100728.250836
100728.226272
100728.201451
100728.176732
100728.152424
100728.128923
100728.106377
100728.084826
100728.064647
100728.046057
100728.029008
100728.013767
100728.000605
100727.989549
100727.980616
100727.973865
100727.96931
100727.966953
100727.966759
100727.968934
100727.973358
100727.979738
100727.98799
100727.998028
100728.00974
100728.023014
100728.037714
100728.053705
100728.070829
100728.088925
100728.107811
100728.127298
100728.147178
100728.167241
100728.187282
100728.207158
100728.22693
100728.247173
100728.268971
100728.291134
100728.307388
100728.31293
100724.101109
100724.140143
100724.140093
100724.140918
100724.142263
100724.143734
100724.145033
100724.145969
100724.146485
100724.146652
100724.14666
100724.146801
100724.147424
100724.14894
100724.151747
100724.156263
100724.162839
100724.171814
100724.183428
100724.197902
100724.215347
100724.235865
100724.259453
100724.286116
100724.315765
100724.348343
100724.38371
100724.421776
100724.462379
100724.505423
100724.550745
100724.598258
100724.647813
100724.699343
100724.752718
100724.807897
100724.864774
100724.923331
100724.983484
100725.045239
100725.108529
100725.173378
100725.239732
100725.307624
100725.377009
100725.447924
100725.520321
100725.594233
100725.669606
100725.746442
100725.825114
100725.905565
100725.987224
100726.070055
100726.153957
100726.238906
100726.324775
100726.411501
100726.498919
100726.58693
100726.675334
100726.763995
100726.85268
100726.941219
100727.029351
100727.116875
100727.203506
100727.289019
100727.37311
100727.455536
100727.53598
100727.614191
100727.689844
100727.762686
100727.832398
100727.898734
100727.96139
100728.020139
100728.074707
100728.124902
100728.170495
100728.21135
100728.247306
100728.278303
100728.304269
100728.325241
100728.341254
100728.352455
100728.358991
100728.361116
100728.35908
100728.353225
100728.343878
100728.331441
100728.316286
100728.298842
100728.279495
100728.258673
100728.236748
100728.21412
100728.191132
100728.168142
100728.14545
100728.123361
100728.102104
100728.081946
100728.063178
100728.045822
100728.029885
100728.015671
100728.003293
100727.992707
100727.984035
100727.97745
100727.97297
100727.970551
100727.97015
100727.972021
100727.976126
100727.982105
100727.989875
100727.999355
100728.010433
100728.022996
100728.036911
100728.052042
100728.068232
100728.085323
100728.103132
100728.121471
100728.140133
100728.158912
100728.177606
100728.196083