/*--------------------------------*- C++ -*----------------------------------*\
| =========                 |                                                 |
| \\      /  F ield         | OpenFOAM: The Open Source CFD Toolbox           |
|  \\    /   O peration     | Version:  2206                                  |
|   \\  /    A nd           | Website:  www.openfoam.com                      |
|    \\/     M anipulation  |                                                 |
\*---------------------------------------------------------------------------*/
FoamFile
{
    version     2.0;
    format      ascii;
    arch        "LSB;label=64;scalar=64";
    class       volScalarField;
    location    "2.2/water";
    object      reactingEulerHtcModel(T.liquid);
}
// * * * * * * * * * * * * * * * * * * * * * * * * * * * * * * * * * * * * * //

dimensions      [1 0 -3 -1 0 0 0];

internalField   uniform 0;

boundaryField
{
    maxY
    {
        type            calculated;
        value           uniform 0;
    }
    symmetric
    {
        type            symmetry;
    }
    maxX
    {
        type            calculated;
        value           uniform 0;
    }
    minY
    {
        type            calculated;
        value           uniform 0;
    }
    emptyPatch
    {
        type            empty;
    }
    water_to_solid
    {
        type            calculated;
        value           nonuniform List<scalar> 
70
(
-100.258276219
-100.279192102
-101.856457995
-103.625272804
-107.997924867
-117.54500012
-137.74558293
-171.268653008
-206.356143779
-232.774333234
-241.952422064
-227.456830685
-229.783431415
-225.332731644
-229.867696788
-225.088599761
-229.669254725
-224.493548825
-229.836807518
-225.322340064
-229.998575014
-226.436603009
-230.28046294
-228.851101393
-230.922731162
-235.787293763
-246.416357495
-248.080845739
-244.889946483
-241.879407984
-241.903584264
-246.136730249
-232.557926795
-119.536139263
-123.47276551
-112.189538161
-121.313818063
-110.729469485
-120.192505913
-110.388849723
-119.920831439
-111.482213905
-120.180071378
-112.406080329
-120.418582971
-114.091893092
-120.57389344
-116.096965428
-120.847591723
-117.739062227
-121.290807561
-119.158508159
-122.136024235
-155.986024833
-229.357453972
-246.551606117
-246.224801101
-246.022240423
-246.619599684
-232.949686558
-233.822548804
-234.287129566
-234.693443507
-235.03359061
-235.225631605
-235.263291125
-235.550733954
-236.439073635
-243.989079203
-231.875462921
)
;
    }
}


// ************************************************************************* //
