/*--------------------------------*- C++ -*----------------------------------*\
| =========                 |                                                 |
| \\      /  F ield         | OpenFOAM: The Open Source CFD Toolbox           |
|  \\    /   O peration     | Version:  2206                                  |
|   \\  /    A nd           | Website:  www.openfoam.com                      |
|    \\/     M anipulation  |                                                 |
\*---------------------------------------------------------------------------*/
FoamFile
{
    version     2.0;
    format      ascii;
    arch        "LSB;label=64;scalar=64";
    class       volScalarField;
    location    "2.2/water";
    object      T.gas;
}
// * * * * * * * * * * * * * * * * * * * * * * * * * * * * * * * * * * * * * //

dimensions      [0 0 0 1 0 0 0];

internalField   nonuniform List<scalar> 
23300
(
333.000028136
333.000028157
333.0000304
333.000063812
333.000693258
333.003379276
333.006518141
333.009521523
333.01257419
333.01579424
333.01923715
333.022910492
333.026798148
333.030871803
333.035096028
333.039430863
333.0438335
333.04825961
333.052664529
333.057004313
333.061239279
333.065334254
333.069258428
333.072986249
333.076498028
333.079780219
333.082825371
333.085631771
333.088202831
333.09054626
333.092673145
333.094596982
333.09633277
333.097896194
333.099302962
333.100568283
333.101706506
333.102730884
333.103653463
333.104485043
333.105235207
333.105912394
333.106523984
333.107076402
333.10757522
333.108025253
333.108430643
333.108794943
333.109120746
333.109409972
333.109664387
333.109885589
333.110075007
333.110233907
333.110363407
333.110464484
333.110537991
333.110584672
333.110605171
333.110600051
333.110569801
333.110514852
333.110435587
333.110332354
333.110205476
333.110055267
333.109882038
333.109686114
333.109467842
333.109227606
333.108965835
333.108683015
333.108379691
333.108056478
333.107714058
333.107353176
333.106974637
333.106579283
333.106167977
333.105741564
333.105300825
333.104846404
333.104378704
333.103897733
333.103402862
333.102892453
333.102363261
333.101810127
333.10122784
333.10061194
333.099959606
333.099268973
333.098538738
333.097767981
333.096956087
333.096102703
333.095207703
333.094271152
333.093293257
333.092274319
333.091214676
333.090114635
333.088974417
333.08779408
333.086573455
333.085312074
333.084009095
333.082663229
333.081272666
333.079834995
333.078347121
333.076805185
333.075204462
333.073539279
333.071802924
333.069987654
333.0680839
333.06608016
333.06396295
333.061716506
333.059322287
333.056763685
333.054022651
333.051080484
333.047919113
333.044522904
333.04088115
333.036991305
333.032863023
333.028522973
333.024020508
333.019434337
333.014880734
333.01052427
333.006592232
333.003389026
333.001262319
333.000307257
333.000054252
333.000010119
333.000324181
333.000351016
333.000425893
333.000717452
333.001852316
333.004140449
333.007002563
333.010072087
333.013283616
333.016668682
333.02025321
333.024041668
333.028021121
333.03216679
333.036446052
333.040821151
333.045251178
333.049693683
333.054106128
333.058447329
333.062679019
333.066766904
333.070681399
333.074398278
333.077899129
333.081171523
333.0842089
333.087010163
333.089579049
333.091923323
333.094053885
333.095983865
333.097727762
333.099300699
333.100717796
333.101993698
333.103142239
333.104176222
333.105107315
333.105946013
333.106701665
333.107382535
333.107995883
333.108548061
333.109044609
333.109490347
333.109889467
333.110245619
333.110561366
333.110838699
333.111079433
333.111285212
333.111457508
333.111597636
333.111706766
333.111785932
333.111836052
333.111857937
333.111852309
333.11181981
333.111761017
333.111676454
333.111566603
333.111431918
333.111272833
333.111089775
333.110883178
333.11065349
333.110401186
333.110126779
333.109830829
333.109513952
333.109176825
333.108820189
333.10844485
333.108051674
333.107641577
333.107215505
333.106774415
333.106319234
333.105850809
333.105369834
333.104876737
333.104371535
333.103853611
333.103321435
333.102772269
333.102202052
333.101607132
333.100983204
333.100326892
333.099635691
333.098907766
333.098141789
333.097336824
333.096492249
333.095607694
333.094682983
333.09371808
333.092713039
333.091667942
333.090582848
333.089457733
333.088292428
333.087086559
333.085839483
333.084550226
333.083217409
333.081839184
333.080413158
333.078936313
333.077404919
333.07581444
333.074159418
333.072433354
333.070628552
333.068736102
333.066745337
333.064643927
333.062417812
333.060051316
333.05752775
333.054829502
333.051938563
333.048837525
333.04551112
333.041948394
333.038145567
333.034109625
333.029862635
333.025446811
333.020930419
333.016414812
333.01204301
333.008009754
333.004569073
333.002017862
333.000580545
333.000093637
333.000011309
333.00147961
333.00163767
333.00201687
333.002779217
333.004127715
333.006157518
333.008760427
333.011751467
333.01501768
333.01851205
333.022214064
333.026107097
333.030170272
333.034376773
333.038694457
333.043087138
333.047516021
333.051941119
333.056322633
333.060622293
333.064804607
333.06883791
333.072695177
333.076354619
333.079800021
333.083020815
333.086011879
333.088773099
333.091308729
333.093626623
333.095737408
333.097653654
333.099389116
333.100958056
333.102374707
333.103652847
333.104805505
333.105844771
333.106781697
333.107626266
333.108387409
333.109073057
333.109690217
333.11024505
333.110742962
333.111188686
333.111586372
333.111939661
333.112251185
333.112522915
333.112756639
333.112953967
333.113116347
333.113245073
333.113341296
333.113406045
333.113440234
333.113444681
333.11342012
333.113367214
333.11328657
333.113178747
333.113044274
333.112883658
333.112697396
333.112485986
333.112249942
333.111989798
333.111706126
333.11139954
333.111070707
333.110720354
333.110349272
333.109958321
333.109548421
333.109120552
333.108675737
333.108215024
333.107739454
333.107250024
333.106747629
333.106232983
333.105706516
333.105168238
333.104617562
333.104053119
333.103472592
333.102872708
333.102250515
333.101602955
333.100926654
333.100218809
333.099477169
333.098699974
333.097885876
333.097033868
333.096143219
333.095213414
333.094244101
333.093235035
333.092186031
333.091096906
333.089967431
333.088797277
333.08758596
333.086332781
333.085036771
333.083696628
333.082310649
333.080876663
333.079391952
333.077853173
333.076256251
333.074596276
333.072867358
333.071062443
333.069173406
333.067190768
333.065103644
333.062899691
333.060565152
333.058085034
333.055443375
333.052623754
333.049610123
333.046388085
333.042946694
333.039280869
333.035394443
333.031303904
333.027042806
333.022666893
333.018259964
333.01394033
333.009866912
333.006241486
333.003298268
333.001267762
333.000273916
333.000031203
333.003537008
333.003829649
333.004445794
333.005463912
333.006956392
333.008970448
333.011480516
333.014406826
333.017666464
333.021196684
333.024952828
333.028899753
333.033005274
333.037236704
333.041559554
333.0459375
333.050332984
333.054708157
333.059025945
333.063251159
333.067351527
333.071298597
333.075068434
333.078642094
333.08200585
333.085151166
333.088074435
333.090776516
333.093262112
333.095539061
333.097617586
333.099509562
333.101227853
333.102785732
333.104196411
333.105472679
333.106626652
333.107669601
333.108611868
333.109462832
333.110230924
333.110923669
333.111547748
333.112109064
333.112612826
333.113063615
333.113465471
333.113821955
333.114135863
333.11440907
333.114643267
333.114839977
333.115000564
333.115126248
333.115218114
333.11527713
333.115304157
333.11529997
333.115265265
333.115200674
333.115106783
333.114984138
333.114833263
333.114654667
333.114448861
333.114216365
333.113957723
333.113673509
333.113364341
333.113030889
333.112673881
333.112294114
333.11189245
333.111469822
333.111027229
333.110565725
333.110086405
333.109590379
333.109078742
333.108552528
333.108012649
333.107459821
333.106894466
333.106316599
333.105725697
333.105120576
333.104499318
333.103859291
333.103197314
333.102511861
333.101800077
333.101059169
333.100286732
333.099480741
333.098639536
333.097761779
333.096846409
333.0958926
333.094899709
333.093867232
333.092794761
333.091681932
333.09052838
333.089333691
333.08809735
333.086818687
333.085496825
333.084130617
333.082718585
333.081258856
333.079749086
333.078186382
333.076567209
333.07488728
333.073141425
333.071323416
333.069425973
333.067440806
333.065358436
333.06316813
333.060857916
333.058414674
333.05582436
333.053072409
333.050144415
333.047027145
333.043709998
333.040186971
333.036459198
333.032538101
333.028449177
333.024236374
333.019966984
333.015736675
333.011673659
333.007939774
333.004725009
333.002232081
333.000648283
333.000091928
333.006102395
333.00649016
333.007274467
333.008472179
333.010101239
333.012181319
333.014700593
333.017616505
333.020872171
333.024411156
333.028183473
333.032145418
333.036257307
333.040481345
333.044780337
333.049117208
333.053455135
333.057758074
333.061991503
333.066123244
333.070124265
333.073969376
333.077637755
333.081113276
333.084384617
333.087445148
333.090292628
333.092928734
333.095358479
333.097589569
333.099631732
333.101496091
333.103194586
333.104739477
333.106142951
333.107416808
333.108572244
333.109619707
333.110568816
333.111428333
333.112206167
333.112909412
333.11354439
333.114116717
333.114631363
333.115092721
333.115504671
333.115870651
333.116193704
333.116475554
333.116717755
333.1169217
333.117088633
333.117219658
333.117315757
333.1173778
333.11740656
333.117402727
333.117366921
333.117299708
333.11720161
333.117073119
333.116914709
333.116726851
333.116510023
333.116264718
333.115991462
333.115690819
333.115363403
333.115009885
333.114631001
333.114227557
333.11380043
333.113350569
333.112878989
333.112386757
333.111874978
333.111344769
333.11079722
333.110233354
333.109654064
333.109060044
333.108451704
333.107829081
333.107191736
333.106538684
333.105868345
333.105178574
333.10446677
333.103730149
333.102968129
333.102178145
333.101357835
333.100505117
333.099618197
333.098695559
333.09773595
333.096738349
333.095701931
333.094626039
333.093510137
333.092353774
333.09115654
333.089918021
333.088637749
333.087315155
333.08594951
333.084539875
333.083085036
333.08158344
333.080033129
333.078431662
333.076776025
333.075062534
333.073286707
333.071443121
333.069525313
333.067526074
333.065437173
333.063249306
333.060952089
333.058534124
333.055983165
333.053286438
333.050431169
333.047405384
333.044199071
333.04080576
333.0372246
333.033462979
333.029539714
333.025488765
333.02136337
333.017240238
333.013223108
333.009444552
333.00606458
333.00325833
333.001162549
333.000202837
333.008980126
333.009432611
333.01032234
333.011638932
333.013381867
333.015547234
333.018117609
333.021059526
333.024328109
333.027874039
333.031648633
333.035606003
333.039703234
333.043899777
333.048156808
333.052436893
333.056703998
333.060923799
333.065064171
333.069095774
333.072992621
333.07673257
333.080297678
333.083674382
333.086853503
333.089830068
333.092602975
333.09517454
333.097549956
333.099736713
333.101744022
333.103582259
333.105262479
333.106795992
333.10819402
333.10946744
333.110626588
333.111681136
333.112640019
333.113511407
333.114302703
333.115020572
333.115670977
333.116259232
333.116790054
333.117267619
333.117695619
333.11807732
333.118416084
333.118713478
333.118970899
333.119189582
333.119370621
333.119514978
333.1196235
333.119696932
333.119735928
333.119741068
333.119712865
333.119651784
333.119558254
333.119432677
333.119275444
333.119086946
333.118867588
333.118617797
333.118338034
333.118028804
333.117690666
333.117324239
333.11693021
333.116509336
333.116062447
333.115590443
333.115094286
333.114574989
333.1140336
333.113471171
333.112888726
333.112287219
333.111667478
333.111030143
333.110375595
333.109703887
333.109014669
333.108307141
333.107580022
333.106831575
333.106059672
333.105261902
333.104435605
333.103581236
333.102696558
333.10177962
333.100828686
333.099842249
333.098819033
333.097757986
333.096658254
333.095519158
333.094340163
333.093120844
333.091860847
333.090559848
333.089217506
333.087833414
333.086407048
333.084937713
333.083424481
333.081866133
333.080261087
333.078607331
333.076902336
333.075142964
333.073325358
333.071444805
333.0694956
333.067471449
333.065365194
333.063168744
333.060873071
333.058468255
333.055943616
333.053287964
333.050490007
333.047538993
333.04442562
333.041143311
333.037689895
333.034069772
333.030296573
333.026396319
333.022410984
333.018402255
333.014455162
333.010681163
333.007218924
333.004213518
333.001717283
333.000349152
333.012006555
333.012492428
333.013446463
333.014849957
333.016685052
333.018931664
333.021563573
333.02454643
333.02783878
333.031395025
333.035168503
333.039113578
333.043186614
333.047346206
333.051553121
333.055770229
333.059962567
333.064097555
333.068145341
333.072079188
333.07587586
333.07951593
333.082983985
333.08626868
333.089362659
333.092262323
333.094967486
333.097480941
333.099807963
333.101955796
333.103933144
333.105749698
333.107415708
333.108941631
333.110337831
333.111614355
333.112780771
333.113846049
333.114818504
333.11570576
333.116514748
333.117251727
333.117922317
333.118531533
333.119083838
333.119583181
333.120033048
333.120436488
333.12079706
333.121116396
333.121395725
333.121636095
333.121838417
333.122003484
333.122131987
333.122224518
333.122281592
333.122303649
333.122291075
333.122244208
333.122163351
333.12204879
333.121900801
333.121719661
333.121505665
333.121259133
333.120980421
333.120669931
333.120328118
333.1199555
333.11955266
333.119120251
333.118658995
333.118169681
333.117653157
333.117110318
333.116542089
333.115949396
333.115333141
333.114694156
333.114033161
333.11335071
333.112647136
333.111922494
333.11117651
333.110408547
333.109617588
333.108802247
333.107960815
333.107091319
333.106191593
333.105259362
333.104295131
333.103297806
333.10226589
333.101198019
333.100093068
333.098950113
333.097768428
333.096547457
333.0952868
333.093986177
333.092645396
333.091264317
333.089842803
333.088380679
333.086877677
333.085333383
333.083747182
333.082118195
333.080445217
333.078726643
333.076960395
333.075143831
333.073273648
333.071345761
333.069355166
333.067296297
333.065162898
333.062947893
333.060643381
333.058240674
333.055730408
333.053102737
333.050347662
333.047455537
333.044417803
333.04122801
333.037883188
333.034385627
333.030745112
333.026981629
333.023128526
333.019236107
333.015375615
333.01164336
333.008160774
333.005036154
333.002232776
333.000503482
333.015049259
333.015560725
333.016563768
333.018033371
333.019941506
333.022257511
333.024947334
333.027972826
333.031291991
333.034860248
333.038632117
333.042562707
333.046608715
333.050728957
333.054884621
333.059039402
333.063159642
333.067214524
333.071176308
333.075020596
333.078726563
333.082277124
333.085659015
333.08886275
333.091882474
333.094715702
333.097362966
333.099827409
333.102114327
333.104230715
333.106184816
333.107985714
333.109642962
333.111166275
333.112565273
333.113849288
333.115027214
333.11610741
333.117097638
333.118005036
333.118836108
333.11959674
333.120292228
333.120927307
333.121506194
333.122032632
333.122509938
333.122941058
333.123328643
333.123675638
333.123982897
333.124251205
333.124481255
333.124673646
333.124828886
333.1249474
333.125029537
333.125075581
333.125085764
333.125060274
333.124999267
333.124902883
333.124771252
333.124604511
333.124402809
333.124166324
333.123895268
333.1235899
333.123250529
333.122877524
333.122471318
333.122032409
333.121561363
333.121058803
333.120525414
333.119961917
333.119369066
333.118747615
333.118098299
333.117421792
333.116718678
333.115989401
333.115234228
333.114453201
333.113646108
333.112812451
333.111951442
333.11106201
333.110142829
333.109192366
333.10820894
333.107190802
333.106136261
333.105044339
333.103916688
333.102751913
333.101549225
333.100307973
333.099027689
333.097708076
333.096348986
333.0949504
333.093512394
333.0920351
333.090518671
333.08896323
333.087368821
333.085735361
333.084062577
333.082349955
333.080596671
333.078801526
333.076962875
333.075078544
333.07314574
333.071160942
333.069119782
333.067017286
333.064847943
333.062605513
333.060283023
333.057872801
333.055366568
333.052755599
333.050030989
333.047184069
333.044206992
333.041093575
333.037840419
333.034448396
333.030924543
333.02728443
333.023555071
333.019778491
333.016016071
333.012352914
333.008893924
333.005703153
333.002660627
333.000641776
333.018060146
333.018590012
333.019628688
333.021147085
333.023110773
333.025481902
333.028220168
333.031283215
333.034626999
333.038206452
333.041976409
333.045892549
333.049912185
333.053994805
333.058102432
333.062199857
333.066254822
333.070238202
333.074124174
333.077890385
333.081518067
333.084992107
333.088301019
333.091436841
333.094394932
333.097173689
333.099774204
333.10219987
333.104455973
333.106549275
333.108487621
333.110279574
333.111934098
333.113460282
333.114867118
333.11616333
333.117357241
333.118456683
333.119468942
333.120400726
333.121258162
333.122046798
333.122771629
333.123437126
333.124047264
333.124605562
333.125115124
333.125578674
333.125998607
333.126378513
333.126719031
333.127020733
333.127284104
333.127509537
333.127697344
333.127847762
333.127960957
333.128037039
333.128076064
333.12807805
333.128042984
333.127970836
333.127861566
333.127715139
333.127531534
333.127310754
333.127052836
333.126757858
333.126425948
333.126057288
333.125652122
333.125210755
333.124733551
333.124220936
333.123673384
333.123091414
333.122475571
333.121826408
333.121144465
333.120430242
333.119684165
333.11890656
333.118097614
333.117257349
333.116385596
333.115481976
333.114545901
333.113576574
333.112573019
333.111534113
333.11045863
333.109345301
333.108192866
333.107000112
333.105765622
333.104491046
333.103177342
333.101824046
333.100431082
333.098998489
333.097526483
333.096015397
333.094465668
333.092877793
333.091252288
333.08958965
333.087890298
333.086154533
333.084382473
333.082574002
333.080728707
333.078845814
333.076924116
333.074961905
333.072956881
333.070906061
333.068805676
333.066651227
333.064437828
333.062159929
333.059811318
333.057385156
333.054874054
333.052270212
333.049565645
333.046752522
333.043823657
333.040773201
333.037597587
333.034296784
333.030875946
333.027347543
333.023734127
333.020071924
333.016415322
333.012840366
333.009434045
333.006210508
333.002976766
333.00074927
333.021008294
333.021550588
333.022613721
333.024166281
333.026169874
333.028581813
333.031357107
333.034449681
333.037813118
333.04140121
333.045168539
333.049071061
333.053066656
333.057115578
333.061180797
333.065228251
333.069227037
333.073149571
333.076971704
333.080672819
333.084235866
333.087647345
333.090897219
333.093978744
333.096888244
333.099624808
333.102189956
333.104587267
333.106821995
333.108900702
333.110830894
333.112620708
333.114278615
333.115813191
333.117232909
333.118545986
333.119760267
333.120883141
333.121921486
333.122881644
333.123769408
333.124590027
333.125348226
333.126048229
333.126693782
333.127288191
333.127834345
333.128334738
333.12879149
333.129208599
333.129586752
333.129926357
333.130227679
333.130490889
333.130716082
333.130903287
333.131052475
333.13116356
333.13123641
333.131270854
333.131266691
333.131223703
333.13114166
333.131020334
333.130859509
333.13065899
333.130418611
333.130138244
333.129817807
333.12945727
333.129056656
333.128616046
333.128135581
333.127615455
333.127055914
333.126457246
333.125819771
333.125143824
333.124429738
333.123677826
333.122888354
333.122061519
333.121197425
333.120296063
333.119357292
333.118380832
333.117366259
333.116313017
333.115220434
333.114087754
333.112914166
333.111698847
333.110441004
333.109139907
333.107794922
333.10640567
333.104971114
333.10349481
333.101977926
333.100420659
333.098823767
333.097187951
333.095514109
333.093803171
333.092056096
333.090273823
333.088457216
333.086607021
333.084723809
333.082807916
333.080859387
333.078877912
333.07686276
333.07481271
333.072725973
333.070600115
333.068431956
333.066217408
333.063952115
333.061631103
333.059248788
333.056799015
333.054275126
333.051670084
333.048976671
333.046187769
333.043296786
333.04029824
333.037188566
333.033967211
333.030638107
333.027211652
333.023707385
333.020157583
333.016611511
333.013136902
333.009800607
333.006563924
333.003173615
333.000819923
333.023873832
333.024423659
333.025502016
333.027076422
333.029106239
333.031545713
333.034346558
333.037459774
333.040836779
333.044430076
333.048193713
333.052083682
333.056058278
333.060078437
333.064108009
333.068113983
333.072066664
333.075939789
333.079710616
333.083359954
333.086872143
333.090234975
333.093439558
333.09648011
333.099353703
333.102059963
333.104600735
333.10697973
333.109202171
333.111274448
333.113203794
333.114997997
333.116665137
333.118213369
333.119650745
333.120985073
333.122223803
333.123373956
333.124442071
333.125434175
333.126355775
333.127211859
333.12800691
333.12874493
333.129429464
333.130063628
333.130650151
333.131191406
333.131689468
333.132146361
333.132565373
333.132946378
333.13328929
333.133594005
333.133860377
333.134088212
333.13427727
333.134427258
333.134537845
333.134608659
333.1346393
333.134629347
333.134578368
333.134485928
333.134351601
333.134174977
333.133955672
333.133693335
333.133387655
333.133038368
333.132645262
333.132208179
333.131727014
333.131201718
333.130632292
333.130018783
333.129361273
333.128659873
333.127914703
333.127125883
333.126293514
333.125417661
333.124498336
333.123535487
333.122528983
333.121478616
333.120384094
333.119245057
333.118061093
333.116831756
333.1155566
333.114235206
333.112867219
333.111452372
333.109990524
333.108481679
333.106925982
333.105323986
333.103675408
333.101984115
333.100253002
333.09848247
333.096674242
333.094829637
333.092950129
333.091037175
333.089092144
333.087116303
333.085110742
333.083076318
333.0810136
333.078922807
333.076803741
333.074655722
333.072477523
333.070267291
333.068022477
333.065739403
333.063414175
333.061042308
333.058618748
333.056137907
333.053593729
333.050979812
333.048289573
333.045516503
333.042654538
333.039698561
333.036645126
333.033493431
333.030246678
333.026913959
333.02351287
333.020072996
333.016639509
333.013271656
333.010013947
333.00677436
333.003254582
333.000853969
333.026643828
333.027197188
333.028283162
333.029869114
333.031913424
333.034368642
333.037184383
333.040309568
333.043693893
333.047288687
333.051047396
333.054925893
333.058882731
333.062879369
333.066880381
333.070853631
333.074770411
333.078605535
333.082337381
333.085947882
333.089422463
333.092749917
333.095922233
333.098934362
333.101783949
333.104471024
333.106997675
333.109367708
333.111586314
333.113659746
333.115595023
333.117399657
333.119081417
333.120648129
333.122107513
333.123467044
333.124733858
333.125914677
333.127015758
333.128042866
333.129001264
333.129895712
333.130730481
333.131509368
333.132235724
333.132912479
333.133542168
333.13412696
333.134668685
333.135168858
333.135631617
333.13605676
333.136443999
333.136792995
333.137103366
333.137374692
333.137606513
333.137798329
333.137949601
333.138059753
333.138128181
333.138154259
333.138137346
333.138076796
333.137971966
333.137822225
333.137626963
333.137385599
333.137097584
333.136762416
333.136379636
333.135948836
333.135469661
333.13494181
333.134365032
333.133739125
333.133063931
333.132339328
333.131565219
333.130741529
333.129868183
333.128945105
333.127972204
333.126949364
333.125876442
333.124753265
333.123579638
333.122355348
333.121080184
333.119753957
333.11837652
333.116947801
333.115467823
333.113936735
333.112354833
333.110722582
333.109040631
333.107309835
333.10553121
333.103706231
333.101835822
333.099921953
333.097971347
333.095984289
333.093963042
333.091909721
333.089826159
333.087714268
333.085575731
333.08341199
333.081224226
333.079013266
333.076779525
333.074522944
333.072242927
333.069938278
333.067607134
333.065246361
333.062852464
333.060421391
333.057948544
333.055428816
333.052856665
333.050226213
333.047531414
333.04476628
333.041925206
333.039003436
333.03599771
333.032907168
333.029734637
333.026488448
333.023184983
333.0198519
333.016530665
333.013271371
333.010094433
333.006855859
333.003230618
333.000855517
333.029309692
333.029863327
333.030950686
333.032539643
333.034588544
333.03704931
333.039870469
333.042999661
333.046385381
333.049978043
333.053730545
333.057598576
333.061540812
333.065519066
333.069498443
333.073447464
333.077338169
333.08114618
333.084850712
333.088434535
333.091883876
333.095188268
333.098340345
333.1013356
333.104172095
333.106850154
333.109372042
333.111741632
333.113964086
333.116045554
333.117992887
333.119813389
333.121514592
333.123104071
333.124589286
333.125977458
333.127275473
333.128489814
333.129626511
333.130691114
333.131688681
333.132623777
333.133500484
333.134322421
333.135092762
333.135814262
333.136489284
333.13711982
333.137707512
333.138253664
333.13876156
333.139232486
333.139665831
333.140060969
333.14041726
333.140734049
333.141010658
333.141246376
333.141440461
333.141592138
333.141700603
333.141765028
333.141784568
333.141758369
333.141685576
333.141565339
333.141396825
333.141179222
333.140911747
333.140593657
333.140224245
333.139802854
333.139328876
333.138801753
333.13822098
333.137586103
333.136896718
333.136152465
333.135353024
333.134498109
333.133587464
333.132620855
333.131598063
333.130518886
333.129383134
333.128190632
333.126941229
333.125634807
333.124271297
333.122850695
333.12137309
333.11983868
333.118247799
333.116600939
333.114898771
333.113142161
333.111332185
333.109470137
333.107557529
333.105596108
333.103587774
333.101534744
333.099439364
333.097302527
333.09513155
333.092929767
333.090698526
333.088441009
333.086159476
333.083855923
333.08153229
333.079190114
333.076830502
333.074454112
333.072061076
333.069650931
333.067222547
333.064773795
333.062301361
333.059801632
333.057270434
333.054703092
333.052094507
333.049439259
333.046731759
333.043966466
333.041138187
333.038242508
333.035276395
333.03223906
333.029133193
333.025966732
333.022755289
333.019524971
333.016313491
333.013160933
333.010062417
333.00682449
333.003118076
333.000830746
333.031865589
333.032416864
333.033500542
333.035085488
333.037130726
333.039588387
333.042406748
333.045532881
333.048914612
333.052501754
333.056246793
333.060105234
333.064035777
333.06800044
333.071964662
333.075897393
333.079771174
333.08356217
333.087250161
333.090818483
333.094253906
333.097546464
333.100689236
333.103678079
333.106511343
333.109189554
333.111715095
333.114091881
333.116325055
333.118420685
333.120385505
333.122226664
333.123951524
333.125567473
333.127081779
333.128501472
333.129833248
333.131083406
333.132257797
333.133361797
333.134400297
333.135377695
333.136297913
333.13716441
333.137980202
333.138747888
333.139469678
333.140147421
333.140782641
333.141376592
333.141930367
333.14244804
333.142928521
333.143370876
333.143774216
333.144137663
333.144460327
333.144741299
333.144979645
333.145174403
333.145324582
333.145429165
333.145487117
333.145497389
333.145458924
333.145370665
333.145231566
333.145040594
333.144796738
333.144499017
333.144146487
333.143738242
333.14327342
333.14275121
333.142170849
333.141531627
333.140832889
333.140074027
333.139254487
333.138373762
333.137431393
333.136426965
333.135360107
333.134230495
333.13303785
333.131781951
333.130462636
333.129079821
333.127633509
333.126123815
333.124550979
333.122915394
333.121217623
333.11945842
333.117638752
333.115759812
333.113823029
333.111830079
333.109782886
333.107683617
333.105534668
333.10333866
333.101098387
333.098816784
333.096497435
333.094143036
333.091754862
333.089343286
333.086909759
333.084456203
333.08198604
333.079501539
333.077004483
333.074496386
333.071978246
333.069450433
333.066912675
333.064364019
333.061801614
333.059222246
333.056622148
333.053997054
333.051342271
333.048652793
333.045923439
333.043149063
333.040324845
333.037446696
333.034511837
333.031519631
333.028472786
333.025379062
333.022253531
333.019120832
333.016014618
333.012964113
333.009938432
333.006697878
333.002937225
333.000786708
333.034307452
333.034854261
333.035930183
333.03750542
333.039540204
333.041987521
333.044796082
333.047913018
333.051285975
333.054864506
333.058600868
333.062450424
333.06637185
333.070327236
333.074282177
333.07820584
333.082071025
333.085854187
333.089535414
333.093098356
333.096530089
333.099820936
333.10296423
333.105956048
333.108794906
333.111481451
333.114018134
333.116408894
333.118658853
333.120774028
333.122761068
333.124627022
333.126379132
333.128024659
333.129570739
333.131024263
333.132391795
333.133679493
333.134893075
333.136037782
333.137118366
333.138139093
333.139103746
333.140015644
333.140877664
333.14169226
333.142461493
333.143187049
333.143870262
333.144512122
333.145113269
333.145678208
333.146206141
333.146696042
333.147146831
333.147557424
333.147926739
333.148253686
333.148537158
333.148776026
333.148969132
333.149115293
333.149213305
333.149261942
333.149259965
333.14920613
333.149099192
333.148937911
333.148721061
333.148447439
333.148115863
333.147725188
333.147274304
333.146762145
333.146187689
333.145549968
333.144848063
333.144081113
333.143248314
333.142348919
333.141382244
333.140347666
333.139244629
333.138072647
333.136831311
333.135520296
333.134139375
333.13268843
333.131167467
333.129576639
333.127916261
333.126186833
333.124389059
333.12252387
333.120592437
333.118596194
333.11653684
333.114416355
333.112236999
333.110001308
333.107712089
333.105372403
333.10298554
333.100555009
333.09808452
333.095577801
333.093038693
333.090471778
333.087880173
333.085265675
333.082638912
333.080001518
333.077355308
333.074703139
333.072047161
333.069388591
333.066728108
333.064065884
333.061400276
333.058728466
333.056047091
333.053352303
333.050639822
333.047905033
333.04514314
333.042349367
333.039519246
333.036649006
333.03373614
333.030780217
333.02778405
333.024755329
333.021708648