/*--------------------------------*- C++ -*----------------------------------*\
| =========                 |                                                 |
| \\      /  F ield         | OpenFOAM: The Open Source CFD Toolbox           |
|  \\    /   O peration     | Version:  2206                                  |
|   \\  /    A nd           | Website:  www.openfoam.com                      |
|    \\/     M anipulation  |                                                 |
\*---------------------------------------------------------------------------*/
FoamFile
{
    version     2.0;
    format      ascii;
    arch        "LSB;label=64;scalar=64";
    class       volVectorField;
    location    "2.2/water";
    object      U.gas;
}
// * * * * * * * * * * * * * * * * * * * * * * * * * * * * * * * * * * * * * //

dimensions      [0 1 -1 0 0 0 0];

internalField   nonuniform List<vector> 
23300
(
(7.48441004023e-05 0.136311288585 0)
(0.000147291612003 0.136356116743 0)
(0.000119244973594 0.136408697755 0)
(8.00633751269e-05 0.136488919396 0)
(0.000176755345563 0.136645853176 0)
(0.000371257244603 0.136802900491 0)
(0.000286276589686 0.136829525508 0)
(-0.000188723120594 0.136826641409 0)
(-0.000816364356865 0.136832628857 0)
(-0.00147005622461 0.136839141268 0)
(-0.00216245381214 0.136839743079 0)
(-0.00292170874769 0.136833594009 0)
(-0.00376099116111 0.136820824819 0)
(-0.00468057037032 0.136803289744 0)
(-0.00567638075898 0.136781363364 0)
(-0.00674183300236 0.136756865098 0)
(-0.00786981652605 0.136729920643 0)
(-0.00905229024946 0.136702278083 0)
(-0.0102813473769 0.136673834447 0)
(-0.0115486613633 0.136646277195 0)
(-0.0128462907983 0.136619266793 0)
(-0.0141661887316 0.136594409157 0)
(-0.0155008371241 0.136571105056 0)
(-0.0168428277636 0.136550851747 0)
(-0.0181853566338 0.136532779384 0)
(-0.0195218481303 0.136518270099 0)
(-0.0208463259552 0.136506203868 0)
(-0.0221530635365 0.13649787108 0)
(-0.0234368660416 0.136491954699 0)
(-0.0246927419047 0.136489703071 0)
(-0.0259161310024 0.136489674708 0)
(-0.0271026064254 0.136493131614 0)
(-0.0282480866258 0.136498578538 0)
(-0.0293485687592 0.136507336454 0)
(-0.0304003402136 0.136517909421 0)
(-0.0313997416995 0.136531699305 0)
(-0.0323433866304 0.136547238651 0)
(-0.0332279429036 0.13656601122 0)
(-0.0340503528121 0.136586587091 0)
(-0.0348076285259 0.136610516328 0)
(-0.0354970707777 0.136636402676 0)
(-0.0361160728062 0.136665841428 0)
(-0.0366623286191 0.136697461044 0)
(-0.0371336478228 0.136732880085 0)
(-0.037528142678 0.136770743356 0)
(-0.037843995063 0.136812676513 0)
(-0.0380787240396 0.136857313112 0)
(-0.0382293787509 0.136906235161 0)
(-0.0382951015547 0.136957933663 0)
(-0.0382766168251 0.137013865962 0)
(-0.0381740134597 0.13707265055 0)
(-0.0379867533088 0.137135807828 0)
(-0.0377146294561 0.137201866163 0)
(-0.0373577586736 0.137272220954 0)
(-0.0369166275298 0.137345293626 0)
(-0.0363920860285 0.137422363923 0)
(-0.0357853540524 0.13750174359 0)
(-0.035098060307 0.137584593895 0)
(-0.0343322031901 0.137669104771 0)
(-0.0334902298048 0.137756309698 0)
(-0.0325749506688 0.137844260895 0)
(-0.0315896502888 0.137933853061 0)
(-0.0305379530822 0.138022983006 0)
(-0.0294239601399 0.138112391338 0)
(-0.0282520724575 0.138199799616 0)
(-0.0270271449703 0.138285776306 0)
(-0.0257542713849 0.138367845993 0)
(-0.0244389515493 0.138446381995 0)
(-0.023086851412 0.138518690313 0)
(-0.0217039811757 0.138584927934 0)
(-0.0202964461704 0.138642170111 0)
(-0.0188706439188 0.13869035072 0)
(-0.0174330365692 0.138726334368 0)
(-0.0159903826685 0.138749875876 0)
(-0.0145495687443 0.138757730501 0)
(-0.013117903676 0.138749634464 0)
(-0.0117030571705 0.138722507546 0)
(-0.0103134396944 0.138676470776 0)
(-0.00895827241775 0.138609223693 0)
(-0.00764801774922 0.138522148962 0)
(-0.00639443335098 0.138415000221 0)
(-0.00521053312306 0.138292200679 0)
(-0.00410913673403 0.138158009579 0)
(-0.00309830557248 0.13802301248 0)
(-0.00216816321094 0.137899264017 0)
(-0.00127670981968 0.137804134967 0)
(-0.000395225074716 0.13774941851 0)
(0.000456198676874 0.137740086566 0)
(0.00126861876084 0.137773726404 0)
(0.00207862070938 0.137843601987 0)
(0.00294065668149 0.137931828623 0)
(0.00388388498371 0.138023124837 0)
(0.00490350797764 0.138104094926 0)
(0.00598295200531 0.138167901257 0)
(0.00710366077451 0.138209131955 0)
(0.00824772698569 0.1382270472 0)
(0.00939932861796 0.138220921312 0)
(0.0105443568392 0.138193247597 0)
(0.0116706905946 0.138145656076 0)
(0.0127674273488 0.138082013471 0)
(0.0138250368084 0.138004834235 0)
(0.0148346649019 0.137918221171 0)
(0.0157883733796 0.137824705733 0)
(0.0166785987548 0.137727997939 0)
(0.0174984903486 0.137630199821 0)
(0.0182415000798 0.137534344466 0)
(0.0189017813873 0.137441931135 0)
(0.019473860599 0.137355243109 0)
(0.019953055867 0.137275161044 0)
(0.0203351919018 0.137203257633 0)
(0.0206170170601 0.13713985186 0)
(0.0207959456548 0.137085883982 0)
(0.0208704760199 0.137041177262 0)
(0.0208399547577 0.137006096212 0)
(0.0207047074431 0.136979995428 0)
(0.0204658581658 0.136962969359 0)
(0.0201253530975 0.136954621429 0)
(0.0196850226426 0.136954924083 0)
(0.0191471146881 0.136963021611 0)
(0.0185143727099 0.136978592369 0)
(0.017790417561 0.137000797487 0)
(0.0169793479454 0.137029283474 0)
(0.0160859248189 0.137063253384 0)
(0.0151152083738 0.137102326527 0)
(0.0140727882465 0.137145721102 0)
(0.0129644906345 0.137192965514 0)
(0.0117967022535 0.137243169678 0)
(0.0105762101857 0.137295575649 0)
(0.00931071153804 0.137348886969 0)
(0.00800892935375 0.137401614662 0)
(0.00668162156421 0.137451372403 0)
(0.00534278431215 0.137494819065 0)
(0.00401336788462 0.137526444756 0)
(0.00272947393114 0.137536938981 0)
(0.00155997443377 0.137508454759 0)
(0.000613579629424 0.13740633215 0)
(-1.53762190333e-05 0.137186830286 0)
(-0.000315564787837 0.136872287222 0)
(-0.000330828548463 0.136594503782 0)
(-0.000136651916731 0.136448734112 0)
(9.75860292184e-05 0.246591800977 0)
(0.000254820315432 0.246706471379 0)
(0.000313991510174 0.246949451439 0)
(0.000248512869612 0.247337993139 0)
(0.00013933007694 0.247855689544 0)
(3.9982098816e-05 0.248282184317 0)
(-0.000203395711881 0.248456472766 0)
(-0.000693550306863 0.248549110442 0)
(-0.00135031636894 0.248647706528 0)
(-0.00208378614681 0.24875790313 0)
(-0.00286341799085 0.248867532334 0)
(-0.00369099475109 0.248969629561 0)
(-0.00457240156213 0.249059513339 0)
(-0.0055097465765 0.249136883174 0)
(-0.00650190070218 0.249200193917 0)
(-0.00754532185547 0.249250837213 0)
(-0.0086352872422 0.249287976403 0)
(-0.00976607328378 0.249313541218 0)
(-0.010931613976 0.249326804999 0)
(-0.0121254414132 0.249329913933 0)
(-0.0133411208802 0.249322067485 0)
(-0.0145721323861 0.249305528738 0)
(-0.0158121816698 0.249279371139 0)
(-0.0170550628287 0.249245947575 0)
(-0.0182948809222 0.249204203724 0)
(-0.0195259040327 0.249156582436 0)
(-0.0207427191522 0.249101920725 0)
(-0.0219400833403 0.24904275411 0)
(-0.0231130430056 0.248977829819 0)
(-0.0242567990609 0.248909769129 0)
(-0.0253668127223 0.248837239557 0)
(-0.0264386933326 0.248762926391 0)
(-0.0274683058071 0.248685417227 0)
(-0.0284516791098 0.248607431939 0)
(-0.0293851128054 0.248527475195 0)
(-0.0302650960528 0.24844827016 0)
(-0.0310884095558 0.248368236657 0)
(-0.0318520466412 0.248290074633 0)
(-0.0325533039664 0.248212121379 0)
(-0.0331897006255 0.248137031445 0)
(-0.0337590592979 0.248063063851 0)
(-0.0342594251164 0.247992811175 0)
(-0.0346891363256 0.247924459761 0)
(-0.0350467454519 0.247860526371 0)
(-0.0353310842693 0.24779912827 0)
(-0.035541227679 0.247742692082 0)
(-0.0356760600731 0.247689256067 0)
(-0.0357344554561 0.247641221786 0)
(-0.035716352604 0.247596588806 0)
(-0.0356222574641 0.2475575885 0)
(-0.0354525963805 0.247522164651 0)
(-0.0352078709951 0.247492487142 0)
(-0.0348888387364 0.247466422199 0)
(-0.0344964867525 0.247446008295 0)
(-0.0340320642346 0.247429004785 0)
(-0.0334970910246 0.247417320049 0)
(-0.0328933688863 0.247408601461 0)
(-0.0322230002497 0.247404629967 0)
(-0.0314883792902 0.2474029324 0)
(-0.0306922210466 0.24740516153 0)
(-0.029837534272 0.24740871243 0)
(-0.0289276593595 0.247415108401 0)
(-0.0279662204176 0.247421602542 0)
(-0.0269571683106 0.247429585755 0)
(-0.0259047135832 0.247436160277 0)
(-0.0248133715445 0.247442582532 0)
(-0.0236878738224 0.247445799957 0)
(-0.0225332106387 0.247446933899 0)
(-0.0213545224148 0.247442781561 0)
(-0.0201571349665 0.247434338689 0)
(-0.0189464288699 0.247418278305 0)
(-0.0177278618535 0.247395505528 0)
(-0.0165068170346 0.24736264005 0)
(-0.0152886069664 0.247320592926 0)
(-0.0140782958319 0.247266094267 0)
(-0.0128806711991 0.247200280406 0)
(-0.011700023532 0.247120327254 0)
(-0.0105400431731 0.247028041422 0)
(-0.00940348545777 0.246921676163 0)
(-0.0082918626992 0.246804526627 0)
(-0.00720478709084 0.246677015386 0)
(-0.00613911514866 0.246545278517 0)
(-0.00508744330029 0.24641352318 0)
(-0.00403611449154 0.24629229133 0)
(-0.00296371507486 0.246190136903 0)
(-0.00184704321734 0.246118529577 0)
(-0.000697313058937 0.246079505447 0)
(0.000438309929929 0.246074103382 0)
(0.00152317680454 0.246100363823 0)
(0.00254324409379 0.246160791745 0)
(0.00351094284595 0.246247747871 0)
(0.00445228448138 0.246350262679 0)
(0.00538431491901 0.246455460985 0)
(0.00631582301752 0.246556385399 0)
(0.00725027722929 0.246645984638 0)
(0.00818777826527 0.24672259457 0)
(0.00912641040068 0.246783788009 0)
(0.0100627809556 0.246831311506 0)
(0.0109925658827 0.246865469105 0)
(0.0119106161501 0.246889725163 0)
(0.0128112823936 0.246905671819 0)
(0.0136884200277 0.246917315731 0)
(0.0145356639601 0.246926594662 0)
(0.0153464171574 0.246937338962 0)
(0.0161141082542 0.246951285452 0)
(0.0168321732512 0.246971705493 0)
(0.0174942940367 0.246999861706 0)
(0.0180943673011 0.247038301344 0)
(0.0186267164208 0.247087705142 0)
(0.0190860412807 0.247149851925 0)
(0.0194675991327 0.247224813602 0)
(0.0197671292124 0.247313602997 0)
(0.0199809921744 0.247415675824 0)
(0.0201060725975 0.247531282431 0)
(0.0201403525962 0.247659255343 0)
(0.0200830979568 0.247799202266 0)
(0.0199335462028 0.247950111371 0)
(0.0196903789584 0.248111705665 0)
(0.0193532911515 0.248282264106 0)
(0.0189230580121 0.248460678598 0)
(0.0184011605195 0.248644953053 0)
(0.0177896475146 0.248833626239 0)
(0.0170911974225 0.249024468799 0)
(0.016308975377 0.249215716009 0)
(0.0154466760613 0.249404940556 0)
(0.014508376324 0.249590093506 0)
(0.0134985944478 0.249768518137 0)
(0.0124222010409 0.249937766132 0)
(0.0112846025298 0.250094666726 0)
(0.0100918918577 0.250235768569 0)
(0.00885148993636 0.250356160557 0)
(0.00757319241356 0.250448921702 0)
(0.00627155672716 0.250502365592 0)
(0.00496980202997 0.250495610947 0)
(0.00370408562113 0.250388380861 0)
(0.00252291971821 0.2501060221 0)
(0.00148145661439 0.249546198209 0)
(0.000651869695485 0.248694307327 0)
(0.00013881979474 0.247791530989 0)
(-1.16835594814e-05 0.247216999846 0)
(-9.49921395988e-05 0.224809611926 0)
(-0.00027812367119 0.224950825937 0)
(-0.000476960875135 0.225408815314 0)
(-0.000679410453732 0.226103592735 0)
(-0.000798185810312 0.226881915031 0)
(-0.000886193110154 0.227500007453 0)
(-0.00112616374584 0.227899079736 0)
(-0.00159737902469 0.228180748494 0)
(-0.00225713257203 0.228432070978 0)
(-0.00303657925881 0.228687135432 0)
(-0.00389126090461 0.228945593678 0)
(-0.00480295876111 0.229200204251 0)
(-0.00576609971745 0.229443286244 0)
(-0.00677796397563 0.229670180642 0)
(-0.00783579461386 0.229876761535 0)
(-0.00893573595672 0.230061126128 0)
(-0.0100732542848 0.230221006817 0)
(-0.0112430324046 0.230355846802 0)
(-0.0124394796411 0.230464285281 0)
(-0.0136566476131 0.230546517829 0)
(-0.0148886322376 0.230601728902 0)
(-0.016129471652 0.230630669426 0)
(-0.0173734446053 0.230632965781 0)
(-0.018614949169 0.230609879958 0)
(-0.0198487121527 0.230561459337 0)
(-0.0210696470051 0.230489458809 0)
(-0.0222729928361 0.23039431561 0)
(-0.0234541648439 0.230278214889 0)
(-0.0246088546463 0.230141893693 0)
(-0.025732890411 0.229987840521 0)
(-0.0268223251018 0.22981694878 0)
(-0.0278733218124 0.229631842038 0)
(-0.0288822475084 0.22943340788 0)
(-0.0298455826398 0.229224241398 0)
(-0.0307600190136 0.229005090025 0)
(-0.0316223867414 0.228778397898 0)
(-0.0324297511053 0.228544688173 0)
(-0.033179345099 0.22830618661 0)
(-0.0338686566107 0.228063161817 0)
(-0.0344953630451 0.227817600294 0)
(-0.0350574081641 0.22756952249 0)
(-0.0355529369015 0.227320685183 0)
(-0.0359803606327 0.227070888336 0)
(-0.0363382984327 0.226821681568 0)
(-0.0366256413807 0.226572674812 0)
(-0.0368415177356 0.2263252329 0)
(-0.03698459855 0.226078825636 0)
(-0.0370533212418 0.225834740618 0)
(-0.0370475533205 0.225592553636 0)
(-0.0369681910592 0.225353624299 0)
(-0.0368158497411 0.225117255724 0)
(-0.0365909357276 0.224884548808 0)
(-0.0362941058575 0.224654813413 0)
(-0.0359262501461 0.224429149945 0)
(-0.0354884971122 0.224206875389 0)
(-0.0349822297317 0.2239890891 0)
(-0.0344090823394 0.223775117575 0)
(-0.0337709675472 0.223566069849 0)
(-0.0330700559873 0.223361288455 0)
(-0.0323088127659 0.22316190218 0)
(-0.0314899605575 0.222967273549 0)
(-0.0306165210266 0.222778560407 0)
(-0.029691758673 0.222595150682 0)
(-0.0287192249355 0.222418240365 0)
(-0.0277026833248 0.222247249123 0)
(-0.0266461503986 0.222083422386 0)
(-0.025553799444 0.22192622362 0)
(-0.0244299947212 0.221776962013 0)
(-0.0232791735203 0.221635161705 0)
(-0.022105866962 0.221502214728 0)
(-0.0209145574539 0.221377730918 0)
(-0.0197096819723 0.221263208148 0)
(-0.0184954649081 0.221158370941 0)
(-0.0172758970321 0.221064846761 0)
(-0.0160545396664 0.220982502814 0)
(-0.0148344707123 0.220913107092 0)
(-0.0136180498079 0.220856669855 0)
(-0.0124068052841 0.220815055337 0)
(-0.0112011237565 0.220788314786 0)
(-0.0100000239326 0.22077817604 0)
(-0.00880070351095 0.220784298521 0)
(-0.00759813747322 0.220807481735 0)
(-0.00638452286446 0.220845637397 0)
(-0.00514926473123 0.220896355088 0)
(-0.00388059160005 0.220952180277 0)
(-0.00257132764558 0.221002703535 0)
(-0.00123958441668 0.221032657624 0)
(6.95198448675e-05 0.221038822263 0)
(0.00132733584138 0.221021735636 0)
(0.00252823237698 0.220992178106 0)
(0.00366844831522 0.220967740505 0)
(0.00475360981331 0.220958134803 0)
(0.00579593615319 0.220966972958 0)
(0.00680428544086 0.220996510585 0)
(0.00778467124461 0.221046417647 0)
(0.0087406446602 0.221116946111 0)
(0.00967398426574 0.221206925615 0)
(0.0105849782218 0.221316262327 0)
(0.0114728381333 0.221443808004 0)
(0.012335779721 0.221589527586 0)
(0.0131713082044 0.221752472028 0)
(0.013976230223 0.221932711889 0)
(0.014746904615 0.222129474032 0)
(0.0154792407964 0.222342881074 0)
(0.0161689392074 0.222572262455 0)
(0.0168114861684 0.222817718726 0)
(0.0174023822259 0.223078601637 0)
(0.0179371267633 0.223354914677 0)
(0.0184114249544 0.223645950366 0)
(0.0188211542428 0.22395153668 0)
(0.0191625423351 0.224270817686 0)
(0.0194321085105 0.224603356754 0)
(0.0196268090066 0.224948051915 0)
(0.0197439583955 0.225304118072 0)
(0.0197814828279 0.225670131952 0)
(0.0197389927328 0.226044669254 0)
(0.0196164473774 0.226426123573 0)
(0.019411903078 0.226813459527 0)
(0.0191240837161 0.227204588496 0)
(0.0187532576614 0.22759744245 0)
(0.0183001533815 0.227989330826 0)
(0.0177658531996 0.22837753735 0)
(0.0171518499576 0.228758786731 0)
(0.016459913235 0.229129787091 0)
(0.0156921354897 0.229486799961 0)
(0.0148508131292 0.229826129581 0)
(0.0139385379993 0.230143767346 0)
(0.0129581765779 0.230435769115 0)
(0.0119131366797 0.230697837571 0)
(0.010807643399 0.2309253301 0)
(0.00964749471702 0.231112289775 0)
(0.00844111466322 0.231250166364 0)
(0.00720135010845 0.231324566959 0)
(0.00594719974686 0.23130958903 0)
(0.00470403188815 0.231157799389 0)
(0.00349955538813 0.230788110135 0)
(0.00235864027118 0.230081962096 0)
(0.00131620424552 0.228931099584 0)
(0.000491371720019 0.227441644573 0)
(7.86064531559e-05 0.226198156568 0)
(-0.000262823546724 0.22846252295 0)
(-0.000696651047044 0.228598488327 0)
(-0.00106956031103 0.229145063078 0)
(-0.00142631688478 0.22993264526 0)
(-0.00169629826299 0.230792339741 0)
(-0.00193854454085 0.231554489879 0)
(-0.00226390258279 0.23215470376 0)
(-0.00275034524963 0.232628536321 0)
(-0.00340266694729 0.233034629135 0)
(-0.0041858904225 0.233410693198 0)
(-0.0050641570391 0.233771294001 0)
(-0.00601343786094 0.234118152519 0)
(-0.00702020914937 0.234448163894 0)
(-0.00807612534838 0.23475731486 0)
(-0.00917508450115 0.235041703092 0)
(-0.0103113749253 0.2352981566 0)
(-0.0114794780244 0.235523969642 0)
(-0.0126736211738 0.23571717584 0)
(-0.013888085029 0.235876140509 0)
(-0.0151170130213 0.235999879938 0)
(-0.0163547403217 0.23608762592 0)
(-0.0175956548308 0.236139226843 0)
(-0.0188344643739 0.236154674321 0)
(-0.020066057891 0.236134573723 0)
(-0.0212856974941 0.2360796125 0)
(-0.022488865705 0.235991087385 0)
(-0.0236713935208 0.235870298076 0)
(-0.02482930102 0.235719121074 0)
(-0.0259588885556 0.235539325035 0)
(-0.0270565886014 0.235333193659 0)
(-0.0281190464515 0.235102769496 0)
(-0.0291429969924 0.234850532791 0)
(-0.0301253509616 0.234578588614 0)
(-0.0310630988033 0.234289412297 0)
(-0.0319534030341 0.233984992378 0)
(-0.0327935216633 0.233667645109 0)
(-0.0335809007732 0.233339121815 0)
(-0.0343131084395 0.233001490927 0)
(-0.0349879199182 0.232656211635 0)
(-0.0356032561996 0.232305074282 0)
(-0.0361572589284 0.231949240964 0)
(-0.036648232777 0.231590236506 0)
(-0.0370747092097 0.23122895471 0)
(-0.0374353962963 0.230866690368 0)
(-0.0377292371952 0.230504112579 0)
(-0.0379553679952 0.230142333993 0)
(-0.0381125586235 0.229781857699 0)
(-0.0381989529188 0.229423503753 0)
(-0.0382138130416 0.22906780209 0)
(-0.0381582023387 0.228715978742 0)
(-0.0380330239318 0.228368343907 0)
(-0.0378385236081 0.228025789196 0)
(-0.0375751635785 0.227688633244 0)
(-0.0372436199985 0.227357797456 0)
(-0.036844778249 0.227033626431 0)
(-0.0363797503287 0.226717088311 0)
(-0.0358498635725 0.226408565812 0)
(-0.0352566908746 0.2261090825 0)
(-0.0346020242659 0.22581906281 0)
(-0.0338879126446 0.225539584278 0)
(-0.0331166193256 0.225271106863 0)
(-0.0322906642227 0.225014753439 0)
(-0.0314127637614 0.224771007385 0)
(-0.0304858736218 0.224541020301 0)
(-0.0295131106559 0.224325278683 0)
(-0.0284977924092 0.224124939278 0)
(-0.0274433395365 0.223940464469 0)
(-0.0263533077498 0.22377298171 0)
(-0.0252312704401 0.223622889292 0)
(-0.0240808394081 0.223491237088 0)
(-0.0229055270589 0.223378303487 0)
(-0.0217087530078 0.223284990565 0)
(-0.0204936876942 0.223211374767 0)
(-0.0192632439818 0.223158110134 0)
(-0.0180199042399 0.223124953576 0)
(-0.0167656961606 0.22311216461 0)
(-0.0155020048518 0.223119004 0)
(-0.0142295302397 0.223145113682 0)
(-0.0129480819764 0.223188976657 0)
(-0.0116565199417 0.223249244791 0)
(-0.0103525547362 0.223323132131 0)
(-0.00903276099259 0.22340764345 0)
(-0.00769265588982 0.223497868372 0)
(-0.00632752106156 0.223588099779 0)
(-0.004934332142 0.223670232005 0)
(-0.00351587463636 0.223735531691 0)
(-0.00208422565224 0.22377491346 0)
(-0.00067372819028 0.22378676273 0)
(0.00068377437323 0.223777695208 0)
(0.00199093935657 0.223749092036 0)
(0.00324920038496 0.223707993465 0)
(0.00445023523921 0.223668851555 0)
(0.00559577299724 0.223638253488 0)
(0.00669049841409 0.223622276092 0)
(0.00773840643848 0.223624800115 0)
(0.00874264589164 0.223649310934 0)
(0.00970556333304 0.223697971967 0)
(0.010628653675 0.223772786019 0)
(0.0115127519127 0.223874818737 0)
(0.0123579684784 0.224005130558 0)
(0.0131638610981 0.224164023787 0)
(0.0139293802123 0.224351867889 0)
(0.0146530488395 0.224568398008 0)
(0.0153329233363 0.224813454838 0)
(0.0159667846974 0.225086345763 0)
(0.016552110249 0.225386507889 0)
(0.0170862681355 0.225712928775 0)
(0.0175664902763 0.226064735784 0)
(0.0179900580009 0.226440669277 0)
(0.0183542653789 0.226839600064 0)
(0.0186565857057 0.22726004742 0)
(0.0188946172467 0.227700627607 0)
(0.0190662243278 0.228159613096 0)
(0.0191694577398 0.228635320135 0)
(0.0192025364477 0.229125711905 0)
(0.0191655664084 0.229628602537 0)
(0.0190594215009 0.230141742516 0)
(0.0188820208277 0.230663229096 0)
(0.0186314758762 0.231190394184 0)
(0.0183077725752 0.231720407371 0)
(0.0179111246333 0.23224998433 0)
(0.0174418874497 0.232775626537 0)
(0.0169006235113 0.233293406337 0)
(0.0162879854979 0.233799199852 0)
(0.0156047829226 0.234288532687 0)
(0.0148519013037 0.234756804382 0)
(0.0140304391549 0.235199157786 0)
(0.0131417498951 0.235610609333 0)
(0.0121877674856 0.235985766235 0)
(0.0111713240749 0.236318542167 0)
(0.0100968470195 0.236601155903 0)
(0.00897109753082 0.236822465908 0)
(0.00780409986893 0.236964668331 0)
(0.00660928027472 0.236997937798 0)
(0.00540187201172 0.236872318975 0)
(0.00419406254935 0.236508067487 0)
(0.00298955599312 0.235787891472 0)
(0.00181471852234 0.234556602531 0)
(0.000796594451832 0.232705273382 0)
(0.000175835387414 0.230688704378 0)
(-0.000421162780538 0.228336382847 0)
(-0.00101852000296 0.228462014607 0)
(-0.0014799865595 0.229010331159 0)
(-0.00200619108639 0.229802755872 0)
(-0.00245397402999 0.230693437264 0)
(-0.00286722964301 0.231555084599 0)
(-0.0033204670132 0.23231558567 0)
(-0.00387702244891 0.232968393027 0)
(-0.00456065576835 0.233540301696 0)
(-0.00536252600412 0.234059171347 0)
(-0.00626150138118 0.234542066104 0)
(-0.00723732451652 0.234995864079 0)
(-0.00827494870846 0.235421582099 0)
(-0.00936329604332 0.23581731096 0)
(-0.0104939379931 0.236180237512 0)
(-0.0116595124611 0.236507248082 0)
(-0.0128534160364 0.236795568691 0)
(-0.014069214901 0.237042695686 0)
(-0.0153008398118 0.237246709463 0)
(-0.0165423201063 0.237406069353 0)
(-0.0177880580362 0.237519850582 0)
(-0.0190326488596 0.237587520683 0)
(-0.0202711176449 0.237609145892 0)
(-0.0214987529316 0.23758516872 0)
(-0.0227112791601 0.237516584268 0)
(-0.0239046827642 0.23740471959 0)
(-0.0250753275518 0.237251372248 0)
(-0.0262197791791 0.237058591297 0)
(-0.027334888315 0.236828776339 0)
(-0.0284176296466 0.236564469659 0)
(-0.029465177459 0.236268421826 0)
(-0.0304747722992 0.235943409347 0)
(-0.0314438033394 0.23559227721 0)
(-0.0323697041513 0.235217798143 0)
(-0.0332500422842 0.234822699486 0)
(-0.0340824377243 0.234409572799 0)
(-0.0348646536686 0.233980886913 0)
(-0.0355945285644 0.233538951125 0)
(-0.0362700606531 0.233085910564 0)
(-0.0368893481554 0.232623759466 0)
(-0.0374506637562 0.23215431307 0)
(-0.0379524008504 0.231679267016 0)
(-0.0383931362566 0.231200139808 0)
(-0.0387715842298 0.230718373007 0)
(-0.0390866506557 0.230235241186 0)
(-0.0393374041641 0.229751992143 0)
(-0.0395229597557 0.229269709593 0)
(-0.0396410461117 0.228789101049 0)
(-0.0396896811636 0.22831134097 0)
(-0.0396700713864 0.227837871794 0)
(-0.0395835776626 0.227369566012 0)
(-0.039430197487 0.226907437656 0)
(-0.0392101255338 0.226452392873 0)
(-0.0389237490342 0.226005491226 0)
(-0.0385716339894 0.225567684172 0)
(-0.038154548685 0.225140102795 0)
(-0.0376734465159 0.224723760076 0)
(-0.0371294999508 0.224319863167 0)
(-0.0365240685058 0.223929484048 0)
(-0.0358587398299 0.223553895184 0)
(-0.0351352823141 0.223194210362 0)
(-0.0343556897357 0.222851743714 0)
(-0.0335221174362 0.222527621779 0)
(-0.0326369274914 0.222223163977 0)
(-0.0317026082914 0.22193946687 0)
(-0.0307218167378 0.221677805175 0)
(-0.0296972807793 0.221439188075 0)
(-0.0286318359629 0.221224777745 0)
(-0.0275283115936 0.22103541743 0)
(-0.0263895594526 0.220872065459 0)
(-0.0252183249956 0.220735293824 0)
(-0.0240172683359 0.220625733933 0)
(-0.0227888245999 0.22054354468 0)
(-0.0215352195376 0.220488867721 0)
(-0.0202583250558 0.220461263598 0)
(-0.0189596749298 0.220460172962 0)
(-0.0176403240613 0.220484319202 0)
(-0.0163008730375 0.220532171795 0)
(-0.0149413457609 0.220601311765 0)
(-0.0135612509443 0.220688889457 0)
(-0.012159537875 0.220790951347 0)
(-0.0107348290401 0.220902895185 0)
(-0.00928573488246 0.221018798654 0)
(-0.00781178861548 0.221131981754 0)
(-0.00631489433279 0.221234657982 0)
(-0.00480142069171 0.221319255133 0)
(-0.00328379498577 0.221379536748 0)
(-0.00177974097687 0.221412364676 0)
(-0.00032050755129 0.221424181162 0)
(0.00107637158052 0.22142379308 0)
(0.00242452378293 0.221409499717 0)
(0.00372280190032 0.221388840469 0)
(0.00496020573354 0.221374346831 0)
(0.00613710134191 0.221372206061 0)
(0.0072552796917 0.221388577163 0)
(0.00831665985726 0.221428346066 0)
(0.00932300045564 0.221495381552 0)
(0.0102758896942 0.221592895238 0)
(0.0111766975098 0.22172314673 0)
(0.0120264382113 0.221887884897 0)
(0.0128258385254 0.222088118486 0)
(0.0135752130266 0.22232446257 0)
(0.0142745806663 0.222596941656 0)
(0.0149235747789 0.222905300796 0)
(0.015521584953 0.223248826379 0)
(0.0160676924508 0.223626622679 0)
(0.0165608291387 0.224037445959 0)
(0.0169997254942 0.224479944869 0)
(0.0173830728244 0.224952502445 0)
(0.0177094714073 0.225453438776 0)
(0.0179775835957 0.225980855565 0)
(0.018186072091 0.22653280056 0)
(0.0183337349793 0.227107113026 0)
(0.0184194285923 0.22770155437 0)
(0.0184418702678 0.228313661369 0)
(0.0184017389863 0.22894090513 0)
(0.0183008554064 0.229580434516 0)
(0.0181373768883 0.230229675594 0)
(0.01790915838 0.230885782623 0)
(0.0176161332565 0.231545503768 0)
(0.0172583294756 0.232205225325 0)
(0.0168357694924 0.23286104383 0)
(0.0163485320507 0.233508685128 0)
(0.015796642487 0.234143585657 0)
(0.0151801541847 0.234760844466 0)
(0.014499086289 0.235355304364 0)
(0.013753583448 0.235921492596 0)
(0.0129439763882 0.236453604238 0)
(0.0120711111359 0.236945243499 0)
(0.011136622619 0.237388980689 0)
(0.0101434865213 0.237775350042 0)
(0.00909642460606 0.23809113001 0)
(0.00800224256815 0.238316365918 0)
(0.00686925894781 0.238419825959 0)
(0.00570537960913 0.238352562086 0)
(0.00451282016569 0.238039631163 0)
(0.00327776547271 0.237368017761 0)
(0.0020317999397 0.236163812439 0)
(0.000934133548302 0.234152574347 0)
(0.000225565635198 0.231416984749 0)
(-0.000571903946645 0.229267142414 0)
(-0.00128468369407 0.229387845456 0)
(-0.00177784564766 0.229914733748 0)
(-0.00244507202256 0.230684780235 0)
(-0.00304626338345 0.231580705791 0)
(-0.00361319523496 0.232496343124 0)
(-0.00419699824619 0.233361182241 0)
(-0.00484595875416 0.234148053947 0)
(-0.00558769067611 0.234859502128 0)
(-0.00642690721744 0.235508888135 0)
(-0.00735483706285 0.236108401706 0)
(-0.00835794897198 0.236665178359 0)
(-0.00942336069822 0.237181845426 0)
(-0.0105399016172 0.237658060754 0)
(-0.0116983079915 0.238091948869 0)
(-0.0128903287722 0.238480940967 0)
(-0.0141086427261 0.238822394414 0)
(-0.0153463095485 0.239113825089 0)
(-0.0165969518905 0.239353180543 0)
(-0.0178544622691 0.239538841613 0)
(-0.0191132500316 0.239669786151 0)
(-0.020368035313 0.239745497504 0)
(-0.0216140625569 0.239766090699 0)
(-0.0228469115066 0.239732170419 0)
(-0.0240626514376 0.23964493651 0)
(-0.0252576492571 0.239506006657 0)
(-0.0264286727371 0.239317502924 0)
(-0.0275727017512 0.239081849485 0)
(-0.028687004229 0.238801843293 0)
(-0.0297689660009 0.238480442164 0)
(-0.030816162146 0.238120826965 0)
(-0.0318262165229 0.237726197778 0)
(-0.032796880625 0.23729983687 0)
(-0.0337259239041 0.236844929419 0)
(-0.0346112201302 0.236364632547 0)
(-0.0354506619683 0.235861929832 0)
(-0.036242248701 0.235339706336 0)
(-0.0369840170241 0.234800639767 0)
(-0.0376741231346 0.234247276326 0)
(-0.03831078405 0.233681955588 0)
(-0.0388923497296 0.233106880597 0)
(-0.0394172528228 0.232524072235 0)
(-0.0398840685567 0.231935427215 0)
(-0.0402914723609 0.231342696996 0)
(-0.0406382826747 0.230747529955 0)
(-0.040923437851 0.230151473962 0)
(-0.0411467970204 0.229556026921 0)
(-0.041305657711 0.228961887809 0)
(-0.0413961690177 0.228370593143 0)
(-0.0414196727997 0.22778396261 0)
(-0.0413781411298 0.22720321436 0)
(-0.041271322661 0.226629660014 0)
(-0.0410991542754 0.22606457152 0)
(-0.0408617227767 0.225509274942 0)
(-0.0405592617202 0.224965103314 0)
(-0.0401921859452 0.224433460848 0)
(-0.0397610698203 0.223915755088 0)
(-0.0392666855684 0.223413469162 0)
(-0.0387099675427 0.22292807584 0)
(-0.038092057024 0.222461117515 0)
(-0.0374142518312 0.222014103118 0)
(-0.036678054415 0.221588597096 0)
(-0.0358851063039 0.221186098939 0)
(-0.0350372367012 0.220808141275 0)
(-0.0341363820241 0.22045615126 0)
(-0.0331846326464 0.220131558417 0)
(-0.0321841380397 0.219835635804 0)
(-0.0311371498626 0.219569617175 0)
(-0.0300459142594 0.219334515532 0)
(-0.0289127109042 0.219131249884 0)
(-0.027739735321 0.218960438123 0)
(-0.0265291355067 0.218822533166 0)
(-0.0252828896514 0.218717587885 0)
(-0.0240028450221 0.218645402179 0)
(-0.0226905990229 0.21860525875 0)
(-0.021347548447 0.218596083403 0)
(-0.0199747855711 0.218616153198 0)
(-0.0185731722671 0.218663274553 0)
(-0.0171432733263 0.218734468994 0)
(-0.0156854932534 0.218826176939 0)
(-0.0142001148447 0.218933939466 0)
(-0.0126876236984 0.219052658522 0)
(-0.0111490593235 0.219176349789 0)
(-0.00958681962366 0.219298593898 0)
(-0.00800556944628 0.219412629734 0)
(-0.00641338270208 0.219512376977 0)
(-0.00482213318843 0.219593187725 0)
(-0.00324686373257 0.219653511739 0)
(-0.00170275482043 0.219694227427 0)
(-0.000214476689323 0.219725154245 0)
(0.00120790007875 0.219753503665 0)
(0.0025791488067 0.219777816316 0)
(0.00389483175023 0.219804220364 0)
(0.00514456323905 0.219842486634 0)
(0.00632914151368 0.219898803749 0)
(0.00744846285114 0.219978950622 0)
(0.00850360910519 0.220087676126 0)
(0.00949565295364 0.22022860397 0)
(0.0104259554765 0.220404722835 0)
(0.0112958195581 0.220618323196 0)
(0.0121064964809 0.220870932528 0)
(0.0128590468104 0.221163504902 0)
(0.0135543972974 0.221496385706 0)
(0.0141932128441 0.221869463208 0)
(0.0147759967712 0.222282151974 0)
(0.0153029926963 0.222733527286 0)
(0.0157743093175 0.223222313506 0)
(0.0161898428278 0.223746997829 0)
(0.0165494135586 0.224305814517 0)
(0.016852695342 0.224896833735 0)
(0.0170993509418 0.225517934571 0)
(0.0172889580517 0.226166866671 0)
(0.0174211311948 0.226841210373 0)