/*--------------------------------*- C++ -*----------------------------------*\
| =========                 |                                                 |
| \\      /  F ield         | OpenFOAM: The Open Source CFD Toolbox           |
|  \\    /   O peration     | Version:  2212                                  |
|   \\  /    A nd           | Website:  www.openfoam.com                      |
|    \\/     M anipulation  |                                                 |
\*---------------------------------------------------------------------------*/
FoamFile
{
    version     2.0;
    format      ascii;
    arch        "LSB;label=64;scalar=64";
    class       volScalarField;
    location    "1910";
    object      Saa;
}
// * * * * * * * * * * * * * * * * * * * * * * * * * * * * * * * * * * * * * //

dimensions      [1 -3 0 0 0 0 0];

internalField   nonuniform List<scalar> 
1024
(
0.00548185
0.00548187
0.00548192
0.00548202
0.00548217
0.00548241
0.00548274
0.00548318
0.00548374
0.00548442
0.00548518
0.00548598
0.00548676
0.00548746
0.00548806
0.00548853
0.00548884
0.00548895
0.0054889
0.00548873
0.00548845
0.00548809
0.0054877
0.0054873
0.00548694
0.00548663
0.00548639
0.00548621
0.00548609
0.00548602
0.00548598
0.00548596
0.00548185
0.00548188
0.00548193
0.00548203
0.00548218
0.00548242
0.00548275
0.0054832
0.00548376
0.00548444
0.00548521
0.00548601
0.00548678
0.00548749
0.00548808
0.00548856
0.00548886
0.00548897
0.00548893
0.00548875
0.00548847
0.00548812
0.00548772
0.00548732
0.00548695
0.00548664
0.0054864
0.00548622
0.0054861
0.00548603
0.00548599
0.00548597
0.00548187
0.00548189
0.00548195
0.00548204
0.0054822
0.00548244
0.00548278
0.00548324
0.00548381
0.0054845
0.00548527
0.00548607
0.00548684
0.00548754
0.00548814
0.0054886
0.00548891
0.00548903
0.00548898
0.00548881
0.00548853
0.00548817
0.00548777
0.00548737
0.00548699
0.00548668
0.00548643
0.00548625
0.00548613
0.00548605
0.00548601
0.00548599
0.0054819
0.00548192
0.00548198
0.00548208
0.00548224
0.00548249
0.00548284
0.00548331
0.0054839
0.00548459
0.00548537
0.00548617
0.00548694
0.00548764
0.00548822
0.00548869
0.005489
0.00548913
0.00548909
0.00548892
0.00548863
0.00548827
0.00548786
0.00548744
0.00548706
0.00548673
0.00548648
0.00548629
0.00548617
0.00548609
0.00548605
0.00548603
0.00548195
0.00548197
0.00548203
0.00548213
0.00548231
0.00548256
0.00548293
0.00548341
0.00548402
0.00548473
0.00548552
0.00548632
0.00548708
0.00548777
0.00548835
0.00548882
0.00548914
0.00548928
0.00548926
0.00548909
0.0054888
0.00548841
0.00548798
0.00548755
0.00548715
0.00548681
0.00548655
0.00548636
0.00548623
0.00548615
0.00548611
0.00548609
0.00548201
0.00548204
0.0054821
0.00548221
0.00548239
0.00548267
0.00548305
0.00548356
0.00548419
0.00548492
0.00548571
0.00548651
0.00548727
0.00548794
0.00548852
0.005489
0.00548934
0.00548952
0.00548952
0.00548935
0.00548904
0.00548862
0.00548816
0.00548769
0.00548727
0.00548692
0.00548665
0.00548645
0.00548632
0.00548625
0.0054862
0.00548619
0.0054821
0.00548213
0.00548219
0.00548231
0.00548251
0.0054828
0.00548321
0.00548374
0.0054844
0.00548515
0.00548595
0.00548675
0.0054875
0.00548817
0.00548874
0.00548924
0.00548962
0.00548984
0.00548987
0.00548971
0.00548938
0.00548892
0.00548841
0.0054879
0.00548745
0.00548708
0.0054868
0.0054866
0.00548647
0.00548639
0.00548635
0.00548634
0.00548222
0.00548225
0.00548232
0.00548244
0.00548265
0.00548296
0.0054834
0.00548396
0.00548465
0.00548542
0.00548624
0.00548703
0.00548777
0.00548843
0.00548901
0.00548954
0.00548997
0.00549025
0.00549032
0.00549018
0.00548984
0.00548934
0.00548877
0.00548821
0.00548772
0.00548732
0.00548702
0.00548682
0.00548669
0.00548662
0.00548659
0.00548657
0.00548236
0.00548239
0.00548246
0.0054826
0.00548282
0.00548315
0.00548361
0.00548421
0.00548493
0.00548572
0.00548654
0.00548734
0.00548807
0.00548873
0.00548932
0.00548988
0.00549038
0.00549072
0.00549086
0.00549077
0.00549044
0.00548992
0.00548931
0.00548869
0.00548814
0.00548771
0.00548739
0.00548718
0.00548705
0.00548698
0.00548695
0.00548695
0.00548253
0.00548256
0.00548263
0.00548277
0.00548301
0.00548336
0.00548385
0.00548447
0.00548522
0.00548603
0.00548686
0.00548766
0.00548838
0.00548904
0.00548964
0.00549024
0.00549079
0.00549122
0.00549145
0.00549144
0.00549118
0.0054907
0.00549008
0.00548943
0.00548883
0.00548835
0.005488
0.00548777
0.00548764
0.00548757
0.00548754
0.00548754
0.00548271
0.00548274
0.00548282
0.00548296
0.00548321
0.00548358
0.00548408
0.00548473
0.0054855
0.00548633
0.00548717
0.00548796
0.00548867
0.00548932
0.00548993
0.00549053
0.00549113
0.00549165
0.00549201
0.00549215
0.00549204
0.00549168
0.00549114
0.00549052
0.0054899
0.00548938
0.00548899
0.00548873
0.00548858
0.0054885
0.00548847
0.00548846
0.0054829
0.00548293
0.005483
0.00548315
0.0054834
0.00548378
0.0054843
0.00548496
0.00548574
0.00548658
0.00548742
0.0054882
0.00548889
0.00548951
0.00549008
0.00549067
0.00549127
0.00549187
0.00549238
0.00549273
0.00549286
0.00549275
0.00549241
0.00549193
0.00549138
0.00549087
0.00549045
0.00549015
0.00548996
0.00548986
0.00548981
0.0054898
0.00548308
0.00548311
0.00548319
0.00548333
0.00548358
0.00548396
0.00548448
0.00548514
0.00548592
0.00548676
0.00548758
0.00548833
0.00548898
0.00548952
0.00549001
0.00549049
0.00549105
0.0054917
0.00549237
0.00549298
0.00549342
0.00549363
0.00549361
0.0054934
0.00549305
0.00549265
0.00549227
0.00549197
0.00549175
0.00549162
0.00549155
0.00549153
0.00548324
0.00548327
0.00548334
0.00548349
0.00548373
0.00548409
0.00548459
0.00548524
0.005486
0.00548681
0.00548759
0.00548829
0.00548885
0.00548927
0.00548959
0.0054899
0.00549031
0.00549097
0.00549179
0.00549265
0.00549341
0.00549399
0.00549434
0.00549447
0.00549443
0.00549426
0.00549403
0.0054938
0.00549362
0.00549349
0.00549342
0.00549339
0.00548335
0.00548338
0.00548345
0.00548359
0.00548381
0.00548415
0.00548462
0.00548522
0.00548593
0.00548669
0.00548741
0.00548802
0.00548845
0.0054887
0.00548879
0.00548883
0.00548903
0.00548962
0.00549055
0.00549165
0.00549272
0.00549365
0.00549437
0.00549485
0.00549513
0.00549524
0.00549523
0.00549516
0.00549506
0.00549499
0.00549494
0.00549491
0.00548339
0.00548342
0.00548349
0.00548361
0.00548381
0.00548411
0.00548453
0.00548506
0.00548569
0.00548636
0.00548699
0.00548748
0.00548778
0.00548783
0.00548766
0.00548738
0.0054873
0.00548774
0.00548871
0.00549002
0.00549142
0.00549272
0.00549381
0.00549464
0.00549522
0.00549559
0.00549578
0.00549587
0.00549589
0.00549588
0.00549586
0.00549585
0.00548333
0.00548336
0.00548342
0.00548353
0.00548371
0.00548396
0.00548431
0.00548476
0.00548529
0.00548586
0.00548638
0.00548678
0.00548695
0.00548685
0.00548648
0.00548595
0.00548558
0.00548579
0.00548667
0.00548807
0.00548974
0.00549141
0.00549291
0.00549412
0.00549502
0.00549563
0.00549602
0.00549623
0.00549633
0.00549637
0.00549638
0.00549638
0.00548317
0.00548319
0.00548325
0.00548336
0.00548351
0.00548373
0.00548403
0.00548441
0.00548485
0.00548532
0.00548575
0.00548606
0.00548617
0.00548601
0.00548556
0.00548492
0.00548438
0.0054844
0.00548511
0.00548644
0.00548819
0.00549011
0.00549195
0.00549352
0.00549474
0.00549561
0.00549618
0.00549652
0.0054967
0.00549677
0.0054968
0.0054968
0.00548295
0.00548297
0.00548303
0.00548313
0.00548327
0.00548347
0.00548372
0.00548404
0.00548441
0.0054848
0.00548516
0.00548542
0.00548549
0.00548532
0.0054849
0.00548427
0.00548372
0.00548367
0.00548425
0.00548545
0.00548715
0.00548914
0.00549116
0.00549298
0.00549446
0.00549557
0.00549632
0.00549678
0.00549703
0.00549715
0.00549719
0.0054972
0.0054827
0.00548272
0.00548278
0.00548287
0.005483
0.00548318
0.00548341
0.00548369
0.005484
0.00548433
0.00548462
0.00548484
0.0054849
0.00548476
0.0054844
0.00548388
0.00548344
0.00548342
0.00548396
0.00548506
0.00548665
0.00548858
0.00549063
0.00549257
0.00549423
0.00549552
0.00549643
0.00549701
0.00549733
0.00549749
0.00549755
0.00549756
0.00548246
0.00548248
0.00548253
0.00548261
0.00548273
0.0054829
0.0054831
0.00548335
0.00548361
0.00548389
0.00548414
0.00548432
0.00548438
0.0054843
0.00548405
0.0054837
0.00548345
0.00548356
0.00548412
0.00548515
0.00548662
0.00548842
0.00549039
0.00549233
0.00549407
0.00549548
0.00549652
0.00549721
0.00549761
0.00549781
0.00549788
0.0054979
0.0054823
0.00548231
0.00548235
0.00548242
0.00548251
0.00548265
0.00548283
0.00548304
0.00548327
0.0054835
0.00548372
0.00548388
0.00548398
0.00548397
0.00548388
0.00548376
0.00548376
0.00548404
0.00548464
0.00548562
0.00548697
0.00548861
0.00549044
0.00549229
0.00549401
0.00549547
0.0054966
0.00549737
0.00549785
0.00549809
0.00549819
0.00549821
0.00548231
0.00548231
0.00548232
0.00548235
0.00548241
0.0054825
0.00548263
0.0054828
0.005483
0.00548321
0.00548342
0.00548361
0.00548377
0.00548389
0.005484
0.00548415
0.0054844
0.00548485
0.00548551
0.00548643
0.00548763
0.00548909
0.00549073
0.00549242
0.00549406
0.0054955
0.00549667
0.00549752
0.00549806
0.00549835
0.00549847
0.0054985
0.00548256
0.00548255
0.00548252
0.0054825
0.0054825
0.00548253
0.00548261
0.00548274
0.00548291
0.00548312
0.00548336
0.00548362
0.0054839
0.0054842
0.00548453
0.00548492
0.00548541
0.00548599
0.00548668
0.00548753
0.00548857
0.00548982
0.00549124
0.00549274
0.00549423
0.0054956
0.00549676
0.00549765
0.00549824
0.00549858
0.00549872
0.00549875
0.00548313
0.00548309
0.00548303
0.00548295
0.00548289
0.00548287
0.0054829
0.005483
0.00548318
0.00548342
0.00548373
0.0054841
0.00548453
0.005485
0.00548553
0.00548612
0.00548677
0.00548743
0.0054881
0.00548886
0.00548974
0.00549078
0.00549196
0.00549324
0.00549454
0.00549579
0.0054969
0.00549778
0.00549841
0.00549878
0.00549894
0.00549899
0.00548405
0.00548399
0.00548389
0.00548377
0.00548368
0.00548363
0.00548365
0.00548376
0.00548398
0.00548429
0.0054847
0.00548518
0.00548574
0.00548634
0.005487
0.0054877
0.00548842
0.00548909
0.00548972
0.00549037
0.00549109
0.00549192
0.00549286
0.0054939
0.00549499
0.00549608
0.00549709
0.00549793
0.00549857
0.00549896
0.00549914
0.00549919
0.00548534
0.00548525
0.00548513
0.00548502
0.00548495
0.00548494
0.00548501
0.00548518
0.00548546
0.00548584
0.00548632
0.00548688
0.0054875
0.00548816
0.00548885
0.00548957
0.00549028
0.0054909
0.00549145
0.00549198
0.00549255
0.00549319
0.00549391
0.00549472
0.00549559
0.00549648
0.00549735
0.00549812
0.00549872
0.00549912
0.00549932
0.00549938
0.00548698
0.00548689
0.00548679
0.00548674
0.00548677
0.00548686
0.00548702
0.00548726
0.00548759
0.00548801
0.00548851
0.00548907
0.00548967
0.0054903
0.00549095
0.00549161
0.00549223
0.00549276
0.00549321
0.00549363
0.00549406
0.00549453
0.00549506
0.00549565
0.0054963
0.005497
0.0054977
0.00549835
0.00549889
0.00549927
0.00549948
0.00549954
0.00548901
0.00548892
0.00548891
0.00548899
0.00548915
0.00548936
0.0054896
0.00548989
0.00549023
0.00549062
0.00549107
0.00549156
0.00549208
0.00549261
0.00549314
0.00549368
0.00549418
0.00549459
0.00549493
0.00549524
0.00549555
0.00549588
0.00549624
0.00549665
0.00549711
0.00549761
0.00549813
0.00549864
0.00549909
0.00549942
0.00549961
0.00549968
0.00549146
0.00549143
0.00549155
0.00549177
0.00549202
0.00549229
0.00549256
0.00549283
0.00549312
0.00549343
0.00549378
0.00549414
0.00549452
0.00549491
0.0054953
0.00549568
0.00549603
0.00549632
0.00549656
0.00549677
0.00549697
0.00549718
0.00549741
0.00549767
0.00549797
0.00549829
0.00549863
0.00549898
0.00549931
0.00549957
0.00549973
0.0054998
0.00549444
0.00549451
0.00549473
0.00549497
0.00549521
0.00549543
0.00549563
0.00549582
0.00549601
0.00549621
0.00549642
0.00549664
0.00549686
0.00549709
0.00549732
0.00549754
0.00549775
0.00549792
0.00549805
0.00549817
0.00549828
0.00549839
0.00549852
0.00549866
0.00549882
0.00549899
0.00549918
0.00549938
0.00549957
0.00549973
0.00549984
0.00549989
0.00549805
0.00549811
0.00549822
0.00549832
0.00549842
0.00549851
0.00549858
0.00549865
0.00549872
0.00549878
0.00549885
0.00549892
0.005499
0.00549907
0.00549914
0.00549922
0.00549928
0.00549934
0.00549938
0.00549942
0.00549945
0.00549949
0.00549953
0.00549957
0.00549962
0.00549967
0.00549973
0.00549979
0.00549985
0.00549991
0.00549995
0.00549997
)
;

boundaryField
{
    movingWall
    {
        type            fixedValue;
        value           uniform 0.0055;
    }
    fixedWalls
    {
        type            zeroGradient;
    }
    floor
    {
        type            zeroGradient;
    }
    frontAndBack
    {
        type            empty;
    }
}


// ************************************************************************* //
