/*--------------------------------*- C++ -*----------------------------------*\
| =========                 |                                                 |
| \\      /  F ield         | OpenFOAM: The Open Source CFD Toolbox           |
|  \\    /   O peration     | Version:  2212                                  |
|   \\  /    A nd           | Website:  www.openfoam.com                      |
|    \\/     M anipulation  |                                                 |
\*---------------------------------------------------------------------------*/
FoamFile
{
    version     2.0;
    format      ascii;
    arch        "LSB;label=64;scalar=64";
    class       volScalarField;
    location    "1910";
    object      Sch4;
}
// * * * * * * * * * * * * * * * * * * * * * * * * * * * * * * * * * * * * * //

dimensions      [1 -3 0 0 0 0 0];

internalField   nonuniform List<scalar> 
1024
(
0.0389855
0.0389962
0.0390225
0.0390708
0.0391492
0.0392672
0.0394348
0.0396613
0.0399524
0.0403076
0.0407175
0.0411632
0.0416196
0.0420606
0.042465
0.0428151
0.0430682
0.043189
0.0431896
0.0430934
0.0429205
0.0426942
0.0424405
0.0421861
0.0419542
0.0417597
0.0416084
0.0414986
0.0414244
0.0413783
0.0413532
0.041343
0.0389889
0.0389997
0.0390262
0.039075
0.0391541
0.0392732
0.0394423
0.0396707
0.039964
0.0403213
0.0407328
0.0411797
0.0416366
0.0420776
0.0424817
0.0428319
0.0430856
0.0432073
0.0432089
0.0431131
0.04294
0.0427128
0.0424577
0.0422014
0.0419673
0.0417705
0.0416173
0.0415061
0.041431
0.0413844
0.041359
0.0413488
0.0389972
0.0390082
0.0390352
0.039085
0.0391657
0.0392873
0.0394599
0.0396926
0.0399906
0.0403525
0.0407679
0.0412171
0.0416748
0.0421158
0.0425198
0.0428708
0.0431269
0.043252
0.0432562
0.0431612
0.0429864
0.0427555
0.0424958
0.0422347
0.0419956
0.0417943
0.0416373
0.0415234
0.0414466
0.0413991
0.0413734
0.041363
0.0390122
0.0390235
0.0390514
0.0391028
0.0391863
0.0393121
0.0394904
0.0397302
0.040036
0.0404054
0.0408267
0.0412795
0.0417385
0.0421795
0.042584
0.0429377
0.0432
0.0433331
0.0433432
0.0432492
0.0430695
0.0428295
0.0425598
0.0422891
0.0420416
0.0418333
0.0416709
0.0415533
0.0414743
0.0414257
0.0413996
0.0413891
0.0390359
0.0390477
0.0390768
0.0391306
0.0392182
0.03935
0.0395366
0.0397866
0.0401036
0.0404834
0.0409129
0.0413705
0.0418312
0.0422727
0.0426792
0.0430395
0.0433146
0.0434629
0.0434836
0.0433909
0.0432015
0.0429446
0.0426564
0.0423694
0.0421089
0.0418907
0.0417215
0.0415995
0.0415183
0.0414688
0.0414426
0.0414322
0.0390703
0.0390827
0.0391135
0.0391704
0.0392633
0.0394032
0.0396008
0.0398642
0.0401957
0.0405889
0.0410285
0.041492
0.0419551
0.0423985
0.0428104
0.0431835
0.0434807
0.0436542
0.043692
0.0436012
0.043397
0.0431139
0.0427966
0.042484
0.0422041
0.0419726
0.0417949
0.0416685
0.0415853
0.0415356
0.0415098
0.0414999
0.0391172
0.0391303
0.039163
0.0392239
0.0393234
0.0394733
0.0396844
0.0399642
0.040313
0.0407222
0.0411736
0.0416441
0.042111
0.042559
0.0429814
0.043376
0.0437074
0.0439182
0.0439811
0.0438949
0.0436729
0.0433554
0.0429976
0.0426482
0.0423406
0.0420911
0.0419031
0.0417719
0.0416876
0.0416386
0.041614
0.041605
0.0391775
0.0391914
0.0392263
0.0392916
0.0393987
0.0395602
0.0397869
0.0400853
0.0404538
0.0408806
0.0413454
0.0418244
0.0422974
0.042754
0.0431937
0.0436198
0.043998
0.0442587
0.0443575
0.0442834
0.0440474
0.0436936
0.0432875
0.0428903
0.0425453
0.0422711
0.0420696
0.0419327
0.0418475
0.0418
0.0417775
0.0417699
0.0392513
0.0392659
0.039303
0.0393729
0.0394882
0.0396619
0.0399052
0.0402235
0.0406128
0.0410585
0.041538
0.0420273
0.0425095
0.0429795
0.0434429
0.0439088
0.044344
0.0446666
0.0448158
0.0447716
0.0445391
0.0441617
0.0437108
0.0432609
0.0428684
0.0425603
0.0423389
0.042193
0.0421055
0.0420592
0.042039
0.042033
0.0393369
0.0393522
0.0393914
0.0394657
0.0395888
0.0397745
0.0400341
0.0403719
0.0407819
0.0412467
0.0417417
0.0422432
0.0427372
0.0432235
0.0437131
0.044221
0.0447162
0.0451101
0.0453312
0.0453495
0.0451597
0.0447957
0.0443265
0.0438349
0.0433919
0.0430396
0.0427877
0.0426244
0.0425291
0.0424808
0.042461
0.0424559
0.0394313
0.0394471
0.0394879
0.0395659
0.0396955
0.0398915
0.0401654
0.0405207
0.0409496
0.0414323
0.0419423
0.0424559
0.0429609
0.0434606
0.0439701
0.0445096
0.0450561
0.045527
0.0458476
0.0459771
0.0458927
0.0456097
0.0451828
0.044692
0.0442179
0.0438198
0.0435247
0.0433293
0.043214
0.0431549
0.0431303
0.0431238
0.0395298
0.0395459
0.0395877
0.0396681
0.039802
0.0400051
0.0402891
0.0406574
0.0411007
0.0415973
0.0421187
0.0426396
0.0431478
0.0436474
0.0441554
0.0446987
0.045272
0.045817
0.0462638
0.0465579
0.0466544
0.046542
0.0462505
0.0458424
0.0453951
0.0449798
0.0446442
0.0444051
0.0442545
0.0441715
0.0441335
0.0441215
0.0396258
0.039642
0.0396841
0.039765
0.0399
0.0401053
0.0403929
0.0407664
0.0412158
0.0417179
0.0422412
0.0427572
0.0432504
0.0437222
0.0441899
0.0446892
0.0452458
0.0458466
0.046431
0.0469271
0.047265
0.0474051
0.0473472
0.0471264
0.0468022
0.0464434
0.0461111
0.0458452
0.0456593
0.0455462
0.0454884
0.0454674
0.0397106
0.0397267
0.0397681
0.0398473
0.0399793
0.0401801
0.0404622
0.0408293
0.0412716
0.0417644
0.042273
0.0427634
0.043213
0.0436173
0.0439921
0.0443843
0.0448639
0.0454816
0.0461894
0.0468941
0.0474979
0.0479326
0.0481703
0.0482188
0.0481137
0.0479087
0.0476638
0.0474314
0.0472459
0.0471197
0.0470485
0.0470199
0.0397722
0.039788
0.0398278
0.0399029
0.0400272
0.0402155
0.0404803
0.0408258
0.0412426
0.0417057
0.0421771
0.042616
0.0429901
0.0432857
0.0435153
0.0437369
0.0440719
0.04465
0.0454436
0.0463392
0.0472068
0.0479448
0.0484957
0.0488439
0.0490054
0.0490185
0.0489336
0.0488035
0.0486728
0.0485695
0.0485044
0.0484758
0.0397942
0.0398094
0.0398468
0.0399155
0.0400274
0.0401951
0.04043
0.0407365
0.0411068
0.0415168
0.0419278
0.042293
0.0425702
0.0427342
0.0427904
0.0428018
0.0429349
0.0434038
0.0442215
0.0452712
0.0463941
0.0474455
0.0483256
0.0489873
0.0494275
0.0496737
0.049771
0.0497715
0.0497242
0.0496671
0.0496231
0.0496011
0.0397584
0.039773
0.0398077
0.0398695
0.0399673
0.040111
0.0403095
0.040567
0.0408776
0.0412206
0.0415595
0.0418468
0.0420342
0.0420867
0.0419992
0.0418272
0.0417546
0.0420538
0.042798
0.0439079
0.0452276
0.0465767
0.0477998
0.0487984
0.0495353
0.0500221
0.0503009
0.0504277
0.0504601
0.0504472
0.0504234
0.0504079
0.0396707
0.0396849
0.0397175
0.0397739
0.0398602
0.0399834
0.0401499
0.0403629
0.0406177
0.0408976
0.0411711
0.0413947
0.041521
0.0415114
0.0413535
0.0410915
0.040903
0.0410647
0.0416824
0.0427347
0.044113
0.0456472
0.047146
0.0484555
0.0494877
0.0502219
0.0506872
0.0509407
0.0510494
0.0510754
0.0510674
0.0510559
0.0395532
0.0395669
0.039598
0.0396505
0.0397286
0.0398369
0.0399794
0.0401576
0.0403676
0.0405958
0.0408164
0.0409924
0.0410821
0.0410496
0.0408813
0.0406138
0.0404123
0.0405266
0.0410599
0.0420237
0.0433595
0.0449401
0.0465836
0.048108
0.0493796
0.0503366
0.0509825
0.0513646
0.0515527
0.0516193
0.0516268
0.0516187
0.0394245
0.0394373
0.0394663
0.0395148
0.039586
0.039683
0.0398075
0.0399595
0.0401347
0.0403218
0.0405001
0.0406401
0.0407087
0.0406775
0.0405382
0.0403275
0.0401936
0.0403403
0.0408508
0.041748
0.0430057
0.0445401
0.0462096
0.0478403
0.0492733
0.0504084
0.0512158
0.051723
0.0519935
0.0521045
0.0521296
0.0521251
0.0393139
0.0393243
0.0393483
0.0393894
0.039451
0.0395355
0.0396438
0.0397743
0.0399219
0.0400766
0.0402222
0.0403373
0.0403993
0.0403917
0.040316
0.0402138
0.0402092
0.040446
0.0409785
0.041834
0.0430089
0.0444517
0.0460615
0.0476977
0.0492065
0.0504632
0.0514034
0.0520264
0.05238
0.0525391
0.0525842
0.0525841
0.0392688
0.0392738
0.0392871
0.0393127
0.0393556
0.0394198
0.0395068
0.0396148
0.0397382
0.0398683
0.0399936
0.0401013
0.0401809
0.0402287
0.0402564
0.0403086
0.0404752
0.0408327
0.0414077
0.04223
0.0433149
0.0446417
0.0461415
0.0477064
0.0492087
0.0505234
0.0515592
0.0522826
0.0527173
0.0529274
0.0529956
0.0530008
0.0393534
0.0393489
0.0393428
0.0393407
0.0393505
0.0393803
0.0394351
0.0395155
0.0396175
0.0397347
0.039861
0.0399924
0.0401282
0.0402734
0.0404446
0.0406817
0.0410329
0.0415118
0.0421254
0.0429082
0.0438902
0.0450771
0.0464314
0.0478745
0.0493047
0.050613
0.0516996
0.0525011
0.0530104
0.0532732
0.0533673
0.0533789
0.0396367
0.039618
0.0395835
0.0395413
0.0395044
0.0394871
0.0395012
0.0395531
0.0396434
0.03977
0.0399313
0.040128
0.0403633
0.0406428
0.0409788
0.0414001
0.0419143
0.0424869
0.0431164
0.043844
0.0447097
0.0457379
0.0469186
0.0482026
0.0495129
0.0507587
0.051846
0.0526946
0.0532662
0.0535802
0.0537025
0.0537221
0.0401774
0.04014
0.0400712
0.0399847
0.0399
0.0398385
0.0398196
0.039858
0.0399606
0.0401287
0.0403615
0.0406582
0.0410177
0.0414392
0.0419255
0.0424924
0.0431169
0.0437367
0.0443498
0.0450037
0.0457437
0.0466044
0.0475951
0.0486928
0.049846
0.0509837
0.0520231
0.05288
0.0534933
0.0538524
0.0540041
0.054033
0.0410133
0.040955
0.0408546
0.0407368
0.040628
0.040553
0.0405345
0.0405934
0.040741
0.0409777
0.0412998
0.0417004
0.0421706
0.0427011
0.043286
0.0439313
0.0445971
0.0452119
0.0457766
0.0463417
0.0469532
0.0476481
0.0484465
0.0493445
0.0503138
0.051306
0.0522536
0.0530769
0.053703
0.0540949
0.0542741
0.0543138
0.0421634
0.0420852
0.0419703
0.0418582
0.0417768
0.0417441
0.0417761
0.0418934
0.0421065
0.0424136
0.0428074
0.0432763
0.0438057
0.0443814
0.0449926
0.04564
0.0462792
0.0468422
0.0473335
0.0478013
0.0482879
0.0488278
0.0494445
0.0501448
0.0509186
0.051738
0.0525558
0.0533045
0.0539086
0.0543137
0.0545146
0.0545658
0.0436386
0.0435488
0.0434554
0.0434066
0.0434153
0.0434789
0.0435993
0.0437901
0.0440586
0.0444045
0.0448211
0.0452965
0.0458158
0.0463644
0.0469307
0.0475135
0.0480721
0.0485493
0.0489513
0.0493199
0.0496906
0.0500923
0.0505465
0.0510647
0.051647
0.0522818
0.0529421
0.0535789
0.0541249
0.0545169
0.0547284
0.0547898
0.0454601
0.0453798
0.0453613
0.0454313
0.0455659
0.0457395
0.0459425
0.0461823
0.0464658
0.0467983
0.0471777
0.047596
0.0480419
0.0485034
0.0489708
0.0494425
0.049886
0.0502576
0.0505635
0.0508363
0.0511031
0.0513858
0.0517015
0.0520614
0.05247
0.0529251
0.0534152
0.0539119
0.0543649
0.054714
0.054919
0.0549869
0.0476782
0.0476484
0.0477528
0.0479457
0.048173
0.0484061
0.048636
0.0488692
0.0491148
0.0493826
0.0496754
0.0499902
0.0503202
0.0506575
0.0509952
0.0513317
0.0516444
0.0519033
0.0521136
0.0522974
0.0524733
0.0526561
0.0528575
0.0530862
0.0533468
0.0536408
0.0539653
0.0543082
0.05464
0.0549152
0.0550918
0.0551581
0.050388
0.0504543
0.050648
0.0508658
0.0510789
0.0512762
0.0514547
0.0516209
0.0517835
0.0519519
0.0521305
0.0523195
0.0525156
0.0527148
0.052913
0.0531091
0.0532901
0.0534392
0.0535592
0.0536629
0.0537606
0.0538606
0.0539696
0.0540925
0.0542325
0.0543911
0.0545686
0.0547613
0.0549568
0.0551308
0.0552533
0.0553057
0.0537036
0.0537551
0.0538544
0.0539495
0.0540361
0.0541131
0.0541801
0.0542398
0.054296
0.0543525
0.0544115
0.0544733
0.0545372
0.0546019
0.054666
0.0547294
0.0547876
0.0548355
0.0548739
0.0549068
0.0549377
0.054969
0.0550028
0.0550409
0.055084
0.0551328
0.0551876
0.0552477
0.0553101
0.0553682
0.0554125
0.0554339
)
;

boundaryField
{
    movingWall
    {
        type            fixedValue;
        value           uniform 0.0555;
    }
    fixedWalls
    {
        type            zeroGradient;
    }
    floor
    {
        type            zeroGradient;
    }
    frontAndBack
    {
        type            empty;
    }
}


// ************************************************************************* //
