/*--------------------------------*- C++ -*----------------------------------*\
| =========                 |                                                 |
| \\      /  F ield         | OpenFOAM: The Open Source CFD Toolbox           |
|  \\    /   O peration     | Version:  2212                                  |
|   \\  /    A nd           | Website:  www.openfoam.com                      |
|    \\/     M anipulation  |                                                 |
\*---------------------------------------------------------------------------*/
FoamFile
{
    version     2.0;
    format      ascii;
    arch        "LSB;label=64;scalar=64";
    class       volScalarField;
    location    "1910";
    object      Sco2;
}
// * * * * * * * * * * * * * * * * * * * * * * * * * * * * * * * * * * * * * //

dimensions      [1 -3 0 0 0 0 0];

internalField   nonuniform List<scalar> 
1024
(
0.00631032
0.00631233
0.00631726
0.00632634
0.00634109
0.00636329
0.00639485
0.00643749
0.0064923
0.00655918
0.00663634
0.00672027
0.0068062
0.00688925
0.00696537
0.0070313
0.00707895
0.00710169
0.0071018
0.00708366
0.00705111
0.00700847
0.00696068
0.00691278
0.0068691
0.00683247
0.00680397
0.00678329
0.00676932
0.00676064
0.00675591
0.00675398
0.00631095
0.00631298
0.00631796
0.00632712
0.00634201
0.00636442
0.00639627
0.00643927
0.00649448
0.00656175
0.00663924
0.00672338
0.00680939
0.00689243
0.00696853
0.00703447
0.00708223
0.00710515
0.00710542
0.00708737
0.00705478
0.00701198
0.00696392
0.00691566
0.00687156
0.00683451
0.00680565
0.0067847
0.00677056
0.00676179
0.00675701
0.00675507
0.0063125
0.00631457
0.00631965
0.006329
0.0063442
0.00636709
0.00639958
0.00644339
0.0064995
0.00656764
0.00664583
0.00673041
0.0068166
0.00689963
0.0069757
0.00704179
0.00709
0.00711356
0.00711434
0.00709644
0.00706352
0.00702002
0.00697111
0.00692192
0.0068769
0.00683898
0.00680942
0.00678796
0.0067735
0.00676455
0.00675971
0.00675775
0.00631531
0.00631744
0.00632269
0.00633236
0.00634808
0.00637175
0.00640532
0.00645047
0.00650805
0.00657759
0.00665691
0.00674217
0.0068286
0.00691163
0.00698779
0.00705439
0.00710378
0.00712883
0.00713072
0.00711302
0.00707915
0.00703396
0.00698315
0.00693217
0.00688556
0.00684632
0.00681574
0.00679359
0.00677871
0.00676957
0.00676465
0.00676267
0.00631976
0.00632198
0.00632746
0.00633759
0.00635407
0.00637888
0.00641402
0.00646108
0.00652076
0.00659228
0.00667314
0.00675929
0.00684604
0.00692917
0.00700573
0.00707357
0.00712535
0.00715327
0.00715716
0.00713968
0.007104
0.00705562
0.00700135
0.00694729
0.00689822
0.00685714
0.00682526
0.0068023
0.00678699
0.00677768
0.00677274
0.00677079
0.00632623
0.00632857
0.00633435
0.00634508
0.00636257
0.0063889
0.00642611
0.0064757
0.0065381
0.00661215
0.00669492
0.00678218
0.00686938
0.00695286
0.00703042
0.00710068
0.00715664
0.0071893
0.0071964
0.00717929
0.00714082
0.0070875
0.00702774
0.00696886
0.00691615
0.00687255
0.00683909
0.00681528
0.00679962
0.00679026
0.0067854
0.00678353
0.00633505
0.00633752
0.00634367
0.00635513
0.00637387
0.00640209
0.00644185
0.00649452
0.0065602
0.00663723
0.00672224
0.00681082
0.00689874
0.00698308
0.00706262
0.00713693
0.00719933
0.007239
0.00725084
0.00723458
0.00719276
0.00713295
0.00706557
0.00699977
0.00694185
0.00689485
0.00685946
0.00683475
0.00681887
0.00680964
0.00680501
0.00680332
0.00634641
0.00634902
0.00635559
0.00636788
0.00638806
0.00641845
0.00646113
0.00651732
0.0065867
0.00666706
0.00675458
0.00684477
0.00693384
0.00701982
0.0071026
0.00718284
0.00725407
0.00730315
0.00732172
0.00730775
0.00726327
0.00719664
0.00712014
0.00704535
0.00698037
0.00692874
0.00689079
0.00686501
0.00684896
0.00684002
0.00683579
0.00683436
0.00636029
0.00636304
0.00637003
0.0063832
0.0064049
0.00643761
0.00648342
0.00654335
0.00661664
0.00670056
0.00679084
0.00688298
0.00697379
0.00706229
0.00714954
0.00723728
0.00731923
0.00737995
0.00740803
0.00739967
0.00735586
0.00728477
0.00719984
0.0071151
0.00704118
0.00698317
0.00694149
0.006914
0.00689754
0.00688882
0.00688501
0.00688389
0.00637641
0.00637929
0.00638666
0.00640066
0.00642383
0.00645879
0.00650767
0.00657129
0.00664849
0.00673601
0.00682921
0.00692364
0.00701666
0.00710824
0.00720045
0.00729608
0.00738933
0.0074635
0.0075051
0.00750852
0.00747272
0.00740414
0.00731576
0.00722317
0.00713975
0.0070734
0.00702598
0.00699522
0.00697729
0.00696819
0.00696447
0.00696351
0.00639418
0.00639716
0.00640484
0.00641953
0.00644393
0.00648084
0.0065324
0.00659931
0.00668006
0.00677096
0.006867
0.0069637
0.0070588
0.00715291
0.00724885
0.00735046
0.00745338
0.00754203
0.00760237
0.00762671
0.00761079
0.00755745
0.00747702
0.00738456
0.00729528
0.00722031
0.00716474
0.00712795
0.00710625
0.00709511
0.00709049
0.00708926
0.00641272
0.00641576
0.00642364
0.00643876
0.00646399
0.00650222
0.0065557
0.00662504
0.00670851
0.00680204
0.00690022
0.00699831
0.00709402
0.00718811
0.00728379
0.00738611
0.00749407
0.00759668
0.00768079
0.00773614
0.00775426
0.00773306
0.00767812
0.00760123
0.00751698
0.00743876
0.00737554
0.00733053
0.00730217
0.00728655
0.0072794
0.00727713
0.0064308
0.00643385
0.00644178
0.00645701
0.00648244
0.00652109
0.00657525
0.00664557
0.00673021
0.00682475
0.0069233
0.00702049
0.00711337
0.00720222
0.00729032
0.00738436
0.00748919
0.00760231
0.00771234
0.00780574
0.00786932
0.00789565
0.0078847
0.00784309
0.00778201
0.00771442
0.00765183
0.00760176
0.00756675
0.00754544
0.00753457
0.00753061
0.00644677
0.0064498
0.0064576
0.00647251
0.00649738
0.00653519
0.0065883
0.00665742
0.00674072
0.00683352
0.00692932
0.00702167
0.00710636
0.0071825
0.0072531
0.00732698
0.00741731
0.00753363
0.00766691
0.0077996
0.00791325
0.00799508
0.0080398
0.00804888
0.00802906
0.00799045
0.0079443
0.00790053
0.00786558
0.00784181
0.00782841
0.00782302
0.00645839
0.00646135
0.00646885
0.00648299
0.00650639
0.00654186
0.00659172
0.00665678
0.00673528
0.00682249
0.00691127
0.00699393
0.0070644
0.00712009
0.00716334
0.00720509
0.0072682
0.00737709
0.00752652
0.00769515
0.0078585
0.00799743
0.00810115
0.00816667
0.00819707
0.0081995
0.0081835
0.00815899
0.00813437
0.00811491
0.00810265
0.00809726
0.00646253
0.00646539
0.00647243
0.00648538
0.00650644
0.00653803
0.00658226
0.00663998
0.00670971
0.00678694
0.00686433
0.00693312
0.00698534
0.00701623
0.00702685
0.00702902
0.00705412
0.00714243
0.00729642
0.00749406
0.00770548
0.00790344
0.00806914
0.00819371
0.00827658
0.00832292
0.00834125
0.00834133
0.00833241
0.00832165
0.00831336
0.00830922
0.00645579
0.00645854
0.00646507
0.00647672
0.00649514
0.00652219
0.00655957
0.00660807
0.00666656
0.00673116
0.00679499
0.0068491
0.00688442
0.00689431
0.00687785
0.00684549
0.00683185
0.00688821
0.00702835
0.00723736
0.00748583
0.00773986
0.00797014
0.00815815
0.0082969
0.00838855
0.00844103
0.00846491
0.00847101
0.00846856
0.00846408
0.00846116
0.0064393
0.00644196
0.00644811
0.00645873
0.00647498
0.00649818
0.00652954
0.00656964
0.00661763
0.00667034
0.00672185
0.00676397
0.00678777
0.00678598
0.00675626
0.00670693
0.00667146
0.00670192
0.00681826
0.00701641
0.00727595
0.00756482
0.00784703
0.00809358
0.00828792
0.00842616
0.00851377
0.00856151
0.00858196
0.00858686
0.00858534
0.00858318
0.00641717
0.00641975
0.00642561
0.00643549
0.0064502
0.0064706
0.00649743
0.00653099
0.00657055
0.00661352
0.00665506
0.00668821
0.00670511
0.00669901
0.00666733
0.00661696
0.00657904
0.00660057
0.00670101
0.00688251
0.00713403
0.00743165
0.00774111
0.00802814
0.00826757
0.00844777
0.00856937
0.00864133
0.00867673
0.00868928
0.00869069
0.00868916
0.00639295
0.00639536
0.00640081
0.00640994
0.00642337
0.00644162
0.00646506
0.00649369
0.0065267
0.00656193
0.0065955
0.00662188
0.00663479
0.00662894
0.00660271
0.00656304
0.00653784
0.00656548
0.00666162
0.00683057
0.00706738
0.00735632
0.00767067
0.00797773
0.00824755
0.00846128
0.00861329
0.0087088
0.00875973
0.00878063
0.00878535
0.00878451
0.00637212
0.00637408
0.0063786
0.00638635
0.00639794
0.00641386
0.00643425
0.00645882
0.00648662
0.00651575
0.00654317
0.00656486
0.00657654
0.00657512
0.00656087
0.00654163
0.00654078
0.00658536
0.00668565
0.00684675
0.00706797
0.00733966
0.00764278
0.00795086
0.00823496
0.0084716
0.00864863
0.00876593
0.00883252
0.00886247
0.00887097
0.00887095
0.00636363
0.00636458
0.00636707
0.0063719
0.00637999
0.00639207
0.00640845
0.00642878
0.00645203
0.00647653
0.00650012
0.00652042
0.00653542
0.00654441
0.00654963
0.00655948
0.00659085
0.00665818
0.00676646
0.00692129
0.00712559
0.00737542
0.00765782
0.00795249
0.00823537
0.00848292
0.00867796
0.00881417
0.00889602
0.00893559
0.00894842
0.0089494
0.00637955
0.00637872
0.00637757
0.00637717
0.00637902
0.00638463
0.00639496
0.0064101
0.00642929
0.00645137
0.00647517
0.00649991
0.00652548
0.00655284
0.00658507
0.00662973
0.00669586
0.00678604
0.00690159
0.00704899
0.00723392
0.0074574
0.0077124
0.00798414
0.00825344
0.00849979
0.0087044
0.00885531
0.00895122
0.0090007
0.00901841
0.0090206
0.00643291
0.00642938
0.00642287
0.00641494
0.006408
0.00640473
0.00640739
0.00641717
0.00643417
0.00645801
0.00648839
0.00652545
0.00656975
0.00662239
0.00668566
0.00676501
0.00686183
0.00696966
0.00708819
0.0072252
0.00738821
0.00758183
0.00780415
0.00804593
0.00829265
0.00852723
0.00873197
0.00889175
0.00899938
0.0090585
0.00908154
0.00908522
0.0065347
0.00652768
0.00651472
0.00649843
0.00648248
0.00647089
0.00646734
0.00647457
0.00649391
0.00652556
0.0065694
0.00662528
0.00669298
0.00677236
0.00686392
0.00697068
0.00708828
0.00720499
0.00732042
0.00744356
0.00758291
0.00774498
0.00793153
0.00813822
0.00835536
0.00856959
0.0087653
0.00892666
0.00904214
0.00910977
0.00913832
0.00914376
0.00669212
0.00668113
0.00666223
0.00664004
0.00661955
0.00660543
0.00660196
0.00661305
0.00664084
0.00668543
0.00674608
0.00682152
0.00691006
0.00700997
0.0071201
0.00724163
0.007367
0.00748276
0.00758909
0.00769551
0.00781065
0.00794149
0.00809184
0.00826092
0.00844346
0.00863028
0.0088087
0.00896374
0.00908162
0.00915543
0.00918916
0.00919663
0.00690868
0.00689395
0.00687231
0.0068512
0.00683587
0.00682971
0.00683574
0.00685783
0.00689796
0.0069558
0.00702996
0.00711825
0.00721795
0.00732637
0.00744145
0.00756336
0.00768373
0.00778975
0.00788225
0.00797034
0.00806197
0.00816364
0.00827975
0.00841163
0.00855732
0.00871161
0.00886561
0.00900658
0.00912035
0.00919662
0.00923446
0.00924408
0.00718645
0.00716955
0.00715195
0.00714277
0.00714441
0.00715638
0.00717904
0.00721497
0.00726555
0.00733069
0.00740913
0.00749866
0.00759646
0.00769976
0.0078064
0.00791614
0.00802133
0.00811118
0.00818689
0.0082563
0.00832611
0.00840174
0.00848727
0.00858485
0.00869449
0.00881402
0.00893834
0.00905826
0.00916107
0.00923489
0.00927471
0.00928628
0.00752944
0.00751432
0.00751084
0.00752401
0.00754937
0.00758206
0.00762029
0.00766544
0.00771883
0.00778145
0.00785289
0.00793167
0.00801563
0.00810254
0.00819056
0.00827938
0.00836289
0.00843285
0.00849047
0.00854184
0.00859208
0.0086453
0.00870475
0.00877252
0.00884946
0.00893515
0.00902744
0.00912096
0.00920626
0.009272
0.00931061
0.00932338
0.00794713
0.00794151
0.00796117
0.00799749
0.00804029
0.00808418
0.00812747
0.00817139
0.00821763
0.00826806
0.0083232
0.00838248
0.00844463
0.00850815
0.00857174
0.00863511
0.00869398
0.00874275
0.00878234
0.00881696
0.00885008
0.00888449
0.00892243
0.00896549
0.00901456
0.00906991
0.00913103
0.00919559
0.00925806
0.00930989
0.00934313
0.00935561
0.00845739
0.00846987
0.00850635
0.00854736
0.00858748
0.00862464
0.00865824
0.00868955
0.00872017
0.00875188
0.00878552
0.0088211
0.00885804
0.00889555
0.00893287
0.0089698
0.00900388
0.00903195
0.00905455
0.00907407
0.00909247
0.0091113
0.00913182
0.00915498
0.00918133
0.0092112
0.00924462
0.0092809
0.00931772
0.00935049
0.00937355
0.00938342
0.00908174
0.00909143
0.00911013
0.00912804
0.00914435
0.00915884
0.00917145
0.00918271
0.00919329
0.00920393
0.00921503
0.00922667
0.0092387
0.00925088
0.00926297
0.00927489
0.00928586
0.00929487
0.0093021
0.00930831
0.00931411
0.00932001
0.00932639
0.00933354
0.00934167
0.00935086
0.00936118
0.00937249
0.00938423
0.00939518
0.00940352
0.00940755
)
;

boundaryField
{
    movingWall
    {
        type            fixedValue;
        value           uniform 0.00942;
    }
    fixedWalls
    {
        type            zeroGradient;
    }
    floor
    {
        type            zeroGradient;
    }
    frontAndBack
    {
        type            empty;
    }
}


// ************************************************************************* //
