/*--------------------------------*- C++ -*----------------------------------*\
| =========                 |                                                 |
| \\      /  F ield         | OpenFOAM: The Open Source CFD Toolbox           |
|  \\    /   O peration     | Version:  2212                                  |
|   \\  /    A nd           | Website:  www.openfoam.com                      |
|    \\/     M anipulation  |                                                 |
\*---------------------------------------------------------------------------*/
FoamFile
{
    version     2.0;
    format      ascii;
    arch        "LSB;label=64;scalar=64";
    class       volScalarField;
    location    "1910";
    object      Xch;
}
// * * * * * * * * * * * * * * * * * * * * * * * * * * * * * * * * * * * * * //

dimensions      [1 -3 0 0 0 0 0];

internalField   nonuniform List<scalar> 
1024
(
0.0200681
0.0200684
0.0200692
0.0200706
0.020073
0.0200765
0.0200815
0.0200882
0.0200968
0.0201073
0.0201193
0.0201322
0.0201453
0.0201578
0.020169
0.0201785
0.0201853
0.0201884
0.0201882
0.0201854
0.0201805
0.0201741
0.020167
0.0201599
0.0201533
0.0201479
0.0201436
0.0201405
0.0201384
0.0201371
0.0201364
0.0201361
0.0200682
0.0200685
0.0200693
0.0200708
0.0200731
0.0200767
0.0200817
0.0200885
0.0200972
0.0201077
0.0201198
0.0201327
0.0201458
0.0201583
0.0201695
0.020179
0.0201857
0.0201889
0.0201887
0.0201859
0.020181
0.0201746
0.0201675
0.0201603
0.0201537
0.0201482
0.0201438
0.0201407
0.0201386
0.0201373
0.0201366
0.0201363
0.0200685
0.0200688
0.0200696
0.0200711
0.0200735
0.0200771
0.0200822
0.0200891
0.020098
0.0201086
0.0201208
0.0201338
0.0201469
0.0201593
0.0201705
0.02018
0.0201868
0.02019
0.02019
0.0201872
0.0201822
0.0201758
0.0201685
0.0201612
0.0201545
0.0201488
0.0201444
0.0201412
0.020139
0.0201377
0.020137
0.0201367
0.0200689
0.0200692
0.0200701
0.0200716
0.0200741
0.0200778
0.0200831
0.0200902
0.0200993
0.0201101
0.0201225
0.0201356
0.0201487
0.0201611
0.0201723
0.0201818
0.0201888
0.0201922
0.0201923
0.0201895
0.0201845
0.0201778
0.0201702
0.0201627
0.0201557
0.0201499
0.0201453
0.020142
0.0201398
0.0201384
0.0201377
0.0201374
0.0200696
0.0200699
0.0200708
0.0200724
0.020075
0.0200789
0.0200845
0.0200919
0.0201012
0.0201124
0.0201249
0.0201381
0.0201513
0.0201636
0.0201748
0.0201846
0.0201919
0.0201957
0.020196
0.0201933
0.020188
0.0201809
0.0201728
0.0201648
0.0201576
0.0201515
0.0201467
0.0201433
0.020141
0.0201396
0.0201389
0.0201386
0.0200706
0.020071
0.0200719
0.0200736
0.0200764
0.0200805
0.0200864
0.0200942
0.0201039
0.0201155
0.0201282
0.0201416
0.0201547
0.0201671
0.0201784
0.0201884
0.0201963
0.0202008
0.0202016
0.0201989
0.0201932
0.0201854
0.0201766
0.0201679
0.0201601
0.0201537
0.0201487
0.0201452
0.0201428
0.0201414
0.0201407
0.0201404
0.020072
0.0200724
0.0200734
0.0200752
0.0200781
0.0200826
0.0200888
0.0200971
0.0201073
0.0201193
0.0201324
0.0201459
0.020159
0.0201715
0.020183
0.0201936
0.0202023
0.0202078
0.0202093
0.0202068
0.0202006
0.0201918
0.020182
0.0201723
0.0201638
0.0201569
0.0201517
0.020148
0.0201456
0.0201443
0.0201436
0.0201433
0.0200738
0.0200742
0.0200752
0.0200772
0.0200804
0.0200851
0.0200918
0.0201006
0.0201114
0.0201238
0.0201373
0.0201509
0.0201642
0.0201768
0.0201887
0.0202001
0.0202101
0.0202169
0.0202193
0.0202171
0.0202106
0.0202009
0.0201898
0.0201789
0.0201694
0.0201618
0.0201562
0.0201524
0.02015
0.0201487
0.0201481
0.0201479
0.020076
0.0200764
0.0200775
0.0200796
0.020083
0.0200881
0.0200953
0.0201046
0.020116
0.0201289
0.0201427
0.0201566
0.02017
0.0201829
0.0201954
0.0202078
0.0202192
0.0202277
0.0202315
0.0202301
0.0202237
0.0202134
0.0202011
0.0201888
0.0201781
0.0201696
0.0201635
0.0201595
0.0201571
0.0201558
0.0201553
0.0201551
0.0200785
0.020079
0.0200801
0.0200823
0.0200859
0.0200914
0.020099
0.0201089
0.0201209
0.0201343
0.0201484
0.0201625
0.0201762
0.0201895
0.0202026
0.020216
0.020229
0.0202393
0.020245
0.0202454
0.0202402
0.0202303
0.0202176
0.0202043
0.0201923
0.0201827
0.0201758
0.0201713
0.0201687
0.0201674
0.0201668
0.0201667
0.0200813
0.0200818
0.020083
0.0200853
0.0200891
0.0200948
0.0201028
0.0201132
0.0201256
0.0201395
0.020154
0.0201684
0.0201823
0.0201957
0.0202093
0.0202235
0.0202378
0.0202501
0.0202585
0.0202619
0.0202596
0.020252
0.0202405
0.0202273
0.0202146
0.0202038
0.0201958
0.0201905
0.0201874
0.0201858
0.0201851
0.0201849
0.0200842
0.0200847
0.0200859
0.0200883
0.0200922
0.0200981
0.0201064
0.0201171
0.0201299
0.0201441
0.0201589
0.0201734
0.0201872
0.0202006
0.020214
0.0202281
0.020243
0.0202573
0.020269
0.0202769
0.0202795
0.0202766
0.0202689
0.0202581
0.0202461
0.020235
0.020226
0.0202196
0.0202156
0.0202134
0.0202124
0.020212
0.020087
0.0200875
0.0200887
0.0200911
0.020095
0.020101
0.0201094
0.0201202
0.0201332
0.0201475
0.0201622
0.0201765
0.0201898
0.0202023
0.0202144
0.0202272
0.0202415
0.0202572
0.0202726
0.0202859
0.020295
0.0202989
0.0202975
0.0202919
0.0202834
0.020274
0.0202653
0.0202583
0.0202534
0.0202504
0.0202489
0.0202483
0.0200895
0.02009
0.0200912
0.0200935
0.0200974
0.0201032
0.0201114
0.020122
0.0201347
0.0201487
0.0201629
0.0201764
0.0201885
0.020199
0.0202084
0.0202181
0.0202302
0.0202463
0.020265
0.0202838
0.0203
0.0203117
0.0203183
0.0203199
0.0203175
0.0203124
0.0203061
0.0203001
0.0202954
0.0202921
0.0202903
0.0202895
0.0200913
0.0200918
0.0200929
0.0200951
0.0200987
0.0201042
0.0201119
0.0201218
0.0201338
0.0201469
0.0201601
0.0201721
0.020182
0.0201894
0.0201948
0.0201997
0.0202078
0.0202227
0.0202437
0.0202676
0.0202908
0.0203106
0.0203255
0.020335
0.0203397
0.0203404
0.0203385
0.0203354
0.0203322
0.0203296
0.020328
0.0203273
0.020092
0.0200924
0.0200935
0.0200955
0.0200987
0.0201036
0.0201104
0.0201192
0.0201298
0.0201415
0.020153
0.0201629
0.0201701
0.0201739
0.0201744
0.0201735
0.020176
0.020188
0.0202097
0.0202378
0.0202679
0.020296
0.0203195
0.0203372
0.0203491
0.020356
0.0203589
0.0203593
0.0203583
0.020357
0.020356
0.0203555
0.0200909
0.0200914
0.0200924
0.0200942
0.020097
0.0201012
0.0201069
0.0201143
0.0201233
0.020133
0.0201425
0.0201503
0.0201551
0.0201559
0.0201524
0.0201465
0.0201434
0.0201508
0.0201705
0.0202003
0.0202357
0.0202718
0.0203044
0.020331
0.0203506
0.0203637
0.0203713
0.0203749
0.020376
0.0203759
0.0203755
0.0203751
0.0200884
0.0200888
0.0200897
0.0200914
0.0200939
0.0200975
0.0201023
0.0201085
0.0201158
0.0201238
0.0201315
0.0201376
0.0201408
0.0201399
0.0201347
0.0201263
0.0201201
0.0201236
0.0201399
0.0201681
0.0202052
0.0202463
0.0202863
0.0203211
0.0203484
0.0203679
0.0203803
0.0203872
0.0203903
0.0203912
0.0203911
0.0203909
0.0200849
0.0200853
0.0200862
0.0200878
0.02009
0.0200932
0.0200973
0.0201025
0.0201086
0.0201151
0.0201214
0.0201262
0.0201285
0.0201271
0.0201217
0.0201133
0.0201067
0.020109
0.0201229
0.0201487
0.0201846
0.020227
0.0202708
0.0203113
0.0203449
0.0203702
0.0203872
0.0203974
0.0204025
0.0204044
0.0204048
0.0204046
0.0200811
0.0200815
0.0200823
0.0200838
0.0200858
0.0200887
0.0200923
0.0200968
0.0201018
0.0201072
0.0201123
0.0201162
0.020118
0.0201167
0.0201122
0.0201055
0.0201008
0.0201039
0.0201172
0.0201411
0.0201749
0.020216
0.0202606
0.0203038
0.0203417
0.0203715
0.0203927
0.0204061
0.0204133
0.0204163
0.0204171
0.0204171
0.0200777
0.020078
0.0200788
0.02008
0.0200818
0.0200843
0.0200875
0.0200913
0.0200956
0.0201001
0.0201043
0.0201075
0.0201091
0.0201086
0.020106
0.0201023
0.0201012
0.0201068
0.0201206
0.0201433
0.0201748
0.0202135
0.0202564
0.0202998
0.0203396
0.0203726
0.0203972
0.0204135
0.0204228
0.020427
0.0204283
0.0204284
0.0200761
0.0200763
0.0200767
0.0200775
0.0200789
0.0200808
0.0200834
0.0200866
0.0200902
0.020094
0.0200976
0.0201006
0.0201027
0.0201038
0.020104
0.0201046
0.0201082
0.0201171
0.020132
0.0201538
0.0201829
0.0202183
0.0202583
0.0202998
0.0203393
0.0203738
0.0204008
0.0204197
0.020431
0.0204366
0.0204385
0.0204387
0.0200779
0.0200779
0.0200778
0.0200779
0.0200783
0.0200793
0.0200811
0.0200835
0.0200865
0.0200899
0.0200935
0.0200971
0.0201007
0.0201044
0.0201086
0.0201143
0.0201229
0.0201351
0.0201511
0.0201718
0.020198
0.0202297
0.0202658
0.020304
0.0203416
0.0203759
0.0204042
0.020425
0.0204382
0.0204451
0.0204476
0.020448
0.0200851
0.0200847
0.0200838
0.0200828
0.020082
0.0200818
0.0200824
0.0200841
0.0200867
0.0200903
0.0200948
0.0201001
0.0201064
0.0201136
0.0201223
0.020133
0.0201461
0.0201609
0.0201774
0.0201966
0.0202196
0.020247
0.0202784
0.0203124
0.0203468
0.0203794
0.0204077
0.0204297
0.0204445
0.0204527
0.0204559
0.0204565
0.0200992
0.0200982
0.0200965
0.0200943
0.0200922
0.0200907
0.0200905
0.0200917
0.0200947
0.0200993
0.0201056
0.0201136
0.0201231
0.0201342
0.0201468
0.0201616
0.0201777
0.0201939
0.0202099
0.0202272
0.0202468
0.0202697
0.020296
0.020325
0.0203553
0.0203851
0.0204121
0.0204343
0.0204501
0.0204594
0.0204633
0.0204641
0.020121
0.0201195
0.0201169
0.0201139
0.0201112
0.0201093
0.020109
0.0201108
0.0201149
0.0201213
0.0201299
0.0201406
0.020153
0.020167
0.0201823
0.0201992
0.0202166
0.0202326
0.0202474
0.0202623
0.0202785
0.020297
0.0203181
0.0203418
0.0203673
0.0203932
0.0204178
0.0204391
0.0204553
0.0204654
0.02047
0.0204711
0.0201512
0.0201492
0.0201462
0.0201433
0.0201412
0.0201405
0.0201415
0.0201447
0.0201505
0.0201587
0.0201692
0.0201816
0.0201956
0.0202108
0.0202269
0.0202439
0.0202606
0.0202753
0.0202882
0.0203005
0.0203134
0.0203277
0.020344
0.0203625
0.0203828
0.0204042
0.0204255
0.0204448
0.0204604
0.0204708
0.0204759
0.0204773
0.0201899
0.0201876
0.0201851
0.0201839
0.0201842
0.0201859
0.0201892
0.0201943
0.0202015
0.0202107
0.0202217
0.0202343
0.0202481
0.0202625
0.0202774
0.0202927
0.0203074
0.0203199
0.0203305
0.0203402
0.0203499
0.0203606
0.0203726
0.0203862
0.0204015
0.0204181
0.0204352
0.0204517
0.0204657
0.0204758
0.0204812
0.0204828
0.0202376
0.0202355
0.0202351
0.0202369
0.0202405
0.0202451
0.0202505
0.0202569
0.0202644
0.0202732
0.0202833
0.0202943
0.0203061
0.0203183
0.0203306
0.020343
0.0203546
0.0203644
0.0203724
0.0203796
0.0203866
0.0203941
0.0204024
0.0204119
0.0204226
0.0204345
0.0204472
0.0204601
0.0204717
0.0204806
0.0204859
0.0204876
0.0202957
0.0202949
0.0202977
0.0203027
0.0203087
0.0203149
0.0203209
0.0203271
0.0203336
0.0203407
0.0203484
0.0203567
0.0203654
0.0203743
0.0203832
0.0203921
0.0204003
0.0204071
0.0204126
0.0204175
0.0204221
0.0204269
0.0204322
0.0204382
0.0204451
0.0204528
0.0204612
0.0204701
0.0204786
0.0204856
0.0204901
0.0204918
0.0203666
0.0203683
0.0203734
0.0203791
0.0203847
0.0203898
0.0203945
0.0203989
0.0204032
0.0204077
0.0204124
0.0204174
0.0204226
0.0204278
0.020433
0.0204382
0.0204429
0.0204469
0.02045
0.0204527
0.0204553
0.0204579
0.0204608
0.0204641
0.0204677
0.0204719
0.0204765
0.0204815
0.0204865
0.0204909
0.020494
0.0204954
0.0204531
0.0204545
0.0204571
0.0204596
0.0204618
0.0204639
0.0204656
0.0204672
0.0204687
0.0204702
0.0204717
0.0204734
0.020475
0.0204768
0.0204784
0.0204801
0.0204816
0.0204829
0.0204839
0.0204848
0.0204856
0.0204864
0.0204873
0.0204883
0.0204894
0.0204907
0.0204921
0.0204937
0.0204953
0.0204968
0.0204979
0.0204984
)
;

boundaryField
{
    movingWall
    {
        type            fixedValue;
        value           uniform 0.0205;
    }
    fixedWalls
    {
        type            zeroGradient;
    }
    floor
    {
        type            zeroGradient;
    }
    frontAndBack
    {
        type            empty;
    }
}


// ************************************************************************* //
