/*--------------------------------*- C++ -*----------------------------------*\
| =========                 |                                                 |
| \\      /  F ield         | OpenFOAM: The Open Source CFD Toolbox           |
|  \\    /   O peration     | Version:  2212                                  |
|   \\  /    A nd           | Website:  www.openfoam.com                      |
|    \\/     M anipulation  |                                                 |
\*---------------------------------------------------------------------------*/
FoamFile
{
    version     2.0;
    format      ascii;
    arch        "LSB;label=64;scalar=64";
    class       volScalarField;
    location    "1910";
    object      Xpr;
}
// * * * * * * * * * * * * * * * * * * * * * * * * * * * * * * * * * * * * * //

dimensions      [1 -3 0 0 0 0 0];

internalField   nonuniform List<scalar> 
1024
(
0.0823515
0.0823529
0.0823562
0.0823624
0.0823724
0.0823874
0.0824088
0.0824376
0.0824745
0.0825193
0.0825707
0.082626
0.0826821
0.0827354
0.0827834
0.0828242
0.082853
0.0828662
0.0828654
0.0828534
0.0828325
0.0828052
0.0827748
0.0827442
0.0827163
0.0826929
0.0826746
0.0826614
0.0826524
0.0826468
0.0826438
0.0826425
0.0823519
0.0823533
0.0823567
0.0823629
0.082373
0.0823882
0.0824097
0.0824388
0.0824759
0.082521
0.0825726
0.082628
0.0826841
0.0827374
0.0827854
0.0828261
0.082855
0.0828683
0.0828676
0.0828556
0.0828347
0.0828074
0.0827768
0.082746
0.0827179
0.0826942
0.0826757
0.0826622
0.0826532
0.0826475
0.0826445
0.0826432
0.082353
0.0823544
0.0823578
0.0823642
0.0823745
0.08239
0.082412
0.0824415
0.0824793
0.0825249
0.0825769
0.0826326
0.0826887
0.0827419
0.0827898
0.0828306
0.0828597
0.0828734
0.082873
0.0828611
0.08284
0.0828123
0.0827812
0.0827499
0.0827212
0.082697
0.082678
0.0826643
0.082655
0.0826493
0.0826462
0.0826449
0.0823549
0.0823563
0.0823599
0.0823664
0.0823771
0.0823931
0.0824158
0.0824462
0.0824849
0.0825314
0.0825841
0.0826402
0.0826963
0.0827494
0.0827973
0.0828383
0.0828681
0.0828826
0.0828829
0.0828712
0.0828495
0.0828208
0.0827886
0.0827562
0.0827266
0.0827015
0.082682
0.0826678
0.0826583
0.0826524
0.0826493
0.082648
0.0823579
0.0823594
0.0823631
0.08237
0.0823811
0.0823979
0.0824216
0.0824533
0.0824934
0.0825411
0.0825947
0.0826512
0.0827074
0.0827604
0.0828083
0.08285
0.0828812
0.0828975
0.082899
0.0828874
0.0828647
0.0828341
0.0827998
0.0827655
0.0827344
0.0827082
0.0826879
0.0826733
0.0826635
0.0826575
0.0826543
0.0826531
0.0823622
0.0823638
0.0823677
0.082375
0.0823868
0.0824046
0.0824297
0.082463
0.0825048
0.0825542
0.0826089
0.0826659
0.0827222
0.0827752
0.0828235
0.0828665
0.0829002
0.0829193
0.0829228
0.0829114
0.082887
0.0828535
0.0828159
0.0827788
0.0827454
0.0827178
0.0826965
0.0826813
0.0826714
0.0826654
0.0826623
0.0826611
0.0823682
0.0823699
0.082374
0.0823818
0.0823944
0.0824134
0.0824402
0.0824755
0.0825194
0.0825706
0.0826266
0.0826843
0.0827407
0.082794
0.0828433
0.0828886
0.082926
0.0829494
0.0829558
0.082945
0.0829186
0.0828811
0.0828389
0.0827977
0.0827612
0.0827315
0.0827091
0.0826935
0.0826834
0.0826775
0.0826745
0.0826735
0.0823759
0.0823776
0.082382
0.0823903
0.0824039
0.0824244
0.082453
0.0824906
0.0825369
0.0825901
0.0826475
0.0827059
0.0827628
0.0828167
0.0828677
0.0829164
0.0829591
0.0829881
0.0829986
0.0829893
0.0829613
0.0829198
0.0828722
0.0828255
0.0827849
0.0827525
0.0827286
0.0827123
0.0827021
0.0826965
0.0826938
0.0826929
0.0823852
0.0823871
0.0823918
0.0824006
0.0824152
0.0824372
0.0824678
0.0825078
0.0825565
0.0826118
0.0826708
0.0827301
0.0827877
0.0828428
0.0828963
0.0829493
0.0829983
0.0830344
0.0830506
0.0830448
0.0830175
0.0829734
0.0829208
0.0828683
0.0828223
0.0827861
0.08276
0.0827428
0.0827324
0.0827269
0.0827245
0.0827238
0.082396
0.082398
0.0824029
0.0824123
0.0824278
0.0824513
0.0824839
0.0825262
0.0825773
0.0826347
0.0826952
0.0827557
0.0828143
0.0828709
0.082927
0.0829845
0.0830402
0.0830843
0.0831088
0.0831103
0.0830881
0.0830459
0.0829915
0.0829344
0.0828829
0.0828418
0.0828123
0.0827932
0.082782
0.0827763
0.082774
0.0827734
0.082408
0.08241
0.0824151
0.0824249
0.0824412
0.0824659
0.0825002
0.0825445
0.0825978
0.0826572
0.0827192
0.0827807
0.0828401
0.0828978
0.0829558
0.0830165
0.0830777
0.0831304
0.0831664
0.0831808
0.083171
0.0831386
0.0830895
0.083033
0.0829783
0.0829322
0.082898
0.0828754
0.082862
0.0828551
0.0828523
0.0828515
0.0824204
0.0824224
0.0824277
0.0824378
0.0824546
0.08248
0.0825155
0.0825613
0.0826161
0.0826769
0.08274
0.082802
0.0828613
0.0829185
0.0829757
0.0830363
0.0831001
0.0831611
0.0832115
0.083245
0.0832562
0.0832437
0.0832108
0.0831645
0.0831135
0.083066
0.0830275
0.0830001
0.0829828
0.0829733
0.0829689
0.0829675
0.0824325
0.0824345
0.0824398
0.0824499
0.0824668
0.0824924
0.0825283
0.0825745
0.0826299
0.0826912
0.0827542
0.0828152
0.0828723
0.0829257
0.0829776
0.0830324
0.0830937
0.0831608
0.0832268
0.0832835
0.0833224
0.0833392
0.0833335
0.0833093
0.0832731
0.0832329
0.0831954
0.0831654
0.0831444
0.0831316
0.0831251
0.0831227
0.0824431
0.0824451
0.0824503
0.0824602
0.0824767
0.0825017
0.0825367
0.0825821
0.0826364
0.0826964
0.0827574
0.0828151
0.0828666
0.0829115
0.0829519
0.0829936
0.0830454
0.0831141
0.0831942
0.0832746
0.0833439
0.0833943
0.0834225
0.0834293
0.0834188
0.0833969
0.0833702
0.0833446
0.0833242
0.0833102
0.0833024
0.0832992
0.0824509
0.0824528
0.0824578
0.0824672
0.0824826
0.082506
0.0825388
0.0825815
0.0826326
0.0826888
0.0827452
0.0827966
0.0828389
0.0828707
0.0828936
0.0829147
0.0829493
0.0830133
0.0831032
0.0832055
0.0833048
0.0833895
0.0834531
0.0834939
0.0835137
0.0835169
0.0835088
0.0834955
0.0834818
0.0834709
0.083464
0.0834609
0.0824536
0.0824555
0.0824602
0.0824687
0.0824826
0.0825035
0.0825325
0.0825703
0.0826157
0.0826655
0.0827147
0.0827573
0.0827882
0.0828042
0.0828065
0.0828027
0.0828135
0.0828647
0.0829576
0.0830778
0.0832064
0.0833267
0.0834274
0.0835033
0.0835543
0.0835836
0.0835961
0.0835977
0.0835936
0.0835882
0.0835838
0.0835816
0.0824492
0.082451
0.0824553
0.082463
0.0824752
0.082493
0.0825176
0.0825494
0.0825875
0.0826293
0.0826699
0.0827035
0.0827239
0.0827271
0.0827125
0.0826872
0.0826738
0.0827053
0.0827897
0.0829172
0.0830687
0.0832232
0.0833629
0.0834767
0.0835607
0.0836166
0.0836491
0.0836646
0.0836695
0.083669
0.083667
0.0836655
0.0824382
0.08244
0.0824441
0.0824511
0.0824619
0.0824772
0.0824978
0.0825242
0.0825556
0.0825898
0.0826227
0.082649
0.0826626
0.0826588
0.0826364
0.0826008
0.0825739
0.0825891
0.0826588
0.0827797
0.0829382
0.0831141
0.0832853
0.0834342
0.0835513
0.0836347
0.0836878
0.0837172
0.0837304
0.0837341
0.0837339
0.0837329
0.0824234
0.0824252
0.0824291
0.0824356
0.0824454
0.0824589
0.0824766
0.0824988
0.0825247
0.0825527
0.0825795
0.0826003
0.08261
0.082604
0.0825809
0.0825451
0.0825168
0.0825263
0.082586
0.0826965
0.0828501
0.0830315
0.0832192
0.0833924
0.0835364
0.0836444
0.0837174
0.0837609
0.0837828
0.083791
0.0837924
0.0837918
0.0824071
0.0824087
0.0824124
0.0824185
0.0824274
0.0824396
0.0824552
0.0824741
0.0824959
0.082519
0.0825407
0.0825574
0.0825649
0.0825596
0.0825404
0.0825117
0.0824915
0.0825048
0.0825615
0.082664
0.0828086
0.0829846
0.0831752
0.0833605
0.0835224
0.0836502
0.0837409
0.0837981
0.0838289
0.0838419
0.0838453
0.0838451
0.0823926
0.082394
0.0823971
0.0824024
0.0824102
0.0824209
0.0824346
0.0824509
0.0824694
0.0824886
0.0825064
0.0825203
0.0825271
0.0825249
0.0825136
0.082498
0.0824931
0.0825169
0.0825761
0.0826735
0.0828082
0.0829736
0.0831574
0.0833431
0.0835134
0.0836545
0.0837598
0.0838296
0.0838694
0.0838877
0.0838932
0.0838935
0.0823857
0.0823864
0.0823883
0.0823918
0.0823975
0.0824059
0.082417
0.0824307
0.0824462
0.0824624
0.0824778
0.0824907
0.0824997
0.0825041
0.0825051
0.0825078
0.0825232
0.0825611
0.0826251
0.0827185
0.0828426
0.0829945
0.0831655
0.083343
0.0835124
0.0836599
0.0837756
0.0838563
0.0839049
0.0839286
0.0839366
0.0839375
0.0823936
0.0823933
0.0823929
0.0823932
0.0823952
0.0823996
0.082407
0.0824174
0.0824303
0.0824449
0.0824602
0.0824757
0.0824911
0.0825068
0.0825246
0.0825491
0.0825861
0.0826383
0.0827068
0.0827955
0.0829076
0.0830432
0.0831975
0.083361
0.0835221
0.0836687
0.0837899
0.083879
0.0839357
0.0839651
0.0839759
0.0839775
0.0824243
0.0824224
0.0824188
0.0824145
0.0824111
0.08241
0.0824127
0.0824198
0.0824312
0.0824466
0.0824657
0.0824885
0.0825152
0.0825464
0.0825833
0.0826292
0.0826855
0.0827487
0.0828191
0.0829015
0.083
0.0831173
0.0832516
0.083397
0.0835445
0.0836839
0.0838051
0.0838992
0.0839626
0.0839975
0.0840113
0.0840137
0.0824844
0.0824803
0.0824728
0.0824635
0.0824546
0.0824484
0.0824472
0.0824526
0.0824652
0.0824851
0.0825121
0.0825461
0.0825869
0.0826343
0.0826885
0.0827515
0.0828207
0.0828897
0.0829584
0.0830323
0.0831164
0.0832143
0.0833269
0.083451
0.0835808
0.0837081
0.0838237
0.0839187
0.0839865
0.0840262
0.0840431
0.0840465
0.0825781
0.0825716
0.0825605
0.0825475
0.0825358
0.082528
0.0825267
0.0825341
0.0825516
0.0825791
0.082616
0.0826616
0.0827149
0.0827747
0.0828404
0.0829126
0.0829869
0.0830556
0.083119
0.0831828
0.0832521
0.083331
0.0834215
0.083523
0.083632
0.083743
0.0838484
0.0839396
0.0840086
0.0840518
0.0840716
0.0840762
0.0827072
0.0826984
0.0826857
0.0826733
0.0826645
0.0826613
0.0826655
0.0826794
0.082704
0.0827392
0.0827841
0.0828373
0.0828973
0.0829622
0.083031
0.0831037
0.0831753
0.0832384
0.0832936
0.0833463
0.0834014
0.0834626
0.0835324
0.0836114
0.0836984
0.08379
0.083881
0.0839638
0.0840304
0.0840749
0.084097
0.0841027
0.0828728
0.0828627
0.0828523
0.082847
0.0828483
0.0828558
0.0828697
0.0828917
0.0829224
0.0829618
0.0830091
0.0830629
0.0831217
0.0831836
0.0832474
0.0833129
0.0833756
0.0834292
0.0834743
0.0835159
0.0835578
0.0836032
0.0836546
0.083713
0.0837784
0.0838494
0.0839229
0.0839933
0.0840534
0.0840963
0.0841195
0.0841263
0.0830771
0.0830681
0.0830661
0.0830741
0.0830894
0.0831091
0.0831322
0.0831594
0.0831917
0.0832294
0.0832724
0.0833197
0.0833701
0.0834222
0.0834749
0.083528
0.0835778
0.0836195
0.0836539
0.0836846
0.0837147
0.0837467
0.0837824
0.0838229
0.0838688
0.0839197
0.0839742
0.0840292
0.084079
0.0841172
0.0841395
0.084147
0.0833256
0.0833223
0.083334
0.0833557
0.0833813
0.0834076
0.0834336
0.0834599
0.0834878
0.0835181
0.0835512
0.0835868
0.0836241
0.0836622
0.0837003
0.0837382
0.0837733
0.0838024
0.083826
0.0838467
0.0838666
0.0838872
0.0839099
0.0839357
0.083965
0.0839979
0.084034
0.0840719
0.0841084
0.0841384
0.0841576
0.0841648
0.0836289
0.0836363
0.083658
0.0836824
0.0837063
0.0837285
0.0837486
0.0837674
0.0837858
0.0838048
0.083825
0.0838464
0.0838685
0.083891
0.0839134
0.0839355
0.0839558
0.0839726
0.0839861
0.0839977
0.0840087
0.08402
0.0840323
0.0840462
0.0840619
0.0840796
0.0840994
0.0841207
0.0841422
0.0841612
0.0841745
0.0841801
0.0839994
0.0840052
0.0840163
0.084027
0.0840367
0.0840453
0.0840529
0.0840596
0.0840659
0.0840723
0.084079
0.084086
0.0840932
0.0841005
0.0841077
0.0841149
0.0841214
0.0841268
0.0841311
0.0841348
0.0841383
0.0841418
0.0841457
0.0841499
0.0841548
0.0841603
0.0841664
0.084173
0.0841799
0.0841862
0.084191
0.0841933
)
;

boundaryField
{
    movingWall
    {
        type            fixedValue;
        value           uniform 0.0842;
    }
    fixedWalls
    {
        type            zeroGradient;
    }
    floor
    {
        type            zeroGradient;
    }
    frontAndBack
    {
        type            empty;
    }
}


// ************************************************************************* //
