/*--------------------------------*- C++ -*----------------------------------*\
| =========                 |                                                 |
| \\      /  F ield         | OpenFOAM: The Open Source CFD Toolbox           |
|  \\    /   O peration     | Version:  2206                                  |
|   \\  /    A nd           | Website:  www.openfoam.com                      |
|    \\/     M anipulation  |                                                 |
\*---------------------------------------------------------------------------*/
FoamFile
{
    version     2.0;
    format      ascii;
    arch        "LSB;label=64;scalar=64";
    class       surfaceScalarField;
    location    "11";
    object      phi;
}
// * * * * * * * * * * * * * * * * * * * * * * * * * * * * * * * * * * * * * //

dimensions      [0 3 -1 0 0 0 0];

oriented        oriented;

internalField   nonuniform List<scalar> 
1984
(
2.62529e-12
-2.63425e-12
-4.52582e-12
7.15074e-12
-2.98856e-11
2.53593e-11
-7.6338e-11
4.64518e-11
-1.43138e-10
6.67992e-11
-2.27742e-10
8.46033e-11
-3.27654e-10
9.99114e-11
-4.41539e-10
1.13884e-10
-5.6895e-10
1.27411e-10
-7.09231e-10
1.4028e-10
-8.60391e-10
1.51159e-10
-1.01808e-09
1.5769e-10
-1.17443e-09
1.5635e-10
-1.31653e-09
1.42099e-10
-1.42484e-09
1.08307e-10
-1.47102e-09
4.61827e-11
-1.43042e-09
-4.06014e-11
-1.32594e-09
-1.0448e-10
-1.18584e-09
-1.40101e-10
-1.02999e-09
-1.55853e-10
-8.71741e-10
-1.58251e-10
-7.19372e-10
-1.5237e-10
-5.77554e-10
-1.4182e-10
-4.48498e-10
-1.29056e-10
-3.33011e-10
-1.15488e-10
-2.31632e-10
-1.01381e-10
-1.45754e-10
-8.58783e-11
-7.79134e-11
-6.78419e-11
-3.06766e-11
-4.72377e-11
-4.80362e-12
-2.58738e-11
2.59252e-12
-7.39689e-12
2.59225e-12
-7.14431e-12
4.50977e-12
-4.57278e-11
4.57338e-11
-1.33704e-10
1.13335e-10
-2.80778e-10
1.93525e-10
-4.88194e-10
2.74215e-10
-7.51259e-10
3.47667e-10
-1.06381e-09
4.12466e-10
-1.42177e-09
4.71838e-10
-1.82314e-09
5.28779e-10
-2.26531e-09
5.82448e-10
-2.74168e-09
6.27526e-10
-3.23835e-09
6.54361e-10
-3.73034e-09
6.4834e-10
-4.17697e-09
5.88722e-10
-4.51637e-09
4.47714e-10
-4.65987e-09
1.8968e-10
-4.5316e-09
-1.68873e-10
-4.20268e-09
-4.33409e-10
-3.76155e-09
-5.81231e-10
-3.27096e-09
-6.46446e-10
-2.77279e-09
-6.56419e-10
-2.29315e-09
-6.32012e-10
-1.84681e-09
-5.8817e-10
-1.44097e-09
-5.34897e-10
-1.07865e-09
-4.77803e-10
-7.62111e-10
-4.17925e-10
-4.95593e-10
-3.52398e-10
-2.85357e-10
-2.7808e-10
-1.3615e-10
-1.96446e-10
-4.67387e-11
-1.15286e-10
-7.37538e-12
-4.67612e-11
-4.78339e-12
-2.53391e-11
2.98486e-11
-1.13358e-10
1.33752e-10
-2.83991e-10
2.83968e-10
-5.51849e-10
4.61382e-10
-9.21532e-10
6.43897e-10
-1.3885e-09
8.14629e-10
-1.94449e-09
9.68464e-10
-2.58306e-09
1.1104e-09
-3.30027e-09
1.24598e-09
-4.09082e-09
1.373e-09
-4.94247e-09
1.47917e-09
-5.83008e-09
1.54197e-09
-6.70879e-09
1.52704e-09
-7.50579e-09
1.38572e-09
-8.11036e-09
1.05229e-09
-8.36456e-09
4.43882e-10
-8.13439e-09
-3.99043e-10
-7.54638e-09
-1.02142e-09
-6.75808e-09
-1.36953e-09
-5.88162e-09
-1.52291e-09
-4.99168e-09
-1.54636e-09
-4.13489e-09
-1.4888e-09
-3.33777e-09
-1.3853e-09
-2.61353e-09
-1.25914e-09
-1.96811e-09
-1.12322e-09
-1.40585e-09
-9.80188e-10
-9.33467e-10
-8.24778e-10
-5.59362e-10
-6.52186e-10
-2.88135e-10
-4.67674e-10
-1.15174e-10
-2.88248e-10
-2.58042e-11
-1.36132e-10
-3.05878e-11
-4.65216e-11
7.63699e-11
-1.94062e-10
2.81292e-10
-4.62698e-10
5.52603e-10
-8.68525e-10
8.67208e-10
-1.41802e-09
1.19339e-09
-2.10736e-09
1.50396e-09
-2.92756e-09
1.78866e-09
-3.87073e-09
2.05358e-09
-4.93122e-09
2.30647e-09
-6.1007e-09
2.54248e-09
-7.36054e-09
2.73901e-09
-8.67319e-09
2.85463e-09
-9.97205e-09
2.8259e-09
-1.11493e-08
2.56298e-09
-1.20412e-08
1.94418e-09
-1.24147e-08
8.17413e-10
-1.20729e-08
-7.40857e-10
-1.12029e-08
-1.89147e-09
-1.00371e-08
-2.5353e-09
-8.74121e-09
-2.8188e-09
-7.4255e-09
-2.86208e-09
-6.15889e-09
-2.75541e-09
-4.98075e-09
-2.56344e-09
-3.911e-09
-2.3289e-09
-2.9588e-09
-2.07542e-09
-2.13036e-09
-1.80863e-09
-1.43391e-09
-1.52123e-09
-8.78605e-10
-1.20749e-09
-4.68327e-10
-8.77953e-10
-1.96571e-10
-5.60005e-10
-4.71747e-11
-2.8553e-10
-7.77626e-11
-6.72909e-11
1.4366e-10
-2.7669e-10
4.9069e-10
-6.49945e-10
9.25858e-10
-1.20326e-09
1.42052e-09
-1.94287e-09
1.93301e-09
-2.86459e-09
2.42568e-09
-3.95891e-09
2.88298e-09
-5.21729e-09
3.31195e-09
-6.63283e-09
3.72202e-09
-8.19426e-09
4.10391e-09
-9.87627e-09
4.42102e-09
-1.16283e-08
4.60669e-09
-1.33613e-08
4.55883e-09
-1.4931e-08
4.13273e-09
-1.61192e-08
3.13235e-09
-1.66155e-08
1.31368e-09
-1.61578e-08
-1.19856e-09
-1.49961e-08
-3.05311e-09
-1.34403e-08
-4.09111e-09
-1.1711e-08
-4.54815e-09
-9.95516e-09
-4.61787e-09
-8.26492e-09
-4.44565e-09
-6.69295e-09
-4.1354e-09
-5.26614e-09
-3.75571e-09
-3.9968e-09
-3.34477e-09
-2.89247e-09
-2.91296e-09
-1.96212e-09
-2.45157e-09
-1.21547e-09
-1.95415e-09
-6.56764e-10
-1.43666e-09
-2.79721e-10
-9.37048e-10
-6.80732e-11
-4.97179e-10
-1.45836e-10
-8.62431e-11
2.29903e-10
-3.55145e-10
7.5959e-10
-8.32736e-10
1.40345e-09
-1.53612e-09
2.12391e-09
-2.47031e-09
2.8672e-09
-3.62926e-09
3.58463e-09
-5.00207e-09
4.2558e-09
-6.57951e-09
4.88938e-09
-8.35384e-09
5.49634e-09
-1.0311e-08
6.06112e-09
-1.24192e-08
6.52912e-09
-1.46145e-08
6.802e-09
-1.6785e-08
6.72933e-09
-1.87501e-08
6.09782e-09
-2.02366e-08
4.61885e-09
-2.08565e-08
1.93362e-09
-2.02821e-08
-1.77299e-09
-1.88269e-08
-4.50832e-09
-1.68782e-08
-6.03977e-09
-1.47119e-08
-6.71444e-09
-1.25122e-08
-6.81761e-09
-1.03944e-08
-6.5635e-09
-8.4247e-09
-6.10507e-09
-6.63703e-09
-5.54338e-09
-5.0466e-09
-4.9352e-09
-3.66194e-09
-4.29761e-09
-2.4928e-09
-3.62071e-09
-1.55032e-09
-2.89663e-09
-8.40613e-10
-2.14637e-09
-3.58613e-10
-1.41905e-09
-8.71247e-11
-7.68668e-10
-2.32961e-10
-1.04062e-10
3.33964e-10
-4.3069e-10
1.08622e-09
-1.01232e-09
1.98508e-09
-1.86869e-09
2.98027e-09
-3.00395e-09
4.00246e-09
-4.40933e-09
4.99001e-09
-6.07134e-09
5.91781e-09
-7.97934e-09
6.79738e-09
-1.01246e-08
7.64157e-09
-1.24903e-08
8.42689e-09
-1.50379e-08
9.07664e-09
-1.76898e-08
9.45397e-09
-2.03107e-08
9.35021e-09
-2.26823e-08
8.46945e-09
-2.44756e-08
6.41215e-09
-2.52233e-08
2.6813e-09
-2.45298e-08
-2.4665e-09
-2.27738e-08
-6.26437e-09
-2.04217e-08
-8.3918e-09
-1.78059e-08
-9.33027e-09
-1.51487e-08
-9.47484e-09
-1.25895e-08
-9.12263e-09
-1.02089e-08
-8.48573e-09
-8.04769e-09
-7.70457e-09
-6.12416e-09
-6.85874e-09
-4.44799e-09
-5.97378e-09
-3.03045e-09
-5.03826e-09
-1.88532e-09
-4.04176e-09
-1.02148e-09
-3.01022e-09
-4.34686e-10
-2.00584e-09
-1.05066e-10
-1.09829e-09
-3.38027e-10
-1.2294e-10
4.56903e-10
-5.10881e-10
1.47416e-09
-1.20396e-09
2.67816e-09
-2.22612e-09
4.00242e-09
-3.58158e-09
5.35793e-09
-5.25869e-09
6.66711e-09
-7.24042e-09
7.89954e-09
-9.51374e-09
9.0707e-09
-1.20683e-08
1.01961e-08
-1.48841e-08
1.12427e-08
-1.79149e-08
1.21074e-08
-2.10683e-08
1.26074e-08
-2.41829e-08
1.24648e-08
-2.69995e-08
1.1286e-08
-2.91284e-08
8.5411e-09
-3.00167e-08
3.56955e-09
-2.91947e-08
-3.28844e-09
-2.71115e-08
-8.34765e-09
-2.4319e-08
-1.11842e-08
-2.12108e-08
-1.24385e-08
-1.8051e-08
-1.26346e-08
-1.5006e-08
-1.21677e-08
-1.21718e-08
-1.13199e-08
-9.59767e-09
-1.02787e-08
-7.30519e-09
-9.15122e-09
-5.306e-09
-7.97297e-09
-3.61391e-09
-6.73035e-09
-2.24633e-09
-5.40934e-09
-1.21504e-09
-4.04151e-09
-5.15688e-10
-2.7052e-09
-1.24139e-10
-1.48984e-09
-4.62166e-10
-1.45443e-10
6.02345e-10
-6.05726e-10
1.93444e-09
-1.42982e-09
3.50225e-09
-2.64697e-09
5.21958e-09
-4.26228e-09
6.97323e-09
-6.26114e-09
8.66597e-09
-8.62234e-09
1.02607e-08
-1.13295e-08
1.17779e-08
-1.43697e-08
1.32363e-08
-1.77187e-08
1.45917e-08
-2.13207e-08
1.57094e-08
-2.50653e-08
1.6352e-08
-2.87604e-08
1.61599e-08
-3.20989e-08
1.46245e-08
-3.46209e-08
1.10632e-08
-3.56746e-08
4.62325e-09
-3.4705e-08
-4.25806e-09
-3.22411e-08
-1.08116e-08
-2.89336e-08
-1.44917e-08
-2.52468e-08
-1.61253e-08
-2.14943e-08
-1.63871e-08
-1.78743e-08
-1.57877e-08
-1.4502e-08
-1.46922e-08
-1.14367e-08
-1.3344e-08
-8.70507e-09
-1.18829e-08
-6.32152e-09
-1.03565e-08
-4.30348e-09
-8.74839e-09
-2.67269e-09
-7.04012e-09
-1.44388e-09
-5.27032e-09
-6.11815e-10
-3.53726e-09
-1.46958e-10
-1.9547e-09
-6.09124e-10
-1.74071e-10
7.76414e-10
-7.25707e-10
2.48607e-09
-1.71442e-09
4.49096e-09
-3.17597e-09
6.68112e-09
-5.11665e-09
8.91391e-09
-7.51857e-09
1.10679e-08
-1.03554e-08
1.30975e-08
-1.36063e-08
1.50288e-08
-1.72546e-08
1.68846e-08
-2.127e-08
1.86071e-08
-2.55841e-08
2.00235e-08
-3.00632e-08
2.08312e-08
-3.44767e-08
2.05733e-08
-3.84585e-08
1.86063e-08
-4.14637e-08
1.40684e-08
-4.27217e-08
5.88121e-09
-4.15743e-08
-5.40548e-09
-3.86459e-08
-1.374e-08
-3.47055e-08
-1.84322e-08
-3.03035e-08
-2.05272e-08
-2.58144e-08
-2.08762e-08
-2.14768e-08
-2.01253e-08
-1.74307e-08
-1.87383e-08
-1.37491e-08
-1.70256e-08
-1.04655e-08
-1.51664e-08
-7.59897e-09
-1.32231e-08
-5.1715e-09
-1.11759e-08
-3.2102e-09
-9.00143e-09
-1.73313e-09
-6.74739e-09
-7.33801e-10
-4.53659e-09
-1.76085e-10
-2.51241e-09
-7.85209e-10
-2.11842e-10
9.88255e-10
-8.83643e-10
3.15787e-09
-2.08835e-09
5.69567e-09
-3.86987e-09
8.46264e-09
-6.23592e-09
1.128e-08
-9.16425e-09
1.39962e-08
-1.26218e-08
1.65551e-08
-1.65817e-08
1.89888e-08
-2.10217e-08
2.13245e-08
-2.59022e-08
2.34876e-08
-3.11375e-08
2.52588e-08
-3.65625e-08
2.62562e-08
-4.18962e-08
2.5907e-08
-4.66975e-08
2.34076e-08
-5.03156e-08
1.76866e-08
-5.18338e-08
7.39937e-09
-5.04666e-08
-6.7727e-09
-4.69542e-08
-1.72524e-08
-4.22106e-08
-2.31758e-08
-3.68939e-08
-2.58438e-08
-3.14561e-08
-2.63141e-08
-2.61888e-08
-2.53926e-08
-2.12661e-08
-2.36611e-08
-1.67802e-08
-2.15115e-08
-1.2775e-08
-1.91716e-08
-9.27614e-09
-1.6722e-08
-6.31227e-09
-1.41397e-08
-3.91751e-09
-1.13962e-08
-2.11439e-09
-8.55052e-09
-8.94908e-10
-5.75607e-09
-2.14645e-10
-3.19268e-09
-9.99854e-10
-2.63364e-10
1.25162e-09
-1.09888e-09
3.99339e-09
-2.59752e-09
7.19431e-09
-4.81393e-09
1.0679e-08
-7.75739e-09
1.42234e-08
-1.13994e-08
1.76382e-08
-1.56972e-08
2.08529e-08
-2.0615e-08
2.39066e-08
-2.61217e-08
2.68311e-08
-3.21636e-08
2.95296e-08
-3.86292e-08
3.17243e-08
-4.53093e-08
3.29363e-08
-5.18549e-08
3.24526e-08
-5.77271e-08
2.92798e-08
-6.21412e-08
2.21007e-08
-6.3999e-08
9.25719e-09
-6.23557e-08
-8.41601e-09
-5.80933e-08
-2.15148e-08
-5.23057e-08
-2.89634e-08
-4.57867e-08
-3.23628e-08
-3.90899e-08
-3.30109e-08
-3.25794e-08
-3.1903e-08
-2.64771e-08
-2.97635e-08
-2.09041e-08
-2.70845e-08
-1.59206e-08
-2.4155e-08
-1.15626e-08
-2.108e-08
-7.86882e-09
-1.78335e-08
-4.88347e-09
-1.43815e-08
-2.63552e-09
-1.07985e-08
-1.11532e-09
-7.27627e-09
-2.67454e-10
-4.04055e-09
-1.26731e-09
-3.36302e-10
1.58792e-09
-1.4035e-09
5.06059e-09
-3.31781e-09
9.10862e-09
-6.14864e-09
1.35099e-08
-9.90686e-09
1.79816e-08
-1.45542e-08
2.22856e-08
-2.00333e-08
2.63319e-08
-2.62938e-08
3.01672e-08
-3.32893e-08
3.38266e-08
-4.09433e-08
3.71835e-08
-4.91037e-08
3.98848e-08
-5.74968e-08
4.13295e-08
-6.56784e-08
4.06342e-08
-7.298e-08
3.65814e-08
-7.8447e-08
2.75677e-08
-8.07568e-08
1.15671e-08
-7.87647e-08
-1.04082e-08
-7.35255e-08
-2.67539e-08
-6.63543e-08
-3.61347e-08
-5.82172e-08
-4.04999e-08
-4.98028e-08
-4.14253e-08
-4.15772e-08
-4.01287e-08
-3.3833e-08
-3.75076e-08
-2.67371e-08
-3.41804e-08
-2.03765e-08
-3.05156e-08
-1.48052e-08
-2.66513e-08
-1.00782e-08
-2.25606e-08
-6.25552e-09
-1.82042e-08
-3.37619e-09
-1.36778e-08
-1.42875e-09
-9.22372e-09
-3.42579e-10
-5.12672e-09
-1.60989e-09
-4.44083e-10
2.032e-09
-1.8534e-09
6.4699e-09
-4.38101e-09
1.16362e-08
-8.11742e-09
1.72463e-08
-1.30748e-08
2.2939e-08
-1.91988e-08
2.84096e-08
-2.64075e-08
3.35406e-08
-3.46253e-08
3.8385e-08
-4.37778e-08
4.29791e-08
-5.3747e-08
4.71527e-08
-6.43144e-08
5.04522e-08
-7.51062e-08
5.21212e-08
-8.5541e-08
5.1069e-08
-9.47774e-08
4.58177e-08
-1.0165e-07
3.44402e-08
-1.04568e-07
1.44851e-08
-1.02141e-07
-1.28354e-08
-9.56266e-08
-3.32681e-08
-8.66029e-08
-4.51583e-08
-7.62484e-08
-5.08544e-08
-6.54322e-08
-5.22415e-08
-5.47674e-08
-5.07935e-08
-4.46574e-08
-4.76176e-08
-3.5345e-08
-4.34929e-08
-2.69659e-08
-3.88947e-08
-1.96075e-08
-3.40096e-08
-1.33538e-08
-2.88143e-08
-8.29141e-09
-2.32666e-08
-4.47595e-09
-1.74933e-08
-1.8944e-09
-1.18053e-08
-4.54267e-10
-6.56685e-09
-2.06415e-09
-6.11301e-10
2.6433e-09
-2.55133e-09
8.40993e-09
-6.02972e-09
1.51146e-08
-1.11682e-08
2.23847e-08
-1.79783e-08
2.97491e-08
-2.63766e-08
3.68079e-08
-3.62365e-08
4.34006e-08
-4.74337e-08
4.95822e-08
-5.98368e-08
5.53822e-08
-7.32477e-08
6.05637e-08
-8.73296e-08
6.4534e-08
-1.01546e-07
6.63373e-08
-1.15113e-07
6.46367e-08
-1.26965e-07
5.76698e-08
-1.35695e-07
4.31697e-08
-1.39425e-07
1.82146e-08
-1.36484e-07
-1.57756e-08
-1.28347e-07
-4.14059e-08
-1.16864e-07
-5.66408e-08
-1.03455e-07
-6.42635e-08
-8.92214e-08
-6.6475e-08
-7.49926e-08
-6.50223e-08
-6.1353e-08
-6.12572e-08
-4.86811e-08
-5.61648e-08
-3.72077e-08
-5.0368e-08
-2.70885e-08
-4.41289e-08
-1.84643e-08
-3.74385e-08
-1.14708e-08
-3.026e-08
-6.19453e-09
-2.27696e-08
-2.62233e-09
-1.53775e-08
-6.28878e-10
-8.56031e-09
-2.69303e-09
-8.87212e-10
3.53052e-09
-3.70263e-09
1.12254e-08
-8.74737e-09
2.01594e-08
-1.61906e-08
2.9828e-08
-2.60358e-08
3.95942e-08
-3.81401e-08
4.89122e-08
-5.22865e-08
5.75469e-08
-6.82449e-08
6.55406e-08
-8.57577e-08
7.2895e-08
-1.04458e-07
7.92636e-08
-1.2378e-07
8.38566e-08
-1.42911e-07
8.54686e-08
-1.60775e-07
8.24999e-08
-1.76037e-07
7.29326e-08
-1.87086e-07
5.42187e-08
-1.91845e-07
2.29735e-08
-1.88403e-07
-1.92179e-08
-1.78379e-07
-5.14297e-08
-1.63805e-07
-7.12152e-08
-1.46287e-07
-8.17812e-08
-1.27191e-07
-8.55713e-08
-1.07656e-07
-8.45573e-08
-8.85728e-08
-8.03399e-08
-7.05826e-08
-7.4155e-08
-5.41175e-08
-6.68331e-08
-3.94864e-08
-5.87601e-08
-2.69554e-08
-4.99695e-08
-1.67626e-08
-4.04528e-08
-9.05807e-09
-3.04741e-08
-3.83604e-09
-2.05995e-08
-9.201e-10
-1.14762e-08
-3.61313e-09
-1.18257e-09
4.71309e-09
-4.92984e-09
1.49726e-08
-1.16339e-08
2.68635e-08
-2.15036e-08
3.96976e-08
-3.45139e-08
5.26046e-08
-5.04273e-08
6.48256e-08
-6.88814e-08
7.6001e-08
-8.9464e-08
8.61232e-08
-1.11693e-07
9.51243e-08
-1.34926e-07
1.02496e-07
-1.58284e-07
1.07215e-07
-1.80659e-07
1.07844e-07
-2.00786e-07
1.02626e-07
-2.17342e-07
8.94885e-08
-2.2897e-07
6.58468e-08
-2.34033e-07
2.80365e-08
-2.30885e-07
-2.23656e-08
-2.20833e-07
-6.14819e-08
-2.05445e-07
-8.66035e-08
-1.86019e-07
-1.01207e-07
-1.63866e-07
-1.07724e-07
-1.40299e-07
-1.08125e-07
-1.16523e-07
-1.04116e-07
-9.35368e-08
-9.71411e-08
-7.2104e-08
-8.82659e-08
-5.28099e-08
-7.80541e-08
-3.61446e-08
-6.66348e-08
-2.25172e-08
-5.40802e-08
-1.21833e-08
-4.0808e-08
-5.16506e-09
-2.76178e-08
-1.24039e-09
-1.54009e-08
-4.85353e-09
-1.41104e-09
6.12413e-09
-5.87444e-09
1.9436e-08
-1.38423e-08
3.48314e-08
-2.55328e-08
5.13881e-08
-4.08606e-08
6.79324e-08
-5.94521e-08
8.34171e-08
-8.07402e-08
9.72891e-08
-1.04048e-07
1.09431e-07
-1.2858e-07
1.19656e-07
-1.53355e-07
1.27271e-07
-1.77204e-07
1.31064e-07
-1.98878e-07
1.29517e-07
-2.17236e-07
1.20985e-07
-2.31422e-07
1.03674e-07
-2.40888e-07
7.53122e-08
-2.45078e-07
3.22272e-08
-2.4316e-07
-2.42843e-08
-2.35702e-07
-6.89392e-08
-2.23195e-07
-9.91109e-08
-2.06049e-07
-1.18352e-07
-1.85001e-07
-1.28772e-07
-1.61153e-07
-1.31973e-07
-1.35814e-07
-1.29455e-07
-1.10297e-07
-1.22658e-07
-8.57663e-08
-1.12796e-07
-6.32039e-08
-1.00616e-07
-4.34381e-08
-8.64006e-08
-2.71342e-08
-7.03841e-08
-1.47075e-08
-5.32347e-08
-6.24324e-09
-3.60822e-08
-1.50126e-09
-2.0143e-08
-6.35478e-09
-1.70019e-09
7.82432e-09
-7.07207e-09
2.48079e-08
-1.66365e-08
4.43958e-08
-3.06004e-08
6.5352e-08
-4.87595e-08
8.60915e-08
-7.05028e-08
1.0516e-07
-9.49208e-08
1.21707e-07
-1.20919e-07
1.3543e-07
-1.47252e-07
1.45989e-07
-1.72538e-07
1.52557e-07
-1.95369e-07
1.53894e-07
-2.14544e-07
1.48692e-07
-2.2933e-07
1.35771e-07
-2.39621e-07
1.13966e-07
-2.45881e-07
8.15727e-08
-2.48754e-07
3.51001e-08
-2.48324e-07
-2.47146e-08
-2.44409e-07
-7.28539e-08
-2.36351e-07
-1.07169e-07
-2.23484e-07
-1.31219e-07
-2.05645e-07
-1.46612e-07
-1.8335e-07
-1.54269e-07
-1.57728e-07
-1.55076e-07
-1.30287e-07
-1.50099e-07
-1.02648e-07
-1.40436e-07
-7.63617e-08
-1.26903e-07
-5.28138e-08
-1.09949e-07
-3.31204e-08
-9.00774e-08
-1.79921e-08
-6.83632e-08
-7.64562e-09
-4.64287e-08
-1.83905e-09
-2.59496e-08
-8.19384e-09
-2.08403e-09
9.90834e-09
-8.65475e-09
3.13786e-08
-2.03048e-08
5.60459e-08
-3.71846e-08
8.22318e-08
-5.88614e-08
1.07768e-07
-8.43148e-08
1.30614e-07
-1.12084e-07
1.49476e-07
-1.40464e-07
1.6381e-07
-1.67655e-07
1.7318e-07
-1.91917e-07
1.76819e-07
-2.11823e-07
1.73801e-07
-2.26559e-07
1.63429e-07
-2.36137e-07
1.45348e-07
-2.41402e-07
1.19231e-07
-2.43832e-07
8.40021e-08
-2.45124e-07
3.63925e-08
-2.46207e-07
-2.36318e-08
-2.46282e-07
-7.2779e-08
-2.43746e-07
-1.09705e-07
-2.36925e-07
-1.3804e-07
-2.24573e-07
-1.58964e-07
-2.06219e-07
-1.72623e-07
-1.82327e-07
-1.78968e-07
-1.54228e-07
-1.78198e-07
-1.23864e-07
-1.708e-07
-9.34752e-08
-1.57291e-07
-6.52892e-08
-1.38135e-07
-4.11962e-08
-1.14171e-07
-2.24548e-08
-8.71045e-08
-9.55636e-09
-5.93271e-08
-2.29948e-09
-3.32065e-08
-1.04933e-08
-2.61579e-09
1.25241e-08
-1.08366e-08
3.95994e-08
-2.53155e-08
7.05248e-08
-4.60422e-08
1.02958e-07
-7.2144e-08
1.3387e-07
-1.01899e-07
1.60369e-07
-1.33004e-07
1.80581e-07
-1.6296e-07
1.93765e-07
-1.89435e-07
1.99656e-07
-2.10599e-07
1.97983e-07
-2.2544e-07
1.88641e-07
-2.33969e-07
1.71958e-07
-2.3721e-07
1.48589e-07
-2.36966e-07
1.18987e-07
-2.35488e-07
8.2524e-08
-2.35172e-07
3.6077e-08
-2.37563e-07
-2.12414e-08
-2.4147e-07
-6.88716e-08
-2.44757e-07
-1.06418e-07
-2.45092e-07
-1.37705e-07
-2.40259e-07
-1.63797e-07
-2.28558e-07
-1.84324e-07
-2.0923e-07
-1.98296e-07
-1.82745e-07
-2.04683e-07
-1.5085e-07
-2.02695e-07
-1.16338e-07
-1.91803e-07
-8.25406e-08
-1.71932e-07
-5.26123e-08
-1.44099e-07
-2.88403e-08
-1.10877e-07
-1.23029e-08
-7.58644e-08
-2.96076e-09
-4.25485e-08
-1.34541e-08
-3.38928e-09
1.59134e-08
-1.39796e-08
5.01897e-08
-3.24223e-08
8.89675e-08
-5.83097e-08
1.28846e-07
-8.99309e-08
1.65491e-07
-1.2441e-07
1.94849e-07
-1.5827e-07
2.14441e-07
-1.88182e-07
2.23677e-07
-2.11602e-07
2.23075e-07
-2.27176e-07
2.13557e-07
-2.34901e-07
1.96365e-07
-2.35992e-07
1.7305e-07
-2.32532e-07
1.45129e-07
-2.27024e-07
1.13479e-07
-2.22079e-07
7.75793e-08
-2.2034e-07
3.4338e-08
-2.23674e-07
-1.79069e-08
-2.30732e-07
-6.1814e-08
-2.39301e-07
-9.78488e-08
-2.46924e-07
-1.30082e-07
-2.50869e-07
-1.59852e-07
-2.48358e-07
-1.86835e-07
-2.37059e-07
-2.09595e-07
-2.15751e-07
-2.25991e-07
-1.84967e-07
-2.33479e-07
-1.4732e-07
-2.2945e-07
-1.07175e-07
-2.12076e-07
-6.95231e-08
-1.81751e-07
-3.85179e-08
-1.41882e-07
-1.6515e-08
-9.78673e-08
-3.97873e-09
-5.50847e-08
-1.74328e-08
-4.57873e-09
2.04921e-08
-1.87171e-08
6.43281e-08
-4.28448e-08
1.13095e-07
-7.56301e-08
1.61631e-07
-1.13823e-07
2.03684e-07
-1.52801e-07
2.33827e-07
-1.87733e-07
2.49374e-07
-2.14827e-07
2.5077e-07
-2.32091e-07
2.4034e-07
-2.39479e-07
2.20945e-07
-2.38537e-07
1.95423e-07
-2.31783e-07
1.66295e-07
-2.22073e-07
1.35419e-07
-2.12152e-07
1.03557e-07
-2.04523e-07
6.99504e-08
-2.01671e-07
3.14858e-08
-2.05518e-07
-1.40591e-08
-2.14723e-07
-5.2609e-08
-2.27353e-07
-8.52194e-08
-2.41335e-07
-1.161e-07
-2.54091e-07
-1.47096e-07
-2.62393e-07
-1.78533e-07
-2.62572e-07
-2.09416e-07
-2.51202e-07
-2.37361e-07
-2.26288e-07
-2.58393e-07
-1.88659e-07
-2.67079e-07
-1.42696e-07
-2.58039e-07
-9.53972e-08
-2.2905e-07
-5.39659e-08
-1.83313e-07
-2.34273e-08
-1.28406e-07
-5.67893e-09
-7.28331e-08
-2.31117e-08
-6.50079e-09
2.69929e-08
-2.60727e-08
8.39e-08
-5.82771e-08
1.453e-07
-9.97836e-08
2.03138e-07
-1.44755e-07
2.48655e-07
-1.86348e-07
2.7542e-07
-2.18767e-07
2.81793e-07
-2.38817e-07
2.70821e-07
-2.46271e-07
2.47794e-07
-2.43192e-07
2.17867e-07
-2.32848e-07
1.85078e-07
-2.18706e-07
1.52154e-07
-2.03825e-07
1.20539e-07
-1.90657e-07
9.03888e-08
-1.81219e-07
6.05129e-08
-1.7757e-07
2.78367e-08
-1.81493e-07
-1.01362e-08
-1.91737e-07
-4.2365e-08
-2.06807e-07
-7.01497e-08
-2.25326e-07
-9.75809e-08
-2.45472e-07
-1.2695e-07
-2.64483e-07
-1.59522e-07
-2.78325e-07
-1.95574e-07
-2.81806e-07
-2.33881e-07
-2.69631e-07
-2.70568e-07
-2.38711e-07
-2.97999e-07
-1.90893e-07
-3.05857e-07
-1.33853e-07
-2.8609e-07
-7.86053e-08
-2.38561e-07
-3.50517e-08
-1.71959e-07
-8.66239e-09
-9.92224e-08
-3.17741e-08
-9.63467e-09
3.66276e-08
-3.72523e-08
1.11518e-07
-7.99657e-08
1.88013e-07
-1.30617e-07
2.53789e-07
-1.79734e-07
2.97772e-07
-2.18613e-07
3.14299e-07
-2.42037e-07
3.05217e-07
-2.49264e-07
2.78047e-07
-2.43084e-07
2.41614e-07
-2.27955e-07
2.02738e-07
-2.0837e-07
1.65492e-07
-1.87949e-07
1.31733e-07
-1.69253e-07
1.01843e-07
-1.53999e-07
7.51346e-08
-1.43503e-07
5.00172e-08
-1.39275e-07
2.36086e-08
-1.42845e-07
-6.56573e-09
-1.53066e-07
-3.21442e-08
-1.68848e-07
-5.43679e-08
-1.89532e-07
-7.68974e-08
-2.14321e-07
-1.02161e-07
-2.4167e-07
-1.32173e-07
-2.68528e-07
-1.68715e-07
-2.89574e-07
-2.12836e-07
-2.9715e-07
-2.62991e-07
-2.83186e-07
-3.11963e-07
-2.4359e-07
-3.45453e-07
-1.82751e-07
-3.46929e-07
-1.13778e-07
-3.07533e-07
-5.31957e-08
-2.32542e-07
-1.36822e-08
-1.38736e-07
-4.54563e-08
-1.45005e-08
5.11281e-08
-5.27006e-08
1.49718e-07
-1.06136e-07
2.41448e-07
-1.61621e-07
3.09274e-07
-2.06239e-07
3.4239e-07
-2.31778e-07
3.39838e-07
-2.36606e-07
3.10044e-07
-2.24481e-07
2.65923e-07
-2.01649e-07
2.18782e-07
-1.74157e-07
1.75245e-07
-1.46486e-07
1.37821e-07
-1.21384e-07
1.06631e-07
-1.00309e-07
8.07681e-08
-8.40065e-08
5.88318e-08
-7.30418e-08
3.90525e-08
-6.83678e-08
1.89345e-08
-7.1217e-08
-3.71645e-09
-8.05179e-08
-2.28434e-08
-9.54454e-08
-3.94404e-08
-1.15851e-07
-5.64921e-08
-1.4182e-07
-7.61919e-08
-1.73201e-07
-1.00792e-07
-2.08859e-07
-1.33057e-07
-2.45408e-07
-1.76286e-07
-2.75736e-07
-2.32663e-07
-2.88855e-07
-2.98844e-07
-2.7337e-07
-3.60939e-07
-2.24952e-07
-3.95347e-07
-1.52481e-07
-3.80005e-07
-7.6785e-08
-3.08238e-07
-2.11128e-08
-1.94408e-07
-6.65692e-08
-2.15608e-08
7.26889e-08
-7.0924e-08
1.99081e-07
-1.29199e-07
2.99723e-07
-1.7652e-07
3.56595e-07
-2.00181e-07
3.66051e-07
-1.97524e-07
3.37182e-07
-1.73935e-07
2.86456e-07
-1.38289e-07
2.30277e-07
-9.88139e-08
1.79307e-07
-6.10709e-08
1.37502e-07
-2.79313e-08
1.04682e-07
-4.29098e-10
7.91292e-08
2.13444e-08
5.89946e-08
3.76108e-08
4.25654e-08
4.84335e-08
2.82298e-08
5.33356e-08
1.40324e-08
5.14088e-08
-1.78972e-09
4.36278e-08
-1.50623e-08
3.0701e-08
-2.65136e-08
1.25422e-08
-3.83332e-08
-1.14177e-08
-5.2232e-08
-4.20422e-08
-7.01671e-08
-8.00673e-08
-9.50318e-08
-1.25159e-07
-1.31195e-07
-1.73894e-07
-1.83928e-07
-2.17416e-07
-2.55322e-07
-2.40644e-07
-3.37711e-07
-2.28428e-07
-4.07563e-07
-1.76419e-07
-4.32014e-07
-9.99099e-08
-3.84747e-07
-3.0624e-08
-2.63694e-07
-9.71932e-08
-3.12524e-08
1.03941e-07
-8.77259e-08
2.55554e-07
-1.35097e-07
3.47094e-07
-1.5194e-07
3.73439e-07
-1.34587e-07
3.48697e-07
-9.17537e-08
2.94348e-07
-3.65621e-08
2.31264e-07
1.97632e-08
1.73952e-07
7.05569e-08
1.28513e-07
1.13189e-07
9.48704e-08
1.47498e-07
7.03723e-08
1.74343e-07
5.22848e-08
1.94788e-07
3.85488e-08
2.09712e-07
2.76422e-08
2.19607e-07
1.83349e-08
2.24348e-07
9.29075e-09
2.23263e-07
-7.04755e-10
2.17254e-07
-9.05278e-09
2.06942e-07
-1.62022e-08
1.92191e-07
-2.35821e-08
1.72303e-07
-3.23435e-08
1.46037e-07
-4.39012e-08
1.11556e-07
-6.05506e-08
6.66083e-08
-8.62476e-08
9.70837e-09
-1.27028e-07
-5.62135e-08
-1.894e-07
-1.20598e-07
-2.73326e-07
-1.62927e-07
-3.65234e-07
-1.61739e-07
-4.33201e-07
-1.12254e-07
-4.34232e-07
-4.11965e-08
-3.34751e-07
-1.3839e-07
-4.24482e-08
1.4639e-07
-9.2962e-08
3.06068e-07
-1.02285e-07
3.56417e-07
-6.38424e-08
3.34996e-07
6.24623e-09
2.78608e-07
8.76944e-08
2.129e-07
1.64968e-07
1.53991e-07
2.30412e-07
1.08507e-07
2.82447e-07
7.64783e-08
3.22551e-07
5.47665e-08
3.53032e-07
3.98913e-08
3.75996e-07
2.93203e-08
3.93066e-07
2.1479e-08
4.05357e-07
1.53511e-08
4.13502e-07
1.01898e-08
4.17562e-07
5.23129e-09
4.17078e-07
-2.20813e-10
4.12787e-07
-4.76203e-09
4.05215e-07
-8.62977e-09
3.94253e-07
-1.26206e-08
3.79297e-07
-1.73874e-08
3.59165e-07
-2.37688e-08
3.31817e-07
-3.3203e-08
2.93944e-07
-4.83742e-08
2.40923e-07
-7.40065e-08
1.68325e-07
-1.16803e-07
7.75103e-08
-1.82511e-07
-1.73715e-08
-2.70352e-07
-8.66856e-08
-3.63887e-07
-9.81785e-08
-4.22739e-07
-4.92782e-08
-3.83651e-07
-1.87668e-07
-5.04867e-08
1.96876e-07
-6.1319e-08
3.169e-07
2.45856e-09
2.92639e-07
1.069e-07
2.30555e-07
2.18467e-07
1.67042e-07
3.17213e-07
1.14154e-07
3.95494e-07
7.57105e-08
4.53852e-07
5.01488e-08
4.96329e-07
3.40006e-08
5.27243e-07
2.38532e-08
5.49922e-07
1.72117e-08
5.66645e-07
1.25977e-08
5.78913e-07
9.21086e-09
5.87686e-07
6.57848e-09
5.93504e-07
4.37178e-09
5.96475e-07
2.26014e-09
5.96311e-07
-5.68751e-11
5.93534e-07
-1.98547e-09
5.88529e-07
-3.62436e-09
5.81227e-07
-5.31833e-09
5.71193e-07
-7.35313e-09
5.57532e-07
-1.01081e-08
5.38583e-07
-1.42547e-08
5.11311e-07
-2.11021e-08
4.70468e-07
-3.31628e-08
4.08319e-07
-5.46539e-08
3.172e-07
-9.13926e-08
1.96615e-07
-1.49767e-07
6.46228e-08
-2.31895e-07
-3.43788e-08
-3.23738e-07
-4.82763e-08
-3.69754e-07
-2.35944e-07
-2.72961e-08
2.24172e-07
7.13152e-08
2.18289e-07
2.22682e-07
1.41273e-07
3.63571e-07
8.96658e-08
4.75384e-07
5.52286e-08
5.56564e-07
3.29742e-08
6.12457e-07
1.98177e-08
6.50255e-07
1.2351e-08
6.76125e-07
8.13003e-09
6.94324e-07
5.6539e-09
7.07454e-07
4.08185e-09
7.17056e-07
2.99598e-09
7.2407e-07
2.19636e-09
7.29077e-07
1.57162e-09
7.32403e-07
1.04614e-09
7.34122e-07
5.41209e-10
7.34078e-07
-1.34587e-11
7.32569e-07
-4.75847e-10
7.29814e-07
-8.69682e-10
7.25775e-07
-1.27944e-09
7.20198e-07
-1.77579e-09
7.12546e-07
-2.45633e-09
7.01789e-07
-3.49756e-09
6.85939e-07
-5.25171e-09
6.61212e-07
-8.4359e-09
6.20957e-07
-1.43995e-08
5.55115e-07
-2.55499e-08
4.51612e-07
-4.62649e-08
3.03207e-07
-8.34893e-08
1.25743e-07
-1.46274e-07
-7.13273e-09
-2.36878e-07
-2.43077e-07
2.24172e-07
4.42461e-07
5.83734e-07
6.734e-07
7.28628e-07
7.61603e-07
7.8142e-07
7.93771e-07
8.01901e-07
8.07555e-07
8.11637e-07
8.14633e-07
8.16829e-07
8.18401e-07
8.19447e-07
8.19988e-07
8.19975e-07
8.19499e-07
8.18629e-07
8.1735e-07
8.15574e-07
8.13118e-07
8.0962e-07
8.04369e-07
7.95933e-07
7.81533e-07
7.55983e-07
7.09718e-07
6.26229e-07
4.79955e-07
2.43077e-07
)
;

boundaryField
{
    movingWall
    {
        type            calculated;
        value           uniform 0;
    }
    fixedWalls
    {
        type            calculated;
        value           uniform 0;
    }
    frontAndBack
    {
        type            empty;
        value           nonuniform List<scalar> 0();
    }
}


// ************************************************************************* //
