/*--------------------------------*- C++ -*----------------------------------*\
| =========                 |                                                 |
| \\      /  F ield         | OpenFOAM: The Open Source CFD Toolbox           |
|  \\    /   O peration     | Version:  2206                                  |
|   \\  /    A nd           | Website:  www.openfoam.com                      |
|    \\/     M anipulation  |                                                 |
\*---------------------------------------------------------------------------*/
FoamFile
{
    version     2.0;
    format      ascii;
    arch        "LSB;label=64;scalar=64";
    class       volScalarField;
    location    "0.8/water";
    object      d.gas;
}
// * * * * * * * * * * * * * * * * * * * * * * * * * * * * * * * * * * * * * //

dimensions      [0 1 0 0 0 0 0];

internalField   nonuniform List<scalar> 
23300
(
0.00498787492396
0.00498787494278
0.00498787499376
0.00498787507008
0.00498787516958
0.00498787529221
0.00498787543655
0.00498787560292
0.00498787578962
0.004987875997
0.00498787622311
0.00498787646828
0.00498787673031
0.00498787700956
0.00498787730359
0.00498787761277
0.00498787793447
0.00498787826902
0.00498787861364
0.0049878789686
0.004987879331
0.00498787970107
0.00498788007578
0.00498788045535
0.00498788083666
0.00498788121992
0.00498788160196
0.00498788198298
0.00498788235981
0.00498788273264
0.00498788309834
0.00498788345712
0.00498788380589
0.00498788414489
0.00498788447113
0.0049878847849
0.0049878850833
0.00498788536668
0.00498788563227
0.00498788588051
0.00498788610877
0.00498788631757
0.00498788650447
0.00498788667008
0.00498788681213
0.00498788693137
0.00498788702572
0.00498788709604
0.00498788714048
0.00498788716004
0.00498788715308
0.00498788712073
0.0049878870616
0.00498788697697
0.00498788686566
0.0049878867291
0.00498788656636
0.00498788637898
0.00498788616627
0.00498788592991
0.00498788566939
0.00498788538653
0.00498788508101
0.00498788475472
0.00498788440752
0.00498788404133
0.0049878836561
0.00498788325369
0.00498788283461
0.00498788240192
0.00498788195641
0.00498788150011
0.00498788103343
0.00498788055847
0.00498788007576
0.00498787958737
0.00498787909388
0.00498787859732
0.00498787809828
0.00498787759871
0.00498787709919
0.00498787660154
0.00498787610632
0.00498787561522
0.00498787512873
0.00498787464838
0.00498787417459
0.00498787370874
0.00498787325115
0.00498787280303
0.00498787236461
0.00498787193693
0.00498787152013
0.00498787111507
0.0049878707218
0.00498787034103
0.00498786997271
0.00498786961739
0.00498786927496
0.00498786894583
0.0049878686298
0.00498786832716
0.00498786803767
0.00498786776149
0.00498786749833
0.00498786724826
0.00498786701096
0.00498786678641
0.00498786657426
0.00498786637444
0.00498786618657
0.00498786601054
0.00498786584597
0.00498786569268
0.00498786555032
0.00498786541868
0.00498786529741
0.0049878651863
0.00498786508501
0.00498786499331
0.00498786491089
0.00498786483753
0.00498786477294
0.0049878647169
0.00498786466915
0.00498786462949
0.00498786459766
0.00498786457349
0.00498786455675
0.00498786454722
0.00498786454466
0.00498786454877
0.00498786455916
0.00498786457524
0.00498786459614
0.0049878646205
0.00498786464631
0.00498786467077
0.00498786469065
0.00498786470221
0.00498800816778
0.00498800818807
0.00498800824197
0.00498800831996
0.00498800842105
0.00498800854515
0.00498800869121
0.00498800885919
0.00498800904783
0.00498800925704
0.00498800948532
0.00498800973253
0.00498800999698
0.00498801027848
0.00498801057516
0.00498801088678
0.00498801121134
0.00498801154851
0.00498801189616
0.0049880122539
0.00498801261948
0.00498801299244
0.00498801337044
0.00498801375299
0.00498801413766
0.00498801452396
0.00498801490941
0.00498801529349
0.00498801567375
0.00498801604965
0.00498801641877
0.0049880167806
0.00498801713275
0.00498801747477
0.00498801780434
0.00498801812105
0.0049880184227
0.00498801870894
0.00498801897767
0.00498801922866
0.00498801945993
0.00498801967135
0.0049880198611
0.00498802002916
0.00498802017389
0.00498802029539
0.0049880203922
0.00498802046456
0.00498802051123
0.00498802053258
0.00498802052756
0.00498802049674
0.00498802043926
0.00498802035584
0.00498802024586
0.00498802011018
0.00498801994842
0.00498801976159
0.00498801954951
0.00498801931336
0.00498801905315
0.00498801877021
0.00498801846472
0.00498801813814
0.00498801779082
0.00498801742428
0.00498801703902
0.00498801663665
0.00498801621865
0.00498801578712
0.00498801534239
0.0049880148863
0.00498801441973
0.00498801394449
0.00498801346148
0.0049880129725
0.00498801247846
0.00498801198112
0.00498801148139
0.00498801098093
0.00498801048062
0.00498800998205
0.00498800948602
0.00498800899398
0.00498800850669
0.00498800802544
0.0049880075509
0.00498800708421
0.00498800662593
0.00498800617706
0.00498800573804
0.00498800530971
0.0049880048924
0.0049880044868
0.00498800409313
0.00498800371192
0.0049880033433
0.00498800298766
0.00498800264502
0.00498800231567
0.00498800199953
0.00498800169677
0.00498800140724
0.00498800113101
0.00498800086789
0.00498800061784
0.00498800038062
0.00498800015615
0.00498799994413
0.00498799974442
0.00498799955671
0.00498799938081
0.0049879992164
0.00498799906326
0.00498799892106
0.00498799878956
0.00498799866844
0.00498799855745
0.00498799845627
0.00498799836466
0.00498799828232
0.00498799820901
0.00498799814445
0.00498799808841
0.00498799804062
0.00498799800088
0.00498799796895
0.00498799794462
0.00498799792767
0.00498799791788
0.004987997915
0.00498799791873
0.00498799792869
0.00498799794432
0.00498799796477
0.00498799798873
0.00498799801419
0.00498799803823
0.0049879980574
0.00498799806837
0.00498814137933
0.00498814140004
0.00498814145614
0.00498814153619
0.0049881416395
0.00498814176607
0.00498814191497
0.00498814208613
0.00498814227838
0.00498814249158
0.00498814272432
0.00498814297636
0.00498814324614
0.00498814353333
0.0049881438362
0.00498814415435
0.0049881444859
0.00498814483037
0.00498814518573
0.00498814555143
0.00498814592533
0.00498814630681
0.00498814669362
0.00498814708511
0.00498814747896
0.00498814787448
0.00498814826932
0.00498814866277
0.00498814905249
0.00498814943777
0.00498814981629
0.00498815018736
0.00498815054871
0.0049881508997
0.00498815123812
0.00498815156341
0.00498815187345
0.00498815216775
0.00498815244431
0.00498815270274
0.00498815294116
0.0049881531593
0.00498815335544
0.00498815352941
0.00498815367969
0.00498815380624
0.0049881539077
0.0049881539842
0.00498815403459
0.00498815405912
0.00498815405687
0.00498815402827
0.00498815397258
0.00498815389042
0.00498815378128
0.00498815364593
0.00498815348408
0.00498815329668
0.00498815308365
0.0049881528461
0.00498815258415
0.00498815229907
0.00498815199116
0.00498815166182
0.00498815131152
0.00498815094176
0.0049881505533
0.00498815014864
0.0049881497281
0.00498814929232
0.00498814884247
0.00498814838064
0.00498814790798
0.00498814742638
0.00498814693695
0.0049881464415
0.00498814594107
0.00498814543741
0.00498814493154
0.0049881444251
0.00498814391907
0.00498814341498
0.00498814291372
0.00498814241673
0.00498814192478
0.00498814143917
0.00498814096059
0.00498814049016
0.00498814002847
0.00498813957648
0.00498813913466
0.00498813870382
0.0049881382843
0.00498813787676
0.00498813748144
0.00498813709882
0.00498813672905
0.00498813637249
0.00498813602915
0.00498813569929
0.00498813538284
0.00498813507994
0.00498813479044
0.00498813451437
0.00498813425154
0.00498813400191
0.0049881337652
0.00498813354132
0.00498813332998
0.004988133131
0.00498813294407
0.00498813276899
0.00498813260543
0.00498813245315
0.00498813231182
0.0049881321812
0.00498813206094
0.00498813195079
0.00498813185044
0.00498813175963
0.00498813167805
0.00498813160545
0.00498813154156
0.00498813148614
0.00498813143893
0.0049881313997
0.00498813136822
0.00498813134428
0.00498813132765
0.00498813131811
0.00498813131542
0.00498813131929
0.00498813132933
0.00498813134501
0.00498813136552
0.00498813138957
0.00498813141512
0.00498813143911
0.00498813145786
0.00498813146818
0.00498827458137
0.00498827460294
0.00498827466122
0.00498827474385
0.00498827485021
0.00498827498033
0.00498827513335
0.00498827530921
0.00498827550678
0.00498827572592
0.00498827596527
0.00498827622458
0.00498827650231
0.00498827679812
0.00498827711027
0.00498827743836
0.00498827778047
0.00498827813608
0.00498827850316
0.00498827888109
0.00498827926769
0.00498827966229
0.0049882800626
0.00498828046788
0.0049882808758
0.00498828128556
0.00498828169479
0.00498828210269
0.00498828250687
0.00498828290656
0.00498828329936
0.00498828368454
0.00498828405976
0.00498828442431
0.00498828477596
0.00498828511405
0.00498828543644
0.00498828574256
0.00498828603039
0.00498828629946
0.00498828654789
0.00498828677533
0.00498828698006
0.00498828716186
0.00498828731918
0.00498828745195
0.00498828755881
0.00498828763985
0.00498828769391
0.00498828772124
0.00498828772091
0.00498828769334
0.00498828763782
0.00498828755494
0.00498828744423
0.00498828730646
0.00498828714138
0.00498828694995
0.00498828673212
0.00498828648903
0.00498828622085
0.00498828592888
0.00498828561349
0.00498828527612
0.00498828491734
0.00498828453885
0.00498828414181
0.00498828372767
0.00498828329687
0.00498828285126
0.00498828239192
0.00498828192076
0.00498828143891
0.00498828094827
0.00498828044995
0.0049882799458
0.00498827943691
0.00498827892504
0.00498827841126
0.00498827789723
0.00498827738396
0.004988276873
0.00498827636526
0.00498827586217
0.00498827536454
0.00498827487365
0.00498827439021
0.00498827391534
0.00498827344961
0.00498827299399
0.00498827254894
0.00498827211525
0.00498827169327
0.00498827128362
0.00498827088653
0.00498827050249
0.00498827013161
0.00498826977423
0.00498826943036
0.00498826910022
0.00498826878373
0.004988268481
0.00498826819188
0.00498826791638
0.00498826765427
0.0049882674055
0.00498826716979
0.00498826694701
0.00498826673685
0.00498826653914
0.00498826635354
0.00498826617983
0.00498826601767
0.00498826586682
0.00498826572691
0.00498826559771
0.00498826547885
0.00498826537009
0.00498826527108
0.00498826518157
0.00498826510124
0.00498826502984
0.00498826496708
0.00498826491272
0.0049882648665
0.00498826482819
0.00498826479755
0.00498826477437
0.00498826475841
0.00498826474947
0.00498826474729
0.0049882647516
0.00498826476202
0.00498826477805
0.00498826479889
0.00498826482328
0.00498826484915
0.00498826487321
0.00498826489151
0.00498826490101
0.00498840779026
0.0049884078129
0.0049884078736
0.00498840795947
0.00498840806989
0.00498840820492
0.0049884083637
0.00498840854617
0.00498840875121
0.0049884089787
0.00498840922727
0.00498840949669
0.00498840978539
0.00498841009304
0.00498841041788
0.00498841075946
0.00498841111584
0.00498841148646
0.00498841186922
0.00498841226345
0.00498841266689
0.0049884130788
0.00498841349682
0.00498841392013
0.00498841434629
0.00498841477444
0.00498841520211
0.00498841562841
0.00498841605087
0.0049884164686
0.00498841687915
0.00498841728167
0.00498841767376
0.00498841805463
0.00498841842195
0.00498841877501
0.00498841911159
0.00498841943107
0.00498841973135
0.00498842001193
0.00498842027087
0.00498842050779
0.00498842072093
0.00498842091003
0.00498842107354
0.00498842121136
0.00498842132213
0.00498842140592
0.00498842146161
0.00498842148943
0.00498842148847
0.00498842145919
0.00498842140089
0.0049884213142
0.00498842119869
0.00498842105518
0.00498842088345
0.00498842068452
0.0049884204584
0.00498842020628
0.0049884199284
0.00498841962613
0.0049884192999
0.00498841895124
0.00498841858084
0.00498841819075
0.00498841778185
0.00498841735565
0.00498841691301
0.00498841645579
0.00498841598502
0.00498841550261
0.0049884150097
0.00498841450818
0.00498841399921
0.00498841348466
0.00498841296566
0.00498841244401
0.00498841192081
0.00498841139775
0.00498841087587
0.00498841035673
0.00498840984128
0.00498840933095
0.00498840882658
0.00498840832945
0.00498840784027
0.00498840736016
0.0049884068897
0.00498840642985
0.00498840598106
0.00498840554412
0.00498840511934
0.00498840470736
0.00498840430836
0.00498840392283
0.00498840355084
0.00498840319272
0.00498840284846
0.00498840251826
0.004988402202
0.00498840189978
0.00498840161142
0.0049884013369
0.00498840107597
0.00498840082856
0.00498840059436
0.00498840037322
0.00498840016482
0.00498839996895
0.00498839978527
0.00498839961352
0.00498839945336
0.00498839930451
0.00498839916663
0.00498839903942
0.00498839892254
0.00498839881571
0.00498839871859
0.00498839863091
0.00498839855234
0.00498839848262
0.00498839842147
0.00498839836862
0.00498839832382
0.00498839828683
0.00498839825742
0.00498839823536
0.00498839822043
0.00498839821241
0.00498839821106
0.00498839821612
0.00498839822723
0.00498839824389
0.00498839826534
0.00498839829033
0.00498839831669
0.00498839834087
0.00498839835862
0.00498839836737
0.00498854101395
0.00498854103791
0.00498854110139
0.0049885411912
0.00498854130674
0.00498854144805
0.00498854161426
0.00498854180531
0.00498854202007
0.00498854225838
0.00498854251889
0.00498854280134
0.00498854310413
0.0049885434269
0.00498854376785
0.00498854412648
0.00498854450079
0.00498854489015
0.00498854529238
0.00498854570671
0.00498854613082
0.00498854656385
0.00498854700333
0.00498854744834
0.00498854789634
0.00498854834634
0.00498854879577
0.00498854924362
0.0049885496873
0.00498855012583
0.00498855055665
0.00498855097881
0.00498855138981
0.00498855178877
0.00498855217329
0.00498855254256
0.00498855289431
0.00498855322784
0.00498855354102
0.00498855383329
0.00498855410268
0.00498855434877
0.00498855456978
0.00498855476546
0.00498855493422
0.00498855507597
0.00498855518937
0.00498855527451
0.00498855533026
0.00498855535691
0.00498855535357
0.00498855532072
0.00498855525772
0.00498855516526
0.00498855504293
0.00498855489162
0.00498855471116
0.00498855450264
0.00498855426613
0.00498855400289
0.00498855371323
0.00498855339857
0.00498855305944
0.00498855269743
0.00498855231359
0.00498855190988
0.004988551487
0.00498855104672
0.00498855059001
0.00498855011877
0.00498854963409
0.00498854913792
0.00498854863143
0.00498854811657
0.00498854759454
0.00498854706724
0.00498854653586
0.00498854600223
0.00498854546751
0.00498854493341
0.004988544401
0.00498854387189
0.00498854334704
0.0049885428279
0.00498854231534
0.00498854181063
0.0049885413145
0.00498854082807
0.00498854035192
0.00498853988699
0.00498853943374
0.00498853899292
0.00498853856485
0.00498853815013
0.00498853774894
0.00498853736172
0.00498853698853
0.00498853662966
0.00498853628509
0.00498853595496
0.00498853563916
0.00498853533772
0.00498853505045
0.00498853477729
0.00498853451797
0.00498853427238
0.00498853404019
0.00498853382122
0.00498853361512
0.00498853342166
0.00498853324046
0.00498853307126
0.00498853291367
0.00498853276742
0.00498853263213
0.00498853250749
0.00498853239314
0.00498853228879
0.00498853219409
0.00498853210874
0.00498853203242
0.00498853196486
0.00498853190574
0.00498853185483
0.00498853181185
0.00498853177656
0.00498853174872
0.00498853172811
0.00498853171451
0.0049885317077
0.00498853170747
0.00498853171353
0.00498853172557
0.00498853174311
0.0049885317654
0.00498853179117
0.00498853181812
0.00498853184236
0.0049885318595
0.00498853186754
0.00498867425439
0.00498867427991
0.00498867434659
0.00498867444109
0.00498867456281
0.00498867471177
0.00498867488707
0.00498867508865
0.00498867531535
0.00498867556699
0.00498867584216
0.00498867614056
0.00498867646058
0.00498867680176
0.00498867716225
0.00498867754148
0.00498867793736
0.00498867834916
0.0049886787746
0.00498867921281
0.00498867966133
0.00498868011918
0.00498868058377
0.00498868105405
0.00498868152733
0.00498868200251
0.00498868247686
0.00498868294927
0.004988683417
0.00498868387897
0.00498868433248
0.00498868477648
0.00498868520838
0.0049886856272
0.00498868603045
0.00498868641725
0.00498868678526
0.00498868713374
0.00498868746049
0.00498868776491
0.00498868804502
0.00498868830036
0.00498868852915
0.00498868873112
0.00498868890471
0.00498868904982
0.00498868916513
0.00498868925074
0.00498868930557
0.00498868932993
0.00498868932298
0.00498868928523
0.0049886892161
0.00498868911632
0.00498868898553
0.00498868882469
0.00498868863368
0.00498868841366
0.00498868816476
0.00498868788832
0.0049886875847
0.00498868725542
0.00498868690107
0.00498868652338
0.00498868612355
0.00498868570355
0.00498868526409
0.00498868480707
0.00498868433356
0.00498868384553
0.00498868334414
0.00498868283141
0.00498868230857
0.00498868177763
0.00498868123985
0.0049886806972
0.00498868015092
0.0049886796029
0.00498867905432
0.00498867850696
0.00498867796193
0.00498867742086
0.00498867688475
0.00498867635508
0.00498867583271
0.00498867531896
0.00498867481455
0.00498867432059
0.00498867383768
0.00498867336674
0.00498867290821
0.00498867246284
0.00498867203091
0.00498867161301
0.00498867120928
0.00498867082014
0.00498867044561
0.00498867008596
0.00498866974111
0.00498866941119
0.00498866909602
0.00498866879563
0.00498866850976
0.00498866823833
0.00498866798104
0.00498866773773
0.00498866750804
0.00498866729175
0.00498866708848
0.00498866689797
0.00498866671982
0.00498866655373
0.0049886663993
0.00498866625622
0.00498866612408
0.00498866600257
0.0049886658913
0.00498866578996
0.00498866569818
0.00498866561567
0.00498866554207
0.00498866547711
0.00498866542048
0.0049886653719
0.00498866533112
0.00498866529788
0.00498866527195
0.0049886652531
0.00498866524112
0.0049886652358
0.00498866523692
0.00498866524423
0.00498866525741
0.00498866527602
0.00498866529932
0.004988665326
0.00498866535358
0.00498866537783
0.00498866539429
0.0049886654017
0.00498880750968
0.00498880753704
0.00498880760739
0.00498880770737
0.00498880783637
0.00498880799439
0.0049888081805
0.00498880839462
0.00498880863554
0.00498880890304
0.00498880919566
0.00498880951305
0.0049888098535
0.0049888102165
0.0049888106001
0.00498881100362
0.00498881142487
0.00498881186299
0.00498881231556
0.00498881278159
0.00498881325846
0.00498881374504
0.0049888142386
0.00498881473792
0.00498881524016
0.00498881574406
0.00498881624675
0.00498881674695
0.00498881724181
0.0049888177301
0.004988818209
0.00498881867734
0.00498881913242
0.00498881957317
0.00498881999701
0.00498882040298
0.00498882078869
0.00498882115332
0.00498882149464
0.00498882181203
0.00498882210345
0.00498882236846
0.00498882260525
0.00498882281355
0.00498882299182
0.00498882313997
0.00498882325669
0.00498882334213
0.00498882339522
0.00498882341632
0.00498882340462
0.00498882336069
0.00498882328399
0.0049888231753
0.00498882303433
0.00498882286209
0.00498882265854
0.00498882242488
0.00498882216133
0.00498882186929
0.0049888215492
0.00498882120266
0.00498882083032
0.00498882043428
0.00498882001568
0.00498881957637
0.00498881911735
0.00498881864059
0.00498881814726
0.0049888176394
0.00498881711827
0.00498881658596
0.00498881604379
0.00498881549385
0.00498881493746
0.00498881437667
0.00498881381278
0.00498881324774
0.00498881268281
0.00498881211981
0.00498881155989
0.00498881100473
0.00498881045537
0.0049888099133
0.00498880937943
0.00498880885506
0.00498880834094
0.00498880783818
0.00498880734737
0.00498880686942
0.00498880640475
0.0049888059541
0.00498880551772
0.00498880509616
0.00498880468954
0.00498880429823
0.00498880392223
0.00498880356175
0.00498880321667
0.00498880288708
0.00498880257276
0.00498880227368
0.00498880198955
0.00498880172024
0.00498880146541
0.00498880122484
0.00498880099815
0.00498880078507
0.00498880058519
0.0049888003982
0.00498880022367
0.00498880006128
0.00498879991058
0.00498879977124
0.00498879964283
0.00498879952502
0.00498879941738
0.00498879931958
0.00498879923125
0.00498879915207
0.00498879908167
0.00498879901976
0.00498879896603
0.0049887989202
0.00498879888199
0.00498879885116
0.00498879882746
0.00498879881068
0.00498879880059
0.004988798797
0.00498879879971
0.00498879880847
0.00498879882299
0.00498879884283
0.00498879886728
0.00498879889496
0.00498879892316
0.00498879894734
0.00498879896312
0.00498879896998
0.00498894077541
0.00498894080488
0.00498894087946
0.00498894098581
0.00498894112328
0.00498894129187
0.00498894149064
0.00498894171943
0.00498894197701
0.00498894226309
0.00498894257616
0.00498894291578
0.00498894328014
0.00498894366864
0.00498894407921
0.00498894451103
0.00498894496178
0.00498894543045
0.00498894591447
0.00498894641265
0.00498894692222
0.00498894744187
0.00498894796867
0.00498894850123
0.00498894903653
0.00498894957314
0.004988950108
0.00498895063969
0.00498895116518
0.0049889516831
0.00498895219049
0.00498895268606
0.004988953167
0.00498895363211
0.00498895407875
0.00498895450588
0.00498895491102
0.00498895529332
0.0049889556505
0.0049889559819
0.00498895628547
0.00498895656074
0.00498895680591
0.00498895702072
0.00498895720362
0.00498895735456
0.00498895747225
0.00498895755686
0.00498895760736
0.00498895762416
0.00498895760649
0.00498895755497
0.00498895746912
0.00498895734977
0.0049889571967
0.00498895701097
0.00498895679263
0.00498895654296
0.00498895626223
0.00498895595194
0.00498895561263
0.00498895524596
0.00498895485268
0.00498895443512
0.00498895399452
0.00498895353276
0.00498895305098
0.00498895255124
0.00498895203482
0.00498895150386
0.00498895095972
0.00498895040459
0.00498894983988
0.00498894926777
0.00498894868969
0.00498894810774
0.00498894752334
0.00498894693848
0.00498894635451
0.0049889457733
0.00498894519606
0.00498894462453
0.00498894405976
0.00498894350331
0.00498894295609
0.00498894241943
0.00498894189408
0.00498894138115
0.00498894088123
0.00498894039521
0.0049889399235
0.0049889394668
0.00498893902534
0.00498893859963
0.00498893818975
0.00498893779602
0.0049889374184
0.00498893705706
0.00498893671181
0.00498893638269
0.00498893606944
0.00498893577197
0.00498893548993
0.00498893522315
0.00498893497122
0.0049889347339
0.00498893451073
0.00498893430142
0.00498893410549
0.00498893392262
0.00498893375231
0.00498893359421
0.00498893344784
0.00498893331284
0.00498893318875
0.00498893307519
0.00498893297174
0.00498893287804
0.00498893279368
0.00498893271832
0.0049889326516
0.0049889325932
0.0049889325428
0.00498893250011
0.00498893246485
0.00498893243677
0.00498893241562
0.00498893240118
0.00498893239325
0.00498893239164
0.00498893239614
0.00498893240653
0.00498893242255
0.00498893244376
0.00498893246947
0.00498893249821
0.004988932527
0.00498893255104
0.00498893256614
0.00498893257253
0.00498907404534
0.00498907407726
0.00498907415669
0.00498907427039
0.00498907441768
0.00498907459854
0.00498907481198
0.00498907505782
0.00498907533477
0.00498907564246
0.0049890759793
0.00498907634474
0.00498907673689
0.00498907715499
0.00498907759684
0.00498907806147
0.00498907854638
0.00498907905037
0.00498907957068
0.00498908010593
0.00498908065312
0.00498908121075
0.00498908177567
0.00498908234627
0.00498908291932
0.00498908349319
0.00498908406463
0.00498908463202
0.00498908519216
0.00498908574351
0.00498908628297
0.0049890868091
0.00498908731897
0.00498908781128
0.00498908828327
0.00498908873384
0.00498908916044
0.00498908956215
0.00498908993668
0.0049890902833
0.00498909059997
0.00498909088621
0.00498909114021
0.00498909136173
0.00498909154922
0.00498909170267
0.00498909182081
0.00498909190386
0.00498909195083
0.00498909196217
0.00498909193716
0.00498909187649
0.00498909177972
0.00498909164777
0.00498909148047
0.00498909127898
0.00498909104339
0.00498909077508
0.00498909047442
0.00498909014299
0.00498908978141
0.00498908939147
0.00498908897403
0.00498908853157
0.00498908806557
0.00498908757793
0.00498908706989
0.00498908654365
0.00498908600059
0.00498908544298
0.00498908487229
0.00498908429083
0.00498908370011
0.00498908310243
0.0049890824993
0.00498908189295
0.00498908128487
0.00498908067716
0.00498908007123
0.00498907946903
0.00498907887185
0.00498907828145
0.00498907769898
0.00498907712599
0.00498907656343
0.00498907601266
0.00498907547444
0.00498907494987
0.00498907443954
0.00498907394432
0.0049890734646
0.00498907300103
0.00498907255383
0.00498907212345
0.00498907170992
0.00498907131353
0.00498907093415
0.0049890705719
0.00498907022656
0.00498906989808
0.00498906958614
0.00498906929059
0.00498906901102
0.0049890687472
0.00498906849866
0.0049890682651
0.00498906804601
0.00498906784104
0.00498906764967
0.00498906747151
0.00498906730604
0.00498906715285
0.00498906701144
0.00498906688138
0.00498906676221
0.0049890666535
0.0049890665548
0.00498906646574
0.00498906638587
0.00498906631485
0.00498906625228
0.00498906619784
0.00498906615119
0.00498906611205
0.0049890660801
0.0049890660551
0.00498906603681
0.004989066025
0.00498906601948
0.00498906602005
0.00498906602653
0.00498906603872
0.00498906605637
0.00498906607907
0.0049890661061
0.00498906613593
0.00498906616527
0.0049890661891
0.00498906620356
0.00498906620953
0.00498920731172
0.00498920734646
0.00498920743148
0.00498920755365
0.00498920771227
0.00498920790731
0.00498920813774
0.00498920840332
0.0049892087027
0.00498920903542
0.0049892093998
0.00498920979518
0.00498921021951
0.0049892106719
0.00498921114996
0.00498921165254
0.00498921217692
0.00498921272171
0.00498921328388
0.00498921386183
0.00498921445232
0.00498921505357
0.00498921566221
0.00498921627635
0.00498921689255
0.00498921750891
0.00498921812198
0.0049892187299
0.0049892193293
0.00498921991844
0.00498922049404
0.00498922105453
0.00498922159682
0.00498922211951
0.00498922261974
0.00498922309632
0.00498922354663
0.00498922396972
0.00498922436321
0.00498922472641
0.00498922505721
0.00498922535516
0.00498922561845
0.00498922584686
0.00498922603886
0.00498922619447
0.00498922631248
0.00498922639313
0.0049892264355
0.00498922644007
0.00498922640621
0.00498922633465
0.00498922622504
0.00498922607835
0.00498922589451
0.00498922567474
0.00498922541924
0.00498922512945
0.00498922480586
0.00498922445014
0.00498922406302
0.00498922364638
0.00498922320124
0.00498922273028
0.00498922223521
0.00498922171794
0.00498922117985
0.00498922062328
0.00498922004973
0.00498921946161
0.00498921886053
0.0049892182489
0.0049892176284
0.00498921700142
0.00498921636961
0.00498921573531
0.00498921510011
0.00498921446623
0.00498921383516
0.00498921320894
0.00498921258893
0.00498921197697
0.00498921137425
0.00498921078237
0.00498921020232
0.00498920963547
0.00498920908259
0.0049892085448
0.00498920802264
0.004989207517
0.00498920702822
0.00498920655692
0.00498920610327
0.00498920566766
0.00498920525009
0.00498920485075
0.00498920446948
0.00498920410631
0.00498920376095
0.00498920343328
0.00498920312292
0.00498920282963
0.00498920255295
0.00498920229256
0.00498920204792
0.00498920181867
0.00498920160425
0.00498920140422
0.00498920121803
0.00498920104522
0.00498920088523
0.00498920073759
0.00498920060176
0.00498920047728
0.00498920036363
0.00498920026037
0.00498920016701
0.00498920008313
0.00498920000829
0.00498919994211
0.00498919988417
0.00498919983415
0.00498919979167
0.00498919975645
0.00498919972817
0.00498919970659
0.00498919969145
0.00498919968253
0.00498919967964
0.0049891996826
0.00498919969124
0.00498919970537
0.00498919972475
0.00498919974902
0.00498919977744
0.00498919980834
0.00498919983819
0.00498919986175
0.00498919987559
0.00498919988121
0.00498934056535
0.00498934060334
0.00498934069479
0.00498934082672
0.00498934099842
0.00498934120983
0.00498934145989
0.00498934174829
0.0049893420736
0.00498934243529
0.00498934283155
0.00498934326157
0.00498934372316
0.00498934421523
0.00498934473519
0.00498934528167
0.00498934585169
0.00498934644358
0.00498934705407
0.00498934768125
0.00498934832157
0.00498934897299
0.0049893496318
0.00498935029585
0.00498935096139
0.00498935162626
0.00498935228674
0.00498935294074
0.00498935358464
0.0049893542165
0.00498935483286
0.00498935543198
0.00498935601062
0.00498935656727
0.00498935709894
0.00498935760437
0.00498935808087
0.00498935852743
0.00498935894167
0.00498935932285
0.00498935966888
0.0049893599793
0.00498936025233
0.00498936048777
0.00498936068414
0.00498936084149
0.00498936095866
0.00498936103596
0.00498936107251
0.00498936106888
0.00498936102448
0.00498936094014
0.00498936081556
0.00498936065182
0.00498936044891
0.00498936020815
0.00498935992983
0.00498935961549
0.00498935926572
0.00498935888228
0.00498935846603
0.00498935801897
0.00498935754241
0.00498935703915
0.00498935651095
0.00498935595995
0.00498935538768
0.00498935479659
0.00498935418835
0.00498935356551
0.00498935292982
0.00498935228386
0.00498935162943
0.00498935096907
0.00498935030459
0.00498934963844
0.00498934897235
0.00498934830864
0.00498934764893
0.00498934699535
0.00498934634936
0.00498934571286
0.00498934508711
0.00498934447376
0.00498934387385
0.00498934328875
0.00498934271926
0.00498934216649
0.00498934163098
0.00498934111358
0.0049893406146
0.00498934013462
0.00498933967375
0.00498933923233
0.00498933881027
0.00498933840771
0.00498933802439
0.00498933766029
0.00498933731501
0.00498933698836
0.00498933667987
0.00498933638922
0.00498933611585
0.00498933585938
0.0049893356192
0.00498933539485
0.00498933518571
0.00498933499127
0.00498933481091
0.00498933464412
0.00498933449027
0.00498933434884
0.00498933421925
0.00498933410099
0.00498933399349
0.00498933389628
0.00498933380884
0.00498933373072
0.00498933366144
0.0049893336006
0.00498933354777
0.00498933350261
0.00498933346472
0.0049893334338
0.00498933340955
0.00498933339169
0.00498933337998
0.0049893333742
0.00498933337415
0.00498933337968
0.00498933339061
0.00498933340679
0.00498933342801
0.00498933345391
0.00498933348375
0.00498933351572
0.00498933354599
0.00498933356923
0.00498933358248
0.00498933358779
0.00498947379547
0.00498947383721
0.00498947393606
0.00498947407923
0.00498947426601
0.00498947449632
0.00498947476903
0.0049894750838
0.00498947543911
0.00498947583431
0.00498947626745
0.00498947673759
0.00498947724232
0.00498947778034
0.00498947834882
0.0049894789461
0.00498947956891
0.00498948021527
0.00498948088156
0.00498948156554
0.0049894822633
0.00498948297244
0.0049894836889
0.00498948441019
0.00498948513221
0.0049894858525
0.00498948656701
0.0049894872734
0.00498948796776
0.00498948864794
0.00498948931026
0.0049894899528
0.00498949057217
0.00498949116671
0.00498949173334
0.00498949227072
0.0049894927761
0.00498949324842
0.00498949368528
0.00498949408593
0.00498949444831
0.00498949477196