/*--------------------------------*- C++ -*----------------------------------*\
| =========                 |                                                 |
| \\      /  F ield         | OpenFOAM: The Open Source CFD Toolbox           |
|  \\    /   O peration     | Version:  2206                                  |
|   \\  /    A nd           | Website:  www.openfoam.com                      |
|    \\/     M anipulation  |                                                 |
\*---------------------------------------------------------------------------*/
FoamFile
{
    version     2.0;
    format      ascii;
    arch        "LSB;label=64;scalar=64";
    class       volScalarField;
    location    "0.8/water";
    object      p;
}
// * * * * * * * * * * * * * * * * * * * * * * * * * * * * * * * * * * * * * //

dimensions      [1 -1 -2 0 0 0 0];

internalField   nonuniform List<scalar> 
23300
(
100731.105676
100731.104534
100731.10145
100731.096828
100731.090808
100731.08338
100731.074647
100731.064566
100731.053265
100731.040692
100731.026998
100731.012126
100730.996245
100730.979292
100730.961457
100730.94267
100730.923137
100730.902786
100730.88184
100730.860223
100730.838173
100730.81561
100730.792787
100730.769619
100730.74637
100730.72295
100730.699632
100730.676322
100730.653298
100730.63046
100730.608091
100730.586085
100730.564726
100730.5439
100730.523893
100730.504583
100730.486252
100730.468774
100730.452423
100730.437067
100730.422972
100730.410002
100730.398411
100730.388056
100730.379182
100730.371639
100730.365657
100730.361082
100730.358127
100730.356634
100730.3568
100730.358459
100730.361793
100730.36663
100730.373134
100730.381129
100730.390759
100730.401845
100730.414514
100730.428582
100730.444158
100730.461057
100730.479373
100730.498916
100730.519771
100730.541747
100730.564918
100730.589102
100730.614338
100730.640371
100730.667221
100730.694699
100730.722845
100730.751466
100730.780596
100730.810044
100730.839839
100730.869795
100730.899938
100730.930089
100730.960272
100730.990318
100731.020251
100731.049912
100731.079327
100731.108346
100731.137001
100731.165152
100731.192834
100731.21992
100731.246449
100731.272306
100731.297532
100731.322027
100731.345835
100731.368867
100731.391169
100731.412666
100731.433406
100731.453322
100731.472468
100731.490785
100731.508328
100731.525048
100731.541
100731.556143
100731.570531
100731.584133
100731.597
100731.609107
100731.620505
100731.631173
100731.641163
100731.650455
100731.6591
100731.667082
100731.674449
100731.681189
100731.687345
100731.69291
100731.697922
100731.702375
100731.706305
100731.709709
100731.712617
100731.715028
100731.716968
100731.718439
100731.719464
100731.720046
100731.720209
100731.719962
100731.719338
100731.718365
100731.717101
100731.715625
100731.714061
100731.712579
100731.711373
100731.71067
100723.033636
100723.032406
100723.029145
100723.024423
100723.018307
100723.010793
100723.001954
100722.991779
100722.980358
100722.96768
100722.953852
100722.938861
100722.922831
100722.905748
100722.887748
100722.868819
100722.849108
100722.828604
100722.807469
100722.78569
100722.763441
100722.74071
100722.717679
100722.694337
100722.670874
100722.647278
100722.623742
100722.600254
100722.57701
100722.553994
100722.531405
100722.509221
100722.487642
100722.466642
100722.446418
100722.426938
100722.408395
100722.390751
100722.374193
100722.358679
100722.344386
100722.331264
100722.319484
100722.308989
100722.299937
100722.292264
100722.286117
100722.281425
100722.278321
100722.276726
100722.276758
100722.278333
100722.281552
100722.286322
100722.292732
100722.300679
100722.310237
100722.321296
100722.333913
100722.347973
100722.363519
100722.380428
100722.39873
100722.418296
100722.439146
100722.461147
100722.48431
100722.508496
100722.533655
100722.559623
100722.586415
100722.613884
100722.642012
100722.670655
100722.699792
100722.72928
100722.759098
100722.789105
100722.81928
100722.849488
100722.879709
100722.909815
100722.939788
100722.969508
100722.998963
100723.02804
100723.056731
100723.084937
100723.112652
100723.139787
100723.166344
100723.192243
100723.217493
100723.242024
100723.265848
100723.288909
100723.311223
100723.332741
100723.353487
100723.37342
100723.392566
100723.410894
100723.428433
100723.445158
100723.461103
100723.476247
100723.490625
100723.504224
100723.517079
100723.529181
100723.540565
100723.551228
100723.561203
100723.570489
100723.57912
100723.587096
100723.594451
100723.601186
100723.607332
100723.612892
100723.617897
100723.622349
100723.626275
100723.629681
100723.632589
100723.635005
100723.636951
100723.638433
100723.639469
100723.640068
100723.640249
100723.640026
100723.639427
100723.638482
100723.637245
100723.635794
100723.634251
100723.632794
100723.631632
100723.630965
100714.964595
100714.96334
100714.959947
100714.955102
100714.948853
100714.941191
100714.932181
100714.921816
100714.910177
100714.89726
100714.883162
100714.86788
100714.851527
100714.834101
100714.815725
100714.7964
100714.776264
100714.755319
100714.733713
100714.71145
100714.688692
100714.665443
100714.641872
100714.617986
100714.59396
100714.5698
100714.545688
100714.521626
100714.4978
100714.47421
100714.451041
100714.428291
100714.406145
100714.384594
100714.363822
100714.343815
100714.32475
100714.306611
100714.289567
100714.273594
100714.258855
100714.245319
100714.23314
100714.222279
100714.212878
100714.204893
100714.198452
100714.193503
100714.190163
100714.188368
100714.188223
100714.189657
100714.192758
100714.197447
100714.203797
100714.21172
100714.221275
100714.232364
100714.245032
100714.259172
100714.274817
100714.291851
100714.310294
100714.330024
100714.351049
100714.373243
100714.396593
100714.420916
100714.446224
100714.472446
100714.499543
100714.527358
100714.555851
100714.584876
100714.614398
100714.644277
100714.674477
100714.704866
100714.735408
100714.765977
100714.796541
100714.82698
100714.857265
100714.887285
100714.917017
100714.946357
100714.97529
100715.00372
100715.031639
100715.058962
100715.085685
100715.111736
100715.137116
100715.161763
100715.185685
100715.20883
100715.231211
100715.252785
100715.27357
100715.293533
100715.312695
100715.331031
100715.348566
100715.365281
100715.381205
100715.396324
100715.410669
100715.424232
100715.437044
100715.449101
100715.460437
100715.47105
100715.480972
100715.490205
100715.498782
100715.506705
100715.514006
100715.52069
100715.526785
100715.532298
100715.537255
100715.541664
100715.545549
100715.548917
100715.55179
100715.554176
100715.556094
100715.557552
100715.558568
100715.559152
100715.559321
100715.559091
100715.558486
100715.557538
100715.556298
100715.554841
100715.553293
100715.551839
100715.550702
100715.550075
100706.897174
100706.895868
100706.892345
100706.887345
100706.880914
100706.873039
100706.863782
100706.853135
100706.841175
100706.827899
100706.813402
100706.797681
100706.780847
100706.762898
100706.743959
100706.724031
100706.703253
100706.681628
100706.659308
100706.636301
100706.612766
100706.588716
100706.56432
100706.53959
100706.514703
100706.48967
100706.464675
100706.439727
100706.415012
100706.390536
100706.366488
100706.34287
100706.319868
100706.297481
100706.275892
100706.255094
100706.235266
100706.216395
100706.198652
100706.182018
100706.166657
100706.152542
100706.139827
100706.128477
100706.118634
100706.110258
100706.103476
100706.098239
100706.094662
100706.092686
100706.092412
100706.093772
100706.096852
100706.101574
100706.108009
100706.116069
100706.12581
100706.137136
100706.150086
100706.164555
100706.180569
100706.198015
100706.216904
100706.237115
100706.258648
100706.281366
100706.305231
100706.330123
100706.356047
100706.382861
100706.410529
100706.438905
100706.467951
100706.497521
100706.527578
100706.55798
100706.58869
100706.619573
100706.650592
100706.681618
100706.712617
100706.74347
100706.774145
100706.804532
100706.834606
100706.864264
100706.893489
100706.922187
100706.950348
100706.977889
100707.004806
100707.031027
100707.056555
100707.081328
100707.105355
100707.128585
100707.151031
100707.172653
100707.19347
100707.213448
100707.232612
100707.250935
100707.268446
100707.285126
100707.301005
100707.31607
100707.330354
100707.343849
100707.356588
100707.368568
100707.379823
100707.390352
100707.400188
100707.409335
100707.417825
100707.425661
100707.432877
100707.439476
100707.44549
100707.450923
100707.455805
100707.460141
100707.463957
100707.46726
100707.470073
100707.472403
100707.47427
100707.475682
100707.476657
100707.477205
100707.477343
100707.477087
100707.476459
100707.47549
100707.47423
100707.472753
100707.471186
100707.469727
100707.468618
100707.468039
100698.830383
100698.829014
100698.825345
100698.820152
100698.813477
100698.805308
100698.795705
100698.78466
100698.77225
100698.758471
100698.743416
100698.727085
100698.709585
100698.690918
100698.671209
100698.650461
100698.628814
100698.606276
100698.583
100698.558998
100698.534435
100698.509326
100698.483846
100698.458012
100698.432006
100698.405845
100698.379718
100698.353639
100698.327799
100698.302213
100698.27707
100698.252382
100698.228338
100698.204942
100698.182382
100698.160656
100698.139946
100698.120244
100698.101725
100698.084373
100698.068353
100698.053643
100698.040397
100698.028585
100698.018347
100698.009645
100698.002608
100697.997185
100697.993493
100697.99147
100697.991218
100697.992667
100697.9959
100698.000839
100698.007551
100698.015947
100698.026079
100698.037848
100698.05129
100698.066296
100698.082889
100698.100951
100698.120489
100698.141377
100698.163606
100698.18702
100698.211597
100698.237215
100698.263851
100698.291364
100698.31972
100698.348773
100698.378484
100698.40871
100698.439408
100698.470437
100698.501756
100698.533228
100698.564815
100698.596385
100698.627904
100698.659249
100698.69039
100698.721213
100698.751693
100698.781728
100698.811298
100698.840311
100698.868757
100698.896552
100698.923694
100698.950111
100698.975806
100699.00072
100699.024861
100699.04818
100699.070692
100699.092358
100699.113197
100699.133178
100699.152326
100699.170618
100699.188082
100699.204702
100699.220508
100699.23549
100699.249682
100699.263076
100699.275708
100699.287576
100699.298714
100699.309123
100699.318838
100699.327862
100699.336229
100699.343945
100699.35104
100699.357522
100699.36342
100699.368743
100699.373517
100699.377751
100699.38147
100699.384681
100699.387408
100699.389658
100699.391451
100699.392795
100699.393708
100699.3942
100699.394288
100699.393986
100699.393317
100699.39231
100699.391012
100699.389499
100699.387902
100699.386436
100699.385359
100699.384827
100690.763742
100690.762294
100690.758459
100690.75303
100690.746048
100690.737502
100690.727453
100690.715891
100690.702896
100690.688463
100690.672687
100690.655567
100690.637213
100690.617629
100690.596941
100690.575157
100690.552419
100690.528739
100690.504276
100690.479046
100690.45322
100690.42682
100690.400026
100690.372861
100690.345516
100690.318013
100690.290548
100690.263142
100690.235995
100690.209124
100690.18273
100690.156827
100690.131611
100690.107093
100690.083465
100690.06073
100690.039074
100690.018492
100689.999164
100689.981076
100689.964396
100689.949104
100689.935355
100689.923118
100689.912537
100689.903572
100689.896352
100689.890825
100689.887106
100689.885133
100689.885006
100689.886651
100689.89015
100689.895422
100689.902531
100689.911384
100689.92203
100689.934366
100689.948425
100689.964093
100689.981389
100690.00019
100690.0205
100690.042188
100690.065223
100690.089454
100690.114872
100690.141335
100690.168818
100690.197174
100690.226367
100690.256249
100690.286778
100690.317808
100690.349294
100690.381091
100690.413157
100690.445352
100690.477634
100690.50987
100690.542024
100690.573971
100690.605679
100690.637034
100690.668008
100690.6985
100690.728489
100690.757884
100690.786673
100690.814775
100690.842186
100690.868836
100690.89473
100690.919808
100690.944081
100690.967501
100690.990085
100691.011795
100691.032652
100691.052627
100691.071748
100691.089991
100691.107388
100691.123925
100691.139633
100691.154504
100691.168573
100691.181836
100691.194328
100691.20605
100691.217036
100691.227291
100691.236849
100691.245716
100691.253925
100691.261485
100691.268426
100691.274758
100691.280509
100691.28569
100691.290328
100691.294432
100691.298026
100691.301121
100691.303737
100691.305884
100691.307581
100691.308838
100691.30967
100691.310089
100691.31011
100691.309746
100691.309021
100691.307961
100691.306612
100691.305052
100691.303419
100691.301949
100691.30091
100691.30042
100682.697135
100682.695593
100682.691567
100682.685856
100682.678504
100682.669499
100682.658902
100682.646706
100682.632991
100682.617755
100682.601093
100682.583007
100682.563611
100682.54291
100682.521035
100682.497999
100682.473948
100682.448901
100682.423021
100682.396334
100682.369016
100682.341096
100682.312763
100682.284049
100682.255151
100682.226101
100682.197101
100682.168182
100682.139551
100682.111233
100682.083434
100682.056177
100682.029664
100682.00391
100681.979114
100681.955284
100681.932609
100681.911089
100681.890905
100681.872047
100681.854686
100681.8388
100681.824547
100681.811898
100681.800994
100681.791796
100681.784431
100681.778848
100681.775158
100681.773299
100681.773365
100681.775284
100681.779133
100681.784827
100681.792429
100681.801841
100681.813108
100681.826125
100681.840918
100681.857373
100681.8755
100681.895175
100681.916395
100681.939022
100681.963017
100681.988226
100682.014639
100682.042109
100682.070603
100682.099969
100682.130169
100682.161048
100682.192563
100682.224562
100682.256997
100682.289721
100682.322686
100682.35575
100682.388868
100682.421905
100682.454822
100682.487491
100682.519879
100682.551869
100682.583436
100682.614474
100682.644964
100682.674813
100682.70401
100682.732475
100682.760204
100682.78713
100682.813256
100682.838526
100682.862952
100682.886488
100682.909152
100682.930909
100682.951782
100682.971745
100682.990825
100683.009005
100683.026317
100683.042748
100683.058333
100683.073065
100683.086983
100683.100083
100683.112403
100683.123945
100683.134746
100683.144812
100683.154179
100683.162854
100683.170872
100683.178241
100683.184996
100683.191145
100683.196719
100683.201728
100683.206201
100683.210147
100683.213591
100683.216544
100683.219027
100683.22105
100683.222631
100683.223781
100683.224516
100683.224844
100683.224783
100683.224344
100683.22355
100683.222425
100683.221015
100683.219399
100683.217728
100683.216258
100683.215259
100683.214807
100674.630678
100674.629026
100674.62478
100674.618741
100674.610951
100674.601402
100674.590155
100674.577205
100674.562633
100674.546439
100674.528723
100674.509489
100674.488855
100674.466831
100674.443553
100674.41904
100674.393446
100674.366795
100674.33926
100674.310874
100674.281823
100674.252144
100674.222037
100674.191541
100674.160864
100674.130047
100674.099302
100674.068668
100674.038361
100674.008415
100673.979043
100673.950275
100673.92232
100673.8952
100673.869118
100673.844086
100673.8203
100673.797762
100673.776655
100673.756973
100673.738886
100673.722376
100673.707601
100673.694531
100673.683308
100673.673891
100673.666406
100673.660801
100673.657184
100673.655493
100673.655818
100673.658084
100673.662366
100673.668575
100673.67677
100673.68685
100673.698858
100673.712681
100673.728345
100673.745727
100673.764837
100673.785543
100673.80784
100673.831566
100673.856686
100673.883055
100673.910643
100673.9393
100673.968986
100673.999546
100674.030935
100674.062994
100674.095675
100674.12882
100674.162379
100674.196197
100674.230225
100674.264316
100674.298422
100674.332404
100674.36622
100674.39974
100674.432929
100674.465669
100674.497932
100674.529611
100674.560688
100674.591069
100674.620744
100674.649633
100674.677733
100674.704977
100674.731373
100674.756864
100674.781465
100674.805131
100674.827884
100674.849691
100674.870577
100674.890519
100674.909549
100674.927649
100674.944854
100674.961157
100674.976593
100674.991159
100675.004894
100675.017799
100675.029914
100675.041242
100675.051824
100675.061666
100675.070806
100675.079254
100675.087046
100675.094192
100675.100727
100675.10666
100675.112026
100675.116833
100675.121112
100675.124873
100675.128141
100675.130928
100675.133255
100675.135132
100675.136578
100675.137603
100675.138223
100675.138446
100675.138289
100675.137763
100675.136887
100675.135687
100675.134208
100675.132531
100675.130822
100675.129357
100675.128398
100675.127979
100666.564639
100666.562861
100666.558361
100666.551941
100666.543643
100666.533459
100666.521452
100666.507619
100666.492043
100666.474728
100666.455777
100666.435199
100666.413117
100666.389548
100666.364634
100666.338401
100666.311011
100666.2825
100666.253048
100666.222698
100666.191648
100666.159946
100666.127801
100666.095265
100666.062556
100666.029727
100665.996999
100665.964423
100665.932223
100665.900442
100665.869304
100665.838843
100665.809279
100665.780638
100665.753129
100665.72677
100665.70176
100665.678104
100665.655991
100665.635414
100665.616546
100665.599369
100665.584043
100665.570535
100665.55899
100665.549363
100665.541781
100665.536188
100665.532692
100665.531226
100665.53188
100665.534574
100665.53938
100665.546207
100665.555108
100665.56598
100665.57886
100665.593631
100665.610315
100665.628783
100665.64904
100665.670949
100665.694499
100665.719515
100665.745955
100665.773671
100665.802628
100665.832667
100665.863743
100665.895695
100665.92847
100665.961905
100665.995945
100666.030427
100666.065295
100666.10039
100666.135658
100666.170945
100666.206202
100666.241284
100666.276147
100666.310657
100666.344777
100666.378386
100666.411456
100666.443879
100666.475636
100666.506632
100666.536858
100666.566235
100666.594761
100666.622372
100666.649075
100666.674817
100666.699615
100666.723427
100666.746278
100666.768137
100666.789034
100666.808947
100666.827911
100666.845914
100666.862993
100666.879142
100666.894402
100666.908772
100666.922293
100666.93497
100666.946845
100666.957925
100666.968251
100666.977833
100666.986711
100666.994895
100667.002426
100667.009313
100667.015594
100667.02128
100667.026405
100667.030981
100667.035037
100667.038585
100667.041652
100667.044248
100667.046396
100667.048107
100667.049399
100667.050281
100667.050771
100667.050875
100667.050609
100667.049984
100667.049018
100667.047734
100667.046179
100667.044438
100667.042693
100667.041235
100667.040317
100667.039926
100658.499399
100658.497474
100658.492684
100658.485823
100658.476937
100658.466017
100658.453127
100658.438269
100658.421527
100658.40291
100658.382523
100658.360385
100658.336622
100658.311259
100658.284448
100658.256222
100658.226756
100658.196094
100658.164429
100658.131818
100658.098467
100658.064441
100658.029961
100657.995091
100657.960063
100657.924941
100657.889959
100657.85518
100657.820837
100657.786986
100657.753857
100657.721497
100657.690129
100657.659789
100657.630692
100657.60286
100657.576497
100657.551612
100657.528395
100657.506842
100657.487128
100657.469236
100657.453324
100657.439361
100657.427489
100657.417664
100657.41001
100657.404468
100657.401145
100657.39997
100657.40103
100657.404243
100657.409676
100657.417234
100657.426967
100657.438766
100657.452664
100657.468539
100657.486407
100657.506134
100657.52772
100657.55102
100657.576017
100657.602525
100657.63049
100657.65976
100657.690296
100657.721929
100657.754609
100657.788165
100657.822541
100657.857563
100657.893172
100657.929198
100657.965577
100658.002146
100658.038844
100658.075512
100658.112096
100658.148446
100658.184515
100658.220166
100658.255357
100658.289967
100658.323965
100658.357241
100658.389777
100658.421477
100658.452334
100658.482267
100658.511279
100658.539305
100658.566356
100658.59238
100658.617399
100658.641374
100658.664332
100658.686245
100658.707148
100658.727023
100658.745908
100658.763794
100658.780724
100658.796694
100658.811748
100658.82589
100658.839165
100658.851579
100658.863179
100658.873972
100658.884006
100658.89329
100658.901868
100658.909753
100658.916986
100658.92358
100658.929573
100658.934978
100658.939831
100658.944144
100658.947948
100658.951257
100658.954096
100658.956478
100658.958426
100658.959949
100658.961069
100658.961792
100658.962136
100658.962107
100658.961721
100658.960987
100658.959922
100658.958549
100658.956913
100658.955106
100658.953327
100658.951882
100658.951003
100658.950636
100650.435426
100650.433333
100650.428208
100650.420841
100650.411275
100650.399504
100650.385595
100650.369551
100650.351459
100650.331334
100650.309287
100650.285341
100650.259632
100650.232194
100650.203187
100650.172658
100650.140792
100650.107649
100650.073433
100650.038216
100650.002222
100649.965527
100649.928369
100649.890828
100649.853149
100649.815413
100649.777866
100649.740585
100649.703815
100649.667623
100649.632251
100649.597753
100649.564364
100649.532125
100649.501257
100649.471789
100649.443928
100649.417688
100649.39326
100649.370644
100649.350014
100649.331354
100649.314822
100649.300386
100649.288187
100649.278178
100649.270481
100649.265036
100649.261945
100649.261135
100649.262689
100649.266521
100649.272694
100649.281108
100649.291809
100649.304683
100649.319757
100649.336905
100649.356136
100649.377311
100649.400422
100649.425318
100649.451974
100649.480191
100649.509901
100649.540951
100649.573294
100649.606752
100649.641268
100649.676662
100649.71287
100649.749712
100649.787118
100649.824911
100649.863023
100649.90128
100649.939616
100649.977866
100650.01597
100650.053772
100650.091222
100650.128176
100650.164593
100650.200345
100650.235402
100650.269651
100650.303074
100650.335575
100650.367148
100650.397712
100650.427273
100650.455768
100650.48321
100650.509551
100650.534816
100650.558969
100650.582042
100650.604011
100650.624916
100650.644742
100650.663532
100650.681281
100650.698037
100650.7138
100650.728618
100650.742499
100650.755492
100650.767607
100650.778893
100650.789363
100650.799065
100650.808013
100650.816253
100650.823801
100650.830699
100650.836963
100650.842633
100650.847724
100650.852273
100650.856293
100650.859817
100650.862858
100650.865445
100650.867589
100650.869315
100650.870632
100650.871561
100650.872109
100650.872293
100650.87212
100650.871604
100650.870753
100650.869582
100650.868114
100650.866394
100650.864521
100650.862712
100650.861282
100650.86044
100650.860094
100642.373278
100642.37099
100642.365481
100642.357531
100642.347182
100642.334431
100642.319345
100642.301931
100642.28228
100642.260411
100642.236443
100642.210407
100642.182447
100642.152609
100642.121063
100642.087873
100642.053235
100642.017227
100641.98007
100641.941852
100641.902814
100641.863053
100641.822822
100641.782222
100641.741513
100641.700793
100641.660325
100641.6202
100641.580679
100641.54184
100641.503937
100641.467036
100641.431379
100641.397017
100641.364176
100641.332892
100641.303376
100641.275644
100641.249891
100641.226117
100641.204497
100641.185016
100641.167829
100641.152904
100641.140379
100641.130206
100641.122502
100641.117205
100641.114414
100641.114052
100641.116196
100641.120757
100641.127794
100641.137201
100641.149019
100641.163129
100641.179553
100641.198157
100641.218945
100641.241772
100641.266622
100641.293339
100641.321878
100641.352032
100641.383731
100641.416808
100641.451207
100641.486743
100641.523348
100641.560835
100641.59913
100641.638042
100641.677496
100641.717304
100641.757389
100641.79757
100641.837773
100641.877826
100641.917661
100641.957118
100641.996139
100642.034578
100642.072388
100642.10944
100642.145699
100642.181053
100642.215482
100642.24889
100642.281272
100642.312549
100642.342728
100642.371749
100642.399628
100642.426323
100642.45186
100642.476209
100642.499406
100642.521433
100642.542334
100642.562098
100642.580776
100642.598367
100642.614922
100642.630448
100642.644998
100642.658582
100642.671256
100642.683033
100642.693966
100642.704072
100642.713403
100642.721975
100642.729838
100642.737009
100642.743535
100642.749433
100642.754745
100642.759488
100642.7637
100642.767396
100642.770611
100642.773359
100642.775668
100642.777551
100642.779033
100642.780125
100642.780846
100642.781204
100642.781217
100642.780888
100642.780233
100642.779257
100642.777976
100642.776409
100642.774603
100642.772666
100642.77083
100642.769418
100642.768612
100642.768284
100634.313605
100634.311093
100634.305143
100634.296521
100634.285271
100634.271389
100634.254946
100634.23595
100634.214498
100634.190615
100634.164426
100634.135973
100634.105408
100634.072793
100634.038312
100634.002044
100633.964203
100633.924885
100633.884333
100633.842654
100633.800112
100633.756824
100633.713066
100633.668957
100633.624781
100633.580654
100633.536858
100633.493501
100633.450859
100633.409028
100633.368271
100633.328668
100633.29047
100633.253736
100633.2187
100633.185403
100633.154059
100633.124689
100633.097488
100633.072457
100633.049772
100633.029414
100633.01154
100632.996113
100632.983269
100632.972956
100632.965289
100632.960201
100632.957786
100632.957962
100632.960804
100632.966215
100632.974251
100632.984799
100632.997896
100633.013416
100633.031376
100633.051634
100633.07419
100633.098889
100633.125711
100633.15449
100633.185156
100633.217499
100633.25145
100633.286822
100633.32355
100633.361438
100633.40041
100633.440268
100633.480928
100633.522189
100633.563965
100633.606059
100633.648384
100633.690749
100633.733072
100633.775171
100633.816973
100633.858308
100633.899113
100633.939237
100633.978628
100634.017152
100634.054774
100634.091378
100634.126944
100634.161377
100634.19467
100634.226749
100634.257622
100634.287232
100634.315601
100634.342688
100634.368526
100634.39309
100634.416421
100634.438507
100634.459397
100634.479087
100634.497634
100634.515041
100634.531368
100634.546624
100634.56087
100634.574121
100634.586436
100634.597834
100634.608374
100634.618074
100634.626991
100634.635146
100634.642591
100634.649346
100634.655461
100634.660956
100634.665874
100634.670234
100634.674077
100634.67742
100634.680297
100634.682724
100634.684731
100634.686331
100634.68755
100634.688398
100634.688895
100634.68905
100634.688878
100634.688385
100634.687583
100634.686478
100634.685082
100634.683414
100634.681521
100634.679522
100634.677665
100634.676275
100634.675501
100634.675189
100626.25716
100626.254391
100626.247934
100626.238539
100626.226251
100626.211067
100626.193057
100626.172237
100626.148705
100626.122493
100626.093736
100626.062485
100626.028907
100625.993077
100625.955197
100625.915365
100625.873818
100625.830674
100625.786197
100625.740525
100625.693942
100625.646594
100625.59878
100625.550647
100625.502501
100625.454481
100625.406892
100625.35986
100625.313681
100625.268466
100625.224493
100625.181855
100625.140813
100625.101434
100625.06396
100625.028436
100624.99508
100624.963915
100624.935138
100624.908748
100624.88492
100624.863634
100624.845042
100624.829105
100624.815955
100624.805535
100624.797955
100624.793144
100624.791191
100624.792008
100624.795664
100624.802059
100624.81124
100624.823091
100624.837641
100624.854759
100624.874455
100624.896582
100624.92113
100624.947939
100624.97698
100625.008078
100625.041147
100625.075962
100625.112446
100625.150402
100625.189753
100625.230293
100625.271936
100625.31447
100625.357801
100625.401716
100625.446119
100625.490798
100625.535659
100625.580496
100625.62522
100625.669638
100625.713667
100625.75713
100625.799957
100625.841989
100625.88317
100625.923361
100625.962524
100626.000541
100626.03739
100626.072978
100626.107299
100626.140279
100626.171931
100626.202201
100626.231115
100626.258638
100626.284809
100626.309607
100626.333082
100626.355228
100626.3761
100626.395702
100626.414096
100626.431294
100626.44736
100626.462313
100626.476217
100626.489094
100626.501009
100626.511986
100626.522087
100626.531338
100626.539799
100626.547493
100626.554478
100626.560777
100626.566442
100626.571495
100626.575983
100626.579927
100626.583369
100626.586328
100626.588839
100626.590919
100626.5926
100626.593896
100626.594832
100626.595419
100626.595678
100626.595617
100626.595251
100626.594585
100626.59363
100626.592391
100626.590878
100626.589108
100626.58713
100626.585072
100626.583199
100626.581833
100626.581091
100626.580793
100618.204815
100618.20175
100618.194711
100618.184429
100618.170945
100618.15426
100618.134446
100618.111519
100618.085583
100618.05668
100618.02495
100617.99046
100617.95339
100617.913834
100617.872014
100617.828053
100617.78221
100617.734635
100617.685619
100617.635329
100617.584082
100617.532054
100617.479574
100617.42682
100617.374125
100617.321656
100617.269742
100617.218533
100617.168345
100617.119307
100617.071714
100617.025671
100616.98145
100616.939128
100616.898952
100616.860972
100616.825408
100616.792286
100616.761798
100616.733947
100616.7089
100616.686636
100616.667302
100616.650855
100616.637419
100616.626934
100616.619502
100616.615047
100616.613652
100616.615223
100616.619823
100616.627345
100616.63783
100616.651158
100616.667349
100616.686267
100616.707914
100616.732138
100616.758921
100616.788094
100616.819621
100616.853319
100616.889083
100616.92667
100616.965996
100617.006851
100617.049148
100617.092668
100617.137313
100617.182859
100617.229198
100617.276105
100617.323469
100617.371068
100617.418792
100617.466424
100617.513863
100617.560903
100617.607453
100617.653325
100617.69844
100617.742632
100617.785838
100617.827915
100617.86882
100617.908434
100617.946733
100617.983623
100618.0191
100618.053094
100618.08562
100618.116628
100618.146151
100618.174159
100618.200698
100618.225754
100618.249385
100618.271591
100618.292437
100618.311935
100618.330154
100618.347114
100618.362886
100618.377497
100618.391019
100618.403479
100618.414949
100618.425459
100618.435078
100618.443834
100618.451793
100618.458983
100618.465465
100618.471265
100618.47644
100618.481014
100618.485036
100618.488529
100618.491538
100618.494082
100618.4962
100618.497909
100618.499241
100618.500211
100618.500846
100618.501156
100618.501163
100618.500874
100618.500305
100618.49946
100618.498348
100618.496972
100618.495342
100618.493471
100618.491411
100618.489298