/*--------------------------------*- C++ -*----------------------------------*\
| =========                 |                                                 |
| \\      /  F ield         | OpenFOAM: The Open Source CFD Toolbox           |
|  \\    /   O peration     | Version:  2206                                  |
|   \\  /    A nd           | Website:  www.openfoam.com                      |
|    \\/     M anipulation  |                                                 |
\*---------------------------------------------------------------------------*/
FoamFile
{
    version     2.0;
    format      ascii;
    arch        "LSB;label=64;scalar=64";
    class       surfaceScalarField;
    location    "0.8/water";
    object      phi;
}
// * * * * * * * * * * * * * * * * * * * * * * * * * * * * * * * * * * * * * //

dimensions      [0 3 -1 0 0 0 0];

oriented        oriented;

internalField   nonuniform List<scalar> 
46280
(
-4.72503705717e-10
4.72427788189e-10
-9.30136077702e-10
4.57544174818e-10
-1.41094895838e-09
4.80739238423e-10
-1.91325277494e-09
5.02210406586e-10
-2.4337190216e-09
5.20393909741e-10
-2.97031250623e-09
5.36496221791e-10
-3.52181311215e-09
5.51434356167e-10
-4.08767682408e-09
5.65761944942e-10
-4.66755020535e-09
5.79810651475e-10
-5.26142236911e-09
5.93763652799e-10
-5.86921485414e-09
6.07732670546e-10
-6.49109216773e-09
6.21762755966e-10
-7.12702549691e-09
6.35878314828e-10
-7.77720492685e-09
6.5006138787e-10
-8.44154568264e-09
6.64292700291e-10
-9.12018277583e-09
6.78517925779e-10
-9.81291414308e-09
6.92691287544e-10
-1.0519767329e-08
7.06734349737e-10
-1.12403834823e-08
7.20583973939e-10
-1.19746468558e-08
7.3414544129e-10
-1.27220166689e-08
7.47344790937e-10
-1.34822107851e-08
7.6007723358e-10
-1.42544930695e-08
7.72263408661e-10
-1.50384028362e-08
7.83793782163e-10
-1.58330048276e-08
7.94588198265e-10
-1.66376569441e-08
8.04536863563e-10
-1.7451229308e-08
8.13562658427e-10
-1.82729033483e-08
8.21559279924e-10
-1.91013656727e-08
8.284558053e-10
-1.99356326125e-08
8.34152523724e-10
-2.07742240643e-08
8.38587338596e-10
-2.16160080588e-08
8.41669753552e-10
-2.24593591146e-08
8.43348676209e-10
-2.33030182018e-08
8.43544963132e-10
-2.41452396822e-08
8.42220274675e-10
-2.49846623104e-08
8.393085507e-10
-2.58194483655e-08
8.34785560961e-10
-2.66481620023e-08
8.28599654668e-10
-2.74689038568e-08
8.20741726157e-10
-2.82801932209e-08
8.11175538241e-10
-2.90801009996e-08
7.99907785496e-10
-2.98671327255e-08
7.86918257118e-10
-3.06393624434e-08
7.72229756025e-10
-3.13953136719e-08
7.55838345016e-10
-3.21330964615e-08
7.37782873127e-10
-3.28512839335e-08
7.18075543275e-10
-3.35480545486e-08
6.9677088246e-10
-3.42220619787e-08
6.73896850928e-10
-3.48715843652e-08
6.49523080531e-10
-3.54953858084e-08
6.23692723244e-10
-3.60918742105e-08
5.96489849615e-10
-3.66599527786e-08
5.67972195994e-10
-3.71981877871e-08
5.38237578499e-10
-3.77056489287e-08
5.07357657054e-10
-3.81810881319e-08
4.75443279981e-10
-3.86237676396e-08
4.42579367793e-10
-3.90326508192e-08
4.08889120563e-10
-3.94072173388e-08
3.74470165538e-10
-3.9746666903e-08
3.3945766807e-10
-4.00507210186e-08
3.03961845637e-10
-4.03188403853e-08
2.68129838336e-10
-4.05510126052e-08
2.32084267601e-10
-4.07469827057e-08
1.95983043242e-10
-4.09070234826e-08
1.59957213911e-10
-4.10311746023e-08
1.2416652556e-10
-4.11199868456e-08
8.87330754487e-11
-4.11737814972e-08
5.38124111624e-11
-4.11932598881e-08
1.94034808508e-11
-4.11786822299e-08
-1.45577499779e-11
-4.11297573038e-08
-4.89957529005e-11
-4.10452233934e-08
-8.45121278921e-11
-4.0924740235e-08
-1.2055017584e-10
-4.07680680967e-08
-1.5664880658e-10
-4.05756182286e-08
-1.92513345773e-10
-4.03476916519e-08
-2.27902045822e-10
-4.00851042463e-08
-2.62647668084e-10
-3.9788487289e-08
-2.96591587325e-10
-3.9458919039e-08
-3.29625582482e-10
-3.90972562676e-08
-3.61636907666e-10
-3.87047574263e-08
-3.92553545482e-10
-3.82824377611e-08
-4.22293627734e-10
-3.78316790001e-08
-4.508110748e-10
-3.73536054009e-08
-4.7804767195e-10
-3.68496775435e-08
-5.03978018976e-10
-3.63210883821e-08
-5.28563593629e-10
-3.57693400343e-08
-5.51796529013e-10
-3.51956596815e-08
-5.73655354142e-10
-3.46015586633e-08
-5.94147384947e-10
-3.39882683677e-08
-6.13266038988e-10
-3.33572812788e-08
-6.31031745827e-10
-3.27098071188e-08
-6.47450784791e-10
-3.20472954881e-08
-6.62554681854e-10
-3.1370912527e-08
-6.76360582122e-10
-3.06820449067e-08
-6.8890912221e-10
-2.99817972786e-08
-7.00226337867e-10
-2.92714772771e-08
-7.10360014945e-10
-2.85521139887e-08
-7.19343162304e-10
-2.78249236934e-08
-7.2722884351e-10
-2.70908495722e-08
-7.34055221304e-10
-2.63510078133e-08
-7.39878874912e-10
-2.56062487511e-08
-7.44741443278e-10
-2.48575830154e-08
-7.48701425987e-10
-2.41057642964e-08
-7.51802428997e-10
-2.33516951302e-08
-7.54103446899e-10
-2.25960314768e-08
-7.55648733008e-10
-2.18395677891e-08
-7.56496552737e-10
-2.10828635931e-08
-7.56690679577e-10
-2.03266074346e-08
-7.56287610175e-10
-1.95712656474e-08
-7.5532970358e-10
-1.88174248299e-08
-7.5387084252e-10
-1.80654629871e-08
-7.51951216937e-10
-1.73158701627e-08
-7.49621418419e-10
-1.65689421333e-08
-7.46918883944e-10
-1.5825078877e-08
-7.43890406278e-10
-1.50845009974e-08
-7.40570240067e-10
-1.43475256903e-08
-7.37001011629e-10
-1.36143060914e-08
-7.33213497174e-10
-1.28850844552e-08
-7.2924589533e-10
-1.21599546927e-08
-7.25125243601e-10
-1.14390925735e-08
-7.20884947739e-10
-1.07225420208e-08
-7.16547673436e-10
-1.00104226883e-08
-7.1214074679e-10
-9.30274167076e-09
-7.07679836728e-10
-8.59958079868e-09
-7.03180887245e-10
-7.90093916887e-09
-6.98642198289e-10
-7.20690927964e-09
-6.94048510615e-10
-6.5175678084e-09
-6.89343843665e-10
-5.83317055041e-09
-6.84414493334e-10
-5.15414438936e-09
-6.79030418242e-10
-4.48138953221e-09
-6.72770728213e-10
-3.81651943687e-09
-6.64876267425e-10
-3.16250202797e-09
-6.5403186321e-10
-2.52449593344e-09
-6.38014078378e-10
-1.91130367514e-09
-6.1320519355e-10
-1.33731412739e-09
-5.73999355501e-10
-8.24919699001e-10
-5.12405723397e-10
-4.06153872287e-10
-4.18775483586e-10
-1.19920842808e-10
-2.86242362114e-10
5.64666726737e-12
-1.25577155663e-10
5.6440162866e-12
-9.29681786328e-10
1.40203365149e-09
-1.86797208142e-09
1.39574983241e-09
-2.80225178018e-09
1.41494179299e-09
-3.73656048497e-09
1.43642942574e-09
-4.6720872144e-09
1.45584334709e-09
-5.60941499532e-09
1.47373097393e-09
-6.54903137615e-09
1.49097493342e-09
-7.49158147617e-09
1.50821510364e-09
-8.43771189891e-09
1.52586557578e-09
-9.38821969745e-09
1.54416992307e-09
-1.0343816524e-08
1.56325486139e-09
-1.13053154093e-08
1.58315692725e-09
-1.22733599868e-08
1.60385138821e-09
-1.32486639919e-08
1.62526026926e-09
-1.42317084342e-08
1.64727102233e-09
-1.52230302352e-08
1.66973627947e-09
-1.62228876448e-08
1.6924889496e-09
-1.72315921087e-08
1.71533802223e-09
-1.82491442214e-08
1.73808270545e-09
-1.92756027345e-08
1.76050598033e-09
-2.03106942967e-08
1.78238868919e-09
-2.13542139295e-08
1.80350146392e-09
-2.2405612229e-08
1.82361893184e-09
-2.3464421985e-08
1.8425102787e-09
-2.4529826189e-08
1.85995359415e-09
-2.56011061458e-08
1.87572526284e-09
-2.66771935661e-08
1.88961443431e-09
-2.77571360451e-08
1.9014114781e-09
-2.88396361378e-08
1.91092264509e-09
-2.99235307723e-08
1.91795780169e-09
-3.1007320159e-08
1.92234525423e-09
-3.20896580432e-08
1.92391890728e-09
-3.31688728253e-08
1.9225332023e-09
-3.42434659605e-08
1.91804977808e-09
-3.53116275418e-08
1.91035240462e-09
-3.63717403018e-08
1.89933323928e-09
-3.74218914788e-08
1.88490771685e-09
-3.84603802213e-08
1.86700050145e-09
-3.94852275469e-08
1.84556025094e-09
-4.04946850901e-08
1.82054536393e-09
-4.14867446215e-08
1.79193858199e-09
-4.24596464042e-08
1.75973261e-09
-4.34113897727e-08
1.72394447596e-09
-4.43402394927e-08
1.68460111758e-09
-4.52442385904e-08
1.64175348872e-09
-4.61217114003e-08
1.5954621915e-09
-4.6970779847e-08
1.54581126447e-09
-4.77898619078e-08
1.49289391821e-09
-4.85771921423e-08
1.43682596311e-09
-4.93313144324e-08
1.37773164933e-09
-5.00506074167e-08
1.31575661471e-09
-5.07337702733e-08
1.25105380502e-09
-5.13793532534e-08
1.18379587434e-09
-5.19862354003e-08
1.11416117299e-09
-5.25531603787e-08
1.04234556388e-09
-5.30792051387e-08
9.6854857281e-10
-5.35633211077e-08
8.92984752758e-10
-5.40047931656e-08
8.15870147695e-10
-5.44027863797e-08
7.37433247719e-10
-5.47567944981e-08
6.57901664401e-10
-5.50661916444e-08
5.77512248134e-10
-5.53306687058e-08
4.96496997889e-10
-5.5549787764e-08
4.15090393886e-10
-5.57234027192e-08
3.33511873171e-10
-5.58512101045e-08
2.51965203139e-10
-5.59331504026e-08
1.70617075982e-10
-5.59689188322e-08
8.95750427568e-11
-5.5958632814e-08
9.06501848602e-12
-5.59013843843e-08
-7.18092962505e-11
-5.57964406796e-08
-1.53988265931e-10
-5.56442163197e-08
-2.36737179075e-10
-5.54454943548e-08
-3.193175971e-10
-5.52009717829e-08
-4.01169990855e-10
-5.49116690798e-08
-4.8185846502e-10
-5.45785390192e-08
-5.61028969556e-10
-5.42028321489e-08
-6.38394247338e-10
-5.3785709332e-08
-7.13709894119e-10
-5.33285983668e-08
-7.86773871389e-10
-5.2832817863e-08
-8.57411849306e-10
-5.22999250906e-08
-9.25481561681e-10
-5.17313508702e-08
-9.90861564678e-10
-5.11287382068e-08
-1.05345717056e-09
-5.0493588404e-08
-1.11319072834e-09
-4.9827590306e-08
-1.17000797645e-09
-4.91322778507e-08
-1.22386909701e-09
-4.84093498322e-08
-1.27475503077e-09
-4.76603391935e-08
-1.32265901871e-09
-4.68869231565e-08
-1.36759269218e-09
-4.60906044123e-08
-1.40957796588e-09
-4.52730114976e-08
-1.4486528431e-09
-4.44355921018e-08
-1.48486363472e-09
-4.35799035098e-08
-1.51827046975e-09
-4.27073181141e-08
-1.54893982359e-09
-4.1819303766e-08
-1.57694975429e-09
-4.0917141645e-08
-1.60238276528e-09
-4.00021962983e-08
-1.62533079166e-09
-3.90756459069e-08
-1.64588840019e-09
-3.81387418116e-08
-1.66415755545e-09
-3.7192551277e-08
-1.68024118283e-09
-3.62382062521e-08
-1.6942477352e-09
-3.52766586441e-08
-1.70628511682e-09
-3.43089180769e-08
-1.71646507035e-09
-3.33358197613e-08
-1.72489747554e-09
-3.23582509785e-08
-1.73169456578e-09
-3.13769315609e-08
-1.73696558954e-09
-3.03926288545e-08
-1.74082086349e-09
-2.94059508959e-08
-1.7433667997e-09
-2.84175495896e-08
-1.7447097934e-09
-2.74279266091e-08
-1.74495159722e-09
-2.64376245593e-08
-1.74419304207e-09
-2.54470456926e-08
-1.74252975508e-09
-2.44566308257e-08
-1.74005570499e-09
-2.34666909163e-08
-1.73685924416e-09
-2.24775735391e-08
-1.73302647084e-09
-2.14895074313e-08
-1.72863758635e-09
-2.05027563456e-08
-1.72377005308e-09
-1.9517476672e-08
-1.7184952258e-09
-1.85338585579e-08
-1.71288124432e-09
-1.75519968775e-08
-1.70698982516e-09
-1.65720197061e-08
-1.7008786526e-09
-1.55939732947e-08
-1.69459788205e-09
-1.46179387153e-08
-1.688191185e-09
-1.36439328877e-08
-1.68169039994e-09
-1.26720166316e-08
-1.67511234803e-09
-1.17022180827e-08
-1.66844646119e-09
-1.07346429391e-08
-1.66163821796e-09
-9.76943963698e-09
-1.65455387725e-09
-8.80694461783e-09
-1.64692345723e-09
-7.84774548279e-09
-1.63823737712e-09
-6.8929544082e-09
-1.62757517533e-09
-5.94452271076e-09
-1.61331690059e-09
-5.00588892221e-09
-1.59267841892e-09
-4.08293325529e-09
-1.5609797118e-09
-3.18559280233e-09
-1.51055765113e-09
-2.33030790895e-09
-1.42929521433e-09
-1.54364700798e-09
-1.29907784042e-09
-8.66717437102e-10
-1.09571512671e-09
-3.56619659329e-10
-7.96349644544e-10
-6.97853382776e-11
-4.12421253889e-10
-6.41440164701e-11
-1.22938741598e-09
2.63134728526e-09
-2.46274550475e-09
2.62902559708e-09
-3.69186623782e-09
2.64398656476e-09
-4.91736583052e-09
2.66184096067e-09
-6.14117165022e-09
2.67957176947e-09
-7.36463143287e-09
2.69709791863e-09
-8.5886387205e-09
2.71490392921e-09
-9.81394950533e-09
2.73342799047e-09
-1.10411402817e-08
2.75297750238e-09
-1.22708098494e-08
2.7737368724e-09
-1.35034206133e-08
2.79578753197e-09
-1.47394919778e-08
2.81912341445e-09
-1.59793811809e-08
2.84366613917e-09
-1.72235003396e-08
2.86927524793e-09
-1.84720571565e-08
2.89575923745e-09
-1.97253051702e-08
2.92288267827e-09
-2.09832532633e-08
2.95037508678e-09
-2.22459498987e-08
2.97793632331e-09
-2.35131671049e-08
3.00524435275e-09
-2.47847158028e-08
3.03195951767e-09
-2.60601085037e-08
3.05773146833e-09
-2.73389018041e-08
3.08220238722e-09
-2.86203412008e-08
3.10501310583e-09
-2.99037263538e-08
3.12580527242e-09
-3.11880408455e-08
3.14422663951e-09
-3.24723362542e-08
3.1599322424e-09
-3.37553493581e-08
3.17258901911e-09
-3.50359013016e-08
3.18187622307e-09
-3.63125045505e-08
3.18748956691e-09
-3.75837741388e-08
3.18914106503e-09
-3.88480265119e-08
3.18656286112e-09
-4.01037000112e-08
3.1795066103e-09
-4.13489475225e-08
3.16774699315e-09
-4.25820638575e-08
3.15108064482e-09
-4.38010739208e-08
3.12932937084e-09
-4.50041646799e-08
3.10233866709e-09
-4.61892703824e-08
3.06998063228e-09
-4.73545072338e-08
3.03215211689e-09
-4.84977570459e-08
2.98877737495e-09
-4.96171027401e-08
2.93980590548e-09
-5.0710411679e-08
2.88521484605e-09
-5.17757705427e-08
2.82500655579e-09
-5.28110695164e-08
2.75921081305e-09
-5.38144351194e-08
2.68788222844e-09
-5.47838163462e-08
2.61110226905e-09
-5.5717414412e-08
2.52897654265e-09
-5.66132718114e-08
2.44163666526e-09
-5.74696978593e-08
2.34923741111e-09
-5.82848614079e-08
2.25195832225e-09
-5.90572112641e-08
2.15000061534e-09
-5.97850730214e-08
2.04358840951e-09
-6.04670632345e-08
1.93296527282e-09
-6.11016905753e-08
1.81839493353e-09
-6.1687762886e-08
1.70015741615e-09
-6.22239927791e-08
1.57854929547e-09
-6.27093967404e-08
1.4538795848e-09
-6.3142905364e-08
1.32646973608e-09
-6.35237541298e-08
1.19664950237e-09
-6.3851098503e-08
1.06475681417e-09
-6.41243959267e-08
9.31133479838e-10
-6.43430258332e-08
7.96124393979e-10
-6.45066625128e-08
6.60072069213e-10
-6.46149002664e-08
5.23313521792e-10
-6.46676155317e-08
3.86169557913e-10
-6.46645972945e-08
2.48935455649e-10
-6.46058973073e-08
1.11863499722e-10
-6.44914635442e-08
-2.48672481609e-11
-6.43207905731e-08
-1.61657731882e-10
-6.40944441515e-08
-2.9816148226e-10
-6.38154543579e-08
-4.33024245417e-10
-6.34864037227e-08
-5.65791110678e-10
-6.31094848265e-08
-6.96279404499e-10
-6.2686432568e-08
-8.24223411436e-10
-6.22189966037e-08
-9.49334372445e-10
-6.17086990004e-08
-1.07132596258e-09
-6.11572007012e-08
-1.18992988233e-09
-6.0566007274e-08
-1.30490129595e-09
-5.99367928091e-08
-1.41602337541e-09
-5.92710945238e-08
-1.523107039e-09
-5.85706167488e-08
-1.62599240443e-09
-5.78369274789e-08
-1.72454697669e-09
-5.70717498213e-08
-1.81866617819e-09
-5.62766651144e-08
-1.90827109203e-09
-5.5453394343e-08
-1.99330863335e-09
-5.46035096981e-08
-2.07374914632e-09
-5.37287069617e-08
-2.14958636779e-09
-5.2830526389e-08
-2.22083494093e-09
-5.19106163606e-08
-2.28753021104e-09
-5.09704640732e-08
-2.34972570266e-09
-5.00116506161e-08
-2.40749278944e-09
-4.90355917678e-08
-2.46091816032e-09
-4.80437844381e-08
-2.51010339864e-09
-4.70375577747e-08
-2.55516249012e-09
-4.60183109358e-08
-2.59622136222e-09
-4.49872746433e-08
-2.63341546751e-09
-4.39457401193e-08
-2.66688932203e-09
-4.28948311828e-08
-2.69679421314e-09
-4.18357242299e-08
-2.72328778003e-09
-4.07694309387e-08
-2.74653186954e-09
-3.96970090691e-08
-2.76669218369e-09
-3.86193558268e-08
-2.78393631464e-09
-3.75374093122e-08
-2.79843348373e-09
-3.64519525811e-08
-2.81035276011e-09
-3.53638054937e-08
-2.81986289784e-09
-3.42736395133e-08
-2.82713074911e-09
-3.31821597636e-08
-2.83232120469e-09
-3.20899306023e-08
-2.83559579043e-09
-3.09975476438e-08
-2.8371127025e-09
-2.99054741532e-08
-2.83702558332e-09
-2.88142028534e-08
-2.83548364409e-09
-2.77241031843e-08
-2.83263059974e-09
-2.66355726835e-08
-2.82860486197e-09
-2.55488951715e-08
-2.82353862054e-09
-2.44643815537e-08
-2.81755808938e-09
-2.33822390045e-08
-2.81078270192e-09
-2.2302701036e-08
-2.80332537101e-09
-2.12259078099e-08
-2.79529173857e-09
-2.01520254189e-08
-2.78678033894e-09
-1.9081137592e-08
-2.77788169185e-09
-1.80133543428e-08
-2.76867798087e-09
-1.69487157912e-08
-2.75924126711e-09
-1.58872911168e-08
-2.74963133757e-09
-1.48290966144e-08
-2.73989057253e-09
-1.37741883454e-08
-2.73003551335e-09
-1.27226008767e-08
-2.72004046621e-09
-1.16744445119e-08
-2.70980890737e-09
-1.06298839442e-08
-2.69912188484e-09
-9.58927252162e-09
-2.68754865596e-09
-8.55322609064e-09
-2.67429222303e-09
-7.52288595848e-09
-2.65792858598e-09
-6.50023971657e-09
-2.63597256687e-09
-5.48875996234e-09
-2.60417090519e-09
-4.49437037971e-09
-2.55537964653e-09
-3.52708846804e-09
-2.4778516711e-09
-2.60358186333e-09
-2.35281302753e-09
-1.75102748796e-09
-2.15164359786e-09
-1.01182643908e-09
-1.83492646308e-09
-4.45009590686e-10
-1.36317615625e-09
-1.08198743444e-10
-7.49242046699e-10
-1.72345505802e-10
-1.39336588433e-09
4.02464101549e-09
-2.78993696172e-09
4.02551577323e-09
-4.18385404323e-09
4.0378285524e-09
-5.57543435102e-09
4.05333426731e-09
-6.96594702634e-09
4.07000684283e-09
-8.35662481811e-09
4.08768234174e-09
-9.74836998972e-09
4.10656968164e-09
-1.11419117863e-08
4.12687029034e-09
-1.25377195928e-08
4.14870442395e-09
-1.39361932845e-08
4.1721063601e-09
-1.53375171411e-08
4.19703160197e-09
-1.67418630921e-08
4.22336341984e-09
-1.81491921318e-08
4.25091968253e-09
-1.95594804903e-08
4.27945908101e-09
-2.09724780967e-08
4.30868783611e-09
-2.23879629708e-08
4.3382662275e-09
-2.38054653112e-08
4.36781548691e-09
-2.52245512697e-08
4.39692460997e-09
-2.6644519528e-08
4.42515727779e-09
-2.80647128525e-08
4.45205854352e-09
-2.94841923821e-08
4.47716133243e-09
-3.09020739705e-08
4.49999247678e-09
-3.23171842549e-08
4.52007835651e-09
-3.37284182413e-08
4.53694993315e-09
-3.5134380353e-08
4.55014734943e-09
-3.65337597498e-08
4.55922390446e-09
-3.79249590757e-08
4.56374970257e-09
-3.9306484243e-08
4.56331474875e-09
-4.06765632037e-08
4.55753188102e-09
-4.20335472864e-08
4.54603919072e-09
-4.3375522094e-08
4.52850239648e-09
-4.47007177589e-08
4.50461668853e-09
-4.60071137835e-08
4.474108599e-09
-4.72928558746e-08
4.43673728889e-09
-4.85558563879e-08
4.3922959241e-09
-4.97942155997e-08
4.34061242942e-09
-5.10058191728e-08
4.28155040239e-09
-5.21887619293e-08
4.21500936904e-09
-5.33409436345e-08
4.14092526621e-09
-5.44604934898e-08
4.05927025274e-09
-5.55453653536e-08
3.97005282307e-09
-5.65937614072e-08
3.87331725171e-09
-5.7603727892e-08
3.76914341516e-09
-5.85735765715e-08
3.65764596244e-09
-5.95014819164e-08
3.53897391768e-09
-6.03858991669e-08
3.4133096202e-09
-6.12251637986e-08
3.28086809681e-09
-6.20179050658e-08
3.14189572774e-09
-6.27626483549e-08
2.99666929281e-09
-6.34582231917e-08
2.84549423029e-09
-6.41033689608e-08
2.6887031986e-09
-6.46971364452e-08
2.52665379711e-09
-6.5238497252e-08
2.3597265611e-09
-6.57267381593e-08
2.18832214333e-09
-6.61610746205e-08
2.01285883675e-09
-6.65410373811e-08
1.83376941741e-09
-6.68660903647e-08
1.65149844765e-09
-6.71360091516e-08
1.46649899882e-09
-6.73505034495e-08
1.27922979923e-09
-6.750958697e-08
1.09015162383e-09
-6.76132044847e-08
8.99723738903e-10
-6.76615929342e-08
7.08399205602e-10
-6.76549137172e-08
5.16619353864e-10
-6.7593609226e-08
3.2480784595e-10
-6.74780376743e-08
1.33352118777e-10
-6.73087819145e-08
-5.74454731621e-11
-6.70864282254e-08
-2.47229703615e-10
-6.68129394373e-08
-4.35195904006e-10
-6.64906358945e-08
-6.20471022938e-10
-6.61210508977e-08
-8.02655059372e-10
-6.57053838444e-08
-9.8146169871e-10
-6.52451056906e-08
-1.15660012065e-09
-6.47415647812e-08
-1.32776574986e-09
-6.41962920154e-08
-1.49464678866e-09
-6.36106797322e-08
-1.65693793301e-09
-6.29862963398e-08
-1.81435036029e-09
-6.23245777732e-08
-1.96661817939e-09
-6.16271331683e-08
-2.11350283712e-09
-6.08954419169e-08
-2.25479557538e-09
-6.01311482531e-08
-2.39031900214e-09
-5.93357642341e-08
-2.51992756373e-09
-5.85109540115e-08
-2.64350768342e-09
-5.7658244016e-08
-2.76097720479e-09
-5.67792977721e-08
-2.87228473925e-09
-5.58756343079e-08
-2.97740851181e-09
-5.49488940898e-08
-3.0763552198e-09
-5.40005663999e-08
-3.16915850072e-09
-5.30322467017e-08
-3.25587746677e-09
-5.20453734726e-08
-3.33659492575e-09
-5.10414771554e-08
-3.41141570763e-09
-5.00219268048e-08
-3.48046474458e-09
-4.8988170653e-08
-3.54388528505e-09
-4.79414927962e-08
-3.60183691887e-09
-4.68832453318e-08
-3.65449376455e-09
-4.58146152595e-08
-3.70204252027e-09
-4.47368480763e-08
-3.74468069581e-09
-4.36510249878e-08
-3.78261475236e-09
-4.25582778099e-08
-3.81605843892e-09
-4.14595765713e-08
-3.84523107345e-09
-4.03559355265e-08
-3.87035602699e-09
-3.92482111861e-08
-3.89165917851e-09
-3.81372992319e-08
-3.90936757579e-09
-3.70239430193e-08
-3.92370808572e-09
-3.59089211634e-08
-3.93490624487e-09
-3.47928665367e-08
-3.94318510916e-09
-3.36764442993e-08
-3.94876429581e-09
-3.25601814338e-08
-3.95185902903e-09
-3.14446349911e-08
-3.9526793637e-09
-3.03302321948e-08
-3.95142941107e-09
-2.92174286921e-08
-3.94830672867e-09
-2.81065592829e-08
-3.94350170719e-09
-2.69979859801e-08
-3.93719710346e-09
-2.58919594151e-08
-3.92956756077e-09
-2.47887565403e-08
-3.92077925418e-09
-2.36885527982e-08
-3.91098950446e-09
-2.25915493316e-08
-3.90034647628e-09
-2.14978560466e-08
-3.88898878902e-09
-2.04076082769e-08
-3.87704510349e-09
-1.93208610343e-08
-3.86463343324e-09
-1.82376953114e-08
-3.85186007186e-09
-1.71581242587e-08
-3.83881759447e-09
-1.60821900835e-08
-3.82558127827e-09
-1.50098843027e-08
-3.81220244103e-09
-1.39412386492e-08
-3.79869634362e-09
-1.28762658149e-08
-3.78502022714e-09
-1.18150551823e-08
-3.77103413399e-09
-1.0757753145e-08
-3.7564317171e-09
-9.70469594378e-09
-3.74061988379e-09
-8.65648476853e-09
-3.72251212991e-09
-7.61424795523e-09
-3.70017891069e-09
-6.57996532579e-09
-3.67026489357e-09
-5.55711491011e-09
-3.62703430404e-09
-4.55166449224e-09
-3.56084066627e-09
-3.57377214079e-09
-3.45575631066e-09
-2.64045507826e-09
-3.28614155885e-09
-1.77959717714e-09
-3.01251307794e-09
-1.03467904399e-09
-2.57985505437e-09
-4.65147966882e-10
-1.93271710408e-09
-1.23853755153e-10
-1.09054639873e-09
-2.96202064362e-10
-1.479787861e-09
5.50435705834e-09
-2.96190966803e-09
5.50755751234e-09
-4.44277780404e-09
5.51862164333e-09
-5.92255709277e-09
5.53302644074e-09
-7.40216257995e-09
5.54953435137e-09
-8.88253773778e-09
5.5679634932e-09
-1.03643953371e-08
5.58834645437e-09
-1.18483123083e-08
5.61068657755e-09
-1.33346052637e-08
5.63491515856e-09
-1.48234965381e-08
5.660892057e-09
-1.63149580396e-08
5.68841218479e-09
-1.78089115067e-08
5.71721002368e-09
-1.93050319427e-08
5.74696405642e-09
-2.08029785624e-08
5.77730085968e-09
-2.23021596718e-08
5.80779991998e-09
-2.38019936482e-08
5.83799906243e-09
-2.53016402545e-08
5.8674005175e-09
-2.68002904933e-08
5.8954776785e-09
-2.829687003e-08
5.9216820243e-09
-2.97903555501e-08
5.94545039649e-09
-3.12794552063e-08
5.96621189529e-09
-3.27629483441e-08
5.98339474719e-09
-3.42393469678e-08
5.99643243034e-09
-3.57072553714e-08
6.00476954133e-09
-3.71650158905e-08
6.0078668021e-09
-3.86110851081e-08
6.0052057651e-09
-4.00436666544e-08
5.99629274483e-09
-4.14611008699e-08
5.98066250694e-09
-4.28614870325e-08
5.95788132965e-09
-4.42430836857e-08
5.9275498703e-09
-4.56039223684e-08
5.88930552145e-09
-4.69422160505e-08
5.84282455692e-09
-4.82559661924e-08
5.78782383613e-09
-4.95433770269e-08
5.72406225709e-09
-5.08024575739e-08
5.65134183463e-09
-5.20314396807e-08
5.56950848867e-09
-5.32283764305e-08
5.4784525212e-09
-5.43915620855e-08
5.3781087812e-09
-5.55191281791e-08
5.26845659473e-09
-5.66094636648e-08
5.14951938269e-09
-5.7660809877e-08
5.02136412636e-09
-5.86716794335e-08
4.88410054499e-09
-5.9640451166e-08
4.73788021059e-09
-6.05657864706e-08
4.58289539885e-09
-6.14462252085e-08
4.41937792982e-09
-6.22805983885e-08
4.24759774131e-09
-6.30676259152e-08
4.06786145582e-09
-6.38063245818e-08
3.88051062999e-09
-6.44956084105e-08
3.68591994368e-09
-6.51346911024e-08
3.48449499987e-09
-6.57226896262e-08
3.27667001227e-09
-6.62590204318e-08
3.06290507325e-09
-6.67430069524e-08
2.84368332722e-09
-6.71742692138e-08
2.61950780503e-09
-6.75523360123e-08
2.39089829255e-09
-6.7877027815e-08
2.15838801565e-09
-6.81480743948e-08
1.92252048543e-09
-6.83654910568e-08
1.68384623177e-09
-6.85292023684e-08
1.44291965586e-09
-6.86394117381e-08
1.20029558934e-09
-6.86962318219e-08
9.56525621139e-10
-6.87000478666e-08
7.12153999029e-10
-6.86511562126e-08
4.67712791534e-10
-6.85501147469e-08
2.23709275966e-10
-6.83974248328e-08
-1.93494869927e-11
-6.81939468366e-08
-2.60976531588e-10
-6.79409445e-08
-5.00240696399e-10
-6.7639678244e-08
-7.36511391457e-10
-6.72909117276e-08
-9.69243429891e-10
-6.68956481691e-08
-1.19796429827e-09
-6.64548715417e-08
-1.42224178396e-09
-6.59698529365e-08
-1.64166119133e-09
-6.54418003606e-08
-1.855819718e-09
-6.4872156034e-08
-2.06433071688e-09
-6.42622646884e-08
-2.26682898619e-09
-6.3613676367e-08
-2.46297577968e-09
-6.29278300315e-08
-2.65246290843e-09
-6.22063519317e-08
-2.83501586598e-09
-6.14507488727e-08
-3.01039605919e-09
-6.06626987198e-08
-3.1784022253e-09
-5.98437518546e-08
-3.33887119217e-09
-5.89956129863e-08
-3.49167802718e-09
-5.81198508286e-08
-3.63673573079e-09
-5.72181712092e-08
-3.77399446881e-09
-5.62921354167e-08
-3.90344050048e-09
-5.53434248133e-08
-4.02509474948e-09
-5.43735683375e-08
-4.13901118257e-09
-5.33841987844e-08
-4.24527491072e-09
-5.23767898755e-08
-4.34400019374e-09
-5.13529043144e-08
-4.4353282331e-09
-5.03139407358e-08
-4.51942494868e-09
-4.92613735438e-08
-4.59647860203e-09
-4.81965099648e-08
-4.66669747726e-09
-4.71207216166e-08
-4.73030745835e-09
-4.60352118147e-08
-4.78754972425e-09
-4.49412387421e-08
-4.83867838223e-09
-4.38398931025e-08
-4.88395827031e-09
-4.27323127245e-08
-4.92366272974e-09
-4.1619470615e-08
-4.95807158226e-09
-4.05023807807e-08
-4.98746909975e-09
-3.93818967124e-08
-5.01214220466e-09
-3.82589081935e-08
-5.03237867523e-09
-3.71341502359e-08
-5.04846559246e-09
-3.60083906207e-08
-5.06068779726e-09
-3.48822493049e-08
-5.06932659206e-09
-3.37563764496e-08
-5.07465845037e-09
-3.26312823223e-08
-5.0769539629e-09
-3.15075055646e-08
-5.0764767856e-09
-3.03854536255e-08
-5.07348281111e-09
-2.92655610461e-08
-5.06821933225e-09
-2.81481404696e-08
-5.06092440907e-09
-2.70335307357e-08
-5.05182621546e-09
-2.59219585278e-08
-5.04114256533e-09
-2.48136761059e-08
-5.0290803995e-09
-2.37088336758e-08
-5.01583541219e-09
-2.26076066223e-08
-5.00159159659e-09
-2.15100787435e-08
-4.98652084374e-09
-2.04163589344e-08
-4.97078232789e-09
-1.93264755844e-08
-4.95452168741e-09
-1.82404828963e-08
-4.93786954193e-09
-1.71583672021e-08
-4.92093896176e-09
-1.60801438823e-08
-4.90382076648e-09
-1.50057777616e-08
-4.88657503826e-09
-1.39352740472e-08
-4.86921562406e-09
-1.2868619253e-08
-4.85168232105e-09
-1.18058770509e-08
-4.83379129499e-09
-1.07471690028e-08
-4.81514790785e-09
-9.69280807007e-09
-4.79499517925e-09
-8.64337546983e-09
-4.77195378026e-09
-7.59998667032e-09
-4.74358152857e-09
-6.56462440748e-09
-4.70563715828e-09
-5.54080377479e-09
-4.65086816108e-09
-4.53460171496e-09
-4.56705359994e-09
-3.55642879408e-09
-4.43394181348e-09
-2.62381949859e-09
-4.2187625313e-09
-1.76561361436e-09
-3.87073079034e-09
-1.0267583561e-09
-3.31872102541e-09
-4.66968435088e-10
-2.4925170965e-09
-1.31968661328e-10
-1.42555653242e-09
-4.28173592648e-10
-1.52291309398e-09
7.0271979602e-09
-3.04755276724e-09
7.03211664871e-09
-4.57179173283e-09
7.04278484848e-09
-6.09584891931e-09
7.0569962026e-09
-7.62043369688e-09
7.07404001115e-09
-9.14629713692e-09
7.093731984e-09
-1.0673993328e-08
7.11596078348e-09
-1.22039625341e-08
7.1405538305e-09
-1.37363924165e-08
7.16726154545e-09
-1.52713728991e-08
7.19576590057e-09
-1.68087328571e-08
7.22569034756e-09
-1.83482361953e-08
7.2566058318e-09
-1.98893841784e-08
7.28803561313e-09
-2.14316476435e-08
7.31945930054e-09
-2.29742339975e-08
7.35031735374e-09
-2.4516352147e-08
7.38001629817e-09
-2.60569474549e-08
7.40793466801e-09
-2.75949963307e-08
7.43342985946e-09
-2.91292137846e-08
7.4558452487e-09
-3.06583742505e-08
7.47451776956e-09
-3.21809960083e-08
7.4887851175e-09
-3.36956844942e-08
7.49799290816e-09
-3.52007971946e-08
7.50150103586e-09
-3.66948057217e-08
7.49868970297e-09
-3.81759442298e-08
7.48896452724e-09
-3.96425868306e-08
7.4717612631e-09
-4.1092882209e-08
7.44654969612e-09
-4.25251433166e-08
7.4128372106e-09
-4.39374705449e-08
7.37017169515e-09
-4.53281509839e-08
7.31814416816e-09
-4.6695272263e-08
7.25639087046e-09
-4.80371289713e-08
7.18459507156e-09
-4.93518290558e-08
7.10248843036e-09
-5.06377052859e-08
7.00985203615e-09
-5.18929159349e-08
6.9065170765e-09
-5.31158594069e-08
6.79236515737e-09
-5.43047707651e-08
6.66732832568e-09
-5.54581378556e-08
6.53138873285e-09
-5.65742951381e-08
6.38457808416e-09
-5.76518398426e-08
6.22697674684e-09
-5.86892244492e-08
6.0587127387e-09
-5.96851716118e-08
5.87996041516e-09
-6.06382665509e-08
5.69093912608e-09
-6.1547369647e-08
5.49191161175e-09
-6.24112099108e-08
5.28318243004e-09
-6.32287943194e-08
5.06509613486e-09
-6.39990034658e-08
4.83803549544e-09
-6.47209968873e-08
4.60241943916e-09
-6.53938119211e-08
4.35870099536e-09
-6.60167644628e-08
4.10736490746e-09
-6.6589051997e-08
3.84892519604e-09
-6.71101493677e-08
3.58392236584e-09
-6.75794168333e-08
3.31292057314e-09
-6.79964905102e-08
3.0365044995e-09
-6.83608961311e-08
2.75527628199e-09
-6.86724338165e-08
2.46985227946e-09
-6.89307980089e-08
2.18086000778e-09
-6.91359562861e-08
1.88893500533e-09
-6.92877759891e-08
1.59471791484e-09
-6.93863972522e-08
1.29885149424e-09
-6.94318674009e-08
1.00197768456e-09
-6.94245087425e-08
7.04734217574e-10
-6.93645643612e-08
4.07753690013e-10
-6.92525654215e-08
1.11653414031e-10
-6.90888630647e-08
-1.8306330989e-10
-6.88745691577e-08
-4.75323299625e-10
-6.86103032553e-08
-7.64515022187e-10
-6.82969077413e-08
-1.04995594192e-09
-6.79351419756e-08
-1.33101487477e-09
-6.75260509302e-08
-1.60710086354e-09
-6.70706405672e-08
-1.87765543479e-09
-6.65701960169e-08
-2.14214809493e-09
-6.60259406198e-08
-2.40007639617e-09
-6.54393425255e-08
-2.65096836618e-09
-6.48117854035e-08
-2.89438577137e-09
-6.41448709339e-08
-3.12992736884e-09
-6.34401004151e-08
-3.35723184829e-09
-6.26991710867e-08
-3.57598021914e-09
-6.19236670113e-08
-3.78589765657e-09
-6.11153477853e-08
-3.98675468526e-09
-6.02758480648e-08
-4.17836784006e-09
-5.94069581004e-08
-4.36059969756e-09