/*--------------------------------*- C++ -*----------------------------------*\
| =========                 |                                                 |
| \\      /  F ield         | OpenFOAM: The Open Source CFD Toolbox           |
|  \\    /   O peration     | Version:  2206                                  |
|   \\  /    A nd           | Website:  www.openfoam.com                      |
|    \\/     M anipulation  |                                                 |
\*---------------------------------------------------------------------------*/
FoamFile
{
    version     2.0;
    format      ascii;
    arch        "LSB;label=64;scalar=64";
    class       volScalarField;
    location    "0.8/water";
    object      T.gas;
}
// * * * * * * * * * * * * * * * * * * * * * * * * * * * * * * * * * * * * * //

dimensions      [0 0 0 1 0 0 0];

internalField   nonuniform List<scalar> 
23300
(
332.999999554
332.999999553
332.999999543
332.999999531
332.999999519
332.999999508
332.999999497
332.999999487
332.999999478
332.999999469
332.999999461
332.999999454
332.999999448
332.999999442
332.999999438
332.999999434
332.999999431
332.99999943
332.999999429
332.99999943
332.999999432
332.999999435
332.999999439
332.999999444
332.999999451
332.999999458
332.999999467
332.999999476
332.999999487
332.999999499
332.999999511
332.999999525
332.999999539
332.999999555
332.999999571
332.999999588
332.999999605
332.999999623
332.999999642
332.999999661
332.999999681
332.999999701
332.999999722
332.999999743
332.999999764
332.999999785
332.999999807
332.999999829
332.99999985
332.999999872
332.999999894
332.999999915
332.999999937
332.999999958
332.999999979
333
333.000000021
333.000000042
333.000000063
333.000000083
333.000000104
333.000000124
333.000000144
333.000000164
333.000000184
333.000000204
333.000000224
333.000000243
333.000000263
333.000000283
333.000000302
333.000000321
333.00000034
333.000000358
333.000000375
333.000000391
333.000000405
333.000000417
333.000000422
333.000000418
333.000000407
333.000000394
333.000000386
333.000000371
333.000000343
333.00000035
333.000000345
333.000000343
333.000000479
333.000000562
333.000000596
333.000000612
333.000000623
333.000000633
333.000000643
333.000000652
333.00000066
333.000000668
333.000000675
333.000000681
333.000000687
333.000000693
333.000000698
333.000000703
333.000000707
333.00000071
333.000000714
333.000000716
333.000000719
333.000000721
333.000000722
333.000000723
333.000000724
333.000000724
333.000000724
333.000000724
333.000000724
333.000000723
333.000000722
333.00000072
333.000000718
333.000000716
333.000000714
333.000000712
333.000000709
333.000000706
333.000000703
333.000000699
333.000000695
333.000000691
333.000000685
333.000000678
333.000000667
333.000000652
333.000000629
333.000000591
333.000000531
333.000000439
333.000000317
333.000000203
332.999998898
332.999998899
332.999998897
332.999998894
332.999998893
332.999998892
332.999998892
332.999998893
332.999998894
332.999998895
332.999998897
332.9999989
332.999998904
332.999998908
332.999998913
332.999998919
332.999998927
332.999998935
332.999998945
332.999998956
332.999998968
332.999998981
332.999998995
332.999999011
332.999999028
332.999999047
332.999999067
332.999999087
332.99999911
332.999999133
332.999999158
332.999999183
332.99999921
332.999999238
332.999999267
332.999999297
332.999999328
332.999999359
332.999999392
332.999999425
332.999999459
332.999999493
332.999999528
332.999999564
332.999999599
332.999999636
332.999999672
332.999999709
332.999999747
332.999999784
332.999999821
332.999999859
332.999999897
332.999999934
332.999999972
333.00000001
333.000000048
333.000000086
333.000000124
333.000000162
333.0000002
333.000000238
333.000000276
333.000000315
333.000000354
333.000000394
333.000000434
333.000000474
333.000000515
333.000000557
333.000000599
333.00000064
333.000000681
333.000000722
333.000000762
333.000000802
333.00000084
333.000000878
333.000000915
333.00000095
333.000000984
333.000001017
333.00000105
333.000001083
333.000001115
333.000001149
333.000001182
333.000001218
333.000001255
333.000001289
333.000001319
333.000001346
333.000001372
333.000001397
333.000001422
333.000001445
333.000001467
333.000001488
333.000001508
333.000001528
333.000001546
333.000001564
333.000001581
333.000001597
333.000001612
333.000001626
333.00000164
333.000001653
333.000001666
333.000001677
333.000001688
333.000001699
333.000001709
333.000001718
333.000001727
333.000001735
333.000001743
333.000001751
333.000001758
333.000001764
333.000001771
333.000001776
333.000001782
333.000001787
333.000001792
333.000001796
333.0000018
333.000001803
333.000001805
333.000001805
333.000001803
333.000001795
333.00000178
333.000001751
333.000001698
333.000001606
333.00000145
333.000001193
333.000000824
333.000000459
332.999998
332.999998004
332.999998006
332.999998008
332.999998012
332.999998017
332.999998023
332.99999803
332.999998038
332.999998047
332.999998058
332.99999807
332.999998084
332.999998099
332.999998115
332.999998134
332.999998153
332.999998175
332.999998198
332.999998223
332.99999825
332.999998279
332.999998309
332.999998341
332.999998375
332.999998411
332.999998448
332.999998488
332.999998529
332.999998571
332.999998616
332.999998662
332.99999871
332.999998759
332.99999881
332.999998862
332.999998916
332.999998972
332.999999028
332.999999086
332.999999146
332.999999206
332.999999268
332.999999331
332.999999395
332.99999946
332.999999526
332.999999592
332.99999966
332.999999729
332.999999798
332.999999868
332.999999938
333.00000001
333.000000082
333.000000154
333.000000227
333.000000301
333.000000375
333.00000045
333.000000526
333.000000602
333.000000678
333.000000755
333.000000833
333.000000912
333.000000991
333.00000107
333.000001149
333.000001227
333.000001305
333.000001381
333.000001457
333.000001532
333.000001606
333.000001678
333.000001749
333.000001819
333.000001887
333.000001953
333.000002018
333.000002081
333.000002143
333.000002202
333.00000226
333.000002316
333.00000237
333.000002423
333.000002473
333.000002522
333.000002568
333.000002613
333.000002656
333.000002697
333.000002736
333.000002773
333.000002809
333.000002843
333.000002875
333.000002905
333.000002934
333.000002962
333.000002988
333.000003012
333.000003035
333.000003057
333.000003077
333.000003096
333.000003114
333.000003131
333.000003147
333.000003161
333.000003175
333.000003187
333.000003199
333.00000321
333.000003219
333.000003228
333.000003237
333.000003244
333.000003251
333.000003257
333.000003262
333.000003267
333.00000327
333.000003273
333.000003276
333.000003276
333.000003275
333.000003272
333.000003263
333.000003246
333.000003216
333.000003162
333.000003068
333.000002906
333.00000263
333.000002172
333.000001506
333.000000849
332.99999704
332.999997043
332.999997045
332.999997049
332.999997054
332.999997061
332.99999707
332.999997081
332.999997093
332.999997108
332.999997125
332.999997144
332.999997166
332.999997191
332.999997218
332.999997247
332.99999728
332.999997315
332.999997352
332.999997393
332.999997436
332.999997481
332.999997529
332.99999758
332.999997634
332.99999769
332.999997748
332.99999781
332.999997873
332.99999794
332.999998008
332.99999808
332.999998153
332.999998229
332.999998308
332.999998389
332.999998472
332.999998557
332.999998644
332.999998734
332.999998825
332.999998919
332.999999014
332.999999111
332.99999921
332.999999311
332.999999413
332.999999517
332.999999622
332.999999729
332.999999837
332.999999946
333.000000056
333.000000167
333.000000279
333.000000392
333.000000505
333.000000619
333.000000734
333.000000849
333.000000965
333.00000108
333.000001196
333.000001312
333.000001429
333.000001545
333.000001661
333.000001775
333.000001887
333.000001999
333.000002109
333.000002217
333.000002324
333.000002428
333.000002531
333.000002632
333.000002731
333.000002827
333.000002921
333.000003013
333.000003102
333.000003188
333.000003272
333.000003353
333.000003431
333.000003507
333.00000358
333.00000365
333.000003718
333.000003783
333.000003845
333.000003905
333.000003961
333.000004016
333.000004068
333.000004117
333.000004164
333.000004208
333.00000425
333.00000429
333.000004328
333.000004363
333.000004397
333.000004428
333.000004458
333.000004485
333.000004511
333.000004536
333.000004558
333.000004579
333.000004599
333.000004617
333.000004634
333.000004649
333.000004663
333.000004676
333.000004688
333.000004699
333.000004709
333.000004718
333.000004725
333.000004732
333.000004738
333.000004743
333.000004747
333.000004751
333.000004752
333.000004752
333.00000475
333.000004744
333.00000473
333.000004706
333.000004662
333.000004585
333.00000445
333.000004217
333.000003817
333.000003151
333.000002194
333.000001282
332.999996058
332.999996059
332.999996062
332.999996066
332.999996073
332.999996081
332.999996092
332.999996106
332.999996123
332.999996143
332.999996166
332.999996192
332.999996223
332.999996257
332.999996294
332.999996336
332.999996381
332.99999643
332.999996483
332.999996539
332.999996599
332.999996663
332.99999673
332.999996801
332.999996876
332.999996954
332.999997035
332.99999712
332.999997208
332.9999973
332.999997395
332.999997494
332.999997595
332.9999977
332.999997808
332.999997919
332.999998033
332.99999815
332.99999827
332.999998393
332.999998518
332.999998646
332.999998776
332.999998909
332.999999044
332.999999181
332.99999932
332.99999946
332.999999603
332.999999747
332.999999893
333.00000004
333.000000188
333.000000337
333.000000487
333.000000638
333.000000789
333.000000941
333.000001094
333.000001246
333.000001399
333.000001552
333.000001705
333.000001858
333.00000201
333.000002162
333.000002312
333.00000246
333.000002606
333.00000275
333.000002893
333.000003033
333.00000317
333.000003305
333.000003438
333.000003567
333.000003694
333.000003817
333.000003937
333.000004054
333.000004168
333.000004278
333.000004384
333.000004488
333.000004587
333.000004683
333.000004776
333.000004864
333.00000495
333.000005032
333.00000511
333.000005185
333.000005256
333.000005324
333.000005389
333.000005451
333.000005509
333.000005565
333.000005617
333.000005667
333.000005714
333.000005758
333.000005799
333.000005838
333.000005874
333.000005909
333.000005941
333.00000597
333.000005998
333.000006024
333.000006048
333.00000607
333.00000609
333.000006109
333.000006126
333.000006142
333.000006156
333.000006169
333.00000618
333.000006191
333.0000062
333.000006208
333.000006215
333.000006221
333.000006226
333.000006229
333.000006231
333.000006231
333.000006227
333.000006219
333.000006201
333.000006169
333.000006112
333.000006011
333.000005835
333.000005528
333.000004998
333.000004115
333.000002873
333.00000174
332.999995065
332.999995066
332.999995069
332.999995074
332.999995081
332.999995092
332.999995105
332.999995122
332.999995143
332.999995168
332.999995197
332.999995231
332.99999527
332.999995314
332.999995363
332.999995416
332.999995475
332.999995538
332.999995607
332.99999568
332.999995758
332.99999584
332.999995927
332.999996019
332.999996115
332.999996216
332.999996321
332.999996431
332.999996545
332.999996663
332.999996785
332.999996912
332.999997042
332.999997177
332.999997315
332.999997457
332.999997603
332.999997752
332.999997905
332.999998061
332.999998221
332.999998383
332.999998549
332.999998717
332.999998888
332.999999061
332.999999237
332.999999415
332.999999595
332.999999777
332.99999996
333.000000145
333.000000332
333.000000519
333.000000707
333.000000897
333.000001086
333.000001277
333.000001467
333.000001658
333.000001849
333.000002039
333.000002229
333.000002419
333.000002608
333.000002796
333.000002981
333.000003164
333.000003344
333.000003522
333.000003697
333.00000387
333.000004039
333.000004205
333.000004367
333.000004526
333.000004681
333.000004831
333.000004978
333.000005121
333.000005259
333.000005393
333.000005522
333.000005648
333.000005768
333.000005885
333.000005996
333.000006104
333.000006206
333.000006305
333.000006399
333.000006489
333.000006575
333.000006656
333.000006734
333.000006807
333.000006877
333.000006943
333.000007005
333.000007064
333.000007119
333.000007171
333.00000722
333.000007266
333.000007309
333.000007349
333.000007386
333.000007421
333.000007453
333.000007483
333.000007511
333.000007536
333.00000756
333.000007581
333.000007601
333.000007619
333.000007635
333.00000765
333.000007663
333.000007675
333.000007686
333.000007695
333.000007703
333.000007709
333.000007714
333.000007718
333.00000772
333.000007719
333.000007714
333.000007703
333.000007681
333.000007641
333.00000757
333.000007444
333.000007224
333.000006839
333.000006172
333.000005064
333.000003545
333.000002219
332.999994068
332.999994068
332.999994071
332.999994077
332.999994085
332.999994097
332.999994113
332.999994133
332.999994158
332.999994188
332.999994223
332.999994265
332.999994312
332.999994366
332.999994426
332.999994492
332.999994564
332.999994642
332.999994727
332.999994817
332.999994913
332.999995014
332.999995122
332.999995235
332.999995353
332.999995477
332.999995607
332.999995741
332.999995881
332.999996026
332.999996176
332.999996331
332.999996491
332.999996656
332.999996825
332.999996998
332.999997176
332.999997359
332.999997545
332.999997736
332.99999793
332.999998128
332.999998329
332.999998534
332.999998741
332.999998952
332.999999165
332.999999381
332.999999599
332.99999982
333.000000042
333.000000266
333.000000491
333.000000718
333.000000945
333.000001174
333.000001403
333.000001632
333.000001862
333.000002091
333.000002321
333.00000255
333.000002778
333.000003006
333.000003232
333.000003456
333.000003677
333.000003896
333.000004112
333.000004324
333.000004533
333.000004738
333.00000494
333.000005137
333.000005329
333.000005517
333.000005701
333.000005879
333.000006053
333.000006221
333.000006384
333.000006542
333.000006694
333.000006841
333.000006983
333.000007119
333.00000725
333.000007375
333.000007495
333.00000761
333.000007719
333.000007824
333.000007923
333.000008017
333.000008107
333.000008192
333.000008272
333.000008348
333.000008419
333.000008487
333.00000855
333.000008609
333.000008665
333.000008717
333.000008765
333.000008811
333.000008853
333.000008892
333.000008928
333.000008961
333.000008992
333.000009021
333.000009047
333.000009071
333.000009092
333.000009112
333.00000913
333.000009146
333.00000916
333.000009173
333.000009184
333.000009194
333.000009202
333.000009209
333.000009214
333.000009218
333.000009219
333.000009217
333.000009211
333.000009197
333.00000917
333.000009122
333.000009036
333.000008884
333.000008618
333.000008152
333.000007339
333.000005995
333.000004212
333.000002716
332.999993069
332.999993068
332.999993071
332.999993077
332.999993087
332.9999931
332.999993118
332.999993141
332.999993169
332.999993204
332.999993246
332.999993294
332.999993351
332.999993414
332.999993485
332.999993563
332.999993649
332.999993742
332.999993842
332.99999395
332.999994064
332.999994185
332.999994313
332.999994447
332.999994589
332.999994736
332.99999489
332.99999505
332.999995216
332.999995389
332.999995567
332.999995751
332.999995941
332.999996136
332.999996337
332.999996543
332.999996754
332.99999697
332.99999719
332.999997416
332.999997646
332.99999788
332.999998118
332.99999836
332.999998605
332.999998854
332.999999106
332.999999361
332.999999618
332.999999878
333.00000014
333.000000404
333.000000669
333.000000936
333.000001204
333.000001473
333.000001742
333.000002012
333.000002282
333.000002551
333.000002821
333.000003089
333.000003357
333.000003623
333.000003888
333.00000415
333.000004408
333.000004663
333.000004915
333.000005163
333.000005406
333.000005645
333.000005879
333.000006108
333.000006331
333.000006549
333.000006762
333.000006968
333.000007168
333.000007363
333.000007551
333.000007732
333.000007907
333.000008076
333.000008238
333.000008394
333.000008543
333.000008686
333.000008823
333.000008953
333.000009077
333.000009195
333.000009308
333.000009414
333.000009515
333.00000961
333.0000097
333.000009785
333.000009865
333.00000994
333.00001001
333.000010076
333.000010137
333.000010194
333.000010248
333.000010297
333.000010343
333.000010386
333.000010425
333.000010461
333.000010495
333.000010525
333.000010553
333.000010578
333.000010601
333.000010622
333.000010641
333.000010658
333.000010673
333.000010686
333.000010697
333.000010707
333.000010715
333.000010722
333.000010727
333.00001073
333.000010731
333.000010728
333.00001072
333.000010703
333.000010671
333.000010614
333.000010512
333.000010333
333.000010019
333.000009465
333.000008497
333.000006911
333.000004877
333.00000323
332.999992069
332.999992068
332.99999207
332.999992076
332.999992086
332.999992101
332.99999212
332.999992145
332.999992177
332.999992217
332.999992264
332.99999232
332.999992384
332.999992457
332.999992539
332.99999263
332.999992729
332.999992837
332.999992953
332.999993078
332.99999321
332.999993351
332.9999935
332.999993656
332.99999382
332.999993992
332.999994171
332.999994357
332.99999455
332.99999475
332.999994957
332.999995171
332.999995391
332.999995618
332.999995851
332.99999609
332.999996335
332.999996585
332.999996841
332.999997103
332.999997369
332.999997641
332.999997916
332.999998197
332.999998481
332.999998769
332.999999061
332.999999356
332.999999654
332.999999955
333.000000258
333.000000563
333.00000087
333.000001178
333.000001488
333.000001798
333.000002109
333.000002421
333.000002732
333.000003043
333.000003353
333.000003663
333.000003971
333.000004278
333.000004582
333.000004883
333.00000518
333.000005473
333.000005762
333.000006045
333.000006324
333.000006597
333.000006865
333.000007126
333.000007381
333.000007629
333.000007871
333.000008105
333.000008333
333.000008553
333.000008766
333.000008971
333.000009168
333.000009358
333.000009541
333.000009716
333.000009883
333.000010043
333.000010195
333.000010341
333.000010479
333.00001061
333.000010734
333.000010852
333.000010963
333.000011068
333.000011166
333.000011259
333.000011346
333.000011427
333.000011504
333.000011575
333.000011641
333.000011702
333.00001176
333.000011812
333.000011861
333.000011906
333.000011948
333.000011986
333.000012021
333.000012052
333.000012081
333.000012107
333.000012131
333.000012152
333.000012171
333.000012188
333.000012202
333.000012215
333.000012227
333.000012236
333.000012244
333.00001225
333.000012254
333.000012257
333.000012256
333.000012252
333.000012242
333.000012222
333.000012184
333.000012118
333.000012
333.000011792
333.000011425
333.000010779
333.000009646
333.000007812
333.000005543
333.00000376
332.999991069
332.999991067
332.999991069
332.999991075
332.999991085
332.9999911
332.999991121
332.999991148
332.999991183
332.999991226
332.999991279
332.999991341
332.999991413
332.999991496
332.999991588
332.999991691
332.999991804
332.999991926
332.999992059
332.999992201
332.999992352
332.999992512
332.999992682
332.999992861
332.999993048
332.999993244
332.999993448
332.999993661
332.999993882
332.99999411
332.999994347
332.999994591
332.999994843
332.999995102
332.999995368
332.999995641
332.999995921
332.999996207
332.9999965
332.999996798
332.999997102
332.999997412
332.999997727
332.999998047
332.999998372
332.999998701
332.999999033
332.99999937
332.99999971
333.000000053
333.000000399
333.000000747
333.000001097
333.000001448
333.000001801
333.000002155
333.00000251
333.000002864
333.000003219
333.000003573
333.000003926
333.000004278
333.000004628
333.000004977
333.000005322
333.000005663
333.000006
333.000006332
333.000006659
333.00000698
333.000007295
333.000007604
333.000007905
333.0000082
333.000008487
333.000008766
333.000009037
333.0000093
333.000009554
333.0000098
333.000010038
333.000010266
333.000010486
333.000010697
333.000010899
333.000011092
333.000011277
333.000011453
333.000011621
333.00001178
333.000011931
333.000012074
333.000012209
333.000012337
333.000012457
333.00001257
333.000012676
333.000012775
333.000012868
333.000012955
333.000013036
333.000013111
333.000013181
333.000013245
333.000013305
333.00001336
333.00001341
333.000013457
333.000013499
333.000013538
333.000013573
333.000013605
333.000013634
333.000013659
333.000013683
333.000013703
333.000013721
333.000013737
333.000013751
333.000013763
333.000013773
333.000013782
333.000013789
333.000013794
333.000013797
333.000013798
333.000013796
333.00001379
333.000013777
333.000013753
333.00001371
333.000013633
333.000013498
333.000013259
333.000012838
333.000012092
333.000010784
333.000008701
333.000006211
333.000004303
332.999990071
332.999990067
332.999990069
332.999990074
332.999990084
332.999990098
332.999990119
332.999990148
332.999990185
332.999990232
332.999990289
332.999990358
332.999990438
332.999990529
332.999990632
332.999990746
332.999990873
332.99999101
332.999991158
332.999991318
332.999991488
332.999991669
332.99999186
332.999992061
332.999992272
332.999992493
332.999992723
332.999992963
332.999993212
332.99999347
332.999993737
332.999994012
332.999994296
332.999994589
332.999994889
332.999995197
332.999995513
332.999995836
332.999996166
332.999996503
332.999996847
332.999997196
332.999997552
332.999997913
332.999998279
332.999998651
332.999999026
332.999999406
332.99999979
333.000000177
333.000000567
333.00000096
333.000001355
333.000001752
333.00000215
333.000002549
333.000002948
333.000003348
333.000003747
333.000004146
333.000004544
333.00000494
333.000005335
333.000005727
333.000006115
333.000006498
333.000006877
333.000007249
333.000007616
333.000007975
333.000008328
333.000008673
333.000009009
333.000009338
333.000009657
333.000009968
333.000010269
333.000010561
333.000010842
333.000011114
333.000011376
333.000011628
333.000011869
333.0000121
333.000012321
333.000012532
333.000012734
333.000012925
333.000013106
333.000013278
333.000013441
333.000013595
333.000013739
333.000013875
333.000014003
333.000014123
333.000014235
333.00001434
333.000014437
333.000014527
333.000014611
333.000014689
333.000014761
333.000014827
333.000014887
333.000014943
333.000014994
333.00001504
333.000015082
333.00001512
333.000015154
333.000015185
333.000015212
333.000015237
333.000015258
333.000015277
333.000015294
333.000015308
333.00001532
333.00001533
333.000015339
333.000015346
333.000015351
333.000015354
333.000015355
333.000015355
333.000015351
333.000015343
333.000015327
333.000015299
333.000015249
333.000015162
333.000015008
333.000014736
333.000014257
333.000013406
333.000011912
333.000009578
333.000006883
333.000004861
332.999989073
332.999989069
332.999989069
332.999989073
332.999989082
332.999989096
332.999989116
332.999989145
332.999989184
332.999989234
332.999989295
332.999989369
332.999989456
332.999989556
332.999989669
332.999989796
332.999989935
332.999990087
332.999990252
332.999990429
332.999990618
332.999990819
332.999991032
332.999991256
332.999991491
332.999991738
332.999991995
332.999992263
332.999992541
332.999992829
332.999993127
332.999993435
332.999993752
332.999994079
332.999994415
332.999994759
332.999995112
332.999995474
332.999995843
332.99999622
332.999996604
332.999996995
332.999997393
332.999997797
332.999998207
332.999998623
332.999999043
332.999999468
332.999999898
333.000000331
333.000000768
333.000001207
333.000001649
333.000002093
333.000002538
333.000002985
333.000003432
333.000003879
333.000004325
333.000004771
333.000005216
333.000005659
333.0000061
333.000006538
333.00000697
333.000007398
333.000007819
333.000008234
333.000008642
333.000009041
333.000009433
333.000009815
333.000010188
333.000010551
333.000010904
333.000011246
333.000011578
333.000011898
333.000012207
333.000012505
333.000012791
333.000013065
333.000013328
333.000013578
333.000013818
333.000014045
333.000014262
333.000014467
333.000014661
333.000014844
333.000015017
333.000015179
333.000015332
333.000015475
333.000015609
333.000015733
333.000015849
333.000015957
333.000016057
333.000016149
333.000016235
333.000016313
333.000016385
333.00001645
333.00001651
333.000016565
333.000016614
333.000016659
333.000016699
333.000016734
333.000016766
333.000016794
333.000016819
333.000016841
333.00001686
333.000016876
333.000016889
333.000016901
333.00001691
333.000016918
333.000016923
333.000016927
333.00001693
333.000016931
333.00001693
333.000016927
333.000016921
333.00001691
333.000016891
333.000016858
333.000016801
333.000016702
333.000016528
333.000016223
333.000015682
333.000014717
333.000013029
333.000010446
333.000007558
333.000005431
332.999988078
332.999988073
332.999988071
332.999988073
332.99998808
332.999988092
332.999988112
332.99998814
332.99998818
332.999988231
332.999988296
332.999988375
332.999988468
332.999988577
332.9999887
332.999988838
332.99998899
332.999989157
332.999989338
332.999989533
332.999989742
332.999989964
332.999990199
332.999990446
332.999990707
332.999990979
332.999991264
332.99999156
332.999991868
332.999992188
332.999992518
332.99999286
332.999993212
332.999993574
332.999993947
332.999994329
332.999994721
332.999995122
332.999995532
332.99999595
332.999996377
332.999996812
332.999997254
332.999997703
332.999998158
332.99999862
332.999999087
332.99999956
333.000000037
333.000000519
333.000001005
333.000001493
333.000001985
333.000002478
333.000002973
333.00000347
333.000003967
333.000004464
333.00000496
333.000005456
333.00000595
333.000006442
333.000006932
333.000007417
333.000007897
333.000008371
333.000008838
333.000009297
333.000009748
333.000010189
333.000010621
333.000011042
333.000011452
333.000011851
333.000012238
333.000012613
333.000012975
333.000013325
333.000013661
333.000013984
333.000014294
333.00001459
333.000014873
333.000015142
333.000015398
333.000015641
333.000015871
333.000016089
333.000016293
333.000016486
333.000016667
333.000016837
333.000016995
333.000017143
333.00001728
333.000017407
333.000017525
333.000017634
333.000017734
333.000017826
333.000017911
333.000017987
333.000018057
333.00001812
333.000018178
333.000018229
333.000018275
333.000018316
333.000018352
333.000018383
333.000018411
333.000018435
333.000018455
333.000018473
333.000018487
333.000018499
333.000018509
333.000018516
333.000018521
333.000018525
333.000018527
333.000018528
333.000018527
333.000018524
333.00001852
333.000018514
333.000018505
333.000018491
333.000018468
333.00001843
333.000018365
333.000018254
333.00001806
333.000017718
333.000017112
333.000016027
333.000014134
333.000011307
333.000008239
333.000006013
332.999987087
332.99998708
332.999987075
332.999987075
332.999987079
332.999987088
332.999987106
332.999987133
332.999987172
332.999987224
332.999987291
332.999987375
332.999987474
332.99998759
332.999987722
332.999987872
332.999988037
332.999988219
332.999988417
332.99998863
332.999988858
332.999989101
332.999989359
332.999989631
332.999989917
332.999990216
332.999990529
332.999990856
332.999991195
332.999991546
332.999991911
332.999992287
332.999992675
332.999993074
332.999993485
332.999993907
332.999994339
332.999994782
332.999995235
332.999995697
332.999996168
332.999996648
332.999997136
332.999997632
332.999998136
332.999998646
332.999999163
332.999999686
333.000000214
333.000000747
333.000001284
333.000001824
333.000002368
333.000002914
333.000003462
333.000004012
333.000004561
333.000005111
333.000005661
333.000006209
333.000006755
333.000007299
333.000007841
333.000008378
333.000008908
333.00000943
333.000009945
333.00001045
333.000010946
333.000011431
333.000011905
333.000012367
333.000012816
333.000013251
333.000013673
333.000014081
333.000014475
333.000014853
333.000015216
333.000015565
333.000015897
333.000016215
333.000016517
333.000016803
333.000017075
333.000017331
333.000017573
333.000017801
333.000018015
333.000018214
333.000018401
333.000018575
333.000018737
333.000018886
333.000019025
333.000019152
333.000019269
333.000019377
333.000019474
333.000019563
333.000019644
333.000019717
333.000019782
333.00001984
333.000019892
333.000019938
333.000019978
333.000020013
333.000020043
333.000020069
333.00002009
333.000020108
333.000020123
333.000020134
333.000020142
333.000020148
333.000020152
333.000020154
333.000020154
333.000020152
333.00002015
333.000020145
333.00002014
333.000020134
333.000020126
333.000020116
333.000020103
333.000020085
333.000020057
333.000020014
333.000019941
333.000019817
333.000019601
333.000019221
333.000018545
333.000017332
333.000015228
333.00001216
333.000008926
333.000006606
332.9999861
332.99998609
332.999986083
332.999986079
332.999986079
332.999986085
332.999986098
332.999986123
332.99998616
332.999986212
332.999986281
332.999986367
332.999986472
332.999986595
332.999986736
332.999986897
332.999987075
332.999987272
332.999987486
332.999987718
332.999987966
332.999988231
332.999988512
332.999988809
332.999989122
332.999989449
332.999989792
332.999990149
332.99999052
332.999990906
332.999991305
332.999991717
332.999992143
332.999992581
332.999993032
332.999993495
332.99999397
332.999994456
332.999994953
332.999995461
332.999995979
332.999996507
332.999997044
332.99999759
332.999998144
332.999998706
332.999999275
332.999999851
333.000000433
333.00000102
333.000001612
333.000002207
333.000002807
333.000003409
333.000004013
333.000004618
333.000005225
333.000005831
333.000006437
333.000007041
333.000007643
333.000008243
333.00000884
333.00000943
333.000010014
333.000010588
333.000011154
333.000011709
333.000012252
333.000012783
333.000013301
333.000013805
333.000014294
333.000014768
333.000015226
333.000015668
333.000016093
333.0000165
333.000016891
333.000017263
333.000017619
333.000017956
333.000018276
333.000018578
333.000018863
333.000019131
333.000019382
333.000019618
333.000019837
333.000020041
333.00002023
333.000020405
333.000020567
333.000020715
333.000020851
333.000020976
333.000021088
333.000021191
333.000021283
333.000021366
333.00002144
333.000021505
333.000021563
333.000021614
333.000021657
333.000021695
333.000021727
333.000021753
333.000021775
333.000021792
333.000021805
333.000021814
333.000021821
333.000021824
333.000021825
333.000021823
333.000021819
333.000021814
333.000021807
333.000021799
333.00002179
333.00002178
333.000021769
333.000021757
333.000021744
333.00002173
333.000021712
333.00002169
333.000021657
333.000021607
333.000021526
333.000021388
333.00002115
333.00002073
333.000019981
333.000018632