/*--------------------------------*- C++ -*----------------------------------*\
| =========                 |                                                 |
| \\      /  F ield         | OpenFOAM: The Open Source CFD Toolbox           |
|  \\    /   O peration     | Version:  2212                                  |
|   \\  /    A nd           | Website:  www.openfoam.com                      |
|    \\/     M anipulation  |                                                 |
\*---------------------------------------------------------------------------*/
FoamFile
{
    version     2.0;
    format      ascii;
    arch        "LSB;label=64;scalar=64";
    class       volScalarField;
    location    "1420";
    object      Gco2;
}
// * * * * * * * * * * * * * * * * * * * * * * * * * * * * * * * * * * * * * //

dimensions      [1 -3 0 0 0 0 0];

internalField   nonuniform List<scalar> 
1024
(
0.0582161
0.0581943
0.0581407
0.0580434
0.057889
0.0576655
0.0573664
0.0569945
0.0565647
0.0561043
0.0556484
0.0552323
0.0548801
0.0546056
0.054417
0.0543288
0.0543901
0.0546325
0.0550255
0.0555448
0.0561658
0.0568537
0.0575595
0.0582299
0.0588204
0.0593055
0.059679
0.0599491
0.0601318
0.0602456
0.0603078
0.0603332
0.0582087
0.0581865
0.0581322
0.0580332
0.0578761
0.057649
0.0573455
0.0569687
0.0565345
0.0560702
0.0556116
0.0551948
0.0548435
0.0545706
0.0543838
0.0542971
0.0543596
0.0546028
0.0549959
0.0555146
0.0561349
0.0568228
0.0575303
0.058204
0.058799
0.0592889
0.0596667
0.0599401
0.060125
0.0602402
0.0603032
0.0603288
0.0581907
0.058168
0.0581121
0.0580101
0.0578479
0.0576135
0.0573005
0.0569127
0.0564665
0.0559902
0.0555218
0.0551007
0.0547503
0.0544816
0.0543002
0.0542189
0.0542866
0.0545345
0.0549305
0.0554498
0.0560694
0.0567575
0.0574681
0.0581485
0.0587527
0.0592525
0.0596392
0.0599196
0.0601095
0.0602276
0.0602922
0.0603184
0.0581585
0.0581351
0.0580772
0.057971
0.0578017
0.0575562
0.057228
0.0568209
0.0563513
0.0558494
0.0553584
0.0549251
0.0545743
0.0543134
0.0541434
0.0540745
0.0541556
0.0544171
0.0548234
0.0553477
0.0559686
0.0566578
0.0573731
0.0580629
0.0586804
0.0591948
0.059595
0.0598861
0.0600835
0.0602063
0.0602733
0.0603005
0.0581074
0.0580834
0.0580234
0.0579124
0.0577341
0.0574739
0.0571237
0.0566862
0.0561774
0.0556304
0.0550975
0.0546393
0.0542845
0.054035
0.0538846
0.0538392
0.0539481
0.054239
0.0546695
0.0552088
0.0558366
0.0565296
0.0572509
0.057952
0.0585856
0.0591181
0.0595351
0.0598399
0.0600469
0.0601757
0.0602458
0.0602743
0.058031
0.0580067
0.0579449
0.0578288
0.05764
0.0573612
0.0569812
0.0564996
0.0559315
0.0553144
0.0547156
0.0542147
0.0538481
0.0536128
0.0534918
0.0534851
0.053643
0.0539882
0.0544656
0.0550372
0.055683
0.0563856
0.0571153
0.0578285
0.0584787
0.05903
0.059465
0.0597843
0.0600018
0.0601371
0.0602108
0.0602406
0.0579198
0.0578954
0.0578321
0.0577111
0.0575107
0.0572094
0.0567906
0.0562493
0.0555989
0.0548843
0.0541927
0.0536274
0.0532376
0.0530164
0.0529344
0.0529852
0.0532209
0.0536552
0.0542125
0.0548424
0.0555241
0.0562467
0.0569889
0.0577141
0.0583786
0.0589456
0.0593957
0.0597275
0.0599538
0.0600947
0.0601713
0.0602022
0.0577578
0.0577338
0.0576696
0.0575438
0.0573306
0.0570026
0.056536
0.0559188
0.0551634
0.0543248
0.053515
0.0528634
0.0524365
0.052226
0.052191
0.0523203
0.0526697
0.0532377
0.0539177
0.0546409
0.0553837
0.0561414
0.0569025
0.0576387
0.0583117
0.0588868
0.059344
0.0596815
0.0599118
0.0600551
0.0601328
0.0601641
0.0575199
0.0574963
0.0574314
0.0573005
0.0570731
0.0567144
0.0561912
0.0554836
0.0546036
0.0536206
0.0526738
0.0519192
0.0514425
0.0512376
0.0512552
0.0514844
0.0519883
0.0527422
0.0535961
0.0544554
0.0552903
0.0561025
0.0568903
0.0576355
0.0583078
0.0588777
0.0593286
0.05966
0.0598854
0.060025
0.0601005
0.0601309
0.057167
0.0571437
0.0570773
0.05694
0.0566957
0.0563012
0.0557135
0.0549042
0.0538868
0.0527494
0.051659
0.0507962
0.0502643
0.0500607
0.0501333
0.0504806
0.051178
0.052171
0.0532545
0.0542987
0.0552626
0.0561526
0.0569765
0.0577275
0.0583864
0.0589336
0.0593596
0.0596685
0.0598758
0.0600027
0.0600704
0.0600973
0.0566455
0.0566214
0.0565514
0.056404
0.0561372
0.0556996
0.055039
0.0541208
0.0529639
0.051677
0.0504529
0.0494924
0.0489095
0.0487035
0.0488252
0.0492923
0.0501996
0.0514656
0.0528255
0.0541099
0.0552517
0.0562542
0.0571319
0.0578902
0.0585249
0.0590312
0.0594113
0.0596774
0.0598491
0.0599493
0.0599998
0.0600184
0.0558937
0.0558671
0.0557896
0.0556256
0.055327
0.0548354
0.0540922
0.0530623
0.0517751
0.0503597
0.0490291
0.0479948
0.0473696
0.0471467
0.0472828
0.0478202
0.0488788
0.0503741
0.0520137
0.0535904
0.0549809
0.0561608
0.0571427
0.0579386
0.0585595
0.0590195
0.0593375
0.0595383
0.05965
0.0597014
0.0597181
0.0597197
0.0548664
0.0548351
0.0547449
0.0545555
0.054213
0.0536537
0.0528173
0.0516753
0.0502735
0.0487614
0.0473625
0.0462801
0.0456048
0.0453109
0.0453576
0.045804
0.0467965
0.0483008
0.0500664
0.0518775
0.0535616
0.0550222
0.0562319
0.0571773
0.0578677
0.0583293
0.0585999
0.0587253
0.0587542
0.0587319
0.0586952
0.0586698
0.0535775
0.0535394
0.053431
0.0532062
0.0528052
0.0521613
0.0512181
0.0499631
0.0484655
0.0468923
0.0454584
0.0443298
0.0435491
0.0430597
0.0428107
0.04285
0.0433366
0.0443461
0.0457609
0.0474191
0.0491546
0.0508273
0.0523421
0.0536104
0.0545861
0.055255
0.0556373
0.0557915
0.055799
0.0557361
0.0556623
0.0556158
0.0521561
0.0521115
0.0519854
0.0517265
0.0512707
0.0505512
0.0495204
0.048182
0.0466204
0.0450001
0.0435077
0.0422609
0.0412554
0.040404
0.0396279
0.0389189
0.0384083
0.0382838
0.0386049
0.0393226
0.0403633
0.0416369
0.043036
0.0444442
0.0457555
0.0468683
0.0477082
0.0482561
0.0485531
0.0486719
0.048692
0.0486797
0.0508315
0.0507847
0.0506536
0.0503863
0.0499193
0.0491885
0.0481503
0.0468093
0.04524
0.0435821
0.0419915
0.0405651
0.0392913
0.0380767
0.0368154
0.0354274
0.0339676
0.0326362
0.0315888
0.0308742
0.0305314
0.0305786
0.031005
0.031764
0.0327651
0.0338845
0.034985
0.0359401
0.0366636
0.0371308
0.0373758
0.0374641
0.0498645
0.0498197
0.0496967
0.0494491
0.0490192
0.0483474
0.0473893
0.0461399
0.0446535
0.0430444
0.0414547
0.0399931
0.0386848
0.0374726
0.0362602
0.0349322
0.0334346
0.0318171
0.0301807
0.0286031
0.0271828
0.0260126
0.0251675
0.0246938
0.0245981
0.0248401
0.0253306
0.0259426
0.0265378
0.0270091
0.0273067
0.0274363
0.0493172
0.0492755
0.0491644
0.0489457
0.0485705
0.0479861
0.0471491
0.046046
0.0447127
0.0432421
0.0417661
0.0404113
0.0392504
0.0382831
0.0374516
0.036643
0.0357066
0.0344817
0.0329458
0.0311659
0.0292786
0.0274353
0.0257756
0.0244079
0.0233962
0.0227552
0.0224526
0.0224155
0.0225429
0.0227273
0.022883
0.0229647
0.0490683
0.0490293
0.0489292
0.0487375
0.0484146
0.047916
0.0472018
0.0462539
0.045094
0.0437954
0.042475
0.0412633
0.0402619
0.0395134
0.038994
0.0386006
0.0381223
0.037275
0.0359464
0.0341446
0.0319942
0.0296812
0.0274188
0.0254002
0.0237601
0.022556
0.0217744
0.0213492
0.021184
0.0211723
0.0212189
0.0212577
0.0489987
0.0489626
0.0488726
0.0487043
0.0484265
0.0480028
0.0473989
0.046596
0.0456059
0.0444844
0.0433292
0.04226
0.0413846
0.0407654
0.0403982
0.0401877
0.0398995
0.0392281
0.0380511
0.0363356
0.0341468
0.031626
0.0289863
0.0264713
0.0242962
0.0225941
0.0214011
0.0206705
0.020302
0.0201723
0.0201633
0.0201846
0.0490125
0.0489813
0.0489037
0.0487596
0.0485233
0.0481652
0.0476572
0.0469825
0.0461478
0.0451941
0.0441979
0.0432575
0.0424679
0.0418899
0.041524
0.0412791
0.0409336
0.0402358
0.0390946
0.0374645
0.0353601
0.0328571
0.0301114
0.0273504
0.0248228
0.0227274
0.0211676
0.0201434
0.0195735
0.0193295
0.0192718
0.0192813
0.0489971
0.0489759
0.04892
0.0488103
0.0486227
0.048331
0.0479114
0.0473497
0.0466499
0.045841
0.0449776
0.0441314
0.0433733
0.0427497
0.0422569
0.0418093
0.0412337
0.0403776
0.0391891
0.0376138
0.0356303
0.0332636
0.0306078
0.0278335
0.0251647
0.022828
0.0209881
0.0197067
0.0189426
0.0185804
0.0184702
0.0184675
0.0488032
0.0488014
0.0487843
0.0487307
0.0486126
0.048401
0.0480712
0.047609
0.0470151
0.0463072
0.0455201
0.0447002
0.043895
0.0431358
0.0424161
0.0416631
0.0407767
0.039716
0.0384598
0.0369398
0.0351039
0.0329346
0.0304784
0.0278533
0.0252329
0.022821
0.0208121
0.0193302
0.0183907
0.0179101
0.0177427
0.0177258
0.0482559
0.0482854
0.0483291
0.0483587
0.0483361
0.0482212
0.0479808
0.0475948
0.047058
0.0463794
0.045581
0.0446949
0.043756
0.0427896
0.0417941
0.0407165
0.0395338
0.0382993
0.0370069
0.0355709
0.0339167
0.0319946
0.0298092
0.0274312
0.0249895
0.0226492
0.0205942
0.0189866
0.0179037
0.0173108
0.0170828
0.0170492
0.0471869
0.0472598
0.0473824
0.0475119
0.0475932
0.0475694
0.0473926
0.0470324
0.046479
0.0457406
0.0448398
0.0438092
0.0426849
0.0414958
0.0402498
0.0389143
0.0375275
0.0362022
0.034934
0.0336227
0.0321802
0.0305389
0.0286726
0.0266105
0.0244357
0.0222758
0.0202896
0.0186449
0.0174658
0.0167758
0.0164865
0.0164334
0.0454688
0.0455934
0.0457958
0.0460077
0.0461545
0.0461662
0.0459841
0.0455717
0.0449236
0.0440581
0.0430091
0.041819
0.0405312
0.0391798
0.0377807
0.0363159
0.0348589
0.0335463
0.0323686
0.0312191
0.0300062
0.0286578
0.0271308
0.0254235
0.0235788
0.0216821
0.0198604
0.01827
0.017057
0.0162968
0.0159506
0.0158754
0.0430267
0.043202
0.0434522
0.0436749
0.0437875
0.0437278
0.0434448
0.0429091
0.0421295
0.0411368
0.039975
0.0386933
0.0373381
0.0359444
0.0345306
0.0330863
0.0316959
0.0304922
0.0294602
0.0284973
0.0275178
0.0264541
0.0252591
0.0239139
0.0224309
0.0208567
0.0192786
0.0178276
0.0166524
0.015863
0.0154718
0.0153735
0.0398209
0.0400286
0.0402476
0.0403558
0.0403006
0.0400606
0.0396112
0.0389419
0.0380715
0.0370317
0.035865
0.0346173
0.0333297
0.0320326
0.0307423
0.0294516
0.0282385
0.0272162
0.0263665
0.0256005
0.0248453
0.0240439
0.0231537
0.0221495
0.0210267
0.0198026
0.0185256
0.017289
0.0162249
0.0154588
0.0150454
0.0149261
0.0358073
0.0359977
0.0360609
0.0359238
0.0356148
0.0351652
0.0345769
0.0338509
0.0329989
0.03204
0.031004
0.0299247
0.0288328
0.0277508
0.026691
0.0256482
0.0246845
0.0238865
0.0232369
0.0226659
0.0221174
0.0215477
0.0209231
0.0202204
0.0194285
0.0185483
0.0175989
0.0166335
0.0157498
0.0150666
0.0146647
0.0145321
0.0308874
0.0309648
0.0307552
0.0303492
0.0298481
0.0292963
0.0286979
0.0280492
0.0273461
0.026592
0.0258008
0.0249921
0.0241852
0.0233948
0.022629
0.0218842
0.0212036
0.0206461
0.0201983
0.0198116
0.0194475
0.0190765
0.0186749
0.0182258
0.0177187
0.0171488
0.0165194
0.0158526
0.0152051
0.0146659
0.0143193
0.0141892
0.0248646
0.0247238
0.0243075
0.0238393
0.0233728
0.0229213
0.0224805
0.0220403
0.0215889
0.0211209
0.0206395
0.0201532
0.0196721
0.0192041
0.0187536
0.0183186
0.0179239
0.0176025
0.0173462
0.0171275
0.0169245
0.0167205
0.0165022
0.0162597
0.0159865
0.0156785
0.0153341
0.0149594
0.0145777
0.0142367
0.0139957
0.0138926
0.0174932
0.0173805
0.0171642
0.0169583
0.016769
0.0165953
0.016434
0.0162796
0.0161261
0.0159699
0.015811
0.0156515
0.0154943
0.0153419
0.0151957
0.0150551
0.0149279
0.0148246
0.0147426
0.0146729
0.0146087
0.0145447
0.0144767
0.0144016
0.0143173
0.0142224
0.0141161
0.0139993
0.0138775
0.0137636
0.0136764
0.0136342
)
;

boundaryField
{
    movingWall
    {
        type            fixedValue;
        value           uniform 0.0135;
    }
    fixedWalls
    {
        type            zeroGradient;
    }
    floor
    {
        type            zeroGradient;
    }
    frontAndBack
    {
        type            empty;
    }
}


// ************************************************************************* //
