/*--------------------------------*- C++ -*----------------------------------*\
| =========                 |                                                 |
| \\      /  F ield         | OpenFOAM: The Open Source CFD Toolbox           |
|  \\    /   O peration     | Version:  2212                                  |
|   \\  /    A nd           | Website:  www.openfoam.com                      |
|    \\/     M anipulation  |                                                 |
\*---------------------------------------------------------------------------*/
FoamFile
{
    version     2.0;
    format      ascii;
    arch        "LSB;label=64;scalar=64";
    class       volScalarField;
    location    "1420";
    object      Xli;
}
// * * * * * * * * * * * * * * * * * * * * * * * * * * * * * * * * * * * * * //

dimensions      [1 -3 0 0 0 0 0];

internalField   nonuniform List<scalar> 
1024
(
0.0423198
0.0423205
0.0423223
0.0423255
0.0423306
0.042338
0.0423478
0.0423601
0.0423742
0.0423893
0.0424042
0.0424177
0.042429
0.0424376
0.0424432
0.0424452
0.0424422
0.0424334
0.0424198
0.0424022
0.0423813
0.0423581
0.0423342
0.0423114
0.0422914
0.0422748
0.0422621
0.0422529
0.0422466
0.0422427
0.0422406
0.0422397
0.04232
0.0423207
0.0423225
0.0423258
0.042331
0.0423385
0.0423485
0.0423609
0.0423752
0.0423904
0.0424054
0.0424189
0.0424301
0.0424387
0.0424442
0.0424462
0.0424432
0.0424343
0.0424208
0.0424032
0.0423823
0.0423591
0.0423351
0.0423123
0.0422921
0.0422754
0.0422625
0.0422532
0.0422469
0.0422429
0.0422408
0.0422399
0.0423206
0.0423214
0.0423232
0.0423266
0.0423319
0.0423397
0.04235
0.0423628
0.0423774
0.042393
0.0424083
0.0424219
0.0424331
0.0424415
0.0424468
0.0424487
0.0424454
0.0424365
0.0424228
0.0424053
0.0423844
0.0423612
0.0423372
0.0423141
0.0422936
0.0422766
0.0422634
0.0422539
0.0422474
0.0422433
0.0422411
0.0422402
0.0423217
0.0423224
0.0423244
0.0423279
0.0423335
0.0423416
0.0423524
0.0423658
0.0423812
0.0423976
0.0424135
0.0424275
0.0424387
0.0424468
0.0424518
0.0424532
0.0424495
0.0424401
0.0424261
0.0424085
0.0423876
0.0423644
0.0423403
0.042317
0.042296
0.0422785
0.0422649
0.042255
0.0422482
0.042244
0.0422417
0.0422408
0.0423234
0.0423242
0.0423261
0.0423298
0.0423357
0.0423443
0.0423558
0.0423701
0.0423868
0.0424046
0.0424219
0.0424367
0.042448
0.0424556
0.0424599
0.0424605
0.0424559
0.0424455
0.0424309
0.0424128
0.0423918
0.0423685
0.0423443
0.0423206
0.0422991
0.0422811
0.0422669
0.0422565
0.0422494
0.042245
0.0422426
0.0422417
0.0423259
0.0423267
0.0423287
0.0423326
0.0423388
0.0423479
0.0423604
0.0423762
0.0423948
0.0424149
0.0424342
0.0424503
0.0424618
0.042469
0.0424721
0.0424714
0.0424651
0.0424531
0.042437
0.042418
0.0423965
0.0423731
0.0423486
0.0423246
0.0423026
0.0422839
0.0422692
0.0422583
0.0422509
0.0422463
0.0422438
0.0422428
0.0423296
0.0423304
0.0423324
0.0423364
0.042343
0.0423529
0.0423666
0.0423844
0.0424056
0.0424287
0.042451
0.0424691
0.0424812
0.0424877
0.0424895
0.0424867
0.0424779
0.0424629
0.0424444
0.0424237
0.0424012
0.0423773
0.0423525
0.0423282
0.0423058
0.0422867
0.0422714
0.0422601
0.0422524
0.0422476
0.042245
0.042244
0.0423349
0.0423357
0.0423378
0.0423419
0.0423489
0.0423597
0.042375
0.0423951
0.0424197
0.0424468
0.0424728
0.0424934
0.0425065
0.0425124
0.0425124
0.0425069
0.0424943
0.0424751
0.0424528
0.0424292
0.042405
0.0423801
0.0423549
0.0423304
0.0423078
0.0422884
0.042273
0.0422615
0.0422537
0.0422488
0.0422462
0.0422451
0.0423428
0.0423436
0.0423457
0.04235
0.0423574
0.0423691
0.0423862
0.0424093
0.0424378
0.0424694
0.0424997
0.0425234
0.0425378
0.0425431
0.0425411
0.042532
0.0425143
0.0424892
0.0424615
0.0424339
0.0424069
0.0423805
0.0423547
0.04233
0.0423075
0.0422884
0.0422732
0.042262
0.0422544
0.0422496
0.0422471
0.042246
0.0423545
0.0423552
0.0423574
0.0423619
0.0423698
0.0423827
0.0424018
0.0424281
0.0424609
0.0424974
0.042532
0.0425588
0.0425746
0.0425794
0.0425751
0.0425619
0.0425378
0.0425051
0.0424703
0.0424371
0.0424063
0.0423777
0.0423509
0.0423262
0.0423043
0.0422861
0.0422718
0.0422614
0.0422543
0.04225
0.0422477
0.0422468
0.0423717
0.0423725
0.0423747
0.0423795
0.0423882
0.0424024
0.0424238
0.0424535
0.0424907
0.0425318
0.0425703
0.0425998
0.0426166
0.0426209
0.0426145
0.042597
0.042566
0.0425246
0.0424813
0.0424407
0.0424046
0.0423726
0.0423444
0.0423197
0.0422988
0.0422821
0.0422694
0.0422604
0.0422546
0.0422511
0.0422494
0.0422487
0.0423965
0.0423974
0.0423999
0.0424052
0.0424148
0.0424307
0.0424547
0.0424878
0.042529
0.0425738
0.0426152
0.0426465
0.042664
0.0426682
0.0426608
0.0426406
0.0426046
0.0425559
0.0425037
0.0424541
0.0424104
0.0423731
0.0423419
0.0423163
0.0422962
0.0422811
0.0422705
0.0422638
0.0422599
0.042258
0.0422573
0.0422572
0.0424304
0.0424314
0.0424343
0.0424404
0.0424514
0.0424693
0.0424962
0.0425326
0.0425771
0.0426245
0.0426675
0.0426997
0.0427182
0.0427241
0.042719
0.0427013
0.042667
0.0426178
0.0425615
0.0425044
0.0424516
0.0424058
0.0423677
0.0423378
0.0423158
0.0423009
0.0422921
0.0422878
0.0422867
0.0422872
0.0422882
0.0422889
0.0424728
0.042474
0.0424775
0.0424846
0.0424974
0.042518
0.042548
0.0425877
0.0426348
0.0426836
0.0427272
0.0427602
0.0427816
0.0427933
0.0427972
0.042792
0.0427731
0.0427388
0.042693
0.0426403
0.0425856
0.0425333
0.042486
0.0424464
0.0424159
0.0423949
0.0423828
0.0423779
0.0423775
0.0423794
0.0423816
0.042383
0.0425196
0.042521
0.0425249
0.0425331
0.0425476
0.0425703
0.0426029
0.042645
0.0426937
0.0427436
0.0427887
0.0428252
0.0428536
0.0428766
0.042897
0.0429149
0.0429265
0.0429266
0.0429137
0.0428893
0.0428556
0.0428153
0.0427715
0.0427278
0.0426873
0.042653
0.0426272
0.0426103
0.0426012
0.0425976
0.042597
0.0425974
0.0425633
0.0425648
0.0425689
0.0425773
0.042592
0.042615
0.0426477
0.0426898
0.0427387
0.0427899
0.0428382
0.0428807
0.0429178
0.0429525
0.0429883
0.0430272
0.0430675
0.0431036
0.0431313
0.0431494
0.0431568
0.043153
0.0431384
0.0431144
0.0430834
0.0430493
0.043016
0.0429871
0.0429654
0.0429513
0.042944
0.0429413
0.0425959
0.0425972
0.0426011
0.0426088
0.0426223
0.0426435
0.0426737
0.042713
0.0427596
0.0428097
0.0428587
0.0429031
0.0429422
0.0429778
0.0430129
0.0430505
0.043092
0.0431359
0.0431798
0.0432218
0.0432594
0.0432902
0.0433121
0.0433239
0.0433254
0.0433176
0.0433029
0.043285
0.0432676
0.0432539
0.0432453
0.0432415
0.042615
0.0426163
0.0426197
0.0426265
0.0426383
0.0426568
0.0426833
0.0427182
0.0427603
0.0428067
0.0428529
0.0428949
0.0429306
0.0429598
0.0429844
0.0430073
0.0430327
0.043065
0.0431053
0.043152
0.0432015
0.0432497
0.0432932
0.0433291
0.0433558
0.0433728
0.043381
0.0433821
0.0433788
0.0433739
0.0433698
0.0433676
0.0426246
0.0426257
0.0426288
0.0426348
0.0426449
0.0426607
0.0426834
0.0427136
0.0427506
0.0427919
0.0428339
0.0428723
0.042904
0.0429275
0.0429435
0.0429548
0.0429673
0.0429891
0.0430237
0.043071
0.0431276
0.0431884
0.0432477
0.0433006
0.0433436
0.0433752
0.0433959
0.0434073
0.0434121
0.0434128
0.0434119
0.043411
0.0426282
0.0426293
0.0426321
0.0426373
0.042646
0.0426594
0.0426787
0.0427044
0.0427362
0.0427723
0.0428095
0.0428441
0.0428724
0.0428925
0.0429045
0.0429108
0.0429181
0.0429352
0.0429658
0.0430111
0.0430689
0.0431355
0.0432051
0.0432711
0.0433281
0.0433726
0.0434038
0.0434231
0.043433
0.0434368
0.0434373
0.0434369
0.0426289
0.0426299
0.0426323
0.0426367
0.0426442
0.0426555
0.0426718
0.0426935
0.0427205
0.0427515
0.0427839
0.0428147
0.0428406
0.0428597
0.0428718
0.0428793
0.0428883
0.0429063
0.0429362
0.0429794
0.0430353
0.0431017
0.0431743
0.0432469
0.0433131
0.0433679
0.0434086
0.0434354
0.0434505
0.0434571
0.0434589
0.0434588
0.04263
0.0426307
0.0426324
0.0426359
0.0426419
0.0426512
0.0426647
0.0426829
0.0427056
0.042732
0.0427603
0.042788
0.0428129
0.0428332
0.0428489
0.0428621
0.0428777
0.0429004
0.0429319
0.0429739
0.0430268
0.0430898
0.0431601
0.0432333
0.0433033
0.0433644
0.0434123
0.0434457
0.0434657
0.0434753
0.0434784
0.0434786
0.0426357
0.0426359
0.0426365
0.0426384
0.0426424
0.0426493
0.0426601
0.0426751
0.0426944
0.0427174
0.042743
0.0427694
0.0427952
0.0428191
0.0428411
0.0428629
0.0428873
0.0429159
0.0429496
0.0429903
0.0430395
0.0430974
0.0431626
0.0432319
0.0433008
0.0433638
0.0434161
0.0434546
0.043479
0.0434917
0.0434962
0.0434968
0.042651
0.0426503
0.0426493
0.0426489
0.0426501
0.0426542
0.0426623
0.0426748
0.0426921
0.0427137
0.0427389
0.0427666
0.0427956
0.0428249
0.0428544
0.0428852
0.0429181
0.0429518
0.0429867
0.0430254
0.0430698
0.0431212
0.0431793
0.0432422
0.0433064
0.0433677
0.0434211
0.0434628
0.0434909
0.0435063
0.0435124
0.0435134
0.0426806
0.0426787
0.0426755
0.0426723
0.0426706
0.0426721
0.0426781
0.0426897
0.0427069
0.0427296
0.042757
0.0427881
0.0428217
0.0428568
0.0428929
0.0429309
0.0429695
0.0430059
0.0430404
0.0430759
0.0431147
0.0431587
0.0432084
0.043263
0.0433203
0.0433768
0.0434285
0.0434711
0.0435016
0.0435195
0.043527
0.0435285
0.0427279
0.0427246
0.0427192
0.0427136
0.0427101
0.0427105
0.0427165
0.0427291
0.0427485
0.0427742
0.0428051
0.04284
0.0428776
0.0429167
0.0429569
0.0429983
0.0430389
0.0430751
0.0431073
0.0431385
0.0431712
0.0432074
0.0432482
0.0432934
0.043342
0.0433917
0.0434391
0.0434803
0.0435116
0.0435312
0.0435402
0.0435422
0.042795
0.0427902
0.0427835
0.0427777
0.042775
0.0427772
0.0427857
0.0428015
0.0428241
0.0428528
0.0428863
0.0429232
0.0429621
0.043002
0.0430422
0.043083
0.0431217
0.043155
0.0431833
0.0432095
0.043236
0.0432646
0.0432966
0.0433323
0.0433714
0.0434126
0.0434537
0.0434913
0.0435216
0.0435419
0.043552
0.0435546
0.0428828
0.0428772
0.0428713
0.0428685
0.0428703
0.0428774
0.0428903
0.0429094
0.0429341
0.0429637
0.0429969
0.0430324
0.043069
0.0431059
0.0431424
0.0431787
0.0432126
0.0432409
0.0432643
0.0432852
0.0433057
0.0433272
0.0433511
0.0433777
0.0434074
0.0434395
0.0434728
0.0435048
0.0435322
0.0435518
0.0435624
0.0435655
0.0429926
0.0429874
0.0429857
0.0429896
0.0429983
0.0430109
0.0430274
0.0430478
0.0430718
0.0430988
0.043128
0.0431585
0.0431894
0.04322
0.0432499
0.0432792
0.0433061
0.0433282
0.0433461
0.0433618
0.0433767
0.043392
0.0434088
0.0434275
0.0434484
0.0434715
0.0434963
0.0435213
0.043544
0.0435615
0.0435717
0.0435751
0.0431268
0.0431247
0.0431305
0.0431417
0.0431555
0.0431707
0.0431874
0.0432054
0.0432251
0.0432462
0.0432684
0.0432912
0.0433139
0.0433362
0.0433578
0.0433787
0.0433977
0.0434132
0.0434256
0.0434362
0.0434461
0.0434561
0.0434669
0.0434788
0.0434922
0.0435072
0.0435237
0.0435409
0.0435576
0.0435714
0.0435802
0.0435835
0.0432909
0.0432948
0.0433061
0.0433189
0.0433317
0.0433442
0.0433563
0.0433685
0.0433811
0.0433942
0.0434077
0.0434213
0.0434348
0.043448
0.0434607
0.0434729
0.043484
0.0434929
0.0435
0.043506
0.0435115
0.043517
0.0435229
0.0435294
0.0435366
0.0435447
0.0435537
0.0435634
0.0435732
0.043582
0.0435881
0.0435907
0.0434915
0.0434946
0.0435005
0.0435061
0.0435113
0.043516
0.0435205
0.0435247
0.043529
0.0435334
0.0435378
0.0435423
0.0435467
0.043551
0.0435551
0.0435591
0.0435626
0.0435655
0.0435678
0.0435697
0.0435714
0.0435732
0.043575
0.043577
0.0435792
0.0435817
0.0435845
0.0435875
0.0435907
0.0435936
0.0435958
0.0435968
)
;

boundaryField
{
    movingWall
    {
        type            fixedValue;
        value           uniform 0.0436;
    }
    fixedWalls
    {
        type            zeroGradient;
    }
    floor
    {
        type            zeroGradient;
    }
    frontAndBack
    {
        type            empty;
    }
}


// ************************************************************************* //
