/*--------------------------------*- C++ -*----------------------------------*\
| =========                 |                                                 |
| \\      /  F ield         | OpenFOAM: The Open Source CFD Toolbox           |
|  \\    /   O peration     | Version:  2206                                  |
|   \\  /    A nd           | Website:  www.openfoam.com                      |
|    \\/     M anipulation  |                                                 |
\*---------------------------------------------------------------------------*/
FoamFile
{
    version     2.0;
    format      ascii;
    arch        "LSB;label=64;scalar=64";
    class       volVectorField;
    location    "651600";
    object      U;
}
// * * * * * * * * * * * * * * * * * * * * * * * * * * * * * * * * * * * * * //

dimensions      [0 1 -1 0 0 0 0];

internalField   nonuniform List<vector> 
16
(
(6.49992e-08 -5.39644e-08 0)
(1.58185e-07 3.79225e-09 0)
(8.59532e-08 2.23333e-08 0)
(8.47314e-09 2.51263e-08 0)
(-3.29428e-09 -1.69238e-07 0)
(7.6772e-08 -2.78686e-08 0)
(5.31717e-08 1.30872e-07 0)
(-1.60832e-08 6.81601e-08 0)
(-4.49807e-08 -1.22672e-07 0)
(-1.1538e-07 -5.51703e-08 0)
(-4.92515e-08 1.1525e-07 0)
(3.68531e-09 6.16642e-08 0)
(-1.50601e-08 -1.23812e-08 0)
(-1.20912e-07 -2.36162e-08 0)
(-8.87326e-08 1.37194e-08 0)
(2.68352e-09 2.24521e-08 0)
)
;

boundaryField
{
    movingWall
    {
        type            noSlip;
    }
    fixedWalls
    {
        type            noSlip;
    }
    frontAndBack
    {
        type            empty;
    }
}


// ************************************************************************* //
