/*--------------------------------*- C++ -*----------------------------------*\
| =========                 |                                                 |
| \\      /  F ield         | OpenFOAM: The Open Source CFD Toolbox           |
|  \\    /   O peration     | Version:  2212                                  |
|   \\  /    A nd           | Website:  www.openfoam.com                      |
|    \\/     M anipulation  |                                                 |
\*---------------------------------------------------------------------------*/
FoamFile
{
    version     2.0;
    format      ascii;
    arch        "LSB;label=64;scalar=64";
    class       volScalarField::Internal;
    location    "850";
    object      dGco2;
}
// * * * * * * * * * * * * * * * * * * * * * * * * * * * * * * * * * * * * * //

dimensions      [1 -3 -1 0 0 0 0];

value           nonuniform List<scalar> 
1024
(
0.000152444
0.000152542
0.000152782
0.000153207
0.000153852
0.000154722
0.000155787
0.00015698
0.000158212
0.000159394
0.000160433
0.000161243
0.000161782
0.000162019
0.000161909
0.000161394
0.000160452
0.000159236
0.000157911
0.000156513
0.000155045
0.000153499
0.000151889
0.000150275
0.000148754
0.00014742
0.000146334
0.000145515
0.000144944
0.000144582
0.000144381
0.000144299
0.00015246
0.000152562
0.000152809
0.000153247
0.000153909
0.000154799
0.000155881
0.000157088
0.000158332
0.000159525
0.000160571
0.000161382
0.000161916
0.000162145
0.000162027
0.000161504
0.000160555
0.000159335
0.000158009
0.000156613
0.000155149
0.000153608
0.000152
0.000150382
0.000148851
0.000147501
0.000146398
0.000145563
0.000144981
0.000144611
0.000144406
0.000144323
0.000152498
0.000152605
0.000152864
0.000153324
0.000154016
0.00015494
0.000156059
0.000157302
0.000158585
0.000159822
0.000160906
0.000161727
0.000162251
0.000162456
0.000162308
0.000161753
0.000160777
0.00015954
0.000158208
0.000156814
0.000155361
0.000153832
0.000152233
0.000150613
0.000149063
0.000147682
0.000146543
0.000145674
0.000145066
0.00014468
0.000144466
0.00014438
0.000152558
0.00015267
0.000152944
0.000153428
0.000154157
0.000155129
0.000156304
0.000157617
0.000158987
0.000160326
0.000161498
0.000162357
0.000162866
0.000163021
0.000162804
0.000162173
0.00016113
0.000159849
0.000158496
0.000157102
0.000155663
0.000154158
0.000152579
0.000150962
0.000149392
0.000147969
0.000146777
0.000145858
0.00014521
0.000144797
0.000144569
0.000144476
0.000152637
0.000152754
0.000153039
0.000153548
0.000154316
0.000155345
0.000156602
0.000158027
0.000159549
0.000161067
0.0001624
0.000163337
0.000163835
0.000163909
0.000163568
0.000162795
0.000161619
0.000160246
0.000158846
0.000157442
0.000156019
0.000154547
0.000153002
0.000151402
0.000149818
0.00014835
0.000147096
0.000146113
0.000145412
0.000144964
0.000144717
0.000144618
0.000152731
0.00015285
0.000153143
0.00015367
0.000154475
0.000155571
0.000156935
0.000158523
0.00016027
0.000162054
0.000163625
0.000164696
0.000165196
0.000165158
0.00016463
0.000163627
0.00016223
0.000160698
0.000159211
0.000157776
0.000156365
0.000154933
0.000153437
0.000151872
0.00015029
0.000148787
0.000147472
0.000146422
0.000145664
0.000145175
0.000144907
0.000144799
0.000152835
0.000152954
0.00015325
0.000153789
0.000154627
0.000155794
0.00015729
0.00015909
0.000161131
0.000163261
0.000165143
0.000166405
0.000166927
0.00016675
0.000165964
0.000164634
0.00016291
0.000161138
0.000159515
0.000158025
0.000156619
0.000155229
0.000153795
0.000152285
0.000150728
0.000149212
0.000147852
0.000146745
0.000145935
0.00014541
0.000145121
0.000145006
0.000152951
0.000153067
0.000153361
0.000153905
0.00015477
0.000156011
0.000157658
0.000159707
0.0001621
0.000164636
0.000166883
0.000168379
0.000168931
0.000168581
0.000167468
0.000165709
0.000163547
0.000161449
0.000159643
0.000158079
0.000156674
0.000155335
0.000153975
0.000152538
0.000151033
0.000149534
0.000148162
0.000147026
0.000146184
0.000145635
0.000145333
0.000145212
0.00015309
0.000153202
0.00015349
0.000154033
0.00015492
0.000156235
0.000158043
0.000160373
0.00016316
0.000166142
0.000168777
0.000170505
0.000171059
0.000170482
0.000168959
0.000166667
0.000163954
0.000161454
0.000159433
0.000157793
0.000156403
0.000155132
0.000153868
0.000152529
0.000151107
0.000149665
0.000148323
0.000147198
0.000146358
0.000145808
0.000145502
0.00014538
0.000153283
0.00015339
0.00015367
0.00015421
0.000155115
0.000156505
0.000158488
0.000161125
0.000164343
0.000167789
0.000170794
0.000172692
0.000173162
0.000172262
0.000170229
0.000167288
0.000163909
0.000160935
0.000158689
0.000156999
0.000155662
0.000154501
0.000153368
0.000152163
0.000150862
0.000149524
0.000148266
0.000147204
0.000146407
0.00014588
0.000145585
0.000145464
0.000153603
0.000153704
0.000153976
0.000154515
0.000155448
0.000156927
0.000159109
0.00016209
0.000165767
0.000169662
0.000172959
0.000174899
0.000175144
0.000173797
0.000171144
0.000167434
0.000163255
0.000159722
0.000157244
0.000155546
0.000154324
0.000153333
0.000152386
0.000151363
0.000150234
0.000149056
0.00014794
0.000146994
0.00014628
0.000145802
0.000145528
0.000145412
0.000154194
0.00015429
0.00015456
0.000155115
0.000156105
0.000157718
0.00016015
0.000163517
0.000167645
0.0001719
0.000175331
0.00017713
0.000176997
0.000175109
0.000171777
0.000167217
0.000162101
0.000157865
0.000155095
0.000153403
0.000152341
0.000151579
0.000150876
0.000150089
0.000149189
0.000148229
0.000147311
0.000146527
0.000145926
0.000145512
0.000145264
0.000145153
0.000155294
0.00015539
0.000155674
0.000156278
0.000157381
0.000159203
0.000161959
0.000165726
0.000170214
0.000174637
0.000177964
0.000179422
0.00017883
0.000176449
0.000172547
0.000167204
0.000161075
0.000155909
0.000152618
0.0001508
0.000149849
0.000149312
0.000148874
0.000148362
0.000147734
0.000147037
0.000146353
0.000145753
0.000145273
0.000144924
0.000144701
0.000144595
0.000157179
0.000157286
0.000157608
0.000158304
0.000159584
0.000161686
0.000164803
0.000168912
0.000173568
0.000177875
0.000180833
0.00018184
0.000180908
0.000178349
0.000174289
0.000168555
0.00016159
0.000155284
0.00015099
0.000148541
0.00014734
0.00014681
0.00014654
0.000146284
0.000145941
0.000145511
0.000145043
0.000144594
0.000144212
0.000143921
0.000143733
0.000143643
0.000160019
0.000160145
0.000160527
0.000161349
0.000162842
0.000165236
0.000168654
0.000172931
0.000177475
0.000181371
0.000183806
0.000184482
0.000183635
0.000181565
0.000178192
0.00017302
0.000166012
0.000158759
0.000152983
0.000148975
0.000146501
0.000145045
0.000144203
0.000143688
0.000143335
0.000143071
0.000142882
0.00014278
0.000142767
0.000142819
0.00014289
0.000142939
0.000163693
0.000163844
0.000164293
0.000165238
0.000166906
0.000169483
0.00017299
0.000177129
0.000181247
0.000184558
0.000186554
0.000187275
0.000187127
0.00018641
0.000184975
0.000182178
0.000177356
0.000171131
0.00016506
0.000159847
0.000155686
0.000152514
0.000150157
0.000148512
0.000147515
0.000147113
0.000147224
0.000147721
0.000148425
0.000149132
0.000149673
0.000149952
0.000166998
0.000167157
0.000167615
0.000168557
0.000170177
0.00017261
0.000175813
0.000179485
0.000183073
0.000185965
0.000187827
0.000188819
0.000189456
0.000190234
0.00019135
0.000192581
0.000193117
0.000192231
0.000190378
0.000188196
0.000186016
0.00018403
0.000182194
0.000180528
0.00017907
0.000177883
0.000177041
0.000176575
0.000176451
0.000176555
0.000176739
0.000176871
0.000169083
0.000169232
0.000169648
0.000170483
0.000171897
0.000173989
0.000176713
0.000179816
0.000182859
0.000185347
0.00018697
0.000187805
0.000188307
0.000189105
0.000190814
0.000193925
0.000198291
0.000202674
0.000206256
0.000209096
0.000211298
0.000212897
0.000213878
0.000214217
0.000213924
0.00021307
0.000211815
0.00021039
0.000209059
0.000208044
0.00020744
0.0002072
0.000170205
0.000170341
0.000170707
0.000171424
0.000172622
0.000174384
0.000176679
0.000179311
0.000181925
0.000184096
0.000185508
0.000186124
0.000186243
0.00018642
0.000187354
0.000189858
0.000194405
0.000200109
0.000205716
0.000210821
0.000215302
0.000219129
0.000222262
0.000224644
0.000226226
0.000227
0.000227037
0.000226509
0.000225673
0.000224823
0.000224198
0.000223898
0.000170722
0.000170847
0.000171168
0.000171782
0.000172789
0.000174263
0.000176191
0.000178428
0.000180692
0.000182627
0.00018393
0.000184487
0.00018446
0.000184265
0.000184511
0.000185986
0.000189408
0.000194422
0.00019999
0.000205575
0.00021089
0.000215795
0.00022019
0.000223958
0.000226986
0.000229196
0.000230587
0.000231248
0.000231354
0.00023114
0.000230852
0.000230671
0.000170851
0.000170966
0.000171252
0.00017178
0.000172628
0.000173859
0.000175471
0.000177364
0.000179323
0.000181064
0.000182324
0.000182968
0.00018307
0.000182929
0.000183023
0.000183985
0.000186463
0.000190409
0.000195189
0.000200423
0.000205854
0.000211303
0.000216585
0.000221463
0.000225688
0.000229052
0.000231462
0.000232959
0.000233702
0.000233921
0.000233875
0.000233785
0.000170768
0.00017087
0.000171118
0.000171569
0.000172283
0.000173308
0.00017465
0.000176239
0.000177923
0.000179494
0.000180753
0.000181589
0.00018204
0.000182314
0.000182759
0.00018382
0.000185928
0.00018912
0.000193084
0.000197657
0.000202704
0.000208097
0.000213664
0.000219134
0.000224177
0.000228456
0.000231741
0.000233969
0.000235245
0.000235799
0.000235919
0.000235881
0.000170708
0.000170779
0.000170963
0.000171315
0.00017189
0.000172729
0.000173837
0.00017517
0.000176631
0.00017809
0.00017943
0.000180583
0.00018157
0.000182525
0.000183664
0.000185249
0.000187456
0.000190283
0.000193635
0.000197542
0.000201995
0.000206945
0.000212274
0.000217767
0.000223112
0.00022792
0.000231848
0.000234697
0.000236467
0.000237341
0.000237617
0.000237622
0.000171062
0.000171064
0.00017112
0.000171303
0.000171687
0.000172323
0.000173225
0.000174374
0.000175723
0.000177218
0.000178804
0.000180445
0.000182135
0.000183923
0.000185903
0.000188177
0.000190708
0.000193413
0.000196341
0.00019966
0.000203471
0.000207799
0.000212585
0.000217688
0.000222864
0.000227771
0.000232028
0.000235316
0.000237503
0.000238679
0.000239114
0.000239164
0.00017236
0.000172244
0.000172084
0.000171997
0.000172106
0.000172506
0.000173244
0.000174331
0.000175761
0.000177517
0.000179565
0.000181852
0.000184322
0.000186939
0.000189695
0.000192587
0.000195433
0.000198091
0.000200692
0.000203494
0.000206667
0.000210299
0.000214395
0.000218873
0.000223564
0.000228203
0.00023245
0.000235942
0.000238424
0.000239862
0.000240454
0.000240553
0.000175152
0.000174873
0.000174432
0.000174012
0.000173815
0.000174008
0.000174689
0.000175895
0.000177627
0.000179849
0.00018249
0.000185442
0.00018859
0.000191839
0.000195121
0.000198382
0.000201377
0.000203937
0.000206236
0.000208568
0.00021114
0.000214071
0.000217411
0.000221137
0.000225153
0.000229275
0.000233229
0.000236673
0.000239289
0.000240918
0.000241654
0.000241808
0.000179847
0.000179392
0.0001787
0.000178037
0.000177665
0.000177815
0.000178623
0.00018012
0.00018227
0.000184982
0.00018812
0.000191527
0.000195053
0.000198579
0.000202023
0.000205322
0.000208229
0.000210581
0.000212559
0.000214456
0.000216476
0.000218749
0.000221346
0.000224283
0.000227525
0.000230967
0.000234419
0.000237592
0.000240158
0.000241877
0.000242725
0.000242934
0.000186647
0.000186066
0.000185316
0.000184712
0.000184487
0.000184859
0.000185948
0.000187756
0.000190207
0.000193166
0.000196463
0.000199927
0.000203407
0.000206797
0.000210024
0.00021304
0.00021563
0.000217654
0.000219281
0.000220768
0.000222296
0.000223983
0.000225902
0.00022809
0.000230546
0.000233229
0.000236033
0.00023875
0.000241089
0.000242772
0.000243678
0.000243937
0.000195626
0.000195065
0.000194618
0.000194489
0.000194744
0.000195499
0.000196832
0.000198741
0.000201152
0.000203938
0.000206942
0.000210017
0.00021304
0.000215928
0.000218629
0.000221113
0.000223211
0.000224816
0.000226068
0.00022717
0.000228266
0.00022945
0.000230786
0.000232311
0.000234042
0.000235972
0.000238059
0.000240186
0.000242135
0.000243642
0.000244528
0.000244819
0.000206901
0.000206622
0.000206851
0.000207404
0.000208156
0.000209154
0.000210466
0.000212123
0.000214093
0.000216293
0.000218615
0.000220951
0.000223217
0.000225355
0.000227333
0.000229133
0.000230638
0.000231776
0.000232646
0.000233391
0.000234113
0.000234877
0.00023573
0.000236701
0.000237807
0.000239055
0.00024044
0.00024191
0.00024334
0.000244533
0.0002453
0.000245587
0.000220819
0.00022109
0.000221905
0.000222755
0.000223577
0.000224427
0.000225372
0.000226463
0.000227706
0.000229064
0.000230481
0.000231894
0.000233256
0.000234532
0.000235706
0.000236767
0.00023765
0.000238312
0.000238813
0.000239235
0.000239636
0.000240053
0.000240514
0.000241037
0.000241632
0.000242306
0.000243063
0.000243889
0.000244733
0.000245488
0.000246022
0.000246251
0.000237885
0.000238132
0.000238589
0.000238994
0.000239347
0.000239678
0.000240019
0.000240393
0.000240809
0.00024126
0.000241727
0.000242192
0.000242638
0.000243055
0.000243437
0.000243782
0.000244068
0.000244282
0.000244443
0.000244577
0.000244703
0.000244834
0.000244977
0.000245139
0.000245322
0.00024553
0.000245763
0.000246021
0.00024629
0.000246542
0.000246736
0.00024683
)
;


// ************************************************************************* //
