/*--------------------------------*- C++ -*----------------------------------*\
| =========                 |                                                 |
| \\      /  F ield         | OpenFOAM: The Open Source CFD Toolbox           |
|  \\    /   O peration     | Version:  2212                                  |
|   \\  /    A nd           | Website:  www.openfoam.com                      |
|    \\/     M anipulation  |                                                 |
\*---------------------------------------------------------------------------*/
FoamFile
{
    version     2.0;
    format      ascii;
    arch        "LSB;label=64;scalar=64";
    class       volScalarField;
    location    "850";
    object      Gch4;
}
// * * * * * * * * * * * * * * * * * * * * * * * * * * * * * * * * * * * * * //

dimensions      [1 -3 0 0 0 0 0];

internalField   nonuniform List<scalar> 
1024
(
1.91157
1.9113
1.91063
1.90944
1.90765
1.90522
1.90225
1.89893
1.89551
1.89222
1.88933
1.88709
1.88559
1.88495
1.88527
1.88673
1.88938
1.89279
1.8965
1.90041
1.90451
1.90883
1.91333
1.91784
1.92209
1.92582
1.92886
1.93115
1.93275
1.93376
1.93432
1.93455
1.91152
1.91124
1.91055
1.90933
1.90749
1.90501
1.90199
1.89863
1.89517
1.89186
1.88895
1.8867
1.88522
1.8846
1.88495
1.88643
1.88909
1.89251
1.89623
1.90013
1.90422
1.90852
1.91302
1.91754
1.92182
1.92559
1.92868
1.93101
1.93264
1.93368
1.93425
1.93448
1.91142
1.91112
1.9104
1.90912
1.90719
1.90461
1.9015
1.89804
1.89447
1.89103
1.88802
1.88575
1.8843
1.88374
1.88417
1.88574
1.88848
1.89195
1.89568
1.89957
1.90363
1.9079
1.91237
1.9169
1.92123
1.92509
1.92827
1.9307
1.9324
1.93348
1.93408
1.93432
1.91125
1.91094
1.91018
1.90883
1.9068
1.90409
1.90082
1.89717
1.89336
1.88964
1.88638
1.884
1.8826
1.88218
1.8828
1.88458
1.88751
1.8911
1.89488
1.89877
1.90279
1.90699
1.9114
1.91592
1.92031
1.92429
1.92762
1.93019
1.932
1.93316
1.93379
1.93405
1.91103
1.91071
1.90991
1.9085
1.90636
1.90349
1.9
1.89603
1.8918
1.88758
1.88389
1.88129
1.87992
1.87973
1.88069
1.88287
1.88617
1.89001
1.89392
1.89784
1.90181
1.90591
1.91023
1.91469
1.91912
1.92322
1.92673
1.92948
1.93144
1.93269
1.93338
1.93366
1.91077
1.91044
1.90963
1.90816
1.90592
1.90287
1.89907
1.89466
1.88981
1.88485
1.88049
1.87753
1.87615
1.87628
1.87777
1.88059
1.8845
1.88878
1.89292
1.89692
1.90085
1.90485
1.90902
1.91339
1.9178
1.922
1.92568
1.92861
1.93073
1.9321
1.93285
1.93315
1.91049
1.91016
1.90933
1.90783
1.9055
1.90225
1.8981
1.8931
1.88743
1.88152
1.8763
1.87281
1.87138
1.8719
1.87411
1.87784
1.88266
1.88759
1.89211
1.89625
1.90016
1.90403
1.90803
1.91224
1.91659
1.92082
1.92462
1.92771
1.92997
1.93144
1.93225
1.93257
1.91017
1.90984
1.90903
1.90751
1.90511
1.90166
1.89709
1.8914
1.88476
1.87772
1.87149
1.86736
1.86586
1.86686
1.87
1.87492
1.88095
1.88678
1.8918
1.89613
1.90003
1.90375
1.90754
1.91154
1.91574
1.91992
1.92375
1.92693
1.92928
1.93081
1.93166
1.93199
1.90979
1.90947
1.90867
1.90716
1.9047
1.90105
1.89603
1.88957
1.88184
1.87357
1.86627
1.8615
1.86001
1.86166
1.86594
1.87236
1.87991
1.88685
1.89244
1.89698
1.90082
1.90434
1.90785
1.91157
1.91554
1.91956
1.9233
1.92644
1.92879
1.93033
1.93118
1.93152
1.90926
1.90896
1.90818
1.90668
1.90417
1.90031
1.89481
1.8875
1.87858
1.86903
1.86072
1.85549
1.85425
1.85682
1.86253
1.87075
1.88015
1.88838
1.89458
1.89924
1.90292
1.90613
1.90926
1.91261
1.91623
1.91996
1.92347
1.92643
1.92866
1.93013
1.93095
1.93129
1.90838
1.9081
1.90734
1.90585
1.90326
1.89916
1.89311
1.88485
1.87466
1.86388
1.85477
1.84945
1.84885
1.85268
1.86013
1.87049
1.8821
1.89186
1.89868
1.90334
1.90669
1.90941
1.91202
1.91485
1.91799
1.92127
1.92438
1.92702
1.92901
1.93034
1.93111
1.93143
1.90674
1.90647
1.90572
1.90419
1.90144
1.89698
1.89024
1.88091
1.86948
1.85771
1.84825
1.84334
1.84382
1.84918
1.85854
1.87126
1.88545
1.89713
1.90473
1.90936
1.91225
1.91432
1.91624
1.91841
1.92091
1.92358
1.92614
1.92832
1.93
1.93115
1.93185
1.93216
1.90368
1.90342
1.90263
1.90096
1.8979
1.89286
1.88523
1.8748
1.86238
1.85016
1.84101
1.83708
1.83886
1.84562
1.85657
1.87147
1.88846
1.90269
1.9117
1.91665
1.91921
1.92065
1.92183
1.92324
1.92497
1.92691
1.92881
1.93049
1.93182
1.9328
1.93342
1.93372
1.89843
1.89814
1.89725
1.89532
1.89178
1.88596
1.87733
1.86596
1.85309
1.84122
1.83312
1.83048
1.83323
1.8405
1.85191
1.86791
1.88722
1.90459
1.91634
1.923
1.92623
1.92764
1.92834
1.92903
1.92997
1.93117
1.93247
1.93372
1.93479
1.93561
1.93613
1.93639
1.89052
1.89017
1.88911
1.88683
1.88271
1.87608
1.86663
1.85481
1.84227
1.83157
1.82495
1.82323
1.82576
1.83169
1.84123
1.85571
1.87519
1.89521
1.91106
1.922
1.92871
1.93264
1.93491
1.93629
1.93725
1.93798
1.93852
1.93882
1.93888
1.93875
1.93857
1.93844
1.88027
1.87986
1.87862
1.876
1.87139
1.86427
1.85458
1.84315
1.83181
1.82274
1.81734
1.8155
1.81608
1.81826
1.82245
1.83043
1.84398
1.86128
1.87805
1.89238
1.90379
1.91245
1.91889
1.92339
1.9261
1.92719
1.92688
1.92551
1.92358
1.92164
1.92016
1.91939
1.87105
1.87061
1.86934
1.86674
1.86226
1.85553
1.84668
1.83654
1.82666
1.81873
1.81367
1.81105
1.80941
1.80741
1.80452
1.80138
1.80022
1.80294
1.80823
1.81435
1.8204
1.82588
1.83094
1.83552
1.83951
1.84275
1.84505
1.8463
1.84662
1.84632
1.8458
1.84544
1.86521
1.8648
1.86365
1.86134
1.85743
1.85164
1.84411
1.83553
1.82713
1.82029
1.81585
1.8136
1.81228
1.81014
1.80552
1.7971
1.7853
1.77351
1.76389
1.75626
1.75035
1.74606
1.74344
1.74256
1.7434
1.74576
1.74922
1.75313
1.75678
1.75956
1.76121
1.76187
1.86206
1.86168
1.86067
1.85869
1.85537
1.85049
1.84413
1.83685
1.82961
1.82362
1.81973
1.81805
1.81774
1.81728
1.81474
1.80791
1.79553
1.78003
1.76483
1.75101
1.7389
1.72856
1.72011
1.71369
1.70945
1.70739
1.70732
1.70879
1.71108
1.71341
1.71512
1.71594
1.86059
1.86024
1.85935
1.85765
1.85486
1.85078
1.84543
1.83923
1.83295
1.82758
1.82397
1.82243
1.82251
1.82305
1.82239
1.81837
1.80905
1.7954
1.78027
1.76514
1.75077
1.73753
1.72569
1.71554
1.70739
1.70144
1.69769
1.69591
1.69563
1.69621
1.69699
1.69748
1.86019
1.85987
1.85908
1.85762
1.85527
1.85186
1.84738
1.84212
1.83668
1.83184
1.82833
1.82654
1.82624
1.82664
1.8264
1.82379
1.81706
1.80633
1.79335
1.77916
1.76446
1.74974
1.73549
1.72234
1.71095
1.70189
1.6954
1.69136
1.68935
1.68875
1.68887
1.68911
1.8604
1.86012
1.85943
1.85818
1.8562
1.85335
1.84963
1.84521
1.84052
1.83614
1.83263
1.8303
1.82904
1.8283
1.8271
1.82424
1.81854
1.80988
1.79913
1.78673
1.77307
1.75848
1.74344
1.72868
1.71508
1.70354
1.69469
1.68869
1.68525
1.68374
1.68341
1.68351
1.86055
1.86036
1.85984
1.85887
1.85727
1.85494
1.85185
1.84814
1.84408
1.84001
1.83628
1.83308
1.83036
1.82775
1.82466
1.82038
1.81442
1.80678
1.79769
1.78711
1.77505
1.76166
1.74725
1.73242
1.718
1.70503
1.69444
1.68677
1.682
1.67964
1.67888
1.67886
1.85959
1.85958
1.85942
1.8589
1.85783
1.85605
1.85354
1.85034
1.84659
1.84244
1.83805
1.83353
1.82889
1.82401
1.81863
1.81248
1.80564
1.79833
1.79041
1.78143
1.77111
1.7594
1.74646
1.73267
1.7187
1.70546
1.69399
1.68513
1.67924
1.67607
1.67489
1.67475
1.85607
1.85638
1.85681
1.85702
1.8567
1.85557
1.85351
1.85049
1.84654
1.84169
1.83606
1.82978
1.82303
1.8159
1.80842
1.80058
1.79289
1.7857
1.77867
1.7711
1.76251
1.75268
1.7416
1.7295
1.71684
1.70432
1.69287
1.68347
1.67678
1.67291
1.67131
1.67104
1.8485
1.84926
1.85044
1.85156
1.85207
1.85151
1.84961
1.84628
1.84152
1.83542
1.82819
1.82013
1.81154
1.8027
1.79379
1.78495
1.77684
1.76992
1.76371
1.7574
1.75045
1.74252
1.73349
1.72342
1.71257
1.70145
1.69079
1.68152
1.67448
1.67009
1.66811
1.66769
1.83578
1.83701
1.83888
1.84066
1.84164
1.84119
1.83896
1.83485
1.82897
1.82156
1.813
1.80371
1.79411
1.78452
1.77517
1.76622
1.75835
1.75199
1.74665
1.74152
1.73606
1.72991
1.72289
1.71495
1.7062
1.69691
1.68761
1.67906
1.67216
1.66753
1.66525
1.66468
1.81735
1.81892
1.82094
1.82257
1.82315
1.82211
1.81912
1.81418
1.80749
1.79943
1.79045
1.78103
1.77156
1.76235
1.75359
1.74541
1.73839
1.73291
1.72852
1.7245
1.72037
1.71581
1.71062
1.70471
1.69807
1.69083
1.68328
1.67596
1.66966
1.66514
1.6627
1.66201
1.79301
1.79453
1.79574
1.79607
1.79536
1.79329
1.78965
1.78444
1.77788
1.7703
1.76213
1.75377
1.74555
1.73771
1.73037
1.72363
1.71795
1.7136
1.71022
1.70724
1.70428
1.70108
1.69747
1.69335
1.68867
1.68347
1.67784
1.67211
1.66687
1.66282
1.66043
1.65965
1.76246
1.76322
1.76259
1.76109
1.75904
1.75631
1.75274
1.74823
1.74287
1.73688
1.73057
1.72422
1.71807
1.71226
1.70689
1.70201
1.69793
1.69485
1.69249
1.69048
1.68853
1.68646
1.68416
1.68154
1.67855
1.67518
1.67145
1.66749
1.66364
1.66044
1.65838
1.6576
1.72476
1.72402
1.72182
1.71951
1.71727
1.71496
1.71239
1.70942
1.70604
1.70235
1.6985
1.69466
1.69096
1.68749
1.68431
1.68143
1.67903
1.67724
1.67588
1.67474
1.67366
1.67253
1.67129
1.66987
1.66827
1.66645
1.66441
1.66218
1.65991
1.65788
1.65645
1.65584
1.67854
1.67787
1.67663
1.67553
1.67457
1.67367
1.67275
1.67173
1.6706
1.66937
1.6681
1.66684
1.66563
1.66449
1.66346
1.66252
1.66175
1.66117
1.66073
1.66037
1.66003
1.65967
1.65929
1.65885
1.65835
1.65779
1.65716
1.65647
1.65575
1.65507
1.65455
1.6543
)
;

boundaryField
{
    movingWall
    {
        type            fixedValue;
        value           uniform 1.6535;
    }
    fixedWalls
    {
        type            zeroGradient;
    }
    floor
    {
        type            zeroGradient;
    }
    frontAndBack
    {
        type            empty;
    }
}


// ************************************************************************* //
