/*--------------------------------*- C++ -*----------------------------------*\
| =========                 |                                                 |
| \\      /  F ield         | OpenFOAM: The Open Source CFD Toolbox           |
|  \\    /   O peration     | Version:  2212                                  |
|   \\  /    A nd           | Website:  www.openfoam.com                      |
|    \\/     M anipulation  |                                                 |
\*---------------------------------------------------------------------------*/
FoamFile
{
    version     2.0;
    format      ascii;
    arch        "LSB;label=64;scalar=64";
    class       volScalarField;
    location    "850";
    object      Sco2;
}
// * * * * * * * * * * * * * * * * * * * * * * * * * * * * * * * * * * * * * //

dimensions      [1 -3 0 0 0 0 0];

internalField   nonuniform List<scalar> 
1024
(
0.00581077
0.00581453
0.00582367
0.00583989
0.00586445
0.00589762
0.00593823
0.00598368
0.00603066
0.00607571
0.00611531
0.00614619
0.00616674
0.00617575
0.00617156
0.00615193
0.00611605
0.00606969
0.00601916
0.00596587
0.00590992
0.00585099
0.00578962
0.0057281
0.00567012
0.00561927
0.00557789
0.00554666
0.0055249
0.00551109
0.00550345
0.00550032
0.0058114
0.00581528
0.00582471
0.0058414
0.00586663
0.00590054
0.00594181
0.0059878
0.00603522
0.00608069
0.00612059
0.00615147
0.00617184
0.00618057
0.00617606
0.00615612
0.00611997
0.00607347
0.0060229
0.00596969
0.0059139
0.00585515
0.00579386
0.00573221
0.00567383
0.00562238
0.00558034
0.00554851
0.0055263
0.0055122
0.00550441
0.00550124
0.00581285
0.00581691
0.00582681
0.00584433
0.0058707
0.00590594
0.00594857
0.00599595
0.00604488
0.00609202
0.00613333
0.00616464
0.0061846
0.00619242
0.00618677
0.00616561
0.00612843
0.00608128
0.00603048
0.00597738
0.00592196
0.0058637
0.00580275
0.00574098
0.0056819
0.00562926
0.00558584
0.00555275
0.00552956
0.00551483
0.0055067
0.00550339
0.00581514
0.00581941
0.00582983
0.00584831
0.00587609
0.00591314
0.00595794
0.00600795
0.0060602
0.00611121
0.00615592
0.00618864
0.00620805
0.00621397
0.00620569
0.00618165
0.00614188
0.00609304
0.00604147
0.00598835
0.0059335
0.00587613
0.00581594
0.00575431
0.00569444
0.00564019
0.00559476
0.00555974
0.00553503
0.00551929
0.00551061
0.00550709
0.00581816
0.00582259
0.00583348
0.00585287
0.00588214
0.00592137
0.00596927
0.0060236
0.00608162
0.00613948
0.00619028
0.00622599
0.00624497
0.0062478
0.00623482
0.00620534
0.00616051
0.00610818
0.00605482
0.00600129
0.00594705
0.00589093
0.00583207
0.00577108
0.00571069
0.00565474
0.00560692
0.00556947
0.00554276
0.00552568
0.00551627
0.00551246
0.00582173
0.00582625
0.00583744
0.00585754
0.00588822
0.00592997
0.00598197
0.00604252
0.00610911
0.00617711
0.00623698
0.0062778
0.00629687
0.00629542
0.00627528
0.00623705
0.00618379
0.0061254
0.00606873
0.00601404
0.00596025
0.00590565
0.00584864
0.005789
0.00572869
0.00567141
0.00562127
0.00558124
0.00555233
0.00553373
0.00552349
0.00551938
0.0058257
0.00583022
0.00584151
0.00586206
0.00589399
0.00593848
0.00599551
0.0060641
0.00614192
0.00622309
0.00629482
0.00634296
0.00636285
0.00635608
0.00632614
0.00627544
0.00620972
0.00614217
0.00608031
0.00602354
0.00596992
0.00591696
0.0058623
0.00580472
0.00574537
0.00568758
0.00563576
0.00559357
0.00556269
0.00554268
0.00553167
0.00552726
0.00583012
0.00583455
0.00584576
0.00586649
0.00589946
0.00594676
0.00600952
0.00608765
0.00617885
0.00627552
0.00636117
0.00641818
0.00643923
0.0064259
0.00638346
0.00631642
0.00623399
0.00615405
0.00608519
0.00602559
0.00597202
0.00592097
0.00586914
0.00581438
0.005757
0.00569988
0.00564757
0.00560425
0.00557217
0.00555125
0.00553971
0.00553511
0.0058354
0.00583969
0.00585067
0.00587137
0.00590517
0.00595528
0.00602422
0.006113
0.00621925
0.00633292
0.00643338
0.00649923
0.00652035
0.00649835
0.00644031
0.00635292
0.00624952
0.00615422
0.00607718
0.00601469
0.00596168
0.00591325
0.00586505
0.00581403
0.00575981
0.00570485
0.00565371
0.00561084
0.00557882
0.00555782
0.00554619
0.00554151
0.00584276
0.00584685
0.00585752
0.00587808
0.00591262
0.0059656
0.00604119
0.00614168
0.00626434
0.00639571
0.00651026
0.0065826
0.00660052
0.00656621
0.00648871
0.00637661
0.00624779
0.00613445
0.00604882
0.0059844
0.00593344
0.00588919
0.00584601
0.00580007
0.00575048
0.00569948
0.00565153
0.00561105
0.00558066
0.0055606
0.00554935
0.00554474
0.00585496
0.00585881
0.00586917
0.00588972
0.00592528
0.00598167
0.00606484
0.00617847
0.00631865
0.0064671
0.00659276
0.0066667
0.00667606
0.0066247
0.00652357
0.00638216
0.00622289
0.00608821
0.00599376
0.00592904
0.00588243
0.00584468
0.0058086
0.00576957
0.00572654
0.00568163
0.0056391
0.00560305
0.00557583
0.00555763
0.00554717
0.00554274
0.00587751
0.00588117
0.00589145
0.0059126
0.00595034
0.00601181
0.00610454
0.00623285
0.00639019
0.0065524
0.00668319
0.00675175
0.00674667
0.00667471
0.00654772
0.0063739
0.00617888
0.00601741
0.00591183
0.00584733
0.00580685
0.00577783
0.00575101
0.00572103
0.00568671
0.00565012
0.00561512
0.00558524
0.00556234
0.00554657
0.00553712
0.00553288
0.00591941
0.0059231
0.00593392
0.00595692
0.00599896
0.00606842
0.00617347
0.00631707
0.00648815
0.00665672
0.00678354
0.00683913
0.00681656
0.0067258
0.00657707
0.0063734
0.00613977
0.00594288
0.00581743
0.00574812
0.00571186
0.00569139
0.00567471
0.00565519
0.00563127
0.0056047
0.00557862
0.00555574
0.00553746
0.00552415
0.00551563
0.00551158
0.00599126
0.00599534
0.00600763
0.00603416
0.00608294
0.00616307
0.00628187
0.0064385
0.00661599
0.00678015
0.00689292
0.00693129
0.00689575
0.00679822
0.00664348
0.00642489
0.0061594
0.00591903
0.00575537
0.00566201
0.00561623
0.00559601
0.00558575
0.00557598
0.00556292
0.00554652
0.00552866
0.00551158
0.005497
0.00548592
0.00547873
0.00547532
0.00609951
0.00610433
0.0061189
0.00615024
0.00620713
0.00629837
0.00642867
0.00659171
0.00676491
0.00691342
0.00700621
0.007032
0.00699971
0.00692082
0.00679222
0.00659508
0.00632795
0.00605151
0.00583134
0.00567854
0.00558424
0.00552876
0.00549665
0.00547703
0.00546357
0.0054535
0.00544629
0.00544242
0.00544193
0.0054439
0.00544663
0.00544847
0.00623957
0.00624534
0.00626245
0.00629846
0.00636203
0.00646029
0.00659396
0.00675171
0.00690869
0.00703488
0.00711099
0.00713844
0.00713281
0.00710547
0.0070508
0.00694419
0.00676035
0.00652309
0.00629169
0.00609297
0.00593436
0.00581347
0.00572362
0.0056609
0.00562292
0.00560757
0.00561181
0.00563077
0.0056576
0.00568456
0.00570517
0.00571581
0.00636556
0.00637162
0.00638908
0.00642496
0.00648674
0.00657945
0.00670157
0.00684153
0.0069783
0.00708854
0.00715952
0.00719731
0.00722161
0.00725126
0.00729378
0.0073407
0.00736115
0.00732736
0.00725674
0.00717355
0.00709048
0.00701476
0.0069448
0.00688126
0.00682571
0.00678047
0.00674835
0.0067306
0.00672586
0.00672984
0.00673686
0.00674189
0.00644504
0.00645071
0.00646655
0.0064984
0.0065523
0.00663205
0.00673587
0.00685415
0.00697015
0.00706496
0.00712685
0.00715867
0.00717778
0.00720823
0.00727334
0.00739194
0.00755838
0.00772542
0.00786197
0.00797022
0.00805414
0.00811512
0.00815248
0.00816541
0.00815424
0.0081217
0.00807386
0.00801953
0.00796882
0.00793013
0.00790711
0.00789795
0.00648781
0.00649299
0.00650692
0.00653426
0.00657992
0.00664708
0.00673457
0.00683489
0.00693453
0.00701728
0.00707112
0.00709459
0.00709914
0.00710585
0.00714148
0.00723691
0.00741024
0.00762766
0.0078414
0.00803597
0.00820678
0.00835265
0.00847208
0.00856289
0.00862316
0.00865266
0.0086541
0.00863396
0.00860209
0.00856971
0.00854586
0.00853442
0.00650748
0.00651224
0.00652452
0.00654789
0.00658628
0.00664246
0.00671597
0.00680122
0.00688754
0.0069613
0.00701096
0.0070322
0.00703116
0.00702372
0.00703312
0.00708932
0.00721975
0.00741089
0.00762313
0.00783602
0.00803861
0.00822558
0.00839308
0.00853671
0.00865213
0.00873639
0.0087894
0.00881459
0.00881862
0.00881048
0.0087995
0.0087926
0.00651241
0.00651681
0.00652772
0.00654783
0.00658017
0.00662706
0.00668853
0.00676066
0.00683535
0.00690171
0.00694973
0.00697427
0.00697818
0.0069728
0.00697637
0.00701304
0.00710751
0.00725793
0.00744011
0.00763964
0.00784666
0.00805434
0.00825567
0.00844162
0.00860268
0.0087309
0.00882274
0.00887982
0.00890813
0.00891649
0.00891472
0.0089113
0.00650924
0.00651312
0.00652259
0.00653977
0.00656699
0.00660607
0.00665721
0.00671778
0.00678198
0.00684185
0.00688985
0.00692172
0.00693891
0.00694935
0.00696631
0.00700675
0.00708713
0.00720879
0.00735988
0.0075342
0.00772656
0.00793215
0.00814434
0.00835285
0.00854509
0.00870819
0.00883339
0.00891831
0.00896696
0.00898808
0.00899264
0.00899121
0.00650698
0.00650967
0.00651668
0.00653009
0.00655201
0.00658398
0.00662623
0.00667704
0.00673272
0.00678837
0.00683944
0.00688336
0.00692101
0.00695739
0.00700083
0.00706122
0.00714537
0.0072531
0.0073809
0.00752981
0.00769955
0.00788823
0.00809137
0.00830076
0.00850446
0.00868776
0.00883749
0.00894607
0.00901353
0.00904685
0.00905736
0.00905757
0.00652045
0.00652054
0.00652268
0.00652965
0.00654428
0.00656851
0.00660292
0.0066467
0.00669814
0.00675512
0.00681558
0.0068781
0.00694252
0.00701068
0.00708615
0.00717286
0.00726933
0.00737243
0.00748403
0.00761056
0.0077558
0.00792077
0.00810322
0.00829773
0.00849501
0.00868207
0.00884432
0.00896966
0.00905301
0.00909785
0.00911443
0.00911634
0.00656994
0.00656551
0.00655942
0.00655609
0.00656025
0.00657551
0.00660365
0.00664507
0.00669957
0.00676651
0.00684458
0.00693175
0.00702589
0.00712564
0.0072307
0.00734093
0.00744942
0.00755073
0.00764988
0.00775667
0.00787763
0.0080161
0.00817219
0.00834291
0.00852169
0.00869854
0.0088604
0.00899351
0.00908814
0.00914294
0.00916549
0.0091693
0.00667638
0.00666572
0.00664891
0.00663292
0.00662541
0.00663275
0.0066587
0.00670468
0.00677069
0.00685541
0.00695606
0.00706859
0.0071886
0.00731243
0.00743753
0.00756182
0.00767597
0.00777358
0.00786119
0.00795011
0.00804812
0.00815985
0.00828715
0.0084292
0.00858227
0.0087394
0.00889011
0.00902138
0.00912109
0.00918322
0.00921123
0.00921711
0.00685532
0.00683796
0.00681158
0.00678632
0.00677216
0.00677788
0.00680866
0.00686573
0.00694768
0.00705105
0.00717067
0.00730054
0.00743494
0.00756935
0.00770061
0.00782637
0.00793717
0.00802681
0.00810221
0.00817451
0.00825153
0.00833817
0.00843715
0.00854913
0.00867269
0.00880389
0.00893546
0.0090564
0.00915421
0.00921974
0.00925206
0.00926005
0.00711452
0.00709237
0.00706379
0.00704075
0.00703218
0.00704636
0.00708787
0.00715679
0.00725022
0.00736299
0.00748869
0.0076207
0.00775339
0.0078826
0.00800561
0.00812057
0.00821929
0.00829644
0.00835845
0.00841512
0.00847338
0.00853768
0.00861084
0.00869423
0.00878785
0.00889012
0.00899699
0.00910057
0.00918973
0.00925386
0.00928839
0.00929827
0.00745678
0.00743539
0.00741837
0.00741345
0.00742316
0.00745195
0.00750276
0.00757552
0.00766743
0.00777359
0.00788813
0.00800533
0.00812056
0.00823064
0.00833361
0.00842827
0.00850824
0.00856944
0.00861714
0.00865915
0.00870093
0.00874608
0.008797
0.00885513
0.0089211
0.00899466
0.00907423
0.00915529
0.00922957
0.00928703
0.00932081
0.00933191
0.00788657
0.00787593
0.00788464
0.00790571
0.00793439
0.00797242
0.00802243
0.00808558
0.00816068
0.00824454
0.00833304
0.00842209
0.00850846
0.00858997
0.00866537
0.00873397
0.00879135
0.00883472
0.00886787
0.00889629
0.00892379
0.00895292
0.00898543
0.00902244
0.00906461
0.0091122
0.00916497
0.009221
0.00927552
0.00932097
0.00935021
0.00936117
0.00841707
0.00842741
0.00845845
0.00849088
0.00852222
0.00855459
0.00859062
0.0086322
0.00867957
0.00873135
0.00878536
0.00883924
0.00889113
0.00893979
0.00898451
0.00902496
0.00905862
0.00908388
0.00910297
0.00911905
0.00913431
0.00915023
0.00916781
0.00918772
0.0092104
0.0092361
0.00926495
0.00929646
0.00932862
0.0093574
0.00937776
0.00938647
0.00906758
0.00907701
0.00909444
0.00910985
0.0091233
0.00913594
0.00914892
0.00916318
0.00917904
0.00919622
0.00921403
0.00923175
0.00924875
0.00926465
0.00927921
0.00929235
0.00930325
0.00931141
0.00931755
0.00932267
0.00932749
0.00933246
0.00933792
0.00934408
0.00935107
0.00935898
0.00936789
0.00937771
0.00938797
0.00939758
0.00940496
0.00940853
)
;

boundaryField
{
    movingWall
    {
        type            fixedValue;
        value           uniform 0.00942;
    }
    fixedWalls
    {
        type            zeroGradient;
    }
    floor
    {
        type            zeroGradient;
    }
    frontAndBack
    {
        type            empty;
    }
}


// ************************************************************************* //
