/*--------------------------------*- C++ -*----------------------------------*\
| =========                 |                                                 |
| \\      /  F ield         | OpenFOAM: The Open Source CFD Toolbox           |
|  \\    /   O peration     | Version:  2212                                  |
|   \\  /    A nd           | Website:  www.openfoam.com                      |
|    \\/     M anipulation  |                                                 |
\*---------------------------------------------------------------------------*/
FoamFile
{
    version     2.0;
    format      ascii;
    arch        "LSB;label=64;scalar=64";
    class       volScalarField;
    location    "0.24";
    object      alpha.air;
}
// * * * * * * * * * * * * * * * * * * * * * * * * * * * * * * * * * * * * * //

dimensions      [0 0 0 0 0 0 0];

internalField   nonuniform List<scalar> 
32768
(
1.22757e-122
1.23915e-119
4.65782e-117
1.05473e-114
1.7147e-112
2.16421e-110
2.21421e-108
1.88884e-106
1.36713e-104
8.48083e-103
4.53647e-101
2.10043e-99
8.44055e-98
2.94841e-96
8.95383e-95
2.3604e-93
5.38788e-92
1.05906e-90
1.77922e-89
2.53069e-88
3.01209e-87
2.95087e-86
2.32916e-85
1.44436e-84
6.79378e-84
2.2826e-83
5.1288e-83
6.98386e-83
4.7902e-83
1.16176e-83
9.25662e-85
4.98608e-86
2.03037e-87
6.88803e-89
4.92224e-89
3.90144e-89
4.99453e-90
4.07952e-91
2.83573e-92
1.8083e-93
1.06783e-94
5.86595e-96
2.98543e-97
1.41188e-98
6.17963e-100
2.49201e-101
9.23188e-103
3.16932e-104
9.92351e-106
2.83875e-107
7.43621e-109
1.75881e-110
3.75437e-112
7.14278e-114
1.20296e-115
1.76101e-117
2.21186e-119
2.32863e-121
1.97797e-123
1.2973e-125
5.98747e-128
1.58441e-130
1.23214e-133
1.00501e-134
3.30369e-132
8.31583e-130
1.55204e-127
2.25424e-125
2.65644e-123
2.61526e-121
2.19757e-119
1.6027e-117
1.02999e-115
5.90208e-114
3.03385e-112
1.41495e-110
6.02764e-109
2.36548e-107
8.57339e-106
2.88922e-104
9.09746e-103
2.70107e-101
7.54155e-100
1.9962e-98
5.01389e-97
1.20213e-95
2.74926e-94
5.96855e-93
1.23423e-91
2.4228e-90
4.5095e-89
7.88356e-88
1.22669e-86
1.29392e-85
5.34505e-87
1.5246e-85
4.93932e-84
7.57507e-83
4.15159e-82
8.28118e-82
7.9585e-82
4.39718e-82
1.55816e-82
3.86694e-83
7.11281e-84
1.01166e-84
1.14773e-85
1.06265e-86
8.20081e-88
5.3407e-89
2.97247e-90
1.42437e-91
5.90771e-93
2.1316e-94
6.70959e-96
1.84355e-97
4.42079e-99
9.24192e-101
1.67985e-102
2.64294e-104
3.57534e-106
4.11501e-108
3.95748e-110
3.08894e-112
1.87345e-114
8.1686e-117
2.15116e-119
2.11995e-122
9.6301e-120
1.42666e-116
8.0815e-114
2.88116e-111
7.57581e-109
1.49234e-106
2.08317e-104
2.16605e-102
1.81592e-100
1.28273e-98
7.7373e-97
4.01162e-95
1.79695e-93
6.96504e-92
2.33616e-90
6.77772e-89
1.69765e-87
3.65692e-86
6.74909e-85
1.05745e-83
1.39302e-82
1.52187e-81
1.35105e-80
9.52226e-80
5.17883e-79
2.07069e-78
5.69717e-78
9.90962e-78
9.67239e-78
4.58837e-78
8.98557e-79
7.94793e-80
5.18428e-81
2.89053e-82
1.46381e-83
7.48244e-85
4.5393e-86
2.78831e-87
1.67935e-88
9.58904e-90
5.11209e-91
2.53767e-92
1.16561e-93
4.96528e-95
1.96065e-96
7.16796e-98
2.42151e-99
7.604e-101
2.19551e-102
5.82707e-104
1.42253e-105
3.15762e-107
6.36454e-109
1.15046e-110
1.85039e-112
2.61117e-114
3.17434e-116
3.25111e-118
2.70142e-120
1.73352e-122
7.81633e-125
1.97439e-127
1.37801e-130
1.3878e-131
5.09055e-129
1.26903e-126
2.3426e-124
3.3887e-122
3.99826e-120
3.9595e-118
3.36275e-116
2.49118e-114
1.63328e-112
9.58726e-111
5.078e-109
2.45124e-107
1.08704e-105
4.45972e-104
1.69932e-102
6.05203e-101
2.02577e-99
6.41757e-98
1.92525e-96
5.50808e-95
1.50519e-93
3.94819e-92
9.95009e-91
2.40897e-89
5.64988e-88
1.29167e-86
2.92962e-85
6.76032e-84
1.58769e-82
3.55851e-81
6.7733e-80
9.56225e-79
8.97633e-78
4.98368e-77
1.28848e-76
1.62847e-76
1.13814e-76
4.94566e-77
1.45529e-77
3.09023e-78
4.96984e-79
6.28204e-80
6.42035e-81
5.42047e-82
3.84236e-83
2.31408e-84
1.19438e-85
5.31602e-87
2.04825e-88
6.84657e-90
1.98665e-91
5.00203e-93
1.09181e-94
2.05845e-96
3.33326e-98
4.59248e-100
5.30669e-102
4.87968e-104
3.25756e-106
1.49724e-108
5.17374e-111
1.33482e-113
2.19794e-116
1.4061e-119
3.02995e-117
5.49739e-114
4.2369e-111
2.27656e-108
1.00599e-105
3.69592e-103
7.23843e-101
8.75337e-99
7.81416e-97
5.64266e-95
3.41489e-93
1.75997e-91
7.79403e-90
2.9815e-88
9.88187e-87
2.8408e-85
7.07785e-84
1.52443e-82
2.82584e-81
4.47813e-80
6.01078e-79
6.74887e-78
6.23224e-77
4.63001e-76
2.68585e-75
1.16816e-74
3.6036e-74
7.30193e-74
8.72065e-74
5.28549e-74
1.37085e-74
1.49026e-75
9.93048e-77
5.70118e-78
3.01187e-79
1.51847e-80
7.43204e-82
3.54383e-83
1.6394e-84
7.30523e-86
3.11332e-87
1.26159e-88
4.8397e-90
1.75209e-91
5.97119e-93
1.91149e-94
5.73456e-96
1.6141e-97
4.25016e-99
1.04041e-100
2.37798e-102
4.99688e-104
9.68817e-106
1.7046e-107
2.68398e-109
3.77851e-111
4.60283e-113
4.73659e-115
3.96963e-117
2.56875e-119
1.17058e-121
2.9478e-124
1.82546e-127
1.52899e-128
6.24091e-126
1.63037e-123
3.07914e-121
4.51033e-119
5.36256e-117
5.34263e-115
4.56714e-113
3.41241e-111
2.26196e-109
1.34658e-107
7.27227e-106
3.597e-104
1.6472e-102
7.00969e-101
2.78952e-99
1.0447e-97
3.70248e-96
1.24784e-94
4.01565e-93
1.24267e-91
3.69717e-90
1.06113e-88
2.94665e-87
7.93302e-86
2.09432e-84
5.4734e-83
1.45072e-81
4.03248e-80
1.15597e-78
3.10544e-77
6.77158e-76
1.03873e-74
9.62426e-74
4.47624e-73
9.47925e-73
1.00514e-72
6.10199e-73
2.36622e-73
6.35735e-74
1.25687e-74
1.91299e-75
2.31947e-76
2.29928e-77
1.90029e-78
1.32878e-79
7.94802e-81
4.09832e-82
1.83174e-83
7.12091e-85
2.41181e-86
7.11632e-88
1.826e-89
4.05969e-91
7.77519e-93
1.27099e-94
1.74473e-96
1.94322e-98
1.60789e-100
8.0894e-103
1.94054e-105
3.79907e-108
6.27875e-111
7.47025e-114
3.88854e-117
1.65065e-114
3.06342e-111
2.511e-108
1.52479e-105
8.34511e-103
3.26612e-100
6.21876e-98
7.23787e-96
6.31807e-94
4.48953e-92
2.68353e-90
1.37025e-88
6.0307e-87
2.30012e-85
7.62681e-84
2.20164e-82
5.53064e-81
1.20631e-79
2.27537e-78
3.68898e-77
5.09679e-76
5.93183e-75
5.72618e-74
4.49135e-73
2.78443e-72
1.31439e-71
4.48935e-71
1.03375e-70
1.45311e-70
1.08525e-70
3.6312e-71
5.05726e-72
3.56523e-73
1.85122e-74
9.41571e-76
4.79736e-77
2.40572e-78
1.18472e-79
5.6967e-81
2.65275e-82
1.18657e-83
5.06404e-85
2.05171e-86
7.86213e-88
2.84137e-89
9.66032e-91
3.08213e-92
9.20242e-94
2.56288e-95
6.63159e-97
1.58668e-98
3.48974e-100
7.00506e-102
1.27204e-103
2.06676e-105
2.96321e-107
3.68209e-109
3.87091e-111
3.32713e-113
2.21867e-115
1.04731e-117
2.84791e-120
1.88911e-123
9.97857e-125
4.17263e-122
1.09119e-119
2.04198e-117
2.94751e-115
3.44173e-113
3.35971e-111
2.80875e-109
2.0486e-107
1.32295e-105
7.65639e-104
4.01179e-102
1.92012e-100
8.46092e-99
3.45699e-97
1.31832e-95
4.72114e-94
1.59678e-92
5.12713e-91
1.57009e-89
4.60329e-88
1.29595e-86
3.51093e-85
9.16865e-84
2.31288e-82
5.66187e-81
1.36268e-79
3.38102e-78
9.15709e-77
2.6128e-75
6.92234e-74
1.45368e-72
2.08764e-71
1.74673e-70
7.00641e-70
1.27303e-69
1.18185e-69
6.42586e-70
2.27528e-70
5.67174e-71
1.05425e-71
1.52545e-72
1.77487e-73
1.70176e-74
1.36958e-75
9.37983e-77
5.52265e-78
2.81541e-79
1.24892e-80
4.83565e-82
1.63643e-83
4.83851e-85
1.24749e-86
2.79397e-88
5.40366e-90
8.94223e-92
1.24631e-93
1.41632e-95
1.21133e-97
6.32397e-100
1.49841e-102
2.37264e-105
3.51816e-108
3.97362e-111
2.03252e-114
7.67262e-112
1.40112e-108
1.1316e-105
6.79352e-103
3.81669e-100
1.38187e-97
2.53953e-95
2.8973e-93
2.49459e-91
1.75374e-89
1.03953e-87
5.27591e-86
2.31366e-84
8.81555e-83
2.92847e-81
8.49562e-80
2.15203e-78
4.75103e-77
9.10872e-76
1.50808e-74
2.13914e-73
2.57166e-72
2.58273e-71
2.12562e-70
1.39714e-69
7.08273e-69
2.64026e-68
6.77383e-68
1.08951e-67
9.6237e-68
3.925e-68
6.55646e-69
5.26692e-70
2.77525e-71
1.4105e-72
7.45398e-74
3.93076e-75
2.04808e-76
1.04472e-77
5.16538e-79
2.45362e-80
1.11208e-81
4.78574e-83
1.94859e-84
7.48663e-86
2.70785e-87
9.19811e-89
2.92644e-90
8.69257e-92
2.40117e-93
6.13877e-95
1.44401e-96
3.10293e-98
6.03745e-100
1.05214e-101
1.61985e-103
2.16455e-105
2.45183e-107
2.27724e-109
1.64885e-111
8.53227e-114
2.61198e-116
2.25503e-119
6.57183e-121
2.71155e-118
6.87818e-116
1.23754e-113
1.7088e-111
1.90243e-109
1.7665e-107
1.40223e-105
9.69643e-104
5.92878e-102
3.24468e-100
1.60575e-98
7.2498e-97
3.00967e-95
1.15704e-93
4.14646e-92
1.39378e-90
4.42013e-89
1.32971e-87
3.81321e-86
1.04683e-84
2.76046e-83
7.00983e-82
1.71752e-80
4.06913e-79
9.36077e-78
2.11251e-76
4.80639e-75
1.18724e-73
3.2614e-72
8.37158e-71
1.67709e-69
2.23459e-68
1.66629e-67
5.71326e-67
8.90602e-67
7.25868e-67
3.54489e-67
1.14913e-67
2.66356e-68
4.66292e-69
6.42237e-70
7.17664e-71
6.65839e-72
5.2184e-73
3.49927e-74
2.02667e-75
1.02044e-76
4.48674e-78
1.72737e-79
5.82917e-81
1.72318e-82
4.45246e-84
1.00157e-85
1.94961e-87
3.25366e-89
4.5824e-91
5.27572e-93
4.59554e-95
2.47989e-97
6.35787e-100
1.02189e-102
1.55402e-105
1.78823e-108
9.3121e-112
2.57555e-109
4.58175e-106
3.60394e-103
2.09151e-100
1.12566e-97
3.81757e-95
6.82691e-93
7.66985e-91
6.52678e-89
4.54456e-87
2.67318e-85
1.34911e-83
5.89627e-82
2.24437e-80
7.46779e-79
2.17626e-77
5.55524e-76
1.24028e-74
2.41426e-73
4.07645e-72
5.92686e-71
7.34593e-70
7.65778e-69
6.59467e-68
4.58e-67
2.48294e-66
1.00485e-65
2.8531e-65
5.20574e-65
5.38127e-65
2.65113e-65
5.32578e-66
4.86998e-67
2.73755e-68
1.45441e-69
8.21943e-71
4.6785e-72
2.63895e-73
1.45724e-74
7.78983e-76
3.99445e-77
1.95189e-78
9.04848e-80
3.96728e-81
1.64139e-82
6.39517e-84
2.34144e-85
8.03554e-87
2.57692e-88
7.69255e-90
2.1274e-91
5.41863e-93
1.26202e-94
2.66409e-96
5.04218e-98
8.44032e-100
1.22797e-101
1.51717e-103
1.54107e-105
1.2256e-107
7.02468e-110
2.43541e-112
2.66115e-115
4.48609e-117
1.79902e-114
4.37219e-112
7.47384e-110
9.75828e-108
1.02423e-105
8.94805e-104
6.67312e-102
4.33027e-100
2.48216e-98
1.27228e-96
5.89118e-95
2.48587e-93
9.63263e-92
3.45152e-90
1.15097e-88
3.59361e-87
1.05666e-85
2.94222e-84
7.79835e-83
1.97672e-81
4.81076e-80
1.12758e-78
2.55131e-77
5.58502e-76
1.18724e-74
2.47266e-73
5.16309e-72
1.14737e-70
2.92505e-69
7.12107e-68
1.33791e-66
1.62783e-65
1.06325e-64
3.08786e-64
4.12763e-64
2.95937e-64
1.30128e-64
3.87085e-65
8.36055e-66
1.38108e-66
1.81368e-67
1.94924e-68
1.75209e-69
1.33855e-70
8.79535e-72
5.01387e-73
2.49443e-74
1.0874e-75
4.16327e-77
1.40098e-78
4.14001e-80
1.07175e-81
2.42044e-83
4.73934e-85
7.97064e-87
1.13319e-88
1.31944e-90
1.16608e-92
6.45564e-95
1.77705e-97
3.06766e-100
4.86141e-103
5.77023e-106
3.09822e-109
6.55197e-107
1.1247e-103
8.56139e-101
4.79687e-98
2.42427e-95
7.79101e-93
1.36169e-90
1.50906e-88
1.26999e-86
8.76002e-85
5.11329e-83
2.56568e-81
1.11718e-79
4.24635e-78
1.41438e-76
4.13747e-75
1.06339e-73
2.39854e-72
4.73488e-71
8.14287e-70
1.21176e-68
1.54591e-67
1.66967e-66
1.50136e-65
1.099e-64
6.3528e-64
2.78141e-63
8.70312e-63
1.79229e-62
2.15622e-62
1.27937e-62
3.12109e-63
3.28812e-64
2.02282e-65
1.16101e-66
7.19164e-68
4.51148e-69
2.80596e-70
1.70514e-71
1.00028e-72
5.61405e-74
2.99667e-75
1.51563e-76
7.24636e-78
3.26951e-79
1.38999e-80
5.55823e-82
2.08581e-83
7.32389e-85
2.39705e-86
7.27757e-88
2.03734e-89
5.22061e-91
1.21358e-92
2.53125e-94
4.67309e-96
7.50487e-98
1.02478e-99
1.15273e-101
1.01893e-103
6.54101e-106
2.59316e-108
3.61555e-111
3.47468e-113
1.34378e-110
3.1057e-108
4.99761e-106
6.10709e-104
5.97706e-102
4.85671e-100
3.36248e-98
2.02279e-96
1.07368e-94
5.09114e-93
2.17879e-91
8.48898e-90
3.03404e-88
1.0015e-86
3.07214e-85
8.80925e-84
2.37461e-82
6.05027e-81
1.46481e-79
3.38651e-78
7.50923e-77
1.60279e-75
3.3022e-74
6.58249e-73
1.27365e-71
2.41025e-70
4.55112e-69
9.02168e-68
2.07192e-66
4.68701e-65
8.12783e-64
8.89118e-63
5.00216e-62
1.22185e-61
1.40087e-61
8.85374e-62
3.51365e-62
9.61291e-63
1.93884e-63
3.02805e-64
3.79827e-65
3.93246e-66
3.42939e-67
2.55712e-68
1.64822e-69
9.25675e-71
4.55411e-72
1.96968e-73
7.50384e-75
2.51923e-76
7.44479e-78
1.9315e-79
4.38028e-81
8.62837e-83
1.46235e-84
2.09834e-86
2.46957e-88
2.21105e-90
1.25154e-92
3.66301e-95
6.87517e-98
1.13335e-100
1.39971e-103
7.82919e-107
1.33177e-104
2.18771e-101
1.59956e-98
8.64232e-96
4.07562e-93
1.25041e-90
2.14209e-88
2.34344e-86
1.9507e-84
1.33277e-82
7.71769e-81
3.84857e-79
1.66876e-77
6.32985e-76
2.10901e-74
6.18768e-73
1.59965e-71
3.6412e-70
7.28075e-69
1.27361e-67
1.93707e-66
2.5396e-65
2.83688e-64
2.65832e-63
2.04643e-62
1.2581e-61
5.94132e-61
2.04156e-60
4.72607e-60
6.58868e-60
4.69805e-60
1.40493e-60
1.73188e-61
1.18998e-62
7.5645e-64
5.24045e-65
3.68636e-66
2.5667e-67
1.74003e-68
1.1347e-69
7.06066e-71
4.1721e-72
2.33478e-73
1.23551e-74
6.1752e-76
2.9115e-77
1.29272e-78
5.39254e-80
2.10667e-81
7.67589e-83
2.59505e-84
8.08922e-86
2.30732e-87
5.96728e-89
1.38394e-90
2.83947e-92
5.06662e-94
7.68894e-96
9.62418e-98
9.49603e-100
6.8545e-102
3.11716e-104
5.5256e-107
3.0359e-109
1.12325e-106
2.46058e-104
3.70928e-102
4.21801e-100
3.82466e-98
2.87002e-96
1.83043e-94
1.01227e-92
4.93068e-91
2.14214e-89
8.38722e-88
2.9855e-86
9.73473e-85
2.92717e-83
8.16648e-82
2.12601e-80
5.19311e-79
1.19663e-77
2.61496e-76
5.44719e-75
1.0868e-73
2.08538e-72
3.86092e-71
6.91474e-70
1.2014e-68
2.03747e-67
3.43071e-66
6.00751e-65
1.21244e-63
2.50124e-62
3.94465e-61
3.82433e-60
1.82433e-59
3.72983e-59
3.67146e-59
2.05029e-59
7.36186e-60
1.85687e-60
3.50503e-61
5.18616e-62
6.22547e-63
6.21975e-64
5.27061e-65
3.84106e-66
2.43165e-67
1.34692e-68
6.55932e-70
2.81711e-71
1.06875e-72
3.5822e-74
1.05929e-75
2.75571e-77
6.27822e-79
1.24458e-80
2.12625e-82
3.07974e-84
3.66343e-86
3.3208e-88
1.91892e-90
5.9322e-93
1.20506e-95
2.08029e-98
2.6957e-101
1.58307e-104
2.2342e-102
3.491e-99
2.4356e-96
1.26148e-93
5.56897e-91
1.63859e-88
2.75668e-86
2.97786e-84
2.45158e-82
1.65863e-80
9.52453e-79
4.71787e-77
2.03587e-75
7.70108e-74
2.56461e-72
7.53956e-71
1.95853e-69
4.49371e-68
9.08967e-67
1.61507e-65
2.50676e-64
3.37192e-63
3.88875e-62
3.79002e-61
3.06164e-60
1.99684e-59
1.01422e-58
3.81457e-58
9.88873e-58
1.59107e-57
1.35995e-57
5.02178e-58
7.37125e-59
5.75157e-60
4.13696e-61
3.26231e-62
2.61057e-63
2.05977e-64
1.57528e-65
1.15489e-66
8.06389e-68
5.34438e-69
3.35642e-70
1.99547e-71
1.12191e-72
5.9565e-74
2.98003e-75
1.40084e-76
6.16391e-78
2.52697e-79
9.59822e-81
3.35562e-82
1.07153e-83
3.09722e-85
8.017e-87
1.83426e-88
3.64937e-90
6.18061e-92
8.65395e-94
9.59624e-96
7.85621e-98
4.13958e-100
9.34075e-103
2.97749e-105
1.02808e-102
2.11829e-100
2.96819e-98
3.11855e-96
2.60332e-94
1.79406e-92
1.04877e-90
5.30703e-89
2.36143e-87
9.3562e-86
3.33499e-84
1.07873e-82
3.18987e-81
8.67982e-80
2.18621e-78
5.12523e-77
1.1243e-75
2.32003e-74
4.52742e-73
8.39987e-72
1.48943e-70
2.53607e-69
4.16323e-68
6.60931e-67
1.01751e-65
1.52655e-64
2.26321e-63
3.45498e-62
6.02062e-61
1.11187e-59
1.57163e-58
1.33207e-57
5.31106e-57
9.06181e-57
7.67172e-57
3.79549e-57
1.23636e-57
2.88226e-58
5.10381e-59
7.17023e-60
8.25347e-61
7.97181e-62
6.57507e-63
4.69023e-64
2.92018e-65
1.59725e-66
7.70793e-68
3.29054e-69
1.24427e-70
4.16703e-72
1.23391e-73
3.22075e-75
7.37567e-77
1.47218e-78
2.53625e-80
3.70936e-82
4.46026e-84
4.09273e-86
2.41097e-88
7.84331e-91
1.71633e-93
3.12479e-96
4.27382e-99
2.65098e-102
3.16874e-100
4.68381e-97
3.10024e-94
1.53091e-91
6.34594e-89
1.79675e-86
2.97257e-84
3.17075e-82
2.58113e-80
1.7286e-78
9.83883e-77
4.83826e-75
2.07644e-73
7.82696e-72
2.60299e-70
7.66037e-69
1.9973e-67
4.61359e-66
9.42766e-65
1.69898e-63
2.68675e-62
3.70162e-61
4.39925e-60
4.45035e-59
3.76405e-58
2.59785e-57
1.41505e-56
5.80597e-56
1.67906e-55
3.10491e-55
3.1709e-55
1.45263e-55
2.58689e-56
2.33014e-57
1.93102e-58
1.75852e-59
1.62012e-60
1.46505e-61
1.27948e-62
1.06911e-63
8.50424e-65
6.42319e-66
4.59942e-67
3.11821e-68
1.99824e-69
1.20782e-70
6.86714e-72
3.66014e-73
1.82148e-74
8.4243e-76
3.60179e-77
1.41495e-78
5.07188e-80
1.64531e-81
4.78326e-83
1.23129e-84
2.7638e-86
5.30135e-88
8.4505e-90
1.07441e-91
1.01956e-93
6.36245e-96
1.8414e-98
3.71608e-101
1.12375e-98
2.12881e-96
2.70741e-94
2.56817e-92
1.93173e-90
1.19913e-88
6.31727e-87
2.88322e-85
1.15808e-83
4.14453e-82
1.33478e-80
3.9003e-79
1.04121e-77
2.55458e-76
5.7909e-75
1.21883e-73
2.39308e-72
4.40391e-71
7.63327e-70
1.25261e-68
1.95658e-67
2.92478e-66
4.20493e-65
5.83833e-64
7.85503e-63
1.02853e-61
1.32549e-60
1.74188e-59
2.57874e-58
4.18249e-57
5.22709e-56
3.8201e-55
1.25697e-54
1.78763e-54
1.30476e-54
5.73592e-55
1.69998e-55
3.6729e-56
6.11669e-57
8.1781e-58
9.04614e-59
8.46348e-60
6.8063e-61
4.75989e-62
2.91877e-63
1.57852e-64
7.5574e-66
3.21035e-67
1.21115e-68
4.05632e-70
1.20372e-71
3.15473e-73
7.26639e-75
1.46113e-76
2.53963e-78
3.75191e-80
4.56156e-82
4.23721e-84
2.54276e-86
8.67981e-89
2.04064e-91
3.93907e-94
5.70994e-97
3.75534e-100
3.83317e-98
5.3454e-95
3.35273e-92
1.57348e-89
6.13798e-87
1.67669e-84
2.73096e-82
2.87604e-80
2.3143e-78
1.53355e-76
8.64731e-75
4.21899e-73
1.79954e-71
6.75411e-70
2.24115e-68
6.5957e-67
1.72412e-65
4.00434e-64
8.25469e-63
1.50643e-61
2.42311e-60
3.41309e-59
4.17195e-58
4.37136e-57
3.86197e-56
2.81318e-55
1.63841e-54
7.30839e-54
2.3485e-53
4.96899e-53
6.03866e-53
3.43912e-53
7.57383e-54
7.98751e-55
7.74764e-56
8.2517e-57
8.85777e-58
9.30393e-59
9.42222e-60
9.12211e-61
8.40019e-62
7.33349e-63
6.05486e-64
4.71803e-65
3.46253e-66
2.38818e-67
1.54437e-68
9.3387e-70
5.26425e-71
2.75653e-72
1.33521e-73
5.95286e-75
2.42799e-76
8.99167e-78
2.99508e-79
8.86638e-81
2.29693e-82
5.10222e-84
9.45101e-86
1.40216e-87
1.56315e-89
1.16376e-91
4.26741e-94
6.41519e-97
1.59427e-94
2.75538e-92
3.1402e-90
2.6435e-88
1.7544e-86
9.57574e-85
4.42799e-83
1.77324e-81
6.25411e-80
1.96855e-78
5.58839e-77
1.44305e-75
3.41294e-74
7.43506e-73
1.49899e-71
2.80823e-70
4.90652e-69
8.02324e-68
1.23237e-66
1.78519e-65
2.44973e-64
3.2004e-63
4.00136e-62
4.81183e-61
5.59059e-60
6.30537e-59
6.97002e-58
7.78108e-57
9.62714e-56
1.34633e-54
1.46615e-53
9.10619e-53
2.44694e-52
2.90171e-52
1.83153e-52
7.17848e-53
1.94183e-53
3.89965e-54
6.12426e-55
7.81211e-56
8.32287e-57
7.55819e-58
5.93753e-59
4.07766e-60
2.46636e-61
1.32065e-62
6.2808e-64
2.65791e-65
1.00146e-66
3.35733e-68
9.99276e-70
2.63153e-71
6.10052e-73
1.23653e-74
2.16951e-76
3.23897e-78
3.983e-80
3.74601e-82
2.28907e-84
8.17373e-87
2.0567e-89
4.21093e-92
6.49742e-95
4.55486e-98
4.02972e-96
5.28632e-93
3.12814e-90
1.38985e-87
5.10631e-85
1.34832e-82
2.16364e-80
2.24908e-78
1.78833e-76
1.17199e-74
6.54342e-73
3.1655e-71
1.34094e-69
5.00724e-68
1.65626e-66
4.86952e-65
1.27468e-63
2.97275e-62
6.17293e-61
1.13892e-59
1.86007e-58
2.67348e-57
3.35407e-56
3.63191e-55
3.34339e-54
2.56334e-53
1.59125e-52
7.68893e-52
2.73394e-51
6.58685e-51
9.47931e-51
6.70817e-51
1.86006e-51
2.3256e-52
2.67738e-53
3.38075e-54
4.29649e-55
5.33706e-56
6.3778e-57
7.25648e-58
7.80887e-59
7.91669e-60
7.54522e-61
6.75364e-62
5.67475e-63
4.47458e-64
3.30908e-65
2.29263e-66
1.4853e-67
8.97197e-69
5.03231e-70
2.60659e-71
1.23816e-72
5.34737e-74
2.0778e-75
7.17156e-77
2.16417e-78
5.5957e-80
1.20659e-81
2.08772e-83
2.72925e-85
2.41668e-87
1.1088e-89
1.41206e-92
2.57334e-90
4.07711e-88
4.18828e-86
3.14988e-84
1.85616e-82
8.95006e-81
3.63917e-79
1.27583e-77
3.92329e-76
1.07286e-74
2.63867e-73
5.89271e-72
1.20462e-70
2.26975e-69
3.96493e-68
6.45249e-67
9.8217e-66
1.40295e-64
1.88588e-63
2.3919e-62
2.87029e-61
3.26916e-60
3.5472e-59
3.68194e-58
3.67205e-57
3.53594e-56
3.31574e-55
3.10491e-54
3.15691e-53
3.73463e-52
3.49124e-51
1.81351e-50
3.94817e-50
3.91089e-50
2.1426e-50
7.51478e-51
1.86178e-51
3.48629e-52
5.17811e-53
6.31853e-54
6.49921e-55
5.74129e-56
4.4144e-57
2.98236e-58
1.78214e-59
9.46199e-61
4.47589e-62
1.88915e-63
7.1166e-65
2.39044e-66
7.14237e-68
1.8914e-69
4.41614e-71
9.02855e-73
1.59986e-74
2.41487e-76
3.00472e-78
2.86205e-80
1.77961e-82
6.63488e-85
1.78468e-87
3.89171e-90
6.39112e-93
4.7733e-96
3.68896e-94
4.53928e-91
2.52954e-88
1.06276e-85
3.68475e-83
9.43191e-81
1.49157e-78
1.52991e-76
1.20159e-74
7.78437e-73
4.30089e-71
2.06171e-69
8.6675e-68
3.21746e-66
1.05993e-64
3.10991e-63
8.1425e-62
1.90426e-60
3.97707e-59
7.406e-58
1.22578e-56
1.79411e-55
2.3051e-54
2.57338e-53
2.46195e-52
1.98091e-51
1.30638e-50
6.81188e-50
2.66817e-49
7.28209e-49
1.23403e-48
1.082e-48
3.83493e-49
5.75053e-50
7.97713e-51
1.21702e-51
1.86972e-52
2.79456e-53
3.98039e-54
5.3382e-55
6.70515e-56
7.88055e-57
8.67881e-58
8.97685e-59
8.73921e-60
8.01729e-61
6.9296e-62
5.63303e-63
4.29226e-64
3.0515e-65
2.01246e-66
1.22306e-67
6.79864e-69
3.42748e-70
1.55185e-71
6.23682e-73
2.19275e-74
6.61827e-76
1.67158e-77
3.40557e-79
5.2851e-81
5.64014e-83
3.25767e-85
4.59921e-88
4.86159e-86
6.88672e-84
6.226e-82
4.09816e-80
2.11067e-78
8.89855e-77
3.16693e-75
9.72705e-74
2.62138e-72
6.27825e-71
1.35002e-69
2.62832e-68
4.66612e-67
7.60157e-66
1.14286e-64
1.59411e-63
2.07317e-62
2.52561e-61
2.89458e-60
3.13322e-59
3.21432e-58
3.13484e-57
2.91449e-56
2.58963e-55
2.20451e-54
1.8032e-53
1.42553e-52
1.11055e-51
9.15608e-51
8.96943e-50
7.08379e-49
3.02328e-48
5.30567e-48
4.40368e-48
2.10304e-48
6.62766e-49
1.50949e-49
2.64464e-50
3.72654e-51
4.36221e-52
4.34308e-53
3.74063e-54
2.82081e-55
1.87822e-56
1.11067e-57
5.85582e-59
2.75897e-60
1.16286e-61
4.38455e-63
1.47707e-64
4.43419e-66
1.18172e-67
2.78083e-69
5.73793e-71
1.02747e-72
1.56875e-74
1.97583e-76
1.90672e-78
1.20551e-80
4.68169e-83
1.34267e-85
3.11704e-88
5.46585e-91
4.36703e-94
2.95813e-92
3.40563e-89
1.78306e-86
7.08562e-84
2.32293e-81
5.77791e-79
9.00888e-77
9.11462e-75
7.06794e-73
4.52414e-71
2.47218e-69
1.17355e-67
4.89271e-66
1.80404e-64
5.9135e-63
1.72973e-61
4.5245e-60
1.05965e-58
2.22244e-57
4.16971e-56
6.98042e-55
1.03817e-53
1.36282e-52
1.56459e-51
1.5513e-50
1.30589e-49
9.11725e-49
5.10955e-48
2.1943e-47
6.74619e-47
1.33758e-46
1.44583e-46
6.62078e-47
1.20511e-47
2.05312e-48
3.87008e-49
7.30714e-50
1.32231e-50
2.24355e-51
3.54356e-52
5.21665e-53
7.19175e-54
9.33096e-55
1.14329e-55
1.32444e-56
1.44906e-57
1.49325e-58
1.44392e-59
1.30459e-60
1.0964e-61
8.53016e-63
6.11143e-64
4.00753e-65
2.38762e-66
1.28074e-67
6.11526e-69
2.56152e-70
9.23571e-72
2.79406e-73
6.8403e-75
1.28206e-76
1.67008e-78
1.21749e-80
2.22837e-83
1.25627e-81
1.55881e-79
1.20866e-77
6.75564e-76
2.93927e-74
1.04458e-72
3.13422e-71
8.13271e-70
1.85826e-68
3.79093e-67
6.97877e-66
1.16885e-64
1.79225e-63
2.52806e-62
3.29271e-61
3.97238e-60
4.45147e-59
4.64681e-58
4.5331e-57
4.14822e-56
3.5768e-55
2.9208e-54
2.27084e-53
1.68907e-52
1.20618e-51
8.28507e-51
5.48559e-50
3.54201e-49
2.35897e-48
1.86775e-47
1.22603e-46
4.21878e-46
5.95562e-46
4.15982e-46
1.74018e-46
4.94996e-47
1.04063e-47
1.7121e-48
2.29637e-49
2.58644e-50
2.49925e-51
2.10377e-52
1.55929e-53
1.02523e-54
6.0099e-56
3.15143e-57
1.48093e-58
6.241e-60
2.35789e-61
7.97432e-63
2.40733e-64
6.46139e-66
1.53352e-67
3.19557e-69
5.78567e-71
8.9398e-73
1.14024e-74
1.11525e-76
7.16484e-79
2.89169e-81
8.82462e-84
2.18314e-86
4.08997e-89
3.49846e-92
2.08022e-90
2.24507e-87
1.10646e-84
4.1505e-82
1.28777e-79
3.11688e-77
4.79301e-75
4.78111e-73
3.6589e-71
2.31287e-69
1.24927e-67
5.86882e-66
2.42473e-64
8.87321e-63
2.89148e-61
8.42306e-60
2.19853e-58
5.14947e-57
1.08289e-55
2.04333e-54
3.45286e-53
5.20642e-52
6.96564e-51
8.20156e-50
8.40288e-49
7.37645e-48
5.43187e-47
3.25785e-46
1.52625e-45
5.25405e-45
1.21018e-44
1.6016e-44
9.5261e-45
2.13784e-45
4.57209e-46
1.08397e-46
2.52666e-47
5.5228e-48
1.11716e-48
2.09764e-49
3.6849e-50
6.09757e-51
9.53834e-52
1.41112e-52
1.9713e-53
2.59412e-54
3.20744e-55
3.71647e-56
4.02431e-57
4.05879e-58
3.79698e-59
3.27751e-60
2.59349e-61
1.8664e-62
1.20974e-63
6.97913e-65
3.53124e-66
1.53776e-67
5.62102e-69
1.66517e-70
3.79039e-72
6.05005e-74
5.55407e-76
1.41942e-78
4.27503e-77
4.63889e-75
3.08049e-73
1.4598e-71
5.35089e-70
1.59461e-68
3.99675e-67
8.63554e-66
1.63882e-64
2.77212e-63
4.22918e-62
5.87523e-61
7.49029e-60
8.81814e-59
9.63241e-58
9.79642e-57
9.2971e-56
8.24388e-55
6.83475e-54
5.30152e-53
3.85226e-52
2.62912e-51
1.69315e-50
1.03584e-49
6.06716e-49
3.42494e-48
1.87027e-47
9.93828e-47
5.33951e-46
3.36119e-45
1.8065e-44
4.92063e-44
5.59272e-44
3.30533e-44
1.21789e-44
3.14236e-45
6.12473e-46
9.50025e-47
1.21721e-47
1.32331e-48
1.24456e-49
1.02646e-50
7.49448e-52
4.87555e-53
2.83828e-54
1.48261e-55
6.95889e-57
2.9359e-58
1.11266e-59
3.78138e-61
1.14892e-62
3.10817e-64
7.4451e-66
1.56775e-67
2.87153e-69
4.49253e-71
5.80534e-73
5.75752e-75
3.7569e-77
1.57139e-79
5.09234e-82
1.34208e-84
2.68401e-87
2.45828e-90
1.29117e-88
1.30279e-85
6.03515e-83
2.13929e-80
6.29468e-78
1.48782e-75
2.25565e-73
2.21741e-71
1.67392e-69
1.04441e-67
5.57307e-66
2.58929e-64
1.05935e-62
3.84441e-61
1.24428e-59
3.60613e-58
9.38157e-57
2.19463e-55
4.62024e-54
8.75213e-53
1.48977e-51
2.27211e-50
3.09009e-49
3.7208e-48
3.92683e-47
3.58226e-46
2.77142e-45
1.77083e-44
9.00174e-44
3.44749e-43
9.15308e-43
1.4705e-42
1.13568e-42
3.24103e-43
8.99705e-44
2.71417e-44
7.81048e-45
2.07728e-45
5.108e-46
1.1701e-46
2.5123e-47
5.07259e-48
9.64549e-49
1.72839e-49
2.91952e-50
4.64796e-51
6.96815e-52
9.81984e-53
1.29724e-53
1.60041e-54
1.83512e-55
1.94441e-56
1.89044e-57
1.67245e-58
1.3329e-59
9.45425e-61
5.87961e-62
3.14604e-63
1.41287e-64
5.14552e-66
1.4433e-67
2.85789e-69
3.32614e-71
1.21203e-73
2.17195e-72
2.0267e-70
1.13106e-68
4.45303e-67
1.34607e-65
3.2906e-64
6.73977e-63
1.18689e-61
1.83309e-60
2.52213e-59
3.1306e-58
3.54128e-57
3.68028e-56
3.53647e-55
3.15792e-54
2.6306e-53
2.05027e-52
1.49826e-51
1.02791e-50
6.6241e-50
4.00883e-49
2.27729e-48
1.21448e-47
6.09328e-47
2.89208e-46
1.31069e-45
5.7344e-45
2.44889e-44
1.05147e-43
5.18957e-43
2.25441e-42
4.78614e-42
4.39604e-42
2.21279e-42
7.2254e-43
1.70017e-43
3.08698e-44
4.53356e-45
5.56962e-46
5.86437e-47
5.38407e-48
4.36227e-49
3.14482e-50
2.02844e-51
1.17482e-52
6.12316e-54
2.87472e-55
1.21569e-56
4.62667e-58
1.58155e-59
4.84044e-61
1.32083e-62
3.19528e-64
6.80341e-66
1.26135e-67
1.99908e-69
2.6184e-71
2.63442e-73
1.74544e-75
7.54002e-78
2.58741e-80
7.26654e-83
1.55034e-85
1.5189e-88
7.04799e-87
6.66547e-84
2.90871e-81
9.7352e-79
2.72252e-76
6.3046e-74
9.42146e-72
9.1229e-70
6.79023e-68
4.17966e-66
2.20209e-64
1.0112e-62
4.09386e-61
1.47213e-59
4.72823e-58
1.36195e-56
3.52756e-55
8.23099e-54
1.7321e-52
3.28804e-51
5.62594e-50
8.65784e-49
1.19367e-47
1.46544e-46
1.58781e-45
1.4997e-44
1.2139e-43
8.22368e-43
4.51029e-42
1.90853e-41
5.79133e-41
1.11816e-40
1.1149e-40
4.21875e-41
1.54538e-41
5.90125e-42
2.10583e-42
6.92716e-43
2.10778e-43
5.9624e-44
1.57568e-44
3.90906e-45
9.14383e-46
2.02308e-46
4.24029e-47
8.41838e-48
1.58065e-48
2.79907e-49
4.65672e-50
7.24278e-51
1.04695e-51
1.39684e-52
1.70658e-53
1.89214e-54
1.88415e-55
1.66469e-56
1.28601e-57
8.5287e-59
4.74069e-60
2.13654e-61
7.4296e-63
1.83457e-64
2.71191e-66
1.3846e-68
1.57925e-67
1.25634e-65
5.84409e-64
1.89633e-62
4.68771e-61
9.31012e-60
1.53985e-58
2.17711e-57
2.68483e-56
2.93539e-55
2.88442e-54
2.57736e-53
2.1154e-52
1.60844e-51
1.14078e-50
7.58575e-50
4.74508e-49
2.79706e-48
1.55459e-47
8.14514e-47
4.0206e-46
1.86818e-45
8.16227e-45
3.34961e-44
1.29097e-43
4.68667e-43
1.61671e-42
5.38837e-42
1.79754e-41
6.82281e-41
2.36346e-40
3.87124e-40
2.89174e-40
1.24918e-40
3.63923e-41
7.85553e-42
1.33555e-42
1.86549e-43
2.20637e-44
2.2579e-45
2.02992e-46
1.62009e-47
1.15597e-48
7.4082e-50
4.27666e-51
2.22765e-52
1.04757e-53
4.44597e-55
1.70097e-56
5.85378e-58
1.80615e-59
4.97487e-61
1.21626e-62
2.6201e-64
4.91962e-66
7.90242e-68
1.04962e-69
1.07188e-71
7.20468e-74
3.20065e-76
1.15739e-78
3.44081e-81
7.83401e-84
8.2318e-87
3.39275e-85
2.99744e-82
1.22952e-79
3.90916e-77
1.04379e-74
2.38036e-72
3.50202e-70
3.33851e-68
2.44885e-66
1.48636e-64
7.72769e-63
3.50507e-61
1.40321e-59
4.9959e-58
1.59092e-56
4.55014e-55
1.17203e-53
2.72432e-52
5.72208e-51
1.0866e-49
1.86498e-48
2.88887e-47
4.02639e-46
5.02381e-45
5.56874e-44
5.42441e-43
4.57348e-42
3.26835e-41
1.92238e-40
8.92209e-40
3.06609e-39
7.03393e-39
8.96167e-39
4.62159e-39
2.23211e-39
1.08499e-39
4.89078e-40
2.0262e-40
7.73245e-41
2.73697e-41
9.06195e-42
2.82783e-42
8.36283e-43
2.35173e-43
6.29791e-44
1.6056e-44
3.8881e-45
8.90658e-46
1.91894e-46
3.86157e-47
7.20207e-48
1.23471e-48
1.92893e-49
2.7208e-50
3.42981e-51
3.81904e-52
3.7039e-53
3.07439e-54
2.13424e-55
1.20011e-56
5.21137e-58
1.61397e-59
3.03642e-61
2.12804e-63
1.71553e-62
1.15776e-60
4.46992e-59
1.19119e-57
2.40064e-56
3.86271e-55
5.14446e-54
5.81994e-53
5.70423e-52
4.92081e-51
3.78614e-50
2.62864e-49
1.66435e-48
9.70599e-48
5.2619e-47
2.67422e-46
1.28307e-45
5.84097e-45
2.52932e-44
1.04188e-43
4.0743e-43
1.5077e-42
5.26169e-42
1.7267e-41
5.31723e-41
1.53499e-40
4.16079e-40
1.06899e-39
2.69328e-39
7.61104e-39
2.06056e-38
2.59569e-38
1.59077e-38
5.94845e-39
1.55768e-39
3.10419e-40
4.96915e-41
6.63354e-42
7.5852e-43
7.57232e-44
6.68783e-45
5.27263e-46
3.73268e-47
2.38184e-48
1.37307e-49
7.15922e-51
3.3769e-52
1.44002e-53
5.544e-55
1.92254e-56
5.98479e-58
1.66514e-59
4.11684e-61
8.97813e-63
1.70819e-64
2.78236e-66
3.74942e-68
3.88848e-70
2.65097e-72
1.20638e-74
4.59102e-77
1.44968e-79
3.51105e-82
3.94204e-85
1.43797e-83
1.19323e-80
4.62792e-78
1.39311e-75
3.557e-73
8.02929e-71
1.16103e-68
1.08908e-66
7.869e-65
4.70732e-63
2.41377e-61
1.08074e-59
4.27536e-58
1.50594e-56
4.75059e-55
1.34779e-53
3.44881e-52
7.97628e-51
1.66975e-49
3.16653e-48
5.4406e-47
8.46212e-46
1.18886e-44
1.50264e-43
1.69768e-42
1.69839e-41
1.48462e-40
1.11316e-39
6.97713e-39
3.52419e-38
1.35817e-37
3.65589e-37
5.86714e-37
4.17934e-37
2.64794e-37
1.65435e-37
9.51473e-38
4.9918e-38
2.40751e-38
1.08164e-38
4.58146e-39
1.84587e-39
7.11796e-40
2.63665e-40
9.38841e-41
3.20453e-41
1.04221e-41
3.20314e-42
9.21728e-43
2.46044e-43
6.03922e-44
1.3517e-44
2.73631e-45
4.96773e-46
8.01357e-47
1.13628e-47
1.39778e-48
1.46704e-49
1.28497e-50
9.10707e-52
4.98733e-53
1.95504e-54
4.71262e-56
4.47917e-58
2.5313e-57
1.43828e-55
4.57844e-54
9.96189e-53
1.62807e-51
2.11178e-50
2.25403e-49
2.03098e-48
1.57466e-47
1.06639e-46
6.38637e-46
3.41868e-45
1.65204e-44
7.27708e-44
2.95139e-43
1.11387e-42
3.95487e-42
1.33471e-41
4.31608e-41
1.34291e-40
4.01824e-40
1.151e-39
3.13482e-39
8.0621e-39
1.94754e-38
4.40659e-38
9.33183e-38
1.85259e-37
3.51051e-37
7.18185e-37
1.47785e-36
1.43806e-36
7.31048e-37
2.38927e-37
5.66969e-38
1.05035e-38
1.59254e-39
2.04226e-40
2.26776e-41
2.21699e-42
1.92994e-43
1.50734e-44
1.06136e-45
6.7578e-47
3.89731e-48
2.03727e-49
9.6514e-51
4.14e-52
1.60546e-53
5.61477e-55
1.7648e-56
4.96333e-58
1.24175e-59
2.74308e-61