/*--------------------------------*- C++ -*----------------------------------*\
| =========                 |                                                 |
| \\      /  F ield         | OpenFOAM: The Open Source CFD Toolbox           |
|  \\    /   O peration     | Version:  2212                                  |
|   \\  /    A nd           | Website:  www.openfoam.com                      |
|    \\/     M anipulation  |                                                 |
\*---------------------------------------------------------------------------*/
FoamFile
{
    version     2.0;
    format      ascii;
    arch        "LSB;label=64;scalar=64";
    class       volVectorField;
    location    "0.24";
    object      U;
}
// * * * * * * * * * * * * * * * * * * * * * * * * * * * * * * * * * * * * * //

dimensions      [0 1 -1 0 0 0 0];

internalField   nonuniform List<vector> 
32768
(
(-9.42183e-06 2.51582e-05 0)
(-4.44092e-05 4.17747e-05 0)
(-8.27835e-05 4.19646e-05 0)
(-0.000114145 3.83966e-05 0)
(-0.000138663 3.55967e-05 0)
(-0.000159344 3.40067e-05 0)
(-0.000178308 3.31124e-05 0)
(-0.000196508 3.24911e-05 0)
(-0.000214273 3.19335e-05 0)
(-0.000231686 3.13542e-05 0)
(-0.000248753 3.07298e-05 0)
(-0.000265461 3.00492e-05 0)
(-0.000281787 2.93101e-05 0)
(-0.000297706 2.85146e-05 0)
(-0.00031319 2.76634e-05 0)
(-0.000328213 2.67527e-05 0)
(-0.000342754 2.57834e-05 0)
(-0.00035678 2.47565e-05 0)
(-0.000370265 2.3675e-05 0)
(-0.000383182 2.25349e-05 0)
(-0.000395502 2.13371e-05 0)
(-0.000407192 2.00821e-05 0)
(-0.00041822 1.87712e-05 0)
(-0.000428553 1.74036e-05 0)
(-0.000438157 1.59788e-05 0)
(-0.000446995 1.4497e-05 0)
(-0.000455035 1.2958e-05 0)
(-0.000462238 1.1362e-05 0)
(-0.000468567 9.70893e-06 0)
(-0.000473982 7.99862e-06 0)
(-0.000478442 6.23261e-06 0)
(-0.000481909 4.41714e-06 0)
(-0.000484337 2.55836e-06 0)
(-0.00048569 6.56e-07 0)
(-0.000485956 -1.28447e-06 0)
(-0.000485097 -3.24547e-06 0)
(-0.000483094 -5.21361e-06 0)
(-0.000479942 -7.17948e-06 0)
(-0.000475616 -9.13766e-06 0)
(-0.000470108 -1.10951e-05 0)
(-0.000463429 -1.30483e-05 0)
(-0.00045557 -1.49854e-05 0)
(-0.000446516 -1.69015e-05 0)
(-0.000436272 -1.88002e-05 0)
(-0.000424858 -2.0669e-05 0)
(-0.000412267 -2.24974e-05 0)
(-0.000398514 -2.42904e-05 0)
(-0.000383638 -2.60339e-05 0)
(-0.000367639 -2.77131e-05 0)
(-0.000350546 -2.93378e-05 0)
(-0.000332416 -3.08967e-05 0)
(-0.000313279 -3.23738e-05 0)
(-0.000293179 -3.37675e-05 0)
(-0.000272163 -3.50964e-05 0)
(-0.000250285 -3.63077e-05 0)
(-0.000227622 -3.74191e-05 0)
(-0.000204231 -3.84297e-05 0)
(-0.000180179 -3.93295e-05 0)
(-0.000155549 -4.01117e-05 0)
(-0.000130417 -4.07743e-05 0)
(-0.000104853 -4.13175e-05 0)
(-7.89414e-05 -4.17387e-05 0)
(-5.27797e-05 -4.20207e-05 0)
(-2.64862e-05 -4.21356e-05 0)
(-1.6947e-07 -4.20762e-05 0)
(2.6074e-05 -4.18664e-05 0)
(5.21217e-05 -4.15327e-05 0)
(7.78938e-05 -4.10819e-05 0)
(0.000103329 -4.05168e-05 0)
(0.000128352 -3.98419e-05 0)
(0.000152887 -3.90544e-05 0)
(0.000176867 -3.81566e-05 0)
(0.00020022 -3.71505e-05 0)
(0.000222883 -3.60399e-05 0)
(0.000244796 -3.48296e-05 0)
(0.000265902 -3.35309e-05 0)
(0.000286129 -3.21535e-05 0)
(0.000305423 -3.06887e-05 0)
(0.000323761 -2.91431e-05 0)
(0.000341099 -2.75298e-05 0)
(0.000357395 -2.5857e-05 0)
(0.000372618 -2.413e-05 0)
(0.000386744 -2.23542e-05 0)
(0.000399751 -2.05348e-05 0)
(0.00041163 -1.86789e-05 0)
(0.000422374 -1.68016e-05 0)
(0.000431948 -1.49105e-05 0)
(0.000440349 -1.29907e-05 0)
(0.0004476 -1.10481e-05 0)
(0.000453699 -9.09542e-06 0)
(0.000458642 -7.13732e-06 0)
(0.000462431 -5.17485e-06 0)
(0.000465071 -3.21001e-06 0)
(0.000466573 -1.24755e-06 0)
(0.000466944 7.02061e-07 0)
(0.000466195 2.62232e-06 0)
(0.000464373 4.49681e-06 0)
(0.000461516 6.31576e-06 0)
(0.000457671 8.07794e-06 0)
(0.000452884 9.7819e-06 0)
(0.000447201 1.14278e-05 0)
(0.000440659 1.30091e-05 0)
(0.000433283 1.45283e-05 0)
(0.000425104 1.59936e-05 0)
(0.000416165 1.74112e-05 0)
(0.000406509 1.87787e-05 0)
(0.000396168 2.00904e-05 0)
(0.000385169 2.13446e-05 0)
(0.000373541 2.25422e-05 0)
(0.000361314 2.36839e-05 0)
(0.000348518 2.47684e-05 0)
(0.000335175 2.57953e-05 0)
(0.000321315 2.67672e-05 0)
(0.000306968 2.76821e-05 0)
(0.000292156 2.85373e-05 0)
(0.000276895 2.93516e-05 0)
(0.000261212 3.00955e-05 0)
(0.000245138 3.07833e-05 0)
(0.000228694 3.14163e-05 0)
(0.000211895 3.20035e-05 0)
(0.000194733 3.25691e-05 0)
(0.000177121 3.32011e-05 0)
(0.000158728 3.41116e-05 0)
(0.000138593 3.57315e-05 0)
(0.000114562 3.85952e-05 0)
(8.35405e-05 4.23004e-05 0)
(4.52152e-05 4.23446e-05 0)
(9.81284e-06 2.58921e-05 0)
(-6.83535e-06 7.46594e-05 0)
(-3.9762e-05 0.000116224 0)
(-6.57759e-05 9.93793e-05 0)
(-7.84255e-05 7.28391e-05 0)
(-8.06759e-05 5.47387e-05 0)
(-7.74058e-05 4.55397e-05 0)
(-7.18109e-05 4.14511e-05 0)
(-6.53712e-05 3.95758e-05 0)
(-5.86706e-05 3.85054e-05 0)
(-5.19156e-05 3.76666e-05 0)
(-4.51968e-05 3.68684e-05 0)
(-3.85733e-05 3.60532e-05 0)
(-3.20714e-05 3.52047e-05 0)
(-2.57186e-05 3.43186e-05 0)
(-1.95431e-05 3.33919e-05 0)
(-1.35715e-05 3.24181e-05 0)
(-7.82891e-06 3.13935e-05 0)
(-2.32785e-06 3.03161e-05 0)
(2.9028e-06 2.91824e-05 0)
(7.8347e-06 2.79882e-05 0)
(1.24594e-05 2.67299e-05 0)
(1.67649e-05 2.54036e-05 0)
(2.07344e-05 2.40041e-05 0)
(2.43539e-05 2.25293e-05 0)
(2.76204e-05 2.09754e-05 0)
(3.0529e-05 1.93365e-05 0)
(3.30709e-05 1.76074e-05 0)
(3.5242e-05 1.5784e-05 0)
(3.70419e-05 1.38615e-05 0)
(3.84696e-05 1.18346e-05 0)
(3.95243e-05 9.69962e-06 0)
(4.02069e-05 7.45755e-06 0)
(4.05236e-05 5.1158e-06 0)
(4.04808e-05 2.68167e-06 0)
(4.00879e-05 1.65835e-07 0)
(3.93474e-05 -2.41142e-06 0)
(3.82817e-05 -5.0421e-06 0)
(3.69149e-05 -7.71708e-06 0)
(3.528e-05 -1.04326e-05 0)
(3.33967e-05 -1.31942e-05 0)
(3.12816e-05 -1.59948e-05 0)
(2.89653e-05 -1.88235e-05 0)
(2.64783e-05 -2.1673e-05 0)
(2.38415e-05 -2.45405e-05 0)
(2.10734e-05 -2.74118e-05 0)
(1.81973e-05 -3.02702e-05 0)
(1.52321e-05 -3.31086e-05 0)
(1.22014e-05 -3.59085e-05 0)
(9.1308e-06 -3.86513e-05 0)
(6.03225e-06 -4.13312e-05 0)
(2.92238e-06 -4.39349e-05 0)
(-1.8098e-07 -4.64368e-05 0)
(-3.32149e-06 -4.88296e-05 0)
(-6.38648e-06 -5.1093e-05 0)
(-9.36698e-06 -5.32128e-05 0)
(-1.23743e-05 -5.51808e-05 0)
(-1.5333e-05 -5.69755e-05 0)
(-1.82196e-05 -5.85881e-05 0)
(-2.10651e-05 -6.00097e-05 0)
(-2.3877e-05 -6.12296e-05 0)
(-2.66406e-05 -6.22464e-05 0)
(-2.93542e-05 -6.30439e-05 0)
(-3.204e-05 -6.35824e-05 0)
(-3.47393e-05 -6.38043e-05 0)
(-3.74134e-05 -6.37045e-05 0)
(-4.00561e-05 -6.33323e-05 0)
(-4.26905e-05 -6.27424e-05 0)
(-4.5323e-05 -6.19637e-05 0)
(-4.79453e-05 -6.10059e-05 0)
(-5.05526e-05 -5.98716e-05 0)
(-5.31433e-05 -5.85584e-05 0)
(-5.57148e-05 -5.70702e-05 0)
(-5.82625e-05 -5.54117e-05 0)
(-6.07772e-05 -5.35917e-05 0)
(-6.32521e-05 -5.16233e-05 0)
(-6.56836e-05 -4.95217e-05 0)
(-6.8067e-05 -4.73037e-05 0)
(-7.03878e-05 -4.49692e-05 0)
(-7.26288e-05 -4.25343e-05 0)
(-7.47818e-05 -4.00162e-05 0)
(-7.68353e-05 -3.74284e-05 0)
(-7.87718e-05 -3.47829e-05 0)
(-8.05748e-05 -3.20945e-05 0)
(-8.22307e-05 -2.93782e-05 0)
(-8.37222e-05 -2.66427e-05 0)
(-8.50304e-05 -2.39017e-05 0)
(-8.614e-05 -2.11673e-05 0)
(-8.70338e-05 -1.84353e-05 0)
(-8.76922e-05 -1.57169e-05 0)
(-8.80992e-05 -1.30193e-05 0)
(-8.82391e-05 -1.03451e-05 0)
(-8.80937e-05 -7.69585e-06 0)
(-8.76452e-05 -5.07468e-06 0)
(-8.68745e-05 -2.49021e-06 0)
(-8.57561e-05 3.81621e-08 0)
(-8.42671e-05 2.47966e-06 0)
(-8.24279e-05 4.81034e-06 0)
(-8.02236e-05 7.02525e-06 0)
(-7.76467e-05 9.12287e-06 0)
(-7.46961e-05 1.11112e-05 0)
(-7.13713e-05 1.29939e-05 0)
(-6.76762e-05 1.47771e-05 0)
(-6.36103e-05 1.64675e-05 0)
(-5.91793e-05 1.80751e-05 0)
(-5.43869e-05 1.96078e-05 0)
(-4.92396e-05 2.10686e-05 0)
(-4.37471e-05 2.24589e-05 0)
(-3.79217e-05 2.3782e-05 0)
(-3.17784e-05 2.50417e-05 0)
(-2.53341e-05 2.62423e-05 0)
(-1.86075e-05 2.73871e-05 0)
(-1.16201e-05 2.84795e-05 0)
(-4.39364e-06 2.95249e-05 0)
(3.04957e-06 3.05253e-05 0)
(1.07157e-05 3.14823e-05 0)
(1.85135e-05 3.24012e-05 0)
(2.64143e-05 3.32848e-05 0)
(3.44527e-05 3.4139e-05 0)
(4.25672e-05 3.49795e-05 0)
(5.07074e-05 3.58629e-05 0)
(5.87906e-05 3.69815e-05 0)
(6.65977e-05 3.89018e-05 0)
(7.35358e-05 4.30725e-05 0)
(7.81214e-05 5.24268e-05 0)
(7.71152e-05 7.0871e-05 0)
(6.55138e-05 9.81596e-05 0)
(4.01443e-05 0.000116346 0)
(7.17115e-06 7.62361e-05 0)
(-6.68949e-06 0.000113551 0)
(-3.44858e-05 0.000163471 0)
(-5.10521e-05 0.00012119 0)
(-5.28854e-05 6.83237e-05 0)
(-4.39827e-05 3.38669e-05 0)
(-2.95103e-05 1.68835e-05 0)
(-1.27588e-05 9.75901e-06 0)
(4.77098e-06 6.97695e-06 0)
(2.24652e-05 5.82686e-06 0)
(4.00544e-05 5.24848e-06 0)
(5.74516e-05 4.87562e-06 0)
(7.45881e-05 4.60081e-06 0)
(9.14101e-05 4.39198e-06 0)
(0.000107867 4.23689e-06 0)
(0.000123909 4.12848e-06 0)
(0.000139485 4.06049e-06 0)
(0.000154555 4.02673e-06 0)
(0.00016908 4.0208e-06 0)
(0.000183016 4.03109e-06 0)
(0.000196317 4.05447e-06 0)
(0.000208947 4.08314e-06 0)
(0.00022087 4.1093e-06 0)
(0.000232052 4.12353e-06 0)
(0.000242466 4.11983e-06 0)
(0.000252076 4.09088e-06 0)
(0.000260852 4.0279e-06 0)
(0.000268772 3.92306e-06 0)
(0.000275811 3.77002e-06 0)
(0.000281946 3.56253e-06 0)
(0.000287155 3.29481e-06 0)
(0.000291418 2.96133e-06 0)
(0.000294717 2.55779e-06 0)
(0.000297035 2.08119e-06 0)
(0.000298365 1.53106e-06 0)
(0.000298711 9.07626e-07 0)
(0.000298071 2.06446e-07 0)
(0.000296445 -5.80269e-07 0)
(0.000293847 -1.45425e-06 0)
(0.000290286 -2.41737e-06 0)
(0.000285781 -3.4713e-06 0)
(0.000280355 -4.6116e-06 0)
(0.000274021 -5.83221e-06 0)
(0.000266798 -7.12869e-06 0)
(0.000258714 -8.49571e-06 0)
(0.000249795 -9.9248e-06 0)
(0.000240072 -1.14058e-05 0)
(0.000229574 -1.29284e-05 0)
(0.000218329 -1.44776e-05 0)
(0.000206374 -1.60434e-05 0)
(0.000193736 -1.76158e-05 0)
(0.000180459 -1.91728e-05 0)
(0.000166585 -2.0709e-05 0)
(0.000152147 -2.22052e-05 0)
(0.000137205 -2.36246e-05 0)
(0.00012178 -2.50038e-05 0)
(0.000105918 -2.62954e-05 0)
(8.96796e-05 -2.74857e-05 0)
(7.30955e-05 -2.85722e-05 0)
(5.62071e-05 -2.9546e-05 0)
(3.90506e-05 -3.0389e-05 0)
(2.168e-05 -3.10911e-05 0)
(4.14536e-06 -3.1648e-05 0)
(-1.35228e-05 -3.20452e-05 0)
(-3.12715e-05 -3.22297e-05 0)
(-4.89853e-05 -3.22145e-05 0)
(-6.65998e-05 -3.20373e-05 0)
(-8.40882e-05 -3.17344e-05 0)
(-0.000101402 -3.13234e-05 0)
(-0.000118479 -3.08089e-05 0)
(-0.00013527 -3.01921e-05 0)
(-0.000151728 -2.94753e-05 0)
(-0.000167807 -2.86631e-05 0)
(-0.000183459 -2.77618e-05 0)
(-0.000198643 -2.67796e-05 0)
(-0.000213315 -2.57274e-05 0)
(-0.000227434 -2.46144e-05 0)
(-0.00024095 -2.34479e-05 0)
(-0.000253819 -2.2239e-05 0)
(-0.000266009 -2.10019e-05 0)
(-0.000277483 -1.97482e-05 0)
(-0.000288206 -1.8488e-05 0)
(-0.000298149 -1.7231e-05 0)
(-0.000307292 -1.59878e-05 0)
(-0.000315595 -1.47639e-05 0)
(-0.000323028 -1.35703e-05 0)
(-0.000329577 -1.24147e-05 0)
(-0.000335227 -1.13034e-05 0)
(-0.000339961 -1.02409e-05 0)
(-0.000343759 -9.2299e-06 0)
(-0.000346604 -8.27483e-06 0)
(-0.000348488 -7.37642e-06 0)
(-0.0003494 -6.53615e-06 0)
(-0.000349334 -5.75802e-06 0)
(-0.000348284 -5.04797e-06 0)
(-0.000346253 -4.41423e-06 0)
(-0.000343234 -3.86323e-06 0)
(-0.000339216 -3.39564e-06 0)
(-0.000334221 -3.00635e-06 0)
(-0.000328271 -2.69274e-06 0)
(-0.000321384 -2.44625e-06 0)
(-0.000313578 -2.2621e-06 0)
(-0.000304873 -2.13053e-06 0)
(-0.000295296 -2.04432e-06 0)
(-0.000284873 -1.99446e-06 0)
(-0.000273627 -1.97217e-06 0)
(-0.000261588 -1.96915e-06 0)
(-0.000248785 -1.97731e-06 0)
(-0.000235253 -1.98881e-06 0)
(-0.000221027 -1.99593e-06 0)
(-0.000206144 -1.99085e-06 0)
(-0.000190644 -1.9662e-06 0)
(-0.000174566 -1.91477e-06 0)
(-0.000157954 -1.82942e-06 0)
(-0.000140851 -1.70406e-06 0)
(-0.000123302 -1.53342e-06 0)
(-0.000105359 -1.3281e-06 0)
(-8.70691e-05 -1.05059e-06 0)
(-6.8478e-05 -7.06056e-07 0)
(-4.96453e-05 -2.62413e-07 0)
(-3.06366e-05 3.89275e-07 0)
(-1.15626e-05 1.61554e-06 0)
(7.3445e-06 4.48235e-06 0)
(2.54734e-05 1.17265e-05 0)
(4.12732e-05 2.89634e-05 0)
(5.14402e-05 6.4017e-05 0)
(5.06876e-05 0.000118213 0)
(3.48084e-05 0.000162905 0)
(7.01805e-06 0.000115805 0)
(-6.80739e-06 0.000151813 0)
(-3.40569e-05 0.00020678 0)
(-4.87227e-05 0.000137149 0)
(-4.81242e-05 5.74043e-05 0)
(-3.662e-05 6.60434e-06 0)
(-1.94942e-05 -1.80389e-05 0)
(-5.46774e-08 -2.81089e-05 0)
(2.013e-05 -3.17576e-05 0)
(4.04326e-05 -3.2952e-05 0)
(6.0627e-05 -3.32252e-05 0)
(8.05973e-05 -3.31048e-05 0)
(0.000100269 -3.27549e-05 0)
(0.000119581 -3.2226e-05 0)
(0.000138478 -3.15371e-05 0)
(0.000156905 -3.06992e-05 0)
(0.000174809 -2.97208e-05 0)
(0.000192141 -2.86107e-05 0)
(0.000208853 -2.73801e-05 0)
(0.000224897 -2.60415e-05 0)
(0.000240227 -2.46054e-05 0)
(0.0002548 -2.30832e-05 0)
(0.000268575 -2.14869e-05 0)
(0.000281513 -1.98274e-05 0)
(0.000293578 -1.81185e-05 0)
(0.000304733 -1.63728e-05 0)
(0.000314945 -1.46014e-05 0)
(0.000324186 -1.28154e-05 0)
(0.000332427 -1.10261e-05 0)
(0.000339643 -9.24387e-06 0)
(0.000345811 -7.47791e-06 0)
(0.000350912 -5.73695e-06 0)
(0.000354924 -4.0299e-06 0)
(0.000357829 -2.36741e-06 0)
(0.000359622 -7.61518e-07 0)
(0.000360304 7.74854e-07 0)
(0.000359864 2.22696e-06 0)
(0.0003583 3.58721e-06 0)
(0.000355614 4.84714e-06 0)
(0.000351811 6.00218e-06 0)
(0.000346899 7.0488e-06 0)
(0.00034089 7.98221e-06 0)
(0.000333799 8.79991e-06 0)
(0.000325644 9.50285e-06 0)
(0.000316445 1.00925e-05 0)
(0.000306228 1.05712e-05 0)
(0.000295019 1.09423e-05 0)
(0.000282854 1.12094e-05 0)
(0.000269762 1.13789e-05 0)
(0.000255775 1.14591e-05 0)
(0.000240947 1.14562e-05 0)
(0.000225309 1.13857e-05 0)
(0.000208899 1.12507e-05 0)
(0.000191772 1.10669e-05 0)
(0.000173968 1.08423e-05 0)
(0.000155558 1.05833e-05 0)
(0.000136581 1.03097e-05 0)
(0.000117079 1.00258e-05 0)
(9.71214e-05 9.74189e-06 0)
(7.67662e-05 9.4685e-06 0)
(5.60745e-05 9.21563e-06 0)
(3.5098e-05 8.99357e-06 0)
(1.38835e-05 8.80319e-06 0)
(-7.49743e-06 8.65032e-06 0)
(-2.89654e-05 8.54409e-06 0)
(-5.04207e-05 8.46839e-06 0)
(-7.17686e-05 8.39964e-06 0)
(-9.29658e-05 8.32215e-06 0)
(-0.000113947 8.23183e-06 0)
(-0.000134635 8.12916e-06 0)
(-0.000154964 8.01394e-06 0)
(-0.000174874 7.88452e-06 0)
(-0.000194305 7.73732e-06 0)
(-0.000213199 7.5675e-06 0)
(-0.000231498 7.37032e-06 0)
(-0.000249145 7.14181e-06 0)
(-0.000266082 6.8776e-06 0)
(-0.000282266 6.57382e-06 0)
(-0.000297658 6.22227e-06 0)
(-0.000312208 5.81674e-06 0)
(-0.000325872 5.35214e-06 0)
(-0.000338613 4.8231e-06 0)
(-0.000350394 4.22503e-06 0)
(-0.000361178 3.55604e-06 0)
(-0.000370944 2.81668e-06 0)
(-0.000379673 2.00118e-06 0)
(-0.000387336 1.10759e-06 0)
(-0.000393915 1.37216e-07 0)
(-0.000399393 -9.08045e-07 0)
(-0.00040376 -2.02418e-06 0)
(-0.000407007 -3.21018e-06 0)
(-0.000409127 -4.46488e-06 0)
(-0.000410119 -5.78573e-06 0)
(-0.000409985 -7.17225e-06 0)
(-0.000408726 -8.62734e-06 0)
(-0.000406343 -1.01519e-05 0)
(-0.000402839 -1.17397e-05 0)
(-0.000398225 -1.33843e-05 0)
(-0.000392514 -1.50807e-05 0)
(-0.000385722 -1.68166e-05 0)
(-0.000377868 -1.85832e-05 0)
(-0.000368973 -2.03672e-05 0)
(-0.000359062 -2.21586e-05 0)
(-0.00034816 -2.39437e-05 0)
(-0.000336298 -2.57092e-05 0)
(-0.000323507 -2.74414e-05 0)
(-0.00030982 -2.91272e-05 0)
(-0.000295274 -3.07541e-05 0)
(-0.000279907 -3.23094e-05 0)
(-0.000263758 -3.37807e-05 0)
(-0.000246872 -3.51561e-05 0)
(-0.000229291 -3.64244e-05 0)
(-0.000211062 -3.7575e-05 0)
(-0.000192233 -3.85979e-05 0)
(-0.000172852 -3.94841e-05 0)
(-0.000152971 -4.02253e-05 0)
(-0.000132644 -4.08145e-05 0)
(-0.000111922 -4.12399e-05 0)
(-9.08628e-05 -4.14862e-05 0)
(-6.95266e-05 -4.15043e-05 0)
(-4.79873e-05 -4.11288e-05 0)
(-2.63617e-05 -3.98293e-05 0)
(-4.89116e-06 -3.60464e-05 0)
(1.58109e-05 -2.57977e-05 0)
(3.41934e-05 -7.97511e-07 0)
(4.68989e-05 5.08424e-05 0)
(4.84876e-05 0.000132456 0)
(3.44227e-05 0.000205546 0)
(7.14426e-06 0.000154748 0)
(-7.10513e-06 0.000191069 0)
(-3.5277e-05 0.000250345 0)
(-5.02535e-05 0.000152081 0)
(-4.93847e-05 4.45683e-05 0)
(-3.72191e-05 -2.30196e-05 0)
(-1.92891e-05 -5.55222e-05 0)
(9.87235e-07 -6.86083e-05 0)
(2.2021e-05 -7.31459e-05 0)
(4.31838e-05 -7.43563e-05 0)
(6.42269e-05 -7.42819e-05 0)
(8.50306e-05 -7.36221e-05 0)
(0.000105518 -7.2596e-05 0)
(0.000125626 -7.12718e-05 0)
(0.000145296 -6.9675e-05 0)
(0.000164472 -6.78206e-05 0)
(0.000183099 -6.57215e-05 0)
(0.000201125 -6.33907e-05 0)
(0.000218499 -6.08421e-05 0)
(0.000235173 -5.80905e-05 0)
(0.000251099 -5.5151e-05 0)
(0.000266231 -5.20392e-05 0)
(0.000280529 -4.87712e-05 0)
(0.00029395 -4.53632e-05 0)
(0.000306458 -4.18323e-05 0)
(0.000318016 -3.81953e-05 0)
(0.000328591 -3.44688e-05 0)
(0.000338152 -3.06695e-05 0)
(0.000346672 -2.68138e-05 0)
(0.000354125 -2.29177e-05 0)
(0.00036049 -1.89967e-05 0)
(0.000365749 -1.50659e-05 0)
(0.000369885 -1.11402e-05 0)
(0.000372885 -7.23419e-06 0)
(0.000374737 -3.36523e-06 0)
(0.000375444 4.45932e-07 0)
(0.000374997 4.18076e-06 0)
(0.000373392 7.82537e-06 0)
(0.00037063 1.13675e-05 0)
(0.000366714 1.47952e-05 0)
(0.000361652 1.8097e-05 0)
(0.000355454 2.1262e-05 0)
(0.000348134 2.42808e-05 0)
(0.000339712 2.71464e-05 0)
(0.000330208 2.98532e-05 0)
(0.000319648 3.23971e-05 0)
(0.00030806 3.47757e-05 0)
(0.000295476 3.69879e-05 0)
(0.000281931 3.90322e-05 0)
(0.000267462 4.09111e-05 0)
(0.000252109 4.26287e-05 0)
(0.000235916 4.41818e-05 0)
(0.000218927 4.55826e-05 0)
(0.00020119 4.68314e-05 0)
(0.000182755 4.79389e-05 0)
(0.000163678 4.89113e-05 0)
(0.00014401 4.97494e-05 0)
(0.000123808 5.04672e-05 0)
(0.000103129 5.10721e-05 0)
(8.20337e-05 5.1571e-05 0)
(6.05809e-05 5.1969e-05 0)
(3.88356e-05 5.22669e-05 0)
(1.68713e-05 5.24663e-05 0)
(-5.27419e-06 5.25647e-05 0)
(-2.75325e-05 5.2548e-05 0)
(-4.97682e-05 5.23962e-05 0)
(-7.1901e-05 5.20905e-05 0)
(-9.38903e-05 5.16244e-05 0)
(-0.000115666 5.10027e-05 0)
(-0.000137143 5.02327e-05 0)
(-0.000158251 4.93194e-05 0)
(-0.000178926 4.82648e-05 0)
(-0.000199105 4.70695e-05 0)
(-0.000218727 4.57333e-05 0)
(-0.000237732 4.42561e-05 0)
(-0.000256062 4.26378e-05 0)
(-0.000273664 4.0877e-05 0)
(-0.000290485 3.89716e-05 0)
(-0.000306479 3.69238e-05 0)
(-0.000321599 3.4736e-05 0)
(-0.000335802 3.24094e-05 0)
(-0.000349048 2.99458e-05 0)
(-0.000361301 2.73478e-05 0)
(-0.000372528 2.46184e-05 0)
(-0.0003827 2.17589e-05 0)
(-0.000391791 1.87772e-05 0)
(-0.000399779 1.56796e-05 0)
(-0.000406645 1.24724e-05 0)
(-0.000412372 9.16429e-06 0)
(-0.000416948 5.76257e-06 0)
(-0.000420368 2.27805e-06 0)
(-0.000422623 -1.28096e-06 0)
(-0.000423709 -4.90702e-06 0)
(-0.000423627 -8.5937e-06 0)
(-0.000422385 -1.23378e-05 0)
(-0.000419986 -1.61359e-05 0)
(-0.000416433 -1.99825e-05 0)
(-0.000411735 -2.38676e-05 0)
(-0.000405904 -2.77776e-05 0)
(-0.000398954 -3.16962e-05 0)
(-0.000390902 -3.5606e-05 0)
(-0.00038177 -3.9489e-05 0)
(-0.00037158 -4.33271e-05 0)
(-0.000360362 -4.7102e-05 0)
(-0.000348144 -5.07952e-05 0)
(-0.000334959 -5.43886e-05 0)
(-0.000320842 -5.78642e-05 0)
(-0.000305829 -6.12048e-05 0)
(-0.000289962 -6.43934e-05 0)
(-0.000273281 -6.74137e-05 0)
(-0.00025583 -7.02498e-05 0)
(-0.000237656 -7.28868e-05 0)
(-0.000218807 -7.53107e-05 0)
(-0.000199332 -7.7508e-05 0)
(-0.000179282 -7.94665e-05 0)
(-0.000158711 -8.11747e-05 0)
(-0.000137672 -8.26216e-05 0)
(-0.000116223 -8.3794e-05 0)
(-9.44218e-05 -8.46686e-05 0)
(-7.23305e-05 -8.51785e-05 0)
(-5.00257e-05 -8.5104e-05 0)
(-2.7627e-05 -8.37403e-05 0)
(-5.38401e-06 -7.90264e-05 0)
(1.60723e-05 -6.56892e-05 0)
(3.51538e-05 -3.27106e-05 0)
(4.83868e-05 3.59547e-05 0)
(5.01458e-05 0.000145861 0)
(3.57033e-05 0.000248587 0)
(7.44458e-06 0.000194752 0)
(-7.4455e-06 0.000232103 0)
(-3.69515e-05 0.000295842 0)
(-5.26995e-05 0.000167808 0)
(-5.19247e-05 3.14774e-05 0)
(-3.93664e-05 -5.35707e-05 0)
(-2.07898e-05 -9.42624e-05 0)
(2.50331e-07 -0.000110497 0)
(2.20812e-05 -0.000115945 0)
(4.40371e-05 -0.000117166 0)
(6.58629e-05 -0.000116722 0)
(8.74332e-05 -0.000115493 0)
(0.000108668 -0.000113756 0)
(0.000129501 -0.000111596 0)
(0.000149872 -0.000109048 0)
(0.000169723 -0.000106129 0)
(0.000188998 -0.000102857 0)
(0.000207641 -9.92481e-05 0)
(0.0002256 -9.53204e-05 0)
(0.000242825 -9.10923e-05 0)
(0.000259267 -8.65831e-05 0)
(0.000274881 -8.18128e-05 0)
(0.00028962 -7.68022e-05 0)
(0.000303446 -7.15725e-05 0)
(0.000316318 -6.61453e-05 0)
(0.0003282 -6.05426e-05 0)
(0.000339059 -5.47867e-05 0)
(0.000348863 -4.88999e-05 0)
(0.000357586 -4.29043e-05 0)
(0.000365202 -3.68221e-05 0)
(0.00037169 -3.06754e-05 0)
(0.000377032 -2.44859e-05 0)
(0.000381213 -1.82751e-05 0)
(0.000384218 -1.20648e-05 0)
(0.000386041 -5.8775e-06 0)
(0.000386683 2.62426e-07 0)
(0.000386137 6.33213e-06 0)
(0.000384401 1.23121e-05 0)
(0.000381477 1.81846e-05 0)
(0.00037737 2.3931e-05 0)
(0.00037209 2.95324e-05 0)
(0.000365649 3.49703e-05 0)
(0.000358061 4.0228e-05 0)
(0.000349349 4.52909e-05 0)
(0.000339535 5.01463e-05 0)
(0.000328646 5.47838e-05 0)
(0.000316713 5.91941e-05 0)
(0.00030377 6.337e-05 0)
(0.000289852 6.73052e-05 0)
(0.000274998 7.09956e-05 0)
(0.000259252 7.44379e-05 0)
(0.000242657 7.76303e-05 0)
(0.000225261 8.05727e-05 0)
(0.000207112 8.32658e-05 0)
(0.000188262 8.5712e-05 0)
(0.000168766 8.7914e-05 0)
(0.000148677 8.98748e-05 0)
(0.000128053 9.15994e-05 0)
(0.000106953 9.30925e-05 0)
(8.54358e-05 9.43588e-05 0)
(6.3561e-05 9.54014e-05 0)
(4.13935e-05 9.62201e-05 0)
(1.90002e-05 9.68079e-05 0)
(-3.56056e-06 9.71499e-05 0)
(-2.62328e-05 9.72299e-05 0)
(-4.88967e-05 9.70174e-05 0)
(-7.14602e-05 9.64927e-05 0)
(-9.38855e-05 9.56536e-05 0)
(-0.000116103 9.4512e-05 0)
(-0.000138025 9.30822e-05 0)
(-0.000159579 9.13749e-05 0)
(-0.0001807 8.93964e-05 0)
(-0.000201324 8.71513e-05 0)
(-0.00022139 8.46437e-05 0)
(-0.000240836 8.18778e-05 0)
(-0.000259606 7.88579e-05 0)
(-0.000277644 7.55889e-05 0)
(-0.000294896 7.20761e-05 0)
(-0.000311315 6.83259e-05 0)
(-0.000326851 6.43454e-05 0)
(-0.000341462 6.01422e-05 0)
(-0.000355107 5.57247e-05 0)
(-0.000367747 5.11019e-05 0)
(-0.000379348 4.62836e-05 0)
(-0.000389879 4.12806e-05 0)
(-0.000399313 3.61047e-05 0)
(-0.000407624 3.07689e-05 0)
(-0.000414792 2.5287e-05 0)
(-0.000420799 1.96741e-05 0)
(-0.000425631 1.39458e-05 0)
(-0.000429279 8.11886e-06 0)
(-0.000431735 2.20988e-06 0)
(-0.000432993 -3.76879e-06 0)
(-0.000433054 -9.80654e-06 0)
(-0.000431915 -1.58968e-05 0)
(-0.000429584 -2.20325e-05 0)
(-0.000426064 -2.82032e-05 0)
(-0.00042136 -3.43942e-05 0)
(-0.000415484 -4.05857e-05 0)
(-0.000408451 -4.67544e-05 0)
(-0.000400279 -5.28759e-05 0)
(-0.000390988 -5.89259e-05 0)
(-0.000380602 -6.48797e-05 0)
(-0.000369149 -7.07133e-05 0)
(-0.00035666 -7.64026e-05 0)
(-0.000343167 -8.19243e-05 0)
(-0.000328705 -8.72553e-05 0)
(-0.000313314 -9.23734e-05 0)
(-0.000297034 -9.72569e-05 0)
(-0.000279908 -0.000101885 0)
(-0.000261981 -0.000106238 0)
(-0.000243301 -0.000110296 0)
(-0.000223918 -0.000114043 0)
(-0.000203882 -0.00011746 0)
(-0.000183248 -0.000120532 0)
(-0.000162069 -0.000123245 0)
(-0.000140403 -0.000125584 0)
(-0.000118307 -0.000127532 0)
(-9.58422e-05 -0.000129059 0)
(-7.30733e-05 -0.000130081 0)
(-5.00794e-05 -0.00013032 0)
(-2.69851e-05 -0.000128891 0)
(-4.05105e-06 -0.00012321 0)
(1.80589e-05 -0.000106652 0)
(3.76767e-05 -6.53819e-05 0)
(5.11963e-05 2.09618e-05 0)
(5.27543e-05 0.000160231 0)
(3.74481e-05 0.000293696 0)
(7.795e-06 0.000236599 0)
(-7.84386e-06 0.00027523 0)
(-3.89224e-05 0.000343717 0)
(-5.55726e-05 0.00018455 0)
(-5.49503e-05 1.80073e-05 0)
(-4.19383e-05 -8.52996e-05 0)
(-2.25201e-05 -0.000134566 0)
(-5.18212e-07 -0.000154097 0)
(2.2317e-05 -0.000160496 0)
(4.52859e-05 -0.000161718 0)
(6.81125e-05 -0.000160875 0)
(9.06637e-05 -0.000159037 0)
(0.000112855 -0.000156542 0)
(0.000134619 -0.000153497 0)
(0.000155891 -0.000149941 0)
(0.000176611 -0.000145898 0)
(0.000196719 -0.000141389 0)
(0.00021616 -0.000136434 0)
(0.000234877 -0.000131055 0)
(0.00025282 -0.000125275 0)
(0.000269936 -0.000119117 0)
(0.000286178 -0.000112608 0)
(0.000301501 -0.000105771 0)
(0.000315862 -9.8634e-05 0)
(0.00032922 -9.12236e-05 0)
(0.000341539 -8.35673e-05 0)
(0.000352784 -7.56933e-05 0)
(0.000362923 -6.76298e-05 0)
(0.00037193 -5.94053e-05 0)
(0.000379778 -5.10484e-05 0)
(0.000386447 -4.25878e-05 0)
(0.000391919 -3.4052e-05 0)
(0.000396178 -2.54696e-05 0)
(0.000399211 -1.6869e-05 0)
(0.000401006 -8.27887e-06 0)
(0.000401575 2.71979e-07 0)
(0.00040091 8.75407e-06 0)
(0.000399011 1.71421e-05 0)
(0.000395881 2.54128e-05 0)
(0.000391528 3.35415e-05 0)
(0.000385964 4.15023e-05 0)
(0.000379203 4.92689e-05 0)
(0.000371262 5.68169e-05 0)
(0.000362165 6.4124e-05 0)
(0.000351938 7.11707e-05 0)
(0.000340609 7.79396e-05 0)
(0.000328213 8.44152e-05 0)
(0.000314785 9.05843e-05 0)
(0.000300363 9.6435e-05 0)
(0.000284991 0.000101957 0)
(0.000268711 0.000107143 0)
(0.000251571 0.000111986 0)
(0.00023362 0.000116482 0)
(0.000214908 0.000120625 0)
(0.00019549 0.000124416 0)
(0.000175419 0.000127853 0)
(0.000154753 0.000130936 0)
(0.000133548 0.000133668 0)
(0.000111865 0.000136049 0)
(8.97623e-05 0.000138083 0)
(6.73e-05 0.00013977 0)
(4.45438e-05 0.000141107 0)
(2.15673e-05 0.00014208 0)
(-1.58091e-06 0.000142677 0)
(-2.48588e-05 0.000142857 0)
(-4.81222e-05 0.00014259 0)
(-7.12819e-05 0.000141854 0)
(-9.43068e-05 0.000140649 0)
(-0.000117127 0.000138992 0)
(-0.000139652 0.000136905 0)
(-0.000161806 0.000134405 0)
(-0.000183525 0.000131502 0)
(-0.000204745 0.000128206 0)
(-0.000225403 0.000124524 0)
(-0.000245437 0.000120466 0)
(-0.000264789 0.000116039 0)
(-0.000283402 0.000111255 0)
(-0.000301222 0.000106124 0)
(-0.000318198 0.000100657 0)
(-0.000334282 9.48682e-05 0)
(-0.000349427 8.87697e-05 0)
(-0.00036359 8.23764e-05 0)
(-0.000376732 7.57037e-05 0)
(-0.000388817 6.87679e-05 0)
(-0.00039981 6.15865e-05 0)
(-0.000409682 5.41778e-05 0)
(-0.000418406 4.65615e-05 0)
(-0.000425958 3.87584e-05 0)
(-0.000432319 3.07906e-05 0)
(-0.000437472 2.26811e-05 0)
(-0.000441406 1.44537e-05 0)
(-0.00044411 6.13026e-06 0)
(-0.000445574 -2.27047e-06 0)
(-0.000445799 -1.07367e-05 0)
(-0.000444783 -1.92542e-05 0)
(-0.000442527 -2.78122e-05 0)
(-0.00043903 -3.63931e-05 0)
(-0.000434299 -4.49758e-05 0)
(-0.000428346 -5.35339e-05 0)
(-0.000421187 -6.20373e-05 0)
(-0.000412839 -7.04548e-05 0)
(-0.000403324 -7.87553e-05 0)
(-0.000392667 -8.69079e-05 0)
(-0.000380895 -9.48824e-05 0)
(-0.00036804 -0.000102649 0)
(-0.000354135 -0.000110179 0)
(-0.000339216 -0.000117443 0)
(-0.000323325 -0.000124414 0)
(-0.000306502 -0.000131066 0)
(-0.000288792 -0.000137372 0)
(-0.000270242 -0.000143309 0)
(-0.000250903 -0.000148854 0)
(-0.000230824 -0.000153983 0)
(-0.00021006 -0.000158677 0)
(-0.000188666 -0.000162916 0)
(-0.000166699 -0.000166682 0)
(-0.000144218 -0.000169958 0)
(-0.000121284 -0.000172722 0)
(-9.79592e-05 -0.000174937 0)
(-7.4313e-05 -0.000176499 0)
(-5.04289e-05 -0.00017707 0)
(-2.64397e-05 -0.000175572 0)
(-2.6056e-06 -0.000168866 0)
(2.03322e-05 -0.000148931 0)
(4.06134e-05 -9.89444e-05 0)
(5.45208e-05 5.93233e-06 0)
(5.58639e-05 0.000175871 0)
(3.95163e-05 0.000341368 0)
(8.20656e-06 0.000280627 0)
(-8.32453e-06 0.000320818 0)
(-4.12638e-05 0.000394377 0)
(-5.90143e-05 0.000202488 0)
(-5.83807e-05 4.15508e-06 0)
(-4.46351e-05 -0.000118468 0)
(-2.42362e-05 -0.000176841 0)
(-1.05522e-06 -0.000199891 0)
(2.30333e-05 -0.000207307 0)
(4.72716e-05 -0.000208529 0)
(7.13582e-05 -0.000207256 0)
(9.51482e-05 -0.000204763 0)
(0.000118551 -0.000201456 0)
(0.000141494 -0.000197462 0)
(0.00016391 -0.000192831 0)
(0.000185735 -0.000187591 0)
(0.000206906 -0.000181766 0)
(0.000227365 -0.000175381 0)
(0.000247053 -0.000168463 0)
(0.000265916 -0.000161038 0)
(0.000283901 -0.000153136 0)
(0.000300957 -0.000144786 0)
(0.000317037 -0.000136019 0)
(0.000332097 -0.000126868 0)
(0.000346094 -0.000117365 0)
(0.00035899 -0.000107544 0)
(0.00037075 -9.74382e-05 0)
(0.000381341 -8.70836e-05 0)
(0.000390735 -7.65148e-05 0)
(0.000398906 -6.57672e-05 0)
(0.000405833 -5.48763e-05 0)
(0.000411497 -4.3878e-05 0)
(0.000415884 -3.28078e-05 0)
(0.000418979 -2.17013e-05 0)
(0.000420774 -1.05944e-05 0)
(0.000421281 4.76852e-07 0)
(0.000420491 1.14761e-05 0)
(0.000418407 2.23721e-05 0)
(0.000415036 3.3136e-05 0)
(0.00041039 4.37374e-05 0)
(0.00040448 5.41435e-05 0)
(0.000397324 6.43205e-05 0)
(0.000388943 7.42357e-05 0)
(0.000379361 8.3859e-05 0)
(0.000368607 9.31634e-05 0)
(0.000356713 0.000102125 0)
(0.000343717 0.000110721 0)
(0.000329656 0.000118933 0)
(0.000314572 0.000126744 0)
(0.000298511 0.000134137 0)
(0.000281519 0.000141101 0)
(0.000263647 0.000147624 0)
(0.000244944 0.000153696 0)
(0.000225466 0.000159312 0)
(0.000205267 0.000164464 0)
(0.000184404 0.00016915 0)
(0.000162936 0.000173368 0)
(0.00014092 0.000177116 0)
(0.000118419 0.000180395 0)
(9.5491e-05 0.000183205 0)
(7.21969e-05 0.000185544 0)
(4.86029e-05 0.000187406 0)
(2.479e-05 0.000188773 0)
(7.99548e-07 0.000189624 0)
(-2.33429e-05 0.00018991 0)
(-4.74626e-05 0.000189594 0)
(-7.14721e-05 0.00018865 0)
(-9.53466e-05 0.000187077 0)
(-0.000119015 0.000184901 0)
(-0.000142383 0.000182151 0)
(-0.000165374 0.000178849 0)
(-0.000187921 0.000175012 0)
(-0.000209961 0.000170653 0)
(-0.000231429 0.000165783 0)
(-0.000252262 0.000160416 0)
(-0.0002724 0.000154565 0)
(-0.000291785 0.000148245 0)
(-0.000310362 0.00014147 0)
(-0.000328077 0.000134259 0)
(-0.000344879 0.000126629 0)
(-0.00036072 0.000118599 0)
(-0.000375556 0.00011019 0)
(-0.000389344 0.000101422 0)
(-0.000402044 9.23189e-05 0)
(-0.000413621 8.29042e-05 0)
(-0.000424043 7.32029e-05 0)
(-0.000433279 6.32413e-05 0)
(-0.000441303 5.30471e-05 0)
(-0.000448094 4.26497e-05 0)
(-0.000453632 3.20795e-05 0)
(-0.000457902 2.13667e-05 0)
(-0.000460892 1.0539e-05 0)
(-0.000462597 -3.81193e-07 0)
(-0.000463007 -1.13774e-05 0)
(-0.000462113 -2.24293e-05 0)
(-0.000459918 -3.35166e-05 0)
(-0.00045642 -4.46166e-05 0)
(-0.000451626 -5.57014e-05 0)
(-0.000445548 -6.67367e-05 0)
(-0.000438202 -7.76849e-05 0)
(-0.000429606 -8.85078e-05 0)
(-0.000419782 -9.91672e-05 0)
(-0.000408755 -0.000109626 0)
(-0.000396555 -0.000119847 0)
(-0.000383212 -0.000129794 0)
(-0.000368763 -0.000139433 0)
(-0.000353245 -0.000148729 0)
(-0.0003367 -0.000157649 0)
(-0.00031917 -0.000166162 0)
(-0.000300704 -0.000174236 0)
(-0.000281349 -0.000181842 0)
(-0.000261158 -0.000188953 0)
(-0.000240185 -0.000195542 0)
(-0.000218484 -0.000201584 0)