/*--------------------------------*- C++ -*----------------------------------*\
| =========                 |                                                 |
| \\      /  F ield         | OpenFOAM: The Open Source CFD Toolbox           |
|  \\    /   O peration     | Version:  2206                                  |
|   \\  /    A nd           | Website:  www.openfoam.com                      |
|    \\/     M anipulation  |                                                 |
\*---------------------------------------------------------------------------*/
FoamFile
{
    version     2.0;
    format      ascii;
    arch        "LSB;label=64;scalar=64";
    class       volScalarField;
    location    "3";
    object      p;
}
// * * * * * * * * * * * * * * * * * * * * * * * * * * * * * * * * * * * * * //

dimensions      [0 2 -2 0 0 0 0];

internalField   nonuniform List<scalar> 
1024
(
3.16911e-12
-4.36053e-09
-7.51326e-09
-4.76707e-09
7.55722e-09
3.36228e-08
7.8955e-08
1.50998e-07
2.59609e-07
4.17565e-07
6.4102e-07
9.49757e-07
1.36688e-06
1.91741e-06
2.62463e-06
3.50411e-06
4.47562e-06
5.35651e-06
6.06579e-06
6.61851e-06
7.03765e-06
7.34808e-06
7.57288e-06
7.73186e-06
7.84121e-06
7.91377e-06
7.95944e-06
7.98572e-06
7.99817e-06
8.00097e-06
7.99782e-06
7.99345e-06
4.3725e-09
4.27974e-12
-2.59468e-09
7.13281e-10
1.33065e-08
3.94253e-08
8.47036e-08
1.56627e-07
2.65057e-07
4.22753e-07
6.45852e-07
9.54109e-07
1.3706e-06
1.92032e-06
2.62652e-06
3.50477e-06
4.47495e-06
5.35461e-06
6.06288e-06
6.61479e-06
7.03329e-06
7.34325e-06
7.56769e-06
7.72641e-06
7.83558e-06
7.90802e-06
7.95364e-06
7.97997e-06
7.99268e-06
7.99604e-06
7.99345e-06
7.98908e-06
7.54185e-09
2.60242e-09
-1.09679e-11
3.60935e-09
1.64506e-08
4.26793e-08
8.79734e-08
1.59852e-07
2.68184e-07
4.2573e-07
6.48617e-07
9.56589e-07
1.37271e-06
1.92195e-06
2.62757e-06
3.50513e-06
4.47457e-06
5.35354e-06
6.06122e-06
6.61267e-06
7.03081e-06
7.34049e-06
7.56473e-06
7.72329e-06
7.83237e-06
7.90477e-06
7.95041e-06
7.97685e-06
7.98981e-06
7.99348e-06
7.99087e-06
7.98592e-06
4.84751e-09
-6.9167e-10
-3.66005e-09
-5.65795e-11
1.29005e-08
3.92464e-08
8.46376e-08
1.56607e-07
2.65042e-07
4.22721e-07
6.4579e-07
9.54013e-07
1.37047e-06
1.92017e-06
2.62637e-06
3.50468e-06
4.47494e-06
5.35467e-06
6.06296e-06
6.61488e-06
7.03338e-06
7.34332e-06
7.56776e-06
7.72647e-06
7.83566e-06
7.90815e-06
7.95389e-06
7.98045e-06
7.99353e-06
7.99718e-06
7.99422e-06
7.98867e-06
-7.38578e-09
-1.32651e-08
-1.65458e-08
-1.308e-08
-1.03201e-10
2.63495e-08
7.19134e-08
1.44136e-07
2.52938e-07
4.11142e-07
6.34947e-07
9.44182e-07
1.362e-06
1.91347e-06
2.62195e-06
3.50307e-06
4.4764e-06
5.35895e-06
6.06956e-06
6.6233e-06
7.0432e-06
7.35418e-06
7.57938e-06
7.73863e-06
7.8482e-06
7.92096e-06
7.96688e-06
7.99355e-06
8.00665e-06
8.01017e-06
8.0069e-06
8.00101e-06
-3.33801e-08
-3.94303e-08
-4.29156e-08
-3.95704e-08
-2.65734e-08
3.5822e-11
4.59049e-08
1.18622e-07
2.2817e-07
3.87456e-07
6.12785e-07
9.24114e-07
1.34474e-06
1.89986e-06
2.613e-06
3.49982e-06
4.47939e-06
5.36769e-06
6.08302e-06
6.64047e-06
7.06323e-06
7.37637e-06
7.60313e-06
7.7635e-06
7.87384e-06
7.9471e-06
7.99334e-06
8.02018e-06
8.0333e-06
8.0367e-06
8.03323e-06
8.02717e-06
-7.88767e-08
-8.50548e-08
-8.86908e-08
-8.54177e-08
-7.23388e-08
-4.54551e-08
9.35852e-10
7.45061e-08
1.8535e-07
3.4652e-07
5.74504e-07
8.89471e-07
1.31496e-06
1.87641e-06
2.59759e-06
3.49425e-06
4.48456e-06
5.38277e-06
6.10623e-06
6.67011e-06
7.09783e-06
7.41468e-06
7.64416e-06
7.80646e-06
7.91813e-06
7.99228e-06
8.03905e-06
8.06618e-06
8.07939e-06
8.08273e-06
8.0791e-06
8.07291e-06
-1.51898e-07
-1.58227e-07
-1.62006e-07
-1.58757e-07
-1.45495e-07
-1.18149e-07
-7.09116e-08
4.03052e-09
1.16957e-07
2.81154e-07
5.13397e-07
8.34198e-07
1.26747e-06
1.83904e-06
2.57304e-06
3.48539e-06
4.49283e-06
5.4068e-06
6.14322e-06
6.71737e-06
7.15302e-06
7.47583e-06
7.70967e-06
7.87507e-06
7.98888e-06
8.06444e-06
8.11208e-06
8.13969e-06
8.15309e-06
8.15641e-06
8.15265e-06
8.14631e-06
-2.63662e-07
-2.70198e-07
-2.74142e-07
-2.70867e-07
-2.57281e-07
-2.29195e-07
-1.80642e-07
-1.03584e-07
1.25434e-08
1.81387e-07
4.20163e-07
7.49899e-07
1.19508e-06
1.78212e-06
2.53566e-06
3.47188e-06
4.50543e-06
5.44342e-06
6.19959e-06
6.78943e-06
7.2372e-06
7.56912e-06
7.80964e-06
7.9798e-06
8.09689e-06
8.17462e-06
8.22363e-06
8.25199e-06
8.26574e-06
8.26909e-06
8.26517e-06
8.25862e-06
-4.29904e-07
-4.36736e-07
-4.4089e-07
-4.37531e-07
-4.23423e-07
-3.94205e-07
-3.43662e-07
-2.63425e-07
-1.42504e-07
3.32853e-08
2.81811e-07
6.24864e-07
1.08777e-06
1.69778e-06
2.4803e-06
3.45188e-06
4.52409e-06
5.49764e-06
6.28309e-06
6.89623e-06
7.36204e-06
7.70755e-06
7.95803e-06
8.13531e-06
8.25732e-06
8.33832e-06
8.38937e-06
8.41891e-06
8.4332e-06
8.43664e-06
8.43251e-06
8.42567e-06
-6.72916e-07
-6.80169e-07
-6.84605e-07
-6.8109e-07
-6.66184e-07
-6.3527e-07
-5.81771e-07
-4.96834e-07
-3.68841e-07
-1.82827e-07
8.00262e-08
4.42611e-07
9.31455e-07
1.57502e-06
2.39974e-06
3.42275e-06
4.55122e-06
5.5765e-06
6.4046e-06
7.05178e-06
7.54399e-06
7.90944e-06
8.17458e-06
8.36233e-06
8.4916e-06
8.57742e-06
8.63152e-06
8.66281e-06
8.67793e-06
8.68155e-06
8.67714e-06
8.66988e-06
-1.02476e-06
-1.03262e-06
-1.03744e-06
-1.03367e-06
-1.01757e-06
-9.84146e-07
-9.26293e-07
-8.3445e-07
-6.96094e-07
-4.95128e-07
-2.11368e-07
1.79646e-07
7.06135e-07
1.39823e-06
2.2838e-06
3.3808e-06
4.59016e-06
5.68987e-06
6.57948e-06
7.27593e-06
7.80649e-06
8.20097e-06
8.48751e-06
8.6906e-06
8.83051e-06
8.92345e-06
8.98203e-06
9.01592e-06
9.03229e-06
9.03618e-06
9.03139e-06
9.02352e-06
-1.53252e-06
-1.54126e-06
-1.54663e-06
-1.54246e-06
-1.52457e-06
-1.48743e-06
-1.42316e-06
-1.32115e-06
-1.16758e-06
-9.4472e-07
-6.30437e-07
-1.98068e-07
3.82951e-07
1.14502e-06
2.11791e-06
3.32072e-06
4.64562e-06
5.85179e-06
6.82972e-06
7.59727e-06
8.18344e-06
8.62022e-06
8.93805e-06
9.16364e-06
9.31921e-06
9.42262e-06
9.48784e-06
9.52558e-06
9.54381e-06
9.54814e-06
9.54281e-06
9.53406e-06
-2.26716e-06
-2.27719e-06
-2.28336e-06
-2.27857e-06
-2.25801e-06
-2.21532e-06
-2.14147e-06
-2.02436e-06
-1.84821e-06
-1.59297e-06
-1.23375e-06
-7.40818e-07
-8.04441e-08
7.82746e-07
1.88096e-06
3.23481e-06
4.72428e-06
6.08247e-06
7.18727e-06
8.05767e-06
8.72488e-06
9.22373e-06
9.58774e-06
9.84668e-06
1.00255e-05
1.01446e-05
1.02197e-05
1.02632e-05
1.02843e-05
1.02893e-05
1.02832e-05
1.02731e-05
-3.33973e-06
-3.35172e-06
-3.35908e-06
-3.35329e-06
-3.32858e-06
-3.27735e-06
-3.18883e-06
-3.04864e-06
-2.83821e-06
-2.53409e-06
-2.1075e-06
-1.52455e-06
-7.4737e-07
2.63103e-07
1.54196e-06
3.1117e-06
4.83562e-06
6.41122e-06
7.69905e-06
8.7195e-06
9.50626e-06
1.00976e-05
1.05311e-05
1.08406e-05
1.10549e-05
1.11979e-05
1.12884e-05
1.13408e-05
1.13662e-05
1.13723e-05
1.13651e-05
1.13531e-05
-4.92914e-06
-4.94419e-06
-4.95335e-06
-4.94587e-06
-4.91445e-06
-4.84954e-06
-4.73768e-06
-4.56103e-06
-4.29679e-06
-3.91658e-06
-3.38622e-06
-2.66631e-06
-1.714e-06
-4.86181e-07
1.05512e-06
2.93456e-06
4.993e-06
6.88062e-06
8.43465e-06
9.67694e-06
1.06434e-05
1.1376e-05
1.1917e-05
1.23055e-05
1.2576e-05
1.27571e-05
1.2872e-05
1.29388e-05
1.29714e-05
1.29794e-05
1.29704e-05
1.29553e-05
-7.1784e-06
-7.19823e-06
-7.21013e-06
-7.19986e-06
-7.15779e-06
-7.07131e-06
-6.92284e-06
-6.68937e-06
-6.342e-06
-5.84559e-06
-5.1592e-06
-4.23739e-06
-3.03276e-06
-1.49967e-06
4.01078e-07
2.69607e-06
5.19937e-06
7.50573e-06
9.42466e-06
1.09791e-05
1.22054e-05
1.31472e-05
1.38507e-05
1.43608e-05
1.47187e-05
1.49598e-05
1.51134e-05
1.52032e-05
1.52472e-05
1.52584e-05
1.52468e-05
1.52269e-05
-9.97921e-06
-1.0006e-05
-1.00219e-05
-1.00074e-05
-9.94935e-06
-9.83091e-06
-9.62864e-06
-9.31261e-06
-8.84634e-06
-8.18725e-06
-7.28814e-06
-6.09978e-06
-4.5742e-06
-2.66795e-06
-3.44588e-07
2.42382e-06
5.42699e-06
8.21002e-06
1.05577e-05
1.24938e-05
1.40512e-05
1.52703e-05
1.61969e-05
1.68788e-05
1.73629e-05
1.76921e-05
1.79035e-05
1.80278e-05
1.80891e-05
1.81053e-05
1.80899e-05
1.80629e-05
-1.3149e-05
-1.31856e-05
-1.32069e-05
-1.31859e-05
-1.31049e-05
-1.29408e-05
-1.26628e-05
-1.22327e-05
-1.16061e-05
-1.07343e-05
-9.56736e-06
-8.05785e-06
-6.16406e-06
-3.85114e-06
-1.08911e-06
2.1519e-06
5.64554e-06
8.90332e-06
1.16945e-05
1.40455e-05
1.59825e-05
1.75364e-05
1.8745e-05
1.96532e-05
2.03093e-05
2.07617e-05
2.10555e-05
2.12298e-05
2.13168e-05
2.13406e-05
2.13201e-05
2.12832e-05
-1.66686e-05
-1.67193e-05
-1.67479e-05
-1.67171e-05
-1.66019e-05
-1.63714e-05
-1.59854e-05
-1.53966e-05
-1.45541e-05
-1.3407e-05
-1.19094e-05
-1.0024e-05
-7.72338e-06
-4.98668e-06
-1.79194e-06
1.89526e-06
5.84284e-06
9.54695e-06
1.27729e-05
1.55534e-05
1.79077e-05
1.98526e-05
2.14102e-05
2.26127e-05
2.35026e-05
2.41287e-05
2.45418e-05
2.47901e-05
2.49158e-05
2.49516e-05
2.49242e-05
2.4873e-05
-2.05378e-05
-2.0609e-05
-2.06478e-05
-2.06007e-05
-2.04331e-05
-2.01032e-05
-1.95602e-05
-1.8749e-05
-1.76168e-05
-1.61187e-05
-1.42231e-05
-1.19127e-05
-9.18071e-06
-6.02238e-06
-2.42159e-06
1.66534e-06
6.01096e-06
1.01124e-05
1.37422e-05
1.69453e-05
1.97377e-05
2.21215e-05
2.40978e-05
2.56766e-05
2.68824e-05
2.77547e-05
2.83438e-05
2.8705e-05
2.88912e-05
2.8947e-05
2.89104e-05
2.8838e-05
-2.47754e-05
-2.48776e-05
-2.49303e-05
-2.48553e-05
-2.46038e-05
-2.41216e-05
-2.33478e-05
-2.22255e-05
-2.07102e-05
-1.87763e-05
-1.64187e-05
-1.36478e-05
-1.04796e-05
-6.92204e-06
-2.95872e-06
1.46896e-06
6.14657e-06
1.05839e-05
1.45692e-05
1.81659e-05
2.13942e-05
2.42472e-05
2.67051e-05
2.87493e-05
3.0374e-05
3.1594e-05
3.24457e-05
3.29831e-05
3.32678e-05
3.33584e-05
3.33094e-05
3.32049e-05
-2.94276e-05
-2.95778e-05
-2.96486e-05
-2.95227e-05
-2.91326e-05
-2.84123e-05
-2.72989e-05
-2.57472e-05
-2.37392e-05
-2.12848e-05
-1.84152e-05
-1.51704e-05
-1.1584e-05
-7.66758e-06
-3.39635e-06
1.30836e-06
6.25027e-06
1.09577e-05
1.52396e-05
1.91823e-05
2.28189e-05
2.61442e-05
2.91263e-05
3.17202e-05
3.38817e-05
3.55835e-05
3.68266e-05
3.76443e-05
3.80955e-05
3.82504e-05
3.81858e-05
3.80306e-05
-3.45804e-05
-3.48071e-05
-3.48985e-05
-3.46739e-05
-3.40468e-05
-3.29512e-05
-3.13433e-05
-2.92157e-05
-2.65998e-05
-2.35544e-05
-2.01489e-05
-1.64444e-05
-1.24796e-05
-8.25767e-06
-3.73771e-06
1.18217e-06
6.32531e-06
1.12399e-05
1.57559e-05
1.99847e-05
2.39792e-05
2.77483e-05
3.12634e-05
3.44672e-05
3.7282e-05
3.9628e-05
4.1445e-05
4.27116e-05
4.34536e-05
4.37347e-05
4.36547e-05
4.34167e-05
-4.0387e-05
-4.07367e-05
-4.08382e-05
-4.04119e-05
-3.93706e-05
-3.76874e-05
-3.53794e-05
-3.25124e-05
-2.91866e-05
-2.5511e-05
-2.15802e-05
-1.74579e-05
-1.31713e-05
-8.70377e-06
-3.99284e-06
1.08663e-06
6.37638e-06
1.14422e-05
1.6133e-05
2.05836e-05
2.48698e-05
2.90244e-05
3.3039e-05
3.6869e-05
4.0425e-05
4.35847e-05
4.62121e-05
4.81896e-05
4.94501e-05
4.99933e-05
4.99162e-05
4.95405e-05
-4.71341e-05
-4.76708e-05
-4.77192e-05
-4.68653e-05
-4.51002e-05
-4.25214e-05
-3.92669e-05
-3.55054e-05
-3.14057e-05
-2.71056e-05
-2.26971e-05
-1.82216e-05
-1.36788e-05
-9.02511e-06
-4.17531e-06
1.0169e-06
6.40847e-06
1.1579e-05
1.63923e-05
2.10031e-05
2.55089e-05
2.997e-05
3.44093e-05
3.88233e-05
4.31468e-05
4.72548e-05
5.09574e-05
5.40196e-05
5.6202e-05
5.73129e-05
5.73311e-05
5.67386e-05
-5.54412e-05
-5.61777e-05
-5.59215e-05
-5.41575e-05
-5.11621e-05
-4.72839e-05
-4.28294e-05
-3.80643e-05
-3.3188e-05
-2.83203e-05
-2.35134e-05
-1.87622e-05
-1.40296e-05
-9.24404e-06
-4.29938e-06
9.67993e-07
6.42632e-06
1.16648e-05
1.65578e-05
2.12749e-05
2.59313e-05
3.06121e-05
3.53709e-05
4.02685e-05
4.52978e-05
5.03954e-05
5.53957e-05
6.00009e-05
6.37654e-05
6.61141e-05
6.65931e-05
6.57748e-05
-6.67524e-05
-6.73045e-05
-6.59437e-05
-6.23234e-05
-5.73506e-05
-5.17138e-05
-4.58597e-05
-4.00734e-05
-3.44967e-05
-2.91661e-05
-2.40606e-05
-1.91139e-05
-1.42539e-05
-9.38225e-06
-4.37797e-06
9.35566e-07
6.43418e-06
1.17129e-05
1.66525e-05
2.14326e-05
2.61796e-05
3.09997e-05
3.59609e-05
4.12029e-05
4.67863e-05
5.27717e-05
5.91395e-05
6.57023e-05
7.19619e-05
7.68602e-05
7.89532e-05
7.84754e-05
-8.39083e-05
-8.25947e-05
-7.80962e-05
-7.10238e-05
-6.31529e-05
-5.5381e-05
-4.81023e-05
-4.1429e-05
-3.53193e-05
-2.96699e-05
-2.43759e-05
-1.93097e-05
-1.43785e-05
-9.45772e-06
-4.42128e-06
9.16489e-07
6.43578e-06
1.17344e-05
1.66966e-05
2.15079e-05
2.62971e-05
3.11935e-05
3.62468e-05
4.16882e-05
4.76194e-05
5.42527e-05
6.18145e-05
7.04805e-05
8.01436e-05
8.962e-05
9.60561e-05
9.82679e-05
-0.00011274
-0.000103703
-9.13329e-05
-7.87121e-05
-6.73602e-05
-5.75866e-05
-4.92548e-05
-4.20456e-05
-3.56614e-05
-2.98673e-05
-2.44909e-05
-1.93803e-05
-1.44205e-05
-9.48338e-06
-4.4364e-06
9.0876e-07
6.43397e-06
1.17377e-05
1.67052e-05
2.15229e-05
2.63231e-05
3.12287e-05
3.63267e-05
4.1823e-05
4.78915e-05
5.48547e-05
6.31964e-05
7.3642e-05
8.70891e-05
0.000103474
0.000119961
0.000132148
-0.000176164
-0.00013237
-0.000101522
-8.21777e-05
-6.83558e-05
-5.77328e-05
-4.91865e-05
-4.19517e-05
-3.55829e-05
-2.98091e-05
-2.44485e-05
-1.93509e-05
-1.44009e-05
-9.47087e-06
-4.42967e-06
9.10262e-07
6.43032e-06
1.17284e-05
1.66889e-05
2.14974e-05
2.62839e-05
3.1168e-05
3.62451e-05
4.17029e-05
4.77319e-05
5.4689e-05
6.32207e-05
7.45823e-05
9.10322e-05
0.000116004
0.000154602
0.000207189
-0.000301887
-0.000166474
-0.000105949
-8.13946e-05
-6.683e-05
-5.65278e-05
-4.84287e-05
-4.14955e-05
-3.5304e-05
-2.96345e-05
-2.43366e-05
-1.92783e-05
-1.43551e-05
-9.44212e-06
-4.4135e-06
9.16119e-07
6.42659e-06
1.17148e-05
1.66639e-05
2.14576e-05
2.62217e-05
3.10735e-05
3.61042e-05
4.14853e-05
4.73934e-05
5.41613e-05
6.24397e-05
7.37548e-05
9.17062e-05
0.000124735
0.000197372
0.000344453
)
;

boundaryField
{
    movingWall
    {
        type            zeroGradient;
    }
    fixedWalls
    {
        type            zeroGradient;
    }
    frontAndBack
    {
        type            empty;
    }
}


// ************************************************************************* //
