/*--------------------------------*- C++ -*----------------------------------*\
| =========                 |                                                 |
| \\      /  F ield         | OpenFOAM: The Open Source CFD Toolbox           |
|  \\    /   O peration     | Version:  2206                                  |
|   \\  /    A nd           | Website:  www.openfoam.com                      |
|    \\/     M anipulation  |                                                 |
\*---------------------------------------------------------------------------*/
FoamFile
{
    version     2.0;
    format      ascii;
    arch        "LSB;label=64;scalar=64";
    class       surfaceScalarField;
    location    "79200";
    object      phi;
}
// * * * * * * * * * * * * * * * * * * * * * * * * * * * * * * * * * * * * * //

dimensions      [0 3 -1 0 0 0 0];

oriented        oriented;

internalField   nonuniform List<scalar> 
24
(
6.12242e-11
-6.12242e-11
2.38975e-10
-1.77751e-10
1.81113e-10
5.78616e-11
1.81113e-10
2.96816e-11
-9.09057e-11
1.54832e-10
-3.02901e-10
1.08673e-10
1.0402e-10
2.89786e-10
-3.52057e-11
-5.57001e-11
-1.21915e-10
-2.16192e-10
-9.20585e-11
7.4164e-11
1.97728e-10
-5.57001e-11
-2.71892e-10
-1.97728e-10
)
;

boundaryField
{
    movingWall
    {
        type            calculated;
        value           uniform 0;
    }
    fixedWalls
    {
        type            calculated;
        value           uniform 0;
    }
    frontAndBack
    {
        type            empty;
        value           nonuniform List<scalar> 0();
    }
}


// ************************************************************************* //
