/*--------------------------------*- C++ -*----------------------------------*\
| =========                 |                                                 |
| \\      /  F ield         | OpenFOAM: The Open Source CFD Toolbox           |
|  \\    /   O peration     | Version:  2206                                  |
|   \\  /    A nd           | Website:  www.openfoam.com                      |
|    \\/     M anipulation  |                                                 |
\*---------------------------------------------------------------------------*/
FoamFile
{
    version     2.0;
    format      ascii;
    arch        "LSB;label=64;scalar=64";
    class       volScalarField;
    location    "1.7/water";
    object      alpha.gas;
}
// * * * * * * * * * * * * * * * * * * * * * * * * * * * * * * * * * * * * * //

dimensions      [0 0 0 0 0 0 0];

internalField   nonuniform List<scalar> 
23300
(
1e-15
1e-15
1e-15
1e-15
1e-15
1e-15
1e-15
1e-15
1e-15
1e-15
1e-15
1e-15
1e-15
1e-15
1e-15
1e-15
1e-15
1e-15
1e-15
1e-15
1e-15
1e-15
1e-15
1e-15
1e-15
1e-15
1e-15
1e-15
1e-15
1e-15
1e-15
1e-15
1e-15
1e-15
1e-15
1e-15
1e-15
1e-15
1e-15
1e-15
1e-15
1e-15
1e-15
1e-15
1e-15
1e-15
1e-15
1e-15
1e-15
1e-15
1e-15
1e-15
1e-15
1e-15
1e-15
1e-15
1e-15
1e-15
1e-15
1e-15
1e-15
1e-15
1e-15
1e-15
1e-15
1e-15
1e-15
1e-15
1e-15
1e-15
1e-15
1e-15
1e-15
1e-15
1e-15
1e-15
1e-15
1e-15
1e-15
1e-15
1e-15
1e-15
1e-15
1e-15
1e-15
1e-15
1e-15
1e-15
1e-15
1e-15
1e-15
1e-15
1e-15
1e-15
1e-15
1e-15
1e-15
1e-15
1e-15
1e-15
1e-15
1e-15
1e-15
1e-15
1e-15
1e-15
1e-15
1e-15
1e-15
1e-15
1e-15
1e-15
1e-15
1e-15
1e-15
1e-15
1e-15
1e-15
1e-15
1e-15
1e-15
1e-15
1e-15
1e-15
1e-15
1e-15
1e-15
1e-15
1e-15
1e-15
1e-15
1e-15
1e-15
1e-15
1e-15
1e-15
1e-15
1e-15
1e-15
1e-15
1e-15
1e-15
1e-15
1e-15
1e-15
1e-15
1e-15
1e-15
1e-15
1e-15
1e-15
1e-15
1e-15
1e-15
1e-15
1e-15
1e-15
1e-15
1e-15
1e-15
1e-15
1e-15
1e-15
1e-15
1e-15
1e-15
1e-15
1e-15
1e-15
1e-15
1e-15
1e-15
1e-15
1e-15
1e-15
1e-15
1e-15
1e-15
1e-15
1e-15
1e-15
1e-15
1e-15
1e-15
1e-15
1e-15
1e-15
1e-15
1e-15
1e-15
1e-15
1e-15
1e-15
1e-15
1e-15
1e-15
1e-15
1e-15
1e-15
1e-15
1e-15
1e-15
1e-15
1e-15
1e-15
1e-15
1e-15
1e-15
1e-15
1e-15
1e-15
1e-15
1e-15
1e-15
1e-15
1e-15
1e-15
1e-15
1e-15
1e-15
1e-15
1e-15
1e-15
1e-15
1e-15
1e-15
1e-15
1e-15
1e-15
1e-15
1e-15
1e-15
1e-15
1e-15
1e-15
1e-15
1e-15
1e-15
1e-15
1e-15
1e-15
1e-15
1e-15
1e-15
1e-15
1e-15
1e-15
1e-15
1e-15
1e-15
1e-15
1e-15
1e-15
1e-15
1e-15
1e-15
1e-15
1e-15
1e-15
1e-15
1e-15
1e-15
1e-15
1e-15
1e-15
1e-15
1e-15
1e-15
1e-15
1e-15
1e-15
1e-15
1e-15
1e-15
1e-15
1e-15
1e-15
1e-15
1e-15
1e-15
1e-15
1e-15
1e-15
1e-15
1e-15
1e-15
1e-15
1e-15
1e-15
1e-15
1e-15
1e-15
1e-15
1e-15
1e-15
1e-15
1e-15
1e-15
1e-15
1e-15
1e-15
1e-15
1e-15
1e-15
1e-15
1e-15
1e-15
1e-15
1e-15
1e-15
1e-15
1e-15
1e-15
1e-15
1e-15
1e-15
1e-15
1e-15
1e-15
1e-15
1e-15
1e-15
1e-15
1e-15
1e-15
1e-15
1e-15
1e-15
1e-15
1e-15
1e-15
1e-15
1e-15
1e-15
1e-15
1e-15
1e-15
1e-15
1e-15
1e-15
1e-15
1e-15
1e-15
1e-15
1e-15
1e-15
1e-15
1e-15
1e-15
1e-15
1e-15
1e-15
1e-15
1e-15
1e-15
1e-15
1e-15
1e-15
1e-15
1e-15
1e-15
1e-15
1e-15
1e-15
1e-15
1e-15
1e-15
1e-15
1e-15
1e-15
1e-15
1e-15
1e-15
1e-15
1e-15
1e-15
1e-15
1e-15
1e-15
1e-15
1e-15
1e-15
1e-15
1e-15
1e-15
1e-15
1e-15
1e-15
1e-15
1e-15
1e-15
1e-15
1e-15
1e-15
1e-15
1e-15
1e-15
1e-15
1e-15
1e-15
1e-15
1e-15
1e-15
1e-15
1e-15
1e-15
1e-15
1e-15
1e-15
1e-15
1e-15
1e-15
1e-15
1e-15
1e-15
1e-15
1e-15
1e-15
1e-15
1e-15
1e-15
1e-15
1e-15
1e-15
1e-15
1e-15
1e-15
1e-15
1e-15
1e-15
1e-15
1e-15
1e-15
1e-15
1e-15
1e-15
1e-15
1e-15
1e-15
1e-15
1e-15
1e-15
1e-15
1e-15
1e-15
1e-15
1e-15
1e-15
1e-15
1e-15
1e-15
1e-15
1e-15
1e-15
1e-15
1e-15
1e-15
1e-15
1e-15
1e-15
1e-15
1e-15
1e-15
1e-15
1e-15
1e-15
1e-15
1e-15
1e-15
1e-15
1e-15
1e-15
1e-15
1e-15
1e-15
1e-15
1e-15
1e-15
1e-15
1e-15
1e-15
1e-15
1e-15
1e-15
1e-15
1e-15
1e-15
1e-15
1e-15
1e-15
1e-15
1e-15
1e-15
1e-15
1e-15
1e-15
1e-15
1e-15
1e-15
1e-15
1e-15
1e-15
1e-15
1e-15
1e-15
1e-15
1e-15
1e-15
1e-15
1e-15
1e-15
1e-15
1e-15
1e-15
1e-15
1e-15
1e-15
1e-15
1e-15
1e-15
1e-15
1e-15
1e-15
1e-15
1e-15
1e-15
1e-15
1e-15
1e-15
1e-15
1e-15
1e-15
1e-15
1e-15
1e-15
1e-15
1e-15
1e-15
1e-15
1e-15
1e-15
1e-15
1e-15
1e-15
1e-15
1e-15
1e-15
1e-15
1e-15
1e-15
1e-15
1e-15
1e-15
1e-15
1e-15
1e-15
1e-15
1e-15
1e-15
1e-15
1e-15
1e-15
1e-15
1e-15
1e-15
1e-15
1e-15
1e-15
1e-15
1e-15
1e-15
1e-15
1e-15
1e-15
1e-15
1e-15
1e-15
1e-15
1e-15
1e-15
1e-15
1e-15
1e-15
1e-15
1e-15
1e-15
1e-15
1e-15
1e-15
1e-15
1e-15
1e-15
1e-15
1e-15
1e-15
1e-15
1e-15
1e-15
1e-15
1e-15
1e-15
1e-15
1e-15
1e-15
1e-15
1e-15
1e-15
1e-15
1e-15
1e-15
1e-15
1e-15
1e-15
1e-15
1e-15
1e-15
1e-15
1e-15
1e-15
1e-15
1e-15
1e-15
1e-15
1e-15
1e-15
1e-15
1e-15
1e-15
1e-15
1e-15
1e-15
1e-15
1e-15
1e-15
1e-15
1e-15
1e-15
1e-15
1e-15
1e-15
1e-15
1e-15
1e-15
1e-15
1e-15
1e-15
1e-15
1e-15
1e-15
1e-15
1e-15
1e-15
1e-15
1e-15
1e-15
1e-15
1e-15
1e-15
1e-15
1e-15
1e-15
1e-15
1e-15
1e-15
1e-15
1e-15
1e-15
1e-15
1.00095677263e-15
1.00322835064e-15
1.00479446888e-15
1.0054517354e-15
1.00618071585e-15
1.00607938434e-15
1.00626762989e-15
1.0056973968e-15
1.00510895721e-15
1.00324037373e-15
1.00085295439e-15
1e-15
1e-15
1e-15
1e-15
1e-15
1e-15
1e-15
1e-15
1e-15
1e-15
1e-15
1e-15
1e-15
1e-15
1e-15
1e-15
1e-15
1e-15
1e-15
1.00803211542e-15
1.00999253273e-15
1e-15
1e-15
1e-15
1e-15
1e-15
1e-15
1.00014709309e-15
1.00012826738e-15
1.0002230592e-15
1.00010598487e-15
1.00001128365e-15
1e-15
1e-15
1e-15
1e-15
1e-15
1e-15
1e-15
1e-15
1e-15
1e-15
1e-15
1e-15
1e-15
1e-15
1e-15
1e-15
1e-15
1e-15
1e-15
1e-15
1e-15
1e-15
1e-15
1e-15
1e-15
1e-15
1e-15
1e-15
1e-15
1e-15
1e-15
1e-15
1e-15
1e-15
1e-15
1e-15
1e-15
1e-15
1e-15
1e-15
1e-15
1e-15
1e-15
1e-15
1e-15
1e-15
1e-15
1e-15
1e-15
1e-15
1e-15
1e-15
1e-15
1e-15
1e-15
1e-15
1e-15
1e-15
1e-15
1e-15
1e-15
1e-15
1e-15
1e-15
1e-15
1e-15
1e-15
1e-15
1e-15
1e-15
1e-15
1e-15
1e-15
1e-15
1e-15
1e-15
1e-15
1e-15
1e-15
1e-15
1e-15
1e-15
1e-15
1e-15
1e-15
1e-15
1e-15
1e-15
1e-15
1e-15
1e-15
1e-15
1.00238319749e-15
1.00511906642e-15
1.00750496603e-15
1.00758371145e-15
1.00793284453e-15
1.00790985354e-15
1.00824959139e-15
1.00790985354e-15
1.00829808e-15
1.00790985354e-15
1.00830253043e-15
1.00790985354e-15
1.00829177076e-15
1.00790985354e-15
1.00824585872e-15
1.00790985354e-15
1.00758754099e-15
1.00547451431e-15
1.00202231168e-15
1e-15
1e-15
1e-15
1e-15
1e-15
1e-15
1e-15
1e-15
1e-15
1e-15
1e-15
1e-15
1e-15
1e-15
1e-15
1e-15
1.00885817681e-15
1.00803211542e-15
1.00012826738e-15
1.00014277222e-15
1.00012826738e-15
1.00016218314e-15
1.00012826738e-15
1.00027269719e-15
1.00012826738e-15
1.00030020836e-15
1.00012826738e-15
1.00027861326e-15
1.00012826738e-15
1.00021029486e-15
1.00012826738e-15
1.00016082318e-15
1.00012826738e-15
1.0001294654e-15
1e-15
1e-15
1e-15
1e-15
1e-15
1e-15
1e-15
1e-15
1e-15
1e-15
1e-15
1e-15
1e-15
1e-15
1e-15
1e-15
1e-15
1e-15
1e-15
1e-15
1e-15
1e-15
1.00000068655e-15
1.00003128632e-15
1.00008994835e-15
1.00015515833e-15
1.00021958838e-15
1.00026131053e-15
1.00029226665e-15
1.00030628853e-15
1.00030766641e-15
1.00029561178e-15
1.00028812256e-15
1.00028221546e-15
1.00027370428e-15
1.00025843978e-15
1.00023866986e-15
1.0002112056e-15
1.00018216799e-15
1.00015170804e-15
1.00012663592e-15
1.0001029039e-15
1.00004863467e-15
1e-15
1e-15
1e-15
1e-15
1e-15
1e-15
1e-15
1e-15
1e-15
1e-15
1e-15
1e-15
1e-15
1e-15
1e-15
1e-15
1e-15
1e-15
1e-15
1e-15
1e-15
1e-15
1e-15
1e-15
1e-15
1e-15
1e-15
1e-15
1e-15
1e-15
1e-15
1e-15
1e-15
1e-15
1e-15
1e-15
1.00007370977e-15
1.00021327801e-15
1.00030848959e-15
1.00038684852e-15
1.0004477325e-15
1.00484978522e-15
1.00788729263e-15
1.00801132508e-15
1.00790985354e-15
1.00814747051e-15
1.00790985354e-15
1.00819908465e-15
1.00790985354e-15
1.00823355068e-15
1.00790985354e-15
1.00825732195e-15
1.00790985354e-15
1.00827796258e-15
1.00790985354e-15
1.00827529036e-15
1.00790985354e-15
1.00825961456e-15
1.00790985354e-15
1.00823432898e-15
1.00790985354e-15
1.00818935128e-15
1.00790985354e-15
1.00803782652e-15
1.00785519744e-15
1e-15
1e-15
1e-15
1e-15
1e-15
1e-15
1e-15
1e-15
1e-15
1e-15
1e-15
1e-15
1e-15
1e-15
1.00803211171e-15
1.01013646789e-15
1.00015261685e-15
1.00012826738e-15
1.00014761774e-15
1.00012826738e-15
1.00018122644e-15
1.00012826738e-15
1.00027337154e-15
1.00012826738e-15
1.00025806698e-15
1.00012826738e-15
1.00020438052e-15
1.00012826738e-15
1.00016052801e-15
1.00012826738e-15
1.00013684839e-15
1.00012826738e-15
1.00002512242e-15
1e-15
1e-15
1e-15
1e-15
1e-15
1e-15
1e-15
1e-15
1e-15
1e-15
1e-15
1e-15
1e-15
1e-15
1e-15
1e-15
1e-15
1e-15
1e-15
1e-15
1.00002303677e-15
1.00011722603e-15
1.00020065917e-15
1.0003016496e-15
1.0004018093e-15
1.00049631913e-15
1.00058369104e-15
1.00065197611e-15
1.00068304883e-15
1.00068298467e-15
1.00065503919e-15
1.00062934235e-15
1.00061324002e-15
1.00058924863e-15
1.00054950127e-15
1.00050638457e-15
1.00047111105e-15
1.00043758669e-15
1.00037446381e-15
1.00027014853e-15
1.00015503647e-15
1.00003945506e-15
1e-15
1e-15
1e-15
1e-15
1e-15
1e-15
1e-15
1e-15
1e-15
1e-15
1e-15
1e-15
1e-15
1e-15
1e-15
1e-15
1e-15
1e-15
1e-15
1e-15
1e-15
1e-15
1e-15
1e-15
1e-15
1e-15
1e-15
1e-15
1e-15
1e-15
1e-15
1e-15
1e-15
1e-15
1e-15
1.00016979097e-15
1.00050605739e-15
1.00075313653e-15
1.00094506435e-15
1.00111635947e-15
1.00129441565e-15
1.00790985354e-15
1.00805899306e-15
1.00790985354e-15
1.00811188912e-15
1.00790985354e-15
1.00815371462e-15
1.00790985354e-15
1.00818592408e-15
1.00790985354e-15
1.00821435755e-15
1.00790985354e-15
1.00823694211e-15
1.00790985354e-15
1.00824619215e-15
1.00790985354e-15
1.00824196087e-15
1.00790985354e-15
1.00822477599e-15
1.00790985354e-15
1.00819525474e-15
1.00790985354e-15
1.00815538948e-15
1.00790985354e-15
1.0080982394e-15
1.0003720917e-15
1e-15
1e-15
1e-15
1e-15
1e-15
1e-15
1e-15
1e-15
1e-15
1e-15
1e-15
1e-15
1e-15
1.0088887318e-15
1.00803211542e-15
1.00012826738e-15
1.00013038682e-15
1.00012826738e-15
1.00013989525e-15
1.00012826738e-15
1.0002224682e-15
1.00012826738e-15
1.00023242167e-15
1.00012826738e-15
1.00018989622e-15
1.00012826738e-15
1.00015383539e-15
1.00012826738e-15
1.00013547309e-15
1.00012826738e-15
1.00012812623e-15
1.0000740403e-15
1.00001705696e-15
1e-15
1e-15
1e-15
1e-15
1e-15
1e-15
1e-15
1e-15
1e-15
1e-15
1e-15
1e-15
1e-15
1e-15
1e-15
1e-15
1.00004067464e-15
1.00007741666e-15
1.00011273681e-15
1.00017508379e-15
1.00023641848e-15
1.00030347794e-15
1.00042295187e-15
1.00052786659e-15
1.00064158669e-15
1.00076248827e-15
1.00087980671e-15
1.00093617037e-15
1.00093630825e-15
1.00088894745e-15
1.00084837976e-15
1.00085050014e-15
1.00079119801e-15
1.00076457521e-15
1.00072193178e-15
1.00061642699e-15
1.00049067622e-15
1.0003569185e-15
1.00021728526e-15
1.00006447996e-15
1e-15
1e-15
1e-15
1e-15
1e-15
1e-15
1e-15
1e-15
1e-15
1e-15
1e-15
1e-15
1e-15
1e-15
1e-15
1e-15
1e-15
1e-15
1e-15
1e-15
1e-15
1e-15
1e-15
1e-15
1e-15
1e-15
1e-15
1e-15
1e-15
1e-15
1e-15
1e-15
1e-15
1e-15
1e-15
1.0000406784e-15
1.0005212191e-15
1.00105330034e-15
1.0013937585e-15
1.00165027077e-15
1.00190316106e-15
1.00222268196e-15
1.00801078461e-15
1.00790985354e-15
1.00806629103e-15
1.00790985354e-15
1.00810733848e-15
1.00790985354e-15
1.00814539676e-15
1.00790985354e-15
1.0081719495e-15
1.00790985354e-15
1.00818909265e-15
1.00790985354e-15
1.00821446871e-15
1.00790985354e-15
1.00821596831e-15
1.00790985354e-15
1.00820578661e-15
1.00790985354e-15
1.00818786902e-15
1.00790985354e-15
1.00815772788e-15
1.00790985354e-15
1.0081161933e-15
1.00790985354e-15
1.00134778736e-15
1e-15
1e-15
1e-15
1e-15
1e-15
1e-15
1e-15
1e-15
1e-15
1e-15
1e-15
1e-15
1e-15
1.00803211369e-15
1.01014936966e-15
1.00013960464e-15
1.00012792382e-15
1.0001310872e-15
1.00012826738e-15
1.00015317903e-15
1.00012826738e-15
1.00020777457e-15
1.00012826738e-15
1.0001761831e-15
1.00012826738e-15
1.0001453113e-15
1.00012826738e-15
1.00013233045e-15
1.00012826738e-15
1.00012833757e-15
1.00010024686e-15
1.00006894859e-15
1.00005546345e-15
1.00005266476e-15
1.0000435682e-15
1.000065219e-15
1.00006442228e-15
1.00004186064e-15
1.00001321573e-15
1e-15
1e-15
1e-15
1.00000278079e-15
1.00001997498e-15
1.0000380966e-15
1.00005366029e-15
1.00006234171e-15
1.00006603972e-15
1.0000994454e-15
1.00013044841e-15
1.00016184724e-15
1.00021199345e-15
1.00026818217e-15
1.00031361938e-15
1.00036284743e-15
1.00049699693e-15
1.00066783778e-15
1.00089073901e-15
1.00109991993e-15
1.00108140983e-15
1.00113411991e-15
1.00114961479e-15
1.0010445506e-15
1.00100017369e-15
1.00099977977e-15
1.00093656411e-15
1.00083610546e-15
1.00070862221e-15
1.00057976844e-15
1.00042181271e-15
1.00023613637e-15
1.00004472621e-15
1e-15
1e-15
1e-15
1e-15
1e-15
1e-15
1e-15
1e-15
1e-15
1e-15
1e-15
1e-15
1e-15
1e-15
1e-15
1e-15
1e-15
1e-15
1e-15
1e-15
1e-15
1e-15
1e-15
1e-15
1e-15
1e-15
1e-15
1e-15
1e-15
1e-15
1e-15
1e-15
1e-15
1e-15
1e-15
1e-15
1.00018294277e-15
1.00068865555e-15
1.00131522151e-15
1.00171544535e-15
1.00225381543e-15
1.00267423093e-15
1.00419489498e-15
1.00790985354e-15
1.00801828459e-15
1.00790985354e-15
1.00806516257e-15
1.00790985354e-15
1.0081019729e-15
1.00790985354e-15
1.00812899666e-15
1.00790985354e-15
1.00815268195e-15
1.00790985354e-15
1.00816909215e-15
1.00790985354e-15
1.00818389907e-15
1.00790985354e-15
1.00818335805e-15
1.00790985354e-15
1.0081717477e-15
1.00790985354e-15
1.0081498824e-15
1.00790985365e-15
1.00812032002e-15
1.00790985354e-15
1.00807853406e-15
1.0045899382e-15
1e-15
1e-15
1e-15
1e-15
1e-15
1e-15
1e-15
1e-15
1e-15
1e-15
1e-15
1e-15
1e-15
1.00891418102e-15
1.00803211542e-15
1.00012826738e-15
1.00002566662e-15
1.00012422653e-15
1.00012041777e-15
1.00012826738e-15
1.0001752263e-15
1.00012826738e-15
1.00016344031e-15
1.00012826738e-15
1.00013944105e-15
1.00012826738e-15
1.00013022536e-15
1.00012826738e-15
1.00011428485e-15
1.00008008393e-15
1.00005423713e-15
1.00005623898e-15
1.00006247828e-15
1.00007585691e-15
1.00008908408e-15
1.00011952778e-15
1.00012381599e-15
1.00012647918e-15
1.00012915456e-15
1.00012891737e-15
1.00012081341e-15
1.00011684046e-15
1.00011801495e-15
1.00012522681e-15
1.00012970867e-15
1.0001378183e-15
1.00014007606e-15
1.00014407334e-15
1.0001504579e-15
1.00016101443e-15
1.00018205772e-15
1.00022278312e-15
1.00026464947e-15
1.00031055397e-15
1.00042023107e-15
1.00065140938e-15
1.00102246694e-15
1.00144429145e-15
1.00146631957e-15
1.00145173847e-15
1.00134978934e-15
1.00137257614e-15
1.00120080767e-15
1.00107210701e-15
1.00099077373e-15
1.00090827673e-15
1.00078134711e-15
1.00062158608e-15
1.00044108228e-15
1.00020235003e-15
1e-15
1e-15
1e-15
1e-15
1e-15
1e-15
1e-15
1e-15
1e-15
1e-15
1e-15
1e-15
1e-15
1e-15
1e-15
1e-15
1e-15
1e-15
1e-15
1e-15
1e-15
1e-15
1e-15
1e-15
1e-15
1e-15
1e-15
1e-15
1e-15
1e-15
1e-15
1e-15
1e-15
1e-15
1e-15
1e-15
1e-15
1.00000137734e-15
1.00036933225e-15
1.00085551697e-15
1.00144286538e-15
1.00197495854e-15
1.00267471572e-15
1.00318591455e-15
1.00790613475e-15
1.00798256368e-15
1.00790985354e-15
1.00802174645e-15
1.00790985354e-15
1.00805762674e-15
1.00790985354e-15
1.00809235754e-15
1.00790985354e-15
1.00811622641e-15
1.00790985354e-15
1.00813032863e-15
1.00790985354e-15
1.00814909315e-15
1.00790985354e-15
1.00815650446e-15
1.00790985354e-15
1.00814902887e-15
1.00790985354e-15
1.00813677372e-15
1.00790985365e-15
1.00811497915e-15
1.00790985365e-15
1.00808424211e-15
1.00790985354e-15
1.00800240438e-15
1.00052564298e-15
1e-15
1e-15
1e-15
1e-15
1e-15
1e-15
1e-15
1e-15
1e-15
1e-15
1e-15
1e-15
1.00803211473e-15
1.0101564373e-15
1.00012974015e-15
1e-15
1e-15
1e-15
1.00013394154e-15
1.00012826738e-15
1.00015494515e-15
1.00012826738e-15
1.00013505852e-15
1.00012826738e-15
1.00012858775e-15
1.00010117844e-15
1.0000589863e-15
1.00003077456e-15
1.00001988354e-15
1.00002444517e-15
1.00004364605e-15
1.00006517346e-15
1.00009305257e-15
1.00011824623e-15
1.0001473668e-15
1.00015692296e-15
1.00016585408e-15
1.0001723342e-15
1.00017366941e-15
1.00016595762e-15
1.00015983302e-15
1.00014739457e-15
1.00014492711e-15
1.00014578175e-15
1.00015117417e-15
1.00015233884e-15
1.00015696521e-15
1.00015842415e-15
1.00016377277e-15
1.00017441032e-15
1.00020236037e-15
1.00022661163e-15
1.00031340571e-15
1.00056233207e-15
1.0010015675e-15
1.00143043605e-15
1.00147617856e-15
1.00147546347e-15
1.00147408299e-15
1.00146486975e-15
1.00137452539e-15
1.00119639094e-15
1.00103514528e-15
1.00091652538e-15
1.00079409271e-15
1.00062643027e-15
1.0004036998e-15
1.0001350201e-15
1e-15
1e-15
1e-15
1e-15
1e-15
1e-15
1e-15
1e-15
1e-15
1e-15
1e-15
1e-15
1e-15
1e-15
1e-15
1e-15
1e-15
1e-15
1e-15
1e-15
1e-15
1e-15
1e-15
1e-15
1e-15
1e-15
1e-15
1e-15
1e-15
1e-15
1e-15
1e-15
1e-15
1e-15
1e-15
1e-15
1e-15
1e-15
1.00011004329e-15
1.00049805698e-15
1.00095859975e-15
1.00165605095e-15
1.0023903595e-15
1.0031021418e-15
1.00368664077e-15
1.00795064129e-15
1.00790985354e-15
1.00798321081e-15
1.00790985354e-15
1.00801908131e-15
1.00790985354e-15
1.00805080592e-15
1.00790985354e-15
1.00807484471e-15
1.00790985354e-15
1.00809720953e-15
1.00790985354e-15
1.00810954688e-15
1.00790985354e-15
1.00812553416e-15
1.00790985354e-15
1.00812688279e-15
1.00790985354e-15
1.00811815395e-15
1.00790985365e-15
1.00810208774e-15
1.00790985365e-15
1.00807981956e-15
1.00790985365e-15
1.00805018233e-15
1.00790985354e-15
1.00134772475e-15
1.00003556174e-15
1e-15
1e-15
1e-15
1e-15
1e-15
1e-15
1e-15
1e-15
1e-15
1e-15
1e-15
1.00894072011e-15
1.00803211542e-15
1.00007794091e-15
1e-15
1e-15
1e-15
1.00012826738e-15
1.00014464544e-15
1.00012826738e-15
1.00013166352e-15
1.00012826738e-15
1.00009902634e-15
1.00003893579e-15
1e-15
1e-15
1e-15
1e-15
1.00000559482e-15
1.00003429557e-15
1.00006644276e-15
1.00010592684e-15
1.00014119379e-15
1.00017173229e-15
1.00018437471e-15
1.00019483322e-15
1.00019740683e-15
1.00019577693e-15
1.00018640828e-15
1.00017908293e-15
1.00016616201e-15
1.00015737335e-15
1.00014918818e-15
1.00014976897e-15
1.0001501041e-15
1.00015365922e-15
1.00015260777e-15
1.00015219971e-15
1.00014774882e-15
1.00015152803e-15
1.00018266305e-15
1.00038754136e-15
1.0008380171e-15
1.0013249535e-15
1.00146933993e-15
1.0014701047e-15
1.00146393307e-15
1.00146376761e-15
1.00143400691e-15
1.00130058873e-15
1.00113702882e-15
1.00093202983e-15
1.00072990827e-15
1.00055617776e-15
1.00028679337e-15
1.00001272095e-15
1e-15
1e-15
1e-15
1e-15
1e-15
1e-15
1e-15
1e-15
1e-15
1e-15
1e-15
1e-15
1e-15
1e-15
1e-15
1e-15
1e-15
1e-15
1e-15
1e-15
1e-15
1e-15
1e-15
1e-15
1e-15
1e-15
1e-15
1e-15
1e-15
1e-15
1e-15
1e-15
1e-15
1e-15
1e-15
1e-15
1e-15
1e-15
1e-15
1.00010205014e-15
1.00053980304e-15
1.00110148415e-15
1.00198515863e-15
1.00286307846e-15
1.00356582646e-15
1.0044191486e-15
1.00790985354e-15
1.00795627012e-15
1.00790985354e-15
1.00798816821e-15
1.00790985354e-15
1.00801288419e-15
1.00790985354e-15
1.00804054309e-15
1.00790985354e-15
1.00806212384e-15
1.00790985354e-15
1.00807577075e-15
1.00790985354e-15
1.00808864742e-15
1.00790985354e-15
1.00810364691e-15
1.00790985354e-15
1.00809754614e-15
1.00790985365e-15
1.00808742281e-15
1.00790985365e-15
1.00807046055e-15
1.00790985365e-15
1.00804756874e-15
1.00790985365e-15
1.00800050974e-15
1.00198722171e-15
1.00056376655e-15
1e-15
1e-15
1e-15
1e-15
1e-15
1e-15
1e-15
1e-15
1e-15
1e-15
1e-15
1.00803211542e-15
1.01016051685e-15
1.00003223435e-15
1e-15
1e-15
1e-15
1.00007423001e-15
1.00012826738e-15
1.00013083343e-15
1.00012547677e-15
1.00005156745e-15
1e-15
1e-15
1e-15
1e-15
1e-15
1e-15
1e-15
1.00002755815e-15
1.00006731913e-15
1.0001159594e-15
1.00015903417e-15
1.00019291707e-15
1.00020831208e-15
1.00021894308e-15
1.00021744811e-15
1.00021393573e-15
1.00020329335e-15
1.000193954e-15
1.00017959887e-15
1.00016786256e-15
1.00015393874e-15
1.00014761422e-15
1.0001442983e-15
1.00014386366e-15
1.0001388728e-15
1.00012539763e-15
1.00010917857e-15
1.00009986825e-15
1.00019207655e-15
1.00056622626e-15
1.0010557397e-15
1.00132802878e-15
1.00142590386e-15
1.00142484234e-15
1.00141255034e-15
1.0013908403e-15
1.00130896803e-15
1.00114907809e-15
1.00099498937e-15
1.00071331106e-15
1.00038200065e-15
1.00011247455e-15
1e-15
1e-15
1e-15
1e-15
1e-15
1e-15
1e-15
1e-15
1e-15
1e-15
1e-15
1e-15
1e-15
1e-15
1e-15
1e-15
1e-15
1e-15
1e-15
1e-15
1e-15
1e-15
1e-15
1e-15
1e-15
1e-15
1e-15
1e-15
1e-15
1e-15
1e-15
1e-15
1e-15
1e-15
1e-15
1e-15
1e-15
1e-15
1e-15
1e-15
1e-15
1.00006518863e-15
1.00054729594e-15
1.00130812746e-15
1.00238990462e-15
1.00335516219e-15
1.00408192403e-15
1.00523785314e-15
1.00793002333e-15
1.00790985354e-15
1.00795766196e-15
1.00790985354e-15
1.00798483541e-15
1.00790985354e-15
1.00800945032e-15
1.00790985354e-15
1.00802564957e-15
1.00790985354e-15
1.00804353383e-15
1.00790985354e-15
1.00805596936e-15
1.00790985354e-15
1.00806668917e-15
1.00790985354e-15
1.0080765692e-15
1.00790985365e-15
1.00807081857e-15
1.00790985365e-15
1.00805713235e-15
1.00790985365e-15
1.00803984357e-15
1.00790985365e-15
1.00801735868e-15
1.00790985365e-15
1.00246963483e-15
1.00108225081e-15
1.0003236273e-15
1e-15
1e-15
1e-15
1e-15
1e-15
1e-15
1e-15
1e-15
1e-15
1e-15
1.00896496794e-15
1.00803211542e-15
1e-15
1e-15
1e-15
1e-15
1.00004790575e-15
1.00013011425e-15
1.00012399326e-15
1.00002062549e-15
1e-15
1e-15
1e-15
1e-15
1e-15
1e-15
1e-15
1e-15
1.00002307102e-15
1.00006897973e-15
1.00012520448e-15
1.00017471399e-15
1.00021165539e-15
1.00022911308e-15
1.0002398513e-15
1.00023543484e-15
1.00022999671e-15
1.0002175822e-15
1.0002062408e-15
1.00018985205e-15
1.00017520926e-15
1.00015698053e-15
1.00014448987e-15
1.00013544511e-15
1.00013119723e-15
1.00011196439e-15
1.00008968182e-15
1.00006884521e-15
1.00006084966e-15
1.00024409975e-15
1.00070180984e-15
1.00105119464e-15
1.00123665084e-15
1.0012721838e-15
1.00126433877e-15
1.00124652812e-15
1.00120606323e-15
1.0010939223e-15
1.00092914988e-15
1.00074859173e-15
1.00029129949e-15
1e-15
1e-15
1e-15
1e-15
1e-15
1e-15
1e-15
1e-15
1e-15
1e-15
1e-15
1e-15
1e-15
1e-15
1e-15
1e-15
1e-15
1e-15
1e-15
1e-15
1e-15
1e-15
1e-15
1e-15
1e-15
1e-15
1e-15
1e-15
1e-15
1e-15
1e-15
1e-15
1e-15
1e-15
1e-15
1e-15
1e-15
1e-15
1e-15
1e-15
1e-15
1e-15
1e-15
1.00000708418e-15
1.00056077449e-15
1.00154606375e-15
1.00275429393e-15
1.00378252757e-15
1.00465438214e-15
1.00693770951e-15
1.00790985354e-15
1.00793382368e-15
1.00790985354e-15
1.00795680038e-15
1.00790985354e-15
1.0079802816e-15
1.00790985354e-15
1.0080000837e-15
1.00790985354e-15
1.00801701863e-15
1.00790985354e-15
1.00802551215e-15
1.00790985354e-15
1.00803498745e-15
1.00790985354e-15
1.00804878167e-15
1.00790985365e-15
1.00805006391e-15
1.00790985365e-15
1.00804382462e-15
1.00790985365e-15
1.00803099322e-15
1.00790985365e-15
1.0080119721e-15
1.00790985365e-15
1.00797463025e-15
1.00287324863e-15
1.00147119322e-15
1.00088701789e-15
1.00013019832e-15
1e-15
1e-15
1e-15
1e-15
1e-15
1e-15
1e-15
1e-15
1e-15
1.00803211542e-15
1.01015791884e-15
1e-15
1e-15
1e-15
1e-15
1.00010730672e-15
1.00012598228e-15
1.00002000841e-15
1e-15
1e-15
1e-15
1e-15
1e-15
1e-15
1e-15
1e-15
1e-15
1.00002110084e-15
1.00007293335e-15
1.00013577936e-15
1.00019056494e-15
1.00023046651e-15
1.00024873331e-15
1.00025896684e-15
1.00025240288e-15
1.00024439559e-15
1.00022891097e-15
1.00021504103e-15
1.0001966558e-15
1.00017964088e-15
1.00015707635e-15
1.00013893459e-15
1.00012199893e-15
1.0001034639e-15
1.00007404637e-15
1.00004685652e-15
1.00002535745e-15
1.00002644913e-15
1.00030733029e-15
1.00072247306e-15
1.00096930753e-15
1.00104157278e-15
1.00103637232e-15
1.00101842293e-15
1.00099652474e-15
1.00094453056e-15
1.00082002484e-15
1.00063065846e-15
1.0003598077e-15
1e-15
1e-15
1e-15
1e-15
1e-15
1e-15
1e-15
1e-15
1e-15
1e-15
1e-15
1e-15
1e-15
1e-15
1e-15
1e-15
1e-15
1e-15
1e-15
1e-15
1e-15
1e-15
1e-15
1e-15
1e-15
1e-15
1e-15
1e-15
1e-15
1e-15
1e-15
1e-15
1e-15
1e-15
1e-15
1e-15
1e-15
1e-15
1e-15
1e-15
1e-15
1e-15
1e-15
1e-15
1e-15
1.0005758052e-15
1.00175013258e-15
1.00302127409e-15
1.00412770774e-15
1.00528237475e-15
1.00790278004e-15
1.00791949523e-15
1.00790985354e-15
1.00793377338e-15
1.00790985354e-15
1.00795249467e-15
1.00790985354e-15
1.00797260258e-15
1.00790985354e-15
1.00798965474e-15
1.00790985354e-15
1.00800194675e-15
1.00790985354e-15
1.00801148924e-15
1.00790985354e-15
1.00801364384e-15
1.00790985365e-15
1.00802769374e-15
1.00790985365e-15
1.00802624625e-15
1.00790985365e-15
1.0080170625e-15
1.00790985365e-15
1.00800490759e-15
1.00790985365e-15
1.00798615432e-15
1.00790985365e-15
1.00326186276e-15
1.00177728087e-15
1.00126302791e-15
1.00069350825e-15
1.00000538311e-15
1e-15
1e-15
1e-15
1e-15
1e-15
1e-15
1e-15
1e-15
1.00898520524e-15
1.00803211542e-15
1e-15
1e-15
1e-15
1e-15
1.00010688731e-15
1.00005358448e-15
1e-15
1e-15
1e-15
1e-15
1e-15
1e-15
1e-15
1e-15
1e-15
1e-15
1.00002293248e-15
1.00008102667e-15
1.00015014427e-15
1.00020941711e-15
1.00025115518e-15
1.0002691806e-15
1.00027794491e-15
1.00026806295e-15
1.00025686643e-15
1.00023822153e-15
1.00022174451e-15
1.00019861278e-15
1.00017455023e-15
1.00014795606e-15
1.00012365404e-15
1.00009360726e-15
1.00006120678e-15
1.00002980432e-15
1.00000269619e-15
1e-15
1e-15
1.00030842904e-15
1.00065177129e-15
1.00078635124e-15
1.00079296237e-15
1.00076444261e-15
1.00073667343e-15
1.00070577042e-15
1.00063107827e-15
1.00041261617e-15
1.00008750631e-15
1e-15
1e-15
1e-15
1e-15
1e-15
1e-15
1e-15
1e-15
1e-15
1e-15
1e-15
1e-15
1e-15
1e-15
1e-15
1e-15
1e-15
1e-15
1e-15
1e-15
1e-15
1e-15
1e-15
1e-15
1e-15
1e-15
1e-15
1e-15
1e-15
1e-15
1e-15
1e-15
1e-15
1e-15
1e-15
1e-15
1e-15
1e-15
1e-15
1e-15
1e-15
1e-15
1e-15
1e-15
1e-15
1e-15
1.00056859171e-15
1.00189912136e-15
1.00322884641e-15
1.00443655686e-15
1.00584425692e-15
1.00791083986e-15
1.00790985354e-15
1.00792089354e-15
1.00790985354e-15
1.00793372961e-15
1.00790985354e-15
1.00794813816e-15
1.00790985354e-15
1.00796437662e-15
1.00790985354e-15
1.00797809491e-15
1.00790985354e-15
1.00798865649e-15
1.00790985354e-15
1.00799453162e-15
1.00790985365e-15
1.00800048117e-15
1.00790985365e-15
1.00800738068e-15
1.00790985365e-15
1.0080027833e-15
1.00790985365e-15
1.00799451595e-15
1.00790985365e-15
1.00798083793e-15
1.00790985365e-15
1.00795061667e-15
1.00368311903e-15
1.00205988225e-15
1.00153946011e-15
1.00110394956e-15
1.00055505661e-15
1e-15
1e-15
1e-15
1e-15
1e-15
1e-15
1e-15
1e-15
1.00803211542e-15
1.01015208711e-15
1e-15
1e-15
1e-15
1e-15
1.00009956056e-15
1e-15
1e-15
1e-15
1e-15
1e-15
1e-15
1e-15
1e-15
1e-15
1e-15
1e-15
1.00002962223e-15
1.00009585051e-15
1.00017144877e-15
1.00023524927e-15
1.0002758494e-15
1.00029171566e-15
1.00029743952e-15
1.00028362806e-15
1.00026840942e-15
1.0002460865e-15
1.00022068393e-15
1.00019081834e-15
1.00016033638e-15
1.00012414555e-15
1.00008807206e-15
1.00004910269e-15
1.00001497094e-15
1e-15
1e-15
1e-15
1e-15
1.00024002322e-15
1.00048087821e-15
1.00053331712e-15
1.00051009576e-15
1.00047529261e-15
1.0004317035e-15
1.00032965263e-15
1.00009895455e-15
1e-15
1e-15
1e-15
1e-15
1e-15
1e-15
1e-15
1e-15
1e-15
1e-15
1e-15
1e-15
1e-15
1e-15
1e-15
1e-15
1e-15
1e-15
1e-15
1e-15
1e-15
1e-15
1e-15
1e-15
1e-15
1e-15
1e-15
1e-15
1e-15
1e-15
1e-15
1e-15
1e-15
1e-15
1e-15
1e-15
1e-15
1e-15
1e-15
1e-15
1e-15
1e-15
1e-15
1e-15
1e-15
1e-15
1e-15
1e-15
1.00052908468e-15
1.00201967185e-15
1.00343025279e-15
1.00475374024e-15
1.00633095548e-15
1.00790967587e-15
1.00791206612e-15
1.00790985354e-15
1.00792066056e-15
1.00790985354e-15
1.0079314567e-15
1.00790985354e-15
1.00794230409e-15
1.00790985354e-15
1.00795409336e-15
1.00790985354e-15
1.00796515219e-15
1.00790985354e-15
1.00797380751e-15
1.00790985365e-15
1.00797898038e-15
1.00790985365e-15
1.00798492654e-15
1.00790985365e-15
1.00799004268e-15
1.00790985365e-15
1.00798151157e-15
1.00790985365e-15
1.00797203895e-15
1.00790985365e-15
1.00795873721e-15
1.00790985365e-15
1.00414975379e-15
1.00237755734e-15
1.00178358299e-15
1.00137388292e-15
1.00097488715e-15
1.00039155035e-15
1e-15
1e-15
1e-15
1e-15
1e-15
1e-15
1e-15
1.00900471951e-15
1.00803211542e-15
1e-15
1e-15
1e-15
1e-15
1.00007114186e-15
1e-15
1e-15
1e-15
1e-15
1e-15
1e-15
1e-15
1e-15
1e-15
1e-15
1e-15
1.00004423807e-15
1.00012066095e-15
1.00020281206e-15
1.00026955303e-15
1.00030707041e-15
1.00031859566e-15
1.00031810958e-15
1.00029932701e-15
1.00027781098e-15
1.00024474926e-15
1.00021195197e-15
1.00017101337e-15
1.00012912285e-15
1.00008187781e-15
1.0000394773e-15
1e-15
1e-15
1e-15
1e-15
1e-15
1e-15
1.00004117357e-15
1.00020661412e-15
1.00020518525e-15
1.00011159499e-15
1e-15
1e-15
1e-15
1e-15
1e-15
1e-15
1e-15
1e-15
1e-15
1e-15
1e-15
1e-15
1e-15
1e-15
1e-15
1e-15
1e-15
1e-15
1e-15
1e-15
1e-15
1e-15
1e-15
1e-15
1e-15
1e-15
1e-15
1e-15
1e-15
1e-15
1e-15
1e-15
1e-15
1e-15
1e-15
1e-15
1e-15
1e-15
1e-15
1e-15
1e-15
1e-15
1e-15
1e-15
1e-15
1e-15
1e-15
1e-15
1e-15
1e-15
1e-15
1e-15
1.00043824565e-15
1.00214055001e-15
1.00364611536e-15
1.00509295791e-15
1.00675374704e-15
1.00790473937e-15
1.00790985354e-15
1.00791226121e-15
1.00790985354e-15
1.00791985087e-15
1.00790985354e-15
1.00792906563e-15
1.00790985354e-15
1.00793773532e-15
1.00790985354e-15
1.00794618009e-15
1.00790985354e-15
1.00795389675e-15
1.00790985365e-15
1.00796019473e-15
1.00790985365e-15
1.00796375641e-15
1.00790985365e-15
1.00797184621e-15
1.00790985365e-15
1.0079718056e-15
1.00790985365e-15
1.00796530201e-15
1.00790985365e-15
1.00795261267e-15
1.00790985365e-15
1.00792894316e-15
1.0046391205e-15
1.00276167856e-15
1.0020369644e-15
1.00158435722e-15
1.00123642309e-15
1.00086988967e-15
1.00024558126e-15
1e-15
1e-15
1e-15
1e-15
1e-15
1e-15
1.00803211542e-15
1.01014469336e-15
1e-15
1e-15
1e-15
1.0001793251e-15
1.00001234439e-15
1e-15
1e-15
1e-15
1e-15
1e-15
1e-15
1e-15
1e-15
1e-15
1e-15
1e-15
1.00007000701e-15
1.00016035216e-15
1.00024827341e-15
1.00031437154e-15
1.0003462948e-15
1.00035094609e-15
1.00034042276e-15
1.0003135425e-15
1.00027990113e-15
1.00023587217e-15
1.00018842942e-15
1.0001338519e-15
1.00008052534e-15
1.00002939212e-15
1e-15
1e-15
1e-15
1e-15
1e-15
1e-15
1e-15
1e-15
1e-15
1e-15
1e-15
1e-15
1e-15
1e-15
1e-15
1e-15
1e-15
1e-15
1e-15
1e-15
1e-15
1e-15
1e-15
1e-15
1e-15
1e-15
1e-15
1e-15
1e-15
1e-15
1e-15
1e-15
1e-15
1e-15
1e-15
1e-15
1e-15
1e-15
1e-15
1e-15
1e-15
1e-15
1e-15
1e-15
1e-15
1e-15
1e-15
1e-15
1e-15
1e-15
1e-15
1e-15
1e-15
1e-15
1e-15
1e-15
1e-15
1e-15
1e-15
1e-15
1e-15
1e-15
1e-15
1.00030467238e-15
1.00226428034e-15
1.00385449679e-15
1.0054375601e-15
1.00710508047e-15