/*--------------------------------*- C++ -*----------------------------------*\
| =========                 |                                                 |
| \\      /  F ield         | OpenFOAM: The Open Source CFD Toolbox           |
|  \\    /   O peration     | Version:  2206                                  |
|   \\  /    A nd           | Website:  www.openfoam.com                      |
|    \\/     M anipulation  |                                                 |
\*---------------------------------------------------------------------------*/
FoamFile
{
    version     2.0;
    format      ascii;
    arch        "LSB;label=64;scalar=64";
    class       volScalarField;
    location    "1.7/water";
    object      p_rgh;
}
// * * * * * * * * * * * * * * * * * * * * * * * * * * * * * * * * * * * * * //

dimensions      [1 -1 -2 0 0 0 0];

internalField   nonuniform List<scalar> 
23300
(
100718.507785
100718.508933
100718.513024
100718.51904
100718.527265
100718.538028
100718.551762
100718.568773
100718.589418
100718.613867
100718.6423
100718.674675
100718.710958
100718.750962
100718.794514
100718.841242
100718.890691
100718.941968
100718.993719
100719.044328
100719.093071
100719.141862
100719.194225
100719.251819
100719.312974
100719.375096
100719.437198
100719.499038
100719.560672
100719.622244
100719.683978
100719.746152
100719.809101
100719.873197
100719.938827
100720.006385
100720.076233
100720.148718
100720.224118
100720.302686
100720.384585
100720.469952
100720.558827
100720.651229
100720.747081
100720.846297
100720.948699
100721.054111
100721.162213
100721.27264
100721.385008
100721.499023
100721.614293
100721.730457
100721.847066
100721.963718
100722.079934
100722.195292
100722.309302
100722.421543
100722.531531
100722.638866
100722.743093
100722.843851
100722.940732
100723.033437
100723.121627
100723.205078
100723.28354
100723.356885
100723.424962
100723.487751
100723.545211
100723.59744
100723.644521
100723.686687
100723.724176
100723.757405
100723.786818
100723.81297
100723.835953
100723.855878
100723.873709
100723.890966
100723.908141
100723.924621
100723.939245
100723.951068
100723.959379
100723.963835
100723.964277
100723.960798
100723.953567
100723.942909
100723.929158
100723.91275
100723.894106
100723.87372
100723.852063
100723.829675
100723.807067
100723.78481
100723.763447
100723.743568
100723.725724
100723.710489
100723.698378
100723.689884
100723.685389
100723.685196
100723.689415
100723.697982
100723.710613
100723.726848
100723.746039
100723.767488
100723.790519
100723.814608
100723.839378
100723.864593
100723.890043
100723.91551
100723.940732
100723.965444
100723.98939
100724.012364
100724.034201
100724.054791
100724.074052
100724.091931
100724.108385
100724.123385
100724.136905
100724.148922
100724.159412
100724.168362
100724.175779
100724.181722
100724.186293
100724.189195
100718.494176
100718.495492
100718.499635
100718.505668
100718.513978
100718.52493
100718.538959
100718.55643
100718.577722
100718.603089
100718.632754
100718.666747
100718.705004
100718.747368
100718.793654
100718.843423
100718.89604
100718.95036
100719.004677
100719.058408
100719.111934
100719.167717
100719.228595
100719.293719
100719.360616
100719.427317
100719.49293
100719.557224
100719.620271
100719.68227
100719.743512
100719.804356
100719.865205
100719.9265
100719.988681
100720.052186
100720.117414
100720.184738
100720.254464
100720.32686
100720.402113
100720.480371
100720.561696
100720.646117
100720.733579
100720.824003
100720.917234
100721.013106
100721.11131
100721.211558
100721.313571
100721.417036
100721.521595
100721.626907
100721.732586
100721.838272
100721.943565
100722.048102
100722.151484
100722.253364
100722.353367
100722.451178
100722.546468
100722.638979
100722.728448
100722.814694
100722.897542
100722.976912
100723.052733
100723.125038
100723.193874
100723.259384
100723.321715
100723.381092
100723.4377
100723.491738
100723.54326
100723.592151
100723.637864
100723.679255
100723.714355
100723.741081
100723.759321
100723.770684
100723.776957
100723.7799
100723.780547
100723.779504
100723.777088
100723.773504
100723.768836
100723.76316
100723.756497
100723.748898
100723.740393
100723.731064
100723.720994
100723.710333
100723.699246
100723.68797
100723.676762
100723.665947
100723.655862
100723.646901
100723.639461
100723.633971
100723.630851
100723.630531
100723.633409
100723.639769
100723.649644
100723.662999
100723.679756
100723.699683
100723.722402
100723.747444
100723.774263
100723.80227
100723.830857
100723.8595
100723.887821
100723.915594
100723.942636
100723.968752
100723.993745
100724.017467
100724.039817
100724.060744
100724.080219
100724.098229
100724.114767
100724.129827
100724.143402
100724.155478
100724.166037
100724.175051
100724.182494
100724.188416
100724.192984
100724.195723
100718.471894
100718.473146
100718.477063
100718.482883
100718.490993
100718.501789
100718.515727
100718.533221
100718.55471
100718.58052
100718.610949
100718.645935
100718.685404
100718.729287
100718.777302
100718.828581
100718.882348
100718.938167
100718.994396
100719.05073
100719.108515
100719.168542
100719.232057
100719.298725
100719.36696
100719.435226
100719.502569
100719.568551
100719.633073
100719.696237
100719.758282
100719.819545
100719.880421
100719.941349
100720.00277
100720.065125
100720.128813
100720.194209
100720.261622
100720.331326
100720.403517
100720.478358
100720.555932
100720.63629
100720.719411
100720.805252
100720.893701
100720.984617
100721.077742
100721.172847
100721.26971
100721.36808
100721.467663
100721.56818
100721.669315
100721.770773
100721.872227
100721.973383
100722.073919
100722.173555
100722.271992
100722.368984
100722.46427
100722.557653
100722.648928
100722.73796
100722.824614
100722.908826
100722.990532
100723.069736
100723.146433
100723.220666
100723.292443
100723.361781
100723.428599
100723.49275
100723.553878
100723.611414
100723.664398
100723.71149
100723.750989
100723.781322
100723.802021
100723.814407
100723.819952
100723.819825
100723.815303
100723.807497
100723.797263
100723.785302
100723.772149
100723.758243
100723.743905
100723.729406
100723.714936
100723.700674
100723.686752
100723.673318
100723.660503
100723.648475
100723.6374
100723.627489
100723.618954
100723.612051
100723.607033
100723.604179
100723.603755
100723.606029
100723.611212
100723.61956
100723.631106
100723.645682
100723.663169
100723.683412
100723.706164
100723.731128
100723.757969
100723.786363
100723.815996
100723.846506
100723.877366
100723.907958
100723.937749
100723.966353
100723.993472
100724.018918
100724.042614
100724.064571
100724.084827
100724.103434
100724.120432
100724.135856
100724.149725
100724.162046
100724.172811
100724.181988
100724.189538
100724.19555
100724.200123
100724.202633
100718.440973
100718.442217
100718.445889
100718.451439
100718.459247
100718.469707
100718.483296
100718.500475
100718.521757
100718.547584
100718.578179
100718.613605
100718.653887
100718.698785
100718.748405
100718.801729
100718.857338
100718.915004
100718.974037
100719.03358
100719.094219
100719.156645
100719.221257
100719.287768
100719.35534
100719.423003
100719.49003
100719.555995
100719.620735
100719.684271
100719.746761
100719.808469
100719.869725
100719.930909
100719.992411
100720.05463
100720.117931
100720.182664
100720.249121
100720.317568
100720.388203
100720.461195
100720.536642
100720.614622
100720.69514
100720.778187
100720.863691
100720.951513
100721.041456
100721.133357
100721.227009
100721.322217
100721.418738
100721.516344
100721.614768
100721.713762
100721.813047
100721.912371
100722.011455
100722.110056
100722.20791
100722.304799
100722.400486
100722.494789
100722.587513
100722.678518
100722.767655
100722.854834
100722.939946
100723.022936
100723.103718
100723.182237
100723.25838
100723.332026
100723.402945
100723.470835
100723.535206
100723.595404
100723.650504
100723.69939
100723.740812
100723.773756
100723.797754
100723.813135
100723.821342
100723.823489
100723.820185
100723.812547
100723.801495
100723.787905
100723.772493
100723.7559
100723.738636
100723.721147
100723.703778
100723.686832
100723.670544
100723.655133
100723.640778
100723.627666
100723.615961
100723.60585
100723.597506
100723.591127
100723.586899
100723.585024
100723.585684
100723.58906
100723.595288
100723.604476
100723.616773
100723.632069
100723.650087
100723.670711
100723.693743
100723.718944
100723.746036
100723.774738
100723.804755
100723.835795
100723.867556
100723.899636
100723.931372
100723.962003
100723.990981
100724.018018
100724.043009
100724.065994
100724.087067
100724.106327
100724.123854
100724.139707
100724.153929
100724.166543
100724.177548
100724.186921
100724.194639
100724.200798
100724.205337
100724.207634
100718.402936
100718.404148
100718.407534
100718.412738
100718.420123
100718.430069
100718.443069
100718.459644
100718.480407
100718.505899
100718.536112
100718.571697
100718.613313
100718.659919
100718.710833
100718.765633
100718.822743
100718.881263
100718.940897
100719.00147
100719.063072
100719.125969
100719.190316
100719.255882
100719.32214
100719.388473
100719.454385
100719.519559
100719.583858
100719.647289
100719.709968
100719.772104
100719.833964
100719.895862
100719.958122
100720.021084
100720.085059
100720.150355
100720.217229
100720.28592
100720.356611
100720.429464
100720.504577
100720.582032
100720.661849
100720.744036
100720.82854
100720.915239
100721.003959
100721.094557
100721.18686
100721.280706
100721.375887
100721.472208
100721.569433
100721.667348
100721.7657
100721.864264
100721.962783
100722.061036
100722.158772
100722.255783
100722.35184
100722.446756
100722.540329
100722.632404
100722.722807
100722.811413
100722.898072
100722.982675
100723.065074
100723.145147
100723.222708
100723.297565
100723.369422
100723.437935
100723.502603
100723.562827
100723.617825
100723.666737
100723.708663
100723.74291
100723.76911
100723.787429
100723.798344
100723.803136
100723.802657
100723.797432
100723.7884
100723.776292
100723.761863
100723.745814
100723.728721
100723.711113
100723.693416
100723.676017
100723.659222
100723.643317
100723.62853
100723.615087
100723.603173
100723.592986
100723.584693
100723.578476
100723.574496
100723.57292
100723.573889
100723.577542
100723.583974
100723.593248
100723.60556
100723.620847
100723.638798
100723.659317
100723.682249
100723.707409
100723.734573
100723.7635
100723.793916
100723.825526
100723.857985
100723.890888
100723.923745
100723.955881
100723.986475
100724.01494
100724.041086
100724.064986
100724.086796
100724.106665
100724.124705
100724.140995
100724.155587
100724.168512
100724.179779
100724.189367
100724.197281
100724.203584
100724.20806
100724.210182
100718.35941
100718.360589
100718.363643
100718.368419
100718.375256
100718.384521
100718.396697
100718.412403
100718.432554
100718.457744
100718.488409
100718.525084
100718.567869
100718.615659
100718.66705
100718.721273
100718.777621
100718.835477
100718.894459
100718.9544
100719.015346
100719.077386
100719.140535
100719.204597
100719.269221
100719.334005
100719.398618
100719.462848
100719.526603
100719.589899
100719.652834
100719.71558
100719.77835
100719.8414
100719.904989
100719.969394
100720.034869
100720.101668
100720.170003
100720.240077
100720.312042
100720.386039
100720.462153
100720.540458
100720.620971
100720.703705
100720.78861
100720.875582
100720.96445
100721.05508
100721.14732
100721.24103
100721.336023
100721.432126
100721.529125
100721.626825
100721.724991
100721.823414
100721.921852
100722.020093
100722.117894
100722.215052
100722.311334
100722.406551
100722.500489
100722.592979
100722.683824
100722.772875
100722.85995
100722.944903
100723.02755
100723.107728
100723.185214
100723.259786
100723.331132
100723.39891
100723.462661
100723.521868
100723.575897
100723.6241
100723.665819
100723.700573
100723.7281
100723.748477
100723.76205
100723.769529
100723.771543
100723.769141
100723.762923
100723.753334
100723.741232
100723.727191
100723.711806
100723.695627
100723.679106
100723.662665
100723.646653
100723.631391
100723.617144
100723.604167
100723.592669
100723.582861
100723.57492
100723.569027
100723.565334
100723.563996
100723.565139
100723.568882
100723.575304
100723.58447
100723.596457
100723.611368
100723.629007
100723.649148
100723.671674
100723.696444
100723.723281
100723.751988
100723.782337
100723.81407
100723.846876
100723.880378
100723.914078
100723.94734
100723.979371
100724.009371
100724.036845
100724.061758
100724.084333
100724.104814
100724.123367
100724.140098
100724.15507
100724.168319
100724.179857
100724.189668
100724.197778
100724.204205
100724.208619
100724.210612
100718.311512
100718.312678
100718.315378
100718.319671
100718.325878
100718.334412
100718.345913
100718.361271
100718.381308
100718.406849
100718.438519
100718.476017
100718.518693
100718.565587
100718.615737
100718.66833
100718.722798
100718.778707
100718.835812
100718.893979
100718.953207
100719.013508
100719.074848
100719.137068
100719.19993
100719.263169
100719.326568
100719.389988
100719.453373
100719.516746
100719.580188
100719.643839
100719.707861
100719.772457
100719.837824
100719.904181
100719.97172
100720.040643
100720.111111
100720.183286
100720.257286
100720.333221
100720.411156
100720.491149
100720.573207
100720.657336
100720.743487
100720.831568
100720.92141
100721.012875
100721.105823
100721.200127
100721.295616
100721.392131
100721.489472
100721.587458
100721.685866
100721.784499
100721.883124
100721.981535
100722.079496
100722.176803
100722.273226
100722.368569
100722.462611
100722.555172
100722.646043
100722.735055
100722.822007
100722.906733
100722.989027
100723.068706
100723.145531
100723.219271
100723.289621
100723.356263
100723.418786
100723.47676
100723.529671
100723.577032
100723.618356
100723.653309
100723.681701
100723.7036
100723.719265
100723.729153
100723.733869
100723.734087
100723.73045
100723.723715
100723.714273
100723.702687
100723.689627
100723.675538
100723.660887
100723.646115
100723.631579
100723.617622
100723.604526
100723.592565
100723.581964
100723.572947
100723.565697
100723.560399
100723.557204
100723.556263
100723.557693
100723.561605
100723.56807
100723.577147
100723.588847
100723.603391
100723.620681
100723.640392
100723.662434
100723.686692
100723.713015
100723.741236
100723.771161
100723.802568
100723.835191
100723.868708
100723.902703
100723.936632
100723.969761
100724.001217
100724.030235
100724.056474
100724.08004
100724.10125
100724.120377
100724.137584
100724.15296
100724.166551
100724.178373
100724.188415
100724.196719
100724.203258
100724.207626
100724.209526
100718.259901
100718.261106
100718.263524
100718.267446
100718.273188
100718.281214
100718.292425
100718.307715
100718.327995
100718.353854
100718.385743
100718.422928
100718.464477
100718.509465
100718.557177
100718.607049
100718.658682
100718.711779
100718.766182
100718.821807
100718.878646
100718.936687
100718.995885
100719.056123
100719.117239
100719.179059
100719.241438
100719.304282
100719.367555
100719.431277
100719.495505
100719.560342
100719.625906
100719.692344
100719.759798
100719.828427
100719.89837
100719.969774
100720.042752
100720.117427
100720.193875
100720.272181
100720.352381
100720.434517
100720.518581
100720.60457
100720.692431
100720.782089
100720.873371
100720.966127
100721.060223
100721.155544
100721.251926
100721.349222
100721.447243
100721.545817
100721.644733
100721.743801
100721.842795
100721.941517
100722.039735
100722.137248
100722.233824
100722.329268
100722.423353
100722.515894
100722.606673
100722.695511
100722.782196
100722.866549
100722.948355
100723.02742
100723.103502
100723.176374
100723.245744
100723.311321
100723.372744
100723.429655
100723.48164
100723.528326
100723.56935
100723.604477
100723.633578
100723.65672
100723.674106
100723.68612
100723.693217
100723.695952
100723.694981
100723.690829
100723.68398
100723.675114
100723.664502
100723.652639
100723.640156
100723.62736
100723.614622
100723.602305
100723.590695
100723.580076
100723.570682
100723.562744
100723.55645
100723.551987
100723.549506
100723.549155
100723.551046
100723.555284
100723.561936
100723.571055
100723.582641
100723.596941
100723.61393
100723.633275
100723.654881
100723.678641
100723.704421
100723.732076
100723.76143
100723.792289
100723.824415
100723.857533
100723.891293
100723.925261
100723.958857
100723.991317
100724.021756
100724.049498
100724.074338
100724.096492
100724.116312
100724.13406
100724.149878
100724.163836
100724.175958
100724.186243
100724.194743
100724.201395
100724.205739
100724.20757
100718.204746
100718.206052
100718.208304
100718.211975
100718.217347
100718.224988
100718.235874
100718.251109
100718.271496
100718.297672
100718.329059
100718.36476
100718.403993
100718.446089
100718.490552
100718.536996
100718.585174
100718.634907
100718.68612
100718.738771
100718.792871
100718.848409
100718.905355
100718.963626
100719.023117
100719.083706
100719.145295
100719.207813
100719.271226
100719.335541
100719.400788
100719.467031
100719.534341
100719.602813
100719.672536
100719.743617
100719.816139
100719.890202
100719.965876
100720.043241
100720.122339
100720.203225
100720.285911
100720.370418
100720.456723
100720.544814
100720.634629
100720.726121
100720.819109
100720.913419
100721.008925
100721.105515
100721.203036
100721.301349
100721.400272
100721.499644
100721.59926
100721.69894
100721.798464
100721.897642
100721.996243
100722.094073
100722.190901
100722.286531
100722.380737
100722.473329
100722.564084
100722.65282
100722.739316
100722.82339
100722.904819
100722.983408
100723.058916
100723.131123
100723.199753
100723.264544
100723.325177
100723.381354
100723.432735
100723.479037
100723.519982
100723.555411
100723.585235
100723.609529
100723.628468
100723.642373
100723.651631
100723.656734
100723.658166
100723.656462
100723.652218
100723.645906
100723.637767
100723.628474
100723.618292
100723.607482
100723.596709
100723.58622
100723.576279
100723.567197
100723.559211
100723.552551
100723.547408
100723.54397
100723.542387
100723.542805
100723.545332
100723.55007
100723.557083
100723.566425
100723.578113
100723.592214
100723.608913
100723.62805
100723.649333
100723.672677
100723.697965
100723.725066
100723.75382
100723.78405
100723.815541
100723.84805
100723.881276
100723.914859
100723.948346
100723.981156
100724.012521
100724.041602
100724.067833
100724.091137
100724.111796
100724.130162
100724.146463
100724.160811
100724.173248
100724.183786
100724.192486
100724.199252
100724.203595
100724.205374
100718.145395
100718.146832
100718.148989
100718.152433
100718.157355
100718.16444
100718.175032
100718.190201
100718.210752
100718.23623
100718.265925
100718.29911
100718.335227
100718.373801
100718.41452
100718.457144
100718.501552
100718.547662
100718.59547
100718.644985
100718.696241
100718.749246
100718.803992
100718.860425
100718.918475
100718.978057
100719.039092
100719.101519
100719.165296
100719.230411
100719.296859
100719.364666
100719.433856
100719.504479
100719.576571
100719.650189
100719.725371
100719.802171
100719.880616
100719.96075
100720.042583
100720.12614
100720.211409
100720.298394
100720.387056
100720.477371
100720.569271
100720.662745
100720.757597
100720.853624
100720.950706
100721.048736
100721.147565
100721.247064
100721.347058
100721.447393
100721.547873
100721.648326
100721.748539
100721.848327
100721.947467
100722.045766
100722.142998
100722.238969
100722.333451
100722.426256
100722.517158
100722.605972
100722.692474
100722.776479
100722.857761
100722.936127
100723.011339
100723.083185
100723.151406
100723.215766
100723.275981
100723.331803
100723.38295
100723.429202
100723.470349
100723.506282
100723.536948
100723.56243
100723.582883
100723.598592
100723.609892
100723.617209
100723.62098
100723.621697
100723.619818
100723.615816
100723.610181
100723.603416
100723.595568
100723.587212
100723.578708
100723.570085
100723.561882
100723.554502
100723.548079
100723.542847
100723.539012
100723.536757
100723.53623
100723.537573
100723.54089
100723.546281
100723.553806
100723.563516
100723.575425
100723.589525
100723.606106
100723.625124
100723.646176
100723.669191
100723.694059
100723.720656
100723.748832
100723.778424
100723.809234
100723.841043
100723.873584
100723.906552
100723.939578
100723.972216
100724.003889
100724.033847
100724.061314
100724.085852
100724.107489
100724.126553
100724.143368
100724.158117
100724.170873
100724.181667
100724.190565
100724.197449
100724.201806
100724.203543
100718.080579
100718.082166
100718.084251
100718.08729
100718.091403
100718.097783
100718.108046
100718.12301
100718.142629
100718.166295
100718.193412
100718.223431
100718.255964
100718.290696
100718.327454
100718.366119
100718.406674
100718.449121
100718.493523
100718.539932
100718.588416
100718.639006
100718.691715
100718.746515
100718.803357
100718.862174
100718.922896
100718.985459
100719.049807
100719.115899
100719.183701
100719.253197
100719.324369
100719.39722
100719.47174
100719.547942
100719.625818
100719.705383
100719.786625
100719.869555
100719.95415
100720.040412
100720.128306
100720.217816
100720.308889
100720.40149
100720.495543
100720.591083
100720.687896
100720.785751
100720.884526
100720.984119
100721.084387
100721.185206
100721.286409
100721.387852
100721.489344
100721.590723
100721.691782
100721.792343
100721.892189
100721.991132
100722.088949
100722.185449
100722.280407
100722.373633
100722.464902
100722.554026
100722.640782
100722.724983
100722.806402
100722.884848
100722.960088
100723.031918
100723.100095
100723.164405
100723.224595
100723.280455
100723.331749
100723.378308
100723.419968
100723.456662
100723.488361
100723.515156
100723.537192
100723.554727
100723.568057
100723.577566
100723.583644
100723.586736
100723.587263
100723.585681
100723.582401
100723.577827
100723.572341
100723.566449
100723.560268
100723.553954
100723.547995
100723.542554
100723.537747
100723.534062
100723.531697
100723.530773
100723.531444
100723.533858
100723.538112
100723.544302
100723.552484
100723.562707
100723.574982
100723.589299
100723.605887
100723.624814
100723.645745
100723.668533
100723.693064
100723.719226
100723.746875
100723.775858
100723.805993
100723.837075
100723.868868
100723.901106
100723.933476
100723.965622
100723.997108
100724.027373
100724.055681
100724.081339
100724.104032
100724.123883
100724.141244
100724.156392
100724.169457
100724.180495
100724.189581
100724.19658
100724.200961
100724.20266
100718.00849
100718.010218
100718.012068
100718.014169
100718.017102
100718.022789
100718.032228
100718.045977
100718.063701
100718.084808
100718.108824
100718.135332
100718.164075
100718.194863
100718.227635
100718.262374
100718.299151
100718.338044
100718.379174
100718.422638
100718.468537
100718.516926
100718.567838
100718.621263
100718.677163
100718.735481
100718.796142
100718.859074
100718.924198
100718.991448
100719.060753
100719.132061
100719.20531
100719.280462
100719.357463
100719.436285
100719.51688
100719.599226
100719.683275
100719.769007
100719.856373
100719.945349
100720.03588
100720.127934
100720.221444
100720.316365
100720.41261
100720.510234
100720.609048
100720.708818
100720.809378
100720.91063
100721.012439
100721.114688
100721.217218
100721.319892
100721.42253
100721.524976
100721.627032
100721.728527
100721.829249
100721.929017
100722.027611
100722.124845
100722.220495
100722.314372
100722.406252
100722.495947
100722.583232
100722.667921
100722.749787
100722.828642
100722.904256
100722.976437
100723.044952
100723.109607
100723.170176
100723.226479
100723.278316
100723.325556
100723.368072
100723.405826
100723.438809
100723.467121
100723.490897
100723.510377
100723.525828
100723.5376
100723.546047
100723.551577
100723.554581
100723.555479
100723.554655
100723.552512
100723.549409
100723.545701
100723.541689
100723.537736
100723.534136
100723.530889
100723.528267
100723.526597
100723.525893
100723.526368
100723.528381
100723.532027
100723.537363
100723.544493
100723.553482
100723.564368
100723.577169
100723.591895
100723.608521
100723.627361
100723.648327
100723.670996
100723.695289
100723.721098
100723.748289
100723.776717
100723.80621
100723.836581
100723.867616
100723.899076
100723.930692
100723.962166
100723.993153
100724.02324
100724.051873
100724.078334
100724.102021
100724.122741
100724.1407
100724.156247
100724.169599
100724.180858
100724.190114
100724.197217
100724.201624
100724.203285
100717.926758
100717.928471
100717.929597
100717.930279
100717.932003
100717.936126
100717.944026
100717.955818
100717.971046
100717.989176
100718.009828
100718.032687
100718.057599
100718.084472
100718.113346
100718.144289
100718.177453
100718.212983
100718.251055
100718.29181
100718.33538
100718.381843
100718.431249
100718.483597
100718.538856
100718.596964
100718.65784
100718.721394
100718.787522
100718.856128
100718.927107
100719.000367
100719.075809
100719.153352
100719.232903
100719.314395
100719.397743
100719.48289
100719.569758
100719.658297
100719.748434
100719.840123
100719.93329
100720.027891
100720.123846
100720.221106
100720.319587
100720.419241
100720.520025
100720.62179
100720.724202
100720.827183
100720.930607
100721.034367
100721.138315
100721.242322
100721.346218
100721.449857
100721.553047
100721.655626
100721.75739
100721.858162
100721.957728
100722.055904
100722.152471
100722.247241
100722.33999
100722.430532
100722.51864
100722.604129
100722.686773
100722.766386
100722.842744
100722.91566
100722.984916
100723.050332
100723.111702
100723.168872
100723.22167
100723.269994
100723.313745
100723.352906
100723.387486
100723.417586
100723.44334
100723.46497
100723.482723
100723.49692
100723.507886
100723.515998
100723.521618
100723.52514
100723.526926
100723.527357
100723.526771
100723.525514
100723.523888
100723.522197
100723.520686
100723.519613
100723.519277
100723.519804
100723.521146
100723.523613
100723.52739
100723.532432
100723.538916
100723.547129
100723.557068
100723.568743
100723.582181
100723.597389
100723.61431
100723.633278
100723.65428
100723.676897
100723.70103
100723.726563
100723.753366
100723.7813
100723.810204
100723.839904
100723.870199
100723.900878
100723.931702
100723.962413
100723.992726
100724.022321
100724.0508
100724.077609
100724.102056
100724.123642
100724.14228
100724.158248
100724.171866
100724.183315
100724.192713
100724.199903
100724.204331
100724.20595
100717.832565
100717.834287
100717.834296
100717.83318
100717.832632
100717.834671
100717.840511
100717.849878
100717.862281
100717.877232
100717.894421
100717.91361
100717.934733
100717.957785
100717.982892
100718.010207
100718.039955
100718.072346
100718.107611
100718.14593
100718.187465
100718.232315
100718.28054
100718.332144
100718.387093
100718.445317
100718.506718
100718.571181
100718.638577
100718.708775
100718.781634
100718.857025
100718.934807
100719.014863
100719.097061
100719.181297
100719.267452
100719.355436
100719.445143
100719.536497
100719.629402
100719.723793
100719.819579
100719.916704
100720.015078
100720.114646
100720.215318
100720.317036
100720.419841
100720.523579
100720.627849
100720.732579
100720.83765
100720.942968
100721.048392
100721.153806
100721.259048
100721.363981
100721.468425
100721.572225
100721.675184
100721.777133
100721.877861
100721.977192
100722.074906
100722.170819
100722.264709
100722.356388
100722.445633
100722.532256
100722.616033
100722.69678
100722.774277
100722.848344
100722.91877
100722.985391
100723.048015
100723.106508
100723.160721
100723.210572
100723.255983
100723.296954
100723.333503
100723.365736
100723.39378
100723.417848
100723.438166
100723.455034
100723.46875
100723.479666
100723.488118
100723.494476
100723.49908
100723.502292
100723.504434
100723.505837
100723.50679
100723.507584
100723.508469
100723.509696
100723.511471
100723.513985
100723.517412
100723.52201
100723.527762
100723.534622
100723.542838
100723.552521
100723.563565
100723.576101
100723.590323
100723.606184
100723.623634
100723.642703
100723.663671
100723.686404
100723.710486
100723.735836
100723.762334
100723.78985
100723.818229
100723.84731
100723.876909
100723.906832
100723.936863
100723.966778
100723.996329
100724.025254
100724.053254
100724.079948
100724.104773
100724.127071
100724.146442
100724.162902
100724.176783
100724.188388
100724.197893
100724.205146
100724.209582
100724.211154
100717.724778
100717.725897
100717.723742
100717.719572
100717.71609
100717.715771
100717.719246
100717.72596
100717.735403
100717.747113
100717.760832
100717.776385
100717.793786
100717.813114
100717.834582
100717.858425
100717.884946
100717.914421
100717.947131
100717.983299
100718.023112
100718.066685
100718.114086
100718.165314
100718.220324
100718.27903
100718.341309
100718.407018
100718.475992
100718.548066
100718.623059
100718.700804
100718.78112
100718.86385
100718.948826
100719.035909
100719.124947
100719.215822
100719.308399
100719.40258
100719.498247
100719.595321
100719.693695
100719.793303
100719.894047
100719.995867
100720.098668
100720.202392
100720.307195
100720.412865
100720.518966
100720.62543
100720.732146
100720.839031
100720.945956
100721.052816
100721.159462
100721.265768
100721.371563
100721.476702
100721.580996
100721.684285
100721.786364
100721.88706
100721.986158
100722.083476
100722.178793
100722.271922
100722.36264
100722.450759
100722.536056
100722.618347
100722.697414
100722.773085
100722.845153
100722.913464
100722.977839
100723.038158
100723.094286
100723.146159
100723.193711
100723.236954
100723.275913
100723.310695
100723.341421
100723.368293
100723.391522
100723.411386
100723.428162
100723.44218
100723.45375
100723.463222
100723.470916
100723.477173
100723.4823
100723.486614
100723.490391
100723.493914
100723.497422
100723.501157
100723.505318
100723.510102
100723.515676
100723.522193
100723.529756
100723.538499
100723.548595
100723.55996
100723.572515
100723.586451
100723.601799
100723.618433
100723.636402
100723.655817
100723.676972
100723.699812
100723.723895
100723.749137
100723.775404
100723.802571
100723.830494
100723.859019
100723.887975
100723.917184
100723.946449
100723.975568
100724.004324
100724.032494
100724.059834
100724.086074
100724.110837
100724.133547
100724.153587
100724.170637