/*--------------------------------*- C++ -*----------------------------------*\
| =========                 |                                                 |
| \\      /  F ield         | OpenFOAM: The Open Source CFD Toolbox           |
|  \\    /   O peration     | Version:  2206                                  |
|   \\  /    A nd           | Website:  www.openfoam.com                      |
|    \\/     M anipulation  |                                                 |
\*---------------------------------------------------------------------------*/
FoamFile
{
    version     2.0;
    format      ascii;
    arch        "LSB;label=64;scalar=64";
    class       surfaceScalarField;
    location    "1.7/water";
    object      phi.gas;
}
// * * * * * * * * * * * * * * * * * * * * * * * * * * * * * * * * * * * * * //

dimensions      [0 3 -1 0 0 0 0];

oriented        oriented;

internalField   nonuniform List<scalar> 
46280
(
1.29676677653e-09
2.71825884983e-07
2.35135393237e-09
2.71833456849e-07
3.47800066475e-09
2.71888040163e-07
4.45856717982e-09
2.71996989572e-07
5.2548671375e-09
2.72132960445e-07
5.84194899947e-09
2.72282118003e-07
6.22604155974e-09
2.7243471734e-07
6.40420890273e-09
2.72585964214e-07
6.39917422322e-09
2.72729742123e-07
6.2200283311e-09
2.72863992354e-07
5.8973428708e-09
2.72985498515e-07
5.43658576214e-09
2.7309864383e-07
4.844729652e-09
2.73212521919e-07
4.10774822347e-09
2.73337161754e-07
3.22426294186e-09
2.73476101015e-07
2.17680091189e-09
2.73641451312e-07
9.8202617895e-10
2.7383794302e-07
-3.19954139674e-10
2.74064151281e-07
-1.68221224202e-09
2.74284429135e-07
-3.14450944678e-09
2.74426614023e-07
-4.99811621528e-09
2.74486111993e-07
-7.47930132014e-09
2.74531773722e-07
-1.04354588558e-08
2.74619150479e-07
-1.3489984069e-08
2.74781979859e-07
-1.65139694689e-08
2.74969893401e-07
-1.96454588021e-08
2.75120352883e-07
-2.29037813534e-08
2.75211715354e-07
-2.62500869772e-08
2.75252707009e-07
-2.96362516392e-08
2.75249049608e-07
-3.30184222137e-08
2.75214761649e-07
-3.63645084206e-08
2.75153302562e-07
-3.96454992797e-08
2.75075797271e-07
-4.28419944242e-08
2.74982589389e-07
-4.59318840258e-08
2.7488280682e-07
-4.89017340326e-08
2.74774843868e-07
-5.17321361213e-08
2.74666763096e-07
-5.44132299767e-08
2.7455578837e-07
-5.69273561676e-08
2.74449404126e-07
-5.92678606051e-08
2.74344062143e-07
-6.14189965017e-08
2.74246852843e-07
-6.33774446591e-08
2.74153649393e-07
-6.51296499754e-08
2.74071206477e-07
-6.66756568379e-08
2.73994940711e-07
-6.80041865295e-08
2.73931292172e-07
-6.91184799948e-08
2.73875327507e-07
-7.00094403499e-08
2.73833207058e-07
-7.06829117535e-08
2.73799768444e-07
-7.11236301358e-08
2.7378082842e-07
-7.13320575321e-08
2.7377149083e-07
-7.13100948554e-08
2.73776033042e-07
-7.10751389826e-08
2.73787357274e-07
-7.06198754598e-08
2.73811463767e-07
-6.99541432374e-08
2.73843197518e-07
-6.90729390866e-08
2.73887820862e-07
-6.79886306069e-08
2.73939648501e-07
-6.66980674398e-08
2.74003374304e-07
-6.52157267529e-08
2.74073022626e-07
-6.35401430135e-08
2.7415286931e-07
-6.16878305917e-08
2.74236732132e-07
-5.96590583107e-08
2.7432851972e-07
-5.74724587809e-08
2.7442185313e-07
-5.51301744209e-08
2.7452028008e-07
-5.26530826907e-08
2.74617195212e-07
-5.00453466604e-08
2.74715756806e-07
-4.73301888045e-08
2.74809073576e-07
-4.45138723724e-08
2.74899859879e-07
-4.1621944014e-08
2.74980854859e-07
-3.86626902566e-08
2.75054243657e-07
-3.56637588457e-08
2.75112297046e-07
-3.26351558064e-08
2.75156584246e-07
-2.96061634309e-08
2.75178852325e-07
-2.65880267856e-08
2.75180071035e-07
-2.36111540938e-08
2.75151651778e-07
-2.06877175242e-08
2.75094444598e-07
-1.784910069e-08
2.75000538423e-07
-1.5108505613e-08
2.7487254084e-07
-1.24982009684e-08
2.74706558633e-07
-1.00299791171e-08
2.74512671069e-07
-7.71914568422e-09
2.7430030709e-07
-5.501854213e-09
2.74099348246e-07
-3.36352198886e-09
2.73937421246e-07
-1.38579680833e-09
2.73852862616e-07
3.95337104076e-10
2.738561545e-07
2.13914633313e-09
2.73954176006e-07
4.00609758817e-09
2.74126040461e-07
6.07570589617e-09
2.74332682332e-07
8.32604839232e-09
2.74532998774e-07
1.07276297852e-08
2.74705309255e-07
1.32314992398e-08
2.74831293509e-07
1.58078208944e-08
2.74908566021e-07
1.84162126163e-08
2.74933691512e-07
2.10350289828e-08
2.74914299196e-07
2.36313078629e-08
2.74853677657e-07
2.61876683814e-08
2.74762967028e-07
2.86746181478e-08
2.7464737493e-07
3.10759888557e-08
2.74518111708e-07
3.3363709378e-08
2.74379975002e-07
3.55216904374e-08
2.74242781574e-07
3.75227932065e-08
2.74110118226e-07
3.93510126783e-08
2.73990120661e-07
4.09803403489e-08
2.738852311e-07
4.23951536655e-08
2.73802222369e-07
4.35707916087e-08
2.73742822618e-07
4.44922581562e-08
2.73712912463e-07
4.51365988759e-08
2.73713874792e-07
4.54903396698e-08
2.7375085532e-07
4.55339053377e-08
2.73824580171e-07
4.52580507611e-08
2.73938495105e-07
4.46497316147e-08
2.74089750678e-07
4.3712863571e-08
2.74277582272e-07
4.24525433467e-08
2.74499098507e-07
4.08844717175e-08
2.74748953704e-07
3.90305763284e-08
2.7501094776e-07
3.69302910032e-08
2.75265055107e-07
3.46281142313e-08
2.75483240541e-07
3.21821925063e-08
2.7563920359e-07
2.96529141059e-08
2.75711661945e-07
2.7108719446e-08
2.75696228445e-07
2.46140567535e-08
2.75602907129e-07
2.22323964591e-08
2.75454466121e-07
2.0010425253e-08
2.75274116717e-07
1.79774286495e-08
2.7508299171e-07
1.61384279013e-08
2.74896067494e-07
1.44840964403e-08
2.74725515969e-07
1.29915089591e-08
2.74576991588e-07
1.16362301979e-08
2.74452447393e-07
1.03929676612e-08
2.74349478174e-07
9.24225377504e-09
2.74265107154e-07
8.16722644499e-09
2.74195121508e-07
7.15640050905e-09
2.74136481663e-07
6.20001024784e-09
2.74086081844e-07
5.29163628924e-09
2.74042178088e-07
4.42524713659e-09
2.74003381409e-07
3.59553223843e-09
2.73969806639e-07
2.79488357576e-09
2.73942380144e-07
2.01275365807e-09
2.73922296008e-07
1.24097490287e-09
2.73904516564e-07
5.07543819092e-10
2.73853995965e-07
-8.90381647865e-12
2.73675546434e-07
2.7331212942e-07
1.63056573715e-09
2.18662738784e-07
3.15007999386e-09
2.18679753053e-07
4.64015915839e-09
2.18836397534e-07
5.97344771207e-09
2.19079888558e-07
7.12253258793e-09
2.19380194541e-07
8.06136445391e-09
2.1971708041e-07
8.77708547347e-09
2.20075801058e-07
9.25635712649e-09
2.20447737059e-07
9.49707360635e-09
2.20823588997e-07
9.49402102891e-09
2.21199524282e-07
9.25198402259e-09
2.21571971295e-07
8.76285481311e-09
2.21956186288e-07
8.0202590768e-09
2.22357700612e-07
7.02357239641e-09
2.22775448962e-07
5.7867555582e-09
2.23217894161e-07
4.31764688625e-09
2.23707096399e-07
2.6526344195e-09
2.24237479672e-07
8.54554078719e-10
2.24763051473e-07
-1.16984943944e-09
2.25276654947e-07
-3.5159867206e-09
2.25735481872e-07
-6.33122217151e-09
2.26109513775e-07
-9.60491299622e-09
2.26487251986e-07
-1.30300200205e-08
2.26935680568e-07
-1.64326529841e-08
2.27401057902e-07
-1.97910382507e-08
2.27791674196e-07
-2.31373990408e-08
2.28065009825e-07
-2.64807193991e-08
2.28211967748e-07
-2.9806002914e-08
2.28248371946e-07
-3.30898194535e-08
2.28188864398e-07
-3.63085355284e-08
2.28052936037e-07
-3.94414685995e-08
2.27851859951e-07
-4.24693322264e-08
2.27601031779e-07
-4.53761202331e-08
2.27307758535e-07
-4.81461168508e-08
2.26984299161e-07
-5.0767170302e-08
2.26635079306e-07
-5.32267009178e-08
2.26270120549e-07
-5.55160870849e-08
2.25891756108e-07
-5.76256354481e-08
2.25508357345e-07
-5.95499292408e-08
2.25120652961e-07
-6.12818674995e-08
2.24735676525e-07
-6.28188718372e-08
2.24352831612e-07
-6.41561075616e-08
2.23977994039e-07
-6.52934369532e-08
2.23609454165e-07
-6.62279360236e-08
2.23252084129e-07
-6.69614862082e-08
2.22903266766e-07
-6.74927023387e-08
2.22567026975e-07
-6.7825420334e-08
2.22240047615e-07
-6.79542296976e-08
2.21925950035e-07
-6.78855952339e-08
2.21620849566e-07
-6.7625214284e-08
2.21327881773e-07
-6.71762955547e-08
2.21043324756e-07
-6.654100386e-08
2.20769842001e-07
-6.57265095656e-08
2.20503494411e-07
-6.47354412565e-08
2.20246984093e-07
-6.35756876644e-08
2.1999652174e-07
-6.22506766047e-08
2.19754751612e-07
-6.07693463083e-08
2.19517985589e-07
-5.91361603273e-08
2.1928883677e-07
-5.73612869969e-08
2.19063771584e-07
-5.54503959712e-08
2.18845441045e-07
-5.34150437111e-08
2.18630532748e-07
-5.12622627354e-08
2.18421817073e-07
-4.90051375283e-08
2.18216278753e-07
-4.66521887713e-08
2.18016900302e-07
-4.42181196373e-08
2.17821054363e-07
-4.17129864041e-08
2.17632051185e-07
-3.91530743781e-08
2.17447773092e-07
-3.65498356999e-08
2.17272005982e-07
-3.39208275377e-08
2.17103303039e-07
-3.12783696517e-08
2.16946113192e-07
-2.86404223004e-08
2.16799860119e-07
-2.60188680936e-08
2.16669855745e-07
-2.34301239391e-08
2.1655656351e-07
-2.0882815948e-08
2.16466240507e-07
-1.83876053925e-08
2.16400271092e-07
-1.59433914367e-08
2.16365317301e-07
-1.35447786515e-08
2.16362250028e-07
-1.11650261883e-08
2.16394898526e-07
-8.76160469506e-09
2.16456999756e-07
-6.27115903835e-09
2.16537667093e-07
-3.67716100685e-09
2.16608270668e-07
-1.10923951535e-09
2.16641001103e-07
1.32174244457e-09
2.16630223239e-07
3.61698666937e-09
2.16583158256e-07
5.79444206168e-09
2.16517246958e-07
7.917463339e-09
2.16465832972e-07
1.0023970056e-08
2.16436724163e-07
1.21377273898e-08
2.16436515241e-07
1.42661566606e-08
2.1646366304e-07
1.64135487526e-08
2.16519484438e-07
1.85740954632e-08
2.16600315817e-07
2.07424917786e-08
2.1670620953e-07
2.2906120796e-08
2.16833403913e-07
2.5054320091e-08
2.16982001685e-07
2.71707538965e-08
2.1714870769e-07
2.92418199787e-08
2.17333961496e-07
3.12494377977e-08
2.17535091858e-07
3.31787838768e-08
2.17752996976e-07
3.50115790139e-08
2.17985774549e-07
3.67331766635e-08
2.18234952123e-07
3.8326304293e-08
2.18499572253e-07
3.9777484071e-08
2.1878195829e-07
4.1071196057e-08
2.19082228772e-07
4.219566765e-08
2.19403596022e-07
4.3137465605e-08
2.19747287094e-07
4.38866845658e-08
2.20117377895e-07
4.44321975988e-08
2.20516102262e-07
4.47663305609e-08
2.20948104724e-07
4.4887054701e-08
2.21416163155e-07
4.48016312681e-08
2.21918757007e-07
4.45067011436e-08
2.2244981485e-07
4.39968940515e-08
2.23008289217e-07
4.32718904893e-08
2.23585583596e-07
4.23273996178e-08
2.24168955401e-07
4.11505879089e-08
2.24738118279e-07
3.97276836539e-08
2.25267955825e-07
3.80531207393e-08
2.25725011604e-07
3.614610479e-08
2.26070578994e-07
3.40551816064e-08
2.26265688241e-07
3.18550094296e-08
2.26291856309e-07
2.96277966637e-08
2.26165360044e-07
2.74467399976e-08
2.25933778921e-07
2.53593338464e-08
2.2565146621e-07
2.33842102365e-08
2.25363131352e-07
2.15179556242e-08
2.25096305302e-07
1.97479954853e-08
2.24864048408e-07
1.80589429213e-08
2.24667837635e-07
1.64373880371e-08
2.24504284805e-07
1.48716572897e-08
2.24367882672e-07
1.3352318215e-08
2.24253955338e-07
1.18707043257e-08
2.24158452151e-07
1.04189488865e-08
2.24079000402e-07
8.9887976752e-09
2.2401446412e-07
7.57127841887e-09
2.23965795011e-07
6.15580375901e-09
2.23935306099e-07
4.73163048179e-09
2.23923736873e-07
3.29316426994e-09
2.23915245751e-07
1.87176322801e-09
2.23833178575e-07
6.44268686516e-10
2.23494367989e-07
2.22613363563e-07
1.50150565896e-09
2.25877936027e-07
2.84589244422e-09
2.25940103888e-07
4.16291813686e-09
2.2618242735e-07
5.33149810962e-09
2.26544348618e-07
6.32612275841e-09
2.26988293666e-07
7.11912196479e-09
2.27493069432e-07
7.69030475184e-09
2.2804377238e-07
8.01693053548e-09
2.2863048446e-07
8.08646296626e-09
2.29242448988e-07
7.88188233925e-09
2.29874308336e-07
7.40499413746e-09
2.30530341232e-07
6.6296468495e-09
2.31224948443e-07
5.53938606046e-09
2.31951871742e-07
4.12790273968e-09
2.32720600702e-07
2.42341936519e-09
2.33519479948e-07
3.92167784886e-10
2.34377326885e-07
-2.01538658147e-09
2.35294912761e-07
-4.67852554992e-09
2.36187215862e-07
-7.60525178826e-09
2.36959618707e-07
-1.08431912881e-08
2.37602737158e-07
-1.43232654184e-08
2.38175376888e-07
-1.80296686287e-08
2.38700456283e-07
-2.17538779741e-08
2.3919457566e-07
-2.53283732363e-08
2.39640074655e-07
-2.87255877695e-08
2.39992495189e-07
-3.19777091849e-08
2.40222754752e-07
-3.51164913146e-08
2.40320931177e-07
-3.81577324915e-08
2.40294914568e-07
-4.1105153238e-08
2.40156148945e-07
-4.39555931992e-08
2.39921121341e-07
-4.67039112752e-08
2.39602915659e-07
-4.93422634093e-08
2.39217041328e-07
-5.18634602982e-08
2.38774515636e-07
-5.42582046374e-08
2.38288538028e-07
-5.6519273492e-08
2.37767593554e-07
-5.86375638991e-08
2.37222441393e-07
-6.06070785886e-08
2.3665912581e-07
-6.24198572954e-08
2.36086165458e-07
-6.40716890119e-08
2.35507460505e-07
-6.55561085646e-08
2.34929596699e-07
-6.68707994809e-08
2.34354678146e-07
-6.801082732e-08
2.3378768927e-07
-6.89756661038e-08
2.33229296731e-07
-6.976181317e-08
2.32683212001e-07
-7.03703544272e-08
2.32149010737e-07
-7.07990469445e-08
2.31629444401e-07
-7.10491592758e-08
2.31123292589e-07
-7.11150390045e-08
2.30633398933e-07
-7.10030237206e-08
2.30157543071e-07
-7.07175279852e-08
2.29697033757e-07
-7.02607324965e-08
2.29250658945e-07
-6.96336896101e-08
2.28819949652e-07
-6.88423007807e-08
2.28403106403e-07
-6.78883213347e-08
2.28001674568e-07
-6.67785250398e-08
2.27613985755e-07
-6.55155333529e-08
2.27241644328e-07
-6.41071459697e-08
2.26883166112e-07
-6.25569941396e-08
2.26540267301e-07
-6.08740153459e-08
2.26211703491e-07
-5.90629459932e-08
2.2589935814e-07
-5.71339365124e-08
2.2560227684e-07
-5.50928767764e-08
2.25322564686e-07
-5.29511427448e-08
2.25059603495e-07
-5.07157426251e-08
2.24815765384e-07
-4.83991780968e-08
2.24590799521e-07
-4.60093847693e-08
2.24387373123e-07
-4.35596736399e-08
2.24205606575e-07
-4.10584319947e-08
2.24048443079e-07
-3.85190841354e-08
2.23916307306e-07
-3.594949681e-08
2.23812298788e-07
-3.33618631733e-08
2.23736935114e-07
-3.0761743028e-08
2.2369314236e-07
-2.81577369529e-08
2.23681025962e-07
-2.55500529461e-08
2.23702612811e-07
-2.29397358669e-08
2.23756550225e-07
-2.03165277747e-08
2.23842496741e-07
-1.76674611324e-08
2.23955543898e-07
-1.49650617342e-08
2.24090023442e-07
-1.21804208624e-08
2.24233473502e-07
-9.28606942506e-09
2.24370497784e-07
-6.2929512354e-09
2.24479241498e-07
-3.28981349931e-09
2.24540338343e-07
-4.18131592335e-10
2.24545713093e-07
2.30849151196e-09
2.2451627924e-07
4.91715188791e-09
2.24449916105e-07
7.40612599144e-09
2.24354773758e-07
9.79270017371e-09
2.24256535818e-07
1.20988586169e-08
2.24165434995e-07
1.43364122406e-08
2.24090990842e-07
1.65161830825e-08
2.24040770385e-07
1.86412426667e-08
2.24019217763e-07
2.07153592936e-08
2.24031141471e-07
2.27356314594e-08
2.24078168082e-07
2.47007174885e-08
2.24162647338e-07
2.66036320016e-08
2.24284375057e-07
2.84394000796e-08
2.24444113107e-07
3.01983411358e-08
2.24640524731e-07
3.18731873819e-08
2.24873505512e-07
3.34528844311e-08
2.25141309044e-07
3.49292062204e-08
2.25443661913e-07
3.62910368101e-08
2.2577905247e-07
3.75304473789e-08
2.26147598651e-07
3.86374186903e-08
2.26548470179e-07
3.96053965217e-08
2.26982487841e-07
4.04264774444e-08
2.27449654093e-07
4.10965797768e-08
2.27951452657e-07
4.16113187045e-08
2.28488407344e-07
4.19715655699e-08
2.29061953422e-07
4.2171694648e-08
2.29671477987e-07
4.22260462516e-08
2.30318468932e-07
4.2147422814e-08
2.30995220457e-07
4.19301465386e-08
2.31694150354e-07
4.15736625689e-08
2.32411083858e-07
4.10782623047e-08
2.33135996444e-07
4.04363663603e-08
2.33854835019e-07
3.96331014614e-08
2.34550483311e-07
3.86417112907e-08
2.3520098727e-07
3.74277682829e-08
2.35780688585e-07
3.59617635322e-08
2.36257867236e-07
3.42479265981e-08
2.36592622382e-07
3.23376175022e-08
2.36740015811e-07
3.03197700505e-08
2.36682110613e-07
2.82868374696e-08
2.36460698529e-07
2.63018483935e-08
2.36158285335e-07
2.43850442226e-08
2.3584595554e-07
2.25308258628e-08
2.35562063464e-07
2.07266068725e-08
2.35318427442e-07
1.89626163355e-08
2.35113461025e-07
1.72318721689e-08
2.34941036471e-07
1.5529603276e-08
2.34795754481e-07
1.38511209474e-08
2.34673832982e-07
1.21915494333e-08
2.3457366051e-07
1.05448162887e-08
2.34495492243e-07
8.90370014807e-09
2.3444185041e-07
7.25973526932e-09
2.34416421553e-07
5.60497791451e-09
2.34418565793e-07
3.93197809835e-09
2.34420593661e-07
2.27646792711e-09
2.34312618553e-07
8.38546491932e-10
2.33805553589e-07
2.32359831207e-07
1.20021202817e-09
2.2319377404e-07
2.26923432145e-09
2.23297527642e-07
3.3019471571e-09
2.23618849141e-07
4.20175066614e-09
2.24086254053e-07
4.94394004981e-09
2.24659462673e-07
5.49885544482e-09
2.25318058914e-07
5.84036963952e-09
2.26050181038e-07
5.93633073095e-09
2.2684745048e-07
5.75723432027e-09
2.27705104414e-07
5.28331096019e-09
2.28620793521e-07
4.4595496571e-09
2.29633730214e-07
3.25272962017e-09
2.30716922065e-07
1.63847025054e-09
2.31858463327e-07
-4.95616216045e-10
2.3312368571e-07
-3.08829357162e-09
2.34463529506e-07
-6.02530808746e-09
2.35782536075e-07
-9.22679958477e-09
2.36985750529e-07
-1.25283270605e-08
2.38048828165e-07
-1.58696047664e-08
2.38970656908e-07
-1.93409437257e-08
2.39740293853e-07
-2.29079616357e-08
2.40384666309e-07
-2.64978102971e-08
2.40933231296e-07
-3.00083772804e-08
2.41394187822e-07
-3.33602804676e-08
2.41758493339e-07
-3.65268839736e-08
2.42008443381e-07
-3.95217419533e-08
2.42131337294e-07
-4.23681437596e-08
2.42123048235e-07
-4.50844820563e-08
2.41989107772e-07
-4.76826614755e-08
2.41738953209e-07
-5.01685838135e-08
2.41385571579e-07
-5.25457009238e-08
2.4094158006e-07
-5.48135507895e-08
2.40420811405e-07
-5.69713536518e-08
2.39835393466e-07
-5.90149748111e-08
2.39197926975e-07
-6.09414388991e-08
2.38518773103e-07
-6.27448147262e-08
2.3780849255e-07
-6.44215523873e-08
2.3707522572e-07
-6.59653227058e-08
2.36327309782e-07
-6.73730352374e-08
2.35570694987e-07
-6.86387702171e-08
2.3481166284e-07
-6.97604118435e-08
2.34054245312e-07
-7.07328436167e-08
2.3330299262e-07
-7.15551261768e-08
2.32560385165e-07
-7.22231076487e-08
2.31829610198e-07
-7.27370684918e-08
2.31111972661e-07
-7.30939516169e-08
2.30409650715e-07
-7.32907500843e-08
2.29723163595e-07
-7.33252494395e-08
2.29053954344e-07
-7.32026218553e-08
2.28402053566e-07
-7.29225453106e-08
2.27768711368e-07
-7.2488666485e-08
2.27153578053e-07
-7.19007287981e-08
2.26557609862e-07
-7.11633301268e-08
2.25980528178e-07
-7.02770917565e-08
2.25423284807e-07
-6.92475610536e-08
2.24885698733e-07
-6.80762728464e-08
2.24368809127e-07
-6.676977601e-08
2.2387260452e-07
-6.53305631697e-08
2.23398273934e-07
-6.37662090213e-08
2.22946031746e-07
-6.2080166275e-08
2.22517263814e-07
-6.02810145856e-08
2.22112448387e-07
-5.83731093535e-08
2.21733200554e-07
-5.63659369707e-08
2.21380283563e-07
-5.42645959856e-08
2.21055552183e-07
-5.20792496002e-08
2.20760044652e-07
-4.98154136985e-08
2.20495828254e-07
-4.74834844109e-08
2.20264153801e-07
-4.50888056318e-08
2.20067199485e-07
-4.2641235529e-08
2.19906262145e-07
-4.01449676968e-08
2.19783392206e-07
-3.76080870804e-08
2.19699582725e-07
-3.50321349394e-08
2.19656275467e-07
-3.24216100774e-08
2.19653495081e-07
-2.97733050082e-08
2.19691201749e-07
-2.70857370018e-08
2.19767301228e-07
-2.43484218357e-08
2.19878805948e-07
-2.155169547e-08
2.20019638092e-07
-1.86777002051e-08
2.20181588161e-07
-1.57148022942e-08
2.20352099005e-07
-1.26572932306e-08
2.20515902589e-07
-9.52942690354e-09
2.20654951936e-07
-6.38198720177e-09
2.20754357964e-07
-3.28470843243e-09
2.20805591099e-07
-3.29850553752e-10
2.20808471871e-07
2.49801594436e-09
2.20788158216e-07
5.23128788054e-09
2.20744421919e-07
7.83212734906e-09
2.20675656283e-07
1.03138302584e-08
2.20608314451e-07
1.26789416305e-08
2.2055087634e-07
1.49377259259e-08
2.20515233743e-07
1.709382218e-08
2.20509691281e-07
1.91540276052e-08
2.2054021068e-07
2.11201830954e-08
2.20611150906e-07
2.29962825039e-08
2.20725949423e-07
2.47814016064e-08
2.20886125859e-07
2.64767415252e-08
2.21092685062e-07
2.80789660913e-08
2.21345290495e-07
2.95868999189e-08
2.21643510779e-07
3.0995457449e-08
2.21986036361e-07
3.23019432111e-08
2.22371848793e-07
3.35005029763e-08
2.22799445209e-07
3.45879704747e-08
2.23267892053e-07
3.55587859784e-08
2.23776032057e-07
3.64103805203e-08
2.24323399281e-07
3.71385582117e-08
2.249093901e-07
3.77424854115e-08
2.25534013805e-07
3.82206298606e-08
2.26196980432e-07
3.85751949525e-08
2.26898189085e-07
3.88080540538e-08
2.27636742055e-07
3.89160025328e-08
2.28410762455e-07
3.89181417707e-08
2.29215179769e-07
3.88263159416e-08
2.300435113e-07
3.86266459991e-08
2.308899466e-07
3.83224262059e-08
2.31746034484e-07
3.79106148395e-08
2.32600839261e-07
3.73837058487e-08
2.33440821036e-07
3.67262079089e-08
2.34249152628e-07
3.59168410555e-08
2.35005662601e-07
3.49253897141e-08
2.35685312248e-07
3.37138599194e-08
2.36257708096e-07
3.22502251409e-08
2.36685893715e-07
3.0549021947e-08
2.36924646317e-07
2.86868717265e-08
2.36934977135e-07
2.67694282626e-08
2.36737196186e-07
2.48746971924e-08
2.36427388937e-07
2.30283695763e-08
2.36105756085e-07
2.12231713258e-08
2.35820739966e-07
1.94479290369e-08
2.35580616216e-07
1.76956006868e-08
2.35379116275e-07
1.59628844518e-08
2.35208936321e-07
1.42471510395e-08
2.35065642456e-07
1.25454847439e-08
2.34948187055e-07
1.08534095661e-08
2.34858414949e-07
9.16484699697e-09
2.34800863528e-07
7.47214937638e-09
2.34781077169e-07
5.76650180133e-09
2.34797592249e-07
4.04075766561e-09
2.3481199792e-07
2.34728846576e-09
2.34676573648e-07
8.92788743749e-10
2.33978642509e-07
2.31975005345e-07
8.5149802755e-10
2.22586426796e-07
1.59204852276e-09
2.22727428856e-07
2.28687023261e-09
2.23122408415e-07
2.85806980393e-09
2.23687308656e-07
3.28160342685e-09
2.2438061831e-07
3.52361476418e-09
2.25186292893e-07
3.54814891418e-09
2.26100140456e-07
3.3068842701e-09
2.27122778113e-07
2.75506364658e-09
2.28251775518e-07
1.82566968536e-09
2.29546861222e-07
3.52826532538e-10
2.31036898955e-07
-1.73155235564e-09
2.32661409061e-07
-4.34354169664e-09
2.34411306191e-07
-7.39300744851e-09
2.36173016973e-07
-1.07114494895e-08
2.37824064772e-07
-1.40674260912e-08
2.39337480512e-07
-1.74356897443e-08
2.40662084677e-07
-2.08197648409e-08
2.41786671962e-07
-2.41952690949e-08
2.4272630615e-07
-2.75612853099e-08
2.43501601548e-07
-3.09095296662e-08
2.44130998436e-07
-3.4202972635e-08
2.44631326796e-07
-3.73856531663e-08
2.45011583009e-07
-4.04148945029e-08
2.45271090699e-07
-4.32753623252e-08
2.45403801599e-07
-4.59738370785e-08
2.45405626746e-07
-4.85258920323e-08
2.45277072981e-07
-5.09465507635e-08
2.45023891719e-07
-5.32482759283e-08
2.44655037513e-07
-5.5439178471e-08
2.44181804653e-07
-5.75258093567e-08
2.43616140162e-07
-5.95107166787e-08
2.42970594176e-07
-6.13962113814e-08
2.42257198407e-07
-6.31807299372e-08
2.41487803747e-07
-6.48636856533e-08
2.40673156106e-07
-6.64408675534e-08
2.39823449348e-07
-6.79102051189e-08
2.38947516787e-07
-6.9266208627e-08
2.38053551227e-07
-7.05064473117e-08
2.37148357489e-07
-7.16251275518e-08
2.36238183543e-07
-7.26201679079e-08
2.35327987463e-07
-7.34860659272e-08
2.34422335667e-07
-7.4221476633e-08
2.33524655993e-07
-7.48215192362e-08
2.32638169348e-07
-7.52857727641e-08
2.31765119887e-07
-7.56101256364e-08
2.30907720605e-07
-7.57903838054e-08
2.30067370482e-07
-7.58234216994e-08
2.29245519378e-07
-7.57134082954e-08
2.28443056819e-07
-7.54596447279e-08
2.27661146128e-07
-7.5064933559e-08
2.26900358926e-07
-7.45279877388e-08
2.26161656939e-07
-7.38524159479e-08
2.25445596246e-07
-7.30377755573e-08
2.24753148844e-07
-7.2088611986e-08
2.24084937845e-07
-7.10053886803e-08
2.23442014892e-07
-6.97936168981e-08
2.22825135811e-07
-6.84546716583e-08
2.22235486304e-07
-6.69950100568e-08
2.21674001306e-07
-6.54168682492e-08
2.21142033481e-07
-6.37275722426e-08
2.20640718019e-07
-6.19300992083e-08
2.20171583806e-07
-6.00324832424e-08
2.19735959925e-07
-5.803822009e-08
2.19335528268e-07
-5.59557657793e-08
2.18971763395e-07
-5.37887632718e-08
2.18646427496e-07
-5.15456236957e-08
2.18361027145e-07
-4.92295602309e-08
2.18117247616e-07
-4.68482339526e-08
2.17916403188e-07
-4.44035938349e-08
2.17759807099e-07
-4.1901568763e-08
2.17648182439e-07
-3.9341745576e-08
2.17581959396e-07
-3.67271103729e-08
2.17560608807e-07
-3.40536625468e-08
2.17582863437e-07
-3.1320289321e-08
2.17645940032e-07
-2.85186351907e-08
2.17745696228e-07
-2.56437001241e-08
2.17875751693e-07
-2.26854572489e-08
2.1802769716e-07
-1.96426294292e-08
2.18190434376e-07
-1.65188938662e-08
2.18351166289e-07
-1.33389742945e-08
2.18496272581e-07
-1.01395494617e-08
2.18614291372e-07
-6.97355673914e-09
2.18698157014e-07
-3.87639268181e-09
2.18748679129e-07
-9.18087734464e-10
2.18767503153e-07
1.9222523201e-09
2.18774042608e-07
4.65741406785e-09
2.18780653883e-07
7.25188140286e-09
2.18777334367e-07
9.71960847554e-09
2.18779816151e-07
1.20560023638e-08
2.18804695456e-07
1.42634921625e-08
2.18855622049e-07
1.63499012555e-08
2.18941924509e-07
1.83177145274e-08
2.19069264459e-07
2.01729557177e-08
2.19241210228e-07
2.19175416484e-08
2.19460336383e-07
2.35558768749e-08
2.19728304188e-07
2.50881664518e-08
2.20045592279e-07
2.65169567676e-08
2.20412067337e-07
2.78408911633e-08
2.20826954213e-07
2.90609637325e-08
2.21289243657e-07
3.01748513285e-08
2.21797635673e-07
3.1182732018e-08
2.2235090946e-07
3.20821227009e-08
2.22947790016e-07
3.28732656471e-08
2.23587240697e-07
3.35544393954e-08
2.24268251516e-07
3.41269247754e-08
2.24990021996e-07
3.45907484945e-08
2.25751633511e-07
3.49492109295e-08
2.26552080973e-07
3.52052799046e-08
2.27389752198e-07
3.53492510112e-08
2.28262164639e-07
3.54010206796e-08
2.29168128887e-07
3.53789577531e-08
2.3009874681e-07
3.52662144402e-08
2.31045722474e-07
3.50653558344e-08
2.32005004141e-07
3.47746161903e-08
2.32967762596e-07
3.43903958339e-08
2.33923358626e-07
3.39039227555e-08
2.34858753968e-07
3.33029201696e-08
2.35758109762e-07
3.25686796222e-08
2.36601824785e-07
3.16781762622e-08
2.3736531752e-07
3.06008760566e-08
2.3801677682e-07
2.93019199996e-08
2.38516086448e-07
2.77675156994e-08
2.38815301456e-07
2.60484502705e-08
2.38870139705e-07
2.42469774337e-08
2.38690298979e-07
2.24495106256e-08
2.38376520892e-07
2.06868914089e-08
2.38048105587e-07
1.89565277336e-08
2.37762575845e-07
1.72498853216e-08
2.37525647739e-07
1.55619224327e-08
2.37328365985e-07
1.38893253767e-08
2.37163733633e-07
1.22291299785e-08
2.37029884631e-07
1.05769987657e-08
2.36929562164e-07
8.92696739054e-09
2.36869200455e-07
7.27142960803e-09
2.36856265525e-07
5.59998807829e-09
2.36888435818e-07
3.91032211831e-09
2.36916255047e-07
2.26940867602e-09
2.36748884474e-07
8.81402536583e-10
2.35838695489e-07
2.33309936713e-07
4.87612049872e-10
2.22028736384e-07
8.81825721919e-10
2.22209849824e-07
1.21675222693e-09
2.22676372376e-07
1.43496993284e-09
2.23333782242e-07
1.51010976877e-09
2.24143931303e-07
1.39949108599e-09
2.25100214022e-07
1.03807080829e-09
2.26215160752e-07
3.23706714816e-10
2.27511217276e-07
-8.71267671236e-10
2.29066353106e-07
-2.69610998585e-09
2.30945407642e-07
-5.17175297968e-09
2.33034523765e-07
-8.19973713107e-09
2.35209589756e-07
-1.15133914438e-08
2.37351460519e-07
-1.49073303626e-08
2.3933809922e-07
-1.8329914443e-08
2.41104990659e-07
-2.17116221049e-08
2.42643432925e-07
-2.5026964671e-08
2.43960672187e-07
-2.82771870569e-08
2.45068121537e-07
-3.14683722861e-08
2.45980348044e-07
-3.46054219053e-08
2.46714334284e-07
-3.76786769982e-08
2.47287646029e-07
-4.06665206744e-08
2.47714227995e-07
-4.35387155183e-08
2.48002482743e-07
-4.62724435149e-08
2.48155537759e-07
-4.88593631612e-08
2.48173868428e-07
-5.13040437202e-08
2.48058557469e-07
-5.3617435629e-08
2.4781336814e-07
-5.58108861254e-08
2.47444997507e-07
-5.78951284486e-08
2.46962533793e-07
-5.98775408854e-08
2.46376550744e-07
-6.17648353547e-08
2.45698475303e-07
-6.35599055768e-08
2.44939982869e-07
-6.52658498768e-08
2.44112664474e-07
-6.68817963771e-08
2.4322767716e-07
-6.84080692437e-08
2.42295561858e-07
-6.98410981572e-08
2.41326073519e-07
-7.11795305418e-08
2.40328092865e-07
-7.24182491314e-08
2.39309609593e-07
-7.35552179492e-08
2.38277682308e-07
-7.45846949928e-08
2.37238536968e-07
-7.55046668611e-08
2.36197531217e-07
-7.63093947897e-08
2.35159333226e-07
-7.69973253996e-08
2.34127860657e-07
-7.75631144194e-08
2.33106512273e-07
-7.80059055681e-08
2.32098068801e-07
-7.83209321585e-08
2.31104956826e-07
-7.85037643151e-08
2.30129117292e-07
-7.85498006543e-08
2.29172129425e-07
-7.84625223635e-08
2.28235392128e-07
-7.82413794607e-08
2.27320357239e-07
-7.78884364303e-08
2.26428111732e-07
-7.74015945058e-08
2.2555985013e-07
-7.67836985049e-08
2.24716649524e-07
-7.6033458249e-08
2.23899710016e-07
-7.5154613232e-08
2.23110151461e-07
-7.41467451942e-08
2.22349234862e-07
-7.3014511875e-08
2.21618176016e-07
-7.1758360181e-08
2.20918337867e-07
-7.03838326614e-08
2.20251064023e-07
-6.88921720314e-08
2.19617836305e-07
-6.72897091169e-08
2.19020129627e-07
-6.55783412131e-08
2.18459533204e-07
-6.37650092418e-08
2.17937623887e-07
-6.18520302586e-08
2.17456050192e-07
-5.98466676687e-08
2.170164162e-07
-5.77513022728e-08
2.16620329394e-07
-5.55730930921e-08
2.16269280847e-07
-5.33139822697e-08
2.15964656841e-07
-5.09804397348e-08
2.15707595371e-07
-4.85733177238e-08
2.15498962174e-07
-4.60976761217e-08
2.15339158484e-07
-4.35525403504e-08
2.15228062393e-07
-4.09408307202e-08
2.15164763548e-07
-3.82591516967e-08
2.15147479606e-07
-3.55079398666e-08
2.15173208737e-07
-3.26816230573e-08
2.15237656982e-07
-2.97794790563e-08
2.15334861645e-07
-2.67971662589e-08
2.15457272866e-07
-2.37394806638e-08
2.15595638358e-07
-2.06140157645e-08
2.15739734903e-07
-1.74439897275e-08
2.15879209208e-07
-1.42584888187e-08
2.16005429946e-07
-1.10963158783e-08
2.16113033743e-07
-7.9913043886e-09
2.16200666988e-07
-4.98304941051e-09
2.16272081498e-07
-2.07422140785e-09
2.1633465632e-07
6.94858882152e-10
2.16393963884e-07
3.34520491575e-09
2.1646767416e-07
5.88021424519e-09
2.16558224349e-07
8.26609304603e-09
2.16661050265e-07
1.05227844921e-08
2.16793503082e-07
1.2647022516e-08
2.16962424578e-07
1.46413680588e-08
2.17169481843e-07
1.65125403673e-08
2.17420803073e-07
1.82627386312e-08
2.17719644192e-07
1.98973521486e-08
2.1806721191e-07
2.14181858038e-08
2.18464236149e-07
2.28295212522e-08
2.18910964712e-07
2.4131910324e-08
2.19406933852e-07
2.53284440438e-08
2.19951289986e-07
2.64188963052e-08
2.20542917526e-07
2.74055283349e-08
2.21180582483e-07
2.8287829447e-08
2.21863007721e-07