/*--------------------------------*- C++ -*----------------------------------*\
| =========                 |                                                 |
| \\      /  F ield         | OpenFOAM: The Open Source CFD Toolbox           |
|  \\    /   O peration     | Version:  2206                                  |
|   \\  /    A nd           | Website:  www.openfoam.com                      |
|    \\/     M anipulation  |                                                 |
\*---------------------------------------------------------------------------*/
FoamFile
{
    version     2.0;
    format      ascii;
    arch        "LSB;label=64;scalar=64";
    class       volScalarField;
    location    "1.7/water";
    object      T.gas;
}
// * * * * * * * * * * * * * * * * * * * * * * * * * * * * * * * * * * * * * //

dimensions      [0 0 0 1 0 0 0];

internalField   nonuniform List<scalar> 
23300
(
332.999999213
332.999999203
332.999999179
332.999999139
332.999999085
332.99999902
332.999998944
332.999998857
332.999998757
332.999998641
332.999998507
332.99999835
332.999998167
332.999997987
332.999997974
332.999998893
333.000003755
333.00002202
333.0000749
333.0001915
333.000392963
333.00068961
333.001106864
333.001688829
333.002502652
333.003601341
333.005015144
333.006749979
333.008788256
333.011091743
333.013606771
333.016271139
333.019021282
333.021798279
333.024551884
333.02724243
333.029840942
333.032328002
333.034691888
333.036927662
333.039036515
333.041022413
333.042891076
333.044649154
333.046303619
333.047861361
333.049328913
333.050712281
333.052016807
333.053244184
333.054393031
333.055464413
333.056460553
333.057384138
333.058237942
333.059024632
333.059746672
333.060406282
333.06100543
333.06154583
333.062028962
333.062456086
333.062828266
333.063146388
333.063411188
333.063623279
333.06378318
333.063891347
333.063948212
333.063954222
333.063909882
333.063815797
333.063672713
333.063481556
333.063243452
333.062959728
333.062631879
333.062261421
333.061849558
333.061396497
333.06090026
333.060355109
333.05975316
333.059086632
333.058349259
333.057536352
333.056644131
333.055669637
333.054610807
333.053466527
333.052236599
333.050921648
333.04952298
333.048042433
333.046482205
333.044844673
333.043132203
333.041346964
333.039490739
333.037564673
333.035570614
333.033510695
333.031386257
333.029198144
333.026947027
333.024633977
333.022261676
333.019837191
333.017378794
333.014918532
333.012488049
333.010131728
333.007908656
333.005889822
333.00414755
333.002737673
333.001681038
333.000954807
333.000499987
333.000241239
333.000107612
333.000044915
333.000018136
333.000007682
333.000003915
333.000002627
333.000002173
333.000001976
333.000001853
333.00000175
333.000001652
333.00000155
333.00000144
333.000001313
333.000001157
333.00000096
333.000000711
333.000000425
333.000000171
333.000000046
332.999998617
332.999998602
332.999998574
332.999998533
332.999998481
332.999998416
332.999998339
332.999998247
332.999998138
332.999998008
332.999997852
332.999997666
332.9999975
332.999997623
332.999999114
333.000005691
333.00002753
333.000085992
333.000214371
333.000448665
333.000827439
333.001376843
333.002133376
333.003142464
333.004435577
333.006026689
333.007912795
333.010074936
333.012479646
333.015081531
333.017827322
333.020660853
333.023527956
333.026380363
333.029178121
333.031890514
333.034495768
333.036979983
333.039335718
333.041560611
333.043656121
333.045626197
333.047476296
333.049212685
333.05084195
333.052370682
333.053805285
333.055151915
333.056416495
333.057596999
333.058694053
333.059709433
333.060645557
333.061505102
333.062290768
333.063005146
333.063650651
333.064229485
333.064743635
333.065194879
333.065584795
333.065914783
333.06618609
333.066399826
333.066557003
333.066658557
333.066705386
333.066698388
333.066638499
333.066526739
333.066364262
333.066152396
333.065892696
333.065586973
333.065237326
333.064846148
333.0644161
333.063950027
333.063450725
333.062920438
333.062359937
333.061767247
333.061137059
333.060463314
333.059737953
333.058954261
333.058106888
333.057191739
333.056205858
333.055147309
333.054015024
333.052808649
333.051528386
333.050174848
333.048748931
333.047251687
333.045684231
333.044047667
333.042343058
333.040571453
333.038734043
333.036832077
333.034866815
333.032839621
333.030752166
333.02860672
333.026406545
333.024156282
333.021861727
333.019536147
333.017203732
333.014880934
333.012590111
333.010360832
333.008231538
333.00625143
333.004481242
333.002987996
333.00182691
333.001013719
333.000508749
333.000231815
333.000096879
333.000037917
333.000014625
333.000006245
333.000003462
333.000002573
333.000002263
333.000002117
333.000002011
333.000001913
333.000001806
333.000001674
333.000001495
333.000001237
333.000000862
333.000000382
332.999999929
332.999999767
332.999997427
332.999997416
332.999997393
332.999997359
332.999997315
332.999997261
332.999997194
332.999997113
332.999997012
332.999996889
332.999996752
332.999996697
332.999997284
333.000000611
333.00001342
333.000053289
333.000154191
333.000366377
333.000754403
333.001343822
333.002162322
333.00322929
333.004557439
333.006153865
333.008017204
333.010136282
333.012489769
333.015046744
333.017768237
333.020609702
333.02352419
333.02646571
333.029392204
333.032267659
333.035063226
333.037757386
333.040335415
333.042788435
333.045112294
333.047306464
333.04937306
333.051315982
333.053140245
333.054851475
333.056455559
333.057958412
333.059365843
333.060683537
333.061916255
333.063061688
333.064121618
333.065098166
333.065993683
333.066810609
333.067551353
333.068218215
333.068813339
333.069338693
333.069796058
333.070187039
333.070513069
333.070775437
333.070975304
333.07111373
333.07119171
333.071210204
333.071170181
333.071072663
333.070918777
333.07070981
333.070447269
333.070132944
333.069768971
333.069357884
333.068902662
333.068406741
333.067874009
333.067308712
333.066715259
333.066097772
333.065459278
333.064800516
333.064118834
333.063409676
333.062668525
333.061888169
333.061061882
333.06018376
333.059248826
333.058253009
333.057193052
333.056066407
333.054871124
333.05360575
333.052269249
333.050860927
333.049380385
333.047827481
333.046202317
333.044505251
333.042736912
333.040898216
333.038990399
333.0370151
333.034974496
333.032871489
333.030709913
333.028494685
333.026231633
333.023926507
333.021598423
333.019260716
333.016927016
333.014614188
333.012342951
333.010139116
333.008035408
333.006073848
333.004308797
333.00280905
333.001646543
333.000855713
333.000394519
333.00016349
333.000062306
333.000022883
333.000009062
333.000004654
333.000003339
333.000002934
333.000002768
333.000002653
333.000002529
333.000002363
333.000002114
333.000001726
333.000001137
333.000000363
332.999999616
332.999999414
332.999995907
332.9999959
332.999995883
332.999995856
332.999995821
332.999995776
332.999995719
332.999995649
332.999995571
332.999995518
332.999995716
332.9999974
333.000005148
333.000032958
333.000113424
333.000308594
333.000688458
333.001292512
333.002151954
333.003275771
333.004661989
333.006303191
333.008188989
333.010306448
333.01263879
333.015163954
333.017854074
333.020676109
333.023593333
333.026567358
333.029560348
333.032537087
333.0354666
333.038323167
333.0410867
333.043742578
333.046281101
333.04869674
333.050987313
333.0531532
333.055196647
333.057121187
333.058931173
333.060631434
333.062227027
333.063723089
333.065124769
333.066437191
333.067661983
333.068799781
333.069852
333.070820516
333.071707414
333.072514836
333.073244893
333.0738996
333.074480841
333.074990352
333.075429712
333.075800345
333.076103535
333.076340437
333.076512104
333.076619509
333.076663579
333.076645231
333.076565415
333.076425163
333.076225644
333.075968221
333.075654522
333.075286504
333.07486652
333.074397386
333.073882419
333.073325457
333.072730827
333.072103238
333.071447557
333.070768405
333.07006951
333.06935287
333.068617955
333.067861493
333.067078694
333.066267007
333.065419565
333.064529668
333.06359109
333.062598194
333.061546008
333.060430235
333.059247231
333.057993976
333.05666803
333.055267495
333.053790977
333.052237554
333.050606755
333.048898541
333.047113301
333.04525186
333.043315501
333.041306024
333.039225825
333.037078022
333.034866588
333.032596497
333.030273807
333.027905663
333.025500316
333.02307695
333.020647189
333.018224864
333.01582634
333.013471091
333.011182525
333.008989146
333.006926381
333.005039446
333.003386917
333.002042223
333.001074758
333.000489446
333.000196075
333.000071487
333.000025302
333.000010061
333.000005514
333.000004241
333.000003854
333.000003669
333.000003495
333.00000326
333.000002899
333.000002331
333.000001476
333.000000359
332.999999297
332.999999075
332.999994251
332.999994249
332.999994241
332.999994226
332.999994204
332.999994174
332.999994143
332.999994137
332.99999427
332.999995098
332.999999605
333.000018254
333.000081328
333.000254064
333.000604142
333.001191146
333.002046724
333.003178727
333.004582202
333.006244337
333.008148038
333.010274229
333.012602913
333.015113071
333.017781826
333.020583669
333.023490344
333.026471472
333.029495711
333.032532133
333.0355516
333.038527919
333.041438654
333.044265549
333.04699457
333.049615654
333.052122258
333.054510803
333.0567801
333.058930805
333.060964937
333.062885479
333.064696054
333.066400681
333.068003589
333.069509103
333.07092155
333.072245184
333.073481181
333.074630561
333.075694698
333.076675263
333.077574098
333.078393109
333.07913418
333.079799125
333.080389654
333.08090735
333.081353668
333.081729931
333.082037342
333.082276994
333.082449897
333.082556993
333.082599195
333.082577413
333.082492603
333.082345805
333.082138197
333.081871149
333.081546282
333.081165528
333.080731186
333.080245967
333.079713026
333.079135959
333.078518751
333.077865654
333.077180975
333.076468739
333.075732225
333.074973418
333.074192499
333.073387571
333.072554728
333.071688071
333.070786317
333.069843461
333.068853474
333.067810477
333.066709093
333.065544475
333.064312382
333.063009188
333.061631891
333.060178094
333.05864599
333.057034329
333.055342394
333.05356998
333.051717377
333.049785368
333.047775236
333.045688796
333.043528447
333.04129724
333.038998965
333.036638241
333.034220581
333.031752366
333.029240578
333.026703414
333.024151892
333.021598663
333.01905835
333.016547993
333.01408765
333.011701178
333.00941732
333.00727129
333.005307122
333.003580942
333.002163247
333.001128201
333.000498796
333.000190479
333.000066095
333.000023016
333.000009828
333.00000617
333.00000518
333.000004832
333.000004577
333.000004251
333.000003757
333.000002987
333.000001843
333.000000361
332.999998993
332.999998767
332.999992511
332.999992521
332.999992532
332.999992546
332.999992566
332.999992618
332.999992801
332.999993459
332.999995994
333.000007595
333.000054988
333.000193048
333.00049999
333.001042838
333.001857115
333.002953288
333.004327345
333.005966491
333.007852798
333.009965394
333.012281865
333.014779187
333.017434141
333.020223226
333.023122296
333.026106292
333.029149358
333.03222535
333.035308605
333.038374787
333.04140166
333.04436969
333.047262422
333.05006661
333.052772141
333.055371801
333.05786092
333.060236985
333.062499237
333.064648291
333.066685807
333.068614202
333.070436421
333.072155753
333.073775691
333.07529983
333.076731788
333.07807514
333.07933121
333.080501006
333.081585833
333.082587233
333.083506899
333.084346585
333.085108043
333.08579297
333.086402981
333.086939585
333.087404184
333.087798064
333.088122411
333.088378313
333.088566786
333.08868879
333.088745256
333.088737118
333.088665346
333.088530982
333.088335188
333.088079282
333.087764788
333.087393479
333.086967409
333.086488947
333.085960779
333.085385889
333.084767501
333.084108956
333.083413543
333.082684243
333.081923416
333.081132463
333.080311514
333.079459226
333.078572751
333.077647871
333.076679462
333.075662764
333.074596692
333.073475348
333.072293958
333.071047983
333.069733416
333.068346756
333.066885064
333.065345955
333.063727601
333.062028714
333.06024853
333.058386792
333.056443735
333.054420079
333.052317035
333.050136321
333.047880191
333.045551478
333.043153652
333.040690885
333.038168117
333.03559112
333.032966713
333.030307199
333.027627511
333.02493897
333.022254834
333.019590447
333.016963703
333.014395667
333.011911409
333.009541164
333.007321981
333.005300083
333.003533959
333.002096191
333.001061428
333.000448827
333.000162416
333.000054116
333.000019301
333.000009423
333.000006838
333.000006099
333.000005715
333.000005286
333.000004649
333.000003667
333.000002223
333.000000367
332.999998713
332.999998489
332.999990711
332.999990742
332.999990792
332.999990873
332.999991054
332.999991594
332.999993441
333.000000281
333.000028018
333.000126629
333.00037401
333.000848155
333.001591582
333.002617547
333.003924155
333.005500825
333.007331545
333.009396688
333.01167431
333.01414118
333.016773538
333.019547615
333.022439888
333.025427095
333.028486133
333.031594044
333.034728172
333.037866527
333.040988249
333.044074085
333.047106802
333.050071476
333.052955647
333.055749321
333.05844487
333.061036821
333.063521609
333.065897289
333.068163257
333.070319978
333.072368756
333.074311517
333.076150646
333.077888837
333.079528989
333.081074115
333.082527281
333.083891552
333.085168716
333.086359738
333.087465881
333.088488631
333.089429612
333.090290512
333.091073021
333.091778791
333.092409399
333.092966335
333.093450991
333.093864659
333.094208534
333.094483726
333.094691276
333.094832169
333.094907357
333.094917786
333.094864423
333.094748283
333.094570463
333.094332172
333.094034764
333.093679764
333.093268885
333.092804043
333.092287344
333.09172106
333.091107564
333.090449239
333.08974834
333.089006821
333.088226136
333.087407033
333.086549366
333.085651986
333.084712703
333.083728354
333.082694971
333.081607982
333.080462026
333.07925506
333.077985651
333.07664932
333.075242773
333.073762895
333.072207135
333.070573368
333.068859958
333.067065739
333.06519001
333.063232528
333.061193501
333.059073586
333.056873894
333.054595998
333.052241958
333.049814346
333.047316294
333.044751544
333.042124524
333.039440443
333.036705489
333.03392717
333.03112346
333.028304837
333.025483457
333.022673328
333.019890665
333.0171544
333.014486859
333.011914678
333.009470077
333.007192666
333.005131983
333.003350676
333.001925674
333.000931451
333.000371842
333.000127262
333.000041526
333.000016021
333.000009278
333.00000754
333.000006901
333.000006345
333.00000556
333.000004359
333.000002609
333.000000374
332.999998458
332.999998241
332.999988869
332.999988934
332.999989062
332.999989367
332.999990356
332.999993991
333.000007695
333.000059634
333.000229929
333.000607183
333.001251097
333.002178196
333.003387201
333.004869542
333.006611902
333.008597279
333.010805888
333.013215985
333.015804635
333.018548384
333.021423783
333.024407754
333.027477787
333.030612016
333.033789236
333.036988961
333.040191568
333.043378522
333.04653264
333.04963835
333.052681896
333.05565146
333.058537213
333.061331265
333.064027562
333.066621722
333.069110845
333.071493305
333.073768548
333.075936894
333.07799936
333.079957505
333.081813296
333.083568991
333.085227051
333.086790066
333.088260704
333.089641669
333.090935434
333.092142971
333.093265563
333.094304706
333.095262027
333.09613921
333.096937942
333.097659873
333.098306589
333.098879589
333.099380283
333.099809983
333.100169907
333.100461189
333.100684889
333.100842006
333.100933497
333.100960294
333.10092333
333.100823554
333.10066196
333.100439606
333.100157633
333.099817281
333.099419896
333.098966935
333.098459942
333.097900528
333.097290313
333.096630859
333.09592357
333.095169579
333.09436962
333.093523909
333.092632036
333.091692901
333.090704702
333.089664968
333.088570647
333.08741822
333.086203832
333.084923597
333.083572731
333.082150566
333.08065702
333.079088508
333.077443222
333.075719231
333.073915192
333.072030106
333.070063371
333.0680148
333.065884601
333.063673376
333.061382141
333.059012328
333.056565807
333.054044908
333.051452457
333.048791812
333.046066918
333.043282351
333.040443363
333.037555847
333.034637491
333.031698573
333.028750591
333.025806566
333.022881378
333.019992227
333.017159205
333.014406042
333.011761106
333.009258801
333.006941537
333.004862508
333.00308908
333.001703104
333.000776739
333.000289718
333.000094004
333.000031026
333.000013737
333.000009411
333.000008175
333.000007428
333.000006483
333.000005057
333.000002994
333.000000382
332.999998227
332.999998018
332.999986999
332.999987124
332.999987465
332.999988688
332.999993766
333.000014471
333.000092807
333.000339426
333.000842587
333.001637641
333.002720936
333.004082212
333.005709049
333.007586802
333.0096984
333.012024536
333.014544172
333.017235129
333.020074675
333.023040023
333.026108733
333.029258985
333.032469751
333.035720877
333.038993149
333.042268349
333.045529368
333.048760335
333.051946759
333.055075666
333.058135683
333.061117088
333.064011797
333.06681331
333.069516607
333.072118023
333.0746151
333.077006429
333.079291496
333.081470533
333.083544383
333.085514372
333.087382201
333.08914985
333.090819498
333.09239346
333.093874147
333.095264033
333.096566414
333.09778235
333.098913219
333.099960591
333.100926151
333.101811624
333.102618738
333.103349175
333.104004555
333.104586409
333.105096176
333.105535195
333.105904709
333.106205868
333.106439739
333.106607321
333.106709551
333.106747327
333.106721518
333.106632984
333.106482591
333.106271224
333.105999802
333.105669284
333.105280671
333.104835002
333.104333339
333.103776743
333.10316623
333.102502723
333.101786985
333.101019544
333.100200615
333.09933003
333.098407176
333.097430963
333.096399819
333.09531172
333.094164242
333.092954639
333.091679927
333.090336978
333.088922573
333.087433757
333.0858669
333.08422036
333.082497335
333.080694371
333.07881091
333.07684598
333.074798991
333.072669857
333.070458785
333.06816634
333.065793457
333.063341447
333.06081202
333.058207305
333.055529879
333.052782807
333.049969685
333.047094692
333.044162666
333.041179387
333.038155552
333.035107173
333.032044553
333.028979678
333.025926229
333.022899914
333.019918935
333.017004594
333.014182076
333.01148153
333.008939574
333.006601463
333.004524177
333.002780136
333.001456245
333.000618569
333.000213907
333.000066501
333.000023341
333.000012402
333.000009666
333.000008555
333.000007418
333.000005757
333.000003374
333.000000385
332.999998018
332.999997817
332.999985116
332.999985373
332.999986425
332.999991495
333.000015145
333.000111066
333.000415351
333.001019384
333.001936164
333.003145977
333.004631317
333.006376574
333.008366021
333.010582619
333.013007677
333.015620999
333.018401296
333.021326669
333.024375079
333.027524736
333.030754417
333.034043673
333.037372976
333.0407238
333.044078681
333.04742128
333.050736443
333.054010282
333.05723025
333.060385197
333.063465405
333.066462591
333.069369874
333.072181713
333.074893818
333.077503046
333.080007282
333.082405317
333.084696721
333.086881729
333.088961125
333.090936143
333.092808368
333.094579652
333.096252038
333.097827702
333.099308915
333.100698027
333.101999207
333.103213716
333.104343105
333.105389078
333.106353415
333.107237923
333.108044394
333.108774571
333.109430124
333.110012629
333.110523562
333.11096429
333.111336076
333.111640079
333.111877365
333.112048914
333.112155629
333.112198352
333.112177877
333.112094957
333.111950319
333.111744677
333.111478734
333.111153191
333.110768744
333.110326079
333.109825863
333.109268717
333.108655192
333.107985734
333.107260634
333.10647999
333.10564365
333.104751176
333.10380181
333.102794456
333.101727684
333.100599754
333.099408649
333.098152134
333.096827812
333.095433184
333.093965714
333.092422895
333.090802251
333.089101616
333.08731876
333.085449485
333.083500663
333.081469884
333.079356068
333.077159619
333.074880587
333.072519491
333.070077216
333.06755496
333.064954305
333.062277217
333.059526076
333.056703714
333.053813452
333.050859156
333.047845305
333.044777129
333.041660929
333.038515825
333.035351536
333.032179271
333.029011756
333.025863467
333.022751023
333.019693677
333.016713959
333.013838508
333.01109923
333.008534945
333.00619381
333.004136847
333.002442119
333.00120165
333.000469296
333.000149895
333.000045828
333.000018287
333.000011721
333.000009779
333.000008369
333.000006455
333.000003744
333.000000381
332.999997828
332.999997637
332.999983237
332.999983852
332.999987405
333.000007376
333.000101102
333.000422455
333.001086978
333.002090332
333.003396698
333.004980441
333.006822037
333.008904153
333.011209457
333.013719674
333.016415364
333.019276084
333.022280745
333.025408012
333.02863668
333.031945993
333.035315887
333.038727167
333.04216162
333.045602097
333.049032561
333.052438137
333.055805154
333.059121188
333.062375096
333.065557036
333.068658473
333.071672159
333.074592087
333.077413434
333.080132481
333.082746521
333.085253761
333.087653221
333.089944626
333.092128313
333.09420513
333.096176346
333.09804357
333.099808668
333.101473692
333.103040806
333.104512241
333.105890276
333.107179851
333.10838265
333.109500492
333.110535246
333.111488815
333.112363105
333.113159995
333.113881306
333.11452877
333.115104016
333.115608562
333.116043802
333.116411013
333.116711357
333.116945885
333.117115548
333.117221203
333.117263624
333.117243517
333.117161522
333.117018228
333.116814181
333.116549884
333.116225809
333.115842388
333.115400014
333.11489903
333.114339713
333.113722257
333.113046747
333.112313131
333.111521192
333.110670518
333.109760476
333.1087902
333.10775858
333.106664267
333.105505697
333.104281113
333.102988603
333.10162615
333.100191668
333.098683052
333.097098218
333.09543514
333.09369189
333.091866606
333.089957512
333.087963699
333.085882553
333.083714828
333.081465422
333.079132245
333.076715961
333.074217543
333.071637927
333.068978622
333.066241471
333.063428678
333.060542892
333.057587219
333.054565248
333.051481074
333.048339281
333.045144953
333.041915472
333.038661971
333.035395117
333.03212689
333.028870734
333.025641904
333.022457909
333.019339034
333.016309001
333.013395867
333.010633275
333.008062301
333.005734215
333.003714628
333.002088263
333.000951854
333.0003373
333.000099957
333.000031622
333.000015252
333.000011256
333.000009355
333.000007148
333.000004096
333.000000366
332.999997654
332.999997476
332.999981406
332.999983073
332.999995016
333.000064956
333.000349966
333.00101818
333.002066124
333.003437079
333.005093923
333.007011371
333.009169353
333.011549526
333.014133593
333.0169026
333.019836798
333.0229158
333.026118883
333.02942532
333.032814694
333.036267155
333.039763623
333.043285932
333.046816934
333.050340568
333.053841905
333.057307187
333.060723854
333.064080569
333.067367228
333.070574964
333.073696129
333.076724264
333.079654058
333.08248128
333.085202711
333.08781606
333.09031988
333.092713474
333.094996805
333.097170412
333.099235317
333.101192947
333.103045057
333.104793659
333.106440947
333.107989231
333.109440856
333.110798111
333.112065696
333.113246877
333.114343673
333.11535807
333.116292083
333.117147733
333.117927001
333.118631797
333.119263925
333.119825074
333.120316798
333.120740517
333.121097518
333.121388953
333.12161585
333.121779119
333.121879558
333.121917867
333.121894651
333.121810435
333.12166567
333.121460739
333.121195963
333.120871606
333.120487871
333.120044904
333.119542781
333.118981504
333.118360986
333.117681036
333.11694134
333.116141448
333.115280751
333.114358471
333.113373654
333.112325164
333.111211697
333.110031787
333.108783836
333.107466134
333.106076898
333.104614301
333.103076505
333.101461698
333.099768121
333.097994094
333.096138038
333.094198504
333.09217423
333.090063999
333.087867114
333.08558284
333.083208626
333.08074998
333.078209067
333.075585007
333.072879815
333.070095181
333.067232988
333.064295812
333.061286597
333.058208745
333.055066221
333.051863628
333.048606474
333.045301919
333.041970113
333.03862043
333.035263816
333.031912684
333.028581086
333.025285029
333.02204289
333.018875955
333.015809114
333.012871832
333.010099548
333.007535763
333.005235294
333.003269239
333.001730376
333.000718251
333.000228331
333.000064124
333.000022687
333.000013402
333.000010432
333.000007838
333.000004428
333.000000338
332.999997495
332.999997333
332.999979723
332.999984445
333.000021763
333.00022234
333.000816656
333.001854449
333.003252281
333.004954215
333.006925906
333.009142696
333.011584097
333.014231075
333.017064725
333.020065718
333.023214207
333.026489958
333.029872615
333.033341977
333.036878259
333.040462322
333.044075838
333.047701427
333.051322748
333.054924557
333.058492762
333.062014445
333.065477886
333.068872573
333.072189201
333.075419663
333.078557025
333.081595485
333.084530329
333.087357869
333.090075369
333.092680975
333.095173631
333.097552993
333.099819349
333.101973532
333.104016843
333.105950972
333.107777925
333.109499955
333.111119503
333.112639134
333.114061501
333.11538933
333.116625476
333.117776373
333.118843856
333.119829988
333.120736925
333.121566825
333.122321791
333.123003827
333.123614819
333.124156506
333.12463048
333.12503818
333.125380889
333.125659742
333.125875731
333.126029711
333.12612241
333.126154438
333.126126297
333.126038387
333.125891019
333.125684418
333.12541873
333.125094029
333.124710314
333.124267513
333.123765479
333.123203984
333.122582713
333.121901256
333.121159093
333.120355588
333.11948998
333.118561375
333.117568739
333.116510908
333.115386586
333.114194362
333.112932725
333.111600085
333.110194798
333.108715189
333.107159581
333.105526319
333.103813797
333.10202048
333.100144927
333.098185815
333.096141954
333.094012304
333.091796019
333.089492389
333.087100853
333.084621742
333.082054549
333.079397067
333.076658239
333.073838841
333.070939148
333.067962432
333.064911377
333.06178903
333.058599216
333.055346205
333.052034752
333.048670043
333.045272239
333.041851215
333.038417622
333.034983203
333.031561041
333.028165871
333.024814456
333.021526029
333.018322858
333.015231004
333.012281395
333.009511406
333.00696729
333.004708063
333.002811578
333.001380331
333.000511399
333.000145157
333.00004062
333.000017366
333.000011765
333.00000854
333.000004735
333.000000294
332.999997352
332.999997208
332.999978428
332.999991364
333.000092955
333.000525871
333.001473359
333.002848892
333.004561467
333.006561828
333.008817768
333.011304931
333.014002481
333.016890898
333.019950875
333.02316286
333.026506968
333.029963102
333.033511172
333.037131344
333.040804273
333.044511302
333.048234625
333.051957407
333.055663874
333.059339379
333.06297044
333.066544772
333.0700513
333.073480159
333.076822691
333.080071421
333.083220031
333.086263308
333.089197101
333.092018255
333.094724538
333.097314573
333.099787753
333.102144163
333.104384499
333.106509981
333.108522283
333.11042345
333.112215829
333.113902001
333.115484716
333.116966837
333.11835129
333.119641029
333.120839014
333.121952621
333.122983981
333.123935405
333.12480925
333.125607836
333.126333397
333.126988036
333.127573711
333.128092213
333.128545159
333.128933992
333.129259984
333.129524235
333.129727685
333.12987112
333.129955181
333.129980378
333.129947092
333.129855592
333.129706041
333.129498504
333.129232957
333.12890929
333.128527313
333.128086759
333.127587281
333.127028454
333.12640977
333.125730633
333.124990356
333.124188153
333.123323135
333.122394309
333.121400574
333.120340727
333.119213465
333.118017399
333.116751062
333.115412928
333.11400143
333.112514978
333.110951981
333.109310868
333.10759011
333.105788239
333.10390387
333.101935722
333.099882636
333.097743595
333.095517745
333.093204406
333.090803102
333.088313618
333.085735847
333.083069942
333.080317234
333.077477737
333.074549894
333.071545066
333.06846392
333.065307994
333.062081856
333.058789517
333.055435498
333.052025473
333.048569334
333.045086337
333.041585784
333.03807851
333.034576664
333.031093866
333.027645492
333.024249042
333.020924595
333.017695414
333.014588782
333.011637206
333.008880235
333.006367339
333.00416263
333.002352389
333.001050441
333.000339902
333.0000871
333.000026429
333.000013822
333.000009303
333.000005019
333.000000236
332.999997223
332.999997102
332.999978029
333.000010495
333.000237101
333.000975649
333.002256782
333.003934013
333.005930274
333.008200705
333.010714426
333.013447223
333.016377983
333.019486825
333.022754148
333.026160218
333.029685087
333.033308695
333.037011072
333.040772559
333.044574036
333.048397106
333.052224258
333.056038985
333.059825881
333.063570699
333.067260398
333.070883168
333.07442844
333.077886883
333.08125039
333.084512049
333.087666106
333.090707918
333.093633894
333.096441432
333.099128844
333.101695282
333.104140656
333.106465555
333.108671162
333.110759173
333.112731718
333.114591285
333.116340643
333.117982776
333.119520815
333.120957972
333.122297486
333.123542579
333.124696442
333.12576703
333.126756902
333.1276687
333.128505017
333.129268341
333.129961029
333.130585278
333.131143105
333.131636341
333.132066615
333.132435362
333.13274382
333.132993038
333.133183886
333.13331706
333.133393097
333.133412385
333.133375171
333.133281578
333.133131609
333.132925162
333.132662038
333.132341946
333.131964511
333.131529281
333.131035726
333.130483241
333.129871148
333.129198691
333.128465038
333.127669274
333.126810405
333.125887352
333.124898953
333.123843965
333.122721071
333.121528882
333.120265954
333.118930791
333.117521866
333.116037631
333.114476538
333.112837052
333.111117671
333.109316946
333.107433499
333.105466039
333.103413389
333.1012745
333.099048473
333.09673458
333.094332288
333.091841279
333.08926146
333.086593011
333.08383645
333.080992416
333.078061915
333.075047336
333.071949568
333.068768117
333.065516079
333.062195031
333.058807955
333.055360868
333.051859383
333.048324844
333.044767051
333.041196524
333.037624775
333.034064546
333.030530067
333.02703738
333.023604735
333.020253079
333.017006715
333.013894241
333.01094992
333.008215802
333.005745183
333.003608444
333.001902504
333.0007532
333.000208686
333.000050292
333.000018012