/*--------------------------------*- C++ -*----------------------------------*\
| =========                 |                                                 |
| \\      /  F ield         | OpenFOAM: The Open Source CFD Toolbox           |
|  \\    /   O peration     | Version:  2206                                  |
|   \\  /    A nd           | Website:  www.openfoam.com                      |
|    \\/     M anipulation  |                                                 |
\*---------------------------------------------------------------------------*/
FoamFile
{
    version     2.0;
    format      ascii;
    arch        "LSB;label=64;scalar=64";
    class       volVectorField;
    location    "1.7/water";
    object      U.gas;
}
// * * * * * * * * * * * * * * * * * * * * * * * * * * * * * * * * * * * * * //

dimensions      [0 1 -1 0 0 0 0];

internalField   nonuniform List<vector> 
23300
(
(0.000393661342875 0.135912942492 0)
(0.0011074652152 0.135916728424 0)
(0.0017696255027 0.135944020082 0)
(0.00240931523853 0.135998494786 0)
(0.00294872113204 0.136066480222 0)
(0.00336867632729 0.136141059001 0)
(0.00366349713405 0.13621735867 0)
(0.00383418317611 0.136292982107 0)
(0.00388674130609 0.136364871062 0)
(0.00383082934684 0.136431996177 0)
(0.00367848768629 0.136492749257 0)
(0.00344065690643 0.136549321915 0)
(0.00312111360786 0.136606260959 0)
(0.00271771649791 0.136668580877 0)
(0.00222578910376 0.136738050508 0)
(0.00163960866989 0.136820725656 0)
(0.000958929652575 0.13691897151 0)
(0.00020098615478 0.137032075641 0)
(-0.000607800508729 0.137142214568 0)
(-0.00146525479839 0.137213307011 0)
(-0.00247186850455 0.137243055997 0)
(-0.00378778746611 0.137265886861 0)
(-0.00543840933912 0.13730957524 0)
(-0.00726308088787 0.13739098993 0)
(-0.00910834303829 0.137484946701 0)
(-0.0109769692966 0.137560176441 0)
(-0.0129167336186 0.137605857677 0)
(-0.0149217100289 0.137626353505 0)
(-0.0169654956514 0.137624524804 0)
(-0.0190201688482 0.137607380825 0)
(-0.0210626753711 0.137576651281 0)
(-0.0230744666233 0.137537898636 0)
(-0.025040846303 0.137491294695 0)
(-0.0269492131009 0.13744140341 0)
(-0.0287887769106 0.137387421934 0)
(-0.0305495677253 0.137333381548 0)
(-0.0322227004226 0.137277894185 0)
(-0.0337998207938 0.137224702063 0)
(-0.0352735479488 0.137172031071 0)
(-0.0366370816217 0.137123426422 0)
(-0.0378846339238 0.137076824696 0)
(-0.0390110822997 0.137035603238 0)
(-0.0400123252826 0.136997470356 0)
(-0.0408849524508 0.136965646086 0)
(-0.0416265237663 0.136937663754 0)
(-0.0422352615332 0.136916603529 0)
(-0.0427101783171 0.136899884222 0)
(-0.0430484145021 0.13689041421 0)
(-0.0432454766135 0.136885745415 0)
(-0.0433020819748 0.136888016521 0)
(-0.0432240888437 0.136893678637 0)
(-0.0430145579557 0.136905731883 0)
(-0.0426742556759 0.136921598759 0)
(-0.0422046499912 0.136943910431 0)
(-0.0416079765141 0.136969824251 0)
(-0.0408870333356 0.137001687152 0)
(-0.0400452589513 0.137036511313 0)
(-0.0390866033219 0.137076434655 0)
(-0.0380156348444 0.137118366066 0)
(-0.0368374484168 0.13716425986 0)
(-0.0355577819742 0.137210926565 0)
(-0.034182942222 0.13726014004 0)
(-0.0327199173375 0.137308597606 0)
(-0.0311763089101 0.137357878403 0)
(-0.029560430409 0.137404536788 0)
(-0.0278812328573 0.137449929939 0)
(-0.0261483728316 0.13749042743 0)
(-0.0243721211179 0.137527121829 0)
(-0.0225633863346 0.137556148523 0)
(-0.0207335990908 0.137578292123 0)
(-0.018894686197 0.137589426162 0)
(-0.0170589506015 0.137590035517 0)
(-0.0152390370527 0.137575825889 0)
(-0.0134478717412 0.137547222299 0)
(-0.0116986769579 0.137500269212 0)
(-0.0100049876277 0.13743627042 0)
(-0.00838060735505 0.137353279317 0)
(-0.00683891181164 0.137256335534 0)
(-0.00538812717182 0.137150153545 0)
(-0.00401351782594 0.137049674123 0)
(-0.00269127491842 0.136968710623 0)
(-0.001441757492 0.136926431308 0)
(-0.000300675267363 0.13692807725 0)
(0.000769396757723 0.136977088003 0)
(0.00186552047611 0.137063020231 0)
(0.00306054748631 0.137166341166 0)
(0.00437196112329 0.137266499387 0)
(0.0057841523039 0.137352654628 0)
(0.00727330702545 0.137415646755 0)
(0.00881550789786 0.13745428301 0)
(0.0103894387443 0.137466845756 0)
(0.0119762697712 0.137457149598 0)
(0.0135594236853 0.137426838828 0)
(0.0151236177885 0.137381483514 0)
(0.0166546226964 0.137323687465 0)
(0.018138577126 0.137259055854 0)
(0.0195620512495 0.137189987501 0)
(0.0209116392297 0.137121390787 0)
(0.022174218249 0.137055059113 0)
(0.0233366910722 0.13699506033 0)
(0.0243863035975 0.13694261555 0)
(0.0253104178258 0.136901111185 0)
(0.0260968048154 0.136871411309 0)
(0.0267334258215 0.136856456231 0)
(0.0272087601704 0.136856937396 0)
(0.0275117492013 0.13687542766 0)
(0.0276323600915 0.136912290086 0)
(0.0275618438157 0.136969247552 0)
(0.0272934339355 0.137044875339 0)
(0.0268243592528 0.137138791136 0)
(0.0261573556714 0.137249549254 0)
(0.0252987367159 0.137374476852 0)
(0.0242599252996 0.13750547388 0)
(0.0230595490114 0.137632527553 0)
(0.0217230873033 0.13774162027 0)
(0.0202817002596 0.137819601795 0)
(0.0187713716501 0.137855830972 0)
(0.0172312101854 0.137848114222 0)
(0.0157015570606 0.137801453565 0)
(0.0142212447253 0.137727233061 0)
(0.012823713734 0.137637058358 0)
(0.0115320270775 0.137541495855 0)
(0.0103565993101 0.137448033747 0)
(0.00929612346083 0.137362757984 0)
(0.00834080878197 0.137288495794 0)
(0.00747627795838 0.137226223696 0)
(0.00668743506436 0.137174739087 0)
(0.00596069222171 0.137132553577 0)
(0.00528502078108 0.137097560754 0)
(0.00465181532533 0.137068240831 0)
(0.00405462469405 0.137043040922 0)
(0.0034885355559 0.137021089044 0)
(0.00294976818284 0.137001690704 0)
(0.00243487945313 0.136984903319 0)
(0.00193994765788 0.136971190072 0)
(0.00145946130312 0.136961148004 0)
(0.000987739027428 0.136952258282 0)
(0.00053080032631 0.136926997982 0)
(0.000151372857936 0.136837773217 0)
(-2.70294428816e-06 0.13665606471 0)
(0.000494993170205 0.245244311884 0)
(0.00145126745405 0.245256604951 0)
(0.00236489402836 0.245362218849 0)
(0.00322198779996 0.245538439065 0)
(0.00397556544822 0.245756577493 0)
(0.00460939731627 0.245999599207 0)
(0.00511167229938 0.246255259199 0)
(0.00547443793213 0.246516850637 0)
(0.00569300575818 0.24677666556 0)
(0.00576515372856 0.247031758318 0)
(0.00569075153349 0.247278734905 0)
(0.00546879036084 0.247527415059 0)
(0.00509487385944 0.247785111265 0)
(0.00456687741151 0.248056305358 0)
(0.00388884955765 0.248346997588 0)
(0.00306740788492 0.248674273856 0)
(0.00211597825353 0.249037711346 0)
(0.00106468222267 0.249413601377 0)
(-9.57146630767e-05 0.249780542041 0)
(-0.00142248597716 0.250081047948 0)
(-0.00298933127082 0.250297812884 0)
(-0.00483775531878 0.250509512854 0)
(-0.0068713189515 0.250777415524 0)
(-0.00894402573355 0.251091518881 0)
(-0.0109964776963 0.251380783799 0)
(-0.0130318470349 0.251592681354 0)
(-0.0150626430978 0.251711841551 0)
(-0.0170870407022 0.251750539478 0)
(-0.0190933746473 0.251718957003 0)
(-0.0210673577623 0.251633848843 0)
(-0.0229955369674 0.251502581256 0)
(-0.0248657788221 0.251338414525 0)
(-0.0266673694966 0.251145173962 0)
(-0.0283906791147 0.25093355299 0)
(-0.0300272478857 0.250704961587 0)
(-0.0315695680489 0.250468441823 0)
(-0.0330112035008 0.250223772239 0)
(-0.0343465943404 0.249978880735 0)
(-0.0355711535663 0.249732357552 0)
(-0.0366810811533 0.249491264684 0)
(-0.0376734387272 0.249253240502 0)
(-0.0385459758889 0.249024600258 0)
(-0.0392971831563 0.248802197438 0)
(-0.0399261310822 0.248591688151 0)
(-0.0404325031775 0.248389297137 0)
(-0.0408164500946 0.248200117016 0)
(-0.0410787158114 0.24801990803 0)
(-0.041218822331 0.247853389228 0)
(-0.0412370897114 0.247696170198 0)
(-0.0411372100322 0.247551957407 0)
(-0.0409218869153 0.247415341015 0)
(-0.040592751608 0.247290652884 0)
(-0.0401526380042 0.247173345964 0)
(-0.0396045207853 0.247067402477 0)
(-0.0389515927081 0.246968085121 0)
(-0.0381972891531 0.246879062958 0)
(-0.0373453640986 0.246795504108 0)
(-0.0363998859429 0.24672085304 0)
(-0.0353652965091 0.246650251858 0)
(-0.0342464037582 0.246586980382 0)
(-0.0330484370464 0.246526192939 0)
(-0.031777039457 0.246471048576 0)
(-0.0304383179372 0.246416736982 0)
(-0.0290388311981 0.246366328554 0)
(-0.0275856293383 0.246315063969 0)
(-0.0260862286197 0.246265955532 0)
(-0.0245486255946 0.246214313976 0)
(-0.0229812405594 0.24616312482 0)
(-0.0213928799114 0.246107800042 0)
(-0.0197926134325 0.246051348719 0)
(-0.0181896332712 0.245989356222 0)
(-0.0165929988696 0.24592496339 0)
(-0.0150113011528 0.245854107644 0)
(-0.0134521424657 0.245780342552 0)
(-0.0119213779069 0.245700404758 0)
(-0.0104219097517 0.245618929071 0)
(-0.00895176591962 0.24553440433 0)
(-0.00750119075494 0.245453784798 0)
(-0.00604915580388 0.245378653423 0)
(-0.00456351756193 0.24531850767 0)
(-0.003020025728 0.245272845957 0)
(-0.00145301444424 0.245246931859 0)
(6.45098178007e-05 0.24524318887 0)
(0.00149925705245 0.245268667131 0)
(0.00285704086478 0.24532164371 0)
(0.00416254271092 0.245399257652 0)
(0.00544650656633 0.245484861468 0)
(0.00672765815318 0.245570912248 0)
(0.00801546480101 0.245647478275 0)
(0.00931348200043 0.24571402523 0)
(0.0106212491369 0.245767003665 0)
(0.0119353925555 0.245810254363 0)
(0.0132504716744 0.245843540785 0)
(0.014559419555 0.245872484356 0)
(0.0158540403176 0.24589804131 0)
(0.0171252456407 0.245926036602 0)
(0.0183634175393 0.24595753343 0)
(0.019558567294 0.245997889275 0)
(0.0207006458775 0.246047946387 0)
(0.0217796579735 0.246112536392 0)
(0.0227859138618 0.246192401677 0)
(0.0237100786105 0.24629209033 0)
(0.0245433493246 0.246412525695 0)
(0.0252774407682 0.246558254243 0)
(0.0259047011667 0.246730580943 0)
(0.0264180455876 0.246934116608 0)
(0.0268110892285 0.247170341217 0)
(0.0270781246199 0.247443299915 0)
(0.0272162062402 0.247752956917 0)
(0.0272269225263 0.248098169639 0)
(0.0271114580535 0.248474456679 0)
(0.0268671628271 0.248878621461 0)
(0.0264923095927 0.249298265678 0)
(0.0259854987825 0.249717005254 0)
(0.0253415319277 0.25011067941 0)
(0.0245523324387 0.250453579708 0)
(0.0236120299051 0.250718336774 0)
(0.0225247648928 0.25088340372 0)
(0.0213111047989 0.250934297685 0)
(0.0200084508502 0.250873161215 0)
(0.0186644232783 0.25071973838 0)
(0.0173261986293 0.250508385316 0)
(0.0160304152741 0.250273766852 0)
(0.0147971473109 0.25004432366 0)
(0.0136310146363 0.249836648445 0)
(0.0125271637297 0.249658247901 0)
(0.011477106302 0.249508657904 0)
(0.0104721004695 0.24938469598 0)
(0.00950453161705 0.24928150209 0)
(0.00856799256391 0.2491952185 0)
(0.00765698898557 0.249122266997 0)
(0.006766501868 0.249060589245 0)
(0.00589163734909 0.249008922764 0)
(0.00502716595713 0.248967800825 0)
(0.00416714994686 0.248938843121 0)
(0.00330511396596 0.24892301644 0)
(0.00243609840678 0.248909881157 0)
(0.00156792441902 0.24884358727 0)
(0.000763795402625 0.248584957212 0)
(0.00019558156555 0.247962746492 0)
(0.000455814217902 0.222270337406 0)
(0.00131974585276 0.22230992847 0)
(0.0021276746407 0.222509412442 0)
(0.00288223350341 0.222812118588 0)
(0.00353892062067 0.223184244103 0)
(0.00408159214814 0.223605074921 0)
(0.00449571882472 0.224059786719 0)
(0.00476826785511 0.224539110759 0)
(0.0048885301702 0.225033018992 0)
(0.00484753339635 0.225536916309 0)
(0.00464065893046 0.226051156264 0)
(0.00426051601392 0.226590567366 0)
(0.00369417070483 0.227154786177 0)
(0.00293471267149 0.227748024832 0)
(0.00198879421042 0.228368687054 0)
(0.00085473181342 0.229042211642 0)
(-0.000492762848966 0.229766196216 0)
(-0.00203208046847 0.230475133668 0)
(-0.00372900383482 0.231118136827 0)
(-0.00560042021964 0.231669109515 0)
(-0.0076398172145 0.232142445331 0)
(-0.00982142640721 0.232593854135 0)
(-0.0120771480759 0.233065128114 0)
(-0.0142928262604 0.233520566279 0)
(-0.0164092381626 0.233892084692 0)
(-0.0184277865755 0.234143882289 0)
(-0.0203678822946 0.234266449463 0)
(-0.0222439607984 0.234271643257 0)
(-0.0240619474537 0.234172506671 0)
(-0.0258220123115 0.233987028689 0)
(-0.027521635287 0.233727387805 0)
(-0.029156874458 0.233409036553 0)
(-0.0307231661257 0.233041137086 0)
(-0.0322155054271 0.232636418594 0)
(-0.0336288772895 0.23220133643 0)
(-0.0349583256368 0.231746280971 0)
(-0.0361992664697 0.231275440959 0)
(-0.0373474626793 0.230797261401 0)
(-0.038399219415 0.230314056733 0)
(-0.0393512956931 0.229832636612 0)
(-0.0402010256569 0.229353754879 0)
(-0.0409462081362 0.228882841655 0)
(-0.0415851855039 0.228419375448 0)
(-0.0421167347798 0.227967648065 0)
(-0.0425401223065 0.227526138751 0)
(-0.0428549968452 0.227098235688 0)
(-0.0430610626028 0.226681670102 0)
(-0.0431569887639 0.226279674484 0)
(-0.0431429833275 0.225889196319 0)
(-0.0430223103395 0.225512457765 0)
(-0.0427969719322 0.22514699185 0)
(-0.0424679495683 0.224794895827 0)
(-0.042037354226 0.224453300407 0)
(-0.0415075102853 0.22412432933 0)
(-0.0408810069354 0.223805253747 0)
(-0.040160696298 0.22349819797 0)
(-0.0393497419374 0.223200575851 0)
(-0.038451613962 0.222914552035 0)
(-0.0374701278797 0.222637737537 0)
(-0.0364094346924 0.222372399593 0)
(-0.035274053618 0.222116404794 0)
(-0.0340688540343 0.221872190879 0)
(-0.0327990773548 0.221637941124 0)
(-0.0314703044875 0.221416332843 0)
(-0.0300884580765 0.221205926942 0)
(-0.0286597422988 0.221009712154 0)
(-0.0271906070172 0.220826689834 0)
(-0.0256876392107 0.22066022453 0)
(-0.0241574602539 0.220509805172 0)
(-0.0226065335014 0.22037920599 0)
(-0.0210409485665 0.220268397617 0)
(-0.0194660947398 0.220181499053 0)
(-0.0178862707086 0.220118794736 0)
(-0.0163041505051 0.220084426659 0)
(-0.0147201144612 0.220078410658 0)
(-0.0131313657484 0.220103907021 0)
(-0.0115308537754 0.220158896963 0)
(-0.00990630158454 0.220242460984 0)
(-0.00824059293116 0.220345236629 0)
(-0.00651661312302 0.220454082439 0)
(-0.00472934555767 0.220543756083 0)
(-0.0029090535802 0.220590669723 0)
(-0.00112562618854 0.220587968166 0)
(0.000573859261317 0.220549718748 0)
(0.00219349888926 0.220483581532 0)
(0.00374099507054 0.220410303365 0)
(0.00522107222874 0.22034662999 0)
(0.00664565177575 0.220300975118 0)
(0.00802499293893 0.220277326941 0)
(0.00936596643743 0.220280127412 0)
(0.0106727899596 0.22030976679 0)
(0.0119475398809 0.2203686755 0)
(0.0131904793358 0.220455785998 0)
(0.0144003202164 0.220572324512 0)
(0.0155745346667 0.220716541373 0)
(0.0167094918819 0.220889037302 0)
(0.017800742869 0.221087808295 0)
(0.0188431425858 0.221313251244 0)
(0.0198311289433 0.221563541797 0)
(0.0207588489479 0.221839307018 0)
(0.0216204309201 0.222139312362 0)
(0.0224100934146 0.22246477847 0)
(0.023122387914 0.222815349475 0)
(0.0237522831895 0.223193041932 0)
(0.0242953903113 0.223598470593 0)
(0.0247480709423 0.224034415276 0)
(0.0251077548962 0.224502254803 0)
(0.0253733755834 0.225005029073 0)
(0.0255434897092 0.225543820571 0)
(0.0256207427732 0.226118612969 0)
(0.0256133745379 0.226722517654 0)
(0.0255235478393 0.227351219786 0)
(0.0253493706221 0.227998333727 0)
(0.0250907629082 0.228652475923 0)
(0.0247455122735 0.229296476649 0)
(0.0243068027317 0.229909219568 0)
(0.0237619967285 0.230462999437 0)
(0.023092520585 0.23092563379 0)
(0.0222789650154 0.231261777738 0)
(0.0213136559325 0.231442239346 0)
(0.0202134687449 0.231452687928 0)
(0.01902099265 0.231307944767 0)
(0.0177912915687 0.23105608237 0)
(0.0165715653514 0.230760708343 0)
(0.0153870924014 0.230471130421 0)
(0.0142423177046 0.230213055936 0)
(0.0131317206518 0.229993132538 0)
(0.0120485141882 0.229808872915 0)
(0.0109876125818 0.229654459571 0)
(0.00994544790299 0.229524854909 0)
(0.00891914842503 0.229416142566 0)
(0.00790581065135 0.229326330456 0)
(0.00690211102279 0.229254978181 0)
(0.00590401391833 0.22920382271 0)
(0.00490675718031 0.229175863826 0)
(0.0039053593594 0.229171151333 0)
(0.00289514736106 0.229167919706 0)
(0.00188470682917 0.229072898564 0)
(0.000945629377215 0.228649960789 0)
(0.000254558756481 0.227486597385 0)
(0.000364350079977 0.224535855034 0)
(0.0010532247847 0.224618815765 0)
(0.00169125152027 0.224900638246 0)
(0.00227790826776 0.225315301335 0)
(0.0027763703959 0.225823878169 0)
(0.00317013434656 0.226405564173 0)
(0.00344226475772 0.227046976709 0)
(0.0035750697553 0.22773896747 0)
(0.00354983224767 0.228473776701 0)
(0.00335159410298 0.229247550928 0)
(0.00295765411595 0.230082035723 0)
(0.00234122763773 0.230970935254 0)
(0.00148482853217 0.231905167535 0)
(0.000346937831897 0.232922143206 0)
(-0.0010879726141 0.233991504727 0)
(-0.00276662907506 0.23507993148 0)
(-0.00463010411475 0.236140331645 0)
(-0.00660423487442 0.237118022014 0)
(-0.00862080073311 0.237965137808 0)
(-0.0106889165064 0.238671515506 0)
(-0.0128255605561 0.239280021598 0)
(-0.0149981807652 0.23981684379 0)
(-0.0171536640859 0.240294381741 0)
(-0.0192369139591 0.240699283997 0)
(-0.0212157463481 0.241000469285 0)
(-0.0230861900134 0.241177046023 0)
(-0.0248594295913 0.241221989706 0)
(-0.0265481185511 0.24114201117 0)
(-0.0281614542863 0.240947551077 0)
(-0.0297048423197 0.24065334646 0)
(-0.0311811221522 0.240272247859 0)
(-0.0325912014128 0.239818926366 0)
(-0.0339347031337 0.239304954551 0)
(-0.035210135426 0.238743232502 0)
(-0.0364153398761 0.238143183328 0)
(-0.0375476127074 0.237515466972 0)
(-0.0386040757306 0.236867175765 0)
(-0.0395817299387 0.23620673762 0)
(-0.0404777158039 0.235539077746 0)
(-0.0412892980841 0.234870629769 0)
(-0.042014037411 0.234204461729 0)
(-0.0426497382644 0.233545340945 0)
(-0.0431945622585 0.232894840948 0)
(-0.0436469638396 0.2322564111 0)
(-0.0440057677567 0.231630491699 0)
(-0.0442701311042 0.231019547558 0)
(-0.0444382130162 0.230423228092 0)
(-0.0445084284266 0.229843676638 0)
(-0.0444816752142 0.229279798319 0)
(-0.0443594257465 0.228732872563 0)
(-0.0441426892948 0.228202118499 0)
(-0.0438324949964 0.227688779757 0)
(-0.0434301607448 0.227191817291 0)
(-0.0429372709286 0.226712479687 0)
(-0.0423556981742 0.226249842244 0)
(-0.0416875924336 0.225805226727 0)
(-0.0409354076883 0.225377885316 0)
(-0.0401018886793 0.224969270618 0)
(-0.0391900915577 0.224578867618 0)
(-0.038203363929 0.224208310977 0)
(-0.0371453584753 0.223857362613 0)
(-0.0360200019098 0.22352788262 0)
(-0.0348314962053 0.223219943529 0)
(-0.0335842689329 0.222935658784 0)
(-0.0322829531241 0.222675422087 0)
(-0.0309323085012 0.222441600689 0)
(-0.0295371654973 0.222234880188 0)
(-0.0281023023342 0.222057821282 0)
(-0.0266323339236 0.221911284725 0)
(-0.0251315259791 0.221797845497 0)
(-0.0236036059144 0.221718258919 0)
(-0.0220514959702 0.221674708914 0)
(-0.0204770297371 0.221667260521 0)
(-0.0188805992223 0.22169690728 0)
(-0.0172607806101 0.221761925726 0)
(-0.0156139410756 0.221860651344 0)
(-0.013933964182 0.221987590995 0)
(-0.0122124951156 0.222135805802 0)
(-0.0104405811158 0.222292786253 0)
(-0.00861295756996 0.222443200187 0)
(-0.00673525432638 0.222567096717 0)
(-0.00483025071051 0.222647348153 0)
(-0.00293453260322 0.222675652096 0)
(-0.00109727683508 0.222662375556 0)
(0.000658193065002 0.222619037161 0)
(0.00234639580397 0.222549597838 0)
(0.00396567962325 0.222466096051 0)
(0.00550859427367 0.222386874723 0)
(0.00697994860909 0.222320933591 0)
(0.00838363122242 0.222278002064 0)
(0.0097238628178 0.222264454522 0)
(0.0110038115419 0.222285676075 0)
(0.0122260996769 0.222344659494 0)
(0.0133924984854 0.222444298381 0)
(0.0145039398191 0.222585250458 0)
(0.0155605077363 0.222768399085 0)
(0.0165615540977 0.222992907613 0)
(0.0175057093244 0.223258508145 0)
(0.0183910727723 0.223563672703 0)
(0.0192152823431 0.223907755353 0)
(0.0199757425925 0.224289248839 0)
(0.0206697151546 0.224707745352 0)
(0.021294551066 0.225162251118 0)
(0.021847782687 0.225652943561 0)
(0.0223273564006 0.226179522097 0)
(0.0227317453855 0.226742733231 0)
(0.0230602314217 0.227342693888 0)
(0.0233130182467 0.227980071254 0)
(0.0234913434482 0.228654110021 0)
(0.0235948028922 0.229364615693 0)
(0.0236282223777 0.230105200113 0)
(0.0236009960911 0.230868830827 0)
(0.0235125063033 0.231650515229 0)
(0.0233595397764 0.232441015464 0)
(0.0231421731743 0.23322783714 0)
(0.0228572044945 0.233995652174 0)
(0.0224976523905 0.234725069949 0)
(0.0220523541498 0.235393175593 0)
(0.0215056771978 0.235971589742 0)
(0.0208369150672 0.236425165239 0)
(0.020024811536 0.236712954763 0)
(0.0190640571515 0.236803378465 0)
(0.017982324865 0.236697837832 0)
(0.0168349482109 0.23644774076 0)
(0.0156776809416 0.236136672238 0)
(0.0145420024118 0.235833909775 0)
(0.0134335034881 0.235569583704 0)
(0.0123465840386 0.23534703862 0)
(0.0112757143803 0.235160076373 0)
(0.010217754417 0.235002345401 0)
(0.00917090363124 0.234869737719 0)
(0.0081334787199 0.234760923783 0)
(0.00710323577264 0.234676953596 0)
(0.00607697074233 0.234621356969 0)
(0.00505051675616 0.234598749361 0)
(0.00401887625035 0.234608079021 0)
(0.00297720376673 0.23461629579 0)
(0.00193922828987 0.2344945961 0)
(0.000983594867166 0.233892098049 0)
(0.000271025154351 0.232167418276 0)
(0.00025849047265 0.222890100418 0)
(0.000741790917061 0.223012478249 0)
(0.00117752890788 0.223370628778 0)
(0.00156185679681 0.223886781354 0)
(0.00186382937364 0.224520040491 0)
(0.002065869808 0.225252175903 0)
(0.00214678540237 0.226075160747 0)
(0.00208099221667 0.226985114297 0)
(0.001840234189 0.227978439966 0)
(0.00139057976149 0.229083827372 0)
(0.00066132920901 0.230335314585 0)
(-0.00041854176773 0.231689165563 0)
(-0.00184422498017 0.233134884759 0)
(-0.00356288099051 0.234648351342 0)
(-0.00549599585623 0.236143797139 0)
(-0.00752215865847 0.237560008294 0)
(-0.00956344587866 0.238823917603 0)
(-0.0116132629991 0.239917750064 0)
(-0.0136652781591 0.240848481529 0)
(-0.0157118111587 0.241620947701 0)
(-0.0177500688321 0.242257832372 0)
(-0.0197662953415 0.242782279046 0)
(-0.0217322614041 0.243202885416 0)
(-0.0236180233997 0.243514792019 0)
(-0.025405970823 0.24370612249 0)
(-0.027093506962 0.24376848202 0)
(-0.0286874177659 0.243700060608 0)
(-0.0301969915632 0.243506499745 0)
(-0.0316305723888 0.243196995361 0)
(-0.0329944058 0.242783688116 0)
(-0.0342929427336 0.242278860111 0)
(-0.0355289454038 0.24169570279 0)
(-0.0367038888756 0.241046295936 0)
(-0.0378180000434 0.240342865361 0)
(-0.0388706261616 0.239595964605 0)
(-0.0398603107951 0.238815970949 0)
(-0.0407851470615 0.238011371254 0)
(-0.0416428398874 0.237190430505 0)
(-0.0424309848388 0.236359526238 0)
(-0.0431470852267 0.235524923191 0)
(-0.0437887504077 0.234691116387 0)
(-0.0443536781288 0.233862664143 0)
(-0.044839789706 0.233042520579 0)
(-0.0452451951748 0.232233889773 0)
(-0.0455682850718 0.231438546274 0)
(-0.0458076834433 0.23065868566 0)
(-0.0459608689379 0.229895267038 0)
(-0.0460256195285 0.229149736861 0)
(-0.046002251963 0.228422555193 0)
(-0.0458918196681 0.227714928748 0)
(-0.0456949612659 0.22702696849 0)
(-0.0454121368228 0.2263596334 0)
(-0.0450440511194 0.225713062212 0)
(-0.0445916652786 0.225088216825 0)
(-0.0440562247902 0.224485318289 0)
(-0.0434392502025 0.223905412009 0)
(-0.0427425552651 0.223348870166 0)
(-0.0419682304549 0.222816880119 0)
(-0.041118653378 0.222310016526 0)
(-0.0401964630574 0.221829648648 0)
(-0.0392045622924 0.221376583203 0)
(-0.0381460788335 0.22095239218 0)
(-0.037024355387 0.220558121744 0)
(-0.0358428920833 0.220195540225 0)
(-0.0346053171391 0.219865904024 0)
(-0.0333153034621 0.219571127875 0)
(-0.0319765103296 0.219312590473 0)
(-0.0305924665493 0.219092223551 0)
(-0.0291664732345 0.218911332666 0)
(-0.0277014477214 0.218771599652 0)
(-0.0261997815031 0.218673882582 0)
(-0.0246631489959 0.218619117432 0)
(-0.0230923312703 0.218607051944 0)
(-0.0214870203507 0.218637032593 0)
(-0.01984566396 0.21870662063 0)
(-0.0181653877983 0.218812251088 0)
(-0.0164421375064 0.218947694893 0)
(-0.0146713513455 0.21910464266 0)
(-0.0128495977416 0.21927126669 0)
(-0.0109776052862 0.219433534439 0)
(-0.00906399569168 0.219575612258 0)
(-0.00712740899746 0.219684324668 0)
(-0.00519505009672 0.219751874057 0)
(-0.00329373464566 0.2197785755 0)
(-0.00145546726923 0.219777830685 0)
(0.000304835677783 0.219759232263 0)
(0.00199739872493 0.219728155083 0)
(0.00361532183934 0.219692824409 0)
(0.0051520594274 0.219665346245 0)
(0.00661045329055 0.219659964599 0)
(0.00798984655266 0.219682656665 0)
(0.00929335157335 0.219741067595 0)
(0.0105240976484 0.219840207683 0)
(0.0116846677531 0.219983579826 0)
(0.0127774724148 0.220173231121 0)
(0.0138044306232 0.220410494625 0)
(0.0147669417243 0.220695441387 0)
(0.0156658409774 0.221027789058 0)
(0.0165014895505 0.221406495287 0)
(0.0172737773792 0.221830546225 0)
(0.0179823010008 0.222298540441 0)
(0.0186264092303 0.222809400757 0)
(0.0192054023255 0.223361911037 0)
(0.0197186000343 0.223955319989 0)
(0.0201655533166 0.224588820808 0)
(0.0205461284091 0.225262017901 0)
(0.0208607222428 0.225974306971 0)
(0.0211103448253 0.226725135029 0)
(0.0212968990033 0.227513247126 0)
(0.0214183397424 0.228336463547 0)
(0.0214777610491 0.229191654328 0)
(0.0214867791672 0.230071129055 0)
(0.0214458558445 0.230967834537 0)
(0.0213506552621 0.231875519312 0)
(0.021201420079 0.232784300929 0)
(0.0209965215075 0.233682089831 0)
(0.0207322038576 0.234553953298 0)
(0.0204020773166 0.235381886181 0)
(0.0199967356512 0.236143568517 0)
(0.0195035098222 0.236811512808 0)
(0.0189061408826 0.237351335268 0)
(0.0181847773743 0.237720366382 0)
(0.017324650123 0.237875139296 0)
(0.0163369896695 0.237803667946 0)
(0.0152682548389 0.237558843958 0)
(0.0141757195895 0.237241138489 0)
(0.0130949791891 0.236934422777 0)
(0.0120346093826 0.23667159603 0)
(0.0109912325347 0.236452382007 0)
(0.00996072735402 0.236268651153 0)
(0.00894055737076 0.236114688045 0)
(0.00792881680432 0.235989035843 0)
(0.00692328908311 0.235893988556 0)
(0.0059208468689 0.235835031992 0)
(0.00491737051745 0.235818671347 0)
(0.0039073946548 0.235843014034 0)
(0.00288705845256 0.235864126484 0)
(0.00187598970543 0.235712729061 0)
(0.000956496260973 0.234908668999 0)
(0.000267568627179 0.232642471029 0)
(0.000148025086567 0.22230758159 0)
(0.00041572218072 0.22246863934 0)
(0.000637068305897 0.222899390395 0)
(0.000804987084212 0.223510545449 0)
(0.00089404205227 0.224262274807 0)
(0.000883271688046 0.225143253457 0)
(0.000739974146472 0.226157650604 0)
(0.000413396748082 0.227316997695 0)
(-0.000166223861769 0.228659064312 0)
(-0.00108295393161 0.230246134432 0)
(-0.00238845840024 0.23203571136 0)
(-0.00405920235502 0.233935499408 0)
(-0.00598434260304 0.235881383355 0)
(-0.0080205762626 0.237755558097 0)
(-0.0100898778874 0.239464527715 0)
(-0.012155466452 0.240990456719 0)
(-0.0141884995569 0.242311378432 0)
(-0.0161816174887 0.24342739675 0)
(-0.0181370448004 0.244353327097 0)
(-0.0200581160937 0.245107967916 0)
(-0.021943387167 0.245709322233 0)
(-0.023783363579 0.246172777396 0)
(-0.025562303844 0.246507032876 0)
(-0.0272641018492 0.246713314229 0)
(-0.0288792984551 0.246788835014 0)
(-0.0304067485174 0.246732092108 0)
(-0.0318511633737 0.24654522056 0)
(-0.033219311961 0.246234444613 0)
(-0.0345178972812 0.245808785653 0)
(-0.0357524174762 0.245279177699 0)
(-0.0369271499298 0.244657307733 0)
(-0.0380450106397 0.243955288522 0)
(-0.0391078186196 0.24318493144 0)
(-0.0401162497554 0.242357740454 0)
(-0.0410701377775 0.241484358982 0)
(-0.0419684972464 0.240574761433 0)
(-0.0428098337119 0.239637804826 0)
(-0.0435921831148 0.23868158041 0)
(-0.0443133739349 0.237713019898 0)
(-0.044971045 0.236738360255 0)
(-0.0455628419911 0.23576275934 0)
(-0.0460864115723 0.234790834446 0)
(-0.0465395400572 0.233826258325 0)
(-0.0469201335162 0.232872340811 0)
(-0.0472263096388 0.231931594344 0)
(-0.0474563614524 0.231006338716 0)
(-0.0476074971435 0.230098243887 0)
(-0.0476769750797 0.229208824401 0)
(-0.0476644552015 0.228339224474 0)
(-0.0475708273392 0.227490751683 0)
(-0.0473965512523 0.226664235329 0)
(-0.0471416165339 0.225860753535 0)
(-0.0468062496637 0.225081122885 0)
(-0.0463909225857 0.22432642943 0)
(-0.0458963788422 0.223597544653 0)
(-0.0453236266648 0.222895624877 0)
(-0.0446739530386 0.222221655914 0)
(-0.0439489075881 0.221576912085 0)
(-0.0431503085411 0.220962532664 0)
(-0.0422802157101 0.220379934893 0)
(-0.0413409282055 0.219830423823 0)
(-0.0403349438499 0.219315558505 0)
(-0.0392649456736 0.218836791906 0)
(-0.0381337441338 0.21839578923 0)
(-0.0369442475849 0.217994089797 0)
(-0.035699383732 0.217633378445 0)
(-0.0344020485927 0.217315153996 0)
(-0.0330550050203 0.217040952228 0)
(-0.0316608066797 0.216811999279 0)
(-0.0302216763712 0.216629384636 0)
(-0.0287394088458 0.216493670462 0)
(-0.027215244286 0.216405010895 0)
(-0.0256497733606 0.216362686178 0)
(-0.024042851805 0.216365171522 0)
(-0.0223935813673 0.216409574384 0)
(-0.0207004030303 0.216491676605 0)
(-0.0189614059986 0.216605306669 0)
(-0.017175053042 0.216742485013 0)
(-0.0153414821014 0.216893036367 0)
(-0.0134644542728 0.217045450596 0)
(-0.0115533230957 0.217187740894 0)
(-0.00962396670149 0.217309860659 0)
(-0.00769699428299 0.217405595378 0)
(-0.00579445615242 0.217474673058 0)
(-0.00393864311756 0.217519792326 0)
(-0.00214238578413 0.217554349464 0)
(-0.000418735052441 0.217587308883 0)
(0.00122644793864 0.217622504263 0)
(0.00280057367384 0.21766902025 0)
(0.00429441471338 0.21773287286 0)
(0.00570376639548 0.217824562565 0)
(0.00703369141315 0.217952174544 0)
(0.00828397571017 0.218119373151 0)
(0.00945743648643 0.21833100665 0)
(0.0105567811245 0.218589990288 0)
(0.0115843132723 0.218897758049 0)
(0.0125422168783 0.219254914214 0)
(0.0134323396419 0.219661516024 0)
(0.0142561488713 0.220116944033 0)
(0.015014750433 0.220620266822 0)
(0.0157090140344 0.221170276599 0)
(0.0163395574799 0.221765745972 0)
(0.0169069121837 0.222405398869 0)
(0.0174115560887 0.223088096074 0)
(0.0178540916612 0.223812729244 0)
(0.0182352895738 0.224578312514 0)
(0.0185562575549 0.225383770707 0)
(0.0188184538442 0.22622790418 0)
(0.0190237155017 0.227109020667 0)
(0.0191726558628 0.228024724178 0)
(0.0192648641106 0.22897326973 0)
(0.0193068019326 0.229946835861 0)
(0.0193060250796 0.230937381043 0)
(0.0192602981196 0.231940841245 0)
(0.0191664700994 0.232949241337 0)
(0.0190239033904 0.233953001159 0)