/*--------------------------------*- C++ -*----------------------------------*\
| =========                 |                                                 |
| \\      /  F ield         | OpenFOAM: The Open Source CFD Toolbox           |
|  \\    /   O peration     | Version:  2206                                  |
|   \\  /    A nd           | Website:  www.openfoam.com                      |
|    \\/     M anipulation  |                                                 |
\*---------------------------------------------------------------------------*/
FoamFile
{
    version     2.0;
    format      ascii;
    arch        "LSB;label=64;scalar=64";
    class       volScalarField;
    location    "4.2/water";
    object      alphat.gas;
}
// * * * * * * * * * * * * * * * * * * * * * * * * * * * * * * * * * * * * * //

dimensions      [1 -1 -1 0 0 0 0];

internalField   nonuniform List<scalar> 
23300
(
9.3237763407e-05
9.15708707155e-05
8.9545508358e-05
8.70733524884e-05
8.42433267268e-05
8.11317240641e-05
7.78009066144e-05
7.43053764026e-05
7.06945273693e-05
6.70152996986e-05
6.33120855809e-05
5.962711925e-05
5.5999440644e-05
5.2464392593e-05
4.90527604336e-05
4.57902741237e-05
4.26973863996e-05
3.97891811221e-05
3.70757690875e-05
3.45625927917e-05
3.22511737241e-05
3.01396043709e-05
2.82233567919e-05
2.64957534841e-05
2.49486498817e-05
2.35727753585e-05
2.2358232198e-05
2.12947018163e-05
2.03717926618e-05
1.95791602635e-05
1.89067615204e-05
1.8344932047e-05
1.78845801993e-05
1.75172329079e-05
1.72351731293e-05
1.70314461943e-05
1.68999380427e-05
1.68353404712e-05
1.68331801857e-05
1.68897572845e-05
1.70021493186e-05
1.71681516014e-05
1.7386298463e-05
1.76558719962e-05
1.79760142622e-05
1.83464247386e-05
1.87674584778e-05
1.92400066644e-05
1.97654653437e-05
2.03456929255e-05
2.09830118629e-05
2.1680194054e-05
2.24404715081e-05
2.3267538811e-05
2.41655628828e-05
2.51391975547e-05
2.61935826356e-05
2.73343645055e-05
2.85676701584e-05
2.99001225876e-05
3.13387673081e-05
3.28910617016e-05
3.45647191512e-05
3.63676360151e-05
3.83076002549e-05
4.03920995762e-05
4.26278136821e-05
4.50202181876e-05
4.75727411009e-05
5.02860326266e-05
5.31566084051e-05
5.61755806565e-05
5.93265053663e-05
6.25832193018e-05
6.59063793177e-05
6.92397104592e-05
7.2504203447e-05
7.5591225011e-05
7.83518632469e-05
8.05829665352e-05
8.20080731999e-05
8.22786898259e-05
8.12056025196e-05
7.91184117433e-05
7.63899145564e-05
7.32810289637e-05
6.99651505601e-05
6.65598287147e-05
6.31466776702e-05
5.97840127596e-05
5.65135042488e-05
5.33649783284e-05
5.03588545406e-05
4.75085426292e-05
4.48216254264e-05
4.23014066576e-05
3.99476281799e-05
3.7757580409e-05
3.57265624013e-05
3.38486807403e-05
3.21171259681e-05
3.05247290081e-05
2.90641028535e-05
2.77280189662e-05
2.65094593541e-05
2.540187107e-05
2.43991704551e-05
2.34959279766e-05
2.26873657565e-05
2.19695283796e-05
2.13392337459e-05
2.0793720841e-05
2.03311714782e-05
1.99507812718e-05
1.96527592166e-05
1.94384523549e-05
1.93103939899e-05
1.92724529089e-05
1.93299037384e-05
1.94895691719e-05
1.97598607911e-05
2.015083811e-05
2.06741060096e-05
2.1342635127e-05
2.21703124026e-05
2.31712806171e-05
2.43588826539e-05
2.57442954317e-05
2.73347587302e-05
2.91316236981e-05
3.11283456976e-05
3.3308889856e-05
3.56469138506e-05
3.81062557326e-05
4.06428025617e-05
4.32071628717e-05
4.57456550891e-05
4.81932856356e-05
5.04439211306e-05
5.22683497605e-05
8.08191780138e-05
8.01071369369e-05
7.88905230002e-05
7.72557959099e-05
7.52749928951e-05
7.30091602918e-05
7.05114619499e-05
6.78297986159e-05
6.5008561841e-05
6.20896648642e-05
5.91128773198e-05
5.61157335024e-05
5.31331583696e-05
5.01969702953e-05
4.7335436203e-05
4.457288925e-05
4.19295678664e-05
3.94215666285e-05
3.70610211633e-05
3.48563577471e-05
3.28127015017e-05
3.0932270518e-05
2.92148393477e-05
2.76581298553e-05
2.62582134957e-05
2.5009823752e-05
2.39066633542e-05
2.29416384446e-05
2.21070962792e-05
2.13950165756e-05
2.07972153589e-05
2.03055166304e-05
1.99119310767e-05
1.96088000489e-05
1.93889321221e-05
1.92456980139e-05
1.91731087936e-05
1.91658533625e-05
1.92193215802e-05
1.93295965321e-05
1.94934426401e-05
1.9708275559e-05
1.99721370874e-05
2.02836518414e-05
2.06415183344e-05
2.10448208086e-05
2.14931869562e-05
2.19867202564e-05
2.25259554278e-05
2.31118167074e-05
2.37455975749e-05
2.44289368191e-05
2.51638109818e-05
2.59525180618e-05
2.6797673923e-05
2.77021957667e-05
2.86692941481e-05
2.97024472004e-05
3.08053771364e-05
3.19820021951e-05
3.3236381166e-05
3.45726234112e-05
3.59947770962e-05
3.75066684773e-05
3.91116990736e-05
4.08125734294e-05
4.26109564653e-05
4.45070325415e-05
4.64989544107e-05
4.85821526575e-05
5.07484793228e-05
5.29851533588e-05
5.52734641507e-05
5.75872017321e-05
5.98907688959e-05
6.21370031538e-05
6.42648022622e-05
6.61969475733e-05
6.78389733402e-05
6.90810856153e-05
6.98072781094e-05
6.99200877249e-05
6.93917767528e-05
6.83004423493e-05
6.67670303025e-05
6.49083162461e-05
6.2822143487e-05
6.0586632317e-05
5.82633215557e-05
5.59006233596e-05
5.35365852843e-05
5.12009780426e-05
4.89168367485e-05
4.6701669888e-05
4.45684140187e-05
4.25262449882e-05
4.05812555754e-05
3.87370536455e-05
3.69952681658e-05
3.53559950924e-05
3.3818169179e-05
3.23798859809e-05
3.10386647905e-05
2.97916732063e-05
2.86359082466e-05
2.75683518012e-05
2.65860977612e-05
2.56864658023e-05
2.48670994877e-05
2.41260586532e-05
2.34619199697e-05
2.28734811502e-05
2.23601535984e-05
2.19220194057e-05
2.15598864758e-05
2.12753467318e-05
2.10708290165e-05
2.09496448425e-05
2.09160130953e-05
2.09750543442e-05
2.11327326272e-05
2.13957252214e-05
2.17711889594e-05
2.2266395325e-05
2.28882011502e-05
2.36423348688e-05
2.45324916251e-05
2.55592674695e-05
2.67190089025e-05
2.8002722326e-05
2.93952619162e-05
3.08750923836e-05
3.2414989579e-05
3.39840976855e-05
3.55518420116e-05
3.7094440612e-05
3.86056041474e-05
4.01156289116e-05
4.17305680099e-05
4.3715058091e-05
7.16375110257e-05
7.12597356359e-05
7.04964037121e-05
6.93928146875e-05
6.7991817787e-05
6.63337447512e-05
6.44569934032e-05
6.23985711601e-05
6.01944467636e-05
5.78796543585e-05
5.5488151151e-05
5.3052486925e-05
5.06033666333e-05
4.81691856002e-05
4.57756191031e-05
4.34453081354e-05
4.11976834669e-05
3.90489185788e-05
3.70120136561e-05
3.50969691257e-05
3.33110324986e-05
3.16589724172e-05
3.01433669511e-05
2.87648740727e-05
2.75224852771e-05
2.64137492173e-05
2.54349787072e-05
2.4581440447e-05
2.38475434532e-05
2.32270263566e-05
2.27131518748e-05
2.2298901564e-05
2.19771690531e-05
2.17409396401e-05
2.15834508713e-05
2.14983242539e-05
2.14796667386e-05
2.15221388107e-05
2.16209936969e-05
2.1772089565e-05
2.19718820011e-05
2.22173990732e-05
2.25062043434e-05
2.2836346166e-05
2.32063354208e-05
2.36148724037e-05
2.40611015449e-05
2.45445683077e-05
2.50651790492e-05
2.56231639379e-05
2.62190474855e-05
2.68536215699e-05
2.7527924087e-05
2.82432169421e-05
2.90009667189e-05
2.98028210471e-05
3.06505840963e-05
3.15461833182e-05
3.24916305595e-05
3.34889685202e-05
3.45402049885e-05
3.56472245289e-05
3.68116791155e-05
3.80348461117e-05
3.93174540837e-05
4.065946375e-05
4.20598036077e-05
4.35160467744e-05
4.50240280842e-05
4.65773885479e-05
4.81670481999e-05
4.97806000306e-05
5.14016368851e-05
5.3009025979e-05
5.45761836809e-05
5.60704422463e-05
5.74526974249e-05
5.86776548237e-05
5.96951928e-05
6.04535521596e-05
6.09051701031e-05
6.10158970295e-05
6.07763123391e-05
6.02072339502e-05
5.93492468395e-05
5.82502887474e-05
5.69580874761e-05
5.55166041598e-05
5.3964796664e-05
5.23364671242e-05
5.06605431437e-05
4.89614990646e-05
4.72598061705e-05
4.55723710797e-05
4.39129547249e-05
4.22925675152e-05
4.07198425965e-05
3.92013831785e-05
3.77420844649e-05
3.63454257881e-05
3.50137344052e-05
3.37484186587e-05
3.25501741264e-05
3.14191627252e-05
3.03551697519e-05
2.93577399637e-05
2.84262977239e-05
2.75602521241e-05
2.67590905177e-05
2.60224593462e-05
2.53502883052e-05
2.47427315063e-05
2.42002858865e-05
2.37238533101e-05
2.33147902207e-05
2.29749433933e-05
2.27066688442e-05
2.25128266891e-05
2.2396743132e-05
2.23621267839e-05
2.24129248728e-05
2.25531020704e-05
2.27863250527e-05
2.31155373517e-05
2.3542416171e-05
2.40667145496e-05
2.46855132991e-05
2.53924359553e-05
2.61769190577e-05
2.70236736414e-05
2.79125191683e-05
2.88188085805e-05
2.97146918196e-05
3.05714863911e-05
3.13634598757e-05
3.20734235476e-05
3.2700787004e-05
3.32735238376e-05
3.38733634983e-05
3.45674448855e-05
6.6011158449e-05
6.57110789148e-05
6.51168716372e-05
6.42481430771e-05
6.31303654648e-05
6.17918175829e-05
6.02620369955e-05
5.85709936924e-05
5.67485816869e-05
5.48242208329e-05
5.28264891248e-05
5.07827536281e-05
4.87188169046e-05
4.66585944696e-05
4.46238562781e-05
4.26340418524e-05
4.070616536e-05
3.88547986828e-05
3.70921288707e-05
3.54280635049e-05
3.38703724134e-05
3.24248393082e-05
3.10954169368e-05
2.98843699184e-05
2.87924101156e-05
2.78188211124e-05
2.6961585138e-05
2.62175149775e-05
2.5582403764e-05
2.50511914222e-05
2.46181519684e-05
2.4277091519e-05
2.40215521122e-05
2.38450060308e-05
2.37410338608e-05
2.37034737833e-05
2.37265406358e-05
2.38049092808e-05
2.39337674705e-05
2.41088381178e-05
2.43263795673e-05
2.45831649385e-05
2.48764486534e-05
2.52039195002e-05
2.55640389932e-05
2.59553215632e-05
2.63766514598e-05
2.68272476919e-05
2.73066303819e-05
2.78145865306e-05
2.83511407849e-05
2.89165266077e-05
2.95111620525e-05
3.01356244256e-05
3.07906275779e-05
3.1476995563e-05
3.21956361792e-05
3.29475076668e-05
3.37335817829e-05
3.45547959824e-05
3.54119975184e-05
3.63058716215e-05
3.72368561649e-05
3.82050345323e-05
3.92100088704e-05
4.0250745297e-05
4.13253933731e-05
4.2431071801e-05
4.35636236328e-05
4.47173349628e-05
4.58846243462e-05
4.70557042962e-05
4.82182350282e-05
4.93569935346e-05
5.04536128619e-05
5.14864677228e-05
5.24308364135e-05
5.32595089799e-05
5.39440594105e-05
5.44569696496e-05
5.47746511504e-05
5.48810316211e-05
5.47706689479e-05
5.44497709355e-05
5.39342532041e-05
5.32456619846e-05
5.24080474449e-05
5.14458293938e-05
5.03824947363e-05
4.92398774153e-05
4.80378110557e-05
4.67940029285e-05
4.55240416049e-05
4.42414800561e-05
4.29579660374e-05
4.16833967031e-05
4.04260885434e-05
3.91929504253e-05
3.79896567639e-05
3.6820812963e-05
3.5690113198e-05
3.46004857131e-05
3.35542278177e-05
3.25531278288e-05
3.15985771769e-05
3.0691670904e-05
2.98332997673e-05
2.90242322341e-05
2.82651888071e-05
2.75569062296e-05
2.69002466058e-05
2.6296334807e-05
2.57464606768e-05
2.52521272886e-05
2.48150822282e-05
2.4437328514e-05
2.41211119012e-05
2.38688766224e-05
2.36831820973e-05
2.35665693146e-05
2.35213667687e-05
2.35494241523e-05
2.36517659403e-05
2.38281600925e-05
2.4076607079e-05
2.4392765877e-05
2.47693530842e-05
2.51955733233e-05
2.56566673999e-05
2.61336911482e-05
2.66036613036e-05
2.70402143139e-05
2.7414917306e-05
2.76993414363e-05
2.78679589462e-05
2.79018530683e-05
2.77931541731e-05
2.75507036917e-05
2.72258543288e-05
2.68456204961e-05
6.15956813809e-05
6.13527596071e-05
6.08728525302e-05
6.01684193782e-05
5.92566815001e-05
5.815818896e-05
5.68956103648e-05
5.54928078114e-05
5.3974134618e-05
5.23638749576e-05
5.0685789067e-05
4.89627286681e-05
4.72163243168e-05
4.54667332841e-05
4.37324593826e-05
4.20302335914e-05
4.03749600459e-05
3.87797079922e-05
3.72557462062e-05
3.58125964745e-05
3.44581018918e-05
3.31984910974e-05
3.20384409991e-05
3.09811291147e-05
3.00282871733e-05
2.91802560602e-05
2.84360584351e-05
2.77934909723e-05
2.72492487425e-05
2.67990771405e-05
2.64379538404e-05
2.61602867933e-05
2.59601223299e-05
2.58313452087e-05
2.5767864055e-05
2.57637677522e-05
2.58134522185e-05
2.59117105034e-05
2.60537924887e-05
2.62354326837e-05
2.64528559974e-05
2.67027615422e-05
2.69822943843e-05
2.72890045286e-05
2.76213660106e-05
2.79778665754e-05
2.83573045185e-05
2.87587562599e-05
2.91815466956e-05
2.96252179521e-05
3.00895024247e-05
3.05742949169e-05
3.10796291096e-05
3.16056524817e-05
3.21526043603e-05
3.27207907803e-05
3.33105605157e-05
3.3922275708e-05
3.45562812157e-05
3.52128658977e-05
3.5892219729e-05
3.65943797992e-05
3.73191689541e-05
3.80661201366e-05
3.88343902958e-05
3.96226572621e-05
4.04290039995e-05
4.12507845659e-05
4.20844775988e-05
4.29255239815e-05
4.37681582102e-05
4.46052361753e-05
4.54280782781e-05
4.62263447402e-05
4.69879817435e-05
4.76992807301e-05
4.83451178601e-05
4.89094394433e-05
4.93760614076e-05
4.97297985708e-05
4.99578541664e-05
5.00512399466e-05
5.00058436729e-05
4.98227245507e-05
4.9507830619e-05
4.90708094782e-05
4.85235322949e-05
4.78790514721e-05
4.71508022158e-05
4.63520323784e-05
4.54954226327e-05
4.45928470373e-05
4.36552389992e-05
4.26925288452e-05
4.17136348166e-05
4.07264878813e-05
3.973808234e-05
3.87545401922e-05
3.77811863166e-05
3.68226265971e-05
3.58828289118e-05
3.49652017573e-05
3.40726720591e-05
3.32077585e-05
3.23726425603e-05
3.15692342948e-05
3.07992349807e-05
3.00641939287e-05
2.93655617279e-05
2.87047386838e-05
2.80831310964e-05
2.75024750577e-05
2.69645382065e-05
2.64711722693e-05
2.60243202334e-05
2.56260024093e-05
2.52782765878e-05
2.498316409e-05
2.47425353636e-05
2.45579457975e-05
2.44304151154e-05
2.43601431688e-05
2.43461604726e-05
2.43859157497e-05
2.44748131994e-05
2.4605722417e-05
2.47685005198e-05
2.4949582491e-05
2.51317162676e-05
2.52939357489e-05
2.54118779969e-05
2.54585507018e-05
2.54056414454e-05
2.52254277876e-05
2.48933084086e-05
2.43909538058e-05
2.37101400766e-05
2.28578611207e-05
2.18713097227e-05
2.07935072227e-05
5.80696232244e-05
5.78700097823e-05
5.74753477723e-05
5.68947196257e-05
5.61408434786e-05
5.52293388805e-05
5.41779167337e-05
5.30056361332e-05
5.17322678141e-05
5.03777532426e-05
4.89617638164e-05
4.75033406542e-05
4.60206193098e-05
4.45306220468e-05
4.30491209745e-05
4.15905519925e-05
4.01679782805e-05
3.87930801377e-05
3.74761677044e-05
3.62261950607e-05
3.50507759628e-05
3.39561872245e-05
3.29473682077e-05
3.20279122536e-05
3.12000662596e-05
3.04647407153e-05
2.9821548223e-05
2.92688715355e-05
2.88039727622e-05
2.84231362992e-05
2.81218463784e-05
2.78949825378e-05
2.77370265029e-05
2.76422608209e-05
2.76049533546e-05
2.76195125044e-05
2.76806136693e-05
2.77832892342e-05
2.79229892753e-05
2.80956106367e-05
2.82975049522e-05
2.8525464789e-05
2.87766985287e-05
2.90487927749e-05
2.93402579602e-05
2.96496821098e-05
2.99759114156e-05
3.03180194015e-05
3.0675280817e-05
3.10471439095e-05
3.14332068312e-05
3.18331925254e-05
3.22469278292e-05
3.26743208746e-05
3.31153420295e-05
3.35700021301e-05
3.40383328968e-05
3.45203631566e-05
3.5016095563e-05
3.55254774088e-05
3.60483700949e-05
3.65845108928e-05
3.71334715473e-05
3.76946075508e-05
3.82670028435e-05
3.88494042539e-05
3.94401510279e-05
4.00370947305e-05
4.06375161271e-05
4.12380362341e-05
4.18345307805e-05
4.24220491655e-05
4.2994752521e-05
4.35458792457e-05
4.40677614662e-05
4.45519103823e-05
4.49892014882e-05
4.53701786134e-05
4.56854945912e-05
4.59264717111e-05
4.60857350024e-05
4.61578140882e-05
4.61395860467e-05
4.60304423511e-05
4.58321458938e-05
4.55487304314e-05
4.51858622464e-05
4.4750250552e-05
4.42492312221e-05
4.3690426849e-05
4.30814851937e-05
4.24298836346e-05
4.17427929041e-05
4.10269853642e-05
4.02887814751e-05
3.95340221793e-05
3.8768063677e-05
3.79957855504e-05
3.72216112485e-05
3.64495344359e-05
3.56831519332e-05
3.49256984794e-05
3.41800849594e-05
3.34489363071e-05
3.2734630964e-05
3.20393385227e-05
3.13650572791e-05
3.07136486541e-05
3.00868704246e-05
2.94864059144e-05
2.89138851218e-05
2.83712967525e-05
2.78605965473e-05
2.73837364334e-05
2.6942652953e-05
2.65392322937e-05
2.61752487784e-05
2.58522693989e-05
2.55715192997e-05
2.53337007667e-05
2.51387618832e-05
2.49856111873e-05
2.48717809242e-05
2.47930456058e-05
2.4743012752e-05
2.47127115115e-05
2.46902190418e-05
2.46603772096e-05
2.4604668251e-05
2.4501330522e-05
2.43258066109e-05
2.4051618115e-05
2.36517549222e-05
2.31006489304e-05
2.23767849948e-05
2.14660105392e-05
2.0365700983e-05
1.90903175345e-05
1.76823419913e-05
1.62093715372e-05
5.52276512435e-05
5.50616353227e-05
5.47331281607e-05
5.4249153746e-05
5.36196015407e-05
5.28567711452e-05
5.19747984297e-05
5.09890806825e-05
4.99157519812e-05
4.87712180459e-05
4.75717715379e-05
4.63332787131e-05
4.50709467181e-05
4.37991537495e-05
4.25313433136e-05
4.12799593402e-05
4.00564185228e-05
3.88710953683e-05
3.7733317008e-05
3.66513479719e-05
3.56323684152e-05
3.46824353219e-05
3.38064392856e-05
3.30080559282e-05
3.2289711168e-05
3.1652563825e-05
3.10965242794e-05
3.06203089134e-05
3.02215408238e-05
2.98968868515e-05
2.96422305518e-05
2.94528625068e-05
2.93236814582e-05
2.92493859891e-05
2.92246519658e-05
2.92442806181e-05
2.93033190359e-05
2.93971451742e-05
2.95215253886e-05
2.96726415228e-05
2.98470984875e-05
3.00419105351e-05
3.02544766582e-05
3.04825419562e-05
3.07246442049e-05
3.09795747952e-05
3.12463240702e-05
3.15240610134e-05
3.18121126871e-05
3.21099406867e-05
3.24171214776e-05
3.27333248688e-05
3.30582966771e-05
3.33918396281e-05
3.37337980842e-05
3.4084040421e-05
3.44424442783e-05
3.48088784655e-05
3.51831865586e-05
3.5565166047e-05
3.59545479798e-05
3.63509711132e-05
3.67539555223e-05
3.71628699312e-05
3.7576897911e-05
3.79949976555e-05
3.84158609499e-05
3.88378668259e-05
3.92590364151e-05
3.96769858034e-05
4.00888849892e-05
4.04914219302e-05
4.08807824088e-05
4.12526479325e-05
4.16022257014e-05
4.19243157042e-05
4.22134297424e-05
4.24639643621e-05
4.26704328068e-05
4.28277400535e-05
4.29314797948e-05
4.29782082454e-05
4.29656525463e-05
4.28928115398e-05
4.27599450518e-05
4.25683915328e-05
4.23206577346e-05
4.20200468902e-05
4.16703890464e-05
4.12758618989e-05
4.0840842607e-05
4.03697841996e-05
3.98671194014e-05
3.9337186005e-05
3.87841743255e-05
3.82120896081e-05
3.76247295838e-05
3.70256709247e-05
3.64182655875e-05
3.58056420314e-05
3.51907130016e-05
3.45761857904e-05
3.39645769763e-05
3.33582280649e-05
3.27593239565e-05
3.21699108604e-05
3.15919152991e-05
3.10271609935e-05
3.04773851164e-05
2.99442504081e-05
2.94293514578e-05
2.89346215108e-05
2.84619566063e-05
2.80131929369e-05
2.75900799433e-05
2.71942294717e-05
2.68270385147e-05
2.64895793486e-05
2.6182453421e-05
2.59056032924e-05
2.56580810637e-05
2.54377722611e-05
2.52410807221e-05
2.5062584037e-05
2.48946788022e-05
2.47272426138e-05
2.45473522071e-05
2.43391075546e-05
2.40836256186e-05
2.37592787643e-05
2.33422654852e-05
2.28076090881e-05
2.21306849061e-05
2.12893738406e-05
2.02669358055e-05
1.90557052651e-05
1.766177791e-05
1.61111090558e-05
1.44591015044e-05
1.27963573465e-05
5.29170723215e-05
5.2777814139e-05
5.25020972837e-05
5.20955547883e-05
5.15661356821e-05
5.09237813522e-05
5.01799861884e-05
4.9347341631e-05
4.84391097822e-05
4.74688372107e-05
4.64500347936e-05
4.53959182067e-05
4.43192202232e-05
4.32320577218e-05
4.21458539309e-05
4.10712914735e-05
4.00182919706e-05
3.89959974949e-05
3.80127520403e-05
3.70760649038e-05
3.61925622666e-05
3.53679192444e-05
3.46067881784e-05
3.39127244047e-05
3.32881306819e-05
3.27342240587e-05
3.22510438968e-05
3.18374991517e-05
3.14914641581e-05
3.1209910775e-05
3.09890756622e-05
3.08246428465e-05
3.07119355434e-05
3.06460969426e-05
3.0622256563e-05
3.06356674323e-05
3.06818171933e-05
3.07565052283e-05
3.08558945884e-05
3.0976535278e-05
3.11153702163e-05
3.12697215826e-05
3.14372685053e-05
3.16160127915e-05
3.18044031432e-05
3.20015937096e-05
3.22067605948e-05
3.24192263902e-05
3.26384365426e-05
3.28639369487e-05
3.30953573224e-05
3.33323932548e-05
3.35747926927e-05
3.38223406431e-05
3.40748478474e-05
3.43321372802e-05
3.45940339083e-05
3.48603515964e-05
3.51308824109e-05
3.54053823421e-05
3.56835586186e-05
3.59650528246e-05
3.6249424998e-05
3.6536133177e-05
3.68245136955e-05
3.71137570702e-05
3.74028850849e-05
3.76907244744e-05
3.79758833622e-05
3.82567266744e-05
3.85313575386e-05
3.87976020277e-05
3.90530054088e-05
3.9294838566e-05
3.95201237598e-05
3.97256789428e-05
3.99081890302e-05
4.00643008025e-05
4.01907445109e-05
4.02844708306e-05
4.0342795902e-05
4.03635331845e-05
4.03450987589e-05
4.02865713754e-05
4.01877058273e-05
4.00489028844e-05
3.98709961744e-05
3.96554921591e-05
3.94043136926e-05
3.91196571711e-05
3.88039165159e-05
3.84596160069e-05
3.80893541816e-05
3.76957556297e-05
3.7281433942e-05
3.68489613975e-05
3.64008476768e-05
3.59395230771e-05
3.5467328485e-05
3.49865081021e-05
3.44992073094e-05
3.40074721149e-05
3.35132525135e-05
3.30184064365e-05
3.25247063544e-05
3.20338452615e-05
3.1547443721e-05
3.10670547236e-05
3.05941677514e-05
3.0130208895e-05
2.96765375282e-05
2.92347983963e-05
2.88066335649e-05
2.83935922452e-05
2.79970913994e-05
2.76183533987e-05
2.72583183437e-05
2.69175258278e-05
2.65959638491e-05
2.62928807359e-05
2.6006560382e-05
2.57340617726e-05
2.54709304487e-05
2.52108933356e-05
2.49455576094e-05
2.46641410627e-05
2.43532727606e-05
2.39969118108e-05
2.35764448131e-05
2.30710336098e-05
2.24582993983e-05
2.17154424309e-05
2.08209108483e-05
1.9756741729e-05
1.85117023188e-05
1.7085361803e-05
1.54932514708e-05
1.37734138657e-05
1.19955147691e-05
1.02696910597e-05
5.1021458883e-05
5.09040352475e-05
5.06714627071e-05
5.03283710876e-05
4.98812946812e-05
4.93384183486e-05
4.87092188507e-05
4.80040895488e-05
4.72339894195e-05
4.64101252664e-05
4.55436918594e-05
4.46456647529e-05
4.37266573452e-05
4.27968241606e-05
4.18658104284e-05
4.09427228069e-05
4.00361169504e-05
3.91539776268e-05
3.83036909812e-05
3.74919926314e-05
3.67249004745e-05
3.60076267555e-05
3.53444876899e-05
3.4738813285e-05
3.41928797422e-05
3.37078678675e-05
3.32838657595e-05
3.29199121105e-05
3.26140882242e-05
3.2363644808e-05
3.21651618957e-05
3.20147213723e-05
3.19080869288e-05
3.18408715074e-05
3.18086903446e-05
3.18072853874e-05
3.18326254197e-05
3.1880974028e-05
3.19489347991e-05
3.20334698391e-05
3.21319031192e-05
3.22419057299e-05
3.23614740961e-05
3.24888975931e-05
3.26227265618e-05
3.27622783342e-05
3.29069728924e-05
3.30563341465e-05
3.32099710327e-05
3.33675589595e-05
3.35288271744e-05
3.36935449232e-05
3.38615120299e-05
3.40325475113e-05
3.42064820801e-05
3.43831484282e-05
3.45623748911e-05
3.47439764568e-05
3.49277485143e-05
3.51134574641e-05
3.53008334945e-05
3.54895598573e-05
3.56792639281e-05
3.58695046288e-05
3.60597615578e-05
3.62494207061e-05
3.64377622709e-05
3.66239458346e-05
3.68069987132e-05
3.69858032399e-05
3.71590891995e-05
3.73254277611e-05
3.74832335755e-05
3.76307718893e-05
3.7766177525e-05
3.78874825126e-05
3.79926583983e-05
3.80796684671e-05
3.8146533156e-05
3.81914003542e-05
3.82126196611e-05
3.82088087917e-05
3.81789092869e-05
3.81222210531e-05
3.80384176579e-05
3.79275381437e-05
3.77899648527e-05
3.76261610873e-05
3.74370258756e-05
3.72236946788e-05
3.69874451498e-05
3.67296609614e-05
3.64518039481e-05
3.61553875543e-05
3.58419553676e-05
3.55130613978e-05
3.51702555947e-05
3.48150709379e-05
3.44490149643e-05
3.40735622479e-05
3.36901505573e-05
3.33001774384e-05
3.29049997315e-05
3.25059328706e-05
3.21042521243e-05
3.17011926062e-05
3.12979497902e-05
3.08956773361e-05
3.04954837129e-05
3.00984248582e-05
2.97054943151e-05
2.93178845677e-05
2.89368492807e-05
2.85635292851e-05
2.81989044613e-05
2.78437239015e-05
2.74984123428e-05
2.71629484725e-05
2.68367139732e-05
2.65183104981e-05
2.62053463994e-05
2.58941957377e-05
2.55797387477e-05
2.52550964165e-05
2.49113806569e-05
2.45374876167e-05
2.41199721555e-05
2.36430495595e-05
2.30887825108e-05
2.24375220709e-05
2.16686868624e-05
2.07619810847e-05
1.96991731276e-05
1.84665767524e-05
1.70583936618e-05
1.54810829743e-05
1.37589289859e-05
1.19410359735e-05
1.01104096693e-05
8.39372834846e-06
4.94495057348e-05
4.93503192515e-05
4.91538208468e-05
4.8863875855e-05
4.84859322752e-05
4.80268064407e-05
4.74943742879e-05
4.68972516778e-05
4.62445010981e-05
4.55453700222e-05
4.48090843965e-05
4.4044690314e-05
4.32609537309e-05
4.24662991722e-05
4.16687863918e-05
4.08760990608e-05
4.00955414199e-05
3.93340191666e-05
3.85980058692e-05
3.78934803504e-05
3.72258463947e-05
3.65998312132e-05
3.60193829859e-05
3.54875709339e-05
3.50065109536e-05
3.4577319473e-05
3.42001131347e-05
3.38740489299e-05
3.3597411986e-05
3.33677356932e-05
3.3181952528e-05
3.30365547902e-05
3.29277611725e-05
3.28516697648e-05
3.28043970629e-05
3.2782189268e-05
3.2781511281e-05
3.27991055119e-05
3.28320303491e-05
3.28776739099e-05
3.2933754644e-05
3.29983052279e-05
3.306965053e-05
3.31463744931e-05
3.3227283367e-05
3.33116805116e-05
3.3399254078e-05
3.34897498727e-05
3.35829623525e-05
3.36787194612e-05
3.37768734618e-05
3.38772911648e-05
3.39798486823e-05
3.40844239337e-05
3.41908927703e-05
3.42991226569e-05
3.44089696462e-05
3.45202726891e-05
3.46328507787e-05
3.47464971224e-05
3.48609757286e-05
3.49760148176e-05
3.50913024019e-05
3.52064786747e-05
3.53211305635e-05
3.54347833327e-05
3.55468946637e-05
3.56568463722e-05
3.57639393235e-05
3.5867387011e-05
3.59663135292e-05
3.60597517121e-05
3.61466472987e-05
3.62258650943e-05
3.62962029017e-05
3.63564090275e-05
3.64052085042e-05
3.64413329543e-05
3.64635577705e-05
3.64707399255e-05
3.64618582294e-05
3.64360480888e-05
3.63926320075e-05
3.63311388474e-05
3.62513150603e-05
3.61531237437e-05
3.60367341868e-05
3.59024986963e-05
3.57506767126e-05
3.55818069762e-05
3.53965947468e-05
3.5195809439e-05
3.49802683967e-05
3.47508255796e-05
3.45083608399e-05
3.42537685353e-05
3.39879493262e-05
3.37118019556e-05
3.34262181733e-05
3.31320775446e-05
3.28302449808e-05
3.25215678562e-05
3.22068752809e-05
3.18869764552e-05
3.1562660294e-05
3.12346932072e-05
3.09038167923e-05
3.05707423061e-05
3.02361434832e-05
2.99006451632e-05
2.95648095421e-05
2.92292771967e-05
2.88948362913e-05
2.85621470745e-05
2.82316888596e-05
2.79036864504e-05
2.75780145661e-05
2.72540766426e-05
2.69306578794e-05
2.66057508409e-05
2.62763566689e-05
2.59382656233e-05
2.55858272111e-05
2.52117233155e-05
2.48067661399e-05
2.4359748178e-05
2.38573811887e-05
2.32843683357e-05
2.26236648279e-05
2.18569926097e-05
2.09656903218e-05
1.99319981387e-05
1.87409034827e-05
1.73827045286e-05
1.58564825301e-05
1.41747012703e-05
1.23691651322e-05
1.04985683715e-05
8.65794973309e-06
6.9886042195e-06
4.81276248104e-05
4.80440396788e-05
4.78784219943e-05
4.7634023341e-05
4.73154156379e-05
4.69282987201e-05
4.64792243271e-05
4.59753161988e-05
4.54240214266e-05
4.4832896407e-05
4.42094477517e-05
4.35610189481e-05
4.28947310099e-05
4.22174556052e-05
4.15358185136e-05
4.08562065899e-05
4.01847744003e-05
3.95274275293e-05
3.88897856035e-05
3.82771122097e-05
3.76942253608e-05
3.71453864917e-05
3.66341899298e-05
3.61634566509e-05
3.57351556547e-05
3.53503546361e-05
3.50092168877e-05
3.47110375411e-05
3.44543257641e-05
3.42369166479e-05
3.4056111476e-05
3.39088256356e-05
3.37917412703e-05
3.37014458599e-05
3.36345576112e-05
3.3587824359e-05
3.35582022445e-05
3.35429062021e-05
3.35394424171e-05
3.35456179266e-05
3.35595390047e-05
3.35795944052e-05
3.3604434605e-05
3.36329420189e-05
3.36641993996e-05
3.36974764237e-05
3.37326835172e-05
3.37697827915e-05
3.38087594156e-05
3.38496008666e-05
3.38922892984e-05
3.39367956429e-05
3.39830785912e-05
3.40310809764e-05
3.40807293656e-05
3.41319308439e-05
3.41845728623e-05
3.42385202693e-05
3.42936151155e-05
3.43496734829e-05
3.44064847896e-05
3.44638080291e-05
3.45213703335e-05
3.45788625372e-05
3.46359371067e-05
3.46922033216e-05
3.47472250804e-05
3.48005164259e-05
3.48515401963e-05
3.48997051007e-05
3.49443666618e-05
3.49848274988e-05
3.50203423789e-05
3.5050123588e-05
3.50733518827e-05
3.50891884281e-05
3.50967925115e-05
3.5095339932e-05
3.50840460013e-05
3.50621872847e-05
3.5029125102e-05
3.49843244955e-05
3.4927371547e-05
3.48579835031e-05
3.47760156821e-05
3.46814609368e-05
3.45744454789e-05
3.44552135271e-05
3.43241065049e-05
3.41813399207e-05
3.40272224147e-05
3.38622310526e-05
3.36868621621e-05
3.35016232467e-05
3.33070277043e-05
3.31035881133e-05
3.28918122912e-05
3.26721981809e-05
3.2445231127e-05
3.2211380582e-05
3.19710990716e-05
3.17248203305e-05
3.14729591773e-05
3.12159100895e-05
3.09540466695e-05
3.06877189086e-05
3.04172500146e-05
3.01429296937e-05
2.98650054871e-05
2.95836697037e-05
2.92990438984e-05
2.90111737036e-05
2.87203546309e-05
2.84267383876e-05
2.81302783566e-05
2.78306555463e-05
2.75271841758e-05
2.72186940199e-05
2.69033902661e-05
2.65786901245e-05
2.62410402361e-05
2.58857194765e-05
2.55066381397e-05
2.50961472804e-05
2.46448799518e-05
2.41416508458e-05
2.35734499097e-05
2.29255718994e-05
2.21819342435e-05
2.13256451906e-05
2.03398998497e-05
1.9209301565e-05
1.7921737288e-05
1.64709779698e-05
1.48602315224e-05
1.31069382357e-05
1.12491476863e-05
9.35379248093e-06
7.5269073119e-06
5.92337637335e-06
4.69949369412e-05
4.69250507253e-05
4.67865574663e-05
4.65821894602e-05
4.63157752895e-05
4.59920593931e-05
4.56164473845e-05
4.51947562538e-05
4.47330030878e-05
4.42372323849e-05
4.37134006128e-05
4.31673059071e-05
4.26045682118e-05
4.20306363382e-05
4.14508181276e-05
4.08703058824e-05
4.02941936164e-05
3.97274638223e-05
3.91749486693e-05
3.864125443e-05
3.81306649469e-05
3.76470233711e-05
3.71936154373e-05
3.67730581476e-05
3.6387217317e-05
3.60371546444e-05
3.57231207013e-05
3.54445857137e-05
3.52003144975e-05
3.4988468681e-05
3.48067354794e-05
3.46524624783e-05
3.45227966839e-05
3.44148095314e-05
3.43256098498e-05
3.4252431744e-05
3.41927043168e-05
3.41440950894e-05
3.41045374791e-05
3.40722370488e-05
3.40456681128e-05
3.40235561966e-05
3.40048572576e-05
3.39887284601e-05
3.3974501138e-05
3.39616424677e-05
3.39499690147e-05
3.39396969663e-05
3.39310093646e-05
3.39240508862e-05
3.39189290441e-05
3.39157137041e-05
3.39144404556e-05
3.39151108504e-05
3.39176953975e-05
3.392213331e-05
3.39283349906e-05
3.39361814474e-05
3.39455263223e-05
3.39561948374e-05
3.39679851649e-05
3.39806667238e-05
3.3993980828e-05
3.40076383927e-05
3.40213200752e-05
3.40346737418e-05
3.40473146018e-05
3.40588230694e-05
3.40687456686e-05
3.40765941867e-05
3.40818483591e-05
3.4083957398e-05
3.40823455649e-05
3.40764171328e-05
3.4065565746e-05
3.40491834155e-05
3.40266737848e-05
3.39974646072e-05
3.39610235133e-05
3.39168716276e-05
3.38645986044e-05
3.38038735489e-05
3.37344553867e-05
3.36561977484e-05
3.35690525716e-05
3.34730684213e-05