/*--------------------------------*- C++ -*----------------------------------*\
| =========                 |                                                 |
| \\      /  F ield         | OpenFOAM: The Open Source CFD Toolbox           |
|  \\    /   O peration     | Version:  2206                                  |
|   \\  /    A nd           | Website:  www.openfoam.com                      |
|    \\/     M anipulation  |                                                 |
\*---------------------------------------------------------------------------*/
FoamFile
{
    version     2.0;
    format      ascii;
    arch        "LSB;label=64;scalar=64";
    class       volScalarField;
    location    "4.2/water";
    object      nut.gas;
}
// * * * * * * * * * * * * * * * * * * * * * * * * * * * * * * * * * * * * * //

dimensions      [0 2 -1 0 0 0 0];

internalField   nonuniform List<scalar> 
23300
(
0.000142323221679
0.00013977729608
0.00013668305823
0.000132906357993
0.000128583291857
0.00012383070062
0.000118743870366
0.00011340618007
0.000107892972196
0.000102275982537
9.66228429434e-05
9.09980570121e-05
8.54610571674e-05
8.00658045093e-05
7.48591327702e-05
6.98803232923e-05
6.51604593377e-05
6.07225757402e-05
5.65820003549e-05
5.2747059417e-05
4.92200007532e-05
4.59979388974e-05
4.30739131546e-05
4.04377613143e-05
3.80770203725e-05
3.59775706555e-05
3.41242846665e-05
3.25014412513e-05
3.10931656938e-05
2.98836941073e-05
2.88576869783e-05
2.8000414906e-05
2.72979920941e-05
2.67375042129e-05
2.63071640497e-05
2.59963721483e-05
2.57957880096e-05
2.56973231471e-05
2.56941412498e-05
2.57806071168e-05
2.59522513199e-05
2.62057199272e-05
2.65387671572e-05
2.69503088586e-05
2.74390235762e-05
2.80044629989e-05
2.86471593494e-05
2.93684825338e-05
3.01705528966e-05
3.10562164059e-05
3.20290066391e-05
3.30931637188e-05
3.42536085158e-05
3.55159893516e-05
3.68866527972e-05
3.83727111385e-05
3.99819942604e-05
4.17231291874e-05
4.36054505115e-05
4.5639075641e-05
4.7834738584e-05
5.02038301622e-05
5.2758100724e-05
5.55096114337e-05
5.84702232599e-05
6.16513749101e-05
6.50632331051e-05
6.87141686733e-05
7.26093843952e-05
7.67498934122e-05
8.11303529169e-05
8.57372367177e-05
9.05454453547e-05
9.55151397133e-05
0.000100586360131
0.000105673484265
0.000110656305449
0.000115369760741
0.000119587568888
0.000123000927112
0.000125188456275
0.000125616456354
0.000123991625114
0.000120813892885
0.000116652216714
0.000111906485133
0.0001068428296
0.000101641724239
9.6428289565e-05
9.12918903729e-05
8.62962604063e-05
8.14870432252e-05
7.68954147937e-05
7.25418891999e-05
6.84380136029e-05
6.45888493727e-05
6.09939656011e-05
5.76492318409e-05
5.45474349748e-05
5.16795785574e-05
4.90352339145e-05
4.66034551314e-05
4.43729364972e-05
4.23326411502e-05
4.04718316838e-05
3.87805032858e-05
3.72493494758e-05
3.58700812682e-05
3.46353891874e-05
3.35392351485e-05
3.25767502969e-05
3.17437208853e-05
3.10373611106e-05
3.04564443955e-05
3.0001281489e-05
2.96739304046e-05
2.94782513163e-05
2.94201518444e-05
2.95076776314e-05
2.9751245342e-05
3.01636894266e-05
3.07603669891e-05
3.15589863964e-05
3.25793470623e-05
3.38426388104e-05
3.53704472302e-05
3.71831276672e-05
3.92977335719e-05
4.17252988497e-05
4.44678732729e-05
4.75154460985e-05
5.0843528196e-05
5.44118962366e-05
5.81653567942e-05
6.20365991872e-05
6.59502998309e-05
6.98246394274e-05
7.35605797781e-05
7.6996217174e-05
7.97813083731e-05
0.000123380084671
0.000122292482394
0.000120434245323
0.000117937512211
0.000114912459779
0.00011145242625
0.000107638656282
0.00010354431211
9.92371650099e-05
9.47811803126e-05
9.02370359294e-05
8.56619908986e-05
8.11093162596e-05
7.66275433989e-05
7.22597836074e-05
6.80431505325e-05
6.40085115118e-05
6.01804166418e-05
5.65773775552e-05
5.32122504437e-05
5.00928560635e-05
4.72225818591e-05
4.46010873478e-05
4.22249003699e-05
4.00880301999e-05
3.818244366e-05
3.64985341611e-05
3.50254781095e-05
3.3751598577e-05
3.26646562017e-05
3.17521616355e-05
3.10016362962e-05
3.0400886682e-05
2.99382227798e-05
2.96026681252e-05
2.93841032763e-05
2.92733867964e-05
2.92624110335e-05
2.93441389598e-05
2.95125909667e-05
2.97628281737e-05
3.00909051466e-05
3.04938328612e-05
3.09695110668e-05
3.15159521827e-05
3.21317584258e-05
3.28163616045e-05
3.35699191937e-05
3.4393247215e-05
3.52877558955e-05
3.62554192591e-05
3.72987381306e-05
3.84207288529e-05
3.96248982229e-05
4.09152379401e-05
4.22961995005e-05
4.3772681577e-05
4.53499911493e-05
4.70338067888e-05
4.88301061926e-05
5.07450802006e-05
5.27849968316e-05
5.49560288773e-05
5.72640105788e-05
5.97141256871e-05
6.23104946676e-05
6.50556487203e-05
6.79498604528e-05
7.09902992091e-05
7.41699822194e-05
7.7476463832e-05
8.08902341099e-05
8.43827384979e-05
8.79139975725e-05
9.14297333673e-05
9.48580788231e-05
9.81059792393e-05
0.000101055912782
0.000103564146401
0.000105463551511
0.000106577163001
0.000106755443228
0.000105954284469
0.000104291601242
0.00010195193125
9.91140913049e-05
9.59280619282e-05
9.25135681606e-05
8.89648443127e-05
8.53559659247e-05
8.17451042942e-05
7.81777565394e-05
7.46891087577e-05
7.13059003774e-05
6.80478796553e-05
6.49290521192e-05
6.19587106433e-05
5.9142355336e-05
5.64824618224e-05
5.39791669118e-05
5.16308327803e-05
4.94345423007e-05
4.73864977478e-05
4.5482366421e-05
4.37175549898e-05
4.20874488352e-05
4.05876043972e-05
3.9213924305e-05
3.79628057371e-05
3.68312826957e-05
3.58171792834e-05
3.49186566977e-05
3.41348131118e-05
3.34657714079e-05
3.29127626171e-05
3.24782151847e-05
3.21658351901e-05
3.19806765503e-05
3.1929178295e-05
3.20191561823e-05
3.2259713421e-05
3.26610420995e-05
3.32340660041e-05
3.39898837275e-05
3.49389601358e-05
3.60900369395e-05
3.74487508448e-05
3.90160069125e-05
4.07862221354e-05
4.27456615297e-05
4.4871198848e-05
4.71299565577e-05
4.94803782276e-05
5.18753755148e-05
5.42683118365e-05
5.66229617431e-05
5.89298717046e-05
6.12355152398e-05
6.37019283017e-05
6.67321983091e-05
0.000109375977443
0.000108799018987
0.000107633383212
0.000105948215182
0.000103808991917
0.000101277329999
9.8411878812e-05
9.52691443254e-05
9.19040393506e-05
8.83700373022e-05
8.4718967958e-05
8.10005065977e-05
7.72615169035e-05
7.35453348053e-05
6.98911500628e-05
6.63335202262e-05
6.29021079779e-05
5.96216034236e-05
5.65118566762e-05
5.35881375965e-05
5.08615161053e-05
4.83392761882e-05
4.60253591e-05
4.39207727178e-05
4.20239816198e-05
4.03312455549e-05
3.88369381943e-05
3.75338342455e-05
3.64133996657e-05
3.5466075325e-05
3.46815762603e-05
3.40491868852e-05
3.35580581922e-05
3.31974799456e-05
3.2957127898e-05
3.28272629687e-05
3.27988881272e-05
3.28638505105e-05
3.30149031379e-05
3.32457217671e-05
3.3550895192e-05
3.39258854522e-05
3.43669730053e-05
3.48711774963e-05
3.54362252484e-05
3.60601316674e-05
3.67415908808e-05
3.747990849e-05
3.82749418035e-05
3.91270417685e-05
4.00370093894e-05
4.10060531387e-05
4.20357576824e-05
4.31280489393e-05
4.42851657977e-05
4.55096227611e-05
4.68041736688e-05
4.81717597128e-05
4.96154511042e-05
5.11383641955e-05
5.27435620211e-05
5.44339184278e-05
5.62119519809e-05
5.80796082165e-05
6.00379945459e-05
6.20870450402e-05
6.42251176098e-05
6.64484999967e-05
6.87508260025e-05
7.11223796706e-05
7.35492916136e-05
7.60126142535e-05
7.84872965727e-05
8.09410793268e-05
8.33333934812e-05
8.56144008435e-05
8.77244657992e-05
8.95945378634e-05
9.11482249109e-05
9.23066220992e-05
9.29971288132e-05
9.31674055045e-05
9.28026554812e-05
9.19343299068e-05
9.06243297991e-05
8.89459620899e-05
8.69722611694e-05
8.47704861061e-05
8.24002138683e-05
7.99131128163e-05
7.73533836784e-05
7.4758412391e-05
7.21594637577e-05
6.95823544969e-05
6.70480951262e-05
6.45734944402e-05
6.21717301978e-05
5.9852879742e-05
5.76244119648e-05
5.54916334564e-05
5.34580916757e-05
5.15259309953e-05
4.96962078312e-05
4.79691640614e-05
4.63444670976e-05
4.48214175081e-05
4.33991326716e-05
4.20767070545e-05
4.08533551838e-05
3.97285348533e-05
3.87021369457e-05
3.77743946601e-05
3.69460650121e-05
3.62185233899e-05
3.55938394673e-05
3.50748315563e-05
3.46650956056e-05
3.43689971532e-05
3.41916134259e-05
3.41386054049e-05
3.42159984152e-05
3.44298442829e-05
3.47857398366e-05
3.52881776507e-05
3.59397168364e-05
3.67399786094e-05
3.76845044235e-05
3.87635575858e-05
3.99610097132e-05
4.12535191068e-05
4.26102780906e-05
4.39936631203e-05
4.53611662892e-05
4.66690194615e-05
4.78779792169e-05
4.89618861284e-05
4.99199953031e-05
5.07952722196e-05
5.1712715687e-05
5.2773933211e-05
0.000100795213471
0.000100336951751
9.94296435355e-05
9.81031763232e-05
9.63964534614e-05
9.43526587927e-05
9.20168942606e-05
8.94349167286e-05
8.66523660524e-05
8.37141554479e-05
8.06639147437e-05
7.75434242407e-05
7.43920787426e-05
7.12463919385e-05
6.81396046548e-05
6.51013994084e-05
6.21577577639e-05
5.93309315794e-05
5.6639532674e-05
5.40986912243e-05
5.17202739817e-05
4.95131137488e-05
4.74832480869e-05
4.56341356684e-05
4.39668647325e-05
4.24803415791e-05
4.11714860292e-05
4.00354313438e-05
3.90657544945e-05
3.82547288489e-05
3.75936116278e-05
3.70729448294e-05
3.66828678575e-05
3.64134128662e-05
3.62547780119e-05
3.6197554085e-05
3.62329076414e-05
3.63527070168e-05
3.65496043428e-05
3.68170683112e-05
3.71493858388e-05
3.75416293026e-05
3.79896065998e-05
3.84897882445e-05
3.90398252733e-05
3.96374489499e-05
4.0280955828e-05
4.09691531121e-05
4.17013083178e-05
4.24770959546e-05
4.32965538863e-05
4.41600383234e-05
4.50681877668e-05
4.60218833786e-05
4.70222151753e-05
4.80704409091e-05
4.91679464685e-05
5.03161941762e-05
5.15166671378e-05
5.27707954221e-05
5.40798713783e-05
5.54449392252e-05
5.68666653828e-05
5.83451742195e-05
5.98798551277e-05
6.14691255784e-05
6.31101560516e-05
6.47985422865e-05
6.65279320542e-05
6.82895951901e-05
7.00719500006e-05
7.1860046296e-05
7.36350377981e-05
7.5373677579e-05
7.70479221028e-05
7.86247585419e-05
8.0066454874e-05
8.13314893638e-05
8.23764902681e-05
8.31594672672e-05
8.36444045626e-05
8.38067171898e-05
8.3638014834e-05
8.31477145513e-05
8.23601036682e-05
8.1308110424e-05
8.00285009348e-05
7.85586017669e-05
7.69343048814e-05
7.5188968251e-05
7.33528881171e-05
7.14531088019e-05
6.95134363929e-05
6.75545666111e-05
6.55942847744e-05
6.3647702077e-05
6.17275154641e-05
5.9844271798e-05
5.80066325863e-05
5.62216265506e-05
5.44948908904e-05
5.28308931208e-05
5.12331375324e-05
4.97043513307e-05
4.82466560762e-05
4.68617210154e-05
4.5550903912e-05
4.43153760898e-05
4.31562360854e-05
4.20746073964e-05
4.10718047237e-05
4.0149544548e-05
3.93097954066e-05
3.85548513994e-05
3.78873800852e-05
3.73104390058e-05
3.68274564105e-05
3.64421635421e-05
3.61584675719e-05
3.59802474646e-05
3.59110577732e-05
3.59537219185e-05
3.61098033501e-05
3.63789469236e-05
3.6758098816e-05
3.72406300938e-05
3.78154194888e-05
3.84659839591e-05
3.91697893493e-05
3.98979132966e-05
4.06152687454e-05
4.12816107575e-05
4.18535399592e-05
4.2287672184e-05
4.25450707779e-05
4.25969297281e-05
4.24313828571e-05
4.2062197168e-05
4.15680789213e-05
4.09894933595e-05
9.40609519046e-05
9.3689958837e-05
9.29571517562e-05
9.18815006047e-05
9.04893011681e-05
8.8811931423e-05
8.68840037321e-05
8.47419526723e-05
8.24229634171e-05
7.99641157636e-05
7.74016908015e-05
7.47705827171e-05
7.21038224501e-05
6.94321913548e-05
6.67839470298e-05
6.41846395906e-05
6.16570301355e-05
5.92210771339e-05
5.68939899971e-05
5.46903095846e-05
5.2622013593e-05
5.06986136003e-05
4.89272519863e-05
4.73127808445e-05
4.58578449609e-05
4.45629646762e-05
4.34266478678e-05
4.24455297294e-05
4.16145637688e-05
4.09272527191e-05
4.03759274467e-05
3.99520482249e-05
3.96465235781e-05
3.94500147098e-05
3.93532197415e-05
3.93471114999e-05
3.94231321661e-05
3.95733298506e-05
3.97904507931e-05
4.00679808195e-05
4.04001551468e-05
4.07819326583e-05
4.12089536965e-05
4.16774764517e-05
4.21851711867e-05
4.27297280748e-05
4.33093120844e-05
4.39225125449e-05
4.4568298674e-05
4.52459710147e-05
4.59551210535e-05
4.66955878937e-05
4.74674230701e-05
4.8270851507e-05
4.91062386912e-05
4.99740515726e-05
5.08748225997e-05
5.18091041954e-05
5.27774225349e-05
5.37802177906e-05
5.48177791813e-05
5.58901619217e-05
5.69970940279e-05
5.81378602544e-05
5.93111711146e-05
6.05150049391e-05
6.17464315912e-05
6.3001407363e-05
6.42745516723e-05
6.55588987875e-05
6.68456407394e-05
6.81238640681e-05
6.93803108236e-05
7.05991882045e-05
7.17620872204e-05
7.28480736884e-05
7.38340549429e-05
7.46955211861e-05
7.54077658677e-05
7.59476074104e-05
7.62955072706e-05
7.64377350543e-05
7.63680013377e-05
7.60879197218e-05
7.56065733278e-05
7.49387045013e-05
7.41024550046e-05
7.31177694837e-05
7.20051744712e-05
7.0784907365e-05
6.9476337124e-05
6.80975991288e-05
6.66653911883e-05
6.5194878381e-05
6.36996796548e-05
6.21919056446e-05
6.06822361662e-05
5.91800183965e-05
5.76933819148e-05
5.62293579493e-05
5.47940033325e-05
5.33925205345e-05
5.20293767536e-05
5.07084158335e-05
4.94329669621e-05
4.82059450125e-05
4.70299463857e-05
4.59073356678e-05
4.48403271419e-05
4.38310582455e-05
4.28816740736e-05
4.19948259328e-05
4.11732126453e-05
4.04196612039e-05
3.97371380688e-05
3.91287277365e-05
3.85975719904e-05
3.81467568696e-05
3.77791380759e-05
3.74970901743e-05
3.73021698288e-05
3.71946817461e-05
3.71731451422e-05
3.72336638655e-05
3.73692199171e-05
3.75689251083e-05
3.78172915779e-05
3.80936064916e-05
3.83715280452e-05
3.86190448169e-05
3.87989608684e-05
3.88700683804e-05
3.87891481015e-05
3.85138887764e-05
3.80067591393e-05
3.72398349291e-05
3.62006863838e-05
3.49002376319e-05
3.33956087021e-05
3.17519142586e-05
8.86836249443e-05
8.83787443088e-05
8.77760615824e-05
8.68893925972e-05
8.57381568034e-05
8.43462048472e-05
8.27405815036e-05
8.09503911862e-05
7.90058256204e-05
7.69373376664e-05
7.47749683775e-05
7.25477964342e-05
7.02835181982e-05
6.80081297436e-05
6.57457184127e-05
6.35183305705e-05
6.13459165284e-05
5.92463142124e-05
5.72352693758e-05
5.53264563385e-05
5.35315028717e-05
5.18599945597e-05
5.03194749034e-05
4.89154313861e-05
4.76512957115e-05
4.65284582284e-05
4.5546327643e-05
4.47024339839e-05
4.39925962758e-05
4.34111398663e-05
4.29511684967e-05
4.26048618735e-05
4.23637925594e-05
4.22192283921e-05
4.21624151974e-05
4.21848129237e-05
4.2278289724e-05
4.24352584795e-05
4.26487704413e-05
4.29125587398e-05
4.32210515229e-05
4.35693498888e-05
4.39531903652e-05
4.43688866137e-05
4.48141645898e-05
4.52868672592e-05
4.57852324255e-05
4.63078448069e-05
4.68535968694e-05
4.74216456884e-05
4.80113776288e-05
4.86223692798e-05
4.92543562281e-05
4.9907197871e-05
5.05808489466e-05
5.12753256474e-05
5.1990676301e-05
5.27269444461e-05
5.34841338241e-05
5.42621632289e-05
5.50608203828e-05
5.58797030057e-05
5.67181560663e-05
5.75751938287e-05
5.84494158553e-05
5.93389064554e-05
6.02411275072e-05
6.1152795749e-05
6.20697562632e-05
6.29868462797e-05
6.38977649362e-05
6.47949492028e-05
6.56694797096e-05
6.65110279227e-05
6.73078818096e-05
6.80470761501e-05
6.87146759808e-05
6.92962408333e-05
6.97774979287e-05
7.01451974003e-05
7.03880789331e-05
7.04977900268e-05
7.04695627731e-05
7.03024701093e-05
6.99992113297e-05
6.95659497432e-05
6.90113443305e-05
6.83456472619e-05
6.75800670585e-05
6.67262488294e-05
6.57958751227e-05
6.48003673613e-05
6.37506781178e-05
6.26571509654e-05
6.15294389362e-05
6.03764621992e-05
5.92064002675e-05
5.80267042869e-05
5.68441285477e-05
5.56647706535e-05
5.44941220798e-05
5.33371212051e-05
5.21982119258e-05
5.10814014593e-05
4.99903207983e-05
4.89282820883e-05
4.78983361483e-05
4.69033249393e-05
4.59459324426e-05
4.50287287962e-05
4.41542019905e-05
4.33253887984e-05
4.25452759594e-05
4.18168441742e-05
4.11430506148e-05
4.05267754776e-05
3.99707281686e-05
3.94773014191e-05
3.90483659679e-05
3.86849940557e-05
3.83871062429e-05
3.81530355939e-05
3.79790135287e-05
3.78585872687e-05
3.77819949577e-05
3.7735537435e-05
3.77010078654e-05
3.76552592935e-05
3.75700152184e-05
3.74120468755e-05
3.71438582684e-05
3.6725022699e-05
3.61143052012e-05
3.52726783002e-05
3.4167313982e-05
3.27766501407e-05
3.10967800041e-05
2.9149992341e-05
2.70014788125e-05
2.47540995143e-05
8.43502474658e-05
8.40966565376e-05
8.35949607776e-05
8.28558354795e-05
8.18943818567e-05
8.07293826688e-05
7.93824258014e-05
7.78770264043e-05
7.62378252289e-05
7.44898780124e-05
7.2658068049e-05
7.07666272996e-05
6.88387813809e-05
6.68964896718e-05
6.49602843461e-05
6.30491706575e-05
6.11805853183e-05
5.93703729945e-05
5.76327790748e-05
5.59804257064e-05
5.44242792835e-05
5.29735904401e-05
5.16358288142e-05
5.04166080455e-05
4.93196335222e-05
4.83466749661e-05
4.74975957434e-05
4.67704351387e-05
4.61615630154e-05
4.56658882175e-05
4.52771236207e-05
4.49880759177e-05
4.47909537074e-05
4.46776593794e-05
4.46400610296e-05
4.4670217761e-05
4.47605646205e-05
4.49040415723e-05
4.50941822535e-05
4.53251544906e-05
4.55917727113e-05
4.58894761176e-05
4.62142919162e-05
4.65627754928e-05
4.69326949152e-05
4.73222031946e-05
4.77297580138e-05
4.81540897254e-05
4.8594170574e-05
4.90491779492e-05
4.951846502e-05
5.00015271768e-05
5.04979762165e-05
5.10075105337e-05
5.15298924115e-05
5.20649204931e-05
5.2612407827e-05
5.31721536483e-05
5.3743918858e-05
5.43273936242e-05
5.49221667898e-05
5.55276858744e-05
5.61432172354e-05
5.67677957003e-05
5.74001733855e-05
5.80387578373e-05
5.86815497982e-05
5.93260720457e-05
5.99693008573e-05
6.06075936602e-05
6.12366267432e-05
6.18513400289e-05
6.24459067055e-05
6.30137297538e-05
6.354748812e-05
6.40392389957e-05
6.44806000217e-05
6.486301322e-05
6.51780995735e-05
6.54180787673e-05
6.55762228803e-05
6.56472741362e-05
6.56277633054e-05
6.55161634183e-05
6.5312874106e-05
6.50199464014e-05
6.46412093243e-05
6.41817106577e-05
6.36473036576e-05
6.30443719876e-05
6.23796033096e-05
6.16598004658e-05
6.08917349244e-05
6.00820326895e-05
5.9237094241e-05
5.83630369588e-05
5.74656610345e-05
5.655042866e-05
5.56224586663e-05
5.46865282898e-05
5.37470852905e-05
5.28082635333e-05
5.18739057083e-05
5.09475871116e-05
5.0032644029e-05
4.91322009732e-05
4.824919987e-05
4.73864257303e-05
4.65465316025e-05
4.57320568278e-05
4.49454364779e-05
4.418962249e-05
4.34675108384e-05
4.2781906083e-05
4.21354802095e-05
4.15306949337e-05
4.09696838564e-05
4.0454084598e-05
3.99848157623e-05
3.95617896511e-05
3.91835587102e-05
3.88468937775e-05
3.85463029387e-05
3.82735052573e-05
3.80168890969e-05
3.77609958859e-05
3.74860898025e-05
3.71678892493e-05
3.67775576822e-05
3.62820681594e-05
3.56450756456e-05
3.48284428674e-05
3.37945734093e-05
3.25097016265e-05
3.09482839356e-05
2.9098651403e-05
2.69701900382e-05
2.46027027587e-05
2.2081088078e-05
1.95435165448e-05
8.0827879337e-05
8.06151397839e-05
8.01940360398e-05
7.95731215011e-05
7.87645350481e-05
7.7783459399e-05
7.66474501198e-05
7.53757389956e-05
7.39885823669e-05
7.25066709766e-05
7.09506411089e-05
6.9340677966e-05
6.76962293944e-05
6.60358023384e-05
6.43768445961e-05
6.27356725538e-05
6.11274406122e-05
5.9566112228e-05
5.80644322424e-05
5.66338702675e-05
5.52845474106e-05
5.40251317608e-05
5.28627295777e-05
5.1802771143e-05
5.08489266272e-05
5.00030546807e-05
4.92652154665e-05
4.86337420542e-05
4.81053875343e-05
4.76755260273e-05
4.73384090263e-05
4.70874434207e-05
4.69154853509e-05
4.6815115516e-05
4.67788941376e-05
4.67995696668e-05
4.68702493514e-05
4.69845162179e-05
4.71365092305e-05
4.73209580313e-05
4.75331928427e-05
4.77691227574e-05
4.80252023519e-05
4.82983783146e-05
4.85862854624e-05
4.88876279574e-05
4.92011475268e-05
4.95258091436e-05
4.98607658147e-05
5.02053236551e-05
5.05589171277e-05
5.09210809797e-05
5.12914302357e-05
5.16696362198e-05
5.20554098619e-05
5.24484804844e-05
5.28485807212e-05
5.32554259549e-05
5.3668698501e-05
5.40880252701e-05
5.45129588785e-05
5.49429513649e-05
5.53773303592e-05
5.58152673808e-05
5.62557481768e-05
5.66975354721e-05
5.71391343864e-05
5.75787518598e-05
5.80142610687e-05
5.84431635279e-05
5.88625610672e-05
5.92691322107e-05
5.96591268175e-05
6.00283756018e-05
6.03723298394e-05
6.06861287965e-05
6.09647089415e-05
6.12029486553e-05
6.13958542819e-05
6.1538769037e-05
6.16275947723e-05
6.16589930446e-05
6.16305461181e-05
6.15408483557e-05
6.13895267967e-05
6.11771952635e-05
6.09051329887e-05
6.05756395882e-05
6.0191653839e-05
5.97565329916e-05
5.92739356449e-05
5.87477188566e-05
5.81818527855e-05
5.75803469834e-05
5.69471940279e-05
5.62863230677e-05
5.56015675059e-05
5.48966392276e-05
5.41751134949e-05
5.344041772e-05
5.26958284099e-05
5.19444702063e-05
5.11893212043e-05
5.04332188586e-05
4.96788702325e-05
4.89288610054e-05
4.81856663861e-05
4.74516584138e-05
4.67291123249e-05
4.60202065955e-05
4.53270177359e-05
4.46520572666e-05
4.39978336008e-05
4.33667134455e-05
4.2760861447e-05
4.21821448896e-05
4.16319999343e-05
4.11112509581e-05
4.06198799085e-05
4.01567389748e-05
3.97192074069e-05
3.93027936226e-05
3.89006946243e-05
3.85033298457e-05
3.80978813179e-05
3.76678818049e-05
3.71929104562e-05
3.66484687914e-05
3.60061298202e-05
3.52340695103e-05
3.42981122683e-05
3.31634417294e-05
3.17971503191e-05
3.01718154832e-05
2.82702990571e-05
2.60919718996e-05
2.36606124651e-05
2.10344516051e-05
1.83201396067e-05
1.56858107327e-05
7.79388477565e-05
7.77594461392e-05
7.7404213851e-05
7.68801740136e-05
7.61973055021e-05
7.53681092767e-05
7.44070606324e-05
7.33300354906e-05
7.21537738777e-05
7.08953941668e-05
6.95719963662e-05
6.82003453996e-05
6.67966532071e-05
6.53764306256e-05
6.3954410873e-05
6.25445043022e-05
6.11597799545e-05
5.98124345742e-05
5.8513750835e-05
5.72740173924e-05
5.61024268894e-05
5.50069409423e-05
5.39941527731e-05
5.30691487285e-05
5.22354057422e-05
5.14947270449e-05
5.08472470222e-05
5.02914965765e-05
4.98245444716e-05
4.94421902202e-05
4.91392091847e-05
4.89096153209e-05
4.87469368974e-05
4.86444714796e-05
4.85955205463e-05
4.85935787461e-05
4.86324876739e-05
4.87065388984e-05
4.88105438171e-05
4.89398611519e-05
4.90904028396e-05
4.92586107061e-05
4.94414239278e-05
4.96362288152e-05
4.98408108848e-05
5.00541282172e-05
5.02752942358e-05
5.05035810674e-05
5.07383912664e-05
5.09792287062e-05
5.12256798572e-05
5.147739197e-05
5.17340593043e-05
5.19954051389e-05
5.2261170914e-05
5.25311008177e-05
5.2804932658e-05
5.30823835845e-05
5.3363141052e-05
5.36468479637e-05
5.39330921175e-05
5.42213893412e-05
5.45111702884e-05
5.4801760776e-05
5.50923656075e-05
5.53820463381e-05
5.56697030683e-05
5.59540514231e-05
5.62336051473e-05
5.65066563309e-05
5.67712642299e-05
5.70252456741e-05
5.72661786313e-05
5.74914127723e-05
5.76980988064e-05
5.78832304068e-05
5.8043709163e-05
5.81764240805e-05
5.82783517965e-05
5.83466636916e-05
5.83788395748e-05
5.83727688299e-05
5.8326835721e-05
5.82399718595e-05
5.81116797159e-05
5.79420196312e-05
5.77315764332e-05
5.7481063402e-05
5.719185169e-05
5.68656766026e-05
5.6504491501e-05
5.61104112683e-05
5.5685669864e-05
5.52325796782e-05
5.47534990297e-05
5.42508019137e-05
5.37268560903e-05
5.31840032166e-05
5.26245461046e-05
5.20507370968e-05
5.14647723878e-05
5.08687866668e-05
5.02648525542e-05
4.96549793887e-05
4.90411152792e-05
4.84251469807e-05
4.78089008294e-05
4.71941393038e-05
4.65825560416e-05
4.59757645299e-05
4.5375282901e-05
4.47829321565e-05
4.42006277653e-05
4.36301130039e-05
4.30728852425e-05
4.2530089177e-05
4.20023740625e-05
4.14897077616e-05
4.09911462861e-05
4.05045541614e-05
4.0026278775e-05
3.95507822153e-05
3.90702449533e-05
3.8574160372e-05
3.80489532645e-05
3.7477664073e-05
3.683975725e-05
3.61111238775e-05
3.52643674511e-05
3.42694776888e-05
3.30950212043e-05
3.17100025521e-05
3.00865816886e-05
2.82038644519e-05
2.60530091758e-05
2.3643904367e-05
2.10136858052e-05
1.82374560257e-05
1.5442210916e-05
1.28214364096e-05
7.55438079845e-05
7.53922541594e-05
7.50921034981e-05
7.4649213109e-05
7.40719031663e-05
7.33705851069e-05
7.25572901344e-05
7.16451802185e-05
7.06480997111e-05
6.95801752564e-05
6.84555005951e-05
6.72878944654e-05
6.60907478761e-05
6.48769300807e-05
6.36587534203e-05
6.244795552e-05
6.12556946985e-05
6.00925201692e-05
5.89683213037e-05
5.78922313385e-05
5.68725053399e-05
5.59163644267e-05
5.50298399172e-05
5.42176199752e-05
5.34829367048e-05
5.282749493e-05
5.22514724407e-05
5.17535805554e-05
5.13311989894e-05
5.09805586083e-05
5.06969726208e-05
5.04750813654e-05
5.03091075749e-05
5.01930893483e-05
5.01210933158e-05
5.00873838966e-05
5.00865600543e-05
5.01136443671e-05
5.01641425847e-05
5.02340638664e-05
5.03199224667e-05
5.04187123556e-05
5.05278742575e-05
5.06452442246e-05
5.0768998026e-05
5.0898072892e-05
5.10319921326e-05
5.11703667832e-05
5.13128826597e-05
5.1459276591e-05
5.1609322963e-05
5.17628180894e-05
5.19195727834e-05
5.207940032e-05
5.22421111038e-05
5.240750246e-05
5.25753545574e-05
5.27454211849e-05
5.29174258942e-05
5.30910525952e-05
5.3265940816e-05
5.34416751658e-05
5.36177790286e-05
5.37937024953e-05
5.39688144633e-05
5.41423893989e-05
5.43135986935e-05
5.44814976308e-05
5.46450180003e-05
5.4802957937e-05
5.49539791897e-05
5.50966039489e-05
5.52292215593e-05
5.53500976233e-05
5.54573956151e-05
5.55492033306e-05
5.5623573258e-05
5.56785679173e-05
5.5712316948e-05
5.57230745915e-05
5.57092814558e-05
5.56696173414e-05
5.56030480766e-05
5.55088546701e-05
5.53866506573e-05
5.52363801873e-05
5.50583018663e-05
5.48529539846e-05
5.46207391145e-05
5.43624771445e-05
5.40792456399e-05
5.37722210844e-05
5.34426531152e-05
5.30918468435e-05
5.27211467917e-05
5.23319194151e-05
5.1925540815e-05
5.15033840356e-05
5.10668115033e-05
5.06171669457e-05
5.01557717992e-05
4.96839206562e-05
4.92028803206e-05
4.87138871426e-05
4.82181465985e-05
4.77168297534e-05
4.72110698866e-05
4.67019539265e-05
4.61905116647e-05
4.56776982987e-05
4.51643732916e-05
4.46515147879e-05
4.41403274142e-05
4.36318205625e-05
4.31267271821e-05
4.26253912929e-05
4.21276221412e-05
4.16325089904e-05
4.11381967595e-05
4.06416195412e-05
4.01381970527e-05
3.96214993357e-05
3.90828957228e-05
3.85112082261e-05
3.78924029788e-05
3.72093609997e-05
3.64417850496e-05
3.55663097908e-05
3.45569000643e-05
3.33856372406e-05
3.20240179895e-05
3.0444917458e-05
2.86254094362e-05
2.65506829132e-05
2.42193470408e-05
2.16504592842e-05
1.88926357484e-05
1.60356120028e-05
1.32247403252e-05
1.06758901059e-05
7.3530449423e-05
7.34027210039e-05
7.31497266169e-05
7.27763874294e-05
7.2289685782e-05
7.16983282818e-05
7.1012324274e-05
7.02425573691e-05
6.94004052278e-05
6.84974121102e-05
6.75450461941e-05
6.65545261473e-05
6.55367309565e-05
6.4502158482e-05
6.34609312308e-05
6.24228064734e-05
6.13971868918e-05
6.03930944891e-05
5.94191146544e-05
5.84832884796e-05
5.75929765804e-05
5.67546888671e-05
5.59739163309e-05
5.52549680546e-05
5.46008517737e-05
5.40131978126e-05
5.34922550622e-05
5.30369456274e-05
5.26449911457e-05
5.23130829905e-05
5.20370973373e-05
5.18123203965e-05
5.1633682415e-05
5.14959686477e-05
5.13940117125e-05
5.13228419375e-05
5.12778083437e-05
5.12546550245e-05
5.12495715025e-05
5.12592066514e-05
5.12806669836e-05
5.13114903079e-05
5.1349614703e-05
5.13933320889e-05
5.14412401665e-05
5.14922242465e-05
5.15461482131e-05
5.16029536192e-05
5.16626174493e-05
5.17251201706e-05
5.17904346097e-05
5.18585161878e-05
5.19293019063e-05
5.20027042369e-05
5.20786110765e-05
5.21568802951e-05
5.22373400402e-05
5.23197836841e-05
5.24039700216e-05
5.24896179377e-05
5.25764058099e-05
5.26639653032e-05
5.27518796134e-05
5.28396762587e-05
5.29268243299e-05
5.30127267255e-05
5.30967171916e-05
5.31780531097e-05
5.32559138094e-05
5.33293957488e-05
5.33975143117e-05
5.34592039091e-05
5.35133260376e-05
5.35586771716e-05
5.3594005819e-05
5.36180304621e-05
5.36294669244e-05
5.36270561801e-05
5.36095997792e-05
5.35759927848e-05
5.35252599455e-05
5.34565844059e-05
5.33693344181e-05
5.32630785566e-05
5.31375964979e-05
5.2992877844e-05
5.28291156565e-05
5.26466824663e-05
5.24461000386e-05
5.22277039147e-05
5.19919619701e-05
5.1739602609e-05
5.14713852784e-05
5.11880859941e-05
5.08904896374e-05
5.05793795632e-05
5.02555318486e-05
4.99197073674e-05
4.95726478322e-05
4.92150706026e-05
4.88476672827e-05
4.84711007161e-05
4.80860049597e-05
4.76929829518e-05
4.72926058481e-05
4.68854086945e-05
4.64718857299e-05
4.60524800022e-05
4.56275703208e-05
4.51974512183e-05
4.4762309116e-05
4.43222134072e-05
4.38776162177e-05
4.34287501714e-05
4.29755448809e-05
4.251751372e-05
4.20536097411e-05
4.15820458641e-05
4.11000809001e-05
4.06037698672e-05
4.00876851595e-05
3.95446152325e-05
3.89652579296e-05
3.83379291667e-05
3.76483204937e-05
3.68793457172e-05
3.60111312192e-05
3.50212138102e-05
3.38850264061e-05
3.25767660212e-05
3.10707629226e-05
2.9343499671e-05
2.73764767652e-05
2.51601858926e-05
2.26995384436e-05
2.00211928384e-05
1.71833027683e-05
1.42881799877e-05
1.14979570123e-05
9.04929935969e-06
7.1805847281e-05
7.1699041485e-05
7.14874718535e-05
7.11752678307e-05
7.07682764917e-05
7.02737455236e-05
6.96999341839e-05
6.90557305826e-05
6.83503285658e-05
6.7592963375e-05
6.67927356756e-05
6.59585038927e-05
6.50988543925e-05
6.42221118569e-05
6.33363858703e-05
6.24496092471e-05
6.15695648952e-05
6.07038650164e-05
5.98598923737e-05
5.90446842233e-05
5.82647854256e-05
5.75260671313e-05
5.68335490789e-05
5.6191228863e-05
5.56019566206e-05
5.50673534812e-05
5.45878015492e-05
5.41624902357e-05
5.37895314731e-05
5.34661151884e-05
5.31887068021e-05
5.29532524418e-05
5.27553921582e-05
5.25906501945e-05
5.24546083528e-05
5.23430395302e-05
5.22520150101e-05
5.21779700637e-05
5.21177466862e-05
5.20686024098e-05
5.20282058525e-05
5.19946091767e-05
5.19662170194e-05
5.19417411115e-05
5.19201597948e-05
5.19006573045e-05
5.18829571521e-05
5.18673880898e-05
5.18542293813e-05
5.18437017286e-05
5.18359695277e-05
5.1831139404e-05
5.18292658848e-05
5.1830351187e-05
5.18343503588e-05
5.18411703698e-05
5.18506744384e-05
5.18626806334e-05
5.18769654624e-05
5.18932617824e-05
5.19112613508e-05
5.19306117726e-05
5.19509179213e-05
5.19717380127e-05
5.19925842269e-05
5.20129184415e-05
5.20321528229e-05
5.20496461873e-05
5.20647057504e-05
5.20765854854e-05
5.20844905748e-05
5.20875794165e-05
5.20849724713e-05
5.20757595324e-05
5.20590143427e-05
5.20338080398e-05
5.19992297254e-05
5.19544052414e-05
5.1898521544e-05
5.18308472311e-05
5.17507557834e-05
5.16577419847e-05
5.15514380228e-05
5.14316207023e-05
5.12982171934e-05
5.11513021895e-05